FOO
141312
    1MOL0     O    1   0.980   2.729   6.048  0.7304 -0.9485  0.1039
    1MOL0     C    2   0.914   2.708   6.146 -0.3001 -0.6582  1.3969
    1MOL0     O    3   0.911   2.786   6.252 -0.8195 -0.1092 -0.1579
    1MOL0     C    4   0.984   2.902   6.260 -0.1194  0.1356 -0.2991
    1MOL0     C    5   1.119   2.908   6.293 -0.5390 -0.3463  0.8720
    1MOL0     C    6   1.195   3.024   6.282 -0.9594  0.7661  0.1712
    1MOL0     C    7   1.130   3.141   6.259 -0.2846  0.1057 -0.4858
    1MOL0     O    8   1.213   3.252   6.244 -0.0139  0.7331 -0.5004
    1MOL0     C    9   1.288   3.269   6.123  0.8730  0.5801  0.3269
    1MOL0     C   10   1.298   3.415   6.105 -0.4897 -0.0227 -0.8362
    1MOL0     C   11   1.383   3.469   5.995  0.2612 -0.3956 -0.1182
    1MOL0     C   12   1.494   3.555   6.056 -0.1666 -0.7004  0.9248
    1MOL0     C   13   1.576   3.602   5.934  0.2180  0.0526  0.1312
    1MOL0     C   14   1.623   3.742   5.956  0.8708 -0.0881 -1.1898
    1MOL0     C   15   1.716   3.775   5.846 -0.8602  0.3046 -0.6966
    1MOL0     C   16   1.795   3.906   5.865  0.3255 -1.0986  0.3330
    1MOL0     N   17   1.886   3.945   5.748  0.1702 -0.2507 -0.2229
    1MOL0     C   18   2.023   3.938   5.743 -0.1342 -0.3657  0.6639
    1MOL0     C   19   2.045   3.965   5.611 -0.5378 -0.6006 -0.1541
    1MOL0     C   20   2.189   3.985   5.559  0.8600  1.0420 -0.0243
    1MOL0     C   21   2.201   4.091   5.449  0.1798 -1.0201  0.2973
    1MOL0     C   22   2.325   4.178   5.482  0.2133  0.6480 -0.1240
    1MOL0     C   23   2.454   4.094   5.463 -0.9146 -0.0946  0.6245
    1MOL0     O   24   2.471   4.023   5.335  0.2426 -0.3059 -0.4549
    1MOL0     C   25   2.576   4.068   5.260 -0.3239 -0.7286 -0.1740
    1MOL0     C   26   2.576   4.196   5.210 -1.2671  0.0350  0.0507
    1MOL0     C   27   2.675   4.235   5.113  0.0351 -0.2295 -0.6493
    1MOL0     C   28   2.643   4.370   5.054  0.4368  0.3236 -0.2066
    1MOL0     C   29   2.784   4.155   5.085  0.5161  0.4910  0.1630
    1MOL0     C   30   2.881   4.201   4.983 -0.0186  0.1039  0.6809
    1MOL0     O   31   3.009   4.186   5.020  0.1717 -0.1486 -0.6834
    1MOL0     C   32   3.103   4.228   4.923 -0.4228 -0.3971  0.2571
    1MOL0     C   33   3.146   4.358   4.911  0.6264 -0.8592  0.6021
    1MOL0     C   34   3.238   4.386   4.817 -0.4371 -0.0815 -0.8504
    1MOL0     C   35   3.304   4.287   4.740  0.0778  0.8626 -0.1980
    1MOL0     O   36   3.401   4.336   4.655 -0.0832  0.2374  0.1876
    1MOL0     C   37   3.513   4.256   4.613  0.1646  0.7542  0.3825
    1MOL0     C   38   3.630   4.349   4.561  0.1987  0.1891  0.9881
    1MOL0     C   39   3.694   4.439   4.657  0.6162 -0.1766  0.9236
    1MOL0     C   40   3.799   4.537   4.601  0.3949 -1.2345 -0.5952
    1MOL0     C   41   3.872   4.590   4.725  0.9130  0.8842 -0.4527
    1MOL0     C   42   3.949   4.715   4.692 -0.7255 -0.2549 -0.2970
    1MOL0     C   43   3.873   4.844   4.671  0.3797 -0.6066  0.2168
    1MOL0     C   44   3.789   4.883   4.799  0.1679 -0.7204 -0.4879
    1MOL0    Cl   45   3.700   5.029   4.767  0.0390  0.0763  0.1148
    1MOL0     C   46   3.263   4.156   4.754  0.6807  0.0653  0.0568
    1MOL0     C   47   3.162   4.132   4.852  0.4370  0.0174  0.4095
    1MOL0     O   48   2.840   4.227   4.868  0.2221 -0.8207 -0.3780
    1MOL0     C   49   2.793   4.025   5.135 -0.0025  0.4482 -0.6020
    1MOL0     C   50   2.682   3.979   5.222 -0.1513  0.4433  0.0970
    1MOL0     N   51   1.927   4.000   5.547  0.5270  0.8325 -0.1431
    1MOL0     N   52   1.830   3.974   5.629 -0.1443  0.0007  0.4571
    1MOL0     C   53   0.993   3.140   6.230  0.3101  0.4357 -0.2836
    1MOL0     C   54   0.921   3.025   6.234 -0.0261 -0.4369  1.0733
    1MOL0     C   55   0.841   2.578   6.155  0.5713  0.8457 -0.2941
    1MOL0     C   56   0.840   2.503   6.276 -0.1587  0.3363  0.2736
    1MOL0     C   57   0.789   2.369   6.281 -1.0189  0.1358  0.9202
    1MOL0     C   58   0.745   2.305   6.166  0.3136 -0.6886  0.4875
    1MOL0     O   59   0.700   2.181   6.147 -0.0371  0.2500 -0.0099
    1MOL0     C   60   0.784   2.071   6.179 -0.2784 -0.4878  0.3394
    1MOL0     C   61   0.702   1.966   6.245  0.1063  0.5797  1.2271
    1MOL0     C   62   0.599   1.904   6.133 -0.0850 -0.5175 -0.7355
    1MOL0     C   63   0.523   1.777   6.173 -0.2437  0.8388 -0.6081
    1MOL0     C   64   0.440   1.803   6.301 -0.5047  0.0670 -0.0243
    1MOL0     C   65   0.368   1.813   6.398 -0.0461  0.3102  0.1922
    1MOL0     C   66   0.737   2.377   6.046 -0.1021  0.3883  0.0490
    1MOL0     C   67   0.781   2.512   6.044  0.1723  0.1620  0.2177
    1MOL0     C   68   0.760   2.581   5.910 -0.5708 -0.0021 -0.4314
    1MOL0     H   69   1.175   2.817   6.314  1.0731 -0.3055 -2.6280
    1MOL0     H   70   1.301   3.020   6.307 -0.8586 -1.2604 -0.3345
    1MOL0     H   71   1.245   3.234   6.029  1.5006 -1.1478  0.6609
    1MOL0     H   72   1.383   3.216   6.130  1.0848  0.5445 -2.1147
    1MOL0     H   73   1.200   3.464   6.096 -0.5974  0.9128  3.3186
    1MOL0     H   74   1.337   3.440   6.204 -0.2614 -2.2869 -0.3056
    1MOL0     H   75   1.426   3.381   5.946  3.4330  1.4850 -1.0528
    1MOL0     H   76   1.323   3.519   5.919 -3.1391  0.2513  2.7493
    1MOL0     H   77   1.454   3.647   6.099  0.7663 -0.8727  2.2339
    1MOL0     H   78   1.550   3.504   6.135 -0.2018 -0.4018  1.1421
    1MOL0     H   79   1.519   3.612   5.840 -0.1357  1.4126  0.4663
    1MOL0     H   80   1.660   3.532   5.931  1.5720  1.4904  2.2186
    1MOL0     H   81   1.540   3.811   5.936 -0.2906 -1.2163 -0.3953
    1MOL0     H   82   1.666   3.761   6.055 -2.3993  3.7330 -0.2065
    1MOL0     H   83   1.660   3.763   5.753 -0.6872 -1.6303 -0.5982
    1MOL0     H   84   1.788   3.693   5.837 -0.3675  0.1710  2.9283
    1MOL0     H   85   1.720   3.986   5.863  1.1262 -0.2592  2.1779
    1MOL0     H   86   1.857   3.907   5.955  2.0557 -1.1364 -0.8142
    1MOL0     H   87   2.089   3.920   5.827 -3.4151 -0.9717  3.3382
    1MOL0     H   88   2.229   3.895   5.511 -0.4886  0.5341 -0.2300
    1MOL0     H   89   2.244   4.009   5.651  0.5511 -2.4712  1.2386
    1MOL0     H   90   2.205   4.047   5.349 -0.9147 -2.2124  0.7587
    1MOL0     H   91   2.114   4.159   5.451 -0.3558 -1.5960 -1.3431
    1MOL0     H   92   2.320   4.267   5.419 -2.0171  0.6750  0.0378
    1MOL0     H   93   2.324   4.202   5.588 -2.6666 -1.6056  0.4917
    1MOL0     H   94   2.540   4.152   5.498 -0.9049 -0.3504  1.0323
    1MOL0     H   95   2.462   4.026   5.548 -1.0056 -1.2611 -0.2722
    1MOL0     H   96   2.484   4.251   5.226 -1.6006  0.2517 -2.3160
    1MOL0     H   97   2.715   4.446   5.084  3.6082 -2.9349  1.1971
    1MOL0     H   98   2.541   4.404   5.076  0.1937 -0.0467 -0.7247
    1MOL0     H   99   2.644   4.355   4.946  1.8960 -1.2148 -0.0349
    1MOL0     H  100   3.090   4.444   4.944  1.6780  1.8314 -3.7106
    1MOL0     H  101   3.264   4.488   4.791  3.0209 -0.6209  0.0022
    1MOL0     H  102   3.561   4.184   4.680 -1.7883 -1.5702 -0.5486
    1MOL0     H  103   3.484   4.192   4.529  3.2955  3.4244 -3.0803
    1MOL0     H  104   3.702   4.281   4.514 -0.8921  0.1091 -0.6488
    1MOL0     H  105   3.587   4.405   4.477 -2.4699 -1.8647  0.8428
    1MOL0     H  106   3.737   4.387   4.743  0.9629  0.1321  0.9435
    1MOL0     H  107   3.618   4.497   4.709 -0.8602 -1.0067 -0.2423
    1MOL0     H  108   3.756   4.613   4.536  1.1948 -0.7027 -0.5188
    1MOL0     H  109   3.864   4.481   4.534 -0.7000  0.5381 -3.3193
    1MOL0     H  110   3.801   4.625   4.800  0.5022  0.1338 -0.4828
    1MOL0     H  111   3.936   4.517   4.775 -0.6480 -0.3351 -0.1534
    1MOL0     H  112   3.996   4.694   4.596 -2.2835  1.3958 -1.5035
    1MOL0     H  113   4.014   4.737   4.777  0.2196 -3.4281 -0.0801
    1MOL0     H  114   3.793   4.834   4.598  0.0085 -1.5948  0.7449
    1MOL0     H  115   3.945   4.923   4.649  0.3465 -0.1146  1.7089
    1MOL0     H  116   3.846   4.910   4.889 -0.0957 -1.3615 -0.1177
    1MOL0     H  117   3.720   4.804   4.830 -0.8549 -0.0070 -0.9242
    1MOL0     H  118   3.321   4.076   4.710 -2.0566 -3.2988  2.0367
    1MOL0     H  119   3.132   4.034   4.886 -3.6295  0.7984 -0.4102
    1MOL0     H  120   2.856   3.943   5.102 -1.5827 -1.3597  0.6316
    1MOL0     H  121   2.667   3.879   5.261  3.9518 -0.1774  0.5068
    1MOL0     H  122   0.951   3.238   6.209 -0.0664 -0.0588 -2.0126
    1MOL0     H  123   0.815   3.027   6.211  0.0207 -0.1362  0.8795
    1MOL0     H  124   0.884   2.549   6.364 -0.0941 -1.8979  1.4922
    1MOL0     H  125   0.794   2.304   6.368 -1.5451 -0.5001  0.4881
    1MOL0     H  126   0.839   2.042   6.089 -2.6451  0.4846 -1.5281
    1MOL0     H  127   0.857   2.100   6.255 -1.7393  1.3593  1.1118
    1MOL0     H  128   0.649   2.013   6.329  2.5186  4.1618  0.9438
    1MOL0     H  129   0.762   1.885   6.287  1.9155  0.4890 -1.2755
    1MOL0     H  130   0.514   1.967   6.104  0.9371  0.2686 -2.1555
    1MOL0     H  131   0.654   1.875   6.043 -0.7899  1.2280 -1.7886
    1MOL0     H  132   0.591   1.693   6.188  1.2425  1.7628 -1.7954
    1MOL0     H  133   0.461   1.735   6.093 -0.4044  1.6195 -0.9019
    1MOL0     H  134   0.304   1.836   6.481 -2.2765 -1.2504 -0.9776
    1MOL0     H  135   0.702   2.323   5.958 -0.6938 -1.0720  1.1303
    1MOL0     H  136   0.821   2.529   5.835 -0.0252  0.1387 -0.0863
    1MOL0     H  137   0.654   2.576   5.883 -0.7087 -0.7856  0.2168
    1MOL0     H  138   0.779   2.688   5.923 -2.1800  0.4280 -1.3728
    2MOL0     O  139  11.348   3.842  10.099 -0.2557  0.1019  0.4763
    2MOL0     C  140  11.319   3.920  10.014  0.5524 -0.9155  0.6205
    2MOL0     O  141  11.271   4.044  10.033  0.6934  0.3355  1.2234
    2MOL0     C  142  11.221   4.083  10.156 -1.4128 -0.4355 -0.2891
    2MOL0     C  143  11.156   4.001  10.253  0.7679  0.2123  1.2997
    2MOL0     C  144  11.093   4.042  10.367 -0.1085  0.2640 -0.6110
    2MOL0     C  145  11.101   4.170  10.405 -0.8174 -0.4343  0.7446
    2MOL0     O  146  11.046   4.225  10.516 -0.0709  0.7037 -0.1221
    2MOL0     C  147  10.906   4.216  10.534  0.0108  0.0683 -0.1562
    2MOL0     C  148  10.832   4.328  10.605  0.9081  0.0205 -0.0992
    2MOL0     C  149  10.903   4.420  10.702 -0.3852  0.2901  0.3330
    2MOL0     C  150  10.812   4.523  10.790 -1.0196 -0.2698  0.5431
    2MOL0     C  151  10.670   4.470  10.817 -0.0294 -0.7129 -0.4830
    2MOL0     C  152  10.596   4.570  10.906 -0.7560 -0.0858 -0.2038
    2MOL0     C  153  10.440   4.540  10.917 -0.3945 -0.9274  0.4091
    2MOL0     C  154  10.348   4.662  10.957 -0.0045  0.5967 -0.8226
    2MOL0     N  155  10.384   4.707  11.097  0.0613 -0.4871  1.0494
    2MOL0     C  156  10.457   4.815  11.128  1.5446  0.2784 -0.2820
    2MOL0     C  157  10.450   4.822  11.265  0.5095  0.1329  0.3222
    2MOL0     C  158  10.507   4.941  11.346 -0.5654 -0.0452 -0.4691
    2MOL0     C  159  10.606   4.899  11.453 -0.0067  0.5954 -0.0253
    2MOL0     C  160  10.733   4.868  11.379  0.5133 -0.3568  1.3800
    2MOL0     C  161  10.847   4.841  11.478  0.5141 -0.0644  0.3571
    2MOL0     O  162  10.826   4.724  11.553  0.0515 -0.3872 -1.0760
    2MOL0     C  163  10.785   4.724  11.683  0.4586  0.0129  0.6394
    2MOL0     C  164  10.750   4.592  11.724 -0.7686  0.3451  0.4115
    2MOL0     C  165  10.708   4.572  11.852 -0.0288 -0.0107 -0.1760
    2MOL0     C  166  10.680   4.432  11.893 -0.5384  0.0279 -1.2397
    2MOL0     C  167  10.696   4.683  11.936 -0.3928  0.2258 -0.8883
    2MOL0     C  168  10.676   4.662  12.082  0.0085 -0.1001 -0.3908
    2MOL0     O  169  10.577   4.583  12.125 -0.3052  0.4094 -0.0640
    2MOL0     C  170  10.524   4.602  12.245 -0.8511  0.3187 -1.5282
    2MOL0     C  171  10.501   4.485  12.322  0.5802 -0.7416  0.0993
    2MOL0     C  172  10.420   4.491  12.438 -0.4471  0.0806  0.0692
    2MOL0     C  173  10.387   4.612  12.496 -0.0878 -0.2571 -0.3788
    2MOL0     O  174  10.319   4.594  12.611  0.0889 -0.3699  0.0087
    2MOL0     C  175  10.192   4.519  12.604  0.0313  0.4052 -0.1114
    2MOL0     C  176  10.111   4.523  12.742 -0.3639 -0.7937 -0.8023
    2MOL0     C  177  10.201   4.474  12.864 -0.3117  0.4495 -0.6937
    2MOL0     C  178  10.104   4.480  12.991  0.3866 -0.3329  0.8812
    2MOL0     C  179  10.185   4.483  13.119 -0.1740 -0.7184 -0.4130
    2MOL0     C  180  10.238   4.633  13.142  0.1501  0.5315  0.1971
    2MOL0     C  181  10.355   4.642  13.243  0.4897 -0.4971  0.0401
    2MOL0     C  182  10.477   4.586  13.180 -0.4453  0.5313  0.7908
    2MOL0    Cl  183  10.600   4.561  13.317 -0.3039  0.1822  0.1919
    2MOL0     C  184  10.423   4.728  12.437 -0.8079 -0.6958 -0.3586
    2MOL0     C  185  10.481   4.720  12.306  0.2898  0.6957 -0.2342
    2MOL0     O  186  10.748   4.727  12.155  0.2634  0.2923 -0.8040
    2MOL0     C  187  10.725   4.810  11.893 -0.6988 -0.4042  0.3200
    2MOL0     C  188  10.768   4.830  11.765 -0.4402 -0.2311  0.4826
    2MOL0     N  189  10.361   4.721  11.304  0.4427  0.1679 -0.7116
    2MOL0     N  190  10.322   4.649  11.205 -0.4190 -0.9402  0.2531
    2MOL0     C  191  11.175   4.259  10.329 -0.0848  0.3221  0.3729
    2MOL0     C  192  11.233   4.215  10.200 -0.0980 -0.7507  0.9673
    2MOL0     C  193  11.310   3.858   9.877  0.0844 -0.2895 -0.5760
    2MOL0     C  194  11.185   3.852   9.810  0.3352  0.4256  0.4606
    2MOL0     C  195  11.180   3.806   9.675  0.0454  0.4059  0.6494
    2MOL0     C  196  11.279   3.720   9.627 -0.3001  0.0221  0.1701
    2MOL0     O  197  11.276   3.670   9.506  0.8389  0.8960  0.4432
    2MOL0     C  198  11.163   3.670   9.417 -0.0083 -1.5975 -0.3955
    2MOL0     C  199  11.153   3.548   9.337 -0.1534  0.1571  0.7507
    2MOL0     C  200  11.023   3.480   9.393 -0.8292 -0.0372  0.0977
    2MOL0     C  201  11.024   3.346   9.312 -0.4419  0.2519  0.1803
    2MOL0     C  202  10.886   3.307   9.286  0.1210  1.4859  0.4658
    2MOL0     C  203  10.777   3.279   9.252  0.0899  0.7318 -0.3553
    2MOL0     C  204  11.391   3.714   9.698  0.7123  0.5698  0.3674
    2MOL0     C  205  11.411   3.781   9.818 -0.7414  0.0353 -0.5658
    2MOL0     C  206  11.558   3.789   9.860  0.9848  0.7503  0.1894
    2MOL0     H  207  11.146   3.901  10.212  1.1522  0.6035  0.1994
    2MOL0     H  208  11.030   3.977  10.426 -0.6040  0.9772 -0.3330
    2MOL0     H  209  10.899   4.121  10.589  0.8373 -0.0132 -0.1804
    2MOL0     H  210  10.858   4.198  10.437  5.4754 -2.6807 -2.7612
    2MOL0     H  211  10.772   4.378  10.528 -1.2138 -2.8533 -0.4928
    2MOL0     H  212  10.747   4.287  10.660  1.6379 -1.5729 -0.0869
    2MOL0     H  213  10.944   4.350  10.775 -0.5579 -0.3296 -0.1607
    2MOL0     H  214  10.992   4.477  10.672  1.6807 -2.0316  1.6441
    2MOL0     H  215  10.869   4.542  10.881 -1.5337 -0.4814  0.9133
    2MOL0     H  216  10.796   4.615  10.734  1.9360  0.2617  0.4259
    2MOL0     H  217  10.666   4.373  10.867  1.8057 -1.5045 -1.7341
    2MOL0     H  218  10.626   4.468  10.717  2.1293  0.8170 -1.5613
    2MOL0     H  219  10.636   4.573  11.007 -1.4915 -1.8335  0.1886
    2MOL0     H  220  10.610   4.670  10.863  1.8071 -0.8845 -1.4410
    2MOL0     H  221  10.427   4.459  10.990 -0.3362  0.0353  1.5022
    2MOL0     H  222  10.401   4.515  10.818  0.3933  2.2959 -0.8258
    2MOL0     H  223  10.362   4.744  10.886  1.5669 -0.2370 -1.5150
    2MOL0     H  224  10.244   4.626  10.957  0.4782 -0.9409 -2.3670
    2MOL0     H  225  10.499   4.878  11.050 -0.1077  0.1721 -1.3204
    2MOL0     H  226  10.424   4.999  11.386  0.3638  1.0245 -0.0143
    2MOL0     H  227  10.558   5.009  11.276 -0.3682 -1.4399 -1.7289
    2MOL0     H  228  10.618   4.980  11.526  0.8145 -0.1218  0.6593
    2MOL0     H  229  10.556   4.826  11.517  1.0964 -0.0349  0.1444
    2MOL0     H  230  10.724   4.778  11.318 -2.5842 -0.9968  2.5768
    2MOL0     H  231  10.755   4.959  11.322 -1.0638 -0.3468  0.7383
    2MOL0     H  232  10.944   4.822  11.431  1.7165  1.3980  2.0761
    2MOL0     H  233  10.883   4.927  11.536  2.4945  0.0085 -0.8923
    2MOL0     H  234  10.759   4.511  11.652 -3.4508  0.6110 -0.3123
    2MOL0     H  235  10.589   4.418  11.952  0.4151  2.0994  0.8739
    2MOL0     H  236  10.769   4.396  11.946 -1.9064 -1.2642  0.2893
    2MOL0     H  237  10.677   4.361  11.810  3.3744 -0.7064 -0.9527
    2MOL0     H  238  10.540   4.392  12.282  1.6960 -1.0586  1.8075
    2MOL0     H  239  10.415   4.405  12.504 -0.0101  0.4031  0.5232
    2MOL0     H  240  10.135   4.572  12.528 -0.6397  1.4158  1.0565
    2MOL0     H  241  10.189   4.414  12.573 -2.9975  0.9525 -2.0107
    2MOL0     H  242  10.091   4.626  12.770  0.8964 -0.8469  0.3759
    2MOL0     H  243  10.015   4.472  12.727 -1.4683  1.3880 -1.6278
    2MOL0     H  244  10.286   4.542  12.869  0.2246 -0.2864  2.2078
    2MOL0     H  245  10.240   4.371  12.860 -1.7199 -0.2050  1.2017
    2MOL0     H  246  10.045   4.388  12.982 -4.9781  2.6737  1.5024
    2MOL0     H  247  10.037   4.565  12.977  1.4996  0.0114 -5.1208
    2MOL0     H  248  10.132   4.462  13.212 -1.2595  0.5912 -0.7187
    2MOL0     H  249  10.260   4.405  13.098 -0.2417 -0.3318 -2.2783
    2MOL0     H  250  10.150   4.691  13.172 -0.1390  0.1628  0.0695
    2MOL0     H  251  10.285   4.669  13.051  0.6850 -0.2567  0.1547
    2MOL0     H  252  10.334   4.593  13.338  0.5837  1.6669  1.2413
    2MOL0     H  253  10.390   4.744  13.262  2.7219 -0.8246 -1.8144
    2MOL0     H  254  10.518   4.650  13.103  0.0542 -3.0808 -2.2461
    2MOL0     H  255  10.458   4.489  13.132  2.9185 -1.3132  2.7446
    2MOL0     H  256  10.403   4.832  12.463 -2.7143 -0.6152 -1.9683
    2MOL0     H  257  10.505   4.814  12.258 -0.0126  2.7689  3.2905
    2MOL0     H  258  10.718   4.893  11.963 -2.6667 -0.0201 -0.2757
    2MOL0     H  259  10.784   4.934  11.739 -0.1151 -0.0863  1.2321
    2MOL0     H  260  11.178   4.366  10.351 -3.7072  0.1708  2.4180
    2MOL0     H  261  11.290   4.283  10.138 -0.4222 -2.6807 -1.6166
    2MOL0     H  262  11.093   3.906   9.833  0.3645  1.5771 -1.8452
    2MOL0     H  263  11.090   3.831   9.620  2.0353  2.7167 -1.8980
    2MOL0     H  264  11.068   3.677   9.472 -0.4966 -5.2895 -0.5242
    2MOL0     H  265  11.142   3.761   9.361 -5.0054 -1.4033  1.2589
    2MOL0     H  266  11.245   3.492   9.354 -0.1152 -0.3794 -1.1055
    2MOL0     H  267  11.143   3.584   9.234  1.0241 -0.2814  0.4622
    2MOL0     H  268  11.033   3.453   9.499  4.5820  0.4913  0.0086
    2MOL0     H  269  10.928   3.529   9.372 -1.2647 -0.9413 -0.0844
    2MOL0     H  270  11.071   3.266   9.369  0.8660 -0.2733 -1.5476
    2MOL0     H  271  11.068   3.360   9.212 -0.0960 -2.2559 -0.0729
    2MOL0     H  272  10.682   3.234   9.230  0.0970 -0.9389  2.6415
    2MOL0     H  273  11.465   3.646   9.656 -1.2804 -1.0536 -0.7253
    2MOL0     H  274  11.593   3.689   9.889  3.2278  0.3978 -3.1948
    2MOL0     H  275  11.609   3.811   9.766  2.4480 -4.8827 -0.7376
    2MOL0     H  276  11.589   3.860   9.937  2.8930  1.3741 -1.0724
    3MOL0     O  277   2.744   4.390   6.116 -0.0314 -0.2365  0.0065
    3MOL0     C  278   2.800   4.440   6.017  0.5793 -0.3840  0.6267
    3MOL0     O  279   2.884   4.369   5.939 -0.1546 -0.5806  0.1091
    3MOL0     C  280   2.933   4.256   5.999 -0.0156  0.1619 -0.1666
    3MOL0     C  281   2.884   4.123   5.970  0.0167 -0.0402  0.0568
    3MOL0     C  282   2.932   4.008   6.029 -0.9049  0.2217 -0.2671
    3MOL0     C  283   3.034   4.018   6.115 -0.3965 -0.4486 -0.4264
    3MOL0     O  284   3.075   3.897   6.169 -0.1705 -0.1161 -0.2318
    3MOL0     C  285   3.166   3.888   6.275 -0.2248  0.1188  0.0909
    3MOL0     C  286   3.140   3.753   6.360  0.1045  0.9861  0.7371
    3MOL0     C  287   3.172   3.629   6.275  0.2605 -0.5389  1.0638
    3MOL0     C  288   3.304   3.557   6.307 -0.9089 -0.0040 -0.2849
    3MOL0     C  289   3.295   3.408   6.261  0.0097 -0.1281 -0.0326
    3MOL0     C  290   3.230   3.319   6.364 -1.5305 -0.8355 -0.2765
    3MOL0     C  291   3.207   3.175   6.313  0.1750  0.5206 -1.3682
    3MOL0     C  292   3.321   3.074   6.288  0.2344 -0.4138 -1.0597
    3MOL0     N  293   3.396   3.039   6.402 -0.3841 -0.4127  0.6481
    3MOL0     C  294   3.350   2.981   6.515  0.2280  0.1171  0.1858
    3MOL0     C  295   3.450   2.931   6.586  0.0635  0.0630 -0.0114
    3MOL0     C  296   3.437   2.864   6.725  0.9001 -0.5917 -0.1108
    3MOL0     C  297   3.408   2.964   6.841  0.8145 -0.1225 -0.2560
    3MOL0     C  298   3.287   3.056   6.807  0.5726  0.0357  0.6366
    3MOL0     C  299   3.333   3.195   6.775  0.5036  0.1251 -0.1836
    3MOL0     O  300   3.216   3.275   6.740  0.4292 -0.8806  0.4501
    3MOL0     C  301   3.246   3.412   6.736  0.4718  0.4501 -0.4441
    3MOL0     C  302   3.371   3.469   6.741 -0.6759 -0.7803 -0.9111
    3MOL0     C  303   3.398   3.599   6.731 -0.5816  0.0899 -0.0538
    3MOL0     C  304   3.541   3.645   6.735 -0.1317 -1.9177 -0.2412
    3MOL0     C  305   3.288   3.688   6.710  0.3951 -1.1530  0.4813
    3MOL0     C  306   3.307   3.834   6.704 -0.8541 -0.5696  0.4063
    3MOL0     O  307   3.423   3.878   6.638  0.3089  0.2618 -0.3849
    3MOL0     C  308   3.436   4.009   6.617 -0.0600 -0.3536 -0.0518
    3MOL0     C  309   3.426   4.071   6.489 -0.5868  1.0775 -0.2795
    3MOL0     C  310   3.448   4.209   6.469 -0.7237 -0.4772 -0.6635
    3MOL0     C  311   3.486   4.296   6.576  0.2512  0.2837  0.3580
    3MOL0     O  312   3.509   4.431   6.574 -0.2707 -0.3457  0.9167
    3MOL0     C  313   3.563   4.484   6.452 -0.0494 -0.3282 -0.1752
    3MOL0     C  314   3.698   4.416   6.420  0.6239 -0.4823 -0.8195
    3MOL0     C  315   3.805   4.436   6.527 -0.0723 -0.2610  0.7371
    3MOL0     C  316   3.930   4.342   6.503  0.1149 -0.2241 -0.2613
    3MOL0     C  317   3.910   4.206   6.567  0.0085  0.4057 -0.4252
    3MOL0     C  318   4.035   4.117   6.582  0.3476  0.9246 -0.6704
    3MOL0     C  319   4.105   4.105   6.450  0.3856 -0.2562 -0.1866
    3MOL0     C  320   4.021   4.064   6.323  0.3261 -0.1109 -0.2294
    3MOL0    Cl  321   4.123   4.084   6.174  0.0417  0.6373 -0.3077
    3MOL0     C  322   3.495   4.237   6.705  0.1060 -0.0178  0.8756
    3MOL0     C  323   3.471   4.102   6.723 -0.1420 -0.0568 -0.7260
    3MOL0     O  324   3.219   3.903   6.743 -0.2497  0.4047 -0.1815
    3MOL0     C  325   3.155   3.631   6.697 -0.1277  0.2100  0.8340
    3MOL0     C  326   3.139   3.495   6.707  0.8084  0.3949 -0.4084
    3MOL0     N  327   3.559   2.952   6.514  0.3091  0.0445 -0.6897
    3MOL0     N  328   3.533   3.020   6.407 -0.2684  0.1564 -1.3275
    3MOL0     C  329   3.097   4.146   6.134 -0.0703 -0.2571  0.4997
    3MOL0     C  330   3.043   4.262   6.082 -0.3515 -0.1821  0.1244
    3MOL0     C  331   2.767   4.580   5.976 -1.3793  0.7011  0.1381
    3MOL0     C  332   2.860   4.652   5.895  0.6912 -0.0970  0.3986
    3MOL0     C  333   2.847   4.786   5.854  0.7501 -0.2699 -0.4973
    3MOL0     C  334   2.739   4.854   5.901 -0.2280 -0.6035  0.6453
    3MOL0     O  335   2.748   4.991   5.865 -0.5091  0.2305 -0.7467
    3MOL0     C  336   2.666   5.084   5.932  0.0013  0.6228 -0.1702
    3MOL0     C  337   2.737   5.126   6.064 -0.8338 -0.4825 -1.1098
    3MOL0     C  338   2.690   5.262   6.108  0.3119 -0.2017 -0.8220
    3MOL0     C  339   2.769   5.311   6.221  0.4848  0.6564 -0.9792
    3MOL0     C  340   2.900   5.365   6.179  0.4446  0.3357 -0.7142
    3MOL0     C  341   3.003   5.424   6.150 -0.7219  0.5814 -0.1075
    3MOL0     C  342   2.637   4.787   5.972 -0.3561  0.5410  0.2434
    3MOL0     C  343   2.653   4.660   6.011 -0.4985  0.5680 -0.2737
    3MOL0     C  344   2.535   4.609   6.097 -0.7347 -1.6898  0.7257
    3MOL0     H  345   2.796   4.120   5.906 -0.9365  0.5327  1.2764
    3MOL0     H  346   2.865   3.928   5.998 -0.1364 -1.0988  1.3866
    3MOL0     H  347   3.157   3.974   6.342 -0.0435 -1.8457  2.8043
    3MOL0     H  348   3.268   3.885   6.238  0.9195 -2.1548  3.0257
    3MOL0     H  349   3.204   3.752   6.449  0.7705  2.1498  0.2935
    3MOL0     H  350   3.034   3.747   6.386 -0.9100 -0.3333 -3.0421
    3MOL0     H  351   3.092   3.557   6.295 -0.8134  0.0100 -0.9780
    3MOL0     H  352   3.163   3.669   6.174 -1.0272  0.5825  1.5968
    3MOL0     H  353   3.370   3.623   6.250 -1.9003  1.1699 -0.1173
    3MOL0     H  354   3.312   3.569   6.415 -2.3444 -0.2038 -0.1376
    3MOL0     H  355   3.395   3.370   6.243 -0.9126 -2.1231 -1.2411
    3MOL0     H  356   3.247   3.389   6.165  0.6323 -2.4210  0.0545
    3MOL0     H  357   3.301   3.307   6.446  0.1143  0.5526 -1.4240
    3MOL0     H  358   3.142   3.361   6.412  0.8504  0.1147  3.6955
    3MOL0     H  359   3.149   3.187   6.220 -1.4808  3.6608 -0.0989
    3MOL0     H  360   3.147   3.126   6.391 -0.3794  0.2201 -1.9665
    3MOL0     H  361   3.275   2.979   6.258  0.8294 -1.2759  0.6113
    3MOL0     H  362   3.381   3.116   6.207  2.5045 -1.8993 -0.2366
    3MOL0     H  363   3.244   2.983   6.539  0.6085  2.0789  1.9352
    3MOL0     H  364   3.533   2.814   6.744  2.5497  1.4388 -2.4069
    3MOL0     H  365   3.357   2.790   6.723  0.6631 -0.4109  1.4469
    3MOL0     H  366   3.385   2.904   6.929  2.1051  0.3832  0.4438
    3MOL0     H  367   3.497   3.022   6.867  1.2458 -0.9887  0.2306
    3MOL0     H  368   3.226   3.010   6.729 -0.0978  2.1892 -0.1540
    3MOL0     H  369   3.226   3.054   6.898  1.3593  1.7073  1.2370
    3MOL0     H  370   3.384   3.228   6.866  0.1343 -0.7888  0.3591
    3MOL0     H  371   3.407   3.186   6.694  0.3862 -1.0381 -0.1742
    3MOL0     H  372   3.464   3.414   6.751  0.3414  0.8513 -1.1859
    3MOL0     H  373   3.593   3.656   6.640  3.5170  2.6846  1.8746
    3MOL0     H  374   3.595   3.580   6.804  1.3046 -0.6284 -0.0974
    3MOL0     H  375   3.555   3.742   6.784 -2.0610 -0.9337 -1.4937
    3MOL0     H  376   3.394   4.018   6.400 -3.7591 -2.3099  2.5645
    3MOL0     H  377   3.433   4.241   6.367 -1.6010 -0.6623 -0.6025
    3MOL0     H  378   3.501   4.480   6.362  4.4162 -2.3282 -3.5284
    3MOL0     H  379   3.587   4.589   6.474 -1.9918  0.2648 -0.6962
    3MOL0     H  380   3.677   4.310   6.403 -2.2413 -0.1066 -0.1207
    3MOL0     H  381   3.737   4.457   6.327  0.2024  1.6012 -0.1325
    3MOL0     H  382   3.765   4.413   6.626  3.2006  0.1642  2.2914
    3MOL0     H  383   3.832   4.541   6.537  2.6588 -1.1124  4.3536
    3MOL0     H  384   4.017   4.400   6.536  2.2149 -3.1243 -0.3061
    3MOL0     H  385   3.935   4.319   6.397 -3.0175 -0.0188 -0.5665
    3MOL0     H  386   3.873   4.231   6.667 -1.6647  1.4913 -1.2616
    3MOL0     H  387   3.831   4.144   6.523 -2.2943  1.9292  1.3472
    3MOL0     H  388   4.009   4.015   6.610  1.1273  0.6703 -0.8694
    3MOL0     H  389   4.098   4.164   6.658 -2.8221  0.8049  2.2925
    3MOL0     H  390   4.187   4.034   6.461 -0.4777 -1.4666 -1.2837
    3MOL0     H  391   4.153   4.199   6.421  2.1545 -1.0575  0.0555
    3MOL0     H  392   3.926   4.118   6.313 -0.6223 -2.1894 -4.4909
    3MOL0     H  393   3.993   3.958   6.326 -0.5495  0.1000 -0.5978
    3MOL0     H  394   3.516   4.303   6.788  0.7228  0.3590  0.4269
    3MOL0     H  395   3.481   4.071   6.827  2.1026  0.1918 -0.8272
    3MOL0     H  396   3.061   3.685   6.693  0.2663  0.8698  0.3416
    3MOL0     H  397   3.036   3.460   6.699  0.8774  0.5016 -2.2076
    3MOL0     H  398   3.185   4.161   6.197  0.4046  0.2603 -0.2737
    3MOL0     H  399   3.094   4.356   6.099 -0.6592  0.2977 -1.4409
    3MOL0     H  400   2.961   4.615   5.879  1.2868 -1.1057  5.0983
    3MOL0     H  401   2.926   4.809   5.783  2.7849  0.3243  1.8063
    3MOL0     H  402   2.664   5.172   5.868 -2.5937  0.6073 -0.2173
    3MOL0     H  403   2.560   5.058   5.941 -1.2815  3.3794 -4.2319
    3MOL0     H  404   2.845   5.132   6.048 -0.8601 -2.0471 -2.1149
    3MOL0     H  405   2.717   5.041   6.130  0.3472 -2.3697 -3.0553
    3MOL0     H  406   2.699   5.326   6.020  0.6108  0.6790 -0.1691
    3MOL0     H  407   2.584   5.253   6.135  0.6625 -0.0201  0.7452
    3MOL0     H  408   2.789   5.229   6.289 -1.2600  1.3434  0.4569
    3MOL0     H  409   2.701   5.380   6.272 -2.6544 -2.3097 -0.8100
    3MOL0     H  410   3.098   5.468   6.124 -0.0050  0.5667  2.2436
    3MOL0     H  411   2.534   4.822   5.969 -0.2330  1.4984  3.1806
    3MOL0     H  412   2.532   4.501   6.081 -1.2112 -1.4913 -0.6021
    3MOL0     H  413   2.548   4.652   6.197  0.1824 -1.5622  0.5601
    3MOL0     H  414   2.440   4.645   6.056  1.4236  3.8599 -0.2086
    4MOL0     O  415   6.037   7.185   6.382  0.2670  0.5433  0.0135
    4MOL0     C  416   5.938   7.173   6.303  0.6938 -0.6592  0.3865
    4MOL0     O  417   5.864   7.280   6.245 -0.2185 -0.3567 -0.5489
    4MOL0     C  418   5.919   7.413   6.250  1.2362 -0.2585  0.1793
    4MOL0     C  419   5.819   7.513   6.214 -0.1326  0.6416 -0.2790
    4MOL0     C  420   5.855   7.645   6.218  0.3093 -0.1424 -1.1130
    4MOL0     C  421   5.984   7.693   6.241  0.6343  0.7212  0.8574
    4MOL0     O  422   6.014   7.827   6.221  0.0494  0.9752  0.3533
    4MOL0     C  423   5.917   7.938   6.248 -0.2816  1.1054  0.1863
    4MOL0     C  424   5.964   8.078   6.286 -0.5579  0.2226  0.0085
    4MOL0     C  425   6.059   8.125   6.182  0.2224 -0.1211 -0.1064
    4MOL0     C  426   6.110   8.267   6.203  0.7860 -0.3974 -0.4882
    4MOL0     C  427   6.217   8.316   6.104 -0.7834 -0.8851  0.1814
    4MOL0     C  428   6.161   8.342   5.965  0.3124  1.9638  0.7627
    4MOL0     C  429   6.256   8.338   5.842  0.8311  0.0320 -0.6924
    4MOL0     C  430   6.185   8.322   5.713 -0.5102 -0.2315  0.1364
    4MOL0     N  431   6.114   8.444   5.684 -0.1180  0.4078 -0.5506
    4MOL0     C  432   6.007   8.450   5.607 -0.7837  0.1959  0.0380
    4MOL0     C  433   5.962   8.578   5.619 -0.6430 -0.1370 -0.1188
    4MOL0     C  434   5.849   8.635   5.540 -0.4719 -1.1601  0.0026
    4MOL0     C  435   5.892   8.708   5.414 -0.8575 -0.2721 -0.0660
    4MOL0     C  436   5.974   8.616   5.318  0.9750  1.0790 -0.1825
    4MOL0     C  437   5.963   8.681   5.176  0.1827  0.4954  0.4192
    4MOL0     O  438   5.843   8.633   5.104 -0.0336  0.2868  1.2841
    4MOL0     C  439   5.720   8.694   5.130 -0.1168 -0.0466  0.5502
    4MOL0     C  440   5.623   8.617   5.190 -0.4183 -0.3162 -1.0485
    4MOL0     C  441   5.498   8.681   5.220 -0.0587  0.6786  0.1574
    4MOL0     C  442   5.393   8.587   5.281  0.4707 -0.7183  1.0128
    4MOL0     C  443   5.468   8.805   5.157 -0.1399 -0.1777 -0.5085
    4MOL0     C  444   5.324   8.853   5.147  0.5324 -0.0811 -0.0583
    4MOL0     O  445   5.329   8.984   5.092  0.4498 -0.3908 -0.8456
    4MOL0     C  446   5.206   9.056   5.072 -0.1394  0.9298  0.6699
    4MOL0     C  447   5.124   9.019   4.959  0.0018  0.0069  0.2241
    4MOL0     C  448   4.996   9.076   4.945 -0.3193  0.1598  0.5917
    4MOL0     C  449   4.959   9.173   5.039  0.2173  0.3840  0.1866
    4MOL0     O  450   4.844   9.239   5.044 -0.8137 -0.0536  0.8690
    4MOL0     C  451   4.811   9.321   4.928 -0.7869  0.6817 -0.8765
    4MOL0     C  452   4.670   9.376   4.931  0.4752 -0.3008 -0.6225
    4MOL0     C  453   4.626   9.420   4.793  1.3005 -0.3499 -0.6840
    4MOL0     C  454   4.512   9.343   4.733  0.5486  0.0522  0.9111
    4MOL0     C  455   4.463   9.397   4.594  0.2305  0.7961  0.1540
    4MOL0     C  456   4.387   9.530   4.603  0.5546  0.3047 -0.0168
    4MOL0     C  457   4.244   9.489   4.575  0.4051  0.4746 -0.1525
    4MOL0     C  458   4.138   9.603   4.584  0.0502  0.4459  1.1193
    4MOL0    Cl  459   4.165   9.686   4.746  0.0916  0.3769  0.1637
    4MOL0     C  460   5.043   9.217   5.134 -0.2778  0.0314  0.4077
    4MOL0     C  461   5.168   9.165   5.151 -0.2137 -0.5671 -0.7304
    4MOL0     O  462   5.223   8.789   5.184 -0.1894  0.5155  0.4001
    4MOL0     C  463   5.578   8.876   5.104  0.2537 -0.0664 -0.4587
    4MOL0     C  464   5.700   8.824   5.082 -0.6083  0.8319 -0.0231
    4MOL0     N  465   6.043   8.640   5.714  0.9524  0.1161  0.5559
    4MOL0     N  466   6.136   8.564   5.745  0.4496  0.1183 -0.8413
    4MOL0     C  467   6.079   7.599   6.276  0.0188  0.8593 -0.6522
    4MOL0     C  468   6.046   7.462   6.280 -0.1310 -0.0255 -0.0938
    4MOL0     C  469   5.888   7.040   6.271  0.0198 -0.6576 -0.0113
    4MOL0     C  470   5.808   7.033   6.156 -0.7155 -0.1749 -0.0231
    4MOL0     C  471   5.764   6.912   6.107 -0.0644 -0.3214  0.7024
    4MOL0     C  472   5.810   6.789   6.174 -0.0265 -0.7503  0.9193
    4MOL0     O  473   5.787   6.660   6.142  0.1986  0.0965 -0.0022
    4MOL0     C  474   5.717   6.621   6.019 -0.4404 -0.1365 -0.3859
    4MOL0     C  475   5.579   6.564   6.049 -0.1670 -0.2509 -0.5079
    4MOL0     C  476   5.481   6.655   6.134 -1.3096  0.0719  0.1308
    4MOL0     C  477   5.352   6.585   6.153  0.2461  0.2388 -0.0611
    4MOL0     C  478   5.351   6.505   6.277  0.1847  0.4081 -0.0053
    4MOL0     C  479   5.353   6.431   6.375  0.5435 -0.2851  0.2445
    4MOL0     C  480   5.891   6.805   6.284  0.3212 -0.0294  0.1725
    4MOL0     C  481   5.927   6.927   6.344  0.3405 -0.7185  0.5371
    4MOL0     C  482   6.000   6.931   6.480 -0.3377 -0.1567  0.9140
    4MOL0     H  483   5.716   7.492   6.186  0.4881 -1.7759 -0.9807
    4MOL0     H  484   5.774   7.709   6.184  1.5084  2.7628  1.0161
    4MOL0     H  485   5.832   7.922   6.315 -1.2890  0.4810 -1.1855
    4MOL0     H  486   5.864   7.956   6.154 -4.7229  3.5069  2.7769
    4MOL0     H  487   5.882   8.149   6.296  0.0021  0.7009  1.5992
    4MOL0     H  488   6.018   8.079   6.381  1.2176 -0.4333 -0.9479
    4MOL0     H  489   6.142   8.054   6.178 -0.2846 -0.6989 -0.6819
    4MOL0     H  490   6.019   8.114   6.081  1.7561 -1.7624 -0.5813
    4MOL0     H  491   6.022   8.333   6.206  1.4556  0.4953  0.8884
    4MOL0     H  492   6.141   8.269   6.308  2.4639  0.2921 -0.9704
    4MOL0     H  493   6.298   8.244   6.089  0.4562  0.6467 -0.8474
    4MOL0     H  494   6.270   8.404   6.139 -0.9083 -0.6833 -0.1298
    4MOL0     H  495   6.091   8.260   5.943  2.4268  0.9172 -3.1538
    4MOL0     H  496   6.108   8.437   5.965  2.4714  3.2402  1.1013
    4MOL0     H  497   6.326   8.257   5.865  1.1945  0.1794 -1.2537
    4MOL0     H  498   6.322   8.424   5.853  0.5159 -0.0486  3.5442
    4MOL0     H  499   6.257   8.299   5.634 -0.4286  0.4797 -0.0005
    4MOL0     H  500   6.111   8.241   5.715  1.1204 -1.8070 -0.3335
    4MOL0     H  501   5.964   8.363   5.558 -0.3690 -1.8784  3.0868
    4MOL0     H  502   5.794   8.711   5.595  2.3004  0.2668  1.0193
    4MOL0     H  503   5.781   8.557   5.504 -0.6581 -1.6711  1.3812
    4MOL0     H  504   5.801   8.750   5.369 -0.1371  1.3109 -0.0977
    4MOL0     H  505   5.953   8.793   5.445 -1.0369 -0.2716  0.2959
    4MOL0     H  506   6.078   8.625   5.348  1.7761  2.3082 -3.0046
    4MOL0     H  507   5.935   8.514   5.317  1.4031  0.9125 -0.1086
    4MOL0     H  508   5.961   8.790   5.186  2.6803  0.5821  0.7001
    4MOL0     H  509   6.048   8.649   5.115 -0.7654 -0.0433 -0.6604
    4MOL0     H  510   5.648   8.515   5.218 -1.1458  0.0792  1.2317
    4MOL0     H  511   5.434   8.503   5.338 -3.2565 -2.1489  1.8445
    4MOL0     H  512   5.334   8.553   5.196 -0.1112  1.0339  0.6734
    4MOL0     H  513   5.330   8.644   5.350  2.8475  1.9067  1.1956
    4MOL0     H  514   5.154   8.936   4.897 -0.5616  0.7439 -1.0723
    4MOL0     H  515   4.924   9.051   4.867 -3.2592  2.7240  2.2222
    4MOL0     H  516   4.888   9.398   4.922 -0.8785  0.7563 -1.1235
    4MOL0     H  517   4.828   9.255   4.842  0.3101  3.2877 -2.8015
    4MOL0     H  518   4.606   9.292   4.958  0.0678  0.4915  1.0117
    4MOL0     H  519   4.662   9.455   5.006  0.1775 -0.2620 -0.6944
    4MOL0     H  520   4.707   9.403   4.721  0.8762 -2.5477 -0.7138
    4MOL0     H  521   4.612   9.529   4.792  0.1581 -0.4452 -3.2149
    4MOL0     H  522   4.433   9.363   4.806 -0.5611  1.6061 -0.6263
    4MOL0     H  523   4.532   9.236   4.730  0.0739 -0.0093 -1.4366
    4MOL0     H  524   4.550   9.411   4.530  0.4189  3.3841  0.8589
    4MOL0     H  525   4.400   9.325   4.540 -2.6398  3.2212  0.0063
    4MOL0     H  526   4.427   9.584   4.517 -1.8217 -0.5296 -1.7741
    4MOL0     H  527   4.409   9.578   4.698  1.3954  0.1286 -0.1212
    4MOL0     H  528   4.213   9.419   4.653 -3.1628 -1.4604 -2.9762
    4MOL0     H  529   4.220   9.434   4.484 -3.6575  1.6996 -0.0294
    4MOL0     H  530   4.036   9.565   4.585 -1.0584  3.1671  2.0135
    4MOL0     H  531   4.146   9.669   4.497 -0.7116 -0.8342  0.0359
    4MOL0     H  532   5.014   9.311   5.180 -0.8171 -0.1477  0.4488
    4MOL0     H  533   5.237   9.208   5.223 -0.7794  1.2835 -1.2423
    4MOL0     H  534   5.567   8.977   5.067  0.2045  0.0424 -0.1459
    4MOL0     H  535   5.777   8.875   5.024 -1.1480  1.4764 -0.1909
    4MOL0     H  536   6.181   7.630   6.292 -0.6692  3.8841 -1.5416
    4MOL0     H  537   6.127   7.394   6.302 -1.1012 -0.5563  2.1550
    4MOL0     H  538   5.787   7.122   6.097 -2.5970 -0.2281  0.4895
    4MOL0     H  539   5.697   6.914   6.021  1.5444  1.1066 -0.5693
    4MOL0     H  540   5.712   6.707   5.952  0.3903 -2.9656 -4.4583
    4MOL0     H  541   5.775   6.541   5.973  2.7719  1.0556  1.3009
    4MOL0     H  542   5.598   6.470   6.101  1.3468 -0.2887 -1.0837
    4MOL0     H  543   5.533   6.547   5.951  1.5519 -1.9844 -1.0732
    4MOL0     H  544   5.524   6.668   6.233  0.4187  2.2298 -0.8241
    4MOL0     H  545   5.457   6.747   6.079  2.9140 -0.4585 -3.1362
    4MOL0     H  546   5.330   6.517   6.070 -1.1953  0.8570 -0.2231
    4MOL0     H  547   5.270   6.657   6.148 -0.1487 -0.2746 -1.5622
    4MOL0     H  548   5.368   6.351   6.445  0.2843 -1.4047 -0.9313
    4MOL0     H  549   5.937   6.724   6.340  0.0289  0.7140  1.5229
    4MOL0     H  550   6.007   6.835   6.531  1.9884 -1.0042 -0.7967
    4MOL0     H  551   6.103   6.962   6.460 -0.4261 -0.1144  0.5299
    4MOL0     H  552   5.955   7.004   6.548  2.8188  0.9317  2.0269
    5MOL0     O  553   0.459   0.180  11.007 -0.5361 -0.1992  0.2012
    5MOL0     C  554   0.351   0.162  11.053  0.7014  1.0548 -0.6356
    5MOL0     O  555   0.252   0.088  11.003  0.5494 -0.1015 -0.0224
    5MOL0     C  556   0.255   0.054  10.869  0.3258  1.0645 -0.3529
    5MOL0     C  557   0.130  -0.004  10.834  0.7524  0.2290  0.7782
    5MOL0     C  558   0.101  -0.043  10.708  0.2176 -0.4827  0.9671
    5MOL0     C  559   0.208  -0.045  10.615  0.3223 -0.3325  0.1050
    5MOL0     O  560   0.191  -0.096  10.490  0.3956  0.1600  0.9222
    5MOL0     C  561   0.108  -0.212  10.455 -0.8317 -0.5133 -0.2945
    5MOL0     C  562   0.003  -0.183  10.358  0.2890 -0.3640  0.1529
    5MOL0     C  563   0.049  -0.107  10.228  0.1283  0.6594 -0.5411
    5MOL0     C  564   0.080  -0.208  10.117 -0.0960 -0.4151 -1.4020
    5MOL0     C  565  -0.048  -0.242  10.045  0.2252  0.1761  0.1935
    5MOL0     C  566  -0.099  -0.128   9.946  0.8931  0.2013  0.1492
    5MOL0     C  567  -0.230  -0.159   9.865  0.6566  0.7636  1.3318
    5MOL0     C  568  -0.263  -0.065   9.749 -0.8568 -0.4090 -0.5819
    5MOL0     N  569  -0.288   0.071   9.802  0.6150  0.3398  0.1842
    5MOL0     C  570  -0.192   0.168   9.840  0.8728  0.1149 -0.4467
    5MOL0     C  571  -0.262   0.276   9.891  0.6875 -0.3550  0.5464
    5MOL0     C  572  -0.215   0.400   9.953  0.5151 -0.4132 -0.4426
    5MOL0     C  573  -0.060   0.447   9.921 -0.3076 -0.2951 -0.9221
    5MOL0     C  574  -0.035   0.498   9.782 -0.7145 -0.0640  0.0877
    5MOL0     C  575  -0.051   0.643   9.767 -0.7198 -0.1115 -0.4468
    5MOL0     O  576  -0.191   0.682   9.751  0.3744  0.5834  0.9863
    5MOL0     C  577  -0.228   0.802   9.701 -0.4391  0.1976 -1.0296
    5MOL0     C  578  -0.154   0.926   9.715 -1.4919 -1.1292  0.7967
    5MOL0     C  579  -0.201   1.049   9.659 -0.5441 -0.1858 -0.1608
    5MOL0     C  580  -0.118   1.168   9.681  1.7484  0.2270 -0.0805
    5MOL0     C  581  -0.327   1.052   9.586  0.0801  0.7462 -0.6100
    5MOL0     C  582  -0.389   1.176   9.533 -0.5575  0.0206 -1.0009
    5MOL0     O  583  -0.298   1.279   9.505  0.1877  0.1889 -0.7056
    5MOL0     C  584  -0.348   1.397   9.456 -0.8917  0.3612  0.1362
    5MOL0     C  585  -0.413   1.424   9.334  0.4578  0.3553 -0.3763
    5MOL0     C  586  -0.448   1.551   9.289 -0.6595  0.1562  0.3357
    5MOL0     C  587  -0.429   1.661   9.368 -0.4539 -0.0076 -0.4033
    5MOL0     O  588  -0.473   1.785   9.325  0.2076 -0.1667 -0.3247
    5MOL0     C  589  -0.592   1.790   9.255  0.1055  0.1130  0.2572
    5MOL0     C  590  -0.645   1.926   9.301  0.0666 -0.1299 -0.4487
    5MOL0     C  591  -0.704   1.915   9.443  0.9131  0.1670 -0.1180
    5MOL0     C  592  -0.844   1.861   9.438  0.7610 -0.4517  0.6454
    5MOL0     C  593  -0.884   1.826   9.576  0.5893  0.5689 -0.0515
    5MOL0     C  594  -0.999   1.721   9.578  0.0052  0.3363 -1.0462
    5MOL0     C  595  -1.045   1.678   9.724 -0.9479 -0.3735  0.0748
    5MOL0     C  596  -1.171   1.594   9.711  0.9784  0.1616  0.2634
    5MOL0    Cl  597  -1.216   1.578   9.889  0.1804 -0.2266 -0.3423
    5MOL0     C  598  -0.356   1.639   9.488  0.9216  0.2661 -0.4179
    5MOL0     C  599  -0.325   1.513   9.536  0.0152  0.0397 -1.1054
    5MOL0     O  600  -0.513   1.180   9.519 -0.1234 -0.1473  0.9866
    5MOL0     C  601  -0.394   0.930   9.580  0.5720 -0.0685  0.6471
    5MOL0     C  602  -0.340   0.810   9.623 -0.3946 -0.1831 -0.2405
    5MOL0     N  603  -0.394   0.243   9.880  0.2449 -0.5628 -0.3843
    5MOL0     N  604  -0.412   0.120   9.843  0.4535 -0.0382  0.0597
    5MOL0     C  605   0.330   0.011  10.646 -0.8902  0.5509  0.1539
    5MOL0     C  606   0.355   0.064  10.773  0.0742  0.1034  0.8767
    5MOL0     C  607   0.309   0.232  11.178  1.3686 -0.1580  0.4948
    5MOL0     C  608   0.174   0.207  11.229  0.0510 -0.3478  0.2404
    5MOL0     C  609   0.130   0.275  11.350 -1.1691 -0.1625 -0.0522
    5MOL0     C  610   0.214   0.359  11.421  0.4512  0.2682 -0.0218
    5MOL0     O  611   0.160   0.398  11.542 -0.1889 -0.2200 -0.4996
    5MOL0     C  612   0.226   0.450  11.658 -0.7674 -0.0612  0.1479
    5MOL0     C  613   0.274   0.345  11.757 -0.1484 -0.3210  0.4157
    5MOL0     C  614   0.353   0.413  11.861 -0.3113 -0.2736  1.3404
    5MOL0     C  615   0.477   0.485  11.815 -0.3754 -0.7710 -0.2783
    5MOL0     C  616   0.575   0.467  11.925  0.3812  0.8837  1.1578
    5MOL0     C  617   0.667   0.452  12.003 -0.7120  0.1268 -0.8712
    5MOL0     C  618   0.346   0.371  11.374 -0.1006 -0.4502 -0.2091
    5MOL0     C  619   0.394   0.317  11.257 -0.1973 -0.2239  0.2177
    5MOL0     C  620   0.535   0.310  11.249 -0.1392 -0.4335  0.5133
    5MOL0     H  621   0.043  -0.015  10.898 -0.6503  3.1709 -0.4181
    5MOL0     H  622   0.008  -0.087  10.674  1.0252 -0.9274 -0.7934
    5MOL0     H  623   0.056  -0.259  10.540 -3.2473  1.9083 -0.3041
    5MOL0     H  624   0.177  -0.291  10.425 -0.5212 -1.1539  1.9177
    5MOL0     H  625  -0.040  -0.280  10.333  1.6525 -1.6307  2.4300
    5MOL0     H  626  -0.078  -0.128  10.406 -0.4873 -0.2206 -1.2516
    5MOL0     H  627  -0.035  -0.042  10.201  1.2818  1.6286 -1.9210
    5MOL0     H  628   0.145  -0.057  10.248 -0.2330  1.9871 -1.9148
    5MOL0     H  629   0.143  -0.158  10.043 -1.1805 -1.0548 -2.8148
    5MOL0     H  630   0.129  -0.298  10.155  1.1929  0.5975 -0.5544
    5MOL0     H  631  -0.128  -0.254  10.118 -1.1092 -0.8153 -1.3569
    5MOL0     H  632  -0.044  -0.333   9.985  0.2164  0.0085  0.4451
    5MOL0     H  633  -0.115  -0.033   9.998 -1.3305 -1.4105  2.6486
    5MOL0     H  634  -0.020  -0.121   9.871 -1.5549  0.8613 -2.5971
    5MOL0     H  635  -0.315  -0.169   9.934  0.9502  0.0429  1.6019
    5MOL0     H  636  -0.207  -0.258   9.824 -1.4996 -0.1334  2.0854
    5MOL0     H  637  -0.174  -0.074   9.686 -0.6659 -0.5171 -0.2987
    5MOL0     H  638  -0.346  -0.114   9.696 -0.7310 -1.8781  0.5245
    5MOL0     H  639  -0.085   0.160   9.851  0.6061 -1.1700  1.6733
    5MOL0     H  640  -0.225   0.389  10.061  1.2605 -2.5559 -0.5365
    5MOL0     H  641  -0.283   0.482   9.928  0.3790 -0.2742  0.3614
    5MOL0     H  642  -0.030   0.522   9.994  1.4280 -2.3183  0.5712
    5MOL0     H  643   0.011   0.366   9.942  0.3634  0.4875 -0.0889
    5MOL0     H  644   0.069   0.479   9.752 -0.9137 -1.2107  0.0606
    5MOL0     H  645  -0.090   0.430   9.716  0.7442 -0.6558 -0.5570
    5MOL0     H  646  -0.010   0.700   9.851  1.1171 -2.6866  0.5473
    5MOL0     H  647   0.014   0.661   9.681  1.5728 -1.9102  0.7749
    5MOL0     H  648  -0.062   0.928   9.772 -0.3837 -2.1560 -0.8696
    5MOL0     H  649  -0.177   1.258   9.703  0.9745 -0.3766  0.3786
    5MOL0     H  650  -0.048   1.181   9.598  3.7783  1.1702  1.7002
    5MOL0     H  651  -0.053   1.157   9.768  0.5196  3.9835  1.5140
    5MOL0     H  652  -0.412   1.336   9.270  2.5889  0.9702 -1.2753
    5MOL0     H  653  -0.489   1.564   9.189  0.3234  0.7736 -0.0081
    5MOL0     H  654  -0.583   1.779   9.147 -2.2396 -0.0824  0.0317
    5MOL0     H  655  -0.664   1.710   9.275  0.7389  0.0819  2.7371
    5MOL0     H  656  -0.573   2.007   9.292  1.0210 -0.4972  2.7743
    5MOL0     H  657  -0.723   1.929   9.224 -1.0773 -0.7545  0.6528
    5MOL0     H  658  -0.716   2.014   9.489 -1.7919  0.9441 -2.2737
    5MOL0     H  659  -0.628   1.866   9.504  2.9797  1.9256 -1.1311
    5MOL0     H  660  -0.854   1.778   9.368 -0.0474  1.2160 -1.3225
    5MOL0     H  661  -0.912   1.942   9.410  2.0816 -0.5748 -3.6658
    5MOL0     H  662  -0.792   1.793   9.625  0.2248 -0.4194 -0.0191
    5MOL0     H  663  -0.904   1.921   9.627  0.2702  1.9580 -2.5494
    5MOL0     H  664  -0.969   1.631   9.523  3.1633  0.9639 -0.5435
    5MOL0     H  665  -1.086   1.761   9.525 -1.1126  0.8227  1.0346
    5MOL0     H  666  -1.068   1.772   9.776 -2.0984 -0.5752 -0.0482
    5MOL0     H  667  -0.966   1.621   9.773 -0.6557 -1.4767 -1.6069
    5MOL0     H  668  -1.157   1.505   9.650  1.3811  0.5346 -0.1972
    5MOL0     H  669  -1.244   1.656   9.658 -0.6812 -1.9332 -0.0130
    5MOL0     H  670  -0.315   1.725   9.541  1.2315  1.2731 -2.1907
    5MOL0     H  671  -0.280   1.495   9.633  1.6641  0.5885 -1.7334
    5MOL0     H  672  -0.492   0.930   9.533 -0.1732  1.1669  2.1188
    5MOL0     H  673  -0.390   0.715   9.607 -2.3658  0.7209  0.1606
    5MOL0     H  674   0.408   0.011  10.571 -1.0206 -0.8368 -0.0052
    5MOL0     H  675   0.447   0.117  10.793  0.1400  1.1378 -1.7162
    5MOL0     H  676   0.097   0.146  11.183 -1.1465 -1.5816  3.5657
    5MOL0     H  677   0.027   0.272  11.384 -0.8670  1.1900  1.1056
    5MOL0     H  678   0.302   0.520  11.622 -1.9868  0.8839 -0.6891
    5MOL0     H  679   0.153   0.508  11.715  0.9504  0.9024  1.4582
    5MOL0     H  680   0.340   0.278  11.702  1.2088  2.0772 -1.0336
    5MOL0     H  681   0.181   0.303  11.796 -0.1321  0.2849  1.1358
    5MOL0     H  682   0.285   0.490  11.899  2.2220  2.1151  1.3756
    5MOL0     H  683   0.373   0.335  11.935 -0.4917 -3.5135 -1.7269
    5MOL0     H  684   0.455   0.589  11.789  1.0260 -0.4426 -0.2475
    5MOL0     H  685   0.534   0.433  11.737  0.3354 -2.2174  1.1425
    5MOL0     H  686   0.749   0.423  12.066  0.2252 -0.0950 -2.1509
    5MOL0     H  687   0.411   0.418  11.447  0.3306 -1.0581 -0.1910
    5MOL0     H  688   0.571   0.210  11.277 -0.7914 -1.2325 -1.3089
    5MOL0     H  689   0.569   0.311  11.145  0.0096 -4.4878  0.3674
    5MOL0     H  690   0.581   0.386  11.312 -2.1527  0.6555  0.7472
    6MOL0     O  691   4.805  10.490   3.163 -0.1456  0.3420 -0.7399
    6MOL0     C  692   4.741  10.432   3.253 -1.0759  0.5396 -0.3686
    6MOL0     O  693   4.635  10.354   3.233 -0.2708 -0.4462  0.0927
    6MOL0     C  694   4.595  10.333   3.103 -0.3199 -0.0443  0.8420
    6MOL0     C  695   4.620  10.206   3.040  0.1642 -0.1716 -0.4344
    6MOL0     C  696   4.565  10.183   2.915  0.4034  0.6565  1.5678
    6MOL0     C  697   4.495  10.285   2.851  1.1478  0.1676  0.3461
    6MOL0     O  698   4.437  10.248   2.725  0.0011 -0.6988  0.3127
    6MOL0     C  699   4.350  10.328   2.652  0.1943 -0.4623  1.4296
    6MOL0     C  700   4.214  10.328   2.722 -0.1652 -0.0303  0.1323
    6MOL0     C  701   4.110  10.391   2.626 -0.1925  0.7071 -0.3727
    6MOL0     C  702   4.140  10.535   2.600  0.8675  0.0252  0.2286
    6MOL0     C  703   4.026  10.603   2.529 -0.2315 -1.4604 -0.2459
    6MOL0     C  704   4.062  10.751   2.475 -0.6506  0.2337  0.1537
    6MOL0     C  705   3.940  10.808   2.412 -0.3544 -0.0543  0.2836
    6MOL0     C  706   3.970  10.945   2.371  0.7896 -0.1084 -0.0529
    6MOL0     N  707   3.954  11.039   2.480 -0.0712  0.1542 -0.1672
    6MOL0     C  708   4.052  11.056   2.577  0.2487  0.5709  0.3870
    6MOL0     C  709   3.997  11.152   2.664  0.1253 -0.6232  1.1169
    6MOL0     C  710   4.048  11.184   2.803 -0.3359  0.3662 -0.2409
    6MOL0     C  711   4.189  11.117   2.835  0.6020 -0.4741 -0.2504
    6MOL0     C  712   4.218  11.135   2.978 -1.3052  0.6362  0.3180
    6MOL0     C  713   4.233  11.286   3.014  0.7264  0.5816  0.0549
    6MOL0     O  714   4.331  11.358   2.938  0.3289 -0.3076  0.5837
    6MOL0     C  715   4.319  11.493   2.912  0.6290 -0.0179 -0.1984
    6MOL0     C  716   4.376  11.562   2.804 -0.0411 -0.2052  0.3623
    6MOL0     C  717   4.375  11.705   2.783  0.1882  0.1929 -0.5210
    6MOL0     C  718   4.438  11.761   2.660 -0.9444 -0.2664  0.0672
    6MOL0     C  719   4.317  11.785   2.890 -0.0372  0.0845 -0.0194
    6MOL0     C  720   4.300  11.933   2.881 -0.2510 -0.8281  0.2389
    6MOL0     O  721   4.210  11.997   2.962  0.2034 -1.2595  0.0221
    6MOL0     C  722   4.177  12.124   2.929 -0.2728  0.0552 -0.1011
    6MOL0     C  723   4.046  12.147   2.884  0.2396  0.0770 -0.5835
    6MOL0     C  724   3.999  12.282   2.878  0.0213  0.4378 -0.8433
    6MOL0     C  725   4.088  12.387   2.913  0.4510  0.5456  0.3269
    6MOL0     O  726   4.034  12.510   2.901 -0.0762 -1.2088  0.6167
    6MOL0     C  727   4.102  12.631   2.945 -0.0326 -0.4999  0.0792
    6MOL0     C  728   4.207  12.686   2.850 -0.0307 -0.3208 -0.5995
    6MOL0     C  729   4.227  12.841   2.855 -0.0453  1.0860  0.6906
    6MOL0     C  730   4.127  12.926   2.767 -0.3124  0.8509 -0.0272
    6MOL0     C  731   4.181  13.063   2.743 -0.6985  0.1526 -1.0193
    6MOL0     C  732   4.081  13.153   2.672  0.3933 -0.5379  0.4854
    6MOL0     C  733   4.167  13.252   2.586 -0.8879  0.0749 -0.3108
    6MOL0     C  734   4.069  13.316   2.498  0.1358 -0.4610 -0.6998
    6MOL0    Cl  735   4.043  13.217   2.348  0.3801  0.0673 -0.1234
    6MOL0     C  736   4.222  12.359   2.964  0.1813 -0.0960  0.8233
    6MOL0     C  737   4.261  12.226   2.970  0.0530  0.4159  0.8334
    6MOL0     O  738   4.380  11.992   2.800 -0.3073  0.6398 -0.1944
    6MOL0     C  739   4.248  11.708   2.994  0.2358  0.8755 -0.1493
    6MOL0     C  740   4.241  11.567   3.004  0.6353  0.4706 -0.3230
    6MOL0     N  741   3.885  11.193   2.607  0.2933  0.2840 -0.1021
    6MOL0     N  742   3.849  11.128   2.502 -0.1088  0.0615  0.3741
    6MOL0     C  743   4.484  10.411   2.913  0.6739  0.2606  0.3126
    6MOL0     C  744   4.544  10.442   3.031 -0.1608 -0.7419  0.4617
    6MOL0     C  745   4.814  10.431   3.391  0.6407 -0.1537 -0.2247
    6MOL0     C  746   4.935  10.494   3.408  0.6935 -0.3073 -0.8879
    6MOL0     C  747   5.005  10.509   3.526 -0.1255 -0.6086 -0.1549
    6MOL0     C  748   4.937  10.480   3.641  0.7879  0.4111  0.5437
    6MOL0     O  749   4.983  10.519   3.766  0.4991 -0.3481 -0.9744
    6MOL0     C  750   5.100  10.609   3.779 -0.5166 -0.3605  0.1536
    6MOL0     C  751   5.141  10.627   3.921 -0.1194  0.6542  1.4877
    6MOL0     C  752   5.266  10.709   3.939  0.9451 -0.0060  0.0345
    6MOL0     C  753   5.300  10.714   4.087  0.9346  0.0994 -0.1857
    6MOL0     C  754   5.421  10.801   4.112  0.0911 -0.2360 -0.8653
    6MOL0     C  755   5.526  10.857   4.122 -0.7219 -1.4775 -0.2786
    6MOL0     C  756   4.820  10.406   3.635  0.1667  0.8089 -0.5000
    6MOL0     C  757   4.758  10.383   3.514  0.5216  0.4290  0.4949
    6MOL0     C  758   4.622  10.319   3.525  0.6884  0.4217  0.1976
    6MOL0     H  759   4.657  10.133   3.111  1.0552  1.0519  0.4086
    6MOL0     H  760   4.570  10.080   2.881 -1.3478  0.4929  1.7171
    6MOL0     H  761   4.335  10.289   2.551 -0.2964 -1.8964  2.0391
    6MOL0     H  762   4.385  10.432   2.653 -0.0360 -0.3518  0.1151
    6MOL0     H  763   4.186  10.224   2.743 -1.3755 -0.0056 -1.2060
    6MOL0     H  764   4.216  10.381   2.817 -1.7852  1.3526 -0.5536
    6MOL0     H  765   4.102  10.337   2.531  1.2322  1.4135 -0.9263
    6MOL0     H  766   4.027  10.409   2.695  0.6889  0.4244  0.7874
    6MOL0     H  767   4.142  10.584   2.698  2.7973  2.5372 -0.9353
    6MOL0     H  768   4.235  10.565   2.554  0.8421 -0.0637  0.1177
    6MOL0     H  769   3.940  10.616   2.596  0.6566 -0.0673  0.6724
    6MOL0     H  770   3.997  10.560   2.433 -0.9366 -0.7819 -0.3501
    6MOL0     H  771   4.113  10.802   2.558  1.4003 -4.8574  2.4657
    6MOL0     H  772   4.142  10.742   2.401 -1.8506  0.2065 -1.1656
    6MOL0     H  773   3.856  10.823   2.480 -0.4712  1.9264 -0.2432
    6MOL0     H  774   3.915  10.762   2.316 -0.2045  2.1949 -0.8819
    6MOL0     H  775   4.068  10.965   2.327  0.3945 -1.2016 -1.4974
    6MOL0     H  776   3.884  10.982   2.316  0.9908 -0.9318 -0.9428
    6MOL0     H  777   4.150  11.011   2.590 -0.0758  0.4508  2.8179
    6MOL0     H  778   3.969  11.174   2.878  0.6194 -3.0972  0.4532
    6MOL0     H  779   4.080  11.288   2.788 -0.4389  0.2284 -1.5053
    6MOL0     H  780   4.175  11.012   2.806 -2.3555 -0.2496  0.0112
    6MOL0     H  781   4.260  11.170   2.772 -0.1706  1.4330  0.4039
    6MOL0     H  782   4.143  11.083   3.038 -0.3552 -0.8267  0.2936
    6MOL0     H  783   4.313  11.085   2.998  0.2404  2.9806 -0.6740
    6MOL0     H  784   4.137  11.337   3.000  1.2145  0.9158 -2.6711
    6MOL0     H  785   4.268  11.288   3.117 -2.7453  2.9783  1.3688
    6MOL0     H  786   4.401  11.490   2.726  3.1325  2.7034 -1.5399
    6MOL0     H  787   4.455  11.677   2.593 -4.1708 -0.6396 -0.4793
    6MOL0     H  788   4.535  11.806   2.683 -0.4505 -1.1625 -0.2546
    6MOL0     H  789   4.377  11.834   2.606 -0.4587  1.4449  1.7236
    6MOL0     H  790   3.987  12.060   2.858  3.3598 -2.4643  0.3254
    6MOL0     H  791   3.898  12.306   2.846 -1.1637 -3.7203 -0.8579
    6MOL0     H  792   4.033  12.711   2.974  1.0603 -0.0246  1.5183
    6MOL0     H  793   4.158  12.604   3.035 -1.1543 -3.6040 -0.0412
    6MOL0     H  794   4.298  12.637   2.887 -0.3457 -2.6398 -2.6682
    6MOL0     H  795   4.175  12.644   2.755 -2.3021 -0.1025  0.0216
    6MOL0     H  796   4.329  12.847   2.815 -0.5556 -1.1865 -1.1744
    6MOL0     H  797   4.222  12.878   2.958 -0.1879  1.8070  0.4363
    6MOL0     H  798   4.025  12.933   2.806 -1.0629 -0.2104 -1.6363
    6MOL0     H  799   4.115  12.884   2.666  2.5413 -0.3094  0.0240
    6MOL0     H  800   4.214  13.113   2.834 -1.8278  2.6131 -1.8902
    6MOL0     H  801   4.274  13.056   2.685  0.4581  3.9918  0.0975
    6MOL0     H  802   4.019  13.208   2.743 -0.4470  0.4416 -0.9519
    6MOL0     H  803   4.014  13.095   2.609 -0.4768 -1.3705  2.1231
    6MOL0     H  804   4.245  13.204   2.527  0.1460  0.1769  0.8997
    6MOL0     H  805   4.202  13.323   2.663 -6.3067 -0.1447  2.8846
    6MOL0     H  806   4.108  13.411   2.461  0.2788 -0.0184  0.5397
    6MOL0     H  807   3.980  13.334   2.558 -0.1797 -0.4590 -1.1677
    6MOL0     H  808   4.287  12.444   2.980 -1.4987  1.0004  2.1963
    6MOL0     H  809   4.363  12.202   2.999  0.3931 -0.6267 -1.0376
    6MOL0     H  810   4.198  11.765   3.071  0.7813  1.1094  0.0354
    6MOL0     H  811   4.179  11.519   3.079 -3.1182  0.4918 -3.1637
    6MOL0     H  812   4.424  10.488   2.867  0.8142  1.9613  2.7596
    6MOL0     H  813   4.535  10.541   3.076  0.2656 -0.6399  0.3359
    6MOL0     H  814   4.985  10.527   3.317 -1.3974 -0.6811 -2.2587
    6MOL0     H  815   5.105  10.551   3.520  0.6932 -1.8348  2.9557
    6MOL0     H  816   5.182  10.569   3.718 -1.5885  0.0512 -1.6384
    6MOL0     H  817   5.081  10.702   3.725 -0.2220 -0.3060  0.1394
    6MOL0     H  818   5.178  10.531   3.956  0.4316 -0.3098 -1.4946
    6MOL0     H  819   5.052  10.661   3.976 -3.5005 -4.1698 -0.2682
    6MOL0     H  820   5.357  10.666   3.897 -0.5044 -1.0584 -2.2075
    6MOL0     H  821   5.254  10.812   3.903  1.3100 -0.1336 -0.4607
    6MOL0     H  822   5.322  10.609   4.112  1.9498  0.7908  2.1136
    6MOL0     H  823   5.222  10.754   4.151  2.7542 -0.2243  2.4098
    6MOL0     H  824   5.614  10.919   4.116 -1.3934 -0.6720 -2.4633
    6MOL0     H  825   4.766  10.378   3.725  2.9174  1.1305  1.3626
    6MOL0     H  826   4.596  10.267   3.432 -1.0327  0.8163  0.4285
    6MOL0     H  827   4.617  10.236   3.596 -1.5569  1.5084  1.4189
    6MOL0     H  828   4.541  10.393   3.531 -0.3036 -0.7121  1.2881
    7MOL0     O  829   1.810   0.846   1.773 -0.0395  0.0467  0.2475
    7MOL0     C  830   1.750   0.752   1.714 -0.0412  0.6631 -0.0109
    7MOL0     O  831   1.633   0.701   1.761  0.3010  0.6463  0.2789
    7MOL0     C  832   1.580   0.746   1.876 -0.0026  0.1285  0.1095
    7MOL0     C  833   1.474   0.836   1.868  0.8766 -0.8402  0.7912
    7MOL0     C  834   1.417   0.879   1.986 -0.1830  0.6998 -0.8407
    7MOL0     C  835   1.462   0.828   2.118  0.2413 -0.0246 -0.3958
    7MOL0     O  836   1.403   0.863   2.238  0.0432  0.2402  0.0514
    7MOL0     C  837   1.269   0.916   2.232  0.3168 -0.6247 -0.3880
    7MOL0     C  838   1.208   0.929   2.381  0.1411 -0.2661 -0.3330
    7MOL0     C  839   1.052   0.938   2.391 -0.7902  0.0629  0.5913
    7MOL0     C  840   1.024   0.975   2.534 -0.8085 -0.4935  0.3472
    7MOL0     C  841   1.103   0.887   2.631 -0.1712 -0.1956  0.0944
    7MOL0     C  842   1.057   0.886   2.774  0.1179 -0.2432 -0.5274
    7MOL0     C  843   1.096   1.004   2.863 -0.6348 -0.4907 -0.5374
    7MOL0     C  844   1.015   1.125   2.820 -0.1180  1.1345  0.6018
    7MOL0     N  845   1.095   1.239   2.784  0.5125 -0.1854  0.3896
    7MOL0     C  846   1.163   1.318   2.871 -0.1351  0.0611 -0.0311
    7MOL0     C  847   1.231   1.405   2.786 -0.3411  0.5556 -0.2550
    7MOL0     C  848   1.333   1.511   2.815 -0.0827 -0.0043 -0.4246
    7MOL0     C  849   1.325   1.632   2.726 -0.9279 -0.2969 -0.1119
    7MOL0     C  850   1.465   1.704   2.699 -0.1911  1.1509 -0.3433
    7MOL0     C  851   1.477   1.771   2.561 -0.2681  0.1715  0.2461
    7MOL0     O  852   1.609   1.825   2.539 -0.2159 -0.3872 -0.1981
    7MOL0     C  853   1.627   1.884   2.413 -0.1167 -0.0857 -0.1118
    7MOL0     C  854   1.742   1.963   2.400  0.3239 -0.2851  0.0153
    7MOL0     C  855   1.783   2.029   2.283  0.5554  0.6348 -0.9688
    7MOL0     C  856   1.908   2.108   2.294 -1.9738 -0.1732  0.0445
    7MOL0     C  857   1.697   2.015   2.172  0.0261  1.2200  0.4962
    7MOL0     C  858   1.716   2.084   2.044 -0.6126  0.5433 -0.8199
    7MOL0     O  859   1.640   2.048   1.940 -0.0523 -0.3584 -0.2611
    7MOL0     C  860   1.670   2.088   1.812 -0.1301 -0.0092  1.6081
    7MOL0     C  861   1.559   2.091   1.721  0.6773  0.3430  0.4870
    7MOL0     C  862   1.568   2.125   1.585 -0.5112  0.1274 -0.7638
    7MOL0     C  863   1.685   2.169   1.536  0.1177 -0.0357 -0.6891
    7MOL0     O  864   1.708   2.204   1.402 -0.2426  0.8205 -0.3938
    7MOL0     C  865   1.626   2.168   1.295  0.7850  0.6520  1.5107
    7MOL0     C  866   1.681   2.066   1.202 -0.4746 -0.3195 -0.2168
    7MOL0     C  867   1.788   2.117   1.104 -0.1022 -0.3230 -0.1193
    7MOL0     C  868   1.724   2.171   0.974 -0.0583 -0.0747  0.3230
    7MOL0     C  869   1.827   2.275   0.914 -0.5117  0.2044 -0.8610
    7MOL0     C  870   1.811   2.297   0.762 -0.1668  0.1314 -0.7280
    7MOL0     C  871   1.923   2.405   0.721  0.3872  0.1576 -0.4890
    7MOL0     C  872   1.969   2.386   0.572  0.3280 -0.3706  0.0298
    7MOL0    Cl  873   2.008   2.215   0.564  0.1597 -0.1034 -0.0703
    7MOL0     C  874   1.803   2.171   1.616 -0.1420  0.2474 -0.6335
    7MOL0     C  875   1.797   2.133   1.753  0.5140 -0.1568 -0.1637
    7MOL0     O  876   1.796   2.175   2.040  1.2954 -0.0469  0.6839
    7MOL0     C  877   1.580   1.930   2.181 -0.7214 -0.8719  0.0804
    7MOL0     C  878   1.545   1.869   2.303  0.2730  1.0153  0.4049
    7MOL0     N  879   1.205   1.362   2.656 -0.1054 -0.3177  0.4209
    7MOL0     N  880   1.116   1.278   2.655 -0.9375  0.3868 -0.3242
    7MOL0     C  881   1.557   0.731   2.114  0.2999 -0.0013 -0.8933
    7MOL0     C  882   1.618   0.692   1.991 -0.1663  0.1269 -0.0300
    7MOL0     C  883   1.795   0.686   1.587  0.1757 -0.0943 -0.6403
    7MOL0     C  884   1.733   0.559   1.553 -0.3005  0.1317 -0.3789
    7MOL0     C  885   1.771   0.483   1.442  0.4341  0.3513  0.7598
    7MOL0     C  886   1.873   0.523   1.347  0.2091  0.1482 -0.4943
    7MOL0     O  887   1.908   0.446   1.241 -0.0140  0.0500  0.2649
    7MOL0     C  888   2.040   0.471   1.184 -0.7726  0.0119 -0.5539
    7MOL0     C  889   2.070   0.357   1.091 -0.3258 -0.1804 -0.0615
    7MOL0     C  890   2.047   0.224   1.162 -0.1330 -1.3188  0.7580
    7MOL0     C  891   1.905   0.174   1.125  0.6644 -0.3088  0.2528
    7MOL0     C  892   1.906   0.025   1.138 -0.0601  0.1408 -0.1756
    7MOL0     C  893   1.916  -0.098   1.158 -0.2375 -0.5877 -0.4446
    7MOL0     C  894   1.934   0.650   1.378  0.2233 -0.1465 -0.7440
    7MOL0     C  895   1.904   0.729   1.496  0.2409 -0.0223  0.2669
    7MOL0     C  896   1.959   0.873   1.503 -0.4160  0.8329  0.3344
    7MOL0     H  897   1.439   0.886   1.777  2.1893  3.2287  2.2948
    7MOL0     H  898   1.345   0.958   1.969  0.7746  1.3873 -1.8675
    7MOL0     H  899   1.208   0.834   2.193 -0.4319 -0.8475  1.1416
    7MOL0     H  900   1.270   1.005   2.169  1.9656  0.3813  0.9575
    7MOL0     H  901   1.236   0.834   2.428  1.5529 -0.2489 -1.0730
    7MOL0     H  902   1.252   1.018   2.427 -0.4688  2.8749 -5.1210
    7MOL0     H  903   1.007   0.991   2.306 -1.6246 -2.2791 -0.5205
    7MOL0     H  904   1.011   0.837   2.390 -1.5342  0.3149  2.2380
    7MOL0     H  905   1.049   1.081   2.542  1.5100 -0.8220 -1.3432
    7MOL0     H  906   0.916   0.973   2.547 -0.9714  0.5140 -0.7534
    7MOL0     H  907   1.208   0.917   2.640  0.5769 -2.8337  0.9455
    7MOL0     H  908   1.083   0.781   2.613 -3.1758 -0.0001  1.6456
    7MOL0     H  909   0.948   0.879   2.772 -0.2009  1.5934  2.8916
    7MOL0     H  910   1.105   0.799   2.821  0.4975  0.1082 -0.2532
    7MOL0     H  911   1.201   1.024   2.842 -0.4973 -0.5407  0.0609
    7MOL0     H  912   1.077   0.991   2.971 -0.4206  0.1275 -0.4271
    7MOL0     H  913   0.948   1.106   2.735  0.8019  1.1563 -0.1388
    7MOL0     H  914   0.946   1.150   2.902 -0.2709  0.8616  0.5605
    7MOL0     H  915   1.158   1.314   2.979  1.0128 -0.9018  0.0022
    7MOL0     H  916   1.429   1.461   2.796 -0.8480 -2.2763  1.2750
    7MOL0     H  917   1.330   1.535   2.922 -2.5872 -0.4651 -0.3349
    7MOL0     H  918   1.282   1.588   2.635 -1.7719 -0.9780  0.6038
    7MOL0     H  919   1.245   1.695   2.764 -2.9177 -2.9034  0.3325
    7MOL0     H  920   1.490   1.772   2.782  4.6559 -2.0103  1.2005
    7MOL0     H  921   1.550   1.636   2.692 -0.6921  0.6601 -2.3453
    7MOL0     H  922   1.439   1.701   2.486  1.9021 -1.1373  0.2702
    7MOL0     H  923   1.409   1.855   2.547 -1.6074  0.1089  4.7177
    7MOL0     H  924   1.806   1.966   2.488 -1.7924  1.0900  1.6025
    7MOL0     H  925   1.899   2.210   2.257 -4.1731 -0.3323 -0.0115
    7MOL0     H  926   1.972   2.054   2.223  0.0842  2.0519  0.0657
    7MOL0     H  927   1.960   2.103   2.390 -0.7764  4.3035 -0.1846
    7MOL0     H  928   1.465   2.059   1.764  0.9098  1.2574  1.7200
    7MOL0     H  929   1.479   2.128   1.523 -1.6575  0.9409  0.8542
    7MOL0     H  930   1.546   2.121   1.353  0.5837 -0.3336  0.4664
    7MOL0     H  931   1.592   2.252   1.234  1.3604 -1.7598 -2.4831
    7MOL0     H  932   1.729   1.988   1.262 -0.9403  0.2292  0.9051
    7MOL0     H  933   1.600   2.020   1.144  0.9996  0.3861 -2.9873
    7MOL0     H  934   1.850   2.029   1.082 -3.8791 -3.8159  1.7938
    7MOL0     H  935   1.850   2.193   1.152 -0.1328 -0.3870  0.0223
    7MOL0     H  936   1.627   2.212   1.006 -0.1929 -1.6782  2.2343
    7MOL0     H  937   1.698   2.090   0.906 -0.4972 -0.1178  0.5380
    7MOL0     H  938   1.845   2.366   0.971  2.7000 -1.4908  1.1406
    7MOL0     H  939   1.925   2.225   0.916  0.2553  1.6310  2.1308
    7MOL0     H  940   1.710   2.339   0.755 -0.1768  0.3558  0.5741
    7MOL0     H  941   1.814   2.197   0.717  0.6481 -0.6128  0.8987
    7MOL0     H  942   2.022   2.405   0.769  0.6416  1.1247 -0.9777
    7MOL0     H  943   1.887   2.507   0.734  0.6739 -0.1416  4.5397
    7MOL0     H  944   2.056   2.448   0.551  2.0211 -3.0620 -1.4102
    7MOL0     H  945   1.887   2.407   0.503  0.1399 -0.8490  0.1084
    7MOL0     H  946   1.898   2.194   1.569  0.8423  2.2272  2.0340
    7MOL0     H  947   1.879   2.150   1.821  0.0770  3.9246 -0.4083
    7MOL0     H  948   1.514   1.919   2.095  1.1027  4.0820 -2.2827
    7MOL0     H  949   1.458   1.803   2.301  0.5355  0.6689 -2.0229
    7MOL0     H  950   1.573   0.703   2.217 -0.0923  1.9143 -0.2723
    7MOL0     H  951   1.694   0.615   1.993 -0.9592 -0.6668  1.0575
    7MOL0     H  952   1.646   0.524   1.607 -1.4471  2.0764 -0.8566
    7MOL0     H  953   1.715   0.393   1.421 -1.0662  1.4567 -0.1517
    7MOL0     H  954   2.047   0.568   1.133 -0.6015 -0.0118 -0.5751
    7MOL0     H  955   2.119   0.480   1.258  0.8754  2.8975 -2.4397
    7MOL0     H  956   2.173   0.372   1.057 -1.0761 -0.1162 -2.5307
    7MOL0     H  957   2.025   0.352   0.991 -0.0581  1.9880 -0.3430
    7MOL0     H  958   2.123   0.154   1.126 -0.5817  0.2113 -3.8653
    7MOL0     H  959   2.056   0.245   1.269  3.1528 -1.7317  0.6542
    7MOL0     H  960   1.884   0.181   1.018  3.0670 -0.9977 -0.3240
    7MOL0     H  961   1.826   0.222   1.184  2.0715  0.9351  1.2046
    7MOL0     H  962   1.934  -0.203   1.166  1.4152 -0.2184  1.5831
    7MOL0     H  963   2.008   0.683   1.306  2.4563 -2.9102  0.1140
    7MOL0     H  964   1.972   0.919   1.601  0.2517  0.5282  0.3977
    7MOL0     H  965   2.058   0.889   1.459 -0.2518  3.0789  1.3868
    7MOL0     H  966   1.896   0.941   1.446  1.6988  1.1066 -1.8508
    8MOL0     O  967   0.973   3.232   1.085 -0.6748  0.8193  0.1663
    8MOL0     C  968   1.010   3.325   1.149  0.7820 -0.3004  0.0611
    8MOL0     O  969   0.960   3.362   1.265  0.3768 -0.9753 -0.1812
    8MOL0     C  970   0.862   3.280   1.312 -0.5092 -0.1036 -0.5222
    8MOL0     C  971   0.900   3.165   1.396  0.3307  0.5038  0.5121
    8MOL0     C  972   0.794   3.079   1.431 -0.5608  0.3943 -0.1900
    8MOL0     C  973   0.661   3.100   1.395 -0.1413  0.4413 -0.5951
    8MOL0     O  974   0.556   3.009   1.415 -0.1990  0.3851  0.3297
    8MOL0     C  975   0.601   2.888   1.474  0.0979 -0.2088  0.8021
    8MOL0     C  976   0.505   2.776   1.470  0.0037  0.1985  0.1251
    8MOL0     C  977   0.404   2.775   1.589 -0.0641 -0.0183  0.2960
    8MOL0     C  978   0.333   2.647   1.618  0.1659 -0.8666  1.2605
    8MOL0     C  979   0.206   2.680   1.706 -1.1556 -0.0643  0.6484
    8MOL0     C  980   0.103   2.576   1.698  0.3276  0.2597  0.5508
    8MOL0     C  981   0.005   2.600   1.812 -0.2950 -0.2106 -0.1356
    8MOL0     C  982  -0.130   2.525   1.775 -0.9076  0.5105  0.0538
    8MOL0     N  983  -0.208   2.603   1.677  0.3354 -0.5485  0.4534
    8MOL0     C  984  -0.239   2.738   1.671 -0.2966  0.2855  0.5724
    8MOL0     C  985  -0.342   2.746   1.590 -0.3053  0.4801 -0.1544
    8MOL0     C  986  -0.397   2.872   1.525 -0.0879 -1.0351 -0.2567
    8MOL0     C  987  -0.530   2.906   1.599  0.8805  0.1221 -1.0565
    8MOL0     C  988  -0.646   2.793   1.611  0.3575 -0.0653 -0.9385
    8MOL0     C  989  -0.689   2.742   1.475  0.3483  0.4304  0.1217
    8MOL0     O  990  -0.805   2.660   1.493  0.5698 -0.8195  0.1110
    8MOL0     C  991  -0.851   2.580   1.387  0.0172  0.5242 -0.2311
    8MOL0     C  992  -0.973   2.523   1.405  0.0150 -0.7156 -0.3248
    8MOL0     C  993  -1.036   2.449   1.313 -0.0438 -0.0098  0.3406
    8MOL0     C  994  -1.178   2.399   1.348 -0.1859  1.5710 -0.8489
    8MOL0     C  995  -0.978   2.445   1.185 -0.3854 -0.6016  0.5852
    8MOL0     C  996  -1.049   2.365   1.081 -0.4371  0.7273  0.2403
    8MOL0     O  997  -1.034   2.419   0.959  0.1944 -0.0236  0.0927
    8MOL0     C  998  -1.052   2.350   0.836  0.1584  0.2338 -1.0787
    8MOL0     C  999  -1.057   2.210   0.825 -0.5567  0.3724 -0.7372
    8MOL0     C 1000  -1.088   2.143   0.697 -0.4213  0.1086 -0.9962
    8MOL0     C 1001  -1.120   2.227   0.584 -0.0449  0.3061  0.2856
    8MOL0     O 1002  -1.142   2.173   0.464  0.2175  0.2994  0.4329
    8MOL0     C 1003  -1.247   2.082   0.464  0.2139  0.7852  0.6564
    8MOL0     C 1004  -1.265   2.016   0.326 -0.0688  0.2088 -0.9034
    8MOL0     C 1005  -1.293   2.136   0.233 -0.2537  0.4982 -0.7609
    8MOL0     C 1006  -1.322   2.078   0.093 -0.2902  0.2678  0.2927
    8MOL0     C 1007  -1.401   2.159  -0.004  0.7239  0.3595 -0.5977
    8MOL0     C 1008  -1.328   2.287  -0.036 -1.3210 -0.9959  0.3717
    8MOL0     C 1009  -1.408   2.393  -0.118 -0.6730 -0.0407  0.3914
    8MOL0     C 1010  -1.524   2.458  -0.032 -0.1756  0.8171 -0.0911
    8MOL0    Cl 1011  -1.460   2.577   0.092 -0.1158 -0.1292  1.2543
    8MOL0     C 1012  -1.091   2.358   0.600 -0.0797  0.2869  0.7198
    8MOL0     C 1013  -1.062   2.424   0.719 -0.9807  0.6780  0.2554
    8MOL0     O 1014  -1.094   2.248   1.106 -0.1138 -0.3342  0.5252
    8MOL0     C 1015  -0.861   2.515   1.155 -0.3432 -0.0049  0.6673
    8MOL0     C 1016  -0.797   2.572   1.257 -0.7098 -0.5793  0.3700
    8MOL0     N 1017  -0.375   2.625   1.543  0.5246 -0.3409  0.7983
    8MOL0     N 1018  -0.294   2.540   1.592 -0.3007  0.8653 -0.0907
    8MOL0     C 1019   0.634   3.211   1.314 -0.2883 -0.3168  0.4807
    8MOL0     C 1020   0.731   3.305   1.272 -1.3671 -0.2509 -0.3062
    8MOL0     C 1021   1.094   3.416   1.078  0.8490  1.0042 -0.4809
    8MOL0     C 1022   1.060   3.551   1.090  0.5452  0.9286 -0.8907
    8MOL0     C 1023   1.140   3.642   1.018 -0.2001  0.6450 -0.1920
    8MOL0     C 1024   1.235   3.600   0.922  0.6302 -0.3182  0.2347
    8MOL0     O 1025   1.301   3.705   0.867  0.4013 -1.1675  0.8705
    8MOL0     C 1026   1.413   3.679   0.771 -0.0795  0.5778  0.0146
    8MOL0     C 1027   1.494   3.800   0.742  0.2479 -0.0109 -0.4288
    8MOL0     C 1028   1.570   3.790   0.604  0.2357 -0.0374  0.0224
    8MOL0     C 1029   1.663   3.664   0.595 -0.1351 -0.2366  0.6052
    8MOL0     C 1030   1.799   3.688   0.646 -0.3597  0.3796 -0.1226
    8MOL0     C 1031   1.914   3.696   0.691  0.0510 -0.1183 -0.3306
    8MOL0     C 1032   1.258   3.465   0.901 -0.1790 -0.2245 -0.7844
    8MOL0     C 1033   1.186   3.377   0.984 -1.4253  0.9580 -1.2138
    8MOL0     C 1034   1.240   3.235   0.964  0.2463 -0.7422 -0.0034
    8MOL0     H 1035   0.998   3.156   1.443 -0.5137 -0.8734  2.1038
    8MOL0     H 1036   0.816   3.000   1.502 -2.4221  0.9001  1.0199
    8MOL0     H 1037   0.644   2.896   1.575  2.8430 -0.7893 -0.2299
    8MOL0     H 1038   0.685   2.850   1.415  0.5818  2.1449 -0.1360
    8MOL0     H 1039   0.451   2.785   1.376  2.1355 -1.8371 -1.4122
    8MOL0     H 1040   0.566   2.686   1.456 -0.5124  0.1469 -2.0112
    8MOL0     H 1041   0.452   2.796   1.686  0.2554 -0.5902  0.2705
    8MOL0     H 1042   0.334   2.852   1.556 -0.6082 -1.5293 -2.3497
    8MOL0     H 1043   0.309   2.604   1.520  0.3154  0.2167  0.7371
    8MOL0     H 1044   0.395   2.571   1.665  0.5672 -1.8453 -0.7725
    8MOL0     H 1045   0.160   2.775   1.680 -2.8926 -0.2412  2.7814
    8MOL0     H 1046   0.252   2.694   1.804  0.9879 -0.3193 -0.2601
    8MOL0     H 1047   0.055   2.579   1.599  1.3656 -2.3630 -0.1211
    8MOL0     H 1048   0.161   2.483   1.696  0.2328  0.2051 -0.0924
    8MOL0     H 1049  -0.025   2.705   1.816 -0.2632 -0.1656 -0.8549
    8MOL0     H 1050   0.037   2.570   1.912 -1.4653  1.1005  0.6744
    8MOL0     H 1051  -0.098   2.425   1.743 -0.7036  0.7004 -0.3384
    8MOL0     H 1052  -0.200   2.520   1.859  0.1843 -1.7276  0.9157
    8MOL0     H 1053  -0.191   2.822   1.720  0.5823 -0.6989  1.4449
    8MOL0     H 1054  -0.410   2.870   1.417  0.2286  1.1664 -0.3712
    8MOL0     H 1055  -0.324   2.950   1.548 -1.9002  0.3815  1.0068
    8MOL0     H 1056  -0.507   2.929   1.704 -2.8765 -3.3248  0.8356
    8MOL0     H 1057  -0.574   2.992   1.549  0.3709 -0.8333 -2.2948
    8MOL0     H 1058  -0.625   2.720   1.691  0.0095  1.9722  1.1176
    8MOL0     H 1059  -0.741   2.832   1.647  0.2734 -1.8806  1.0305
    8MOL0     H 1060  -0.699   2.825   1.404  3.2521  0.4941 -0.3353
    8MOL0     H 1061  -0.619   2.667   1.438 -1.7396 -1.4673 -0.1439
    8MOL0     H 1062  -1.029   2.515   1.497 -3.0695 -3.9446 -2.2489
    8MOL0     H 1063  -1.155   2.324   1.424 -0.3423  0.4258 -1.8926
    8MOL0     H 1064  -1.232   2.360   1.261  1.7058  1.1086 -1.8720
    8MOL0     H 1065  -1.246   2.467   1.401 -1.0877 -1.2830  2.0106
    8MOL0     H 1066  -1.038   2.146   0.911  0.8229 -2.1950 -2.7987
    8MOL0     H 1067  -1.083   2.035   0.690 -1.6118 -0.3614  2.8836
    8MOL0     H 1068  -1.243   1.999   0.536  3.9382 -1.1551 -1.4158
    8MOL0     H 1069  -1.340   2.134   0.487 -0.9249 -0.1054 -1.5726
    8MOL0     H 1070  -1.179   1.959   0.289  0.7332  1.2474 -0.6916
    8MOL0     H 1071  -1.347   1.944   0.325  0.1440 -0.2751  2.7991
    8MOL0     H 1072  -1.221   2.218   0.223 -1.5627  1.5751 -1.7653
    8MOL0     H 1073  -1.386   2.187   0.259  0.1826  0.2323  1.5376
    8MOL0     H 1074  -1.378   1.984   0.104 -0.7819  0.4202 -0.8182
    8MOL0     H 1075  -1.229   2.059   0.039  0.7830 -0.0750  2.1700
    8MOL0     H 1076  -1.413   2.110  -0.101  0.0710  0.3855 -0.5346
    8MOL0     H 1077  -1.499   2.163   0.043  2.4794 -1.0108  3.6795
    8MOL0     H 1078  -1.240   2.248  -0.090 -1.4098 -1.1402  0.3296
    8MOL0     H 1079  -1.301   2.337   0.057 -0.8409 -1.7104  0.6315
    8MOL0     H 1080  -1.446   2.344  -0.208  0.3082 -0.6173  0.2775
    8MOL0     H 1081  -1.348   2.479  -0.148 -0.8427  0.1057  0.4745
    8MOL0     H 1082  -1.581   2.382   0.022 -0.6615  0.7545 -0.6745
    8MOL0     H 1083  -1.597   2.496  -0.105  0.9075 -0.8002 -2.1358
    8MOL0     H 1084  -1.106   2.414   0.508 -1.8193 -2.2593 -0.6862
    8MOL0     H 1085  -1.043   2.529   0.703 -1.6691  0.9317  1.0835
    8MOL0     H 1086  -0.808   2.520   1.060 -2.1873  0.8966 -0.3544
    8MOL0     H 1087  -0.708   2.632   1.237  0.6178 -2.8791 -1.1264
    8MOL0     H 1088   0.532   3.220   1.277 -0.9497 -3.1558  1.3732
    8MOL0     H 1089   0.704   3.383   1.202 -1.8026 -1.4706 -1.5567
    8MOL0     H 1090   0.990   3.592   1.162  0.9817  1.3380 -0.6855
    8MOL0     H 1091   1.129   3.747   1.045 -1.6638  1.2524 -2.8247
    8MOL0     H 1092   1.483   3.608   0.815  1.8586  0.7645 -2.5798
    8MOL0     H 1093   1.372   3.638   0.678 -1.8475  2.5287 -0.1229
    8MOL0     H 1094   1.559   3.829   0.826  1.7055  1.5354 -2.0126
    8MOL0     H 1095   1.426   3.885   0.732 -0.8329 -0.4825  2.1184
    8MOL0     H 1096   1.493   3.789   0.527  0.2740 -0.1809 -0.0144
    8MOL0     H 1097   1.616   3.886   0.582 -0.9340  1.3088  2.8903
    8MOL0     H 1098   1.675   3.636   0.489  0.3715  2.0064  0.0154
    8MOL0     H 1099   1.607   3.580   0.636  0.3612 -1.1404 -0.4966
    8MOL0     H 1100   2.007   3.728   0.733 -0.1341  2.6588 -1.8545
    8MOL0     H 1101   1.331   3.433   0.827 -0.2816 -0.1738 -0.9074
    8MOL0     H 1102   1.176   3.176   0.898  3.0769 -1.8071 -2.0332
    8MOL0     H 1103   1.337   3.231   0.913  0.6685  1.5893  0.4893
    8MOL0     H 1104   1.248   3.186   1.061  3.1024  1.6800  1.1532
    9MOL0     O 1105   8.974   6.261   8.816 -0.9979 -0.4371 -0.4165
    9MOL0     C 1106   8.902   6.256   8.720 -1.0557  0.2809 -0.0356
    9MOL0     O 1107   8.768   6.251   8.717  0.0689  0.0066  0.1147
    9MOL0     C 1108   8.715   6.215   8.836 -0.7048 -0.3131 -0.6202
    9MOL0     C 1109   8.719   6.076   8.875  0.0742 -0.7975 -0.8349
    9MOL0     C 1110   8.645   6.040   8.987 -0.3800  1.2242 -0.8041
    9MOL0     C 1111   8.566   6.126   9.064 -0.0065 -0.7353  0.0223
    9MOL0     O 1112   8.476   6.077   9.157 -0.0992  0.0836 -0.1548
    9MOL0     C 1113   8.380   6.161   9.228  0.1808  0.0630  0.5848
    9MOL0     C 1114   8.260   6.079   9.285 -0.2690  0.8215 -0.0020
    9MOL0     C 1115   8.275   5.995   9.406  0.4820  0.0966 -0.2867
    9MOL0     C 1116   8.368   5.874   9.392 -0.5048  0.9773 -0.3547
    9MOL0     C 1117   8.367   5.811   9.533  0.0428  0.9844  0.4888
    9MOL0     C 1118   8.433   5.673   9.525 -0.7200 -0.9076 -0.3723
    9MOL0     C 1119   8.362   5.571   9.615  0.8554 -0.3514  0.4971
    9MOL0     C 1120   8.461   5.469   9.671 -0.1950 -0.0781  0.2290
    9MOL0     N 1121   8.404   5.335   9.681 -1.0074 -0.5401  0.1475
    9MOL0     C 1122   8.461   5.219   9.649  0.4548  0.0084  0.0604
    9MOL0     C 1123   8.377   5.127   9.706  0.6560 -0.6511 -0.7389
    9MOL0     C 1124   8.425   4.986   9.703 -0.3989 -0.7495 -0.8133
    9MOL0     C 1125   8.422   4.919   9.844  0.3678  0.0115 -0.2344
    9MOL0     C 1126   8.472   4.769   9.847  0.2125 -0.2542 -0.5111
    9MOL0     C 1127   8.377   4.681   9.761 -0.8626  0.5156  1.1144
    9MOL0     O 1128   8.450   4.569   9.706 -0.1834  0.6916  0.4413
    9MOL0     C 1129   8.466   4.455   9.775 -0.9383  0.5317 -0.2743
    9MOL0     C 1130   8.517   4.343   9.715  0.4835  0.6039 -0.5208
    9MOL0     C 1131   8.546   4.225   9.778  0.0660  0.1489 -0.3890
    9MOL0     C 1132   8.573   4.104   9.696 -0.7900  0.1920  1.2443
    9MOL0     C 1133   8.540   4.218   9.921  0.3545  0.3463 -0.6622
    9MOL0     C 1134   8.580   4.105  10.006 -0.7771 -0.0964  0.2628
    9MOL0     O 1135   8.624   4.133  10.137 -0.7810  0.3917 -0.8195
    9MOL0     C 1136   8.677   4.028  10.217  0.4337 -0.2222  0.4585
    9MOL0     C 1137   8.802   4.037  10.277 -0.2909 -0.1001 -0.0534
    9MOL0     C 1138   8.857   3.941  10.338 -0.1188  0.4780 -0.0285
    9MOL0     C 1139   8.784   3.821  10.357  0.8789  0.2820  0.0775
    9MOL0     O 1140   8.827   3.702  10.424 -0.1657 -0.7273  0.2576
    9MOL0     C 1141   8.970   3.685  10.436 -0.4155 -0.3719  0.1870
    9MOL0     C 1142   9.005   3.537  10.451 -0.2829  0.1389 -0.0595
    9MOL0     C 1143   8.986   3.474  10.316 -0.1369  0.7150 -0.0128
    9MOL0     C 1144   9.015   3.325  10.321  0.7542  0.3199 -0.9467
    9MOL0     C 1145   9.037   3.264  10.180 -0.8849  0.0053  0.7872
    9MOL0     C 1146   8.913   3.267  10.087 -0.4563  0.0134 -0.1560
    9MOL0     C 1147   8.930   3.164   9.977  0.2354  0.2998  0.5943
    9MOL0     C 1148   8.876   3.198   9.837  0.3203 -0.2764 -0.0837
    9MOL0    Cl 1149   8.708   3.163   9.799 -0.1817  0.5638 -0.6095
    9MOL0     C 1150   8.645   3.822  10.321 -0.2536  1.1313 -0.2161
    9MOL0     C 1151   8.593   3.923  10.244 -0.3265  0.5992  0.8109
    9MOL0     O 1152   8.581   3.994   9.952  0.3567  0.1078  0.6714
    9MOL0     C 1153   8.489   4.330   9.983  0.1640  0.3961 -0.1110
    9MOL0     C 1154   8.433   4.440   9.913 -0.6816 -0.2294  0.4299
    9MOL0     N 1155   8.264   5.189   9.760  0.9332  0.0850 -0.2244
    9MOL0     N 1156   8.284   5.316   9.743 -0.3283  0.3060 -0.6263
    9MOL0     C 1157   8.563   6.264   9.025 -0.4888  0.0304  0.8434
    9MOL0     C 1158   8.632   6.308   8.910  0.5345  0.1558  0.3339
    9MOL0     C 1159   8.968   6.242   8.590  0.1034 -0.4079  0.0517
    9MOL0     C 1160   9.046   6.131   8.563 -0.2502  0.2414  0.3658
    9MOL0     C 1161   9.101   6.122   8.433 -0.1345 -0.6465  0.5732
    9MOL0     C 1162   9.070   6.213   8.339 -1.2273  0.3154 -0.4119
    9MOL0     O 1163   9.129   6.215   8.212 -0.7011  0.4055 -0.6923
    9MOL0     C 1164   9.230   6.122   8.173  0.1109 -0.8835 -0.4688
    9MOL0     C 1165   9.278   6.167   8.041 -1.2418 -0.1084 -0.3798
    9MOL0     C 1166   9.371   6.058   7.982 -0.1234 -0.8438 -0.1300
    9MOL0     C 1167   9.328   6.023   7.840  0.0225 -0.0502  0.4351
    9MOL0     C 1168   9.392   6.116   7.744 -0.3750 -0.4096 -0.2441
    9MOL0     C 1169   9.423   6.187   7.648  0.4113  0.1443 -0.3241
    9MOL0     C 1170   8.997   6.321   8.361  0.1752 -0.5385  0.1731
    9MOL0     C 1171   8.937   6.334   8.486  0.2749 -0.2945 -0.3952
    9MOL0     C 1172   8.863   6.467   8.528  0.0428  0.2214 -0.1974
    9MOL0     H 1173   8.776   6.002   8.819  0.2899 -0.5874 -0.8957
    9MOL0     H 1174   8.662   5.940   9.025  3.9310  2.0606 -0.0938
    9MOL0     H 1175   8.333   6.229   9.156 -0.7169 -2.8522 -1.7829
    9MOL0     H 1176   8.435   6.222   9.300 -0.2150  0.6968  0.3654
    9MOL0     H 1177   8.170   6.141   9.295 -0.1160  1.6305 -2.7907
    9MOL0     H 1178   8.238   5.999   9.214  1.0579  0.1622  0.3126
    9MOL0     H 1179   8.314   6.050   9.492 -1.4862  1.0216  0.0636
    9MOL0     H 1180   8.179   5.964   9.450  0.3135 -0.5581 -1.0747
    9MOL0     H 1181   8.332   5.816   9.307  1.1735 -1.5090  0.5356
    9MOL0     H 1182   8.469   5.904   9.364 -1.0351  2.1547 -1.0982
    9MOL0     H 1183   8.264   5.806   9.569 -0.5245  4.2610 -0.3201
    9MOL0     H 1184   8.423   5.864   9.610 -1.4436 -0.0568  2.3953
    9MOL0     H 1185   8.418   5.628   9.427  0.3450 -0.6622 -0.6540
    9MOL0     H 1186   8.539   5.679   9.550 -1.0995  0.2103  1.1133
    9MOL0     H 1187   8.287   5.514   9.559  0.6246  0.8258 -0.4424
    9MOL0     H 1188   8.319   5.617   9.704  0.1984  1.5972 -0.7415
    9MOL0     H 1189   8.546   5.468   9.602 -2.2485  1.2634 -2.4950
    9MOL0     H 1190   8.480   5.497   9.776 -3.5975 -0.8264  1.1522
    9MOL0     H 1191   8.558   5.204   9.603  1.1903  1.3600  1.0899
    9MOL0     H 1192   8.529   4.992   9.669  0.2648 -0.4529  1.1080
    9MOL0     H 1193   8.363   4.933   9.630  0.3589 -1.3033 -1.0733
    9MOL0     H 1194   8.487   4.979   9.910  0.5343 -0.1277 -0.2712
    9MOL0     H 1195   8.323   4.929   9.888  1.3229  3.2545  1.5677
    9MOL0     H 1196   8.577   4.771   9.819 -0.0986 -1.4536 -1.8467
    9MOL0     H 1197   8.476   4.717   9.943  1.4076 -0.9472 -0.9202
    9MOL0     H 1198   8.289   4.653   9.819 -1.2371 -0.1212  0.2597
    9MOL0     H 1199   8.331   4.737   9.678  0.7009  0.7912  0.3873
    9MOL0     H 1200   8.524   4.360   9.608  2.0769  2.4492 -0.1906
    9MOL0     H 1201   8.555   4.130   9.591 -2.9251  1.8326  1.9478
    9MOL0     H 1202   8.497   4.028   9.714 -0.9464 -0.2575 -1.0120
    9MOL0     H 1203   8.672   4.058   9.704 -0.9991 -0.8420 -1.0733
    9MOL0     H 1204   8.862   4.125  10.256 -0.3063  0.2484  1.2447
    9MOL0     H 1205   8.958   3.935  10.377 -0.0772 -1.4119 -0.3099
    9MOL0     H 1206   9.030   3.719  10.350  0.9888  0.8818  1.5975
    9MOL0     H 1207   8.993   3.735  10.531 -1.2966 -2.8374  1.7944
    9MOL0     H 1208   9.112   3.531  10.469  0.4044  4.3419 -1.5351
    9MOL0     H 1209   8.945   3.490  10.530 -0.0853  0.8463  0.5230
    9MOL0     H 1210   9.069   3.503  10.251 -0.6754 -0.1232 -1.0816
    9MOL0     H 1211   8.895   3.497  10.261 -0.7576 -2.0179 -0.2831
    9MOL0     H 1212   8.933   3.275  10.374  3.0074 -5.1918 -1.8922
    9MOL0     H 1213   9.106   3.305  10.379 -0.4591 -0.7606  0.6962
    9MOL0     H 1214   9.122   3.306  10.127 -1.7635 -0.6983 -1.2572
    9MOL0     H 1215   9.063   3.159  10.199 -3.2102 -1.2828 -2.3143
    9MOL0     H 1216   8.907   3.369  10.048  2.3958 -0.5321 -2.2851
    9MOL0     H 1217   8.816   3.246  10.134 -0.7050 -0.1979 -0.7569
    9MOL0     H 1218   8.892   3.072  10.022 -1.1443  1.3636  1.7071
    9MOL0     H 1219   9.039   3.157   9.967  0.1623  1.1685 -0.9270
    9MOL0     H 1220   8.939   3.148   9.762 -2.0481  2.1223 -4.0454
    9MOL0     H 1221   8.902   3.302   9.817 -0.1105  0.1271  1.3861
    9MOL0     H 1222   8.579   3.740  10.347 -0.4565  1.5937  0.7809
    9MOL0     H 1223   8.502   3.906  10.188  1.5776  0.1958 -2.4287
    9MOL0     H 1224   8.469   4.326  10.090  0.8965  3.1289  0.2135
    9MOL0     H 1225   8.385   4.524   9.962  0.4849  0.4627  0.4042
    9MOL0     H 1226   8.501   6.335   9.079  2.1140  2.4288  0.9098
    9MOL0     H 1227   8.617   6.411   8.881  0.9073 -0.9607 -4.8787
    9MOL0     H 1228   9.083   6.061   8.636 -0.1670  0.6201  0.6928
    9MOL0     H 1229   9.166   6.036   8.418  0.5693 -0.6842  3.2630
    9MOL0     H 1230   9.315   6.130   8.241  0.0047  0.3659 -0.4550
    9MOL0     H 1231   9.191   6.020   8.181  1.0271 -1.1629  0.6796
    9MOL0     H 1232   9.340   6.253   8.069 -1.2754  0.3823 -1.7043
    9MOL0     H 1233   9.208   6.213   7.971  1.2693  2.3204 -1.4909
    9MOL0     H 1234   9.469   6.106   7.983 -2.2840  4.3264 -1.6117
    9MOL0     H 1235   9.374   5.971   8.048 -0.1098 -0.5916  0.2058
    9MOL0     H 1236   9.220   6.028   7.830 -0.1761 -0.5024  2.0955
    9MOL0     H 1237   9.366   5.921   7.825  0.7457 -0.4521  3.9950
    9MOL0     H 1238   9.461   6.257   7.576  1.9456 -0.2624  0.0608
    9MOL0     H 1239   8.982   6.395   8.284 -0.9736  0.1119  0.9854
    9MOL0     H 1240   8.857   6.546   8.453 -1.0012  0.8424  0.5224
    9MOL0     H 1241   8.755   6.462   8.542  0.3859 -2.2360  2.4672
    9MOL0     H 1242   8.928   6.515   8.602  2.5850 -3.0737 -0.0599
   10MOL0     O 1243   0.427   6.336   8.196 -0.0171 -0.0228  0.7010
   10MOL0     C 1244   0.451   6.282   8.304 -0.1989  0.7741 -0.6874
   10MOL0     O 1245   0.467   6.146   8.316  0.0572  0.2044  0.5404
   10MOL0     C 1246   0.407   6.052   8.224 -0.5363 -1.0442 -0.6915
   10MOL0     C 1247   0.300   6.077   8.144  0.2047  0.2192  0.2734
   10MOL0     C 1248   0.255   5.972   8.064  0.7712 -0.6421  0.9435
   10MOL0     C 1249   0.298   5.836   8.085 -0.1168 -0.1979  0.7136
   10MOL0     O 1250   0.235   5.728   8.020 -0.2888  0.1691 -0.0860
   10MOL0     C 1251   0.248   5.731   7.875 -0.7286  0.6140  0.2743
   10MOL0     C 1252   0.139   5.657   7.795 -0.6014  0.2470 -0.3105
   10MOL0     C 1253   0.190   5.535   7.722 -0.1109 -0.6413  0.4942
   10MOL0     C 1254   0.065   5.470   7.664 -0.6385 -0.5634  0.3914
   10MOL0     C 1255   0.001   5.392   7.765  1.4096  0.2331  0.1396
   10MOL0     C 1256  -0.140   5.352   7.705 -0.4147 -0.2906 -0.2061
   10MOL0     C 1257  -0.250   5.304   7.790 -0.5987  1.9339 -0.3978
   10MOL0     C 1258  -0.352   5.228   7.705 -0.3779 -0.2735 -0.4080
   10MOL0     N 1259  -0.473   5.210   7.789 -0.6815  1.2188 -0.4274
   10MOL0     C 1260  -0.476   5.146   7.909 -0.4590  0.6224  0.6626
   10MOL0     C 1261  -0.608   5.151   7.951  0.0805 -0.6564  0.6868
   10MOL0     C 1262  -0.652   5.065   8.071 -0.9132 -0.0801  1.0677
   10MOL0     C 1263  -0.731   4.942   8.011 -0.1765 -0.7043  0.5926
   10MOL0     C 1264  -0.781   4.853   8.128  0.1643 -0.0119  0.0782
   10MOL0     C 1265  -0.895   4.931   8.207  0.1832 -0.1861  0.4125
   10MOL0     O 1266  -0.846   5.016   8.311  0.1597 -0.6804 -0.2181
   10MOL0     C 1267  -0.931   5.043   8.418 -0.4260 -0.0874  0.2566
   10MOL0     C 1268  -0.867   5.075   8.537  0.0914  0.4805 -0.0058
   10MOL0     C 1269  -0.934   5.073   8.662 -0.7838  0.1995 -1.6228
   10MOL0     C 1270  -0.873   5.135   8.787 -0.2777  0.0510  0.2819
   10MOL0     C 1271  -1.071   5.038   8.669 -0.2973 -0.3049 -0.6239
   10MOL0     C 1272  -1.138   5.017   8.803 -0.0152  0.7565 -0.9930
   10MOL0     O 1273  -1.275   5.027   8.806  0.4778 -0.7283 -0.1438
   10MOL0     C 1274  -1.344   5.015   8.926  0.3053  0.1181  1.2908
   10MOL0     C 1275  -1.286   5.060   9.045 -0.3497 -0.2400 -0.6088
   10MOL0     C 1276  -1.356   5.062   9.166  0.5075 -0.0920 -0.2717
   10MOL0     C 1277  -1.495   5.035   9.174 -0.0767  0.1518 -0.5082
   10MOL0     O 1278  -1.552   5.066   9.293  0.0425  0.6690 -0.4160
   10MOL0     C 1279  -1.692   5.030   9.308  0.1101 -0.5513 -0.7776
   10MOL0     C 1280  -1.743   5.096   9.459  0.0421 -0.3068  0.4835
   10MOL0     C 1281  -1.717   4.996   9.570 -0.2573 -0.3618 -0.3653
   10MOL0     C 1282  -1.754   5.044   9.711 -0.0457 -0.2210  0.4889
   10MOL0     C 1283  -1.903   5.059   9.732 -0.5130 -0.3624  0.5986
   10MOL0     C 1284  -1.939   5.098   9.883 -0.4266 -0.2540  0.9629
   10MOL0     C 1285  -2.080   5.066   9.903  0.9152 -0.2360 -0.1464
   10MOL0     C 1286  -2.186   5.139   9.823 -0.0359  0.5628 -0.2080
   10MOL0    Cl 1287  -2.352   5.073   9.857 -0.3152 -0.3580  0.3826
   10MOL0     C 1288  -1.554   4.999   9.053  0.1144 -0.4083  0.1091
   10MOL0     C 1289  -1.476   4.984   8.936  0.5651 -0.0474  0.7499
   10MOL0     O 1290  -1.074   4.943   8.881  0.0833  0.7154  0.2477
   10MOL0     C 1291  -1.139   5.032   8.549  0.7472 -0.1954 -0.6157
   10MOL0     C 1292  -1.073   5.022   8.430 -0.0659 -0.2567  0.1557
   10MOL0     N 1293  -0.678   5.215   7.851 -0.2522  0.1221 -0.5888
   10MOL0     N 1294  -0.592   5.261   7.761 -0.4542  0.6670 -0.4920
   10MOL0     C 1295   0.407   5.814   8.175  0.7946  0.4891 -0.1878
   10MOL0     C 1296   0.460   5.922   8.239 -0.1445 -0.7672  0.0842
   10MOL0     C 1297   0.503   6.357   8.422 -0.3776 -0.3289  0.1230
   10MOL0     C 1298   0.517   6.289   8.546 -0.3068 -0.0012 -0.3540
   10MOL0     C 1299   0.544   6.355   8.667  0.1814  0.8140  0.6525
   10MOL0     C 1300   0.579   6.494   8.660 -0.1502  0.7662 -0.0288
   10MOL0     O 1301   0.633   6.563   8.764 -0.0072 -0.2977  0.2852
   10MOL0     C 1302   0.672   6.494   8.875 -0.0149 -0.5136 -0.4443
   10MOL0     C 1303   0.738   6.585   8.973  0.0623 -0.8620  1.2553
   10MOL0     C 1304   0.632   6.701   9.027  0.8119 -0.0184 -0.2944
   10MOL0     C 1305   0.672   6.753   9.166  0.2046  0.4172  0.5929
   10MOL0     C 1306   0.814   6.777   9.158  0.1987  0.3667  0.6898
   10MOL0     C 1307   0.925   6.775   9.128 -0.0351 -0.6386  0.4312
   10MOL0     C 1308   0.567   6.569   8.541  0.0478 -0.7401  0.7711
   10MOL0     C 1309   0.528   6.499   8.424  0.6171 -0.5805 -0.0483
   10MOL0     C 1310   0.521   6.586   8.305 -0.3060 -0.6660  0.8318
   10MOL0     H 1311   0.246   6.171   8.141 -1.2753 -0.5758  0.4389
   10MOL0     H 1312   0.166   5.975   8.001  2.9599  4.7002 -2.5638
   10MOL0     H 1313   0.348   5.705   7.838 -1.8173 -1.4113 -1.5064
   10MOL0     H 1314   0.250   5.835   7.841  1.8923 -0.0106 -1.8952
   10MOL0     H 1315   0.048   5.641   7.855  0.7980 -1.2233  1.5463
   10MOL0     H 1316   0.095   5.725   7.722 -1.2301 -0.3550 -0.5086
   10MOL0     H 1317   0.262   5.554   7.642  0.3109 -3.7458  0.0165
   10MOL0     H 1318   0.247   5.475   7.794 -2.9586 -2.9322  1.0121
   10MOL0     H 1319  -0.002   5.546   7.622 -1.7719 -1.8847 -0.2703
   10MOL0     H 1320   0.092   5.394   7.590 -1.0935 -2.5918  2.1975
   10MOL0     H 1321  -0.012   5.454   7.854 -1.1023  0.6197 -0.4260
   10MOL0     H 1322   0.050   5.300   7.801 -0.0983 -1.3606 -1.6363
   10MOL0     H 1323  -0.178   5.425   7.634 -2.9413  0.4008  1.7233
   10MOL0     H 1324  -0.122   5.267   7.638  1.0086 -1.2525  1.3121
   10MOL0     H 1325  -0.291   5.386   7.850 -1.2222  0.1995  1.6866
   10MOL0     H 1326  -0.199   5.230   7.853 -1.9053  0.6513 -0.8026
   10MOL0     H 1327  -0.377   5.297   7.625 -0.8561 -0.8777 -0.7915
   10MOL0     H 1328  -0.303   5.143   7.655  0.8778  0.3687 -0.3151
   10MOL0     H 1329  -0.395   5.093   7.957 -1.3442 -1.8634 -0.3996
   10MOL0     H 1330  -0.724   5.124   8.128 -4.2266 -2.4418 -0.3859
   10MOL0     H 1331  -0.560   5.041   8.124 -0.1481 -1.2111 -0.6817
   10MOL0     H 1332  -0.816   4.975   7.951 -0.1950  0.2094  1.1018
   10MOL0     H 1333  -0.661   4.893   7.943 -0.4808  0.3880 -0.5534
   10MOL0     H 1334  -0.818   4.763   8.079  1.7697 -1.3834  1.2717
   10MOL0     H 1335  -0.695   4.827   8.191  0.0852 -0.4630 -0.0010
   10MOL0     H 1336  -0.956   4.988   8.137  1.6389  1.6402  0.5698
   10MOL0     H 1337  -0.962   4.857   8.252 -1.9241  0.9664 -0.6767
   10MOL0     H 1338  -0.763   5.106   8.538 -0.2712  1.7919 -0.8036
   10MOL0     H 1339  -0.833   5.060   8.856 -1.1861 -0.8924 -0.1756
   10MOL0     H 1340  -0.940   5.204   8.838  1.3917  3.0686 -1.3781
   10MOL0     H 1341  -0.791   5.192   8.744  1.1975 -1.2093  1.3424
   10MOL0     H 1342  -1.190   5.106   9.063 -1.3891  0.8751  2.8927
   10MOL0     H 1343  -1.302   5.101   9.252  1.6571  0.6155 -1.2879
   10MOL0     H 1344  -1.762   5.079   9.239 -2.5171  3.2926  3.9774
   10MOL0     H 1345  -1.705   4.921   9.304 -0.3021 -0.6255  1.2758
   10MOL0     H 1346  -1.692   5.193   9.460  1.1092 -0.8503  0.1558
   10MOL0     H 1347  -1.851   5.116   9.458  0.1457  0.2742  0.1299
   10MOL0     H 1348  -1.608   4.985   9.558 -0.1741  1.0519 -1.1311
   10MOL0     H 1349  -1.757   4.895   9.554 -2.6617  0.3742  0.6460
   10MOL0     H 1350  -1.701   5.134   9.744 -0.5015 -0.1097  0.9309
   10MOL0     H 1351  -1.720   4.961   9.774  1.6029  0.7665  0.9615
   10MOL0     H 1352  -1.955   5.127   9.663  1.2765  0.9179  0.4437
   10MOL0     H 1353  -1.947   4.964   9.700  1.6838 -0.6567 -1.8864
   10MOL0     H 1354  -1.915   5.201   9.910  1.0159 -0.7256  1.6011
   10MOL0     H 1355  -1.876   5.041   9.953  2.6044  2.6722  0.8903
   10MOL0     H 1356  -2.110   5.095  10.004  1.4422  2.1019 -0.5971
   10MOL0     H 1357  -2.094   4.959   9.889  2.8741 -0.4714 -0.6285
   10MOL0     H 1358  -2.161   5.122   9.718  0.4875  0.5035 -0.0739
   10MOL0     H 1359  -2.178   5.247   9.837 -0.8193  1.2189 -3.8029
   10MOL0     H 1360  -1.660   4.972   9.051 -0.8728  2.5236  3.2791
   10MOL0     H 1361  -1.530   4.984   8.842  3.8608  0.7888 -1.2996
   10MOL0     H 1362  -1.246   5.024   8.560  0.7410 -1.9323 -1.4839
   10MOL0     H 1363  -1.123   4.992   8.339 -3.8566  1.5873  1.4148
   10MOL0     H 1364   0.455   5.717   8.184 -0.0835  0.2257  2.3205
   10MOL0     H 1365   0.548   5.896   8.297 -0.6194  1.1979  1.8115
   10MOL0     H 1366   0.492   6.184   8.540 -1.9411  0.4209 -1.7073
   10MOL0     H 1367   0.549   6.295   8.757  1.3758 -0.7054 -0.3871
   10MOL0     H 1368   0.588   6.446   8.925  1.7824 -3.7942 -0.3176
   10MOL0     H 1369   0.746   6.415   8.858 -2.4126 -2.8179 -0.6831
   10MOL0     H 1370   0.828   6.621   8.922 -0.8710  1.5338  1.1581
   10MOL0     H 1371   0.758   6.529   9.065 -1.4559  1.1436  2.9250
   10MOL0     H 1372   0.625   6.791   8.967 -0.4742  0.3390  0.3467
   10MOL0     H 1373   0.530   6.662   9.038 -0.1726  1.8587 -2.2003
   10MOL0     H 1374   0.646   6.675   9.239 -1.2980  2.1641  2.0204
   10MOL0     H 1375   0.621   6.844   9.198  0.8580  0.9265  0.2019
   10MOL0     H 1376   1.022   6.784   9.083 -1.5772  3.3263 -2.7927
   10MOL0     H 1377   0.588   6.675   8.557 -0.0497 -0.2019 -2.1066
   10MOL0     H 1378   0.577   6.546   8.220 -0.8809  2.0307 -0.9341
   10MOL0     H 1379   0.416   6.593   8.277  0.0734 -3.5185 -1.7541
   10MOL0     H 1380   0.559   6.687   8.323  1.9949 -1.4217  0.6049
   11MOL0     O 1381   2.195   1.459   0.469 -0.3546 -0.7362 -0.3620
   11MOL0     C 1382   2.249   1.466   0.360  0.0750  0.1182  0.4945
   11MOL0     O 1383   2.195   1.416   0.246 -0.0175  0.5780 -0.2541
   11MOL0     C 1384   2.061   1.390   0.249  0.3907  0.1065 -0.1478
   11MOL0     C 1385   2.007   1.277   0.193  0.3431 -0.1908 -0.3241
   11MOL0     C 1386   1.872   1.254   0.186 -0.0515 -0.5986  0.6265
   11MOL0     C 1387   1.782   1.350   0.239  0.6299  0.6919 -0.3526
   11MOL0     O 1388   1.648   1.327   0.242  0.8136  0.3492  0.6381
   11MOL0     C 1389   1.592   1.204   0.288  0.1057 -0.6128 -0.4191
   11MOL0     C 1390   1.540   1.233   0.429  0.2015  0.6568 -0.1559
   11MOL0     C 1391   1.429   1.333   0.430  0.5143  0.1446  0.0521
   11MOL0     C 1392   1.309   1.303   0.527 -0.5241  0.4248 -0.2457
   11MOL0     C 1393   1.206   1.423   0.520  0.0050  0.4910  0.2566
   11MOL0     C 1394   1.058   1.388   0.510  0.2664  0.6195 -0.1367
   11MOL0     C 1395   1.000   1.313   0.395 -0.5131 -0.3377 -0.1999
   11MOL0     C 1396   0.868   1.371   0.356  0.4544  0.3464  0.7887
   11MOL0     N 1397   0.815   1.297   0.244  0.0036  0.5554  0.5176
   11MOL0     C 1398   0.826   1.321   0.102  0.4622 -0.6222  0.0993
   11MOL0     C 1399   0.728   1.243   0.046 -0.7877 -0.0332 -0.3229
   11MOL0     C 1400   0.707   1.222  -0.093 -0.3189  0.2075 -0.0591
   11MOL0     C 1401   0.773   1.101  -0.160  0.7891  0.5310 -0.4459
   11MOL0     C 1402   0.773   1.110  -0.311 -0.4791  0.0804  0.3661
   11MOL0     C 1403   0.643   1.121  -0.389  0.6426 -0.3737 -0.6644
   11MOL0     O 1404   0.548   1.010  -0.356  0.2293 -0.3267  0.2112
   11MOL0     C 1405   0.439   1.000  -0.443 -0.4354 -0.8102 -0.7666
   11MOL0     C 1406   0.435   1.051  -0.576  0.9097 -0.0437  0.6042
   11MOL0     C 1407   0.325   1.010  -0.661  0.3729  0.4053 -0.0004
   11MOL0     C 1408   0.319   1.083  -0.794  0.0564 -0.0308 -0.9610
   11MOL0     C 1409   0.220   0.936  -0.610 -0.7213  0.8164 -0.7941
   11MOL0     C 1410   0.088   0.915  -0.674  0.3658 -0.1820  0.6164
   11MOL0     O 1411  -0.022   0.905  -0.600 -0.5077  0.0262  0.1212
   11MOL0     C 1412  -0.143   0.895  -0.667 -0.0087 -1.0996 -0.1407
   11MOL0     C 1413  -0.186   1.001  -0.739  0.6976 -0.0655  0.5463
   11MOL0     C 1414  -0.325   1.010  -0.775  0.3313 -0.1388  0.5205
   11MOL0     C 1415  -0.416   0.917  -0.715 -0.6274  0.4201  0.8505
   11MOL0     O 1416  -0.549   0.924  -0.745  0.1583 -0.3904  0.3324
   11MOL0     C 1417  -0.615   1.002  -0.629 -0.0903  0.4011  0.1195
   11MOL0     C 1418  -0.723   1.099  -0.670  0.3807 -0.3749 -1.0690
   11MOL0     C 1419  -0.833   1.034  -0.752  0.1239 -0.2645  0.3535
   11MOL0     C 1420  -0.947   1.002  -0.655  0.0160  0.4698 -0.9957
   11MOL0     C 1421  -1.033   0.889  -0.710  0.6316 -0.5593  0.6765
   11MOL0     C 1422  -1.143   0.834  -0.615 -0.1067  0.1675 -0.0046
   11MOL0     C 1423  -1.100   0.725  -0.514 -0.3966 -0.3559  0.2770
   11MOL0     C 1424  -1.221   0.702  -0.420 -0.6014 -0.3615 -0.0954
   11MOL0    Cl 1425  -1.155   0.611  -0.268 -0.1310  0.0169 -0.2099
   11MOL0     C 1426  -0.368   0.806  -0.651 -0.0272 -0.0523 -0.6325
   11MOL0     C 1427  -0.231   0.797  -0.618 -0.5366 -0.5532  0.4289
   11MOL0     O 1428   0.086   0.904  -0.798  0.3607  0.0361  0.1976
   11MOL0     C 1429   0.231   0.875  -0.481 -0.1784  0.3626  0.4040
   11MOL0     C 1430   0.340   0.914  -0.404 -0.6338  0.5350 -0.2690
   11MOL0     N 1431   0.656   1.192   0.148 -1.4157 -0.9748  0.6142
   11MOL0     N 1432   0.701   1.221   0.268 -0.5884 -1.0183 -0.4062
   11MOL0     C 1433   1.831   1.476   0.278 -1.0517  0.8393  0.9194
   11MOL0     C 1434   1.974   1.498   0.276 -0.5670  0.1574  0.6064
   11MOL0     C 1435   2.389   1.503   0.343  0.8350 -0.0339 -0.6718
   11MOL0     C 1436   2.483   1.451   0.441 -0.0105 -0.5148  0.2765
   11MOL0     C 1437   2.616   1.493   0.442  2.0182  1.7009 -0.6480
   11MOL0     C 1438   2.655   1.596   0.351  0.1624 -0.6530 -1.5572
   11MOL0     O 1439   2.782   1.626   0.326 -0.7284 -0.7586  0.2889
   11MOL0     C 1440   2.891   1.585   0.409  1.2893 -0.9310  0.6388
   11MOL0     C 1441   2.889   1.645   0.547 -0.4898 -1.0448 -1.5609
   11MOL0     C 1442   3.034   1.686   0.602  0.5236 -0.2532 -1.1791
   11MOL0     C 1443   3.041   1.707   0.758  0.2188 -0.9142 -0.4017
   11MOL0     C 1444   3.024   1.583   0.839 -0.7217 -0.4335 -1.5932
   11MOL0     C 1445   3.035   1.481   0.912 -0.4066  0.3496  0.1949
   11MOL0     C 1446   2.564   1.652   0.258 -0.1931  0.3498 -0.7936
   11MOL0     C 1447   2.436   1.608   0.251  0.0050 -0.2097  0.6650
   11MOL0     C 1448   2.352   1.655   0.137 -0.2617 -0.2345 -1.0281
   11MOL0     H 1449   2.069   1.194   0.162 -2.6837 -2.2686 -1.2970
   11MOL0     H 1450   1.841   1.163   0.136 -1.7713  1.2398 -1.8891
   11MOL0     H 1451   1.662   1.119   0.294 -3.0444 -3.3707  0.6625
   11MOL0     H 1452   1.509   1.168   0.227 -0.0991  0.0753 -0.5482
   11MOL0     H 1453   1.502   1.140   0.471 -0.5877  0.7313 -0.6853
   11MOL0     H 1454   1.621   1.282   0.484 -0.2137  0.1823  0.9012
   11MOL0     H 1455   1.476   1.424   0.466  1.6242 -1.1662  2.0925
   11MOL0     H 1456   1.388   1.340   0.329  1.8262 -3.9220 -0.9683
   11MOL0     H 1457   1.251   1.214   0.500 -3.0151  2.1720 -0.9479
   11MOL0     H 1458   1.361   1.287   0.622  3.8834 -5.3069 -3.0013
   11MOL0     H 1459   1.230   1.492   0.438  1.0388  0.2890  0.3754
   11MOL0     H 1460   1.214   1.469   0.619 -1.0924 -0.4970  0.8225
   11MOL0     H 1461   1.019   1.341   0.600 -1.5717  1.2500 -0.5663
   11MOL0     H 1462   1.034   1.494   0.508  1.0963  0.8134 -1.7965
   11MOL0     H 1463   0.982   1.208   0.422  0.2875 -0.4230  0.0327
   11MOL0     H 1464   1.073   1.310   0.313 -1.5381 -2.6191 -1.1345
   11MOL0     H 1465   0.797   1.384   0.438  0.8524  2.7788  0.8442
   11MOL0     H 1466   0.884   1.477   0.333 -1.2748  0.0325 -2.3021
   11MOL0     H 1467   0.891   1.392   0.052  0.9382 -0.5112  0.8705
   11MOL0     H 1468   0.744   1.314  -0.138  0.2611  0.6857  1.3553
   11MOL0     H 1469   0.598   1.209  -0.098  0.0167 -3.1176 -1.2759
   11MOL0     H 1470   0.875   1.123  -0.130  0.2443  2.0802  0.3445
   11MOL0     H 1471   0.731   1.004  -0.133  0.8881  0.1294 -1.6651
   11MOL0     H 1472   0.843   1.188  -0.343 -2.2060  1.6168  0.1602
   11MOL0     H 1473   0.821   1.017  -0.343  0.4000  1.1101 -1.5012
   11MOL0     H 1474   0.587   1.209  -0.359  1.6552 -1.1558  4.5522
   11MOL0     H 1475   0.679   1.122  -0.492 -0.3732 -3.0305 -1.1327
   11MOL0     H 1476   0.517   1.109  -0.615 -0.0718  1.9031  1.3260
   11MOL0     H 1477   0.395   1.162  -0.805 -0.9525  1.0791 -0.2395
   11MOL0     H 1478   0.220   1.129  -0.800 -1.2743 -2.5538  0.2715
   11MOL0     H 1479   0.315   1.008  -0.874 -0.9055 -0.6122 -0.3886
   11MOL0     H 1480  -0.121   1.084  -0.762 -1.5695  1.3107 -1.3357
   11MOL0     H 1481  -0.363   1.098  -0.826 -0.0542 -0.6168 -0.0380
   11MOL0     H 1482  -0.662   0.934  -0.558  0.6467  0.0970  0.3168
   11MOL0     H 1483  -0.545   1.047  -0.559 -1.9093 -0.9648  2.9794
   11MOL0     H 1484  -0.766   1.141  -0.579  0.3430  0.1424 -1.3249
   11MOL0     H 1485  -0.672   1.182  -0.719 -1.1058  0.7743 -0.7358
   11MOL0     H 1486  -0.804   0.946  -0.811 -0.0363 -2.1724  2.9424
   11MOL0     H 1487  -0.878   1.114  -0.811 -1.9209 -1.9205 -0.4702
   11MOL0     H 1488  -1.006   1.091  -0.631 -2.0733 -0.7970 -1.1831
   11MOL0     H 1489  -0.913   0.969  -0.557 -3.8915  3.4781  1.6778
   11MOL0     H 1490  -1.068   0.919  -0.809  1.2074 -1.6465  0.1220
   11MOL0     H 1491  -0.969   0.803  -0.735 -0.4023 -0.9714 -0.6566
   11MOL0     H 1492  -1.225   0.791  -0.674 -0.7925 -0.8597  1.6237
   11MOL0     H 1493  -1.187   0.919  -0.562  1.5618 -0.0985  1.8900
   11MOL0     H 1494  -1.010   0.760  -0.462 -0.3714  1.1075 -0.7080
   11MOL0     H 1495  -1.075   0.629  -0.560  0.5381 -0.1440  0.3205
   11MOL0     H 1496  -1.299   0.650  -0.476  0.9641 -0.8094 -1.9831
   11MOL0     H 1497  -1.261   0.799  -0.389  1.5102  0.1731  1.1616
   11MOL0     H 1498  -0.446   0.735  -0.623  0.9029 -0.1818  1.9337
   11MOL0     H 1499  -0.186   0.721  -0.555  0.2533 -0.6932 -0.2815
   11MOL0     H 1500   0.157   0.800  -0.454 -2.7701  2.6171  0.0374
   11MOL0     H 1501   0.356   0.863  -0.309  1.0677 -3.2054 -2.3400
   11MOL0     H 1502   1.762   1.548   0.319  0.3969  0.5182  4.2446
   11MOL0     H 1503   2.015   1.596   0.297 -2.1726  1.7846 -3.0472
   11MOL0     H 1504   2.439   1.383   0.514 -0.2166  0.6516  1.2728
   11MOL0     H 1505   2.675   1.459   0.527 -1.0979 -0.2136  0.9780
   11MOL0     H 1506   2.892   1.477   0.422  0.4612 -0.9126  0.9139
   11MOL0     H 1507   2.983   1.613   0.356  2.4665 -1.8027  2.1731
   11MOL0     H 1508   2.838   1.570   0.607  1.0003 -2.0281 -1.4677
   11MOL0     H 1509   2.827   1.735   0.539  2.6095  1.2844 -1.5842
   11MOL0     H 1510   3.106   1.604   0.597 -1.1171 -2.4092  3.6816
   11MOL0     H 1511   3.068   1.775   0.549 -1.7989  1.4088 -0.0617
   11MOL0     H 1512   2.974   1.782   0.801  1.0884 -0.3033 -0.0800
   11MOL0     H 1513   3.145   1.731   0.782  0.3329 -0.3831 -1.3768
   11MOL0     H 1514   3.049   1.395   0.974  2.8479 -2.3586 -3.7280
   11MOL0     H 1515   2.617   1.718   0.189  2.7300  0.9955  1.8545
   11MOL0     H 1516   2.387   1.757   0.120 -1.1196  0.2502  0.0130
   11MOL0     H 1517   2.373   1.596   0.047  1.2504 -1.6278  0.1649
   11MOL0     H 1518   2.245   1.642   0.152 -0.1633 -2.2037 -1.7620
   12MOL0     O 1519   0.804   8.149  10.706 -0.7022 -0.5362  0.2390
   12MOL0     C 1520   0.819   8.230  10.800 -0.1691 -0.3780  0.2380
   12MOL0     O 1521   0.814   8.198  10.929 -0.5725  0.0961  0.0858
   12MOL0     C 1522   0.842   8.069  10.964  0.0481  0.4936  1.3649
   12MOL0     C 1523   0.972   8.038  11.013 -0.5548  0.6685  0.4888
   12MOL0     C 1524   1.006   7.904  11.037  0.9961 -0.0845 -0.1091
   12MOL0     C 1525   0.915   7.798  11.013 -0.4187  0.2646 -1.0213
   12MOL0     O 1526   0.954   7.665  11.045  0.3394  0.5696  0.2703
   12MOL0     C 1527   1.024   7.591  10.941  1.5690  0.0154  0.6522
   12MOL0     C 1528   0.942   7.586  10.801  0.6918 -0.6748 -0.0474
   12MOL0     C 1529   0.997   7.481  10.710  0.2708  1.1432 -0.6937
   12MOL0     C 1530   1.134   7.504  10.663 -0.6475  1.0618  0.7407
   12MOL0     C 1531   1.186   7.386  10.576 -0.6348  0.3205  0.4815
   12MOL0     C 1532   1.320   7.408  10.507  0.2043  0.7801  0.0764
   12MOL0     C 1533   1.314   7.535  10.427 -0.3540  0.1391  1.4923
   12MOL0     C 1534   1.378   7.650  10.513 -0.2623 -0.5295 -0.0382
   12MOL0     N 1535   1.414   7.773  10.437 -1.0100 -0.0682  0.1560
   12MOL0     C 1536   1.489   7.870  10.498 -0.4195 -0.8277  0.1635
   12MOL0     C 1537   1.512   7.962  10.396 -0.5746  0.8485 -0.2996
   12MOL0     C 1538   1.589   8.089  10.409 -0.4418 -0.0019 -0.2445
   12MOL0     C 1539   1.583   8.187  10.290 -0.4208  0.0245  0.1328
   12MOL0     C 1540   1.623   8.333  10.326 -0.9965  0.1413 -0.0534
   12MOL0     C 1541   1.649   8.409  10.198 -0.5035 -0.3685  0.1701
   12MOL0     O 1542   1.754   8.357  10.124 -0.5698  1.0962 -0.4000
   12MOL0     C 1543   1.877   8.417  10.152 -0.1725 -0.4925 -0.2572
   12MOL0     C 1544   1.981   8.395  10.065 -0.4239 -0.4709 -0.2595
   12MOL0     C 1545   2.108   8.436  10.094  0.5314 -0.2945  0.1937
   12MOL0     C 1546   2.221   8.376  10.012  0.1262 -0.4090  0.2249
   12MOL0     C 1547   2.136   8.523  10.197 -0.0616 -0.2141  0.2126
   12MOL0     C 1548   2.274   8.576  10.216 -0.7483  0.3611 -0.1035
   12MOL0     O 1549   2.323   8.548  10.341 -0.1210  0.8207  0.2975
   12MOL0     C 1550   2.452   8.590  10.373 -0.2224  0.5182  0.6761
   12MOL0     C 1551   2.492   8.725  10.352  0.5214  0.0679 -1.0191
   12MOL0     C 1552   2.611   8.772  10.408 -0.5917  0.4024  0.8657
   12MOL0     C 1553   2.696   8.690  10.472 -0.0881  1.0533 -0.3772
   12MOL0     O 1554   2.809   8.746  10.520  0.1532 -1.1777  0.0033
   12MOL0     C 1555   2.881   8.694  10.631 -0.2519  0.3129  0.1828
   12MOL0     C 1556   3.010   8.782  10.656  0.3671 -0.6025 -1.2445
   12MOL0     C 1557   3.081   8.817  10.523  0.3432  1.1610  0.5605
   12MOL0     C 1558   3.151   8.689  10.478 -0.1336 -0.2265 -0.4489
   12MOL0     C 1559   3.216   8.700  10.346  0.4420  0.6832  0.4118
   12MOL0     C 1560   3.251   8.561  10.298  0.8207 -0.2661  0.1441
   12MOL0     C 1561   3.161   8.493  10.197  0.2014  0.7071  0.0733
   12MOL0     C 1562   3.031   8.443  10.262 -0.2423 -0.2359 -0.2622
   12MOL0    Cl 1563   3.063   8.323  10.391 -0.3389  0.0308  0.1353
   12MOL0     C 1564   2.649   8.558  10.505 -0.5593  0.8069 -0.2204
   12MOL0     C 1565   2.533   8.512  10.449  0.1398  0.3490 -0.6405
   12MOL0     O 1566   2.337   8.622  10.117  0.0624 -0.0574  1.0058
   12MOL0     C 1567   2.035   8.542  10.291  0.1646 -0.1494  0.4901
   12MOL0     C 1568   1.911   8.485  10.270  0.2107 -0.1774 -0.9474
   12MOL0     N 1569   1.454   7.916  10.274 -0.8031 -0.3115  0.0040
   12MOL0     N 1570   1.409   7.798  10.300 -0.1018  0.2364 -0.5464
   12MOL0     C 1571   0.785   7.836  10.976  0.5766  0.5571  0.9122
   12MOL0     C 1572   0.745   7.965  10.946  0.5992 -0.1070  0.0713
   12MOL0     C 1573   0.826   8.373  10.765  0.3965  0.4256  0.4128
   12MOL0     C 1574   0.783   8.407  10.637 -0.0895 -0.2384 -0.9376
   12MOL0     C 1575   0.795   8.542  10.593  0.5891 -0.4189  0.5977
   12MOL0     C 1576   0.858   8.632  10.674 -0.4644 -0.1068 -0.1249
   12MOL0     O 1577   0.898   8.762  10.636  0.1794  0.8194  0.2938
   12MOL0     C 1578   0.858   8.800  10.509  0.4522 -1.2367  0.7311
   12MOL0     C 1579   0.963   8.897  10.450  0.0821 -0.6186  1.1287
   12MOL0     C 1580   0.915   8.955  10.313 -0.1531 -0.1182  0.0166
   12MOL0     C 1581   0.824   9.068  10.345 -0.8835  0.1983  0.0257
   12MOL0     C 1582   0.813   9.149  10.222 -0.2695 -0.5232  0.9539
   12MOL0     C 1583   0.795   9.198  10.112 -0.0904 -1.0135  0.0527
   12MOL0     C 1584   0.896   8.600  10.805  0.0208  0.1759  0.0570
   12MOL0     C 1585   0.884   8.466  10.850 -0.8684 -0.3982 -0.9139
   12MOL0     C 1586   0.950   8.438  10.984  0.6570 -0.2686  0.0635
   12MOL0     H 1587   1.039   8.118  11.041 -2.2728  2.7303 -0.9456
   12MOL0     H 1588   1.098   7.872  11.085 -0.9304  0.5432  4.4246
   12MOL0     H 1589   1.034   7.489  10.978 -0.0010  0.4374  2.3919
   12MOL0     H 1590   1.124   7.636  10.935  0.4171  2.7909  0.8393
   12MOL0     H 1591   0.838   7.561  10.823  0.9103 -1.1954  0.4274
   12MOL0     H 1592   0.940   7.680  10.745 -3.1902 -0.0943  0.7990
   12MOL0     H 1593   1.001   7.394  10.776 -0.9538  4.2280  3.8739
   12MOL0     H 1594   0.943   7.468  10.615 -0.4127 -0.5064 -0.1212
   12MOL0     H 1595   1.127   7.598  10.608 -2.3582  0.2818 -0.4657
   12MOL0     H 1596   1.201   7.524  10.747  1.7156 -0.9350 -0.5568
   12MOL0     H 1597   1.130   7.383  10.482  3.1915  4.0060 -2.3188
   12MOL0     H 1598   1.178   7.290  10.628 -0.9458  0.2706  0.3428
   12MOL0     H 1599   1.389   7.408  10.592 -1.2568 -1.3606  1.3632
   12MOL0     H 1600   1.351   7.321  10.450 -0.2694  0.5579  0.1549
   12MOL0     H 1601   1.217   7.568  10.388  0.5751  1.8289  0.5028
   12MOL0     H 1602   1.379   7.516  10.341 -4.3307  2.3669 -2.3927
   12MOL0     H 1603   1.310   7.690  10.589 -1.0011  1.9957 -1.8672
   12MOL0     H 1604   1.467   7.611  10.562 -1.1683  1.3327  3.3834
   12MOL0     H 1605   1.531   7.884  10.597  2.3277 -2.4255 -0.6620
   12MOL0     H 1606   1.691   8.073  10.444 -0.1317  2.0578 -0.0288
   12MOL0     H 1607   1.537   8.150  10.484 -0.7183  0.4383 -0.7847
   12MOL0     H 1608   1.650   8.156  10.209 -1.7960 -1.0743 -0.6202
   12MOL0     H 1609   1.479   8.191  10.256  0.0860 -1.8943 -1.8255
   12MOL0     H 1610   1.553   8.390  10.388 -0.6016 -1.4032  1.8967
   12MOL0     H 1611   1.715   8.320  10.383 -0.5519 -4.8733 -1.4979
   12MOL0     H 1612   1.559   8.409  10.137  0.1156 -1.2405 -0.7771
   12MOL0     H 1613   1.656   8.517  10.212 -1.5430 -0.2858  0.1697
   12MOL0     H 1614   1.960   8.327   9.983 -2.2461 -1.7190  1.1511
   12MOL0     H 1615   2.307   8.336  10.067 -0.3008  0.8250  1.8729
   12MOL0     H 1616   2.264   8.445   9.939 -0.7272  1.9432  1.8181
   12MOL0     H 1617   2.182   8.298   9.946  1.4941 -0.5614 -0.4385
   12MOL0     H 1618   2.421   8.785  10.296 -1.3188  1.0353  2.1037
   12MOL0     H 1619   2.647   8.874  10.393 -2.7759  1.0639 -0.2258
   12MOL0     H 1620   2.823   8.694  10.724  0.9943 -1.7221  1.0258
   12MOL0     H 1621   2.902   8.587  10.625 -2.1091 -0.0310 -0.5858
   12MOL0     H 1622   2.970   8.873  10.701 -1.2199 -2.3381  1.0917
   12MOL0     H 1623   3.072   8.740  10.735  3.5718  3.4596 -1.2537
   12MOL0     H 1624   3.157   8.893  10.539  1.2884  0.1686  0.9054
   12MOL0     H 1625   3.010   8.839  10.443 -1.1090 -1.1426  1.1229
   12MOL0     H 1626   3.074   8.612  10.464 -1.7375  1.2402 -0.1461
   12MOL0     H 1627   3.218   8.646  10.553 -1.2943  0.0907  0.8313
   12MOL0     H 1628   3.157   8.750  10.268  0.1072 -0.9865 -0.4568
   12MOL0     H 1629   3.312   8.751  10.358  0.9175  0.9226 -3.3303
   12MOL0     H 1630   3.265   8.502  10.389 -3.4865  0.6029  1.5972
   12MOL0     H 1631   3.351   8.577  10.254 -0.0341  0.4252 -1.6628
   12MOL0     H 1632   3.210   8.402  10.163 -0.6730 -0.4211  1.7422
   12MOL0     H 1633   3.156   8.556  10.107  0.7519 -0.4953 -0.8255
   12MOL0     H 1634   2.963   8.410  10.183 -0.5739 -3.2913  1.1931
   12MOL0     H 1635   2.974   8.527  10.303  0.7941  1.2141 -1.6661
   12MOL0     H 1636   2.709   8.495  10.570 -0.6626 -2.4524 -2.9979
   12MOL0     H 1637   2.491   8.416  10.476  0.4724  0.4973  0.4230
   12MOL0     H 1638   2.046   8.596  10.385 -2.5672  0.4510  0.5461
   12MOL0     H 1639   1.834   8.507  10.344  0.4177 -2.9021  0.1936
   12MOL0     H 1640   0.709   7.759  10.966  0.9699  0.5421 -4.9274
   12MOL0     H 1641   0.644   7.989  10.913  1.0454 -1.7155 -2.7584
   12MOL0     H 1642   0.733   8.332  10.576  1.5445 -0.3571 -2.1926
   12MOL0     H 1643   0.759   8.562  10.493  2.0086  2.4274  0.5591
   12MOL0     H 1644   0.881   8.718  10.440 -2.0600 -1.1325 -0.3197
   12MOL0     H 1645   0.757   8.841  10.500  1.4468  1.0030 -1.2337
   12MOL0     H 1646   1.055   8.844  10.424  0.8389  0.4165  1.6370
   12MOL0     H 1647   0.982   8.974  10.525 -3.7598  0.9165  0.7635
   12MOL0     H 1648   1.001   8.982  10.251 -0.1717  2.6590  1.0268
   12MOL0     H 1649   0.850   8.886  10.258 -2.1396  2.7202 -1.4564
   12MOL0     H 1650   0.865   9.133  10.423 -2.0469  0.4164  0.4802
   12MOL0     H 1651   0.725   9.042  10.384  0.2253 -2.8213  1.0917
   12MOL0     H 1652   0.796   9.237  10.012 -1.2294  0.9867  0.7668
   12MOL0     H 1653   0.931   8.685  10.863  0.9902 -0.3789  0.3088
   12MOL0     H 1654   1.009   8.346  10.982  3.4221  1.3196  1.5850
   12MOL0     H 1655   1.028   8.507  11.018  0.2331 -0.5163  1.5814
   12MOL0     H 1656   0.868   8.430  11.056 -0.4915  0.3003 -1.1321
   13MOL0     O 1657   2.575   0.643   3.176  0.5423 -0.5971 -0.0605
   13MOL0     C 1658   2.495   0.579   3.112  0.3116  0.2345  0.4288
   13MOL0     O 1659   2.468   0.453   3.135 -0.3749  0.6973 -0.5476
   13MOL0     C 1660   2.478   0.407   3.264 -0.2782  0.2619  0.3365
   13MOL0     C 1661   2.396   0.453   3.369  0.2141  0.3522  0.0717
   13MOL0     C 1662   2.406   0.414   3.501 -0.4967  0.7224 -0.3758
   13MOL0     C 1663   2.526   0.344   3.537  0.6726 -1.1636  0.0746
   13MOL0     O 1664   2.540   0.319   3.672  0.1574 -0.4105  0.0392
   13MOL0     C 1665   2.669   0.268   3.715  0.0115  1.3727 -0.0972
   13MOL0     C 1666   2.667   0.254   3.869 -1.1103  0.0018  0.2511
   13MOL0     C 1667   2.816   0.219   3.924 -0.6697  0.5100  0.8644
   13MOL0     C 1668   2.841   0.070   3.906 -0.4883  0.7691 -0.8290
   13MOL0     C 1669   2.974   0.021   3.975  0.5137  0.2442 -0.4227
   13MOL0     C 1670   2.967  -0.135   3.990 -0.0915  0.6318  0.3896
   13MOL0     C 1671   3.109  -0.199   4.004 -0.1263 -0.4365  0.7316
   13MOL0     C 1672   3.112  -0.334   3.948  0.9253  0.7412 -0.5605
   13MOL0     N 1673   3.020  -0.423   4.024 -0.2454 -0.2983  0.1755
   13MOL0     C 1674   3.068  -0.487   4.139  0.0195  0.1742 -0.9594
   13MOL0     C 1675   2.972  -0.579   4.157 -0.5755 -0.2442  0.0144
   13MOL0     C 1676   2.981  -0.688   4.258  0.1039 -0.1785 -0.1732
   13MOL0     C 1677   3.080  -0.802   4.217  0.1385  0.8032 -0.2004
   13MOL0     C 1678   3.202  -0.797   4.312 -0.2754  0.0459  0.1919
   13MOL0     C 1679   3.165  -0.883   4.443 -0.4604 -0.0023  1.1168
   13MOL0     O 1680   3.112  -0.795   4.550  0.5628 -0.2488  0.2933
   13MOL0     C 1681   3.110  -0.843   4.681 -1.1636  0.2141  1.0788
   13MOL0     C 1682   3.091  -0.979   4.704 -0.4474  0.4919  1.2765
   13MOL0     C 1683   3.063  -1.029   4.831 -0.3181  1.0027  0.1050
   13MOL0     C 1684   3.016  -1.169   4.855  1.3996 -0.6283 -0.2084
   13MOL0     C 1685   3.068  -0.929   4.940  0.3253 -0.1801  0.3198
   13MOL0     C 1686   3.036  -0.971   5.080  0.2220 -0.3857  0.8575
   13MOL0     O 1687   3.123  -1.067   5.134 -0.2001  0.6076 -0.1983
   13MOL0     C 1688   3.127  -1.109   5.262 -0.9083  0.4628  0.3007
   13MOL0     C 1689   3.236  -1.197   5.299  0.2224 -0.4165 -0.5631
   13MOL0     C 1690   3.248  -1.248   5.424 -0.7052  0.2303  1.0669
   13MOL0     C 1691   3.164  -1.208   5.525 -1.3392  0.0665  0.6351
   13MOL0     O 1692   3.192  -1.271   5.647 -0.4255  0.0303 -0.3374
   13MOL0     C 1693   3.078  -1.291   5.737 -0.3355  0.3207  0.3950
   13MOL0     C 1694   2.961  -1.375   5.675 -0.7774  0.4545 -0.1566
   13MOL0     C 1695   2.871  -1.423   5.795 -0.6462 -0.9010 -0.2602
   13MOL0     C 1696   2.786  -1.305   5.840 -0.3907  0.7435  0.6180
   13MOL0     C 1697   2.669  -1.339   5.929  0.7736  0.4317  0.1836
   13MOL0     C 1698   2.559  -1.414   5.860  0.0803  0.8771  0.0936
   13MOL0     C 1699   2.422  -1.407   5.933  0.6138  1.0578 -0.5237
   13MOL0     C 1700   2.429  -1.416   6.090  0.4002  0.3723  1.0923
   13MOL0    Cl 1701   2.532  -1.543   6.165 -0.1355  0.1058 -0.0159
   13MOL0     C 1702   3.063  -1.115   5.500 -0.3330 -0.6002  0.1339
   13MOL0     C 1703   3.047  -1.064   5.368 -0.1658  0.1866 -0.4826
   13MOL0     O 1704   2.962  -0.902   5.145  0.1191  0.2222  0.1139
   13MOL0     C 1705   3.088  -0.792   4.918  0.0948 -0.0831 -0.1579
   13MOL0     C 1706   3.117  -0.751   4.784 -0.7813 -0.7052 -0.5937
   13MOL0     N 1707   2.869  -0.556   4.071  0.3064 -0.0163 -0.0525
   13MOL0     N 1708   2.895  -0.460   3.986 -0.1140 -0.3504  0.8489
   13MOL0     C 1709   2.612   0.296   3.432  0.6831  0.4706 -0.0638
   13MOL0     C 1710   2.585   0.331   3.299 -0.3342 -0.8909 -0.0233
   13MOL0     C 1711   2.443   0.638   2.979  0.8586  1.1488 -1.1172
   13MOL0     C 1712   2.311   0.598   2.942 -0.5173 -0.0563  0.0038
   13MOL0     C 1713   2.251   0.634   2.818  0.5949 -0.0868  0.0578
   13MOL0     C 1714   2.315   0.728   2.727 -0.4075  0.0717 -0.9224
   13MOL0     O 1715   2.268   0.797   2.621  0.6280 -0.0614 -0.1035
   13MOL0     C 1716   2.138   0.748   2.574  0.0436  0.5728 -0.0161
   13MOL0     C 1717   2.070   0.829   2.459 -0.0759  0.0911 -0.4238
   13MOL0     C 1718   1.922   0.804   2.439  0.5404  0.4611 -0.4317
   13MOL0     C 1719   1.862   0.844   2.304  0.0225  0.1425 -0.1683
   13MOL0     C 1720   1.913   0.757   2.193  0.1875  0.0652  0.0797
   13MOL0     C 1721   1.968   0.684   2.110 -0.2567  0.3347  0.2143
   13MOL0     C 1722   2.455   0.747   2.769  0.6408 -0.7006 -0.5790
   13MOL0     C 1723   2.518   0.699   2.886 -0.7126 -0.0455  0.4452
   13MOL0     C 1724   2.670   0.727   2.904 -0.8886  0.1360  0.7191
   13MOL0     H 1725   2.319   0.524   3.340  1.8988  1.7581 -1.1153
   13MOL0     H 1726   2.338   0.444   3.581 -2.8284  0.2901 -2.1042
   13MOL0     H 1727   2.743   0.343   3.690  2.1206  0.2029  2.1688
   13MOL0     H 1728   2.689   0.169   3.672  0.1277  0.1131  2.6278
   13MOL0     H 1729   2.636   0.349   3.916 -0.4299  0.1946  0.3253
   13MOL0     H 1730   2.600   0.172   3.895 -1.2566 -0.3985 -1.3359
   13MOL0     H 1731   2.882   0.287   3.870 -1.3990 -1.1497 -2.3147
   13MOL0     H 1732   2.837   0.235   4.030 -1.7116  1.9876  0.8818
   13MOL0     H 1733   2.760   0.024   3.964  0.1194  1.6419  0.7997
   13MOL0     H 1734   2.835   0.036   3.802  1.2729 -0.4575 -0.5632
   13MOL0     H 1735   2.977   0.060   4.077 -3.2865  0.4160 -0.2310
   13MOL0     H 1736   3.060   0.064   3.923 -1.3232  3.3945 -1.0900
   13MOL0     H 1737   2.905  -0.161   4.075  2.2397 -0.4384  1.8509
   13MOL0     H 1738   2.920  -0.181   3.902 -2.2630 -1.0256  2.3069
   13MOL0     H 1739   3.131  -0.199   4.112  1.1384 -0.8935  0.4946
   13MOL0     H 1740   3.183  -0.144   3.945 -0.2757 -0.5157  0.4711
   13MOL0     H 1741   3.078  -0.335   3.844  0.2610 -3.9493 -0.5047
   13MOL0     H 1742   3.214  -0.371   3.965  0.6232  1.6807  4.7267
   13MOL0     H 1743   3.161  -0.478   4.195 -0.6754 -0.5218  0.3633
   13MOL0     H 1744   2.881  -0.731   4.270  0.7554 -1.7469 -0.1967
   13MOL0     H 1745   3.007  -0.638   4.352 -0.3091  1.9266 -1.1134
   13MOL0     H 1746   3.032  -0.899   4.234  0.8720  0.4783  0.0900
   13MOL0     H 1747   3.116  -0.792   4.115 -0.3487  2.9890 -0.2032
   13MOL0     H 1748   3.288  -0.845   4.266 -0.9555 -2.5055  1.3779
   13MOL0     H 1749   3.240  -0.697   4.333 -2.3768  0.8653  0.3919
   13MOL0     H 1750   3.101  -0.969   4.422 -1.6211  0.9117  0.7832
   13MOL0     H 1751   3.255  -0.930   4.482 -0.1291 -0.1970  0.1482
   13MOL0     H 1752   3.081  -1.044   4.618 -1.1037 -2.3760  3.3797
   13MOL0     H 1753   2.909  -1.161   4.877  1.4555  4.2808 -0.4507
   13MOL0     H 1754   3.070  -1.203   4.943 -1.1375  0.9747  2.1411
   13MOL0     H 1755   3.027  -1.238   4.770  1.7458 -0.8801  0.0420
   13MOL0     H 1756   3.305  -1.234   5.224 -1.1200 -1.0373 -1.5308
   13MOL0     H 1757   3.335  -1.310   5.443  2.4288  3.7198 -0.7224
   13MOL0     H 1758   3.116  -1.353   5.819  0.1430  0.9742  0.6709
   13MOL0     H 1759   3.035  -1.199   5.778 -0.5343  1.0024 -1.2626
   13MOL0     H 1760   2.902  -1.324   5.598 -3.3078  0.0908  1.4452
   13MOL0     H 1761   3.004  -1.461   5.624  1.7701  2.5704 -1.8508
   13MOL0     H 1762   2.930  -1.456   5.881  2.1251  1.9537 -0.8661
   13MOL0     H 1763   2.818  -1.513   5.762 -1.6533 -0.3243 -0.2537
   13MOL0     H 1764   2.757  -1.243   5.754 -2.1712  0.5877  1.0641
   13MOL0     H 1765   2.842  -1.237   5.904 -1.9562  2.6851  0.0149
   13MOL0     H 1766   2.704  -1.381   6.023  0.0245 -0.9497 -0.1286
   13MOL0     H 1767   2.619  -1.245   5.954  0.7230  0.0806  1.4613
   13MOL0     H 1768   2.577  -1.521   5.848  0.8168  1.3408 -6.0137
   13MOL0     H 1769   2.546  -1.373   5.759 -0.1804 -1.4433 -0.8730
   13MOL0     H 1770   2.351  -1.482   5.898 -0.9924  2.0780  0.3999
   13MOL0     H 1771   2.365  -1.314   5.920 -4.4683 -1.5639  0.6440
   13MOL0     H 1772   2.322  -1.423   6.114  0.1385 -0.4708 -0.1877
   13MOL0     H 1773   2.461  -1.328   6.146 -2.1070  1.4410  0.9705
   13MOL0     H 1774   2.985  -1.078   5.566 -2.3317 -0.9041 -1.9475
   13MOL0     H 1775   2.979  -0.980   5.362  0.4647  0.6966 -0.6540
   13MOL0     H 1776   3.094  -0.728   5.005 -1.0597  1.3795 -1.1023
   13MOL0     H 1777   3.136  -0.644   4.776 -1.2456 -0.6866 -1.8074
   13MOL0     H 1778   2.703   0.244   3.459 -1.3636 -3.4538  0.0853
   13MOL0     H 1779   2.646   0.293   3.218 -3.8070 -2.6082 -2.0642
   13MOL0     H 1780   2.260   0.540   3.019 -2.2851  0.1390 -0.9625
   13MOL0     H 1781   2.156   0.598   2.779 -0.5557  1.0474  1.6563
   13MOL0     H 1782   2.152   0.646   2.537 -2.4186  1.2113 -3.1774
   13MOL0     H 1783   2.073   0.748   2.662 -2.3550 -0.1885 -1.6718
   13MOL0     H 1784   2.133   0.818   2.370 -0.4272  0.2511 -0.6930
   13MOL0     H 1785   2.074   0.938   2.473 -0.5777  0.3276 -1.9213
   13MOL0     H 1786   1.902   0.696   2.447  2.0689  0.0839 -1.3291
   13MOL0     H 1787   1.868   0.861   2.515 -3.1516  2.1412 -3.9307
   13MOL0     H 1788   1.885   0.949   2.282  2.8090 -0.4826 -0.7441
   13MOL0     H 1789   1.755   0.825   2.318  0.0593  0.5668  0.7677
   13MOL0     H 1790   2.007   0.645   2.019  0.7523 -0.5866  1.0239
   13MOL0     H 1791   2.508   0.804   2.693  0.5544 -1.4460 -1.2136
   13MOL0     H 1792   2.721   0.631   2.915  0.1630  0.3373 -1.7691
   13MOL0     H 1793   2.720   0.771   2.817 -3.4796  0.5281 -0.6969
   13MOL0     H 1794   2.692   0.795   2.986 -0.0467 -0.4991  1.0269
   14MOL0     O 1795   4.382   4.576   6.040 -0.5462 -0.2477 -0.1549
   14MOL0     C 1796   4.357   4.690   6.077 -0.4417  0.0322 -0.6197
   14MOL0     O 1797   4.425   4.801   6.035  0.2705  0.2103  0.2924
   14MOL0     C 1798   4.546   4.792   5.965  0.4666  1.0840  0.1679
   14MOL0     C 1799   4.647   4.887   5.985  0.7992  0.3340 -0.0075
   14MOL0     C 1800   4.762   4.897   5.902  0.0840  0.9440  0.6602
   14MOL0     C 1801   4.800   4.790   5.824 -0.0396  0.5768 -0.4547
   14MOL0     O 1802   4.930   4.791   5.774 -0.4970 -0.0730  0.4493
   14MOL0     C 1803   4.970   4.674   5.706 -1.1151  0.7710 -0.1681
   14MOL0     C 1804   5.012   4.570   5.802 -0.4807 -0.0755  0.2158
   14MOL0     C 1805   5.146   4.597   5.867  0.3135 -0.0762 -0.0249
   14MOL0     C 1806   5.180   4.478   5.958 -0.4392  0.1161  1.0009
   14MOL0     C 1807   5.233   4.360   5.881  0.1631  0.1851 -0.6350
   14MOL0     C 1808   5.270   4.251   5.974 -0.7034 -0.8431  0.0165
   14MOL0     C 1809   5.331   4.135   5.896 -0.6777  0.1908  0.3595
   14MOL0     C 1810   5.324   3.996   5.966 -0.5544 -0.6924  1.2962
   14MOL0     N 1811   5.401   3.896   5.886  0.1138 -0.0166  0.2423
   14MOL0     C 1812   5.347   3.802   5.810  0.3782 -0.2982  0.6181
   14MOL0     C 1813   5.457   3.750   5.746 -1.4354  0.2573 -0.0063
   14MOL0     C 1814   5.453   3.641   5.641  0.8348  0.0812  1.3095
   14MOL0     C 1815   5.381   3.682   5.512  0.3300 -0.5881  0.7187
   14MOL0     C 1816   5.432   3.821   5.464 -0.9862  0.2209 -0.5894
   14MOL0     C 1817   5.589   3.848   5.471  0.3304  0.7619  0.6282
   14MOL0     O 1818   5.619   3.967   5.399 -0.4826  0.2476 -0.4781
   14MOL0     C 1819   5.637   4.092   5.461  0.0426 -1.3090 -0.4663
   14MOL0     C 1820   5.757   4.161   5.431 -0.3596 -0.2755 -0.4762
   14MOL0     C 1821   5.786   4.290   5.485  0.5432  0.3301 -0.5200
   14MOL0     C 1822   5.916   4.353   5.439 -1.4611 -0.2807 -0.5830
   14MOL0     C 1823   5.707   4.342   5.590  0.4356  0.7197 -0.3234
   14MOL0     C 1824   5.738   4.466   5.649  0.0235 -0.6323 -0.8178
   14MOL0     O 1825   5.870   4.483   5.682 -0.4547  0.8266  0.5917
   14MOL0     C 1826   5.926   4.604   5.708 -0.5213  0.3049 -0.8306
   14MOL0     C 1827   5.876   4.736   5.665 -0.8266 -0.2127  0.0509
   14MOL0     C 1828   5.943   4.850   5.697  0.5345 -1.1636  0.0784
   14MOL0     C 1829   6.054   4.847   5.781  0.0775 -0.5732 -0.1859
   14MOL0     O 1830   6.117   4.967   5.813  1.1219  0.6407 -0.0494
   14MOL0     C 1831   6.263   4.966   5.810  0.3394 -0.9808 -0.5568
   14MOL0     C 1832   6.305   5.102   5.878  0.2164 -0.9805  0.4425
   14MOL0     C 1833   6.297   5.210   5.774 -0.5986 -0.9758  0.1963
   14MOL0     C 1834   6.412   5.262   5.680  0.9135 -0.5016  0.2907
   14MOL0     C 1835   6.377   5.397   5.618 -0.2165 -0.0158 -0.1125
   14MOL0     C 1836   6.332   5.383   5.480 -0.0950 -0.3470  0.4381
   14MOL0     C 1837   6.190   5.314   5.452 -0.4898  0.2424  0.1582
   14MOL0     C 1838   6.082   5.374   5.530  0.3307 -0.3528  0.4388
   14MOL0    Cl 1839   6.048   5.536   5.456  0.0207  0.5817 -0.0868
   14MOL0     C 1840   6.099   4.722   5.831  0.0102  0.9197  0.4695
   14MOL0     C 1841   6.039   4.602   5.791  0.3923  0.5739 -0.5176
   14MOL0     O 1842   5.653   4.553   5.663  0.3997 -1.2193 -0.4230
   14MOL0     C 1843   5.585   4.273   5.618  0.1368  0.0354 -0.3901
   14MOL0     C 1844   5.548   4.153   5.556 -0.4180 -0.2751  0.9537
   14MOL0     N 1845   5.571   3.801   5.808 -0.6821 -0.0917 -0.0810
   14MOL0     N 1846   5.541   3.902   5.887 -0.3050  0.1842 -0.0221
   14MOL0     C 1847   4.713   4.682   5.817 -0.0586  1.0302  0.3453
   14MOL0     C 1848   4.590   4.685   5.880 -0.3701  0.2800  0.6515
   14MOL0     C 1849   4.233   4.708   6.153  0.5597  0.8344 -0.8610
   14MOL0     C 1850   4.194   4.840   6.180  0.2520  0.2469  0.4284
   14MOL0     C 1851   4.068   4.871   6.244 -0.5315 -0.6104  0.3746
   14MOL0     C 1852   3.974   4.772   6.275  0.0696  0.2276  0.1437
   14MOL0     O 1853   3.841   4.790   6.309  0.6491 -1.2061  0.1041
   14MOL0     C 1854   3.784   4.931   6.303 -0.2695  1.3957 -0.3053
   14MOL0     C 1855   3.638   4.936   6.346  1.1483 -0.1200 -0.2252
   14MOL0     C 1856   3.533   4.887   6.242 -0.5442 -0.0747  0.9912
   14MOL0     C 1857   3.524   5.006   6.132 -0.2098  0.6544 -0.5231
   14MOL0     C 1858   3.411   4.986   6.039  0.7453 -0.1951 -0.3739
   14MOL0     C 1859   3.262   4.980   5.905  0.5522 -0.3573 -0.0948
   14MOL0     C 1860   4.022   4.648   6.253  0.0417  0.5840 -0.1167
   14MOL0     C 1861   4.147   4.606   6.203 -0.2216  0.2724  1.1629
   14MOL0     C 1862   4.177   4.461   6.205  0.1327  0.7555  0.0341
   14MOL0     H 1863   4.619   4.963   6.058 -1.7778 -0.5574  0.0557
   14MOL0     H 1864   4.832   4.979   5.911 -0.0276  1.2887 -1.2999
   14MOL0     H 1865   5.061   4.698   5.651  0.2980 -0.2846  1.6047
   14MOL0     H 1866   4.895   4.643   5.632 -0.0033 -1.1412 -0.5701
   14MOL0     H 1867   4.941   4.562   5.885 -1.0384  1.1016 -0.1147
   14MOL0     H 1868   5.034   4.476   5.750  1.5529 -0.3058  1.4033
   14MOL0     H 1869   5.221   4.610   5.788 -0.1070  0.7520 -0.3069
   14MOL0     H 1870   5.148   4.690   5.925  3.3319  0.2105 -0.4628
   14MOL0     H 1871   5.256   4.508   6.031  0.3621  1.0163 -0.1753
   14MOL0     H 1872   5.084   4.453   6.005  0.3097  0.1545  2.6022
   14MOL0     H 1873   5.326   4.396   5.835  1.4490  1.2411  2.5490
   14MOL0     H 1874   5.164   4.318   5.807  1.6698 -1.8744 -0.9669
   14MOL0     H 1875   5.339   4.283   6.053 -0.1958  0.3251 -0.8712
   14MOL0     H 1876   5.176   4.220   6.020 -1.5231  0.9068 -0.4027
   14MOL0     H 1877   5.434   4.155   5.866 -1.4263  1.3872 -1.6397
   14MOL0     H 1878   5.280   4.126   5.800 -0.1551 -2.2930  0.2498
   14MOL0     H 1879   5.363   4.026   6.063  2.0799 -0.7989  0.3384
   14MOL0     H 1880   5.220   3.963   5.974 -1.6155  1.2646 -2.0463
   14MOL0     H 1881   5.243   3.780   5.788  0.3376 -0.6073  1.1160
   14MOL0     H 1882   5.388   3.558   5.671  0.4923 -1.7242 -3.5537
   14MOL0     H 1883   5.554   3.604   5.617  0.7339  0.0260  0.9607
   14MOL0     H 1884   5.413   3.612   5.434 -0.6085  1.0899 -1.2487
   14MOL0     H 1885   5.273   3.669   5.523  0.5795 -3.1983  0.8881
   14MOL0     H 1886   5.404   3.833   5.359  1.4084 -4.3170 -1.9808
   14MOL0     H 1887   5.379   3.894   5.527 -2.5331 -0.0441 -1.5220
   14MOL0     H 1888   5.642   3.848   5.566  1.4631 -2.2832  0.1212
   14MOL0     H 1889   5.629   3.766   5.409 -3.3076 -0.4901 -0.3470
   14MOL0     H 1890   5.828   4.118   5.361 -2.1261 -1.5292 -1.5571
   14MOL0     H 1891   5.948   4.306   5.346  1.6338 -2.4403  1.3796
   14MOL0     H 1892   5.999   4.349   5.510 -0.3984 -2.4089 -1.8344
   14MOL0     H 1893   5.906   4.458   5.411  0.1196  0.0815  0.0970
   14MOL0     H 1894   5.793   4.749   5.597 -1.2100 -0.1680  0.5208
   14MOL0     H 1895   5.900   4.947   5.672 -1.3681 -1.6527  1.2467
   14MOL0     H 1896   6.294   4.897   5.889 -1.9313 -0.5776  0.7905
   14MOL0     H 1897   6.304   4.962   5.709 -3.2143  0.0176 -2.1920
   14MOL0     H 1898   6.260   5.139   5.971  1.2113  1.0976  0.1411
   14MOL0     H 1899   6.409   5.092   5.910  0.1087 -0.4835  0.9831
   14MOL0     H 1900   6.263   5.299   5.828  0.0083  0.0554 -1.0653
   14MOL0     H 1901   6.219   5.193   5.699 -0.7430  0.0553  0.1012
   14MOL0     H 1902   6.431   5.194   5.596  1.8752  1.6813 -1.3644
   14MOL0     H 1903   6.495   5.268   5.751  1.1837 -0.0581 -0.0647
   14MOL0     H 1904   6.300   5.452   5.671 -1.2893 -1.5619 -0.0116
   14MOL0     H 1905   6.468   5.457   5.629 -0.7763  0.6705  0.8517
   14MOL0     H 1906   6.413   5.329   5.432  0.0234  1.2918 -1.3530
   14MOL0     H 1907   6.324   5.482   5.434 -3.0694  0.4828  2.3990
   14MOL0     H 1908   6.207   5.207   5.466  2.8395  0.0107 -3.7111
   14MOL0     H 1909   6.166   5.312   5.345  1.2180 -2.2977 -0.2713
   14MOL0     H 1910   6.099   5.385   5.638  0.5792  0.4186  0.3302
   14MOL0     H 1911   5.996   5.308   5.520 -0.2276  0.2428  1.1421
   14MOL0     H 1912   6.183   4.692   5.892 -0.7381 -1.0932  0.6075
   14MOL0     H 1913   6.080   4.507   5.823  2.4397  1.8141  0.8322
   14MOL0     H 1914   5.516   4.311   5.692 -2.5854 -3.2172 -1.0215
   14MOL0     H 1915   5.459   4.091   5.564  0.3521 -1.6811 -0.7433
   14MOL0     H 1916   4.727   4.595   5.754 -0.8121  2.3453 -1.7515
   14MOL0     H 1917   4.527   4.598   5.863  1.8231 -1.2068 -0.1931
   14MOL0     H 1918   4.243   4.928   6.140 -0.2921 -0.4166 -1.8248
   14MOL0     H 1919   4.042   4.977   6.241  0.7536 -0.2848 -0.8044
   14MOL0     H 1920   3.837   4.994   6.375  1.2584  0.5516 -0.6357
   14MOL0     H 1921   3.794   4.963   6.199  1.1698 -1.0369 -1.0066
   14MOL0     H 1922   3.604   5.036   6.375 -0.7978 -0.5301 -0.8776
   14MOL0     H 1923   3.626   4.877   6.437  0.6069  0.6733  0.2245
   14MOL0     H 1924   3.571   4.804   6.182 -3.8822  1.1255 -3.2498
   14MOL0     H 1925   3.435   4.866   6.285  0.0514 -1.7320  1.6158
   14MOL0     H 1926   3.614   4.992   6.072 -0.6563  0.8947 -1.2548
   14MOL0     H 1927   3.515   5.109   6.169 -2.7183 -0.6578  3.1610
   14MOL0     H 1928   3.206   4.979   5.814 -0.2273  0.3192  0.3659
   14MOL0     H 1929   3.945   4.575   6.276  1.0989 -0.8276 -0.8702
   14MOL0     H 1930   4.273   4.440   6.253 -0.5118 -1.6697  0.4409
   14MOL0     H 1931   4.096   4.420   6.267  1.8071  1.9507  3.2190
   14MOL0     H 1932   4.187   4.419   6.104  1.5630 -1.1751  0.9139
   15MOL0     O 1933  11.057   9.204   3.556 -0.6801 -0.2286 -0.5583
   15MOL0     C 1934  11.003   9.247   3.455  0.5392 -0.1831  0.0499
   15MOL0     O 1935  10.975   9.378   3.436  0.1585 -0.2757 -0.5140
   15MOL0     C 1936  11.008   9.466   3.541 -0.6969 -1.3706  0.5747
   15MOL0     C 1937  10.906   9.549   3.585 -0.3279 -0.0164 -0.9029
   15MOL0     C 1938  10.918   9.649   3.686 -0.1776  0.3881 -0.4615
   15MOL0     C 1939  11.035   9.667   3.747 -0.7475  0.5765  0.1448
   15MOL0     O 1940  11.037   9.758   3.852 -0.5813 -0.3780  0.1168
   15MOL0     C 1941  11.161   9.779   3.922 -0.5252 -0.0601  0.6682
   15MOL0     C 1942  11.132   9.890   4.019 -0.4260 -0.6719  0.5554
   15MOL0     C 1943  11.256   9.937   4.089 -0.1764  0.2302 -1.0147
   15MOL0     C 1944  11.244  10.080   4.136  0.7418 -0.1175 -0.0313
   15MOL0     C 1945  11.352  10.119   4.245  0.3145 -0.4220 -0.2920
   15MOL0     C 1946  11.492  10.116   4.195 -1.0897 -0.6142  0.1229
   15MOL0     C 1947  11.531  10.231   4.097  0.4027 -0.6039  0.1526
   15MOL0     C 1948  11.674  10.254   4.060  0.3446 -0.5806 -0.7692
   15MOL0     N 1949  11.733  10.287   4.190 -0.2612 -1.0167 -0.4402
   15MOL0     C 1950  11.802  10.203   4.277 -0.4264 -0.0073 -0.3358
   15MOL0     C 1951  11.806  10.274   4.388 -0.5089 -0.1888 -1.2729
   15MOL0     C 1952  11.859  10.219   4.521 -0.1573 -0.1492 -0.3358
   15MOL0     C 1953  11.740  10.190   4.620 -0.7607 -0.0603 -0.4280
   15MOL0     C 1954  11.772  10.238   4.763 -0.1612 -0.4269 -0.3908
   15MOL0     C 1955  11.687  10.184   4.870  1.4790 -0.4205 -1.1140
   15MOL0     O 1956  11.567  10.260   4.849 -0.3385 -0.3867  0.3784
   15MOL0     C 1957  11.468  10.239   4.939 -0.7016  0.0889  0.2083
   15MOL0     C 1958  11.348  10.314   4.915  0.1021  0.4256 -0.8851
   15MOL0     C 1959  11.228  10.287   4.999  0.3439 -0.2841  0.4571
   15MOL0     C 1960  11.098  10.362   4.971  0.0301 -0.2379 -0.1226
   15MOL0     C 1961  11.236  10.184   5.102 -0.9374 -0.3369 -0.3311
   15MOL0     C 1962  11.122  10.138   5.184  0.7304 -1.0405 -0.0790
   15MOL0     O 1963  11.137  10.035   5.263  0.2318  0.4680 -0.4058
   15MOL0     C 1964  11.123  10.052   5.394 -0.4757 -0.3754 -0.0375
   15MOL0     C 1965  11.153   9.937   5.477  0.2055 -0.1269  0.1977
   15MOL0     C 1966  11.144   9.941   5.621  0.4729 -0.5049  0.7740
   15MOL0     C 1967  11.084  10.046   5.685  0.8808 -0.7547  0.0624
   15MOL0     O 1968  11.069  10.039   5.822 -0.4728  0.7915 -0.8215
   15MOL0     C 1969  11.106  10.158   5.894  0.1046  0.2492  0.7725
   15MOL0     C 1970  11.193  10.105   6.014  0.4467  0.0138 -0.5039
   15MOL0     C 1971  11.228  10.227   6.097  0.4139 -0.2645  0.0521
   15MOL0     C 1972  11.117  10.321   6.146  0.2741 -0.8227 -0.3280
   15MOL0     C 1973  11.035  10.243   6.253  0.1659  0.3877 -0.3918
   15MOL0     C 1974  10.883  10.246   6.226  0.4086 -0.1691 -0.2882
   15MOL0     C 1975  10.796  10.160   6.313  1.0467 -0.3705  0.6743
   15MOL0     C 1976  10.657  10.216   6.321 -0.2770 -1.2176 -0.1609
   15MOL0    Cl 1977  10.537  10.077   6.358 -0.1045 -0.2549 -0.0535
   15MOL0     C 1978  11.037  10.154   5.601 -0.1604  1.0315  0.5490
   15MOL0     C 1979  11.059  10.155   5.467  1.0117  0.4002 -0.3700
   15MOL0     O 1980  11.010  10.184   5.171  0.5127  0.0773  0.6574
   15MOL0     C 1981  11.360  10.124   5.132  0.3054 -0.0247  0.3871
   15MOL0     C 1982  11.469  10.148   5.043 -0.4555 -0.1979  0.0426
   15MOL0     N 1983  11.767  10.408   4.371  0.8652  0.4142 -0.6395
   15MOL0     N 1984  11.726  10.414   4.245  0.3782 -0.0160  0.4026
   15MOL0     C 1985  11.147   9.594   3.697  0.1246 -0.0057 -0.6570
   15MOL0     C 1986  11.129   9.494   3.595  0.0575 -0.0459 -0.5383
   15MOL0     C 1987  10.949   9.154   3.356  0.6514  0.8451 -0.4364
   15MOL0     C 1988  10.986   9.022   3.366  1.0836 -0.2413 -0.5796
   15MOL0     C 1989  10.956   8.920   3.271 -0.3688  0.9246 -0.4124
   15MOL0     C 1990  10.875   8.942   3.163  0.4150 -0.4043  0.6809
   15MOL0     O 1991  10.842   8.845   3.064  0.2438  0.4452  0.9382
   15MOL0     C 1992  10.724   8.869   2.983  0.3692 -0.2717 -0.0809
   15MOL0     C 1993  10.654   8.745   2.932  0.3197  0.8498 -1.1343
   15MOL0     C 1994  10.591   8.651   3.045  0.3817 -0.6626 -0.0334
   15MOL0     C 1995  10.530   8.523   2.982 -0.1487 -0.1545  0.4712
   15MOL0     C 1996  10.403   8.493   3.042  0.2772  0.4877 -0.5460
   15MOL0     C 1997  10.305   8.443   3.085  0.9050  0.7804 -0.0090
   15MOL0     C 1998  10.839   9.082   3.144  0.2245 -0.3005 -0.7351
   15MOL0     C 1999  10.881   9.186   3.238 -1.2685  0.3939  0.4171
   15MOL0     C 2000  10.813   9.316   3.209 -0.0422  0.1523 -0.1971
   15MOL0     H 2001  10.808   9.523   3.547 -1.0580 -0.1132  0.9469
   15MOL0     H 2002  10.831   9.704   3.721 -1.8305 -2.2545 -0.1328
   15MOL0     H 2003  11.237   9.815   3.851  0.9589 -2.0159  1.1789
   15MOL0     H 2004  11.206   9.691   3.969 -1.4437 -1.6908 -1.3075
   15MOL0     H 2005  11.091   9.970   3.956 -0.1104 -1.0329 -0.1221
   15MOL0     H 2006  11.046   9.871   4.084 -1.7520  1.5009 -0.4362
   15MOL0     H 2007  11.279   9.879   4.179 -2.7719  2.8100  1.5529
   15MOL0     H 2008  11.341   9.915   4.024 -1.1244 -3.9611 -1.0889
   15MOL0     H 2009  11.256  10.140   4.045  0.0085  0.4251  0.2205
   15MOL0     H 2010  11.146  10.103   4.179  1.3391 -0.9223  1.8752
   15MOL0     H 2011  11.340  10.056   4.334  2.1041  1.9223  1.7365
   15MOL0     H 2012  11.331  10.223   4.273 -0.4115 -1.0909  1.9097
   15MOL0     H 2013  11.552  10.117   4.286  3.6770 -3.8945 -2.5096
   15MOL0     H 2014  11.520  10.023   4.144 -0.2182 -0.1640 -0.2457
   15MOL0     H 2015  11.491  10.318   4.151 -1.2393 -2.2400  1.6870
   15MOL0     H 2016  11.489  10.222   3.996  0.2560  2.1518 -0.1169
   15MOL0     H 2017  11.724  10.168   4.015  1.4994 -1.2900  1.6980
   15MOL0     H 2018  11.677  10.342   3.994  0.7133  4.1782  4.7225
   15MOL0     H 2019  11.828  10.098   4.271  0.2631  0.1669 -0.5335
   15MOL0     H 2020  11.924  10.298   4.561 -0.2636 -1.0019  1.6286
   15MOL0     H 2021  11.913  10.130   4.486  0.8454  0.2511  0.1420
   15MOL0     H 2022  11.648  10.237   4.585 -1.0960 -0.5764 -0.2393
   15MOL0     H 2023  11.723  10.082   4.618 -1.0121 -0.2016  3.0489
   15MOL0     H 2024  11.872  10.203   4.792  0.1347 -0.1828 -1.0854
   15MOL0     H 2025  11.769  10.348   4.763  4.7942 -0.0251 -0.2795
   15MOL0     H 2026  11.664  10.077   4.864  2.7926 -1.0110  2.0853
   15MOL0     H 2027  11.734  10.211   4.965 -1.7481 -1.2565  0.8840
   15MOL0     H 2028  11.353  10.394   4.841  0.0748 -0.1903 -1.5642
   15MOL0     H 2029  11.080  10.434   5.051 -0.6995 -0.7277  0.1614
   15MOL0     H 2030  11.014  10.293   4.957  0.7715 -0.4877 -5.2324
   15MOL0     H 2031  11.094  10.425   4.881  1.4582  0.0276 -0.0242
   15MOL0     H 2032  11.205   9.856   5.426 -0.3047 -1.4307  1.6565
   15MOL0     H 2033  11.190   9.863   5.682  1.4331 -0.2566  0.3963
   15MOL0     H 2034  11.155  10.231   5.828 -1.3311  1.6162  1.1353
   15MOL0     H 2035  11.013  10.210   5.918 -0.5582 -0.8130  0.5592
   15MOL0     H 2036  11.132  10.040   6.077  0.3032  1.6848  1.1524
   15MOL0     H 2037  11.267  10.041   5.965 -1.6257 -0.1394 -3.8329
   15MOL0     H 2038  11.302  10.287   6.044  0.5527  2.3644  2.8842
   15MOL0     H 2039  11.274  10.191   6.190 -4.1440  0.1083  2.7790
   15MOL0     H 2040  11.057  10.356   6.062 -0.8934 -1.8244  0.0505
   15MOL0     H 2041  11.156  10.419   6.174 -0.8946 -0.5922  0.6220
   15MOL0     H 2042  11.051  10.135   6.254  3.0967  0.7083  2.0116
   15MOL0     H 2043  11.054  10.261   6.359 -1.0071 -0.6794  0.0198
   15MOL0     H 2044  10.860  10.226   6.121  1.2933 -1.5272 -0.2339
   15MOL0     H 2045  10.849  10.349   6.242 -0.5626 -0.2929 -1.4062
   15MOL0     H 2046  10.840  10.154   6.413  4.0300  0.1373 -0.4804
   15MOL0     H 2047  10.792  10.063   6.263  1.6609 -0.0289 -0.0607
   15MOL0     H 2048  10.634  10.260   6.224  0.7167  0.6214  0.3967
   15MOL0     H 2049  10.637  10.287   6.402 -0.2186 -1.9444  0.5115
   15MOL0     H 2050  10.997  10.245   5.644 -2.9196 -0.8411  2.2764
   15MOL0     H 2051  11.017  10.246   5.428  0.3418  0.2803  0.0665
   15MOL0     H 2052  11.377  10.049   5.209 -0.7172 -0.5184  0.1387
   15MOL0     H 2053  11.556  10.087   5.064  0.9471  2.4483  2.7406
   15MOL0     H 2054  11.243   9.599   3.747 -0.3862 -0.5601  0.4038
   15MOL0     H 2055  11.209   9.441   3.544 -0.2864 -1.2410  0.1061
   15MOL0     H 2056  11.054   9.011   3.450  1.0018  2.3101 -0.0964
   15MOL0     H 2057  11.004   8.826   3.296 -0.6940  0.0810 -2.7520
   15MOL0     H 2058  10.657   8.914   3.056  2.0467 -2.7545  3.2916
   15MOL0     H 2059  10.748   8.926   2.893  1.4983  0.3545  0.5955
   15MOL0     H 2060  10.722   8.677   2.880 -0.3055  0.2369 -1.1606
   15MOL0     H 2061  10.573   8.785   2.870 -1.4125  0.6933  0.8929
   15MOL0     H 2062  10.660   8.628   3.127  2.0411  2.0880 -0.5539
   15MOL0     H 2063  10.497   8.699   3.074  1.0907  0.2824  0.7873
   15MOL0     H 2064  10.600   8.439   2.985 -0.6072 -0.6269 -0.8670
   15MOL0     H 2065  10.510   8.548   2.877 -0.9173  3.4645  1.3464
   15MOL0     H 2066  10.224   8.391   3.131 -1.1931  5.3338  2.1155
   15MOL0     H 2067  10.786   9.093   3.051  1.5702 -5.0425 -2.3218
   15MOL0     H 2068  10.722   9.293   3.152 -1.7688  0.4451  2.2871
   15MOL0     H 2069  10.776   9.355   3.304  1.6877 -2.3269  1.6425
   15MOL0     H 2070  10.878   9.380   3.149 -2.7873  2.0440 -1.3270
   16MOL0     O 2071   6.493   7.726   0.080 -0.1505 -0.2314 -0.1839
   16MOL0     C 2072   6.482   7.779  -0.028 -0.7131  0.2677  0.1475
   16MOL0     O 2073   6.413   7.723  -0.138 -0.1584  0.4827  0.3660
   16MOL0     C 2074   6.342   7.607  -0.145  0.5820  1.0601 -0.2067
   16MOL0     C 2075   6.244   7.590  -0.250 -0.0679  0.0943 -0.6133
   16MOL0     C 2076   6.174   7.466  -0.254  0.0026 -0.3441 -0.6314
   16MOL0     C 2077   6.182   7.364  -0.155  0.0460  0.5014 -0.4579
   16MOL0     O 2078   6.096   7.258  -0.166 -0.4261 -0.1079  0.4385
   16MOL0     C 2079   6.145   7.126  -0.125  0.1857  0.2359 -0.1365
   16MOL0     C 2080   6.039   7.024  -0.173 -0.3614 -0.1550 -0.5973
   16MOL0     C 2081   6.043   6.983  -0.322  0.8764 -0.2233 -0.0153
   16MOL0     C 2082   5.949   7.073  -0.399  0.0633  1.0244  0.1121
   16MOL0     C 2083   5.960   7.037  -0.551 -0.3367 -0.5999 -0.1716
   16MOL0     C 2084   5.918   7.154  -0.638  1.0375  0.6759 -0.2462
   16MOL0     C 2085   5.925   7.106  -0.788 -0.7511  0.3465 -0.7816
   16MOL0     C 2086   5.797   7.030  -0.829 -0.7196 -0.4434 -0.2438
   16MOL0     N 2087   5.779   7.035  -0.977  0.5563 -0.5307 -0.3118
   16MOL0     C 2088   5.658   7.071  -1.042 -1.0442 -0.5529 -0.3617
   16MOL0     C 2089   5.697   7.061  -1.175 -1.0335 -0.0594 -0.6376
   16MOL0     C 2090   5.606   7.104  -1.290 -0.0792 -0.0117 -0.0004
   16MOL0     C 2091   5.543   6.988  -1.353  0.2431 -0.2293  0.7174
   16MOL0     C 2092   5.434   7.005  -1.460  1.3220 -0.0251  0.5255
   16MOL0     C 2093   5.338   7.122  -1.432  0.3231  0.9371  0.0760
   16MOL0     O 2094   5.272   7.117  -1.299 -0.7068  0.4816  0.5671
   16MOL0     C 2095   5.166   7.027  -1.278  0.3253  0.2856  0.2007
   16MOL0     C 2096   5.132   7.005  -1.143  0.7679  0.0956 -0.2348
   16MOL0     C 2097   5.030   6.909  -1.103  0.4986 -0.4142 -0.3372
   16MOL0     C 2098   5.008   6.884  -0.954  0.4825  0.2666 -0.0140
   16MOL0     C 2099   4.952   6.860  -1.208  0.0590  0.3750 -0.5080
   16MOL0     C 2100   4.825   6.779  -1.184 -0.0263 -0.4434 -0.3558
   16MOL0     O 2101   4.788   6.692  -1.287  0.4935  0.0116 -0.0579
   16MOL0     C 2102   4.656   6.662  -1.302 -0.9467 -0.3763  0.8509
   16MOL0     C 2103   4.618   6.536  -1.269  0.8134  0.3466 -0.4750
   16MOL0     C 2104   4.480   6.497  -1.270 -0.1082 -0.4035 -0.5674
   16MOL0     C 2105   4.377   6.586  -1.298 -0.0266  0.0358  0.1160
   16MOL0     O 2106   4.248   6.544  -1.311 -0.0696  0.6711 -1.1776
   16MOL0     C 2107   4.159   6.603  -1.401 -0.8353 -0.3788  0.6141
   16MOL0     C 2108   4.016   6.542  -1.395  0.3060 -0.0366 -0.1704
   16MOL0     C 2109   3.934   6.616  -1.286  0.0657 -0.1086 -0.5175
   16MOL0     C 2110   3.794   6.580  -1.318 -0.0362 -0.0410  0.5466
   16MOL0     C 2111   3.679   6.638  -1.250  0.1898 -0.0573 -0.3713
   16MOL0     C 2112   3.544   6.560  -1.256 -0.6526  0.6756 -0.4703
   16MOL0     C 2113   3.427   6.639  -1.200 -0.7326 -0.1247 -0.4865
   16MOL0     C 2114   3.432   6.651  -1.057  0.0459 -0.1018 -0.5070
   16MOL0    Cl 2115   3.354   6.815  -1.034 -0.2558 -0.1370  0.6060
   16MOL0     C 2116   4.424   6.715  -1.331  0.1101 -0.4624 -0.5810
   16MOL0     C 2117   4.556   6.759  -1.326  0.1760  0.7839  0.3806
   16MOL0     O 2118   4.757   6.804  -1.084  0.0654 -0.0686  0.2871
   16MOL0     C 2119   4.989   6.871  -1.343 -0.6595 -0.5173  0.8265
   16MOL0     C 2120   5.093   6.958  -1.384 -0.4888 -0.5725 -0.8540
   16MOL0     N 2121   5.839   7.038  -1.185  1.0120  1.1277  0.4086
   16MOL0     N 2122   5.874   7.006  -1.066  0.1615  0.2525 -0.8583
   16MOL0     C 2123   6.263   7.390  -0.046  0.5383 -0.3074 -0.1040
   16MOL0     C 2124   6.343   7.505  -0.040 -0.6687  0.2943 -0.1190
   16MOL0     C 2125   6.539   7.917  -0.047  1.0737 -0.4051 -0.1819
   16MOL0     C 2126   6.566   7.986   0.072  0.9379 -0.3903 -0.1035
   16MOL0     C 2127   6.611   8.114   0.073  0.1397  0.7042 -0.2609
   16MOL0     C 2128   6.638   8.181  -0.043  0.7603 -0.5315  0.2050
   16MOL0     O 2129   6.668   8.310  -0.050 -0.4395  0.7783  0.1076
   16MOL0     C 2130   6.808   8.344  -0.066 -0.2212  0.7414  0.2617
   16MOL0     C 2131   6.882   8.350   0.069 -0.1210 -1.3150 -0.2481
   16MOL0     C 2132   7.033   8.388   0.045  0.4871 -0.1082  0.0892
   16MOL0     C 2133   7.100   8.394   0.175 -0.3531  0.4446  0.0395
   16MOL0     C 2134   7.105   8.262   0.232 -0.0661 -0.1935 -0.5967
   16MOL0     C 2135   7.109   8.140   0.267 -0.9980  0.5168  0.9529
   16MOL0     C 2136   6.613   8.115  -0.166 -0.1249 -0.1781  0.4808
   16MOL0     C 2137   6.561   7.988  -0.169 -0.7768  0.2432 -0.0746
   16MOL0     C 2138   6.534   7.913  -0.296  0.5494  0.2237 -0.0883
   16MOL0     H 2139   6.235   7.673  -0.319 -2.1104  2.0947  1.8759
   16MOL0     H 2140   6.101   7.455  -0.334  1.3382 -2.4765 -1.6618
   16MOL0     H 2141   6.148   7.110  -0.016  0.7780 -0.2963 -0.2267
   16MOL0     H 2142   6.251   7.118  -0.148  1.1243  2.0207  2.9704
   16MOL0     H 2143   6.051   6.932  -0.115  0.3975  0.7145  0.6893
   16MOL0     H 2144   5.937   7.060  -0.161 -0.9632 -1.2118 -2.2855
   16MOL0     H 2145   6.143   6.994  -0.364  1.1221  0.3086  0.6813
   16MOL0     H 2146   6.004   6.881  -0.336 -1.8883  0.8703 -0.8840
   16MOL0     H 2147   5.844   7.072  -0.369 -0.3078  1.0622 -1.0955
   16MOL0     H 2148   5.997   7.171  -0.392 -1.4490  2.1198 -2.8750
   16MOL0     H 2149   5.906   6.945  -0.573  0.2594 -0.6762 -1.4496
   16MOL0     H 2150   6.060   7.014  -0.589 -0.7457 -1.0705 -1.0011
   16MOL0     H 2151   5.817   7.193  -0.622  0.1296 -2.2546  2.1772
   16MOL0     H 2152   5.988   7.237  -0.628  0.1233  1.2602  1.8377
   16MOL0     H 2153   6.004   7.033  -0.804  0.6707  2.0105 -1.7114
   16MOL0     H 2154   5.944   7.189  -0.856 -0.9477  0.9123 -0.1571
   16MOL0     H 2155   5.801   6.932  -0.782 -1.0652  0.9755  3.0321
   16MOL0     H 2156   5.717   7.087  -0.780 -0.1794  0.8258 -0.7988
   16MOL0     H 2157   5.564   7.104  -1.000  1.0576  3.1984  1.9412
   16MOL0     H 2158   5.691   7.147  -1.344  1.9747 -0.6672  2.4671
   16MOL0     H 2159   5.533   7.181  -1.265 -0.2015  0.0668 -0.5932
   16MOL0     H 2160   5.613   6.917  -1.398  1.9340  1.4049  0.6724
   16MOL0     H 2161   5.491   6.933  -1.274  1.4133 -1.3925  0.7063
   16MOL0     H 2162   5.476   7.029  -1.558 -0.5485 -3.8982 -1.4471
   16MOL0     H 2163   5.377   6.912  -1.473  1.4936  0.3091 -3.7984
   16MOL0     H 2164   5.385   7.220  -1.431  1.8077  0.3149  3.4517
   16MOL0     H 2165   5.266   7.120  -1.515 -1.9409 -3.9306  1.7441
   16MOL0     H 2166   5.184   7.049  -1.059  1.0756  3.7137 -2.1083
   16MOL0     H 2167   5.027   6.776  -0.949  1.7351  0.5110  1.0283
   16MOL0     H 2168   4.910   6.914  -0.917 -0.0354 -0.6973 -0.5790
   16MOL0     H 2169   5.087   6.932  -0.896 -0.0361 -2.6367  3.4360
   16MOL0     H 2170   4.693   6.465  -1.234 -2.1071 -1.8924  1.8089
   16MOL0     H 2171   4.456   6.392  -1.254 -0.7470 -0.3865 -1.3539
   16MOL0     H 2172   4.156   6.711  -1.391  1.8497 -0.0849 -0.7921
   16MOL0     H 2173   4.201   6.592  -1.501  0.7519 -0.4910  1.2611
   16MOL0     H 2174   3.975   6.561  -1.495 -1.9448 -1.5281  0.3967
   16MOL0     H 2175   4.026   6.433  -1.385 -3.3114 -0.5274 -0.5883
   16MOL0     H 2176   3.955   6.724  -1.289  3.8115 -0.3922  3.7199
   16MOL0     H 2177   3.972   6.578  -1.190  2.5071  2.3927 -0.3400
   16MOL0     H 2178   3.789   6.471  -1.318  2.0260 -0.2061 -1.5926
   16MOL0     H 2179   3.779   6.612  -1.421  0.7534  2.0969  1.0442
   16MOL0     H 2180   3.703   6.645  -1.143 -1.8562 -0.2126  0.1282
   16MOL0     H 2181   3.659   6.734  -1.297 -0.7619 -0.1057 -0.0700
   16MOL0     H 2182   3.545   6.466  -1.201 -0.0772  0.9295 -0.0399
   16MOL0     H 2183   3.541   6.525  -1.360  4.8091 -0.5842 -0.4777
   16MOL0     H 2184   3.332   6.595  -1.233 -0.9755  2.0048 -2.9685
   16MOL0     H 2185   3.424   6.736  -1.250 -1.5911 -0.1361 -0.4667
   16MOL0     H 2186   3.529   6.646  -1.006  0.1396 -3.3292 -0.7796
   16MOL0     H 2187   3.373   6.573  -1.008  0.3963 -0.8103 -1.1808
   16MOL0     H 2188   4.351   6.786  -1.368  1.1037 -0.4175 -2.6155
   16MOL0     H 2189   4.585   6.863  -1.340 -1.1558  1.0489 -0.5227
   16MOL0     H 2190   4.924   6.848  -1.428 -0.8268  2.8148 -0.0808
   16MOL0     H 2191   5.116   6.982  -1.487 -1.5452 -0.0905 -0.9883
   16MOL0     H 2192   6.266   7.323   0.039  2.2873  1.7505  1.5768
   16MOL0     H 2193   6.402   7.520   0.050  0.4257 -3.6656  0.0130
   16MOL0     H 2194   6.541   7.941   0.168  1.1269 -1.4804 -0.5552
   16MOL0     H 2195   6.637   8.154   0.170 -0.1033 -0.5096  0.3211
   16MOL0     H 2196   6.863   8.267  -0.121 -0.9509 -1.6875  2.7033
   16MOL0     H 2197   6.816   8.433  -0.129  1.1798  0.1017 -0.5178
   16MOL0     H 2198   6.880   8.259   0.130  0.2145 -0.1030  1.6502
   16MOL0     H 2199   6.821   8.424   0.120  0.3609 -0.6047 -0.6868
   16MOL0     H 2200   7.075   8.311  -0.021 -0.1126 -1.0804  0.7985
   16MOL0     H 2201   7.037   8.491   0.009 -1.8411 -0.8394 -2.6335
   16MOL0     H 2202   7.043   8.460   0.241 -0.4780  1.2042 -0.8078
   16MOL0     H 2203   7.200   8.435   0.157 -0.5180  0.1992 -1.5976
   16MOL0     H 2204   7.136   8.041   0.297  0.8466  0.7377  0.1986
   16MOL0     H 2205   6.616   8.178  -0.254 -1.4537 -1.9722 -0.9149
   16MOL0     H 2206   6.589   7.819  -0.311  1.3510  1.0287 -2.7338
   16MOL0     H 2207   6.426   7.904  -0.283  0.2659  3.5009  0.4726
   16MOL0     H 2208   6.547   7.978  -0.383 -0.9597 -1.9488 -2.0717
   17MOL0     O 2209   9.437   8.990   0.570  0.3178 -0.5148 -0.1599
   17MOL0     C 2210   9.508   9.014   0.665 -0.5299  0.0948  0.0106
   17MOL0     O 2211   9.635   8.957   0.679  0.5501  0.1738  0.1471
   17MOL0     C 2212   9.713   8.883   0.591  0.4035  0.1922 -0.3424
   17MOL0     C 2213   9.701   8.908   0.456 -0.2198  0.3243 -0.5634
   17MOL0     C 2214   9.782   8.833   0.366  0.3748  0.2367 -0.9059
   17MOL0     C 2215   9.875   8.738   0.411 -0.1989 -0.2234 -0.0249
   17MOL0     O 2216   9.963   8.668   0.329  0.1723  0.5996 -0.5302
   17MOL0     C 2217   9.930   8.656   0.182  0.3986  0.6540 -0.4895
   17MOL0     C 2218  10.042   8.583   0.112  0.7544 -1.4246  0.6884
   17MOL0     C 2219  10.023   8.440   0.120 -1.0672  0.1528  0.2899
   17MOL0     C 2220  10.139   8.376   0.049 -0.5137  0.2980  1.0048
   17MOL0     C 2221  10.093   8.231   0.017  0.3021 -1.2998  0.3577
   17MOL0     C 2222  10.202   8.149  -0.042  0.1327 -0.8054  0.6174
   17MOL0     C 2223  10.212   8.005  -0.011 -0.1291  0.2345 -0.0150
   17MOL0     C 2224  10.077   7.914  -0.012 -0.3286  0.0288  0.7396
   17MOL0     N 2225  10.083   7.780   0.051 -0.7767  0.5671 -0.4148
   17MOL0     C 2226  10.127   7.760   0.178 -0.6072  0.1283  0.0817
   17MOL0     C 2227  10.105   7.627   0.210  0.2334 -1.2928  0.0732
   17MOL0     C 2228  10.145   7.568   0.343  0.0093 -0.0050 -0.0637
   17MOL0     C 2229  10.160   7.410   0.328  0.0168  0.1469 -0.3604
   17MOL0     C 2230  10.188   7.344   0.467 -0.5012  0.0925 -0.2780
   17MOL0     C 2231  10.325   7.358   0.516 -0.6062  1.1175  0.5697
   17MOL0     O 2232  10.326   7.342   0.659  0.1197 -0.2856  0.2514
   17MOL0     C 2233  10.298   7.454   0.735 -0.1764 -0.1922  0.2020
   17MOL0     C 2234  10.270   7.588   0.691  0.4948 -0.3389  0.4162
   17MOL0     C 2235  10.248   7.691   0.778  0.1275 -0.2259  0.4232
   17MOL0     C 2236  10.202   7.826   0.733  0.8146  0.3213 -0.7669
   17MOL0     C 2237  10.271   7.665   0.919 -1.3472 -0.1576  0.3692
   17MOL0     C 2238  10.283   7.773   1.011  0.6851  0.6524 -0.0950
   17MOL0     O 2239  10.175   7.808   1.086 -0.4969  0.5397  0.4378
   17MOL0     C 2240  10.179   7.926   1.145  0.2725 -0.3231  0.0599
   17MOL0     C 2241  10.108   8.040   1.087  0.1961  0.0851  0.2648
   17MOL0     C 2242  10.127   8.164   1.143  0.2027 -0.0929  1.2209
   17MOL0     C 2243  10.218   8.192   1.240 -0.6069 -0.5088 -0.0506
   17MOL0     O 2244  10.221   8.317   1.297 -0.8799 -0.3316  1.7348
   17MOL0     C 2245  10.331   8.377   1.372  0.7584  0.2481  0.7508
   17MOL0     C 2246  10.453   8.398   1.287  0.8577 -0.3367  0.3180
   17MOL0     C 2247  10.542   8.519   1.341  0.6243  0.3623  0.3767
   17MOL0     C 2248  10.653   8.462   1.444 -0.4084 -0.2993 -0.6457
   17MOL0     C 2249  10.786   8.540   1.427 -0.0282 -0.4496  0.1659
   17MOL0     C 2250  10.850   8.519   1.291 -0.1976 -0.2695 -0.3285
   17MOL0     C 2251  10.998   8.592   1.286  0.2532  0.6379 -0.7255
   17MOL0     C 2252  11.002   8.746   1.314  0.3993 -1.3481  0.2993
   17MOL0    Cl 2253  10.901   8.830   1.196 -0.1312  0.5198  0.7763
   17MOL0     C 2254  10.278   8.082   1.308 -0.3078  0.4727  0.4954
   17MOL0     C 2255  10.264   7.951   1.255  0.4104 -0.5144  0.2686
   17MOL0     O 2256  10.398   7.823   1.017  1.0686  0.6892  0.3916
   17MOL0     C 2257  10.302   7.526   0.963  0.4973  0.2076 -0.3578
   17MOL0     C 2258  10.310   7.423   0.874 -0.5629 -0.0597  0.3745
   17MOL0     N 2259  10.057   7.562   0.104 -0.7718 -0.1030 -0.2598
   17MOL0     N 2260  10.039   7.655   0.016 -0.0933 -0.2254  0.1043
   17MOL0     C 2261   9.888   8.716   0.549  0.8626  0.4157  0.0700
   17MOL0     C 2262   9.802   8.784   0.636  0.1851 -0.4897 -0.4007
   17MOL0     C 2263   9.465   9.110   0.763  0.3197  0.0212 -0.2896
   17MOL0     C 2264   9.326   9.152   0.746 -0.7414  0.7657 -0.4754
   17MOL0     C 2265   9.272   9.245   0.834  0.3182  0.0402  0.5773
   17MOL0     C 2266   9.346   9.305   0.930 -1.0625  0.2118 -0.9044
   17MOL0     O 2267   9.298   9.411   1.005 -0.0146  0.2807  0.6473
   17MOL0     C 2268   9.256   9.372   1.138  0.0569 -0.3191 -0.0569
   17MOL0     C 2269   9.157   9.485   1.199  0.1241  0.9456  0.3326
   17MOL0     C 2270   9.026   9.460   1.131  0.3973  0.3010  0.2445
   17MOL0     C 2271   8.905   9.538   1.200 -0.5960  0.2903 -0.0762
   17MOL0     C 2272   8.918   9.686   1.181 -0.4866 -1.2057  0.1115
   17MOL0     C 2273   8.957   9.797   1.169 -0.2979  0.4298  0.8828
   17MOL0     C 2274   9.479   9.260   0.961  0.0378  0.3581  0.7233
   17MOL0     C 2275   9.533   9.157   0.882 -0.2349 -0.7461  0.9013
   17MOL0     C 2276   9.651   9.099   0.941 -0.7457  0.3338  0.6661
   17MOL0     H 2277   9.632   8.983   0.417  0.2178  0.6452 -0.7236
   17MOL0     H 2278   9.769   8.852   0.260 -1.2089 -0.4977 -0.8616
   17MOL0     H 2279   9.930   8.750   0.126  0.8563 -1.1339 -3.8092
   17MOL0     H 2280   9.832   8.613   0.158 -1.4357  3.4321  1.4513
   17MOL0     H 2281  10.029   8.615   0.008  1.6238 -0.7774  0.7673
   17MOL0     H 2282  10.139   8.617   0.151 -0.3162  1.4795  1.0831
   17MOL0     H 2283  10.021   8.393   0.219  4.1039 -1.7636 -0.2021
   17MOL0     H 2284   9.936   8.410   0.062  0.3938 -1.3015 -1.3035
   17MOL0     H 2285  10.164   8.424  -0.046  0.8153 -2.5953 -0.2394
   17MOL0     H 2286  10.233   8.386   0.104  2.0231  0.6898 -2.9725
   17MOL0     H 2287  10.013   8.238  -0.057  0.5212 -2.1887  0.0121
   17MOL0     H 2288  10.065   8.189   0.114 -2.2755  1.0218  0.7461
   17MOL0     H 2289  10.201   8.164  -0.151  0.7230 -1.5909  0.4947
   17MOL0     H 2290  10.300   8.182  -0.006 -0.0357  0.0448  0.3255
   17MOL0     H 2291  10.248   8.003   0.092 -2.8694  1.1978  1.0715
   17MOL0     H 2292  10.283   7.957  -0.079  0.3063 -1.4302  1.5465
   17MOL0     H 2293  10.000   7.970   0.042 -1.9768 -1.2618 -0.2074
   17MOL0     H 2294  10.044   7.910  -0.116  0.4216  3.7532  0.1997
   17MOL0     H 2295  10.164   7.839   0.243  1.5673 -1.4254  0.8232
   17MOL0     H 2296  10.065   7.589   0.414 -1.7740  0.4580 -2.0924
   17MOL0     H 2297  10.239   7.615   0.374 -0.6386  0.6031  1.0506
   17MOL0     H 2298  10.065   7.373   0.287 -0.4223  1.7100 -0.7978
   17MOL0     H 2299  10.237   7.381   0.255  3.6233 -1.7547  3.7305
   17MOL0     H 2300  10.118   7.361   0.549  1.0292 -4.0299  2.2110
   17MOL0     H 2301  10.179   7.237   0.447  3.6711 -0.3777 -0.3373
   17MOL0     H 2302  10.388   7.273   0.487 -0.5944  0.9197  1.1528
   17MOL0     H 2303  10.375   7.450   0.486 -1.2306  1.8778  1.7764
   17MOL0     H 2304  10.247   7.597   0.585  1.6910  1.9408  0.2935
   17MOL0     H 2305  10.238   7.834   0.630  1.3401  0.3709 -0.5865
   17MOL0     H 2306  10.255   7.909   0.780  3.9341 -2.1163  0.4129
   17MOL0     H 2307  10.093   7.831   0.738  0.7941 -0.1307 -0.7355
   17MOL0     H 2308  10.047   8.031   0.997  2.6298 -1.1552 -1.3823
   17MOL0     H 2309  10.072   8.250   1.107 -0.9611 -1.3276 -0.1483
   17MOL0     H 2310  10.299   8.470   1.420  3.2411  1.0898  0.9041
   17MOL0     H 2311  10.355   8.314   1.458 -0.3820 -0.0455  0.8698
   17MOL0     H 2312  10.506   8.302   1.282  0.5718 -0.5904  1.7644
   17MOL0     H 2313  10.427   8.416   1.182  1.6483 -1.1521 -0.0379
   17MOL0     H 2314  10.478   8.603   1.371 -0.4860 -0.0585 -0.7201
   17MOL0     H 2315  10.597   8.563   1.258 -1.9164  1.7214 -0.7296
   17MOL0     H 2316  10.679   8.356   1.445 -0.7367 -0.3931  1.1840
   17MOL0     H 2317  10.609   8.485   1.542 -1.5986  0.4689 -1.3337
   17MOL0     H 2318  10.782   8.648   1.448  3.2304 -0.3005  0.4138
   17MOL0     H 2319  10.851   8.495   1.502 -0.3500 -2.1251 -0.5103
   17MOL0     H 2320  10.793   8.568   1.212  1.6380  2.1434 -0.2663
   17MOL0     H 2321  10.854   8.411   1.271  1.7053 -0.5750  1.3884
   17MOL0     H 2322  11.033   8.574   1.184 -3.4980 -2.3403 -1.7286
   17MOL0     H 2323  11.058   8.541   1.361 -0.1426  1.2769  0.0420
   17MOL0     H 2324  11.103   8.789   1.312 -1.3141  3.2075  0.3405
   17MOL0     H 2325  10.969   8.771   1.415  0.1512 -4.0721  0.9684
   17MOL0     H 2326  10.323   8.094   1.406 -1.2365  1.2522  0.8378
   17MOL0     H 2327  10.303   7.858   1.296  3.1036  0.5166  0.2262
   17MOL0     H 2328  10.331   7.505   1.066 -1.0583 -1.1979 -0.1673
   17MOL0     H 2329  10.341   7.322   0.897 -0.4486  0.0803  0.8421
   17MOL0     H 2330   9.961   8.642   0.581  2.6834  0.7086 -3.0254
   17MOL0     H 2331   9.808   8.757   0.741 -0.6785  1.5178  0.2224
   17MOL0     H 2332   9.272   9.102   0.666  2.3754  0.2463 -2.4012
   17MOL0     H 2333   9.170   9.280   0.828 -0.1016 -1.0951  0.7862
   17MOL0     H 2334   9.194   9.283   1.153  0.4441 -0.2500  2.2709
   17MOL0     H 2335   9.342   9.355   1.203 -0.0625  0.8026  0.4134
   17MOL0     H 2336   9.206   9.582   1.188 -1.5947  1.9644  1.2625
   17MOL0     H 2337   9.137   9.469   1.306  1.3584  0.3075  0.4813
   17MOL0     H 2338   9.036   9.513   1.036  0.8894  2.4623  1.4152
   17MOL0     H 2339   8.990   9.357   1.119 -0.2335  0.3082  1.8317
   17MOL0     H 2340   8.899   9.516   1.307 -0.7158 -1.9749 -0.5032
   17MOL0     H 2341   8.815   9.492   1.157  1.4283 -3.9873 -0.1890
   17MOL0     H 2342   8.995   9.897   1.163  2.4726 -0.6054 -0.2599
   17MOL0     H 2343   9.534   9.294   1.048  0.1409  0.5741  0.5726
   17MOL0     H 2344   9.652   8.990   0.938  3.2125  0.1926  0.8742
   17MOL0     H 2345   9.741   9.123   0.884 -2.0725 -1.4809 -2.4519
   17MOL0     H 2346   9.668   9.117   1.047  0.2661  3.6455  0.0606
   18MOL0     O 2347   6.379   1.945   5.973  0.2112 -0.0732 -0.4219
   18MOL0     C 2348   6.405   2.046   6.042 -0.6955 -0.4208 -0.9020
   18MOL0     O 2349   6.485   2.054   6.150  0.7502 -0.0218  0.3167
   18MOL0     C 2350   6.555   1.938   6.193 -0.9489  1.7453 -0.5731
   18MOL0     C 2351   6.571   1.914   6.327 -0.2904 -0.0526 -0.0099
   18MOL0     C 2352   6.638   1.797   6.377 -0.3024 -0.0710 -0.2178
   18MOL0     C 2353   6.703   1.707   6.295  0.6567  0.0658 -1.0056
   18MOL0     O 2354   6.743   1.594   6.358 -1.2151  0.5486  0.2239
   18MOL0     C 2355   6.797   1.482   6.275  0.0494 -0.1204 -0.0422
   18MOL0     C 2356   6.825   1.360   6.366  0.0770 -0.3347  0.0885
   18MOL0     C 2357   6.852   1.233   6.285 -0.2409 -0.5102  0.0690
   18MOL0     C 2358   6.878   1.120   6.387 -0.3027 -1.1050  0.2775
   18MOL0     C 2359   6.876   0.981   6.335 -0.1333  0.0365  0.8335
   18MOL0     C 2360   6.922   0.883   6.439 -0.8281 -0.9084  0.1812
   18MOL0     C 2361   7.059   0.913   6.497 -0.3761  0.6667  0.5942
   18MOL0     C 2362   7.100   0.799   6.586  0.7274 -0.3479  0.8521
   18MOL0     N 2363   7.237   0.780   6.591  0.9962  0.0362 -0.0026
   18MOL0     C 2364   7.331   0.855   6.660 -0.2204  0.9787 -0.7581
   18MOL0     C 2365   7.446   0.799   6.633  0.7586  0.3073  0.4476
   18MOL0     C 2366   7.580   0.824   6.690  0.0137 -0.1388  0.3597
   18MOL0     C 2367   7.642   0.954   6.629  0.0331 -0.2254 -0.5209
   18MOL0     C 2368   7.562   1.077   6.678 -1.2174  0.4595 -0.2331
   18MOL0     C 2369   7.611   1.214   6.626  0.2455  0.0222 -0.0669
   18MOL0     O 2370   7.489   1.292   6.615 -0.4631 -0.1402 -0.1498
   18MOL0     C 2371   7.499   1.416   6.553  0.5658  0.2956  0.9474
   18MOL0     C 2372   7.607   1.470   6.486  0.7140 -0.2662  1.7422
   18MOL0     C 2373   7.606   1.599   6.423  0.6652  0.4831  0.2148
   18MOL0     C 2374   7.724   1.646   6.332  0.4773  0.0603 -0.5229
   18MOL0     C 2375   7.485   1.680   6.441 -0.0458  0.1029  0.3264
   18MOL0     C 2376   7.473   1.821   6.379  0.8219 -0.0374 -0.6457
   18MOL0     O 2377   7.502   1.843   6.250  0.1228 -0.3650  0.0907
   18MOL0     C 2378   7.515   1.976   6.208  0.6667  0.5739 -0.1450
   18MOL0     C 2379   7.406   2.037   6.143  0.2213  0.1384 -1.1688
   18MOL0     C 2380   7.410   2.177   6.124  0.2046  1.0357 -0.4010
   18MOL0     C 2381   7.512   2.257   6.168  0.1782  0.0237  0.2469
   18MOL0     O 2382   7.510   2.390   6.144  0.9319  0.2081 -0.0119
   18MOL0     C 2383   7.490   2.469   6.260 -0.8472 -0.0420 -0.9221
   18MOL0     C 2384   7.393   2.588   6.223 -1.1436  0.4293  0.2411
   18MOL0     C 2385   7.239   2.536   6.205 -0.2573 -0.4521  0.5242
   18MOL0     C 2386   7.145   2.654   6.226 -0.5467  0.2741  0.6783
   18MOL0     C 2387   6.999   2.601   6.220 -0.1993 -0.1557  0.3023
   18MOL0     C 2388   6.905   2.711   6.203 -0.3543  0.8312  0.5823
   18MOL0     C 2389   6.772   2.665   6.144 -0.2062 -0.4716  0.7447
   18MOL0     C 2390   6.697   2.594   6.246  0.5668  0.2633 -0.4248
   18MOL0    Cl 2391   6.745   2.424   6.248 -0.4027  0.1293  0.3067
   18MOL0     C 2392   7.611   2.190   6.235  0.2468  0.1213  0.5647
   18MOL0     C 2393   7.619   2.055   6.251  0.6142 -0.0106 -0.1585
   18MOL0     O 2394   7.408   1.903   6.446  0.7305 -0.2221 -0.2690
   18MOL0     C 2395   7.383   1.625   6.517  0.8365 -0.6813  0.4569
   18MOL0     C 2396   7.393   1.503   6.565  0.1174  0.4999 -0.0096
   18MOL0     N 2397   7.428   0.704   6.537 -0.3711  0.1567  0.5636
   18MOL0     N 2398   7.303   0.693   6.509 -0.6359 -0.0619  0.4904
   18MOL0     C 2399   6.696   1.728   6.155 -0.0147  0.3419  0.0608
   18MOL0     C 2400   6.623   1.846   6.107 -0.4320 -0.5059  0.6599
   18MOL0     C 2401   6.331   2.165   6.007 -0.1784  0.1758  0.0742
   18MOL0     C 2402   6.188   2.146   5.987  0.4671  0.4697  0.1520
   18MOL0     C 2403   6.113   2.257   5.933  0.1474  0.8408  0.0448
   18MOL0     C 2404   6.164   2.385   5.925 -0.4678  0.8565  0.3466
   18MOL0     O 2405   6.079   2.472   5.876 -0.3003 -0.3375 -0.3494
   18MOL0     C 2406   6.091   2.607   5.919 -0.7282  0.9742 -1.0543
   18MOL0     C 2407   5.939   2.646   5.931  0.4661  0.3504 -0.0739
   18MOL0     C 2408   5.914   2.747   6.040 -0.6446 -0.6381  0.8283
   18MOL0     C 2409   5.905   2.696   6.178 -0.4649  0.6775  0.9330
   18MOL0     C 2410   6.026   2.672   6.245  0.3565  0.2453  0.2071
   18MOL0     C 2411   6.124   2.648   6.307 -0.9749 -0.3355 -0.7123
   18MOL0     C 2412   6.301   2.406   5.972  0.3219  1.1279 -0.4764
   18MOL0     C 2413   6.385   2.295   6.002 -0.5742  0.2031  0.6138
   18MOL0     C 2414   6.540   2.321   6.034 -0.1900 -0.1662  0.3968
   18MOL0     H 2415   6.517   1.967   6.405 -3.7064 -4.0316  0.6624
   18MOL0     H 2416   6.620   1.773   6.481 -1.2065 -1.3873 -0.6517
   18MOL0     H 2417   6.882   1.520   6.218 -0.4609 -1.0550 -1.4815
   18MOL0     H 2418   6.726   1.453   6.197  0.0113  1.4179 -0.6055
   18MOL0     H 2419   6.903   1.376   6.441 -0.5792 -1.2771  1.0082
   18MOL0     H 2420   6.734   1.346   6.426 -0.1274  2.6907  0.6408
   18MOL0     H 2421   6.762   1.213   6.225 -0.9947  3.2167 -0.2771
   18MOL0     H 2422   6.935   1.242   6.215  0.4258  2.9198  1.1345
   18MOL0     H 2423   6.971   1.152   6.434  0.2642 -0.1190 -1.4216
   18MOL0     H 2424   6.803   1.127   6.467 -1.7021 -3.2967 -0.7335
   18MOL0     H 2425   6.950   0.992   6.254  2.1783  2.2020  3.0313
   18MOL0     H 2426   6.781   0.953   6.289  0.7675 -0.3145 -0.9428
   18MOL0     H 2427   6.838   0.879   6.508  0.6484 -2.5180  1.9985
   18MOL0     H 2428   6.933   0.789   6.385 -2.0176  0.1151 -1.9720
   18MOL0     H 2429   7.067   1.005   6.555 -1.9003  2.1194 -1.3560
   18MOL0     H 2430   7.132   0.924   6.416  0.0594 -0.0111  0.8899
   18MOL0     H 2431   7.060   0.813   6.686 -0.0722  2.4399  0.2189
   18MOL0     H 2432   7.055   0.705   6.553  0.1255  0.4856 -0.7920
   18MOL0     H 2433   7.313   0.934   6.733  0.9430 -1.2713  2.1067
   18MOL0     H 2434   7.634   0.730   6.672 -3.4116 -1.9090 -1.6688
   18MOL0     H 2435   7.572   0.851   6.796  1.8807 -0.6288  0.6646
   18MOL0     H 2436   7.746   0.966   6.659  1.1424 -0.6490 -3.7330
   18MOL0     H 2437   7.636   0.948   6.520 -0.8536  0.3443 -0.5174
   18MOL0     H 2438   7.462   1.069   6.635 -0.7049  3.2837 -2.1908
   18MOL0     H 2439   7.561   1.071   6.787  0.7323 -4.8591 -0.1834
   18MOL0     H 2440   7.679   1.266   6.695 -0.2635  2.7278 -1.4777
   18MOL0     H 2441   7.667   1.186   6.536  0.7309 -4.5553  1.4093
   18MOL0     H 2442   7.686   1.400   6.462  2.1259  1.1936  1.9727
   18MOL0     H 2443   7.821   1.653   6.380 -0.1375 -1.3017  1.0135
   18MOL0     H 2444   7.714   1.745   6.286  5.0268  1.7971  1.6721
   18MOL0     H 2445   7.737   1.573   6.251  3.2445 -1.4510  1.1486
   18MOL0     H 2446   7.322   1.977   6.109  1.2781 -2.6078  0.7124
   18MOL0     H 2447   7.335   2.224   6.061 -0.8744 -0.2828 -0.1506
   18MOL0     H 2448   7.437   2.417   6.340 -0.6392  0.4040 -0.4875
   18MOL0     H 2449   7.584   2.511   6.298 -1.2330 -1.5367  1.9744
   18MOL0     H 2450   7.398   2.660   6.305  1.8082  1.0490 -0.3694
   18MOL0     H 2451   7.430   2.648   6.139  2.3968 -1.2702  0.4125
   18MOL0     H 2452   7.206   2.462   6.278 -3.9416 -1.6512 -2.0287
   18MOL0     H 2453   7.224   2.509   6.099 -2.2513  3.6744 -0.4432
   18MOL0     H 2454   7.178   2.721   6.147  3.3739 -1.6599  0.4580
   18MOL0     H 2455   7.148   2.704   6.324 -2.1311  1.2536  0.2683
   18MOL0     H 2456   7.005   2.535   6.132  1.7999 -0.4054  0.5846
   18MOL0     H 2457   6.992   2.532   6.304 -0.6613  1.6820  1.8509
   18MOL0     H 2458   6.953   2.783   6.137  0.9821 -1.0953 -0.6720
   18MOL0     H 2459   6.897   2.765   6.297 -0.3944 -2.0467  2.3634
   18MOL0     H 2460   6.787   2.611   6.051  1.2963 -2.5276  2.0762
   18MOL0     H 2461   6.729   2.761   6.116  1.6288 -0.8705 -4.4524
   18MOL0     H 2462   6.592   2.600   6.217 -0.3567  1.0454  2.6681
   18MOL0     H 2463   6.708   2.641   6.345 -0.8713 -0.7905  0.2579
   18MOL0     H 2464   7.689   2.256   6.274 -1.6381  2.8246  0.0193
   18MOL0     H 2465   7.700   2.010   6.308  0.0564 -4.4363 -2.4829
   18MOL0     H 2466   7.296   1.689   6.533  0.9775  0.5077 -2.7796
   18MOL0     H 2467   7.313   1.473   6.632 -1.2607  1.7570 -1.0267
   18MOL0     H 2468   6.762   1.666   6.094  0.4944  1.9042 -1.0185
   18MOL0     H 2469   6.615   1.857   5.999 -0.7064 -3.0529  0.3556
   18MOL0     H 2470   6.136   2.051   5.992  1.7797 -0.3056 -0.3648
   18MOL0     H 2471   6.011   2.226   5.913  0.9710 -2.7620  0.6616
   18MOL0     H 2472   6.142   2.614   6.015 -2.0356  1.7031 -0.3906
   18MOL0     H 2473   6.146   2.672   5.850 -0.4379  0.8095 -0.9830
   18MOL0     H 2474   5.885   2.559   5.970  0.4362  1.4339  2.4901
   18MOL0     H 2475   5.908   2.688   5.836  2.1937  0.4820 -0.6104
   18MOL0     H 2476   5.987   2.829   6.040 -2.3219  0.9056  0.5454
   18MOL0     H 2477   5.822   2.800   6.016 -0.2163  1.1124  2.7028
   18MOL0     H 2478   5.837   2.613   6.199  1.1101 -0.1630  3.1610
   18MOL0     H 2479   5.861   2.782   6.229  0.4968  1.7803 -0.0626
   18MOL0     H 2480   6.205   2.613   6.368 -0.2217  1.7612 -0.4165
   18MOL0     H 2481   6.344   2.506   5.966  2.6078  0.1750 -1.0707
   18MOL0     H 2482   6.606   2.248   5.987 -0.0088  0.0073  0.3787
   18MOL0     H 2483   6.572   2.421   6.002  2.4828 -1.3326 -0.8531
   18MOL0     H 2484   6.559   2.319   6.142 -1.6561  1.0644  0.7231
   19MOL0     O 2485  10.084   3.681   9.972  1.0212 -0.4248  0.3824
   19MOL0     C 2486  10.084   3.682  10.094 -0.9239  0.2156  0.0088
   19MOL0     O 2487  10.158   3.589  10.167 -0.6627 -0.5443  0.4627
   19MOL0     C 2488  10.224   3.485  10.102 -1.3207 -0.5765 -0.1932
   19MOL0     C 2489  10.359   3.496  10.079 -0.2847  0.4263  0.4100
   19MOL0     C 2490  10.422   3.399   9.999  0.0763  0.9401 -0.6029
   19MOL0     C 2491  10.354   3.280   9.970 -0.0913  0.1036  0.5267
   19MOL0     O 2492  10.407   3.176   9.882 -0.2609  0.1960  0.7019
   19MOL0     C 2493  10.381   3.045   9.933 -0.7801 -0.8190  0.1812
   19MOL0     C 2494  10.472   2.959   9.845  1.1098  0.5916 -0.4257
   19MOL0     C 2495  10.508   2.821   9.917  0.4009 -0.7537  0.1061
   19MOL0     C 2496  10.562   2.721   9.816  0.9585  0.1444  0.2951
   19MOL0     C 2497  10.642   2.597   9.869 -0.2532 -0.4636 -0.1956
   19MOL0     C 2498  10.705   2.508   9.752  0.9911  0.6166  0.0647
   19MOL0     C 2499  10.803   2.400   9.825  0.3816 -0.3043  0.0126
   19MOL0     C 2500  10.832   2.285   9.734 -0.8726 -0.1116  0.4746
   19MOL0     N 2501  10.865   2.331   9.596 -0.2669  0.0638  0.2604
   19MOL0     C 2502  10.813   2.273   9.483  0.2004 -0.6527 -0.5768
   19MOL0     C 2503  10.863   2.344   9.373  1.5440 -0.1687  0.3232
   19MOL0     C 2504  10.823   2.336   9.229  0.4837 -0.4984 -1.0475
   19MOL0     C 2505  10.937   2.287   9.138  0.7563  0.2437 -0.2964
   19MOL0     C 2506  10.883   2.264   8.987 -0.4790 -1.0553 -0.6809
   19MOL0     C 2507  10.992   2.174   8.906 -0.1048  0.2002  0.6536
   19MOL0     O 2508  10.967   2.034   8.933 -0.5313  0.2388 -0.6036
   19MOL0     C 2509  11.005   1.947   8.833  0.1658 -0.9103 -0.4713
   19MOL0     C 2510  11.130   1.949   8.781 -1.2136 -0.3959  0.1445
   19MOL0     C 2511  11.168   1.867   8.669 -0.1952  0.3116  0.1502
   19MOL0     C 2512  11.308   1.893   8.611 -0.3136  0.0737  0.1124
   19MOL0     C 2513  11.075   1.792   8.602  0.5370 -0.5893 -0.7284
   19MOL0     C 2514  11.100   1.705   8.491  0.7239 -1.2124  1.3490
   19MOL0     O 2515  11.012   1.696   8.391  0.8817 -0.1461  0.2709
   19MOL0     C 2516  11.030   1.614   8.281  1.1401 -0.7946 -0.2119
   19MOL0     C 2517  10.920   1.544   8.243  0.6217  0.6940  0.1009
   19MOL0     C 2518  10.927   1.456   8.136 -0.3447  0.7303 -0.5621
   19MOL0     C 2519  11.047   1.448   8.066 -0.0063 -0.3642  0.3925
   19MOL0     O 2520  11.038   1.369   7.954 -0.1348  0.4056  0.3660
   19MOL0     C 2521  11.145   1.281   7.920 -0.3538  0.1793 -0.7164
   19MOL0     C 2522  11.105   1.194   7.800 -0.4406  1.1790 -0.6245
   19MOL0     C 2523  11.104   1.260   7.660 -0.2403  0.7040  0.3750
   19MOL0     C 2524  11.083   1.176   7.538 -0.6879 -0.1586  0.8297
   19MOL0     C 2525  11.153   1.243   7.416  0.2916  0.3678 -0.1511
   19MOL0     C 2526  11.050   1.252   7.294 -0.1159 -0.0512  1.3562
   19MOL0     C 2527  10.939   1.353   7.327 -1.2414  0.9014  0.0556
   19MOL0     C 2528  10.808   1.311   7.261  0.2959 -1.3214 -0.7897
   19MOL0    Cl 2529  10.804   1.276   7.086  0.1941 -0.7106 -0.2702
   19MOL0     C 2530  11.161   1.541   8.093 -0.1708  0.4705  0.1355
   19MOL0     C 2531  11.146   1.620   8.209  0.9702 -0.0267 -0.3883
   19MOL0     O 2532  11.203   1.645   8.499 -0.4161  0.7206  0.3986
   19MOL0     C 2533  10.936   1.809   8.650 -0.1116  0.5919  0.1766
   19MOL0     C 2534  10.912   1.871   8.770 -0.2588 -0.7802 -0.2688
   19MOL0     N 2535  10.954   2.433   9.423  0.4920 -0.3143 -0.2164
   19MOL0     N 2536  10.961   2.424   9.556 -0.3769 -0.4690 -1.0799
   19MOL0     C 2537  10.215   3.269  10.000  0.1403 -0.0267  0.5477
   19MOL0     C 2538  10.151   3.369  10.075 -0.6628  0.3296 -0.5839
   19MOL0     C 2539  10.007   3.779  10.181  0.3438 -0.1374 -0.2590
   19MOL0     C 2540   9.895   3.843  10.126  0.7241 -0.3172  0.1325
   19MOL0     C 2541   9.823   3.929  10.195  0.4786 -0.7153 -0.4651
   19MOL0     C 2542   9.838   3.939  10.332 -0.5860  0.1098  0.3829
   19MOL0     O 2543   9.759   4.023  10.413 -0.1226  0.3494  0.8784
   19MOL0     C 2544   9.712   4.142  10.355  0.0668  0.6272  0.7224
   19MOL0     C 2545   9.836   4.232  10.338 -0.2427  0.1880  0.5833
   19MOL0     C 2546   9.807   4.360  10.266 -0.4683 -0.6663  0.0549
   19MOL0     C 2547   9.941   4.436  10.255  0.3061  0.4315  0.5652
   19MOL0     C 2548   9.910   4.573  10.217  0.2283  0.1828 -0.0142
   19MOL0     C 2549   9.893   4.695  10.209 -0.8389 -0.2345  0.0673
   19MOL0     C 2550   9.948   3.874  10.384 -1.0163  0.9556 -0.2303
   19MOL0     C 2551  10.037   3.800  10.318  0.4351 -0.6596 -0.5094
   19MOL0     C 2552  10.160   3.748  10.385 -0.3106 -0.9957 -0.5436
   19MOL0     H 2553  10.421   3.574  10.121  1.8463 -0.5460 -0.8043
   19MOL0     H 2554  10.526   3.412   9.969 -0.0035  0.6571 -1.0069
   19MOL0     H 2555  10.275   3.021   9.930 -0.7138 -1.0429 -0.7775
   19MOL0     H 2556  10.411   3.037  10.038  1.1503  0.7561 -0.1888
   19MOL0     H 2557  10.416   2.944   9.752 -1.7691 -1.0937  1.4211
   19MOL0     H 2558  10.557   3.016   9.807 -0.7231  1.3966 -3.7681
   19MOL0     H 2559  10.580   2.840   9.997  1.3489  1.3234 -1.1539
   19MOL0     H 2560  10.412   2.790   9.960  0.2430 -0.5083 -0.0666
   19MOL0     H 2561  10.478   2.676   9.761  1.6449 -0.9627  0.1113
   19MOL0     H 2562  10.615   2.784   9.744 -1.8675  1.9538 -0.3886
   19MOL0     H 2563  10.575   2.535   9.929  1.9248  0.9191  4.0985
   19MOL0     H 2564  10.722   2.629   9.937 -0.1579 -1.8300  0.3627
   19MOL0     H 2565  10.626   2.457   9.697  1.5334  0.2545 -0.3871
   19MOL0     H 2566  10.762   2.566   9.680  0.7722 -0.8166 -1.3077
   19MOL0     H 2567  10.765   2.377   9.925 -0.1235 -0.3451 -0.1888
   19MOL0     H 2568  10.905   2.437   9.840  0.8234 -1.6015  0.3963
   19MOL0     H 2569  10.925   2.243   9.773  1.0015  1.1928 -2.2871
   19MOL0     H 2570  10.756   2.206   9.741 -0.5848 -0.4158  0.1742
   19MOL0     H 2571  10.741   2.191   9.479 -0.4731 -0.1103  0.0421
   19MOL0     H 2572  10.772   2.427   9.195 -0.8049 -1.0580 -0.6458
   19MOL0     H 2573  10.747   2.259   9.220 -1.8858  1.8107 -2.1279
   19MOL0     H 2574  11.020   2.359   9.145 -0.3622  1.4300  1.6424
   19MOL0     H 2575  10.970   2.191   9.178  0.2952  0.1042 -0.2516
   19MOL0     H 2576  10.790   2.207   8.980 -0.7228 -0.4857 -4.6197
   19MOL0     H 2577  10.881   2.360   8.935  0.5856 -1.8120 -2.2175
   19MOL0     H 2578  10.987   2.191   8.798  1.1093 -0.7246  0.4183
   19MOL0     H 2579  11.090   2.205   8.944  0.7779 -0.8089 -0.6615
   19MOL0     H 2580  11.205   2.020   8.812 -1.2329  0.9300 -2.5763
   19MOL0     H 2581  11.361   1.979   8.653  0.4110 -0.0136 -0.6090
   19MOL0     H 2582  11.274   1.913   8.509 -1.3561 -1.5439  0.1032
   19MOL0     H 2583  11.366   1.800   8.618 -1.5850 -0.6835  1.3461
   19MOL0     H 2584  10.823   1.544   8.291  1.3095  0.3673  1.5552
   19MOL0     H 2585  10.849   1.389   8.101  0.6916  0.0542 -1.6519
   19MOL0     H 2586  11.235   1.338   7.895  0.6612 -0.6669  0.8665
   19MOL0     H 2587  11.162   1.217   8.007  0.1390  0.4317 -0.6270
   19MOL0     H 2588  11.161   1.100   7.791 -3.6246 -1.0104  0.5270
   19MOL0     H 2589  11.011   1.150   7.834  1.3610 -0.2040  3.0952
   19MOL0     H 2590  11.197   1.317   7.659  1.1797 -1.4793 -1.3189
   19MOL0     H 2591  11.027   1.338   7.659  0.1054  1.0618 -1.3404
   19MOL0     H 2592  10.976   1.159   7.524 -0.6659 -0.5424  1.1155
   19MOL0     H 2593  11.136   1.081   7.544 -0.9986 -0.3644  0.3316
   19MOL0     H 2594  11.176   1.348   7.441  3.1955 -0.6007  1.8839
   19MOL0     H 2595  11.243   1.189   7.384 -1.0052 -0.6659 -2.2263
   19MOL0     H 2596  11.000   1.156   7.282  2.6371 -1.3663 -0.4844
   19MOL0     H 2597  11.106   1.285   7.206  0.0983 -0.6812  1.2563
   19MOL0     H 2598  10.971   1.440   7.269 -1.2074 -0.1147 -1.5056
   19MOL0     H 2599  10.932   1.374   7.434  2.8146 -0.6525  0.8024
   19MOL0     H 2600  10.742   1.395   7.285 -0.5375 -2.6750  2.1324
   19MOL0     H 2601  10.769   1.219   7.305 -0.3118 -0.2003  1.1857
   19MOL0     H 2602  11.249   1.536   8.029 -2.4978 -0.4826 -3.3070
   19MOL0     H 2603  11.226   1.689   8.234  1.0006 -0.1819 -0.0463
   19MOL0     H 2604  10.860   1.743   8.611  1.9371 -3.2672  2.0410
   19MOL0     H 2605  10.808   1.881   8.800 -0.0549 -1.4661  0.7060
   19MOL0     H 2606  10.154   3.185   9.970  0.4610 -0.9248  2.2424
   19MOL0     H 2607  10.043   3.368  10.086 -0.6793 -1.7797 -0.5828
   19MOL0     H 2608   9.865   3.828  10.023 -1.5910 -0.4305  0.7646
   19MOL0     H 2609   9.743   3.980  10.143  1.3627  1.4502  0.1677
   19MOL0     H 2610   9.668   4.121  10.257  1.0404  2.3439 -0.1166
   19MOL0     H 2611   9.626   4.199  10.391 -0.7782 -0.6258  0.7763
   19MOL0     H 2612   9.915   4.178  10.285 -0.3808 -0.8694  1.4360
   19MOL0     H 2613   9.871   4.244  10.441  0.2289 -0.8856  0.5628
   19MOL0     H 2614   9.761   4.341  10.169  1.3518 -0.0346 -0.9690
   19MOL0     H 2615   9.732   4.428  10.307  1.4036  1.6581 -0.1753
   19MOL0     H 2616  10.014   4.400  10.182  1.9894  0.7895  2.0039
   19MOL0     H 2617   9.999   4.436  10.347 -0.1837  0.0302  0.8852
   19MOL0     H 2618   9.868   4.799  10.212  2.1286  0.5843 -0.0772
   19MOL0     H 2619   9.981   3.905  10.483  2.2903  0.7791 -1.1320
   19MOL0     H 2620  10.147   3.659  10.448 -0.6959  0.2562  1.2506
   19MOL0     H 2621  10.247   3.749  10.320 -0.2175 -0.2477 -0.4242
   19MOL0     H 2622  10.174   3.828  10.459 -4.0450 -1.6796  1.1342
   20MOL0     O 2623   4.615   9.058   0.286  1.1411 -0.4654  0.3298
   20MOL0     C 2624   4.632   8.973   0.200  0.9115  1.0659 -0.1618
   20MOL0     O 2625   4.707   8.863   0.215 -0.2097  0.5870 -0.0256
   20MOL0     C 2626   4.719   8.799   0.336 -1.2797 -0.7726 -0.4396
   20MOL0     C 2627   4.840   8.805   0.409  0.6067 -0.4017 -0.2023
   20MOL0     C 2628   4.841   8.722   0.524 -0.1823 -0.2942 -0.1844
   20MOL0     C 2629   4.729   8.649   0.567 -0.4726 -0.1178  0.9035
   20MOL0     O 2630   4.750   8.563   0.680  0.9106  0.2415  0.5435
   20MOL0     C 2631   4.714   8.620   0.801  0.1346 -0.3879  1.1599
   20MOL0     C 2632   4.766   8.535   0.921  0.1265  0.0112  1.7425
   20MOL0     C 2633   4.918   8.535   0.919 -1.3509  0.2327  0.2561
   20MOL0     C 2634   4.992   8.400   0.914  0.6406  0.2224 -0.3561
   20MOL0     C 2635   4.974   8.324   1.046 -0.7000  0.1710  0.4023
   20MOL0     C 2636   5.028   8.178   1.035  1.6045 -1.0060  0.1946
   20MOL0     C 2637   5.188   8.162   1.024 -0.0181 -0.0039 -0.0080
   20MOL0     C 2638   5.241   8.024   0.963 -0.2664 -0.2105 -0.1296
   20MOL0     N 2639   5.199   7.897   1.011  0.2208  0.6183  0.8531
   20MOL0     C 2640   5.206   7.858   1.146  0.1593 -0.1116  0.2606
   20MOL0     C 2641   5.132   7.752   1.150  0.5524 -0.6743  0.0617
   20MOL0     C 2642   5.090   7.668   1.272  1.3687  0.2318  0.2744
   20MOL0     C 2643   5.057   7.751   1.395  0.5279 -0.0733  0.0673
   20MOL0     C 2644   4.946   7.698   1.485 -0.6097  0.6784 -0.3284
   20MOL0     C 2645   4.992   7.572   1.571  0.6091  0.1459  0.9526
   20MOL0     O 2646   5.048   7.603   1.699  0.3533 -0.5926 -0.4382
   20MOL0     C 2647   5.048   7.507   1.791  0.0116  0.5133  0.2644
   20MOL0     C 2648   5.066   7.562   1.912 -1.0631  0.0493 -0.6691
   20MOL0     C 2649   5.073   7.477   2.024 -0.0890  0.6884  0.7208
   20MOL0     C 2650   5.088   7.531   2.161 -0.6335  0.6825  0.1410
   20MOL0     C 2651   5.065   7.332   2.008 -0.5160  0.7125 -0.6406
   20MOL0     C 2652   5.070   7.231   2.117  0.7936  0.2507  0.2600
   20MOL0     O 2653   5.142   7.118   2.094 -0.3285  0.0221  0.0532
   20MOL0     C 2654   5.194   7.063   2.207  0.0683  0.3413 -0.2179
   20MOL0     C 2655   5.313   7.106   2.259 -0.4334  0.6136  0.6046
   20MOL0     C 2656   5.381   7.049   2.369  0.6038  0.5904 -0.0194
   20MOL0     C 2657   5.322   6.938   2.431 -0.9366  0.1327 -0.6070
   20MOL0     O 2658   5.345   6.873   2.549 -0.1761  0.3408  0.3483
   20MOL0     C 2659   5.459   6.918   2.620 -0.1715 -0.5023 -1.6440
   20MOL0     C 2660   5.581   6.841   2.569  0.7778 -0.3412  0.0836
   20MOL0     C 2661   5.696   6.798   2.666  0.1281 -0.5783  0.5109
   20MOL0     C 2662   5.642   6.741   2.802 -0.2015 -0.1631  0.4102
   20MOL0     C 2663   5.755   6.687   2.901  0.0616 -0.5946  0.3004
   20MOL0     C 2664   5.694   6.654   3.038  0.0317  0.1528  0.4272
   20MOL0     C 2665   5.796   6.590   3.128 -0.2570  0.5954 -0.3297
   20MOL0     C 2666   5.737   6.554   3.264 -0.9857 -1.4113  0.1589
   20MOL0    Cl 2667   5.864   6.539   3.378 -0.0660 -0.2210 -0.0971
   20MOL0     C 2668   5.199   6.896   2.379 -0.3375 -0.0282  0.2578
   20MOL0     C 2669   5.141   6.948   2.264 -0.2525  0.4010  0.8164
   20MOL0     O 2670   4.999   7.257   2.212  0.2819 -0.8232  0.3119
   20MOL0     C 2671   5.049   7.285   1.877 -0.7618  0.5340  1.1164
   20MOL0     C 2672   5.037   7.369   1.770 -0.6379  0.4442  0.0851
   20MOL0     N 2673   5.079   7.721   1.029 -0.0671  0.3570 -0.2108
   20MOL0     N 2674   5.131   7.801   0.939  0.0091  0.3605 -0.2599
   20MOL0     C 2675   4.610   8.663   0.512  0.3842 -0.0192 -0.1386
   20MOL0     C 2676   4.608   8.734   0.390 -0.5733  0.5438  0.9842
   20MOL0     C 2677   4.592   8.995   0.060 -0.2330 -0.2871  0.9514
   20MOL0     C 2678   4.669   8.944  -0.048 -0.4011 -0.1844  0.2601
   20MOL0     C 2679   4.640   8.971  -0.191  0.1446 -0.5925  0.4289
   20MOL0     C 2680   4.524   9.039  -0.220 -0.9642 -0.7068 -0.4218
   20MOL0     O 2681   4.503   9.077  -0.349 -0.1678 -0.6999 -0.0120
   20MOL0     C 2682   4.545   9.204  -0.384 -0.5652 -0.4920  0.0378
   20MOL0     C 2683   4.676   9.174  -0.450  0.3537  0.3660 -0.1858
   20MOL0     C 2684   4.714   9.295  -0.541  0.2553  0.5416  0.1914
   20MOL0     C 2685   4.684   9.265  -0.687  0.0062  0.5923  0.6961
   20MOL0     C 2686   4.714   9.377  -0.780  0.7641 -1.5457 -0.2417
   20MOL0     C 2687   4.716   9.482  -0.858  0.6167  1.4409  0.4929
   20MOL0     C 2688   4.452   9.088  -0.116  0.2157  0.9002 -0.4824
   20MOL0     C 2689   4.481   9.071   0.018  0.0322  0.0529 -0.2693
   20MOL0     C 2690   4.378   9.122   0.112  0.0763 -0.3088  0.6281
   20MOL0     H 2691   4.915   8.882   0.390 -1.6357  1.7533 -0.9471
   20MOL0     H 2692   4.922   8.719   0.597 -1.6415  2.0182  1.6778
   20MOL0     H 2693   4.605   8.612   0.806  0.1447 -1.3925  0.1931
   20MOL0     H 2694   4.749   8.723   0.793 -1.3094  0.0638  0.2693
   20MOL0     H 2695   4.744   8.586   1.015 -0.5012 -1.2232  2.2792
   20MOL0     H 2696   4.719   8.437   0.931 -0.6379  0.0801 -0.5587
   20MOL0     H 2697   4.957   8.579   0.826  1.9712  0.9976  1.8554
   20MOL0     H 2698   4.965   8.592   0.999  0.6097  1.3404 -1.5625
   20MOL0     H 2699   4.959   8.337   0.831  0.2108 -1.2352  0.8690
   20MOL0     H 2700   5.099   8.418   0.902  0.4854  0.5294 -1.3718
   20MOL0     H 2701   4.869   8.325   1.076 -0.2438  2.2049  2.1686
   20MOL0     H 2702   5.025   8.375   1.128  0.6420  0.0450 -0.3175
   20MOL0     H 2703   4.987   8.128   1.123  0.2770  2.6841  1.8830
   20MOL0     H 2704   4.993   8.133   0.942  2.3353  0.4977 -0.8594
   20MOL0     H 2705   5.232   8.153   1.124  0.5560  1.6777 -0.0768
   20MOL0     H 2706   5.229   8.238   0.957 -3.2956 -0.8877 -3.3514
   20MOL0     H 2707   5.222   8.026   0.856  0.9420  1.5750 -0.3454
   20MOL0     H 2708   5.350   8.018   0.971 -0.1471 -2.3067 -2.1478
   20MOL0     H 2709   5.254   7.916   1.224 -0.3982  0.2041  0.3781
   20MOL0     H 2710   5.167   7.597   1.303  1.2443 -0.5825 -1.2049
   20MOL0     H 2711   5.009   7.605   1.234  0.4768  1.6646 -0.2664
   20MOL0     H 2712   5.150   7.767   1.450  0.5205 -1.4272  0.5191
   20MOL0     H 2713   5.028   7.845   1.347  2.6831 -0.6557 -2.5786
   20MOL0     H 2714   4.906   7.778   1.548 -1.7939  0.4568 -0.7729
   20MOL0     H 2715   4.867   7.667   1.415 -0.2773 -1.0395  0.0036
   20MOL0     H 2716   4.904   7.510   1.594  1.4596 -1.4620  0.0448
   20MOL0     H 2717   5.047   7.508   1.501 -0.5405 -1.6769  1.6455
   20MOL0     H 2718   5.063   7.670   1.926 -3.2351 -0.1223  0.7915
   20MOL0     H 2719   5.093   7.641   2.167  0.0358  0.6522  0.2824
   20MOL0     H 2720   5.175   7.483   2.208 -0.9960 -0.2835 -0.1577
   20MOL0     H 2721   4.995   7.508   2.213 -0.2579 -0.2082  0.4336
   20MOL0     H 2722   5.361   7.186   2.204  2.0961 -1.6015 -0.6956
   20MOL0     H 2723   5.461   7.109   2.412  2.5847 -1.3518 -0.8377
   20MOL0     H 2724   5.471   7.027   2.610  1.1233 -0.6452 -1.9145
   20MOL0     H 2725   5.437   6.887   2.722 -2.1828 -1.6073 -2.3695
   20MOL0     H 2726   5.539   6.746   2.536  1.5642 -3.1282  5.8964
   20MOL0     H 2727   5.630   6.900   2.491  1.3023 -0.0673  0.6093
   20MOL0     H 2728   5.754   6.889   2.685  3.0611 -1.5581 -2.8242
   20MOL0     H 2729   5.767   6.733   2.615  2.2793  1.8019  0.2868
   20MOL0     H 2730   5.568   6.662   2.784  2.6028 -2.5039 -1.9132
   20MOL0     H 2731   5.607   6.830   2.855  0.5464  2.4063 -3.0358
   20MOL0     H 2732   5.795   6.596   2.855  0.0777 -0.7033  0.5279
   20MOL0     H 2733   5.839   6.756   2.904  0.3444 -0.9113 -0.1686
   20MOL0     H 2734   5.603   6.594   3.024  0.0285  0.2740 -0.1277
   20MOL0     H 2735   5.658   6.751   3.073 -3.0779 -2.3111  5.1535
   20MOL0     H 2736   5.876   6.660   3.151  0.0988  0.2224 -0.4287
   20MOL0     H 2737   5.831   6.499   3.078 -3.3775 -1.9613  1.7284
   20MOL0     H 2738   5.672   6.466   3.264 -2.6005 -0.3237  2.1912
   20MOL0     H 2739   5.673   6.633   3.305 -1.0929 -0.3261 -1.9732
   20MOL0     H 2740   5.151   6.811   2.426 -3.2017  0.4069 -1.6475
   20MOL0     H 2741   5.056   6.895   2.223  1.1144  0.2938 -2.1550
   20MOL0     H 2742   5.052   7.180   1.848 -0.0972  0.5639  1.0654
   20MOL0     H 2743   5.020   7.328   1.672  2.6455 -1.2732  0.1085
   20MOL0     H 2744   4.533   8.605   0.562  3.1797 -2.3033  1.8666
   20MOL0     H 2745   4.513   8.750   0.340 -0.3548 -1.3198 -0.1081
   20MOL0     H 2746   4.756   8.888  -0.015 -0.4217 -1.3321 -1.5206
   20MOL0     H 2747   4.705   8.927  -0.266 -0.2448  2.1338 -1.6631
   20MOL0     H 2748   4.475   9.257  -0.449  1.9089  1.8694 -0.8632
   20MOL0     H 2749   4.564   9.259  -0.292 -3.6486 -0.4844  0.7967
   20MOL0     H 2750   4.655   9.081  -0.503  3.1735 -0.1307 -0.5543
   20MOL0     H 2751   4.756   9.156  -0.377  0.9346 -0.5215 -1.0159
   20MOL0     H 2752   4.677   9.390  -0.502  2.7016  0.6691  2.4274
   20MOL0     H 2753   4.821   9.316  -0.533  0.8667 -1.3985 -1.7844
   20MOL0     H 2754   4.580   9.233  -0.699  0.5820 -1.1009  0.0143
   20MOL0     H 2755   4.745   9.178  -0.712 -0.4772  0.0944  1.2316
   20MOL0     H 2756   4.716   9.562  -0.929 -1.6797 -1.1193 -2.6944
   20MOL0     H 2757   4.374   9.152  -0.157 -2.2183 -0.6779  1.3722
   20MOL0     H 2758   4.289   9.160   0.062 -0.5663 -4.4263 -1.8405
   20MOL0     H 2759   4.362   9.048   0.191  0.8917 -2.3892 -1.0384
   20MOL0     H 2760   4.426   9.207   0.162 -3.4067  1.2042  1.7102
   21MOL0     O 2761   6.181  10.047   8.106 -1.0053  0.2573 -0.7322
   21MOL0     C 2762   6.087   9.996   8.051 -0.6324  0.6372 -0.6827
   21MOL0     O 2763   6.060  10.012   7.919 -0.5540  0.0511 -0.0517
   21MOL0     C 2764   6.127  10.103   7.840 -0.0938 -0.2589 -0.1321
   21MOL0     C 2765   6.199  10.215   7.876  0.4216 -0.2708  0.9253
   21MOL0     C 2766   6.265  10.297   7.779  0.3595 -0.6763  0.1446
   21MOL0     C 2767   6.247  10.262   7.642  0.2580  0.0007 -0.5276
   21MOL0     O 2768   6.305  10.341   7.543 -0.5946 -0.6813  0.5038
   21MOL0     C 2769   6.243  10.332   7.412 -0.1242 -0.7424  0.6001
   21MOL0     C 2770   6.277  10.438   7.307  0.6790 -0.0709 -0.1282
   21MOL0     C 2771   6.285  10.577   7.358  0.2990 -0.7484 -0.1184
   21MOL0     C 2772   6.153  10.646   7.337 -0.4771  0.2495  0.0909
   21MOL0     C 2773   6.156  10.787   7.390 -0.6656  0.3985 -0.7232
   21MOL0     C 2774   6.250  10.894   7.329  0.5264 -0.6787  0.4270
   21MOL0     C 2775   6.236  11.029   7.399  0.3296 -0.3336 -0.8304
   21MOL0     C 2776   6.327  11.138   7.340  0.7714 -0.1723 -0.2383
   21MOL0     N 2777   6.323  11.258   7.430  0.3699 -0.5128  0.0993
   21MOL0     C 2778   6.370  11.271   7.553 -0.4693  0.8495  0.9639
   21MOL0     C 2779   6.342  11.396   7.589 -0.3258  0.4305 -0.1754
   21MOL0     C 2780   6.396  11.456   7.716  0.3516 -0.3962 -1.3831
   21MOL0     C 2781   6.425  11.348   7.820  0.2767 -0.4107 -0.5881
   21MOL0     C 2782   6.296  11.291   7.875 -0.6354  0.0197 -0.1873
   21MOL0     C 2783   6.305  11.188   7.996  0.0401  0.2202 -0.1465
   21MOL0     O 2784   6.168  11.143   8.025  0.0683  0.1387  0.0034
   21MOL0     C 2785   6.137  11.063   8.135 -0.8463  1.1286  0.1661
   21MOL0     C 2786   6.222  10.988   8.211 -0.5848 -0.0832 -0.1250
   21MOL0     C 2787   6.180  10.903   8.315  0.5541 -0.2737 -0.1818
   21MOL0     C 2788   6.283  10.811   8.383  0.6100 -0.1919 -0.4046
   21MOL0     C 2789   6.045  10.888   8.346  0.0538  0.0879  0.0831
   21MOL0     C 2790   5.984  10.814   8.454 -0.8005 -0.1557  0.1737
   21MOL0     O 2791   5.848  10.809   8.468  0.7455 -0.6652 -0.6726
   21MOL0     C 2792   5.793  10.774   8.590  0.0211  0.3580  0.1483
   21MOL0     C 2793   5.839  10.817   8.713 -0.5134 -0.5254 -0.2866
   21MOL0     C 2794   5.769  10.781   8.822  0.6653  0.5758  0.7415
   21MOL0     C 2795   5.649  10.701   8.816  0.4744 -0.5390 -0.3464
   21MOL0     O 2796   5.578  10.668   8.927  0.4621  0.3809 -0.0892
   21MOL0     C 2797   5.605  10.742   9.048  0.3444  0.9028  0.1431
   21MOL0     C 2798   5.528  10.689   9.168 -0.3754  0.4265 -0.5181
   21MOL0     C 2799   5.542  10.795   9.276 -1.3548  0.6462 -0.3660
   21MOL0     C 2800   5.678  10.783   9.344 -0.2732 -0.5767  0.4793
   21MOL0     C 2801   5.729  10.920   9.385  0.2522 -0.3270  0.2191
   21MOL0     C 2802   5.881  10.906   9.409 -0.0080 -1.0788 -0.5963
   21MOL0     C 2803   5.969  10.920   9.278 -0.1128 -0.2254  1.3248
   21MOL0     C 2804   6.102  10.851   9.287 -0.1157 -0.3679 -0.8409
   21MOL0    Cl 2805   6.100  10.688   9.353 -0.4728  0.2969  0.3080
   21MOL0     C 2806   5.608  10.659   8.687  0.4330 -0.0705  1.1319
   21MOL0     C 2807   5.683  10.703   8.573 -0.6274 -0.2328  0.7855
   21MOL0     O 2808   6.057  10.761   8.532  0.5427 -0.0185 -0.2536
   21MOL0     C 2809   5.957  10.972   8.262  0.0629  0.2848 -0.1260
   21MOL0     C 2810   6.005  11.066   8.167 -0.0709 -0.0850  0.4470
   21MOL0     N 2811   6.285  11.460   7.489 -0.1271  0.3691  0.3459
   21MOL0     N 2812   6.275  11.373   7.392  0.4650 -0.2535  0.2526
   21MOL0     C 2813   6.177  10.150   7.617 -1.0405 -0.1271  0.7961
   21MOL0     C 2814   6.113  10.072   7.709 -0.3733 -0.4614  0.2360
   21MOL0     C 2815   5.995   9.903   8.118  0.2325 -0.6089 -0.6205
   21MOL0     C 2816   5.873   9.879   8.053  0.5835  0.5553  0.7756
   21MOL0     C 2817   5.766   9.800   8.107 -0.8094 -1.0320 -1.3792
   21MOL0     C 2818   5.783   9.742   8.232 -0.4696  0.0080  0.5976
   21MOL0     O 2819   5.682   9.664   8.283 -0.3722 -0.1091  0.7243
   21MOL0     C 2820   5.620   9.729   8.391 -1.1100  0.1679  0.8401
   21MOL0     C 2821   5.473   9.686   8.380 -0.1388  1.3302 -0.6150
   21MOL0     C 2822   5.408   9.721   8.512 -0.0193 -0.2980 -0.0591
   21MOL0     C 2823   5.267   9.664   8.525  0.6372  0.6502 -0.0444
   21MOL0     C 2824   5.177   9.716   8.424 -0.5937  0.0849  0.2656
   21MOL0     C 2825   5.099   9.759   8.348  1.1292 -0.0421  0.0491
   21MOL0     C 2826   5.902   9.770   8.304 -0.0846  0.2676 -0.9815
   21MOL0     C 2827   6.006   9.834   8.248 -0.1147 -1.7381 -0.8072
   21MOL0     C 2828   6.130   9.855   8.343  0.5473  0.9649  0.2102
   21MOL0     H 2829   6.185  10.250   7.977 -0.8924 -1.9314  1.3655
   21MOL0     H 2830   6.330  10.377   7.812 -2.4059  1.0742  1.7465
   21MOL0     H 2831   6.138  10.339   7.442  0.2993  3.0131  1.7923
   21MOL0     H 2832   6.262  10.236   7.365  1.1891  0.2699 -1.0654
   21MOL0     H 2833   6.375  10.414   7.265  0.8630 -1.4464  1.0036
   21MOL0     H 2834   6.197  10.440   7.233  1.7508  0.4556 -1.3119
   21MOL0     H 2835   6.318  10.580   7.462  4.3573  0.8482 -1.2642
   21MOL0     H 2836   6.363  10.628   7.301  0.1371  2.9610  2.6099
   21MOL0     H 2837   6.144  10.649   7.228  1.5663 -2.0010 -0.2456
   21MOL0     H 2838   6.080  10.588   7.394 -0.2822  2.4223  2.7811
   21MOL0     H 2839   6.188  10.776   7.494 -2.0709 -0.7514 -0.3732
   21MOL0     H 2840   6.052  10.816   7.382 -1.2308 -0.1098  3.0238
   21MOL0     H 2841   6.356  10.873   7.339  1.2415  2.5661  0.7472
   21MOL0     H 2842   6.231  10.895   7.221  1.5197 -1.4385  0.2380
   21MOL0     H 2843   6.252  11.004   7.504 -1.9504  1.1348 -0.0575
   21MOL0     H 2844   6.138  11.075   7.383  0.6433  0.6820  0.1337
   21MOL0     H 2845   6.433  11.109   7.341  0.1626 -3.3574 -3.9386
   21MOL0     H 2846   6.292  11.158   7.238  2.1338 -0.6969 -0.8409
   21MOL0     H 2847   6.421  11.191   7.606  2.9796  0.3416 -2.6475
   21MOL0     H 2848   6.321  11.529   7.748 -0.9561 -2.1718 -0.2241
   21MOL0     H 2849   6.487  11.512   7.693  0.6295 -1.8385 -4.1706
   21MOL0     H 2850   6.487  11.269   7.775 -1.9201 -1.0262 -2.7826
   21MOL0     H 2851   6.480  11.405   7.896  0.5953 -1.5426  0.0538
   21MOL0     H 2852   6.232  11.372   7.913  1.8995  2.2000 -0.2377
   21MOL0     H 2853   6.247  11.220   7.809 -0.0511 -0.7863  0.2192
   21MOL0     H 2854   6.373  11.104   7.978  0.5878 -0.0804  2.7882
   21MOL0     H 2855   6.348  11.230   8.088  0.3869  1.3653 -0.8113
   21MOL0     H 2856   6.329  10.998   8.199 -0.4527  0.1222  1.0529
   21MOL0     H 2857   6.273  10.819   8.492  3.0368  0.3249 -0.1688
   21MOL0     H 2858   6.383  10.845   8.356  0.0275  0.5894 -1.6467
   21MOL0     H 2859   6.264  10.708   8.351 -2.6447 -0.1317  0.9425
   21MOL0     H 2860   5.928  10.879   8.718 -0.3695 -0.5670 -1.8625
   21MOL0     H 2861   5.813  10.811   8.916  3.6947  2.4525 -1.1092
   21MOL0     H 2862   5.710  10.719   9.068  0.5280 -0.8548 -2.3589
   21MOL0     H 2863   5.588  10.850   9.039 -0.5083  0.6167 -3.0329
   21MOL0     H 2864   5.422  10.664   9.164  0.1927 -2.1875 -0.6971
   21MOL0     H 2865   5.571  10.594   9.201 -3.4646 -0.6575  0.6851
   21MOL0     H 2866   5.463  10.775   9.349  1.3829  1.0108  2.9014
   21MOL0     H 2867   5.534  10.896   9.235  2.0895  1.1573 -0.0955
   21MOL0     H 2868   5.757  10.751   9.276  2.3098  3.0253  1.5195
   21MOL0     H 2869   5.680  10.721   9.434 -0.3922 -1.0902  0.1388
   21MOL0     H 2870   5.707  11.000   9.313  3.0608 -0.6434 -1.1039
   21MOL0     H 2871   5.687  10.948   9.483  0.9737 -0.4427  0.5694
   21MOL0     H 2872   5.890  10.816   9.471 -3.2441 -0.0424  1.6238
   21MOL0     H 2873   5.917  10.983   9.478 -0.4786 -0.4079 -1.0911
   21MOL0     H 2874   5.983  11.016   9.226 -0.6309 -0.5641  0.5599
   21MOL0     H 2875   5.922  10.853   9.207  2.1067 -1.1984  0.6825
   21MOL0     H 2876   6.167  10.912   9.350 -1.5911  0.1558  0.2140
   21MOL0     H 2877   6.137  10.840   9.184  0.9231 -0.6539 -0.4637
   21MOL0     H 2878   5.512  10.612   8.674  1.8516 -2.4383 -1.8580
   21MOL0     H 2879   5.637  10.698   8.474  3.5489 -1.1145 -1.3331
   21MOL0     H 2880   5.854  10.980   8.295  0.5422  2.9761  0.9938
   21MOL0     H 2881   5.946  11.130   8.102  0.3971 -0.7661 -0.6666
   21MOL0     H 2882   6.171  10.095   7.523  3.5434 -1.4630  1.0095
   21MOL0     H 2883   6.054   9.987   7.676  0.0255 -1.2128  1.3792
   21MOL0     H 2884   5.853   9.913   7.952  0.4666 -0.2500  0.5145
   21MOL0     H 2885   5.679   9.788   8.044  0.6870 -1.9756 -3.3749
   21MOL0     H 2886   5.669   9.708   8.487 -0.4316  0.0873  0.4847
   21MOL0     H 2887   5.632   9.836   8.374 -0.3938  0.0595  0.6149
   21MOL0     H 2888   5.475   9.580   8.352  0.6471  1.3043 -0.4874
   21MOL0     H 2889   5.421   9.727   8.293 -0.2199 -0.5612 -1.5149
   21MOL0     H 2890   5.465   9.673   8.592  0.0767 -3.4028 -1.8416
   21MOL0     H 2891   5.410   9.831   8.510 -1.0155 -0.2309  1.1730
   21MOL0     H 2892   5.223   9.684   8.623  1.5127 -0.8446  0.6856
   21MOL0     H 2893   5.261   9.555   8.519 -1.7459  0.7340 -0.0463
   21MOL0     H 2894   5.035   9.793   8.269  2.2377  1.1327 -0.3882
   21MOL0     H 2895   5.905   9.727   8.403 -2.6511  3.8116  0.8519
   21MOL0     H 2896   6.137   9.959   8.378 -0.3835  1.9177 -2.2047
   21MOL0     H 2897   6.120   9.797   8.435  3.2840  0.8798  0.5452
   21MOL0     H 2898   6.218   9.815   8.291 -0.5769 -2.1121  0.4919
   22MOL0     O 2899   9.891   7.297   0.633 -0.5945 -0.2147  0.4124
   22MOL0     C 2900   9.788   7.227   0.611 -0.9336 -0.4602 -0.8006
   22MOL0     O 2901   9.670   7.276   0.560 -0.9162 -0.2335  0.1387
   22MOL0     C 2902   9.654   7.415   0.555  0.0281  0.7198 -0.5555
   22MOL0     C 2903   9.535   7.468   0.605 -0.6862  0.9210  0.7795
   22MOL0     C 2904   9.505   7.604   0.605 -0.6652 -0.0509 -0.0128
   22MOL0     C 2905   9.602   7.683   0.544 -0.8582  0.1010  0.5887
   22MOL0     O 2906   9.574   7.816   0.507 -0.5988 -0.3926  0.3764
   22MOL0     C 2907   9.433   7.863   0.502  0.4473 -0.3243 -0.1332
   22MOL0     C 2908   9.426   8.012   0.476  0.7108 -0.5689  0.3438
   22MOL0     C 2909   9.279   8.062   0.482  0.8056 -0.1843  0.1169
   22MOL0     C 2910   9.248   8.196   0.560 -0.6792 -0.2853 -0.6032
   22MOL0     C 2911   9.301   8.319   0.487  0.3328  0.3245  0.5808
   22MOL0     C 2912   9.281   8.451   0.565  0.2464  0.0846  0.4157
   22MOL0     C 2913   9.380   8.562   0.508  0.1309  0.5813  0.1868
   22MOL0     C 2914   9.491   8.598   0.627 -1.7899 -0.7107 -0.0920
   22MOL0     N 2915   9.449   8.672   0.747 -1.5046 -0.0546  0.4915
   22MOL0     C 2916   9.326   8.730   0.774  0.2067 -0.0611  0.3410
   22MOL0     C 2917   9.324   8.756   0.902 -0.6015  0.6142 -0.7881
   22MOL0     C 2918   9.195   8.804   0.968 -0.6332  1.5839 -0.9887
   22MOL0     C 2919   9.137   8.702   1.066 -0.3944  0.0883 -0.4674
   22MOL0     C 2920   9.051   8.585   0.994  0.0559 -0.4533 -1.1204
   22MOL0     C 2921   8.919   8.642   0.929  0.5718  1.0170 -0.2025
   22MOL0     O 2922   8.844   8.748   0.989 -0.0293 -0.3101  0.3697
   22MOL0     C 2923   8.717   8.773   0.949  0.0767  0.6319  0.4484
   22MOL0     C 2924   8.661   8.752   0.821  0.9438 -0.1667  1.3463
   22MOL0     C 2925   8.525   8.785   0.793 -0.4387  0.2796 -0.6607
   22MOL0     C 2926   8.472   8.770   0.652 -0.7215  1.2614  0.4619
   22MOL0     C 2927   8.442   8.829   0.900 -0.1615  0.3039 -0.5518
   22MOL0     C 2928   8.298   8.875   0.889 -0.5121 -1.3929  0.0232
   22MOL0     O 2929   8.233   8.889   1.001 -0.5011  0.2988  0.3870
   22MOL0     C 2930   8.099   8.911   0.996  0.7312  0.6201 -1.0661
   22MOL0     C 2931   8.009   8.815   0.939 -0.6991 -0.7385 -0.3190
   22MOL0     C 2932   7.880   8.837   0.939  0.7081  0.9743  0.1638
   22MOL0     C 2933   7.824   8.943   1.006 -0.1596 -0.5978 -0.3347
   22MOL0     O 2934   7.679   8.947   1.002 -0.8883 -0.4119  0.3166
   22MOL0     C 2935   7.628   8.948   1.138  0.3275  0.0340  0.2031
   22MOL0     C 2936   7.564   8.810   1.164  0.8768  0.2345  0.4982
   22MOL0     C 2937   7.489   8.765   1.045  0.3094  0.2576 -0.9140
   22MOL0     C 2938   7.366   8.674   1.091 -0.4641  0.3824 -1.0038
   22MOL0     C 2939   7.309   8.588   0.972 -0.5659  0.0859 -0.8949
   22MOL0     C 2940   7.211   8.674   0.894 -0.8847 -0.3055 -0.3903
   22MOL0     C 2941   7.141   8.592   0.788  0.3663 -0.5710 -0.5065
   22MOL0     C 2942   7.045   8.676   0.708  0.4272  0.0462  0.5085
   22MOL0    Cl 2943   6.988   8.568   0.579 -0.4975 -0.3245  0.0406
   22MOL0     C 2944   7.902   9.038   1.067  0.4019 -0.3094 -0.6459
   22MOL0     C 2945   8.039   9.024   1.064 -0.1654  0.3473  0.5814
   22MOL0     O 2946   8.251   8.883   0.782  0.0513 -0.6019  0.3291
   22MOL0     C 2947   8.498   8.840   1.031  0.0169  1.1302 -0.5451
   22MOL0     C 2948   8.633   8.811   1.054 -0.5530 -0.3062 -0.4619
   22MOL0     N 2949   9.432   8.698   0.961 -0.5333  0.0885  0.3934
   22MOL0     N 2950   9.508   8.652   0.870 -0.2374 -0.2005  0.0157
   22MOL0     C 2951   9.724   7.634   0.484  0.2937 -1.2272  0.0144
   22MOL0     C 2952   9.750   7.495   0.495 -0.4550 -0.6456  0.1170
   22MOL0     C 2953   9.796   7.086   0.660 -0.5189  0.7755 -0.0232
   22MOL0     C 2954   9.696   6.995   0.611  0.5134  0.6508  0.0789
   22MOL0     C 2955   9.692   6.866   0.645 -0.8630  0.1754 -0.4345
   22MOL0     C 2956   9.782   6.812   0.737  0.3529  0.4146  0.3461
   22MOL0     O 2957   9.764   6.673   0.772 -0.3316 -0.4854  0.2384
   22MOL0     C 2958   9.860   6.600   0.854  0.1178 -0.6152 -0.0947
   22MOL0     C 2959   9.994   6.597   0.788  0.6563  0.4081  0.7398
   22MOL0     C 2960  10.105   6.551   0.882 -0.0045 -0.2842 -0.1858
   22MOL0     C 2961  10.244   6.618   0.845  0.6458 -1.6263 -0.2889
   22MOL0     C 2962  10.344   6.600   0.949  0.5281 -0.2175  0.3153
   22MOL0     C 2963  10.426   6.572   1.035  0.4189  0.6223  0.3094
   22MOL0     C 2964   9.874   6.900   0.790  0.5085  0.0450 -0.5793
   22MOL0     C 2965   9.890   7.028   0.750 -0.6971  0.1499 -0.5456
   22MOL0     C 2966   9.989   7.117   0.818 -0.3640  0.3217  0.0197
   22MOL0     H 2967   9.471   7.394   0.652 -2.7289  0.8826 -1.8046
   22MOL0     H 2968   9.413   7.641   0.648 -2.4881 -2.7241 -1.3194
   22MOL0     H 2969   9.384   7.834   0.595 -0.3702 -3.5042 -1.4097
   22MOL0     H 2970   9.373   7.818   0.423 -0.7805 -3.1486  2.2175
   22MOL0     H 2971   9.486   8.070   0.547 -0.5689 -0.2383  1.1843
   22MOL0     H 2972   9.466   8.032   0.376 -0.6161  3.8875  0.4750
   22MOL0     H 2973   9.229   8.072   0.385  0.8861  2.2097  0.2665
   22MOL0     H 2974   9.215   7.982   0.519 -0.1811 -0.4746 -2.0398
   22MOL0     H 2975   9.142   8.210   0.579 -0.4019  0.4822  0.5153
   22MOL0     H 2976   9.280   8.183   0.664  0.6308 -1.8981 -1.1491
   22MOL0     H 2977   9.258   8.328   0.387  1.0857 -1.4123  0.0701
   22MOL0     H 2978   9.408   8.301   0.475  0.2667  0.2737  0.0711
   22MOL0     H 2979   9.177   8.485   0.569  0.3516  0.3298  2.0267
   22MOL0     H 2980   9.293   8.440   0.674 -3.4406 -1.0901  0.8342
   22MOL0     H 2981   9.322   8.654   0.498 -4.6665 -1.4295  4.9428
   22MOL0     H 2982   9.434   8.529   0.418 -0.0621  0.3359  0.1630
   22MOL0     H 2983   9.540   8.504   0.657  1.2663  0.9271  0.4405
   22MOL0     H 2984   9.575   8.656   0.589 -1.5380 -2.0026 -1.6215
   22MOL0     H 2985   9.247   8.741   0.700 -0.5218  0.5255  1.1901
   22MOL0     H 2986   9.121   8.826   0.891 -1.7919  0.4812 -0.2135
   22MOL0     H 2987   9.209   8.893   1.031  0.3928 -1.0663  2.9058
   22MOL0     H 2988   9.212   8.660   1.133 -0.7538  0.3473  0.1089
   22MOL0     H 2989   9.062   8.750   1.130 -0.3825 -1.3130  0.6462
   22MOL0     H 2990   9.118   8.545   0.917 -0.3531  1.2680 -2.4185
   22MOL0     H 2991   9.011   8.509   1.062 -2.3328 -0.2769 -2.2526
   22MOL0     H 2992   8.943   8.660   0.824  2.0039 -0.1886 -0.1228
   22MOL0     H 2993   8.854   8.554   0.943 -0.5180  1.8635  0.2018
   22MOL0     H 2994   8.723   8.719   0.738  0.2428 -1.2833  1.2490
   22MOL0     H 2995   8.399   8.689   0.641 -1.0146  1.3359  1.7256
   22MOL0     H 2996   8.545   8.748   0.574 -1.7923 -1.8372  0.1831
   22MOL0     H 2997   8.431   8.866   0.619 -0.1736  1.5003  0.4676
   22MOL0     H 2998   8.048   8.727   0.888 -1.0891  0.5761 -3.0305
   22MOL0     H 2999   7.808   8.775   0.886 -1.7726  2.3436  1.7285
   22MOL0     H 3000   7.697   8.970   1.220  1.4984  2.6273 -1.3538
   22MOL0     H 3001   7.549   9.023   1.147  0.7128  0.6682 -1.3754
   22MOL0     H 3002   7.641   8.735   1.187  0.6011 -0.3326 -0.4059
   22MOL0     H 3003   7.503   8.820   1.254  1.3394  1.0449  0.7372
   22MOL0     H 3004   7.548   8.708   0.973  1.5378 -0.2184  0.4227
   22MOL0     H 3005   7.445   8.848   0.989 -2.1374 -1.2883 -1.4609
   22MOL0     H 3006   7.283   8.723   1.142  0.6122  1.1160  0.1052
   22MOL0     H 3007   7.414   8.611   1.167 -0.9590 -0.0345 -1.0300
   22MOL0     H 3008   7.392   8.551   0.910  0.8450 -1.2585  1.6594
   22MOL0     H 3009   7.251   8.505   1.013 -1.9713  0.3292 -2.2810
   22MOL0     H 3010   7.266   8.757   0.850  0.2252 -1.1722 -0.6664
   22MOL0     H 3011   7.128   8.706   0.958 -1.4627  1.2998 -1.8729
   22MOL0     H 3012   7.082   8.521   0.846 -0.7135  0.5441 -0.1819
   22MOL0     H 3013   7.209   8.548   0.715  0.5465  0.4189 -0.9545
   22MOL0     H 3014   7.104   8.755   0.661  2.3626 -1.4876  0.2328
   22MOL0     H 3015   6.957   8.704   0.767 -0.0924 -3.9376  1.9598
   22MOL0     H 3016   7.861   9.122   1.123 -0.5489 -0.3826 -1.2176
   22MOL0     H 3017   8.101   9.106   1.098  0.4252  1.1665 -2.2307
   22MOL0     H 3018   8.442   8.859   1.122  0.1176 -0.8656 -0.0157
   22MOL0     H 3019   8.675   8.822   1.153  0.9719 -0.8217 -1.0277
   22MOL0     H 3020   9.793   7.695   0.427 -0.7684  1.3204  1.2994
   22MOL0     H 3021   9.849   7.472   0.458 -1.0437 -0.5933 -1.5791
   22MOL0     H 3022   9.616   7.017   0.541 -1.8475 -0.5094  2.2500
   22MOL0     H 3023   9.613   6.803   0.607  0.5284 -0.1997 -2.8898
   22MOL0     H 3024   9.851   6.639   0.955 -2.5099  0.2241 -0.5710
   22MOL0     H 3025   9.825   6.496   0.853 -0.6489 -0.3648  0.1331
   22MOL0     H 3026  10.023   6.697   0.756  1.8361  0.1627  0.9965
   22MOL0     H 3027   9.999   6.523   0.707  3.9402  1.0862  0.1997
   22MOL0     H 3028  10.069   6.564   0.985 -0.3115 -3.6178  0.2593
   22MOL0     H 3029  10.125   6.444   0.875 -1.0203 -0.5405  0.4617
   22MOL0     H 3030  10.225   6.725   0.830  0.6544 -1.3823  1.2894
   22MOL0     H 3031  10.283   6.572   0.753 -2.2146 -4.0842 -0.4423
   22MOL0     H 3032  10.480   6.563   1.128 -1.0072 -0.8430  1.0504
   22MOL0     H 3033   9.941   6.859   0.865 -1.7219 -1.9054  0.4880
   22MOL0     H 3034   9.930   7.207   0.841 -1.1131 -0.0786 -0.2819
   22MOL0     H 3035  10.019   7.088   0.919  4.2175  2.5037 -0.4491
   22MOL0     H 3036  10.077   7.147   0.761 -1.1690  2.3006 -0.2399
   23MOL0     O 3037  10.525  10.722   4.998  0.5065  0.7014  1.1744
   23MOL0     C 3038  10.563  10.772   5.103 -0.5792 -1.2331 -0.2701
   23MOL0     O 3039  10.567  10.714   5.223 -0.2292  1.2289  0.2102
   23MOL0     C 3040  10.565  10.577   5.217  0.9493 -0.4193  0.3908
   23MOL0     C 3041  10.671  10.512   5.154 -0.1167  1.4143  0.3144
   23MOL0     C 3042  10.673  10.369   5.154  0.3071  0.4599  0.6050
   23MOL0     C 3043  10.563  10.296   5.209  0.6885  0.4013 -0.0405
   23MOL0     O 3044  10.555  10.164   5.217  0.2744  0.4487  0.5515
   23MOL0     C 3045  10.680  10.087   5.204  0.1933 -0.5445 -0.4848
   23MOL0     C 3046  10.656   9.935   5.205 -0.3713 -0.5211 -0.6977
   23MOL0     C 3047  10.607   9.890   5.347  1.1385  0.0312 -0.2930
   23MOL0     C 3048  10.612   9.731   5.350  0.6509 -0.7177  0.1403
   23MOL0     C 3049  10.520   9.663   5.244 -0.1021  0.4221  0.2600
   23MOL0     C 3050  10.496   9.511   5.275 -0.2576  0.1333  0.5445
   23MOL0     C 3051  10.392   9.464   5.173  0.4998 -0.4930 -0.5840
   23MOL0     C 3052  10.429   9.477   5.027  0.5316 -0.5066  0.6004
   23MOL0     N 3053  10.313   9.437   4.942  0.4190 -0.1115 -0.5725
   23MOL0     C 3054  10.198   9.507   4.907  0.4199 -0.6919  0.2728
   23MOL0     C 3055  10.112   9.416   4.847  0.4731 -0.8074 -0.4263
   23MOL0     C 3056   9.970   9.425   4.782 -0.4137 -0.1155 -0.5958
   23MOL0     C 3057   9.928   9.558   4.726  0.2610  0.1232  0.1932
   23MOL0     C 3058   9.991   9.589   4.592  0.0558 -0.1921 -0.1976
   23MOL0     C 3059   9.942   9.724   4.542 -0.6712 -0.5074 -0.1976
   23MOL0     O 3060   9.940   9.827   4.635 -0.5557 -0.5991  0.3932
   23MOL0     C 3061   9.978   9.943   4.574 -1.0474 -0.0760 -0.6634
   23MOL0     C 3062   9.880  10.019   4.518  0.5787 -0.4435  1.1167
   23MOL0     C 3063   9.901  10.153   4.473  0.1845 -0.0828  0.8361
   23MOL0     C 3064   9.793  10.230   4.416  0.1351  0.4226  0.2079
   23MOL0     C 3065  10.025  10.215   4.500 -0.4183 -0.6504  0.7832
   23MOL0     C 3066  10.059  10.351   4.470  0.3137  1.1185 -0.3319
   23MOL0     O 3067  10.201  10.370   4.457 -0.1846  0.6089  0.0470
   23MOL0     C 3068  10.245  10.494   4.430  0.0284  1.2708  0.2026
   23MOL0     C 3069  10.259  10.525   4.298 -0.7338  0.4998  0.2908
   23MOL0     C 3070  10.297  10.653   4.253 -0.6142 -0.0681 -0.5660
   23MOL0     C 3071  10.309  10.750   4.347 -0.2310 -0.2667  0.6579
   23MOL0     O 3072  10.340  10.873   4.306  0.3386 -1.0230  0.2339
   23MOL0     C 3073  10.475  10.910   4.333 -0.5111  0.6263 -0.5845
   23MOL0     C 3074  10.554  10.879   4.210 -0.7783 -0.1361  0.7085
   23MOL0     C 3075  10.705  10.936   4.222 -0.3036 -0.3259  0.1060
   23MOL0     C 3076  10.786  10.902   4.098 -0.1695  0.0507  0.3698
   23MOL0     C 3077  10.723  10.941   3.965 -0.1588 -0.1534 -0.2156
   23MOL0     C 3078  10.835  10.935   3.856  1.0058  0.0613  0.2278
   23MOL0     C 3079  10.868  10.786   3.821  0.8155  0.0121 -0.5210
   23MOL0     C 3080  10.752  10.731   3.735 -0.3395  0.0012  0.6544
   23MOL0    Cl 3081  10.829  10.591   3.652  0.2272 -0.2351  0.3343
   23MOL0     C 3082  10.296  10.729   4.484 -1.2490 -0.1115 -0.5586
   23MOL0     C 3083  10.262  10.605   4.528 -0.2877  0.0725  0.2506
   23MOL0     O 3084   9.976  10.443   4.463 -0.3608  1.0434  0.4055
   23MOL0     C 3085  10.131  10.131   4.562  0.3626  0.6238 -0.3659
   23MOL0     C 3086  10.103  10.003   4.598  0.3071  1.0471 -0.0765
   23MOL0     N 3087  10.169   9.291   4.855  0.0289 -0.3000 -0.2770
   23MOL0     N 3088  10.283   9.308   4.911 -0.4180  0.3325  0.0866
   23MOL0     C 3089  10.454  10.360   5.265  0.3598 -0.3007  1.1821
   23MOL0     C 3090  10.453  10.501   5.272 -0.4257  0.8053 -0.6894
   23MOL0     C 3091  10.614  10.913   5.112  0.3223 -1.7875  1.1271
   23MOL0     C 3092  10.687  10.961   5.226  0.5229  0.1803 -0.5666
   23MOL0     C 3093  10.720  11.101   5.234 -0.6940 -0.2539  0.0246
   23MOL0     C 3094  10.695  11.189   5.132 -0.3211 -0.3340 -0.2717
   23MOL0     O 3095  10.717  11.317   5.154 -0.2179 -0.0497 -0.3521
   23MOL0     C 3096  10.706  11.412   5.043 -0.1207 -0.2776  0.3997
   23MOL0     C 3097  10.730  11.552   5.084 -0.3098 -0.0542  0.0397
   23MOL0     C 3098  10.686  11.669   4.996 -0.1599  0.3528 -0.3447
   23MOL0     C 3099  10.685  11.799   5.079 -1.0643 -0.7853 -0.6188
   23MOL0     C 3100  10.813  11.819   5.148 -0.3359  0.8123  0.5247
   23MOL0     C 3101  10.913  11.834   5.209 -0.4132 -0.1362 -0.1417
   23MOL0     C 3102  10.628  11.138   5.015  0.6561  0.1407 -0.5802
   23MOL0     C 3103  10.595  11.004   5.009  0.2458  0.2103  0.1273
   23MOL0     C 3104  10.536  10.972   4.869  0.2059  0.2584 -0.7497
   23MOL0     H 3105  10.758  10.563   5.114 -0.6947  0.0266 -2.9592
   23MOL0     H 3106  10.762  10.321   5.115 -1.1021 -0.5879 -1.4637
   23MOL0     H 3107  10.755  10.121   5.276 -1.5306  0.9426  0.7067
   23MOL0     H 3108  10.719  10.096   5.102  0.3715  0.2664 -0.3496
   23MOL0     H 3109  10.576   9.914   5.132  0.0973 -1.1799 -1.0279
   23MOL0     H 3110  10.746   9.884   5.169  0.7633  2.0103 -1.7215
   23MOL0     H 3111  10.666   9.930   5.430 -0.2402 -0.8886  1.1865
   23MOL0     H 3112  10.504   9.908   5.379 -0.6028 -2.1130 -4.0875
   23MOL0     H 3113  10.715   9.695   5.347 -0.5620 -4.7210  0.5271
   23MOL0     H 3114  10.585   9.695   5.450  0.0071 -0.3724  0.0959
   23MOL0     H 3115  10.575   9.672   5.149  0.2787  1.7865  0.5774
   23MOL0     H 3116  10.423   9.709   5.225 -0.4246 -0.2612  0.2272
   23MOL0     H 3117  10.589   9.459   5.251 -1.5694 -1.8098 -0.5863
   23MOL0     H 3118  10.462   9.483   5.375 -0.8589 -0.3779  0.1985
   23MOL0     H 3119  10.296   9.514   5.191  0.5485 -0.7674  0.5444
   23MOL0     H 3120  10.362   9.362   5.201 -1.9773  0.0581 -1.0218
   23MOL0     H 3121  10.469   9.575   5.000  1.1461 -1.7497 -3.7444
   23MOL0     H 3122  10.516   9.413   5.012  2.0855  2.0873 -2.3917
   23MOL0     H 3123  10.170   9.612   4.907 -2.0403 -1.1155 -3.9547
   23MOL0     H 3124   9.897   9.402   4.861  1.3413  1.3207  1.5446
   23MOL0     H 3125   9.962   9.351   4.701  0.8298 -1.8591  0.7834
   23MOL0     H 3126   9.819   9.545   4.723  0.0601  1.7795 -2.3447
   23MOL0     H 3127   9.954   9.638   4.796 -0.0586 -0.1107  0.5845
   23MOL0     H 3128  10.100   9.601   4.597 -0.1866  2.1043  1.0042
   23MOL0     H 3129   9.971   9.512   4.517  0.1160 -2.5081  2.0135
   23MOL0     H 3130  10.016   9.750   4.465  0.4205  0.5489  1.1505
   23MOL0     H 3131   9.848   9.699   4.491 -0.5870  2.2561 -1.9076
   23MOL0     H 3132   9.781   9.979   4.501 -0.0112 -0.6216  4.3820
   23MOL0     H 3133   9.823  10.275   4.321  1.3955 -1.9706 -0.6087
   23MOL0     H 3134   9.753  10.303   4.486  1.4527  1.9552 -0.5730
   23MOL0     H 3135   9.719  10.157   4.380  0.8411 -0.5839  0.7478
   23MOL0     H 3136  10.237  10.455   4.218 -0.2587 -0.3003  0.8454
   23MOL0     H 3137  10.294  10.689   4.151 -0.2806  2.6128  0.2999
   23MOL0     H 3138  10.489  11.018   4.337 -1.5469  0.7346  2.4033
   23MOL0     H 3139  10.518  10.860   4.421  0.7447  0.0081 -1.5178
   23MOL0     H 3140  10.556  10.771   4.189  1.7790  0.0680 -0.5308
   23MOL0     H 3141  10.507  10.921   4.121 -0.2016  1.4934  1.1489
   23MOL0     H 3142  10.756  10.889   4.306 -2.8212 -2.2638  0.6779
   23MOL0     H 3143  10.704  11.044   4.236  2.0519 -0.4005  1.3341
   23MOL0     H 3144  10.777  10.793   4.095 -3.9810  0.1913  0.8084
   23MOL0     H 3145  10.887  10.943   4.099  0.3616 -1.1880 -0.4002
   23MOL0     H 3146  10.640  10.874   3.944 -1.1054  1.0585 -0.4848
   23MOL0     H 3147  10.696  11.047   3.978  0.9027 -0.2098  3.8068
   23MOL0     H 3148  10.923  10.987   3.895  0.8434 -0.7367  1.7030
   23MOL0     H 3149  10.801  10.973   3.759 -0.8081 -4.3743 -1.1384
   23MOL0     H 3150  10.883  10.725   3.910  0.5874  2.6236  1.4000
   23MOL0     H 3151  10.959  10.790   3.760 -0.1121  0.9779 -1.9045
   23MOL0     H 3152  10.727  10.801   3.655  1.0362 -0.7973 -0.5185
   23MOL0     H 3153  10.661  10.705   3.790 -2.7758 -0.0861 -3.0669
   23MOL0     H 3154  10.318  10.808   4.555  1.6896 -0.2681 -1.1729
   23MOL0     H 3155  10.240  10.586   4.633  0.2932  3.5026  1.1051
   23MOL0     H 3156  10.222  10.180   4.595 -1.1611  1.5812  2.7568
   23MOL0     H 3157  10.178   9.933   4.634 -2.4710 -1.6417  0.8446
   23MOL0     H 3158  10.365  10.309   5.301 -1.7009  0.8237 -1.9478
   23MOL0     H 3159  10.371  10.562   5.310  0.0819  0.7292  0.5474
   23MOL0     H 3160  10.711  10.889   5.304 -0.9451  0.0492 -0.2116
   23MOL0     H 3161  10.782  11.123   5.321  1.0927 -3.1621 -0.3590
   23MOL0     H 3162  10.787  11.392   4.973  1.4499  0.8044  1.8196
   23MOL0     H 3163  10.610  11.392   4.994 -0.2346  1.2235 -0.0478
   23MOL0     H 3164  10.834  11.562   5.116 -0.5709  0.1972  0.8401
   23MOL0     H 3165  10.675  11.563   5.178  2.8605 -1.2956  2.1941
   23MOL0     H 3166  10.749  11.678   4.907 -2.2166  1.5943 -1.7880
   23MOL0     H 3167  10.590  11.647   4.948  0.0081  0.0201 -0.5311
   23MOL0     H 3168  10.597  11.792   5.143 -1.8029 -2.2155 -1.7129
   23MOL0     H 3169  10.665  11.887   5.017  0.1481 -0.7980 -1.0478
   23MOL0     H 3170  11.005  11.839   5.264  0.5322 -2.9712 -1.2699
   23MOL0     H 3171  10.601  11.198   4.928 -1.0726  1.3079  0.6991
   23MOL0     H 3172  10.547  11.059   4.803  2.7837  0.2866 -0.4102
   23MOL0     H 3173  10.595  10.894   4.822 -4.7949 -3.1915 -2.0540
   23MOL0     H 3174  10.435  10.932   4.870  0.9679 -2.0698  2.5823
   24MOL0     O 3175   8.825   3.345   8.836 -0.0513  0.7394 -0.6139
   24MOL0     C 3176   8.909   3.430   8.806  0.6682  0.9904  0.8323
   24MOL0     O 3177   9.041   3.396   8.784  0.0905  0.3224 -0.8503
   24MOL0     C 3178   9.070   3.258   8.799  0.2491  0.5876 -0.3870
   24MOL0     C 3179   9.113   3.210   8.923  0.0916 -0.4338 -0.3928
   24MOL0     C 3180   9.149   3.075   8.952 -0.2654  0.9530 -0.3229
   24MOL0     C 3181   9.154   2.984   8.844 -0.4023 -0.7051  0.6898
   24MOL0     O 3182   9.169   2.852   8.872 -0.3088 -0.1177  0.0425
   24MOL0     C 3183   9.038   2.804   8.900 -0.1335  1.1532  0.6799
   24MOL0     C 3184   9.044   2.693   9.006  0.2339 -0.0393  0.2470
   24MOL0     C 3185   8.923   2.710   9.104 -0.2595 -0.3728  0.1833
   24MOL0     C 3186   8.914   2.621   9.229 -0.6175  0.2972 -0.0984
   24MOL0     C 3187   8.850   2.491   9.211 -0.0166  0.4858 -0.1995
   24MOL0     C 3188   8.910   2.390   9.100  0.2985 -0.6749  0.4175
   24MOL0     C 3189   9.029   2.309   9.133 -0.4909  0.6440 -0.0407
   24MOL0     C 3190   9.162   2.366   9.084  0.5964  0.3243 -1.4166
   24MOL0     N 3191   9.266   2.277   9.140 -0.3807 -0.1217  0.0035
   24MOL0     C 3192   9.305   2.276   9.268  0.4034  0.3220  0.4642
   24MOL0     C 3193   9.407   2.188   9.276  0.5230  0.5921 -0.0750
   24MOL0     C 3194   9.491   2.156   9.400  0.4236  0.5109 -0.9204
   24MOL0     C 3195   9.613   2.068   9.366 -0.2887 -0.9226  1.0406
   24MOL0     C 3196   9.666   1.986   9.481 -0.1068 -0.8132 -0.1721
   24MOL0     C 3197   9.810   1.951   9.473  0.2764  0.4998 -0.0603
   24MOL0     O 3198   9.820   1.869   9.354 -0.0625 -0.4084 -0.3587
   24MOL0     C 3199   9.943   1.806   9.331  0.4550  0.3383 -0.5816
   24MOL0     C 3200   9.949   1.691   9.256  0.7526 -0.0507 -0.1238
   24MOL0     C 3201  10.071   1.619   9.235  0.6011  0.5843  0.2000
   24MOL0     C 3202  10.069   1.513   9.135  0.1007  0.4839 -0.1010
   24MOL0     C 3203  10.196   1.669   9.280  0.0997  0.2030 -1.1970
   24MOL0     C 3204  10.323   1.594   9.273 -0.1521 -1.5646  0.2308
   24MOL0     O 3205  10.428   1.676   9.242 -0.3448  0.0073 -0.2427
   24MOL0     C 3206  10.538   1.629   9.181 -1.0941 -0.1210  0.8483
   24MOL0     C 3207  10.614   1.519   9.232 -1.0206 -1.0040 -0.0648
   24MOL0     C 3208  10.722   1.465   9.172  0.2809 -0.1875  1.4229
   24MOL0     C 3209  10.756   1.519   9.045  0.4599 -0.2027  0.2656
   24MOL0     O 3210  10.872   1.461   8.986  0.2888 -1.3668 -0.9008
   24MOL0     C 3211  10.964   1.537   8.922 -0.7872  0.0468 -0.2104
   24MOL0     C 3212  11.082   1.440   8.919 -0.2131 -0.2330  0.0656
   24MOL0     C 3213  11.203   1.498   8.838 -0.4767 -0.3732  0.1736
   24MOL0     C 3214  11.321   1.395   8.845  0.0267  0.1263 -0.9079
   24MOL0     C 3215  11.436   1.425   8.753 -1.2086  0.5589 -0.3178
   24MOL0     C 3216  11.580   1.431   8.820  0.1356  0.3735 -0.0074
   24MOL0     C 3217  11.695   1.499   8.731  0.0360  0.9783  0.2764
   24MOL0     C 3218  11.669   1.633   8.671 -0.0844  0.4623 -0.4837
   24MOL0    Cl 3219  11.625   1.739   8.806 -0.4928 -0.4457  0.0098
   24MOL0     C 3220  10.678   1.616   8.983 -0.2792 -0.5589  0.2291
   24MOL0     C 3221  10.576   1.680   9.062 -0.8869  0.2527 -0.2568
   24MOL0     O 3222  10.331   1.476   9.289  0.3363  0.7722  0.1441
   24MOL0     C 3223  10.191   1.791   9.359  0.1859 -0.5205 -0.1116
   24MOL0     C 3224  10.064   1.856   9.384 -0.7130 -0.5676  0.1937
   24MOL0     N 3225   9.420   2.132   9.152 -0.5502  0.8191  0.3948
   24MOL0     N 3226   9.344   2.196   9.069  0.2688  1.1731  0.3372
   24MOL0     C 3227   9.116   3.029   8.717 -0.3095 -1.2503 -0.1705
   24MOL0     C 3228   9.070   3.162   8.702 -0.7304 -0.7230  1.2979
   24MOL0     C 3229   8.867   3.569   8.797 -0.6650 -0.0066 -0.7228
   24MOL0     C 3230   8.936   3.660   8.718 -0.0613  0.0782 -0.5160
   24MOL0     C 3231   8.914   3.797   8.709 -0.6553  0.1841  0.0522
   24MOL0     C 3232   8.827   3.859   8.790  0.5031 -0.1578 -0.0139
   24MOL0     O 3233   8.787   3.988   8.752 -0.2612 -0.2230  0.3064
   24MOL0     C 3234   8.727   4.072   8.849 -0.6585 -0.3426 -0.4125
   24MOL0     C 3235   8.819   4.179   8.905  0.3945 -0.1693 -0.2413
   24MOL0     C 3236   8.912   4.251   8.797  0.2105  0.0624 -0.0756
   24MOL0     C 3237   9.003   4.355   8.869  0.1308  0.5069 -1.0631
   24MOL0     C 3238   9.090   4.284   8.956  1.2083  0.7124  0.7178
   24MOL0     C 3239   9.173   4.229   9.029 -0.9210 -0.1828 -0.4505
   24MOL0     C 3240   8.768   3.774   8.894 -0.6958  0.7718  0.5235
   24MOL0     C 3241   8.780   3.633   8.888 -0.9002 -0.1773  0.3644
   24MOL0     C 3242   8.713   3.563   9.003  0.0228 -0.5218  0.1260
   24MOL0     H 3243   9.110   3.277   9.009  0.5589  1.5132 -1.8224
   24MOL0     H 3244   9.176   3.044   9.052 -0.6343 -0.7348 -0.7165
   24MOL0     H 3245   8.973   2.766   8.821 -1.6895  2.3005  1.3458
   24MOL0     H 3246   8.971   2.880   8.942 -0.9071 -0.4496  2.4882
   24MOL0     H 3247   9.063   2.599   8.954  2.3113  0.5288 -0.1022
   24MOL0     H 3248   9.130   2.716   9.069 -0.9317 -0.2692  1.9829
   24MOL0     H 3249   8.929   2.812   9.143 -0.5497 -0.0939 -0.4787
   24MOL0     H 3250   8.832   2.692   9.046  0.1659 -3.1758  0.2735
   24MOL0     H 3251   9.017   2.606   9.264 -0.5650  0.1806 -0.2993
   24MOL0     H 3252   8.853   2.665   9.308  0.4896 -0.8994  1.4888
   24MOL0     H 3253   8.743   2.515   9.205  0.4662  5.4389  4.0090
   24MOL0     H 3254   8.860   2.445   9.309 -0.0105 -3.8816 -2.0260
   24MOL0     H 3255   8.825   2.321   9.096 -0.3764  0.1433  0.6134
   24MOL0     H 3256   8.921   2.440   9.003  0.7209 -0.0642  0.7740
   24MOL0     H 3257   9.024   2.205   9.099  1.9866  0.7651 -0.9607
   24MOL0     H 3258   9.029   2.299   9.242  1.9270  1.0205  0.0404
   24MOL0     H 3259   9.174   2.373   8.976 -1.9096 -1.7341 -1.9181
   24MOL0     H 3260   9.169   2.466   9.127  1.2355 -1.0925  2.1225
   24MOL0     H 3261   9.281   2.351   9.344 -0.7463  1.4021 -0.9091
   24MOL0     H 3262   9.423   2.104   9.468  0.9635  0.0036 -0.7624
   24MOL0     H 3263   9.526   2.244   9.454 -1.0104  0.1489  0.6779
   24MOL0     H 3264   9.581   1.994   9.292 -0.0591  1.3073 -1.4285
   24MOL0     H 3265   9.699   2.116   9.319 -1.2292 -1.0910 -0.9564
   24MOL0     H 3266   9.649   2.049   9.569  0.8877 -2.1188  0.9949
   24MOL0     H 3267   9.615   1.890   9.474 -0.3648 -0.5958 -1.5236
   24MOL0     H 3268   9.873   2.040   9.468  2.1591 -0.6522  1.4411
   24MOL0     H 3269   9.853   1.890   9.554 -0.8501 -3.7017 -2.3223
   24MOL0     H 3270   9.857   1.655   9.212  0.6433  1.4705 -1.2384
   24MOL0     H 3271  10.049   1.412   9.173 -1.0157  0.2838 -1.1312
   24MOL0     H 3272  10.164   1.520   9.082  2.9969 -2.2974  4.1140
   24MOL0     H 3273   9.986   1.526   9.064  0.1462 -0.3057 -0.3074
   24MOL0     H 3274  10.606   1.489   9.336  3.4063  2.2353  1.5159
   24MOL0     H 3275  10.786   1.381   9.196  1.7205  0.4931  0.1082
   24MOL0     H 3276  10.942   1.561   8.818  3.1872  0.2142 -1.1599
   24MOL0     H 3277  10.999   1.627   8.975  4.1241 -0.8467 -1.5350
   24MOL0     H 3278  11.122   1.418   9.019 -0.6480 -2.3210 -0.1587
   24MOL0     H 3279  11.045   1.349   8.871 -0.7410  0.9797 -1.9496
   24MOL0     H 3280  11.230   1.599   8.868 -2.2009  1.3200 -3.3012
   24MOL0     H 3281  11.174   1.502   8.732  1.6682 -0.4030 -0.4472
   24MOL0     H 3282  11.283   1.294   8.829 -3.0100  1.4010 -2.6988
   24MOL0     H 3283  11.364   1.408   8.945 -1.9554  0.2970 -0.0348
   24MOL0     H 3284  11.432   1.339   8.685  1.3081 -1.2252  1.6207
   24MOL0     H 3285  11.422   1.519   8.699  0.1267  1.3063  0.6083
   24MOL0     H 3286  11.599   1.324   8.832 -1.7431  0.1783  1.6653
   24MOL0     H 3287  11.575   1.470   8.922 -0.5806  1.0129 -0.2720
   24MOL0     H 3288  11.716   1.433   8.646  0.2104  0.0177  1.0433
   24MOL0     H 3289  11.781   1.509   8.798  0.8900  1.6477 -0.8743
   24MOL0     H 3290  11.584   1.614   8.605  1.9602 -3.7753 -2.2751
   24MOL0     H 3291  11.758   1.667   8.616 -1.2323 -0.2801 -2.9566
   24MOL0     H 3292  10.698   1.642   8.879 -0.3065  0.6689  0.5175
   24MOL0     H 3293  10.516   1.755   9.013 -0.1171 -0.4365 -2.4122
   24MOL0     H 3294  10.283   1.819   9.410  0.1732 -1.3841  0.4019
   24MOL0     H 3295  10.081   1.940   9.450 -1.3629 -0.9621  0.8868
   24MOL0     H 3296   9.145   2.953   8.645  0.1802 -1.3734  0.1484
   24MOL0     H 3297   9.038   3.191   8.602  2.9722 -1.0626 -0.1657
   24MOL0     H 3298   9.014   3.619   8.656  0.1753  0.7925 -0.6901
   24MOL0     H 3299   8.956   3.859   8.631 -1.6051  4.2315  2.4712
   24MOL0     H 3300   8.640   4.123   8.806  0.4471  0.3023 -1.9667
   24MOL0     H 3301   8.696   4.014   8.936  0.1673 -1.5089 -0.8849
   24MOL0     H 3302   8.871   4.118   8.979 -0.9457  0.0928  0.9556
   24MOL0     H 3303   8.764   4.260   8.954  0.4909 -0.4926  0.4066
   24MOL0     H 3304   8.974   4.174   8.752  0.9008  0.8076 -0.4153
   24MOL0     H 3305   8.847   4.291   8.718 -1.0728 -0.9475  0.4294
   24MOL0     H 3306   8.950   4.436   8.921  1.0866  0.9294 -0.7319
   24MOL0     H 3307   9.067   4.399   8.792  0.6883 -0.7056 -1.3050
   24MOL0     H 3308   9.243   4.197   9.103 -1.5462 -1.8747 -0.5463
   24MOL0     H 3309   8.711   3.822   8.973 -2.3169  2.4607 -1.5617
   24MOL0     H 3310   8.723   3.622   9.095 -0.1808 -0.1941 -0.0605
   24MOL0     H 3311   8.607   3.557   8.978  0.1911 -0.6629 -0.5474
   24MOL0     H 3312   8.754   3.464   9.026 -3.2442 -2.4788 -1.7715
   25MOL0     O 3313   1.618   8.223  11.266  0.0381  0.3605  0.3572
   25MOL0     C 3314   1.553   8.239  11.367  0.3807 -0.4388  0.0245
   25MOL0     O 3315   1.612   8.243  11.494 -0.1396  0.3528 -0.2656
   25MOL0     C 3316   1.741   8.231  11.513  0.2040 -0.9181  0.1823
   25MOL0     C 3317   1.837   8.338  11.512 -0.2973 -0.7152 -0.6807
   25MOL0     C 3318   1.977   8.318  11.538  0.1693  0.8164  0.9304
   25MOL0     C 3319   2.022   8.183  11.556 -0.3514  0.8471 -0.1143
   25MOL0     O 3320   2.159   8.152  11.564 -0.0191 -0.4016 -0.5920
   25MOL0     C 3321   2.251   8.257  11.534  0.3158  0.0155  0.5640
   25MOL0     C 3322   2.390   8.197  11.549  0.6132  0.5461 -0.5909
   25MOL0     C 3323   2.407   8.139  11.692  0.2445 -0.2946  0.1000
   25MOL0     C 3324   2.531   8.058  11.692 -0.5319 -0.4542  0.0998
   25MOL0     C 3325   2.529   7.940  11.793 -0.0331 -0.2473 -0.2528
   25MOL0     C 3326   2.667   7.868  11.812  0.2179 -0.2232  0.8437
   25MOL0     C 3327   2.651   7.751  11.908  0.7051  0.1077  0.1981
   25MOL0     C 3328   2.792   7.678  11.920  0.0521 -0.3383  0.7107
   25MOL0     N 3329   2.772   7.565  12.017  0.0650  0.4269  0.0559
   25MOL0     C 3330   2.744   7.429  11.982 -0.6755  0.3561 -0.2653
   25MOL0     C 3331   2.735   7.361  12.104  0.1140 -0.5715  1.6301
   25MOL0     C 3332   2.701   7.223  12.131  0.4084 -0.3919 -0.3844
   25MOL0     C 3333   2.554   7.202  12.123  0.3127  0.8580 -0.0109
   25MOL0     C 3334   2.498   7.059  12.086  0.0088  0.1550 -0.2524
   25MOL0     C 3335   2.583   6.941  12.112  0.1577  1.0146 -0.6386
   25MOL0     O 3336   2.675   6.929  12.004 -0.4132 -0.0982  0.4994
   25MOL0     C 3337   2.652   6.827  11.907 -0.5641  0.1015  0.7192
   25MOL0     C 3338   2.541   6.750  11.877 -0.0560  0.7941 -0.6735
   25MOL0     C 3339   2.535   6.678  11.757  0.1999 -0.6472  0.2396
   25MOL0     C 3340   2.403   6.609  11.720  0.7332 -0.3434 -0.4767
   25MOL0     C 3341   2.647   6.665  11.672 -0.5755  1.4121 -0.0885
   25MOL0     C 3342   2.667   6.567  11.552  1.1522  0.1648 -0.1070
   25MOL0     O 3343   2.782   6.574  11.482  0.1925 -1.2155 -0.6710
   25MOL0     C 3344   2.820   6.466  11.412 -0.2443 -0.1856 -0.3793
   25MOL0     C 3345   2.840   6.348  11.473 -0.9898 -0.1427 -0.7619
   25MOL0     C 3346   2.906   6.246  11.396 -0.3640  0.1946  0.4335
   25MOL0     C 3347   2.968   6.272  11.266 -0.1127  0.0112 -0.4799
   25MOL0     O 3348   3.023   6.171  11.186 -0.1231  0.3343  0.5541
   25MOL0     C 3349   3.127   6.098  11.251  0.3055 -0.4172  0.0762
   25MOL0     C 3350   3.249   6.191  11.239 -0.4347  0.6037  0.3103
   25MOL0     C 3351   3.289   6.226  11.097  0.5190 -0.9673  0.9912
   25MOL0     C 3352   3.423   6.301  11.107  0.0047  0.1068 -0.6012
   25MOL0     C 3353   3.492   6.360  10.981 -0.0387 -0.0482  0.4570
   25MOL0     C 3354   3.400   6.426  10.874  0.1074 -0.2313  1.1082
   25MOL0     C 3355   3.320   6.545  10.921 -0.4928 -0.0027 -0.4580
   25MOL0     C 3356   3.204   6.593  10.835 -0.3672  0.4093 -0.4841
   25MOL0    Cl 3357   3.070   6.471  10.832  0.1152  0.2486  0.2957
   25MOL0     C 3358   2.949   6.405  11.215 -0.2787 -0.5477  0.2604
   25MOL0     C 3359   2.874   6.501  11.287  0.2998  0.6247  0.1530
   25MOL0     O 3360   2.584   6.477  11.536 -0.2723 -0.4438 -0.3021
   25MOL0     C 3361   2.764   6.737  11.705 -0.1204 -0.2355 -0.4214
   25MOL0     C 3362   2.763   6.815  11.824  0.2738  1.4094  0.3678
   25MOL0     N 3363   2.751   7.460  12.202  0.5797  0.2548 -0.6295
   25MOL0     N 3364   2.769   7.577  12.155  0.9354  0.2783  0.3464
   25MOL0     C 3365   1.926   8.081  11.570 -0.1924  0.2302 -0.2089
   25MOL0     C 3366   1.792   8.108  11.544 -0.4711  0.4141 -0.2745
   25MOL0     C 3367   1.407   8.263  11.359 -0.7002  0.3055  1.1179
   25MOL0     C 3368   1.337   8.273  11.479  1.0966  0.4823 -0.3980
   25MOL0     C 3369   1.197   8.287  11.482  0.5393 -0.4427  0.5732
   25MOL0     C 3370   1.123   8.312  11.368 -0.1528  1.2259 -0.3217
   25MOL0     O 3371   0.987   8.333  11.390 -0.7486  0.7849  1.1207
   25MOL0     C 3372   0.918   8.211  11.436 -0.3036 -0.3873  0.4017
   25MOL0     C 3373   0.769   8.213  11.413 -0.2946  0.2307  0.3543
   25MOL0     C 3374   0.686   8.092  11.407  0.3583  0.1710 -0.5357
   25MOL0     C 3375   0.733   8.001  11.299 -0.5343 -0.2029 -0.1617
   25MOL0     C 3376   0.837   7.905  11.348 -0.4463 -0.5883  0.6516
   25MOL0     C 3377   0.941   7.845  11.369  0.1816  0.5814  0.8821
   25MOL0     C 3378   1.196   8.307  11.247  0.8310  0.1979  0.1919
   25MOL0     C 3379   1.337   8.285  11.234  0.2830 -0.1106 -1.4128
   25MOL0     C 3380   1.386   8.278  11.097  0.0345 -0.6010 -0.1123
   25MOL0     H 3381   1.807   8.441  11.496  1.1309 -0.3814 -1.4242
   25MOL0     H 3382   2.046   8.398  11.516  3.6747 -2.5053 -1.4987
   25MOL0     H 3383   2.238   8.325  11.619 -2.0070  0.2299  0.0880
   25MOL0     H 3384   2.234   8.304  11.437  0.3525 -0.9090  0.0980
   25MOL0     H 3385   2.412   8.124  11.470 -1.3120 -0.7585 -0.0026
   25MOL0     H 3386   2.466   8.275  11.546  1.8341 -0.6303 -1.2078
   25MOL0     H 3387   2.391   8.207  11.777  2.3570  1.1302 -0.5643
   25MOL0     H 3388   2.328   8.064  11.705 -1.8999  1.8264  0.0789
   25MOL0     H 3389   2.549   8.010  11.595  0.0557 -2.3725  1.0948
   25MOL0     H 3390   2.610   8.129  11.718 -0.7127 -0.1598 -0.1636
   25MOL0     H 3391   2.453   7.869  11.759 -1.0872 -1.4284  3.9173
   25MOL0     H 3392   2.511   7.981  11.893  3.0986  1.4140 -0.2515
   25MOL0     H 3393   2.697   7.841  11.711 -0.3170  3.0098 -0.3030
   25MOL0     H 3394   2.749   7.932  11.845 -0.5055  0.5970  1.1203
   25MOL0     H 3395   2.575   7.683  11.869  1.6740 -0.4687 -0.7721
   25MOL0     H 3396   2.621   7.800  12.001  0.4870 -0.7022  0.5717
   25MOL0     H 3397   2.819   7.630  11.825 -2.8068  1.0122 -0.9328
   25MOL0     H 3398   2.864   7.758  11.943 -0.0326  0.0817 -0.4091
   25MOL0     H 3399   2.730   7.387  11.883  0.7042  2.3437 -1.3751
   25MOL0     H 3400   2.745   7.195  12.227  2.8274  1.7337 -0.7835
   25MOL0     H 3401   2.765   7.169  12.060  1.2239 -0.7589  0.6146
   25MOL0     H 3402   2.514   7.223  12.222  0.7571 -1.9617  0.8497
   25MOL0     H 3403   2.501   7.267  12.052 -1.7382 -0.7951 -0.1013
   25MOL0     H 3404   2.399   7.041  12.129  0.3372  1.3311  1.0664
   25MOL0     H 3405   2.482   7.069  11.978  1.0293  0.6736 -0.3673
   25MOL0     H 3406   2.651   6.958  12.196 -0.9724 -0.1907  0.5582
   25MOL0     H 3407   2.528   6.851  12.141  0.0069  0.3026 -2.9235
   25MOL0     H 3408   2.448   6.749  11.933  0.8144 -2.5940  1.0100
   25MOL0     H 3409   2.426   6.516  11.772  2.1890 -0.4386 -1.2482
   25MOL0     H 3410   2.391   6.591  11.613  0.9864  0.9823 -0.7474
   25MOL0     H 3411   2.317   6.651  11.774 -0.4787 -3.1363 -0.0600
   25MOL0     H 3412   2.800   6.322  11.570 -2.4860  1.0354 -1.0250
   25MOL0     H 3413   2.928   6.161  11.459  2.7758 -0.1568 -0.9601
   25MOL0     H 3414   3.105   6.083  11.357 -0.6117 -0.9472 -0.1715
   25MOL0     H 3415   3.141   6.005  11.194  1.4598 -0.4565  0.3872
   25MOL0     H 3416   3.229   6.279  11.301  0.2390  1.3428 -0.4875
   25MOL0     H 3417   3.323   6.135  11.296 -0.4816  1.6074  1.4108
   25MOL0     H 3418   3.214   6.293  11.054  0.0557  0.0902  3.2684
   25MOL0     H 3419   3.302   6.136  11.036  2.9500  1.0479 -1.7464
   25MOL0     H 3420   3.486   6.223  11.151 -0.3236 -0.3121 -0.8586
   25MOL0     H 3421   3.418   6.380  11.183  1.2341 -1.9269  1.7429
   25MOL0     H 3422   3.570   6.429  11.016  0.1176  0.0814 -0.1378
   25MOL0     H 3423   3.541   6.279  10.927  1.4516 -0.3211  2.1157
   25MOL0     H 3424   3.322   6.350  10.864 -0.1323  0.1264  0.1783
   25MOL0     H 3425   3.446   6.442  10.776 -0.6809  0.6433  0.8535
   25MOL0     H 3426   3.387   6.629  10.938 -1.8253  1.5711 -2.5562
   25MOL0     H 3427   3.292   6.529  11.026  3.1779  5.1859  1.7302
   25MOL0     H 3428   3.240   6.622  10.736  1.8487 -1.2933 -0.2568
   25MOL0     H 3429   3.147   6.671  10.886  1.5278 -0.6526  3.6033
   25MOL0     H 3430   2.986   6.433  11.117 -0.5679 -1.5776 -0.1496
   25MOL0     H 3431   2.864   6.603  11.253  0.2140  1.1787  1.7936
   25MOL0     H 3432   2.848   6.756  11.639 -0.6683  1.1419 -0.7764
   25MOL0     H 3433   2.842   6.886  11.848  1.3434  0.7510 -1.0574
   25MOL0     H 3434   1.973   7.988  11.601  4.4185  2.1968 -0.4312
   25MOL0     H 3435   1.724   8.024  11.558 -1.3630  0.8056 -1.9908
   25MOL0     H 3436   1.377   8.260  11.579 -1.6629  3.9380  1.4096
   25MOL0     H 3437   1.150   8.283  11.579  1.4084  0.6762  1.0605
   25MOL0     H 3438   0.964   8.126  11.385  1.6593 -1.4729  3.6882
   25MOL0     H 3439   0.939   8.203  11.543  0.7779 -1.6409  0.1167
   25MOL0     H 3440   0.749   8.263  11.318  0.7801  0.9328  0.4778
   25MOL0     H 3441   0.730   8.282  11.489 -0.5060  0.2565  0.2254
   25MOL0     H 3442   0.675   8.039  11.502  1.0618 -1.8100 -1.5011
   25MOL0     H 3443   0.584   8.119  11.376 -0.2009 -0.0387  1.0086
   25MOL0     H 3444   0.769   8.066  11.219 -2.8093 -1.0980 -2.0179
   25MOL0     H 3445   0.651   7.944  11.253  0.4466 -0.4519 -1.6580
   25MOL0     H 3446   1.038   7.807  11.390  0.7572  0.8408 -1.1595
   25MOL0     H 3447   1.132   8.318  11.159 -0.0091  0.1776  0.7866
   25MOL0     H 3448   1.407   8.173  11.073 -1.5908 -1.3285  1.3880
   25MOL0     H 3449   1.311   8.317  11.029 -0.1258  3.0381  1.8926
   25MOL0     H 3450   1.470   8.346  11.080 -0.2245 -0.6681 -1.8336
   26MOL0     O 3451   4.154   6.324   0.577 -0.1819 -0.2906  0.1083
   26MOL0     C 3452   4.205   6.302   0.465  1.3059  0.1931 -0.7247
   26MOL0     O 3453   4.251   6.171   0.437 -0.9354 -0.0097 -0.1465
   26MOL0     C 3454   4.263   6.073   0.525  0.4689  0.3622  0.7012
   26MOL0     C 3455   4.372   5.988   0.493  0.6597  0.1826  0.6767
   26MOL0     C 3456   4.421   5.894   0.580  0.2028  0.3039  0.6795
   26MOL0     C 3457   4.351   5.877   0.706 -0.1899 -0.1416  0.6287
   26MOL0     O 3458   4.401   5.783   0.796 -0.1263 -0.7377 -0.8356
   26MOL0     C 3459   4.305   5.743   0.893 -0.2089  0.1309  0.0253
   26MOL0     C 3460   4.359   5.622   0.956 -0.5859  0.3596 -0.6495
   26MOL0     C 3461   4.482   5.638   1.056 -0.3847  0.1182 -0.3071
   26MOL0     C 3462   4.546   5.509   1.110 -0.4850 -0.0749  0.0310
   26MOL0     C 3463   4.694   5.521   1.155 -0.2187 -0.4069  0.4764
   26MOL0     C 3464   4.716   5.618   1.264  0.0086  0.1500 -0.4627
   26MOL0     C 3465   4.646   5.575   1.404 -1.1061  0.3034  0.2228
   26MOL0     C 3466   4.558   5.683   1.451  0.2777 -0.1749 -0.2351
   26MOL0     N 3467   4.489   5.642   1.574  0.4867 -0.5558  0.2633
   26MOL0     C 3468   4.434   5.524   1.621 -0.3264  0.9345  0.1843
   26MOL0     C 3469   4.424   5.544   1.755 -0.0371  0.8243  0.7472
   26MOL0     C 3470   4.399   5.444   1.866  0.1400 -0.0699 -0.7599
   26MOL0     C 3471   4.286   5.350   1.812  0.8631  0.3373  0.1938
   26MOL0     C 3472   4.150   5.432   1.787  0.2626  0.7608  0.5000
   26MOL0     C 3473   4.085   5.479   1.908  0.7236 -0.3935 -0.2520
   26MOL0     O 3474   3.955   5.536   1.861 -0.1297  0.4295 -0.2630
   26MOL0     C 3475   3.888   5.596   1.968 -0.1850 -1.1107  0.3754
   26MOL0     C 3476   3.924   5.620   2.102 -1.3980 -0.8328 -0.2412
   26MOL0     C 3477   3.853   5.707   2.188 -0.0986  0.3469 -0.7188
   26MOL0     C 3478   3.908   5.721   2.325  0.6775 -0.3114  0.0452
   26MOL0     C 3479   3.725   5.752   2.144  0.3731 -0.0674 -0.3291
   26MOL0     C 3480   3.639   5.842   2.215  1.4785  0.1651  0.8181
   26MOL0     O 3481   3.524   5.864   2.150  0.1232  0.2075 -1.0595
   26MOL0     C 3482   3.446   5.972   2.189 -0.5469  0.6037 -0.4907
   26MOL0     C 3483   3.482   6.103   2.181  0.5854 -0.9011  0.8449
   26MOL0     C 3484   3.406   6.221   2.225 -0.7563  0.2641 -1.1888
   26MOL0     C 3485   3.266   6.198   2.237  0.0064 -0.8570  0.2610
   26MOL0     O 3486   3.184   6.310   2.270 -0.0559 -0.1079  0.2575
   26MOL0     C 3487   3.216   6.370   2.397 -1.1918  0.4343  0.4418
   26MOL0     C 3488   3.082   6.388   2.465  0.8155 -0.6840  1.0450
   26MOL0     C 3489   2.979   6.482   2.396  0.3373 -0.2390 -0.5409
   26MOL0     C 3490   2.979   6.618   2.469  0.3043 -0.3366  0.3541
   26MOL0     C 3491   2.862   6.705   2.426  0.8256  0.0838 -0.7247
   26MOL0     C 3492   2.867   6.849   2.472  0.2372  0.0709 -0.9702
   26MOL0     C 3493   2.766   6.934   2.392 -0.6330 -0.2502  0.2092
   26MOL0     C 3494   2.798   7.081   2.371 -0.2204 -0.6014 -0.1629
   26MOL0    Cl 3495   2.794   7.178   2.534 -0.3345  0.1235 -0.7509
   26MOL0     C 3496   3.224   6.064   2.229  0.3730  0.0476  0.1966
   26MOL0     C 3497   3.308   5.949   2.213  0.3471  0.1113  0.8022
   26MOL0     O 3498   3.673   5.894   2.321  0.1306  0.3757 -0.6319
   26MOL0     C 3499   3.689   5.728   2.004 -0.1107 -0.1925  0.1097
   26MOL0     C 3500   3.767   5.654   1.923 -0.3212 -0.4850  0.6813
   26MOL0     N 3501   4.476   5.665   1.785  0.1267 -0.4482 -0.0801
   26MOL0     N 3502   4.516   5.725   1.676  0.7629  0.2395 -0.1666
   26MOL0     C 3503   4.238   5.964   0.733 -0.3026 -0.2921  1.3928
   26MOL0     C 3504   4.192   6.054   0.643  1.2326 -0.2569  0.1266
   26MOL0     C 3505   4.204   6.409   0.363  0.8100 -0.5246 -0.0542
   26MOL0     C 3506   4.260   6.375   0.240 -0.0520  0.2108 -0.9465
   26MOL0     C 3507   4.271   6.468   0.141 -0.5109 -0.5056 -0.1176
   26MOL0     C 3508   4.224   6.602   0.159  0.4306  0.2539  1.5109
   26MOL0     O 3509   4.242   6.698   0.056 -0.1978  0.4167  0.1238
   26MOL0     C 3510   4.208   6.829   0.083  0.2434  0.0167  0.3633
   26MOL0     C 3511   4.232   6.927  -0.037  0.5060 -0.7121  0.3228
   26MOL0     C 3512   4.221   6.868  -0.173 -0.3742  0.1850 -0.1394
   26MOL0     C 3513   4.290   6.953  -0.276 -1.3510 -0.1067  1.0042
   26MOL0     C 3514   4.294   6.875  -0.402  0.1233  0.1992  0.0132
   26MOL0     C 3515   4.290   6.817  -0.515  0.3183  0.0672  0.3326
   26MOL0     C 3516   4.157   6.634   0.278 -0.7064 -0.3525 -0.8302
   26MOL0     C 3517   4.145   6.542   0.386  0.1592 -1.0027  0.9057
   26MOL0     C 3518   4.064   6.575   0.506  0.0952 -0.5760  0.2426
   26MOL0     H 3519   4.434   6.009   0.406 -0.3104  1.8979  0.3427
   26MOL0     H 3520   4.507   5.839   0.544  0.2265  1.0179 -0.4171
   26MOL0     H 3521   4.206   5.717   0.853 -2.5815  3.0551  3.3113
   26MOL0     H 3522   4.288   5.812   0.977  2.9808 -1.2416  1.9501
   26MOL0     H 3523   4.280   5.569   1.010  2.1762 -2.2820  1.1033
   26MOL0     H 3524   4.389   5.550   0.879  2.6006 -0.7660  1.4236
   26MOL0     H 3525   4.560   5.696   1.005 -0.7976  2.6368  1.7220
   26MOL0     H 3526   4.454   5.709   1.134 -0.2981  2.0129 -1.9209
   26MOL0     H 3527   4.469   5.477   1.181 -1.0906 -0.0411 -0.5925
   26MOL0     H 3528   4.538   5.437   1.028 -3.6032  1.4618 -1.1952
   26MOL0     H 3529   4.758   5.548   1.071 -0.8709  0.9340  0.3956
   26MOL0     H 3530   4.726   5.421   1.186 -3.2466 -2.0257 -1.1723
   26MOL0     H 3531   4.820   5.642   1.285 -0.0132 -0.4688  0.4297
   26MOL0     H 3532   4.668   5.710   1.229 -1.5531 -0.6199 -0.4650
   26MOL0     H 3533   4.724   5.546   1.476  0.3486 -1.0250 -1.7758
   26MOL0     H 3534   4.598   5.477   1.394 -2.2277  0.8964 -0.4483
   26MOL0     H 3535   4.608   5.779   1.469  1.5103 -0.8495  0.0391
   26MOL0     H 3536   4.474   5.700   1.383  0.0655 -0.4835 -0.0532
   26MOL0     H 3537   4.407   5.438   1.561  1.7001 -2.3716  3.5810
   26MOL0     H 3538   4.385   5.503   1.957 -3.9698  3.6157 -3.3064
   26MOL0     H 3539   4.488   5.382   1.860  0.6344  0.7122 -4.8729
   26MOL0     H 3540   4.321   5.314   1.715  1.9334  1.1748  0.2428
   26MOL0     H 3541   4.255   5.264   1.872  0.7057  0.3926  0.1924
   26MOL0     H 3542   4.174   5.518   1.724  3.7028 -0.0911  0.4157
   26MOL0     H 3543   4.099   5.368   1.715  1.3183  1.3531 -0.8092
   26MOL0     H 3544   4.074   5.387   1.967  1.2663  2.5185  4.9859
   26MOL0     H 3545   4.151   5.550   1.957  0.1448 -1.7896  2.8312
   26MOL0     H 3546   4.023   5.597   2.139  0.2118  2.5386 -2.0042
   26MOL0     H 3547   3.986   5.797   2.320 -2.8665  3.8247  1.5748
   26MOL0     H 3548   3.971   5.638   2.360 -0.5780 -2.0212 -1.5638
   26MOL0     H 3549   3.829   5.730   2.400 -1.2893  0.9493 -2.0893
   26MOL0     H 3550   3.581   6.117   2.139  1.4691 -3.1007  2.0319
   26MOL0     H 3551   3.446   6.322   2.231  0.4271 -0.2589  0.5474
   26MOL0     H 3552   3.277   6.304   2.458 -0.3693 -2.6878 -3.3502
   26MOL0     H 3553   3.269   6.466   2.391 -1.9176  0.9780  2.2132
   26MOL0     H 3554   3.031   6.291   2.463 -3.0876  1.1912 -0.7514
   26MOL0     H 3555   3.108   6.430   2.562 -0.8204  1.3904  0.6649
   26MOL0     H 3556   2.885   6.426   2.400 -0.6775  1.3213 -1.3563
   26MOL0     H 3557   3.001   6.501   2.290 -0.6989 -1.1388 -0.9322
   26MOL0     H 3558   3.081   6.658   2.467  1.2091 -2.5360  0.1784
   26MOL0     H 3559   2.967   6.598   2.575  3.7676 -0.4193  0.8408
   26MOL0     H 3560   2.851   6.704   2.317 -2.4348 -0.5061 -0.4936
   26MOL0     H 3561   2.771   6.656   2.463  0.7245 -1.8667 -3.2229
   26MOL0     H 3562   2.970   6.884   2.457 -1.1522  4.2824 -1.8772
   26MOL0     H 3563   2.846   6.867   2.578 -2.2226  0.2634 -1.4307
   26MOL0     H 3564   2.665   6.924   2.431 -0.6357 -2.0336 -0.1503
   26MOL0     H 3565   2.766   6.891   2.291 -0.8711 -2.5696  1.1298
   26MOL0     H 3566   2.725   7.115   2.298  0.5633 -0.6047 -0.9632
   26MOL0     H 3567   2.898   7.082   2.327 -0.4559 -0.5378 -0.7001
   26MOL0     H 3568   3.116   6.066   2.239  0.4440  0.3823  0.9070
   26MOL0     H 3569   3.265   5.851   2.197 -4.3499  1.9506  0.7539
   26MOL0     H 3570   3.591   5.755   1.964  1.0319 -0.0599 -2.8181
   26MOL0     H 3571   3.735   5.639   1.821 -0.4554 -0.8464  0.7730
   26MOL0     H 3572   4.179   5.946   0.822  1.1779 -0.5788  2.3613
   26MOL0     H 3573   4.104   6.111   0.669  1.4251 -0.8323  2.2397
   26MOL0     H 3574   4.277   6.268   0.230 -0.3647  0.1755 -1.1274
   26MOL0     H 3575   4.296   6.443   0.038 -1.0260  1.6420 -0.8197
   26MOL0     H 3576   4.099   6.831   0.091  0.2371  1.5562  0.1796
   26MOL0     H 3577   4.250   6.868   0.176 -0.5585  1.7020  0.0524
   26MOL0     H 3578   4.334   6.959  -0.013 -0.5799  2.1427  1.6004
   26MOL0     H 3579   4.148   6.998  -0.034  0.7472 -0.3365  4.3838
   26MOL0     H 3580   4.268   6.770  -0.163  0.6979  0.7708  0.8651
   26MOL0     H 3581   4.117   6.853  -0.203 -1.2178 -1.1672  3.1274
   26MOL0     H 3582   4.390   6.978  -0.239  0.2038 -3.3238 -0.6253
   26MOL0     H 3583   4.232   7.040  -0.307  1.4310  1.6032  0.2850
   26MOL0     H 3584   4.284   6.779  -0.614  1.0096  1.3920 -0.2452
   26MOL0     H 3585   4.113   6.732   0.295 -0.0981 -0.4141  1.3689
   26MOL0     H 3586   3.980   6.505   0.514 -0.1077 -0.5435 -1.3767
   26MOL0     H 3587   4.123   6.571   0.598  1.2285 -3.8045 -0.5084
   26MOL0     H 3588   4.022   6.676   0.502  1.6259  0.0771  0.2840
   27MOL0     O 3589   6.632   4.246  10.717 -0.4658 -0.6543  0.4065
   27MOL0     C 3590   6.717   4.221  10.805 -0.3109  0.4969  0.6949
   27MOL0     O 3591   6.703   4.134  10.907  0.7417  0.1917  0.0589
   27MOL0     C 3592   6.594   4.052  10.903 -0.5072  0.3510 -0.3664
   27MOL0     C 3593   6.541   3.988  10.788  0.6833 -0.7022  0.1723
   27MOL0     C 3594   6.428   3.913  10.790  0.8958 -0.3393  0.2639
   27MOL0     C 3595   6.346   3.915  10.912  0.4378  0.3645 -0.1102
   27MOL0     O 3596   6.225   3.848  10.932  0.1155 -0.0203 -0.1759
   27MOL0     C 3597   6.136   3.816  10.815 -0.7947  0.0177 -1.0918
   27MOL0     C 3598   6.072   3.929  10.733 -0.8651 -0.2290  1.2583
   27MOL0     C 3599   5.924   3.949  10.762  0.5734 -0.2268  1.2443
   27MOL0     C 3600   5.835   3.851  10.681  0.0310 -0.7448  0.1511
   27MOL0     C 3601   5.695   3.889  10.713  0.6376  0.0749  0.1023
   27MOL0     C 3602   5.577   3.800  10.654  0.7128  0.3319 -0.9166
   27MOL0     C 3603   5.430   3.832  10.701 -0.6382 -0.1428 -0.5825
   27MOL0     C 3604   5.326   3.735  10.671  0.2870  0.0645  0.2980
   27MOL0     N 3605   5.321   3.619  10.764  0.7985  0.0845 -0.7393
   27MOL0     C 3606   5.269   3.611  10.889 -0.7620  0.1336 -0.1985
   27MOL0     C 3607   5.266   3.484  10.927 -0.7150 -0.3999 -0.3174
   27MOL0     C 3608   5.196   3.432  11.054 -0.3012  1.0681  0.2396
   27MOL0     C 3609   5.255   3.462  11.188  0.5696  0.3049 -0.3064
   27MOL0     C 3610   5.212   3.603  11.248  0.0821 -0.1490 -0.2043
   27MOL0     C 3611   5.337   3.693  11.278  0.0144 -0.7201  0.0288
   27MOL0     O 3612   5.387   3.732  11.141  0.1526  0.1021 -0.4259
   27MOL0     C 3613   5.475   3.832  11.146 -0.2267 -0.2432 -0.9004
   27MOL0     C 3614   5.423   3.952  11.183  0.2844  0.1400  0.9740
   27MOL0     C 3615   5.495   4.069  11.180 -0.3172  0.4238 -0.6520
   27MOL0     C 3616   5.415   4.199  11.190  0.2489  0.1355  0.7865
   27MOL0     C 3617   5.629   4.060  11.151 -0.5458  0.0755 -0.1744
   27MOL0     C 3618   5.712   4.176  11.119 -0.0794 -0.0307 -0.9105
   27MOL0     O 3619   5.849   4.146  11.130 -1.0891  0.0174  0.3772
   27MOL0     C 3620   5.944   4.247  11.108  0.3438 -0.2096  0.5940
   27MOL0     C 3621   6.069   4.207  11.067  0.6365 -0.4159 -0.0784
   27MOL0     C 3622   6.177   4.294  11.059 -0.3631 -0.4868  0.3352
   27MOL0     C 3623   6.158   4.429  11.082 -0.1741  0.2386  0.4238
   27MOL0     O 3624   6.263   4.520  11.067  0.8712 -0.1094  0.4413
   27MOL0     C 3625   6.394   4.471  11.068  0.1638 -0.2314 -0.3195
   27MOL0     C 3626   6.477   4.593  11.124 -0.0173  0.0955  0.3242
   27MOL0     C 3627   6.631   4.593  11.102  0.1064  0.3359 -0.5665
   27MOL0     C 3628   6.696   4.724  11.152 -0.9061 -0.3941  1.3438
   27MOL0     C 3629   6.848   4.687  11.164 -0.0867 -0.3051 -0.2038
   27MOL0     C 3630   6.884   4.614  11.293  0.5187 -0.6775  0.3328
   27MOL0     C 3631   7.032   4.562  11.310  1.0291 -0.1466 -0.3891
   27MOL0     C 3632   7.136   4.664  11.295  0.4942  0.0262  0.2401
   27MOL0    Cl 3633   7.169   4.678  11.114  0.2039  0.0876  0.1150
   27MOL0     C 3634   6.032   4.479  11.109  0.6145 -0.6677 -0.6305
   27MOL0     C 3635   5.928   4.386  11.139 -0.6652  1.0859  0.1433
   27MOL0     O 3636   5.658   4.282  11.089  0.4793 -0.4970  0.5132
   27MOL0     C 3637   5.691   3.935  11.119  0.1223  0.3475  0.0686
   27MOL0     C 3638   5.610   3.821  11.101  0.0301  0.1381  0.4610
   27MOL0     N 3639   5.321   3.407  10.829 -0.4171  0.5129 -0.3220
   27MOL0     N 3640   5.373   3.496  10.746 -0.3216 -0.4669  0.5562
   27MOL0     C 3641   6.395   3.980  11.022 -1.2942 -0.4812 -0.7229
   27MOL0     C 3642   6.520   4.044  11.021  0.3285 -0.3764 -0.3350
   27MOL0     C 3643   6.847   4.285  10.784  1.0928  0.2054 -0.3768
   27MOL0     C 3644   6.865   4.405  10.853  0.0938  0.1342 -0.3995
   27MOL0     C 3645   6.981   4.477  10.832  0.4041  0.2973  0.1457
   27MOL0     C 3646   7.080   4.430  10.742  0.1985 -0.1089  0.6638
   27MOL0     O 3647   7.179   4.518  10.700  0.2007  1.1462 -0.1232
   27MOL0     C 3648   7.285   4.542  10.796  0.6913  0.8071  0.3750
   27MOL0     C 3649   7.400   4.457  10.749 -0.2379  0.4605  1.0735
   27MOL0     C 3650   7.463   4.497  10.617 -0.3861 -0.1610  0.0156
   27MOL0     C 3651   7.612   4.451  10.594 -0.2939  0.1061 -0.0760
   27MOL0     C 3652   7.623   4.317  10.539 -0.3299 -0.0704 -0.5992
   27MOL0     C 3653   7.623   4.213  10.478 -0.2491 -0.3355  0.4966
   27MOL0     C 3654   7.061   4.312  10.672  0.7445  0.0270 -0.3679
   27MOL0     C 3655   6.934   4.232  10.694 -0.1277 -0.5476 -0.2798
   27MOL0     C 3656   6.917   4.101  10.600 -0.0320 -0.1335 -0.3865
   27MOL0     H 3657   6.588   4.008  10.692  0.6175 -0.9562  0.0856
   27MOL0     H 3658   6.382   3.864  10.705  1.1415 -0.4389  0.1874
   27MOL0     H 3659   6.047   3.764  10.851  1.0281 -4.8034 -2.7485
   27MOL0     H 3660   6.192   3.749  10.749  2.1036 -0.1317  1.3365
   27MOL0     H 3661   6.124   4.023  10.755  2.0258 -1.4684  0.2312
   27MOL0     H 3662   6.093   3.899  10.630 -1.5949  0.2500  0.9619
   27MOL0     H 3663   5.906   3.940  10.869 -1.5675 -2.6063  0.7915
   27MOL0     H 3664   5.901   4.051  10.732  0.5580 -0.8232 -0.9435
   27MOL0     H 3665   5.863   3.861  10.575  1.6796 -1.5231  0.4721
   27MOL0     H 3666   5.844   3.744  10.705  2.1083 -0.3745  1.2907
   27MOL0     H 3667   5.684   3.985  10.663 -0.8341  0.4015  0.9897
   27MOL0     H 3668   5.676   3.894  10.820  2.5904 -0.0028  0.4972
   27MOL0     H 3669   5.578   3.795  10.544  0.6548  0.7308 -0.9345
   27MOL0     H 3670   5.607   3.696  10.674 -3.0647 -0.8708 -0.6597
   27MOL0     H 3671   5.409   3.929  10.656 -1.8132 -0.4535 -0.7272
   27MOL0     H 3672   5.434   3.848  10.810  0.0893 -2.2608 -0.2482
   27MOL0     H 3673   5.229   3.780  10.689 -0.2103 -1.1557  0.7942
   27MOL0     H 3674   5.337   3.692  10.571 -2.2992 -1.8571  0.7307
   27MOL0     H 3675   5.233   3.693  10.951 -1.0633  0.0260 -0.2336
   27MOL0     H 3676   5.192   3.323  11.054 -0.4514  0.9789  3.4863
   27MOL0     H 3677   5.092   3.466  11.056 -0.7634 -0.1289 -1.5904
   27MOL0     H 3678   5.238   3.388  11.267 -0.4904 -1.6856 -2.3138
   27MOL0     H 3679   5.364   3.451  11.177  0.5721  1.0458 -1.0959
   27MOL0     H 3680   5.138   3.638  11.176 -1.1366  2.6308  2.2214
   27MOL0     H 3681   5.161   3.594  11.345  0.5626  0.1131  0.0775
   27MOL0     H 3682   5.298   3.777  11.336  0.5962 -0.4961  0.1051
   27MOL0     H 3683   5.420   3.640  11.327  0.0310 -1.4564 -0.7675
   27MOL0     H 3684   5.316   3.945  11.173  0.5558 -0.6106 -3.7774
   27MOL0     H 3685   5.324   4.178  11.246  0.8021  0.0245  1.6671
   27MOL0     H 3686   5.391   4.241  11.092  3.9124 -0.1196 -0.3882
   27MOL0     H 3687   5.475   4.280  11.233  0.7691 -0.8415  1.9677
   27MOL0     H 3688   6.074   4.104  11.033 -1.2243  0.1625 -2.3593
   27MOL0     H 3689   6.277   4.257  11.037 -0.4750 -0.2953 -0.5551
   27MOL0     H 3690   6.416   4.380  11.125 -2.2646 -0.5191  0.2943
   27MOL0     H 3691   6.416   4.442  10.965 -1.0717  1.9976 -1.2689
   27MOL0     H 3692   6.435   4.685  11.082 -2.5184 -0.7980  0.6938
   27MOL0     H 3693   6.462   4.587  11.232 -1.1055 -2.7157  0.1174
   27MOL0     H 3694   6.651   4.562  10.999  2.2009 -2.7119  0.6010
   27MOL0     H 3695   6.665   4.518  11.175 -3.0083 -0.5464  0.1711
   27MOL0     H 3696   6.662   4.760  11.250 -2.6895  1.5805  0.0931
   27MOL0     H 3697   6.683   4.806  11.080  0.4394 -0.1261  1.3740
   27MOL0     H 3698   6.887   4.635  11.075  3.4116  0.4561  0.7324
   27MOL0     H 3699   6.886   4.789  11.163 -0.7278 -0.0564 -0.6984
   27MOL0     H 3700   6.817   4.533  11.321 -4.8586  3.1215 -0.1461
   27MOL0     H 3701   6.865   4.692  11.366  2.2844  2.6711 -2.4655
   27MOL0     H 3702   7.041   4.482  11.236  3.8939  0.6784 -1.0453
   27MOL0     H 3703   7.034   4.523  11.413  2.5884 -0.3630 -0.4816
   27MOL0     H 3704   7.225   4.635  11.351  1.5182  3.0780  0.4117
   27MOL0     H 3705   7.105   4.759  11.338 -1.9281 -1.3257  1.6391
   27MOL0     H 3706   6.023   4.586  11.123 -2.8324 -1.0104  0.7716
   27MOL0     H 3707   5.831   4.427  11.167 -1.7299 -1.4420  0.3875
   27MOL0     H 3708   5.794   3.925  11.087  0.0068 -2.3182  0.3446
   27MOL0     H 3709   5.646   3.729  11.056 -1.2010  1.3393 -3.3400
   27MOL0     H 3710   6.331   3.987  11.110  1.9299 -0.9352  1.8236
   27MOL0     H 3711   6.554   4.096  11.110  1.7614  0.0771 -1.1297
   27MOL0     H 3712   6.788   4.432  10.924 -0.7264 -2.8480 -0.0211
   27MOL0     H 3713   7.002   4.571  10.882  1.2818 -0.4798  1.2703
   27MOL0     H 3714   7.325   4.643  10.797 -3.7201  2.7708  1.2021
   27MOL0     H 3715   7.266   4.508  10.898  0.5393 -2.0236 -0.4985
   27MOL0     H 3716   7.361   4.355  10.746  0.9626 -0.0051 -0.9774
   27MOL0     H 3717   7.490   4.455  10.812  0.6558  0.3200 -0.1563
   27MOL0     H 3718   7.398   4.457  10.538 -2.0414  2.0403  0.1642
   27MOL0     H 3719   7.469   4.606  10.608  2.0995 -0.3881 -2.6318
   27MOL0     H 3720   7.667   4.460  10.688  0.0085  2.2997 -0.4234
   27MOL0     H 3721   7.652   4.518  10.518 -2.0770  0.6464 -0.5950
   27MOL0     H 3722   7.636   4.113  10.441 -0.1763  0.0485 -0.5412
   27MOL0     H 3723   7.133   4.285  10.595  0.5061  2.5323 -1.5700
   27MOL0     H 3724   7.010   4.045  10.608 -0.9464 -1.5027  2.1136
   27MOL0     H 3725   6.827   4.051  10.638  0.4845  0.2314  1.4006
   27MOL0     H 3726   6.892   4.129  10.497 -2.1689 -0.8596 -0.1154
   28MOL0     O 3727   1.490   5.548   2.758  0.1506  0.1379 -0.5685
   28MOL0     C 3728   1.428   5.566   2.858  0.6580  0.2708  0.3595
   28MOL0     O 3729   1.407   5.691   2.915 -0.2680  0.1404 -0.2943
   28MOL0     C 3730   1.428   5.790   2.824 -0.5102 -0.2806  0.4007
   28MOL0     C 3731   1.343   5.814   2.717  0.5761 -0.8780  0.1460
   28MOL0     C 3732   1.378   5.910   2.619  0.5156 -0.0208  0.4691
   28MOL0     C 3733   1.495   5.985   2.631  0.5655 -0.6888 -0.3070
   28MOL0     O 3734   1.524   6.065   2.520  0.5491  0.1380  0.2589
   28MOL0     C 3735   1.645   6.137   2.514 -0.7431 -1.6207  0.1053
   28MOL0     C 3736   1.610   6.270   2.576  0.6310  0.3293 -0.3936
   28MOL0     C 3737   1.693   6.392   2.531 -0.7095 -0.0166  0.4593
   28MOL0     C 3738   1.653   6.451   2.390 -0.1231 -0.0198  0.2126
   28MOL0     C 3739   1.705   6.592   2.382  0.1012  0.2609 -0.2731
   28MOL0     C 3740   1.681   6.648   2.240 -1.2986 -0.2702  0.3442
   28MOL0     C 3741   1.543   6.616   2.184  0.3728  0.7365  0.5518
   28MOL0     C 3742   1.513   6.689   2.051  0.0376 -1.3734 -0.7452
   28MOL0     N 3743   1.383   6.665   2.008  0.1226  0.4186 -0.5273
   28MOL0     C 3744   1.274   6.739   2.051 -0.7553  0.1174 -0.2919
   28MOL0     C 3745   1.170   6.678   1.992  0.2218  0.2477  0.3846
   28MOL0     C 3746   1.027   6.719   2.006 -0.7502  0.3392  0.4196
   28MOL0     C 3747   0.937   6.615   2.078  0.6662 -0.1125  0.2649
   28MOL0     C 3748   0.825   6.678   2.154  0.1095 -0.4060  0.0101
   28MOL0     C 3749   0.808   6.635   2.302 -0.0067 -0.3161 -0.5801
   28MOL0     O 3750   0.738   6.734   2.388  0.1604  0.3741  0.3284
   28MOL0     C 3751   0.628   6.800   2.330 -0.1860  0.1754 -0.0721
   28MOL0     C 3752   0.527   6.735   2.264 -0.4048  0.7027  0.8245
   28MOL0     C 3753   0.410   6.809   2.223  0.6009  1.2011 -0.9333
   28MOL0     C 3754   0.303   6.728   2.164  0.1299  0.6403 -0.0810
   28MOL0     C 3755   0.394   6.941   2.263 -0.2158 -0.5996  0.4696
   28MOL0     C 3756   0.285   7.027   2.218  0.1774 -0.3122  0.6279
   28MOL0     O 3757   0.243   7.011   2.091  0.4373  0.2622  0.8525
   28MOL0     C 3758   0.159   7.099   2.022 -0.3262  1.9086  0.9487
   28MOL0     C 3759   0.142   7.235   2.055 -0.6570  0.3939 -0.5557
   28MOL0     C 3760   0.066   7.321   1.983 -0.7922 -0.0475 -1.0155
   28MOL0     C 3761  -0.018   7.271   1.887 -0.2135  0.1390  0.3789
   28MOL0     O 3762  -0.111   7.350   1.821 -0.4641 -0.1708  0.1023
   28MOL0     C 3763  -0.194   7.459   1.858  0.1196 -0.4575 -0.4161
   28MOL0     C 3764  -0.270   7.437   1.988 -0.7030 -0.0484  0.4980
   28MOL0     C 3765  -0.371   7.328   1.980  0.4854 -0.2958  0.4524
   28MOL0     C 3766  -0.437   7.301   2.110 -0.1950 -0.0556 -0.2729
   28MOL0     C 3767  -0.539   7.200   2.092  0.8316  0.5914  0.2159
   28MOL0     C 3768  -0.590   7.153   2.222  0.9178  0.6942 -0.6851
   28MOL0     C 3769  -0.706   7.047   2.215  0.7943  0.1684  0.1416
   28MOL0     C 3770  -0.647   6.913   2.215  0.3039  1.1271  0.2882
   28MOL0    Cl 3771  -0.751   6.796   2.274  0.0081 -0.1639 -0.2646
   28MOL0     C 3772  -0.009   7.135   1.845 -0.0698 -0.3811  0.4100
   28MOL0     C 3773   0.089   7.055   1.908 -0.7890 -0.1348  0.4242
   28MOL0     O 3774   0.232   7.100   2.296 -0.3447  0.8704 -0.2491
   28MOL0     C 3775   0.492   7.002   2.340 -0.7957  0.4826 -0.6210
   28MOL0     C 3776   0.608   6.932   2.380 -0.1041  0.5656 -0.2257
   28MOL0     N 3777   1.208   6.563   1.932  0.4076  0.7119  0.4434
   28MOL0     N 3778   1.340   6.555   1.946 -0.8143 -0.3014 -0.2748
   28MOL0     C 3779   1.580   5.960   2.743  0.0165 -0.9206  0.9416
   28MOL0     C 3780   1.550   5.865   2.842 -0.0785  1.3529  0.2055
   28MOL0     C 3781   1.360   5.454   2.907 -0.1370 -0.5184 -0.1634
   28MOL0     C 3782   1.220   5.447   2.903 -0.1075  0.5078  0.5486
   28MOL0     C 3783   1.146   5.330   2.942 -0.3817 -0.0898 -0.4038
   28MOL0     C 3784   1.223   5.224   2.989  0.0157  0.0126  0.0060
   28MOL0     O 3785   1.170   5.107   3.038  0.0725 -0.6431 -0.0011
   28MOL0     C 3786   1.051   5.052   2.976 -0.1078 -0.6290  0.5595
   28MOL0     C 3787   1.037   4.908   3.022  0.1879 -0.9594  0.6227
   28MOL0     C 3788   0.984   4.905   3.166  0.3563  0.5042 -0.6211
   28MOL0     C 3789   1.005   4.760   3.218 -0.0094 -0.7925  0.0029
   28MOL0     C 3790   0.942   4.737   3.351  0.3785  0.6061  0.7366
   28MOL0     C 3791   0.908   4.715   3.463 -0.0448 -0.4721  0.1253
   28MOL0     C 3792   1.357   5.231   3.003 -0.8243 -0.6016 -0.0247
   28MOL0     C 3793   1.428   5.339   2.951  0.2303 -0.1315 -0.4178
   28MOL0     C 3794   1.579   5.344   2.978  0.4056 -0.6398  0.2484
   28MOL0     H 3795   1.248   5.763   2.706  0.0369  0.1819 -0.2954
   28MOL0     H 3796   1.318   5.926   2.530  0.0930 -1.4190  0.4704
   28MOL0     H 3797   1.673   6.141   2.408  5.1364 -1.1727  1.3642
   28MOL0     H 3798   1.725   6.083   2.565 -2.0854 -0.9056  3.2214
   28MOL0     H 3799   1.505   6.297   2.564  0.7045  0.3176 -1.1155
   28MOL0     H 3800   1.615   6.260   2.685  0.6129  0.6058 -0.3671
   28MOL0     H 3801   1.675   6.467   2.609 -1.0178 -1.4339  1.7956
   28MOL0     H 3802   1.798   6.364   2.522 -0.6458  0.4045 -0.1752
   28MOL0     H 3803   1.692   6.387   2.310  0.9400 -0.1415  0.8004
   28MOL0     H 3804   1.545   6.435   2.383  0.0670 -1.5875  0.4526
   28MOL0     H 3805   1.809   6.599   2.414  0.1714 -0.3158 -0.3650
   28MOL0     H 3806   1.651   6.655   2.454 -0.5368  1.3692 -1.6651
   28MOL0     H 3807   1.701   6.755   2.239 -2.1712 -0.0741  1.8150
   28MOL0     H 3808   1.760   6.606   2.176 -0.2243  0.2180  1.3294
   28MOL0     H 3809   1.464   6.630   2.258 -0.2304 -2.2066  0.5957
   28MOL0     H 3810   1.531   6.513   2.148  0.7889  0.6622  0.6245
   28MOL0     H 3811   1.536   6.794   2.071 -1.2812 -0.9265 -1.4164
   28MOL0     H 3812   1.573   6.663   1.963  0.5827 -0.6827 -0.5810
   28MOL0     H 3813   1.292   6.812   2.130  1.9494 -1.9009  1.1166
   28MOL0     H 3814   0.998   6.745   1.904  2.1902 -2.4822 -1.3483
   28MOL0     H 3815   1.038   6.810   2.066  0.4026  0.9675 -0.6838
   28MOL0     H 3816   0.890   6.544   2.010 -1.0493 -0.0085  1.2769
   28MOL0     H 3817   0.992   6.555   2.151 -4.7515 -1.1382  4.1372
   28MOL0     H 3818   0.835   6.787   2.151 -1.5390 -0.2549 -0.5683
   28MOL0     H 3819   0.740   6.642   2.095  2.3311 -1.1780 -2.9817
   28MOL0     H 3820   0.762   6.537   2.312  1.3775 -0.8056  1.6339
   28MOL0     H 3821   0.910   6.623   2.341 -0.9754 -3.9405  1.2378
   28MOL0     H 3822   0.531   6.627   2.254  0.8328  0.6918  1.3022
   28MOL0     H 3823   0.289   6.624   2.196 -0.3426 -0.2420 -2.8722
   28MOL0     H 3824   0.323   6.712   2.058  0.6618 -2.8630  0.4195
   28MOL0     H 3825   0.208   6.782   2.171  0.2426  0.6684  1.6473
   28MOL0     H 3826   0.197   7.279   2.137 -0.1882  0.2226 -0.7769
   28MOL0     H 3827   0.055   7.425   2.011 -2.8589  0.0195 -1.9139
   28MOL0     H 3828  -0.130   7.547   1.867  2.4188 -2.1331  0.7035
   28MOL0     H 3829  -0.259   7.478   1.773 -2.7291  2.3282  2.1379
   28MOL0     H 3830  -0.198   7.409   2.065  1.0020 -0.8070 -1.2799
   28MOL0     H 3831  -0.303   7.536   2.021  1.2023  0.2310  1.7685
   28MOL0     H 3832  -0.329   7.234   1.943  1.9791 -0.7683  3.0757
   28MOL0     H 3833  -0.452   7.371   1.921  0.1109  0.7761  1.7052
   28MOL0     H 3834  -0.479   7.389   2.160 -1.0350 -0.8516  0.4545
   28MOL0     H 3835  -0.371   7.258   2.186 -2.2527 -0.5024  1.3486
   28MOL0     H 3836  -0.619   7.250   2.036  0.1497  4.5369  4.1198
   28MOL0     H 3837  -0.493   7.112   2.046  2.2712  1.3106  0.2168
   28MOL0     H 3838  -0.619   7.238   2.284  3.1765 -0.1063  1.6531
   28MOL0     H 3839  -0.502   7.109   2.271 -0.5760 -0.1313  1.4279
   28MOL0     H 3840  -0.776   7.068   2.134 -0.3992  3.3863  1.8346
   28MOL0     H 3841  -0.766   7.061   2.305  0.3107 -1.4692  0.0987
   28MOL0     H 3842  -0.549   6.899   2.260  1.9268 -1.7298 -3.6266
   28MOL0     H 3843  -0.640   6.873   2.114 -1.9987 -3.0899  1.5616
   28MOL0     H 3844  -0.048   7.114   1.746  1.9484 -0.7838 -0.3440
   28MOL0     H 3845   0.099   6.956   1.864  1.2658  1.1769 -2.4293
   28MOL0     H 3846   0.475   7.100   2.382  2.6434  1.5488 -1.3583
   28MOL0     H 3847   0.682   6.968   2.451  2.2433 -3.3408 -0.3969
   28MOL0     H 3848   1.671   6.020   2.741 -0.5588 -0.0535 -0.4128
   28MOL0     H 3849   1.622   5.833   2.917  0.1146 -0.8287 -0.8437
   28MOL0     H 3850   1.163   5.534   2.872  1.8581  1.8651  0.5558
   28MOL0     H 3851   1.037   5.325   2.941 -0.4395  0.9517 -1.5852
   28MOL0     H 3852   0.965   5.114   3.001 -0.9083 -1.8441  0.8853
   28MOL0     H 3853   1.049   5.053   2.866  0.6863  2.5257  0.4694
   28MOL0     H 3854   1.127   4.849   3.000  1.3157  0.2905  1.6981
   28MOL0     H 3855   0.960   4.864   2.959  2.1547 -2.1359 -1.1054
   28MOL0     H 3856   1.044   4.981   3.215  2.6576 -2.5841  1.7201
   28MOL0     H 3857   0.879   4.935   3.176  0.7846  1.2576  2.6043
   28MOL0     H 3858   1.113   4.754   3.236  0.5854  1.8681 -2.0077
   28MOL0     H 3859   0.967   4.679   3.156  0.7394 -0.5183 -0.8369
   28MOL0     H 3860   0.861   4.695   3.558 -2.5369 -1.0427 -1.1544
   28MOL0     H 3861   1.398   5.133   3.022 -0.4940 -1.1479 -3.0610
   28MOL0     H 3862   1.587   5.416   3.060 -0.0626 -1.8686  1.4196
   28MOL0     H 3863   1.615   5.245   3.009 -0.5358 -1.0382  0.1036
   28MOL0     H 3864   1.635   5.376   2.889 -0.6312 -1.4305 -0.7175
   29MOL0     O 3865   4.364   3.663   1.710  0.5883 -0.1947 -0.2224
   29MOL0     C 3866   4.352   3.556   1.648 -0.0704  0.0947 -0.2742
   29MOL0     O 3867   4.450   3.505   1.564 -0.0319 -0.3409 -0.2161
   29MOL0     C 3868   4.577   3.560   1.559  0.4693 -0.0307  0.8961
   29MOL0     C 3869   4.642   3.611   1.673  0.6404 -0.7894 -0.6368
   29MOL0     C 3870   4.781   3.641   1.671  0.4292  0.9521 -0.2004
   29MOL0     C 3871   4.858   3.620   1.550  0.7078  0.5807 -0.1119
   29MOL0     O 3872   4.983   3.653   1.524 -0.3765 -0.4066 -0.3853
   29MOL0     C 3873   5.076   3.689   1.632  0.0709  0.7731 -0.2017
   29MOL0     C 3874   5.171   3.585   1.686  0.4468  0.3502  0.6192
   29MOL0     C 3875   5.102   3.467   1.760 -0.2514 -0.6897  0.2954
   29MOL0     C 3876   5.193   3.360   1.818 -0.7465 -1.0659  0.4363
   29MOL0     C 3877   5.101   3.272   1.911 -0.4645  0.1679 -0.9624
   29MOL0     C 3878   5.172   3.225   2.047 -0.9280  0.0645  0.3213
   29MOL0     C 3879   5.074   3.133   2.105 -0.5377  0.6324  0.2157
   29MOL0     C 3880   5.132   3.057   2.225  0.5211 -0.1110 -0.0238
   29MOL0     N 3881   5.141   3.149   2.345  0.3357 -0.7148 -0.4082
   29MOL0     C 3882   5.237   3.151   2.449 -0.5938 -0.4413  0.4565
   29MOL0     C 3883   5.175   3.213   2.555  0.0903  0.0513  0.4276
   29MOL0     C 3884   5.243   3.231   2.687 -0.1233 -0.2683  0.3587
   29MOL0     C 3885   5.245   3.372   2.743 -0.5350  0.4780 -0.0431
   29MOL0     C 3886   5.323   3.469   2.659 -0.3301 -0.5678  0.5477
   29MOL0     C 3887   5.262   3.503   2.533  0.2345 -0.2701 -0.0032
   29MOL0     O 3888   5.300   3.639   2.497 -0.0899 -0.0815 -0.3410
   29MOL0     C 3889   5.291   3.683   2.365  0.3025 -0.1867  0.1101
   29MOL0     C 3890   5.328   3.814   2.341 -0.8888 -0.7677  0.1318
   29MOL0     C 3891   5.326   3.875   2.213  0.2563 -0.2465  0.6819
   29MOL0     C 3892   5.362   4.025   2.197 -1.1387 -0.1086 -0.5313
   29MOL0     C 3893   5.302   3.798   2.101  0.1686 -0.8615 -0.2071
   29MOL0     C 3894   5.293   3.845   1.966  0.1690 -0.3187 -0.2279
   29MOL0     O 3895   5.386   3.923   1.917  0.3452  0.0091  0.0228
   29MOL0     C 3896   5.374   3.984   1.795 -0.7418 -0.6197  0.8857
   29MOL0     C 3897   5.434   3.936   1.683 -0.5488 -0.6457  0.1159
   29MOL0     C 3898   5.400   3.977   1.553  0.1629 -0.7552 -0.1152
   29MOL0     C 3899   5.308   4.079   1.534 -0.4001 -0.7863  0.1781
   29MOL0     O 3900   5.278   4.117   1.399 -1.1942  1.0149 -1.2425
   29MOL0     C 3901   5.271   4.256   1.381 -0.5245  0.1299  0.3287
   29MOL0     C 3902   5.250   4.285   1.231 -0.6191  0.8147 -0.8316
   29MOL0     C 3903   5.125   4.228   1.177  0.4529 -0.3875  0.9521
   29MOL0     C 3904   5.128   4.246   1.026  0.0556 -0.4668 -0.0010
   29MOL0     C 3905   4.988   4.232   0.961  0.2252 -0.1713 -0.6254
   29MOL0     C 3906   4.992   4.228   0.810 -0.2289  0.0014  0.4347
   29MOL0     C 3907   4.845   4.230   0.761  0.3087 -0.8402 -0.8782
   29MOL0     C 3908   4.822   4.276   0.618  0.7768  0.3649  1.0821
   29MOL0    Cl 3909   4.648   4.246   0.565 -0.1317 -0.4318 -0.1596
   29MOL0     C 3910   5.249   4.136   1.642 -0.1345 -0.3057 -0.3860
   29MOL0     C 3911   5.282   4.086   1.778 -0.7017 -0.9785  0.5103
   29MOL0     O 3912   5.190   3.811   1.910  0.3058  0.1452 -0.7759
   29MOL0     C 3913   5.262   3.667   2.124 -0.6429 -0.3067 -0.7813
   29MOL0     C 3914   5.244   3.612   2.254 -0.6174 -0.1680 -0.9530
   29MOL0     N 3915   5.056   3.266   2.510 -0.5127 -0.0317 -0.1936
   29MOL0     N 3916   5.040   3.218   2.389 -0.8388 -0.1578  0.1041
   29MOL0     C 3917   4.785   3.578   1.433 -0.4684  0.6932 -0.7610
   29MOL0     C 3918   4.644   3.562   1.434  0.4390  1.0694  0.1190
   29MOL0     C 3919   4.220   3.478   1.678 -0.7353  0.8130  0.2185
   29MOL0     C 3920   4.156   3.501   1.809  0.2118 -0.0518  0.0979
   29MOL0     C 3921   4.026   3.461   1.831  0.0795  0.0990 -0.2461
   29MOL0     C 3922   3.967   3.375   1.737 -0.7659 -0.3344  0.3812
   29MOL0     O 3923   3.841   3.329   1.778  0.4423 -0.2221  0.5433
   29MOL0     C 3924   3.831   3.188   1.768 -0.2162  0.1197  1.4428
   29MOL0     C 3925   3.691   3.159   1.828 -0.3444 -0.0252  0.7367
   29MOL0     C 3926   3.648   3.015   1.819 -0.0238  0.2948  0.2118
   29MOL0     C 3927   3.512   2.996   1.885 -0.3037  0.6108  0.6983
   29MOL0     C 3928   3.458   2.864   1.894 -0.3404 -0.0031  0.1537
   29MOL0     C 3929   3.422   2.747   1.899 -0.4999  0.1480 -0.8517
   29MOL0     C 3930   4.033   3.344   1.607 -0.0960 -0.0411 -0.0293
   29MOL0     C 3931   4.158   3.395   1.578 -0.0738  0.0335  1.1426
   29MOL0     C 3932   4.214   3.376   1.437 -0.0871 -0.3615 -0.3485
   29MOL0     H 3933   4.600   3.609   1.773  1.7512  1.0823 -0.0745
   29MOL0     H 3934   4.828   3.678   1.761  0.2050  1.8514 -0.4410
   29MOL0     H 3935   5.031   3.743   1.716 -0.0011  2.2030 -1.1225
   29MOL0     H 3936   5.147   3.762   1.591  2.1246 -0.5632  0.8086
   29MOL0     H 3937   5.209   3.546   1.591  1.0939  1.1786  0.5246
   29MOL0     H 3938   5.257   3.614   1.747 -0.3128  0.1943  1.7977
   29MOL0     H 3939   5.041   3.509   1.841 -3.1451 -0.8054 -1.6713
   29MOL0     H 3940   5.041   3.415   1.685  0.3212 -1.2369  0.1970
   29MOL0     H 3941   5.222   3.297   1.733  0.7723  0.3339 -0.1165
   29MOL0     H 3942   5.283   3.400   1.865 -1.9316 -0.6977  2.5437
   29MOL0     H 3943   5.094   3.180   1.852 -1.7365  0.3715 -1.1646
   29MOL0     H 3944   5.009   3.327   1.931  1.9031  3.5000  2.0256
   29MOL0     H 3945   5.267   3.185   2.010  0.8650  4.2977 -0.2221
   29MOL0     H 3946   5.193   3.310   2.113  1.4795  1.4224 -2.0118
   29MOL0     H 3947   5.070   3.065   2.019  2.7122  0.0490  0.4052
   29MOL0     H 3948   4.978   3.181   2.129  0.6571  2.8561  0.7866
   29MOL0     H 3949   5.077   2.964   2.242 -0.8245  0.4200 -1.2202
   29MOL0     H 3950   5.231   3.022   2.195  1.1761 -1.8067  3.6358
   29MOL0     H 3951   5.332   3.099   2.447  0.6459  1.6719 -2.3138
   29MOL0     H 3952   5.348   3.201   2.672 -0.3313 -1.0735  0.4392
   29MOL0     H 3953   5.208   3.152   2.755  0.5438 -1.1542 -0.3014
   29MOL0     H 3954   5.148   3.421   2.761 -0.5205  0.6725 -0.4715
   29MOL0     H 3955   5.285   3.365   2.845  0.9027  2.3915 -0.4306
   29MOL0     H 3956   5.316   3.559   2.720 -1.8440 -1.4898  1.7889
   29MOL0     H 3957   5.431   3.454   2.651 -0.6433 -1.9988 -2.7090
   29MOL0     H 3958   5.278   3.433   2.451 -1.1573  0.2915 -0.7912
   29MOL0     H 3959   5.154   3.494   2.546 -0.3642  1.4703 -2.8254
   29MOL0     H 3960   5.375   3.861   2.426 -0.4656 -0.6700 -0.1505
   29MOL0     H 3961   5.371   4.078   2.292  0.3497  3.2863 -2.3923
   29MOL0     H 3962   5.289   4.087   2.144  0.0963 -0.3920 -2.6773
   29MOL0     H 3963   5.459   4.024   2.148 -0.0234 -0.7199  1.5718
   29MOL0     H 3964   5.505   3.855   1.696 -2.6306 -3.1257 -2.5674
   29MOL0     H 3965   5.429   3.919   1.465  0.2443 -0.2299 -0.4408
   29MOL0     H 3966   5.177   4.297   1.419  0.4114  1.0025  1.7942
   29MOL0     H 3967   5.361   4.307   1.418  1.2768 -1.5371 -1.4785
   29MOL0     H 3968   5.240   4.392   1.212 -2.3216  0.4215 -2.4719
   29MOL0     H 3969   5.333   4.234   1.181 -2.4635 -2.7189 -0.5742
   29MOL0     H 3970   5.035   4.287   1.198  0.2955  0.7485 -2.3229
   29MOL0     H 3971   5.106   4.126   1.211 -3.3914 -0.6267 -1.2934
   29MOL0     H 3972   5.194   4.169   0.983  3.6780  0.8276  2.7201
   29MOL0     H 3973   5.175   4.339   0.993  4.1885 -2.0836  0.6723
   29MOL0     H 3974   4.943   4.138   0.994 -1.1880 -0.3903 -2.9504
   29MOL0     H 3975   4.923   4.310   1.001 -0.6148 -1.6154  0.9449
   29MOL0     H 3976   5.036   4.131   0.786 -0.2160 -0.2074  1.2786
   29MOL0     H 3977   5.057   4.307   0.770 -0.8435 -0.1963 -1.0145
   29MOL0     H 3978   4.777   4.283   0.827 -1.5182  0.8847 -3.8826
   29MOL0     H 3979   4.816   4.125   0.770 -2.5082 -0.2899 -2.1485
   29MOL0     H 3980   4.882   4.220   0.546 -2.0158 -1.1861 -0.2257
   29MOL0     H 3981   4.837   4.383   0.603  0.7698  0.0360 -1.8905
   29MOL0     H 3982   5.172   4.206   1.613 -0.9942 -1.0148  0.1329
   29MOL0     H 3983   5.230   4.117   1.869 -0.0548  3.5267 -0.4499
   29MOL0     H 3984   5.230   3.611   2.037 -0.1019 -0.3375 -0.9682
   29MOL0     H 3985   5.211   3.512   2.279  1.9649 -1.0334 -0.7117
   29MOL0     H 3986   4.834   3.567   1.336 -0.7993 -3.9114 -0.6348
   29MOL0     H 3987   4.606   3.523   1.340 -0.6300  0.2526  0.8650
   29MOL0     H 3988   4.215   3.546   1.888  0.0060  2.0186 -0.8623
   29MOL0     H 3989   3.986   3.473   1.931  1.4819  1.4932  0.1919
   29MOL0     H 3990   3.833   3.153   1.664 -0.9775  0.3025  1.3655
   29MOL0     H 3991   3.911   3.137   1.823  0.2376  0.2836  0.9494
   29MOL0     H 3992   3.619   3.218   1.771 -0.6091  1.0493  2.1240
   29MOL0     H 3993   3.703   3.195   1.931  2.1533  0.4681  0.3520
   29MOL0     H 3994   3.646   2.975   1.717 -1.6830 -0.8389  0.6331
   29MOL0     H 3995   3.723   2.959   1.876 -0.1844  0.5581  0.6912
   29MOL0     H 3996   3.437   3.062   1.839  0.8138  4.4302  3.8247
   29MOL0     H 3997   3.521   3.040   1.985  2.1022  1.5034  0.1569
   29MOL0     H 3998   3.400   2.646   1.927 -2.3388  0.8706  0.4898
   29MOL0     H 3999   3.992   3.279   1.530  0.8675  1.4312 -1.8668
   29MOL0     H 4000   4.216   3.479   1.400  1.1188  0.6086  2.1618
   29MOL0     H 4001   4.320   3.348   1.438  0.5798  1.8261 -1.8711
   29MOL0     H 4002   4.145   3.313   1.379 -0.0169  0.6871 -1.6131
   30MOL0     O 4003   9.983   3.199   3.692 -0.5409  0.2037  0.4974
   30MOL0     C 4004   9.981   3.275   3.597  1.1745 -0.4042 -0.4829
   30MOL0     O 4005  10.000   3.231   3.470  0.1083  0.0115  0.3324
   30MOL0     C 4006  10.046   3.099   3.449  1.2750 -0.6817  1.6264
   30MOL0     C 4007  10.167   3.054   3.496 -0.2741 -0.3434 -0.2179
   30MOL0     C 4008  10.204   2.920   3.481 -0.5125 -0.5424 -0.3133
   30MOL0     C 4009  10.122   2.828   3.421  0.0233 -0.4359 -0.2606
   30MOL0     O 4010  10.161   2.698   3.396  0.2043  0.1985 -0.5733
   30MOL0     C 4011  10.295   2.655   3.432  0.6216  0.4131  0.7925
   30MOL0     C 4012  10.338   2.520   3.367  0.3098 -0.2440 -0.3781
   30MOL0     C 4013  10.324   2.531   3.210  0.6817  0.6072 -0.7907
   30MOL0     C 4014  10.452   2.594   3.155 -1.1291  0.4440  0.2937
   30MOL0     C 4015  10.432   2.613   3.001  0.0958  0.7296 -1.2212
   30MOL0     C 4016  10.535   2.695   2.938  0.9913 -0.9597  0.5167
   30MOL0     C 4017  10.503   2.846   2.968  0.0930  0.6794 -0.4953
   30MOL0     C 4018  10.619   2.927   2.916 -0.1676  0.4168  0.2491
   30MOL0     N 4019  10.595   2.946   2.773  0.1229  0.0698  0.4159
   30MOL0     C 4020  10.667   2.892   2.666  0.0222 -0.5067  0.0089
   30MOL0     C 4021  10.614   2.939   2.558  0.1462 -0.9494  0.2514
   30MOL0     C 4022  10.681   2.931   2.423  0.4235 -0.0865 -0.3810
   30MOL0     C 4023  10.766   3.055   2.385  1.0484 -0.4099  0.6129
   30MOL0     C 4024  10.709   3.198   2.371 -0.1795  0.7623  0.1512
   30MOL0     C 4025  10.565   3.209   2.324  0.6781 -0.4554  0.8498
   30MOL0     O 4026  10.543   3.124   2.212  0.8688 -0.4317  0.3549
   30MOL0     C 4027  10.417   3.134   2.152  0.3531 -0.1197 -0.2393
   30MOL0     C 4028  10.289   3.160   2.212  0.0665 -0.6640 -0.4312
   30MOL0     C 4029  10.171   3.159   2.141 -0.2440 -0.0029 -0.1525
   30MOL0     C 4030  10.044   3.195   2.212 -0.1082 -0.4845 -0.1144
   30MOL0     C 4031  10.178   3.121   2.005  0.8525 -0.0695  0.2656
   30MOL0     C 4032  10.061   3.108   1.913  0.0490 -0.1502 -0.6077
   30MOL0     O 4033  10.028   2.987   1.882 -0.1327  0.3691 -0.6745
   30MOL0     C 4034   9.912   2.961   1.807  1.2284  1.1383 -0.6874
   30MOL0     C 4035   9.785   2.950   1.873 -0.5061 -0.1228 -0.0546
   30MOL0     C 4036   9.679   2.939   1.785  0.1800  0.9298 -0.8784
   30MOL0     C 4037   9.690   2.928   1.654  0.2817 -0.3646  0.1406
   30MOL0     O 4038   9.586   2.915   1.567  0.6173 -0.5569 -0.3607
   30MOL0     C 4039   9.583   3.011   1.456 -0.9596  0.4745 -0.0989
   30MOL0     C 4040   9.440   3.049   1.398  0.1649  1.2606  0.7683
   30MOL0     C 4041   9.403   2.965   1.278  0.7932 -0.0346 -0.1536
   30MOL0     C 4042   9.260   3.015   1.238 -0.4319  0.7663  0.3762
   30MOL0     C 4043   9.236   2.957   1.089  0.3113 -0.0554 -0.2138
   30MOL0     C 4044   9.087   2.931   1.066 -0.1415  0.0688 -0.8435
   30MOL0     C 4045   9.055   2.852   0.931  0.1701  0.3390 -0.7963
   30MOL0     C 4046   8.908   2.864   0.920  0.3858 -0.0548 -0.8651
   30MOL0    Cl 4047   8.804   2.742   1.021 -0.1979  0.6973  0.5174
   30MOL0     C 4048   9.817   2.923   1.595 -0.6637 -0.4076 -0.2047
   30MOL0     C 4049   9.928   2.930   1.669 -0.1430  0.2307 -0.0403
   30MOL0     O 4050   9.991   3.209   1.898  0.4543  0.0330 -0.2282
   30MOL0     C 4051  10.305   3.091   1.952 -0.1890 -0.6602 -0.5064
   30MOL0     C 4052  10.417   3.107   2.027 -0.1262  0.8966  0.7989
   30MOL0     N 4053  10.508   3.026   2.590 -0.1041 -0.3624  0.7815
   30MOL0     N 4054  10.507   3.032   2.716  0.0625 -0.8500 -0.0253
   30MOL0     C 4055   9.999   2.868   3.383  0.2197  0.4033  0.1947
   30MOL0     C 4056   9.957   3.003   3.399  0.0626  0.3814  0.0444
   30MOL0     C 4057   9.978   3.421   3.625 -0.3735 -1.0669 -1.3686
   30MOL0     C 4058  10.006   3.506   3.518  0.4112 -0.7443  0.3097
   30MOL0     C 4059  10.030   3.642   3.539  0.2450  0.8080  1.1193
   30MOL0     C 4060  10.011   3.701   3.657 -0.0052  0.3670 -0.4177
   30MOL0     O 4061  10.026   3.836   3.670 -0.0569 -0.2499 -0.4297
   30MOL0     C 4062  10.041   3.903   3.796  0.5993 -0.0109  0.4397
   30MOL0     C 4063  10.097   4.048   3.789 -0.3444  0.2880  0.1803
   30MOL0     C 4064  10.246   4.042   3.770 -0.3527 -0.2431  0.6429
   30MOL0     C 4065  10.318   4.098   3.897 -0.6986  0.0586 -0.3959
   30MOL0     C 4066  10.286   4.230   3.930 -0.1650  0.8967 -0.5837
   30MOL0     C 4067  10.266   4.349   3.965 -0.4896 -0.1892 -1.0119
   30MOL0     C 4068   9.989   3.620   3.772  0.2940  0.3191  0.3223
   30MOL0     C 4069   9.960   3.485   3.760 -0.2922 -0.0727 -0.7909
   30MOL0     C 4070   9.916   3.397   3.885  0.7035 -0.0024  0.6808
   30MOL0     H 4071  10.231   3.128   3.542  1.9823 -1.4887 -1.3368
   30MOL0     H 4072  10.301   2.889   3.519  0.1622  1.1857 -0.5272
   30MOL0     H 4073  10.306   2.653   3.540 -1.8864  3.0348  1.1914
   30MOL0     H 4074  10.364   2.733   3.399 -1.8166  1.6284 -1.8639
   30MOL0     H 4075  10.438   2.494   3.404  0.6712  1.0980 -0.3442
   30MOL0     H 4076  10.266   2.446   3.404 -2.1175  2.3223  0.3615
   30MOL0     H 4077  10.309   2.432   3.165  1.2710 -0.4749  1.2574
   30MOL0     H 4078  10.226   2.573   3.188  0.6706  0.8466 -0.2839
   30MOL0     H 4079  10.475   2.685   3.212  0.0013 -0.6448  1.6567
   30MOL0     H 4080  10.540   2.530   3.169  0.7488  3.1397  1.8199
   30MOL0     H 4081  10.333   2.659   2.991 -0.9225 -0.8424  0.7953
   30MOL0     H 4082  10.424   2.515   2.954  0.2414  0.0932  0.0273
   30MOL0     H 4083  10.632   2.657   2.972  1.5356  1.0438  1.3170
   30MOL0     H 4084  10.529   2.684   2.830 -1.1133 -3.0652  0.7680
   30MOL0     H 4085  10.488   2.868   3.074  1.4880  2.4487 -0.6204
   30MOL0     H 4086  10.411   2.882   2.921  1.7010  4.4298 -1.1283
   30MOL0     H 4087  10.603   3.025   2.962 -0.0415  0.4080  0.3099
   30MOL0     H 4088  10.717   2.894   2.951  1.6873  3.6062 -1.4663
   30MOL0     H 4089  10.763   2.841   2.661  0.0458 -0.7092  1.7531
   30MOL0     H 4090  10.608   2.908   2.345  2.9835 -0.1786 -2.9166
   30MOL0     H 4091  10.750   2.846   2.433  0.0261 -0.6768 -2.2074
   30MOL0     H 4092  10.839   3.075   2.464 -1.0840  3.8878  1.8246
   30MOL0     H 4093  10.822   3.041   2.292  2.1505 -0.6277  1.2950
   30MOL0     H 4094  10.714   3.246   2.469 -2.9351  2.8271 -0.6088
   30MOL0     H 4095  10.776   3.261   2.312 -0.8546  1.2755 -0.0760
   30MOL0     H 4096  10.495   3.179   2.403  0.4816  1.1382  1.3167
   30MOL0     H 4097  10.538   3.313   2.303 -1.2342 -1.3985 -2.0410
   30MOL0     H 4098  10.280   3.175   2.319 -2.8082 -0.5198 -0.6106
   30MOL0     H 4099  10.005   3.294   2.187  0.0592 -0.4400 -0.2000
   30MOL0     H 4100  10.060   3.181   2.319 -2.1644  1.7961  0.5744
   30MOL0     H 4101   9.967   3.128   2.171 -4.3924  2.0679  2.9276
   30MOL0     H 4102   9.769   2.955   1.980  0.0939  1.7514 -0.0017
   30MOL0     H 4103   9.581   2.928   1.829  1.0628 -0.9083  0.8077
   30MOL0     H 4104   9.618   3.112   1.481 -0.4196  0.2233  0.1897
   30MOL0     H 4105   9.645   2.973   1.375 -2.0693 -2.3655  0.2605
   30MOL0     H 4106   9.359   3.029   1.469 -1.0957 -0.9701 -1.1053
   30MOL0     H 4107   9.438   3.153   1.364 -0.7711  1.0536  0.1401
   30MOL0     H 4108   9.409   2.863   1.315  2.8735  0.6490  1.6547
   30MOL0     H 4109   9.474   2.970   1.195 -0.9862 -0.9744 -1.7918
   30MOL0     H 4110   9.249   3.124   1.235  1.2876  0.9786  0.6538
   30MOL0     H 4111   9.187   2.989   1.316 -0.5719 -0.2098 -0.0739
   30MOL0     H 4112   9.290   3.024   1.022 -1.3449  2.5370  0.8847
   30MOL0     H 4113   9.296   2.867   1.070 -1.5006 -1.6188  1.0554
   30MOL0     H 4114   9.035   3.027   1.064 -1.3727 -0.5900 -0.8863
   30MOL0     H 4115   9.066   2.867   1.152 -0.9437  0.5097 -0.7000
   30MOL0     H 4116   9.089   2.750   0.951  2.4740  0.9991 -1.0257
   30MOL0     H 4117   9.099   2.889   0.838  1.3610 -0.4991 -0.5904
   30MOL0     H 4118   8.880   2.831   0.819  1.3749  0.1594 -1.2173
   30MOL0     H 4119   8.878   2.966   0.945 -1.5549 -1.3019  2.6737
   30MOL0     H 4120   9.819   2.899   1.489 -3.0589  0.2286 -0.4595
   30MOL0     H 4121  10.028   2.900   1.642  0.1493  2.1738 -1.3206
   30MOL0     H 4122  10.307   3.055   1.849 -1.0849 -2.3094  0.0177
   30MOL0     H 4123  10.513   3.085   1.984  0.0051  2.1853  0.3716
   30MOL0     H 4124   9.916   2.815   3.336 -0.4667  3.0976 -1.8923
   30MOL0     H 4125   9.852   3.028   3.383  0.6725  3.0076 -0.3602
   30MOL0     H 4126  10.023   3.470   3.417  0.5727  1.6150 -0.5797
   30MOL0     H 4127  10.036   3.723   3.466  1.8164  2.0598  2.5422
   30MOL0     H 4128   9.942   3.889   3.841 -0.6183 -0.3006 -2.1161
   30MOL0     H 4129  10.113   3.848   3.857  1.6154 -0.0228 -0.7326
   30MOL0     H 4130  10.060   4.092   3.882 -3.3483  0.2236 -0.8667
   30MOL0     H 4131  10.048   4.098   3.705 -1.5618 -2.3536 -0.7688
   30MOL0     H 4132  10.272   3.940   3.739 -3.1726 -1.4011  1.8014
   30MOL0     H 4133  10.266   4.102   3.680 -0.6968 -2.4297 -0.9660
   30MOL0     H 4134  10.424   4.082   3.871 -0.9406  0.0676 -1.4460
   30MOL0     H 4135  10.302   4.034   3.984 -1.0990  1.3708  0.5138
   30MOL0     H 4136  10.237   4.451   3.982  0.1023  0.1065 -1.6846
   30MOL0     H 4137   9.990   3.656   3.874 -0.3511  1.3599 -0.0285
   30MOL0     H 4138  10.000   3.338   3.921  0.2436 -1.0884  0.0103
   30MOL0     H 4139   9.878   3.462   3.965 -0.2934 -0.2431  0.4212
   30MOL0     H 4140   9.834   3.332   3.854  0.6011 -0.4498  1.8167
   31MOL0     O 4141   1.879   4.758   4.323 -0.5906 -0.6183  0.1926
   31MOL0     C 4142   1.891   4.644   4.356 -0.8753  0.8066  0.7704
   31MOL0     O 4143   1.853   4.538   4.284  1.1782 -0.9125  0.4309
   31MOL0     C 4144   1.761   4.541   4.181  0.0316  0.5177 -1.4687
   31MOL0     C 4145   1.727   4.653   4.105 -0.6523  0.0274 -0.0686
   31MOL0     C 4146   1.630   4.639   4.000 -0.3554 -0.4971  0.0017
   31MOL0     C 4147   1.594   4.513   3.956 -1.1174 -0.5352 -0.5641
   31MOL0     O 4148   1.548   4.510   3.827  0.5531  1.5436 -0.2507
   31MOL0     C 4149   1.439   4.415   3.787 -0.5226  0.5409  0.1269
   31MOL0     C 4150   1.311   4.484   3.766 -0.7871  0.2328  0.4290
   31MOL0     C 4151   1.202   4.377   3.770 -0.2036 -0.0611 -0.5202
   31MOL0     C 4152   1.077   4.443   3.807  0.8789 -0.4412  0.2544
   31MOL0     C 4153   0.951   4.351   3.814  0.5800  0.2817 -0.3932
   31MOL0     C 4154   0.959   4.232   3.911  0.2741 -0.6139  1.3850
   31MOL0     C 4155   0.808   4.184   3.930 -0.4946 -0.1826  0.1236
   31MOL0     C 4156   0.798   4.075   4.036  0.5819 -0.1079  0.9437
   31MOL0     N 4157   0.886   3.963   4.021  0.4236 -0.9247  0.0260
   31MOL0     C 4158   0.849   3.834   3.989 -0.4384  0.5728  0.1129
   31MOL0     C 4159   0.935   3.740   4.033  0.2148  0.0087 -0.2733
   31MOL0     C 4160   0.910   3.595   4.025  0.1014  0.2234 -0.7712
   31MOL0     C 4161   1.038   3.512   4.001 -0.0410 -0.0555 -1.2928
   31MOL0     C 4162   1.014   3.358   3.992  0.1416  1.0162 -0.8181
   31MOL0     C 4163   1.009   3.274   4.128 -0.4351  0.2425  0.6959
   31MOL0     O 4164   1.147   3.232   4.157 -0.1602  0.4600 -0.3723
   31MOL0     C 4165   1.151   3.153   4.276  0.5616  0.0018 -0.4584
   31MOL0     C 4166   1.259   3.059   4.282 -1.4584  0.5227  0.4646
   31MOL0     C 4167   1.258   2.959   4.388  0.8052  0.6690  0.4628
   31MOL0     C 4168   1.372   2.857   4.372 -0.4812  0.3887 -0.2008
   31MOL0     C 4169   1.165   2.966   4.492 -0.0833 -0.6681  0.4126
   31MOL0     C 4170   1.144   2.862   4.589 -0.7592 -0.1616  0.2541
   31MOL0     O 4171   1.066   2.891   4.703 -0.1758 -0.3446  0.6677
   31MOL0     C 4172   0.998   2.798   4.778 -0.0617 -0.1348  0.0815
   31MOL0     C 4173   0.977   2.825   4.912 -0.6155 -0.3464  0.2759
   31MOL0     C 4174   0.892   2.752   4.986  0.0698  0.0262  0.3749
   31MOL0     C 4175   0.813   2.647   4.932  0.3089 -0.4541 -0.4341
   31MOL0     O 4176   0.716   2.579   4.991  0.5821 -0.5806  0.7275
   31MOL0     C 4177   0.658   2.637   5.117  0.5382 -0.0164 -0.3916
   31MOL0     C 4178   0.523   2.588   5.168 -0.0317  0.7079  0.0504
   31MOL0     C 4179   0.407   2.609   5.066 -0.7935  1.0119 -0.2128
   31MOL0     C 4180   0.273   2.550   5.113 -0.0952 -0.4223 -0.0448
   31MOL0     C 4181   0.186   2.586   4.990 -0.7829  0.7555 -0.2204
   31MOL0     C 4182   0.037   2.586   5.024  0.9935  0.1705 -0.0590
   31MOL0     C 4183  -0.052   2.606   4.903 -0.2716  0.0615  0.4259
   31MOL0     C 4184  -0.145   2.725   4.929  0.1345  0.0296  0.2191
   31MOL0    Cl 4185  -0.270   2.665   5.041 -0.2535  0.4423 -0.2252
   31MOL0     C 4186   0.833   2.628   4.787  0.4640  0.0054 -0.0694
   31MOL0     C 4187   0.929   2.700   4.712  0.4995  0.3393  0.6840
   31MOL0     O 4188   1.201   2.754   4.571 -0.0568  0.9152 -0.1205
   31MOL0     C 4189   1.066   3.067   4.494 -0.8032 -0.2193 -0.0487
   31MOL0     C 4190   1.063   3.165   4.384 -0.9535  0.5432 -0.1944
   31MOL0     N 4191   1.035   3.813   4.089  0.0425 -0.2758 -0.0286
   31MOL0     N 4192   1.001   3.938   4.087 -0.4287 -0.3082  0.3926
   31MOL0     C 4193   1.629   4.393   4.030 -0.0791  0.1835  0.2304
   31MOL0     C 4194   1.702   4.416   4.152 -0.1385 -0.7113  0.5823
   31MOL0     C 4195   1.975   4.616   4.480 -0.2032 -0.6640  0.5213
   31MOL0     C 4196   2.051   4.503   4.485  0.2098  0.1150 -0.6886
   31MOL0     C 4197   2.126   4.453   4.597 -0.4441  0.4505  0.6600
   31MOL0     C 4198   2.139   4.541   4.702  0.2100  1.3459  0.3106
   31MOL0     O 4199   2.210   4.495   4.809 -0.7143 -0.2091  0.3305
   31MOL0     C 4200   2.150   4.390   4.892  0.2945 -0.4015 -1.0551
   31MOL0     C 4201   2.213   4.386   5.036 -1.0752  0.0236 -0.1725
   31MOL0     C 4202   2.192   4.514   5.111  0.6892  0.3307 -0.5398
   31MOL0     C 4203   2.212   4.505   5.263  0.3040 -0.2049  0.0273
   31MOL0     C 4204   2.348   4.521   5.294 -0.3957  0.1814  0.5689
   31MOL0     C 4205   2.466   4.526   5.324  0.7356 -0.1079 -0.3942
   31MOL0     C 4206   2.074   4.658   4.700  0.7119 -1.1980  0.0288
   31MOL0     C 4207   1.979   4.697   4.595  0.1930  0.7654 -0.3141
   31MOL0     C 4208   1.887   4.811   4.618  0.1666 -0.2405 -0.3211
   31MOL0     H 4209   1.786   4.744   4.111 -2.3130  1.1388 -0.0092
   31MOL0     H 4210   1.597   4.729   3.948 -0.6918 -0.1732  0.7583
   31MOL0     H 4211   1.440   4.333   3.860  0.9294  1.6016  1.3616
   31MOL0     H 4212   1.461   4.368   3.691 -1.0580  1.1209 -0.2854
   31MOL0     H 4213   1.289   4.574   3.823 -5.2845  2.2645 -3.7412
   31MOL0     H 4214   1.320   4.533   3.668 -4.3436 -1.5188 -0.9596
   31MOL0     H 4215   1.190   4.325   3.674  1.5099 -2.1255  0.2908
   31MOL0     H 4216   1.218   4.294   3.841 -2.8341 -1.9615 -1.9484
   31MOL0     H 4217   1.098   4.499   3.899  1.9278  0.2540 -0.3906
   31MOL0     H 4218   1.060   4.519   3.731  2.8680  3.3903  3.2711
   31MOL0     H 4219   0.924   4.316   3.714  2.4444  4.5890 -2.6699
   31MOL0     H 4220   0.881   4.429   3.843  0.8055 -1.1573  5.2155
   31MOL0     H 4221   1.018   4.153   3.863 -0.0227 -0.6949  1.1502
   31MOL0     H 4222   1.004   4.254   4.008  0.8743 -0.1792  1.0154
   31MOL0     H 4223   0.773   4.135   3.839  0.9177 -2.3276  0.6633
   31MOL0     H 4224   0.746   4.271   3.955  0.8782  1.6397 -2.2937
   31MOL0     H 4225   0.829   4.116   4.132  2.1897  1.5479 -0.2048
   31MOL0     H 4226   0.696   4.035   4.038 -0.9462  2.9990 -2.3961
   31MOL0     H 4227   0.756   3.796   3.949 -1.2003 -0.2749  2.5330
   31MOL0     H 4228   0.835   3.571   3.949 -1.4595 -1.1579  1.0958
   31MOL0     H 4229   0.849   3.562   4.110 -0.1230 -0.1722 -1.0833
   31MOL0     H 4230   1.067   3.547   3.902 -0.0752  0.1365 -1.2358
   31MOL0     H 4231   1.123   3.538   4.065  0.1163  0.9764 -1.9011
   31MOL0     H 4232   0.910   3.344   3.961  0.3456 -1.7582 -0.5176
   31MOL0     H 4233   1.075   3.308   3.917  4.4141 -1.0532  3.4595
   31MOL0     H 4234   0.975   3.345   4.204  1.0879  3.1212 -1.1108
   31MOL0     H 4235   0.952   3.182   4.114  2.2552 -1.4607  0.0928
   31MOL0     H 4236   1.334   3.063   4.204  1.2363 -0.8741  2.7552
   31MOL0     H 4237   1.417   2.836   4.470 -0.0667 -1.5312 -0.7620
   31MOL0     H 4238   1.453   2.902   4.314  1.2644 -0.6080  1.3221
   31MOL0     H 4239   1.330   2.765   4.330 -3.1988  0.7432  1.4508
   31MOL0     H 4240   1.017   2.922   4.940 -1.8886  0.7019 -1.3457
   31MOL0     H 4241   0.877   2.784   5.089  1.2371 -2.1120  1.2788
   31MOL0     H 4242   0.737   2.636   5.192 -0.3154 -0.6168  0.5290
   31MOL0     H 4243   0.641   2.744   5.103 -0.2094  0.3227  2.4540
   31MOL0     H 4244   0.535   2.484   5.202 -1.4480  0.3657 -0.4345
   31MOL0     H 4245   0.491   2.629   5.264 -0.3404 -2.0376  1.2353
   31MOL0     H 4246   0.431   2.556   4.974 -2.7020  1.4772 -1.0275
   31MOL0     H 4247   0.393   2.716   5.047 -2.1142  0.3587 -3.5984
   31MOL0     H 4248   0.242   2.590   5.210 -3.9070  0.2219 -1.3805
   31MOL0     H 4249   0.286   2.442   5.120 -0.4818 -0.3953  1.3244
   31MOL0     H 4250   0.205   2.694   4.978  1.3217  0.5861  1.0370
   31MOL0     H 4251   0.204   2.525   4.901 -0.0676  0.6857 -0.0308
   31MOL0     H 4252   0.017   2.663   5.099 -0.3649 -0.7504  0.5752
   31MOL0     H 4253   0.020   2.491   5.076  3.6149  0.0924  0.7962
   31MOL0     H 4254  -0.104   2.514   4.879 -2.9683  2.0850 -2.2175
   31MOL0     H 4255  -0.000   2.616   4.807 -0.4447  2.4371  0.5250
   31MOL0     H 4256  -0.175   2.755   4.829  2.3173 -1.7700 -1.0790
   31MOL0     H 4257  -0.103   2.812   4.980 -0.2009  1.4016 -1.7449
   31MOL0     H 4258   0.773   2.544   4.755  0.8595 -1.3985  2.6188
   31MOL0     H 4259   0.936   2.680   4.605 -1.0367 -1.3766  0.8522
   31MOL0     H 4260   0.984   3.078   4.564 -2.1877 -1.8878 -1.3118
   31MOL0     H 4261   0.984   3.239   4.388 -1.1789  0.3162 -0.4647
   31MOL0     H 4262   1.595   4.297   3.993 -1.5420  0.8684 -0.3087
   31MOL0     H 4263   1.733   4.331   4.212 -0.4009 -3.4080 -2.7967
   31MOL0     H 4264   2.046   4.440   4.397 -0.3727 -0.5598 -0.1806
   31MOL0     H 4265   2.166   4.353   4.577  1.5044  1.7910 -3.1832
   31MOL0     H 4266   2.043   4.404   4.911  0.8144  2.4391  0.1564
   31MOL0     H 4267   2.159   4.293   4.843  3.8805 -1.0602  0.5805
   31MOL0     H 4268   2.319   4.370   5.013 -1.2364  0.4532 -1.2958
   31MOL0     H 4269   2.171   4.306   5.097 -0.3630  0.3866  0.8188
   31MOL0     H 4270   2.255   4.588   5.061  1.1509  0.1349 -0.2592
   31MOL0     H 4271   2.085   4.532   5.103 -0.0051 -3.0603 -0.4778
   31MOL0     H 4272   2.173   4.423   5.325 -0.1369  2.5248  3.6797
   31MOL0     H 4273   2.162   4.588   5.312  2.5962 -0.1152  2.4725
   31MOL0     H 4274   2.567   4.537   5.359  0.9826 -3.2220  0.1110
   31MOL0     H 4275   2.085   4.731   4.779 -1.4134  1.1841 -1.6841
   31MOL0     H 4276   1.900   4.855   4.718  0.1902  1.0018 -0.8544
   31MOL0     H 4277   1.901   4.891   4.545  0.3289 -0.6904 -0.7884
   31MOL0     H 4278   1.787   4.770   4.633  0.1351  0.2036  0.8008
   32MOL0     O 4279   8.359   7.044   9.013 -0.1494 -0.0759  0.0460
   32MOL0     C 4280   8.482   7.031   8.989 -0.6627  0.8395 -0.2339
   32MOL0     O 4281   8.536   7.050   8.865 -0.3172 -0.0867 -0.2591
   32MOL0     C 4282   8.464   7.094   8.751 -0.4522  0.0485  0.1409
   32MOL0     C 4283   8.379   7.210   8.748 -0.2173  0.0651 -0.9375
   32MOL0     C 4284   8.325   7.257   8.620 -0.8993  0.0816 -0.3905
   32MOL0     C 4285   8.350   7.186   8.502 -0.3959  0.2863 -0.3963
   32MOL0     O 4286   8.285   7.235   8.388  0.5923 -0.1649 -0.5483
   32MOL0     C 4287   8.254   7.134   8.282  0.6730 -0.2991 -0.7966
   32MOL0     C 4288   8.111   7.150   8.226 -0.3878 -0.2480 -0.0330
   32MOL0     C 4289   7.999   7.140   8.323  0.1775  0.0050 -0.1860
   32MOL0     C 4290   7.863   7.124   8.256  0.6476  0.0104  0.4204
   32MOL0     C 4291   7.765   7.102   8.372 -0.6482  1.0565  0.3862
   32MOL0     C 4292   7.628   7.091   8.321  0.4824 -0.5163 -0.3208
   32MOL0     C 4293   7.526   7.054   8.428 -0.3074  0.0971  0.1545
   32MOL0     C 4294   7.395   6.990   8.367 -0.0498 -1.2895  0.4835
   32MOL0     N 4295   7.345   7.031   8.238  0.2710  0.9193  0.2931
   32MOL0     C 4296   7.270   7.139   8.217 -1.2574  0.0402 -0.0923
   32MOL0     C 4297   7.307   7.176   8.101  0.3162 -0.4157  0.1945
   32MOL0     C 4298   7.250   7.304   8.038 -0.8123  1.3134 -0.3252
   32MOL0     C 4299   7.298   7.426   8.108 -0.1485 -0.1390 -0.1396
   32MOL0     C 4300   7.271   7.553   8.031 -0.0047  0.6270 -0.1066
   32MOL0     C 4301   7.279   7.682   8.115  0.3358 -0.7812 -0.4478
   32MOL0     O 4302   7.291   7.783   8.011  0.8231 -0.6831 -0.0117
   32MOL0     C 4303   7.268   7.916   8.048 -0.2243  1.0268  0.9386
   32MOL0     C 4304   7.251   8.011   7.954  0.0868 -0.5270  0.0057
   32MOL0     C 4305   7.252   8.154   7.990 -0.6834 -0.7442 -0.2824
   32MOL0     C 4306   7.253   8.251   7.874 -0.8707 -0.1026  0.4556
   32MOL0     C 4307   7.253   8.191   8.129 -0.6989 -1.5315 -0.1839
   32MOL0     C 4308   7.272   8.335   8.179  0.2879 -0.6132 -0.4807
   32MOL0     O 4309   7.281   8.343   8.314  0.3768 -0.2162 -0.3494
   32MOL0     C 4310   7.276   8.469   8.381  0.8190 -0.1109  0.5284
   32MOL0     C 4311   7.399   8.509   8.426 -0.4614  0.6810 -1.1425
   32MOL0     C 4312   7.420   8.621   8.509 -1.0726 -0.2027  0.5080
   32MOL0     C 4313   7.318   8.713   8.513 -0.9300 -0.0804  0.0138
   32MOL0     O 4314   7.322   8.843   8.563  0.5949  0.3443 -0.0572
   32MOL0     C 4315   7.374   8.864   8.694 -0.6738  0.1340 -0.4012
   32MOL0     C 4316   7.423   9.007   8.700 -0.2594 -0.2477 -0.4959
   32MOL0     C 4317   7.308   9.101   8.746  0.0570  1.4288 -0.4308
   32MOL0     C 4318   7.220   9.140   8.628 -0.4943 -0.2091  0.4264
   32MOL0     C 4319   7.110   9.236   8.672  0.2332  0.2478  0.7878
   32MOL0     C 4320   7.140   9.369   8.740 -0.7794 -0.0341  0.0385
   32MOL0     C 4321   7.003   9.447   8.755 -0.2777  0.2067  0.1867
   32MOL0     C 4322   7.018   9.594   8.779  0.4843 -0.4242  0.0021
   32MOL0    Cl 4323   7.117   9.651   8.927  0.2190  0.5202 -0.2141
   32MOL0     C 4324   7.189   8.678   8.455 -0.4319  0.6207  0.5539
   32MOL0     C 4325   7.163   8.552   8.401 -0.1746  0.0004  1.1261
   32MOL0     O 4326   7.252   8.430   8.103 -0.4944  1.0480  0.8381
   32MOL0     C 4327   7.242   8.085   8.224 -0.1483 -0.7506  0.3425
   32MOL0     C 4328   7.249   7.954   8.182  0.3871 -0.2130 -0.8536
   32MOL0     N 4329   7.403   7.100   8.051  0.1416 -0.4285  0.6417
   32MOL0     N 4330   7.420   6.997   8.127 -0.6927  0.1060  0.7256
   32MOL0     C 4331   8.442   7.074   8.506 -0.5231 -1.0931  0.0091
   32MOL0     C 4332   8.502   7.044   8.627  0.7298 -0.2819  0.5191
   32MOL0     C 4333   8.571   7.011   9.099  0.1605  0.7565 -0.4556
   32MOL0     C 4334   8.699   6.954   9.073  1.0127 -0.3272  0.4112
   32MOL0     C 4335   8.790   6.938   9.169 -0.4246 -0.3117  0.2548
   32MOL0     C 4336   8.773   6.988   9.299 -0.5955  0.9286  0.5696
   32MOL0     O 4337   8.881   6.973   9.387  0.5753  0.1241 -0.2244
   32MOL0     C 4338   8.881   7.050   9.509 -0.5409  0.1171  0.6724
   32MOL0     C 4339   9.019   7.033   9.586 -0.1809 -0.2390 -0.2569
   32MOL0     C 4340   9.128   7.090   9.482 -0.6399 -0.2937 -0.2804
   32MOL0     C 4341   9.272   7.044   9.507 -0.4926 -0.0684  0.0035
   32MOL0     C 4342   9.284   6.904   9.528 -0.2874 -0.4234 -0.7331
   32MOL0     C 4343   9.284   6.782   9.530  0.8061  0.1180 -0.1183
   32MOL0     C 4344   8.645   7.027   9.326  0.5716 -0.3577 -0.5867
   32MOL0     C 4345   8.538   7.047   9.233 -0.0221 -0.6834 -0.3349
   32MOL0     C 4346   8.415   7.117   9.275 -0.1634  0.3825  0.1155
   32MOL0     H 4347   8.362   7.260   8.842  0.8997 -2.8470  0.9253
   32MOL0     H 4348   8.267   7.347   8.603 -0.1579  0.9232  1.2613
   32MOL0     H 4349   8.258   7.033   8.323  1.7730  0.6726  1.7317
   32MOL0     H 4350   8.338   7.139   8.213  3.4427 -2.0015  2.1772
   32MOL0     H 4351   8.113   7.254   8.195 -1.2928  0.2958  1.6214
   32MOL0     H 4352   8.092   7.090   8.137  0.2270  2.1001 -1.8416
   32MOL0     H 4353   8.019   7.055   8.389  2.6141  1.5993  1.2974
   32MOL0     H 4354   8.003   7.225   8.393  2.1232  1.5419 -1.9946
   32MOL0     H 4355   7.828   7.210   8.199 -2.0433 -1.8825 -1.0486
   32MOL0     H 4356   7.867   7.040   8.186  3.6436  1.0319 -0.7780
   32MOL0     H 4357   7.774   7.183   8.444  1.1808  0.6273  0.6850
   32MOL0     H 4358   7.798   7.009   8.419  1.5810  2.0934  0.9662
   32MOL0     H 4359   7.593   7.180   8.268  1.6429  0.0773 -0.1343
   32MOL0     H 4360   7.632   7.006   8.252 -3.3787  0.1798 -1.5978
   32MOL0     H 4361   7.491   7.138   8.488 -1.3795 -1.9284  2.5323
   32MOL0     H 4362   7.561   6.977   8.497  0.9446  2.4127  2.2538
   32MOL0     H 4363   7.412   6.882   8.368  0.8305 -1.2399  3.7173
   32MOL0     H 4364   7.324   7.032   8.439  0.9964  0.9672  0.2543
   32MOL0     H 4365   7.199   7.191   8.281  0.1399 -5.1420  6.9700
   32MOL0     H 4366   7.143   7.282   8.033 -0.5622 -0.6271  1.5761
   32MOL0     H 4367   7.293   7.314   7.938 -2.4089 -0.8869 -1.2943
   32MOL0     H 4368   7.269   7.425   8.213  0.1724  1.0440 -0.0222
   32MOL0     H 4369   7.406   7.427   8.123 -0.3763 -0.0119  1.6862
   32MOL0     H 4370   7.334   7.559   7.942 -0.5444  0.9815 -0.4732
   32MOL0     H 4371   7.168   7.547   7.995 -1.0069  0.3906  2.5436
   32MOL0     H 4372   7.189   7.700   8.175  1.9556  1.3834  1.4953
   32MOL0     H 4373   7.372   7.701   8.169 -0.0114  0.5518 -0.2634
   32MOL0     H 4374   7.229   7.969   7.856 -1.7856 -3.4844  1.5333
   32MOL0     H 4375   7.222   8.355   7.891 -1.8238 -0.1285 -0.9424
   32MOL0     H 4376   7.202   8.207   7.788  4.1299 -3.6812 -1.1804
   32MOL0     H 4377   7.359   8.252   7.844 -0.2200 -5.1893  1.6619
   32MOL0     H 4378   7.480   8.436   8.422  0.9136  1.7866  2.6011
   32MOL0     H 4379   7.522   8.639   8.543 -0.7312 -3.9111  1.8543
   32MOL0     H 4380   7.299   8.858   8.774 -0.2458 -1.1517 -0.0590
   32MOL0     H 4381   7.461   8.798   8.705  0.6674  1.8186 -0.3977
   32MOL0     H 4382   7.501   9.009   8.775 -2.2647 -1.5964  1.7639
   32MOL0     H 4383   7.466   9.035   8.603  2.1978 -3.4130 -0.4509
   32MOL0     H 4384   7.360   9.190   8.781 -0.3748  2.0133 -1.2325
   32MOL0     H 4385   7.247   9.052   8.823 -1.7045 -1.8154 -3.5564
   32MOL0     H 4386   7.177   9.054   8.576 -1.1127 -1.4970  2.9261
   32MOL0     H 4387   7.282   9.196   8.557 -2.7611  1.2573 -0.5385
   32MOL0     H 4388   7.049   9.253   8.582  0.0665 -2.3085  0.3328
   32MOL0     H 4389   7.043   9.182   8.740 -0.3514 -0.7111 -0.4987
   32MOL0     H 4390   7.216   9.421   8.680  2.0860 -2.6264  1.1875
   32MOL0     H 4391   7.185   9.354   8.838  1.2362  0.8121 -0.6970
   32MOL0     H 4392   6.939   9.397   8.828  0.3381 -0.5431  0.2334
   32MOL0     H 4393   6.939   9.444   8.666 -1.1838  2.3149  0.7164
   32MOL0     H 4394   6.916   9.627   8.804  0.4687 -1.1043  0.8677
   32MOL0     H 4395   7.052   9.644   8.687 -0.4294 -2.5585 -1.5846
   32MOL0     H 4396   7.121   8.761   8.439 -1.6098  0.6588  4.5857
   32MOL0     H 4397   7.065   8.520   8.366  0.2613 -0.4022  0.2440
   32MOL0     H 4398   7.242   8.113   8.329 -1.4828  1.4483 -0.1753
   32MOL0     H 4399   7.256   7.875   8.256  3.5284  0.0850 -0.7144
   32MOL0     H 4400   8.480   7.028   8.415  1.7379  1.0034 -0.2116
   32MOL0     H 4401   8.574   6.964   8.612 -0.4784 -1.3532  0.1610
   32MOL0     H 4402   8.717   6.919   8.972 -3.0547  1.9425 -1.3353
   32MOL0     H 4403   8.884   6.892   9.141 -1.4950 -1.0069 -2.5252
   32MOL0     H 4404   8.858   7.155   9.488  0.6006  0.1217 -0.6620
   32MOL0     H 4405   8.800   7.011   9.571 -0.1167 -1.4820  0.2665
   32MOL0     H 4406   9.032   6.928   9.613 -6.3796 -1.5478 -0.8491
   32MOL0     H 4407   9.023   7.093   9.677 -0.8671 -1.5210  0.6532
   32MOL0     H 4408   9.112   7.064   9.377 -1.7086 -0.4744 -0.0890
   32MOL0     H 4409   9.122   7.199   9.489 -0.9423 -0.3797  1.0090
   32MOL0     H 4410   9.300   7.089   9.603  0.6879 -1.7101  0.4560
   32MOL0     H 4411   9.348   7.079   9.437 -0.6321  2.5305  1.0069
   32MOL0     H 4412   9.277   6.675   9.520  0.5936  0.2041 -0.9489
   32MOL0     H 4413   8.616   7.042   9.430  2.6356 -2.2415  0.3462
   32MOL0     H 4414   8.421   7.145   9.381  2.3619  0.2163  0.0748
   32MOL0     H 4415   8.415   7.205   9.211  1.3734  1.6469  1.7253
   32MOL0     H 4416   8.320   7.062   9.271 -0.2300  0.4461  0.7257
   33MOL0     O 4417   9.772  11.457   2.879 -0.2899 -0.1255  0.3768
   33MOL0     C 4418   9.814  11.341   2.867 -0.9098  0.0619  0.7153
   33MOL0     O 4419   9.750  11.232   2.903  0.2603 -0.2760  0.3470
   33MOL0     C 4420   9.610  11.224   2.920 -0.8011 -0.0715  0.0067
   33MOL0     C 4421   9.576  11.116   3.015  0.4181  0.0075  0.4762
   33MOL0     C 4422   9.439  11.105   3.049  0.2100  0.5625  0.2076
   33MOL0     C 4423   9.333  11.179   2.989  0.2622  0.0409 -0.6343
   33MOL0     O 4424   9.209  11.159   3.029 -0.1761 -0.1302  0.7514
   33MOL0     C 4425   9.134  11.285   3.040 -0.0370 -0.5559 -0.7940
   33MOL0     C 4426   9.039  11.269   3.154  0.7217 -0.2167  0.4308
   33MOL0     C 4427   9.086  11.315   3.289  0.1474  0.3749 -0.0374
   33MOL0     C 4428   9.166  11.439   3.290 -0.4027 -0.7039 -0.7524
   33MOL0     C 4429   9.196  11.481   3.432 -0.0063 -0.3168 -0.4571
   33MOL0     C 4430   9.335  11.420   3.484  1.0554  0.4110 -0.1788
   33MOL0     C 4431   9.357  11.468   3.624  1.2029  0.2218  0.3714
   33MOL0     C 4432   9.409  11.613   3.631  0.3320  0.0774 -0.2321
   33MOL0     N 4433   9.506  11.631   3.736  0.6070  0.1113 -0.1792
   33MOL0     C 4434   9.515  11.724   3.835  0.2523  0.5058 -0.6139
   33MOL0     C 4435   9.625  11.678   3.902 -0.2696 -0.3135  0.1824
   33MOL0     C 4436   9.688  11.726   4.037 -0.6745  0.7037 -0.0950
   33MOL0     C 4437   9.758  11.865   4.031  0.3039 -0.1800  0.3579
   33MOL0     C 4438   9.800  11.923   4.174  0.1490 -0.8383 -0.0962
   33MOL0     C 4439   9.955  11.931   4.204 -0.8576 -0.2656  0.6075
   33MOL0     O 4440  10.017  12.040   4.132  0.4634 -0.6014 -0.3786
   33MOL0     C 4441  10.150  12.051   4.144  0.5511 -0.7012 -0.0070
   33MOL0     C 4442  10.200  12.153   4.067 -0.1601  0.1934  0.1350
   33MOL0     C 4443  10.340  12.171   4.060 -0.3496 -0.0946 -0.2035
   33MOL0     C 4444  10.377  12.281   3.960 -0.3704  1.2841 -0.4627
   33MOL0     C 4445  10.433  12.098   4.131  0.5551  0.7946 -0.6624
   33MOL0     C 4446  10.580  12.114   4.119  0.0721  0.1955 -0.2310
   33MOL0     O 4447  10.643  12.000   4.072 -0.5820 -0.7281 -0.7088
   33MOL0     C 4448  10.770  12.038   4.028  0.4668  0.2400  0.3030
   33MOL0     C 4449  10.880  12.052   4.122 -0.4131 -1.1201  0.6103
   33MOL0     C 4450  11.012  12.085   4.086  0.2001 -1.0087  0.5285
   33MOL0     C 4451  11.043  12.096   3.947  0.0519  0.3394 -0.0742
   33MOL0     O 4452  11.168  12.130   3.908 -0.4287  0.0077 -0.3998
   33MOL0     C 4453  11.176  12.261   3.858 -0.8348 -0.7203  0.0022
   33MOL0     C 4454  11.282  12.269   3.752 -0.0143  0.5213 -0.3836
   33MOL0     C 4455  11.333  12.409   3.713 -0.2497 -1.0941  0.6517
   33MOL0     C 4456  11.442  12.395   3.602 -0.5624 -0.2675 -1.2198
   33MOL0     C 4457  11.540  12.511   3.608 -0.2983 -0.2599 -0.0473
   33MOL0     C 4458  11.666  12.487   3.532 -0.2674  0.5739  0.1849
   33MOL0     C 4459  11.738  12.610   3.477 -0.3819 -0.1304 -0.2975
   33MOL0     C 4460  11.853  12.555   3.379 -0.0223  0.7670  1.3329
   33MOL0    Cl 4461  11.972  12.660   3.313 -0.0514 -0.4127 -0.0233
   33MOL0     C 4462  10.941  12.067   3.855  0.0645 -0.4716 -0.9227
   33MOL0     C 4463  10.808  12.033   3.893 -0.6409  0.5765  0.0427
   33MOL0     O 4464  10.635  12.218   4.164 -0.1142 -0.2564 -0.5289
   33MOL0     C 4465  10.380  11.993   4.210  0.1566  0.0655 -0.0851
   33MOL0     C 4466  10.238  11.967   4.221 -0.5659 -1.0270  0.6540
   33MOL0     N 4467   9.691  11.584   3.820 -0.6575 -0.0937  0.0012
   33MOL0     N 4468   9.617  11.550   3.724  0.1437 -0.0419 -0.8338
   33MOL0     C 4469   9.371  11.284   2.901  0.0909 -0.0908  0.1482
   33MOL0     C 4470   9.510  11.313   2.869  1.0311 -0.5363 -0.4016
   33MOL0     C 4471   9.958  11.306   2.831  0.5488 -0.3172 -0.9967
   33MOL0     C 4472   9.976  11.167   2.795 -0.2489  0.2029 -0.1874
   33MOL0     C 4473  10.098  11.125   2.750 -0.0659 -0.5786  0.5574
   33MOL0     C 4474  10.209  11.203   2.762 -0.6431 -0.0673 -0.7012
   33MOL0     O 4475  10.330  11.157   2.716 -0.9569 -0.5831 -0.0244
   33MOL0     C 4476  10.356  11.175   2.576  0.8085 -0.5516  1.0652
   33MOL0     C 4477  10.486  11.112   2.545  0.2671  0.2980  0.3364
   33MOL0     C 4478  10.531  11.103   2.400  0.0924  0.6956  0.5184
   33MOL0     C 4479  10.653  11.008   2.404  0.7919 -0.0857 -0.2566
   33MOL0     C 4480  10.726  11.006   2.275 -0.2809  0.0006  0.4066
   33MOL0     C 4481  10.812  10.983   2.189 -0.9541  0.2252  0.0415
   33MOL0     C 4482  10.202  11.335   2.819 -0.4168  0.1896  0.6070
   33MOL0     C 4483  10.074  11.386   2.856  0.1254 -0.8154 -1.1717
   33MOL0     C 4484  10.071  11.515   2.942  0.4516 -0.3836 -0.2022
   33MOL0     H 4485   9.644  11.051   3.068 -0.1373  0.5613  1.9330
   33MOL0     H 4486   9.410  11.030   3.122  1.8148 -3.1688 -2.6737
   33MOL0     H 4487   9.067  11.289   2.954 -1.2573 -2.2319  0.0390
   33MOL0     H 4488   9.192  11.379   3.038  0.0992 -0.6013  0.3108
   33MOL0     H 4489   8.947  11.326   3.135 -0.0308 -1.6350 -0.3570
   33MOL0     H 4490   9.016  11.163   3.168  1.6404 -0.7997 -2.0198
   33MOL0     H 4491   8.996  11.337   3.347 -1.3691 -2.4749 -1.0935
   33MOL0     H 4492   9.140  11.237   3.343 -1.1774 -0.9320 -0.5156
   33MOL0     H 4493   9.259  11.426   3.234  2.0098  0.9442  2.5585
   33MOL0     H 4494   9.114  11.521   3.239 -1.0953  1.2954  2.8929
   33MOL0     H 4495   9.114  11.461   3.502  1.5352  1.5896  2.0790
   33MOL0     H 4496   9.207  11.590   3.437 -2.1803 -0.0315 -0.7696
   33MOL0     H 4497   9.323  11.312   3.499 -4.9030  0.5753 -1.1828
   33MOL0     H 4498   9.421  11.439   3.419  0.5751 -2.5169 -1.8388
   33MOL0     H 4499   9.421  11.397   3.677 -1.3005 -2.3393  0.2265
   33MOL0     H 4500   9.253  11.457   3.656  1.6641  2.6733  3.1177
   33MOL0     H 4501   9.446  11.644   3.533 -0.4216 -1.7322 -1.1257
   33MOL0     H 4502   9.323  11.678   3.653  0.6090  0.6062 -0.6890
   33MOL0     H 4503   9.437  11.788   3.876 -0.4883  0.5856 -2.0482
   33MOL0     H 4504   9.752  11.646   4.076 -1.4963  1.1790  2.4020
   33MOL0     H 4505   9.614  11.740   4.116  0.1541  1.3540  0.5853
   33MOL0     H 4506   9.836  11.880   3.955 -1.5823  0.9487 -1.4688
   33MOL0     H 4507   9.669  11.924   4.006 -0.2572 -1.7668 -1.6948
   33MOL0     H 4508   9.749  12.018   4.195 -0.9641 -1.0501 -1.5863
   33MOL0     H 4509   9.747  11.857   4.244 -3.3325  2.8583  1.1643
   33MOL0     H 4510   9.973  11.953   4.310  0.6834  3.2373 -0.2474
   33MOL0     H 4511   9.999  11.838   4.165 -0.6892 -0.4805  1.2783
   33MOL0     H 4512  10.125  12.221   4.028  1.6833  2.8019  0.8680
   33MOL0     H 4513  10.484  12.296   3.943 -0.1417  0.7869  0.4508
   33MOL0     H 4514  10.323  12.369   3.997 -1.0649 -0.1783  2.2749
   33MOL0     H 4515  10.341  12.253   3.861 -2.0504 -0.1835  0.5128
   33MOL0     H 4516  10.857  12.049   4.228 -3.8820  0.3237  0.0476
   33MOL0     H 4517  11.091  12.114   4.154 -0.4348  1.4943  0.2790
   33MOL0     H 4518  11.078  12.280   3.812 -0.1780 -1.3071 -1.7025
   33MOL0     H 4519  11.182  12.337   3.937 -2.0379  0.1806 -0.7200
   33MOL0     H 4520  11.367  12.212   3.790 -0.3890 -0.4090 -0.9250
   33MOL0     H 4521  11.249  12.209   3.667  2.1257 -2.8077  0.9540
   33MOL0     H 4522  11.369  12.467   3.798  0.5002 -0.3090 -0.1765
   33MOL0     H 4523  11.257  12.464   3.656  0.7712 -2.0958 -1.8213
   33MOL0     H 4524  11.396  12.382   3.504 -0.3245 -1.0527 -1.2351
   33MOL0     H 4525  11.492  12.299   3.617 -1.4167 -0.5591 -0.0672
   33MOL0     H 4526  11.494  12.604   3.573  0.2988 -0.7488 -2.3520
   33MOL0     H 4527  11.572  12.524   3.711 -1.4059  2.9243 -0.0045
   33MOL0     H 4528  11.641  12.415   3.454 -0.2990  0.9933 -0.1982
   33MOL0     H 4529  11.738  12.435   3.597 -0.0393  1.7268  0.8997
   33MOL0     H 4530  11.788  12.670   3.554  2.8351  0.6407 -2.7608
   33MOL0     H 4531  11.667  12.668   3.416 -0.3483  0.2672  0.0360
   33MOL0     H 4532  11.798  12.500   3.302  0.3365  0.6118  1.1848
   33MOL0     H 4533  11.913  12.478   3.427  0.9973 -1.1094 -2.5221
   33MOL0     H 4534  10.966  12.086   3.752 -0.8974 -1.2202 -1.3107
   33MOL0     H 4535  10.735  12.012   3.816 -1.3068  0.2717  0.7426
   33MOL0     H 4536  10.442  11.927   4.271 -2.4001 -0.8726  1.6907
   33MOL0     H 4537  10.199  11.892   4.289 -1.3675 -1.1776  0.0410
   33MOL0     H 4538   9.300  11.355   2.858 -0.9066 -2.3311 -2.1413
   33MOL0     H 4539   9.545  11.403   2.819  1.5951 -1.3944 -1.6113
   33MOL0     H 4540   9.899  11.093   2.778  1.9458 -2.5450  0.9524
   33MOL0     H 4541  10.103  11.036   2.688 -0.3574  3.8526 -7.0727
   33MOL0     H 4542  10.277  11.141   2.509  1.9158 -0.2833 -0.4174
   33MOL0     H 4543  10.367  11.281   2.550 -1.5085 -0.3943  0.5101
   33MOL0     H 4544  10.490  11.017   2.598 -0.8088  0.5935  0.9762
   33MOL0     H 4545  10.568  11.169   2.589  2.0610 -0.7866 -1.4135
   33MOL0     H 4546  10.456  11.062   2.333 -1.0301  1.0433  1.5201
   33MOL0     H 4547  10.559  11.195   2.348  0.5708 -1.0973 -2.6753
   33MOL0     H 4548  10.628  10.902   2.415  0.2260  0.1365  0.6832
   33MOL0     H 4549  10.714  11.035   2.490 -0.8893  0.7978  0.7008
   33MOL0     H 4550  10.893  10.962   2.122 -1.3116  0.4065 -0.4552
   33MOL0     H 4551  10.298  11.387   2.816 -1.4362  2.2508 -3.0104
   33MOL0     H 4552  10.004  11.481   3.022  0.0661 -0.6628 -0.6398
   33MOL0     H 4553  10.162  11.533   2.999 -0.4889 -0.1075  1.2655
   33MOL0     H 4554  10.047  11.596   2.872 -0.5058  0.0362  0.5854
   34MOL0     O 4555   5.787   2.236   8.858  0.7336  0.7362  0.2111
   34MOL0     C 4556   5.743   2.305   8.950 -0.7681  0.4915 -0.0648
   34MOL0     O 4557   5.617   2.315   8.984  0.1903  0.2936 -0.2024
   34MOL0     C 4558   5.511   2.251   8.916 -0.1051  0.1698 -0.3663
   34MOL0     C 4559   5.488   2.266   8.780  0.3092  0.5649  0.2281
   34MOL0     C 4560   5.388   2.199   8.710  0.4413 -0.1090 -0.4123
   34MOL0     C 4561   5.292   2.119   8.783 -0.1694  0.7349 -0.0819
   34MOL0     O 4562   5.180   2.056   8.742  0.2847 -0.5492 -0.3029
   34MOL0     C 4563   5.141   2.064   8.601  0.2810  0.6881 -0.1246
   34MOL0     C 4564   5.013   2.000   8.573  0.2196  0.1556 -0.4470
   34MOL0     C 4565   4.892   2.083   8.628  0.6922  0.0732 -0.5199
   34MOL0     C 4566   4.762   2.013   8.577  0.5427 -0.5029 -0.0914
   34MOL0     C 4567   4.626   2.069   8.619 -0.9617 -0.9806 -1.2083
   34MOL0     C 4568   4.519   1.978   8.572 -0.9437 -0.5594 -0.1623
   34MOL0     C 4569   4.388   2.037   8.579  0.0944  0.4162 -0.2355
   34MOL0     C 4570   4.358   2.143   8.467 -0.3330  0.2989 -0.2949
   34MOL0     N 4571   4.223   2.208   8.484 -0.1444 -0.6191  0.2413
   34MOL0     C 4572   4.142   2.200   8.591 -0.9960  0.1444  0.5415
   34MOL0     C 4573   4.035   2.276   8.573  0.4854 -0.6599 -0.0784
   34MOL0     C 4574   3.914   2.294   8.661 -0.4206  0.0929  0.0055
   34MOL0     C 4575   3.781   2.293   8.582  0.2432  0.0291  0.1625
   34MOL0     C 4576   3.744   2.427   8.529 -0.0536  0.6938 -0.1420
   34MOL0     C 4577   3.626   2.423   8.432 -0.7401  0.7653 -0.3934
   34MOL0     O 4578   3.509   2.339   8.471  0.0675 -0.2999 -0.4796
   34MOL0     C 4579   3.381   2.375   8.440  0.1325  0.0266  0.2392
   34MOL0     C 4580   3.282   2.344   8.542  0.1047 -0.0495 -0.4740
   34MOL0     C 4581   3.148   2.351   8.526  0.5855 -0.3089 -0.3632
   34MOL0     C 4582   3.058   2.329   8.645  0.7090 -0.2434 -0.0980
   34MOL0     C 4583   3.103   2.382   8.386 -0.1132 -1.2818 -1.1439
   34MOL0     C 4584   2.956   2.388   8.357 -1.0826  0.3556 -1.4849
   34MOL0     O 4585   2.920   2.370   8.219 -1.4654  0.1305  0.2787
   34MOL0     C 4586   2.797   2.405   8.169  0.3845 -0.6088  0.6613
   34MOL0     C 4587   2.720   2.525   8.205 -0.1232 -0.3983  0.5178
   34MOL0     C 4588   2.608   2.562   8.135 -0.2881  0.2083 -0.4905
   34MOL0     C 4589   2.556   2.478   8.038 -0.2399  1.1894  0.4346
   34MOL0     O 4590   2.433   2.505   7.984  0.5456 -0.5758  0.7769
   34MOL0     C 4591   2.405   2.634   7.934  0.5787 -0.6187  0.5812
   34MOL0     C 4592   2.272   2.658   7.854  0.6283  0.4455  0.3793
   34MOL0     C 4593   2.272   2.559   7.727  0.6353 -0.9789  0.7066
   34MOL0     C 4594   2.128   2.535   7.695  0.7854 -0.2982 -0.0443
   34MOL0     C 4595   2.053   2.666   7.659  0.3740  0.6948  0.4663
   34MOL0     C 4596   1.904   2.637   7.619 -0.5953 -0.9616 -0.3429
   34MOL0     C 4597   1.834   2.778   7.595  0.8044 -0.1284 -1.2940
   34MOL0     C 4598   1.727   2.783   7.494  0.0497  0.5569 -0.3126
   34MOL0    Cl 4599   1.578   2.706   7.561 -0.6787  0.0754  0.0442
   34MOL0     C 4600   2.627   2.366   7.994 -0.7275 -0.6975 -0.5598
   34MOL0     C 4601   2.756   2.341   8.057  0.1674  0.1147  0.8002
   34MOL0     O 4602   2.876   2.406   8.444  0.7842  0.3537  0.5247
   34MOL0     C 4603   3.197   2.390   8.287  0.6082  0.1021 -0.0268
   34MOL0     C 4604   3.338   2.383   8.311  0.3631 -0.0661  0.4172
   34MOL0     N 4605   4.040   2.326   8.451  0.4038  0.6033  0.7067
   34MOL0     N 4606   4.161   2.297   8.405  0.3731 -0.6308  0.5807
   34MOL0     C 4607   5.315   2.100   8.922  0.0919  0.0991 -0.2342
   34MOL0     C 4608   5.425   2.165   8.985 -0.3255 -0.6354  0.0844
   34MOL0     C 4609   5.833   2.387   9.018 -0.0261 -0.4409 -0.2199
   34MOL0     C 4610   5.784   2.464   9.124 -0.8808 -1.1189 -0.3108
   34MOL0     C 4611   5.869   2.531   9.210  0.0859 -0.1134  0.3909
   34MOL0     C 4612   6.010   2.525   9.197  1.4258  0.1013  0.2949
   34MOL0     O 4613   6.091   2.595   9.286 -0.2684 -0.0586 -0.4328
   34MOL0     C 4614   6.032   2.699   9.356 -0.3581 -0.0401 -0.6722
   34MOL0     C 4615   6.131   2.781   9.439  0.2513 -0.7316  0.9776
   34MOL0     C 4616   6.084   2.920   9.496 -0.2850 -0.6977  0.6843
   34MOL0     C 4617   6.207   3.015   9.515  0.7359 -0.0009 -0.0690
   34MOL0     C 4618   6.179   3.122   9.611  0.1013 -0.3833 -0.1049
   34MOL0     C 4619   6.155   3.201   9.697  0.5075  1.1085 -0.6886
   34MOL0     C 4620   6.060   2.456   9.089 -0.7689  0.3366 -0.1773
   34MOL0     C 4621   5.974   2.380   8.997 -0.0510 -0.6141 -0.4006
   34MOL0     C 4622   6.048   2.290   8.902  0.2150 -0.3911 -0.1049
   34MOL0     H 4623   5.564   2.334   8.742  2.1495  0.4567  3.3647
   34MOL0     H 4624   5.362   2.236   8.611 -1.0902 -0.3737 -0.1316
   34MOL0     H 4625   5.217   2.008   8.545  0.3535  0.6201  0.0389
   34MOL0     H 4626   5.145   2.165   8.559 -1.9080  0.9365  0.1445
   34MOL0     H 4627   5.019   1.994   8.464  1.5417 -0.5589 -0.3487
   34MOL0     H 4628   5.015   1.900   8.617 -0.8194  0.6151  0.6886
   34MOL0     H 4629   4.891   2.087   8.737 -3.0195 -3.1501 -0.2180
   34MOL0     H 4630   4.884   2.185   8.587 -2.3725  0.3233  0.4541
   34MOL0     H 4631   4.777   2.003   8.469  0.0324 -3.4640  0.0144
   34MOL0     H 4632   4.761   1.914   8.623  1.5766 -1.0575 -1.2029
   34MOL0     H 4633   4.621   2.174   8.590  1.8261 -0.0698  1.1470
   34MOL0     H 4634   4.621   2.061   8.728 -2.8319 -2.0619 -1.3451
   34MOL0     H 4635   4.529   1.965   8.464  1.6164 -0.9001  0.0598
   34MOL0     H 4636   4.522   1.880   8.619 -0.0686 -0.4257  0.0758
   34MOL0     H 4637   4.372   2.079   8.679 -0.5997  0.5186 -0.3858
   34MOL0     H 4638   4.322   1.951   8.567 -0.8416  1.1776 -0.6895
   34MOL0     H 4639   4.436   2.219   8.479  1.3456 -1.3588 -0.3347
   34MOL0     H 4640   4.365   2.105   8.365  1.4239  0.6071 -0.3211
   34MOL0     H 4641   4.155   2.147   8.685  1.2952  1.8900  1.3041
   34MOL0     H 4642   3.926   2.377   8.731 -1.4519  0.7881 -0.6139
   34MOL0     H 4643   3.912   2.199   8.714  2.7356 -0.2290 -0.2916
   34MOL0     H 4644   3.792   2.225   8.496 -1.5356  1.1017 -0.9682
   34MOL0     H 4645   3.698   2.260   8.645  1.4803 -0.3539  1.6384
   34MOL0     H 4646   3.710   2.490   8.612  1.3887 -1.5974  2.3337
   34MOL0     H 4647   3.833   2.479   8.491  1.1131 -1.0835  0.0188
   34MOL0     H 4648   3.590   2.524   8.414 -0.2783  0.7457 -1.5234
   34MOL0     H 4649   3.653   2.386   8.332  0.7558 -0.6340  0.4720
   34MOL0     H 4650   3.327   2.306   8.633  0.7058 -0.5203 -0.9570
   34MOL0     H 4651   3.034   2.426   8.687 -0.4403 -0.2926 -0.6053
   34MOL0     H 4652   3.121   2.274   8.716  2.3019  0.3218 -1.0157
   34MOL0     H 4653   2.970   2.270   8.617  0.4332 -0.8520  1.8912
   34MOL0     H 4654   2.750   2.588   8.288 -3.5588  1.5246  0.4863
   34MOL0     H 4655   2.549   2.644   8.175 -1.2867 -0.7562  0.0733
   34MOL0     H 4656   2.377   2.685   8.027  1.8869  1.3396 -0.0284
   34MOL0     H 4657   2.483   2.692   7.883  1.1702 -1.8918  0.0082
   34MOL0     H 4658   2.192   2.634   7.924  1.0123 -1.3184  0.2436
   34MOL0     H 4659   2.267   2.765   7.829  0.7907  0.4423  0.3292
   34MOL0     H 4660   2.316   2.467   7.766  1.5125  0.7098  4.0988
   34MOL0     H 4661   2.328   2.597   7.641 -0.3850 -2.3699 -0.6307
   34MOL0     H 4662   2.085   2.480   7.779 -1.4249 -0.1131 -0.9786
   34MOL0     H 4663   2.115   2.456   7.620  1.4746 -1.5848  1.1447
   34MOL0     H 4664   2.028   2.723   7.748 -1.8315  0.0570  0.3263
   34MOL0     H 4665   2.113   2.734   7.596  2.2805 -0.2615  1.1837
   34MOL0     H 4666   1.848   2.576   7.691 -1.7619 -0.8236 -1.1099
   34MOL0     H 4667   1.903   2.578   7.527 -1.0583 -2.5933  0.6601
   34MOL0     H 4668   1.909   2.850   7.560  2.3516 -3.1914 -4.9705
   34MOL0     H 4669   1.789   2.818   7.687  1.7987 -0.4478 -0.6552
   34MOL0     H 4670   1.759   2.743   7.398  3.1556  0.3907  0.6728
   34MOL0     H 4671   1.701   2.888   7.478 -2.8348 -0.1160 -0.5235
   34MOL0     H 4672   2.587   2.300   7.918  0.3118 -1.8670 -0.1118
   34MOL0     H 4673   2.829   2.267   8.027 -1.4009 -1.9683  1.8359
   34MOL0     H 4674   3.163   2.415   8.187  2.7932  2.4474 -0.2753
   34MOL0     H 4675   3.406   2.403   8.229 -0.4225  0.6802 -0.0782
   34MOL0     H 4676   5.269   2.023   8.984  2.0031 -2.1070 -1.3862
   34MOL0     H 4677   5.443   2.151   9.091 -1.3498  0.6620  0.4528
   34MOL0     H 4678   5.683   2.500   9.142  0.3263  1.8778  1.3762
   34MOL0     H 4679   5.822   2.601   9.278  0.3681 -0.6881  1.1951
   34MOL0     H 4680   5.986   2.764   9.281 -0.0641  1.3318  0.2984
   34MOL0     H 4681   5.964   2.667   9.436 -0.7913  2.8455  0.2494
   34MOL0     H 4682   6.218   2.811   9.381  0.3655 -2.8945 -0.0758
   34MOL0     H 4683   6.157   2.725   9.529 -0.7273  2.2048  3.2553
   34MOL0     H 4684   6.019   2.977   9.429  1.5751  1.8576  0.9170
   34MOL0     H 4685   6.032   2.902   9.591  1.3501  0.7268  1.9204
   34MOL0     H 4686   6.236   3.063   9.421  1.7215 -0.1248  0.1582
   34MOL0     H 4687   6.289   2.948   9.543  2.5290  1.5691 -1.2941
   34MOL0     H 4688   6.138   3.265   9.781  2.6989 -1.9724  2.3893
   34MOL0     H 4689   6.168   2.449   9.098 -0.7006 -0.1300 -1.2444
   34MOL0     H 4690   6.023   2.186   8.923  1.4832 -0.3729  1.7148
   34MOL0     H 4691   6.023   2.312   8.797 -0.0412 -1.5084 -0.2912
   34MOL0     H 4692   6.156   2.309   8.909  0.2069 -0.8824  2.0233
   35MOL0     O 4693   2.760   2.266   9.149 -0.2803  0.4014  0.1747
   35MOL0     C 4694   2.874   2.271   9.104  0.8364  0.6137  0.0733
   35MOL0     O 4695   2.920   2.357   9.021 -0.0693 -0.4193  0.1813
   35MOL0     C 4696   2.853   2.463   8.966  0.7994 -0.8286  0.6672
   35MOL0     C 4697   2.922   2.579   8.942 -0.5721 -0.4031  0.2625
   35MOL0     C 4698   2.859   2.704   8.928 -0.2122 -0.5264 -0.8570
   35MOL0     C 4699   2.721   2.715   8.912  0.0352 -0.1618 -0.6551
   35MOL0     O 4700   2.670   2.844   8.898  0.0154 -0.2847  0.6194
   35MOL0     C 4701   2.534   2.857   8.936  0.2977  0.1574  0.1827
   35MOL0     C 4702   2.543   2.860   9.080 -0.4862 -0.5289 -1.1542
   35MOL0     C 4703   2.427   2.891   9.166  0.8184  0.3965 -0.3065
   35MOL0     C 4704   2.344   3.010   9.117  0.0258  0.2105 -0.0784
   35MOL0     C 4705   2.241   3.044   9.220  0.3862  0.7577  0.0230
   35MOL0     C 4706   2.137   3.154   9.178 -0.6203 -0.1803 -0.1057
   35MOL0     C 4707   2.087   3.148   9.029  0.2973 -0.2171 -0.0159
   35MOL0     C 4708   1.961   3.241   9.000 -0.2465  0.2008  0.3955
   35MOL0     N 4709   1.890   3.216   8.867  0.9740  0.2140 -0.8039
   35MOL0     C 4710   1.957   3.201   8.745 -0.8255  0.2145  0.7019
   35MOL0     C 4711   1.866   3.153   8.657 -0.2191 -0.0741 -0.8776
   35MOL0     C 4712   1.886   3.148   8.511  0.0681  0.1289 -0.1653
   35MOL0     C 4713   1.802   3.061   8.422  0.5658  0.4694  0.5248
   35MOL0     C 4714   1.813   3.097   8.273 -0.7176  0.5700  0.0300
   35MOL0     C 4715   1.718   3.005   8.189  0.2318 -0.0326  0.6085
   35MOL0     O 4716   1.600   3.082   8.176 -0.9670 -1.0892  0.1660
   35MOL0     C 4717   1.506   3.054   8.086  0.2149  0.5215 -0.5947
   35MOL0     C 4718   1.494   2.926   8.025  0.7537 -0.9610  0.1218
   35MOL0     C 4719   1.378   2.901   7.959  0.2362 -0.5197  0.2615
   35MOL0     C 4720   1.358   2.778   7.879  0.1358 -0.6059  0.0522
   35MOL0     C 4721   1.275   2.998   7.941 -0.6247  0.3561 -0.2492
   35MOL0     C 4722   1.143   2.968   7.858  0.9149 -0.0057  1.0882
   35MOL0     O 4723   1.104   3.082   7.795  0.6429  0.2969  0.0160
   35MOL0     C 4724   0.990   3.088   7.727  0.7837  0.5415 -0.6030
   35MOL0     C 4725   0.971   3.009   7.607 -0.4254  0.4466  0.3400
   35MOL0     C 4726   0.844   2.992   7.550 -0.0705  0.1621 -0.0193
   35MOL0     C 4727   0.736   3.072   7.600 -0.4308  0.2225 -0.4228
   35MOL0     O 4728   0.600   3.081   7.568  0.3612  0.0949 -0.1800
   35MOL0     C 4729   0.550   2.965   7.512  0.1045 -0.5154 -0.1137
   35MOL0     C 4730   0.398   2.958   7.528  0.2075 -0.1557  0.1424
   35MOL0     C 4731   0.314   3.025   7.410  0.1668 -0.3724 -0.4496
   35MOL0     C 4732   0.285   2.916   7.301  0.5140 -0.4270  0.3705
   35MOL0     C 4733   0.156   2.946   7.215 -0.0797  0.0329  0.2093
   35MOL0     C 4734   0.113   2.807   7.148  0.3360 -0.8889  1.4231
   35MOL0     C 4735   0.042   2.701   7.233  0.3959  0.7120  0.1369
   35MOL0     C 4736  -0.107   2.723   7.229 -0.1516 -0.9055  0.1795
   35MOL0    Cl 4737  -0.186   2.564   7.282 -0.1067 -0.2863  0.2664
   35MOL0     C 4738   0.756   3.149   7.711 -0.4713 -0.0604  0.1025
   35MOL0     C 4739   0.881   3.171   7.767 -0.2858 -0.3308 -1.0627
   35MOL0     O 4740   1.079   2.863   7.857 -0.4216  0.1329 -1.1457
   35MOL0     C 4741   1.297   3.129   7.995 -0.3177  0.1797  0.0661
   35MOL0     C 4742   1.413   3.150   8.073  0.1949  0.2131  0.7782
   35MOL0     N 4743   1.742   3.141   8.732  0.2848  0.5036 -0.1080
   35MOL0     N 4744   1.763   3.176   8.861  0.0104  0.4536  0.1786
   35MOL0     C 4745   2.652   2.593   8.914  0.5488  0.0270 -0.3055
   35MOL0     C 4746   2.712   2.470   8.945  0.1910  0.1127 -0.1850
   35MOL0     C 4747   2.969   2.167   9.149  0.3941  1.3138 -0.3226
   35MOL0     C 4748   3.104   2.193   9.150 -0.1435 -0.6758  0.3251
   35MOL0     C 4749   3.206   2.108   9.202  0.0072  0.0822 -1.0017
   35MOL0     C 4750   3.174   1.984   9.247  0.2755 -0.0517  0.1795
   35MOL0     O 4751   3.273   1.909   9.291  0.0574 -0.4154  0.0483
   35MOL0     C 4752   3.247   1.805   9.381  1.0977  0.3762  0.1443
   35MOL0     C 4753   3.251   1.663   9.314 -0.0060  0.1023 -0.2103
   35MOL0     C 4754   3.281   1.564   9.422  0.1302  0.8287  0.0488
   35MOL0     C 4755   3.260   1.414   9.372 -0.6372  0.4612 -0.3090
   35MOL0     C 4756   3.264   1.327   9.483 -0.0926 -0.7120 -0.2441
   35MOL0     C 4757   3.237   1.257   9.578 -0.0427  0.3184  1.0702
   35MOL0     C 4758   3.034   1.956   9.257  0.3644 -0.1968 -0.7697
   35MOL0     C 4759   2.932   2.041   9.209 -1.4360  0.0795  0.1608
   35MOL0     C 4760   2.797   1.970   9.215 -0.0746 -0.2224  0.6173
   35MOL0     H 4761   3.029   2.576   8.960 -0.1388  1.0343 -1.7392
   35MOL0     H 4762   2.908   2.800   8.922  1.1536 -1.1389  0.1269
   35MOL0     H 4763   2.462   2.789   8.887  1.3774 -0.1943 -0.9617
   35MOL0     H 4764   2.512   2.956   8.895  2.0527  0.5429  0.1153
   35MOL0     H 4765   2.574   2.758   9.104 -0.6223 -0.3522 -0.1894
   35MOL0     H 4766   2.623   2.931   9.101 -1.6689  1.9620 -4.2494
   35MOL0     H 4767   2.365   2.804   9.190  0.0195  1.9731  4.2184
   35MOL0     H 4768   2.471   2.919   9.262  0.3573  0.9242 -0.2470
   35MOL0     H 4769   2.414   3.090   9.093  2.9740 -0.9539  3.5941
   35MOL0     H 4770   2.285   2.975   9.032 -0.9454 -0.2337  0.7614
   35MOL0     H 4771   2.290   3.074   9.313 -0.1708 -0.4645  0.7438
   35MOL0     H 4772   2.184   2.957   9.255 -1.2024  2.1528  1.0274
   35MOL0     H 4773   2.055   3.149   9.250  0.0065 -2.2058  0.5365
   35MOL0     H 4774   2.199   3.243   9.193  2.5371 -1.9298 -1.6541
   35MOL0     H 4775   2.077   3.043   9.002  2.8872 -0.5406  0.0737
   35MOL0     H 4776   2.167   3.180   8.961 -0.2390  0.9339 -0.1339
   35MOL0     H 4777   1.894   3.247   9.086  3.2543 -2.5517  3.6917
   35MOL0     H 4778   2.015   3.335   8.982 -0.1985  0.6546  2.6069
   35MOL0     H 4779   2.052   3.239   8.711 -0.5574 -0.3276  0.8371
   35MOL0     H 4780   1.986   3.105   8.504  0.4040  0.3405  2.3726
   35MOL0     H 4781   1.873   3.254   8.490 -0.4348  0.3260  1.0323
   35MOL0     H 4782   1.826   2.955   8.437  0.1308  0.4959  1.5107
   35MOL0     H 4783   1.697   3.067   8.453  0.2656 -1.7245  0.1075
   35MOL0     H 4784   1.792   3.203   8.257  2.3116  1.1094 -1.0236
   35MOL0     H 4785   1.916   3.078   8.242 -1.1270  2.0347 -2.5297
   35MOL0     H 4786   1.763   2.988   8.091 -0.1226  0.1158  0.4183
   35MOL0     H 4787   1.701   2.909   8.238 -2.0543 -0.0465 -0.0675
   35MOL0     H 4788   1.570   2.850   8.025 -0.5705 -2.3365  0.5683
   35MOL0     H 4789   1.451   2.720   7.876  1.3159  0.8116  3.6597
   35MOL0     H 4790   1.332   2.795   7.774  2.1336 -1.8149 -0.7132
   35MOL0     H 4791   1.272   2.726   7.921 -0.6883 -0.2458 -1.1379
   35MOL0     H 4792   1.053   2.949   7.570  0.6701  2.4123 -0.5894
   35MOL0     H 4793   0.822   2.934   7.460 -0.2866  0.7437 -0.3447
   35MOL0     H 4794   0.554   2.967   7.403 -3.3191  0.1600 -0.3365
   35MOL0     H 4795   0.599   2.880   7.562 -1.6362 -3.5816 -3.2118
   35MOL0     H 4796   0.374   2.852   7.535  4.1256 -1.0709  3.7587
   35MOL0     H 4797   0.368   3.003   7.623 -0.9172  0.2709 -0.3980
   35MOL0     H 4798   0.375   3.108   7.373 -2.6905  1.9673 -0.2487
   35MOL0     H 4799   0.217   3.059   7.447  1.6528  1.6722  1.8851
   35MOL0     H 4800   0.279   2.814   7.342  1.6760 -1.4031 -1.7094
   35MOL0     H 4801   0.372   2.919   7.234  1.0762  0.4662  1.1225
   35MOL0     H 4802   0.076   2.978   7.282 -1.1388  0.6853 -1.3097
   35MOL0     H 4803   0.174   3.029   7.146  2.3640 -0.6012 -0.0228
   35MOL0     H 4804   0.203   2.760   7.106 -0.1155 -1.0101  0.5675
   35MOL0     H 4805   0.057   2.839   7.060 -0.6276  1.4971  2.8155
   35MOL0     H 4806   0.070   2.687   7.337  0.2003 -1.6726 -0.0740
   35MOL0     H 4807   0.070   2.610   7.180 -2.0869  1.6484 -3.1543
   35MOL0     H 4808  -0.139   2.742   7.126 -0.3522  1.1563  0.5756
   35MOL0     H 4809  -0.136   2.811   7.287  1.4117  0.7148 -1.3434
   35MOL0     H 4810   0.668   3.193   7.756  1.5808  3.1290  1.4000
   35MOL0     H 4811   0.884   3.238   7.852 -1.5947 -0.2573 -1.0502
   35MOL0     H 4812   1.212   3.195   7.992  2.1496  3.6766  0.7844
   35MOL0     H 4813   1.431   3.251   8.108  0.3471  0.1381  0.9163
   35MOL0     H 4814   2.544   2.594   8.902  0.3318  2.4100  1.0157
   35MOL0     H 4815   2.650   2.384   8.966 -2.0144  1.9663  1.3183
   35MOL0     H 4816   3.140   2.292   9.124 -0.9926 -0.3553  0.3340
   35MOL0     H 4817   3.311   2.137   9.204  1.1176 -3.5832  0.0661
   35MOL0     H 4818   3.317   1.820   9.464  0.6569  0.7464  0.4603
   35MOL0     H 4819   3.152   1.802   9.435  1.5954  2.7305  1.2581
   35MOL0     H 4820   3.336   1.662   9.245  0.0147 -4.1114 -0.3773
   35MOL0     H 4821   3.158   1.634   9.264  0.5445 -2.2738  0.0480
   35MOL0     H 4822   3.390   1.575   9.415  0.5125 -2.5734 -0.9069
   35MOL0     H 4823   3.246   1.598   9.519  0.5557  0.7885  0.2184
   35MOL0     H 4824   3.338   1.390   9.299 -0.4728 -1.1754  0.3742
   35MOL0     H 4825   3.168   1.396   9.316 -0.0957  0.8744 -1.3649
   35MOL0     H 4826   3.210   1.208   9.670 -0.2586  1.8608  1.8522
   35MOL0     H 4827   2.996   1.858   9.281  0.2100 -0.0810 -0.5351
   35MOL0     H 4828   2.731   2.010   9.293 -0.2386  1.7202 -0.4494
   35MOL0     H 4829   2.743   1.982   9.121 -2.8871 -0.6011  2.0923
   35MOL0     H 4830   2.812   1.863   9.232  1.6558 -0.1361 -0.1562
   36MOL0     O 4831   0.053  11.216   7.376  0.7763  0.3017 -0.8331
   36MOL0     C 4832   0.020  11.303   7.458 -1.5135  0.0105 -0.3115
   36MOL0     O 4833   0.111  11.390   7.515 -0.2037  0.9208 -0.4888
   36MOL0     C 4834   0.246  11.371   7.509 -0.4731 -0.5087 -0.6963
   36MOL0     C 4835   0.316  11.421   7.618  0.4311 -0.3545 -0.3839
   36MOL0     C 4836   0.446  11.390   7.644  0.4815 -1.1110  0.3016
   36MOL0     C 4837   0.523  11.321   7.553  0.0809  0.5471 -0.0263
   36MOL0     O 4838   0.652  11.285   7.583  0.1459 -0.0588  0.0026
   36MOL0     C 4839   0.644  11.167   7.665  0.5979  0.1460 -0.4131
   36MOL0     C 4840   0.794  11.111   7.653  0.2061  0.4419  0.1723
   36MOL0     C 4841   0.869  11.175   7.772 -0.4299  0.2000  1.3857
   36MOL0     C 4842   1.017  11.131   7.748 -0.2932  0.2672 -0.0583
   36MOL0     C 4843   1.119  11.152   7.859  0.0866 -0.5732 -0.1385
   36MOL0     C 4844   1.174  11.304   7.872 -0.0318 -0.2363 -0.1623
   36MOL0     C 4845   1.280  11.304   7.980 -0.5334 -0.5949 -0.2775
   36MOL0     C 4846   1.359  11.435   7.988  0.5919 -0.0248 -0.1048
   36MOL0     N 4847   1.465  11.419   8.089 -0.8607  0.2959 -0.1923
   36MOL0     C 4848   1.458  11.349   8.206 -0.3732  0.0777  0.4233
   36MOL0     C 4849   1.586  11.351   8.251  0.6302  0.2850 -0.0321
   36MOL0     C 4850   1.635  11.278   8.372  0.1398 -0.6653  0.4986
   36MOL0     C 4851   1.637  11.352   8.508 -0.8900  0.1763  1.0662
   36MOL0     C 4852   1.510  11.306   8.570  0.8350  0.4998 -0.9066
   36MOL0     C 4853   1.461  11.392   8.686 -0.1392  1.0008  0.4485
   36MOL0     O 4854   1.391  11.507   8.635  0.0154  0.1297 -0.4122
   36MOL0     C 4855   1.259  11.502   8.629  1.3398 -0.4289 -1.4204
   36MOL0     C 4856   1.188  11.620   8.635 -0.5417 -0.3526 -0.4945
   36MOL0     C 4857   1.045  11.624   8.624 -0.1514  0.1732 -0.6939
   36MOL0     C 4858   0.977  11.753   8.622 -1.5049  0.4207 -0.2065
   36MOL0     C 4859   0.975  11.501   8.603 -1.2544  0.4288 -0.3323
   36MOL0     C 4860   0.828  11.491   8.587 -1.3164 -0.0841 -0.1532
   36MOL0     O 4861   0.772  11.388   8.508 -0.9577 -0.2402 -0.2602
   36MOL0     C 4862   0.637  11.391   8.478 -0.1619  0.8491 -0.3798
   36MOL0     C 4863   0.600  11.285   8.395 -0.2747  1.0316 -0.7304
   36MOL0     C 4864   0.474  11.276   8.336 -0.4317  0.3574  0.5198
   36MOL0     C 4865   0.382  11.370   8.374  1.0611  0.1439  0.1625
   36MOL0     O 4866   0.262  11.353   8.315 -0.0714  0.2490 -0.1456
   36MOL0     C 4867   0.150  11.436   8.359  0.4007  0.7047  0.3112
   36MOL0     C 4868   0.029  11.383   8.286 -1.0061 -0.2842  0.3009
   36MOL0     C 4869  -0.100  11.439   8.336 -0.3721  0.0618 -0.2139
   36MOL0     C 4870  -0.119  11.593   8.315  0.5490  0.1178 -0.1833
   36MOL0     C 4871  -0.255  11.645   8.375  0.0852 -0.8763 -0.1868
   36MOL0     C 4872  -0.381  11.549   8.336 -0.5713  0.3828  0.3321
   36MOL0     C 4873  -0.484  11.588   8.427 -0.5106 -0.5396 -0.2661
   36MOL0     C 4874  -0.622  11.548   8.373 -1.1554 -0.1059  0.8048
   36MOL0    Cl 4875  -0.639  11.378   8.337  0.3381  0.4048  0.1910
   36MOL0     C 4876   0.420  11.489   8.447 -0.2593 -0.9217 -0.0525
   36MOL0     C 4877   0.548  11.495   8.502 -0.0029  0.4086  0.1178
   36MOL0     O 4878   0.771  11.553   8.680  0.2925 -0.5929  0.0578
   36MOL0     C 4879   1.046  11.379   8.597 -0.6719 -0.5941 -0.7957
   36MOL0     C 4880   1.184  11.379   8.622 -0.1321 -0.0968 -0.4051
   36MOL0     N 4881   1.661  11.438   8.177 -0.7362  0.1611 -0.8989
   36MOL0     N 4882   1.586  11.472   8.081 -0.2145  0.2196  0.2517
   36MOL0     C 4883   0.457  11.277   7.435 -0.5895  0.1679  0.0428
   36MOL0     C 4884   0.319  11.302   7.415 -0.7532  0.2472 -0.2093
   36MOL0     C 4885  -0.123  11.340   7.457 -0.0709 -0.2437  0.4328
   36MOL0     C 4886  -0.151  11.478   7.433  0.4518  0.0728  0.2036
   36MOL0     C 4887  -0.292  11.523   7.449  0.4524  0.0868  1.1757
   36MOL0     C 4888  -0.392  11.430   7.480  0.0320  0.6188 -0.7490
   36MOL0     O 4889  -0.527  11.463   7.486  0.0404  0.1955  0.1325
   36MOL0     C 4890  -0.578  11.589   7.418  0.0344 -0.9732 -0.0953
   36MOL0     C 4891  -0.732  11.583   7.432  0.4360  0.2495  0.1702
   36MOL0     C 4892  -0.790  11.477   7.335 -0.3933  0.6957 -0.0756
   36MOL0     C 4893  -0.793  11.337   7.395 -0.1393  1.1469 -0.1587
   36MOL0     C 4894  -0.875  11.242   7.314 -0.4656  0.1717  0.2225
   36MOL0     C 4895  -0.937  11.180   7.230  0.4207 -0.6110 -0.1456
   36MOL0     C 4896  -0.358  11.293   7.495 -0.1473  0.2005  0.2828
   36MOL0     C 4897  -0.225  11.250   7.481  0.4571 -0.8750  0.9612
   36MOL0     C 4898  -0.207  11.108   7.495 -0.4418 -0.1431  0.4573
   36MOL0     H 4899   0.258  11.480   7.689  4.3561  1.4149  1.6392
   36MOL0     H 4900   0.489  11.410   7.742  2.2538  0.1925 -0.6966
   36MOL0     H 4901   0.577  11.093   7.622  0.5197  0.9088 -1.6504
   36MOL0     H 4902   0.606  11.177   7.767 -1.2100 -1.4441 -0.8796
   36MOL0     H 4903   0.786  11.002   7.645  1.3393  0.3815 -0.1998
   36MOL0     H 4904   0.838  11.138   7.557  0.1782  1.9017  0.5415
   36MOL0     H 4905   0.874  11.284   7.779  0.5034  0.1776  1.2181
   36MOL0     H 4906   0.836  11.147   7.873  0.3403 -4.7359  0.5444
   36MOL0     H 4907   1.021  11.021   7.744  0.7804  0.0616  3.3401
   36MOL0     H 4908   1.049  11.164   7.649  1.9026  2.5550  1.2934
   36MOL0     H 4909   1.213  11.102   7.834  0.3210 -0.2627  0.1135
   36MOL0     H 4910   1.080  11.111   7.953 -2.0866  4.2698  1.3862
   36MOL0     H 4911   1.213  11.328   7.773 -0.0111  0.4436  0.0116
   36MOL0     H 4912   1.105  11.384   7.899  0.7277  1.5321 -3.0703
   36MOL0     H 4913   1.356  11.227   7.962  1.7796  1.2260  1.1379
   36MOL0     H 4914   1.223  11.271   8.068 -1.3659  2.1048  0.3007
   36MOL0     H 4915   1.398  11.467   7.891 -1.5390  0.9140 -0.7232
   36MOL0     H 4916   1.288  11.516   8.008 -0.6527 -0.5411 -2.1456
   36MOL0     H 4917   1.380  11.290   8.252  1.9287 -0.7504  3.6152
   36MOL0     H 4918   1.738  11.244   8.355  0.6042 -0.4395  2.6465
   36MOL0     H 4919   1.573  11.188   8.379 -1.3976  0.3830  0.7576
   36MOL0     H 4920   1.726  11.329   8.566 -1.1820  1.8648  2.2492
   36MOL0     H 4921   1.636  11.460   8.495 -0.8696 -0.0396 -1.0939
   36MOL0     H 4922   1.428  11.298   8.498  1.6869 -1.2855 -1.7236
   36MOL0     H 4923   1.522  11.205   8.609 -1.2640  0.2639 -0.7340
   36MOL0     H 4924   1.408  11.334   8.762  0.6539  0.3684  0.5297
   36MOL0     H 4925   1.554  11.430   8.729  1.1208  0.0103 -1.2752
   36MOL0     H 4926   1.250  11.707   8.650  1.8779 -1.5181 -2.8987
   36MOL0     H 4927   1.058  11.824   8.640 -0.1167 -0.9477 -0.8313
   36MOL0     H 4928   0.901  11.760   8.700  0.0947 -1.1718  1.6047
   36MOL0     H 4929   0.929  11.773   8.526  0.3746 -6.5583 -3.2684
   36MOL0     H 4930   0.677  11.210   8.378  1.5417  3.0195 -1.7082
   36MOL0     H 4931   0.442  11.208   8.258  3.9898  2.1472 -3.3611
   36MOL0     H 4932   0.136  11.442   8.467 -0.9278  1.4740  0.1194
   36MOL0     H 4933   0.175  11.539   8.333  2.8698  0.8689  2.8596
   36MOL0     H 4934   0.044  11.404   8.179 -0.2363  1.4442  0.7074
   36MOL0     H 4935   0.030  11.274   8.293 -0.5921 -0.3230 -0.2603
   36MOL0     H 4936  -0.106  11.407   8.440 -0.6647  0.6256 -0.0532
   36MOL0     H 4937  -0.177  11.386   8.279 -0.9080  1.6905 -1.0697
   36MOL0     H 4938  -0.135  11.616   8.209 -0.2489  0.4401  0.0060
   36MOL0     H 4939  -0.034  11.648   8.356 -1.2879  0.8692  2.9084
   36MOL0     H 4940  -0.243  11.640   8.483  0.3262 -1.8584 -0.2502
   36MOL0     H 4941  -0.267  11.744   8.329 -2.4552 -1.1852 -0.3181
   36MOL0     H 4942  -0.366  11.440   8.342 -0.6191  0.2579 -1.3103
   36MOL0     H 4943  -0.410  11.572   8.233 -2.2142  0.5826  0.8159
   36MOL0     H 4944  -0.476  11.697   8.431  1.1495 -0.6632  1.8807
   36MOL0     H 4945  -0.469  11.549   8.528 -0.4360 -0.8682 -0.4008
   36MOL0     H 4946  -0.626  11.590   8.272  1.3328 -0.4246  0.5244
   36MOL0     H 4947  -0.699  11.598   8.433 -1.1717 -1.5971  2.0578
   36MOL0     H 4948   0.359  11.577   8.463 -0.1487 -0.6652 -0.9911
   36MOL0     H 4949   0.570  11.592   8.545 -5.5087  1.4608  1.3632
   36MOL0     H 4950   1.000  11.287   8.563  0.1570 -2.1778  2.0406
   36MOL0     H 4951   1.235  11.284   8.612  1.2889  0.3792  1.8252
   36MOL0     H 4952   0.510  11.214   7.364  1.1079  0.1431  1.2694
   36MOL0     H 4953   0.272  11.269   7.323 -2.3740 -2.5731  1.4520
   36MOL0     H 4954  -0.069  11.547   7.418 -0.4029  1.0386 -0.1643
   36MOL0     H 4955  -0.319  11.628   7.441 -0.9412 -0.3582 -0.6456
   36MOL0     H 4956  -0.530  11.683   7.445  1.0131 -0.9197 -1.8831
   36MOL0     H 4957  -0.554  11.577   7.312 -0.2287 -3.4176  0.0700
   36MOL0     H 4958  -0.755  11.682   7.391 -2.8199 -0.5498 -0.1616
   36MOL0     H 4959  -0.764  11.570   7.536  0.1870  0.0011  0.0628
   36MOL0     H 4960  -0.895  11.503   7.316  0.6074  4.0636 -1.7595
   36MOL0     H 4961  -0.732  11.467   7.242  1.7057  0.5891  1.1964
   36MOL0     H 4962  -0.828  11.349   7.499  2.4494  3.9230  0.5264
   36MOL0     H 4963  -0.688  11.310   7.406 -0.6802 -0.7259  0.9468
   36MOL0     H 4964  -0.995  11.122   7.160  1.0905 -0.1977 -1.0643
   36MOL0     H 4965  -0.431  11.217   7.520  0.7815 -0.3740  1.3397
   36MOL0     H 4966  -0.139  11.086   7.577 -0.2573 -0.2586  0.2748
   36MOL0     H 4967  -0.301  11.061   7.527  0.5479  0.3349  4.4835
   36MOL0     H 4968  -0.172  11.061   7.402 -0.9221 -0.7512  0.5785
   37MOL0     O 4969   3.036   2.780   6.652 -0.1931 -0.2365  1.1409
   37MOL0     C 4970   2.916   2.760   6.672 -0.8648  0.0652 -0.6230
   37MOL0     O 4971   2.806   2.773   6.586 -0.7746 -0.0656  0.5021
   37MOL0     C 4972   2.836   2.808   6.453 -0.0450 -0.2862 -1.0063
   37MOL0     C 4973   2.955   2.781   6.378  0.0224  0.3311 -0.6262
   37MOL0     C 4974   2.971   2.841   6.254  0.0032 -0.4433 -0.6667
   37MOL0     C 4975   2.862   2.896   6.189  0.0212 -0.3855  0.8633
   37MOL0     O 4976   2.871   2.932   6.055  0.5606  0.0517 -0.0931
   37MOL0     C 4977   2.997   2.978   5.997 -0.1480  0.6268  0.0221
   37MOL0     C 4978   2.958   3.109   5.924 -0.4559  0.0072  0.3484
   37MOL0     C 4979   3.019   3.244   5.972 -0.1898  0.2713 -0.2067
   37MOL0     C 4980   3.006   3.353   5.871  0.0826 -0.4367  0.0734
   37MOL0     C 4981   3.078   3.483   5.915 -0.2877 -0.8451 -0.0249
   37MOL0     C 4982   3.031   3.595   5.826  0.3955 -0.1137  0.7379
   37MOL0     C 4983   3.110   3.718   5.813 -0.1687 -0.6751  0.1307
   37MOL0     C 4984   3.046   3.805   5.708  0.9243 -0.4409  0.6570
   37MOL0     N 4985   3.122   3.927   5.697 -0.4097  0.6754  0.6273
   37MOL0     C 4986   3.183   3.995   5.802  0.0182  0.0597  0.3175
   37MOL0     C 4987   3.264   4.085   5.749 -0.7906 -0.6216  0.4424
   37MOL0     C 4988   3.332   4.182   5.839  0.5683  0.3775 -0.0549
   37MOL0     C 4989   3.482   4.144   5.859  0.4675 -0.1216  0.1225
   37MOL0     C 4990   3.550   4.221   5.956 -0.0692 -0.1518  0.0227
   37MOL0     C 4991   3.705   4.207   5.945 -0.1976 -0.5165  0.2700
   37MOL0     O 4992   3.761   4.301   6.031 -0.3208  0.1320  0.2771
   37MOL0     C 4993   3.841   4.405   5.979  0.3692  0.7797  0.9080
   37MOL0     C 4994   3.796   4.531   5.987  0.6723 -0.0725  0.1496
   37MOL0     C 4995   3.854   4.640   5.921 -0.1644  0.3439  0.1073
   37MOL0     C 4996   3.803   4.777   5.956  0.2989  0.2474  0.0448
   37MOL0     C 4997   3.975   4.622   5.846 -0.0120  0.1838 -0.7119
   37MOL0     C 4998   4.036   4.733   5.773 -0.6677 -0.6518  0.0498
   37MOL0     O 4999   4.141   4.691   5.689  0.1433 -0.6952  0.4643
   37MOL0     C 5000   4.215   4.790   5.631  0.7323  0.2636 -0.1973
   37MOL0     C 5001   4.333   4.835   5.692 -0.1472 -1.0878 -0.4690
   37MOL0     C 5002   4.401   4.947   5.636  0.9135 -0.1849 -0.9330
   37MOL0     C 5003   4.367   5.000   5.510  0.8254 -0.2230 -0.5168
   37MOL0     O 5004   4.434   5.110   5.446  0.2840  0.4859 -0.1724
   37MOL0     C 5005   4.492   5.200   5.527  0.3724  0.0039 -0.1787
   37MOL0     C 5006   4.515   5.327   5.451  0.2850  0.3300 -0.5758
   37MOL0     C 5007   4.625   5.304   5.347 -0.0301  0.3970  0.0954
   37MOL0     C 5008   4.756   5.348   5.409  0.2211 -0.4295 -0.5847
   37MOL0     C 5009   4.869   5.359   5.298  0.2688  0.7105 -0.0223
   37MOL0     C 5010   4.989   5.435   5.337  0.6772 -1.1479 -0.8967
   37MOL0     C 5011   5.104   5.412   5.244  0.0106  0.5895  0.3702
   37MOL0     C 5012   5.235   5.472   5.297 -0.5057 -0.7158 -0.7026
   37MOL0    Cl 5013   5.316   5.379   5.434  0.1767  0.1935  0.1771
   37MOL0     C 5014   4.250   4.947   5.450  0.2261  0.3670 -0.2290
   37MOL0     C 5015   4.169   4.854   5.516  0.3549  0.7094  0.1998
   37MOL0     O 5016   4.003   4.853   5.793 -0.2878  0.2155 -0.1641
   37MOL0     C 5017   4.028   4.495   5.848  0.3563  0.2875 -0.6151
   37MOL0     C 5018   3.961   4.383   5.910  0.1700 -0.1321  0.1911
   37MOL0     N 5019   3.261   4.074   5.606  0.3628 -0.7150 -0.4689
   37MOL0     N 5020   3.168   3.975   5.581 -0.0216  0.1540 -0.6427
   37MOL0     C 5021   2.743   2.916   6.256  0.1779  0.4175  0.0024
   37MOL0     C 5022   2.729   2.865   6.386  0.7392  0.1026 -0.0113
   37MOL0     C 5023   2.875   2.692   6.800  0.5321 -0.5999  0.8914
   37MOL0     C 5024   2.739   2.668   6.824  0.3804  0.1977  0.1378
   37MOL0     C 5025   2.692   2.605   6.938  0.9955 -0.3306  0.7005
   37MOL0     C 5026   2.781   2.558   7.038 -0.5306  0.4378  0.4837
   37MOL0     O 5027   2.754   2.496   7.151  0.3746  0.8343 -0.4309
   37MOL0     C 5028   2.662   2.379   7.141  0.7845  0.0552  0.1296
   37MOL0     C 5029   2.576   2.398   7.267 -0.2645 -0.2459 -0.2445
   37MOL0     C 5030   2.467   2.505   7.246  0.2040  0.8724  0.0162
   37MOL0     C 5031   2.373   2.483   7.372 -0.2670 -0.0053  0.0400
   37MOL0     C 5032   2.264   2.391   7.327  0.5204  0.1112 -0.2825
   37MOL0     C 5033   2.176   2.327   7.284 -0.4741 -0.4801  0.2278
   37MOL0     C 5034   2.915   2.577   7.010  0.0668 -0.2308 -0.9027
   37MOL0     C 5035   2.957   2.650   6.899 -0.1798 -0.2662  0.3499
   37MOL0     C 5036   3.111   2.698   6.910  0.6218  0.1077 -0.2468
   37MOL0     H 5037   3.036   2.722   6.421 -0.4652  1.2619  1.7454
   37MOL0     H 5038   3.064   2.818   6.203  0.2239  0.1165 -0.5220
   37MOL0     H 5039   3.039   2.913   5.919  4.5281  3.9518 -0.6882
   37MOL0     H 5040   3.074   3.008   6.069  3.5438 -0.1156 -3.2570
   37MOL0     H 5041   2.977   3.098   5.817  3.7247  1.9233  0.6808
   37MOL0     H 5042   2.851   3.125   5.937 -0.2493  1.1666  0.7462
   37MOL0     H 5043   2.963   3.277   6.060 -0.4275 -0.3465 -0.1238
   37MOL0     H 5044   3.123   3.216   5.995 -0.7522 -4.1993 -2.1743
   37MOL0     H 5045   3.045   3.321   5.774  0.0050  0.2809 -0.1986
   37MOL0     H 5046   2.901   3.380   5.857  0.4675  1.1308  0.0440
   37MOL0     H 5047   3.183   3.461   5.895 -0.6692 -2.0170 -0.8415
   37MOL0     H 5048   3.074   3.514   6.020 -0.0409  0.3512 -0.3554
   37MOL0     H 5049   3.019   3.548   5.728  0.9444 -1.8104  1.4528
   37MOL0     H 5050   2.931   3.630   5.852  1.2234  4.2255 -0.9921
   37MOL0     H 5051   3.214   3.703   5.780 -1.1437  1.5054 -4.8598
   37MOL0     H 5052   3.100   3.761   5.914 -0.9162 -2.1630  0.7118
   37MOL0     H 5053   3.031   3.754   5.613  1.9748 -1.5290  1.0409
   37MOL0     H 5054   2.946   3.830   5.746  1.4966 -0.2439  2.1326
   37MOL0     H 5055   3.170   3.967   5.906  0.2529 -2.3988 -0.2581
   37MOL0     H 5056   3.281   4.187   5.935 -1.7443  0.0926 -1.2151
   37MOL0     H 5057   3.322   4.275   5.783 -1.8471  1.2588  1.6725
   37MOL0     H 5058   3.496   4.040   5.888  1.5235  0.2257  0.9405
   37MOL0     H 5059   3.529   4.152   5.761  0.8429  0.2103  0.3240
   37MOL0     H 5060   3.530   4.328   5.964  1.8842  0.0883  4.8031
   37MOL0     H 5061   3.517   4.180   6.051 -1.6952 -3.2121 -1.7194
   37MOL0     H 5062   3.718   4.103   5.977 -1.0428 -1.2223 -1.5644
   37MOL0     H 5063   3.747   4.205   5.844 -0.5036  0.4702  0.1168
   37MOL0     H 5064   3.704   4.544   6.044  0.7648  0.8885  0.0996
   37MOL0     H 5065   3.871   4.857   5.983  0.1894  0.4869 -0.3688
   37MOL0     H 5066   3.742   4.763   6.046 -0.4919  0.2798 -0.4744
   37MOL0     H 5067   3.736   4.818   5.879  0.9813  2.7995  0.7429
   37MOL0     H 5068   4.365   4.783   5.782  3.0273  0.1745 -0.7201
   37MOL0     H 5069   4.481   4.984   5.699 -0.6095 -3.1800  3.2109
   37MOL0     H 5070   4.432   5.223   5.615  1.7170 -2.5858  1.5264
   37MOL0     H 5071   4.583   5.156   5.568 -0.2664  0.4466  1.8303
   37MOL0     H 5072   4.425   5.368   5.404 -0.4219 -1.5153 -0.9106
   37MOL0     H 5073   4.546   5.401   5.526 -1.7611 -1.5510  2.3290
   37MOL0     H 5074   4.592   5.363   5.261  0.1077  1.1435  0.5539
   37MOL0     H 5075   4.642   5.199   5.319 -0.2910  0.6728 -1.1606
   37MOL0     H 5076   4.788   5.293   5.498 -2.5804 -1.1827  0.0764
   37MOL0     H 5077   4.759   5.451   5.446  4.3348 -0.0715 -1.4981
   37MOL0     H 5078   4.897   5.259   5.263  0.8501  0.0969  2.0693
   37MOL0     H 5079   4.826   5.421   5.219 -0.5105 -0.6106 -0.6728
   37MOL0     H 5080   5.016   5.402   5.438  1.3461  2.6254  0.3222
   37MOL0     H 5081   4.974   5.543   5.344  0.2961 -1.2842  0.9496
   37MOL0     H 5082   5.089   5.453   5.144  0.8633  0.5775  0.2231
   37MOL0     H 5083   5.125   5.305   5.231 -0.4216  0.6844 -1.2382
   37MOL0     H 5084   5.224   5.573   5.338  1.1956  0.6159 -3.3276
   37MOL0     H 5085   5.312   5.474   5.220  1.6021  1.5777  1.2823
   37MOL0     H 5086   4.214   4.982   5.354 -0.8066 -0.7928 -0.2858
   37MOL0     H 5087   4.070   4.833   5.477 -1.1730  1.9607  3.1268
   37MOL0     H 5088   4.126   4.493   5.802  0.4554  3.0613 -0.6817
   37MOL0     H 5089   3.991   4.283   5.880  0.6443  0.5614 -1.8251
   37MOL0     H 5090   2.650   2.950   6.213 -1.1347 -0.8592  1.6986
   37MOL0     H 5091   2.630   2.884   6.426  0.0497 -1.5337 -0.8519
   37MOL0     H 5092   2.673   2.707   6.748  3.2364  0.6673 -2.2759
   37MOL0     H 5093   2.586   2.592   6.953  1.3394 -3.0473  1.3273
   37MOL0     H 5094   2.603   2.369   7.049 -1.1458  1.7377  1.1168
   37MOL0     H 5095   2.705   2.281   7.163  0.8953  0.4133  1.5908
   37MOL0     H 5096   2.653   2.430   7.338  1.9892  1.8978 -3.3361
   37MOL0     H 5097   2.549   2.294   7.283  0.8746 -0.8118 -1.7193
   37MOL0     H 5098   2.515   2.604   7.246  0.0239  1.0310  2.8653
   37MOL0     H 5099   2.412   2.495   7.152  3.9224 -0.2774 -2.2466
   37MOL0     H 5100   2.336   2.585   7.388  2.0672  1.0036 -0.6527
   37MOL0     H 5101   2.421   2.446   7.462 -3.3227  2.0114  2.7172
   37MOL0     H 5102   2.090   2.274   7.248 -0.7263  0.0861 -0.0188
   37MOL0     H 5103   2.983   2.553   7.091 -2.9207  0.0080  1.8623
   37MOL0     H 5104   3.172   2.676   6.822  0.7123 -4.3352  0.6631
   37MOL0     H 5105   3.106   2.804   6.935  2.1310 -0.0237  0.7169
   37MOL0     H 5106   3.154   2.653   7.000 -0.2599  0.4687  0.3698
   38MOL0     O 5107   0.401   1.591   1.353 -1.0758 -0.8637  0.1883
   38MOL0     C 5108   0.484   1.503   1.389  0.9443  0.4352  0.3350
   38MOL0     O 5109   0.620   1.522   1.412 -0.5793 -0.3845  0.5900
   38MOL0     C 5110   0.677   1.649   1.426  0.4011 -0.4611  1.1748
   38MOL0     C 5111   0.623   1.748   1.514 -0.3434 -0.0904 -0.6911
   38MOL0     C 5112   0.683   1.875   1.519  0.0223  0.7277 -0.8423
   38MOL0     C 5113   0.798   1.908   1.452  0.5390  0.7005 -0.7471
   38MOL0     O 5114   0.839   2.031   1.479  0.0824  0.2350  0.1636
   38MOL0     C 5115   0.981   2.064   1.439 -0.0958  0.7329 -0.4693
   38MOL0     C 5116   1.002   2.196   1.508  0.3329 -0.3043  0.2142
   38MOL0     C 5117   1.144   2.239   1.482 -0.6901  0.2993  0.1218
   38MOL0     C 5118   1.160   2.293   1.338  1.2397  0.6388 -1.0361
   38MOL0     C 5119   1.296   2.341   1.302 -0.2505 -0.0645 -0.7436
   38MOL0     C 5120   1.355   2.436   1.420  0.2038  0.0394 -0.0395
   38MOL0     C 5121   1.474   2.522   1.374 -0.0442  0.0584 -0.9342
   38MOL0     C 5122   1.529   2.614   1.487  0.3722  0.9049  0.2791
   38MOL0     N 5123   1.672   2.627   1.477 -0.0057 -0.9478  0.2889
   38MOL0     C 5124   1.755   2.548   1.556  0.2316 -0.0597  0.1392
   38MOL0     C 5125   1.881   2.598   1.531  0.4373  0.0501 -0.3607
   38MOL0     C 5126   2.015   2.559   1.582  0.2771 -0.0281 -0.3647
   38MOL0     C 5127   2.007   2.496   1.721  0.0919  0.5652 -1.1145
   38MOL0     C 5128   2.150   2.468   1.771 -0.1840 -0.3517  0.5268
   38MOL0     C 5129   2.162   2.371   1.896  1.4594 -0.7809 -0.8093
   38MOL0     O 5130   2.160   2.239   1.853 -0.4514  0.8500 -0.0678
   38MOL0     C 5131   2.195   2.141   1.950 -0.6931 -0.1776  0.3235
   38MOL0     C 5132   2.270   2.029   1.912 -0.5188  0.6746  0.4989
   38MOL0     C 5133   2.313   1.924   2.001  0.3872 -0.4323  0.6875
   38MOL0     C 5134   2.410   1.825   1.941 -0.3197 -0.5272 -0.4189
   38MOL0     C 5135   2.295   1.945   2.140  0.3896  0.8672  1.6160
   38MOL0     C 5136   2.369   1.865   2.238  0.3013 -0.2793  0.2727
   38MOL0     O 5137   2.352   1.911   2.363 -0.2667 -0.4574  0.2773
   38MOL0     C 5138   2.449   1.886   2.451  0.0126 -0.4545 -0.4229
   38MOL0     C 5139   2.410   1.903   2.584  0.5008 -0.6799 -0.2260
   38MOL0     C 5140   2.505   1.876   2.689  0.1276 -1.1145  0.4404
   38MOL0     C 5141   2.638   1.847   2.664 -0.1342  0.4736  1.5779
   38MOL0     O 5142   2.723   1.849   2.761 -0.4829 -0.0491  0.4067
   38MOL0     C 5143   2.806   1.740   2.790  0.1253 -0.0107  1.5610
   38MOL0     C 5144   2.889   1.748   2.911  0.6356  0.6058  0.2930
   38MOL0     C 5145   2.807   1.735   3.044 -0.2241 -0.0162 -0.0418
   38MOL0     C 5146   2.789   1.592   3.092 -0.9424 -0.9380  0.5774
   38MOL0     C 5147   2.648   1.573   3.143  0.0661  0.2371  0.3552
   38MOL0     C 5148   2.532   1.582   3.042  1.2003 -0.2562  0.2398
   38MOL0     C 5149   2.399   1.632   3.101  1.1952 -0.0952 -0.5483
   38MOL0     C 5150   2.282   1.591   3.005  0.7400 -0.5716 -0.0658
   38MOL0    Cl 5151   2.272   1.725   2.885 -0.3660 -0.3049  0.1409
   38MOL0     C 5152   2.674   1.831   2.521  0.8943 -0.4500 -0.1661
   38MOL0     C 5153   2.579   1.858   2.421 -0.5840  0.4618 -0.5578
   38MOL0     O 5154   2.410   1.751   2.212  1.1056  0.3106  0.1686
   38MOL0     C 5155   2.212   2.056   2.176 -0.6118 -0.6083  0.0459
   38MOL0     C 5156   2.161   2.152   2.089  0.7473 -0.9092  0.8580
   38MOL0     N 5157   1.871   2.691   1.433 -0.8455 -1.0689 -0.6137
   38MOL0     N 5158   1.749   2.709   1.396  0.2010  0.3550 -0.0096
   38MOL0     C 5159   0.853   1.810   1.367 -0.4270  0.1460 -0.7291
   38MOL0     C 5160   0.793   1.683   1.347  0.2726  0.3683 -1.0215
   38MOL0     C 5161   0.435   1.367   1.388  0.7832  1.0436  0.1850
   38MOL0     C 5162   0.524   1.253   1.423 -0.3416 -0.5025 -0.0857
   38MOL0     C 5163   0.490   1.121   1.424 -0.1661 -0.6047 -0.9745
   38MOL0     C 5164   0.361   1.089   1.390 -0.0755  0.4514 -0.0508
   38MOL0     O 5165   0.324   0.958   1.387 -1.3901 -0.2210  0.0276
   38MOL0     C 5166   0.377   0.877   1.282 -0.0851  0.6876  0.5650
   38MOL0     C 5167   0.370   0.938   1.142 -1.0292 -0.1498 -1.1354
   38MOL0     C 5168   0.226   0.947   1.111  0.5145 -0.0611 -0.3195
   38MOL0     C 5169   0.188   0.991   0.971  0.9085 -0.5156 -0.0468
   38MOL0     C 5170   0.042   0.966   0.940  0.0375  0.8976  0.3907
   38MOL0     C 5171  -0.070   0.953   0.916  0.2651  0.5863 -0.0199
   38MOL0     C 5172   0.267   1.184   1.375 -0.0120  0.3015  0.6974
   38MOL0     C 5173   0.299   1.320   1.376  0.2738 -0.7902 -0.3547
   38MOL0     C 5174   0.176   1.414   1.360 -0.3116 -0.3925 -0.4731
   38MOL0     H 5175   0.541   1.717   1.577  0.7658 -0.1532  0.7782
   38MOL0     H 5176   0.644   1.943   1.594 -0.1015  1.0844 -1.2254
   38MOL0     H 5177   0.988   2.086   1.333  0.2746  0.7104 -0.4506
   38MOL0     H 5178   1.052   1.988   1.474 -1.5930 -0.3410  0.3738
   38MOL0     H 5179   0.925   2.264   1.470  1.1969  0.5716 -0.0163
   38MOL0     H 5180   0.992   2.196   1.617  0.9972 -0.5348  0.2821
   38MOL0     H 5181   1.171   2.316   1.555  1.3784  0.0228 -0.2872
   38MOL0     H 5182   1.220   2.163   1.503 -0.8140  1.2793  5.8770
   38MOL0     H 5183   1.123   2.219   1.266 -0.7555  0.3080  0.2490
   38MOL0     H 5184   1.098   2.383   1.342  1.1161  0.5127  0.5028
   38MOL0     H 5185   1.286   2.404   1.213  2.2589 -1.1403 -1.8857
   38MOL0     H 5186   1.365   2.267   1.262  2.1195  1.0621  0.9650
   38MOL0     H 5187   1.276   2.504   1.456 -1.2604 -1.5317 -0.1505
   38MOL0     H 5188   1.391   2.366   1.496  1.7417 -1.9139 -2.4412
   38MOL0     H 5189   1.455   2.588   1.289  0.9935 -0.0147 -1.2451
   38MOL0     H 5190   1.544   2.448   1.335 -0.6866  0.3182 -2.6349
   38MOL0     H 5191   1.480   2.711   1.483  0.0332  0.7170 -0.2684
   38MOL0     H 5192   1.504   2.574   1.586 -0.5928 -0.7013 -0.5691
   38MOL0     H 5193   1.722   2.468   1.621 -0.3585  0.9021  1.0784
   38MOL0     H 5194   2.083   2.645   1.589  1.2588 -0.8930  1.2499
   38MOL0     H 5195   2.061   2.489   1.512  0.4095 -2.1193  1.6911
   38MOL0     H 5196   1.942   2.555   1.787 -0.8324 -0.3301 -1.1890
   38MOL0     H 5197   1.966   2.395   1.710  3.0228 -0.5873 -2.2967
   38MOL0     H 5198   2.193   2.418   1.685  0.7199 -4.3341  3.0547
   38MOL0     H 5199   2.199   2.564   1.791 -0.9538 -0.6448  4.7714
   38MOL0     H 5200   2.254   2.414   1.937  0.5212  2.2522 -1.6354
   38MOL0     H 5201   2.073   2.393   1.956  2.4754  0.6062  0.2753
   38MOL0     H 5202   2.268   2.013   1.805  0.5550  2.7505  0.1130
   38MOL0     H 5203   2.360   1.732   1.968  0.3362 -0.2827  1.8434
   38MOL0     H 5204   2.505   1.843   1.991 -0.5336 -1.4704  0.3551
   38MOL0     H 5205   2.422   1.840   1.833  0.4529  1.7815 -0.0660
   38MOL0     H 5206   2.306   1.926   2.606  0.0947  0.6975 -3.2018
   38MOL0     H 5207   2.465   1.879   2.790 -2.2845 -1.3457 -0.4430
   38MOL0     H 5208   2.738   1.655   2.794  0.6639 -0.6502 -1.0021
   38MOL0     H 5209   2.872   1.717   2.705 -0.7707 -1.5823  1.2503
   38MOL0     H 5210   2.957   1.662   2.920 -0.0445  0.1881  1.7570
   38MOL0     H 5211   2.949   1.840   2.913  1.5186  0.1133 -1.3154
   38MOL0     H 5212   2.713   1.791   3.040 -0.6838 -0.6729  1.1371
   38MOL0     H 5213   2.852   1.785   3.130 -1.7989  1.8053 -0.1959
   38MOL0     H 5214   2.853   1.584   3.181  1.2549 -3.2134 -1.0573
   38MOL0     H 5215   2.830   1.517   3.024 -0.2162 -0.1853  0.1642
   38MOL0     H 5216   2.653   1.470   3.179  0.8248  0.7895  1.8920
   38MOL0     H 5217   2.622   1.645   3.221  1.1039  0.3447  0.6184
   38MOL0     H 5218   2.523   1.485   2.994 -0.2051 -0.5913  1.0978
   38MOL0     H 5219   2.550   1.657   2.965  1.2710 -0.3447  0.1706
   38MOL0     H 5220   2.399   1.740   3.119  2.9992  0.1355 -1.6470
   38MOL0     H 5221   2.382   1.592   3.202  0.2583  2.8597  0.5726
   38MOL0     H 5222   2.185   1.574   3.053  0.1337  0.7597 -0.7587
   38MOL0     H 5223   2.315   1.495   2.966  1.4559 -0.3345 -0.0496
   38MOL0     H 5224   2.780   1.835   2.501  0.4810  0.1397 -2.5341
   38MOL0     H 5225   2.596   1.870   2.315 -3.4903  0.8713 -1.0569
   38MOL0     H 5226   2.196   2.080   2.280 -4.8894  1.4024 -0.8478
   38MOL0     H 5227   2.107   2.238   2.127  1.3892 -0.1966  0.2022
   38MOL0     H 5228   0.945   1.843   1.319 -0.5577  3.3391  0.9052
   38MOL0     H 5229   0.847   1.617   1.279  0.8204  1.8952 -2.1234
   38MOL0     H 5230   0.626   1.285   1.437 -0.8426  1.3956 -0.4294
   38MOL0     H 5231   0.567   1.050   1.454 -1.4530 -1.9914 -0.8254
   38MOL0     H 5232   0.480   0.848   1.303  0.6714  3.2632  0.7336
   38MOL0     H 5233   0.330   0.778   1.275  1.9099 -0.2037 -1.6267
   38MOL0     H 5234   0.422   0.884   1.062  1.4170  1.3359 -0.6467
   38MOL0     H 5235   0.423   1.033   1.132  3.1299 -2.2880 -1.8648
   38MOL0     H 5236   0.178   0.851   1.131 -0.9762  1.0023  1.5603
   38MOL0     H 5237   0.172   1.012   1.181  0.5364  1.0490 -1.3104
   38MOL0     H 5238   0.248   0.939   0.896 -0.2889 -0.2593 -1.2202
   38MOL0     H 5239   0.201   1.098   0.956  0.4683 -0.4907 -0.2687
   38MOL0     H 5240  -0.177   0.954   0.916  0.0991 -0.9381  3.7356
   38MOL0     H 5241   0.164   1.150   1.362 -0.9147  2.8319  0.7081
   38MOL0     H 5242   0.197   1.489   1.437  1.0952 -2.1153  0.9288
   38MOL0     H 5243   0.167   1.455   1.259 -1.3535 -2.7183 -1.3952
   38MOL0     H 5244   0.077   1.377   1.386 -0.0199 -0.1204  1.1604
   39MOL0     O 5245   5.938   9.203   9.834 -0.4549  0.2027  0.6556
   39MOL0     C 5246   6.001   9.265   9.921  0.0752  0.1610 -0.5022
   39MOL0     O 5247   5.938   9.356  10.010 -1.2636 -0.1628  0.4890
   39MOL0     C 5248   5.805   9.349   9.992 -0.5987  0.1737 -0.3719
   39MOL0     C 5249   5.728   9.281  10.083  0.8537 -0.0719  1.1511
   39MOL0     C 5250   5.590   9.275  10.071 -0.4181  0.0535 -0.2582
   39MOL0     C 5251   5.524   9.353   9.980  0.2889  0.4708  0.0761
   39MOL0     O 5252   5.386   9.354   9.975  0.2504 -0.4363 -0.3379
   39MOL0     C 5253   5.309   9.238  10.009  1.2323 -0.2849  0.4339
   39MOL0     C 5254   5.330   9.116   9.907 -0.2601  0.0455 -0.0419
   39MOL0     C 5255   5.285   9.158   9.768  0.1742  0.8333 -0.3697
   39MOL0     C 5256   5.279   9.038   9.676  0.3440  0.0735  0.0669
   39MOL0     C 5257   5.418   8.975   9.639 -0.1047  0.5029 -0.5105
   39MOL0     C 5258   5.501   9.056   9.538 -0.7508 -0.6581  0.9826
   39MOL0     C 5259   5.641   8.992   9.531 -0.3521  0.3108 -0.9819
   39MOL0     C 5260   5.712   9.006   9.393 -0.2795  0.3816 -0.1344
   39MOL0     N 5261   5.731   8.874   9.335 -0.1260 -1.3144  0.6847
   39MOL0     C 5262   5.626   8.789   9.318 -0.0544 -0.8097 -0.6791
   39MOL0     C 5263   5.683   8.673   9.277 -0.1134  0.0191 -0.3284
   39MOL0     C 5264   5.625   8.547   9.227 -0.6432  0.3923  0.1455
   39MOL0     C 5265   5.571   8.559   9.087  0.4482 -0.3855 -0.3349
   39MOL0     C 5266   5.679   8.588   8.979  0.6519  0.4248 -0.4617
   39MOL0     C 5267   5.747   8.460   8.934  0.4009 -0.2527 -0.9138
   39MOL0     O 5268   5.859   8.487   8.853 -0.5357  0.3248 -0.1212
   39MOL0     C 5269   5.988   8.499   8.898 -1.1776  0.3391 -0.3482
   39MOL0     C 5270   6.024   8.515   9.032  0.4709 -0.0942 -0.2634
   39MOL0     C 5271   6.159   8.544   9.068 -0.7841  0.3829 -0.8772
   39MOL0     C 5272   6.176   8.540   9.226  0.4485  0.5778 -0.0633
   39MOL0     C 5273   6.262   8.551   8.979  0.2970 -1.0912  0.8505
   39MOL0     C 5274   6.405   8.586   9.011 -0.4347 -0.0851 -0.0165
   39MOL0     O 5275   6.509   8.550   8.946  1.4969 -0.5654  0.1635
   39MOL0     C 5276   6.633   8.588   8.987  0.0260 -0.4753 -0.4351
   39MOL0     C 5277   6.696   8.522   9.102 -0.0749 -0.2292  0.1482
   39MOL0     C 5278   6.827   8.566   9.149  0.8123 -0.7854  0.8303
   39MOL0     C 5279   6.888   8.681   9.098 -0.1856 -0.1991  0.4475
   39MOL0     O 5280   7.005   8.739   9.144  0.5005  0.0824 -0.2349
   39MOL0     C 5281   7.043   8.699   9.285  0.2016 -0.1750  0.8638
   39MOL0     C 5282   7.161   8.793   9.325 -1.0365 -0.4128 -0.2202
   39MOL0     C 5283   7.270   8.800   9.213  0.1378 -0.4430  0.1431
   39MOL0     C 5284   7.382   8.881   9.266  0.6457  0.4366  1.2128
   39MOL0     C 5285   7.504   8.895   9.168 -0.6254 -0.6074 -0.6757
   39MOL0     C 5286   7.607   8.983   9.221 -0.7193  0.8271 -0.7382
   39MOL0     C 5287   7.732   8.999   9.131 -0.2541 -0.2604  0.9552
   39MOL0     C 5288   7.800   9.135   9.126  0.1287 -0.8912 -0.6911
   39MOL0    Cl 5289   7.862   9.196   9.281 -0.5402  0.3873 -0.7579
   39MOL0     C 5290   6.824   8.741   8.994 -0.2045 -1.1030 -0.4288
   39MOL0     C 5291   6.705   8.694   8.937  0.6038  0.5016 -0.2670
   39MOL0     O 5292   6.408   8.645   9.114 -0.1799 -0.0740 -0.6745
   39MOL0     C 5293   6.221   8.541   8.840  0.5215  0.4084 -0.3088
   39MOL0     C 5294   6.092   8.520   8.805  0.1236  0.1662  0.2646
   39MOL0     N 5295   5.821   8.695   9.262 -0.4638  0.6120 -0.2357
   39MOL0     N 5296   5.846   8.808   9.314  0.1670 -0.4183 -0.4551
   39MOL0     C 5297   5.605   9.424   9.880  0.9291  0.1650  0.1314
   39MOL0     C 5298   5.745   9.416   9.887  0.0017  1.8659  0.1778
   39MOL0     C 5299   6.149   9.254   9.918 -0.7005 -0.2217 -0.3006
   39MOL0     C 5300   6.215   9.201   9.811 -0.3963 -0.2410  0.2158
   39MOL0     C 5301   6.354   9.181   9.796  0.3019 -0.4364  0.0145
   39MOL0     C 5302   6.437   9.225   9.898  0.1609  0.4433 -0.9914
   39MOL0     O 5303   6.572   9.223   9.912 -0.4077 -0.3280  0.5132
   39MOL0     C 5304   6.646   9.118   9.848 -0.3157  0.2720  0.4896
   39MOL0     C 5305   6.794   9.115   9.883  0.8803 -0.7914 -1.5330
   39MOL0     C 5306   6.869   9.245   9.850 -0.0330  0.1953  0.1066
   39MOL0     C 5307   6.894   9.246   9.695  0.3228 -0.9951 -0.8958
   39MOL0     C 5308   7.002   9.149   9.675  0.2800  0.9280 -0.3010
   39MOL0     C 5309   7.099   9.084   9.643  0.4693  0.0796 -0.2256
   39MOL0     C 5310   6.377   9.277  10.015  0.5072  0.4656 -0.3212
   39MOL0     C 5311   6.236   9.295  10.029  0.8425 -0.3960 -0.7920
   39MOL0     C 5312   6.189   9.345  10.165 -0.8654 -0.6687  0.6159
   39MOL0     H 5313   5.784   9.232  10.162 -0.1660  0.9763  2.5843
   39MOL0     H 5314   5.534   9.215  10.143 -2.4207  0.7984 -1.1050
   39MOL0     H 5315   5.206   9.274  10.022  1.1382 -0.0179 -0.9734
   39MOL0     H 5316   5.316   9.205  10.114 -2.1002 -0.1099  0.8366
   39MOL0     H 5317   5.434   9.085   9.894 -0.3797 -0.1549 -0.5659
   39MOL0     H 5318   5.266   9.035   9.943 -0.8981 -0.8082 -2.8396
   39MOL0     H 5319   5.179   9.188   9.765  0.6770  2.6937 -2.9031
   39MOL0     H 5320   5.338   9.239   9.717  0.4657  2.3479  2.2133
   39MOL0     H 5321   5.210   8.960   9.709 -3.0870  2.5518 -0.6499
   39MOL0     H 5322   5.240   9.080   9.582  3.3754  2.1691 -0.3810
   39MOL0     H 5323   5.399   8.884   9.582 -1.1153 -0.4123  1.2161
   39MOL0     H 5324   5.470   8.946   9.730 -0.8355  1.5249  0.2531
   39MOL0     H 5325   5.455   9.055   9.439 -1.8028 -1.2915  1.4627
   39MOL0     H 5326   5.519   9.161   9.565  1.5261 -0.3966 -1.1846
   39MOL0     H 5327   5.632   8.885   9.552  1.1729  0.1095 -1.2042
   39MOL0     H 5328   5.698   9.044   9.609  1.6442 -1.6376 -1.0330
   39MOL0     H 5329   5.648   9.056   9.320 -0.2598 -1.2175 -1.2953
   39MOL0     H 5330   5.801   9.063   9.418  0.1753 -0.5573  0.4712
   39MOL0     H 5331   5.524   8.825   9.318  0.0057 -0.5823 -1.9485
   39MOL0     H 5332   5.542   8.509   9.287 -1.3709  0.2564 -0.9229
   39MOL0     H 5333   5.695   8.463   9.232 -1.6955 -0.5887 -0.9263
   39MOL0     H 5334   5.520   8.465   9.066 -0.5410 -0.8681  3.5286
   39MOL0     H 5335   5.501   8.642   9.073 -0.5976 -1.4792 -1.8866
   39MOL0     H 5336   5.625   8.631   8.894 -2.6178 -1.1652  0.6341
   39MOL0     H 5337   5.765   8.651   9.002 -0.7573  2.7876 -1.2915
   39MOL0     H 5338   5.778   8.404   9.022  2.7779  0.1167 -1.4702
   39MOL0     H 5339   5.680   8.402   8.870  0.2848 -0.5253 -0.5486
   39MOL0     H 5340   5.950   8.516   9.110  2.0689 -0.6776  1.3414
   39MOL0     H 5341   6.211   8.634   9.271 -0.5126  0.3301  1.2476
   39MOL0     H 5342   6.256   8.470   9.251 -0.0252 -0.5841 -1.6214
   39MOL0     H 5343   6.083   8.525   9.281  0.7981  1.5888  0.8470
   39MOL0     H 5344   6.634   8.456   9.162 -2.4093  0.5448 -1.2657
   39MOL0     H 5345   6.863   8.528   9.244  2.0057 -2.3877 -0.2084
   39MOL0     H 5346   6.957   8.685   9.351  1.7753 -2.1460  2.6557
   39MOL0     H 5347   7.086   8.601   9.263 -2.0360 -0.4338 -3.3084
   39MOL0     H 5348   7.121   8.893   9.341 -0.9090 -0.5424  1.0336
   39MOL0     H 5349   7.203   8.750   9.417 -3.6887 -1.8461  0.4331
   39MOL0     H 5350   7.233   8.854   9.125 -0.8632  3.2487  2.5667
   39MOL0     H 5351   7.318   8.705   9.187 -0.7877 -0.3890 -1.9096
   39MOL0     H 5352   7.408   8.834   9.361 -0.3480 -1.5487  0.5608
   39MOL0     H 5353   7.344   8.983   9.281  0.6963  0.6234  0.1307
   39MOL0     H 5354   7.537   8.793   9.146 -2.3141 -1.1239 -0.9825
   39MOL0     H 5355   7.471   8.939   9.073  3.1052 -1.2133 -2.4518
   39MOL0     H 5356   7.633   8.934   9.315  0.2899  0.3521 -1.2450
   39MOL0     H 5357   7.560   9.080   9.239  1.5984  1.5159  2.3410
   39MOL0     H 5358   7.703   8.987   9.027  0.2082 -0.2775  0.8263
   39MOL0     H 5359   7.808   8.922   9.149  2.2924  1.1298 -2.7747
   39MOL0     H 5360   7.717   9.197   9.090 -1.3077 -2.8807 -1.0094
   39MOL0     H 5361   7.876   9.142   9.048  1.3990  2.6692  0.6700
   39MOL0     H 5362   6.877   8.822   8.946 -2.7305 -1.1813 -3.7055
   39MOL0     H 5363   6.667   8.741   8.847 -2.9369 -0.9469  0.3243
   39MOL0     H 5364   6.304   8.538   8.770  0.7030  0.5003 -0.0989
   39MOL0     H 5365   6.066   8.520   8.700  1.9856  1.5575 -0.2422
   39MOL0     H 5366   5.558   9.482   9.802  0.1840 -1.4458 -0.6563
   39MOL0     H 5367   5.795   9.459   9.801  2.2906 -1.5955 -0.4316
   39MOL0     H 5368   6.156   9.173   9.724  0.3137 -1.7070  0.1672
   39MOL0     H 5369   6.397   9.130   9.710 -2.5258 -1.1109 -1.1322
   39MOL0     H 5370   6.615   9.018   9.880 -3.8196 -0.1519 -3.4075
   39MOL0     H 5371   6.631   9.118   9.740 -0.9690  3.1706  0.4974
   39MOL0     H 5372   6.832   9.027   9.830  1.1918 -0.1460 -2.3997
   39MOL0     H 5373   6.797   9.082   9.987 -2.7165  4.6551  0.7702
   39MOL0     H 5374   6.805   9.331   9.871 -1.0907 -0.4136 -0.5471
   39MOL0     H 5375   6.965   9.260   9.901 -1.2703 -0.7295  2.9435
   39MOL0     H 5376   6.927   9.345   9.662 -4.4841  2.2546  2.7040
   39MOL0     H 5377   6.802   9.238   9.636 -1.6802  1.5274  1.6358
   39MOL0     H 5378   7.185   9.034   9.603  0.2403  1.1571 -2.1960
   39MOL0     H 5379   6.450   9.314  10.087 -0.0886  4.0912 -1.3511
   39MOL0     H 5380   6.104   9.293  10.210  0.0012 -0.9157  2.0416
   39MOL0     H 5381   6.269   9.339  10.239 -2.4147  3.8025  3.0512
   39MOL0     H 5382   6.169   9.453  10.165 -1.4368 -0.7583 -0.8042
   40MOL0     O 5383   5.739   1.290   6.067  0.1759 -0.1952 -0.6868
   40MOL0     C 5384   5.628   1.254   6.009  0.0799  0.3108 -0.0714
   40MOL0     O 5385   5.592   1.123   5.966  0.4621  0.7006 -0.2573
   40MOL0     C 5386   5.636   1.016   6.044 -0.1122  0.1203 -0.2528
   40MOL0     C 5387   5.697   1.007   6.170  0.2122  0.8614  0.1924
   40MOL0     C 5388   5.735   0.888   6.231  0.8973 -0.3466  0.1298
   40MOL0     C 5389   5.692   0.770   6.161  0.0161 -0.3391 -0.8759
   40MOL0     O 5390   5.715   0.645   6.217  0.6158 -0.1365  0.4833
   40MOL0     C 5391   5.813   0.626   6.316  0.2925 -0.8473  0.2524
   40MOL0     C 5392   5.839   0.474   6.340 -0.1125 -0.2877 -0.1277
   40MOL0     C 5393   5.878   0.403   6.214 -0.3088  0.0979  0.3337
   40MOL0     C 5394   5.899   0.249   6.237  0.2999 -0.6232  0.3366
   40MOL0     C 5395   6.010   0.197   6.142 -0.6949  0.5615  0.5573
   40MOL0     C 5396   6.025   0.051   6.133  1.0955  0.0769 -0.1477
   40MOL0     C 5397   6.067  -0.013   6.266 -0.1222 -0.7656 -0.4011
   40MOL0     C 5398   6.113  -0.162   6.259  0.0736  0.9063  0.6179
   40MOL0     N 5399   6.025  -0.268   6.196 -0.5943 -0.5406 -0.0139
   40MOL0     C 5400   6.075  -0.368   6.114 -0.0656  0.2488  0.1998
   40MOL0     C 5401   6.009  -0.487   6.135 -0.7977 -0.0737  0.2274
   40MOL0     C 5402   6.026  -0.617   6.055  0.1599  1.0462 -0.4550
   40MOL0     C 5403   6.006  -0.590   5.901  0.5512 -0.5824  0.0277
   40MOL0     C 5404   6.055  -0.724   5.837  0.2182 -0.5069  0.0718
   40MOL0     C 5405   6.020  -0.726   5.688  0.6965  0.2261  0.6729
   40MOL0     O 5406   6.061  -0.597   5.626  0.7490 -0.3445 -0.3375
   40MOL0     C 5407   5.968  -0.545   5.536 -1.0961  0.5589 -0.5687
   40MOL0     C 5408   5.989  -0.560   5.402 -0.1686  0.3227 -0.3366
   40MOL0     C 5409   5.897  -0.515   5.314  0.4562 -0.3135  0.4829
   40MOL0     C 5410   5.918  -0.518   5.161 -0.2009  0.0412 -0.1235
   40MOL0     C 5411   5.782  -0.448   5.362 -0.0442  0.1953 -0.3736
   40MOL0     C 5412   5.667  -0.406   5.277 -0.0586 -1.0376  1.2275
   40MOL0     O 5413   5.566  -0.344   5.345 -0.7934 -0.4081 -0.8008
   40MOL0     C 5414   5.454  -0.314   5.264  0.3304  0.0949  0.7895
   40MOL0     C 5415   5.354  -0.408   5.245 -0.0639 -0.7808 -0.3358
   40MOL0     C 5416   5.247  -0.391   5.172  0.6156 -0.4047 -0.8224
   40MOL0     C 5417   5.229  -0.274   5.095 -0.3996 -0.2924  0.0587
   40MOL0     O 5418   5.123  -0.250   5.012 -0.3217  0.0889  0.6354
   40MOL0     C 5419   5.125  -0.308   4.883 -0.5877 -0.3909 -0.2400
   40MOL0     C 5420   5.046  -0.234   4.777 -1.3244  1.0578  0.2858
   40MOL0     C 5421   4.904  -0.218   4.823  0.5375 -1.3434  0.3399
   40MOL0     C 5422   4.819  -0.351   4.808  0.1821  1.0198  0.0850
   40MOL0     C 5423   4.671  -0.331   4.847 -0.3285 -0.2189 -0.9720
   40MOL0     C 5424   4.637  -0.339   4.990  0.0470 -0.9387  0.2974
   40MOL0     C 5425   4.490  -0.395   5.008  0.1632 -0.5997  0.1555
   40MOL0     C 5426   4.380  -0.311   4.953 -0.3130  0.7547  0.1677
   40MOL0    Cl 5427   4.247  -0.411   4.914  0.2904 -0.1752  0.2215
   40MOL0     C 5428   5.328  -0.173   5.106  0.8150 -0.2869  0.4273
   40MOL0     C 5429   5.430  -0.191   5.198 -0.1242 -0.1453  1.1093
   40MOL0     O 5430   5.666  -0.419   5.155  0.0218 -0.1175  0.3924
   40MOL0     C 5431   5.767  -0.419   5.503 -0.4562 -0.4847 -0.0467
   40MOL0     C 5432   5.863  -0.466   5.589 -0.1783  0.5976  0.0996
   40MOL0     N 5433   5.916  -0.450   6.231  0.7062 -0.2016 -0.0263
   40MOL0     N 5434   5.916  -0.318   6.254 -0.1141 -0.1066  0.4323
   40MOL0     C 5435   5.613   0.776   6.045  0.1631 -0.2447 -0.9653
   40MOL0     C 5436   5.589   0.897   5.987 -0.8851  0.2897  0.0713
   40MOL0     C 5437   5.526   1.356   5.962  0.1398  0.2114 -0.1466
   40MOL0     C 5438   5.564   1.455   5.867  0.3397  0.1865  0.7173
   40MOL0     C 5439   5.485   1.552   5.820 -0.0359 -0.6277 -0.0208
   40MOL0     C 5440   5.352   1.555   5.877 -0.1235 -0.0526  0.5909
   40MOL0     O 5441   5.258   1.653   5.845 -0.0487 -0.6000 -0.2536
   40MOL0     C 5442   5.288   1.752   5.738  0.3742  0.5355 -0.2362
   40MOL0     C 5443   5.200   1.871   5.747 -1.0388 -0.3756  0.2415
   40MOL0     C 5444   5.176   1.923   5.606  0.2415 -0.4924 -0.8112
   40MOL0     C 5445   5.092   1.836   5.520  0.0228 -0.3778 -0.3564
   40MOL0     C 5446   5.015   1.921   5.424  0.0788  1.0817 -0.2255
   40MOL0     C 5447   4.926   1.969   5.354 -0.9779 -0.2332 -0.0206
   40MOL0     C 5448   5.309   1.468   5.982 -0.1278 -0.0832  0.2383
   40MOL0     C 5449   5.399   1.368   6.024  0.0779 -0.1404 -0.7508
   40MOL0     C 5450   5.352   1.266   6.130 -0.0984  0.0720  0.2648
   40MOL0     H 5451   5.733   1.092   6.226 -0.3122 -0.2480  2.3055
   40MOL0     H 5452   5.775   0.878   6.332  1.6873 -3.6049 -0.3941
   40MOL0     H 5453   5.777   0.673   6.408 -1.4301 -1.0764 -0.2624
   40MOL0     H 5454   5.913   0.661   6.289 -0.4279 -0.0440 -1.4839
   40MOL0     H 5455   5.923   0.466   6.409  1.0440  1.9319 -1.1894
   40MOL0     H 5456   5.753   0.429   6.390 -1.3947  1.6374 -0.5048
   40MOL0     H 5457   5.807   0.429   6.135  0.3622  2.0517  0.3128
   40MOL0     H 5458   5.973   0.448   6.182  0.3448 -1.2561  0.3184
   40MOL0     H 5459   5.950   0.231   6.332  2.2750 -0.3608 -0.6248
   40MOL0     H 5460   5.806   0.191   6.228  0.3352 -1.1834  2.8060
   40MOL0     H 5461   6.102   0.256   6.146  1.1870 -2.1383 -0.1554
   40MOL0     H 5462   5.965   0.218   6.044  0.1667 -0.2491 -0.0309
   40MOL0     H 5463   5.933  -0.004   6.112 -0.5510  1.5137  2.6768
   40MOL0     H 5464   6.099   0.030   6.055  1.9259 -0.6026  0.7907
   40MOL0     H 5465   5.976  -0.023   6.325 -1.1317  0.1877 -1.7538
   40MOL0     H 5466   6.143   0.039   6.326 -2.1627 -1.8322  3.4280
   40MOL0     H 5467   6.206  -0.166   6.202 -1.6608  0.7424 -2.4253
   40MOL0     H 5468   6.133  -0.188   6.364  0.2679 -1.4437  0.0673
   40MOL0     H 5469   6.159  -0.352   6.046  1.8432 -0.5792  2.2381
   40MOL0     H 5470   5.949  -0.691   6.077  0.7325  0.1981 -1.2381
   40MOL0     H 5471   6.128  -0.645   6.084  0.1090  1.1928 -0.1264
   40MOL0     H 5472   5.897  -0.588   5.896  0.4186 -4.2834 -2.4204
   40MOL0     H 5473   6.049  -0.500   5.856 -3.8474  1.8186  0.0462
   40MOL0     H 5474   6.162  -0.748   5.838 -0.0910 -2.3929 -2.3146
   40MOL0     H 5475   6.006  -0.810   5.884  1.6702 -0.5943  1.5428
   40MOL0     H 5476   6.080  -0.797   5.630 -1.4277 -0.2317 -1.0984
   40MOL0     H 5477   5.916  -0.755   5.670  0.5468  0.1209  1.6656
   40MOL0     H 5478   6.064  -0.632   5.372 -0.4869  0.4056 -1.3622
   40MOL0     H 5479   6.016  -0.558   5.134  0.2555 -0.2127  1.7760
   40MOL0     H 5480   5.910  -0.416   5.121 -0.9820  0.2442  0.5229
   40MOL0     H 5481   5.848  -0.581   5.105  0.0487 -1.3380  1.0465
   40MOL0     H 5482   5.375  -0.504   5.291  0.3369 -0.1792  0.7954
   40MOL0     H 5483   5.167  -0.461   5.151 -0.8915  0.9291  0.2560
   40MOL0     H 5484   5.223  -0.309   4.835 -0.5034  2.5108 -0.2538
   40MOL0     H 5485   5.081  -0.408   4.897  0.6507 -0.9457 -0.1403
   40MOL0     H 5486   5.083  -0.133   4.757  1.2336 -0.4564 -3.6029
   40MOL0     H 5487   5.035  -0.282   4.680 -1.4105  1.9884 -0.1837
   40MOL0     H 5488   4.859  -0.151   4.749  0.2666 -1.2597  0.5786
   40MOL0     H 5489   4.888  -0.182   4.925 -4.5365 -4.4781  1.0351
   40MOL0     H 5490   4.872  -0.434   4.856  0.0797 -0.3056 -1.9839
   40MOL0     H 5491   4.817  -0.379   4.702 -0.6277 -0.4316  0.4408
   40MOL0     H 5492   4.625  -0.237   4.815 -0.8729 -0.1699 -0.0754
   40MOL0     H 5493   4.611  -0.397   4.784 -1.5424 -0.9743  0.9148
   40MOL0     H 5494   4.634  -0.238   5.031  0.6670 -0.4755 -0.7594
   40MOL0     H 5495   4.704  -0.396   5.055 -0.6232 -0.1815  1.6976
   40MOL0     H 5496   4.470  -0.395   5.116  3.0250  4.2227  0.9732
   40MOL0     H 5497   4.494  -0.496   4.965 -1.2282 -1.8318  2.6985
   40MOL0     H 5498   4.418  -0.275   4.857  0.0126  0.3280  0.1334
   40MOL0     H 5499   4.357  -0.218   5.006 -1.8351  0.3239  0.3198
   40MOL0     H 5500   5.326  -0.078   5.054  0.8729  0.8618  2.4146
   40MOL0     H 5501   5.493  -0.103   5.212 -0.7714  0.8684 -1.7039
   40MOL0     H 5502   5.694  -0.356   5.553  0.4351  0.0918  0.5601
   40MOL0     H 5503   5.844  -0.453   5.695 -4.1105  1.9492 -0.5864
   40MOL0     H 5504   5.571   0.691   5.992  3.0233 -1.1712 -1.9407
   40MOL0     H 5505   5.535   0.892   5.893 -0.4936 -1.8239 -0.1027
   40MOL0     H 5506   5.662   1.451   5.819 -0.2015  2.1404 -0.7184
   40MOL0     H 5507   5.519   1.627   5.750  1.1730 -1.1973 -0.0713
   40MOL0     H 5508   5.386   1.798   5.750 -0.7768  3.0694 -0.0020
   40MOL0     H 5509   5.291   1.703   5.641  0.0644 -2.6617  1.2349
   40MOL0     H 5510   5.254   1.948   5.804 -0.3754  0.6640 -1.6828
   40MOL0     H 5511   5.102   1.845   5.788  0.9211 -1.8078  4.6202
   40MOL0     H 5512   5.137   2.026   5.606 -0.2606 -0.6792 -1.1210
   40MOL0     H 5513   5.276   1.935   5.564  1.7171  3.8624  3.0181
   40MOL0     H 5514   5.022   1.770   5.573 -2.0371  0.5636 -1.7662
   40MOL0     H 5515   5.156   1.769   5.463 -0.0896  0.2285 -1.2133
   40MOL0     H 5516   4.855   2.001   5.281  0.1227  1.9532 -0.2076
   40MOL0     H 5517   5.203   1.459   6.006 -0.4650  0.4454 -1.0160
   40MOL0     H 5518   5.252   1.272   6.175 -0.5281  0.2691 -0.6976
   40MOL0     H 5519   5.358   1.171   6.076  0.9592  0.6915 -0.7381
   40MOL0     H 5520   5.428   1.264   6.209 -0.5685 -4.1611  0.8498
   41MOL0     O 5521   9.115   4.419  11.551  0.6412 -1.6495  0.4460
   41MOL0     C 5522   9.088   4.308  11.514 -0.1320 -0.2158  0.5655
   41MOL0     O 5523   9.155   4.240  11.415 -0.1334 -0.3758  0.1693
   41MOL0     C 5524   9.244   4.305  11.325  0.1320  0.0713  0.1898
   41MOL0     C 5525   9.343   4.218  11.264 -0.3534 -0.7485  0.5268
   41MOL0     C 5526   9.439   4.270  11.176  0.2752  0.1449 -0.3566
   41MOL0     C 5527   9.444   4.407  11.150 -0.3316 -0.5672 -1.0009
   41MOL0     O 5528   9.547   4.452  11.079 -0.0023 -0.4675 -0.2243
   41MOL0     C 5529   9.666   4.460  11.163 -0.8394 -0.4928 -1.3145
   41MOL0     C 5530   9.701   4.608  11.175  0.0949 -0.0458 -0.1431
   41MOL0     C 5531   9.799   4.648  11.284  1.7193  0.0203  0.1121
   41MOL0     C 5532   9.800   4.803  11.281  0.4039 -0.1140  0.6020
   41MOL0     C 5533   9.883   4.854  11.397 -0.2772  0.1887  0.5328
   41MOL0     C 5534  10.036   4.817  11.403  0.8705  0.3412 -0.1753
   41MOL0     C 5535  10.114   4.896  11.514  0.2961  0.0872  0.2536
   41MOL0     C 5536  10.083   4.852  11.662  0.1134 -0.9817  0.6336
   41MOL0     N 5537  10.178   4.932  11.749  0.4454  0.0889 -0.7832
   41MOL0     C 5538  10.161   5.065  11.803 -0.0323  0.4392 -1.1012
   41MOL0     C 5539  10.278   5.088  11.864 -0.6209  0.4902 -0.1947
   41MOL0     C 5540  10.310   5.225  11.912 -0.3390 -0.2041  0.3287
   41MOL0     C 5541  10.431   5.217  12.013 -0.1559  0.2054 -0.3077
   41MOL0     C 5542  10.363   5.145  12.140  0.1104 -0.5044  0.1226
   41MOL0     C 5543  10.432   5.191  12.271  0.1500 -0.1246 -0.7792
   41MOL0     O 5544  10.526   5.097  12.302 -0.6161  0.7036 -0.1515
   41MOL0     C 5545  10.597   5.101  12.420 -0.1285 -0.0610 -0.2859
   41MOL0     C 5546  10.705   5.023  12.432  0.0895  0.8368  0.2141
   41MOL0     C 5547  10.777   5.017  12.556 -0.2116  0.5486  0.3663
   41MOL0     C 5548  10.909   4.930  12.567  0.0719  0.8894 -0.2632
   41MOL0     C 5549  10.743   5.110  12.663 -0.9465  0.1827  0.0730
   41MOL0     C 5550  10.838   5.147  12.783  0.2064  0.3444  0.5294
   41MOL0     O 5551  10.783   5.210  12.894  0.2480  0.0584 -0.5921
   41MOL0     C 5552  10.852   5.227  13.011  0.2632  0.2478 -0.5378
   41MOL0     C 5553  10.954   5.146  13.054 -0.1946 -0.0584 -0.8696
   41MOL0     C 5554  11.024   5.172  13.169  0.0694 -0.1184  0.1253
   41MOL0     C 5555  10.996   5.286  13.251  0.8576 -0.4248 -0.6902
   41MOL0     O 5556  11.044   5.310  13.378 -0.4427  0.0650 -0.1956
   41MOL0     C 5557  11.165   5.239  13.412  0.6591 -0.0397  0.0689
   41MOL0     C 5558  11.240   5.295  13.528 -0.7259 -0.9678 -0.1609
   41MOL0     C 5559  11.355   5.402  13.509  0.4395  0.0349  0.4571
   41MOL0     C 5560  11.320   5.522  13.412 -0.4189  0.0676 -0.5099
   41MOL0     C 5561  11.211   5.618  13.473 -0.1827  1.1563 -0.6426
   41MOL0     C 5562  11.122   5.663  13.359  0.9529  0.6630 -0.4132
   41MOL0     C 5563  11.182   5.783  13.297 -0.3211 -0.2977  0.0899
   41MOL0     C 5564  11.102   5.807  13.173  0.6599 -0.0883 -0.2234
   41MOL0    Cl 5565  10.962   5.904  13.224  0.4107 -0.6809  0.2133
   41MOL0     C 5566  10.890   5.372  13.205  0.0311  0.7599  0.0417
   41MOL0     C 5567  10.817   5.341  13.097 -0.0584  0.3777 -0.0227
   41MOL0     O 5568  10.956   5.104  12.781  0.3088 -0.2730  0.6285
   41MOL0     C 5569  10.624   5.181  12.644 -0.1438 -0.5344  1.3479
   41MOL0     C 5570  10.549   5.169  12.533  0.3198  0.8720 -0.2108
   41MOL0     N 5571  10.360   4.970  11.854  0.4733 -0.1062 -0.5830
   41MOL0     N 5572  10.300   4.878  11.787  0.4246  0.5253  1.1234
   41MOL0     C 5573   9.344   4.486  11.205 -0.7643  1.0083 -0.1258
   41MOL0     C 5574   9.244   4.436  11.292  0.3530 -0.0401  0.5356
   41MOL0     C 5575   8.975   4.244  11.583  0.0350  0.1901 -0.0788
   41MOL0     C 5576   8.881   4.180  11.496  0.2582  0.6434 -0.4985
   41MOL0     C 5577   8.768   4.127  11.556  0.1027  0.5690 -1.0867
   41MOL0     C 5578   8.746   4.137  11.697 -0.3984 -0.2301 -0.5512
   41MOL0     O 5579   8.616   4.112  11.739 -0.6376 -0.2940  0.5242
   41MOL0     C 5580   8.575   4.099  11.873 -0.7552  0.1648 -0.3891
   41MOL0     C 5581   8.422   4.116  11.873 -0.3981 -0.3539 -0.1253
   41MOL0     C 5582   8.355   4.051  11.995  0.4989 -0.7572 -0.4999
   41MOL0     C 5583   8.200   4.060  12.008 -0.1481  0.1026  0.5212
   41MOL0     C 5584   8.124   3.985  11.904  0.9802 -0.0357  0.4948
   41MOL0     C 5585   8.068   3.905  11.826  0.2126 -0.3538  0.4070
   41MOL0     C 5586   8.852   4.175  11.779  0.2278 -1.1596  0.0168
   41MOL0     C 5587   8.969   4.238  11.722 -1.1022  0.5185 -0.2150
   41MOL0     C 5588   9.091   4.274  11.821  0.5593 -0.0276  0.1598
   41MOL0     H 5589   9.350   4.112  11.288 -0.9292 -0.9871 -0.3165
   41MOL0     H 5590   9.515   4.197  11.151  0.9049 -0.7209  3.4475
   41MOL0     H 5591   9.744   4.402  11.113 -0.5510 -1.2705 -0.0138
   41MOL0     H 5592   9.638   4.421  11.261 -1.0813 -0.3911 -1.3420
   41MOL0     H 5593   9.745   4.649  11.084  0.3652  2.3147  0.9636
   41MOL0     H 5594   9.606   4.660  11.194 -0.5575 -0.6473 -1.6191
   41MOL0     H 5595   9.768   4.624  11.386 -2.1663  1.5543 -0.5576
   41MOL0     H 5596   9.892   4.595  11.260  0.6641 -0.8178 -2.5004
   41MOL0     H 5597   9.849   4.843  11.192  2.6460  1.9913  2.6424
   41MOL0     H 5598   9.697   4.837  11.294  0.7339  0.8122  0.8610
   41MOL0     H 5599   9.848   4.818  11.494  2.5996 -2.6253  0.6733
   41MOL0     H 5600   9.870   4.962  11.379 -0.5109  0.4359  2.0326
   41MOL0     H 5601  10.046   4.709  11.420 -0.8283 -0.6648 -4.2673
   41MOL0     H 5602  10.077   4.832  11.302 -0.9637  2.3806 -0.6771
   41MOL0     H 5603  10.103   5.005  11.517 -3.7798 -0.1990  2.1274
   41MOL0     H 5604  10.216   4.871  11.484 -0.2510 -0.8671 -0.8947
   41MOL0     H 5605   9.979   4.875  11.683 -0.3117 -2.8824  0.8055
   41MOL0     H 5606  10.099   4.745  11.677  0.6154 -0.9315  0.4938
   41MOL0     H 5607  10.077   5.133  11.805 -0.2718  0.1570  0.7663
   41MOL0     H 5608  10.222   5.272  11.956 -0.2992  2.1267 -1.8134
   41MOL0     H 5609  10.335   5.293  11.829  0.8301 -1.0759 -0.0648
   41MOL0     H 5610  10.511   5.155  11.971  2.6728  1.4466  2.8035
   41MOL0     H 5611  10.463   5.316  12.047 -1.3687  0.8297 -0.9426
   41MOL0     H 5612  10.255   5.161  12.137  0.2931  0.8561  0.0052
   41MOL0     H 5613  10.365   5.036  12.143  0.8254 -0.4796  1.6254
   41MOL0     H 5614  10.470   5.293  12.264 -1.6848  0.5839 -0.9084
   41MOL0     H 5615  10.359   5.189  12.352  3.0939 -0.5650  2.0494
   41MOL0     H 5616  10.737   4.958  12.351 -0.8500  0.0805  0.4336
   41MOL0     H 5617  10.990   5.003  12.567  0.2503  0.6921  0.0446
   41MOL0     H 5618  10.929   4.847  12.499  1.1634 -0.2008  1.3104
   41MOL0     H 5619  10.907   4.897  12.672 -1.2967 -0.4785 -0.6719
   41MOL0     H 5620  10.979   5.055  13.000 -2.5410 -1.0611 -0.3938
   41MOL0     H 5621  11.104   5.103  13.193  1.5538  1.5914  0.3131
   41MOL0     H 5622  11.139   5.137  13.440  0.2612  0.8744  3.4938
   41MOL0     H 5623  11.228   5.233  13.323 -1.3172 -1.0425 -1.3446
   41MOL0     H 5624  11.174   5.327  13.609  0.2041  3.0761 -0.8183
   41MOL0     H 5625  11.301   5.213  13.567  1.3980 -0.4804 -2.2184
   41MOL0     H 5626  11.439   5.344  13.471 -1.3365 -2.1065 -0.3866
   41MOL0     H 5627  11.371   5.426  13.614  0.4953 -0.9711  0.6882
   41MOL0     H 5628  11.288   5.475  13.319  2.1007  0.2925 -1.5890
   41MOL0     H 5629  11.404   5.587  13.385 -2.2126  2.1063 -1.4729
   41MOL0     H 5630  11.156   5.556  13.545 -0.7116 -0.5378 -2.4212
   41MOL0     H 5631  11.266   5.697  13.525  1.2449 -0.6998  0.8670
   41MOL0     H 5632  11.027   5.698  13.400  1.6944  0.5676  1.4856
   41MOL0     H 5633  11.105   5.577  13.293 -2.4950  0.5376  0.4539
   41MOL0     H 5634  11.287   5.772  13.270 -0.0674 -0.1183  0.9705
   41MOL0     H 5635  11.167   5.869  13.362 -1.5686  0.5359 -1.2447
   41MOL0     H 5636  11.069   5.714  13.124 -1.3843 -0.9800  2.5557
   41MOL0     H 5637  11.155   5.869  13.101 -0.9356  2.0452  0.3284
   41MOL0     H 5638  10.855   5.459  13.260 -3.7843  0.0903 -1.0331
   41MOL0     H 5639  10.738   5.414  13.082  2.4261  3.3412  0.2162
   41MOL0     H 5640  10.581   5.255  12.711  5.4493  0.6171  4.2916
   41MOL0     H 5641  10.460   5.231  12.522 -0.7595 -0.3774  1.0389
   41MOL0     H 5642   9.352   4.594  11.191  0.9798  1.1033  1.2651
   41MOL0     H 5643   9.165   4.496  11.335 -0.3469  0.7204 -1.6578
   41MOL0     H 5644   8.886   4.191  11.388 -2.5023 -0.1862 -0.8000
   41MOL0     H 5645   8.689   4.097  11.487 -0.9227  4.0299 -1.6152
   41MOL0     H 5646   8.591   3.995  11.903 -1.1348  0.1072 -0.3804
   41MOL0     H 5647   8.621   4.166  11.946 -2.4467  1.1636 -0.1786
   41MOL0     H 5648   8.385   4.069  11.782 -0.1384  0.6783 -0.7799
   41MOL0     H 5649   8.392   4.221  11.869  0.3730  0.0468  2.4400
   41MOL0     H 5650   8.373   3.944  12.004 -0.0864 -0.7177  2.0632
   41MOL0     H 5651   8.382   4.095  12.092 -1.2922  2.4292 -1.2954
   41MOL0     H 5652   8.167   4.164  12.001  0.5077  0.4348  1.9569
   41MOL0     H 5653   8.160   4.021  12.102 -4.8405 -1.8569 -1.9440
   41MOL0     H 5654   8.013   3.837  11.765 -0.4219  2.0109 -1.8117
   41MOL0     H 5655   8.840   4.163  11.886  3.2021 -2.9432  0.2718
   41MOL0     H 5656   9.081   4.381  11.843 -0.3091 -0.0488 -0.1260
   41MOL0     H 5657   9.099   4.214  11.912  0.8106  1.6395  1.2887
   41MOL0     H 5658   9.188   4.258  11.772 -1.0742 -2.1385 -2.6426
   42MOL0     O 5659   5.960   9.022   4.829 -0.4174 -0.0603  0.1130
   42MOL0     C 5660   6.036   9.068   4.739 -0.1330 -0.7873  0.2401
   42MOL0     O 5661   6.171   9.038   4.724 -0.5844  0.1505  0.1077
   42MOL0     C 5662   6.220   8.985   4.832  0.4569  0.2066 -0.6998
   42MOL0     C 5663   6.243   8.846   4.840 -1.2851 -0.3664  1.1273
   42MOL0     C 5664   6.308   8.787   4.947 -0.2645  0.8657  0.2605
   42MOL0     C 5665   6.351   8.869   5.056 -0.2298 -0.2098  0.7163
   42MOL0     O 5666   6.421   8.818   5.165  0.2943  0.5953  0.3434
   42MOL0     C 5667   6.536   8.743   5.141  0.6205  0.1183  0.3026
   42MOL0     C 5668   6.606   8.785   5.279  1.1105  0.8168  0.3398
   42MOL0     C 5669   6.732   8.707   5.295  0.9695 -1.0551 -1.1897
   42MOL0     C 5670   6.821   8.760   5.417 -0.3683  0.2646  0.7908
   42MOL0     C 5671   6.901   8.645   5.481  0.3181  0.0998  0.5910
   42MOL0     C 5672   7.000   8.565   5.392  0.4864  0.0402 -0.1483
   42MOL0     C 5673   7.099   8.474   5.469 -0.4489  0.3415  0.4703
   42MOL0     C 5674   7.181   8.385   5.383 -0.7770 -0.7430 -0.2587
   42MOL0     N 5675   7.326   8.419   5.397 -0.3764 -0.0782  0.2874
   42MOL0     C 5676   7.390   8.527   5.345  0.0558  0.5610  0.1863
   42MOL0     C 5677   7.520   8.521   5.385 -0.3206  0.6933  0.2063
   42MOL0     C 5678   7.621   8.626   5.352 -0.5682  0.3001 -0.3307
   42MOL0     C 5679   7.748   8.617   5.434  1.0420 -0.4190  0.6168
   42MOL0     C 5680   7.719   8.623   5.590 -0.6800 -0.5350 -0.1821
   42MOL0     C 5681   7.859   8.591   5.659  0.6792 -0.3202  0.2457
   42MOL0     O 5682   7.840   8.607   5.800 -0.0342  0.3392  0.5248
   42MOL0     C 5683   7.959   8.593   5.873 -0.5843  0.5877  0.7316
   42MOL0     C 5684   8.083   8.548   5.833  0.1916  0.8122 -0.8603
   42MOL0     C 5685   8.193   8.555   5.910 -0.4335 -0.4998 -0.1549
   42MOL0     C 5686   8.326   8.533   5.857 -0.1546  0.3081 -0.7140
   42MOL0     C 5687   8.172   8.581   6.048 -0.2893  0.0289  0.1764
   42MOL0     C 5688   8.270   8.571   6.159 -1.2550  1.4933  0.8318
   42MOL0     O 5689   8.247   8.489   6.268 -0.2641  0.8075  0.5556
   42MOL0     C 5690   8.339   8.447   6.361  0.2165  1.2716  0.1096
   42MOL0     C 5691   8.363   8.303   6.384  0.0231  0.2708 -0.1481
   42MOL0     C 5692   8.447   8.269   6.492  0.0469 -0.6706  0.4965
   42MOL0     C 5693   8.508   8.359   6.581 -0.0223 -0.9367 -0.0647
   42MOL0     O 5694   8.597   8.337   6.688 -0.4597  0.2548 -0.0496
   42MOL0     C 5695   8.617   8.196   6.728 -0.0225  0.0434 -0.3946
   42MOL0     C 5696   8.689   8.105   6.628  1.0487 -0.8733 -0.6050
   42MOL0     C 5697   8.655   7.958   6.663 -0.4548  1.7532  0.0441
   42MOL0     C 5698   8.713   7.870   6.557 -0.1747  0.0984 -0.5117
   42MOL0     C 5699   8.670   7.717   6.582 -0.4721  0.2606  0.3144
   42MOL0     C 5700   8.631   7.635   6.457 -0.2011  0.5479 -0.3803
   42MOL0     C 5701   8.615   7.482   6.497 -1.3387 -0.4895  0.0789
   42MOL0     C 5702   8.515   7.400   6.410 -1.0750 -0.7996  0.5396
   42MOL0    Cl 5703   8.578   7.407   6.241  0.4179  0.3484 -0.0031
   42MOL0     C 5704   8.481   8.492   6.548 -0.3247  1.1559 -0.3676
   42MOL0     C 5705   8.399   8.536   6.442 -0.0383  0.2534  0.1292
   42MOL0     O 5706   8.378   8.628   6.142 -0.5354 -0.1990  0.0261
   42MOL0     C 5707   8.039   8.614   6.093 -0.1992  0.0242  0.6549
   42MOL0     C 5708   7.940   8.640   5.999 -1.0293 -0.0627 -0.5622
   42MOL0     N 5709   7.543   8.394   5.448  0.5092 -0.6254  0.9315
   42MOL0     N 5710   7.421   8.350   5.461  0.4393 -0.4266  0.4971
   42MOL0     C 5711   6.334   9.003   5.046  0.0848  0.7449 -0.3955
   42MOL0     C 5712   6.269   9.059   4.939 -0.7730  0.3642  0.0004
   42MOL0     C 5713   5.982   9.123   4.620  0.2855 -0.0260  0.0289
   42MOL0     C 5714   5.879   9.058   4.551 -0.8968 -0.0120  0.1195
   42MOL0     C 5715   5.825   9.104   4.431  0.5997  0.4621 -0.1579
   42MOL0     C 5716   5.887   9.221   4.372 -0.7827  0.6176  0.7407
   42MOL0     O 5717   5.843   9.275   4.248  0.3202 -0.0663 -0.5299
   42MOL0     C 5718   5.725   9.227   4.182  1.1478 -0.6760 -0.6994
   42MOL0     C 5719   5.762   9.133   4.067  0.1426 -0.1662  0.0201
   42MOL0     C 5720   5.633   9.085   4.004  0.7729  0.0486  0.3218
   42MOL0     C 5721   5.554   8.994   4.090  0.3539 -0.5065 -0.7046
   42MOL0     C 5722   5.618   8.857   4.111  0.2840 -1.0565 -0.0605
   42MOL0     C 5723   5.655   8.747   4.147 -0.6711 -0.0007 -0.0096
   42MOL0     C 5724   6.001   9.281   4.429  0.6123 -0.4298  0.1713
   42MOL0     C 5725   6.039   9.236   4.553  0.0295 -0.0585 -0.7836
   42MOL0     C 5726   6.162   9.308   4.609  0.1051  0.0734  0.1467
   42MOL0     H 5727   6.189   8.794   4.761 -0.6226 -3.8983  2.8015
   42MOL0     H 5728   6.333   8.681   4.949 -0.4129  0.8414  1.1347
   42MOL0     H 5729   6.597   8.776   5.056  5.7395 -1.5141  2.9245
   42MOL0     H 5730   6.517   8.635   5.135  2.8133 -0.2659 -0.6524
   42MOL0     H 5731   6.631   8.891   5.287 -0.2976  1.0682  2.1560
   42MOL0     H 5732   6.543   8.770   5.367  2.3291 -1.4982  0.9056
   42MOL0     H 5733   6.698   8.612   5.337  0.2770 -0.5511 -0.5805
   42MOL0     H 5734   6.795   8.699   5.206  1.0336  1.6956 -1.4850
   42MOL0     H 5735   6.890   8.836   5.380 -0.5183  0.5047  1.0040
   42MOL0     H 5736   6.755   8.802   5.492 -1.1399 -1.0139  0.8619
   42MOL0     H 5737   6.840   8.556   5.500 -1.0235 -0.6210 -5.2564
   42MOL0     H 5738   6.948   8.683   5.573  2.2938  0.7603 -0.6241
   42MOL0     H 5739   6.935   8.510   5.325 -0.1108 -0.4228  0.7879
   42MOL0     H 5740   7.052   8.631   5.321  0.9152 -0.7896 -0.6170
   42MOL0     H 5741   7.044   8.408   5.536 -1.8578  0.3025 -0.6723
   42MOL0     H 5742   7.170   8.533   5.528  1.0315 -1.7233  0.8309
   42MOL0     H 5743   7.158   8.285   5.421 -2.5414 -0.4020 -0.3273
   42MOL0     H 5744   7.162   8.384   5.275 -1.1351  1.6741 -0.2718
   42MOL0     H 5745   7.359   8.606   5.277  0.5152  0.2996 -0.3357
   42MOL0     H 5746   7.586   8.726   5.377 -0.3209  0.5029 -0.7969
   42MOL0     H 5747   7.648   8.617   5.247 -2.9481 -1.7753 -0.8586
   42MOL0     H 5748   7.801   8.525   5.408 -0.5880 -1.0916 -0.4937
   42MOL0     H 5749   7.808   8.701   5.397 -0.4682  0.3924 -0.0859
   42MOL0     H 5750   7.687   8.722   5.623 -2.3447 -1.2966  0.5578
   42MOL0     H 5751   7.654   8.543   5.626 -0.3705 -0.8961 -0.4039
   42MOL0     H 5752   7.901   8.498   5.619  3.0995  0.4874  0.7473
   42MOL0     H 5753   7.927   8.671   5.628  0.2593 -0.2376 -0.4798
   42MOL0     H 5754   8.094   8.509   5.733  2.8077  0.8534 -0.6389
   42MOL0     H 5755   8.368   8.633   5.854 -2.8037  1.7883  2.9728
   42MOL0     H 5756   8.332   8.502   5.752 -0.6228 -1.2490 -0.3189
   42MOL0     H 5757   8.391   8.471   5.919 -0.0552  1.2776  0.1697
   42MOL0     H 5758   8.336   8.220   6.320 -0.3683  0.2216  0.0796
   42MOL0     H 5759   8.461   8.163   6.507 -1.2726 -1.2809 -2.0520
   42MOL0     H 5760   8.683   8.196   6.815  1.4224  0.4395 -1.4567
   42MOL0     H 5761   8.520   8.165   6.768 -1.3287  1.5307 -2.2616
   42MOL0     H 5762   8.661   8.129   6.525 -0.7054  2.0100  0.4308
   42MOL0     H 5763   8.797   8.118   6.624  1.0155 -0.6089 -4.3352
   42MOL0     H 5764   8.548   7.936   6.660 -0.2529  0.3495  1.4691
   42MOL0     H 5765   8.679   7.933   6.767  0.7424 -0.0839 -0.6307
   42MOL0     H 5766   8.821   7.874   6.541 -0.4953  3.0641 -2.6967
   42MOL0     H 5767   8.674   7.915   6.465  2.6338  3.1642 -0.3872
   42MOL0     H 5768   8.759   7.666   6.620  1.2635 -0.1697 -3.8478
   42MOL0     H 5769   8.600   7.714   6.666 -0.3080 -0.4730  0.4327
   42MOL0     H 5770   8.716   7.640   6.387 -0.2057  0.9184 -0.3600
   42MOL0     H 5771   8.548   7.691   6.412 -0.7316  0.7011  0.7492
   42MOL0     H 5772   8.588   7.479   6.603  1.9875 -0.6933  1.0331
   42MOL0     H 5773   8.707   7.423   6.499 -2.0456 -1.6379  2.5561
   42MOL0     H 5774   8.409   7.425   6.425 -0.8527  1.9014 -1.5780
   42MOL0     H 5775   8.517   7.293   6.435 -1.5272 -1.1052 -0.6256
   42MOL0     H 5776   8.522   8.561   6.622  1.8653 -0.4464 -0.0074
   42MOL0     H 5777   8.382   8.641   6.421 -0.5227  0.6622  2.3047
   42MOL0     H 5778   8.015   8.628   6.198  2.9845  3.1958  1.1839
   42MOL0     H 5779   7.845   8.680   6.032  0.7004  3.0078  1.1789
   42MOL0     H 5780   6.380   9.059   5.126 -0.7932 -0.8521  1.2877
   42MOL0     H 5781   6.261   9.167   4.929  0.9031  0.6381  1.2255
   42MOL0     H 5782   5.821   8.970   4.577 -1.8332  0.2428 -0.9774
   42MOL0     H 5783   5.754   9.051   4.368 -3.8284  3.0672  2.1162
   42MOL0     H 5784   5.651   9.187   4.252  0.8378  1.0589  0.0015
   42MOL0     H 5785   5.677   9.314   4.137  3.2248  0.6273 -0.5206
   42MOL0     H 5786   5.829   9.054   4.101 -0.6163 -1.2693 -0.9796
   42MOL0     H 5787   5.804   9.190   3.984 -1.7190 -2.2606 -2.5328
   42MOL0     H 5788   5.558   9.161   3.979  2.2698  1.4985  0.0169
   42MOL0     H 5789   5.649   9.030   3.910 -4.4854  0.6523 -1.2488
   42MOL0     H 5790   5.456   8.989   4.042 -0.9279 -1.2524  1.8052
   42MOL0     H 5791   5.540   9.038   4.189 -0.0019 -1.4221 -0.3386
   42MOL0     H 5792   5.694   8.652   4.177 -1.2350  0.1631  1.3399
   42MOL0     H 5793   6.041   9.372   4.385 -1.9116  1.7294  2.0155
   42MOL0     H 5794   6.171   9.415   4.591 -5.8150  1.3921  2.7014
   42MOL0     H 5795   6.151   9.305   4.718  0.4079 -0.2057  0.1718
   42MOL0     H 5796   6.253   9.256   4.576  0.4180  0.5380  0.2620
   43MOL0     O 5797  11.405   0.720   7.382 -0.3451 -0.0025 -0.1440
   43MOL0     C 5798  11.371   0.754   7.493  0.4965  0.6181  0.5691
   43MOL0     O 5799  11.452   0.785   7.585  0.1125 -0.0425  0.6044
   43MOL0     C 5800  11.573   0.736   7.595 -0.3205 -0.0581  1.1149
   43MOL0     C 5801  11.656   0.814   7.667  0.5611 -0.6004 -0.0528
   43MOL0     C 5802  11.783   0.768   7.707  0.5523 -0.2959 -0.4404
   43MOL0     C 5803  11.831   0.639   7.673  0.4097 -0.6864 -1.0289
   43MOL0     O 5804  11.958   0.603   7.708 -0.0569  0.4077  1.3408
   43MOL0     C 5805  11.983   0.467   7.726 -0.0446  0.5803 -0.0214
   43MOL0     C 5806  12.110   0.440   7.800  0.5054 -0.4772  0.1058
   43MOL0     C 5807  12.107   0.479   7.951 -0.3531  0.3654  1.0212
   43MOL0     C 5808  12.246   0.468   8.016 -0.2973  0.1135 -0.8447
   43MOL0     C 5809  12.237   0.541   8.147  0.3290  0.8014  0.4816
   43MOL0     C 5810  12.373   0.598   8.176 -0.8438 -0.0403 -0.2726
   43MOL0     C 5811  12.379   0.658   8.316  0.0036 -0.3710  0.2283
   43MOL0     C 5812  12.522   0.653   8.381  0.6842 -0.4381  0.2064
   43MOL0     N 5813  12.619   0.723   8.299 -0.2489  1.6007 -0.4362
   43MOL0     C 5814  12.611   0.850   8.253 -0.6335  0.0112  0.3001
   43MOL0     C 5815  12.744   0.885   8.234 -0.1225 -0.8159  0.9564
   43MOL0     C 5816  12.782   1.011   8.155 -0.7057  0.6295  0.2418
   43MOL0     C 5817  12.803   1.127   8.248  0.1582  0.5692  0.4655
   43MOL0     C 5818  12.792   1.266   8.192 -0.3828  0.5349  0.4155
   43MOL0     C 5819  12.853   1.280   8.051  0.4541  0.0976  0.4073
   43MOL0     O 5820  12.992   1.247   8.058 -0.2984 -0.4985 -0.3359
   43MOL0     C 5821  13.061   1.282   7.941 -0.1168 -1.0549 -0.4994
   43MOL0     C 5822  13.194   1.227   7.942 -0.6342  0.4391 -0.5102
   43MOL0     C 5823  13.278   1.239   7.830  0.5433 -0.6125 -0.6253
   43MOL0     C 5824  13.418   1.177   7.851 -0.5645 -0.8008  0.0857
   43MOL0     C 5825  13.227   1.294   7.709 -0.3914 -0.0360  0.4260
   43MOL0     C 5826  13.309   1.297   7.585  0.3217 -0.1848 -0.5247
   43MOL0     O 5827  13.232   1.340   7.482  0.2243 -0.7681  0.5837
   43MOL0     C 5828  13.292   1.362   7.358 -0.0463  0.4564  0.0286
   43MOL0     C 5829  13.392   1.458   7.336 -0.0685  0.0589 -0.3101
   43MOL0     C 5830  13.443   1.491   7.211  0.9003 -0.0464  0.3851
   43MOL0     C 5831  13.401   1.405   7.096 -0.1484 -0.8019 -0.5085
   43MOL0     O 5832  13.449   1.421   6.974  0.0546 -0.3986  0.1838
   43MOL0     C 5833  13.448   1.559   6.914 -0.7071 -0.2169  0.4941
   43MOL0     C 5834  13.450   1.527   6.772  0.0222 -0.3493  0.4071
   43MOL0     C 5835  13.515   1.639   6.687  0.1253  0.4769 -0.6070
   43MOL0     C 5836  13.441   1.774   6.689  0.0007  0.3837 -1.2707
   43MOL0     C 5837  13.289   1.759   6.648  0.4472 -0.2851 -0.0100
   43MOL0     C 5838  13.249   1.892   6.589 -0.3635 -0.4363 -0.1206
   43MOL0     C 5839  13.267   2.022   6.664  0.3802 -0.3419 -0.0609
   43MOL0     C 5840  13.181   2.034   6.794 -0.3152  0.0539  0.5938
   43MOL0    Cl 5841  13.199   2.186   6.892  0.0021 -0.3135  0.7169
   43MOL0     C 5842  13.336   1.289   7.132 -0.1858  0.1782  1.3363
   43MOL0     C 5843  13.267   1.267   7.254 -0.4804  0.4265 -0.3573
   43MOL0     O 5844  13.434   1.271   7.586 -0.1606 -0.1042 -0.0171
   43MOL0     C 5845  13.093   1.341   7.712  0.2169 -0.5221  0.2549
   43MOL0     C 5846  13.013   1.335   7.825  0.9493 -0.1640 -0.0045
   43MOL0     N 5847  12.826   0.780   8.257 -0.0551  0.4708  0.7871
   43MOL0     N 5848  12.753   0.685   8.311 -1.0897  0.2073 -0.3659
   43MOL0     C 5849  11.748   0.559   7.592  0.0078  0.0827 -0.6563
   43MOL0     C 5850  11.617   0.606   7.560 -0.3338  0.8005  0.7319
   43MOL0     C 5851  11.223   0.772   7.526 -0.6666 -0.3554  1.0602
   43MOL0     C 5852  11.193   0.784   7.664 -1.1909 -0.0202  0.3077
   43MOL0     C 5853  11.062   0.791   7.703 -0.2560  0.6669 -0.4889
   43MOL0     C 5854  10.957   0.784   7.619  0.4288 -0.6217 -0.1579
   43MOL0     O 5855  10.831   0.772   7.680  0.1284  0.2789  0.2540
   43MOL0     C 5856  10.712   0.801   7.608 -0.2277  0.0479 -0.1721
   43MOL0     C 5857  10.712   0.945   7.572  0.0259 -1.1970 -0.4983
   43MOL0     C 5858  10.739   1.056   7.683 -0.0657  0.5236  0.7517
   43MOL0     C 5859  10.689   1.197   7.651  0.0472 -0.1578 -0.1774
   43MOL0     C 5860  10.673   1.269   7.774  0.7432  0.1596 -0.2055
   43MOL0     C 5861  10.653   1.312   7.883  0.2293  0.0843 -0.3474
   43MOL0     C 5862  10.985   0.771   7.483  1.0378  0.1438 -0.2567
   43MOL0     C 5863  11.117   0.761   7.434 -0.1779 -0.4828  0.4922
   43MOL0     C 5864  11.146   0.737   7.284  0.2283 -0.6874 -0.5641
   43MOL0     H 5865  11.614   0.913   7.687 -0.1154 -1.3477  2.6039
   43MOL0     H 5866  11.854   0.830   7.760  2.7711 -5.3242  3.3625
   43MOL0     H 5867  11.985   0.418   7.629  0.4081 -3.2645  1.7381
   43MOL0     H 5868  11.905   0.417   7.784  0.4276  1.0891  1.0830
   43MOL0     H 5869  12.146   0.338   7.788 -0.0180 -0.6474 -0.0389
   43MOL0     H 5870  12.187   0.505   7.757 -2.0224  3.4335  1.0029
   43MOL0     H 5871  12.065   0.579   7.962  0.0811  0.7245 -0.3070
   43MOL0     H 5872  12.042   0.403   7.994 -1.4728  0.7862  0.1268
   43MOL0     H 5873  12.273   0.363   8.031 -1.5470  0.0368  1.2932
   43MOL0     H 5874  12.322   0.515   7.953  0.3976  0.6621  0.3593
   43MOL0     H 5875  12.193   0.476   8.223 -2.3775  0.2975 -1.3947
   43MOL0     H 5876  12.168   0.625   8.152 -2.3413 -1.2406 -0.1131
   43MOL0     H 5877  12.452   0.526   8.153 -1.1274 -0.0838 -1.1395
   43MOL0     H 5878  12.393   0.686   8.113 -1.9998 -0.6264 -1.5187
   43MOL0     H 5879  12.315   0.605   8.387  0.3923 -1.8902 -0.5115
   43MOL0     H 5880  12.352   0.764   8.310 -1.3938 -0.7772 -3.0700
   43MOL0     H 5881  12.518   0.708   8.475  0.6731  3.1141 -1.7065
   43MOL0     H 5882  12.561   0.551   8.386 -0.8012 -1.0907 -0.8803
   43MOL0     H 5883  12.530   0.914   8.219 -0.8131  0.5941  1.7236
   43MOL0     H 5884  12.718   1.034   8.070  1.0823  0.2201 -1.2779
   43MOL0     H 5885  12.885   0.984   8.131  0.8900  1.2401  5.2246
   43MOL0     H 5886  12.726   1.122   8.325  2.0345 -0.7567  2.3633
   43MOL0     H 5887  12.898   1.112   8.301  0.1781  2.9615  1.2256
   43MOL0     H 5888  12.686   1.284   8.174 -0.6434  1.9635  2.9719
   43MOL0     H 5889  12.844   1.343   8.249  1.6595  0.6024 -1.4201
   43MOL0     H 5890  12.806   1.214   7.977  2.0187  1.1525 -1.6346
   43MOL0     H 5891  12.840   1.384   8.021 -0.6280  0.2752  1.4535
   43MOL0     H 5892  13.231   1.172   8.028 -1.0642 -1.3481 -1.4152
   43MOL0     H 5893  13.494   1.250   7.819 -1.8999 -0.0856 -1.6337
   43MOL0     H 5894  13.435   1.091   7.786  0.2496  0.4300 -1.4002
   43MOL0     H 5895  13.446   1.145   7.952  1.1442 -1.4620 -0.5619
   43MOL0     H 5896  13.426   1.527   7.412 -0.1961  0.5036 -0.6464
   43MOL0     H 5897  13.521   1.563   7.191  0.5360  0.8785  2.0484
   43MOL0     H 5898  13.353   1.606   6.942 -0.4668  2.3689 -2.4180
   43MOL0     H 5899  13.535   1.621   6.936  0.6479 -0.2855 -3.7301
   43MOL0     H 5900  13.525   1.449   6.766  0.4991  0.1514 -0.2674
   43MOL0     H 5901  13.351   1.502   6.731  1.9946 -3.4230 -3.0874
   43MOL0     H 5902  13.544   1.603   6.588  1.3091  0.0153 -0.1214
   43MOL0     H 5903  13.617   1.665   6.717  1.0105  1.1368 -3.8366
   43MOL0     H 5904  13.491   1.831   6.610  2.2858  1.2186  0.6369
   43MOL0     H 5905  13.444   1.825   6.786  0.9778  0.0041 -1.0887
   43MOL0     H 5906  13.266   1.688   6.567  0.8843 -0.1317 -0.2732
   43MOL0     H 5907  13.229   1.741   6.738  2.4340  0.0775  1.4503
   43MOL0     H 5908  13.142   1.897   6.564 -0.1857 -1.8810 -1.2625
   43MOL0     H 5909  13.300   1.918   6.496 -3.4941  5.5236 -0.6567
   43MOL0     H 5910  13.232   2.105   6.602  0.1381 -1.2947 -1.2464
   43MOL0     H 5911  13.373   2.042   6.685  0.4465  2.6656 -2.4734
   43MOL0     H 5912  13.204   1.954   6.865 -0.1260 -2.3741 -2.0301
   43MOL0     H 5913  13.075   2.020   6.770 -0.2985  1.3404 -0.3698
   43MOL0     H 5914  13.332   1.206   7.062  1.5295  0.2171  1.1576
   43MOL0     H 5915  13.207   1.177   7.269 -0.0640 -0.1964 -2.0914
   43MOL0     H 5916  13.047   1.392   7.629 -0.2259  0.4073  1.0581
   43MOL0     H 5917  12.906   1.352   7.818  1.1845  1.6578  0.3761
   43MOL0     H 5918  11.769   0.459   7.554 -0.6065 -1.2996  2.3120
   43MOL0     H 5919  11.549   0.548   7.498 -1.5182  1.3497  1.4641
   43MOL0     H 5920  11.278   0.795   7.731 -0.4514  0.4991 -0.6905
   43MOL0     H 5921  11.030   0.791   7.806 -1.6255 -0.9306 -0.8680
   43MOL0     H 5922  10.697   0.741   7.517 -1.1552 -2.7656  1.6982
   43MOL0     H 5923  10.614   0.782   7.652 -0.3352 -2.3508 -1.2834
   43MOL0     H 5924  10.610   0.974   7.545  0.3226 -0.1724 -0.5628
   43MOL0     H 5925  10.771   0.968   7.483  1.0035 -3.9512 -0.6468
   43MOL0     H 5926  10.690   1.013   7.771  1.0814 -2.7694 -0.0764
   43MOL0     H 5927  10.847   1.067   7.701 -0.5006  2.4013  2.6244
   43MOL0     H 5928  10.594   1.204   7.596  1.5594 -1.7991 -3.3034
   43MOL0     H 5929  10.770   1.237   7.589  1.6262 -0.8583  1.3345
   43MOL0     H 5930  10.632   1.348   7.981  0.9647  1.4196 -0.6527
   43MOL0     H 5931  10.890   0.767   7.431  0.1886  2.0795  1.0142
   43MOL0     H 5932  11.192   0.825   7.237 -0.9148 -0.2914 -0.9665
   43MOL0     H 5933  11.219   0.656   7.277 -1.1695 -2.0669  0.3793
   43MOL0     H 5934  11.054   0.714   7.231  0.5386 -0.9112 -1.0103
   44MOL0     O 5935   7.005   5.108   5.593 -0.6807 -0.5044 -0.4439
   44MOL0     C 5936   7.044   5.070   5.706  0.6739  0.7099 -0.4643
   44MOL0     O 5937   7.157   5.003   5.736 -0.0012  0.1583  0.0938
   44MOL0     C 5938   7.185   4.889   5.660 -0.8876  0.3141  0.1217
   44MOL0     C 5939   7.326   4.854   5.658  0.6574 -0.0476 -0.3788
   44MOL0     C 5940   7.380   4.755   5.571 -0.6816 -0.3710 -0.4303
   44MOL0     C 5941   7.295   4.673   5.501 -0.9645  0.2965 -0.1624
   44MOL0     O 5942   7.348   4.586   5.409 -0.1306  0.3941  0.2776
   44MOL0     C 5943   7.302   4.580   5.267  0.6336 -0.1412  0.2600
   44MOL0     C 5944   7.392   4.473   5.206  0.4790 -0.2889  0.6619
   44MOL0     C 5945   7.350   4.432   5.069  0.2686 -0.0736  0.1338
   44MOL0     C 5946   7.360   4.537   4.967  0.0205 -0.1300 -0.6010
   44MOL0     C 5947   7.338   4.480   4.822 -0.3084  0.1727  0.6235
   44MOL0     C 5948   7.311   4.576   4.711 -0.0899  0.2991  0.7764
   44MOL0     C 5949   7.334   4.508   4.566 -0.4665  0.2683  0.8832
   44MOL0     C 5950   7.216   4.411   4.537  0.0874  0.6108 -0.5703
   44MOL0     N 5951   7.239   4.344   4.409 -0.1534 -0.3858 -0.4405
   44MOL0     C 5952   7.215   4.400   4.285  0.3197  0.3529 -0.1490
   44MOL0     C 5953   7.279   4.316   4.209 -0.3668 -0.3515 -0.1631
   44MOL0     C 5954   7.293   4.341   4.067  0.4330  0.9468 -0.5404
   44MOL0     C 5955   7.409   4.442   4.041 -0.6454 -0.2714  0.6364
   44MOL0     C 5956   7.432   4.432   3.893  0.3745  0.0901  0.4604
   44MOL0     C 5957   7.557   4.523   3.864  0.8778 -0.1594  0.3641
   44MOL0     O 5958   7.568   4.528   3.716 -0.2193  0.0370 -0.8855
   44MOL0     C 5959   7.577   4.659   3.671  0.2153 -0.0728 -0.0832
   44MOL0     C 5960   7.455   4.730   3.646  0.6017  0.4728  0.1082
   44MOL0     C 5961   7.459   4.852   3.575 -0.2469  0.5276  0.1960
   44MOL0     C 5962   7.328   4.915   3.555 -0.2667 -0.0674 -0.2811
   44MOL0     C 5963   7.581   4.901   3.530 -0.7656 -1.1860  0.2804
   44MOL0     C 5964   7.595   5.032   3.465 -0.1048 -0.2448 -0.0406
   44MOL0     O 5965   7.491   5.127   3.467 -0.3462 -0.0841  0.3332
   44MOL0     C 5966   7.517   5.249   3.415 -0.9330 -0.5192  0.1948
   44MOL0     C 5967   7.595   5.350   3.478 -1.5335  0.6642 -0.0124
   44MOL0     C 5968   7.606   5.479   3.420  0.1149 -0.2048 -0.5507
   44MOL0     C 5969   7.546   5.517   3.311 -0.1499 -0.9954 -0.3051
   44MOL0     O 5970   7.574   5.637   3.248  0.2779  0.3720 -0.3589
   44MOL0     C 5971   7.619   5.626   3.112 -0.9034  0.4180 -0.3899
   44MOL0     C 5972   7.742   5.727   3.108 -0.1637 -1.0367  0.2049
   44MOL0     C 5973   7.832   5.723   3.232 -0.4039  0.2378  0.5802
   44MOL0     C 5974   7.940   5.831   3.227 -0.1201  0.7723  0.7044
   44MOL0     C 5975   8.025   5.829   3.352  0.4624 -0.8229 -0.0495
   44MOL0     C 5976   7.957   5.870   3.486 -0.3013 -0.0374  0.2611
   44MOL0     C 5977   7.893   6.009   3.475 -0.6902  0.1245 -0.3879
   44MOL0     C 5978   7.850   6.072   3.611 -0.0730  0.3943  0.6784
   44MOL0    Cl 5979   7.743   5.969   3.700 -0.0053  0.0563  0.3175
   44MOL0     C 5980   7.475   5.421   3.244 -0.4335 -0.1894  0.0337
   44MOL0     C 5981   7.453   5.288   3.288 -0.7855  0.3786  0.4828
   44MOL0     O 5982   7.702   5.046   3.404  0.1459 -0.2075 -0.4076
   44MOL0     C 5983   7.695   4.823   3.558 -0.1469  0.0258  0.3988
   44MOL0     C 5984   7.696   4.705   3.626 -0.0042 -0.3763  0.1370
   44MOL0     N 5985   7.345   4.215   4.278  0.6797 -0.7419 -0.7144
   44MOL0     N 5986   7.322   4.233   4.398 -0.5484  0.0417  0.1868
   44MOL0     C 5987   7.154   4.704   5.497  0.2592 -0.7309  0.2634
   44MOL0     C 5988   7.104   4.810   5.576 -0.2452 -0.5675 -0.2614
   44MOL0     C 5989   6.959   5.115   5.819  0.7086 -0.5539  0.2386
   44MOL0     C 5990   6.854   5.211   5.787 -0.6370 -0.1878 -0.0997
   44MOL0     C 5991   6.771   5.259   5.883  0.1531 -0.7826  1.3942
   44MOL0     C 5992   6.771   5.217   6.010 -0.5348  0.8652 -0.8058
   44MOL0     O 5993   6.685   5.269   6.106 -0.5778  0.3164 -0.0534
   44MOL0     C 5994   6.674   5.411   6.112  1.1831 -0.1636 -1.0054
   44MOL0     C 5995   6.673   5.455   6.262  0.0593 -0.1103  0.5736
   44MOL0     C 5996   6.776   5.383   6.361 -0.9606 -1.3649 -0.8962
   44MOL0     C 5997   6.930   5.402   6.331 -0.1745 -0.1017  0.3831
   44MOL0     C 5998   6.968   5.543   6.366 -0.1581  1.3715  0.8370
   44MOL0     C 5999   6.974   5.658   6.405 -0.1788 -0.0269  0.7338
   44MOL0     C 6000   6.876   5.127   6.053  0.5061 -0.2349  1.0631
   44MOL0     C 6001   6.972   5.078   5.955  0.3650  0.0241  1.4134
   44MOL0     C 6002   7.083   4.989   6.010 -0.7705  1.1068 -0.3570
   44MOL0     H 6003   7.389   4.905   5.729 -0.0939 -0.8057  0.8712
   44MOL0     H 6004   7.489   4.755   5.568 -0.3781  5.3112 -0.8267
   44MOL0     H 6005   7.326   4.674   5.216 -1.1450 -0.6670 -1.6654
   44MOL0     H 6006   7.195   4.562   5.262  0.4961 -0.0720  2.1614
   44MOL0     H 6007   7.496   4.505   5.202  0.7043 -1.1178 -1.0149
   44MOL0     H 6008   7.383   4.388   5.274  2.4827 -0.3835  0.8505
   44MOL0     H 6009   7.425   4.361   5.030 -1.2482 -2.0159  0.6021
   44MOL0     H 6010   7.255   4.379   5.077  2.1242 -3.4352  2.5661
   44MOL0     H 6011   7.285   4.614   4.984 -0.9801 -1.0875 -0.5854
   44MOL0     H 6012   7.460   4.581   4.974 -0.8472  1.8816  0.0185
   44MOL0     H 6013   7.257   4.407   4.808  0.7708 -0.8942 -0.2866
   44MOL0     H 6014   7.429   4.423   4.801 -0.4359  0.6672 -1.6135
   44MOL0     H 6015   7.208   4.610   4.716 -0.1675  0.1554  0.2075
   44MOL0     H 6016   7.378   4.661   4.726 -0.2775  0.5645  0.1546
   44MOL0     H 6017   7.423   4.444   4.560 -2.6233 -2.8992 -4.6103
   44MOL0     H 6018   7.341   4.585   4.490  2.5682 -0.0690  0.7001
   44MOL0     H 6019   7.199   4.335   4.615 -3.4502  2.4566  0.6938
   44MOL0     H 6020   7.119   4.462   4.528  1.1112  2.5231 -1.2069
   44MOL0     H 6021   7.152   4.486   4.264  2.8080  2.8417  1.7687
   44MOL0     H 6022   7.200   4.387   4.034 -3.2089 -3.1536  2.8864
   44MOL0     H 6023   7.305   4.244   4.018 -0.6892 -0.4320  1.7270
   44MOL0     H 6024   7.386   4.545   4.071 -1.3487 -0.7135  1.6513
   44MOL0     H 6025   7.501   4.409   4.090 -0.7002 -0.3652  0.6760
   44MOL0     H 6026   7.445   4.328   3.864 -0.3196  0.3155 -0.7455
   44MOL0     H 6027   7.343   4.465   3.839  0.6653  0.3234  0.1222
   44MOL0     H 6028   7.539   4.622   3.906  0.7823  0.2090 -0.5309
   44MOL0     H 6029   7.655   4.493   3.902  0.6313 -2.5482 -0.7176
   44MOL0     H 6030   7.367   4.685   3.689  1.5571  1.5401  3.4630
   44MOL0     H 6031   7.313   4.956   3.455  0.0916  1.0671  0.1143
   44MOL0     H 6032   7.320   4.984   3.640  0.4754  0.0675 -0.3197
   44MOL0     H 6033   7.247   4.842   3.566  0.1603 -0.6367 -0.8531
   44MOL0     H 6034   7.642   5.318   3.571  0.8972 -0.3897 -1.5182
   44MOL0     H 6035   7.672   5.533   3.487 -0.5745  2.0468 -1.5753
   44MOL0     H 6036   7.659   5.527   3.087  0.9195  0.6188  1.4806
   44MOL0     H 6037   7.545   5.660   3.038  0.5369  3.2300 -0.6923
   44MOL0     H 6038   7.805   5.727   3.018  0.0995  3.2290  0.1850
   44MOL0     H 6039   7.703   5.829   3.117  0.6837 -0.8338  2.2062
   44MOL0     H 6040   7.864   5.618   3.229 -2.8753 -0.5499 -0.6948
   44MOL0     H 6041   7.776   5.743   3.324 -1.1415  0.3966  0.1028
   44MOL0     H 6042   7.887   5.927   3.221 -2.9109 -0.6050  1.3139
   44MOL0     H 6043   7.998   5.822   3.135 -4.0641 -1.1438 -1.9298
   44MOL0     H 6044   8.071   5.733   3.378 -0.5852 -1.1039  0.8548
   44MOL0     H 6045   8.095   5.910   3.330  0.0894  0.1604  2.1239
   44MOL0     H 6046   8.034   5.870   3.564 -0.8386 -1.6586  0.8474
   44MOL0     H 6047   7.893   5.785   3.511 -0.3873 -0.2374 -0.6160
   44MOL0     H 6048   7.810   6.007   3.404  1.0018  0.1003 -2.4829
   44MOL0     H 6049   7.964   6.076   3.425  1.0758  0.1190  1.9157
   44MOL0     H 6050   7.813   6.175   3.600 -2.6401 -0.5874 -0.7934
   44MOL0     H 6051   7.944   6.081   3.666  1.1067  0.0390 -1.2044
   44MOL0     H 6052   7.445   5.442   3.142  1.1438  0.5707 -0.3141
   44MOL0     H 6053   7.405   5.208   3.232 -0.3930  0.5474 -0.0952
   44MOL0     H 6054   7.793   4.855   3.522 -0.3146  3.1891  2.3408
   44MOL0     H 6055   7.782   4.639   3.625 -0.7873 -1.4495  1.2536
   44MOL0     H 6056   7.075   4.651   5.445 -1.0895 -3.7629  4.8113
   44MOL0     H 6057   6.996   4.822   5.585  0.0240  0.0747  3.7776
   44MOL0     H 6058   6.849   5.269   5.696 -0.3368  1.3875  0.8489
   44MOL0     H 6059   6.701   5.333   5.845  3.1495  0.5773 -1.9739
   44MOL0     H 6060   6.762   5.459   6.067  2.1188 -0.4148  0.4628
   44MOL0     H 6061   6.586   5.445   6.058  0.7604 -0.4972 -0.5354
   44MOL0     H 6062   6.570   5.440   6.295  1.0553 -3.1218  2.7872
   44MOL0     H 6063   6.702   5.559   6.281 -1.9453  0.1424  2.6718
   44MOL0     H 6064   6.751   5.411   6.463 -0.5211 -5.4156  0.4844
   44MOL0     H 6065   6.753   5.277   6.363  1.4124 -1.9264  1.0802
   44MOL0     H 6066   6.957   5.370   6.230  1.0992 -0.5274  0.8387
   44MOL0     H 6067   6.974   5.331   6.402 -0.4891  0.9177  1.6363
   44MOL0     H 6068   6.974   5.761   6.433  1.6552  1.2545 -3.2643
   44MOL0     H 6069   6.876   5.088   6.154 -2.4505  1.8483  1.9983
   44MOL0     H 6070   7.085   4.895   5.954 -0.8569 -1.1343  3.0860
   44MOL0     H 6071   7.185   5.030   6.017  0.1023 -0.5748 -2.1179
   44MOL0     H 6072   7.059   4.961   6.113 -1.4944 -0.4481 -0.9147
   45MOL0     O 6073   2.409   9.045   5.369  0.7953  0.3860  0.8695
   45MOL0     C 6074   2.437   8.999   5.256 -0.0207 -0.2887  0.1449
   45MOL0     O 6075   2.541   8.906   5.242  0.0126  0.5001  0.7012
   45MOL0     C 6076   2.621   8.862   5.353  0.5236  0.1252  0.8880
   45MOL0     C 6077   2.584   8.750   5.416 -0.2493  0.6792 -0.0647
   45MOL0     C 6078   2.676   8.687   5.511 -0.2601 -0.3323  0.5300
   45MOL0     C 6079   2.798   8.742   5.544 -0.6809 -0.8916 -0.2973
   45MOL0     O 6080   2.876   8.671   5.635  1.0260 -0.2206 -0.0884
   45MOL0     C 6081   3.008   8.634   5.583  0.9921 -0.6197  0.6458
   45MOL0     C 6082   3.093   8.575   5.690  1.0514  0.1102  0.6192
   45MOL0     C 6083   3.063   8.650   5.822  0.4293 -0.3680  0.6218
   45MOL0     C 6084   3.162   8.615   5.935 -0.6222 -0.1706 -0.9188
   45MOL0     C 6085   3.172   8.465   5.958  0.1163  0.2852 -0.1817
   45MOL0     C 6086   3.260   8.432   6.071  0.3439  0.8068 -1.2843
   45MOL0     C 6087   3.232   8.288   6.120  0.4000  0.1383  0.5173
   45MOL0     C 6088   3.354   8.232   6.193 -0.6014  1.4508 -0.0880
   45MOL0     N 6089   3.304   8.101   6.252 -0.1978  0.7672 -0.6242
   45MOL0     C 6090   3.394   8.008   6.301  0.0557  0.5405 -0.6877
   45MOL0     C 6091   3.316   7.915   6.363  0.5544 -0.2137  0.7023
   45MOL0     C 6092   3.368   7.789   6.411 -0.3700 -0.4924 -0.3657
   45MOL0     C 6093   3.350   7.672   6.327 -0.0958  0.0558 -0.2389
   45MOL0     C 6094   3.433   7.680   6.202 -0.0906 -0.2109  0.2062
   45MOL0     C 6095   3.360   7.663   6.066 -0.0556 -0.6750 -0.5266
   45MOL0     O 6096   3.431   7.675   5.944  0.4517  0.0188  0.2516
   45MOL0     C 6097   3.453   7.806   5.898 -0.6153 -0.3913 -0.8284
   45MOL0     C 6098   3.588   7.849   5.899  0.2390 -0.5189  0.5318
   45MOL0     C 6099   3.618   7.976   5.859 -0.5022 -0.2691  0.5337
   45MOL0     C 6100   3.768   7.997   5.879  0.9814 -0.5555 -0.6939
   45MOL0     C 6101   3.519   8.064   5.823  0.1129  0.4057  0.8633
   45MOL0     C 6102   3.554   8.195   5.768  0.6066  0.5002 -0.1414
   45MOL0     O 6103   3.450   8.283   5.768  0.4398  0.1744  0.0396
   45MOL0     C 6104   3.479   8.401   5.703  0.7645 -0.8652  0.1027
   45MOL0     C 6105   3.541   8.504   5.780  0.4371 -0.2405 -0.1399
   45MOL0     C 6106   3.571   8.629   5.718 -0.0804 -0.2042  0.0625
   45MOL0     C 6107   3.527   8.645   5.582 -0.5830 -0.8158  0.5410
   45MOL0     O 6108   3.535   8.754   5.498 -0.2193 -0.7435  0.8072
   45MOL0     C 6109   3.541   8.879   5.554 -1.1850 -0.5067  0.0337
   45MOL0     C 6110   3.406   8.924   5.600  0.2053  0.6822  0.0125
   45MOL0     C 6111   3.416   8.977   5.747  0.3654 -0.2756 -0.3383
   45MOL0     C 6112   3.291   9.070   5.793 -0.0024 -0.0778 -0.4113
   45MOL0     C 6113   3.317   9.228   5.773  0.3325  0.1141 -0.4781
   45MOL0     C 6114   3.335   9.261   5.623  0.0680  0.3844  0.7134
   45MOL0     C 6115   3.313   9.402   5.586 -0.1442 -1.1490  0.6016
   45MOL0     C 6116   3.200   9.438   5.490 -0.9417 -1.0631 -0.1149
   45MOL0    Cl 6117   3.046   9.346   5.518 -0.1632  0.6317 -0.2767
   45MOL0     C 6118   3.465   8.538   5.516  0.5082  0.7380 -0.6351
   45MOL0     C 6119   3.450   8.416   5.569 -0.3499 -0.0676 -1.0535
   45MOL0     O 6120   3.670   8.222   5.721  1.1381 -0.0163 -0.3817
   45MOL0     C 6121   3.385   8.019   5.816  0.6914  0.2583 -0.4281
   45MOL0     C 6122   3.353   7.888   5.853 -0.3732 -0.0086 -0.3423
   45MOL0     N 6123   3.184   7.954   6.346 -0.2414  0.8401  0.3294
   45MOL0     N 6124   3.176   8.064   6.273  0.8479 -0.2470  0.5308
   45MOL0     C 6125   2.834   8.861   5.468  0.2792 -0.0350  0.5737
   45MOL0     C 6126   2.741   8.924   5.380  0.1172 -0.6987 -0.2467
   45MOL0     C 6127   2.376   9.063   5.134 -0.1463 -0.3839  0.3128
   45MOL0     C 6128   2.460   9.059   5.016  0.0669  0.0107  0.1267
   45MOL0     C 6129   2.410   9.092   4.892 -0.2336 -0.3593  0.0534
   45MOL0     C 6130   2.280   9.139   4.880  0.3386  0.6083  0.2142
   45MOL0     O 6131   2.235   9.166   4.756 -0.2147 -0.5541  0.2115
   45MOL0     C 6132   2.111   9.215   4.728 -0.3691  0.8831 -0.4867
   45MOL0     C 6133   2.102   9.229   4.577 -0.3478 -1.0275  0.3291
   45MOL0     C 6134   2.120   9.095   4.521 -0.4341  0.7049 -0.3647
   45MOL0     C 6135   2.062   9.091   4.377  0.3419  0.2505  0.4924
   45MOL0     C 6136   1.944   9.005   4.373  0.5858 -0.6365 -0.4141
   45MOL0     C 6137   1.846   8.935   4.364 -0.8412 -0.8143 -0.1870
   45MOL0     C 6138   2.193   9.139   4.988 -0.8352 -1.6744 -0.3984
   45MOL0     C 6139   2.236   9.099   5.114 -0.2577 -0.6396 -0.3649
   45MOL0     C 6140   2.134   9.093   5.225 -0.7288  0.4201  0.5737
   45MOL0     H 6141   2.496   8.692   5.389  0.0967 -0.8399  1.8931
   45MOL0     H 6142   2.655   8.585   5.540 -1.1882 -0.8759 -1.7651
   45MOL0     H 6143   3.060   8.727   5.555  0.9067 -1.3042 -2.0322
   45MOL0     H 6144   3.000   8.565   5.499 -3.2694 -2.2732  2.1399
   45MOL0     H 6145   3.064   8.469   5.695  0.5771  0.1317 -1.0408
   45MOL0     H 6146   3.200   8.578   5.668  0.4589  2.5294 -2.6534
   45MOL0     H 6147   3.059   8.757   5.802 -1.0800 -1.0598 -4.0766
   45MOL0     H 6148   2.966   8.614   5.860 -0.0657 -1.7993 -1.8115
   45MOL0     H 6149   3.263   8.646   5.907 -0.6344  0.4421 -0.3173
   45MOL0     H 6150   3.127   8.662   6.027  1.1000  1.6823 -1.1185
   45MOL0     H 6151   3.209   8.400   5.878  1.3249 -0.7992  1.1967
   45MOL0     H 6152   3.069   8.431   5.973  0.6525 -2.6878 -2.3620
   45MOL0     H 6153   3.368   8.435   6.050  0.6515 -0.9984 -0.2133
   45MOL0     H 6154   3.237   8.497   6.156  2.1486 -0.0597 -0.0690
   45MOL0     H 6155   3.206   8.219   6.040 -0.2817 -0.7657  1.5047
   45MOL0     H 6156   3.147   8.302   6.187  0.5914 -0.7200  0.9419
   45MOL0     H 6157   3.428   8.218   6.114  1.1126 -2.3494  1.9406
   45MOL0     H 6158   3.388   8.290   6.279  0.2416  1.1831 -0.2273
   45MOL0     H 6159   3.502   8.010   6.288  0.1120  1.2565 -0.1445
   45MOL0     H 6160   3.317   7.782   6.508 -0.9765  1.9322 -0.4349
   45MOL0     H 6161   3.474   7.802   6.435 -0.6770  1.2595  0.2127
   45MOL0     H 6162   3.382   7.581   6.379  2.6069  0.6443 -0.7008
   45MOL0     H 6163   3.248   7.656   6.291 -1.0151 -0.3599  2.3545
   45MOL0     H 6164   3.480   7.778   6.194 -1.0085  0.2078 -0.1091
   45MOL0     H 6165   3.512   7.604   6.199 -2.0711 -2.4281 -4.0359
   45MOL0     H 6166   3.312   7.565   6.074 -0.5923 -0.3915 -0.2103
   45MOL0     H 6167   3.275   7.732   6.066  1.4230  1.2633  1.0478
   45MOL0     H 6168   3.664   7.789   5.948  0.3893 -0.3003  0.5654
   45MOL0     H 6169   3.798   7.973   5.982  2.7326  0.7659 -0.8362
   45MOL0     H 6170   3.804   8.099   5.863  2.6123 -0.0173  4.5579
   45MOL0     H 6171   3.824   7.942   5.803  0.4143  0.5301 -1.9483
   45MOL0     H 6172   3.568   8.466   5.878  1.7949  3.1028  0.9313
   45MOL0     H 6173   3.626   8.707   5.769  0.3413 -1.9852  2.5430
   45MOL0     H 6174   3.607   8.887   5.641 -3.1229  1.8580  1.4310
   45MOL0     H 6175   3.579   8.940   5.472 -0.6930 -2.9421 -1.6413
   45MOL0     H 6176   3.376   8.996   5.524  0.9002 -0.0430 -0.9787
   45MOL0     H 6177   3.329   8.846   5.611  0.6120  0.3000  0.2043
   45MOL0     H 6178   3.508   9.032   5.768 -0.2907  0.4010  0.8778
   45MOL0     H 6179   3.413   8.883   5.803  1.2046 -0.2815 -0.2935
   45MOL0     H 6180   3.260   9.054   5.896  1.0247 -3.9729 -0.5673
   45MOL0     H 6181   3.203   9.053   5.731  0.5799  0.9309 -1.5806
   45MOL0     H 6182   3.242   9.292   5.821  2.1285  0.3335  2.2886
   45MOL0     H 6183   3.409   9.253   5.827  0.5190 -0.7144 -0.4017
   45MOL0     H 6184   3.262   9.197   5.574 -1.2652 -0.0379  3.1034
   45MOL0     H 6185   3.432   9.224   5.589  0.0726 -0.7783  1.8770
   45MOL0     H 6186   3.408   9.446   5.554 -1.5702 -0.0169 -2.4850
   45MOL0     H 6187   3.291   9.466   5.672  1.5012  0.6575 -0.2343
   45MOL0     H 6188   3.241   9.406   5.393  1.7615  0.3079  0.4923
   45MOL0     H 6189   3.178   9.545   5.500 -2.1705 -1.4077  1.0896
   45MOL0     H 6190   3.417   8.545   5.418  0.2140 -0.1648 -0.5645
   45MOL0     H 6191   3.401   8.338   5.512  0.9280 -0.2611 -1.9286
   45MOL0     H 6192   3.308   8.074   5.763  2.7571 -0.2388 -4.3757
   45MOL0     H 6193   3.252   7.849   5.845  0.7059 -3.1815 -0.1760
   45MOL0     H 6194   2.932   8.902   5.487  0.5631 -0.1647 -0.5301
   45MOL0     H 6195   2.750   9.017   5.325 -0.2069 -0.6583 -0.2378
   45MOL0     H 6196   2.564   9.031   5.021  0.6038  1.9176  4.2280
   45MOL0     H 6197   2.481   9.092   4.810 -1.0363 -0.6497 -0.6590
   45MOL0     H 6198   2.031   9.151   4.768 -0.4221  0.2388 -1.5714
   45MOL0     H 6199   2.095   9.316   4.765 -0.7598  0.3830  0.7900
   45MOL0     H 6200   2.186   9.290   4.543  1.2798 -3.3264 -0.0229
   45MOL0     H 6201   2.009   9.277   4.546 -0.0832 -1.3459 -1.0089
   45MOL0     H 6202   2.228   9.083   4.510 -0.5826  0.2099 -1.3777
   45MOL0     H 6203   2.073   9.012   4.575 -3.1062  0.6957 -2.5116
   45MOL0     H 6204   2.137   9.048   4.309 -0.2966 -0.7073  0.3653
   45MOL0     H 6205   2.037   9.191   4.341 -2.6387  0.2886  2.4052
   45MOL0     H 6206   1.762   8.872   4.343  0.0209 -2.9137  2.1175
   45MOL0     H 6207   2.096   9.184   4.969 -2.0463 -3.8226  0.3403
   45MOL0     H 6208   2.117   9.193   5.264 -2.1809 -0.4846  2.4718
   45MOL0     H 6209   2.045   9.050   5.178  0.0047  0.8836 -1.3280
   45MOL0     H 6210   2.164   9.036   5.314  2.1155  1.9012  0.6649
   46MOL0     O 6211   2.650  10.470   8.502 -0.9131 -0.2183 -0.4633
   46MOL0     C 6212   2.540  10.507   8.458 -0.5360 -0.1678  0.0946
   46MOL0     O 6213   2.511  10.493   8.321  0.3142  1.1548 -0.6206
   46MOL0     C 6214   2.587  10.410   8.239 -0.7912  0.4612 -0.0664
   46MOL0     C 6215   2.577  10.273   8.255  0.0268  0.0615  0.5518
   46MOL0     C 6216   2.653  10.182   8.167 -0.2992 -0.0713 -0.5007
   46MOL0     C 6217   2.741  10.232   8.069 -0.6710  0.3771  1.1863
   46MOL0     O 6218   2.805  10.143   7.983 -0.0294 -0.1380 -0.3880
   46MOL0     C 6219   2.937  10.180   7.935 -0.0881 -0.1495  0.0418
   46MOL0     C 6220   3.042  10.166   8.052  0.1857 -0.1266 -1.0157
   46MOL0     C 6221   3.012  10.056   8.164 -0.1337 -0.0154 -0.4027
   46MOL0     C 6222   3.135  10.064   8.257  0.8826  0.1499  0.0144
   46MOL0     C 6223   3.120   9.950   8.363  0.9718 -1.8993 -0.2303
   46MOL0     C 6224   3.227   9.965   8.483  0.3605  0.4831 -0.2751
   46MOL0     C 6225   3.359   9.903   8.463  0.7574 -0.4488  0.6427
   46MOL0     C 6226   3.437   9.974   8.353  0.4762  0.0069  0.5450
   46MOL0     N 6227   3.579   9.978   8.388 -0.4081  0.4956  0.2485
   46MOL0     C 6228   3.646   9.883   8.456 -0.6288  0.0290  0.7468
   46MOL0     C 6229   3.770   9.929   8.466  0.0218  0.3152  0.0186
   46MOL0     C 6230   3.881   9.842   8.517 -0.7527 -0.2560 -0.3125
   46MOL0     C 6231   3.912   9.718   8.430 -0.3263 -0.1974 -0.4626
   46MOL0     C 6232   4.011   9.745   8.313 -0.2094 -0.6848  1.2309
   46MOL0     C 6233   4.066   9.619   8.246  0.6015  0.2937  0.1360
   46MOL0     O 6234   4.124   9.633   8.118 -0.4077 -0.4407  1.0272
   46MOL0     C 6235   4.044   9.665   8.010 -0.1560 -0.1564 -0.3306
   46MOL0     C 6236   3.907   9.669   8.016  0.4954  0.3805 -0.3700
   46MOL0     C 6237   3.837   9.715   7.905 -0.0870 -0.6188  0.2224
   46MOL0     C 6238   3.696   9.685   7.904 -0.2581 -0.2260 -0.8584
   46MOL0     C 6239   3.899   9.784   7.789 -0.2481  0.5819  0.4882
   46MOL0     C 6240   3.811   9.863   7.689  0.0438  0.6275 -0.0854
   46MOL0     O 6241   3.873   9.906   7.579 -0.6109  0.3778 -0.4999
   46MOL0     C 6242   3.791   9.929   7.475  0.6544  0.4041 -0.0915
   46MOL0     C 6243   3.787   9.817   7.388  0.2519 -0.0253  0.2835
   46MOL0     C 6244   3.694   9.825   7.285 -0.0465 -0.0711  0.2579
   46MOL0     C 6245   3.604   9.928   7.273 -0.5691  0.1538  0.3587
   46MOL0     O 6246   3.495   9.920   7.184  0.6813 -0.5771 -1.0338
   46MOL0     C 6247   3.486   9.822   7.083 -0.4002 -0.1562 -0.0649
   46MOL0     C 6248   3.364   9.856   6.995  0.8922  0.0335 -0.7676
   46MOL0     C 6249   3.345   9.748   6.889  0.5867  0.1275 -0.8364
   46MOL0     C 6250   3.213   9.769   6.820 -0.2246  0.1865 -0.6368
   46MOL0     C 6251   3.163   9.650   6.740 -0.8122 -0.5886  0.6043
   46MOL0     C 6252   3.256   9.597   6.630 -0.4956  0.3432  0.2697
   46MOL0     C 6253   3.210   9.468   6.556  0.2832 -0.2766  0.1281
   46MOL0     C 6254   3.061   9.467   6.515  0.5209 -1.5271  0.7115
   46MOL0    Cl 6255   3.035   9.626   6.423 -0.5554  0.1222 -0.1032
   46MOL0     C 6256   3.621  10.044   7.353  0.0337  0.3719  0.0286
   46MOL0     C 6257   3.708  10.036   7.453 -0.1524 -0.0466 -1.0890
   46MOL0     O 6258   3.691   9.888   7.723 -0.7115  0.0785 -0.0445
   46MOL0     C 6259   4.039   9.764   7.784 -0.7198  0.3049 -0.4391
   46MOL0     C 6260   4.111   9.711   7.893  0.0495 -0.2012  0.2330
   46MOL0     N 6261   3.773  10.055   8.413 -0.4295 -0.1695  0.1308
   46MOL0     N 6262   3.660  10.089   8.375  0.5252  0.3935 -0.4510
   46MOL0     C 6263   2.736  10.375   8.045  0.2548  1.1201 -0.7344
   46MOL0     C 6264   2.662  10.456   8.130  0.3342  0.2751 -0.2090
   46MOL0     C 6265   2.435  10.548   8.565  0.4708 -0.5082  0.9590
   46MOL0     C 6266   2.464  10.565   8.705  0.3072  0.4618  0.8171
   46MOL0     C 6267   2.368  10.601   8.799 -1.0754 -0.3343 -0.1833
   46MOL0     C 6268   2.244  10.627   8.754  0.0681 -0.9932 -1.0157
   46MOL0     O 6269   2.145  10.668   8.835  0.2058 -0.3805  0.7032
   46MOL0     C 6270   2.079  10.580   8.920 -0.3475 -0.2267 -0.3431
   46MOL0     C 6271   2.070  10.429   8.869 -0.4527  0.2484 -0.9015
   46MOL0     C 6272   1.981  10.334   8.951  0.2334  0.6321  0.9865
   46MOL0     C 6273   1.827  10.358   8.910 -0.2398  1.0327 -0.6628
   46MOL0     C 6274   1.815  10.336   8.765 -0.8439  0.5027 -0.6926
   46MOL0     C 6275   1.786  10.319   8.648  0.2172  0.4465 -0.2643
   46MOL0     C 6276   2.209  10.613   8.627 -0.5895  1.0259 -0.1961
   46MOL0     C 6277   2.298  10.560   8.535  0.3551  0.1269  0.5714
   46MOL0     C 6278   2.233  10.502   8.404  0.7468  0.4470 -0.3386
   46MOL0     H 6279   2.506  10.227   8.323  1.8085 -1.5111  1.4363
   46MOL0     H 6280   2.649  10.074   8.177  1.0019 -0.1424 -0.5949
   46MOL0     H 6281   2.947  10.273   7.880 -1.5570  1.0305  1.6406
   46MOL0     H 6282   2.957  10.119   7.846 -1.6266  0.8408 -1.0272
   46MOL0     H 6283   3.141  10.158   8.006  0.2703 -1.0363 -0.6962
   46MOL0     H 6284   3.038  10.261   8.105 -2.0938 -1.6103  1.7880
   46MOL0     H 6285   2.914  10.079   8.208  0.7202  0.5498  1.3100
   46MOL0     H 6286   3.007   9.956   8.120  0.4700 -0.7788  1.1789
   46MOL0     H 6287   3.234  10.069   8.210  0.0383  1.0788 -1.7661
   46MOL0     H 6288   3.132  10.158   8.312 -2.2517  0.5506 -0.6233
   46MOL0     H 6289   3.141   9.850   8.322 -0.6582 -2.2294 -0.3181
   46MOL0     H 6290   3.016   9.954   8.397 -0.5549 -1.2092 -4.2994
   46MOL0     H 6291   3.256  10.069   8.502  0.9975  0.5676 -1.6027
   46MOL0     H 6292   3.181   9.918   8.570  1.1592  1.6251  0.7941
   46MOL0     H 6293   3.345   9.804   8.420  2.4523 -0.3999 -0.1062
   46MOL0     H 6294   3.415   9.885   8.555  3.0352 -2.6023 -1.0670
   46MOL0     H 6295   3.412   9.936   8.253  4.2752 -2.9235  0.5102
   46MOL0     H 6296   3.400  10.077   8.350 -0.1439 -0.1598  1.7002
   46MOL0     H 6297   3.613   9.784   8.488 -1.6322  0.4742  1.1206
   46MOL0     H 6298   3.862   9.795   8.613  3.0523 -3.2622 -0.7691
   46MOL0     H 6299   3.973   9.899   8.534  0.5048 -2.8170  2.5308
   46MOL0     H 6300   3.973   9.656   8.495  1.3298  2.6431  0.8689
   46MOL0     H 6301   3.822   9.662   8.402  0.2334 -1.8860  0.9550
   46MOL0     H 6302   3.959   9.807   8.239  1.0583 -0.3278  0.6106
   46MOL0     H 6303   4.096   9.798   8.356  0.6737 -1.1220  0.0800
   46MOL0     H 6304   4.139   9.587   8.321 -0.1163 -1.1605  0.2479
   46MOL0     H 6305   3.986   9.545   8.236  1.5352 -0.4479 -2.6497
   46MOL0     H 6306   3.840   9.651   8.099  2.6003 -2.3151  0.9104
   46MOL0     H 6307   3.654   9.677   7.804  0.9276 -1.2590 -1.2991
   46MOL0     H 6308   3.652   9.774   7.951  0.5920 -0.8909  1.3309
   46MOL0     H 6309   3.673   9.602   7.971  2.0745  0.8010  1.4074
   46MOL0     H 6310   3.859   9.736   7.396  2.1631  1.3938 -1.3612
   46MOL0     H 6311   3.699   9.747   7.210 -1.1264 -0.0936  0.2013
   46MOL0     H 6312   3.574   9.835   7.020 -1.1734  2.5676 -0.7209
   46MOL0     H 6313   3.477   9.721   7.125 -0.0180  0.8171  2.5523
   46MOL0     H 6314   3.279   9.851   7.063  2.2729 -2.7206  0.9356
   46MOL0     H 6315   3.365   9.954   6.947  1.0133 -0.3158 -1.5016
   46MOL0     H 6316   3.347   9.653   6.943  0.1794  0.6188  0.0618
   46MOL0     H 6317   3.417   9.747   6.806 -1.1353 -3.7119 -2.5289
   46MOL0     H 6318   3.229   9.851   6.749  2.1134 -0.2846 -0.7383
   46MOL0     H 6319   3.138   9.793   6.896 -0.2232 -2.3017  0.2490
   46MOL0     H 6320   3.170   9.566   6.810 -1.0961 -1.8499 -0.7971
   46MOL0     H 6321   3.060   9.669   6.706 -0.0012  3.8051  0.0734
   46MOL0     H 6322   3.354   9.572   6.670  1.7318  0.1496 -4.5713
   46MOL0     H 6323   3.273   9.671   6.551 -0.0408  0.5721  0.5782
   46MOL0     H 6324   3.231   9.386   6.625  0.0989 -1.2698 -0.9577
   46MOL0     H 6325   3.268   9.444   6.466 -0.3688  1.4327 -0.7904
   46MOL0     H 6326   3.001   9.465   6.607  2.7306  1.8185  2.4411
   46MOL0     H 6327   3.047   9.387   6.441 -0.1628 -0.8298  0.0847
   46MOL0     H 6328   3.561  10.134   7.340  1.9856  1.3631 -3.5601
   46MOL0     H 6329   3.706  10.120   7.521  2.0204 -1.2257  0.5871
   46MOL0     H 6330   4.083   9.806   7.694 -0.9592  1.1925 -0.1483
   46MOL0     H 6331   4.219   9.699   7.898  0.2734  1.7004  0.4491
   46MOL0     H 6332   2.775  10.416   7.952 -3.7037  2.8534 -1.8595
   46MOL0     H 6333   2.644  10.561   8.111  0.8054  0.1235 -1.7004
   46MOL0     H 6334   2.563  10.535   8.736  0.7021 -1.3598 -1.9275
   46MOL0     H 6335   2.394  10.614   8.903 -3.0199  1.0603  0.1900
   46MOL0     H 6336   2.120  10.589   9.021 -0.1405 -2.1157 -0.2203
   46MOL0     H 6337   1.972  10.605   8.916 -0.4026 -0.5548 -1.3984
   46MOL0     H 6338   2.168  10.382   8.881  0.5910  2.7544  1.1498
   46MOL0     H 6339   2.053  10.438   8.761  1.6056  0.2083 -1.2721
   46MOL0     H 6340   2.015  10.233   8.925  3.0031  1.5562  0.7287
   46MOL0     H 6341   2.001  10.346   9.057  1.4239  1.6992  0.6637
   46MOL0     H 6342   1.814  10.461   8.942  0.1735  1.7299 -2.5670
   46MOL0     H 6343   1.757  10.284   8.950  1.0455 -0.5595 -1.2225
   46MOL0     H 6344   1.754  10.310   8.546 -0.4001 -1.6623  0.0719
   46MOL0     H 6345   2.106  10.634   8.600 -0.7386 -0.2288 -0.6580
   46MOL0     H 6346   2.258  10.559   8.314  1.6242 -0.3976 -0.6486
   46MOL0     H 6347   2.262  10.398   8.388 -0.7582 -0.0771  0.1683
   46MOL0     H 6348   2.124  10.513   8.410  0.7409 -0.1185  3.6534
   47MOL0     O 6349   2.686   6.548   8.279 -0.5606  0.2707 -0.1163
   47MOL0     C 6350   2.644   6.630   8.356 -0.8595  0.3174  0.1805
   47MOL0     O 6351   2.709   6.672   8.473 -0.6496  0.2994 -0.3592
   47MOL0     C 6352   2.835   6.608   8.499  0.8648 -0.6988  0.2536
   47MOL0     C 6353   2.850   6.517   8.605 -0.2439  1.0444  0.0445
   47MOL0     C 6354   2.971   6.460   8.633  0.4244  0.0663  0.3182
   47MOL0     C 6355   3.078   6.486   8.547 -0.1514 -0.5530 -0.8775
   47MOL0     O 6356   3.205   6.435   8.566 -0.8421  0.9251  0.1676
   47MOL0     C 6357   3.290   6.504   8.663  0.5635  1.0772  0.0207
   47MOL0     C 6358   3.336   6.651   8.638 -0.1201  0.7923 -0.1060
   47MOL0     C 6359   3.219   6.754   8.644  0.1669  0.0198  0.1757
   47MOL0     C 6360   3.214   6.843   8.771 -0.0054 -0.7203  0.6302
   47MOL0     C 6361   3.074   6.860   8.824 -1.4050  0.8150 -0.5639
   47MOL0     C 6362   2.981   6.947   8.738  0.4096  0.2681  0.1072
   47MOL0     C 6363   2.865   7.012   8.813  0.4792 -0.2833  0.0943
   47MOL0     C 6364   2.763   6.921   8.845 -0.0870 -0.0016 -0.1978
   47MOL0     N 6365   2.643   6.985   8.881 -0.5417  0.9312  0.4756
   47MOL0     C 6366   2.600   6.999   9.006 -0.4383 -0.1057 -0.8310
   47MOL0     C 6367   2.492   7.063   9.008 -0.1997  0.9813  0.7624
   47MOL0     C 6368   2.425   7.110   9.128  0.2955  0.0347  0.8223
   47MOL0     C 6369   2.480   7.247   9.173 -0.0944 -0.0906  0.0686
   47MOL0     C 6370   2.445   7.366   9.072  0.1020  0.7482 -0.7484
   47MOL0     C 6371   2.497   7.505   9.121 -0.1912  0.2782 -0.3683
   47MOL0     O 6372   2.435   7.543   9.243 -0.5909 -0.0361  0.1873
   47MOL0     C 6373   2.333   7.640   9.246 -0.0657 -0.7348  0.7563
   47MOL0     C 6374   2.238   7.651   9.138 -0.9692  0.3538 -0.7082
   47MOL0     C 6375   2.132   7.739   9.153  0.5693 -0.1924 -0.4125
   47MOL0     C 6376   2.053   7.761   9.033 -0.3363  0.8181  0.3677
   47MOL0     C 6377   2.133   7.835   9.269  0.3811  0.9953 -0.7331
   47MOL0     C 6378   2.047   7.958   9.276 -0.4862 -0.3784 -0.2968
   47MOL0     O 6379   2.110   8.075   9.322  0.0211  0.5757 -0.9717
   47MOL0     C 6380   2.031   8.181   9.295  0.0539  0.6776  0.0158
   47MOL0     C 6381   2.006   8.272   9.396 -0.4446  0.2292 -0.4880
   47MOL0     C 6382   1.923   8.384   9.380  0.7508  0.2707  0.4862
   47MOL0     C 6383   1.875   8.423   9.256 -0.8694  0.3389 -0.2376
   47MOL0     O 6384   1.815   8.554   9.239 -0.2775  0.0197  0.5596
   47MOL0     C 6385   1.737   8.587   9.123 -0.1990  0.1210  0.7245
   47MOL0     C 6386   1.667   8.709   9.152  0.2890 -0.4940 -0.4865
   47MOL0     C 6387   1.574   8.755   9.040 -0.2542 -0.7165 -0.1742
   47MOL0     C 6388   1.499   8.883   9.076 -0.2593 -0.8614 -0.1286
   47MOL0     C 6389   1.376   8.847   9.157 -1.3550  0.0295 -0.0466
   47MOL0     C 6390   1.274   8.969   9.159 -0.4581  0.0161 -0.1807
   47MOL0     C 6391   1.164   8.945   9.268 -0.0025  0.7631  0.4829
   47MOL0     C 6392   1.077   8.824   9.240  0.7147  0.1279  0.2756
   47MOL0    Cl 6393   0.948   8.814   9.367 -0.3511 -0.3072 -0.3703
   47MOL0     C 6394   1.900   8.333   9.148  0.0308  0.1896 -1.5091
   47MOL0     C 6395   1.980   8.209   9.169  0.4108 -0.1339 -0.3061
   47MOL0     O 6396   1.926   7.945   9.252 -0.0762 -0.0076  0.1945
   47MOL0     C 6397   2.227   7.819   9.371 -0.4062 -0.4685 -0.3564
   47MOL0     C 6398   2.323   7.721   9.357  0.5034 -0.0420 -0.9718
   47MOL0     N 6399   2.461   7.089   8.873  0.4162  0.8619  0.8113
   47MOL0     N 6400   2.560   7.037   8.794  0.3296  0.4942  0.0350
   47MOL0     C 6401   3.062   6.559   8.430  1.1396  0.2228  0.2453
   47MOL0     C 6402   2.938   6.624   8.408 -0.1822  0.4017 -0.1876
   47MOL0     C 6403   2.507   6.687   8.324 -0.5557  0.1840  0.4077
   47MOL0     C 6404   2.447   6.656   8.203  0.2291  0.3889  0.3589
   47MOL0     C 6405   2.318   6.695   8.181 -0.4580  0.5891 -0.4540
   47MOL0     C 6406   2.245   6.778   8.265  0.3589 -0.8432 -0.2991
   47MOL0     O 6407   2.127   6.822   8.211 -0.4642 -0.8775 -0.0226
   47MOL0     C 6408   2.004   6.778   8.264 -0.5115  0.4940 -0.4136
   47MOL0     C 6409   1.983   6.631   8.236 -0.0659 -0.7363 -0.4784
   47MOL0     C 6410   1.843   6.586   8.283  0.1005  0.1864 -0.1081
   47MOL0     C 6411   1.757   6.524   8.169 -0.3597  0.2842  0.5063
   47MOL0     C 6412   1.678   6.616   8.091  0.4564  0.5354  1.6148
   47MOL0     C 6413   1.615   6.705   8.037  0.0077  0.0110 -0.0868
   47MOL0     C 6414   2.299   6.812   8.384 -0.2334 -0.6974  0.3222
   47MOL0     C 6415   2.423   6.757   8.417  0.0863 -0.4239  0.6272
   47MOL0     C 6416   2.452   6.774   8.567  0.4949  0.0063  0.6228
   47MOL0     H 6417   2.763   6.494   8.666 -0.9388 -0.3599 -1.4229
   47MOL0     H 6418   3.001   6.386   8.706 -1.4658  0.2006  1.3183
   47MOL0     H 6419   3.380   6.443   8.661  0.0771  0.3126 -3.2296
   47MOL0     H 6420   3.247   6.491   8.763  1.5033  0.8108  0.4029
   47MOL0     H 6421   3.403   6.682   8.718 -1.0678  0.8921  0.6671
   47MOL0     H 6422   3.372   6.647   8.535 -4.2355 -1.4490 -1.7090
   47MOL0     H 6423   3.233   6.827   8.564 -0.9211  2.2446  1.9175
   47MOL0     H 6424   3.127   6.696   8.632  1.5575 -1.6576 -4.3939
   47MOL0     H 6425   3.275   6.790   8.846  0.1312  2.0227  2.6048
   47MOL0     H 6426   3.275   6.932   8.756 -0.4715 -0.7838 -2.1961
   47MOL0     H 6427   3.089   6.900   8.925  1.7731 -0.1575 -0.5350
   47MOL0     H 6428   3.022   6.764   8.832 -3.4740  1.8830 -0.5480
   47MOL0     H 6429   3.048   7.027   8.704 -1.1332  1.3557 -0.4845
   47MOL0     H 6430   2.947   6.880   8.658 -2.4189  0.8590  0.6922
   47MOL0     H 6431   2.820   7.091   8.751 -4.6113 -2.9440 -0.1154
   47MOL0     H 6432   2.896   7.049   8.912  2.2973 -2.5650  0.4676
   47MOL0     H 6433   2.741   6.875   8.748  2.1856 -0.8841 -0.3696
   47MOL0     H 6434   2.794   6.842   8.914 -0.9271  1.3067  1.7294
   47MOL0     H 6435   2.649   6.970   9.098  0.7198  1.0216 -1.0634
   47MOL0     H 6436   2.437   7.043   9.213 -0.1830 -0.5647  0.4258
   47MOL0     H 6437   2.317   7.119   9.113 -0.3326 -1.7787  3.5237
   47MOL0     H 6438   2.452   7.273   9.275 -0.9340 -1.9524  0.3413
   47MOL0     H 6439   2.588   7.251   9.161 -0.1978  0.1927 -0.9353
   47MOL0     H 6440   2.509   7.346   8.986  0.9766  0.5330 -0.0600
   47MOL0     H 6441   2.339   7.370   9.045 -0.0235 -2.0286 -0.8722
   47MOL0     H 6442   2.602   7.493   9.151 -0.7630 -1.6365  1.0935
   47MOL0     H 6443   2.490   7.586   9.048  2.3339  2.1170  1.2436
   47MOL0     H 6444   2.233   7.583   9.054 -1.4574 -1.3084  0.6067
   47MOL0     H 6445   2.083   7.855   8.986 -0.0627  0.9660  0.8360
   47MOL0     H 6446   1.946   7.775   9.053 -0.2642  1.8464  0.0852
   47MOL0     H 6447   2.057   7.672   8.970 -0.4986  0.1894  1.2333
   47MOL0     H 6448   2.047   8.268   9.496 -2.3784  1.0992  0.3879
   47MOL0     H 6449   1.903   8.453   9.462 -1.4340 -1.9182  1.9411
   47MOL0     H 6450   1.787   8.591   9.026 -0.7951 -2.2339  0.2416
   47MOL0     H 6451   1.666   8.507   9.097  1.1657 -2.2251  3.5966
   47MOL0     H 6452   1.615   8.697   9.248 -0.3614  3.3221 -0.2105
   47MOL0     H 6453   1.749   8.780   9.161 -1.4056  1.3465  1.5229
   47MOL0     H 6454   1.502   8.674   9.022 -1.2606  0.1101  0.0041
   47MOL0     H 6455   1.642   8.766   8.956 -0.2918 -1.2122 -0.2722
   47MOL0     H 6456   1.464   8.935   8.986 -0.6645 -2.0113 -0.6630
   47MOL0     H 6457   1.565   8.954   9.126 -0.7763  0.1250 -0.8074
   47MOL0     H 6458   1.333   8.750   9.131 -2.0579  0.6015 -1.0707
   47MOL0     H 6459   1.420   8.837   9.257  1.7245  0.4476 -1.2549
   47MOL0     H 6460   1.235   9.006   9.064 -0.3906  1.3066  0.2720
   47MOL0     H 6461   1.327   9.054   9.203  1.8925 -0.6298 -1.6197
   47MOL0     H 6462   1.102   9.033   9.252  0.2186  0.5113 -2.1460
   47MOL0     H 6463   1.209   8.935   9.368  0.0963  2.7176  0.6738
   47MOL0     H 6464   1.125   8.726   9.229 -0.5083 -0.8440  2.7102
   47MOL0     H 6465   1.029   8.833   9.142 -0.9423  1.4912  1.1666
   47MOL0     H 6466   1.867   8.359   9.048  0.4672 -1.9500 -2.2516
   47MOL0     H 6467   1.994   8.149   9.080  1.1983  1.4182 -1.2646
   47MOL0     H 6468   2.235   7.884   9.457  2.8054 -2.5430  1.0971
   47MOL0     H 6469   2.398   7.717   9.435  2.6370  0.0502 -2.9205
   47MOL0     H 6470   3.139   6.567   8.354 -0.9356 -1.1804 -2.1816
   47MOL0     H 6471   2.928   6.668   8.309  1.0357 -2.3398 -1.6124
   47MOL0     H 6472   2.498   6.598   8.127 -2.1831  0.7364 -1.6442
   47MOL0     H 6473   2.269   6.638   8.103 -0.3683 -0.0568 -0.0447
   47MOL0     H 6474   2.014   6.798   8.371 -1.9702  0.8591 -0.3269
   47MOL0     H 6475   1.925   6.840   8.220 -0.2551  0.0467 -1.5259
   47MOL0     H 6476   2.067   6.573   8.276 -1.2499 -2.9827 -1.0858
   47MOL0     H 6477   1.988   6.622   8.128 -2.4755 -1.3107 -0.5898
   47MOL0     H 6478   1.863   6.508   8.358  0.9100  0.2615 -0.2390
   47MOL0     H 6479   1.783   6.647   8.351  2.3995  1.3505  1.0166
   47MOL0     H 6480   1.690   6.439   8.185 -0.8846  0.1303 -2.0558
   47MOL0     H 6481   1.832   6.482   8.101  1.5161 -1.8992  3.6596
   47MOL0     H 6482   1.546   6.777   7.998 -1.6845 -2.4081 -1.8147
   47MOL0     H 6483   2.244   6.876   8.453 -0.6831  2.5994 -2.8230
   47MOL0     H 6484   2.556   6.801   8.586  0.9489 -0.5141 -0.9417
   47MOL0     H 6485   2.386   6.847   8.615  0.0366  0.2549 -0.3576
   47MOL0     H 6486   2.442   6.679   8.620  0.1564 -0.0303  0.4987
   48MOL0     O 6487   9.500   9.413   3.220 -0.1163  0.3058 -0.5352
   48MOL0     C 6488   9.580   9.501   3.226  0.0699  0.0410  0.4663
   48MOL0     O 6489   9.547   9.631   3.264  0.1066  0.5049  0.3519
   48MOL0     C 6490   9.414   9.664   3.276 -0.4680 -0.1334  1.0300
   48MOL0     C 6491   9.322   9.630   3.383  0.5917 -0.1222 -1.6505
   48MOL0     C 6492   9.190   9.679   3.394 -0.3808  0.2836  0.1380
   48MOL0     C 6493   9.145   9.770   3.304 -0.2480  0.0850  1.3805
   48MOL0     O 6494   9.016   9.816   3.326  0.6925  0.6870  0.9535
   48MOL0     C 6495   8.981   9.936   3.248  0.5516 -1.1180  0.2394
   48MOL0     C 6496   8.849   9.996   3.297 -0.4226  0.1397 -0.2923
   48MOL0     C 6497   8.733   9.933   3.229  0.5297  0.4607 -0.3906
   48MOL0     C 6498   8.601   9.980   3.300  0.3539  0.7027 -0.3977
   48MOL0     C 6499   8.480   9.917   3.225 -0.1434  0.0534  0.2105
   48MOL0     C 6500   8.364  10.006   3.205  0.1698 -0.2464  0.0349
   48MOL0     C 6501   8.308  10.071   3.335  0.5849  1.1630 -1.2272
   48MOL0     C 6502   8.258   9.962   3.448 -0.5772 -0.0858  0.7418
   48MOL0     N 6503   8.170  10.028   3.548 -0.6813  0.0155  0.4641
   48MOL0     C 6504   8.213  10.077   3.669 -0.2981 -0.8809  0.1662
   48MOL0     C 6505   8.103  10.144   3.717 -0.8084  0.2995  0.3922
   48MOL0     C 6506   8.091  10.191   3.857 -0.3482  0.3712 -0.5408
   48MOL0     C 6507   7.976  10.287   3.879  0.2072 -0.1492 -0.1301
   48MOL0     C 6508   7.974  10.412   3.783 -0.2433  0.3153 -0.5196
   48MOL0     C 6509   8.056  10.521   3.834  0.0116 -0.5035 -0.7321
   48MOL0     O 6510   8.037  10.546   3.979  0.6613 -0.0695  1.0576
   48MOL0     C 6511   8.103  10.660   4.025 -0.4590  0.2325 -0.2026
   48MOL0     C 6512   8.172  10.755   3.951  0.0340  0.0462  0.6062
   48MOL0     C 6513   8.231  10.863   4.012  0.1369 -0.5371  0.0731
   48MOL0     C 6514   8.313  10.962   3.931  0.6969 -0.3028  0.0991
   48MOL0     C 6515   8.219  10.878   4.155  0.8099  0.6926  0.7722
   48MOL0     C 6516   8.262  10.993   4.236  0.6623  0.6597 -0.0351
   48MOL0     O 6517   8.300  10.968   4.364  0.2854 -0.0360 -0.3282
   48MOL0     C 6518   8.363  11.060   4.440 -0.0595  0.4021  0.0530
   48MOL0     C 6519   8.331  11.072   4.580 -0.6842  0.2294 -0.4507
   48MOL0     C 6520   8.388  11.176   4.654  0.8638  0.1027  0.1677
   48MOL0     C 6521   8.489  11.262   4.599  0.5840 -0.6544  0.9930
   48MOL0     O 6522   8.548  11.365   4.673  0.3589 -0.1389 -0.0931
   48MOL0     C 6523   8.457  11.427   4.764  1.1104 -0.1781 -0.0072
   48MOL0     C 6524   8.496  11.564   4.804  0.4677 -0.0855 -0.1693
   48MOL0     C 6525   8.385  11.624   4.889 -0.7530  0.1908  0.2741
   48MOL0     C 6526   8.447  11.745   4.955 -0.3904 -0.1171 -0.3716
   48MOL0     C 6527   8.334  11.835   5.022  0.3987 -0.5019 -0.1407
   48MOL0     C 6528   8.301  11.790   5.167 -0.0689  0.3853  0.5101
   48MOL0     C 6529   8.170  11.861   5.220 -0.8951 -0.1206 -0.0247
   48MOL0     C 6530   8.050  11.832   5.145  0.3879 -1.0148 -0.0836
   48MOL0    Cl 6531   8.049  11.658   5.113  0.1736 -0.1074  0.2102
   48MOL0     C 6532   8.516  11.243   4.463 -0.4282 -0.2172 -0.3821
   48MOL0     C 6533   8.459  11.146   4.390  0.4662  0.1420  0.3373
   48MOL0     O 6534   8.260  11.106   4.184  0.6263  0.7536  0.3559
   48MOL0     C 6535   8.162  10.772   4.225 -0.2255  0.9434  0.6629
   48MOL0     C 6536   8.105  10.669   4.163  1.4841  0.2323 -0.3889
   48MOL0     N 6537   8.002  10.140   3.624 -0.3671  0.3309  0.1062
   48MOL0     N 6538   8.050  10.077   3.521  0.2667 -0.5891  0.3682
   48MOL0     C 6539   9.238   9.812   3.211 -0.0847 -0.2735 -0.2272
   48MOL0     C 6540   9.364   9.760   3.190 -0.0014  0.6153  0.2640
   48MOL0     C 6541   9.721   9.463   3.206 -0.4938 -0.5733  0.1671
   48MOL0     C 6542   9.759   9.331   3.172 -1.0597  0.0999 -0.0804
   48MOL0     C 6543   9.891   9.287   3.141  0.0695 -0.2795  1.0474
   48MOL0     C 6544   9.991   9.385   3.142  0.3220 -0.3298 -0.0278
   48MOL0     O 6545  10.122   9.362   3.106 -0.2051  0.2817 -0.3169
   48MOL0     C 6546  10.161   9.236   3.031  0.3138 -0.9804  0.6875
   48MOL0     C 6547  10.317   9.234   3.026  0.5771  0.1025  0.9445
   48MOL0     C 6548  10.379   9.283   2.897  0.0809 -0.7864  0.1648
   48MOL0     C 6549  10.379   9.439   2.898 -0.7315  0.3857 -0.6027
   48MOL0     C 6550  10.256   9.500   2.844 -0.5959  0.1478 -0.5207
   48MOL0     C 6551  10.166   9.568   2.799 -0.0104  0.0174 -0.6612
   48MOL0     C 6552   9.969   9.516   3.189 -0.8798 -0.0946 -0.2472
   48MOL0     C 6553   9.834   9.554   3.221  0.2672 -1.0064 -0.8726
   48MOL0     C 6554   9.815   9.695   3.277  0.0766  0.1784 -0.1498
   48MOL0     H 6555   9.369   9.562   3.454  2.0662  1.2996 -1.1908
   48MOL0     H 6556   9.130   9.657   3.481 -0.7957  3.9275  0.9278
   48MOL0     H 6557   8.992   9.913   3.142  0.6404  1.7845 -0.4680
   48MOL0     H 6558   9.055  10.015   3.269 -1.7603  1.6720 -1.4355
   48MOL0     H 6559   8.851   9.988   3.406 -0.8263  3.2932  0.0621
   48MOL0     H 6560   8.852  10.104   3.279 -4.1966  0.6089  0.9499
   48MOL0     H 6561   8.730   9.952   3.121 -2.4919 -1.0285 -0.6779
   48MOL0     H 6562   8.742   9.824   3.232  0.0133  0.4247 -0.0347
   48MOL0     H 6563   8.598   9.957   3.407  1.8261 -1.7547 -0.8082
   48MOL0     H 6564   8.596  10.089   3.296  1.5220  0.7396 -2.4042
   48MOL0     H 6565   8.446   9.826   3.276 -0.9014  1.7649  2.9918
   48MOL0     H 6566   8.515   9.894   3.124  1.5572 -0.9284  0.9950
   48MOL0     H 6567   8.384  10.090   3.138  2.7786 -1.6215 -1.0623
   48MOL0     H 6568   8.285   9.946   3.158  2.1716 -0.8302 -2.8519
   48MOL0     H 6569   8.217  10.127   3.311  1.5086  3.4038  0.1499
   48MOL0     H 6570   8.379  10.148   3.366 -3.7904  6.0460 -1.8857
   48MOL0     H 6571   8.202   9.880   3.401  0.6029 -0.8370  0.5921
   48MOL0     H 6572   8.347   9.913   3.488 -0.9069 -1.0622  0.3309
   48MOL0     H 6573   8.310  10.047   3.708  1.3860  0.9077 -2.2992
   48MOL0     H 6574   8.190  10.233   3.879  1.1775 -1.8467 -2.6250
   48MOL0     H 6575   8.073  10.109   3.927  0.5243  1.5487  1.1414
   48MOL0     H 6576   7.880  10.238   3.859  0.3919  0.1325 -1.8965
   48MOL0     H 6577   7.978  10.324   3.982 -1.1120  0.6283 -0.3632
   48MOL0     H 6578   8.010  10.381   3.685 -4.1663 -4.9923 -0.7043
   48MOL0     H 6579   7.872  10.448   3.770 -1.1687 -0.4099  3.3411
   48MOL0     H 6580   8.160  10.487   3.832 -0.1199 -0.9079 -0.8269
   48MOL0     H 6581   8.038  10.609   3.772  0.5600  0.6919  0.7520
   48MOL0     H 6582   8.166  10.746   3.843 -2.6895 -3.9403  0.8748
   48MOL0     H 6583   8.258  11.024   3.860  1.7522 -0.0301 -0.4999
   48MOL0     H 6584   8.379  10.894   3.876  0.5785  0.2814 -0.8017
   48MOL0     H 6585   8.383  11.025   3.985  0.6732 -0.1197 -0.0835
   48MOL0     H 6586   8.257  11.008   4.627  0.4938 -0.5819  0.3932
   48MOL0     H 6587   8.338  11.197   4.748  0.0666 -1.4251  0.1133
   48MOL0     H 6588   8.352  11.437   4.735  0.5309 -1.7321  1.3954
   48MOL0     H 6589   8.450  11.370   4.857 -1.6106 -2.3282 -1.3526
   48MOL0     H 6590   8.587  11.558   4.864  0.3816  0.8597  0.0835
   48MOL0     H 6591   8.537  11.620   4.719  0.4791 -0.1568 -0.2109
   48MOL0     H 6592   8.348  11.549   4.960  3.3575 -1.5698  0.8326
   48MOL0     H 6593   8.304  11.651   4.820  0.0655 -0.7223 -1.0734
   48MOL0     H 6594   8.477  11.809   4.871 -0.1806  1.6190  0.9622
   48MOL0     H 6595   8.530  11.727   5.024 -2.4004  3.1350  3.2603
   48MOL0     H 6596   8.367  11.940   5.021  0.5020 -0.4933 -2.5774
   48MOL0     H 6597   8.243  11.830   4.962 -0.4419  1.5335  0.8449
   48MOL0     H 6598   8.381  11.823   5.234  1.7672  2.3648 -2.4144
   48MOL0     H 6599   8.309  11.681   5.164  1.7232  0.5085 -0.9868
   48MOL0     H 6600   8.171  11.970   5.217 -2.7366 -0.0894 -1.9264
   48MOL0     H 6601   8.149  11.812   5.315 -0.2688  0.8057  0.5947
   48MOL0     H 6602   8.045  11.886   5.049  0.4054 -2.9084 -1.2047
   48MOL0     H 6603   7.953  11.853   5.190  1.8267  3.1344  1.5637
   48MOL0     H 6604   8.597  11.304   4.423 -0.1300 -1.5420 -1.9008
   48MOL0     H 6605   8.479  11.129   4.285 -3.6066  0.7639 -0.6888
   48MOL0     H 6606   8.144  10.778   4.332  0.2092 -0.6682  0.8378
   48MOL0     H 6607   8.055  10.600   4.230 -0.5262 -0.2102 -2.2139
   48MOL0     H 6608   9.200   9.882   3.137  0.0612 -0.5617 -0.5766
   48MOL0     H 6609   9.427   9.803   3.113  1.4992  1.2630  1.7918
   48MOL0     H 6610   9.685   9.252   3.175  1.1387 -2.0643  1.5543
   48MOL0     H 6611   9.896   9.184   3.108  1.6579 -0.6317  2.2289
   48MOL0     H 6612  10.111   9.145   3.063 -1.8998 -0.2006 -0.3394
   48MOL0     H 6613  10.123   9.254   2.930  1.1712 -0.6494  0.4081
   48MOL0     H 6614  10.347   9.129   3.030  0.0816 -0.0358  1.0983
   48MOL0     H 6615  10.363   9.283   3.112  3.3241 -1.9282  0.7569
   48MOL0     H 6616  10.477   9.235   2.898 -0.7994 -2.7176 -0.9500
   48MOL0     H 6617  10.329   9.234   2.813 -0.3099  1.1393 -0.7652
   48MOL0     H 6618  10.460   9.458   2.827  0.2809  2.0542  0.8858
   48MOL0     H 6619  10.411   9.485   2.993  1.0977  0.5861 -1.2750
   48MOL0     H 6620  10.091   9.632   2.758  1.6843  5.1682  3.1655
   48MOL0     H 6621  10.053   9.584   3.191 -0.6382 -0.3182 -1.5764
   48MOL0     H 6622   9.753   9.770   3.227 -0.2681  1.4230  2.0390
   48MOL0     H 6623   9.783   9.688   3.381 -0.4805 -0.8547 -0.3792
   48MOL0     H 6624   9.917   9.733   3.286  0.4397  0.1882 -3.1139
   49MOL0     O 6625   6.936   1.974   3.153 -0.3531  0.1345  0.3332
   49MOL0     C 6626   7.036   2.045   3.157  0.1298  0.3218 -0.3539
   49MOL0     O 6627   7.163   1.986   3.155 -0.1325  0.4450 -0.5190
   49MOL0     C 6628   7.172   1.862   3.221  0.4263  0.5892 -0.3192
   49MOL0     C 6629   7.152   1.858   3.368  0.0611  0.5575 -0.8208
   49MOL0     C 6630   7.166   1.739   3.431  0.1205  0.3340 -0.6918
   49MOL0     C 6631   7.214   1.618   3.363 -1.1088 -0.5814  0.2778
   49MOL0     O 6632   7.255   1.510   3.427 -0.3730 -0.1099  0.1796
   49MOL0     C 6633   7.177   1.471   3.547  0.1235  0.9549  0.1927
   49MOL0     C 6634   7.186   1.314   3.545 -0.1322  0.0755  0.6515
   49MOL0     C 6635   7.094   1.250   3.442 -0.4902  0.7748  0.0366
   49MOL0     C 6636   7.040   1.108   3.484  0.7739  0.9074 -0.0681
   49MOL0     C 6637   6.943   1.046   3.376  0.8226 -0.2074 -0.5203
   49MOL0     C 6638   6.805   1.101   3.403 -0.3627 -0.5347 -1.3761
   49MOL0     C 6639   6.696   1.006   3.355  0.3412  0.3486  0.0401
   49MOL0     C 6640   6.628   1.046   3.223  0.7522  0.2671  0.1303
   49MOL0     N 6641   6.590   1.186   3.225 -0.7206 -0.6461  0.9159
   49MOL0     C 6642   6.622   1.279   3.133  0.5235  0.4650 -0.3100
   49MOL0     C 6643   6.548   1.385   3.145  0.8469 -0.7588 -0.2751
   49MOL0     C 6644   6.536   1.507   3.060  0.2459  0.6430 -0.7486
   49MOL0     C 6645   6.396   1.561   3.043 -0.4832 -0.3801  0.0974
   49MOL0     C 6646   6.298   1.494   2.949  0.4028  0.2674  1.1363
   49MOL0     C 6647   6.294   1.542   2.810  0.3527  1.0509  0.4219
   49MOL0     O 6648   6.289   1.683   2.789 -0.2933  0.3778 -0.3422
   49MOL0     C 6649   6.171   1.740   2.759  0.1547  0.1192 -0.8403
   49MOL0     C 6650   6.052   1.699   2.807 -0.4650 -0.7024 -0.2286
   49MOL0     C 6651   5.932   1.769   2.773  0.4705  0.4009 -0.9929
   49MOL0     C 6652   5.799   1.710   2.826 -0.0139  0.6416 -0.1799
   49MOL0     C 6653   5.939   1.882   2.683  0.4404  0.0737  0.1635
   49MOL0     C 6654   5.816   1.939   2.615  0.2326 -0.1067 -0.6567
   49MOL0     O 6655   5.847   2.052   2.550 -0.5482 -0.1633  0.0905
   49MOL0     C 6656   5.751   2.108   2.469  0.3049  0.7975  0.0405
   49MOL0     C 6657   5.777   2.129   2.325  0.2573  0.8163 -0.7037
   49MOL0     C 6658   5.672   2.163   2.244 -0.7569 -0.7258  0.2933
   49MOL0     C 6659   5.544   2.199   2.283 -0.5736  0.3361 -0.1466
   49MOL0     O 6660   5.441   2.246   2.205  0.0072  0.0819  0.4012
   49MOL0     C 6661   5.457   2.236   2.060  0.2523  0.2491  0.4064
   49MOL0     C 6662   5.320   2.272   2.004 -0.9497  0.6620 -0.3008
   49MOL0     C 6663   5.318   2.290   1.858 -0.0365 -0.6675  1.0073
   49MOL0     C 6664   5.341   2.434   1.813 -0.7726 -0.4544  0.5516
   49MOL0     C 6665   5.324   2.468   1.668 -0.3888 -0.1314 -0.6524
   49MOL0     C 6666   5.177   2.445   1.609  0.2724 -0.3093 -0.5768
   49MOL0     C 6667   5.179   2.456   1.456 -0.0971 -0.1864 -0.8912
   49MOL0     C 6668   5.041   2.455   1.397  0.7356  0.2944  1.0125
   49MOL0    Cl 6669   4.968   2.285   1.425  0.3998 -0.1809  0.1910
   49MOL0     C 6670   5.519   2.192   2.422  0.0599  0.5391  1.0292
   49MOL0     C 6671   5.611   2.136   2.512  0.3625 -1.3714 -0.7296
   49MOL0     O 6672   5.704   1.902   2.644 -0.3533 -0.1835  0.1964
   49MOL0     C 6673   6.069   1.915   2.635 -1.0211 -0.0865 -0.3484
   49MOL0     C 6674   6.180   1.849   2.680 -0.7773 -0.1618  0.2718
   49MOL0     N 6675   6.489   1.379   3.269 -0.3002  0.4741 -0.0011
   49MOL0     N 6676   6.509   1.258   3.310  0.4696  0.6137 -0.7713
   49MOL0     C 6677   7.250   1.634   3.227  0.0783 -0.2090 -0.0731
   49MOL0     C 6678   7.238   1.753   3.157  0.0051 -0.7794 -1.2223
   49MOL0     C 6679   7.025   2.198   3.164 -0.6380 -0.1273  0.3880
   49MOL0     C 6680   7.141   2.271   3.177 -0.6488  0.2999 -0.4231
   49MOL0     C 6681   7.148   2.409   3.206  0.9112  0.6668 -0.3371
   49MOL0     C 6682   7.035   2.480   3.239 -0.3663  0.4146  1.1616
   49MOL0     O 6683   7.064   2.614   3.258 -0.2020  0.4318 -0.3213
   49MOL0     C 6684   6.955   2.696   3.315 -0.1294 -0.5880 -0.0342
   49MOL0     C 6685   6.980   2.844   3.285 -0.3474  0.6593 -0.7954
   49MOL0     C 6686   6.869   2.938   3.332  0.5806 -0.3963  0.0849
   49MOL0     C 6687   6.895   3.080   3.300 -0.0092 -0.6246  0.2993
   49MOL0     C 6688   7.037   3.131   3.312  0.3050  0.1684 -0.2427
   49MOL0     C 6689   7.144   3.174   3.320 -0.3543 -0.5738 -0.5031
   49MOL0     C 6690   6.914   2.415   3.219  0.2721 -0.4187 -0.2060
   49MOL0     C 6691   6.904   2.273   3.197  0.0861 -0.6843 -0.2599
   49MOL0     C 6692   6.766   2.211   3.198 -0.0790 -0.6260  0.5927
   49MOL0     H 6693   7.114   1.953   3.404  1.2123  0.6669  0.1489
   49MOL0     H 6694   7.134   1.727   3.534 -2.2542 -1.4144 -1.5354
   49MOL0     H 6695   7.076   1.514   3.547  2.0047  6.3357  2.6076
   49MOL0     H 6696   7.234   1.511   3.631  1.6323  0.3952 -0.5431
   49MOL0     H 6697   7.292   1.285   3.545  0.7005  2.7507  1.8478
   49MOL0     H 6698   7.149   1.282   3.643  0.0883 -0.4093  0.5814
   49MOL0     H 6699   7.016   1.324   3.423 -0.4393  0.8469  0.1080
   49MOL0     H 6700   7.149   1.253   3.348  1.2394  2.5393  1.0145
   49MOL0     H 6701   7.124   1.038   3.488  1.0481  0.9767 -2.7509
   49MOL0     H 6702   7.000   1.108   3.585  1.7118 -0.7227  0.3367
   49MOL0     H 6703   6.942   0.937   3.389  0.1603  0.0270  1.7633
   49MOL0     H 6704   6.974   1.064   3.273 -0.0929 -1.9686 -1.1613
   49MOL0     H 6705   6.791   1.113   3.510  0.7827 -1.6289 -1.0654
   49MOL0     H 6706   6.806   1.204   3.365  1.2958  0.2644  0.6486
   49MOL0     H 6707   6.608   1.020   3.418  0.7823  3.0582  0.2117
   49MOL0     H 6708   6.732   0.903   3.353  4.0362  1.4772  0.9164
   49MOL0     H 6709   6.694   1.023   3.139  1.3478  0.8856  0.4165
   49MOL0     H 6710   6.535   0.990   3.209 -0.3782  1.7700  1.2953
   49MOL0     H 6711   6.695   1.274   3.053  0.1303  0.2135 -0.6546
   49MOL0     H 6712   6.571   1.483   2.960  0.2141 -0.3749 -0.5311
   49MOL0     H 6713   6.602   1.585   3.099  3.0989 -2.5515  1.4417
   49MOL0     H 6714   6.352   1.577   3.142 -0.9921 -1.9771  0.1434
   49MOL0     H 6715   6.409   1.657   2.991  1.6414 -1.0274 -0.6980
   49MOL0     H 6716   6.316   1.386   2.955  0.3531  0.3110  2.4033
   49MOL0     H 6717   6.200   1.497   2.997  0.5914 -4.7157  2.3466
   49MOL0     H 6718   6.383   1.495   2.769 -0.4896 -4.0674  3.5488
   49MOL0     H 6719   6.213   1.490   2.756  0.2825 -0.4271  1.8569
   49MOL0     H 6720   6.041   1.614   2.873  2.5571 -2.8779 -2.2436
   49MOL0     H 6721   5.730   1.787   2.862 -0.6186 -1.0890  2.6832
   49MOL0     H 6722   5.795   1.639   2.909 -3.1383  2.0248  0.9950
   49MOL0     H 6723   5.749   1.662   2.742  0.7985  2.1325 -1.5771
   49MOL0     H 6724   5.871   2.116   2.273 -0.5505 -0.7745 -1.8862
   49MOL0     H 6725   5.696   2.175   2.139 -2.7049 -3.4984 -0.5849
   49MOL0     H 6726   5.536   2.305   2.032  1.6170 -1.7680 -0.9721
   49MOL0     H 6727   5.486   2.133   2.036  0.7534  0.7870 -1.4340
   49MOL0     H 6728   5.249   2.196   2.038  0.6895 -0.3073  1.1112
   49MOL0     H 6729   5.293   2.366   2.051  0.3370  1.0462 -0.2881
   49MOL0     H 6730   5.213   2.267   1.840 -0.1568  1.1268 -0.8361
   49MOL0     H 6731   5.374   2.218   1.797 -0.4000 -1.1533  1.2401
   49MOL0     H 6732   5.446   2.457   1.833 -0.4596 -1.5925  0.3148
   49MOL0     H 6733   5.283   2.509   1.867  1.7005  3.9789 -2.2945
   49MOL0     H 6734   5.341   2.576   1.665  1.2616 -0.3194  0.6612
   49MOL0     H 6735   5.405   2.423   1.609  1.2715 -1.7760  2.6075
   49MOL0     H 6736   5.109   2.524   1.642  0.7707 -0.8531  1.9646
   49MOL0     H 6737   5.136   2.348   1.638 -0.1392  0.1483  0.4295
   49MOL0     H 6738   5.238   2.371   1.421  2.8096  0.9559  0.8209
   49MOL0     H 6739   5.228   2.552   1.436  1.1255 -0.0828  2.0179
   49MOL0     H 6740   5.040   2.484   1.291  4.3756  0.7936  0.9932
   49MOL0     H 6741   4.975   2.535   1.433  0.8054  1.5086 -1.3374
   49MOL0     H 6742   5.421   2.204   2.467 -0.5517 -2.7724  0.8281
   49MOL0     H 6743   5.586   2.116   2.616  0.4050 -0.0052 -0.4279
   49MOL0     H 6744   6.089   1.995   2.564 -1.3540  1.2836  1.0393
   49MOL0     H 6745   6.280   1.877   2.651 -0.0729 -1.8033  0.9655
   49MOL0     H 6746   7.293   1.550   3.175  3.5269  1.2368  0.1811
   49MOL0     H 6747   7.279   1.768   3.058  0.4293 -0.5019 -1.0116
   49MOL0     H 6748   7.237   2.239   3.137 -0.5171  1.8064 -1.4031
   49MOL0     H 6749   7.247   2.455   3.205  0.1537  2.4259 -2.0013
   49MOL0     H 6750   6.859   2.659   3.279  0.6436  0.2468 -3.2831
   49MOL0     H 6751   6.955   2.684   3.424 -2.0256  3.8000  0.6732
   49MOL0     H 6752   6.992   2.859   3.177 -0.4626  3.2750 -0.5185
   49MOL0     H 6753   7.071   2.875   3.337  1.3519  1.3772 -3.9547
   49MOL0     H 6754   6.781   2.908   3.273 -0.4648 -2.6803  2.5953
   49MOL0     H 6755   6.857   2.921   3.439  3.0208 -3.7206 -0.0007
   49MOL0     H 6756   6.849   3.142   3.378 -2.3014  1.0267 -2.2021
   49MOL0     H 6757   6.855   3.112   3.204 -0.9793 -1.0591  0.5481
   49MOL0     H 6758   7.245   3.202   3.341 -0.1956  2.9182 -4.7355
   49MOL0     H 6759   6.820   2.466   3.240  1.4671  0.5813  3.4489
   49MOL0     H 6760   6.740   2.188   3.095  0.6477  3.2423 -0.6019
   49MOL0     H 6761   6.778   2.129   3.269  5.0013 -1.6462 -1.0663
   49MOL0     H 6762   6.689   2.280   3.236 -1.1859 -1.4794 -0.0425
   50MOL0     O 6763   1.611   1.534   8.904  0.4728  0.6167  0.1396
   50MOL0     C 6764   1.627   1.489   8.792  0.2902 -0.1468  0.0627
   50MOL0     O 6765   1.651   1.562   8.676  0.2243 -0.6828  0.1397
   50MOL0     C 6766   1.616   1.691   8.692 -0.1198 -0.9432  0.1098
   50MOL0     C 6767   1.711   1.786   8.727 -0.2360  0.9339 -0.3295
   50MOL0     C 6768   1.681   1.922   8.726  0.3482 -0.3715  0.9436
   50MOL0     C 6769   1.554   1.960   8.689  0.5038 -0.5947  0.2690
   50MOL0     O 6770   1.528   2.101   8.702  0.0379  0.5530 -0.3932
   50MOL0     C 6771   1.423   2.167   8.638  0.2812 -0.2395 -0.3058
   50MOL0     C 6772   1.469   2.304   8.602 -0.0689  0.5358  0.1528
   50MOL0     C 6773   1.348   2.378   8.537 -0.6815 -0.5061 -0.6311
   50MOL0     C 6774   1.266   2.437   8.644 -0.0239 -0.2580 -0.6968
   50MOL0     C 6775   1.157   2.535   8.584  0.7966  0.0660  0.6646
   50MOL0     C 6776   1.070   2.600   8.692 -0.9580 -0.0084  1.0841
   50MOL0     C 6777   0.988   2.718   8.651 -0.4555 -0.6355 -0.2382
   50MOL0     C 6778   0.901   2.698   8.525 -0.3182  0.0316 -0.1164
   50MOL0     N 6779   0.788   2.601   8.528  0.3681 -0.0750 -0.6048
   50MOL0     C 6780   0.664   2.638   8.579  0.2379  0.5903  0.0991
   50MOL0     C 6781   0.605   2.519   8.605  0.7276 -0.1285 -0.2295
   50MOL0     C 6782   0.467   2.507   8.677  0.5891 -0.2964  0.3567
   50MOL0     C 6783   0.353   2.573   8.573  1.1490  0.2673  0.1919
   50MOL0     C 6784   0.355   2.516   8.429  0.7865  0.9754  0.7564
   50MOL0     C 6785   0.247   2.596   8.369 -0.4987  0.3304 -0.3056
   50MOL0     O 6786   0.209   2.573   8.232  0.4130  0.5446 -0.5146
   50MOL0     C 6787   0.157   2.454   8.217  0.3152  0.6364  0.4906
   50MOL0     C 6788   0.030   2.400   8.262 -0.1628 -0.3722  0.1016
   50MOL0     C 6789  -0.010   2.271   8.239 -0.2557  0.2043 -0.4052
   50MOL0     C 6790  -0.141   2.246   8.306 -0.9465  0.2156  0.5996
   50MOL0     C 6791   0.062   2.184   8.168 -0.9596 -0.5209  0.1767
   50MOL0     C 6792   0.024   2.038   8.144  0.8797 -0.7800 -0.2027
   50MOL0     O 6793   0.129   1.960   8.116  0.2677 -0.5322 -0.1912
   50MOL0     C 6794   0.102   1.826   8.142 -0.0521  0.4238 -0.8551
   50MOL0     C 6795   0.080   1.742   8.034  0.5121 -0.3249  0.4964
   50MOL0     C 6796   0.055   1.604   8.049  0.8375  0.2517  0.1337
   50MOL0     C 6797   0.023   1.550   8.172  0.8716  0.4230 -0.8315
   50MOL0     O 6798  -0.016   1.420   8.174  0.2768 -0.0051 -0.1193
   50MOL0     C 6799  -0.095   1.367   8.288 -0.4294 -0.6340  0.7534
   50MOL0     C 6800  -0.155   1.229   8.257  0.7636  0.5428 -0.6480
   50MOL0     C 6801  -0.243   1.185   8.379 -0.4472  0.7065 -0.2872
   50MOL0     C 6802  -0.373   1.258   8.363  0.0423 -0.1709 -0.2600
   50MOL0     C 6803  -0.464   1.196   8.467 -0.3629 -0.0349 -0.4399
   50MOL0     C 6804  -0.578   1.282   8.499 -0.2699 -0.4255 -0.0013
   50MOL0     C 6805  -0.671   1.242   8.608  0.1194  0.3905  0.8444
   50MOL0     C 6806  -0.787   1.350   8.616 -0.3868  0.2830 -0.2125
   50MOL0    Cl 6807  -0.872   1.349   8.769  0.2959 -0.0890 -0.2155
   50MOL0     C 6808   0.033   1.641   8.290 -0.3511  1.3720  0.1156
   50MOL0     C 6809   0.088   1.766   8.264 -0.4899  0.4888  0.0034
   50MOL0     O 6810  -0.099   2.002   8.133 -0.0510 -0.3937  0.9846
   50MOL0     C 6811   0.192   2.228   8.119 -0.0270  0.0542 -0.3836
   50MOL0     C 6812   0.234   2.362   8.147  0.3117  1.3408 -0.3101
   50MOL0     N 6813   0.679   2.417   8.564  0.1841  0.9221 -0.2304
   50MOL0     N 6814   0.790   2.462   8.527 -0.3571  0.3980  0.3407
   50MOL0     C 6815   1.456   1.868   8.655 -0.5887  0.6601  0.5074
   50MOL0     C 6816   1.493   1.735   8.645 -0.0683 -0.2384 -0.3315
   50MOL0     C 6817   1.632   1.337   8.778 -0.0287 -0.5371  0.1924
   50MOL0     C 6818   1.674   1.288   8.656 -0.0468  0.5271  0.3363
   50MOL0     C 6819   1.690   1.150   8.624 -0.7204 -0.2902  0.1726
   50MOL0     C 6820   1.681   1.057   8.724  0.1480  0.2392 -0.6378
   50MOL0     O 6821   1.707   0.927   8.676 -0.6769 -0.4215  0.4756
   50MOL0     C 6822   1.720   0.813   8.765 -0.6224 -0.7153  0.2621
   50MOL0     C 6823   1.845   0.732   8.743 -0.2951 -0.3842  0.0057
   50MOL0     C 6824   1.845   0.673   8.604 -0.5091  0.3772  0.2357
   50MOL0     C 6825   1.957   0.566   8.581 -0.0588  0.8666  0.9070
   50MOL0     C 6826   2.096   0.621   8.585  0.9898 -0.1305  0.5054
   50MOL0     C 6827   2.205   0.667   8.598  0.3940 -0.4738 -1.0183
   50MOL0     C 6828   1.655   1.101   8.852  0.1313 -0.2408 -0.1015
   50MOL0     C 6829   1.623   1.236   8.879 -0.4582  0.4944  0.3123
   50MOL0     C 6830   1.595   1.269   9.018  0.3442  0.0945 -0.4006
   50MOL0     H 6831   1.801   1.744   8.772 -1.1952  0.8787  1.6607
   50MOL0     H 6832   1.748   2.005   8.744 -0.5333  0.8017 -0.9445
   50MOL0     H 6833   1.344   2.169   8.714  0.4344  0.1541 -0.1554
   50MOL0     H 6834   1.385   2.119   8.547 -2.3195  1.3031 -0.1572
   50MOL0     H 6835   1.516   2.358   8.685 -0.5295 -1.4962  1.8003
   50MOL0     H 6836   1.557   2.288   8.539  0.5305 -0.5148  1.2300
   50MOL0     H 6837   1.390   2.456   8.472  1.4886 -2.5257 -1.8242
   50MOL0     H 6838   1.288   2.312   8.473 -0.4554 -0.6573 -0.6907
   50MOL0     H 6839   1.222   2.353   8.698  2.1318 -0.5982  0.6796
   50MOL0     H 6840   1.330   2.501   8.706 -0.9951 -0.4580  0.5589
   50MOL0     H 6841   1.095   2.484   8.509 -1.9567  2.3595  1.2232
   50MOL0     H 6842   1.204   2.616   8.528 -0.4779 -0.1918 -0.8869
   50MOL0     H 6843   0.998   2.527   8.732 -2.0289  1.4310  1.8706
   50MOL0     H 6844   1.129   2.631   8.778  1.1447 -0.2603 -0.2036
   50MOL0     H 6845   1.057   2.802   8.642 -1.3699 -0.1038 -3.5359
   50MOL0     H 6846   0.914   2.743   8.727 -0.3552  4.0697 -1.3934
   50MOL0     H 6847   0.856   2.795   8.505 -0.8775 -0.0704  0.5962
   50MOL0     H 6848   0.969   2.674   8.443 -1.5687 -0.9556 -0.9008
   50MOL0     H 6849   0.626   2.739   8.590  1.2456  0.8872  1.1447
   50MOL0     H 6850   0.461   2.555   8.775 -3.9193  0.0884  0.0953
   50MOL0     H 6851   0.442   2.402   8.696 -3.9311  0.0660 -2.2473
   50MOL0     H 6852   0.254   2.555   8.616  0.5911  0.7930 -0.8168
   50MOL0     H 6853   0.378   2.679   8.563  4.4366 -0.4930 -0.8006
   50MOL0     H 6854   0.444   2.527   8.367 -0.1106  0.1497 -0.7393
   50MOL0     H 6855   0.337   2.408   8.439  0.7475  0.8726 -0.3043
   50MOL0     H 6856   0.167   2.587   8.442 -1.1406 -1.2172 -1.1476
   50MOL0     H 6857   0.272   2.702   8.361 -1.3707  0.7638  2.0908
   50MOL0     H 6858  -0.032   2.467   8.321  1.7981  0.7096  1.0032
   50MOL0     H 6859  -0.213   2.222   8.227  1.3212 -0.3156 -1.4299
   50MOL0     H 6860  -0.176   2.331   8.366 -1.3155 -0.2676  1.0750
   50MOL0     H 6861  -0.124   2.158   8.367  0.2741 -0.7297 -1.0067
   50MOL0     H 6862   0.080   1.786   7.935 -2.0311 -2.2776 -0.4743
   50MOL0     H 6863   0.040   1.533   7.969 -2.5644  1.2657 -0.2725
   50MOL0     H 6864  -0.025   1.348   8.371 -0.2363  1.6827  1.1684
   50MOL0     H 6865  -0.162   1.441   8.331  0.2397 -1.8240  4.1855
   50MOL0     H 6866  -0.215   1.244   8.166 -0.9464  0.4344  0.4074
   50MOL0     H 6867  -0.070   1.165   8.235  1.2750  0.0458  2.3104
   50MOL0     H 6868  -0.194   1.199   8.476 -0.9727  1.8795 -0.1644
   50MOL0     H 6869  -0.255   1.077   8.374 -1.6180  0.7159  1.3645
   50MOL0     H 6870  -0.418   1.244   8.264  0.1687  2.1368 -0.7144
   50MOL0     H 6871  -0.361   1.363   8.391  0.6807 -0.0298 -1.0081
   50MOL0     H 6872  -0.492   1.096   8.433 -2.6518  0.7970 -1.2032
   50MOL0     H 6873  -0.412   1.177   8.561  0.5841 -2.5423 -1.3768
   50MOL0     H 6874  -0.636   1.286   8.406  2.8836  0.6376 -2.0979
   50MOL0     H 6875  -0.540   1.382   8.520 -2.8112  0.1123  2.6517
   50MOL0     H 6876  -0.622   1.226   8.704  2.4420  1.6512 -0.0530
   50MOL0     H 6877  -0.729   1.154   8.578 -1.8154  1.1446  2.1613
   50MOL0     H 6878  -0.863   1.329   8.541  0.3744  0.9180 -1.1968
   50MOL0     H 6879  -0.746   1.451   8.601 -0.7799  0.5866  0.6534
   50MOL0     H 6880   0.029   1.599   8.390 -0.9335 -0.3828 -0.6165
   50MOL0     H 6881   0.118   1.834   8.344 -0.4474  0.2232  0.2130
   50MOL0     H 6882   0.265   2.166   8.069 -2.6104 -1.7716 -2.1643
   50MOL0     H 6883   0.326   2.390   8.097 -0.3947 -1.7006 -3.7223
   50MOL0     H 6884   1.359   1.898   8.617 -0.3766  2.7979  1.4905
   50MOL0     H 6885   1.424   1.659   8.610  0.9784  0.6699 -5.0145
   50MOL0     H 6886   1.678   1.355   8.570  0.4379  1.0527  0.7650
   50MOL0     H 6887   1.722   1.115   8.526 -0.7425  0.6673 -0.1913
   50MOL0     H 6888   1.728   0.844   8.869  1.9232  0.1581 -0.1142
   50MOL0     H 6889   1.632   0.750   8.755  0.7476 -2.4427 -1.9119
   50MOL0     H 6890   1.833   0.655   8.821 -2.4592 -0.4251 -0.2963
   50MOL0     H 6891   1.936   0.791   8.752 -2.1834  2.6806  0.4453
   50MOL0     H 6892   1.749   0.627   8.582  0.5961 -2.3785  0.8058
   50MOL0     H 6893   1.855   0.754   8.530 -2.6260 -0.4349 -1.0379
   50MOL0     H 6894   1.937   0.504   8.493  0.4723  1.1036  0.6158
   50MOL0     H 6895   1.947   0.494   8.662  3.7972 -1.8081 -0.6978
   50MOL0     H 6896   2.309   0.691   8.609 -0.1244  0.7345  2.3511
   50MOL0     H 6897   1.666   1.034   8.937 -0.1888  0.4416  0.4824
   50MOL0     H 6898   1.608   1.194   9.096 -0.7570  1.2446  0.9506
   50MOL0     H 6899   1.654   1.355   9.051  0.7089 -0.2823 -0.0639
   50MOL0     H 6900   1.492   1.307   9.022  1.4842  3.4214  2.3972
   51MOL0     O 6901   3.632   0.906   2.505  0.9962  0.1144  0.4701
   51MOL0     C 6902   3.648   0.810   2.431 -0.1588 -0.8630 -0.1226
   51MOL0     O 6903   3.715   0.820   2.309 -0.2997  0.4023 -0.3304
   51MOL0     C 6904   3.712   0.925   2.232 -0.2815 -1.0813  0.2758
   51MOL0     C 6905   3.799   0.915   2.123  1.3136 -0.4121  0.1291
   51MOL0     C 6906   3.799   1.022   2.029  0.8689 -0.5367 -0.6690
   51MOL0     C 6907   3.718   1.139   2.046 -0.9968  0.5779  0.8422
   51MOL0     O 6908   3.718   1.234   1.946 -0.5088  0.3421  0.4407
   51MOL0     C 6909   3.667   1.365   1.964  0.5075 -0.1190  1.3731
   51MOL0     C 6910   3.690   1.455   1.837 -0.3478 -0.1745 -0.3164
   51MOL0     C 6911   3.844   1.458   1.809  0.0265  0.0394  0.0319
   51MOL0     C 6912   3.885   1.526   1.679  0.8890  0.5144  0.1089
   51MOL0     C 6913   4.037   1.526   1.669 -0.3569 -0.1000  0.5399
   51MOL0     C 6914   4.123   1.395   1.681  1.7189 -0.9079 -0.0864
   51MOL0     C 6915   4.060   1.285   1.589 -0.4578 -0.7509  0.1441
   51MOL0     C 6916   4.142   1.161   1.612 -0.5199  0.6597 -0.6694
   51MOL0     N 6917   4.080   1.057   1.534 -0.3871  0.1788  0.4214
   51MOL0     C 6918   3.994   0.968   1.580 -0.2539 -0.1365 -0.6042
   51MOL0     C 6919   3.943   0.899   1.478 -0.0779 -0.2694 -0.3940
   51MOL0     C 6920   3.830   0.796   1.487  0.0511 -0.1461  0.1116
   51MOL0     C 6921   3.895   0.651   1.512 -0.0713 -0.4509 -0.6749
   51MOL0     C 6922   3.789   0.547   1.545 -0.1928  0.9339 -0.9567
   51MOL0     C 6923   3.816   0.398   1.527  1.1026  0.1233 -0.2049
   51MOL0     O 6924   3.901   0.340   1.629 -0.6302 -0.5416 -0.4283
   51MOL0     C 6925   3.932   0.213   1.640  1.0350  0.6937 -0.7966
   51MOL0     C 6926   3.972   0.171   1.764  0.1169 -0.2173  0.4185
   51MOL0     C 6927   4.012   0.035   1.783 -0.1479 -0.8260  0.7302
   51MOL0     C 6928   4.049  -0.001   1.927 -1.4040  0.0525  0.4048
   51MOL0     C 6929   4.010  -0.056   1.676  0.2719  0.2122 -0.4987
   51MOL0     C 6930   4.047  -0.200   1.687  0.2318 -0.2738 -0.9538
   51MOL0     O 6931   3.981  -0.288   1.600 -0.3675 -0.0387  0.3752
   51MOL0     C 6932   3.976  -0.420   1.635 -0.1122 -0.5322 -0.8828
   51MOL0     C 6933   3.957  -0.503   1.531  0.2658 -0.1289  0.3604
   51MOL0     C 6934   3.948  -0.639   1.559 -0.1123 -0.1687 -0.9741
   51MOL0     C 6935   3.976  -0.693   1.684 -0.0321 -0.3149 -0.5403
   51MOL0     O 6936   3.954  -0.825   1.703  1.1143  0.2260  0.7188
   51MOL0     C 6937   3.976  -0.892   1.824  0.0790  0.2520  0.6734
   51MOL0     C 6938   3.923  -1.039   1.800  0.0818  0.1270  0.2294
   51MOL0     C 6939   4.034  -1.137   1.746  0.3393  0.6708  0.2414
   51MOL0     C 6940   3.961  -1.273   1.712  0.3942 -1.5387 -0.0857
   51MOL0     C 6941   4.036  -1.367   1.615 -0.1385  0.6631  0.5532
   51MOL0     C 6942   3.985  -1.520   1.619 -0.8089  0.9370 -0.3263
   51MOL0     C 6943   4.100  -1.614   1.560 -0.1423 -0.2085  0.2252
   51MOL0     C 6944   4.114  -1.747   1.642  0.1141 -0.4117 -0.4075
   51MOL0    Cl 6945   3.961  -1.835   1.654 -0.1272  0.0019  0.4572
   51MOL0     C 6946   3.995  -0.608   1.798  1.1784 -0.2425 -0.3020
   51MOL0     C 6947   4.001  -0.468   1.772  0.0832 -0.4249  0.2372
   51MOL0     O 6948   4.149  -0.234   1.751  0.0760 -0.4002 -0.1357
   51MOL0     C 6949   3.950  -0.016   1.557  0.1096 -0.5051 -0.6400
   51MOL0     C 6950   3.907   0.116   1.539 -0.2381  0.4990 -0.0372
   51MOL0     N 6951   3.996   0.951   1.366 -0.2677  0.0416 -0.6026
   51MOL0     N 6952   4.084   1.041   1.397  0.5652 -0.2402  0.4707
   51MOL0     C 6953   3.641   1.149   2.159  0.0983  0.4575  0.5887
   51MOL0     C 6954   3.638   1.038   2.249 -0.6891  0.3542  0.4142
   51MOL0     C 6955   3.591   0.679   2.473  0.2449  0.0821 -0.2464
   51MOL0     C 6956   3.481   0.687   2.555  0.5322 -0.4048 -0.4526
   51MOL0     C 6957   3.411   0.579   2.588  0.0071 -0.1452 -0.1909
   51MOL0     C 6958   3.448   0.453   2.532  0.0693 -0.1498  0.2394
   51MOL0     O 6959   3.380   0.333   2.544  0.3797  0.4575  0.0564
   51MOL0     C 6960   3.268   0.327   2.633  0.0708  0.5146  1.2657
   51MOL0     C 6961   3.260   0.184   2.672 -0.3136 -0.0169  0.0134
   51MOL0     C 6962   3.376   0.134   2.765 -0.1761  0.5615  0.2847
   51MOL0     C 6963   3.507   0.116   2.676  0.4318 -0.8253  0.1242
   51MOL0     C 6964   3.582  -0.002   2.703  0.0021  0.7741 -0.3807
   51MOL0     C 6965   3.623  -0.113   2.734 -1.1442  0.0887 -0.3351
   51MOL0     C 6966   3.552   0.447   2.448  0.6251  0.1226 -0.3423
   51MOL0     C 6967   3.637   0.558   2.428  0.8504  0.4136 -0.7196
   51MOL0     C 6968   3.768   0.541   2.355 -0.3718  0.1870 -0.9492
   51MOL0     H 6969   3.862   0.831   2.099  2.5987  1.0349 -1.8828
   51MOL0     H 6970   3.869   1.008   1.948 -0.3449 -0.4791 -1.7471
   51MOL0     H 6971   3.708   1.419   2.050  1.2100 -0.1283  1.0505
   51MOL0     H 6972   3.558   1.360   1.969  0.5688 -1.1925  1.8984
   51MOL0     H 6973   3.643   1.401   1.755  1.0301 -2.9712  0.6185
   51MOL0     H 6974   3.668   1.561   1.854  1.3517  0.1685 -0.1109
   51MOL0     H 6975   3.891   1.502   1.897 -1.0387  3.3011 -0.8919
   51MOL0     H 6976   3.884   1.357   1.794 -0.6238  0.1492 -3.2079
   51MOL0     H 6977   3.849   1.466   1.595  0.8168 -0.2815  0.7004
   51MOL0     H 6978   3.831   1.621   1.675 -1.3539 -0.7003 -3.8709
   51MOL0     H 6979   4.075   1.603   1.736 -0.7737  1.6714 -1.1669
   51MOL0     H 6980   4.064   1.555   1.566  0.6992 -1.9408  0.2543
   51MOL0     H 6981   4.230   1.416   1.672  1.4789 -0.3159 -1.9601
   51MOL0     H 6982   4.104   1.360   1.783 -2.3268 -0.0089 -0.3619
   51MOL0     H 6983   4.066   1.325   1.487 -0.8600  1.3736  0.8916
   51MOL0     H 6984   3.956   1.259   1.608 -0.5136 -0.1473  0.6957
   51MOL0     H 6985   4.245   1.166   1.576  0.0075  0.0538  0.6885
   51MOL0     H 6986   4.131   1.132   1.717  0.6124  1.1628 -0.4005
   51MOL0     H 6987   3.973   0.954   1.685 -1.3810  3.4760 -0.2230
   51MOL0     H 6988   3.774   0.780   1.394 -0.2483  2.0089 -0.1298
   51MOL0     H 6989   3.748   0.834   1.549 -0.6323 -1.2490 -0.0793
   51MOL0     H 6990   3.956   0.625   1.426  0.1919  3.0276 -1.6917
   51MOL0     H 6991   3.957   0.651   1.603 -1.0904 -2.2487  0.0690
   51MOL0     H 6992   3.748   0.557   1.646  0.4036 -3.1461 -0.1298
   51MOL0     H 6993   3.714   0.569   1.468  3.0410  1.9635 -4.0671
   51MOL0     H 6994   3.720   0.346   1.528  1.0938 -0.0123 -2.5288
   51MOL0     H 6995   3.865   0.372   1.433  4.7848 -0.2382  1.6364
   51MOL0     H 6996   3.968   0.243   1.845  0.9769  2.8480 -2.0292
   51MOL0     H 6997   4.026   0.082   1.993 -1.5704 -0.2238  0.6977
   51MOL0     H 6998   4.148  -0.045   1.940 -1.6550 -0.2591  1.2992
   51MOL0     H 6999   3.980  -0.079   1.962 -0.3175 -1.2233 -0.2041
   51MOL0     H 7000   3.949  -0.466   1.429 -1.9201  1.1666  0.9535
   51MOL0     H 7001   3.934  -0.712   1.480  0.0151 -1.3963  0.0977
   51MOL0     H 7002   4.081  -0.897   1.855  0.3012 -1.1356 -0.1936
   51MOL0     H 7003   3.919  -0.849   1.906 -1.8252 -2.4000  0.8671
   51MOL0     H 7004   3.890  -1.088   1.892  2.8602 -3.4875 -0.4575
   51MOL0     H 7005   3.842  -1.037   1.727  2.2441 -0.4237 -2.3394
   51MOL0     H 7006   4.118  -1.147   1.815 -0.6980 -1.1128  1.3264
   51MOL0     H 7007   4.064  -1.109   1.644  0.1193 -0.4695 -0.1536
   51MOL0     H 7008   3.866  -1.256   1.661  3.0272  1.4710 -4.7083
   51MOL0     H 7009   3.954  -1.332   1.804 -1.0368 -1.1254  0.0853
   51MOL0     H 7010   4.033  -1.339   1.509 -1.0612 -1.8386 -0.1489
   51MOL0     H 7011   4.139  -1.365   1.653  0.1708  3.9573 -0.1687
   51MOL0     H 7012   3.890  -1.523   1.563 -0.9902  3.0632 -0.1954
   51MOL0     H 7013   3.956  -1.543   1.722 -1.5171  0.1331 -0.6930
   51MOL0     H 7014   4.195  -1.561   1.573  0.1648 -0.7562  0.2392
   51MOL0     H 7015   4.096  -1.635   1.453 -2.4034 -0.1509  0.2525
   51MOL0     H 7016   4.154  -1.710   1.737  0.8689 -0.1970 -0.7921
   51MOL0     H 7017   4.192  -1.810   1.597  0.7272  1.8757 -2.8170
   51MOL0     H 7018   3.998  -0.636   1.903 -0.9032  1.1530  0.1824
   51MOL0     H 7019   4.014  -0.395   1.851  1.2706  3.5113 -3.2169
   51MOL0     H 7020   3.935  -0.087   1.476 -1.0835  0.6627 -1.5001
   51MOL0     H 7021   3.875   0.154   1.443  4.1709 -0.3215 -2.0731
   51MOL0     H 7022   3.581   1.236   2.182  0.7738  1.5578 -1.5172
   51MOL0     H 7023   3.565   1.045   2.329  0.3656 -0.5330  1.4893
   51MOL0     H 7024   3.455   0.784   2.597  0.2634 -0.0471 -1.4153
   51MOL0     H 7025   3.325   0.590   2.654  1.4366  1.2653  1.5674
   51MOL0     H 7026   3.276   0.388   2.724  0.7825  4.2943 -1.0753
   51MOL0     H 7027   3.174   0.353   2.583  2.0204  0.5691 -2.8044
   51MOL0     H 7028   3.244   0.113   2.591 -0.5332 -0.1057  0.1320
   51MOL0     H 7029   3.174   0.170   2.739 -0.2364  0.8062  0.2961
   51MOL0     H 7030   3.391   0.207   2.845 -1.0452 -1.8012  2.7309
   51MOL0     H 7031   3.351   0.039   2.811  1.3446 -0.9226 -1.7475
   51MOL0     H 7032   3.573   0.203   2.672 -0.4159 -0.1930 -0.3705
   51MOL0     H 7033   3.485   0.102   2.570  0.0864 -4.7897  0.5798
   51MOL0     H 7034   3.666  -0.210   2.748  3.3611  2.0045  0.7436
   51MOL0     H 7035   3.582   0.348   2.414 -0.0658 -1.5277  3.3953
   51MOL0     H 7036   3.808   0.440   2.356 -1.2999 -0.1870 -1.2898
   51MOL0     H 7037   3.762   0.575   2.251  0.5298  1.7618 -0.5275
   51MOL0     H 7038   3.848   0.595   2.408 -0.9784  0.2761 -0.1024
   52MOL0     O 7039   9.025   4.341   7.973 -0.1175  0.1536  0.4931
   52MOL0     C 7040   8.924   4.400   7.927 -0.5436 -0.3942 -0.9098
   52MOL0     O 7041   8.794   4.354   7.927 -0.7574  0.0514 -0.2132
   52MOL0     C 7042   8.777   4.216   7.943 -0.2993 -0.3947  0.3684
   52MOL0     C 7043   8.669   4.168   8.023 -0.5542 -0.0859  0.0809
   52MOL0     C 7044   8.647   4.031   8.036  0.6923  0.7813  1.0633
   52MOL0     C 7045   8.730   3.942   7.976 -0.3862  0.7979  0.1774
   52MOL0     O 7046   8.696   3.809   7.999 -0.4804 -0.5699 -0.2903
   52MOL0     C 7047   8.796   3.705   7.995  0.0049  0.3242  0.2878
   52MOL0     C 7048   8.800   3.641   7.855 -0.1083  0.2248 -0.3451
   52MOL0     C 7049   8.890   3.512   7.878 -0.0728  0.5210 -0.7020
   52MOL0     C 7050   8.970   3.474   7.745  0.6649 -0.2285 -1.4747
   52MOL0     C 7051   9.093   3.565   7.713  0.5242  0.3544  0.1989
   52MOL0     C 7052   9.166   3.527   7.588  0.6637  0.1535 -0.6209
   52MOL0     C 7053   9.296   3.610   7.579  0.0220  0.4681 -0.7399
   52MOL0     C 7054   9.408   3.529   7.663  0.1596 -0.3456  0.1717
   52MOL0     N 7055   9.532   3.610   7.656 -0.3061  0.2076  0.0222
   52MOL0     C 7056   9.576   3.688   7.755  0.1522  0.2432  0.3036
   52MOL0     C 7057   9.698   3.725   7.720  0.4671  1.4308  0.3989
   52MOL0     C 7058   9.779   3.806   7.813  0.1124 -1.0617 -0.8203
   52MOL0     C 7059   9.835   3.917   7.719 -0.1449 -0.1986  0.0970
   52MOL0     C 7060   9.914   4.025   7.792 -0.1313  0.6103 -0.2949
   52MOL0     C 7061   9.825   4.120   7.870 -0.3290 -0.0808 -0.2692
   52MOL0     O 7062   9.736   4.188   7.791  0.0422  0.1275 -0.1706
   52MOL0     C 7063   9.792   4.300   7.735 -0.7131  0.4018 -0.7240
   52MOL0     C 7064   9.837   4.306   7.605 -0.1698  0.6010 -0.6332
   52MOL0     C 7065   9.888   4.420   7.554 -0.7381  0.2644  0.8297
   52MOL0     C 7066   9.934   4.425   7.405 -0.4533 -0.1075 -0.5517
   52MOL0     C 7067   9.891   4.536   7.632 -1.1814  0.0833  0.1494
   52MOL0     C 7068   9.939   4.671   7.578 -0.2894  0.2111  0.1315
   52MOL0     O 7069   9.907   4.704   7.445  0.0652 -0.5070  0.2799
   52MOL0     C 7070   9.958   4.827   7.399  0.3996  0.7805  0.5268
   52MOL0     C 7071   9.932   4.944   7.471  0.1744  0.7014 -0.1763
   52MOL0     C 7072   9.991   5.062   7.426 -0.5415  0.1471 -0.0563
   52MOL0     C 7073  10.075   5.055   7.305 -0.7444  0.5548  0.0663
   52MOL0     O 7074  10.139   5.172   7.277  0.0052  0.5107  0.0524
   52MOL0     C 7075  10.260   5.175   7.201 -0.3356 -0.2998  0.5017
   52MOL0     C 7076  10.290   5.321   7.167  0.4280 -0.3302  0.2760
   52MOL0     C 7077  10.337   5.407   7.294  0.2773 -0.3298  0.3382
   52MOL0     C 7078  10.428   5.522   7.245 -0.0304  0.7356 -0.5282
   52MOL0     C 7079  10.464   5.601   7.362  0.9324  0.0706 -0.4004
   52MOL0     C 7080  10.511   5.740   7.323  0.3529 -0.7241  0.6354
   52MOL0     C 7081  10.633   5.718   7.227  0.0729  0.2038 -0.6952
   52MOL0     C 7082  10.747   5.822   7.239  0.6614 -0.2010  0.5884
   52MOL0    Cl 7083  10.827   5.852   7.390 -0.0818  0.1812 -0.3750
   52MOL0     C 7084  10.086   4.937   7.224 -0.1838  0.0451 -0.6698
   52MOL0     C 7085  10.036   4.822   7.289 -0.7550 -0.4768 -0.7953
   52MOL0     O 7086   9.994   4.747   7.656  0.2545 -0.4259  0.0430
   52MOL0     C 7087   9.867   4.524   7.772  0.0665 -0.3548 -0.4649
   52MOL0     C 7088   9.820   4.406   7.822  0.3907  0.4717  0.4167
   52MOL0     N 7089   9.731   3.672   7.599 -0.7833  0.6161 -0.8698
   52MOL0     N 7090   9.631   3.600   7.556  0.5974 -0.8551 -0.1498
   52MOL0     C 7091   8.836   3.985   7.891 -0.1801 -0.8018  1.0697
   52MOL0     C 7092   8.859   4.121   7.881  1.3198 -0.1496 -1.2810
   52MOL0     C 7093   8.947   4.540   7.887  0.6767 -0.1907 -0.8543
   52MOL0     C 7094   8.840   4.634   7.906  0.9877 -0.4551  0.1181
   52MOL0     C 7095   8.846   4.764   7.852 -0.1013  0.2366  0.1002
   52MOL0     C 7096   8.952   4.796   7.767  1.5231  0.7370  0.4180
   52MOL0     O 7097   8.941   4.916   7.702  0.4690  0.4441  0.1799
   52MOL0     C 7098   9.023   4.954   7.590 -1.0427 -0.0364 -0.8649
   52MOL0     C 7099   9.136   5.066   7.636  0.7284  0.4893 -1.0341
   52MOL0     C 7100   9.059   5.185   7.683  1.2605 -0.3199 -0.0135
   52MOL0     C 7101   9.150   5.307   7.704  0.5350 -0.4219  0.2534
   52MOL0     C 7102   9.091   5.407   7.797 -0.6927  0.2335 -0.1938
   52MOL0     C 7103   9.047   5.483   7.874 -0.6548  0.4989  0.6081
   52MOL0     C 7104   9.069   4.720   7.774  0.6444 -0.0656  0.1526
   52MOL0     C 7105   9.068   4.592   7.834  0.4320  0.8592  1.5459
   52MOL0     C 7106   9.197   4.508   7.811  1.1588  0.1164 -0.2287
   52MOL0     H 7107   8.609   4.240   8.079 -0.0606 -0.6701  1.3981
   52MOL0     H 7108   8.558   3.986   8.079 -0.2691  1.5424 -0.0398
   52MOL0     H 7109   8.773   3.640   8.079 -1.0556  1.4647  0.9183
   52MOL0     H 7110   8.893   3.753   8.013  1.0006 -1.1673 -0.9302
   52MOL0     H 7111   8.707   3.601   7.814 -0.7046  2.8791 -1.8303
   52MOL0     H 7112   8.841   3.709   7.780  0.5990 -0.6093 -0.7274
   52MOL0     H 7113   8.968   3.524   7.954  3.6768  1.5901 -4.3372
   52MOL0     H 7114   8.821   3.429   7.892  1.1155 -0.6846 -1.7150
   52MOL0     H 7115   9.003   3.373   7.774 -0.5340 -0.1527  0.3432
   52MOL0     H 7116   8.896   3.471   7.665  1.7639 -1.2081 -2.4987
   52MOL0     H 7117   9.166   3.571   7.795  0.7535 -4.7882  0.6514
   52MOL0     H 7118   9.055   3.668   7.705 -1.2807 -0.2313  0.7605
   52MOL0     H 7119   9.193   3.421   7.594  2.1019  0.5750  1.5661
   52MOL0     H 7120   9.098   3.541   7.503  0.7182  3.5509 -0.2643
   52MOL0     H 7121   9.278   3.706   7.629  1.1393  0.6209 -0.6184
   52MOL0     H 7122   9.321   3.629   7.474  0.3983  2.3547 -0.3501
   52MOL0     H 7123   9.373   3.513   7.765  1.1390 -0.5525  0.4863
   52MOL0     H 7124   9.427   3.434   7.613 -0.7687 -0.0555 -0.7759
   52MOL0     H 7125   9.529   3.708   7.851 -0.6121  0.0761 -0.0291
   52MOL0     H 7126   9.852   3.739   7.860 -1.0940 -1.8083  0.0510
   52MOL0     H 7127   9.707   3.844   7.886 -1.7130 -2.1483 -1.9743
   52MOL0     H 7128   9.898   3.866   7.645  0.0559  0.5857 -0.2837
   52MOL0     H 7129   9.757   3.969   7.663  1.0559  2.2386  0.5638
   52MOL0     H 7130   9.981   3.979   7.866 -1.5358  1.2993  1.5090
   52MOL0     H 7131   9.980   4.071   7.719  1.9605 -0.5619  0.7762
   52MOL0     H 7132   9.779   4.066   7.953  0.5654  2.4277  2.0236
   52MOL0     H 7133   9.887   4.189   7.928 -1.7233  0.2434  0.8881
   52MOL0     H 7134   9.814   4.221   7.542  0.7094 -1.4921  1.6880
   52MOL0     H 7135   9.952   4.324   7.365  0.3921  0.5384 -1.8940
   52MOL0     H 7136  10.024   4.483   7.382  0.8963 -2.2837 -1.1887
   52MOL0     H 7137   9.856   4.459   7.337 -0.0120  1.5719 -0.2508
   52MOL0     H 7138   9.865   4.939   7.556  1.2003 -1.3350  0.5554
   52MOL0     H 7139   9.974   5.149   7.487 -0.7391 -1.0040  1.5857
   52MOL0     H 7140  10.339   5.139   7.268 -0.5713 -1.3194  0.2430
   52MOL0     H 7141  10.248   5.123   7.106 -0.2848  0.7035 -0.0675
   52MOL0     H 7142  10.362   5.332   7.085  0.7819  5.4430  0.9878
   52MOL0     H 7143  10.208   5.366   7.109  1.6301 -0.7262 -1.8526
   52MOL0     H 7144  10.389   5.347   7.370 -2.6117 -0.6457  2.2187
   52MOL0     H 7145  10.251   5.450   7.346 -0.3682 -0.5278 -0.5381
   52MOL0     H 7146  10.387   5.578   7.160 -0.8293  2.0705  0.6899
   52MOL0     H 7147  10.519   5.474   7.206 -0.7350  0.1421 -1.4817
   52MOL0     H 7148  10.370   5.621   7.413  1.0833  3.6888 -1.2814
   52MOL0     H 7149  10.537   5.564   7.434  3.0269  3.1789 -0.7205
   52MOL0     H 7150  10.534   5.808   7.406  0.2131  2.1269 -1.5284
   52MOL0     H 7151  10.431   5.775   7.258 -1.8675 -1.7887  2.6018
   52MOL0     H 7152  10.604   5.697   7.124 -0.1015  0.0454 -0.6152
   52MOL0     H 7153  10.689   5.629   7.255 -0.1585 -0.8939 -3.4731
   52MOL0     H 7154  10.703   5.911   7.194  2.9053  1.1908  1.0163
   52MOL0     H 7155  10.822   5.780   7.171 -1.7403 -2.5024 -0.8336
   52MOL0     H 7156  10.139   4.929   7.130  0.6146  0.2342 -0.2404
   52MOL0     H 7157  10.041   4.733   7.228 -0.2890  0.3246 -1.9652
   52MOL0     H 7158   9.880   4.598   7.850 -2.5135 -0.5228  0.2195
   52MOL0     H 7159   9.799   4.403   7.928 -1.5564  1.8639  0.1127
   52MOL0     H 7160   8.910   3.920   7.846  0.2120 -1.4231  2.5255
   52MOL0     H 7161   8.941   4.152   7.817  2.5066  0.8990  0.6395
   52MOL0     H 7162   8.756   4.598   7.965  0.7453  3.0649  2.1599
   52MOL0     H 7163   8.770   4.837   7.877  0.9193  0.9961  1.1122
   52MOL0     H 7164   9.074   4.867   7.548 -1.1278 -0.5124 -0.0192
   52MOL0     H 7165   8.974   5.009   7.510 -0.3157  0.0799 -1.2363
   52MOL0     H 7166   9.205   5.093   7.556  3.0679 -0.6964  0.4482
   52MOL0     H 7167   9.207   5.034   7.713  1.1259  0.6155 -1.3462
   52MOL0     H 7168   8.977   5.218   7.619  0.5902  1.8187  1.8291
   52MOL0     H 7169   9.009   5.163   7.778 -0.0507  0.7770 -0.4121
   52MOL0     H 7170   9.177   5.339   7.603  2.2840 -2.0842  0.1393
   52MOL0     H 7171   9.240   5.266   7.749 -1.3586 -3.8240  1.2787
   52MOL0     H 7172   9.004   5.556   7.939 -0.5685  1.4585 -0.3808
   52MOL0     H 7173   9.161   4.754   7.728  0.7149 -3.0936 -2.2496
   52MOL0     H 7174   9.233   4.473   7.908 -0.0676  0.7000  0.4726
   52MOL0     H 7175   9.179   4.428   7.739 -2.6412  1.7122 -1.3371
   52MOL0     H 7176   9.264   4.577   7.758 -2.5889  2.0854 -2.8784
   53MOL0     O 7177   1.520   5.221   8.507 -0.3163  0.1275 -0.5933
   53MOL0     C 7178   1.563   5.287   8.604 -0.5057  0.0245 -0.0150
   53MOL0     O 7179   1.484   5.365   8.683 -0.1128 -0.7533  0.0986
   53MOL0     C 7180   1.356   5.382   8.647  0.0042 -0.1314 -0.1138
   53MOL0     C 7181   1.264   5.294   8.704  0.7778  0.1192 -0.9301
   53MOL0     C 7182   1.127   5.308   8.673 -1.2954 -0.4841 -0.2651
   53MOL0     C 7183   1.089   5.416   8.594  0.1618 -0.1812  0.7996
   53MOL0     O 7184   0.957   5.441   8.557  0.1918  0.3861  0.3081
   53MOL0     C 7185   0.867   5.329   8.581  0.1730  0.6264 -0.2335
   53MOL0     C 7186   0.728   5.337   8.511 -0.6804  0.2259  0.1623
   53MOL0     C 7187   0.745   5.344   8.352 -0.9178  0.2924 -0.1053
   53MOL0     C 7188   0.611   5.385   8.290  0.0959  0.9029 -0.7430
   53MOL0     C 7189   0.631   5.387   8.149  0.0605  0.8525  0.2610
   53MOL0     C 7190   0.713   5.506   8.095  1.0091  0.3974  0.5814
   53MOL0     C 7191   0.719   5.475   7.939 -0.6309 -0.5736 -1.2679
   53MOL0     C 7192   0.806   5.585   7.875 -0.0572 -1.3132  0.2894
   53MOL0     N 7193   0.737   5.722   7.861 -1.6522  0.5319  0.0210
   53MOL0     C 7194   0.744   5.828   7.942 -0.7210  0.1775 -0.5915
   53MOL0     C 7195   0.656   5.917   7.905  0.1318 -0.1520  0.1157
   53MOL0     C 7196   0.644   6.049   7.973  1.1088 -0.1368  0.7947
   53MOL0     C 7197   0.759   6.145   7.936 -0.1468  0.6592  0.1103
   53MOL0     C 7198   0.765   6.276   8.021  0.6610 -0.1205 -0.1238
   53MOL0     C 7199   0.895   6.359   7.995 -0.0797  0.9759  0.7713
   53MOL0     O 7200   0.847   6.491   7.999  0.4448 -0.2476 -1.1616
   53MOL0     C 7201   0.942   6.585   7.974 -0.8504  2.1803  0.7634
   53MOL0     C 7202   1.021   6.598   7.857  0.6251  0.0124  0.4751
   53MOL0     C 7203   1.113   6.694   7.830 -0.7782 -0.1378  0.7485
   53MOL0     C 7204   1.196   6.695   7.701 -0.1831  0.1351  0.0769
   53MOL0     C 7205   1.117   6.804   7.917 -0.5310  0.1798 -0.6072
   53MOL0     C 7206   1.179   6.934   7.884  1.3268  0.3315  0.2533
   53MOL0     O 7207   1.155   6.973   7.759 -0.3410 -0.2573 -0.2409
   53MOL0     C 7208   1.231   7.061   7.680  0.1739 -0.0120 -1.0213
   53MOL0     C 7209   1.365   7.029   7.644  0.3072  0.0397  0.9620
   53MOL0     C 7210   1.451   7.120   7.573  0.1413  0.0143  0.6929
   53MOL0     C 7211   1.400   7.239   7.526 -0.1645  0.0647  0.6914
   53MOL0     O 7212   1.489   7.325   7.462  0.1445  0.2922 -0.5220
   53MOL0     C 7213   1.442   7.420   7.368 -0.2665 -0.3460 -0.2914
   53MOL0     C 7214   1.560   7.464   7.281  0.7631  0.9056  0.3108
   53MOL0     C 7215   1.536   7.599   7.212  0.8518  0.5519  0.2501
   53MOL0     C 7216   1.439   7.587   7.098  0.1090  0.3444  0.1634
   53MOL0     C 7217   1.431   7.719   7.019  0.8801  0.5468  0.1534
   53MOL0     C 7218   1.313   7.704   6.913  0.1968  0.6695  0.6675
   53MOL0     C 7219   1.252   7.830   6.852  0.3027  0.1126  0.5284
   53MOL0     C 7220   1.329   7.919   6.751 -0.5685  0.0335  0.1975
   53MOL0    Cl 7221   1.318   7.868   6.585  0.0087 -0.1917  0.4256
   53MOL0     C 7222   1.261   7.266   7.548 -0.0664 -0.5557 -0.7231
   53MOL0     C 7223   1.185   7.184   7.630  0.1370 -0.4983  0.2944
   53MOL0     O 7224   1.243   6.988   7.973  0.1816 -0.2094  0.6025
   53MOL0     C 7225   1.059   6.788   8.049  0.3843  0.7344  0.3996
   53MOL0     C 7226   0.974   6.673   8.072 -0.0062 -0.3299 -0.0909
   53MOL0     N 7227   0.593   5.862   7.790 -0.1871 -0.4420  0.2467
   53MOL0     N 7228   0.639   5.747   7.770 -0.0892 -0.8556 -0.9532
   53MOL0     C 7229   1.184   5.503   8.541  0.7404 -0.2162 -0.4480
   53MOL0     C 7230   1.317   5.492   8.572 -0.4223 -0.3393 -0.4689
   53MOL0     C 7231   1.700   5.286   8.626 -0.8123 -0.0397 -0.6481
   53MOL0     C 7232   1.754   5.178   8.701  0.6432 -0.2266  0.2872
   53MOL0     C 7233   1.879   5.177   8.748 -0.4557  0.2045 -0.5939
   53MOL0     C 7234   1.959   5.294   8.732 -0.1006  0.9145 -0.1307
   53MOL0     O 7235   2.086   5.281   8.780  0.3441  0.1100 -0.2711
   53MOL0     C 7236   2.153   5.402   8.801  0.8477 -0.1978 -0.8883
   53MOL0     C 7237   2.266   5.429   8.704 -0.3972 -0.3243 -0.7528
   53MOL0     C 7238   2.336   5.565   8.723  0.7710  0.7805 -0.4577
   53MOL0     C 7239   2.382   5.582   8.869  0.0520 -0.8942 -0.1027
   53MOL0     C 7240   2.479   5.493   8.921 -0.6416  0.6658 -0.2564
   53MOL0     C 7241   2.541   5.401   8.985  1.4710  0.4166 -0.1320
   53MOL0     C 7242   1.904   5.400   8.654  0.0193 -0.7312 -1.6487
   53MOL0     C 7243   1.780   5.395   8.596 -0.4403  0.1397 -0.0176
   53MOL0     C 7244   1.730   5.506   8.502 -0.0829  0.3513  0.5930
   53MOL0     H 7245   1.307   5.222   8.774  0.1188  1.5279  1.0054
   53MOL0     H 7246   1.070   5.227   8.717  1.0175 -1.5240  1.0284
   53MOL0     H 7247   0.840   5.324   8.686 -0.9322  1.3297 -0.4683
   53MOL0     H 7248   0.903   5.234   8.540 -3.0766  0.0054 -2.0137
   53MOL0     H 7249   0.673   5.244   8.526  0.9120 -0.9005 -0.6250
   53MOL0     H 7250   0.685   5.432   8.544 -3.9426 -0.2896 -2.1472
   53MOL0     H 7251   0.820   5.421   8.332  1.4542 -1.9984 -0.5039
   53MOL0     H 7252   0.798   5.255   8.318 -0.6784  0.3112  0.2142
   53MOL0     H 7253   0.538   5.311   8.326  0.4949  0.1959 -1.3536
   53MOL0     H 7254   0.583   5.487   8.320  4.8110  1.9938  0.7965
   53MOL0     H 7255   0.531   5.377   8.105  0.6564 -1.2868 -0.7648
   53MOL0     H 7256   0.690   5.298   8.123 -2.0495 -0.4359 -0.4265
   53MOL0     H 7257   0.657   5.599   8.111 -3.0334 -1.9116  1.1446
   53MOL0     H 7258   0.813   5.498   8.139  0.0586  2.1161  3.3606
   53MOL0     H 7259   0.624   5.478   7.884 -0.6076 -0.4004 -1.2987
   53MOL0     H 7260   0.760   5.374   7.933  0.8611 -0.0253 -0.7517
   53MOL0     H 7261   0.890   5.604   7.942 -0.7527  0.3704  0.7452
   53MOL0     H 7262   0.838   5.557   7.774 -1.2553  1.9643 -1.1348
   53MOL0     H 7263   0.809   5.834   8.028 -0.7791 -2.8240 -0.2233
   53MOL0     H 7264   0.652   6.023   8.079 -0.5840  0.4940  1.1003
   53MOL0     H 7265   0.545   6.090   7.953  2.7948  3.3350 -1.3520
   53MOL0     H 7266   0.848   6.085   7.955  0.4136  0.3044 -3.1604
   53MOL0     H 7267   0.746   6.164   7.830 -2.3951  1.2873  0.4472
   53MOL0     H 7268   0.677   6.337   7.997 -0.3846 -0.1320  3.1969
   53MOL0     H 7269   0.750   6.255   8.127  1.3977 -2.5258 -0.4243
   53MOL0     H 7270   0.965   6.323   8.071  0.1623  1.8824  0.9816
   53MOL0     H 7271   0.932   6.332   7.895  0.5648 -1.3852  1.5757
   53MOL0     H 7272   1.016   6.513   7.789  1.0804  2.0123 -2.2138
   53MOL0     H 7273   1.192   6.596   7.654 -1.9658 -0.3452  1.1319
   53MOL0     H 7274   1.301   6.714   7.723  0.0511  1.8894 -2.1621
   53MOL0     H 7275   1.155   6.766   7.628  1.4800 -0.0770 -1.1147
   53MOL0     H 7276   1.405   6.931   7.665  1.4239  0.0898 -0.7413
   53MOL0     H 7277   1.555   7.103   7.547  0.3417 -0.2997  1.6333
   53MOL0     H 7278   1.358   7.379   7.312 -1.4262  1.4690  0.0306
   53MOL0     H 7279   1.397   7.502   7.424 -2.3652 -1.3090 -0.4588
   53MOL0     H 7280   1.643   7.468   7.352  3.2241 -1.8030 -2.1476
   53MOL0     H 7281   1.594   7.387   7.211  0.6743  0.1758  1.0531
   53MOL0     H 7282   1.628   7.629   7.161 -0.9702  2.9228 -1.8608
   53MOL0     H 7283   1.501   7.671   7.287  0.1062 -0.5734  1.0075
   53MOL0     H 7284   1.338   7.572   7.136  0.2372  0.8890  0.7433
   53MOL0     H 7285   1.464   7.511   7.024  1.2205  1.6812 -0.9025
   53MOL0     H 7286   1.414   7.802   7.090 -1.5087  0.2758 -0.0076
   53MOL0     H 7287   1.526   7.728   6.966  0.7466 -4.1333 -1.3258
   53MOL0     H 7288   1.239   7.654   6.975 -1.8649 -0.5156 -2.4799
   53MOL0     H 7289   1.350   7.645   6.828 -0.1804  2.0991 -0.5220
   53MOL0     H 7290   1.220   7.885   6.941 -1.0734 -1.0608  0.8016
   53MOL0     H 7291   1.169   7.792   6.793  2.4510  1.0991 -3.5060
   53MOL0     H 7292   1.434   7.930   6.779 -0.2129  1.1768 -1.3964
   53MOL0     H 7293   1.292   8.022   6.758  0.2418  0.3319  0.0994
   53MOL0     H 7294   1.212   7.359   7.520 -0.8498 -0.2854  1.3675
   53MOL0     H 7295   1.086   7.213   7.663  0.7888  2.6594 -0.1649
   53MOL0     H 7296   1.058   6.870   8.121  1.3568  0.1045  1.1491
   53MOL0     H 7297   0.905   6.684   8.155 -0.9249  4.7710 -1.1992
   53MOL0     H 7298   1.144   5.581   8.477  0.7851 -1.0966 -1.5665
   53MOL0     H 7299   1.380   5.563   8.519  0.5743 -1.6996 -1.1516
   53MOL0     H 7300   1.691   5.091   8.717  1.7025 -1.2085 -0.7210
   53MOL0     H 7301   1.910   5.089   8.804 -1.7380 -0.4305 -0.8489
   53MOL0     H 7302   2.087   5.487   8.821 -2.4527 -2.2117 -2.4276
   53MOL0     H 7303   2.206   5.389   8.896 -0.7373 -1.1527 -0.0893
   53MOL0     H 7304   2.235   5.431   8.599  1.5349 -2.4310 -1.4361
   53MOL0     H 7305   2.331   5.342   8.718  0.6474  0.6363  0.4708
   53MOL0     H 7306   2.424   5.555   8.658  0.1947 -1.4547 -0.9828
   53MOL0     H 7307   2.273   5.648   8.690  1.7628  0.9327 -2.1201
   53MOL0     H 7308   2.308   5.591   8.949  1.9865 -0.0225  1.6853
   53MOL0     H 7309   2.431   5.680   8.877 -0.9494 -0.3120 -0.8405
   53MOL0     H 7310   2.597   5.326   9.037 -1.0974 -1.6246 -0.0940
   53MOL0     H 7311   1.973   5.483   8.637  0.2405 -0.4492  0.3426
   53MOL0     H 7312   1.641   5.537   8.558 -0.9377 -3.3974  1.5728
   53MOL0     H 7313   1.796   5.592   8.485  0.2619 -0.1664 -0.8246
   53MOL0     H 7314   1.707   5.457   8.407 -2.5435 -1.7422  2.1346
   54MOL0     O 7315   0.485   4.899   1.086  0.3429  0.4921 -0.0783
   54MOL0     C 7316   0.458   4.788   1.124  0.0775 -0.2145  0.5305
   54MOL0     O 7317   0.419   4.683   1.040  0.0526 -0.0757  0.0719
   54MOL0     C 7318   0.408   4.693   0.899 -1.3643 -0.6028 -0.8045
   54MOL0     C 7319   0.347   4.581   0.850 -0.3056 -0.2372  1.1230
   54MOL0     C 7320   0.318   4.575   0.709 -1.0160  0.1397  0.1861
   54MOL0     C 7321   0.347   4.686   0.627  0.6596  0.2880 -0.5805
   54MOL0     O 7322   0.323   4.693   0.494  0.5447 -0.4840  0.8460
   54MOL0     C 7323   0.201   4.634   0.453  0.4780  0.2837  0.7539
   54MOL0     C 7324   0.235   4.494   0.395  0.7030 -0.3295 -0.7586
   54MOL0     C 7325   0.327   4.491   0.277 -0.6218 -0.6083 -0.3276
   54MOL0     C 7326   0.344   4.351   0.212 -0.1177  0.0985 -0.0902
   54MOL0     C 7327   0.410   4.354   0.071  0.8249 -0.5835 -0.0693
   54MOL0     C 7328   0.424   4.208   0.019 -0.6593 -0.8151  0.1591
   54MOL0     C 7329   0.471   4.209  -0.126 -0.0470  0.0309  0.4134
   54MOL0     C 7330   0.469   4.075  -0.195 -0.1825 -0.6290  0.6782
   54MOL0     N 7331   0.537   4.084  -0.336  0.2200  0.0465  0.1586
   54MOL0     C 7332   0.470   4.086  -0.456 -0.2286  0.5231  0.3108
   54MOL0     C 7333   0.555   4.029  -0.544 -0.4915  0.5481 -0.9024
   54MOL0     C 7334   0.525   3.989  -0.684  0.8129 -0.0182 -0.4968
   54MOL0     C 7335   0.580   3.846  -0.705  0.3583  0.0778  0.2670
   54MOL0     C 7336   0.616   3.844  -0.857 -0.7657  0.2309 -0.1730
   54MOL0     C 7337   0.638   3.702  -0.903 -1.3445 -0.2607  0.3680
   54MOL0     O 7338   0.703   3.623  -0.797  0.1595 -0.4493  0.2782
   54MOL0     C 7339   0.738   3.487  -0.821 -1.6468 -1.2268  0.1182
   54MOL0     C 7340   0.821   3.429  -0.714 -0.6175  0.2217  0.5887
   54MOL0     C 7341   0.877   3.304  -0.727 -0.4853  0.9583  0.5329
   54MOL0     C 7342   0.981   3.268  -0.621  0.5655  0.6903 -0.6413
   54MOL0     C 7343   0.846   3.217  -0.846  0.2760 -0.5041 -0.4764
   54MOL0     C 7344   0.906   3.086  -0.864  0.3189 -0.4655 -0.5126
   54MOL0     O 7345   1.006   3.030  -0.788  0.0806 -0.2714  0.5867
   54MOL0     C 7346   1.015   2.895  -0.784  0.8442 -0.1512  1.3894
   54MOL0     C 7347   1.143   2.843  -0.801 -0.1295  0.9429 -0.3552
   54MOL0     C 7348   1.167   2.703  -0.796  0.4832 -0.2342 -0.7005
   54MOL0     C 7349   1.057   2.609  -0.787 -0.2141  0.1000  0.3991
   54MOL0     O 7350   1.081   2.471  -0.778  0.4390 -0.0749 -0.4021
   54MOL0     C 7351   1.161   2.413  -0.873  0.0544 -0.9678  0.2262
   54MOL0     C 7352   1.297   2.376  -0.794  0.4165  0.2062 -0.4889
   54MOL0     C 7353   1.266   2.246  -0.722 -1.4809  0.6859  0.5330
   54MOL0     C 7354   1.389   2.180  -0.656  0.2376  0.0609 -0.4654
   54MOL0     C 7355   1.369   2.034  -0.627  0.4095 -0.4228  0.2410
   54MOL0     C 7356   1.263   2.008  -0.522  0.9555 -0.5948  0.2929
   54MOL0     C 7357   1.258   1.856  -0.488 -0.3336 -0.1046 -0.0547
   54MOL0     C 7358   1.158   1.822  -0.377 -0.3470  0.1611  1.5320
   54MOL0    Cl 7359   1.228   1.851  -0.211 -0.0851  0.0507 -0.1481
   54MOL0     C 7360   0.926   2.660  -0.780 -0.0718  0.0807  0.6864
   54MOL0     C 7361   0.903   2.801  -0.784  0.5469 -0.4536  0.3038
   54MOL0     O 7362   0.876   3.052  -0.979 -1.0747  0.1968  0.0447
   54MOL0     C 7363   0.759   3.270  -0.939 -0.4801 -0.0469 -0.4349
   54MOL0     C 7364   0.715   3.398  -0.928  0.2695  0.1519  0.0507
   54MOL0     N 7365   0.676   4.020  -0.490  0.3248 -0.4665 -0.7942
   54MOL0     N 7366   0.666   4.044  -0.359 -0.0516 -0.1205  0.7109
   54MOL0     C 7367   0.406   4.799   0.684 -1.0544 -0.6617 -0.3148
   54MOL0     C 7368   0.428   4.804   0.818 -0.3642 -0.7195  0.3724
   54MOL0     C 7369   0.474   4.753   1.265 -0.7521  0.1882 -0.5265
   54MOL0     C 7370   0.488   4.856   1.363 -0.0609 -0.8124 -1.0393
   54MOL0     C 7371   0.488   4.825   1.506 -0.6393 -0.5630  1.6058
   54MOL0     C 7372   0.487   4.694   1.545  0.6379 -0.3427 -0.4063
   54MOL0     O 7373   0.456   4.662   1.673 -0.3159  0.3742  0.0847
   54MOL0     C 7374   0.520   4.723   1.783 -0.0573  0.2046  0.8182
   54MOL0     C 7375   0.665   4.694   1.789  0.3767  0.8113  0.0613
   54MOL0     C 7376   0.685   4.551   1.841  1.1166  0.0289 -1.0927
   54MOL0     C 7377   0.811   4.523   1.921  1.1054  0.1119  0.4162
   54MOL0     C 7378   0.927   4.521   1.831 -0.5763  0.0023 -0.3312
   54MOL0     C 7379   1.010   4.511   1.745  0.0607  0.5004 -0.3724
   54MOL0     C 7380   0.477   4.597   1.452  0.2136 -0.0736 -0.3373
   54MOL0     C 7381   0.483   4.621   1.316  0.3326  0.1467 -0.1365
   54MOL0     C 7382   0.511   4.499   1.224  0.1013 -0.6328  0.4330
   54MOL0     H 7383   0.304   4.503   0.911 -0.9973  0.8200  2.0218
   54MOL0     H 7384   0.275   4.482   0.674  0.6909 -0.4528 -0.4295
   54MOL0     H 7385   0.152   4.679   0.367 -1.5115 -3.2421 -0.1579
   54MOL0     H 7386   0.127   4.620   0.533  0.1030  3.0876  0.9864
   54MOL0     H 7387   0.279   4.418   0.461 -0.8183 -0.8202 -0.2684
   54MOL0     H 7388   0.142   4.443   0.369  0.9893 -1.1727 -0.1846
   54MOL0     H 7389   0.291   4.560   0.201 -1.2445 -1.7245 -1.0578
   54MOL0     H 7390   0.425   4.524   0.313 -1.3941  2.7167 -0.8628
   54MOL0     H 7391   0.401   4.289   0.282  0.1703 -0.6138 -0.9420
   54MOL0     H 7392   0.240   4.320   0.197 -1.5813  3.2032  2.3321
   54MOL0     H 7393   0.510   4.399   0.072  0.5913 -0.0713  0.4883
   54MOL0     H 7394   0.339   4.405   0.005  0.0872 -2.1012 -0.4873
   54MOL0     H 7395   0.482   4.148   0.090  0.9710 -3.2511 -3.0077
   54MOL0     H 7396   0.321   4.170   0.024 -1.9618  2.2654 -0.2229
   54MOL0     H 7397   0.576   4.238  -0.130  0.0590 -0.4367 -0.3695
   54MOL0     H 7398   0.415   4.284  -0.183 -0.6928  0.5245  1.6476
   54MOL0     H 7399   0.516   3.993  -0.139  1.2977 -3.0985 -3.7314
   54MOL0     H 7400   0.365   4.042  -0.203 -0.0492 -1.5794  2.3087
   54MOL0     H 7401   0.365   4.105  -0.473  0.2832  1.2419 -2.4281
   54MOL0     H 7402   0.563   4.066  -0.752  1.2354 -1.7470 -2.3208
   54MOL0     H 7403   0.417   3.991  -0.701  0.7849  3.0000 -0.4990
   54MOL0     H 7404   0.666   3.831  -0.639 -0.6476  0.5133  1.7355
   54MOL0     H 7405   0.499   3.778  -0.676  0.1053  0.1944 -0.1724
   54MOL0     H 7406   0.543   3.897  -0.917  2.2327  5.0174 -0.1539
   54MOL0     H 7407   0.711   3.895  -0.874  0.2272 -1.6625 -0.5770
   54MOL0     H 7408   0.543   3.656  -0.932 -2.2234 -0.0839  2.7490
   54MOL0     H 7409   0.706   3.714  -0.987  0.1992  1.9591  1.8132
   54MOL0     H 7410   0.851   3.487  -0.626  0.5797 -0.2709  0.5200
   54MOL0     H 7411   1.000   3.354  -0.555  0.7630 -1.2368  1.9558
   54MOL0     H 7412   1.073   3.247  -0.675  0.7238 -0.4397  0.0383
   54MOL0     H 7413   0.954   3.190  -0.549 -1.5445  0.9827 -1.0348
   54MOL0     H 7414   1.219   2.920  -0.810  1.7518 -0.6675  1.0953
   54MOL0     H 7415   1.270   2.671  -0.806  0.8421  0.9614 -1.0199
   54MOL0     H 7416   1.119   2.324  -0.920  1.8897 -0.9569 -1.5885
   54MOL0     H 7417   1.197   2.478  -0.954  1.3097 -2.1966 -0.2484
   54MOL0     H 7418   1.391   2.373  -0.849 -0.0852 -1.4033 -1.3371
   54MOL0     H 7419   1.315   2.450  -0.716  1.9722  2.5291 -2.9301
   54MOL0     H 7420   1.236   2.172  -0.797 -2.6036 -1.5223  2.9987
   54MOL0     H 7421   1.192   2.253  -0.641 -2.3690 -2.0950  0.0768
   54MOL0     H 7422   1.422   2.239  -0.570  1.5359  0.4233 -1.1848
   54MOL0     H 7423   1.475   2.192  -0.722 -0.6207  1.7484 -1.3263
   54MOL0     H 7424   1.335   1.985  -0.719 -0.5073 -2.2127  1.4689
   54MOL0     H 7425   1.467   1.993  -0.599  0.5456  0.4604  1.0722
   54MOL0     H 7426   1.165   2.036  -0.562  1.1312 -2.2962 -1.4884
   54MOL0     H 7427   1.281   2.067  -0.432 -0.4426  1.0868 -0.4791
   54MOL0     H 7428   1.354   1.835  -0.439 -0.5840  1.5993  1.2345
   54MOL0     H 7429   1.248   1.798  -0.581  0.1419  1.9196 -1.4308
   54MOL0     H 7430   1.128   1.717  -0.366 -0.8640  0.3432  1.9100
   54MOL0     H 7431   1.067   1.882  -0.390  0.7021  1.8147  1.6387
   54MOL0     H 7432   0.841   2.592  -0.787  0.5818 -0.6656 -0.2449
   54MOL0     H 7433   0.801   2.838  -0.777 -0.2186 -2.0332 -1.7706
   54MOL0     H 7434   0.721   3.215  -1.024  2.4793  0.8668 -2.4876
   54MOL0     H 7435   0.644   3.422  -1.007  1.1650 -0.9472 -1.1309
   54MOL0     H 7436   0.428   4.893   0.635 -0.7270  0.0580  1.1497
   54MOL0     H 7437   0.460   4.901   0.856 -1.9623 -0.0468  0.0890
   54MOL0     H 7438   0.501   4.958   1.328 -1.7456  0.3117  1.3900
   54MOL0     H 7439   0.493   4.909   1.574 -0.2730  0.9317 -0.1738
   54MOL0     H 7440   0.497   4.830   1.780  0.7865  0.3639 -0.3951
   54MOL0     H 7441   0.459   4.682   1.865 -0.3778 -3.8140 -1.1901
   54MOL0     H 7442   0.692   4.765   1.868 -1.2497  5.3629 -3.0435
   54MOL0     H 7443   0.709   4.714   1.691 -0.9450  0.8778 -0.5350
   54MOL0     H 7444   0.616   4.517   1.919  1.5837 -1.0522 -1.1306
   54MOL0     H 7445   0.668   4.485   1.755  0.8206 -0.9288 -0.3169
   54MOL0     H 7446   0.803   4.424   1.968 -1.3254 -0.1191 -0.3562
   54MOL0     H 7447   0.824   4.588   2.008  0.1474 -0.8929  1.3368
   54MOL0     H 7448   1.085   4.509   1.669 -1.0092 -0.9375 -1.4538
   54MOL0     H 7449   0.462   4.502   1.503  2.3254 -0.1837  0.1296
   54MOL0     H 7450   0.606   4.515   1.172 -0.1481  1.7350  0.6021
   54MOL0     H 7451   0.505   4.399   1.269 -3.8593 -0.7978 -0.1320
   54MOL0     H 7452   0.437   4.500   1.144 -0.2353  3.2130  0.6237
   55MOL0     O 7453   9.809   3.554  11.008  0.5385  0.1812 -0.2693
   55MOL0     C 7454   9.816   3.511  11.123 -0.2515  0.0414 -0.2802
   55MOL0     O 7455   9.798   3.382  11.153 -0.3155  0.0691 -0.0738
   55MOL0     C 7456   9.823   3.290  11.050 -0.7398 -1.2662 -0.8863
   55MOL0     C 7457   9.950   3.228  11.055 -0.3711 -0.4035  0.3864
   55MOL0     C 7458   9.973   3.121  10.974 -0.0155  0.3768  0.3888
   55MOL0     C 7459   9.869   3.066  10.884  0.6847  1.0014 -0.9797
   55MOL0     O 7460   9.910   2.969  10.799 -0.0940  0.9980  0.8592
   55MOL0     C 7461   9.804   2.896  10.739  0.2888  0.9147  0.1885
   55MOL0     C 7462   9.857   2.756  10.727 -0.3077 -0.9664 -0.0833
   55MOL0     C 7463   9.977   2.758  10.636  0.3145 -0.3575 -0.6134
   55MOL0     C 7464   9.974   2.647  10.535  0.1385  0.2631  0.1941
   55MOL0     C 7465  10.094   2.654  10.438  0.1096 -0.2459  0.4303
   55MOL0     C 7466  10.095   2.543  10.333  0.6874 -0.3924  0.5558
   55MOL0     C 7467  10.123   2.400  10.386  0.5026 -1.0058 -0.8542
   55MOL0     C 7468  10.264   2.357  10.364 -0.6835  0.3466 -0.2585
   55MOL0     N 7469  10.277   2.215  10.330  0.2479 -0.2802  0.1622
   55MOL0     C 7470  10.330   2.118  10.413 -0.1195 -0.0400 -0.1443
   55MOL0     C 7471  10.312   2.004  10.343 -0.1232  0.2000 -1.1047
   55MOL0     C 7472  10.384   1.866  10.380  0.0123 -0.6115 -0.1495
   55MOL0     C 7473  10.364   1.755  10.282  1.1792 -0.5475  0.7665
   55MOL0     C 7474  10.423   1.618  10.313 -0.2184 -0.2485 -0.1353
   55MOL0     C 7475  10.349   1.521  10.411  0.2799  0.2791 -1.1628
   55MOL0     O 7476  10.245   1.456  10.336  0.8755 -0.5056  0.0523
   55MOL0     C 7477  10.159   1.371  10.403 -0.0851 -0.2822  0.0668
   55MOL0     C 7478  10.185   1.326  10.534  0.3005 -0.0893 -0.2322
   55MOL0     C 7479  10.105   1.234  10.597 -0.5376  0.4133 -0.1770
   55MOL0     C 7480  10.145   1.191  10.733  0.0192 -1.0364  1.4057
   55MOL0     C 7481   9.999   1.172  10.524  0.2576 -0.7872  0.0815
   55MOL0     C 7482   9.919   1.059  10.572 -0.3434 -0.2009 -0.8834
   55MOL0     O 7483   9.917   0.950  10.506  0.0945  0.5575 -0.2525
   55MOL0     C 7484   9.879   0.841  10.586  0.4852 -0.5598 -0.2831
   55MOL0     C 7485   9.746   0.796  10.595  0.4027  1.0585  0.2086
   55MOL0     C 7486   9.701   0.682  10.659  0.0405 -0.6448 -0.0325
   55MOL0     C 7487   9.799   0.614  10.728  1.1398 -0.2271  0.1818
   55MOL0     O 7488   9.769   0.509  10.811 -0.2763  0.1061 -0.6211
   55MOL0     C 7489   9.638   0.474  10.855 -0.1079  0.6582  0.4416
   55MOL0     C 7490   9.609   0.558  10.973  0.8165  0.6129  0.0748
   55MOL0     C 7491   9.476   0.517  11.040  0.3448  0.9446 -0.7122
   55MOL0     C 7492   9.453   0.591  11.168  0.0706 -0.0884  0.4629
   55MOL0     C 7493   9.306   0.567  11.204 -0.2289  0.4476  0.7551
   55MOL0     C 7494   9.294   0.631  11.341 -0.4062  0.2869  0.2044
   55MOL0     C 7495   9.161   0.606  11.413  0.5244  0.6562  0.0554
   55MOL0     C 7496   9.173   0.676  11.545  0.7764 -0.2996 -0.8579
   55MOL0    Cl 7497   9.177   0.855  11.496  0.1631  0.1855 -0.8296
   55MOL0     C 7498   9.930   0.660  10.740 -0.2380 -0.4381  0.0005
   55MOL0     C 7499   9.975   0.773  10.668  0.0999 -0.6832  0.0085
   55MOL0     O 7500   9.871   1.076  10.688 -0.7807  0.3532 -0.0671
   55MOL0     C 7501   9.972   1.222  10.394  0.4095 -0.1342 -0.4368
   55MOL0     C 7502  10.050   1.319  10.334  0.0562  0.7835  0.2497
   55MOL0     N 7503  10.237   2.030  10.236  0.9294  0.6123 -0.3873
   55MOL0     N 7504  10.211   2.157  10.227  0.7256  0.2247 -0.5499
   55MOL0     C 7505   9.743   3.129  10.887  0.9835 -0.4833 -0.0868
   55MOL0     C 7506   9.725   3.236  10.973  0.2771 -1.7257  0.3327
   55MOL0     C 7507   9.824   3.612  11.234 -0.0508 -0.2022 -0.2395
   55MOL0     C 7508   9.750   3.589  11.356 -0.2848  0.6586 -0.2822
   55MOL0     C 7509   9.757   3.684  11.463  0.4442  0.3631 -0.1883
   55MOL0     C 7510   9.827   3.802  11.442  0.2928  0.8237  0.5369
   55MOL0     O 7511   9.837   3.890  11.545 -0.5761  1.3268  0.0352
   55MOL0     C 7512   9.971   3.890  11.597 -0.5624 -0.5006  0.0617
   55MOL0     C 7513   9.993   3.994  11.697 -0.2161 -0.9940  0.3620
   55MOL0     C 7514   9.924   3.964  11.826  0.7845  0.2811 -0.9949
   55MOL0     C 7515   9.907   4.094  11.899 -0.1197 -0.3568  1.5533
   55MOL0     C 7516   9.950   4.087  12.040 -0.4970  1.0521 -0.3796
   55MOL0     C 7517   9.975   4.077  12.165  0.3879  0.3906 -0.5600
   55MOL0     C 7518   9.886   3.829  11.321 -0.2065 -0.2888 -0.1095
   55MOL0     C 7519   9.892   3.735  11.222 -0.0779  0.8175  0.3127
   55MOL0     C 7520   9.983   3.776  11.098  0.0082 -0.0985 -0.3275
   55MOL0     H 7521  10.025   3.266  11.124 -1.5986  0.7714  1.1182
   55MOL0     H 7522  10.068   3.068  10.969  0.4373  1.2547 -2.3908
   55MOL0     H 7523   9.766   2.942  10.647 -3.5480 -0.6743  0.7651
   55MOL0     H 7524   9.724   2.887  10.814  0.8539 -5.7245  0.6156
   55MOL0     H 7525   9.880   2.724  10.829 -1.9286 -0.6956  0.3959
   55MOL0     H 7526   9.773   2.700  10.685 -3.3452  1.6358  2.0238
   55MOL0     H 7527   9.999   2.852  10.584 -1.0395  0.6534  0.5617
   55MOL0     H 7528  10.058   2.747  10.708 -1.4845 -0.2251  1.5321
   55MOL0     H 7529   9.983   2.558  10.599  1.0569  1.4990  1.8629
   55MOL0     H 7530   9.883   2.615  10.483 -0.0002  2.4815 -1.0060
   55MOL0     H 7531  10.186   2.648  10.497  2.2227 -5.2302 -2.6703
   55MOL0     H 7532  10.090   2.748  10.383  2.4100 -0.4500 -0.1932
   55MOL0     H 7533   9.994   2.550  10.291  1.6372  3.0598 -1.5060
   55MOL0     H 7534  10.161   2.576  10.253 -1.3223 -2.1734 -2.0276
   55MOL0     H 7535  10.055   2.330  10.336 -1.5230 -0.4201  0.9384
   55MOL0     H 7536  10.103   2.391  10.493 -1.1408  3.3790 -0.5877
   55MOL0     H 7537  10.318   2.406  10.283  1.9215  0.3500  1.3412
   55MOL0     H 7538  10.320   2.382  10.454  0.4701 -0.8858 -0.5980
   55MOL0     H 7539  10.374   2.143  10.509  0.4715  1.6240 -0.8040
   55MOL0     H 7540  10.338   1.827  10.471  2.4572 -1.6736  0.6932
   55MOL0     H 7541  10.491   1.882  10.369 -0.2846 -0.0304 -3.0163
   55MOL0     H 7542  10.256   1.741  10.270  0.7517  0.5701  2.9069
   55MOL0     H 7543  10.410   1.796  10.191  0.5160  2.3119  1.6069
   55MOL0     H 7544  10.453   1.563  10.223  0.5055 -0.8130  0.4467
   55MOL0     H 7545  10.524   1.624  10.354 -0.5108 -1.5568  0.8341
   55MOL0     H 7546  10.418   1.445  10.448 -1.5994 -1.3878 -0.8619
   55MOL0     H 7547  10.311   1.570  10.501 -0.5078 -0.6014 -1.0009
   55MOL0     H 7548  10.278   1.352  10.585  0.6437 -2.8106  0.6638
   55MOL0     H 7549  10.059   1.199  10.800 -0.0946 -1.1812  1.2784
   55MOL0     H 7550  10.225   1.251  10.776 -1.6834 -0.5853  4.1546
   55MOL0     H 7551  10.183   1.088  10.737  1.1559 -0.9522 -2.6421
   55MOL0     H 7552   9.674   0.850  10.535  1.4360  0.1472 -1.9570
   55MOL0     H 7553   9.597   0.652  10.654 -0.9654  2.3769  0.4386
   55MOL0     H 7554   9.559   0.472  10.779  0.8591  1.5008 -0.6106
   55MOL0     H 7555   9.642   0.375  10.900  1.1438  1.1990  1.6232
   55MOL0     H 7556   9.686   0.547  11.050  0.9277 -1.1172 -0.2430
   55MOL0     H 7557   9.601   0.658  10.930  0.5236  0.2852 -0.6419
   55MOL0     H 7558   9.478   0.411  11.067 -1.5924  1.6896  3.0290
   55MOL0     H 7559   9.389   0.541  10.978 -1.7726  2.3068  2.4986
   55MOL0     H 7560   9.471   0.699  11.161  0.3735 -0.1809 -0.2562
   55MOL0     H 7561   9.527   0.556  11.240  1.6438  0.1101 -0.9812
   55MOL0     H 7562   9.238   0.616  11.133  1.0978 -0.4902 -1.2655
   55MOL0     H 7563   9.273   0.463  11.204 -1.6000  0.7487 -2.7962
   55MOL0     H 7564   9.304   0.734  11.307  2.5959 -0.5153 -1.8364
   55MOL0     H 7565   9.379   0.621  11.409 -0.5216  3.7073  1.0448
   55MOL0     H 7566   9.141   0.502  11.441 -0.8657  1.5593  2.7185
   55MOL0     H 7567   9.080   0.638  11.346 -0.5725 -3.6336 -0.9807
   55MOL0     H 7568   9.259   0.634  11.599 -0.4129 -0.3391  1.0878
   55MOL0     H 7569   9.091   0.661  11.616  1.6527 -0.3413  0.1748
   55MOL0     H 7570  10.006   0.622  10.806 -0.1638  2.7979  1.9819
   55MOL0     H 7571  10.079   0.801  10.676  0.7738 -2.6541 -1.1686
   55MOL0     H 7572   9.883   1.174  10.354 -0.8785  2.6803 -1.1504
   55MOL0     H 7573  10.007   1.354  10.241 -3.0035 -1.0161  0.8394
   55MOL0     H 7574   9.648   3.108  10.840 -0.6027  2.9804  1.2265
   55MOL0     H 7575   9.622   3.271  10.976  1.1276  1.3082 -1.4614
   55MOL0     H 7576   9.695   3.496  11.358  0.0994  0.4336  0.2913
   55MOL0     H 7577   9.688   3.674  11.546 -0.0110  0.6897 -0.5250
   55MOL0     H 7578   9.994   3.792  11.641  1.2946 -0.5715 -0.9461
   55MOL0     H 7579  10.048   3.900  11.519 -1.9522  0.8947 -1.1956
   55MOL0     H 7580   9.959   4.082  11.641  0.7825 -1.4512 -0.9813
   55MOL0     H 7581  10.100   4.014  11.709 -0.9809  5.2487  0.0902
   55MOL0     H 7582   9.826   3.916  11.819  1.6376 -1.6329 -0.3180
   55MOL0     H 7583   9.985   3.901  11.892 -3.2338 -0.8111  2.1141
   55MOL0     H 7584   9.800   4.108  11.884  0.2195  1.4408  0.5632
   55MOL0     H 7585   9.955   4.181  11.853  1.5756 -1.9155  0.2133
   55MOL0     H 7586   9.983   4.077  12.272 -1.0098 -0.9664 -0.4236
   55MOL0     H 7587   9.939   3.920  11.296 -2.3403  1.0723  0.0227
   55MOL0     H 7588  10.049   3.855  11.136 -1.3625  1.4400 -0.9678
   55MOL0     H 7589  10.034   3.689  11.057 -1.8511 -2.0964  1.3409
   55MOL0     H 7590   9.931   3.826  11.016  2.4632  3.8065  0.2125
   56MOL0     O 7591   7.631   2.507   8.742  0.0274  0.4335  0.0214
   56MOL0     C 7592   7.753   2.503   8.705 -0.5199 -0.4737  0.7286
   56MOL0     O 7593   7.843   2.392   8.729  0.0824 -0.3002 -0.5793
   56MOL0     C 7594   7.787   2.298   8.811 -0.7972 -0.1956 -0.1625
   56MOL0     C 7595   7.795   2.329   8.943  0.2448 -0.3954  0.4064
   56MOL0     C 7596   7.749   2.245   9.035  0.6227 -0.8215  0.2359
   56MOL0     C 7597   7.700   2.112   8.998 -0.2686  0.5725 -1.0656
   56MOL0     O 7598   7.657   2.025   9.098 -0.4821 -0.1312 -0.3666
   56MOL0     C 7599   7.648   1.888   9.073 -0.5681 -0.1159 -0.3577
   56MOL0     C 7600   7.635   1.816   9.204  1.1003 -0.0229  0.5459
   56MOL0     C 7601   7.652   1.662   9.188  0.0535  0.3718  0.0441
   56MOL0     C 7602   7.642   1.587   9.328 -0.3405 -0.3369 -0.2502
   56MOL0     C 7603   7.661   1.435   9.315 -0.0158  0.8211 -0.2613
   56MOL0     C 7604   7.634   1.377   9.453  0.0012 -0.9375 -0.2396
   56MOL0     C 7605   7.657   1.222   9.448 -0.5158  0.4265 -0.9138
   56MOL0     C 7606   7.566   1.152   9.549  0.5264 -0.2731 -0.0066
   56MOL0     N 7607   7.606   1.185   9.686 -1.0985  0.1108 -0.3354
   56MOL0     C 7608   7.528   1.267   9.769  0.4589  0.1676  0.0180
   56MOL0     C 7609   7.577   1.242   9.894 -0.2797 -0.0095 -0.5210
   56MOL0     C 7610   7.525   1.300  10.018  1.3542 -1.2173  0.1139
   56MOL0     C 7611   7.571   1.244  10.161 -0.7231 -0.7940 -0.4686
   56MOL0     C 7612   7.707   1.277  10.208 -0.6363  0.5241 -0.4967
   56MOL0     C 7613   7.740   1.166  10.316 -0.3491 -0.0641  0.5343
   56MOL0     O 7614   7.789   1.038  10.264 -0.4714 -0.0338  0.3472
   56MOL0     C 7615   7.816   0.934  10.347 -0.6009 -0.5675 -0.0058
   56MOL0     C 7616   7.793   0.936  10.482  0.3343 -1.1674  0.6468
   56MOL0     C 7617   7.801   0.822  10.564  0.6325 -0.4105  0.6737
   56MOL0     C 7618   7.777   0.845  10.708  0.3011 -0.6281 -0.4218
   56MOL0     C 7619   7.850   0.699  10.512 -0.4910  0.2301 -0.3860
   56MOL0     C 7620   7.874   0.580  10.595 -0.2619 -0.7436 -0.1471
   56MOL0     O 7621   7.785   0.538  10.686 -0.5563 -0.1427  0.2220
   56MOL0     C 7622   7.822   0.431  10.765 -0.0875  0.4483  1.1262
   56MOL0     C 7623   7.806   0.295  10.724  0.9639  0.0092  0.0235
   56MOL0     C 7624   7.851   0.199  10.810  0.2860 -0.0410 -0.4626
   56MOL0     C 7625   7.909   0.235  10.937 -0.5517  0.4973 -0.1792
   56MOL0     O 7626   7.950   0.130  11.012  0.3650  0.2497  0.1962
   56MOL0     C 7627   8.095   0.121  11.012  0.1266  0.5998 -0.0396
   56MOL0     C 7628   8.156   0.077  11.142 -0.5099  0.0691  0.0838
   56MOL0     C 7629   8.311   0.063  11.135 -0.0233  1.1648  0.1509
   56MOL0     C 7630   8.381   0.196  11.171  0.2250  0.7205 -0.8284
   56MOL0     C 7631   8.524   0.206  11.116 -0.5035  0.3667 -0.9847
   56MOL0     C 7632   8.608   0.321  11.189 -0.4013  0.1834 -0.7040
   56MOL0     C 7633   8.729   0.359  11.104  0.4825 -0.7060 -1.2288
   56MOL0     C 7634   8.858   0.287  11.160  0.1056 -0.7777  1.0007
   56MOL0    Cl 7635   8.896   0.346  11.327  0.1398  0.2969 -0.1799
   56MOL0     C 7636   7.932   0.365  10.974  0.4200  0.8988 -0.1791
   56MOL0     C 7637   7.893   0.461  10.885 -0.8363  0.7308  0.7511
   56MOL0     O 7638   7.983   0.535  10.578  0.2848 -0.2188 -0.1717
   56MOL0     C 7639   7.881   0.702  10.378  1.8610 -1.2325  1.3915
   56MOL0     C 7640   7.862   0.815  10.301  1.3647  0.0918  0.0401
   56MOL0     N 7641   7.671   1.148   9.889  0.8293  1.1419  0.1251
   56MOL0     N 7642   7.688   1.112   9.765 -0.3043 -0.7257 -0.5204
   56MOL0     C 7643   7.700   2.078   8.859  0.4175 -0.4011 -0.0614
   56MOL0     C 7644   7.734   2.179   8.770  0.0006  0.4019 -0.5824
   56MOL0     C 7645   7.811   2.628   8.644 -1.2393  0.0443  0.1093
   56MOL0     C 7646   7.959   2.624   8.630  1.5765 -0.2220 -0.8452
   56MOL0     C 7647   8.037   2.719   8.571  0.2571  0.2968 -0.1783
   56MOL0     C 7648   7.971   2.839   8.528  0.4424 -0.2809 -0.9772
   56MOL0     O 7649   8.053   2.934   8.469 -0.3902 -0.0482 -0.4716
   56MOL0     C 7650   7.991   3.010   8.359 -0.5643  0.3278 -0.5143
   56MOL0     C 7651   7.970   2.920   8.238  0.6931  0.4778 -0.4175
   56MOL0     C 7652   7.931   3.000   8.104  0.4354  0.7170  0.0295
   56MOL0     C 7653   7.792   3.039   8.115  0.1876 -0.6160  0.5896
   56MOL0     C 7654   7.755   3.127   8.013 -0.1176 -0.3235 -0.8254
   56MOL0     C 7655   7.707   3.202   7.929 -0.6305  0.0700  0.3486
   56MOL0     C 7656   7.829   2.839   8.523 -0.3399  0.8959 -0.2595
   56MOL0     C 7657   7.744   2.741   8.587  0.3201  0.3425 -0.1589
   56MOL0     C 7658   7.592   2.755   8.589 -1.1592 -0.0208 -1.0440
   56MOL0     H 7659   7.844   2.423   8.967 -0.8894  0.6405 -1.1267
   56MOL0     H 7660   7.765   2.279   9.137  0.3866  0.1176 -0.0336
   56MOL0     H 7661   7.743   1.857   9.029  1.0716  4.9412 -0.9585
   56MOL0     H 7662   7.560   1.870   9.010 -3.1915  2.0386  2.3744
   56MOL0     H 7663   7.718   1.838   9.270 -0.3445 -2.3473  3.3759
   56MOL0     H 7664   7.536   1.843   9.241 -0.1383 -1.4167 -1.5235
   56MOL0     H 7665   7.575   1.622   9.122  0.0625  1.1876 -0.4682
   56MOL0     H 7666   7.752   1.636   9.150  0.1065 -1.6774  1.3961
   56MOL0     H 7667   7.718   1.629   9.394 -2.2135  2.2714  0.4228
   56MOL0     H 7668   7.550   1.610   9.383 -0.0983  0.7370 -0.2625
   56MOL0     H 7669   7.765   1.417   9.286  0.2795  0.3699  1.0214
   56MOL0     H 7670   7.594   1.386   9.243  2.4132 -1.2368 -1.2730
   56MOL0     H 7671   7.704   1.431   9.517 -0.6199 -0.4162  0.0155
   56MOL0     H 7672   7.531   1.406   9.474 -0.3449  3.8636 -5.7869
   56MOL0     H 7673   7.761   1.206   9.476 -1.3919  0.9291  3.3009
   56MOL0     H 7674   7.640   1.179   9.349 -3.2835 -0.5381 -0.1169
   56MOL0     H 7675   7.463   1.186   9.531  0.5981  1.7240  2.7514
   56MOL0     H 7676   7.566   1.043   9.538 -1.5286 -0.1655 -1.7733
   56MOL0     H 7677   7.446   1.329   9.734  2.4114  1.3723 -2.8013
   56MOL0     H 7678   7.419   1.276  10.021  0.6894  1.4904  3.0741
   56MOL0     H 7679   7.538   1.408  10.010 -0.0506 -1.1439 -1.7113
   56MOL0     H 7680   7.501   1.290  10.231 -1.4920 -2.8237  0.1702
   56MOL0     H 7681   7.553   1.136  10.164  2.5237 -1.3976  2.1665
   56MOL0     H 7682   7.770   1.268  10.119 -1.9335 -1.2608 -1.2919
   56MOL0     H 7683   7.727   1.375  10.252  2.6433 -0.0391 -0.5325
   56MOL0     H 7684   7.815   1.205  10.386  0.0490 -1.4841  0.9187
   56MOL0     H 7685   7.655   1.142  10.380  0.4390  0.7316  1.9329
   56MOL0     H 7686   7.755   1.029  10.522 -0.8899 -1.2812 -0.1965
   56MOL0     H 7687   7.701   0.924  10.715  0.7211 -0.3393  1.1731
   56MOL0     H 7688   7.865   0.882  10.762 -0.1313  2.4541 -1.5855
   56MOL0     H 7689   7.731   0.754  10.745  0.2231  0.2793  1.8710
   56MOL0     H 7690   7.759   0.270  10.630  1.9295 -0.4630 -0.3440
   56MOL0     H 7691   7.838   0.094  10.786  2.1752  0.2234 -3.0681
   56MOL0     H 7692   8.117   0.041  10.941 -0.3452 -1.3167  1.8571
   56MOL0     H 7693   8.152   0.204  10.969  1.9347 -0.9017 -0.7081
   56MOL0     H 7694   8.142   0.158  11.214 -1.3029  2.0108 -2.1110
   56MOL0     H 7695   8.108  -0.016  11.175  0.3109 -0.0515  0.9740
   56MOL0     H 7696   8.349   0.039  11.035  2.1125 -1.8924  1.5380
   56MOL0     H 7697   8.361  -0.018  11.189  0.0602  0.3361 -1.1176
   56MOL0     H 7698   8.382   0.205  11.280  0.9707  0.3554 -0.8018
   56MOL0     H 7699   8.327   0.281  11.127  0.5372 -0.5560 -3.9618
   56MOL0     H 7700   8.576   0.111  11.136 -0.5568  0.6552  0.6323
   56MOL0     H 7701   8.529   0.225  11.008  1.1092  0.5961 -0.9002
   56MOL0     H 7702   8.617   0.291  11.293 -1.8860  1.8390 -0.0512
   56MOL0     H 7703   8.545   0.410  11.184 -0.0698  0.3739 -2.0844
   56MOL0     H 7704   8.743   0.466  11.122 -1.5244 -0.9412  2.9996
   56MOL0     H 7705   8.716   0.337  10.998 -4.3372  0.1324 -1.0556
   56MOL0     H 7706   8.950   0.306  11.104 -0.3458  0.3026  0.6008
   56MOL0     H 7707   8.831   0.182  11.176 -0.8765 -1.0918 -2.0196
   56MOL0     H 7708   7.983   0.392  11.065  0.9354 -2.6678  0.7190
   56MOL0     H 7709   7.921   0.564  10.904  1.2156 -0.0219  2.0872
   56MOL0     H 7710   7.914   0.615  10.323 -0.0467 -0.5351 -1.0237
   56MOL0     H 7711   7.896   0.815  10.198  0.9887 -0.9120 -0.0907
   56MOL0     H 7712   7.667   1.982   8.820  1.3955  0.4633 -3.3024
   56MOL0     H 7713   7.728   2.154   8.665 -1.8981 -0.2119 -0.3517
   56MOL0     H 7714   8.009   2.530   8.655 -0.1615 -1.2955 -1.2695
   56MOL0     H 7715   8.141   2.693   8.550  0.5937 -0.0514  1.7606
   56MOL0     H 7716   7.911   3.076   8.396 -1.3387 -1.4205  1.1325
   56MOL0     H 7717   8.073   3.078   8.335 -0.3138 -0.9529 -3.7803
   56MOL0     H 7718   7.901   2.839   8.260  0.7693  1.1705  2.8520
   56MOL0     H 7719   8.064   2.868   8.216  1.1626  1.3484 -0.5476
   56MOL0     H 7720   7.992   3.090   8.101  0.4152  0.9264  3.0535
   56MOL0     H 7721   7.938   2.926   8.023 -0.2039 -1.1334  1.5827
   56MOL0     H 7722   7.757   3.083   8.209 -4.3726 -3.5307  0.5712
   56MOL0     H 7723   7.734   2.948   8.097  1.4630 -1.0724 -1.6411
   56MOL0     H 7724   7.657   3.275   7.868 -1.9372 -1.1991 -0.1440
   56MOL0     H 7725   7.784   2.929   8.481 -0.3113  0.8389 -0.4141
   56MOL0     H 7726   7.562   2.825   8.510 -0.9036 -0.6068 -1.6799
   56MOL0     H 7727   7.536   2.664   8.565 -0.2540 -0.8972  0.0493
   56MOL0     H 7728   7.556   2.792   8.685 -1.2307  3.7588 -2.3382
   57MOL0     O 7729  11.439   9.710  10.406 -0.2105  0.9969 -0.0518
   57MOL0     C 7730  11.561   9.711  10.444  0.0260  0.1531 -0.0114
   57MOL0     O 7731  11.664   9.760  10.359 -0.4313 -0.1231 -0.5581
   57MOL0     C 7732  11.626   9.842  10.252  0.7888  0.7450 -0.1997
   57MOL0     C 7733  11.578   9.977  10.263 -0.1051  0.1698 -0.2861
   57MOL0     C 7734  11.557  10.066  10.152 -1.1937 -0.2746 -1.8982
   57MOL0     C 7735  11.568  10.011  10.023 -0.2828  1.3578 -0.0755
   57MOL0     O 7736  11.557  10.073   9.905 -0.2450  0.1521 -0.2019
   57MOL0     C 7737  11.509  10.205   9.908  0.8243 -0.3077  0.1544
   57MOL0     C 7738  11.549  10.253   9.772 -0.1903  0.9767 -0.7981
   57MOL0     C 7739  11.507  10.401   9.737 -0.7393 -0.6528 -0.4620
   57MOL0     C 7740  11.551  10.426   9.593  0.3029 -0.0520 -0.0142
   57MOL0     C 7741  11.478  10.553   9.533 -0.2340  0.0565 -0.3380
   57MOL0     C 7742  11.437  10.664   9.623  0.8029  0.1898 -0.4255
   57MOL0     C 7743  11.352  10.766   9.553 -0.5016  0.6810 -0.6495
   57MOL0     C 7744  11.434  10.868   9.482 -0.2093 -0.0141 -0.0097
   57MOL0     N 7745  11.504  10.965   9.571  0.8184 -0.7299  0.2652
   57MOL0     C 7746  11.639  10.948   9.605  0.8007 -0.4214  0.4407
   57MOL0     C 7747  11.682  11.065   9.660  0.6167  0.5691  0.0878
   57MOL0     C 7748  11.817  11.091   9.720  0.1514 -0.6361 -1.1922
   57MOL0     C 7749  11.794  11.135   9.863  0.9237 -0.0024  0.6841
   57MOL0     C 7750  11.922  11.154   9.948  0.8726  0.8626  0.3728
   57MOL0     C 7751  11.992  11.014   9.980  0.0390 -0.3720  0.3456
   57MOL0     O 7752  12.076  10.951   9.883  0.7486  0.0082  0.3191
   57MOL0     C 7753  12.128  10.819   9.908  1.0042 -0.8941 -0.2798
   57MOL0     C 7754  12.097  10.746  10.017  0.1897 -0.2536  0.2913
   57MOL0     C 7755  12.168  10.622  10.042 -1.1472 -0.1809  0.3214
   57MOL0     C 7756  12.127  10.558  10.167  0.1359 -0.0806  0.2880
   57MOL0     C 7757  12.269  10.578   9.960  0.0504  0.1152  0.7281
   57MOL0     C 7758  12.338  10.448   9.970  0.4845 -0.1902  0.3650
   57MOL0     O 7759  12.271  10.346  10.038  0.4720 -0.2722 -0.4058
   57MOL0     C 7760  12.317  10.218  10.046  0.6264  1.1996 -0.0807
   57MOL0     C 7761  12.354  10.142   9.931  0.3459  0.2862 -0.9456
   57MOL0     C 7762  12.395  10.009   9.946 -0.0120  0.8867  0.7201
   57MOL0     C 7763  12.405   9.945  10.068 -0.3486 -0.6569  0.2425
   57MOL0     O 7764  12.433   9.816  10.065  0.3077  0.7942 -0.5019
   57MOL0     C 7765  12.428   9.744  10.195  0.3998  0.2126  0.5084
   57MOL0     C 7766  12.461   9.593  10.184 -0.1899 -1.1188  0.0446
   57MOL0     C 7767  12.443   9.512  10.311 -0.1126 -0.5147  0.2811
   57MOL0     C 7768  12.515   9.567  10.436  0.6501 -0.1791  0.4448
   57MOL0     C 7769  12.466   9.487  10.572 -0.6069 -0.0356  0.4631
   57MOL0     C 7770  12.580   9.502  10.669 -0.0964  0.4880 -0.1583
   57MOL0     C 7771  12.702   9.410  10.638 -0.0223  0.7782 -0.5040
   57MOL0     C 7772  12.684   9.289  10.719  0.0926 -0.4312  0.4302
   57MOL0    Cl 7773  12.789   9.159  10.702 -0.0192 -0.5932  0.2682
   57MOL0     C 7774  12.367  10.021  10.184 -0.0954  0.6850 -0.0626
   57MOL0     C 7775  12.321  10.156  10.168 -0.2943 -0.0634  0.5965
   57MOL0     O 7776  12.444  10.443   9.909 -0.0483 -0.0090  0.3250
   57MOL0     C 7777  12.304  10.667   9.850 -0.2234 -0.1465  0.2589
   57MOL0     C 7778  12.226  10.777   9.816 -0.7412  0.5809 -0.9050
   57MOL0     N 7779  11.578  11.160   9.643  0.4384  0.2465 -0.1058
   57MOL0     N 7780  11.476  11.095   9.588 -0.2056  0.2820 -0.3472
   57MOL0     C 7781  11.610   9.876  10.013 -0.3360  0.3664  0.1193
   57MOL0     C 7782  11.647   9.800  10.122  0.1211  0.2722  0.9571
   57MOL0     C 7783  11.604   9.617  10.557 -1.4755 -0.7905  1.4195
   57MOL0     C 7784  11.740   9.585  10.563 -0.2286 -0.4676 -1.4561
   57MOL0     C 7785  11.781   9.497  10.667 -0.4284  0.1294 -0.8602
   57MOL0     C 7786  11.694   9.452  10.769  0.3246 -0.3066 -0.3739
   57MOL0     O 7787  11.715   9.372  10.875  0.2642  0.6098 -0.5801
   57MOL0     C 7788  11.834   9.299  10.886  1.0392  0.0638  0.6048
   57MOL0     C 7789  11.821   9.186  10.982  0.8208  0.1351 -0.0550
   57MOL0     C 7790  11.711   9.082  10.935  0.7507  0.3294  0.5636
   57MOL0     C 7791  11.705   8.952  11.029 -0.2410 -0.8997 -0.5999
   57MOL0     C 7792  11.589   8.956  11.115 -0.5870  0.5435 -0.0812
   57MOL0     C 7793  11.496   8.953  11.199  0.5050  0.8178  0.3242
   57MOL0     C 7794  11.562   9.478  10.754  0.5870 -0.1270 -0.5234
   57MOL0     C 7795  11.512   9.567  10.653 -0.9670  0.5716 -0.6360
   57MOL0     C 7796  11.361   9.591  10.642 -0.0180  0.3920  0.4077
   57MOL0     H 7797  11.568  10.023  10.361 -1.9438  0.7577 -0.7163
   57MOL0     H 7798  11.510  10.163  10.159  0.1126  0.4066 -2.1312
   57MOL0     H 7799  11.550  10.272   9.984  0.4256 -2.5361  2.4667
   57MOL0     H 7800  11.400  10.200   9.912  0.8996 -2.1186  0.6578
   57MOL0     H 7801  11.658  10.253   9.767 -0.0743  1.1933  1.0519
   57MOL0     H 7802  11.507  10.182   9.700 -1.9062 -1.8454  2.6673
   57MOL0     H 7803  11.398  10.402   9.731 -0.7735  0.6289 -0.0096
   57MOL0     H 7804  11.538  10.477   9.809 -2.5528  0.2911 -0.6132
   57MOL0     H 7805  11.659  10.433   9.577  0.7987  0.2740  2.7993
   57MOL0     H 7806  11.516  10.346   9.528  0.0662  1.0593 -1.2865
   57MOL0     H 7807  11.388  10.519   9.481 -0.7472  0.3867  0.3170
   57MOL0     H 7808  11.554  10.584   9.461  1.6371 -1.2523  0.9678
   57MOL0     H 7809  11.365  10.627   9.697  0.8006  2.3657  0.7437
   57MOL0     H 7810  11.519  10.713   9.677  1.4014 -0.6505 -0.5382
   57MOL0     H 7811  11.284  10.813   9.625 -2.7662 -0.6409 -1.8409
   57MOL0     H 7812  11.285  10.719   9.481  1.3067 -2.1296 -0.6557
   57MOL0     H 7813  11.513  10.819   9.423  2.1930  2.8873  0.5470
   57MOL0     H 7814  11.369  10.928   9.417  0.0096 -1.3434 -1.5299
   57MOL0     H 7815  11.692  10.854   9.615  0.9810 -0.4275 -0.4798
   57MOL0     H 7816  11.843  11.170   9.649 -2.0850  1.6160  0.3175
   57MOL0     H 7817  11.882  11.003   9.715  2.0161  0.5118  0.8925
   57MOL0     H 7818  11.736  11.228   9.866  1.2442  0.3336 -1.6643
   57MOL0     H 7819  11.732  11.059   9.911  0.1742 -1.2423 -2.0344
   57MOL0     H 7820  11.990  11.214   9.886  0.8191 -0.7218 -1.3229
   57MOL0     H 7821  11.899  11.206  10.041  1.7203  0.2686  0.9274
   57MOL0     H 7822  12.046  11.028  10.075  2.5217  0.5616 -1.1052
   57MOL0     H 7823  11.909  10.946  10.002 -2.4806  2.4239  0.1147
   57MOL0     H 7824  12.025  10.787  10.086 -1.8472  0.9176 -2.3613
   57MOL0     H 7825  12.202  10.487  10.203  0.0500 -0.3743 -0.1103
   57MOL0     H 7826  12.040  10.502  10.133  0.1459  0.5528 -0.8358
   57MOL0     H 7827  12.089  10.622  10.247 -1.9539  0.0237 -0.7108
   57MOL0     H 7828  12.335  10.188   9.835 -0.6085 -1.3295 -1.5600
   57MOL0     H 7829  12.434   9.961   9.856 -3.9643  0.1759 -0.8212
   57MOL0     H 7830  12.506   9.796  10.252 -0.4042  2.0683  0.0075
   57MOL0     H 7831  12.336   9.762  10.251 -1.2755 -0.2505 -1.9612
   57MOL0     H 7832  12.399   9.545  10.106  2.5674 -4.1649 -0.4741
   57MOL0     H 7833  12.558   9.579  10.135  0.2540 -1.9386  1.1225
   57MOL0     H 7834  12.482   9.412  10.287  0.1596 -0.2466 -0.4255
   57MOL0     H 7835  12.335   9.515  10.328  0.2887  2.2577  3.4903
   57MOL0     H 7836  12.508   9.675  10.446  0.4703 -0.0696 -0.6480
   57MOL0     H 7837  12.620   9.563  10.406  0.2753  0.9907 -1.1625
   57MOL0     H 7838  12.369   9.532  10.598 -1.3495 -0.3884 -1.4732
   57MOL0     H 7839  12.431   9.383  10.565  0.8426 -0.5353  0.4341
   57MOL0     H 7840  12.539   9.480  10.768 -1.7074  0.9854 -0.6886
   57MOL0     H 7841  12.617   9.604  10.663 -2.4898  1.3199 -2.2895
   57MOL0     H 7842  12.797   9.458  10.663  0.6561  0.2741 -1.9832
   57MOL0     H 7843  12.705   9.393  10.530 -0.9210  1.6195 -0.6709
   57MOL0     H 7844  12.585   9.248  10.699  0.9167 -3.0784  1.2575
   57MOL0     H 7845  12.687   9.319  10.824 -0.2689 -1.2359  0.6786
   57MOL0     H 7846  12.363   9.983  10.285 -1.9507  0.8656 -0.0381
   57MOL0     H 7847  12.287  10.218  10.251 -1.6354 -1.9470  1.5491
   57MOL0     H 7848  12.382  10.646   9.778 -0.3957 -2.1531  0.6065
   57MOL0     H 7849  12.255  10.854   9.746  1.9676  0.5259  0.0480
   57MOL0     H 7850  11.611   9.840   9.911 -1.8637 -0.6218  0.4193
   57MOL0     H 7851  11.665   9.697  10.093 -0.5501  0.1806  0.8532
   57MOL0     H 7852  11.815   9.617  10.492 -0.1378 -2.1235 -2.1317
   57MOL0     H 7853  11.885   9.466  10.668 -0.4829 -0.0665  0.2160
   57MOL0     H 7854  11.851   9.260  10.785  0.5354 -1.9443  1.2458
   57MOL0     H 7855  11.926   9.355  10.905  0.7315  0.3923  1.1633
   57MOL0     H 7856  11.792   9.224  11.081 -0.5413  0.9590 -0.7445
   57MOL0     H 7857  11.914   9.134  11.006  0.0478 -0.5465  1.6599
   57MOL0     H 7858  11.613   9.130  10.926  1.5905  1.8414 -1.2623
   57MOL0     H 7859  11.731   9.048  10.833 -0.3652  1.0746  0.0760
   57MOL0     H 7860  11.801   8.947  11.082 -0.2676  0.9391 -0.3103
   57MOL0     H 7861  11.700   8.861  10.969  0.8919 -1.7114  0.4739
   57MOL0     H 7862  11.414   8.943  11.268 -2.4141  0.9501 -2.8316
   57MOL0     H 7863  11.491   9.444  10.828  2.3532  1.2621  1.9505
   57MOL0     H 7864  11.323   9.517  10.572 -0.4360 -1.3482  2.3671
   57MOL0     H 7865  11.312   9.556  10.734 -2.8405 -2.4813 -1.9692
   57MOL0     H 7866  11.324   9.688  10.607 -0.0273  0.0994 -0.4111
   58MOL0     O 7867   7.169   6.544   9.840 -0.0546  0.6081 -0.2584
   58MOL0     C 7868   7.205   6.454   9.762  0.2082  0.2747 -0.1986
   58MOL0     O 7869   7.329   6.401   9.761 -0.6262  0.0498 -0.3068
   58MOL0     C 7870   7.426   6.441   9.845  0.6969  0.5402  0.2127
   58MOL0     C 7871   7.550   6.485   9.794  0.9055 -0.7904 -0.1841
   58MOL0     C 7872   7.662   6.499   9.880 -1.0667 -0.1148  0.4204
   58MOL0     C 7873   7.652   6.477  10.012  0.9808  0.3404 -0.1625
   58MOL0     O 7874   7.760   6.478  10.096 -0.4111 -1.0197  0.0294
   58MOL0     C 7875   7.813   6.347  10.141 -0.7824 -0.7038 -0.4031
   58MOL0     C 7876   7.953   6.358  10.157 -0.6460  0.2364  0.4147
   58MOL0     C 7877   8.018   6.244  10.245 -0.3684  0.4824  0.6003
   58MOL0     C 7878   8.005   6.099  10.192  0.3721 -0.8254  0.2500
   58MOL0     C 7879   8.019   5.997  10.299  0.7265 -0.6537  0.6588
   58MOL0     C 7880   8.158   5.981  10.362 -0.8262  0.1313 -1.0762
   58MOL0     C 7881   8.154   5.913  10.495  0.2318  0.1762  0.0719
   58MOL0     C 7882   8.288   5.874  10.550  0.1822 -0.9514  0.2615
   58MOL0     N 7883   8.254   5.810  10.681 -0.2420 -0.6399  0.1051
   58MOL0     C 7884   8.192   5.685  10.695 -0.7724  0.1417 -0.0679
   58MOL0     C 7885   8.176   5.671  10.823 -0.0637  0.2892  0.6163
   58MOL0     C 7886   8.131   5.544  10.880 -0.6126  0.4895 -0.0067
   58MOL0     C 7887   8.250   5.473  10.933 -0.4519  0.1263 -1.3368
   58MOL0     C 7888   8.331   5.540  11.048 -0.2865  0.4537 -0.9350
   58MOL0     C 7889   8.472   5.599  11.021 -0.4759 -0.0099  0.7919
   58MOL0     O 7890   8.543   5.520  10.925 -0.6639  0.1244  0.3923
   58MOL0     C 7891   8.674   5.566  10.918  0.6906 -0.2316 -0.0974
   58MOL0     C 7892   8.717   5.662  10.822 -0.4785  0.8917  0.5725
   58MOL0     C 7893   8.855   5.705  10.816 -0.7463 -0.3464 -1.5267
   58MOL0     C 7894   8.898   5.781  10.692  1.0162 -0.0418  0.2237
   58MOL0     C 7895   8.948   5.674  10.925  0.9779 -0.2963  0.4728
   58MOL0     C 7896   9.084   5.726  10.923 -0.1784 -0.5912  0.3183
   58MOL0     O 7897   9.184   5.643  10.891 -0.5174  0.5971  0.1893
   58MOL0     C 7898   9.302   5.686  10.870 -0.2302 -0.4516  0.1697
   58MOL0     C 7899   9.378   5.728  10.980  0.4898  0.7014 -0.3087
   58MOL0     C 7900   9.516   5.750  10.968 -0.3363 -0.2388  0.0674
   58MOL0     C 7901   9.579   5.740  10.845  0.5729  0.2013 -0.0236
   58MOL0     O 7902   9.720   5.760  10.846  0.1270  0.6783  0.0164
   58MOL0     C 7903   9.792   5.657  10.782 -0.5648 -0.1168  0.8468
   58MOL0     C 7904   9.773   5.511  10.841 -0.0856 -0.1276  0.5913
   58MOL0     C 7905   9.830   5.520  10.985  0.2241  0.6266  0.5154
   58MOL0     C 7906   9.883   5.391  11.041 -0.8354 -0.3935  0.0946
   58MOL0     C 7907   9.847   5.380  11.190 -1.1584  0.4865 -0.7483
   58MOL0     C 7908   9.698   5.380  11.218  0.7190 -0.1693  0.4700
   58MOL0     C 7909   9.601   5.274  11.145 -0.5573 -0.2465  0.2295
   58MOL0     C 7910   9.615   5.126  11.194 -0.4148 -0.1715  0.1706
   58MOL0    Cl 7911   9.521   5.107  11.335 -0.2055  0.0492 -0.1973
   58MOL0     C 7912   9.499   5.701  10.738 -0.4134 -0.7114  0.0975
   58MOL0     C 7913   9.368   5.672  10.752  0.5963 -0.8134  1.5736
   58MOL0     O 7914   9.092   5.846  10.926 -0.6374  0.3969  0.3337
   58MOL0     C 7915   8.905   5.576  11.014 -0.0503  0.2366 -0.1281
   58MOL0     C 7916   8.775   5.530  11.009  0.7482  0.1324  0.2337
   58MOL0     N 7917   8.201   5.791  10.883  0.0914 -0.1982  0.4505
   58MOL0     N 7918   8.246   5.876  10.797 -0.3989  0.3136 -0.0367
   58MOL0     C 7919   7.524   6.443  10.072  0.1386 -0.3275  0.8281
   58MOL0     C 7920   7.415   6.425   9.981  0.3902  0.1450  0.9848
   58MOL0     C 7921   7.115   6.420   9.647  0.4113  0.9080  0.5735
   58MOL0     C 7922   7.161   6.332   9.549 -0.2648  0.6405 -0.7496
   58MOL0     C 7923   7.078   6.298   9.434 -0.6511 -0.9818 -0.1363
   58MOL0     C 7924   6.954   6.357   9.417  0.3802 -0.4763 -0.2302
   58MOL0     O 7925   6.876   6.341   9.303 -0.5056  0.3864 -0.5899
   58MOL0     C 7926   6.883   6.218   9.229 -0.5811  0.2330  0.4089
   58MOL0     C 7927   6.744   6.193   9.166  0.3834 -0.7440 -0.5530
   58MOL0     C 7928   6.633   6.147   9.260  0.8150  0.0756  0.2875
   58MOL0     C 7929   6.606   6.234   9.378 -0.1379 -0.0960  0.1787
   58MOL0     C 7930   6.567   6.371   9.338  0.2477 -0.2858  0.3283
   58MOL0     C 7931   6.526   6.476   9.304 -0.3189 -0.1598 -0.5728
   58MOL0     C 7932   6.896   6.426   9.529  0.0977 -0.0814 -0.0466
   58MOL0     C 7933   6.980   6.464   9.634  1.7491 -0.3333  0.3836
   58MOL0     C 7934   6.905   6.553   9.728  0.2005  0.4403  0.0205
   58MOL0     H 7935   7.554   6.509   9.688 -0.8562  1.2766  0.1553
   58MOL0     H 7936   7.763   6.524   9.847  0.9817 -3.6653  3.1895
   58MOL0     H 7937   7.773   6.269  10.075 -1.4609 -0.1403 -0.6753
   58MOL0     H 7938   7.765   6.325  10.238  0.2286 -1.7554 -0.1215
   58MOL0     H 7939   7.998   6.355  10.057  1.5741  1.2185  1.3186
   58MOL0     H 7940   7.976   6.459  10.192  0.2039  1.1957 -2.5653
   58MOL0     H 7941   8.124   6.263  10.266 -0.3712  0.5218  0.5790
   58MOL0     H 7942   7.974   6.239  10.345 -0.3815  1.0638  0.6247
   58MOL0     H 7943   7.911   6.092  10.136  0.2282 -3.0067  0.6837
   58MOL0     H 7944   8.075   6.087  10.109 -0.5490 -1.7733 -0.4153
   58MOL0     H 7945   7.999   5.905  10.244 -1.7425 -0.6853  1.4738
   58MOL0     H 7946   7.946   6.007  10.381  0.4309  1.9168  0.1533
   58MOL0     H 7947   8.226   5.943  10.286 -0.7194  0.3211 -1.0757
   58MOL0     H 7948   8.187   6.084  10.386 -0.1929 -0.4621  0.8348
   58MOL0     H 7949   8.095   5.821  10.487 -3.0489  2.1308 -0.0016
   58MOL0     H 7950   8.098   5.978  10.562  1.1472  4.6207 -3.0400
   58MOL0     H 7951   8.352   5.810  10.489  1.9200 -0.8553  1.8669
   58MOL0     H 7952   8.341   5.968  10.566 -0.9521  0.1029 -1.7338
   58MOL0     H 7953   8.182   5.623  10.606 -0.8793  1.2731 -0.8587
   58MOL0     H 7954   8.070   5.494  10.805 -1.9400  2.6414 -0.4602
   58MOL0     H 7955   8.057   5.555  10.959  0.0827  0.0351  0.7149
   58MOL0     H 7956   8.197   5.385  10.970  1.2121  0.0631  1.1325
   58MOL0     H 7957   8.302   5.431  10.847 -2.0542 -1.9477 -1.3649
   58MOL0     H 7958   8.270   5.619  11.093 -0.2447  1.1229 -2.0025
   58MOL0     H 7959   8.344   5.477  11.136  0.6803  0.6540 -0.9162
   58MOL0     H 7960   8.450   5.695  10.974 -3.4503 -0.8292  0.3414
   58MOL0     H 7961   8.532   5.613  11.111  1.8736  0.0163 -0.6771
   58MOL0     H 7962   8.648   5.701  10.747 -2.1193  1.5268  2.3123
   58MOL0     H 7963   9.003   5.804  10.672  0.0504  2.6756 -2.5743
   58MOL0     H 7964   8.856   5.882  10.701  1.5416  0.0791  1.5685
   58MOL0     H 7965   8.855   5.746  10.598 -3.0973  3.6474  0.4217
   58MOL0     H 7966   9.332   5.742  11.077  2.3621  2.2897  0.3971
   58MOL0     H 7967   9.577   5.791  11.047 -0.1653  0.1520 -0.2684
   58MOL0     H 7968   9.760   5.648  10.678  1.8388  0.5903 -0.0120
   58MOL0     H 7969   9.898   5.684  10.776 -0.5911  0.4819  2.5936
   58MOL0     H 7970   9.670   5.474  10.829 -0.0658 -0.1618  0.5288
   58MOL0     H 7971   9.841   5.440  10.794  0.3367  0.4315  0.3533
   58MOL0     H 7972   9.751   5.569  11.044 -1.9546 -0.4723 -1.3232
   58MOL0     H 7973   9.914   5.588  10.969  0.2939 -0.1047 -3.1122
   58MOL0     H 7974   9.991   5.395  11.023 -1.2233 -1.8733 -3.3805
   58MOL0     H 7975   9.834   5.308  10.989 -4.2109  2.4602 -1.6556
   58MOL0     H 7976   9.890   5.288  11.230 -0.8847  1.7932  2.1699
   58MOL0     H 7977   9.894   5.451  11.259 -1.2056  2.1258 -2.3373
   58MOL0     H 7978   9.661   5.481  11.199 -1.1471 -1.1950 -1.8573
   58MOL0     H 7979   9.684   5.357  11.324 -0.3586  1.1605  0.6397
   58MOL0     H 7980   9.617   5.264  11.037 -0.6489 -1.6138  0.3189
   58MOL0     H 7981   9.500   5.315  11.152 -0.0449  1.0519  0.3207
   58MOL0     H 7982   9.716   5.095  11.223 -0.1885 -0.3684 -0.8174
   58MOL0     H 7983   9.583   5.058  11.115 -0.9151  1.0277 -0.6942
   58MOL0     H 7984   9.548   5.670  10.646  0.8356  0.7989  0.1979
   58MOL0     H 7985   9.326   5.639  10.658  1.3434  0.5793  0.7308
   58MOL0     H 7986   8.972   5.542  11.093 -1.4857  2.9575  2.4755
   58MOL0     H 7987   8.744   5.458  11.084 -0.9819  0.1506 -0.4251
   58MOL0     H 7988   7.518   6.437  10.180  0.2341  0.5011  0.8907
   58MOL0     H 7989   7.319   6.387  10.016 -0.8281 -1.1637 -3.1130
   58MOL0     H 7990   7.260   6.287   9.544 -0.9711 -0.8404 -2.3307
   58MOL0     H 7991   7.116   6.238   9.352  0.3118 -1.4086  0.6050
   58MOL0     H 7992   6.962   6.226   9.154  0.6168 -0.0676  1.6002
   58MOL0     H 7993   6.902   6.129   9.290 -0.8927 -2.3680 -3.0273
   58MOL0     H 7994   6.757   6.117   9.089  0.0660 -0.0990 -1.2548
   58MOL0     H 7995   6.722   6.291   9.122  2.6402 -0.0080 -0.1492
   58MOL0     H 7996   6.543   6.145   9.198 -1.7110  0.0589  3.6769
   58MOL0     H 7997   6.639   6.043   9.293 -1.1824 -0.1322  0.0974
   58MOL0     H 7998   6.692   6.244   9.444  1.0070  1.0712 -1.4316
   58MOL0     H 7999   6.524   6.182   9.429 -0.2234 -0.2552 -0.1207
   58MOL0     H 8000   6.491   6.569   9.264 -0.2241 -0.3238 -1.0526
   58MOL0     H 8001   6.801   6.470   9.502  0.2917 -1.7602 -4.2349
   58MOL0     H 8002   6.954   6.651   9.734  0.1449  0.7514 -2.9983
   58MOL0     H 8003   6.803   6.571   9.694  0.2790  2.4194  0.7457
   58MOL0     H 8004   6.900   6.504   9.826  0.6729 -1.0025 -0.6524
   59MOL0     O 8005   2.470  10.714   2.009 -0.7216  0.2419 -1.2130
   59MOL0     C 8006   2.510  10.631   2.102  0.2887  0.3141  0.3699
   59MOL0     O 8007   2.447  10.517   2.131 -0.1729  0.1418 -0.1211
   59MOL0     C 8008   2.360  10.463   2.040 -1.0885  0.0307  0.3383
   59MOL0     C 8009   2.230  10.513   1.991  0.6278 -0.5605 -0.1925
   59MOL0     C 8010   2.151  10.447   1.896  0.0256 -0.6618  0.1097
   59MOL0     C 8011   2.196  10.339   1.834 -0.1246  0.7098 -0.2915
   59MOL0     O 8012   2.116  10.267   1.748  0.0345 -1.7230  0.1371
   59MOL0     C 8013   2.008  10.200   1.807 -0.4133  0.3876  0.4678
   59MOL0     C 8014   1.969  10.075   1.718 -0.1876  0.4888  1.2871
   59MOL0     C 8015   1.830  10.033   1.763  0.8683 -0.2545  0.5092
   59MOL0     C 8016   1.831   9.888   1.783 -0.7712  0.2789  0.0389
   59MOL0     C 8017   1.706   9.822   1.849  0.4921 -0.9132 -0.1585
   59MOL0     C 8018   1.582   9.839   1.769  0.2662 -0.3978 -0.3142
   59MOL0     C 8019   1.468   9.763   1.836 -0.0576  0.5108 -1.0561
   59MOL0     C 8020   1.369   9.733   1.725 -0.4753 -0.2150  0.0997
   59MOL0     N 8021   1.239   9.725   1.795 -0.4356  0.2241 -0.6065
   59MOL0     C 8022   1.161   9.825   1.845  0.4438  0.1430  0.7734
   59MOL0     C 8023   1.044   9.757   1.881 -0.5003  1.1698 -0.1688
   59MOL0     C 8024   0.926   9.810   1.962 -0.8604  0.8875  0.5465
   59MOL0     C 8025   0.894   9.960   1.944 -0.7516 -0.2074 -0.8370
   59MOL0     C 8026   0.813   9.993   1.820 -0.1867 -0.1119 -0.7217
   59MOL0     C 8027   0.788  10.151   1.811  1.8907 -0.0918 -0.1037
   59MOL0     O 8028   0.739  10.215   1.930 -0.8978  1.0755  0.4285
   59MOL0     C 8029   0.724  10.346   1.924 -0.0886 -0.5202 -0.8524
   59MOL0     C 8030   0.756  10.422   1.808  0.0726  0.0548 -0.4996
   59MOL0     C 8031   0.749  10.565   1.813 -0.4819 -0.0884 -0.0529
   59MOL0     C 8032   0.783  10.637   1.687  0.1905 -1.2432 -1.3056
   59MOL0     C 8033   0.700  10.625   1.928 -0.1349  0.5009  0.7463
   59MOL0     C 8034   0.680  10.766   1.939  0.7939  0.6463 -0.4476
   59MOL0     O 8035   0.634  10.808   2.058  0.1224  0.2400 -0.0693
   59MOL0     C 8036   0.619  10.938   2.101 -0.2500  0.9800  0.2547
   59MOL0     C 8037   0.586  10.940   2.235  1.1156  0.4128 -0.0138
   59MOL0     C 8038   0.598  11.056   2.312 -0.0047  0.0724 -0.9734
   59MOL0     C 8039   0.651  11.170   2.257 -0.2558 -0.0024 -0.1419
   59MOL0     O 8040   0.631  11.286   2.336  0.1512  0.0745 -1.1291
   59MOL0     C 8041   0.502  11.345   2.311 -0.1938 -0.4844 -0.4236
   59MOL0     C 8042   0.470  11.474   2.390 -0.1340  0.6818  0.5643
   59MOL0     C 8043   0.521  11.611   2.326  1.1394  0.0673  0.1251
   59MOL0     C 8044   0.426  11.730   2.341  0.3025  0.9570  0.2147
   59MOL0     C 8045   0.493  11.855   2.295  1.4066 -0.1565 -0.2800
   59MOL0     C 8046   0.589  11.908   2.392 -0.1508 -0.5532 -0.7916
   59MOL0     C 8047   0.639  12.042   2.344  0.0531 -0.0733  0.2836
   59MOL0     C 8048   0.761  12.098   2.434 -0.3499 -0.4580 -0.0006
   59MOL0    Cl 8049   0.707  12.175   2.586 -0.2413  0.4829  0.0135
   59MOL0     C 8050   0.680  11.172   2.117 -1.2693 -0.6057  0.0817
   59MOL0     C 8051   0.674  11.054   2.048  0.4395 -0.3866  0.7534
   59MOL0     O 8052   0.700  10.829   1.839 -0.2592 -0.8292  0.7922
   59MOL0     C 8053   0.660  10.545   2.034 -1.7880  0.9985 -0.3720
   59MOL0     C 8054   0.676  10.409   2.036 -0.0639  0.1226  0.4051
   59MOL0     N 8055   1.055   9.619   1.850  0.2237 -0.8057 -0.3051
   59MOL0     N 8056   1.177   9.601   1.807  0.2185 -0.2310 -0.0319
   59MOL0     C 8057   2.326  10.295   1.873 -0.2969  2.1079  0.0579
   59MOL0     C 8058   2.410  10.352   1.966 -0.0980  0.2965 -0.8367
   59MOL0     C 8059   2.631  10.654   2.174 -0.1107 -0.1715 -0.0461
   59MOL0     C 8060   2.644  10.626   2.313  0.0341  0.3140 -0.3747
   59MOL0     C 8061   2.763  10.620   2.389  0.4702 -0.2928 -0.1926
   59MOL0     C 8062   2.880  10.658   2.325  0.8153  0.2552  0.4752
   59MOL0     O 8063   3.002  10.653   2.402  0.3579 -0.0775 -0.3867
   59MOL0     C 8064   3.127  10.670   2.336  0.2226 -0.0725 -0.1893
   59MOL0     C 8065   3.243  10.637   2.438 -0.2876 -0.0863  0.3976
   59MOL0     C 8066   3.210  10.517   2.527  0.4402  0.0705  0.2130
   59MOL0     C 8067   3.164  10.560   2.669  0.4462  0.0354  0.4632
   59MOL0     C 8068   3.103  10.447   2.753 -0.0933 -1.0827 -0.0964
   59MOL0     C 8069   3.051  10.348   2.809  0.4454  0.0908  0.8046
   59MOL0     C 8070   2.873  10.689   2.186  0.2637 -0.0986 -0.2881
   59MOL0     C 8071   2.749  10.701   2.115  0.2827  1.0882  0.6819
   59MOL0     C 8072   2.769  10.753   1.972 -0.3048 -1.0399 -0.6267
   59MOL0     H 8073   2.177  10.593   2.042 -1.5638 -3.6797  2.8584
   59MOL0     H 8074   2.056  10.493   1.868  0.2441 -0.4542 -0.3010
   59MOL0     H 8075   1.917  10.262   1.805 -2.9561 -2.9838 -2.0452
   59MOL0     H 8076   2.033  10.159   1.905 -0.5799 -0.6324  0.0952
   59MOL0     H 8077   1.971  10.104   1.613  2.9442 -0.6808  0.9168
   59MOL0     H 8078   2.046   9.998   1.727 -0.2942  0.5832  3.5078
   59MOL0     H 8079   1.799  10.073   1.860  0.7949 -1.7967  1.1546
   59MOL0     H 8080   1.757  10.068   1.689  1.2751  0.9068  0.6483
   59MOL0     H 8081   1.852   9.833   1.691  2.0288  0.5487  0.4154
   59MOL0     H 8082   1.911   9.863   1.854 -1.6292 -1.5641  0.4342
   59MOL0     H 8083   1.691   9.875   1.944 -0.4947 -2.3672  0.5304
   59MOL0     H 8084   1.721   9.715   1.864 -0.0010 -0.6972  2.2069
   59MOL0     H 8085   1.559   9.945   1.765  2.2977  0.1345  0.4399
   59MOL0     H 8086   1.590   9.811   1.664 -2.2548  0.9402 -0.9164
   59MOL0     H 8087   1.413   9.825   1.908 -2.7208 -0.6604 -1.9283
   59MOL0     H 8088   1.497   9.668   1.880 -1.4985  1.4334  2.2218
   59MOL0     H 8089   1.359   9.812   1.650 -2.1914 -1.6522 -1.3044
   59MOL0     H 8090   1.390   9.638   1.674 -1.1771 -0.4045  0.1529
   59MOL0     H 8091   1.174   9.932   1.851 -1.8488  0.5347 -0.0617
   59MOL0     H 8092   0.955   9.790   2.066 -1.9381  2.1152  1.1079
   59MOL0     H 8093   0.833   9.757   1.941 -2.7819  3.3660  2.1846
   59MOL0     H 8094   0.850   9.993   2.039  0.7653  1.6392 -0.7133
   59MOL0     H 8095   0.984  10.019   1.927 -1.2337  1.1722  1.1159
   59MOL0     H 8096   0.872   9.964   1.732 -1.4308 -0.5406 -1.4464
   59MOL0     H 8097   0.717   9.941   1.816  0.0390 -0.5554 -0.4814
   59MOL0     H 8098   0.886  10.196   1.791  0.6927  3.3145  1.0860
   59MOL0     H 8099   0.722  10.175   1.727  1.4596 -1.4036 -0.1544
   59MOL0     H 8100   0.795  10.377   1.717  0.4302 -0.2190 -0.2163
   59MOL0     H 8101   0.691  10.680   1.647  0.2184  0.0452 -0.0614
   59MOL0     H 8102   0.827  10.569   1.614  2.7239  2.3054 -3.4541
   59MOL0     H 8103   0.854  10.720   1.695 -0.0002 -1.2852  2.4574
   59MOL0     H 8104   0.536  10.859   2.288 -0.5328  2.9648  2.6654
   59MOL0     H 8105   0.564  11.049   2.415  0.9855  1.8570 -0.4711
   59MOL0     H 8106   0.498  11.352   2.202 -0.7954  0.2847 -0.3595
   59MOL0     H 8107   0.421  11.275   2.331 -2.4980  2.2353  0.3344
   59MOL0     H 8108   0.364  11.480   2.417 -0.5836  2.8694 -1.4286
   59MOL0     H 8109   0.522  11.463   2.486  1.9257 -3.7127 -0.7972
   59MOL0     H 8110   0.539  11.598   2.219  3.2855  0.4415  0.4104
   59MOL0     H 8111   0.620  11.632   2.367  1.8868  0.8657 -1.9315
   59MOL0     H 8112   0.380  11.729   2.440  0.2870 -0.9919  0.2198
   59MOL0     H 8113   0.346  11.714   2.269  1.6953  0.3231 -1.2643
   59MOL0     H 8114   0.528  11.831   2.194 -2.7055 -3.4208 -1.2118
   59MOL0     H 8115   0.410  11.925   2.281 -0.8404 -2.8587 -1.3534
   59MOL0     H 8116   0.677  11.843   2.389 -0.0957 -0.5805  0.5656
   59MOL0     H 8117   0.558  11.912   2.497  1.7141  1.1143 -0.2508
   59MOL0     H 8118   0.559  12.116   2.352  2.4070  3.0602 -2.4416
   59MOL0     H 8119   0.687  12.027   2.247 -2.4274 -4.2833 -0.5626
   59MOL0     H 8120   0.828  12.164   2.378 -0.5536 -0.3093 -0.0720
   59MOL0     H 8121   0.833  12.018   2.455  0.7589  0.3814 -0.4825
   59MOL0     H 8122   0.698  11.262   2.060  1.0932 -3.5125 -4.4566
   59MOL0     H 8123   0.720  11.063   1.950  3.8015  2.4791  2.3440
   59MOL0     H 8124   0.610  10.594   2.116 -0.9859 -0.9226  1.3677
   59MOL0     H 8125   0.634  10.350   2.117 -2.2000  1.3576  0.2701
   59MOL0     H 8126   2.370  10.208   1.825 -0.2573  2.0597  0.1792
   59MOL0     H 8127   2.505  10.311   1.997 -1.2101 -4.9384 -3.2337
   59MOL0     H 8128   2.558  10.594   2.371  1.9492 -3.6381  0.6442
   59MOL0     H 8129   2.736  10.601   2.492 -2.2303 -4.0433 -1.3628
   59MOL0     H 8130   3.132  10.607   2.247 -0.7752 -0.7420  0.2215
   59MOL0     H 8131   3.129  10.774   2.304 -2.1249  0.3296  0.7647
   59MOL0     H 8132   3.275  10.720   2.500 -0.1513  1.6560 -1.8687
   59MOL0     H 8133   3.325  10.607   2.370 -0.1111 -1.1761  1.0625
   59MOL0     H 8134   3.132  10.451   2.489 -2.6103  2.1733  2.4043
   59MOL0     H 8135   3.302  10.457   2.531  0.0751 -0.5012  0.0412
   59MOL0     H 8136   3.089  10.634   2.640  3.9297  3.6645 -0.0437
   59MOL0     H 8137   3.239  10.612   2.729 -1.4000  0.5645  2.4567
   59MOL0     H 8138   3.015  10.268   2.870 -0.8181  1.0053  1.3187
   59MOL0     H 8139   2.967  10.721   2.144  1.5581 -1.3655  1.4849
   59MOL0     H 8140   2.815  10.675   1.911  1.1621  0.4936 -1.5865
   59MOL0     H 8141   2.681  10.793   1.921  1.7402  1.4686 -2.5322
   59MOL0     H 8142   2.851  10.826   1.978 -0.3949 -1.0876  2.5008
   60MOL0     O 8143   9.133   9.778   7.568  0.5161 -0.0077 -0.2409
   60MOL0     C 8144   9.150   9.873   7.489  0.7007  0.3436  0.0104
   60MOL0     O 8145   9.076   9.985   7.483  0.2503  0.1956 -0.9739
   60MOL0     C 8146   8.966   9.973   7.563  0.1146 -0.0872  0.0695
   60MOL0     C 8147   8.848   9.956   7.498  0.5117  0.1882  0.8551
   60MOL0     C 8148   8.729   9.947   7.564  1.2312 -0.6172 -0.3933
   60MOL0     C 8149   8.725   9.968   7.709  0.1393 -0.2558  1.2008
   60MOL0     O 8150   8.610   9.964   7.778 -0.6820 -0.3547  0.5114
   60MOL0     C 8151   8.516  10.062   7.730 -0.0235 -0.2736 -0.1436
   60MOL0     C 8152   8.539  10.206   7.767 -0.1668  0.1297 -0.0625
   60MOL0     C 8153   8.608  10.231   7.913 -0.8593  0.5449  0.9337
   60MOL0     C 8154   8.521  10.166   8.022 -0.1255 -0.5748 -0.3526
   60MOL0     C 8155   8.593  10.187   8.161  0.3033 -0.1201  0.3656
   60MOL0     C 8156   8.484  10.218   8.266  0.1726  0.6668  0.1511
   60MOL0     C 8157   8.422  10.087   8.334 -0.7888 -0.5781  0.1655
   60MOL0     C 8158   8.304  10.034   8.261  0.8396  0.4391 -0.0732
   60MOL0     N 8159   8.333   9.917   8.180  0.5000 -0.3875 -0.5555
   60MOL0     C 8160   8.248   9.865   8.086  0.3692  0.4839  0.7267
   60MOL0     C 8161   8.330   9.801   8.005 -0.6485 -0.2975  0.5934
   60MOL0     C 8162   8.286   9.747   7.872 -0.0232  0.1862 -0.3287
   60MOL0     C 8163   8.363   9.623   7.823 -0.1102  0.4637 -0.1560
   60MOL0     C 8164   8.345   9.603   7.674 -0.4980  0.3930  0.2626
   60MOL0     C 8165   8.454   9.518   7.606 -0.6932  0.4562 -0.9879
   60MOL0     O 8166   8.586   9.583   7.629 -0.2465 -0.2504  0.4757
   60MOL0     C 8167   8.709   9.510   7.637  0.1629 -0.5900  0.7843
   60MOL0     C 8168   8.715   9.383   7.592  0.4513  0.2166 -0.3207
   60MOL0     C 8169   8.825   9.300   7.607 -0.3773  0.2112 -0.0322
   60MOL0     C 8170   8.822   9.162   7.536  1.0805 -0.1675  0.4049
   60MOL0     C 8171   8.934   9.343   7.701 -1.6898  0.8759  0.2922
   60MOL0     C 8172   9.048   9.248   7.743  0.7826  0.1049  0.8364
   60MOL0     O 8173   9.019   9.120   7.741 -0.1278 -0.5840 -0.1213
   60MOL0     C 8174   9.125   9.035   7.749 -0.5460  0.4181 -0.0845
   60MOL0     C 8175   9.198   8.994   7.635  0.0247 -0.2009 -0.1398
   60MOL0     C 8176   9.287   8.887   7.654 -0.5709 -0.3754 -0.9218
   60MOL0     C 8177   9.306   8.825   7.781 -0.1353 -0.3390  0.6146
   60MOL0     O 8178   9.386   8.717   7.784 -0.6824  0.6346 -0.2730
   60MOL0     C 8179   9.315   8.604   7.830  0.3486  0.0901  0.2494
   60MOL0     C 8180   9.420   8.502   7.880  0.9561 -0.8824  0.5358
   60MOL0     C 8181   9.354   8.380   7.919 -0.6880  0.5080  0.0789
   60MOL0     C 8182   9.454   8.274   7.977  0.6582 -0.6026 -0.2748
   60MOL0     C 8183   9.401   8.135   7.991  0.1921 -0.2847  0.0236
   60MOL0     C 8184   9.367   8.059   7.858  0.5443 -0.6856 -0.3912
   60MOL0     C 8185   9.471   8.088   7.744 -0.7421 -0.8956 -0.0854
   60MOL0     C 8186   9.446   7.985   7.634  0.1995  0.2005  0.2650
   60MOL0    Cl 8187   9.296   8.019   7.541 -0.1302 -0.0005 -0.1904
   60MOL0     C 8188   9.241   8.880   7.896 -0.2276  1.1377 -0.3965
   60MOL0     C 8189   9.154   8.984   7.877 -0.5528 -0.0644 -0.4546
   60MOL0     O 8190   9.150   9.304   7.779 -0.1172  0.8366  0.3997
   60MOL0     C 8191   8.930   9.480   7.744  0.1151 -0.0444 -0.2155
   60MOL0     C 8192   8.812   9.564   7.715 -0.5767  0.1227  0.1590
   60MOL0     N 8193   8.454   9.791   8.049 -0.1866 -0.4324 -0.2333
   60MOL0     N 8194   8.452   9.852   8.162  0.1095  0.1000  0.4630
   60MOL0     C 8195   8.853   9.994   7.772 -0.2784  0.0584  0.3833
   60MOL0     C 8196   8.968  10.002   7.694 -0.4970  0.7374  0.1486
   60MOL0     C 8197   9.254   9.851   7.385  0.2335  0.2462 -0.0129
   60MOL0     C 8198   9.242   9.925   7.267 -0.3653  0.4746 -0.1798
   60MOL0     C 8199   9.330   9.911   7.154  0.7405  0.7279 -0.3519
   60MOL0     C 8200   9.430   9.809   7.170  0.5669 -0.3812  0.3752
   60MOL0     O 8201   9.518   9.788   7.064 -0.2876  0.2415 -0.0808
   60MOL0     C 8202   9.492   9.663   6.997 -0.3235  0.5451 -0.0090
   60MOL0     C 8203   9.531   9.666   6.843  0.5075 -0.6565 -0.5379
   60MOL0     C 8204   9.485   9.541   6.758  0.3987  0.6589  0.0425
   60MOL0     C 8205   9.543   9.522   6.620  0.1555 -0.8270  0.1117
   60MOL0     C 8206   9.673   9.580   6.593 -0.8558  0.0108 -0.6758
   60MOL0     C 8207   9.787   9.620   6.573  0.2470  0.4528 -0.0132
   60MOL0     C 8208   9.459   9.748   7.295  0.4895  0.9798 -0.5199
   60MOL0     C 8209   9.374   9.770   7.407  0.4518  0.4531  0.5513
   60MOL0     C 8210   9.422   9.715   7.535  0.4476 -0.2414  0.6530
   60MOL0     H 8211   8.854   9.938   7.391 -2.2713  1.7461  0.3549
   60MOL0     H 8212   8.644   9.918   7.503 -0.3177 -1.2716  1.9089
   60MOL0     H 8213   8.421  10.028   7.773 -0.2736 -0.8500 -1.1173
   60MOL0     H 8214   8.481  10.048   7.627 -0.9233 -1.8089  0.3319
   60MOL0     H 8215   8.618  10.247   7.703  0.7361  0.1334  1.0212
   60MOL0     H 8216   8.438  10.246   7.753 -0.2242 -0.6127 -2.1944
   60MOL0     H 8217   8.714  10.202   7.912 -1.5263 -2.2123  1.6475
   60MOL0     H 8218   8.594  10.337   7.935 -3.5403  0.0114  2.1931
   60MOL0     H 8219   8.428  10.223   8.016 -1.4730 -2.4827  1.0805
   60MOL0     H 8220   8.504  10.060   8.001 -0.5277 -0.6601  0.3480
   60MOL0     H 8221   8.654  10.273   8.132 -2.1090  0.4236 -3.8142
   60MOL0     H 8222   8.667  10.110   8.184 -1.1336 -1.6144  0.1553
   60MOL0     H 8223   8.543  10.258   8.350  2.1044 -1.8582  0.1234
   60MOL0     H 8224   8.414  10.290   8.224  0.9833 -0.0654 -2.7027
   60MOL0     H 8225   8.378  10.110   8.432  0.8916  0.8447  0.6464
   60MOL0     H 8226   8.499  10.011   8.348  1.2721  1.3758  0.1234
   60MOL0     H 8227   8.241   9.995   8.342  1.3344 -0.1739  0.0341
   60MOL0     H 8228   8.259  10.109   8.197 -1.3843  1.0198  2.0347
   60MOL0     H 8229   8.143   9.892   8.083  0.7849  2.5032  2.2127
   60MOL0     H 8230   8.295   9.822   7.793 -2.7693 -0.9626 -1.8751
   60MOL0     H 8231   8.181   9.715   7.875 -0.5640  1.8314  1.9648
   60MOL0     H 8232   8.469   9.643   7.843 -0.1991 -0.2460  1.1336
   60MOL0     H 8233   8.312   9.541   7.875 -1.2862  0.1107 -1.7938
   60MOL0     H 8234   8.250   9.554   7.651 -0.4774 -0.6959  2.2827
   60MOL0     H 8235   8.341   9.694   7.613 -0.2390 -0.6083 -1.2968
   60MOL0     H 8236   8.464   9.418   7.651 -0.6416  0.8130 -0.1873
   60MOL0     H 8237   8.428   9.506   7.500 -0.4630  1.0549 -1.1129
   60MOL0     H 8238   8.628   9.331   7.551 -0.6521 -1.6658  3.8470
   60MOL0     H 8239   8.923   9.138   7.502 -0.0841 -0.5688 -3.1995
   60MOL0     H 8240   8.750   9.149   7.455 -0.9611 -1.4237  2.3156
   60MOL0     H 8241   8.789   9.095   7.616  2.4135  2.1456  3.0907
   60MOL0     H 8242   9.179   9.014   7.530  2.9868  0.8481 -0.5690
   60MOL0     H 8243   9.324   8.827   7.571 -0.2346 -2.6983  0.7853
   60MOL0     H 8244   9.243   8.629   7.908  2.2060  1.2419  1.6809
   60MOL0     H 8245   9.269   8.574   7.735  1.1023 -1.1739  0.2550
   60MOL0     H 8246   9.502   8.481   7.811  0.3225 -3.3228  0.4420
   60MOL0     H 8247   9.461   8.546   7.971 -1.8692  4.2823 -0.3275
   60MOL0     H 8248   9.317   8.329   7.829 -0.2523  1.8514 -0.8898
   60MOL0     H 8249   9.275   8.397   7.993 -0.1118 -1.1026  1.1137
   60MOL0     H 8250   9.482   8.312   8.075 -2.3629  2.5912 -0.4510
   60MOL0     H 8251   9.543   8.284   7.914  0.6027 -0.1324 -0.2798
   60MOL0     H 8252   9.480   8.075   8.038  1.9142  2.2183  0.5528
   60MOL0     H 8253   9.307   8.141   8.046  0.4228  2.2208  0.2547
   60MOL0     H 8254   9.269   8.087   7.817  0.6257 -0.0941 -0.1857
   60MOL0     H 8255   9.355   7.955   7.892  2.8816 -1.3924 -1.5058
   60MOL0     H 8256   9.575   8.072   7.775 -1.2111 -3.0277  0.5451
   60MOL0     H 8257   9.462   8.189   7.704  0.2015 -0.5237  0.5972
   60MOL0     H 8258   9.434   7.889   7.684  0.4129 -0.2049 -0.4511
   60MOL0     H 8259   9.533   7.972   7.569 -0.4713 -0.9980 -0.4107
   60MOL0     H 8260   9.267   8.841   7.994  2.2266  1.9603 -0.6603
   60MOL0     H 8261   9.109   9.033   7.963  3.2377  0.9621  1.1994
   60MOL0     H 8262   9.026   9.505   7.790  0.5658  1.0652 -1.6929
   60MOL0     H 8263   8.795   9.662   7.759 -1.0454 -1.1891  3.1369
   60MOL0     H 8264   8.869  10.001   7.879  0.1460 -2.4902  0.5665
   60MOL0     H 8265   9.067  10.015   7.736  1.0243 -4.0804 -1.1918
   60MOL0     H 8266   9.149   9.981   7.258 -0.9317 -0.6227 -1.4023
   60MOL0     H 8267   9.303   9.974   7.070  0.1870  0.6799 -0.2170
   60MOL0     H 8268   9.554   9.585   7.041 -2.7106 -1.0759  0.6171
   60MOL0     H 8269   9.390   9.627   7.013  0.0535 -0.5027  0.0945
   60MOL0     H 8270   9.639   9.661   6.831  0.6066 -0.3097  0.1634
   60MOL0     H 8271   9.497   9.760   6.800  3.9746  0.4697 -1.0740
   60MOL0     H 8272   9.498   9.453   6.821  1.4104  0.7818  0.0158
   60MOL0     H 8273   9.378   9.550   6.739  0.5228  0.3705 -0.8553
   60MOL0     H 8274   9.478   9.567   6.543 -0.4544 -2.0336 -0.1020
   60MOL0     H 8275   9.552   9.415   6.600 -1.1271 -0.8387 -0.5074
   60MOL0     H 8276   9.888   9.646   6.551  0.5694 -0.4154  0.4074
   60MOL0     H 8277   9.543   9.681   7.312 -0.5252  0.0282  0.9073
   60MOL0     H 8278   9.525   9.750   7.548  0.3189  0.2905  0.2675
   60MOL0     H 8279   9.372   9.743   7.628 -0.1598 -2.9184  1.2212
   60MOL0     H 8280   9.420   9.606   7.522  1.1165 -0.0314 -1.7197
   61MOL0     O 8281   7.818  10.623   9.999  0.2146  0.2222 -0.3910
   61MOL0     C 8282   7.717  10.556   9.994 -0.4373  0.5400 -0.6003
   61MOL0     O 8283   7.591  10.592  10.033 -1.4079 -0.1421  0.2096
   61MOL0     C 8284   7.561  10.719  10.080 -0.6608  0.0007  0.6113
   61MOL0     C 8285   7.538  10.732  10.214  1.5584 -0.4564  0.2451
   61MOL0     C 8286   7.482  10.858  10.258  0.5216 -0.4724 -0.0462
   61MOL0     C 8287   7.446  10.958  10.174 -0.0938 -0.1994  0.2585
   61MOL0     O 8288   7.387  11.080  10.208  0.3669  0.0962  0.2601
   61MOL0     C 8289   7.243  11.079  10.210 -0.7587 -0.1797 -0.2058
   61MOL0     C 8290   7.197  11.205  10.149 -0.3720 -0.1824  0.6681
   61MOL0     C 8291   7.232  11.221   9.997  0.6660  0.6069  0.4568
   61MOL0     C 8292   7.132  11.147   9.911  0.6070  0.5549 -0.0636
   61MOL0     C 8293   7.142  11.183   9.764 -0.7546 -0.3563  0.8211
   61MOL0     C 8294   7.272  11.122   9.699  0.3965 -0.5774 -0.0570
   61MOL0     C 8295   7.276  11.176   9.556 -0.5250 -0.9634  0.3234
   61MOL0     C 8296   7.405  11.128   9.482 -0.3218 -0.9437 -0.5657
   61MOL0     N 8297   7.393  11.122   9.336 -0.0833  0.0689 -1.0626
   61MOL0     C 8298   7.341  11.211   9.242  0.5183  0.3015 -0.2546
   61MOL0     C 8299   7.334  11.137   9.127  0.1987  0.2385  1.0878
   61MOL0     C 8300   7.295  11.183   8.986  0.5869  0.0437  0.2924
   61MOL0     C 8301   7.157  11.239   8.977 -0.0546  0.7790  0.1183
   61MOL0     C 8302   7.115  11.268   8.834 -0.0781 -0.8126 -1.1341
   61MOL0     C 8303   6.971  11.330   8.835 -0.1418  0.7642  0.9083
   61MOL0     O 8304   6.861  11.242   8.876  0.5187  0.4126 -0.6558
   61MOL0     C 8305   6.832  11.128   8.808  1.0241  1.0820  0.1499
   61MOL0     C 8306   6.868  11.095   8.679  0.7468  0.3491 -0.4668
   61MOL0     C 8307   6.833  10.975   8.619  0.0498 -0.2113 -0.4568
   61MOL0     C 8308   6.912  10.941   8.502  0.5200 -0.5795  0.1787
   61MOL0     C 8309   6.743  10.893   8.688  0.1190 -0.4567 -0.4160
   61MOL0     C 8310   6.701  10.765   8.629  0.8232  0.9161 -0.4465
   61MOL0     O 8311   6.654  10.673   8.725 -0.3821  0.1206 -0.5731
   61MOL0     C 8312   6.567  10.565   8.685 -0.4907 -0.1753 -0.4052
   61MOL0     C 8313   6.470  10.561   8.579  1.1626 -0.4792 -0.4108
   61MOL0     C 8314   6.395  10.450   8.561  0.0934  0.4008  0.0880
   61MOL0     C 8315   6.433  10.328   8.620 -0.6947  0.4915  0.2239
   61MOL0     O 8316   6.372  10.227   8.578  0.6884 -0.6964  0.5069
   61MOL0     C 8317   6.400  10.099   8.590  0.0118  0.2931  0.5495
   61MOL0     C 8318   6.327  10.039   8.705  0.6391  0.5418  0.2233
   61MOL0     C 8319   6.301   9.893   8.700 -0.6486  0.7271 -0.5402
   61MOL0     C 8320   6.438   9.813   8.703 -0.2467 -0.4569  1.0347
   61MOL0     C 8321   6.500   9.825   8.842 -0.7827  0.5918 -0.1804
   61MOL0     C 8322   6.634   9.893   8.843 -0.3550  0.0659 -0.5863
   61MOL0     C 8323   6.669   9.923   8.999  0.5414 -0.5844  0.0293
   61MOL0     C 8324   6.816   9.949   9.022  0.0528 -1.1045 -0.6460
   61MOL0    Cl 8325   6.836  10.017   9.186 -0.4138 -0.3318 -0.1258
   61MOL0     C 8326   6.508  10.323   8.728 -0.3652  0.2131 -0.2250
   61MOL0     C 8327   6.580  10.444   8.763 -0.1557 -0.1637  0.1867
   61MOL0     O 8328   6.693  10.750   8.510  0.6988  0.2052  0.5350
   61MOL0     C 8329   6.691  10.927   8.811 -0.0061  0.6544  0.4206
   61MOL0     C 8330   6.743  11.039   8.875  0.4985  0.3387  0.2613
   61MOL0     N 8331   7.394  11.011   9.149 -0.4620 -0.9157 -0.3476
   61MOL0     N 8332   7.417  11.005   9.272  0.1050 -0.1296  0.1900
   61MOL0     C 8333   7.480  10.937  10.037 -0.2106 -0.7398  0.4343
   61MOL0     C 8334   7.543  10.817   9.987 -0.5316 -0.2092 -0.9573
   61MOL0     C 8335   7.732  10.415   9.942 -0.8347  0.5092  0.2267
   61MOL0     C 8336   7.862  10.358   9.952 -0.1890 -0.4756 -0.0082
   61MOL0     C 8337   7.886  10.236   9.880 -0.3411  0.4434 -0.6948
   61MOL0     C 8338   7.797  10.170   9.799  0.7752 -1.1626  0.4999
   61MOL0     O 8339   7.838  10.060   9.736 -0.1838 -0.0194 -1.2107
   61MOL0     C 8340   7.738   9.964   9.684 -0.7819  0.6213 -0.3494
   61MOL0     C 8341   7.816   9.861   9.597 -1.0888 -0.0129 -0.2964
   61MOL0     C 8342   7.882   9.926   9.471 -0.4211 -0.8717  0.0429
   61MOL0     C 8343   7.936   9.822   9.376  0.0486  0.8830 -0.3889
   61MOL0     C 8344   8.025   9.880   9.274 -0.0199  0.9330 -0.6343
   61MOL0     C 8345   8.119   9.904   9.198 -0.2408 -0.3370 -0.3051
   61MOL0     C 8346   7.667  10.233   9.799 -0.3283 -0.0979  0.0726
   61MOL0     C 8347   7.631  10.354   9.863 -0.7140 -0.8440 -0.8279
   61MOL0     C 8348   7.492  10.419   9.834  0.5011 -0.0960  0.9994
   61MOL0     H 8349   7.556  10.653  10.286  1.2324 -1.5653 -0.8707
   61MOL0     H 8350   7.456  10.876  10.362 -0.4615  1.6416 -0.6046
   61MOL0     H 8351   7.217  11.080  10.316  0.1540 -1.0402  0.0394
   61MOL0     H 8352   7.194  11.001  10.151 -0.9215  1.3739 -2.2662
   61MOL0     H 8353   7.091  11.227  10.166 -0.3870 -0.4050  0.8720
   61MOL0     H 8354   7.253  11.286  10.196  2.2158  0.1829 -2.6901
   61MOL0     H 8355   7.219  11.323   9.961 -2.6620 -0.0999 -0.7366
   61MOL0     H 8356   7.334  11.191   9.973  0.2675 -0.7502  0.3482
   61MOL0     H 8357   7.145  11.039   9.922 -1.4872  0.0513 -1.7385
   61MOL0     H 8358   7.030  11.174   9.940  1.3233  2.8860  0.4054
   61MOL0     H 8359   7.155  11.291   9.763  0.7999 -0.5082  1.1340
   61MOL0     H 8360   7.061  11.142   9.703  0.7525 -0.4193 -1.2245
   61MOL0     H 8361   7.359  11.159   9.752 -0.7736  1.1178  0.7719
   61MOL0     H 8362   7.260  11.013   9.696  1.7030 -0.7338 -0.0153
   61MOL0     H 8363   7.276  11.285   9.553  1.1086 -0.9590 -1.1487
   61MOL0     H 8364   7.187  11.139   9.506 -1.1223  0.8713 -0.0485
   61MOL0     H 8365   7.492  11.190   9.503 -0.2797 -0.5990 -1.6990
   61MOL0     H 8366   7.427  11.029   9.523  0.0900 -0.7685 -0.3568
   61MOL0     H 8367   7.308  11.314   9.253 -0.5808  0.0765 -1.3324
   61MOL0     H 8368   7.289  11.094   8.923 -4.0175 -0.3557  0.9585
   61MOL0     H 8369   7.375  11.251   8.953  1.8852 -1.8420 -0.6065
   61MOL0     H 8370   7.079  11.172   9.013 -0.7641  2.2509  1.4160
   61MOL0     H 8371   7.155  11.331   9.036 -2.3934 -0.2252  1.7394
   61MOL0     H 8372   7.185  11.339   8.788 -0.7409 -0.1927 -1.2053
   61MOL0     H 8373   7.117  11.171   8.784  0.7190 -0.7553 -1.2193
   61MOL0     H 8374   6.963  11.420   8.897 -2.0383  0.2625  1.4707
   61MOL0     H 8375   6.948  11.368   8.736 -0.7435 -2.1468 -0.1809
   61MOL0     H 8376   6.944  11.147   8.623  1.1922 -1.6469 -1.8011
   61MOL0     H 8377   6.843  10.944   8.417 -1.5164  0.2093  1.7686
   61MOL0     H 8378   6.946  10.837   8.498 -1.3558 -1.2291 -4.2153
   61MOL0     H 8379   6.994  11.006   8.469 -0.0143 -1.0799 -2.3621
   61MOL0     H 8380   6.441  10.650   8.523 -0.5880 -0.2557  0.8073
   61MOL0     H 8381   6.320  10.451   8.483 -0.8248  0.8828  0.9490
   61MOL0     H 8382   6.372  10.052   8.495  2.0386  0.3122 -0.1226
   61MOL0     H 8383   6.508  10.090   8.604  0.2129  1.6321 -0.0361
   61MOL0     H 8384   6.382  10.062   8.798  0.3929  0.3254  0.4228
   61MOL0     H 8385   6.228  10.084   8.703  0.7317  0.7955 -2.4988
   61MOL0     H 8386   6.258   9.854   8.608 -1.2969 -2.9318  1.1304
   61MOL0     H 8387   6.224   9.874   8.775 -3.5846  1.0524 -3.2418
   61MOL0     H 8388   6.505   9.860   8.630 -1.7003 -2.6079 -1.8670
   61MOL0     H 8389   6.433   9.708   8.673  3.8716 -0.6671  0.4228
   61MOL0     H 8390   6.429   9.877   8.907 -1.5413  0.1755 -0.6537
   61MOL0     H 8391   6.488   9.722   8.878 -1.0782  0.9879  0.8727
   61MOL0     H 8392   6.641   9.983   8.781 -2.7483 -0.3562 -1.5519
   61MOL0     H 8393   6.699   9.819   8.796 -0.7564 -1.1046  0.6601
   61MOL0     H 8394   6.645   9.834   9.058 -1.5775  1.6346  2.8003
   61MOL0     H 8395   6.613  10.009   9.036 -2.1757 -1.3692 -1.9748
   61MOL0     H 8396   6.859  10.024   8.955 -1.5239 -0.9652 -1.5367
   61MOL0     H 8397   6.870   9.855   9.014  0.9431 -0.7328  0.6069
   61MOL0     H 8398   6.500  10.238   8.794 -3.3296 -1.1766 -2.1747
   61MOL0     H 8399   6.643  10.456   8.850 -0.1932  1.7107  0.0103
   61MOL0     H 8400   6.609  10.877   8.861 -0.9403  1.3761 -0.3526
   61MOL0     H 8401   6.702  11.054   8.974  2.6793 -0.5377  1.3541
   61MOL0     H 8402   7.448  11.016   9.969  1.1828 -1.6412 -1.3673
   61MOL0     H 8403   7.555  10.822   9.879 -0.2896  0.2244 -0.9146
   61MOL0     H 8404   7.942  10.421   9.990 -1.4120  1.2642 -0.2252
   61MOL0     H 8405   7.983  10.188   9.883 -1.0622 -1.0152  0.9070
   61MOL0     H 8406   7.697   9.904   9.766 -0.8834  0.2818 -0.6475
   61MOL0     H 8407   7.656  10.008   9.627  1.3664  2.3147 -2.3307
   61MOL0     H 8408   7.746   9.784   9.565 -1.0013  0.4643 -1.6976
   61MOL0     H 8409   7.891   9.819   9.664 -1.1578 -0.0430 -0.2387
   61MOL0     H 8410   7.804   9.986   9.423 -0.6576 -0.9939  0.2710
   61MOL0     H 8411   7.965   9.994   9.491 -1.0532  0.2621 -1.0526
   61MOL0     H 8412   7.854   9.779   9.318  0.6526  1.5946 -1.8248
   61MOL0     H 8413   7.985   9.745   9.437  0.9145 -0.1076 -2.2413
   61MOL0     H 8414   8.215   9.925   9.155 -0.6302  0.4562 -0.7998
   61MOL0     H 8415   7.586  10.195   9.738  0.3181 -2.5480  0.6311
   61MOL0     H 8416   7.422  10.408   9.918 -2.1045  2.1080 -0.7277
   61MOL0     H 8417   7.491  10.523   9.801  1.0304 -0.1709  0.7324
   61MOL0     H 8418   7.434  10.370   9.755 -1.0385 -1.7451  3.0230
   62MOL0     O 8419   9.708   4.820   2.272 -0.1792  0.2366 -0.0537
   62MOL0     C 8420   9.747   4.925   2.327 -0.4502 -0.3169 -0.5134
   62MOL0     O 8421   9.675   5.009   2.405 -0.8014 -0.6677  0.1260
   62MOL0     C 8422   9.585   4.947   2.479 -0.4390 -0.2597  0.5900
   62MOL0     C 8423   9.613   4.858   2.587 -0.4938 -0.6088 -1.5188
   62MOL0     C 8424   9.503   4.816   2.658  0.0761 -0.1614  0.5626
   62MOL0     C 8425   9.362   4.833   2.626 -0.6906 -0.5271 -1.3021
   62MOL0     O 8426   9.261   4.794   2.713  0.1969 -0.1935 -0.4533
   62MOL0     C 8427   9.173   4.894   2.770 -1.0435 -0.5398  0.1844
   62MOL0     C 8428   9.034   4.855   2.785  0.9240 -0.6157 -0.5371
   62MOL0     C 8429   8.964   4.836   2.639 -0.3283  0.1452 -0.2195
   62MOL0     C 8430   8.812   4.831   2.616  0.7762  0.6489  0.4456
   62MOL0     C 8431   8.747   4.686   2.659  0.6343 -0.1188  0.9763
   62MOL0     C 8432   8.597   4.707   2.670  1.0865 -0.7782 -0.2687
   62MOL0     C 8433   8.526   4.574   2.682  0.6932 -0.7708 -0.1317
   62MOL0     C 8434   8.527   4.497   2.820  0.0998 -0.3083  0.2454
   62MOL0     N 8435   8.461   4.574   2.921  0.0337 -0.5555 -0.8746
   62MOL0     C 8436   8.523   4.668   3.005 -0.2845 -0.3943 -0.0105
   62MOL0     C 8437   8.431   4.711   3.091 -0.0366 -0.1289 -0.6921
   62MOL0     C 8438   8.452   4.810   3.196  0.3037  0.5853 -0.1932
   62MOL0     C 8439   8.365   4.783   3.317  0.4117  0.0703 -0.0709
   62MOL0     C 8440   8.414   4.840   3.448 -0.2380 -0.1219  0.3598
   62MOL0     C 8441   8.327   4.815   3.573  0.5999  0.7660 -0.9391
   62MOL0     O 8442   8.212   4.905   3.577  0.4000 -0.4933  0.4000
   62MOL0     C 8443   8.159   4.957   3.686  0.5449  0.0880  0.0638
   62MOL0     C 8444   8.046   5.033   3.678 -0.2375  1.1056 -0.9850
   62MOL0     C 8445   7.975   5.077   3.788  0.1353 -0.4145  1.0044
   62MOL0     C 8446   7.853   5.155   3.757 -0.1395  0.1828 -0.5306
   62MOL0     C 8447   8.033   5.054   3.919  0.1626 -0.1677  0.0994
   62MOL0     C 8448   7.967   5.090   4.051  0.3224  0.9567  0.3371
   62MOL0     O 8449   8.030   5.035   4.159  0.1760  0.0574  0.8443
   62MOL0     C 8450   8.000   5.079   4.289  0.6527  0.3625 -0.1580
   62MOL0     C 8451   7.976   5.211   4.325 -0.3278 -0.0026 -0.0806
   62MOL0     C 8452   7.953   5.238   4.457 -0.3249  0.2980 -0.4972
   62MOL0     C 8453   7.953   5.135   4.558 -0.2426 -0.8067 -0.5544
   62MOL0     O 8454   7.919   5.166   4.686  0.4176  0.1864 -0.5703
   62MOL0     C 8455   7.882   5.300   4.720 -0.7588  1.0032  0.9485
   62MOL0     C 8456   7.845   5.304   4.872  0.7950 -0.2070  0.9050
   62MOL0     C 8457   7.813   5.457   4.933 -0.3511  0.0739  0.3326
   62MOL0     C 8458   7.751   5.457   5.082  1.1891  0.6736  0.6522
   62MOL0     C 8459   7.691   5.592   5.120 -0.3592  0.2090  0.0496
   62MOL0     C 8460   7.801   5.699   5.140 -0.1593 -0.9224  0.2767
   62MOL0     C 8461   7.733   5.839   5.136 -0.1525  0.0346  0.7698
   62MOL0     C 8462   7.825   5.955   5.136  0.0536 -0.1970 -0.2513
   62MOL0    Cl 8463   7.896   5.955   4.976  0.3882 -0.6159  0.1278
   62MOL0     C 8464   7.979   5.008   4.518 -0.0620  0.3808 -0.7521
   62MOL0     C 8465   8.001   4.978   4.382  0.2918  0.3021 -0.1376
   62MOL0     O 8466   7.867   5.162   4.059 -0.2527  0.3456 -0.9536
   62MOL0     C 8467   8.155   4.998   3.926 -1.1523  0.5118 -0.3356
   62MOL0     C 8468   8.212   4.937   3.817 -1.4260  0.0566 -0.4603
   62MOL0     N 8469   8.309   4.655   3.064  0.4555 -0.0183 -0.1344
   62MOL0     N 8470   8.330   4.571   2.961 -0.4316  0.4231  0.6151
   62MOL0     C 8471   9.337   4.915   2.511 -0.0044  0.4905  0.3085
   62MOL0     C 8472   9.446   4.977   2.452  0.1236  0.2787  0.4082
   62MOL0     C 8473   9.881   4.959   2.294 -0.5902 -0.0171  0.2448
   62MOL0     C 8474   9.968   5.012   2.394  0.0469 -0.5205 -0.9603
   62MOL0     C 8475  10.100   5.048   2.358  0.2363 -0.1575 -1.0970
   62MOL0     C 8476  10.141   5.045   2.225 -0.3934  0.7797 -0.0471
   62MOL0     O 8477  10.272   5.071   2.195 -0.1752 -0.2555  0.2677
   62MOL0     C 8478  10.308   5.202   2.228  0.6388 -1.0338  0.4662
   62MOL0     C 8479  10.224   5.310   2.172 -0.7244 -0.3802  0.3871
   62MOL0     C 8480  10.215   5.325   2.023  0.2785  0.1461 -1.1375
   62MOL0     C 8481  10.157   5.462   1.986 -0.6614  0.6812  0.2232
   62MOL0     C 8482  10.121   5.471   1.845  0.2932  0.3908 -0.1840
   62MOL0     C 8483  10.075   5.467   1.726  0.3074 -0.0727 -1.3912
   62MOL0     C 8484  10.063   4.987   2.129  0.6761  0.2954  0.6545
   62MOL0     C 8485   9.931   4.942   2.159 -1.1036  0.2917 -1.0721
   62MOL0     C 8486   9.859   4.892   2.033 -0.0238 -1.1794 -0.4239
   62MOL0     H 8487   9.710   4.831   2.627 -0.9318 -0.5160 -0.3605
   62MOL0     H 8488   9.521   4.759   2.748  3.9264  0.5926  0.4452
   62MOL0     H 8489   9.172   4.983   2.707 -0.3015  0.4758  1.5606
   62MOL0     H 8490   9.212   4.922   2.868  2.0625 -0.5660 -0.9537
   62MOL0     H 8491   9.025   4.763   2.844 -2.5851  0.2119  0.4317
   62MOL0     H 8492   8.973   4.928   2.837  1.5289 -0.4234 -0.0796
   62MOL0     H 8493   9.003   4.911   2.568  1.4507  0.3674  0.9339
   62MOL0     H 8494   9.006   4.740   2.610  1.6417  2.1825 -5.3161
   62MOL0     H 8495   8.749   4.905   2.666 -2.4855 -0.7329 -1.3362
   62MOL0     H 8496   8.788   4.852   2.512  0.8148  1.0473  0.5135
   62MOL0     H 8497   8.789   4.653   2.754 -1.2131 -0.0159  1.8720
   62MOL0     H 8498   8.765   4.619   2.575  1.1412  0.6261  0.4674
   62MOL0     H 8499   8.580   4.772   2.756 -0.7640 -0.3140 -0.9380
   62MOL0     H 8500   8.563   4.746   2.573  1.5516  0.1781 -0.0601
   62MOL0     H 8501   8.564   4.508   2.603 -0.7800  1.1224 -2.5591
   62MOL0     H 8502   8.422   4.589   2.653 -0.8740 -4.7390  2.5575
   62MOL0     H 8503   8.471   4.406   2.801  5.7555 -4.1948 -0.1537
   62MOL0     H 8504   8.620   4.449   2.852 -0.9277 -0.8978  2.5076
   62MOL0     H 8505   8.625   4.705   3.006 -0.7236  0.9401 -1.2407
   62MOL0     H 8506   8.403   4.899   3.154 -3.7660 -0.4287  1.8551
   62MOL0     H 8507   8.557   4.818   3.225  1.2161  0.2295 -3.0453
   62MOL0     H 8508   8.265   4.828   3.318  0.0852 -0.6484 -0.2896
   62MOL0     H 8509   8.357   4.676   3.338  0.8220  0.1275  0.4073
   62MOL0     H 8510   8.510   4.795   3.473 -0.2645 -0.6669 -0.4697
   62MOL0     H 8511   8.431   4.946   3.430 -1.8440 -0.4596 -4.5824
   62MOL0     H 8512   8.286   4.713   3.579 -0.6124  1.0981 -2.7152
   62MOL0     H 8513   8.392   4.834   3.659 -0.7493  0.5853  0.1624
   62MOL0     H 8514   8.008   5.048   3.578 -3.6697 -0.7522 -0.1229
   62MOL0     H 8515   7.826   5.147   3.651 -0.8529  0.2990 -0.3592
   62MOL0     H 8516   7.869   5.259   3.788  1.2745 -0.1995  0.1357
   62MOL0     H 8517   7.760   5.116   3.798 -0.2645  0.0550 -0.9339
   62MOL0     H 8518   7.961   5.291   4.253 -1.1106 -0.6356 -0.6368
   62MOL0     H 8519   7.955   5.345   4.477  1.4262  0.1719  0.2058
   62MOL0     H 8520   7.969   5.359   4.692  0.2013 -0.9140 -0.2542
   62MOL0     H 8521   7.799   5.342   4.663  0.2749  1.5215 -0.2047
   62MOL0     H 8522   7.750   5.250   4.875  2.9564 -4.3832  0.5694
   62MOL0     H 8523   7.928   5.266   4.932  1.1830  1.8486  1.7859
   62MOL0     H 8524   7.746   5.505   4.860  0.6949  0.8451 -0.1444
   62MOL0     H 8525   7.909   5.509   4.936  1.6995 -3.4630  0.9965
   62MOL0     H 8526   7.827   5.421   5.152  0.0992 -2.7259  0.2746
   62MOL0     H 8527   7.666   5.390   5.099  1.9916  0.0227  2.2641
   62MOL0     H 8528   7.628   5.627   5.038 -1.7882 -1.1215  0.5297
   62MOL0     H 8529   7.636   5.591   5.215 -1.9701 -0.0598 -0.8540
   62MOL0     H 8530   7.878   5.702   5.062 -0.6900 -0.7204 -0.2374
   62MOL0     H 8531   7.852   5.692   5.237 -1.8464  0.2211  1.2949
   62MOL0     H 8532   7.664   5.857   5.218 -1.7217  2.2867 -0.9087
   62MOL0     H 8533   7.676   5.840   5.043 -2.1724 -1.9366  1.9071
   62MOL0     H 8534   7.897   5.936   5.216 -0.3171  1.9715  0.6702
   62MOL0     H 8535   7.775   6.049   5.161 -0.8600 -0.7052 -0.0845
   62MOL0     H 8536   7.971   4.923   4.585 -4.1005 -0.1900 -1.7500
   62MOL0     H 8537   8.043   4.878   4.372  3.1187  1.6185 -2.5881
   62MOL0     H 8538   8.211   4.975   4.016 -0.2493 -2.3563 -1.5201
   62MOL0     H 8539   8.294   4.867   3.830 -1.7732 -0.4361 -0.8642
   62MOL0     H 8540   9.235   4.935   2.482  0.2655 -1.7027 -2.5363
   62MOL0     H 8541   9.423   5.042   2.367  1.7639  0.6088  0.1895
   62MOL0     H 8542   9.937   5.015   2.498  0.0565  0.6160 -0.9810
   62MOL0     H 8543  10.159   5.094   2.437 -0.4525 -1.8789  0.5070
   62MOL0     H 8544  10.322   5.213   2.336  1.0753 -0.1308  0.3205
   62MOL0     H 8545  10.403   5.221   2.177 -0.2731  0.6738 -0.6917
   62MOL0     H 8546  10.279   5.397   2.209 -3.0799  1.5992 -0.5127
   62MOL0     H 8547  10.131   5.316   2.230 -0.8993 -0.2508  0.0953
   62MOL0     H 8548  10.310   5.298   1.976  0.2068 -1.5381 -0.3977
   62MOL0     H 8549  10.135   5.259   1.990 -2.1287  3.6639 -2.9903
   62MOL0     H 8550  10.219   5.549   2.007 -0.4828  0.1517  2.0436
   62MOL0     H 8551  10.069   5.468   2.050 -2.2306 -0.4791 -1.7139
   62MOL0     H 8552  10.032   5.468   1.628  0.2481  0.5582 -1.3644
   62MOL0     H 8553  10.114   4.975   2.034 -0.7001  0.8460 -0.1875
   62MOL0     H 8554   9.867   4.783   2.032 -1.7747 -1.4216  2.4312
   62MOL0     H 8555   9.754   4.922   2.038  0.6187  1.2687 -0.2966
   62MOL0     H 8556   9.894   4.943   1.942 -2.8948  0.4211 -0.7500
   63MOL0     O 8557   9.357   8.653   5.309 -0.1829  0.3430 -0.3825
   63MOL0     C 8558   9.407   8.546   5.350  1.3965 -0.4813 -0.9423
   63MOL0     O 8559   9.521   8.536   5.422 -0.5326 -0.3354 -0.2854
   63MOL0     C 8560   9.575   8.648   5.480 -0.0349 -0.0893  0.7339
   63MOL0     C 8561   9.504   8.719   5.569 -0.8728 -0.3113 -0.8099
   63MOL0     C 8562   9.559   8.833   5.632  0.7962  0.3828 -0.1727
   63MOL0     C 8563   9.693   8.870   5.618 -0.7900  0.4819 -0.2394
   63MOL0     O 8564   9.739   8.978   5.693 -0.2068 -0.5262  0.1348
   63MOL0     C 8565   9.875   8.999   5.699  0.7837 -1.2043 -1.3054
   63MOL0     C 8566   9.912   9.153   5.700 -0.3382  0.1703 -0.5590
   63MOL0     C 8567  10.058   9.160   5.742 -0.0189 -0.1579  0.4944
   63MOL0     C 8568  10.059   9.171   5.895 -0.9043  0.6129  0.8781
   63MOL0     C 8569  10.214   9.146   5.929 -0.1579  0.8086  0.2564
   63MOL0     C 8570  10.237   9.135   6.083 -0.0620 -0.7756 -0.3721
   63MOL0     C 8571  10.175   9.012   6.161  0.8665  0.2593 -0.0790
   63MOL0     C 8572  10.196   8.878   6.099 -0.0385  0.4113  0.0629
   63MOL0     N 8573  10.132   8.775   6.174  0.0509  0.2650 -1.1914
   63MOL0     C 8574  10.187   8.655   6.209 -0.6474  0.2054 -0.9536
   63MOL0     C 8575  10.084   8.586   6.270 -0.1150  0.6014 -0.8476
   63MOL0     C 8576  10.099   8.446   6.331  0.3469 -0.3536  0.5538
   63MOL0     C 8577  10.056   8.337   6.227 -0.4379  0.2339 -0.6644
   63MOL0     C 8578  10.124   8.201   6.277 -0.6481 -0.5367  0.3790
   63MOL0     C 8579  10.107   8.083   6.174 -0.7615 -0.2607 -0.3314
   63MOL0     O 8580  10.087   8.131   6.039  0.5105  0.5484 -0.5036
   63MOL0     C 8581  10.124   8.056   5.926  1.1860  0.4244  0.2358
   63MOL0     C 8582  10.174   8.128   5.823 -0.4545  0.1326 -0.4580
   63MOL0     C 8583  10.234   8.061   5.716  0.5997 -0.4209  0.5341
   63MOL0     C 8584  10.295   8.149   5.602  0.0913 -0.2745  0.4610
   63MOL0     C 8585  10.233   7.918   5.707  0.1954 -0.0208 -0.7926
   63MOL0     C 8586  10.299   7.845   5.598  0.3125  0.6585 -1.0006
   63MOL0     O 8587  10.257   7.717   5.573  0.1241  0.6547  0.0423
   63MOL0     C 8588  10.308   7.647   5.469 -0.7269  0.1291 -0.7660
   63MOL0     C 8589  10.226   7.605   5.363  0.6551 -0.8457 -0.0816
   63MOL0     C 8590  10.284   7.520   5.259 -0.1987 -0.2005 -0.1278
   63MOL0     C 8591  10.414   7.474   5.270 -0.4447  0.4371  0.9037
   63MOL0     O 8592  10.447   7.383   5.178  0.3015  0.7116  0.7227
   63MOL0     C 8593  10.538   7.455   5.096 -0.3883  0.5139 -0.6518
   63MOL0     C 8594  10.539   7.380   4.960  0.5357  0.0633 -0.4469
   63MOL0     C 8595  10.536   7.218   4.960  0.4511 -0.7486  0.1644
   63MOL0     C 8596  10.588   7.141   4.846 -0.5307  0.3391  0.0961
   63MOL0     C 8597  10.528   7.003   4.823  0.5818 -0.0606  1.5217
   63MOL0     C 8598  10.533   6.906   4.939  0.6423 -0.0782  0.0161
   63MOL0     C 8599  10.482   6.764   4.905  0.0750 -0.0942  0.1830
   63MOL0     C 8600  10.466   6.677   5.031 -0.0638  0.1020 -0.3020
   63MOL0    Cl 8601  10.635   6.648   5.077  0.0411  0.1523 -0.1162
   63MOL0     C 8602  10.491   7.520   5.376  0.1966  0.0063  0.6021
   63MOL0     C 8603  10.439   7.604   5.476 -0.2211  0.0722  0.0474
   63MOL0     O 8604  10.398   7.901   5.548  0.0371 -0.4879 -0.3985
   63MOL0     C 8605  10.164   7.851   5.811 -1.0112 -0.6814  0.3618
   63MOL0     C 8606  10.117   7.914   5.928 -0.8264  0.9153  0.4072
   63MOL0     N 8607   9.969   8.666   6.277 -0.6782 -0.3621  0.7903
   63MOL0     N 8608  10.002   8.788   6.221 -0.1945  0.2115 -0.9241
   63MOL0     C 8609   9.762   8.787   5.529 -0.2768  0.7388 -0.0269
   63MOL0     C 8610   9.702   8.668   5.461 -0.4610 -0.5997 -0.3453
   63MOL0     C 8611   9.339   8.427   5.306 -0.0461 -0.6445  0.0647
   63MOL0     C 8612   9.413   8.310   5.277 -0.5427 -0.3713  0.8776
   63MOL0     C 8613   9.364   8.198   5.215 -0.0338  0.1891  0.1777
   63MOL0     C 8614   9.225   8.186   5.204 -0.1868 -0.2141 -1.0142
   63MOL0     O 8615   9.150   8.079   5.156 -0.3186 -0.4669  0.4075
   63MOL0     C 8616   9.227   7.966   5.120  0.8701 -0.4512 -0.4048
   63MOL0     C 8617   9.135   7.857   5.094 -0.3617  0.2010 -0.4703
   63MOL0     C 8618   9.213   7.739   5.039 -0.6163 -0.0025  0.4847
   63MOL0     C 8619   9.118   7.620   5.002  0.3570  0.2978 -0.2502
   63MOL0     C 8620   9.037   7.659   4.889  0.8423  0.3302 -0.5068
   63MOL0     C 8621   8.973   7.682   4.787 -0.6070  0.4646  0.5710
   63MOL0     C 8622   9.142   8.294   5.237 -0.0587  0.1452 -0.2385
   63MOL0     C 8623   9.195   8.415   5.299  0.5978 -0.0656  1.0568
   63MOL0     C 8624   9.090   8.503   5.354  0.1496  0.6784 -0.1071
   63MOL0     H 8625   9.401   8.693   5.588 -0.6879 -1.0659 -0.8309
   63MOL0     H 8626   9.486   8.886   5.692 -0.3473 -3.1612  1.8569
   63MOL0     H 8627   9.935   8.969   5.613  2.7777 -0.7955 -0.1266
   63MOL0     H 8628   9.916   8.946   5.785  1.2240  3.2325  1.5834
   63MOL0     H 8629   9.901   9.205   5.604 -1.1222  0.2388 -0.4363
   63MOL0     H 8630   9.852   9.218   5.764  2.2060  2.0069  0.1258
   63MOL0     H 8631  10.116   9.078   5.699 -0.1821  0.6845 -1.4226
   63MOL0     H 8632  10.097   9.257   5.709 -4.7793  1.6789 -0.4624
   63MOL0     H 8633  10.027   9.271   5.926  1.2291  0.8555  2.5015
   63MOL0     H 8634   9.998   9.092   5.938  2.3552 -0.2696  4.3603
   63MOL0     H 8635  10.281   9.220   5.885 -2.6409  2.0443 -1.6084
   63MOL0     H 8636  10.238   9.044   5.896 -4.4168 -0.3284  0.1145
   63MOL0     H 8637  10.345   9.133   6.096 -0.3408 -1.4506  2.3071
   63MOL0     H 8638  10.214   9.231   6.130  3.0016 -0.8118  1.4298
   63MOL0     H 8639  10.068   9.039   6.160  1.0569  1.3414  2.0293
   63MOL0     H 8640  10.214   9.023   6.263  0.4125 -0.3112  0.1610
   63MOL0     H 8641  10.151   8.877   6.000 -1.0629  3.0920  0.4168
   63MOL0     H 8642  10.305   8.884   6.089 -0.1132  1.3654 -0.2514
   63MOL0     H 8643  10.291   8.628   6.191 -0.5844  0.7241 -1.3921
   63MOL0     H 8644  10.040   8.435   6.422 -2.4773  1.3741 -0.9177
   63MOL0     H 8645  10.204   8.422   6.350  0.0397 -1.2728  1.1367
   63MOL0     H 8646   9.947   8.330   6.228 -0.4609 -1.6191  3.3918
   63MOL0     H 8647  10.089   8.364   6.126 -1.1154 -0.5070 -1.0956
   63MOL0     H 8648  10.230   8.228   6.278 -0.9743  0.9021 -0.7688
   63MOL0     H 8649  10.095   8.183   6.381  0.2954  0.9050  0.9265
   63MOL0     H 8650  10.197   8.023   6.191 -0.7166  0.0350  0.5509
   63MOL0     H 8651  10.016   8.028   6.199 -0.6928 -0.4092 -0.4054
   63MOL0     H 8652  10.187   8.234   5.841  0.7310 -0.1012  0.2149
   63MOL0     H 8653  10.403   8.134   5.594  0.2004 -0.0234  1.3730
   63MOL0     H 8654  10.279   8.257   5.614  1.3431 -0.1202  0.8418
   63MOL0     H 8655  10.263   8.117   5.502  2.7164  2.4014 -1.4273
   63MOL0     H 8656  10.123   7.635   5.378  0.9581  0.5222 -0.5849
   63MOL0     H 8657  10.235   7.474   5.174  0.8284 -0.2226 -0.7242
   63MOL0     H 8658  10.508   7.556   5.068  0.2627 -0.1277 -4.0240
   63MOL0     H 8659  10.636   7.438   5.142 -0.2763 -4.0572 -2.0597
   63MOL0     H 8660  10.446   7.411   4.911  0.4361 -0.8694 -0.8859
   63MOL0     H 8661  10.623   7.423   4.905  1.3170 -0.0053  0.6686
   63MOL0     H 8662  10.428   7.201   4.953 -0.3632  2.6408  2.0869
   63MOL0     H 8663  10.576   7.174   5.052  1.5621  0.6012  0.3566
   63MOL0     H 8664  10.693   7.127   4.874 -0.7903  0.6124  1.2927
   63MOL0     H 8665  10.578   7.194   4.751  0.2615 -0.4287 -0.4296
   63MOL0     H 8666  10.421   7.012   4.799  0.9207  2.1219  0.6388
   63MOL0     H 8667  10.576   6.958   4.736  0.6791 -0.5219  1.8088
   63MOL0     H 8668  10.476   6.944   5.024  1.9038 -3.2096  2.4748
   63MOL0     H 8669  10.639   6.899   4.967  0.7187  2.8751  0.8379
   63MOL0     H 8670  10.547   6.718   4.830  2.1859 -0.0338  1.8880
   63MOL0     H 8671  10.380   6.775   4.866 -0.1565 -0.6129  0.6378
   63MOL0     H 8672  10.412   6.583   5.014 -1.9002  0.1615  4.0139
   63MOL0     H 8673  10.415   6.740   5.104 -1.7430 -1.7929  0.2546
   63MOL0     H 8674  10.587   7.473   5.391  0.2511 -0.0359  0.1356
   63MOL0     H 8675  10.508   7.631   5.556  1.0078 -1.5544 -0.4252
   63MOL0     H 8676  10.166   7.742   5.813 -1.3138 -0.7915 -2.1556
   63MOL0     H 8677  10.091   7.854   6.015  1.7911  1.3434  1.5629
   63MOL0     H 8678   9.870   8.786   5.519 -0.3978 -0.7050 -1.5321
   63MOL0     H 8679   9.759   8.601   5.397  3.4926  0.1060  2.0604
   63MOL0     H 8680   9.517   8.306   5.309 -0.6467 -0.0959  1.2604
   63MOL0     H 8681   9.426   8.115   5.184 -0.3301 -0.6643  1.8260
   63MOL0     H 8682   9.287   7.999   5.035  0.0899 -1.0647 -1.2003
   63MOL0     H 8683   9.300   7.939   5.198  1.1390 -0.0785 -0.5253
   63MOL0     H 8684   9.066   7.889   5.016 -0.6811  1.6087  0.3551
   63MOL0     H 8685   9.079   7.828   5.183 -2.4420 -0.6671 -1.9955
   63MOL0     H 8686   9.271   7.771   4.952 -1.1438 -0.1165  0.0871
   63MOL0     H 8687   9.294   7.702   5.102  2.9291 -0.6227 -3.9278
   63MOL0     H 8688   9.067   7.585   5.092  2.0968  0.0523  0.7017
   63MOL0     H 8689   9.174   7.533   4.965 -0.1047 -0.6539  1.1814
   63MOL0     H 8690   8.896   7.684   4.712 -1.0356 -1.2775  0.9100
   63MOL0     H 8691   9.038   8.263   5.239 -0.2772  0.6668 -1.9259
   63MOL0     H 8692   9.057   8.565   5.270  0.9238 -0.8549 -1.6096
   63MOL0     H 8693   9.008   8.434   5.378 -0.2955  1.0786 -0.4671
   63MOL0     H 8694   9.120   8.559   5.444 -1.5428  0.2746  0.7510
   64MOL0     O 8695   0.082   8.158   7.016  1.0242  0.3931  0.3150
   64MOL0     C 8696  -0.031   8.191   6.979 -0.0954  0.1943  0.0393
   64MOL0     O 8697  -0.147   8.117   7.021 -0.1888  0.3323 -0.3978
   64MOL0     C 8698  -0.119   8.008   7.102  0.0099  0.2101  0.0600
   64MOL0     C 8699  -0.169   7.890   7.055  0.2250 -0.1633 -0.0801
   64MOL0     C 8700  -0.160   7.771   7.132 -0.6701 -0.5855  0.7895
   64MOL0     C 8701  -0.087   7.772   7.253  0.8061  0.1072 -0.1731
   64MOL0     O 8702  -0.042   7.655   7.303  0.0448  0.5628  0.3485
   64MOL0     C 8703   0.039   7.653   7.419  0.3344  0.4147  0.6371
   64MOL0     C 8704   0.081   7.520   7.455 -0.0037  0.1308  1.0562
   64MOL0     C 8705  -0.040   7.448   7.532 -0.5495  0.0104  0.0734
   64MOL0     C 8706   0.011   7.311   7.568 -0.4703 -0.3846 -0.2705
   64MOL0     C 8707  -0.104   7.223   7.617  0.1990 -0.9500 -0.2192
   64MOL0     C 8708  -0.122   7.102   7.516  0.2283 -0.0300  0.3273
   64MOL0     C 8709  -0.178   6.971   7.574  0.1369  0.5517 -0.3103
   64MOL0     C 8710  -0.190   6.843   7.479  0.6280  1.0142 -0.9369
   64MOL0     N 8711  -0.293   6.868   7.380  0.7212 -0.7076 -0.0275
   64MOL0     C 8712  -0.433   6.876   7.405 -0.3220 -0.2892 -0.6005
   64MOL0     C 8713  -0.493   6.887   7.277  0.9948  0.9533 -0.6866
   64MOL0     C 8714  -0.645   6.893   7.249  0.7334 -0.3526  0.2359
   64MOL0     C 8715  -0.713   7.032   7.272  0.3530 -0.3715  0.5618
   64MOL0     C 8716  -0.701   7.078   7.419  0.0261  0.4234 -0.4734
   64MOL0     C 8717  -0.764   6.973   7.520 -0.6512 -0.0913 -0.3118
   64MOL0     O 8718  -0.887   6.916   7.466 -0.7274 -0.5717  0.9154
   64MOL0     C 8719  -1.003   6.992   7.450 -0.1364  0.5867 -0.4919
   64MOL0     C 8720  -1.023   7.117   7.513  0.0173 -0.3174 -0.6349
   64MOL0     C 8721  -1.142   7.195   7.485 -0.8641  0.0881 -0.2236
   64MOL0     C 8722  -1.133   7.342   7.534  0.1280 -0.1934  1.2675
   64MOL0     C 8723  -1.242   7.140   7.397  0.8853 -0.7552 -0.7277
   64MOL0     C 8724  -1.373   7.209   7.364  0.3919  0.6823 -1.1269
   64MOL0     O 8725  -1.434   7.180   7.248  0.1255 -0.0605  0.2836
   64MOL0     C 8726  -1.570   7.217   7.234  0.4895  0.0903 -0.1094
   64MOL0     C 8727  -1.616   7.312   7.137  0.0643 -1.2451  0.4947
   64MOL0     C 8728  -1.751   7.339   7.119 -0.2953 -0.1104  0.3122
   64MOL0     C 8729  -1.844   7.272   7.205  0.2705 -0.5554  0.2894
   64MOL0     O 8730  -1.980   7.292   7.182  0.3895  0.7524 -0.1047
   64MOL0     C 8731  -2.036   7.160   7.150 -0.6162  0.5899 -0.4441
   64MOL0     C 8732  -2.147   7.197   7.046 -0.8329  0.8563 -0.0631
   64MOL0     C 8733  -2.212   7.071   6.996  0.5662  0.5213 -0.3838
   64MOL0     C 8734  -2.335   7.101   6.912 -0.5369  0.5414  0.3195
   64MOL0     C 8735  -2.397   6.976   6.849  0.5686 -0.2134 -0.4314
   64MOL0     C 8736  -2.534   7.002   6.783 -0.1231  0.2839 -0.4030
   64MOL0     C 8737  -2.601   6.878   6.736 -0.9843  1.4583  0.3535
   64MOL0     C 8738  -2.517   6.797   6.626  0.7340 -0.2303 -0.0606
   64MOL0    Cl 8739  -2.556   6.622   6.639  0.6672 -0.2180  0.4125
   64MOL0     C 8740  -1.801   7.188   7.302  0.3155 -0.7009  0.1705
   64MOL0     C 8741  -1.662   7.160   7.321 -0.7470  0.1507 -0.0054
   64MOL0     O 8742  -1.413   7.280   7.455  0.4695  0.2047 -0.3738
   64MOL0     C 8743  -1.211   7.012   7.345  0.1303 -0.0577  0.3905
   64MOL0     C 8744  -1.100   6.941   7.363  0.0741 -0.7878  0.2381
   64MOL0     N 8745  -0.392   6.869   7.183  0.1749 -0.7570 -0.4160
   64MOL0     N 8746  -0.277   6.862   7.241  0.2501 -0.7194 -0.3212
   64MOL0     C 8747  -0.042   7.894   7.301 -0.1866 -0.4207  1.5685
   64MOL0     C 8748  -0.067   8.020   7.233  1.0540  0.2966  0.4243
   64MOL0     C 8749  -0.039   8.320   6.909 -1.2175  0.0076  0.3008
   64MOL0     C 8750  -0.142   8.412   6.927 -1.0648 -0.4179  0.2470
   64MOL0     C 8751  -0.154   8.528   6.858  0.0124 -0.9570 -0.5770
   64MOL0     C 8752  -0.042   8.568   6.784  0.0243  0.2107  1.1075
   64MOL0     O 8753  -0.025   8.685   6.717  0.1908 -0.1967 -0.1817
   64MOL0     C 8754  -0.115   8.794   6.724 -0.2162  0.0442  0.6031
   64MOL0     C 8755  -0.092   8.871   6.851  0.5889 -0.5607 -0.9441
   64MOL0     C 8756  -0.213   8.961   6.883  0.0977 -0.9301 -0.3063
   64MOL0     C 8757  -0.201   9.090   6.794  0.9053 -0.1970 -0.3658
   64MOL0     C 8758  -0.316   9.181   6.827 -0.9855 -0.5858  0.1678
   64MOL0     C 8759  -0.416   9.249   6.861  0.4458  0.1049  1.0404
   64MOL0     C 8760   0.067   8.480   6.763 -0.3728 -0.1701 -0.1731
   64MOL0     C 8761   0.061   8.363   6.821 -1.4196  0.6934 -0.9620
   64MOL0     C 8762   0.165   8.254   6.771 -0.3286 -0.4932 -0.6835
   64MOL0     H 8763  -0.225   7.890   6.962 -1.2117  1.5874  0.7197
   64MOL0     H 8764  -0.197   7.677   7.091 -2.8079  0.3492  0.4054
   64MOL0     H 8765  -0.013   7.686   7.509  0.0838 -1.4388  1.2075
   64MOL0     H 8766   0.126   7.717   7.401 -2.0923  3.5089 -1.0600
   64MOL0     H 8767   0.099   7.454   7.370 -1.2143 -1.6135  2.0675
   64MOL0     H 8768   0.170   7.509   7.518  1.1718  2.8906  0.0441
   64MOL0     H 8769  -0.076   7.502   7.621  0.0952 -1.2482  1.1226
   64MOL0     H 8770  -0.139   7.445   7.484 -0.4189  0.8426 -0.2639
   64MOL0     H 8771   0.065   7.276   7.480 -0.5458 -2.7562  0.5558
   64MOL0     H 8772   0.089   7.305   7.645 -1.8123 -2.8265  1.0147
   64MOL0     H 8773  -0.199   7.276   7.619  1.2128  0.9487 -0.0548
   64MOL0     H 8774  -0.101   7.174   7.714 -1.8983 -3.4538 -1.2826
   64MOL0     H 8775  -0.195   7.127   7.439  1.2334 -0.5942 -0.8409
   64MOL0     H 8776  -0.025   7.094   7.466  1.0821  4.0339  0.9960
   64MOL0     H 8777  -0.277   6.993   7.616 -2.1487  0.9302 -5.2658
   64MOL0     H 8778  -0.106   6.945   7.653  0.8169  1.6665 -0.5551
   64MOL0     H 8779  -0.104   6.823   7.414 -1.7856 -1.0254 -3.8069
   64MOL0     H 8780  -0.220   6.760   7.545 -1.8597  1.4760 -1.3703
   64MOL0     H 8781  -0.483   6.874   7.501 -2.3116  2.5900 -1.4120
   64MOL0     H 8782  -0.714   6.821   7.295 -0.4176  1.3605  1.2905
   64MOL0     H 8783  -0.668   6.861   7.147 -0.7710 -3.0353  1.3103
   64MOL0     H 8784  -0.667   7.111   7.212 -1.0809  1.7802  2.1440
   64MOL0     H 8785  -0.818   7.026   7.241  1.2815 -1.7860 -2.7638
   64MOL0     H 8786  -0.597   7.085   7.453 -0.2104  2.9485 -0.0878
   64MOL0     H 8787  -0.753   7.174   7.425  0.7830  0.7437  2.0723
   64MOL0     H 8788  -0.698   6.885   7.517  1.3339  1.2937 -3.3646
   64MOL0     H 8789  -0.774   7.012   7.621  0.4526 -0.9468  0.1440
   64MOL0     H 8790  -0.957   7.179   7.573  1.3329 -0.9593 -1.3758
   64MOL0     H 8791  -1.029   7.374   7.518  0.2964 -2.0856 -2.8268
   64MOL0     H 8792  -1.185   7.353   7.629 -0.6644 -0.7161  0.9020
   64MOL0     H 8793  -1.182   7.403   7.457  2.3183  0.3718  0.2214
   64MOL0     H 8794  -1.541   7.367   7.082  0.7154 -1.0377  1.5495
   64MOL0     H 8795  -1.779   7.413   7.045 -3.0070 -1.1815  0.1351
   64MOL0     H 8796  -1.974   7.085   7.100  1.0758  1.8756 -0.3552
   64MOL0     H 8797  -2.081   7.113   7.237 -0.3716  1.1415 -0.0086
   64MOL0     H 8798  -2.222   7.259   7.096 -1.4951  0.9359 -1.1060
   64MOL0     H 8799  -2.108   7.247   6.957 -1.7497  0.4188 -0.7355
   64MOL0     H 8800  -2.230   7.012   7.087  1.9335 -0.5750 -0.7868
   64MOL0     H 8801  -2.133   7.022   6.939 -2.1312 -2.1348 -2.1779
   64MOL0     H 8802  -2.310   7.175   6.836 -0.0797  1.2161  1.1166
   64MOL0     H 8803  -2.408   7.136   6.986  0.3384 -2.0767  2.6158
   64MOL0     H 8804  -2.330   6.949   6.766 -0.8105  0.7030 -1.8937
   64MOL0     H 8805  -2.409   6.895   6.921  0.6535 -1.5093 -1.8175
   64MOL0     H 8806  -2.535   7.076   6.703  0.7007  4.3119  2.9222
   64MOL0     H 8807  -2.593   7.040   6.868  1.8009 -1.6152  1.9518
   64MOL0     H 8808  -2.697   6.900   6.689 -1.4274 -3.6559 -1.7585
   64MOL0     H 8809  -2.618   6.801   6.811  1.2061  0.7995  0.2301
   64MOL0     H 8810  -2.410   6.812   6.639  0.3968  0.7193  2.0140
   64MOL0     H 8811  -2.552   6.832   6.528  0.1525  0.4716  0.3861
   64MOL0     H 8812  -1.866   7.138   7.373  1.0806 -3.1268 -0.7029
   64MOL0     H 8813  -1.631   7.086   7.395  0.3660 -0.2926 -0.8909
   64MOL0     H 8814  -1.279   6.956   7.283 -0.3908 -2.7734  3.2264
   64MOL0     H 8815  -1.071   6.846   7.319  3.3957  0.4331 -0.5603
   64MOL0     H 8816   0.002   7.895   7.400  2.8738 -0.7748  0.3170
   64MOL0     H 8817  -0.050   8.115   7.282 -1.1254  0.4890  0.9087
   64MOL0     H 8818  -0.214   8.372   6.999  1.8066 -1.6924  2.6140
   64MOL0     H 8819  -0.225   8.604   6.889  2.9083  1.4437  0.5785
   64MOL0     H 8820  -0.103   8.853   6.632  2.5116 -0.1508  0.7391
   64MOL0     H 8821  -0.220   8.764   6.716 -0.5002  0.7796  1.3740
   64MOL0     H 8822   0.003   8.925   6.844 -1.6616  3.6679 -2.3525
   64MOL0     H 8823  -0.091   8.814   6.944  0.7987  1.9980  0.7059
   64MOL0     H 8824  -0.309   8.909   6.875 -0.8472  0.7049  0.1151
   64MOL0     H 8825  -0.207   8.984   6.990  1.1614  2.2513 -0.9559
   64MOL0     H 8826  -0.207   9.067   6.687  2.6560 -0.5114 -0.4246
   64MOL0     H 8827  -0.100   9.132   6.800  0.5674  0.8017 -1.4541
   64MOL0     H 8828  -0.499   9.312   6.886  1.1069  2.2242 -1.6373
   64MOL0     H 8829   0.144   8.517   6.697 -0.7514  4.0997  1.4531
   64MOL0     H 8830   0.110   8.160   6.759 -1.5978 -0.3099  2.7031
   64MOL0     H 8831   0.202   8.280   6.671 -0.1916 -0.1921 -0.5553
   64MOL0     H 8832   0.246   8.243   6.843 -1.8167 -0.8560  0.9997
   65MOL0     O 8833  11.098   7.327   6.319  0.6522 -1.1427  0.1386
   65MOL0     C 8834  11.033   7.410   6.261  0.4377  0.1392 -0.8379
   65MOL0     O 8835  10.902   7.442   6.284  0.0019  0.1942 -0.7598
   65MOL0     C 8836  10.821   7.354   6.353 -1.6172  0.3879 -0.5062
   65MOL0     C 8837  10.828   7.331   6.488  1.2953 -0.7610 -0.4285
   65MOL0     C 8838  10.724   7.251   6.547  0.0531  0.2410  0.2976
   65MOL0     C 8839  10.625   7.187   6.470  0.0728 -0.3749  0.6751
   65MOL0     O 8840  10.523   7.122   6.533  0.2649  0.9529 -0.0944
   65MOL0     C 8841  10.396   7.096   6.465  0.2412  0.0606  0.8819
   65MOL0     C 8842  10.312   7.213   6.422  0.0690  1.1077  0.5503
   65MOL0     C 8843  10.274   7.298   6.548 -0.1638 -0.1130 -0.5141
   65MOL0     C 8844  10.199   7.424   6.498  0.6489  0.3980 -0.1087
   65MOL0     C 8845  10.144   7.506   6.615  0.3109 -0.1380  0.1392
   65MOL0     C 8846   9.984   7.493   6.616 -0.2570 -0.2413 -0.8776
   65MOL0     C 8847   9.933   7.547   6.753  0.2384 -0.5848  0.0907
   65MOL0     C 8848   9.785   7.547   6.738 -0.4406  0.7932  0.3050
   65MOL0     N 8849   9.719   7.655   6.813  0.0288  0.1359 -0.0901
   65MOL0     C 8850   9.647   7.637   6.932  0.2954 -0.7569 -0.2233
   65MOL0     C 8851   9.588   7.755   6.954  0.1781 -0.3756  0.4219
   65MOL0     C 8852   9.525   7.789   7.080 -0.4472  0.1220  1.1216
   65MOL0     C 8853   9.407   7.700   7.114 -0.1321  0.0005 -0.2341
   65MOL0     C 8854   9.319   7.766   7.237 -0.9568 -0.1851  0.4583
   65MOL0     C 8855   9.221   7.676   7.303  0.0556 -0.3852 -0.1296
   65MOL0     O 8856   9.287   7.554   7.337  0.4206  0.0472 -0.2480
   65MOL0     C 8857   9.234   7.473   7.432 -0.7784  0.6116  0.1817
   65MOL0     C 8858   9.107   7.470   7.481  0.9090  0.2068  0.7675
   65MOL0     C 8859   9.058   7.371   7.576  0.3716  0.2898 -1.1606
   65MOL0     C 8860   8.918   7.386   7.625  0.1558 -0.4653  0.0223
   65MOL0     C 8861   9.148   7.268   7.618 -0.2464  0.1668 -0.7733
   65MOL0     C 8862   9.108   7.145   7.700 -0.2030 -0.4511  0.7890
   65MOL0     O 8863   8.979   7.134   7.737  0.1188  0.0140  0.4687
   65MOL0     C 8864   8.945   7.059   7.842  0.0210 -0.3850  0.7914
   65MOL0     C 8865   8.872   6.940   7.828 -0.1417 -0.2989  0.3799
   65MOL0     C 8866   8.837   6.864   7.935  0.6448  0.5638  0.5197
   65MOL0     C 8867   8.887   6.890   8.063 -0.5674 -0.1053  0.5229
   65MOL0     O 8868   8.875   6.818   8.178 -0.2029  0.0120  0.8876
   65MOL0     C 8869   8.761   6.741   8.203  0.4448 -0.6070 -0.0117
   65MOL0     C 8870   8.789   6.591   8.170  0.8078 -0.7158  0.8270
   65MOL0     C 8871   8.667   6.511   8.205  0.0334  1.1493 -0.2644
   65MOL0     C 8872   8.652   6.380   8.115  0.8596 -0.2725  0.0380
   65MOL0     C 8873   8.761   6.287   8.146  0.2411 -0.6856 -0.2521
   65MOL0     C 8874   8.732   6.134   8.102  0.3085 -0.3254  0.3938
   65MOL0     C 8875   8.858   6.046   8.087 -0.3863 -0.6602  0.0475
   65MOL0     C 8876   8.827   5.935   7.990 -0.4360  0.6604 -0.0539
   65MOL0    Cl 8877   8.949   5.802   8.015 -0.0099 -0.1528  0.0058
   65MOL0     C 8878   8.975   7.003   8.080  0.4579 -0.3645 -0.2474
   65MOL0     C 8879   8.999   7.092   7.968  0.6341  0.6199 -0.2084
   65MOL0     O 8880   9.201   7.072   7.732  0.1284 -0.2276 -0.8271
   65MOL0     C 8881   9.284   7.278   7.568 -0.0884 -0.2453  0.3068
   65MOL0     C 8882   9.321   7.371   7.471  0.0706  0.5349 -0.6038
   65MOL0     N 8883   9.603   7.838   6.843 -0.1842 -0.7643 -0.2775
   65MOL0     N 8884   9.693   7.786   6.767  0.1321  0.0809  0.2621
   65MOL0     C 8885  10.637   7.202   6.324 -0.2198  0.1685  0.3773
   65MOL0     C 8886  10.738   7.285   6.268  0.3576  0.2593 -0.2354
   65MOL0     C 8887  11.101   7.477   6.148 -0.0216  0.3817 -0.6243
   65MOL0     C 8888  11.014   7.537   6.062  0.4635 -0.2998  1.3056
   65MOL0     C 8889  11.060   7.604   5.942 -0.4458 -0.4441 -0.5388
   65MOL0     C 8890  11.195   7.619   5.919  0.0644 -0.5675  0.7106
   65MOL0     O 8891  11.218   7.697   5.807  0.2913  0.7659 -0.6441
   65MOL0     C 8892  11.338   7.768   5.811 -0.3266  0.8722  0.1054
   65MOL0     C 8893  11.320   7.897   5.737 -0.5246 -0.0470 -0.4065
   65MOL0     C 8894  11.263   7.864   5.592 -0.7848 -0.3784  0.4016
   65MOL0     C 8895  11.287   7.984   5.496  0.2942  0.5934  1.0986
   65MOL0     C 8896  11.222   8.108   5.534  0.3325  0.0099 -0.7053
   65MOL0     C 8897  11.143   8.199   5.565  0.3912  0.2873 -0.4201
   65MOL0     C 8898  11.289   7.562   6.008  0.4468  0.9560  0.2926
   65MOL0     C 8899  11.245   7.478   6.119 -0.0622  0.2690 -0.3832
   65MOL0     C 8900  11.352   7.412   6.202 -0.4275 -0.0580  0.4427
   65MOL0     H 8901  10.911   7.371   6.545  1.5677 -1.1808 -0.5205
   65MOL0     H 8902  10.733   7.224   6.651 -3.0934  0.5825  0.7501
   65MOL0     H 8903  10.330   7.060   6.545 -0.5211  1.7297  1.0582
   65MOL0     H 8904  10.412   7.021   6.387 -0.3338 -0.5845  1.3637
   65MOL0     H 8905  10.364   7.274   6.348  2.5852 -1.9568 -0.3756
   65MOL0     H 8906  10.214   7.195   6.377 -0.4792  0.0627  2.0579
   65MOL0     H 8907  10.210   7.243   6.617  0.8689  1.2144  1.5946
   65MOL0     H 8908  10.367   7.321   6.600 -0.8762 -0.8454  1.1512
   65MOL0     H 8909  10.277   7.483   6.449  3.5224 -0.4623  3.0238
   65MOL0     H 8910  10.119   7.400   6.428  1.5697  0.5735 -1.2514
   65MOL0     H 8911  10.166   7.611   6.600  2.9397 -0.5965  0.3909
   65MOL0     H 8912  10.194   7.469   6.705  1.5034 -0.1664 -0.5230
   65MOL0     H 8913   9.964   7.563   6.535  0.0998  0.6053 -0.2435
   65MOL0     H 8914   9.940   7.392   6.618 -1.2899  0.2022 -0.7491
   65MOL0     H 8915   9.964   7.651   6.767 -0.0107 -0.7313  2.0412
   65MOL0     H 8916   9.967   7.487   6.838  2.6632  2.1034  1.2040
   65MOL0     H 8917   9.770   7.571   6.632  1.2045  0.7273  0.0237
   65MOL0     H 8918   9.749   7.453   6.779  2.1821 -1.1472 -1.5001
   65MOL0     H 8919   9.644   7.549   6.995 -0.5106  0.6866  1.8504
   65MOL0     H 8920   9.503   7.896   7.091 -2.4444  0.0832 -1.5581
   65MOL0     H 8921   9.609   7.773   7.149  1.0569  0.5844 -0.5224
   65MOL0     H 8922   9.344   7.698   7.025  0.0287  0.2662 -0.3560
   65MOL0     H 8923   9.450   7.603   7.137 -0.1975  0.3662  1.5616
   65MOL0     H 8924   9.387   7.809   7.311  2.1109 -0.1461 -2.1243
   65MOL0     H 8925   9.261   7.855   7.210 -0.4009 -0.6556 -2.8034
   65MOL0     H 8926   9.180   7.721   7.394 -3.1903  0.3791 -1.8225
   65MOL0     H 8927   9.140   7.647   7.236 -0.0125 -0.1093 -0.1645
   65MOL0     H 8928   9.040   7.549   7.450 -0.5790 -1.0406  0.6581
   65MOL0     H 8929   8.924   7.400   7.734  0.9899 -0.9056  0.0389
   65MOL0     H 8930   8.857   7.301   7.595 -0.3408 -0.5635  1.2573
   65MOL0     H 8931   8.878   7.482   7.589  3.3921  0.5828 -1.1756
   65MOL0     H 8932   8.843   6.921   7.725  0.7356  1.1559 -0.1710
   65MOL0     H 8933   8.761   6.787   7.933  1.7737 -0.6088 -1.8263
   65MOL0     H 8934   8.745   6.750   8.311 -3.6154  1.2453 -0.5899
   65MOL0     H 8935   8.670   6.775   8.153 -0.4408  0.7091  2.3543
   65MOL0     H 8936   8.809   6.595   8.063 -0.7960  1.9636  0.5336
   65MOL0     H 8937   8.880   6.560   8.222  0.5975  0.8110  2.1800
   65MOL0     H 8938   8.576   6.568   8.184 -0.3012  1.4350  1.7343
   65MOL0     H 8939   8.659   6.491   8.313  1.4889 -0.9761 -0.4846
   65MOL0     H 8940   8.655   6.413   8.010 -0.3147  2.1178  0.6730
   65MOL0     H 8941   8.557   6.330   8.136 -0.5152  1.2894 -2.0157
   65MOL0     H 8942   8.855   6.317   8.098  0.7721  2.6327  2.4570
   65MOL0     H 8943   8.773   6.287   8.255  1.6134  0.2832 -0.3722
   65MOL0     H 8944   8.679   6.135   8.007 -0.7295  1.0454  0.9580
   65MOL0     H 8945   8.675   6.071   8.171  0.6346 -1.8270 -0.6624
   65MOL0     H 8946   8.904   6.002   8.176 -0.5803 -3.5635 -1.2036
   65MOL0     H 8947   8.933   6.108   8.037 -1.1710  0.3121  0.0316
   65MOL0     H 8948   8.842   5.966   7.886 -1.5751  0.6131 -0.2449
   65MOL0     H 8949   8.723   5.903   7.999 -0.9282  1.8169 -1.2696
   65MOL0     H 8950   9.016   7.042   8.172 -2.1978  0.3774  0.7100
   65MOL0     H 8951   9.065   7.177   7.980  0.9370  0.6443 -1.8730
   65MOL0     H 8952   9.347   7.197   7.603  0.2645  0.2726  0.8825
   65MOL0     H 8953   9.422   7.367   7.432  1.0682  1.9789  1.6524
   65MOL0     H 8954  10.569   7.146   6.261  2.7667 -1.0754 -1.9675
   65MOL0     H 8955  10.754   7.291   6.161  3.9715  1.9512  0.2721
   65MOL0     H 8956  10.906   7.540   6.070  0.1536  0.4514 -1.8543
   65MOL0     H 8957  10.993   7.640   5.865  1.7279 -1.9445 -3.3366
   65MOL0     H 8958  11.383   7.796   5.907 -0.1695  3.3755 -0.6213
   65MOL0     H 8959  11.407   7.711   5.748 -1.0130  1.3326 -1.1026
   65MOL0     H 8960  11.411   7.958   5.738  0.4911 -1.4920  0.8593
   65MOL0     H 8961  11.243   7.953   5.791  2.5660  2.3789  1.8805
   65MOL0     H 8962  11.312   7.777   5.549 -0.2190 -0.0560  0.3849
   65MOL0     H 8963  11.160   7.833   5.609  0.1207 -2.9603  1.7025
   65MOL0     H 8964  11.234   7.959   5.404  0.2867 -0.4436  1.3762
   65MOL0     H 8965  11.395   7.987   5.476  0.2159 -1.0792  0.3109
   65MOL0     H 8966  11.067   8.267   5.599  0.6121 -0.4943  1.7386
   65MOL0     H 8967  11.396   7.581   6.016  0.9136 -1.0888 -0.4018
   65MOL0     H 8968  11.334   7.304   6.196  0.2822 -0.1412 -0.4186
   65MOL0     H 8969  11.454   7.436   6.170 -0.4001  0.2447  0.7531
   65MOL0     H 8970  11.354   7.456   6.302  0.8276  1.7644 -0.3350
   66MOL0     O 8971   0.302   0.371   8.373  0.1973 -0.9261 -0.5593
   66MOL0     C 8972   0.334   0.490   8.340  0.1691  1.1968  0.0053
   66MOL0     O 8973   0.286   0.559   8.236  0.2962  0.1181  0.1528
   66MOL0     C 8974   0.177   0.518   8.166 -0.3681 -0.6223  0.4107
   66MOL0     C 8975   0.071   0.440   8.213 -0.2945  0.5240 -0.5031
   66MOL0     C 8976  -0.040   0.428   8.124 -0.4757 -0.1398  0.1906
   66MOL0     C 8977  -0.031   0.472   7.989 -0.5393 -0.1117  0.0948
   66MOL0     O 8978  -0.123   0.437   7.897 -0.0419 -0.1568  0.0596
   66MOL0     C 8979  -0.262   0.432   7.932 -0.1908 -0.5930 -0.6662
   66MOL0     C 8980  -0.357   0.467   7.817 -1.3589 -0.3791  0.8092
   66MOL0     C 8981  -0.374   0.353   7.712 -0.7974  0.1240 -0.1141
   66MOL0     C 8982  -0.463   0.397   7.592 -0.4096  0.6216  0.1844
   66MOL0     C 8983  -0.610   0.382   7.621 -0.6847 -1.1166  0.2918
   66MOL0     C 8984  -0.715   0.429   7.523  0.4404  0.8532 -0.5814
   66MOL0     C 8985  -0.855   0.371   7.553  0.2893  0.2828  0.8593
   66MOL0     C 8986  -0.949   0.445   7.642 -0.0750  0.8453 -0.2323
   66MOL0     N 8987  -1.039   0.353   7.719 -0.3762 -0.2156  0.3780
   66MOL0     C 8988  -1.137   0.270   7.668  0.5279  0.2006  0.6637
   66MOL0     C 8989  -1.178   0.196   7.768  0.6597 -0.4728 -0.0402
   66MOL0     C 8990  -1.280   0.088   7.758 -0.7795 -0.2628  0.1256
   66MOL0     C 8991  -1.203  -0.039   7.709  0.1960  0.4732  0.2300
   66MOL0     C 8992  -1.296  -0.155   7.653  0.3383 -0.0029 -0.5542
   66MOL0     C 8993  -1.214  -0.288   7.667  0.6089 -0.2358  0.6401
   66MOL0     O 8994  -1.295  -0.406   7.630  1.1210 -0.3563  0.8395
   66MOL0     C 8995  -1.338  -0.417   7.495 -0.2364 -0.2791 -0.1234
   66MOL0     C 8996  -1.293  -0.349   7.377 -0.1299 -0.1849 -0.5604
   66MOL0     C 8997  -1.351  -0.370   7.250 -1.7658 -1.0262 -0.0245
   66MOL0     C 8998  -1.292  -0.295   7.123  1.1245 -0.0532  0.2487
   66MOL0     C 8999  -1.472  -0.447   7.240 -0.1790 -0.0463 -0.2405
   66MOL0     C 9000  -1.572  -0.448   7.118 -1.0677 -0.1367 -0.8821
   66MOL0     O 9001  -1.706  -0.463   7.141 -0.0868  0.0151 -0.3020
   66MOL0     C 9002  -1.791  -0.444   7.037  0.0372  0.3473 -0.1155
   66MOL0     C 9003  -1.796  -0.525   6.926  0.5007  0.5403 -0.5282
   66MOL0     C 9004  -1.896  -0.499   6.832 -0.5893  0.5680 -0.7220
   66MOL0     C 9005  -1.987  -0.402   6.838  0.2855 -0.5720  0.4625
   66MOL0     O 9006  -2.092  -0.391   6.754 -0.0365  0.5142  0.4031
   66MOL0     C 9007  -2.126  -0.504   6.671  0.4810  0.0331 -0.8250
   66MOL0     C 9008  -2.261  -0.479   6.604  0.7796  0.1245  0.2183
   66MOL0     C 9009  -2.325  -0.590   6.517 -1.4349  0.3054 -0.2810
   66MOL0     C 9010  -2.446  -0.555   6.436 -0.7021  0.3078  0.3313
   66MOL0     C 9011  -2.464  -0.660   6.323 -1.0957  0.4552  0.3148
   66MOL0     C 9012  -2.587  -0.642   6.243  0.7934  0.4366  0.2722
   66MOL0     C 9013  -2.639  -0.751   6.140 -0.4066  0.7428 -0.6765
   66MOL0     C 9014  -2.764  -0.714   6.076 -0.1836  0.5207 -0.9937
   66MOL0    Cl 9015  -2.900  -0.690   6.189 -0.1998  0.0329 -0.2543
   66MOL0     C 9016  -1.976  -0.315   6.946 -0.4035  0.2450  0.0268
   66MOL0     C 9017  -1.886  -0.334   7.051  0.6815  0.0623 -0.7250
   66MOL0     O 9018  -1.525  -0.448   7.001  0.7839  0.2670 -0.6274
   66MOL0     C 9019  -1.512  -0.521   7.361  0.4359  0.6824  0.9989
   66MOL0     C 9020  -1.440  -0.504   7.479  0.1603  0.6990  0.2156
   66MOL0     N 9021  -1.113   0.244   7.881  0.4586 -0.2354 -0.2601
   66MOL0     N 9022  -1.027   0.337   7.849 -0.4968 -0.8583 -0.2354
   66MOL0     C 9023   0.083   0.540   7.948  0.1145  0.1423  0.2358
   66MOL0     C 9024   0.186   0.564   8.036 -0.0085  0.2787 -0.1097
   66MOL0     C 9025   0.418   0.563   8.442 -0.1291 -0.6665  0.3216
   66MOL0     C 9026   0.415   0.702   8.444 -0.2856  0.5522  0.7001
   66MOL0     C 9027   0.485   0.787   8.534  1.0057 -0.0531  0.7159
   66MOL0     C 9028   0.573   0.733   8.620 -0.1043 -0.5114 -0.0327
   66MOL0     O 9029   0.645   0.793   8.724  0.5393  0.5477 -0.2054
   66MOL0     C 9030   0.629   0.933   8.763 -0.2852  0.0727 -0.0761
   66MOL0     C 9031   0.689   1.043   8.669 -0.2830 -0.1672  0.9826
   66MOL0     C 9032   0.844   1.025   8.677 -0.0444  0.5161 -0.1242
   66MOL0     C 9033   0.925   1.055   8.551 -0.9663 -0.2029  1.1484
   66MOL0     C 9034   0.917   1.185   8.484  0.1330 -0.3257 -0.1831
   66MOL0     C 9035   0.896   1.293   8.425  0.1521 -1.1393  0.6349
   66MOL0     C 9036   0.587   0.592   8.629  0.2710 -0.5981  0.3572
   66MOL0     C 9037   0.511   0.509   8.540 -0.1068 -0.6507  0.3585
   66MOL0     C 9038   0.527   0.361   8.554 -0.3994 -0.3213 -0.3762
   66MOL0     H 9039   0.066   0.409   8.317 -0.0167  0.4943 -0.4967
   66MOL0     H 9040  -0.126   0.371   8.159 -1.6623  0.9725 -0.7895
   66MOL0     H 9041  -0.282   0.498   8.017 -3.4770 -1.3598 -0.7093
   66MOL0     H 9042  -0.273   0.325   7.954  0.5111 -0.5109  0.1422
   66MOL0     H 9043  -0.454   0.503   7.851 -0.1073  1.1289  3.0368
   66MOL0     H 9044  -0.307   0.552   7.768 -2.4033  0.9068  1.9349
   66MOL0     H 9045  -0.270   0.339   7.679 -0.3452 -4.5633  2.4084
   66MOL0     H 9046  -0.411   0.262   7.760 -2.0985  0.5792 -0.2172
   66MOL0     H 9047  -0.442   0.496   7.552 -0.6503 -0.2736 -2.3396
   66MOL0     H 9048  -0.437   0.323   7.516 -0.5305  2.1758 -1.4349
   66MOL0     H 9049  -0.619   0.430   7.719  1.9284  0.8914 -0.3499
   66MOL0     H 9050  -0.629   0.276   7.640 -0.1803 -1.1187  0.8060
   66MOL0     H 9051  -0.719   0.538   7.529  1.3479  0.9076 -0.9070
   66MOL0     H 9052  -0.677   0.393   7.427 -0.1108  2.5294 -1.4711
   66MOL0     H 9053  -0.844   0.263   7.571 -1.6286  0.0475  0.8713
   66MOL0     H 9054  -0.911   0.367   7.459 -1.5355 -0.0225  1.9021
   66MOL0     H 9055  -0.878   0.501   7.704  0.0550  1.6341 -1.0725
   66MOL0     H 9056  -1.018   0.518   7.599  1.2058  3.6464  2.1072
   66MOL0     H 9057  -1.180   0.265   7.569  1.2483  0.2405  0.3415
   66MOL0     H 9058  -1.366   0.124   7.700  1.8510  1.5025 -3.0315
   66MOL0     H 9059  -1.326   0.068   7.855 -2.8256  1.3735 -0.4131
   66MOL0     H 9060  -1.123  -0.028   7.635  0.4048 -0.9988  0.1953
   66MOL0     H 9061  -1.145  -0.069   7.797  0.5000  2.6376  0.8208
   66MOL0     H 9062  -1.390  -0.172   7.707  1.2442 -0.0279  1.0827
   66MOL0     H 9063  -1.330  -0.130   7.552 -2.3767 -1.2917 -0.0817
   66MOL0     H 9064  -1.122  -0.279   7.607 -0.1375  2.1963 -0.2751
   66MOL0     H 9065  -1.185  -0.310   7.770  1.7958  1.4430  0.7146
   66MOL0     H 9066  -1.217  -0.272   7.383 -1.7849  1.4347  0.9689
   66MOL0     H 9067  -1.365  -0.230   7.074 -0.6362 -0.8894  1.6464
   66MOL0     H 9068  -1.271  -0.359   7.038  1.2718  3.9203 -3.0239
   66MOL0     H 9069  -1.202  -0.238   7.149  1.9077  0.2288 -2.7451
   66MOL0     H 9070  -1.726  -0.604   6.900 -2.8592 -2.4564 -1.2782
   66MOL0     H 9071  -1.897  -0.566   6.746 -0.5069  0.0027 -0.2930
   66MOL0     H 9072  -2.055  -0.519   6.588 -1.5147  1.5886 -2.9479
   66MOL0     H 9073  -2.131  -0.598   6.726 -3.0325  0.3714 -0.3847
   66MOL0     H 9074  -2.327  -0.459   6.689  1.9225 -3.1328  2.0387
   66MOL0     H 9075  -2.255  -0.387   6.545 -0.4340 -0.9832 -1.7371
   66MOL0     H 9076  -2.352  -0.673   6.584 -0.1040 -0.6030 -0.8232
   66MOL0     H 9077  -2.261  -0.642   6.445 -1.7034  1.3791 -1.3180
   66MOL0     H 9078  -2.441  -0.456   6.391 -0.2194  0.8511  1.5498
   66MOL0     H 9079  -2.540  -0.554   6.494  0.3998 -1.4886  2.2967
   66MOL0     H 9080  -2.374  -0.676   6.263 -1.8880 -2.3635 -0.2900
   66MOL0     H 9081  -2.483  -0.757   6.371  0.7432 -0.2537 -0.2979
   66MOL0     H 9082  -2.576  -0.544   6.198  0.5616  1.2125  1.8187
   66MOL0     H 9083  -2.663  -0.627   6.321  1.1996 -1.2591  1.0656
   66MOL0     H 9084  -2.647  -0.842   6.200  2.4639  2.5503  2.8799
   66MOL0     H 9085  -2.562  -0.762   6.063 -0.5161  0.1377 -0.7036
   66MOL0     H 9086  -2.794  -0.796   6.010  2.4594  0.5652 -2.3812
   66MOL0     H 9087  -2.747  -0.618   6.027  0.3933  0.8693 -0.1503
   66MOL0     H 9088  -2.034  -0.223   6.936 -0.7115  0.1674  1.0226
   66MOL0     H 9089  -1.892  -0.258   7.128 -1.7616 -1.9090  1.1972
   66MOL0     H 9090  -1.599  -0.585   7.370  0.3707  0.8884  1.9486
   66MOL0     H 9091  -1.485  -0.544   7.569  1.5336  1.7683  1.4328
   66MOL0     H 9092   0.100   0.564   7.844 -1.3818  0.6209  0.0849
   66MOL0     H 9093   0.272   0.618   7.996  0.4700  1.2976  2.1097
   66MOL0     H 9094   0.345   0.750   8.377 -2.6357 -1.4359  1.5803
   66MOL0     H 9095   0.468   0.894   8.536  3.2316  0.3363  1.1040
   66MOL0     H 9096   0.520   0.947   8.770 -0.3251 -0.6708  0.9572
   66MOL0     H 9097   0.686   0.939   8.856  0.4510 -1.8575 -0.3626
   66MOL0     H 9098   0.667   1.145   8.704 -0.1321  0.9994 -2.0617
   66MOL0     H 9099   0.667   1.040   8.562 -0.3323 -1.4538  1.0156
   66MOL0     H 9100   0.876   1.083   8.764  0.9283 -3.6114  2.5863
   66MOL0     H 9101   0.866   0.919   8.696  0.2799  0.5517 -0.3069
   66MOL0     H 9102   0.926   0.976   8.475 -1.2089  0.3023  0.6128
   66MOL0     H 9103   1.033   1.047   8.569 -0.8230  0.0468  0.4379
   66MOL0     H 9104   0.900   1.386   8.370 -1.5468 -2.2916 -1.6220
   66MOL0     H 9105   0.653   0.550   8.704  0.2861 -1.1784  0.0254
   66MOL0     H 9106   0.539   0.319   8.454 -0.9166 -0.8476 -0.2256
   66MOL0     H 9107   0.620   0.338   8.608  1.2147  0.6378 -2.5974
   66MOL0     H 9108   0.438   0.318   8.601  2.4785 -3.3669  2.9844
   67MOL0     O 9109   0.113   5.252   7.005  0.6914 -0.0828 -0.0420
   67MOL0     C 9110   0.093   5.141   7.056 -0.7527 -0.7204 -0.5299
   67MOL0     O 9111  -0.011   5.054   7.016  1.1088  0.6705 -0.1284
   67MOL0     C 9112  -0.087   5.080   6.912  0.7719  0.1526  0.4909
   67MOL0     C 9113  -0.035   5.113   6.790 -0.0508 -0.2134  0.5439
   67MOL0     C 9114  -0.112   5.142   6.676  1.1622  0.0144 -0.0324
   67MOL0     C 9115  -0.254   5.144   6.689  0.2128 -0.5846 -0.2575
   67MOL0     O 9116  -0.336   5.154   6.583 -0.2865 -0.2763  0.3571
   67MOL0     C 9117  -0.293   5.237   6.466 -0.9886  0.7612 -0.4853
   67MOL0     C 9118  -0.381   5.216   6.344  0.4818  0.2485 -0.2700
   67MOL0     C 9119  -0.509   5.299   6.335 -0.4366 -0.4574 -0.1162
   67MOL0     C 9120  -0.597   5.286   6.206 -0.0322  0.0244  0.1862
   67MOL0     C 9121  -0.704   5.395   6.192  0.3332 -0.2295  0.4892
   67MOL0     C 9122  -0.753   5.399   6.053 -0.6475 -0.7020 -0.1937
   67MOL0     C 9123  -0.852   5.512   6.012  1.2421  0.1660 -0.2325
   67MOL0     C 9124  -0.981   5.509   6.093  0.5410 -0.1722  0.2256
   67MOL0     N 9125  -1.048   5.384   6.091  0.5665  0.5676 -0.7362
   67MOL0     C 9126  -1.037   5.280   6.183 -0.8253  0.2445 -0.2450
   67MOL0     C 9127  -1.133   5.192   6.156  0.1109  0.0006  0.2155
   67MOL0     C 9128  -1.140   5.050   6.203  0.5609 -0.3857  0.7207
   67MOL0     C 9129  -1.069   4.949   6.112 -0.9415 -0.3145 -1.3451
   67MOL0     C 9130  -1.006   4.828   6.195  0.0176 -0.3463  0.0016
   67MOL0     C 9131  -0.922   4.739   6.108 -0.0389  0.2624 -0.6308
   67MOL0     O 9132  -0.837   4.808   6.020 -0.5957  0.3918 -0.1914
   67MOL0     C 9133  -0.715   4.853   6.064  0.3775 -0.1402 -0.3087
   67MOL0     C 9134  -0.648   4.940   5.978  0.1161 -0.1111  0.1272
   67MOL0     C 9135  -0.513   4.974   5.996 -0.7466  0.5829 -0.0114
   67MOL0     C 9136  -0.455   5.073   5.905  0.0833  0.0166  0.7494
   67MOL0     C 9137  -0.433   4.914   6.096 -0.0415 -0.3643 -0.6581
   67MOL0     C 9138  -0.292   4.942   6.130  0.3135  0.4113 -0.0305
   67MOL0     O 9139  -0.239   4.882   6.240  0.3001 -0.0985  0.3079
   67MOL0     C 9140  -0.121   4.920   6.304  0.3000 -0.4848 -1.1751
   67MOL0     C 9141  -0.030   5.029   6.273  0.3884  0.3412  0.0483
   67MOL0     C 9142   0.084   5.053   6.349 -0.9356 -0.7925 -0.0646
   67MOL0     C 9143   0.110   4.981   6.465 -0.1865 -0.4745 -0.0237
   67MOL0     O 9144   0.212   5.024   6.554  0.5371  0.2614 -0.2664
   67MOL0     C 9145   0.318   4.921   6.532 -0.4431  0.0449  0.3005
   67MOL0     C 9146   0.442   4.970   6.607  0.1388 -0.8792 -0.3337
   67MOL0     C 9147   0.564   4.869   6.602  0.4015 -0.7749 -0.4834
   67MOL0     C 9148   0.708   4.921   6.610  0.1992  0.3196  0.5651
   67MOL0     C 9149   0.749   4.989   6.483 -1.0932  0.0424 -1.0846
   67MOL0     C 9150   0.894   5.044   6.478  0.2302  0.8262  0.4659
   67MOL0     C 9151   1.008   4.940   6.468 -1.2820  0.0406 -0.0616
   67MOL0     C 9152   1.147   5.003   6.441 -0.0341  0.1236 -0.3155
   67MOL0    Cl 9153   1.154   5.075   6.278  0.1172 -0.5446 -0.0107
   67MOL0     C 9154   0.023   4.889   6.499  0.3779  0.7140  0.1060
   67MOL0     C 9155  -0.093   4.858   6.420 -0.2385 -1.0386  1.0407
   67MOL0     O 9156  -0.222   5.008   6.047  0.7528  0.8149  0.2149
   67MOL0     C 9157  -0.504   4.837   6.186  0.0701  0.6404 -0.1954
   67MOL0     C 9158  -0.641   4.798   6.172  0.2548  0.1183  0.4375
   67MOL0     N 9159  -1.214   5.246   6.062 -0.3686  0.0548  0.0568
   67MOL0     N 9160  -1.165   5.360   6.028  0.1553 -0.2852  0.1941
   67MOL0     C 9161  -0.309   5.100   6.809 -0.1210  0.0530  0.2876
   67MOL0     C 9162  -0.224   5.061   6.923  0.9049 -0.5725 -0.3038
   67MOL0     C 9163   0.186   5.103   7.161 -0.6703 -0.1820  0.3500
   67MOL0     C 9164   0.227   5.213   7.243  0.9573  0.1439 -0.4344
   67MOL0     C 9165   0.322   5.193   7.352  0.9499  0.3618  1.6457
   67MOL0     C 9166   0.374   5.070   7.367  0.4153 -0.0432 -1.0391
   67MOL0     O 9167   0.484   5.066   7.457 -0.1576  0.0135  0.3505
   67MOL0     C 9168   0.538   4.939   7.501  0.8312 -0.7839 -0.1310
   67MOL0     C 9169   0.639   4.887   7.403  0.6471 -0.6204  0.1806
   67MOL0     C 9170   0.682   4.740   7.423 -0.4484  1.5085  0.8543
   67MOL0     C 9171   0.792   4.702   7.524 -0.9733  0.3866 -0.9155
   67MOL0     C 9172   0.832   4.560   7.514 -0.5378 -0.5557 -0.0340
   67MOL0     C 9173   0.865   4.446   7.510  0.3095  0.2597 -0.0726
   67MOL0     C 9174   0.328   4.959   7.296  0.3239  0.6353  0.6344
   67MOL0     C 9175   0.222   4.967   7.197 -0.1431  0.0618  0.2936
   67MOL0     C 9176   0.191   4.852   7.111 -0.4019  0.3839  0.4750
   67MOL0     H 9177   0.069   5.118   6.760 -0.4937  1.6431 -0.8552
   67MOL0     H 9178  -0.066   5.175   6.583  0.9802  1.0629  0.2309
   67MOL0     H 9179  -0.191   5.209   6.438 -1.8270 -2.7225 -0.5014
   67MOL0     H 9180  -0.296   5.344   6.490  0.8099  0.7969 -0.3098
   67MOL0     H 9181  -0.320   5.263   6.266  0.5395  1.5437  0.5221
   67MOL0     H 9182  -0.409   5.110   6.337  0.8740 -0.1432  2.7745
   67MOL0     H 9183  -0.574   5.271   6.419 -0.6296 -2.8569 -0.9730
   67MOL0     H 9184  -0.478   5.403   6.321 -2.4194 -0.1183 -2.6635
   67MOL0     H 9185  -0.539   5.275   6.113 -0.4390 -0.1882 -0.0442
   67MOL0     H 9186  -0.652   5.192   6.221 -0.7384  0.4654  0.3908
   67MOL0     H 9187  -0.648   5.483   6.228  1.1355 -0.3558 -0.4212
   67MOL0     H 9188  -0.787   5.385   6.262 -0.5385  1.1590 -0.2801
   67MOL0     H 9189  -0.665   5.416   5.990  0.0967 -0.9010  0.7632
   67MOL0     H 9190  -0.778   5.295   6.028  0.1359 -0.3045 -2.9978
   67MOL0     H 9191  -0.881   5.500   5.907  3.0313 -1.7994 -0.5738
   67MOL0     H 9192  -0.800   5.607   6.025  0.0554  0.5681  1.9367
   67MOL0     H 9193  -0.959   5.546   6.194 -1.9216 -1.6633  1.4173
   67MOL0     H 9194  -1.060   5.568   6.045  1.5873  1.2194  0.1297
   67MOL0     H 9195  -0.951   5.263   6.246  0.7831  1.1397 -2.0669
   67MOL0     H 9196  -1.243   5.014   6.215 -1.5657  4.6047 -0.0253
   67MOL0     H 9197  -1.087   5.043   6.299  0.0076  2.3397  1.3218
   67MOL0     H 9198  -1.137   4.919   6.031 -2.9722 -2.4129  0.9611
   67MOL0     H 9199  -0.985   5.009   6.076  0.2640  0.5580  2.4394
   67MOL0     H 9200  -0.953   4.864   6.284 -0.8127 -0.4770  0.5621
   67MOL0     H 9201  -1.083   4.762   6.235 -0.0777 -1.7085 -2.2340
   67MOL0     H 9202  -0.873   4.672   6.179  0.6888  3.3174  1.9650
   67MOL0     H 9203  -0.983   4.675   6.043  0.9332  0.1528 -1.4546
   67MOL0     H 9204  -0.709   4.973   5.894  0.7373  3.8996  1.0537
   67MOL0     H 9205  -0.522   5.104   5.824  3.6487  0.9275 -2.1243
   67MOL0     H 9206  -0.378   5.034   5.838  1.0204  3.2992 -0.2937
   67MOL0     H 9207  -0.427   5.165   5.957 -1.8850  0.8798  0.3789
   67MOL0     H 9208  -0.060   5.091   6.189  0.4856  0.7021  0.2780
   67MOL0     H 9209   0.134   5.149   6.339 -0.0205 -1.3878 -1.5722
   67MOL0     H 9210   0.285   4.823   6.565  0.5976  0.1369  1.6857
   67MOL0     H 9211   0.352   4.916   6.428 -0.1146  2.8713  0.1868
   67MOL0     H 9212   0.469   5.072   6.578 -0.2291 -1.5691 -3.3797
   67MOL0     H 9213   0.418   4.980   6.714  0.0970 -0.7246 -0.3580
   67MOL0     H 9214   0.561   4.805   6.513  3.1787 -1.0021 -0.5108
   67MOL0     H 9215   0.549   4.791   6.676 -1.8121  0.4542  0.4683
   67MOL0     H 9216   0.776   4.838   6.630 -2.0852 -1.1049  3.1378
   67MOL0     H 9217   0.712   4.994   6.692  2.5805  0.2464  0.5848
   67MOL0     H 9218   0.750   4.927   6.393  0.9138 -1.4546 -0.1162
   67MOL0     H 9219   0.670   5.063   6.470 -3.2899 -1.5690  1.8446
   67MOL0     H 9220   0.907   5.126   6.550 -1.1657 -2.2064  4.6018
   67MOL0     H 9221   0.898   5.097   6.382 -0.9380  0.7637  0.3772
   67MOL0     H 9222   0.989   4.874   6.383  0.0968  0.5891 -0.8439
   67MOL0     H 9223   1.022   4.893   6.566  0.1307 -2.2352 -1.2794
   67MOL0     H 9224   1.220   4.924   6.462 -1.0417 -0.3922  1.3946
   67MOL0     H 9225   1.172   5.084   6.510 -0.8490  0.3427 -0.2693
   67MOL0     H 9226   0.040   4.827   6.587  1.8462  4.0963  2.4009
   67MOL0     H 9227  -0.158   4.783   6.465  0.0801  0.0781  3.5578
   67MOL0     H 9228  -0.452   4.790   6.269 -0.1837 -0.7711 -0.8098
   67MOL0     H 9229  -0.694   4.728   6.236 -0.4454 -1.5715 -1.8683
   67MOL0     H 9230  -0.416   5.082   6.815 -0.0482 -0.0596  1.6539
   67MOL0     H 9231  -0.267   4.998   7.000 -0.5157  2.4048  1.5128
   67MOL0     H 9232   0.201   5.314   7.212  2.5081 -0.0606 -2.6637
   67MOL0     H 9233   0.332   5.281   7.415  0.7781  1.2978  0.4235
   67MOL0     H 9234   0.584   4.943   7.600 -2.2250 -1.1874  1.4252
   67MOL0     H 9235   0.457   4.868   7.521 -1.3186  1.2868 -0.9411
   67MOL0     H 9236   0.709   4.971   7.393  1.5507 -1.5136 -1.3039
   67MOL0     H 9237   0.577   4.881   7.313  0.4050 -1.8512  0.4122
   67MOL0     H 9238   0.591   4.688   7.452 -0.5243  1.7372  1.0239
   67MOL0     H 9239   0.715   4.693   7.329  0.7327 -0.1711  2.0418
   67MOL0     H 9240   0.753   4.713   7.626  3.2830  1.2991  0.8222
   67MOL0     H 9241   0.872   4.772   7.497 -3.0936  3.2659 -0.2852
   67MOL0     H 9242   0.910   4.350   7.524  1.8404  1.0350  0.5463
   67MOL0     H 9243   0.366   4.862   7.324  0.4207  1.2677  2.8621
   67MOL0     H 9244   0.204   4.872   7.005  0.0116  0.5294  0.5511
   67MOL0     H 9245   0.276   4.785   7.128 -0.1307  0.8166  0.8633
   67MOL0     H 9246   0.091   4.808   7.121 -0.2325 -0.3563 -0.8875
   68MOL0     O 9247   1.968   4.247   2.108  0.5801  0.0804  0.2095
   68MOL0     C 9248   2.092   4.247   2.116  1.2061  0.3208  0.3454
   68MOL0     O 9249   2.171   4.288   2.007  0.5212 -0.4133  0.0915
   68MOL0     C 9250   2.119   4.390   1.929 -0.4115 -0.0481  0.0234
   68MOL0     C 9251   2.051   4.352   1.819  0.8401 -0.0224  0.1224
   68MOL0     C 9252   1.997   4.440   1.731 -0.6935 -0.7438  0.1711
   68MOL0     C 9253   2.030   4.579   1.746 -0.5852 -0.3074 -0.2660
   68MOL0     O 9254   1.967   4.680   1.672 -0.2549  0.5234  0.5333
   68MOL0     C 9255   2.010   4.680   1.539  0.1437  0.6592  0.6992
   68MOL0     C 9256   1.991   4.830   1.490  0.2717  0.0802 -0.0920
   68MOL0     C 9257   2.033   4.950   1.579 -0.3291 -0.3340 -0.8242
   68MOL0     C 9258   2.176   4.968   1.536 -0.1829 -1.6026  0.3077
   68MOL0     C 9259   2.238   5.102   1.579 -0.6560 -0.1205  0.8448
   68MOL0     C 9260   2.380   5.123   1.544 -0.3591  0.3969  0.7963
   68MOL0     C 9261   2.437   5.255   1.594 -0.7141  0.1373  0.3250
   68MOL0     C 9262   2.591   5.270   1.614 -0.7559 -0.3248 -0.5871
   68MOL0     N 9263   2.678   5.265   1.494 -0.7263 -0.3192  0.4088
   68MOL0     C 9264   2.708   5.152   1.426 -0.0731 -0.5051  0.9234
   68MOL0     C 9265   2.803   5.194   1.339  1.3540 -0.3724 -0.1866
   68MOL0     C 9266   2.869   5.096   1.255 -1.0908 -0.1230 -0.2298
   68MOL0     C 9267   2.772   5.056   1.140  0.0615 -0.7775  0.6866
   68MOL0     C 9268   2.829   4.944   1.059 -0.2346  0.2387  1.2573
   68MOL0     C 9269   2.863   4.809   1.125 -0.7116 -0.6684  0.0515
   68MOL0     O 9270   2.987   4.822   1.198  0.8182  0.3918 -0.3555
   68MOL0     C 9271   3.095   4.776   1.129  0.1806  0.3461 -0.0711
   68MOL0     C 9272   3.194   4.863   1.083  0.3025  0.3847  0.5521
   68MOL0     C 9273   3.303   4.822   1.004 -0.0280  0.0372  0.5797
   68MOL0     C 9274   3.403   4.925   0.965  0.5080  0.7107 -0.7876
   68MOL0     C 9275   3.315   4.682   0.973 -0.6406 -0.2996 -0.4355
   68MOL0     C 9276   3.408   4.631   0.871  0.4671 -1.1705 -1.0891
   68MOL0     O 9277   3.413   4.492   0.857 -0.1665 -0.2473  0.8460
   68MOL0     C 9278   3.501   4.422   0.774 -0.1932 -0.2066  0.2902
   68MOL0     C 9279   3.568   4.476   0.664 -0.1611 -0.2513 -0.3573
   68MOL0     C 9280   3.644   4.388   0.582 -0.3990  0.7486 -0.0101
   68MOL0     C 9281   3.674   4.253   0.616 -0.7508 -0.0556 -0.1828
   68MOL0     O 9282   3.760   4.169   0.547 -0.3049 -0.0962 -0.4965
   68MOL0     C 9283   3.842   4.219   0.442 -0.2561  0.1534 -0.2038
   68MOL0     C 9284   3.926   4.100   0.379 -0.3760  0.4957 -0.2700
   68MOL0     C 9285   4.064   4.075   0.448 -0.0942 -0.6785  0.3967
   68MOL0     C 9286   4.158   4.192   0.418  0.7437  0.0765  0.3860
   68MOL0     C 9287   4.216   4.185   0.272  0.6427 -0.1880 -0.5987
   68MOL0     C 9288   4.335   4.283   0.268  0.4196  0.3551  0.3309
   68MOL0     C 9289   4.409   4.275   0.130 -0.4104 -0.1390  0.4111
   68MOL0     C 9290   4.532   4.369   0.127 -0.4949  0.0564 -0.1011
   68MOL0    Cl 9291   4.611   4.385  -0.031  0.1177 -0.4073 -0.1436
   68MOL0     C 9292   3.599   4.197   0.717 -0.5463 -0.0801 -1.1028
   68MOL0     C 9293   3.511   4.281   0.788  0.3395  0.1280  0.0945
   68MOL0     O 9294   3.487   4.705   0.817 -0.1929 -0.7148 -0.5441
   68MOL0     C 9295   3.213   4.597   1.029  0.4356 -0.4683  0.3067
   68MOL0     C 9296   3.112   4.642   1.112 -0.0278  0.1003  1.2189
   68MOL0     N 9297   2.811   5.337   1.349  0.3641  0.7739  0.1720
   68MOL0     N 9298   2.723   5.374   1.428  0.1172 -0.0254 -0.5813
   68MOL0     C 9299   2.098   4.615   1.864  0.6067  0.5840  0.8541
   68MOL0     C 9300   2.141   4.522   1.952  1.1084  0.8603 -0.1112
   68MOL0     C 9301   2.153   4.167   2.225  0.5739 -1.1720  0.7298
   68MOL0     C 9302   2.081   4.060   2.273  0.8351 -0.1568  0.1924
   68MOL0     C 9303   2.136   3.978   2.378 -0.9896 -0.0222 -0.0636
   68MOL0     C 9304   2.271   4.004   2.414  0.8741 -0.5536 -0.6171
   68MOL0     O 9305   2.336   3.917   2.500 -0.1843 -0.0076  0.4104
   68MOL0     C 9306   2.479   3.873   2.487  0.1497  0.3810 -0.2458
   68MOL0     C 9307   2.495   3.745   2.567 -0.3387  0.9970 -1.1824
   68MOL0     C 9308   2.467   3.744   2.721  0.0918  0.9337  0.5194
   68MOL0     C 9309   2.536   3.846   2.804 -0.2984 -0.7406  0.0697
   68MOL0     C 9310   2.683   3.849   2.786 -0.3648 -1.2015 -0.3789
   68MOL0     C 9311   2.803   3.832   2.782  0.3917 -0.4511 -0.1181
   68MOL0     C 9312   2.330   4.120   2.378  0.6394 -0.6289 -0.1696
   68MOL0     C 9313   2.269   4.206   2.284 -1.0573 -0.0625 -0.1977
   68MOL0     C 9314   2.335   4.339   2.260  0.4614 -0.2039  0.1489
   68MOL0     H 9315   2.049   4.245   1.796 -1.7041 -0.1114  0.3937
   68MOL0     H 9316   1.936   4.395   1.654 -2.1821 -0.3932  1.0982
   68MOL0     H 9317   1.942   4.623   1.476  1.0269 -0.3861  0.6511
   68MOL0     H 9318   2.116   4.658   1.523 -0.5302 -0.6287 -2.7811
   68MOL0     H 9319   2.019   4.830   1.384  1.8016  2.2727  0.2532
   68MOL0     H 9320   1.884   4.851   1.497  0.2671  0.1709 -0.4167
   68MOL0     H 9321   1.980   5.040   1.546  1.5173  1.8144  1.6787
   68MOL0     H 9322   2.028   4.931   1.686  2.0041 -1.2862 -0.8135
   68MOL0     H 9323   2.233   4.883   1.574  0.5506 -0.4751  1.8059
   68MOL0     H 9324   2.188   4.958   1.427  2.5395  0.6981  0.2622
   68MOL0     H 9325   2.224   5.109   1.687 -0.0480  1.2416  0.8515
   68MOL0     H 9326   2.176   5.180   1.535 -0.4892 -1.3277 -1.7326
   68MOL0     H 9327   2.441   5.047   1.594 -0.1267 -0.9488 -1.4130
   68MOL0     H 9328   2.397   5.097   1.439 -2.5883 -2.1684  0.9620
   68MOL0     H 9329   2.395   5.269   1.694 -0.0147  0.3016  0.6029
   68MOL0     H 9330   2.409   5.332   1.521  2.1969  1.0101  0.0001
   68MOL0     H 9331   2.617   5.366   1.661  0.3278 -1.0494  0.3473
   68MOL0     H 9332   2.625   5.190   1.681  3.2479  1.1886 -0.5230
   68MOL0     H 9333   2.679   5.052   1.457  1.8149 -0.9961  1.2558
   68MOL0     H 9334   2.896   5.012   1.319 -0.4274  0.0489 -0.2718
   68MOL0     H 9335   2.960   5.144   1.216  0.7678 -1.4675  2.1300
   68MOL0     H 9336   2.668   5.048   1.172  0.1906 -1.0495  1.0504
   68MOL0     H 9337   2.756   5.148   1.082 -3.4240 -1.2435  0.7360
   68MOL0     H 9338   2.771   4.928   0.968  2.3064 -1.2868 -0.2377
   68MOL0     H 9339   2.919   4.990   1.018  0.6935  0.6016  3.5673
   68MOL0     H 9340   2.796   4.784   1.208  0.5626  0.8734  1.6082
   68MOL0     H 9341   2.869   4.734   1.046  1.1806  1.0400 -1.5265
   68MOL0     H 9342   3.181   4.971   1.087 -0.0341  0.5348 -2.4075
   68MOL0     H 9343   3.408   4.934   0.856 -2.5506  2.3376 -0.9015
   68MOL0     H 9344   3.504   4.910   1.004 -0.9863 -1.9617  2.6387
   68MOL0     H 9345   3.375   5.028   0.987  3.9332  1.8344 -1.1544
   68MOL0     H 9346   3.561   4.581   0.637  1.2296 -0.1323 -0.3329
   68MOL0     H 9347   3.706   4.434   0.506  0.8692 -0.8556  0.0112
   68MOL0     H 9348   3.779   4.255   0.360  0.2103 -1.1172 -1.1430
   68MOL0     H 9349   3.918   4.293   0.468  2.5299 -2.5906 -0.0081
   68MOL0     H 9350   3.861   4.016   0.404 -2.3893  1.3225 -2.3881
   68MOL0     H 9351   3.941   4.109   0.271 -0.8834  0.6515 -0.3311
   68MOL0     H 9352   4.101   3.986   0.396  1.7071  0.5575 -0.5020
   68MOL0     H 9353   4.044   4.076   0.556  0.4015  0.3474  0.4866
   68MOL0     H 9354   4.249   4.185   0.479  0.5762  1.0766  0.7707
   68MOL0     H 9355   4.118   4.290   0.446  2.0479 -0.0590  3.1289
   68MOL0     H 9356   4.247   4.080   0.267  1.6428  0.0901 -0.4704
   68MOL0     H 9357   4.141   4.216   0.199  1.4143  0.8561 -0.9657
   68MOL0     H 9358   4.397   4.261   0.355 -2.6529  1.6895  3.0800
   68MOL0     H 9359   4.297   4.385   0.277 -0.0413  0.2137  0.0270
   68MOL0     H 9360   4.342   4.318   0.055 -2.7265 -1.3944  1.6287
   68MOL0     H 9361   4.438   4.176   0.093  1.9487  0.8979 -0.7302
   68MOL0     H 9362   4.612   4.358   0.200  1.7318 -1.3394 -2.6215
   68MOL0     H 9363   4.479   4.462   0.154 -4.6590 -1.8931 -0.6772
   68MOL0     H 9364   3.614   4.095   0.750 -1.7175 -0.1296 -0.6644
   68MOL0     H 9365   3.447   4.227   0.857 -0.3943 -1.6937 -1.9157
   68MOL0     H 9366   3.214   4.490   1.009 -0.6931  0.1543 -4.0776
   68MOL0     H 9367   3.041   4.569   1.148 -0.4468 -0.8879 -1.3585
   68MOL0     H 9368   2.115   4.719   1.892 -0.4463  0.6827  1.1641
   68MOL0     H 9369   2.190   4.550   2.045 -2.2746  0.0982  2.0340
   68MOL0     H 9370   1.995   4.019   2.221 -0.4303 -0.7907  2.6083
   68MOL0     H 9371   2.094   3.884   2.412  0.0624 -0.5328 -0.1391
   68MOL0     H 9372   2.497   3.850   2.382  2.4560  2.3955 -0.3968
   68MOL0     H 9373   2.544   3.957   2.514 -1.1208  0.9711  1.1147
   68MOL0     H 9374   2.595   3.703   2.555 -0.2343  1.5657 -2.4954
   68MOL0     H 9375   2.438   3.674   2.507  2.1151 -2.0860 -0.0951
   68MOL0     H 9376   2.360   3.745   2.741 -0.0387  3.7799  0.0160
   68MOL0     H 9377   2.513   3.650   2.757  0.4723  1.6050  1.8792
   68MOL0     H 9378   2.511   3.820   2.907 -1.1857  1.8882  0.5952
   68MOL0     H 9379   2.495   3.944   2.779 -0.7266 -0.3524  2.1284
   68MOL0     H 9380   2.900   3.798   2.752  0.6405  1.2342 -1.4093
   68MOL0     H 9381   2.424   4.151   2.422  0.2116  2.2405 -1.0469
   68MOL0     H 9382   2.428   4.360   2.315 -0.4810 -0.1180  1.7884
   68MOL0     H 9383   2.377   4.341   2.160  0.2881  1.4650  0.0763
   68MOL0     H 9384   2.261   4.419   2.267  1.0219  0.6986 -2.8244
   69MOL0     O 9385   6.243   8.766   7.889  0.0490 -0.3400  0.3879
   69MOL0     C 9386   6.361   8.799   7.878 -0.4975 -0.6106  0.7838
   69MOL0     O 9387   6.466   8.768   7.958  0.4979 -0.3482  0.5781
   69MOL0     C 9388   6.445   8.730   8.089  0.0713  1.0733 -0.4623
   69MOL0     C 9389   6.535   8.641   8.156  1.0206 -0.5594 -0.0698
   69MOL0     C 9390   6.502   8.596   8.287  0.3458 -0.2946 -0.9408
   69MOL0     C 9391   6.397   8.663   8.356 -0.3220 -0.9768 -0.2044
   69MOL0     O 9392   6.386   8.636   8.490 -0.8104  1.1088 -0.4625
   69MOL0     C 9393   6.401   8.734   8.583 -0.6497 -0.8448  0.1974
   69MOL0     C 9394   6.503   8.852   8.563 -0.2067 -0.4819  0.6142
   69MOL0     C 9395   6.476   8.977   8.646 -0.6854 -0.3203  0.5248
   69MOL0     C 9396   6.372   9.058   8.572 -0.6038  0.4110  1.0731
   69MOL0     C 9397   6.322   9.185   8.643  0.4032 -0.2112 -1.2958
   69MOL0     C 9398   6.428   9.264   8.720 -0.8191  0.9045  0.1728
   69MOL0     C 9399   6.536   9.322   8.628 -1.3326 -0.1074 -0.7871
   69MOL0     C 9400   6.638   9.388   8.721  0.0257  0.2296 -0.4517
   69MOL0     N 9401   6.704   9.291   8.816 -0.3176  0.1671 -1.0717
   69MOL0     C 9402   6.709   9.297   8.954 -0.1915 -0.2124 -0.0962
   69MOL0     C 9403   6.746   9.168   8.987 -0.1003  0.1537  1.2184
   69MOL0     C 9404   6.770   9.126   9.126 -0.2446 -0.0547 -1.1331
   69MOL0     C 9405   6.657   9.040   9.178 -0.2956 -0.5720  0.7678
   69MOL0     C 9406   6.686   8.974   9.322 -1.0576 -0.2227  0.4288
   69MOL0     C 9407   6.591   8.873   9.381 -0.3785  0.4521  0.0011
   69MOL0     O 9408   6.468   8.936   9.390 -0.2017 -0.8422 -0.4511
   69MOL0     C 9409   6.375   8.859   9.461  0.1311 -0.0373 -0.1681
   69MOL0     C 9410   6.258   8.919   9.496  0.3429 -0.2788  0.5131
   69MOL0     C 9411   6.151   8.857   9.561  0.5098 -0.3979  0.9656
   69MOL0     C 9412   6.036   8.946   9.611  0.0301  0.6606 -0.2252
   69MOL0     C 9413   6.154   8.716   9.584 -0.2792 -0.6483  0.3144
   69MOL0     C 9414   6.056   8.625   9.673 -1.1931 -0.5165  0.0265
   69MOL0     O 9415   5.953   8.699   9.741 -0.2552 -0.5510  0.1342
   69MOL0     C 9416   5.830   8.644   9.728  0.2201  0.1201 -0.7411
   69MOL0     C 9417   5.777   8.559   9.627  0.2039 -0.6629  0.2867
   69MOL0     C 9418   5.647   8.529   9.636 -0.6146  1.1986 -0.1464
   69MOL0     C 9419   5.565   8.565   9.743  0.2053 -0.1828  0.9927
   69MOL0     O 9420   5.436   8.521   9.767  0.7771  0.4700  0.6536
   69MOL0     C 9421   5.355   8.475   9.654  0.4353 -0.3220 -0.1078
   69MOL0     C 9422   5.207   8.470   9.682  0.2894 -0.1343  0.3191
   69MOL0     C 9423   5.166   8.431   9.821 -0.3636 -0.0278  1.2309
   69MOL0     C 9424   5.018   8.397   9.845  0.1487 -0.2713 -0.3732
   69MOL0     C 9425   4.985   8.410  10.004  0.1827  0.7981  0.2521
   69MOL0     C 9426   4.853   8.323  10.024  0.0475 -0.7119 -0.4190
   69MOL0     C 9427   4.830   8.258  10.165  0.6187 -0.0476  0.8750
   69MOL0     C 9428   4.936   8.156  10.208 -0.0505 -0.6556  0.0994
   69MOL0    Cl 9429   4.879   8.083  10.350 -0.2142  0.4957  0.2693
   69MOL0     C 9430   5.620   8.648   9.841  0.0378  0.2063 -0.1182
   69MOL0     C 9431   5.751   8.692   9.833  0.3409  0.1265 -0.3140
   69MOL0     O 9432   6.068   8.501   9.680  0.1072 -0.0477 -0.0170
   69MOL0     C 9433   6.276   8.645   9.536  0.3354 -0.3911 -0.4395
   69MOL0     C 9434   6.385   8.719   9.483 -0.3349  0.7721 -0.5342
   69MOL0     N 9435   6.777   9.097   8.870  0.2885  0.2541  0.2075
   69MOL0     N 9436   6.761   9.177   8.771 -0.0127  0.8753 -0.3755
   69MOL0     C 9437   6.320   8.768   8.296 -0.2725  0.2043  0.2727
   69MOL0     C 9438   6.334   8.788   8.161  0.1249  0.1685 -0.4732
   69MOL0     C 9439   6.403   8.844   7.744 -0.3868 -0.2441 -0.3796
   69MOL0     C 9440   6.304   8.900   7.668 -0.4117 -0.2256 -0.4576
   69MOL0     C 9441   6.327   8.926   7.532  0.3171  0.0121  0.0088
   69MOL0     C 9442   6.455   8.942   7.487  0.5479 -0.0879  0.0764
   69MOL0     O 9443   6.467   8.993   7.364 -0.6556 -0.1020 -0.3664
   69MOL0     C 9444   6.593   8.984   7.301 -0.8592  0.4701 -0.4025
   69MOL0     C 9445   6.585   9.008   7.155  0.0403  0.2502  0.5574
   69MOL0     C 9446   6.725   8.992   7.101 -0.1811  1.2460  0.8673
   69MOL0     C 9447   6.737   9.055   6.964  1.4188  0.1726  0.2819
   69MOL0     C 9448   6.865   9.046   6.885  0.7571  0.4657 -0.2185
   69MOL0     C 9449   6.962   9.026   6.820 -0.0171 -0.5246  0.1170
   69MOL0     C 9450   6.559   8.893   7.563 -0.1502  0.5073  0.1875
   69MOL0     C 9451   6.534   8.837   7.693 -0.1649 -1.3039 -0.1200
   69MOL0     C 9452   6.653   8.767   7.752  0.3445 -0.8746 -0.3164
   69MOL0     H 9453   6.621   8.598   8.107 -1.3559 -0.7317 -4.6323
   69MOL0     H 9454   6.568   8.527   8.338  0.1021 -0.0508 -0.2906
   69MOL0     H 9455   6.440   8.694   8.677  0.4049  0.3467  0.3024
   69MOL0     H 9456   6.299   8.767   8.605 -0.8141 -2.0481  1.3034
   69MOL0     H 9457   6.609   8.827   8.571  0.3852  1.9197  1.2057
   69MOL0     H 9458   6.491   8.883   8.458 -0.3348 -1.8438  0.2152
   69MOL0     H 9459   6.429   8.942   8.738 -2.5606 -0.9599 -0.6185
   69MOL0     H 9460   6.571   9.024   8.673  0.2024 -1.3324 -0.7129
   69MOL0     H 9461   6.418   9.090   8.478  0.5066 -2.2644  0.6147
   69MOL0     H 9462   6.290   8.993   8.541 -1.5405  1.7076  0.7702
   69MOL0     H 9463   6.261   9.153   8.729  2.2829  0.7276  0.4648
   69MOL0     H 9464   6.262   9.247   8.575 -0.8119 -0.9378 -0.9316
   69MOL0     H 9465   6.372   9.343   8.772 -1.7616  0.3986 -0.0604
   69MOL0     H 9466   6.478   9.192   8.785  2.8109  2.2626 -0.8880
   69MOL0     H 9467   6.484   9.395   8.566  1.4634  4.1086  1.3086
   69MOL0     H 9468   6.582   9.247   8.563 -2.8250 -2.0327  0.2568
   69MOL0     H 9469   6.720   9.434   8.664  3.7871 -3.9890  0.9304
   69MOL0     H 9470   6.591   9.459   8.790 -1.1848 -1.0209  0.0534
   69MOL0     H 9471   6.685   9.371   9.030  1.2294 -0.3383  0.4962
   69MOL0     H 9472   6.783   9.213   9.191  0.6802  0.4613 -1.9815
   69MOL0     H 9473   6.861   9.065   9.129 -1.7328 -2.4282 -1.2824
   69MOL0     H 9474   6.563   9.095   9.189  0.5600  1.5199 -1.5514
   69MOL0     H 9475   6.632   8.971   9.097 -0.7513  0.3945  0.0777
   69MOL0     H 9476   6.780   8.923   9.301 -0.4992  1.0569 -0.2560
   69MOL0     H 9477   6.709   9.049   9.399  0.6230 -0.3147  0.0530
   69MOL0     H 9478   6.580   8.779   9.325  0.3565 -1.5350  2.9580
   69MOL0     H 9479   6.632   8.832   9.474 -1.4516  1.0121  0.7462
   69MOL0     H 9480   6.249   9.026   9.483  0.9507  0.0282  2.4027
   69MOL0     H 9481   6.033   8.950   9.721  1.1293  0.0345 -0.1561
   69MOL0     H 9482   5.947   8.897   9.571  0.4290  0.3193 -0.7196
   69MOL0     H 9483   6.042   9.047   9.571  1.0427  0.9346  0.5621
   69MOL0     H 9484   5.833   8.533   9.537  0.4912 -3.1935  1.1064
   69MOL0     H 9485   5.606   8.463   9.559  0.5152  0.0159  0.2319
   69MOL0     H 9486   5.373   8.545   9.572 -0.0062  0.6526  0.6109
   69MOL0     H 9487   5.389   8.373   9.631  0.3363 -0.8770  1.9813
   69MOL0     H 9488   5.177   8.574   9.670  2.5527  0.8249  2.1634
   69MOL0     H 9489   5.167   8.401   9.607  0.2489 -0.7153  0.8636
   69MOL0     H 9490   5.176   8.518   9.886 -0.3070  0.4603  0.5719
   69MOL0     H 9491   5.230   8.345   9.845  0.2087 -0.1957 -0.7164
   69MOL0     H 9492   5.000   8.295   9.810  1.2386  0.2296 -2.5640
   69MOL0     H 9493   4.951   8.456   9.783 -0.5584 -0.3961  0.2587
   69MOL0     H 9494   5.063   8.361  10.064 -0.6631 -1.4484 -0.3671
   69MOL0     H 9495   4.962   8.509  10.045  1.4334  0.6421  1.4135
   69MOL0     H 9496   4.852   8.236   9.958 -2.9995 -1.0648 -0.0827
   69MOL0     H 9497   4.772   8.384   9.983  1.0877 -0.9932 -3.1069
   69MOL0     H 9498   4.736   8.204  10.150  1.0217 -0.7228  0.7328
   69MOL0     H 9499   4.805   8.333  10.241  1.0259  0.2389  0.7297
   69MOL0     H 9500   5.030   8.207  10.232 -0.5737 -0.5442  2.0475
   69MOL0     H 9501   4.949   8.094  10.119  2.9798 -0.1441  0.0556
   69MOL0     H 9502   5.568   8.669   9.934  2.7817 -0.3132  1.6665
   69MOL0     H 9503   5.789   8.742   9.921 -1.0824 -1.8066  1.5254
   69MOL0     H 9504   6.268   8.538   9.552  0.1095  0.0291  2.7488
   69MOL0     H 9505   6.459   8.647   9.449 -1.6890  0.1504 -2.2767
   69MOL0     H 9506   6.234   8.810   8.347 -1.6908 -2.1113 -0.0217
   69MOL0     H 9507   6.254   8.849   8.119  0.6317  3.1855  2.4872
   69MOL0     H 9508   6.204   8.915   7.706  0.6071  2.0519  1.6210
   69MOL0     H 9509   6.243   8.960   7.472 -1.1761  0.2570  2.1323
   69MOL0     H 9510   6.662   9.053   7.350 -1.6526 -0.0663  1.5547
   69MOL0     H 9511   6.642   8.887   7.307  2.8408  2.1558 -0.6361
   69MOL0     H 9512   6.550   9.111   7.144  0.5558  0.2938 -0.9334
   69MOL0     H 9513   6.520   8.933   7.109 -0.0008  0.9613 -0.5873
   69MOL0     H 9514   6.793   9.042   7.171 -1.8981  3.5382  1.0145
   69MOL0     H 9515   6.747   8.885   7.110 -1.8339  0.9693  2.2245
   69MOL0     H 9516   6.724   9.161   6.986  2.3287 -0.2955  3.6087
   69MOL0     H 9517   6.654   9.014   6.905 -0.3427 -0.7643  3.1810
   69MOL0     H 9518   7.049   9.002   6.763  0.4026 -3.0056  1.6565
   69MOL0     H 9519   6.663   8.898   7.533  0.0083 -1.7095  0.1659
   69MOL0     H 9520   6.739   8.764   7.684 -0.4347  2.2289 -1.6206
   69MOL0     H 9521   6.682   8.832   7.835 -2.2907  1.8384 -1.3668
   69MOL0     H 9522   6.625   8.665   7.780 -1.4106 -0.3993 -0.2131
   70MOL0     O 9523   2.304  11.037  10.549  0.2049 -0.4015  0.1462
   70MOL0     C 9524   2.365  11.021  10.441  0.6365 -0.6911  0.0100
   70MOL0     O 9525   2.447  11.107  10.379  0.1047 -0.5812 -0.3677
   70MOL0     C 9526   2.485  11.218  10.455 -0.3823 -0.5272  0.7021
   70MOL0     C 9527   2.622  11.213  10.487  0.2655 -0.2401 -1.0966
   70MOL0     C 9528   2.671  11.313  10.575 -0.2752  1.1550  0.1515
   70MOL0     C 9529   2.596  11.421  10.617  0.5071  0.8018  1.0378
   70MOL0     O 9530   2.639  11.529  10.687 -0.0840 -0.2037  0.0688
   70MOL0     C 9531   2.775  11.533  10.742 -0.0979  0.3002  0.2853
   70MOL0     C 9532   2.818  11.674  10.715  0.0702 -0.2467  0.7109
   70MOL0     C 9533   2.828  11.702  10.562 -0.2663  0.6811  0.0882
   70MOL0     C 9534   2.890  11.841  10.529 -0.0606  0.8297 -1.2119
   70MOL0     C 9535   3.021  11.870  10.597  0.8708  0.8712 -0.0268
   70MOL0     C 9536   3.127  11.761  10.566 -0.2148  0.0164 -0.0386
   70MOL0     C 9537   3.252  11.780  10.653 -0.2845 -0.8570 -0.4669
   70MOL0     C 9538   3.241  11.731  10.797  0.1488 -0.2066 -0.3403
   70MOL0     N 9539   3.218  11.586  10.823  1.0989  0.2927  0.6628
   70MOL0     C 9540   3.306  11.488  10.789 -0.2724 -0.6807 -0.5744
   70MOL0     C 9541   3.229  11.373  10.786  0.3008  0.1375  0.1990
   70MOL0     C 9542   3.272  11.236  10.750 -0.4291 -0.3941 -0.2945
   70MOL0     C 9543   3.154  11.150  10.697 -0.4764 -0.2804  0.3338
   70MOL0     C 9544   3.190  11.009  10.654  0.4468 -0.1131  0.4914
   70MOL0     C 9545   3.303  10.986  10.555 -0.0555 -1.1016  0.2639
   70MOL0     O 9546   3.287  10.853  10.493  0.1667 -0.0203 -0.3270
   70MOL0     C 9547   3.374  10.824  10.391  0.0520  0.0405 -0.3702
   70MOL0     C 9548   3.364  10.693  10.345  0.7210  0.1168 -0.0638
   70MOL0     C 9549   3.449  10.639  10.256 -0.9956 -0.0889  0.5431
   70MOL0     C 9550   3.402  10.504  10.202  0.5320 -0.0516  0.7999
   70MOL0     C 9551   3.559  10.723  10.204 -0.6654  0.1362 -0.3862
   70MOL0     C 9552   3.662  10.677  10.095  1.1201  0.8086 -0.6764
   70MOL0     O 9553   3.775  10.755  10.067  0.8938  0.5948 -1.0527
   70MOL0     C 9554   3.886  10.688  10.025 -0.6367 -0.1717  0.4567
   70MOL0     C 9555   3.952  10.602  10.107 -0.1788  0.0200  0.2311
   70MOL0     C 9556   4.057  10.510  10.053  0.7821 -0.2906 -0.3158
   70MOL0     C 9557   4.082  10.515   9.917  0.6509 -0.2624  0.4764
   70MOL0     O 9558   4.139  10.413   9.852 -0.2037 -0.4861 -0.1848
   70MOL0     C 9559   4.194  10.305   9.934 -0.1964  0.3059  1.0895
   70MOL0     C 9560   4.306  10.236   9.853  0.5022 -0.2040 -0.2306
   70MOL0     C 9561   4.356  10.105   9.911 -0.3009  0.1822 -0.2266
   70MOL0     C 9562   4.440  10.121  10.041 -0.0881 -0.2351 -0.7506
   70MOL0     C 9563   4.586  10.164  10.020 -0.2543  0.0723  0.5291
   70MOL0     C 9564   4.653  10.182  10.154  0.7328  0.1031 -0.6635
   70MOL0     C 9565   4.812  10.201  10.136  0.5749 -1.1746  0.2720
   70MOL0     C 9566   4.895  10.098  10.222  0.0737  0.2577 -0.2667
   70MOL0    Cl 9567   4.889  10.145  10.398 -0.4390 -0.5929 -0.2941
   70MOL0     C 9568   4.019  10.615   9.839  1.3798 -0.3832 -0.1551
   70MOL0     C 9569   3.930  10.708   9.893 -0.5805 -0.7665  0.0132
   70MOL0     O 9570   3.623  10.574  10.035 -0.4219 -0.2008  0.4285
   70MOL0     C 9571   3.565  10.858  10.244  0.1184 -0.3537 -0.5125
   70MOL0     C 9572   3.477  10.908  10.336 -0.0783  0.2889 -0.2066
   70MOL0     N 9573   3.099  11.404  10.829 -0.7350 -0.1019 -0.3932
   70MOL0     N 9574   3.099  11.523  10.852  0.2280 -0.6828  0.7932
   70MOL0     C 9575   2.461  11.425  10.587  0.2628 -0.0413 -0.8460
   70MOL0     C 9576   2.404  11.324  10.509  0.4942  0.1472  0.0076
   70MOL0     C 9577   2.338  10.897  10.371  0.0204  0.2571 -0.8326
   70MOL0     C 9578   2.305  10.894  10.237  0.4366 -0.7692 -0.0021
   70MOL0     C 9579   2.253  10.778  10.181 -0.4547 -0.6739  0.3616
   70MOL0     C 9580   2.245  10.656  10.255 -0.4508 -1.3425  0.3247
   70MOL0     O 9581   2.190  10.533  10.211 -0.0679 -0.3260  0.0762
   70MOL0     C 9582   2.113  10.543  10.089  0.1956  1.1116  0.1948
   70MOL0     C 9583   2.063  10.408  10.033 -0.7112 -0.0403 -0.1436
   70MOL0     C 9584   2.178  10.313  10.014  0.4855 -0.0915  0.2768
   70MOL0     C 9585   2.134  10.173   9.980  0.4562  0.3956 -0.2612
   70MOL0     C 9586   2.258  10.091   9.961 -0.8211 -0.0083  0.4268
   70MOL0     C 9587   2.356  10.026   9.935 -0.0196  0.3045  0.2485
   70MOL0     C 9588   2.308  10.655  10.381  0.1649 -0.0733  0.0017
   70MOL0     C 9589   2.349  10.768  10.439 -0.0511 -0.9625 -0.2658
   70MOL0     C 9590   2.403  10.759  10.571  0.2759  0.5761 -0.4221
   70MOL0     H 9591   2.681  11.124  10.466 -4.1889 -4.3623  1.6066
   70MOL0     H 9592   2.769  11.287  10.613 -0.3664 -1.4063 -1.1294
   70MOL0     H 9593   2.844  11.455  10.709 -1.2317 -0.7906  0.4041
   70MOL0     H 9594   2.764  11.521  10.850  0.1756  0.3480  0.3187
   70MOL0     H 9595   2.738  11.740  10.748 -1.4281 -1.4707 -0.3225
   70MOL0     H 9596   2.909  11.699  10.771  0.1636 -2.9180  1.9285
   70MOL0     H 9597   2.881  11.622  10.509 -0.8472  0.9089 -0.8488
   70MOL0     H 9598   2.728  11.688  10.521 -0.3173  1.1948  0.0313
   70MOL0     H 9599   2.915  11.822  10.425  1.3531 -1.2539 -0.5669
   70MOL0     H 9600   2.816  11.922  10.531 -0.4437  0.5023  1.0705
   70MOL0     H 9601   3.005  11.876  10.705 -1.1431 -2.4742 -0.0043
   70MOL0     H 9602   3.066  11.963  10.563  2.5503 -0.1078 -0.6548
   70MOL0     H 9603   3.093  11.658  10.578  1.0553 -0.8947 -3.1070
   70MOL0     H 9604   3.158  11.768  10.461  0.0519 -0.4922  0.0024
   70MOL0     H 9605   3.279  11.886  10.664  3.6461 -1.5306 -1.7950
   70MOL0     H 9606   3.346  11.743  10.610  1.5363 -0.0866  2.5432
   70MOL0     H 9607   3.328  11.768  10.851 -1.4888 -1.4828  3.5573
   70MOL0     H 9608   3.153  11.783  10.839 -0.1857 -1.0828  0.0609
   70MOL0     H 9609   3.409  11.511  10.762 -0.7013  3.4312  0.6534
   70MOL0     H 9610   3.308  11.189  10.842  0.5810 -2.0410 -1.4797
   70MOL0     H 9611   3.350  11.244  10.674  0.0906  4.1301  0.4116
   70MOL0     H 9612   3.075  11.153  10.773 -2.9028  1.5511 -2.0567
   70MOL0     H 9613   3.109  11.211  10.618  0.6752  0.6447  0.3665
   70MOL0     H 9614   3.226  10.958  10.744  2.8789 -2.8809 -1.8581
   70MOL0     H 9615   3.101  10.956  10.620  1.4897 -1.7290  0.1612
   70MOL0     H 9616   3.303  11.053  10.469  1.3219 -2.1685 -0.6202
   70MOL0     H 9617   3.404  10.999  10.597  0.7200 -3.8072 -0.5564
   70MOL0     H 9618   3.268  10.648  10.369  0.1762  0.4822 -1.4923
   70MOL0     H 9619   3.318  10.474  10.265  1.9320 -0.3444  2.5993
   70MOL0     H 9620   3.492  10.443  10.212  1.1759  0.2287 -2.1483
   70MOL0     H 9621   3.360  10.521  10.102 -1.9064  2.0137  2.0663
   70MOL0     H 9622   3.912  10.589  10.207 -0.3251  0.6027  0.2496
   70MOL0     H 9623   4.102  10.450  10.131  1.1226  0.5202  0.1218
   70MOL0     H 9624   4.237  10.338  10.028 -1.5825  3.0230  0.8606
   70MOL0     H 9625   4.106  10.249   9.968 -0.7039 -0.5067 -1.3562
   70MOL0     H 9626   4.259  10.200   9.762 -0.4681 -2.2146  1.0203
   70MOL0     H 9627   4.388  10.303   9.826  0.7436 -0.6189 -0.5370
   70MOL0     H 9628   4.415  10.046   9.839  0.1785 -0.9970  1.0803
   70MOL0     H 9629   4.269  10.043   9.935 -0.5789  0.7627  0.2827
   70MOL0     H 9630   4.428  10.022  10.087 -0.5665 -0.8195 -2.0789
   70MOL0     H 9631   4.395  10.198  10.105 -1.1445 -1.1756 -0.3251
   70MOL0     H 9632   4.647  10.091   9.965  1.1560  0.0136  2.1012
   70MOL0     H 9633   4.590  10.261   9.969 -2.1577 -0.5193 -0.8612
   70MOL0     H 9634   4.629  10.092  10.211 -1.2274  0.2014 -1.2501
   70MOL0     H 9635   4.608  10.275  10.191 -1.6551 -0.4052 -2.0953
   70MOL0     H 9636   4.839  10.307  10.145 -1.2147 -0.7443  1.0332
   70MOL0     H 9637   4.830  10.188  10.029  0.7187 -0.2775  0.1777
   70MOL0     H 9638   4.997  10.090  10.184 -0.0031 -3.2680 -0.0960
   70MOL0     H 9639   4.851   9.998  10.210 -0.8145  0.7804 -1.6340
   70MOL0     H 9640   4.044  10.614   9.733 -3.9164 -0.1203 -1.7154
   70MOL0     H 9641   3.884  10.779   9.825  0.7109  0.3288  0.2325
   70MOL0     H 9642   3.622  10.921  10.178 -0.7321  0.7447 -0.2317
   70MOL0     H 9643   3.479  11.009  10.377 -0.4322 -0.7184  2.4954
   70MOL0     H 9644   2.397  11.503  10.626 -1.0671 -1.5076  0.0122
   70MOL0     H 9645   2.301  11.326  10.475 -0.2420  3.3020  1.9880
   70MOL0     H 9646   2.300  10.993  10.193  1.6346 -0.3282  0.8155
   70MOL0     H 9647   2.203  10.788  10.085 -0.3666 -1.1969  0.2579
   70MOL0     H 9648   2.027  10.606  10.117  0.5649  0.4604  3.0279
   70MOL0     H 9649   2.163  10.595  10.006 -0.0704 -0.0212 -0.6960
   70MOL0     H 9650   1.990  10.419   9.952  0.9105  0.2353 -1.6177
   70MOL0     H 9651   1.994  10.360  10.103 -1.8246  0.2723 -1.0019
   70MOL0     H 9652   2.245  10.349   9.935  0.7887  1.9380  1.3786
   70MOL0     H 9653   2.233  10.309  10.108 -1.0884 -3.8213  1.2211
   70MOL0     H 9654   2.074  10.182   9.888 -2.2991  4.3108  1.6207
   70MOL0     H 9655   2.060  10.132  10.050  0.9550  1.9918  1.2755
   70MOL0     H 9656   2.443   9.966   9.917  1.5073  2.1573  1.1267
   70MOL0     H 9657   2.319  10.557  10.427  0.8352 -0.8032 -1.6363
   70MOL0     H 9658   2.476  10.678  10.580 -0.8175 -0.2873  1.2219
   70MOL0     H 9659   2.454  10.847  10.612  0.9136 -1.0153  2.5050
   70MOL0     H 9660   2.318  10.736  10.636 -0.9559  0.2486 -2.0786
   71MOL0     O 9661   4.836   4.223   1.461  0.5513  0.4510  0.6073
   71MOL0     C 9662   4.853   4.152   1.557  1.1084 -0.0255  0.5523
   71MOL0     O 9663   4.848   4.020   1.552 -0.5432  0.8425 -0.1014
   71MOL0     C 9664   4.829   3.973   1.424  0.6515  1.3780 -0.2446
   71MOL0     C 9665   4.700   3.954   1.374 -0.0355 -0.0538  0.2480
   71MOL0     C 9666   4.682   3.899   1.244  0.2308 -0.4692  0.4223
   71MOL0     C 9667   4.785   3.845   1.173  0.7273 -0.6733  0.1568
   71MOL0     O 9668   4.770   3.789   1.060 -0.1100  0.6360 -0.2160
   71MOL0     C 9669   4.652   3.710   1.030 -0.2301 -0.0392 -0.0494
   71MOL0     C 9670   4.663   3.620   0.903 -1.2880 -0.0340  0.3288
   71MOL0     C 9671   4.768   3.502   0.930  0.1732 -0.1769  0.3900
   71MOL0     C 9672   4.732   3.410   1.046 -0.2796  0.1271 -0.5460
   71MOL0     C 9673   4.841   3.306   1.089 -0.2184  0.5868  0.5331
   71MOL0     C 9674   4.822   3.171   1.012  0.8940 -0.5447 -0.6613
   71MOL0     C 9675   4.921   3.082   1.078  0.4727 -0.7326 -0.0709
   71MOL0     C 9676   4.915   2.940   0.998  0.4831 -0.3854  0.5200
   71MOL0     N 9677   5.014   2.845   1.063  0.1972  0.2766  0.3170
   71MOL0     C 9678   5.142   2.830   1.014  0.1513 -0.7936 -0.3747
   71MOL0     C 9679   5.187   2.721   1.096 -1.0646  0.2144  0.7569
   71MOL0     C 9680   5.320   2.647   1.075 -0.1434  0.7796 -0.4776
   71MOL0     C 9681   5.339   2.527   1.176 -0.7517  0.8310  0.4678
   71MOL0     C 9682   5.459   2.437   1.133  0.3998 -0.2610 -0.2548
   71MOL0     C 9683   5.478   2.336   1.248  0.5126 -0.7258 -0.3850
   71MOL0     O 9684   5.551   2.404   1.350  0.1911  0.6989  0.1763
   71MOL0     C 9685   5.612   2.336   1.462  0.5119  0.0125 -0.0177
   71MOL0     C 9686   5.680   2.408   1.558  0.4709 -0.5213 -0.4112
   71MOL0     C 9687   5.737   2.347   1.669  0.1542 -0.5321 -0.4791
   71MOL0     C 9688   5.826   2.439   1.751 -0.4385 -0.0907 -0.0849
   71MOL0     C 9689   5.723   2.204   1.694 -0.6125  0.2805 -0.0140
   71MOL0     C 9690   5.785   2.140   1.814  0.4730  0.5499  0.5381
   71MOL0     O 9691   5.771   2.003   1.814 -0.4227  0.9273  0.2959
   71MOL0     C 9692   5.825   1.948   1.926  0.5827 -0.9790  0.0390
   71MOL0     C 9693   5.958   1.924   1.949  0.3181 -0.2673  0.3943
   71MOL0     C 9694   5.992   1.868   2.072 -1.0894  0.0296 -1.2049
   71MOL0     C 9695   5.894   1.817   2.170 -1.3925 -1.0590 -0.1193
   71MOL0     O 9696   5.922   1.755   2.287 -0.1412 -0.0587  0.6852
   71MOL0     C 9697   5.843   1.638   2.324 -0.6314  0.6736  0.1004
   71MOL0     C 9698   5.935   1.563   2.424 -0.0589  0.7372 -0.3420
   71MOL0     C 9699   5.886   1.424   2.447  0.3680  0.3215 -0.4715
   71MOL0     C 9700   5.935   1.374   2.584 -0.0348  0.1921 -0.0054
   71MOL0     C 9701   5.886   1.229   2.626  0.2327  0.6681 -0.4490
   71MOL0     C 9702   5.963   1.184   2.746 -1.0573  0.3273  0.7040
   71MOL0     C 9703   5.960   1.272   2.873 -0.5459 -0.3739 -0.2081
   71MOL0     C 9704   5.999   1.195   2.998  0.2261 -0.4147 -0.2695
   71MOL0    Cl 9705   6.164   1.142   2.995 -0.4468  0.3796 -0.2886
   71MOL0     C 9706   5.765   1.866   2.149  0.2490  0.7662  0.3659
   71MOL0     C 9707   5.727   1.916   2.027 -0.4149 -0.3324  0.1577
   71MOL0     O 9708   5.831   2.209   1.905  0.0863  0.0144  0.7599
   71MOL0     C 9709   5.652   2.140   1.592  0.3373 -0.6889  0.5219
   71MOL0     C 9710   5.594   2.204   1.481  1.4443  0.2965 -0.1990
   71MOL0     N 9711   5.085   2.672   1.176 -0.4595 -0.2975  0.3121
   71MOL0     N 9712   4.984   2.745   1.151 -1.1608  0.1720 -0.5418
   71MOL0     C 9713   4.907   3.860   1.223 -0.8234 -0.7047  0.7453
   71MOL0     C 9714   4.932   3.922   1.344 -0.5026  0.9074  0.3972
   71MOL0     C 9715   4.893   4.217   1.689  0.1687 -0.7580 -0.0224
   71MOL0     C 9716   4.947   4.137   1.792  0.7884 -0.5845  0.0034
   71MOL0     C 9717   4.979   4.186   1.917 -0.6211  0.6750 -0.7647
   71MOL0     C 9718   4.958   4.321   1.941 -0.4956  0.1693  0.0659
   71MOL0     O 9719   5.024   4.357   2.058 -0.3254  0.6037  0.3157
   71MOL0     C 9720   4.948   4.440   2.155 -0.2583 -0.7472  0.2873
   71MOL0     C 9721   5.022   4.432   2.282  1.2770  0.0754 -0.0318
   71MOL0     C 9722   4.951   4.496   2.392 -0.2923 -1.4624  0.3543
   71MOL0     C 9723   5.039   4.487   2.514 -0.0747 -0.5811 -0.7065
   71MOL0     C 9724   5.164   4.559   2.511 -0.1486  0.0684  0.2224
   71MOL0     C 9725   5.277   4.611   2.527  1.4922  0.7728 -0.0499
   71MOL0     C 9726   4.904   4.410   1.845 -0.1636  0.0062  0.6859
   71MOL0     C 9727   4.864   4.357   1.722 -0.9571  0.3601  0.2056
   71MOL0     C 9728   4.789   4.445   1.628 -0.5435 -0.2324  0.5439
   71MOL0     H 9729   4.619   3.995   1.434  1.1185 -0.0843  1.8725
   71MOL0     H 9730   4.579   3.881   1.215  1.0150 -1.1683 -2.3376
   71MOL0     H 9731   4.571   3.784   1.031 -0.5259 -0.3643  0.7153
   71MOL0     H 9732   4.637   3.645   1.117 -1.2709 -0.0179 -0.1904
   71MOL0     H 9733   4.568   3.572   0.878 -1.2706  0.4891 -0.8318
   71MOL0     H 9734   4.706   3.686   0.827 -4.2728  1.0465 -0.5999
   71MOL0     H 9735   4.766   3.445   0.837 -1.1495 -0.4789  0.5830
   71MOL0     H 9736   4.870   3.540   0.940 -0.0422  0.9984 -1.4776
   71MOL0     H 9737   4.717   3.468   1.138  2.2084  2.9459 -1.7490
   71MOL0     H 9738   4.640   3.351   1.032 -1.1137  1.2121  0.1507
   71MOL0     H 9739   4.853   3.292   1.197  4.4986  1.7500  0.3654
   71MOL0     H 9740   4.942   3.343   1.070  0.3548 -0.3563  1.5854
   71MOL0     H 9741   4.719   3.138   1.029  2.0064 -3.8020  0.2862
   71MOL0     H 9742   4.853   3.181   0.907  5.0245 -4.6095 -0.1365
   71MOL0     H 9743   4.887   3.074   1.181  1.3466  2.7197  0.6294
   71MOL0     H 9744   5.028   3.105   1.076  0.2519  0.3463 -1.1142
   71MOL0     H 9745   4.812   2.910   1.018  0.3931 -0.8902 -0.6570
   71MOL0     H 9746   4.937   2.946   0.891  2.1353 -2.7405  0.6576
   71MOL0     H 9747   5.195   2.877   0.932  1.8649  2.0144  2.1326
   71MOL0     H 9748   5.394   2.724   1.097 -3.0203  3.9684 -1.1829
   71MOL0     H 9749   5.322   2.619   0.970 -0.4228 -1.2707  0.0152
   71MOL0     H 9750   5.361   2.571   1.274  0.9240  1.3278 -0.0986
   71MOL0     H 9751   5.253   2.460   1.184  1.2061 -1.8119  0.5502
   71MOL0     H 9752   5.432   2.384   1.041  0.1493 -3.3056  1.4490
   71MOL0     H 9753   5.550   2.495   1.118 -0.7510  1.6892  0.0086
   71MOL0     H 9754   5.382   2.296   1.281  0.6909  0.0929  1.2059
   71MOL0     H 9755   5.542   2.252   1.217 -1.3859 -2.4021  0.0046
   71MOL0     H 9756   5.712   2.506   1.523 -0.9880 -0.9013 -3.0477
   71MOL0     H 9757   5.782   2.447   1.851  2.4044 -1.8438  1.4449
   71MOL0     H 9758   5.831   2.537   1.704 -2.1219 -0.5490 -1.2854
   71MOL0     H 9759   5.925   2.400   1.777 -1.2075 -2.4732 -0.4547
   71MOL0     H 9760   6.032   1.949   1.874  0.0917  0.4269  0.3962
   71MOL0     H 9761   6.099   1.861   2.092 -0.7946  0.4317 -2.5241
   71MOL0     H 9762   5.755   1.678   2.375 -2.2713 -2.2624 -0.1679
   71MOL0     H 9763   5.811   1.590   2.231 -3.1696  1.6339  0.3867
   71MOL0     H 9764   6.042   1.562   2.406  0.7481 -3.1398  3.1874
   71MOL0     H 9765   5.909   1.622   2.513  1.7340 -1.6888  1.9444
   71MOL0     H 9766   5.918   1.365   2.361  0.7234 -0.7858  0.3882
   71MOL0     H 9767   5.777   1.423   2.454  0.4398  1.8629  1.9805
   71MOL0     H 9768   5.906   1.456   2.650 -3.4597  2.7905 -4.2451
   71MOL0     H 9769   6.045   1.376   2.577  0.0249  0.7834  0.8875
   71MOL0     H 9770   5.782   1.229   2.660  0.5182 -0.2294  0.4550
   71MOL0     H 9771   5.904   1.156   2.547  1.5817 -0.9328  1.2834
   71MOL0     H 9772   6.062   1.171   2.701 -1.5805  3.1025 -1.4911
   71MOL0     H 9773   5.929   1.083   2.771  1.4494 -0.3247  1.8460
   71MOL0     H 9774   5.857   1.306   2.886 -1.4562 -1.6837 -3.0931
   71MOL0     H 9775   6.025   1.360   2.870  1.8108 -1.9496 -4.7925
   71MOL0     H 9776   5.930   1.113   3.018 -1.2361  1.1142  1.2384
   71MOL0     H 9777   5.986   1.267   3.079  2.0761 -1.9008  1.4509
   71MOL0     H 9778   5.691   1.869   2.228  0.3760 -0.7908  0.5705
   71MOL0     H 9779   5.623   1.920   1.999  0.1475  3.2639 -2.0311
   71MOL0     H 9780   5.644   2.032   1.605 -1.6128 -0.5350  0.8616
   71MOL0     H 9781   5.540   2.144   1.408  1.5578 -1.0908  0.8088
   71MOL0     H 9782   4.994   3.818   1.173  0.4463 -0.8271  2.9236
   71MOL0     H 9783   5.034   3.908   1.378  0.4030 -0.0801 -2.4407
   71MOL0     H 9784   4.962   4.031   1.771  2.1145 -0.2392 -0.9578
   71MOL0     H 9785   5.038   4.131   1.989 -2.9330  1.7635  2.1667
   71MOL0     H 9786   4.934   4.543   2.119  0.7654  0.0439  2.0286
   71MOL0     H 9787   4.845   4.407   2.171 -0.2909 -1.0260 -0.4588
   71MOL0     H 9788   5.121   4.476   2.266  1.3459  0.6727  1.8169
   71MOL0     H 9789   5.048   4.329   2.308 -0.7245  0.1922  2.9346
   71MOL0     H 9790   4.939   4.599   2.356  0.7315 -1.5908 -0.4058
   71MOL0     H 9791   4.855   4.447   2.413 -0.1356 -1.7672  0.3642
   71MOL0     H 9792   5.050   4.382   2.544 -2.0359 -0.5004  0.5378
   71MOL0     H 9793   4.989   4.536   2.598  3.7144  1.6506  0.4396
   71MOL0     H 9794   5.373   4.657   2.539  2.7359 -1.6282 -0.1163
   71MOL0     H 9795   4.906   4.515   1.869  1.4671 -0.1784  1.4419
   71MOL0     H 9796   4.743   4.527   1.683 -3.1263 -1.8099  0.9029
   71MOL0     H 9797   4.846   4.477   1.540 -0.3016  0.9577  1.1151
   71MOL0     H 9798   4.703   4.387   1.593 -0.2145  0.1703 -1.0288
   72MOL0     O 9799   3.635   0.886   3.705  0.4775 -0.0957 -0.6595
   72MOL0     C 9800   3.599   0.785   3.643 -0.6696  0.6654  0.2119
   72MOL0     O 9801   3.669   0.663   3.642 -0.3444 -0.5853  0.5141
   72MOL0     C 9802   3.793   0.681   3.708  0.1965 -0.5223 -0.3372
   72MOL0     C 9803   3.797   0.637   3.840  0.0279  1.2299 -0.5880
   72MOL0     C 9804   3.904   0.674   3.922  0.0920 -0.4150  0.3283
   72MOL0     C 9805   4.010   0.755   3.872  1.1211 -1.1305 -0.4340
   72MOL0     O 9806   4.108   0.793   3.956  0.1348  0.5677  0.0981
   72MOL0     C 9807   4.102   0.927   3.976  0.1956  0.6453  0.7196
   72MOL0     C 9808   3.991   0.964   4.069 -1.4980  0.7920  0.6989
   72MOL0     C 9809   3.996   0.885   4.204  0.3659  1.0162  0.3426
   72MOL0     C 9810   3.915   0.952   4.318  1.6267 -0.0865 -0.5251
   72MOL0     C 9811   3.916   0.855   4.437  0.1082  0.3093 -0.3133
   72MOL0     C 9812   4.049   0.855   4.511 -0.4907 -0.0288  0.5669
   72MOL0     C 9813   4.029   0.775   4.637  0.3958  0.7293 -0.0683
   72MOL0     C 9814   4.160   0.749   4.707  0.8352  0.8153  0.0516
   72MOL0     N 9815   4.142   0.666   4.825  0.8000  0.5338  0.5580
   72MOL0     C 9816   4.056   0.678   4.928 -0.4288 -0.8134 -0.4337
   72MOL0     C 9817   4.064   0.561   5.012 -0.3191 -0.8685  1.3544
   72MOL0     C 9818   3.979   0.520   5.128 -0.6133  0.1742 -0.8579
   72MOL0     C 9819   3.847   0.456   5.084 -0.6981 -0.5982 -0.3163
   72MOL0     C 9820   3.736   0.469   5.186  1.0466 -0.2553 -0.0609
   72MOL0     C 9821   3.713   0.622   5.225 -0.0914  0.8105  0.8476
   72MOL0     O 9822   3.684   0.711   5.123  0.4043  0.2540  0.5741
   72MOL0     C 9823   3.582   0.692   5.043  0.3090  1.1440 -0.5345
   72MOL0     C 9824   3.592   0.730   4.913 -0.3111  0.5574 -0.2311
   72MOL0     C 9825   3.487   0.728   4.823 -0.9963 -0.3648 -0.2557
   72MOL0     C 9826   3.523   0.813   4.696  0.3872 -0.5796 -0.5467
   72MOL0     C 9827   3.365   0.655   4.856 -0.7857  0.6037  0.1014
   72MOL0     C 9828   3.253   0.638   4.761 -0.7955  0.4919 -0.5935
   72MOL0     O 9829   3.156   0.543   4.790 -0.1572 -0.6439 -1.3117
   72MOL0     C 9830   3.052   0.505   4.715  0.6693  0.9955  0.7367
   72MOL0     C 9831   3.056   0.384   4.660 -0.7444 -0.5072  0.2507
   72MOL0     C 9832   2.946   0.341   4.586 -0.2051 -0.4316 -0.1324
   72MOL0     C 9833   2.824   0.417   4.583 -0.1674 -0.4209  0.3880
   72MOL0     O 9834   2.710   0.371   4.521 -0.3713  0.8552  0.7364
   72MOL0     C 9835   2.701   0.231   4.496  0.9347  0.6048  0.0434
   72MOL0     C 9836   2.553   0.201   4.445  0.2165  0.1762  0.2295
   72MOL0     C 9837   2.513   0.058   4.447 -0.3096  0.1660 -0.4474
   72MOL0     C 9838   2.602  -0.030   4.364  0.7683 -0.2976  0.5562
   72MOL0     C 9839   2.536  -0.168   4.346 -1.0096 -0.4636  0.1970
   72MOL0     C 9840   2.606  -0.260   4.240  0.3858 -0.4108 -0.0083
   72MOL0     C 9841   2.756  -0.298   4.268  0.5360 -0.3769 -0.2790
   72MOL0     C 9842   2.769  -0.376   4.405 -0.7687 -0.1762  0.3467
   72MOL0    Cl 9843   2.628  -0.490   4.422  0.1017 -0.2026  0.0602
   72MOL0     C 9844   2.818   0.545   4.638 -0.3666  0.3787  0.1817
   72MOL0     C 9845   2.934   0.591   4.701 -0.7686 -0.1126 -0.8643
   72MOL0     O 9846   3.241   0.707   4.669 -0.5991 -0.3044 -0.1177
   72MOL0     C 9847   3.362   0.609   4.990 -0.2082  0.0482  0.0180
   72MOL0     C 9848   3.467   0.626   5.077 -0.2651  0.4989 -0.1696
   72MOL0     N 9849   4.146   0.480   4.936 -0.2527  0.0063  0.1389
   72MOL0     N 9850   4.193   0.542   4.840 -0.8821 -0.4170  0.5169
   72MOL0     C 9851   4.000   0.795   3.739  0.1793 -0.4773 -0.5405
   72MOL0     C 9852   3.892   0.767   3.662 -0.2514  0.6830 -1.0157
   72MOL0     C 9853   3.462   0.788   3.588 -0.6143  1.2184  0.3787
   72MOL0     C 9854   3.376   0.891   3.633 -0.3403  1.0380  0.4096
   72MOL0     C 9855   3.252   0.901   3.583  0.0687  0.7480  0.3163
   72MOL0     C 9856   3.203   0.803   3.491  0.0504  1.0708 -0.7408
   72MOL0     O 9857   3.066   0.800   3.451 -0.8518  0.9345 -0.9118
   72MOL0     C 9858   3.012   0.713   3.344  0.7115 -0.2753 -0.7118
   72MOL0     C 9859   2.862   0.696   3.375  1.0609 -0.8601 -0.5119
   72MOL0     C 9860   2.798   0.747   3.504  0.4531  0.4833 -0.5616
   72MOL0     C 9861   2.661   0.672   3.524 -0.1133 -0.1425 -1.0272
   72MOL0     C 9862   2.596   0.706   3.658  0.1050 -0.8065  0.0659
   72MOL0     C 9863   2.538   0.723   3.766 -0.0218 -0.4810 -1.0929
   72MOL0     C 9864   3.296   0.712   3.434  0.0695  0.2877  0.8416
   72MOL0     C 9865   3.418   0.692   3.492  0.3293 -0.0750 -0.2931
   72MOL0     C 9866   3.497   0.578   3.443 -0.3245  0.5150  0.4381
   72MOL0     H 9867   3.720   0.575   3.885 -0.5494  0.6728 -2.2942
   72MOL0     H 9868   3.919   0.649   4.027  1.4891 -0.2740  0.1861
   72MOL0     H 9869   4.075   0.977   3.883 -1.0666 -3.1337 -1.1618
   72MOL0     H 9870   4.202   0.962   4.005  1.2184  1.1884 -2.8804
   72MOL0     H 9871   4.013   1.068   4.094 -0.7168  0.5281  1.1655
   72MOL0     H 9872   3.887   0.956   4.037 -2.3340 -1.2339  3.4907
   72MOL0     H 9873   3.959   0.786   4.178 -0.6143  1.6758 -0.8973
   72MOL0     H 9874   4.100   0.869   4.235  0.0077 -2.3008  0.1282
   72MOL0     H 9875   3.965   1.039   4.362 -1.5003  1.1086  1.0128
   72MOL0     H 9876   3.812   0.978   4.291  1.7926  0.8564 -0.3181
   72MOL0     H 9877   3.892   0.754   4.403 -2.3761  0.9015 -0.4810
   72MOL0     H 9878   3.844   0.891   4.511  2.2575  1.7044  1.2306
   72MOL0     H 9879   4.121   0.814   4.439 -2.1710 -3.2704  0.5583
   72MOL0     H 9880   4.090   0.953   4.538  2.0240 -0.5801 -0.8674
   72MOL0     H 9881   3.984   0.677   4.618  1.6730  0.0405  0.3186
   72MOL0     H 9882   3.956   0.818   4.706  0.0274  1.6686 -1.0230
   72MOL0     H 9883   4.221   0.698   4.633  2.9473  2.5864  0.4603
   72MOL0     H 9884   4.220   0.838   4.729 -0.7227  2.4222 -1.8443
   72MOL0     H 9885   3.978   0.753   4.940 -0.3156 -0.8303  0.5121
   72MOL0     H 9886   3.976   0.602   5.201 -0.6927 -1.0925  0.5953
   72MOL0     H 9887   4.031   0.440   5.182 -1.2014  0.4457  0.1420
   72MOL0     H 9888   3.831   0.503   4.986  0.2656  3.2954  1.2050
   72MOL0     H 9889   3.872   0.351   5.063  1.6900 -0.0995 -0.2483
   72MOL0     H 9890   3.651   0.428   5.130 -1.0711  1.9074  1.3858
   72MOL0     H 9891   3.753   0.417   5.281 -1.8280  1.6919  1.7078
   72MOL0     H 9892   3.632   0.628   5.298  0.3730  2.1643  1.2771
   72MOL0     H 9893   3.802   0.662   5.274 -0.7400  0.1922  2.5854
   72MOL0     H 9894   3.677   0.786   4.875  2.5409 -0.3815  3.9466
   72MOL0     H 9895   3.563   0.912   4.722  2.6142 -1.3747 -0.7646
   72MOL0     H 9896   3.443   0.842   4.627  0.1842  0.5999  0.1497
   72MOL0     H 9897   3.592   0.757   4.634  0.9861  1.2262 -1.6031
   72MOL0     H 9898   3.152   0.334   4.657 -0.7458 -0.4786 -2.5348
   72MOL0     H 9899   2.964   0.246   4.537  1.8113 -2.6328  4.3860
   72MOL0     H 9900   2.767   0.192   4.418 -0.6069 -0.1296 -0.9358
   72MOL0     H 9901   2.707   0.179   4.591 -1.0034  0.9916  0.4294
   72MOL0     H 9902   2.470   0.251   4.497 -1.3961  1.0072 -2.8403
   72MOL0     H 9903   2.549   0.258   4.351 -1.6789  0.8516  0.6551
   72MOL0     H 9904   2.414   0.041   4.404 -0.4000  2.2332 -1.1854
   72MOL0     H 9905   2.526   0.010   4.544 -2.2538 -2.5005 -1.3868
   72MOL0     H 9906   2.700  -0.032   4.412  1.8302 -1.5877 -1.5260
   72MOL0     H 9907   2.612   0.019   4.267  0.6065  0.1379  0.7598
   72MOL0     H 9908   2.540  -0.220   4.442  1.1060 -5.3682 -2.1590
   72MOL0     H 9909   2.432  -0.149   4.319 -0.6482  2.5551  0.6486
   72MOL0     H 9910   2.613  -0.208   4.144  0.7186 -1.6508 -0.6820
   72MOL0     H 9911   2.558  -0.357   4.226 -0.0677  0.0125 -1.4931
   72MOL0     H 9912   2.823  -0.212   4.255  1.1181 -0.7339  0.3079
   72MOL0     H 9913   2.769  -0.370   4.186 -2.6882 -2.1031  0.5474
   72MOL0     H 9914   2.781  -0.307   4.489  1.2465 -0.6548  0.5176
   72MOL0     H 9915   2.864  -0.429   4.394 -0.0693  1.4563 -3.3194
   72MOL0     H 9916   2.732   0.608   4.617  1.9005  3.4179 -0.6576
   72MOL0     H 9917   2.927   0.690   4.745  2.3832  1.7183 -3.9863
   72MOL0     H 9918   3.284   0.544   5.030  1.4087 -1.9575  0.0561
   72MOL0     H 9919   3.469   0.563   5.166 -0.0526 -0.2940 -0.7338
   72MOL0     H 9920   4.073   0.864   3.698 -0.0544 -0.0816 -0.2909
   72MOL0     H 9921   3.876   0.809   3.563  0.2894 -0.2804 -1.5321
   72MOL0     H 9922   3.409   0.956   3.713  1.0901 -1.4431  1.9779
   72MOL0     H 9923   3.185   0.970   3.633  1.7625  1.4693  1.7008
   72MOL0     H 9924   3.033   0.757   3.246  0.8966 -0.7319 -0.8779
   72MOL0     H 9925   3.067   0.619   3.353 -0.8202 -1.2174 -0.8058
   72MOL0     H 9926   2.833   0.591   3.357  0.4245 -1.2119  2.2177
   72MOL0     H 9927   2.808   0.756   3.301  1.6972  1.2141  0.6493
   72MOL0     H 9928   2.868   0.719   3.582 -0.5576  0.3230  0.3153
   72MOL0     H 9929   2.772   0.853   3.501 -0.0183  0.3484 -1.8449
   72MOL0     H 9930   2.681   0.565   3.512 -0.1363 -0.0086 -2.4253
   72MOL0     H 9931   2.590   0.705   3.447 -2.0503  0.1388  0.7821
   72MOL0     H 9932   2.493   0.721   3.863  2.6567  0.6107  0.2834
   72MOL0     H 9933   3.259   0.635   3.366 -1.2179  0.0442  1.7988
   72MOL0     H 9934   3.573   0.609   3.371 -1.8914 -0.3075 -1.7103
   72MOL0     H 9935   3.533   0.526   3.532 -0.8732  1.4361  1.2123
   72MOL0     H 9936   3.435   0.513   3.380 -0.9332  0.6327  0.9030
   73MOL0     O 9937   8.571   6.309   3.648 -0.3468  0.6170 -0.1167
   73MOL0     C 9938   8.512   6.257   3.746 -0.3711 -0.2717  1.1783
   73MOL0     O 9939   8.494   6.315   3.872 -0.1611 -0.8119  0.2263
   73MOL0     C 9940   8.566   6.439   3.877  0.0177  0.3477 -0.2976
   73MOL0     C 9941   8.712   6.434   3.859 -0.0680 -1.2571  0.8834
   73MOL0     C 9942   8.779   6.558   3.871  0.4161 -0.0559  0.3382
   73MOL0     C 9943   8.709   6.680   3.887  0.8064 -0.5632 -0.4055
   73MOL0     O 9944   8.774   6.804   3.897 -0.3922  0.7150 -0.6314
   73MOL0     C 9945   8.868   6.818   4.010  0.3006  0.1071 -0.4039
   73MOL0     C 9946   8.793   6.868   4.136 -0.5331  0.4315  0.6803
   73MOL0     C 9947   8.668   6.946   4.100 -1.1595 -0.5137  0.4550
   73MOL0     C 9948   8.581   7.013   4.203  0.5089  0.1510 -0.0578
   73MOL0     C 9949   8.467   6.917   4.246 -0.3924 -0.4712 -0.3842
   73MOL0     C 9950   8.406   6.965   4.373 -0.4665  0.5019 -0.4519
   73MOL0     C 9951   8.372   7.113   4.378 -0.0262  0.0867 -0.7926
   73MOL0     C 9952   8.268   7.135   4.501 -0.5921 -0.2559  0.5081
   73MOL0     N 9953   8.211   7.279   4.487 -1.1745 -0.2453  0.9150
   73MOL0     C 9954   8.280   7.399   4.491  0.0603  0.0251 -0.3093
   73MOL0     C 9955   8.189   7.496   4.467  0.5800 -0.9191  1.3447
   73MOL0     C 9956   8.227   7.637   4.449  0.1996 -0.0044 -1.0792
   73MOL0     C 9957   8.341   7.661   4.358  0.6237  0.3954  0.6320
   73MOL0     C 9958   8.312   7.591   4.223  0.0486 -0.8727  0.0172
   73MOL0     C 9959   8.418   7.631   4.126  0.7514 -0.2386 -0.3444
   73MOL0     O 9960   8.540   7.593   4.184 -0.1757 -0.0285 -0.1153
   73MOL0     C 9961   8.644   7.575   4.098  1.4236 -0.7995 -0.6342
   73MOL0     C 9962   8.731   7.682   4.052 -0.0864 -0.6346  0.1734
   73MOL0     C 9963   8.842   7.656   3.966 -1.0967  0.1609 -0.2809
   73MOL0     C 9964   8.927   7.772   3.910 -0.9679 -0.2486 -0.4587
   73MOL0     C 9965   8.860   7.525   3.921 -0.9084 -0.5444 -0.3035
   73MOL0     C 9966   8.968   7.485   3.824  0.0192 -0.1640  0.4891
   73MOL0     O 9967   9.044   7.388   3.869 -0.2804 -0.1431 -0.7384
   73MOL0     C 9968   9.140   7.334   3.785  0.0904 -0.1949 -0.5618
   73MOL0     C 9969   9.223   7.405   3.697  1.1642 -0.1090  0.8645
   73MOL0     C 9970   9.310   7.348   3.608  0.0337 -0.1522  0.6981
   73MOL0     C 9971   9.324   7.215   3.607  0.5671 -0.1940  0.4690
   73MOL0     O 9972   9.422   7.161   3.525  0.3843 -0.3012  0.6090
   73MOL0     C 9973   9.427   7.013   3.502  0.2949  0.4670  0.2235
   73MOL0     C 9974   9.308   6.976   3.404 -0.3715 -0.2845 -0.0191
   73MOL0     C 9975   9.269   6.836   3.382 -0.2457 -0.0085 -0.1076
   73MOL0     C 9976   9.212   6.768   3.509  0.1656  0.3451  0.7452
   73MOL0     C 9977   9.157   6.629   3.471 -0.6656 -0.4651  0.5059
   73MOL0     C 9978   9.100   6.567   3.593 -0.2797  0.1083 -0.3919
   73MOL0     C 9979   9.052   6.425   3.557 -0.5883 -1.0668 -0.3534
   73MOL0     C 9980   9.164   6.324   3.538  0.2653  0.3572  0.4776
   73MOL0    Cl 9981   9.213   6.277   3.707  0.0009 -0.3663 -0.0723
   73MOL0     C 9982   9.239   7.134   3.691 -0.4440  0.0917  0.5836
   73MOL0     C 9983   9.158   7.195   3.783  0.0767  0.3204  0.3018
   73MOL0     O 9984   8.981   7.553   3.720  0.5890  0.3259  0.2896
   73MOL0     C 9985   8.783   7.420   3.977 -0.4138 -0.1721  0.2507
   73MOL0     C 9986   8.673   7.442   4.061  0.5461 -0.7566 -0.0853
   73MOL0     N 9987   8.067   7.435   4.435  0.1898  0.0341 -0.1240
   73MOL0     N 9988   8.075   7.307   4.464  0.1144 -0.3227  0.0473
   73MOL0     C 9989   8.574   6.679   3.886  0.0386 -0.3760  0.0173
   73MOL0     C 9990   8.504   6.556   3.895  0.8335 -0.2393  0.1920
   73MOL0     C 9991   8.451   6.127   3.717  0.3245  1.3487 -0.1124
   73MOL0     C 9992   8.496   6.013   3.787  0.0189  0.0554 -0.4332
   73MOL0     C 9993   8.461   5.878   3.751 -0.5727 -0.8623 -1.1252
   73MOL0     C 9994   8.370   5.858   3.648 -0.0991  0.1055 -0.2736
   73MOL0     O 9995   8.330   5.733   3.611 -0.2652  0.0933  0.3515
   73MOL0     C 9996   8.299   5.646   3.717 -0.2096  0.2626 -0.3631
   73MOL0     C 9997   8.147   5.642   3.733 -0.4589  0.4701 -0.3467
   73MOL0     C 9998   8.110   5.724   3.863 -0.6840  0.0529 -0.5102
   73MOL0     C 9999   7.955   5.744   3.871  0.3100 -0.8915 -0.8364
   73MOL0     C10000   7.898   5.628   3.943  1.0946  0.4408  0.8670
   73MOL0     C10001   7.821   5.534   3.963  0.3460 -0.3781  0.7476
   73MOL0     C10002   8.314   5.971   3.583  1.1122 -0.2807  0.8215
   73MOL0     C10003   8.340   6.106   3.622 -0.8617  1.1936 -0.0083
   73MOL0     C10004   8.277   6.213   3.548  0.4712  0.0712  0.0593
   73MOL0     H10005   8.771   6.343   3.847 -1.4579 -1.9210 -1.5812
   73MOL0     H10006   8.882   6.533   3.848 -0.2433 -3.3493  0.5052
   73MOL0     H10007   8.943   6.890   3.977 -1.2015  3.0442  2.0469
   73MOL0     H10008   8.923   6.726   4.032  0.1045  0.1651  0.3571
   73MOL0     H10009   8.758   6.785   4.197  3.2595 -1.0164  1.1401
   73MOL0     H10010   8.843   6.948   4.191 -0.5330 -1.3990  3.5668
   73MOL0     H10011   8.698   7.033   4.040 -4.1749 -0.2947 -0.8823
   73MOL0     H10012   8.605   6.885   4.035  2.8388 -3.1361 -1.4115
   73MOL0     H10013   8.651   7.018   4.286  0.5983 -0.4829 -0.0846
   73MOL0     H10014   8.550   7.109   4.161  1.2466  0.8731  0.9989
   73MOL0     H10015   8.501   6.813   4.249 -0.6322 -0.6729 -2.5839
   73MOL0     H10016   8.397   6.913   4.161 -0.2819  1.0454 -0.5795
   73MOL0     H10017   8.322   6.898   4.390  0.2599 -0.1347  0.8091
   73MOL0     H10018   8.482   6.945   4.450 -1.6684 -0.1869  0.5920
   73MOL0     H10019   8.320   7.140   4.285 -1.0377  2.2781  0.3153
   73MOL0     H10020   8.457   7.180   4.390 -1.2451  1.7383 -0.9682
   73MOL0     H10021   8.187   7.063   4.489  0.9856 -2.0504  0.1170
   73MOL0     H10022   8.314   7.127   4.600 -0.5530  3.8249  0.9746
   73MOL0     H10023   8.387   7.414   4.494  0.0184  0.1366  0.8200
   73MOL0     H10024   8.258   7.672   4.548  1.3647  0.8503 -1.7220
   73MOL0     H10025   8.145   7.700   4.413  1.5735  0.8560 -2.8723
   73MOL0     H10026   8.364   7.768   4.346  0.3156  0.6023  1.8365
   73MOL0     H10027   8.430   7.612   4.399 -0.7245 -1.5219  1.3518
   73MOL0     H10028   8.307   7.482   4.226  1.6157 -0.9988 -1.0093
   73MOL0     H10029   8.209   7.619   4.197  0.8102  1.4955 -0.6296
   73MOL0     H10030   8.407   7.575   4.032  1.3435 -0.6036 -0.2046
   73MOL0     H10031   8.405   7.736   4.101 -2.5911 -0.2937  0.7348
   73MOL0     H10032   8.726   7.776   4.106  1.8791 -0.0305 -0.6208
   73MOL0     H10033   8.893   7.800   3.810  0.0092 -0.6356 -0.9115
   73MOL0     H10034   9.030   7.736   3.907 -1.5056 -1.9797  0.4371
   73MOL0     H10035   8.924   7.853   3.983 -2.5115 -2.0655  1.6357
   73MOL0     H10036   9.212   7.513   3.690  0.5358 -0.1177  1.5385
   73MOL0     H10037   9.389   7.395   3.549 -0.7926 -1.3084 -1.4054
   73MOL0     H10038   9.528   6.992   3.463  1.6483  0.6275  3.3562
   73MOL0     H10039   9.420   6.958   3.596  0.3447  1.1543  0.6408
   73MOL0     H10040   9.219   7.032   3.433 -0.4185 -0.6416  0.5306
   73MOL0     H10041   9.338   7.018   3.307 -1.8500  0.6825 -0.0872
   73MOL0     H10042   9.352   6.779   3.339  1.4455  1.2528  1.3301
   73MOL0     H10043   9.204   6.841   3.294  2.8357  0.9030 -2.5295
   73MOL0     H10044   9.136   6.836   3.549  0.7371  1.7702 -0.4659
   73MOL0     H10045   9.290   6.755   3.585  1.2347 -1.9318 -0.6257
   73MOL0     H10046   9.082   6.657   3.396  2.2932  2.2421 -1.7057
   73MOL0     H10047   9.239   6.571   3.428  1.6322  3.6040 -1.1748
   73MOL0     H10048   9.030   6.639   3.636 -1.4364  0.0483 -2.0580
   73MOL0     H10049   9.177   6.554   3.669  0.4198 -1.4434 -1.3118
   73MOL0     H10050   8.988   6.438   3.469  0.6368 -2.2715 -1.4676
   73MOL0     H10051   8.984   6.388   3.635  1.1446 -1.0822  1.2117
   73MOL0     H10052   9.256   6.359   3.491  1.2112 -0.0522  1.9852
   73MOL0     H10053   9.116   6.241   3.486  2.2493 -0.3059 -0.3778
   73MOL0     H10054   9.252   7.026   3.687 -3.3793 -0.3228 -0.0973
   73MOL0     H10055   9.096   7.138   3.851 -0.3609 -0.2307 -0.5403
   73MOL0     H10056   8.807   7.317   3.952  2.8633 -0.2488  2.9201
   73MOL0     H10057   8.612   7.359   4.094 -2.9742  1.3877 -0.6835
   73MOL0     H10058   8.523   6.773   3.870  1.4465  0.3606 -0.2800
   73MOL0     H10059   8.396   6.544   3.896  0.3604  2.9085  2.7389
   73MOL0     H10060   8.566   6.011   3.869 -0.5599 -4.0633  0.2281
   73MOL0     H10061   8.502   5.793   3.804 -1.8806  0.0104  1.4711
   73MOL0     H10062   8.339   5.545   3.701 -1.8757 -0.3097 -1.1381
   73MOL0     H10063   8.351   5.670   3.810 -0.7641 -1.0646  0.3229
   73MOL0     H10064   8.119   5.537   3.740  2.0304 -0.1823  1.4684
   73MOL0     H10065   8.096   5.699   3.655 -3.9220 -0.8604  0.7476
   73MOL0     H10066   8.140   5.675   3.956  0.0585  2.7711  0.8035
   73MOL0     H10067   8.169   5.816   3.858 -1.2811  0.6947  2.4476
   73MOL0     H10068   7.923   5.756   3.768  0.4346 -2.5749 -1.1086
   73MOL0     H10069   7.941   5.827   3.941 -0.8682 -0.5251 -1.4832
   73MOL0     H10070   7.765   5.444   3.976  2.4054 -1.6396  1.4640
   73MOL0     H10071   8.241   5.949   3.506  3.3247  0.6613 -1.6801
   73MOL0     H10072   8.242   6.296   3.611 -0.2234  1.7080 -2.3355
   73MOL0     H10073   8.355   6.246   3.479  0.8027 -0.3725  0.2178
   73MOL0     H10074   8.192   6.170   3.494  0.4730  2.6063 -2.1832
   74MOL0     O10075   7.950  10.083   7.908  1.2264  0.0564 -0.0771
   74MOL0     C10076   7.872  10.151   7.845  0.1795 -0.3705  0.4082
   74MOL0     O10077   7.739  10.175   7.883  0.1345 -0.1119  0.3412
   74MOL0     C10078   7.693  10.113   8.006 -0.4339  1.0084 -0.7623
   74MOL0     C10079   7.721  10.180   8.131  0.7141  0.6891 -0.0418
   74MOL0     C10080   7.659  10.141   8.256 -0.2665 -0.0102 -0.2790
   74MOL0     C10081   7.580  10.024   8.256 -0.1816 -0.6292  0.1237
   74MOL0     O10082   7.503   9.973   8.365 -0.6611  0.9339 -0.0507
   74MOL0     C10083   7.544  10.011   8.499 -0.1859  0.2758  0.2423
   74MOL0     C10084   7.478   9.923   8.593  1.1303  0.3556 -0.2096
   74MOL0     C10085   7.330   9.971   8.611 -0.6794  0.3224  0.1754
   74MOL0     C10086   7.272   9.908   8.736  0.4066  0.3406  0.1003
   74MOL0     C10087   7.128   9.944   8.757 -0.1283 -1.2440  0.4383
   74MOL0     C10088   7.031   9.928   8.622 -0.0084  0.1666 -1.0852
   74MOL0     C10089   6.890   9.968   8.651  0.3594 -0.4776  0.2639
   74MOL0     C10090   6.787   9.937   8.545 -0.0287 -0.0915 -0.1853
   74MOL0     N10091   6.802   9.801   8.478 -0.4036  0.4693  0.3769
   74MOL0     C10092   6.895   9.766   8.385 -0.7337  0.7437 -0.3864
   74MOL0     C10093   6.880   9.633   8.382  0.6843  0.1793 -0.5957
   74MOL0     C10094   6.955   9.542   8.286 -0.1435 -0.5033  0.7309
   74MOL0     C10095   6.890   9.522   8.148  0.7860  0.2477 -0.1994
   74MOL0     C10096   6.743   9.478   8.160  0.0818 -0.1885 -0.1877
   74MOL0     C10097   6.724   9.348   8.230 -0.3676 -0.6419  0.2905
   74MOL0     O10098   6.811   9.238   8.185 -0.2961 -0.9413 -0.4383
   74MOL0     C10099   6.815   9.115   8.247  0.4973  0.2202 -0.3236
   74MOL0     C10100   6.839   9.007   8.169  0.0083 -0.5228  0.2696
   74MOL0     C10101   6.853   8.875   8.215 -0.3987  1.1163  0.4657
   74MOL0     C10102   6.888   8.772   8.103 -0.3384 -0.1983 -0.2377
   74MOL0     C10103   6.838   8.847   8.352  0.0934  1.5363  0.4123
   74MOL0     C10104   6.853   8.715   8.417  0.3504  0.1627  0.4261
   74MOL0     O10105   6.903   8.714   8.546 -0.4461  0.6898  0.7155
   74MOL0     C10106   6.885   8.607   8.635 -0.1033 -0.0965 -0.5035
   74MOL0     C10107   6.995   8.585   8.724  0.5077 -0.8416  0.3325
   74MOL0     C10108   6.997   8.485   8.826 -0.6530 -0.6818  0.5790
   74MOL0     C10109   6.876   8.408   8.836 -0.0654 -1.3098 -0.8364
   74MOL0     O10110   6.862   8.304   8.926 -0.0468 -0.7992  0.0481
   74MOL0     C10111   6.979   8.272   9.005 -0.3844  0.0431  0.0163
   74MOL0     C10112   6.942   8.153   9.094 -0.2936 -0.6183  1.4784
   74MOL0     C10113   6.849   8.200   9.207  0.0522 -0.4853 -0.0578
   74MOL0     C10114   6.772   8.089   9.280 -0.0242  0.5205  0.1228
   74MOL0     C10115   6.870   7.997   9.365  0.6031  0.3846  0.8846
   74MOL0     C10116   6.949   8.067   9.479  0.4656  0.3904 -1.1013
   74MOL0     C10117   7.092   8.106   9.438 -0.1833 -0.5647  0.0565
   74MOL0     C10118   7.150   8.175   9.565  0.3156  0.8950  0.2178
   74MOL0    Cl10119   7.323   8.220   9.544  0.0991 -0.1435 -0.0042
   74MOL0     C10120   6.766   8.432   8.746  0.0198 -0.2204  0.4439
   74MOL0     C10121   6.772   8.531   8.649  0.2855 -0.3685 -0.7281
   74MOL0     O10122   6.812   8.615   8.358  0.1504  0.0509  0.3338
   74MOL0     C10123   6.815   8.958   8.439 -0.8277  0.0274 -0.1830
   74MOL0     C10124   6.802   9.091   8.383  0.2103  0.6460 -1.4329
   74MOL0     N10125   6.779   9.593   8.468 -0.0538 -0.4278 -0.1000
   74MOL0     N10126   6.732   9.693   8.523 -0.2477  0.1276  0.6011
   74MOL0     C10127   7.576   9.951   8.139  0.3166 -0.1050 -0.1285
   74MOL0     C10128   7.625   9.994   8.017  1.1055 -0.3530  0.4572
   74MOL0     C10129   7.902  10.198   7.703  0.1978  0.0864  0.1048
   74MOL0     C10130   7.823  10.293   7.643 -0.4611  0.3351  0.0181
   74MOL0     C10131   7.826  10.340   7.506  0.3254  0.4911 -0.7064
   74MOL0     C10132   7.934  10.289   7.437  0.2020 -0.3326  0.2424
   74MOL0     O10133   7.955  10.335   7.309 -0.2208  0.8202  0.1391
   74MOL0     C10134   8.052  10.277   7.224 -0.1991  0.9266  0.0011
   74MOL0     C10135   8.042  10.347   7.084 -0.4312 -0.0037  0.4623
   74MOL0     C10136   8.136  10.260   6.993  0.0432 -0.1103  0.0802
   74MOL0     C10137   8.139  10.342   6.853 -0.9012 -0.0547 -0.2853
   74MOL0     C10138   8.211  10.265   6.747  0.2909  0.0865 -0.0584
   74MOL0     C10139   8.261  10.189   6.665 -0.1346  0.2979 -0.3761
   74MOL0     C10140   8.015  10.190   7.492  0.2340 -0.0297  0.1045
   74MOL0     C10141   8.003  10.144   7.621  0.0693  0.1121 -0.4780
   74MOL0     C10142   8.106  10.041   7.674  0.7094  0.4159 -0.4001
   74MOL0     H10143   7.766  10.278   8.132 -0.7043  1.3766  0.2715
   74MOL0     H10144   7.646  10.209   8.340 -2.5358  3.7879 -3.3653
   74MOL0     H10145   7.528  10.117   8.524 -3.0154 -0.0491  0.0609
   74MOL0     H10146   7.650   9.990   8.515 -0.4340 -0.4762  0.9260
   74MOL0     H10147   7.478   9.816   8.572  1.1345 -0.4309  3.1895
   74MOL0     H10148   7.528   9.928   8.690  0.3643 -0.2516  0.2318
   74MOL0     H10149   7.316  10.078   8.628 -0.4068  0.6251 -1.3499
   74MOL0     H10150   7.288   9.946   8.513 -1.5371  3.2601 -0.3118
   74MOL0     H10151   7.287   9.800   8.732  3.7069  0.7333 -2.8015
   74MOL0     H10152   7.324   9.950   8.823 -0.3453  4.5916 -1.2873
   74MOL0     H10153   7.128  10.052   8.770 -0.3549 -1.5647  3.9482
   74MOL0     H10154   7.091   9.898   8.849 -0.5045 -0.6464  0.5889
   74MOL0     H10155   7.074   9.996   8.548  3.0059 -0.2887  0.1177
   74MOL0     H10156   7.030   9.822   8.593 -1.5351  0.6192 -2.9018
   74MOL0     H10157   6.900  10.077   8.654  0.4881 -0.4919  2.5096
   74MOL0     H10158   6.863   9.934   8.752 -1.4517  2.0963  0.7415
   74MOL0     H10159   6.683   9.948   8.575  0.2592  0.3425  0.6679
   74MOL0     H10160   6.798  10.005   8.460 -2.3398 -1.9631 -2.1004
   74MOL0     H10161   6.954   9.840   8.332 -1.6109  1.5595 -0.2579
   74MOL0     H10162   6.945   9.443   8.333 -2.8435 -0.8377 -0.3554
   74MOL0     H10163   7.058   9.579   8.283 -0.5044  0.4628  0.0724
   74MOL0     H10164   6.891   9.614   8.089  0.2861  1.5042  1.6652
   74MOL0     H10165   6.944   9.443   8.095  0.4311  0.7096 -1.2846
   74MOL0     H10166   6.688   9.563   8.200  0.0050  0.1647 -1.0295
   74MOL0     H10167   6.715   9.461   8.055  1.3068 -0.7265 -0.4479
   74MOL0     H10168   6.757   9.363   8.333 -1.1278 -5.6258  1.5295
   74MOL0     H10169   6.619   9.318   8.221 -1.8746  4.3961 -2.7167
   74MOL0     H10170   6.845   9.037   8.064  0.9479  0.2799  0.5354
   74MOL0     H10171   6.806   8.703   8.081 -0.4902 -0.6386  1.5849
   74MOL0     H10172   6.961   8.701   8.143 -0.4037 -1.2835 -1.9239
   74MOL0     H10173   6.916   8.831   8.015 -3.5605  0.7181 -0.7657
   74MOL0     H10174   7.083   8.646   8.706  1.1527 -2.4242 -2.5288
   74MOL0     H10175   7.085   8.461   8.885  2.9153 -0.7793 -4.1134
   74MOL0     H10176   7.059   8.254   8.933  0.4935 -1.0298  1.2195
   74MOL0     H10177   7.010   8.356   9.068  0.2243  0.4517 -0.8066
   74MOL0     H10178   6.897   8.078   9.028  0.4941  0.9589 -1.0000
   74MOL0     H10179   7.038   8.116   9.129  0.1067 -1.4126 -0.3652
   74MOL0     H10180   6.769   8.253   9.153  1.7207 -2.2197 -4.7956
   74MOL0     H10181   6.919   8.256   9.270  1.9881 -2.6458 -0.1784
   74MOL0     H10182   6.729   8.021   9.206  1.7603 -2.4313  1.6006
   74MOL0     H10183   6.691   8.121   9.345 -0.5831 -0.1279 -0.2433
   74MOL0     H10184   6.812   7.915   9.409 -0.7918  0.0075 -1.4924
   74MOL0     H10185   6.933   7.949   9.290  1.2898 -0.0516  1.7276
   74MOL0     H10186   6.962   7.987   9.552  1.9046  1.8143  0.2748
   74MOL0     H10187   6.894   8.146   9.530  2.5859  1.0755  0.2414
   74MOL0     H10188   7.112   8.181   9.361  0.4004  0.6602  1.3650
   74MOL0     H10189   7.148   8.014   9.416 -0.5061 -0.7278 -0.0972
   74MOL0     H10190   7.138   8.105   9.648 -1.1200  3.8334  2.7313
   74MOL0     H10191   7.095   8.265   9.595  2.1382  1.9752  0.4206
   74MOL0     H10192   6.674   8.375   8.756  1.3822 -2.5192  0.5836
   74MOL0     H10193   6.683   8.561   8.595 -0.4297  0.8026  1.0320
   74MOL0     H10194   6.802   8.940   8.545 -0.9360  2.7483  0.3516
   74MOL0     H10195   6.786   9.174   8.452 -0.5258  1.5124 -2.5939
   74MOL0     H10196   7.533   9.852   8.148  0.1991  0.0415  1.0167
   74MOL0     H10197   7.600   9.947   7.923 -1.5198  1.8675 -0.0933
   74MOL0     H10198   7.736  10.341   7.688 -3.2016  1.2812 -5.4401
   74MOL0     H10199   7.750  10.405   7.464 -0.5388 -0.6988 -1.0093
   74MOL0     H10200   8.155  10.287   7.257 -0.1757  2.5105 -0.4493
   74MOL0     H10201   8.035  10.172   7.201  1.5226 -0.2837  3.5703
   74MOL0     H10202   8.080  10.449   7.090  1.0083 -0.4699 -0.2999
   74MOL0     H10203   7.937  10.346   7.055  0.2815 -0.3072 -2.4467
   74MOL0     H10204   8.232  10.251   7.045  0.3500 -1.7659 -0.7436
   74MOL0     H10205   8.096  10.159   6.988 -1.0534  0.2339  1.2965
   74MOL0     H10206   8.196  10.435   6.862 -2.4544  0.8291  0.8388
   74MOL0     H10207   8.037  10.360   6.820 -1.8902 -3.0675  0.7427
   74MOL0     H10208   8.307  10.107   6.614  0.6099 -1.5442  2.9835
   74MOL0     H10209   8.101  10.155   7.435  0.6480 -0.5168  1.0056
   74MOL0     H10210   8.161  10.009   7.585  2.2872 -2.1269  1.3682
   74MOL0     H10211   8.177  10.095   7.736 -0.3488  3.8718 -1.9488
   74MOL0     H10212   8.046   9.965   7.726 -1.1783  1.0204 -1.5651
   75MOL0     O10213   3.611   8.962   8.898 -0.3441  0.0486 -0.4620
   75MOL0     C10214   3.636   9.085   8.901  2.1037 -0.0399 -0.0516
   75MOL0     O10215   3.758   9.151   8.918  0.9157  0.2822  0.5805
   75MOL0     C10216   3.872   9.066   8.929  0.8176  0.3445 -0.1216
   75MOL0     C10217   3.968   9.108   9.010 -0.6303  0.1058  0.3559
   75MOL0     C10218   4.079   9.027   9.040 -0.5467  0.1943  0.1601
   75MOL0     C10219   4.104   8.904   8.980  0.0174  1.4343 -0.0912
   75MOL0     O10220   4.211   8.821   9.019  0.0778 -0.4794  0.0458
   75MOL0     C10221   4.340   8.896   9.026 -0.1478  0.4091  0.4495
   75MOL0     C10222   4.444   8.865   9.129  0.7268  0.2591  0.6366
   75MOL0     C10223   4.470   8.717   9.140  0.1351  0.2473  0.0361
   75MOL0     C10224   4.573   8.704   9.249  0.3929 -0.5922 -0.7851
   75MOL0     C10225   4.635   8.560   9.255  1.1598  0.6668 -0.6222
   75MOL0     C10226   4.789   8.551   9.293 -0.7395 -0.2694 -0.6154
   75MOL0     C10227   4.789   8.543   9.453 -0.2864 -0.3580  0.0870
   75MOL0     C10228   4.763   8.669   9.540  0.5236 -0.3183  0.5377
   75MOL0     N10229   4.875   8.766   9.503  0.8295 -0.0506  0.7053
   75MOL0     C10230   4.881   8.877   9.415 -0.5601  0.2470  0.2217
   75MOL0     C10231   5.018   8.888   9.384 -0.3021 -0.6499 -0.0134
   75MOL0     C10232   5.081   8.973   9.278 -0.6798  0.4891 -0.7832
   75MOL0     C10233   5.059   8.892   9.148 -0.5594  1.2544 -0.4289
   75MOL0     C10234   5.168   8.943   9.061 -0.2863  0.0342 -0.1176
   75MOL0     C10235   5.175   8.862   8.932 -0.4393  1.0628 -0.1551
   75MOL0     O10236   5.053   8.876   8.857  0.8086  0.5507 -0.6035
   75MOL0     C10237   5.038   8.985   8.779  0.5416 -0.6277  0.1656
   75MOL0     C10238   5.143   9.071   8.745 -1.1880 -0.1524  0.4913
   75MOL0     C10239   5.122   9.190   8.663 -0.0040  0.4146 -0.7103
   75MOL0     C10240   5.248   9.271   8.638  0.2486  0.7183  0.4196
   75MOL0     C10241   4.992   9.226   8.613  0.0609 -0.8139 -0.4399
   75MOL0     C10242   4.953   9.356   8.552 -0.4249  0.4433 -0.3226
   75MOL0     O10243   4.828   9.383   8.549  0.2735  0.1739 -0.5103
   75MOL0     C10244   4.769   9.494   8.490 -0.3131 -0.6798 -0.2555
   75MOL0     C10245   4.631   9.499   8.481 -0.6580 -0.2365 -0.0128
   75MOL0     C10246   4.565   9.620   8.459 -0.0088 -0.0486 -0.1969
   75MOL0     C10247   4.634   9.744   8.445 -1.0394  0.7473  0.2215
   75MOL0     O10248   4.568   9.864   8.432 -0.8773 -0.0426 -0.3403
   75MOL0     C10249   4.432   9.873   8.383 -0.2822  0.5033  0.1961
   75MOL0     C10250   4.371  10.012   8.388  0.1799  0.0345  0.0475
   75MOL0     C10251   4.329  10.054   8.530  0.4502  0.2277 -0.6845
   75MOL0     C10252   4.249  10.191   8.527 -0.0324 -0.4106  0.6194
   75MOL0     C10253   4.194  10.238   8.664  0.4248  0.8204  0.3981
   75MOL0     C10254   4.084  10.130   8.700  0.3970 -0.0324  0.6582
   75MOL0     C10255   3.981  10.168   8.808 -0.3252 -0.0975 -0.6636
   75MOL0     C10256   3.862  10.073   8.804 -0.2612 -0.5240  0.3760
   75MOL0    Cl10257   3.771  10.095   8.957 -0.5463 -0.1782 -0.1974
   75MOL0     C10258   4.772   9.743   8.467 -0.1962 -0.8079 -0.2605
   75MOL0     C10259   4.835   9.622   8.487  1.2141  0.4434  0.4481
   75MOL0     O10260   5.045   9.407   8.492  0.1329 -0.0689 -0.4717
   75MOL0     C10261   4.895   9.128   8.637 -0.1207  0.5433  0.1806
   75MOL0     C10262   4.924   9.009   8.712  0.6251 -0.2737 -0.4334
   75MOL0     N10263   5.083   8.790   9.457 -0.4297  0.0334  0.2021
   75MOL0     N10264   4.996   8.731   9.529 -0.8447 -0.4545  0.3817
   75MOL0     C10265   4.010   8.868   8.885  0.3787  0.4277 -0.5627
   75MOL0     C10266   3.892   8.933   8.874  0.3930  0.1263  0.5476
   75MOL0     C10267   3.520   9.178   8.876  0.6599  0.6638  0.5723
   75MOL0     C10268   3.434   9.144   8.769 -0.1319 -0.2756  0.7380
   75MOL0     C10269   3.323   9.226   8.741  0.0938 -0.1154 -0.0030
   75MOL0     C10270   3.289   9.336   8.822 -1.0667 -0.3485  0.0593
   75MOL0     O10271   3.171   9.407   8.801 -0.7816  0.1800 -0.6014
   75MOL0     C10272   3.127   9.503   8.899  0.5213  0.1343 -0.6972
   75MOL0     C10273   3.176   9.643   8.847 -0.1924  0.8570  0.3541
   75MOL0     C10274   3.117   9.756   8.931  0.3033  0.3920 -0.4618
   75MOL0     C10275   3.166   9.761   9.083  0.5663  0.5739  0.3869
   75MOL0     C10276   3.308   9.758   9.099  0.9522  0.0876  0.3305
   75MOL0     C10277   3.424   9.737   9.103  0.5827  0.6195 -0.1318
   75MOL0     C10278   3.375   9.368   8.923  0.2707  0.2317  0.5667
   75MOL0     C10279   3.496   9.293   8.954 -0.1670 -0.1984  0.5973
   75MOL0     C10280   3.584   9.327   9.077  0.1446 -0.7599  0.6978
   75MOL0     H10281   3.958   9.208   9.050  1.6805  0.2434  0.7171
   75MOL0     H10282   4.145   9.040   9.125 -0.8674  0.7330  0.3271
   75MOL0     H10283   4.325   9.004   9.036  1.1199  0.9919 -2.7643
   75MOL0     H10284   4.397   8.875   8.935  1.3557 -1.1363  1.6907
   75MOL0     H10285   4.537   8.918   9.106  0.3821  1.6262  2.1997
   75MOL0     H10286   4.407   8.892   9.229  3.5695  1.3989  1.4608
   75MOL0     H10287   4.390   8.642   9.147  0.5016 -0.2726 -1.0768
   75MOL0     H10288   4.516   8.687   9.045 -0.4455 -0.8063  0.0612
   75MOL0     H10289   4.648   8.779   9.220 -1.0956 -0.1089 -3.7819
   75MOL0     H10290   4.526   8.731   9.344 -1.3487  0.2307 -1.8257
   75MOL0     H10291   4.642   8.524   9.152  4.8616  0.9535 -0.6123
   75MOL0     H10292   4.562   8.500   9.311 -0.8249  3.6936  0.2762
   75MOL0     H10293   4.836   8.459   9.257  2.6898  1.2298 -0.4315
   75MOL0     H10294   4.846   8.637   9.256 -1.4127  0.7322  0.5966
   75MOL0     H10295   4.881   8.496   9.491 -1.5141 -1.2301  2.1077
   75MOL0     H10296   4.704   8.481   9.481 -0.0665 -0.4857  0.4751
   75MOL0     H10297   4.665   8.712   9.516  0.6106  1.8191  3.4494
   75MOL0     H10298   4.769   8.636   9.644  1.1568 -0.4168  0.4739
   75MOL0     H10299   4.796   8.927   9.370  0.1935  2.6775  1.3480
   75MOL0     H10300   5.186   8.990   9.301 -1.3503  0.7490  2.6470
   75MOL0     H10301   5.046   9.076   9.269 -0.0168  0.8551  0.5875
   75MOL0     H10302   5.090   8.789   9.171 -0.4656  0.3571 -3.9147
   75MOL0     H10303   4.956   8.895   9.110  0.2483  2.6494 -2.7224
   75MOL0     H10304   5.148   9.047   9.034  2.5120  0.4913 -0.7339
   75MOL0     H10305   5.262   8.949   9.118  0.2703  2.0451 -1.1800
   75MOL0     H10306   5.259   8.891   8.869  1.4840 -2.0305  0.7305
   75MOL0     H10307   5.189   8.756   8.955  1.7748  1.4993  0.7196
   75MOL0     H10308   5.240   9.075   8.796 -0.9272  0.1426 -0.0188
   75MOL0     H10309   5.256   9.279   8.529 -1.5964  2.7907  0.3839
   75MOL0     H10310   5.345   9.227   8.662 -1.3759 -1.2875  4.0226
   75MOL0     H10311   5.268   9.365   8.690  1.1773  0.0640  1.2859
   75MOL0     H10312   4.584   9.402   8.495 -2.0740  0.2725 -1.0273
   75MOL0     H10313   4.457   9.619   8.470 -0.2619  2.4186 -1.5920
   75MOL0     H10314   4.449   9.854   8.277 -0.1134 -1.7436  0.5919
   75MOL0     H10315   4.361   9.800   8.422 -0.2897  1.1381  1.4161
   75MOL0     H10316   4.441  10.086   8.348 -2.0318  1.2124 -1.8777
   75MOL0     H10317   4.281  10.010   8.326 -0.1951  2.9903  0.3753
   75MOL0     H10318   4.417  10.066   8.594  1.4205  0.5358 -2.0126
   75MOL0     H10319   4.263   9.977   8.571  0.2059 -0.1551 -1.7444
   75MOL0     H10320   4.167  10.184   8.454  3.3351  1.2954 -3.7744
   75MOL0     H10321   4.319  10.260   8.479 -0.7369  0.4401  0.7877
   75MOL0     H10322   4.271  10.228   8.742  1.0731 -0.7608 -0.3976
   75MOL0     H10323   4.165  10.343   8.653 -1.0539  0.4183  0.2251
   75MOL0     H10324   4.129  10.039   8.740 -1.7630  1.1330  6.7326
   75MOL0     H10325   4.037  10.102   8.605  3.1898  0.8451 -1.1063
   75MOL0     H10326   3.950  10.273   8.809  2.4698  0.8184  0.6042
   75MOL0     H10327   4.032  10.147   8.903 -1.7873 -0.4322  0.0903
   75MOL0     H10328   3.896   9.969   8.805  1.2028 -0.0979 -0.5472
   75MOL0     H10329   3.817  10.106   8.710 -1.3744  0.8177  1.3477
   75MOL0     H10330   4.820   9.839   8.450 -1.5407  0.2244  1.4118
   75MOL0     H10331   4.942   9.605   8.499  0.9412  0.1823  3.3974
   75MOL0     H10332   4.794   9.134   8.598  0.4540  1.5614 -1.2555
   75MOL0     H10333   4.846   8.938   8.738 -0.7365  1.2869 -0.0915
   75MOL0     H10334   4.024   8.771   8.839  3.0260 -0.2109  1.4065
   75MOL0     H10335   3.818   8.887   8.809  2.4485  0.9883 -2.6355
   75MOL0     H10336   3.456   9.050   8.719  0.8300 -0.3580  1.2816
   75MOL0     H10337   3.246   9.195   8.671 -1.3318  0.7335  1.1181
   75MOL0     H10338   3.019   9.512   8.888  0.3657 -2.4640 -2.2130
   75MOL0     H10339   3.160   9.480   9.000  2.4015  0.3020 -1.2306
   75MOL0     H10340   3.134   9.654   8.746 -0.5229  0.9277  0.4973
   75MOL0     H10341   3.284   9.658   8.842  0.6304 -3.8795 -0.8715
   75MOL0     H10342   3.140   9.851   8.884 -1.1100  1.1665  0.3484
   75MOL0     H10343   3.007   9.748   8.928  0.0637  0.8496  2.8315
   75MOL0     H10344   3.128   9.686   9.152 -3.0598  2.7554  1.0365
   75MOL0     H10345   3.124   9.855   9.119  1.2345  0.3547  1.8120
   75MOL0     H10346   3.523   9.695   9.100  0.6198  0.6377 -3.4388
   75MOL0     H10347   3.348   9.450   8.989 -0.5641  0.6127 -0.2239
   75MOL0     H10348   3.612   9.238   9.134 -1.6693 -2.3557 -0.8155
   75MOL0     H10349   3.669   9.386   9.039  0.4162 -1.3197  0.4213
   75MOL0     H10350   3.528   9.393   9.144 -0.3008 -1.5152  1.0810
   76MOL0     O10351   2.598  10.526   0.400 -0.1087 -0.6145  0.0429
   76MOL0     C10352   2.609  10.406   0.373 -0.1118  0.5197 -0.1460
   76MOL0     O10353   2.616  10.303   0.457 -0.4248 -0.3800  0.1915
   76MOL0     C10354   2.604  10.333   0.591  0.8127 -0.5214  1.2630
   76MOL0     C10355   2.473  10.365   0.641 -0.6318  0.1381 -0.3799
   76MOL0     C10356   2.457  10.390   0.778 -0.8289  0.1837 -0.6265
   76MOL0     C10357   2.573  10.374   0.863  0.3109 -0.1344  0.5534
   76MOL0     O10358   2.547  10.393   0.999  0.1553  0.2122  0.8449
   76MOL0     C10359   2.655  10.390   1.098 -0.6401  0.9655 -1.3090
   76MOL0     C10360   2.603  10.411   1.235  0.3494 -0.0189 -0.0552
   76MOL0     C10361   2.539  10.291   1.307 -0.2397 -0.5872 -0.3028
   76MOL0     C10362   2.441  10.329   1.411 -0.1397  0.2455 -0.6812
   76MOL0     C10363   2.385  10.217   1.497  0.3636 -0.3460 -0.6783
   76MOL0     C10364   2.315  10.105   1.422  1.0174  0.0688 -0.0158
   76MOL0     C10365   2.194  10.152   1.331  1.0387  0.3117 -1.1509
   76MOL0     C10366   2.110  10.041   1.277 -0.1157 -0.0576  0.2782
   76MOL0     N10367   2.187   9.983   1.156 -0.5313  0.0900 -0.3732
   76MOL0     C10368   2.219  10.055   1.042  0.1664  0.5210  0.1938
   76MOL0     C10369   2.280   9.961   0.966  0.0659 -0.7976  1.1626
   76MOL0     C10370   2.337   9.973   0.826  0.0079 -0.7191  0.0407
   76MOL0     C10371   2.486  10.016   0.827 -0.4117  0.1716  0.2837
   76MOL0     C10372   2.581   9.900   0.863 -0.0817  0.3392 -1.3761
   76MOL0     C10373   2.731   9.945   0.831 -0.4721 -0.3972 -1.2457
   76MOL0     O10374   2.826   9.843   0.796 -0.0372  0.2186 -0.1237
   76MOL0     C10375   2.918   9.789   0.889  0.3353  0.5747  0.5294
   76MOL0     C10376   3.011   9.702   0.836 -1.1250  0.5205 -0.3439
   76MOL0     C10377   3.113   9.645   0.908 -0.1545  0.2115 -0.3654
   76MOL0     C10378   3.218   9.546   0.834  0.4563 -0.1124 -0.4102
   76MOL0     C10379   3.118   9.671   1.044  0.5645  0.0029 -0.0198
   76MOL0     C10380   3.220   9.605   1.128  0.3288  0.1052  0.5009
   76MOL0     O10381   3.179   9.521   1.227 -0.3433  0.2362 -0.2746
   76MOL0     C10382   3.285   9.468   1.301 -1.8549  0.1939  0.6135
   76MOL0     C10383   3.316   9.330   1.271 -0.6898  0.6789  0.3478
   76MOL0     C10384   3.410   9.261   1.342 -0.3176  1.1821 -0.1887
   76MOL0     C10385   3.460   9.313   1.467 -0.4156 -1.4563  0.4508
   76MOL0     O10386   3.535   9.225   1.537  0.5670  0.0356 -1.2403
   76MOL0     C10387   3.518   9.246   1.676 -0.0807 -0.2699 -0.2112
   76MOL0     C10388   3.567   9.131   1.755 -0.0109  1.0798 -0.3694
   76MOL0     C10389   3.717   9.117   1.758  0.1607 -0.6950 -0.6207
   76MOL0     C10390   3.766   9.008   1.858  0.7675  0.8890  0.7510
   76MOL0     C10391   3.725   8.866   1.806 -0.9444  0.1191 -0.1262
   76MOL0     C10392   3.801   8.750   1.874  0.6054  0.5438 -0.1104
   76MOL0     C10393   3.739   8.616   1.833  0.0649  1.3134  0.5827
   76MOL0     C10394   3.810   8.512   1.925 -0.6596 -0.2972  0.1866
   76MOL0    Cl10395   3.745   8.349   1.885  0.5513  0.3940 -0.3315
   76MOL0     C10396   3.426   9.445   1.503 -0.0093 -1.2185  0.2787
   76MOL0     C10397   3.338   9.527   1.421 -0.6072  0.4548 -0.2093
   76MOL0     O10398   3.342   9.640   1.105  0.1954  0.1046  0.0139
   76MOL0     C10399   3.035   9.776   1.094 -0.2241  0.1477  0.0931
   76MOL0     C10400   2.928   9.830   1.021 -0.4445 -0.2361 -0.0663
   76MOL0     N10401   2.285   9.841   1.027 -1.5132  0.5044  0.5018
   76MOL0     N10402   2.225   9.849   1.146  0.0908 -0.3382 -0.3937
   76MOL0     C10403   2.704  10.349   0.809  0.3360 -0.1612  0.6709
   76MOL0     C10404   2.728  10.329   0.674 -0.3136 -0.7011 -0.5383
   76MOL0     C10405   2.613  10.374   0.226  0.5076 -0.4482  0.1448
   76MOL0     C10406   2.505  10.416   0.142  0.0893 -0.4563  1.1765
   76MOL0     C10407   2.494  10.364   0.018  0.1285 -0.3518  0.6073
   76MOL0     C10408   2.605  10.288  -0.034 -0.2844 -0.0513 -0.1378
   76MOL0     O10409   2.582  10.247  -0.163  0.4261 -0.3972 -0.0055
   76MOL0     C10410   2.663  10.143  -0.224 -0.5432 -0.0349  0.0547
   76MOL0     C10411   2.657  10.167  -0.371 -0.6635  0.1634  0.0893
   76MOL0     C10412   2.765  10.072  -0.454 -0.4661 -0.4489 -0.5978
   76MOL0     C10413   2.700   9.942  -0.524 -0.0899 -0.3440  0.5880
   76MOL0     C10414   2.639   9.860  -0.416  0.1046 -1.0547  0.2618
   76MOL0     C10415   2.589   9.808  -0.317 -0.2150 -0.5739 -0.3710
   76MOL0     C10416   2.713  10.253   0.043 -0.4047  0.5683  0.1184
   76MOL0     C10417   2.723  10.304   0.169  0.1831 -0.3500  0.0883
   76MOL0     C10418   2.840  10.276   0.246 -1.0376  0.1087 -0.2356
   76MOL0     H10419   2.382  10.379   0.584 -1.0942  2.6350  0.8123
   76MOL0     H10420   2.360  10.417   0.817 -0.8808  1.7922 -1.7649
   76MOL0     H10421   2.724  10.475   1.088 -2.5897  2.7796 -0.1369
   76MOL0     H10422   2.707  10.294   1.089 -3.5657 -0.6395 -2.3341
   76MOL0     H10423   2.682  10.444   1.304 -0.9101  1.2961  0.8264
   76MOL0     H10424   2.523  10.486   1.227 -1.3719 -0.7471  5.9333
   76MOL0     H10425   2.503  10.221   1.232 -2.1623 -1.0246  0.9541
   76MOL0     H10426   2.620  10.240   1.359  1.8539  0.8964 -1.9077
   76MOL0     H10427   2.495  10.394   1.481 -1.4814  1.5969 -0.8424
   76MOL0     H10428   2.358  10.377   1.359 -0.7289  0.6515  0.6032
   76MOL0     H10429   2.306  10.267   1.552 -0.7900 -1.6283 -1.1132
   76MOL0     H10430   2.458  10.177   1.568 -0.1138  0.0934  0.0576
   76MOL0     H10431   2.386  10.043   1.366  2.1521 -2.0245  3.4251
   76MOL0     H10432   2.274  10.041   1.501  0.7566 -0.1818 -0.3527
   76MOL0     H10433   2.230  10.214   1.248 -5.4567  1.8754 -3.3650
   76MOL0     H10434   2.127  10.220   1.385  0.8427 -0.7199 -0.0664
   76MOL0     H10435   2.076   9.955   1.335 -0.1926 -1.1361 -1.2955
   76MOL0     H10436   2.023  10.096   1.240 -1.8766 -2.8378 -0.0110
   76MOL0     H10437   2.191  10.159   1.024 -2.0519  0.1989  1.4583
   76MOL0     H10438   2.295  10.061   0.778 -1.0290 -0.2537  1.7192
   76MOL0     H10439   2.323   9.884   0.764 -2.6257 -1.3741  1.4155
   76MOL0     H10440   2.506  10.047   0.723  0.8127 -1.2320  0.0646
   76MOL0     H10441   2.504  10.106   0.886  0.2888  1.2790 -1.5185
   76MOL0     H10442   2.582   9.880   0.971  2.2444  2.6892 -0.8530
   76MOL0     H10443   2.574   9.812   0.798  3.7594  1.4652 -3.6192
   76MOL0     H10444   2.723  10.024   0.756 -0.5575  0.2278 -0.5960
   76MOL0     H10445   2.779   9.995   0.915 -0.6803 -0.6986 -0.9453
   76MOL0     H10446   3.006   9.678   0.730 -3.7987 -2.6098  0.3471
   76MOL0     H10447   3.169   9.448   0.827 -3.7958  1.6413  1.2004
   76MOL0     H10448   3.318   9.543   0.876  0.6786 -0.8311 -0.9698
   76MOL0     H10449   3.244   9.585   0.735 -0.2268 -1.6755 -1.2447
   76MOL0     H10450   3.266   9.284   1.187 -0.6881  1.2624  0.0264
   76MOL0     H10451   3.422   9.155   1.322 -4.3250  0.4475  0.4657
   76MOL0     H10452   3.567   9.340   1.702  0.1585  0.3179 -2.5486
   76MOL0     H10453   3.411   9.248   1.698  0.0715 -1.3962  0.7337
   76MOL0     H10454   3.525   9.149   1.855  2.7838  1.8610  0.7501
   76MOL0     H10455   3.533   9.032   1.724  0.4003  0.2343  1.7427
   76MOL0     H10456   3.746   9.214   1.799 -0.8727 -0.3331 -0.7248
   76MOL0     H10457   3.764   9.094   1.662 -2.3385 -3.7145 -1.2827
   76MOL0     H10458   3.728   9.021   1.960 -1.1170 -3.2452  0.7645
   76MOL0     H10459   3.875   9.012   1.849  0.6607 -1.0270 -3.7344
   76MOL0     H10460   3.617   8.854   1.812 -0.7926 -0.8484  1.3016
   76MOL0     H10461   3.755   8.874   1.701 -2.4790  3.6480 -0.4351
   76MOL0     H10462   3.782   8.752   1.981  0.5894  0.2597 -0.1078
   76MOL0     H10463   3.909   8.753   1.853  0.7744  2.1008  0.7793
   76MOL0     H10464   3.758   8.596   1.727  1.2342  5.0433 -0.0674
   76MOL0     H10465   3.632   8.605   1.851 -0.5409  0.7481 -2.7177
   76MOL0     H10466   3.804   8.538   2.031 -1.1498 -1.0101  0.3410
   76MOL0     H10467   3.916   8.499   1.901 -1.3334 -1.0794 -2.7336
   76MOL0     H10468   3.466   9.485   1.595  4.6597 -2.3149 -0.9896
   76MOL0     H10469   3.304   9.621   1.463  1.2013  0.3793  1.5467
   76MOL0     H10470   3.051   9.815   1.194  1.1743 -0.5014  0.1460
   76MOL0     H10471   2.864   9.906   1.064 -0.0952 -1.2685  2.4853
   76MOL0     H10472   2.789  10.354   0.877 -0.1033  0.5829  1.1846
   76MOL0     H10473   2.828  10.311   0.637 -0.3471 -0.9539 -0.5063
   76MOL0     H10474   2.429  10.477   0.191  1.5729  1.6193  1.0121
   76MOL0     H10475   2.412  10.378  -0.051 -0.0337  0.9912  1.0470
   76MOL0     H10476   2.767  10.150  -0.190  0.5654 -2.2300 -2.4898
   76MOL0     H10477   2.622  10.043  -0.205  0.3783 -0.3684  0.3364
   76MOL0     H10478   2.680  10.274  -0.379 -0.5185  0.0361 -1.6168
   76MOL0     H10479   2.555  10.151  -0.408 -0.9398 -2.8248  1.8029
   76MOL0     H10480   2.810  10.127  -0.537 -1.0534 -2.4375 -2.3133
   76MOL0     H10481   2.853  10.054  -0.391 -0.9997  0.9844  0.6199
   76MOL0     H10482   2.780   9.878  -0.563 -0.9641 -4.1439  4.2215
   76MOL0     H10483   2.630   9.959  -0.606  1.7706  0.5179 -0.8765
   76MOL0     H10484   2.565   9.775  -0.218  0.6656  0.9229  0.3855
   76MOL0     H10485   2.810  10.216   0.011 -1.3327 -1.8095 -0.1306
   76MOL0     H10486   2.869  10.357   0.314 -0.3319 -1.9632  2.0932
   76MOL0     H10487   2.834  10.187   0.309  1.5055  0.6321  0.8855
   76MOL0     H10488   2.927  10.259   0.182  0.1874  1.9044  0.8539
   77MOL0     O10489  10.259   2.627   2.049  0.6744  0.5486  0.0163
   77MOL0     C10490  10.315   2.687   2.136  1.1680  1.5231 -0.1152
   77MOL0     O10491  10.446   2.682   2.157 -0.1658 -0.2060 -0.1432
   77MOL0     C10492  10.518   2.643   2.047 -0.8225  0.0586  0.1039
   77MOL0     C10493  10.562   2.722   1.946  0.2150  0.5235 -0.9980
   77MOL0     C10494  10.658   2.679   1.848  0.3890  0.7943 -0.9039
   77MOL0     C10495  10.714   2.548   1.851  0.4167 -1.1409 -0.1247
   77MOL0     O10496  10.820   2.514   1.773 -0.6031 -0.9148  0.9628
   77MOL0     C10497  10.839   2.372   1.740 -0.3038 -1.1470 -0.0184
   77MOL0     C10498  10.748   2.319   1.640 -0.3717 -0.4545  0.2425
   77MOL0     C10499  10.776   2.175   1.585  0.2767  0.1143 -0.2840
   77MOL0     C10500  10.847   2.086   1.688 -0.2034  0.1605  0.1694
   77MOL0     C10501  10.860   1.930   1.643 -0.0557  0.4637  0.0752
   77MOL0     C10502  10.728   1.856   1.646  0.1892 -0.5848 -0.6549
   77MOL0     C10503  10.686   1.841   1.790  0.4122  0.8158  0.4233
   77MOL0     C10504  10.551   1.772   1.813  0.6607 -0.6751  0.3014
   77MOL0     N10505  10.448   1.842   1.738 -0.2345  0.0219 -0.6450
   77MOL0     C10506  10.411   1.974   1.753  0.0692 -0.3709  0.5599
   77MOL0     C10507  10.301   1.986   1.679  0.8310  0.0236  0.4295
   77MOL0     C10508  10.219   2.114   1.667 -0.4266 -0.7018  0.5747
   77MOL0     C10509  10.114   2.121   1.776  0.3797 -0.0374 -0.3937
   77MOL0     C10510   9.988   2.032   1.759 -0.0624 -0.7654  0.1825
   77MOL0     C10511   9.898   2.095   1.642  0.5888  0.6141  0.4804
   77MOL0     O10512   9.775   2.014   1.635 -0.1493 -0.3083  0.0065
   77MOL0     C10513   9.688   2.053   1.540  0.9412 -0.5614  0.4263
   77MOL0     C10514   9.551   2.033   1.564 -0.1824  0.1559 -0.4510
   77MOL0     C10515   9.443   2.065   1.478  0.1338 -0.5606 -0.3950
   77MOL0     C10516   9.302   2.044   1.527 -0.8806  1.0415 -0.3123
   77MOL0     C10517   9.480   2.126   1.352  0.1817  0.1226 -0.0934
   77MOL0     C10518   9.386   2.154   1.237 -0.5794  0.5105 -0.4630
   77MOL0     O10519   9.260   2.191   1.271 -0.4891  0.0554 -0.6353
   77MOL0     C10520   9.177   2.241   1.169  0.3717  0.3043 -0.5728
   77MOL0     C10521   9.220   2.301   1.052 -1.0056  0.4565 -0.4133
   77MOL0     C10522   9.147   2.348   0.942  0.4578 -0.2144 -0.3443
   77MOL0     C10523   9.005   2.344   0.947 -0.1158  0.5751 -0.6326
   77MOL0     O10524   8.935   2.395   0.837  0.0702 -0.0611 -0.5751
   77MOL0     C10525   8.825   2.317   0.782  0.1437  1.0039 -0.3092
   77MOL0     C10526   8.697   2.380   0.837 -0.7652  0.0171  0.1738
   77MOL0     C10527   8.659   2.523   0.783  0.4020  0.6112  0.8819
   77MOL0     C10528   8.626   2.524   0.637 -0.4631  0.1787 -0.6575
   77MOL0     C10529   8.647   2.668   0.576 -0.2047 -0.1645 -0.6300
   77MOL0     C10530   8.575   2.788   0.655  0.3360  0.6496 -0.2965
   77MOL0     C10531   8.595   2.926   0.593  0.9709 -0.5178  0.6829
   77MOL0     C10532   8.521   3.036   0.679 -0.2314 -0.4046  0.7426
   77MOL0    Cl10533   8.610   3.072   0.826  0.1126 -0.2416  0.0017
   77MOL0     C10534   8.951   2.265   1.060 -0.1671 -0.6950  0.0901
   77MOL0     C10535   9.038   2.212   1.165 -0.9495 -1.1954 -0.8717
   77MOL0     O10536   9.427   2.129   1.120  0.4510  0.8579  0.2461
   77MOL0     C10537   9.619   2.139   1.330  0.4097 -0.0919  0.0018
   77MOL0     C10538   9.711   2.104   1.416 -0.0492  0.0323  0.6002
   77MOL0     N10539  10.273   1.861   1.617 -0.0960 -0.2539  0.5486
   77MOL0     N10540  10.362   1.778   1.658 -0.3154  0.2821 -0.0176
   77MOL0     C10541  10.653   2.471   1.949 -0.6887  0.3088  0.0559
   77MOL0     C10542  10.567   2.517   2.040  0.2549  1.1321  0.8386
   77MOL0     C10543  10.224   2.745   2.245 -0.4173 -0.0860  0.7211
   77MOL0     C10544  10.293   2.799   2.359 -0.0729  0.8615 -0.0730
   77MOL0     C10545  10.223   2.827   2.483 -0.6044  0.7568 -0.2094
   77MOL0     C10546  10.081   2.834   2.481  0.5189 -0.6125 -0.7553
   77MOL0     O10547  10.002   2.850   2.596  0.5435 -0.4808  0.1281
   77MOL0     C10548  10.079   2.873   2.716  0.7748  0.0176 -0.3346
   77MOL0     C10549   9.976   2.874   2.830 -0.3748  0.1933  0.1344
   77MOL0     C10550  10.039   2.914   2.966  0.8561  0.1555 -0.3282
   77MOL0     C10551  10.074   3.060   2.988  0.3629  0.1845  0.3137
   77MOL0     C10552   9.953   3.139   2.997 -0.0059  0.2294  0.1474
   77MOL0     C10553   9.842   3.200   3.021  0.0075 -0.7928  0.1899
   77MOL0     C10554  10.017   2.789   2.366  0.4748  0.0844 -0.3274
   77MOL0     C10555  10.085   2.747   2.254  0.6102  0.4949  0.6014
   77MOL0     C10556   9.992   2.710   2.134  0.3638 -0.1338 -0.4049
   77MOL0     H10557  10.524   2.823   1.947 -3.0839 -0.5866 -0.2039
   77MOL0     H10558  10.693   2.752   1.776 -1.8376  2.8444 -0.0540
   77MOL0     H10559  10.835   2.308   1.829  3.9847 -1.2710  0.3288
   77MOL0     H10560  10.933   2.375   1.683 -0.7757  2.0889 -0.8313
   77MOL0     H10561  10.651   2.320   1.691  0.7255  0.0750  2.4300
   77MOL0     H10562  10.749   2.388   1.556 -0.1513  0.8840  1.3061
   77MOL0     H10563  10.681   2.130   1.559  1.2426 -1.4621 -1.2280
   77MOL0     H10564  10.834   2.176   1.492 -0.0661 -1.4370 -0.5330
   77MOL0     H10565  10.951   2.122   1.679 -0.1775 -0.2037 -1.3661
   77MOL0     H10566  10.808   2.091   1.790  0.1991  0.0044  0.3334
   77MOL0     H10567  10.923   1.874   1.713 -0.6794  0.5057  0.6850
   77MOL0     H10568  10.890   1.915   1.539 -2.1196 -0.4452 -0.4402
   77MOL0     H10569  10.658   1.916   1.586 -1.4461 -3.1565 -1.4904
   77MOL0     H10570  10.728   1.761   1.591 -0.6243 -0.8265 -0.2646
   77MOL0     H10571  10.671   1.934   1.846 -0.6238  0.2760  1.0824
   77MOL0     H10572  10.762   1.780   1.839  0.3784 -0.1705 -0.6787
   77MOL0     H10573  10.550   1.668   1.778  1.7327 -0.2943 -0.9162
   77MOL0     H10574  10.531   1.768   1.920  0.5700  1.4056  0.4031
   77MOL0     H10575  10.466   2.052   1.805  1.7455  0.3861 -2.1714
   77MOL0     H10576  10.172   2.134   1.570 -2.3069  1.1456  1.7714
   77MOL0     H10577  10.299   2.187   1.682 -0.6895 -0.4196  0.6104
   77MOL0     H10578  10.148   2.073   1.868 -2.3368  3.1309  2.5141
   77MOL0     H10579  10.090   2.225   1.797 -1.2374 -0.7018  1.3642
   77MOL0     H10580  10.027   1.933   1.734 -0.0806  0.3405 -5.3870
   77MOL0     H10581   9.931   2.027   1.852 -1.5536  0.6098 -0.6120
   77MOL0     H10582   9.873   2.201   1.654 -0.5348  0.6435 -1.6341
   77MOL0     H10583   9.954   2.083   1.549  2.7580  0.2310  1.7775
   77MOL0     H10584   9.533   1.977   1.656  1.7420  0.8800  0.4231
   77MOL0     H10585   9.258   1.963   1.468 -1.2284  0.9023  0.1330
   77MOL0     H10586   9.243   2.136   1.523 -2.8320 -0.0208  1.5181
   77MOL0     H10587   9.303   2.015   1.633  0.4654 -0.6345 -0.7424
   77MOL0     H10588   9.326   2.320   1.041 -1.2340  0.8505 -2.2163
   77MOL0     H10589   9.192   2.393   0.854 -1.1803  0.7574 -0.7275
   77MOL0     H10590   8.813   2.322   0.674  0.7220 -0.2855 -0.4506
   77MOL0     H10591   8.833   2.211   0.809  0.5261  0.7876 -1.2594
   77MOL0     H10592   8.620   2.308   0.808  2.4070 -4.2011  1.1523
   77MOL0     H10593   8.690   2.369   0.946 -2.3553 -2.4546 -0.0925
   77MOL0     H10594   8.745   2.589   0.801  1.0523 -0.2240  0.9083
   77MOL0     H10595   8.572   2.563   0.836  1.1672  2.5774  0.7564
   77MOL0     H10596   8.524   2.484   0.634 -0.2660 -0.3125 -0.8547
   77MOL0     H10597   8.691   2.454   0.584 -0.5183 -2.9106  2.9032
   77MOL0     H10598   8.753   2.694   0.566 -0.1877 -1.1760 -4.5201
   77MOL0     H10599   8.609   2.670   0.474 -3.2830  3.4662  0.3676
   77MOL0     H10600   8.615   2.798   0.756  1.6279  3.1026 -0.9830
   77MOL0     H10601   8.468   2.767   0.661  0.3538  0.3347 -0.9413
   77MOL0     H10602   8.564   2.932   0.489  1.1613 -0.6257  0.6203
   77MOL0     H10603   8.699   2.959   0.597  0.4901  1.0571  1.1071
   77MOL0     H10604   8.418   3.008   0.704 -0.9657  0.3607 -1.2451
   77MOL0     H10605   8.513   3.125   0.617  0.5990 -2.9953 -3.4402
   77MOL0     H10606   8.846   2.243   1.050 -0.7713  1.2424  1.6607
   77MOL0     H10607   8.975   2.153   1.230 -2.6599 -1.1608 -2.3942
   77MOL0     H10608   9.648   2.181   1.235  0.3762 -1.1895 -0.5037
   77MOL0     H10609   9.812   2.111   1.376 -0.6523 -0.8295 -1.1509
   77MOL0     H10610  10.679   2.367   1.969 -0.9894  0.5783  1.9681
   77MOL0     H10611  10.537   2.438   2.108 -0.8825 -1.5272 -2.4885
   77MOL0     H10612  10.400   2.787   2.362 -0.2979 -3.7375 -1.8104
   77MOL0     H10613  10.272   2.857   2.575 -0.8305  0.2637  0.0801
   77MOL0     H10614  10.142   2.786   2.737 -1.9947 -2.4354 -1.5206
   77MOL0     H10615  10.125   2.972   2.711 -3.5887  2.2436 -0.9762
   77MOL0     H10616   9.923   2.778   2.822  1.0357 -0.9306  2.7480
   77MOL0     H10617   9.899   2.947   2.805 -1.2527 -0.9145 -0.5465
   77MOL0     H10618   9.975   2.886   3.050  1.6060  1.0904  0.5709
   77MOL0     H10619  10.133   2.860   2.980  1.1969  1.4016  3.1825
   77MOL0     H10620  10.136   3.102   2.909 -0.9666  0.3175 -0.7034
   77MOL0     H10621  10.132   3.057   3.081  0.0732 -0.7569  0.4800
   77MOL0     H10622   9.749   3.251   3.036 -0.5856 -0.7557 -2.8094
   77MOL0     H10623   9.908   2.790   2.361  0.4849 -0.5651 -0.7122
   77MOL0     H10624   9.887   2.724   2.159  0.8061  1.1464  0.8658
   77MOL0     H10625  10.012   2.773   2.047 -2.2421 -0.6403 -1.4450
   77MOL0     H10626  10.014   2.606   2.106  0.1674  0.7493 -4.3603
   78MOL0     O10627  10.381  10.713   7.425 -0.0550 -0.5829  0.4155
   78MOL0     C10628  10.316  10.611   7.400  0.4394 -0.4333 -0.6321
   78MOL0     O10629  10.360  10.509   7.325  0.1182  0.0481 -0.1629
   78MOL0     C10630  10.496  10.484   7.327  0.1655 -0.1023 -0.6869
   78MOL0     C10631  10.547  10.377   7.409 -0.7239 -0.2158  0.0217
   78MOL0     C10632  10.682  10.336   7.419 -0.0685  0.3296  0.9433
   78MOL0     C10633  10.776  10.413   7.338  0.0530 -0.3975  0.5761
   78MOL0     O10634  10.913  10.390   7.351  0.6033 -1.3262  0.0309
   78MOL0     C10635  11.002  10.446   7.255  0.1209  0.4183  0.0229
   78MOL0     C10636  11.142  10.417   7.293 -0.5187  0.4878 -0.9053
   78MOL0     C10637  11.153  10.264   7.296 -0.4613  0.2123 -0.1037
   78MOL0     C10638  11.305  10.221   7.285  0.5749  0.3241 -0.5238
   78MOL0     C10639  11.332  10.121   7.400 -0.5362 -0.5510  0.0668
   78MOL0     C10640  11.363  10.199   7.525 -1.3483  0.3526 -0.6976
   78MOL0     C10641  11.394  10.100   7.641 -0.3060  0.5404  0.8209
   78MOL0     C10642  11.418  10.185   7.765 -0.3027 -0.1355 -0.1521
   78MOL0     N10643  11.442  10.098   7.877  0.4151 -0.2525  1.2894
   78MOL0     C10644  11.347  10.035   7.955  0.1873  0.1620  0.0881
   78MOL0     C10645  11.406   9.987   8.063 -0.3607  0.0331 -0.0185
   78MOL0     C10646  11.342   9.923   8.174 -0.2180  0.4132 -0.2646
   78MOL0     C10647  11.272  10.029   8.276 -0.3179  0.9049 -0.0199
   78MOL0     C10648  11.129  10.067   8.229 -0.3604 -0.7528  0.1917
   78MOL0     C10649  11.064  10.177   8.315  0.1120  0.7509  0.7830
   78MOL0     O10650  10.963  10.258   8.248 -0.2175 -0.3849 -0.1337
   78MOL0     C10651  10.856  10.206   8.191  0.5439  0.2098  1.0985
   78MOL0     C10652  10.799  10.077   8.208  0.3527 -0.8132  0.3691
   78MOL0     C10653  10.683  10.030   8.143  1.1655 -0.1168  1.0007
   78MOL0     C10654  10.610   9.904   8.187 -0.3325 -0.4190 -0.1595
   78MOL0     C10655  10.623  10.121   8.053 -0.4593 -0.1025 -0.2977
   78MOL0     C10656  10.501  10.088   7.979  0.2011 -0.5528 -0.5879
   78MOL0     O10657  10.513  10.102   7.848  0.7714 -0.6915  0.9164
   78MOL0     C10658  10.397  10.093   7.773 -1.2222  0.1901 -0.4497
   78MOL0     C10659  10.345   9.969   7.735 -0.0561  0.1307 -0.7071
   78MOL0     C10660  10.223   9.955   7.671 -0.3797 -0.3821 -0.3768
   78MOL0     C10661  10.149  10.070   7.647 -0.0643 -0.2360 -0.7387
   78MOL0     O10662  10.037  10.083   7.571  1.2229  0.1437 -0.3689
   78MOL0     C10663  10.001   9.969   7.485  1.2376 -0.3869 -0.7259
   78MOL0     C10664   9.872   9.994   7.415  0.3378  1.2851  0.1606
   78MOL0     C10665   9.752   9.996   7.509 -0.1992 -0.6743 -0.6451
   78MOL0     C10666   9.629  10.061   7.457 -0.1552  1.1392  0.7851
   78MOL0     C10667   9.601  10.188   7.536 -1.0045 -0.2849 -0.7955
   78MOL0     C10668   9.493  10.290   7.496  0.0364  0.5581  0.8802
   78MOL0     C10669   9.355  10.228   7.500  0.0074 -0.4949  0.3622
   78MOL0     C10670   9.298  10.183   7.634 -1.1561  0.3059 -0.7459
   78MOL0    Cl10671   9.328  10.310   7.753 -0.7815 -0.0949 -0.3011
   78MOL0     C10672  10.197  10.195   7.692 -0.4432 -0.2139 -0.1858
   78MOL0     C10673  10.320  10.207   7.755  0.1974 -0.2155  0.1417
   78MOL0     O10674  10.397  10.062   8.040  0.2864 -0.6753 -0.3115
   78MOL0     C10675  10.677  10.252   8.033  0.0650  0.0388 -0.8100
   78MOL0     C10676  10.787  10.298   8.102  0.0793 -0.2195 -0.4233
   78MOL0     N10677  11.543  10.019   8.065  0.4798  0.8668 -0.2236
   78MOL0     N10678  11.562  10.076   7.950  0.0172 -0.5401 -0.1667
   78MOL0     C10679  10.718  10.509   7.250 -1.2676  0.4507 -0.1285
   78MOL0     C10680  10.583  10.546   7.242  0.1850 -0.1808 -0.2080
   78MOL0     C10681  10.172  10.624   7.451 -0.4042  1.1263 -0.2808
   78MOL0     C10682  10.134  10.737   7.528  0.4317  1.1480 -0.3590
   78MOL0     C10683  10.012  10.749   7.596 -0.6238 -0.4908  0.2734
   78MOL0     C10684   9.915  10.645   7.581  0.1353  0.2865 -0.0621
   78MOL0     O10685   9.797  10.657   7.655 -0.2528 -0.2408 -0.0816
   78MOL0     C10686   9.819  10.589   7.779  0.2847 -0.3229 -0.1370
   78MOL0     C10687   9.690  10.536   7.841 -0.6807 -0.1170 -0.0405
   78MOL0     C10688   9.702  10.473   7.984  0.8302  0.2365  0.1902
   78MOL0     C10689   9.553  10.450   8.022  0.2393  0.2326 -0.0755
   78MOL0     C10690   9.551  10.355   8.128  0.5864 -0.4834  0.4517
   78MOL0     C10691   9.535  10.265   8.211  0.2436 -0.3814 -0.9052
   78MOL0     C10692   9.948  10.539   7.499 -0.3984  0.1497 -0.4629
   78MOL0     C10693  10.077  10.519   7.440  0.8725 -0.7260  0.8530
   78MOL0     C10694  10.107  10.395   7.354 -0.4336  0.5444 -0.0751
   78MOL0     H10695  10.480  10.323   7.475 -0.6998  2.2843  2.2625
   78MOL0     H10696  10.714  10.267   7.495  0.6201 -0.7662 -0.2949
   78MOL0     H10697  10.991  10.555   7.247  5.8256  1.1694 -2.9097
   78MOL0     H10698  10.992  10.400   7.156 -1.0509 -0.7829  0.6723
   78MOL0     H10699  11.220  10.445   7.221  3.2284  0.6003  2.8389
   78MOL0     H10700  11.150  10.472   7.387 -1.0148  0.0860 -0.6217
   78MOL0     H10701  11.108  10.218   7.384 -0.6951 -0.6197 -0.6426
   78MOL0     H10702  11.096  10.228   7.209 -2.7512 -0.6669  1.6711
   78MOL0     H10703  11.317  10.160   7.195  0.7009 -1.4191  0.6150
   78MOL0     H10704  11.368  10.310   7.290  1.3922 -0.2475  4.2035
   78MOL0     H10705  11.422  10.065   7.370  0.6812  0.3288  1.8958
   78MOL0     H10706  11.253  10.046   7.409 -0.9968 -0.2349 -1.2086
   78MOL0     H10707  11.456  10.254   7.507  0.3837 -1.0460  2.9657
   78MOL0     H10708  11.279  10.266   7.546 -1.0893  0.3727  0.2750
   78MOL0     H10709  11.474  10.028   7.618 -2.7524 -1.9220 -0.5079
   78MOL0     H10710  11.298  10.050   7.652 -0.6988  0.8502 -0.9747
   78MOL0     H10711  11.509  10.245   7.757 -0.7027  0.8550  2.1776
   78MOL0     H10712  11.327  10.245   7.772 -1.2075 -1.2469 -1.6555
   78MOL0     H10713  11.241  10.015   7.946  0.2603 -1.4158  1.9538
   78MOL0     H10714  11.409   9.852   8.222 -2.3166 -0.1598  2.0447
   78MOL0     H10715  11.265   9.857   8.131  0.5928 -0.7803  0.0728
   78MOL0     H10716  11.256   9.998   8.380 -0.9488 -1.0705 -0.6613
   78MOL0     H10717  11.335  10.118   8.271 -1.1267  1.4484 -0.9463
   78MOL0     H10718  11.131  10.097   8.124  0.2475  2.8485  1.0863
   78MOL0     H10719  11.052   9.990   8.241 -2.5776  1.4572  1.1829
   78MOL0     H10720  11.031  10.135   8.410 -1.7820 -0.5374 -0.3845
   78MOL0     H10721  11.148  10.245   8.334  0.5316 -0.0441  1.8858
   78MOL0     H10722  10.845  10.012   8.282  0.1617 -1.5646 -0.1570
   78MOL0     H10723  10.676   9.838   8.244 -0.2721 -1.2114 -1.1288
   78MOL0     H10724  10.572   9.839   8.108  2.7423 -2.4952 -0.1334
   78MOL0     H10725  10.521   9.938   8.240  1.4446  0.7480  2.2919
   78MOL0     H10726  10.405   9.883   7.761 -1.9292 -0.9224  0.2814
   78MOL0     H10727  10.184   9.856   7.651  0.0582 -0.9094  1.2743
   78MOL0     H10728  10.070   9.963   7.401 -0.4189  1.2892 -2.2967
   78MOL0     H10729   9.998   9.879   7.547  0.1592  0.9610  1.3147
   78MOL0     H10730   9.877  10.076   7.343  0.6466  0.0074 -1.3235
   78MOL0     H10731   9.870   9.899   7.360 -0.9720  0.8853  0.8531
   78MOL0     H10732   9.789  10.054   7.594  0.7372 -0.0440 -1.4682
   78MOL0     H10733   9.731   9.894   7.545  2.7092 -0.4732  2.1346
   78MOL0     H10734   9.536  10.004   7.462 -0.7119  2.1075  1.7801
   78MOL0     H10735   9.650  10.092   7.354 -0.2124  2.1616  1.0744
   78MOL0     H10736   9.575  10.155   7.638  1.8782 -2.5663 -0.6516
   78MOL0     H10737   9.691  10.249   7.540 -2.7177  2.3643 -0.0238
   78MOL0     H10738   9.503  10.328   7.394 -1.4633 -0.3162  0.3701
   78MOL0     H10739   9.494  10.368   7.573 -2.1971  1.2342  0.2863
   78MOL0     H10740   9.356  10.137   7.440  0.5417  0.1830 -0.7021
   78MOL0     H10741   9.278  10.294   7.457  1.4461  2.2133  1.7248
   78MOL0     H10742   9.338  10.089   7.672 -4.8814 -0.6904  1.1241
   78MOL0     H10743   9.189  10.178   7.628 -1.7377  4.5184  1.8545
   78MOL0     H10744  10.139  10.286   7.695  1.4108  1.0419 -0.4426
   78MOL0     H10745  10.353  10.306   7.787  2.7826 -0.8326 -0.3642
   78MOL0     H10746  10.635  10.317   7.957  1.8860 -0.3837 -2.2538
   78MOL0     H10747  10.827  10.396   8.077  0.5824 -0.4250 -0.4428
   78MOL0     H10748  10.791  10.573   7.202 -1.4726  1.0985  0.4119
   78MOL0     H10749  10.531  10.627   7.191  0.7128  0.4558  0.2455
   78MOL0     H10750  10.202  10.821   7.539  1.3326  0.4718 -0.6649
   78MOL0     H10751  10.000  10.829   7.668  3.1079 -0.8826  1.5296
   78MOL0     H10752   9.876  10.496   7.771  0.1728 -0.2792 -1.7448
   78MOL0     H10753   9.879  10.645   7.851  2.1916  0.6828 -2.3664
   78MOL0     H10754   9.636  10.471   7.772 -0.9297  0.3148 -0.2632
   78MOL0     H10755   9.629  10.627   7.850 -1.1956 -0.1730 -2.2856
   78MOL0     H10756   9.750  10.374   7.986 -0.6427 -0.5024  1.6984
   78MOL0     H10757   9.745  10.539   8.059  1.4630 -1.6556  1.5707
   78MOL0     H10758   9.490  10.423   7.937 -0.3352  3.5951 -0.8679
   78MOL0     H10759   9.511  10.548   8.047 -0.6942  0.1875 -1.3441
   78MOL0     H10760   9.525  10.177   8.272  0.8492  0.2787  0.1720
   78MOL0     H10761   9.872  10.461   7.498 -1.0542  0.6983  1.6898
   78MOL0     H10762  10.192  10.343   7.400  0.6090  1.9091 -0.3721
   78MOL0     H10763  10.026  10.322   7.356  0.3339 -0.3404 -0.2848
   78MOL0     H10764  10.141  10.429   7.256 -0.6011  1.3293  0.1293
   79MOL0     O10765   6.625   4.523   9.851 -0.1025  0.4076  0.5598
   79MOL0     C10766   6.532   4.605   9.820 -0.1355 -0.2243 -0.8372
   79MOL0     O10767   6.549   4.740   9.821  0.2658  0.2671  0.0940
   79MOL0     C10768   6.680   4.790   9.808 -0.5640 -0.2317  0.2767
   79MOL0     C10769   6.771   4.792   9.915 -0.7544 -0.5446 -0.8109
   79MOL0     C10770   6.898   4.849   9.899 -0.1508  0.6217 -0.1395
   79MOL0     C10771   6.950   4.897   9.775  0.3926  0.2926  0.3049
   79MOL0     O10772   7.081   4.927   9.771  0.3830 -0.7812  0.4639
   79MOL0     C10773   7.113   5.033   9.675 -0.2682  1.1268  0.6453
   79MOL0     C10774   7.124   5.169   9.736  0.5750 -0.2270 -0.6699
   79MOL0     C10775   7.225   5.163   9.851 -0.2209  0.0306  0.1529
   79MOL0     C10776   7.307   5.287   9.874  0.2599 -0.1705  1.2815
   79MOL0     C10777   7.405   5.304   9.761  0.2040  0.0180  0.2499
   79MOL0     C10778   7.475   5.447   9.761 -0.0270  0.1126  0.1608
   79MOL0     C10779   7.375   5.556   9.746 -0.8825 -0.3639  1.2057
   79MOL0     C10780   7.449   5.677   9.698 -0.3743 -0.2264 -0.2452
   79MOL0     N10781   7.366   5.799   9.685 -0.4483  0.7444 -0.3227
   79MOL0     C10782   7.259   5.832   9.761  0.9129  0.0692  0.0356
   79MOL0     C10783   7.239   5.959   9.727  0.7447 -0.0157 -0.3689
   79MOL0     C10784   7.112   6.034   9.775 -0.4032  0.7121  0.1339
   79MOL0     C10785   6.996   5.993   9.698  0.0554  1.1396  0.1706
   79MOL0     C10786   6.875   6.077   9.711 -1.4559 -0.0782 -0.3105
   79MOL0     C10787   6.758   6.014   9.654  0.3701 -0.3664  0.0591
   79MOL0     O10788   6.728   5.885   9.713  0.1512 -0.0932  1.2063
   79MOL0     C10789   6.603   5.851   9.705  0.1473 -0.3373 -0.2765
   79MOL0     C10790   6.520   5.859   9.598  0.1249 -0.4747  0.6276
   79MOL0     C10791   6.397   5.802   9.597 -0.4071 -1.0477 -0.3925
   79MOL0     C10792   6.317   5.819   9.471  0.7096 -1.0286 -0.5002
   79MOL0     C10793   6.362   5.720   9.699  0.7419 -0.3677 -0.4560
   79MOL0     C10794   6.240   5.634   9.711  0.4394  0.8998  0.5855
   79MOL0     O10795   6.202   5.591   9.831  0.0006  0.6210 -1.5138
   79MOL0     C10796   6.071   5.552   9.868 -0.4798 -0.7168 -0.0387
   79MOL0     C10797   6.055   5.545  10.004 -0.3812  0.5508  0.8532
   79MOL0     C10798   5.938   5.502  10.068 -0.7905 -0.3833 -0.7880
   79MOL0     C10799   5.825   5.463   9.994  0.1383  1.0838  0.4886
   79MOL0     O10800   5.694   5.429  10.038 -0.2654 -0.5813 -0.9037
   79MOL0     C10801   5.656   5.480  10.170 -1.3086 -0.2028  0.3977
   79MOL0     C10802   5.503   5.457  10.173 -0.1226 -0.8367 -0.5612
   79MOL0     C10803   5.462   5.494  10.321 -0.6165  0.3265  0.0449
   79MOL0     C10804   5.319   5.509  10.353 -0.0082 -0.0879  0.0549
   79MOL0     C10805   5.293   5.534  10.505 -0.4935 -0.8674 -0.7813
   79MOL0     C10806   5.152   5.573  10.516  0.2334  0.3226 -0.5162
   79MOL0     C10807   5.132   5.612  10.664 -0.2244  0.5348  0.4447
   79MOL0     C10808   5.016   5.702  10.681 -0.6103 -0.9926 -0.0173
   79MOL0    Cl10809   5.020   5.736  10.853 -0.2438  0.1242 -0.0242
   79MOL0     C10810   5.851   5.461   9.855 -0.6179  1.3548  0.0087
   79MOL0     C10811   5.971   5.506   9.787  0.3517  0.1339  0.2246
   79MOL0     O10812   6.167   5.625   9.611  0.2741  0.1586  0.1270
   79MOL0     C10813   6.445   5.710   9.821  0.7669 -0.1736  0.6703
   79MOL0     C10814   6.562   5.772   9.821 -0.7578 -0.7240 -0.5268
   79MOL0     N10815   7.335   6.004   9.638  0.5521  0.0142  0.1041
   79MOL0     N10816   7.425   5.910   9.632  0.3987  0.0106  0.1913
   79MOL0     C10817   6.855   4.886   9.665 -0.4021 -0.9109  0.2384
   79MOL0     C10818   6.730   4.831   9.677  0.3486 -0.3922 -0.3550
   79MOL0     C10819   6.393   4.562   9.819 -0.4396 -0.9839 -0.7633
   79MOL0     C10820   6.295   4.665   9.782  0.1018  1.1159  1.2618
   79MOL0     C10821   6.159   4.633   9.771 -1.0003  0.1507 -1.2912
   79MOL0     C10822   6.123   4.513   9.819  0.1462  0.7667  0.3198
   79MOL0     O10823   5.992   4.477   9.824  0.7856  0.1497  0.6159
   79MOL0     C10824   5.891   4.571   9.770 -0.8701 -0.6693 -0.1728
   79MOL0     C10825   5.744   4.511   9.761 -1.1367 -0.2006  0.4600
   79MOL0     C10826   5.644   4.631   9.742 -0.3821 -0.1220  0.1824
   79MOL0     C10827   5.499   4.578   9.759 -0.7548  0.7029  0.3541
   79MOL0     C10828   5.451   4.542   9.893  0.7632  0.2194  0.0937
   79MOL0     C10829   5.404   4.504   9.996 -0.3423  0.1643 -0.2886
   79MOL0     C10830   6.220   4.412   9.847  0.8768  0.1321 -0.3483
   79MOL0     C10831   6.353   4.434   9.853  0.1569 -0.2337 -0.0767
   79MOL0     C10832   6.447   4.326   9.884  0.0361  0.3855  0.8982
   79MOL0     H10833   6.745   4.757  10.014  2.0418  0.7787  0.5135
   79MOL0     H10834   6.968   4.837   9.981 -0.7619 -3.5337 -0.0089
   79MOL0     H10835   7.052   5.041   9.584  0.0078  0.6118  0.4151
   79MOL0     H10836   7.208   4.994   9.638 -2.9328 -3.1508 -2.6757
   79MOL0     H10837   7.158   5.238   9.659 -1.3936 -1.3026 -2.6314
   79MOL0     H10838   7.024   5.193   9.772 -0.7556 -2.9666 -2.1915
   79MOL0     H10839   7.172   5.143   9.945  1.3336  0.8763  1.2599
   79MOL0     H10840   7.289   5.077   9.829 -3.4475 -1.6671 -3.9023
   79MOL0     H10841   7.238   5.371   9.870 -0.7178 -0.9852  0.4912
   79MOL0     H10842   7.365   5.280   9.967 -0.1359 -1.3974  1.4563
   79MOL0     H10843   7.355   5.306   9.664  0.5454  2.2712  0.0731
   79MOL0     H10844   7.480   5.225   9.747 -0.9811 -1.6333  2.5644
   79MOL0     H10845   7.542   5.457   9.847  2.0555 -0.4568 -1.3019
   79MOL0     H10846   7.548   5.448   9.679  0.8419 -1.1560  0.8926
   79MOL0     H10847   7.305   5.566   9.829 -1.0434 -3.4364  1.5661
   79MOL0     H10848   7.303   5.539   9.665 -0.2612  0.4385  0.4653
   79MOL0     H10849   7.539   5.698   9.756 -0.9869  1.5947  0.1215
   79MOL0     H10850   7.485   5.658   9.597  3.1743 -0.7006  0.9907
   79MOL0     H10851   7.190   5.774   9.823  1.5757 -0.0411  0.6874
   79MOL0     H10852   7.131   6.140   9.794  4.5890 -0.3917  3.0280
   79MOL0     H10853   7.095   5.992   9.874 -1.2591 -1.9258 -1.0383
   79MOL0     H10854   7.037   6.014   9.598  0.9382  1.1336  0.5209
   79MOL0     H10855   6.975   5.885   9.695  1.5409  0.7768 -3.3077
   79MOL0     H10856   6.865   6.101   9.817 -0.0245  3.6622 -0.8783
   79MOL0     H10857   6.896   6.172   9.662 -1.2989 -0.0049 -0.1006
   79MOL0     H10858   6.675   6.083   9.670  1.5812  0.4848  3.4552
   79MOL0     H10859   6.774   5.997   9.547  3.1018  0.7597  0.2122
   79MOL0     H10860   6.553   5.906   9.505 -0.9319  0.9221  0.9168
   79MOL0     H10861   6.214   5.842   9.500  0.5366  1.3968 -2.6654
   79MOL0     H10862   6.306   5.727   9.414 -0.8189 -1.7574  0.8907
   79MOL0     H10863   6.357   5.902   9.411 -0.7578 -0.2954 -0.5267
   79MOL0     H10864   6.137   5.570  10.071 -0.8542 -2.0358  2.5227
   79MOL0     H10865   5.925   5.501  10.176  1.2229  2.9847 -0.3834
   79MOL0     H10866   5.715   5.429  10.247  3.0866  3.0906 -0.3558
   79MOL0     H10867   5.675   5.587  10.185  1.3173 -0.7754  1.7401
   79MOL0     H10868   5.456   5.531  10.107  3.2483  2.5239  0.4426
   79MOL0     H10869   5.466   5.360  10.141 -2.5289  0.7920 -3.2350
   79MOL0     H10870   5.507   5.593  10.338 -0.8628  0.1815  1.6744
   79MOL0     H10871   5.495   5.415  10.388 -1.4443 -1.4824 -1.5653
   79MOL0     H10872   5.263   5.417  10.337  0.5154 -1.1312  3.3639
   79MOL0     H10873   5.281   5.592  10.293 -1.2067 -1.7886 -1.6123
   79MOL0     H10874   5.310   5.439  10.556 -1.4159  0.8231  3.0550
   79MOL0     H10875   5.359   5.611  10.547 -0.4457 -0.9055 -0.7879
   79MOL0     H10876   5.087   5.488  10.492  0.5796  0.0354 -0.4296
   79MOL0     H10877   5.117   5.651  10.447 -0.1885 -1.2368 -2.1369
   79MOL0     H10878   5.220   5.665  10.701  0.1817 -0.3531  0.7974
   79MOL0     H10879   5.106   5.519  10.716 -0.0833  0.3402  0.1757
   79MOL0     H10880   4.926   5.648  10.649 -2.1035  0.4568  1.5470
   79MOL0     H10881   5.014   5.796  10.625  0.7851 -0.3753  0.9349
   79MOL0     H10882   5.777   5.417   9.788 -0.2668  0.0059  0.4795
   79MOL0     H10883   5.986   5.513   9.680 -0.2806 -1.0012  0.0495
   79MOL0     H10884   6.421   5.664   9.916 -0.5024 -0.2154  0.3358
   79MOL0     H10885   6.626   5.782   9.908  0.8741  0.1607 -1.7678
   79MOL0     H10886   6.880   4.919   9.564 -0.8344  1.7256  0.9062
   79MOL0     H10887   6.655   4.841   9.598  0.6661  0.2626 -0.5836
   79MOL0     H10888   6.322   4.765   9.749 -2.2201  1.8292  1.2784
   79MOL0     H10889   6.090   4.713   9.746 -2.9331 -1.5391 -1.6216
   79MOL0     H10890   5.883   4.664   9.827  0.6557  1.1780 -2.7380
   79MOL0     H10891   5.920   4.602   9.669 -4.0455 -1.1522 -1.3360
   79MOL0     H10892   5.734   4.455   9.854 -3.2158  0.3568  0.6146
   79MOL0     H10893   5.733   4.438   9.681 -2.5302  1.7854 -1.2393
   79MOL0     H10894   5.656   4.713   9.813  1.2005  1.0317 -1.3229
   79MOL0     H10895   5.643   4.674   9.641  0.9407  1.2790  0.7305
   79MOL0     H10896   5.497   4.487   9.698 -1.7553  2.3584 -2.2909
   79MOL0     H10897   5.430   4.653   9.720  0.7956  2.7475  1.3365
   79MOL0     H10898   5.362   4.467  10.087 -0.7375  0.1353 -0.4809
   79MOL0     H10899   6.179   4.312   9.861 -1.4672  1.1021  0.1152
   79MOL0     H10900   6.395   4.239   9.922  0.1297  0.4119  1.0863
   79MOL0     H10901   6.503   4.294   9.795  1.4470  0.1955  1.8232
   79MOL0     H10902   6.513   4.355   9.967  1.5589  3.8808 -1.2564
   80MOL0     O10903   1.037   2.867   6.989  0.0094  0.4663 -0.2832
   80MOL0     C10904   1.053   2.932   7.089  0.3240  0.0613  0.1618
   80MOL0     O10905   1.136   2.902   7.182 -0.6695 -0.1175  0.4107
   80MOL0     C10906   1.216   2.794   7.169  0.6071  0.6372  0.9169
   80MOL0     C10907   1.351   2.817   7.121  0.4299 -0.1152  0.4517
   80MOL0     C10908   1.445   2.711   7.146 -0.0134  0.4981 -0.8052
   80MOL0     C10909   1.417   2.593   7.214  0.7851  0.2847 -0.3693
   80MOL0     O10910   1.512   2.509   7.254 -0.3548  0.4122  0.0210
   80MOL0     C10911   1.611   2.470   7.156 -0.0423 -0.0380 -0.4796
   80MOL0     C10912   1.688   2.354   7.218  0.2464  0.1907 -0.1820
   80MOL0     C10913   1.788   2.390   7.337  0.4497 -0.4393 -0.0516
   80MOL0     C10914   1.809   2.269   7.447  0.6601 -0.1620 -0.2425
   80MOL0     C10915   1.694   2.252   7.552  0.7432 -0.4112  0.1202
   80MOL0     C10916   1.759   2.197   7.688  0.7702 -0.3089  0.2240
   80MOL0     C10917   1.647   2.148   7.791  0.5239 -0.2959 -0.3483
   80MOL0     C10918   1.574   2.024   7.743  0.0558 -0.0111  0.9688
   80MOL0     N10919   1.645   1.901   7.756 -0.3036  0.7862  0.0863
   80MOL0     C10920   1.685   1.845   7.881 -0.1065 -0.5053  0.4635
   80MOL0     C10921   1.743   1.728   7.843  0.1117 -0.5543 -0.7335
   80MOL0     C10922   1.804   1.623   7.941  0.0401 -0.8912  0.8669
   80MOL0     C10923   1.703   1.565   8.036  0.4852 -0.2955  0.8952
   80MOL0     C10924   1.702   1.645   8.166 -0.4808 -0.3777 -0.0922
   80MOL0     C10925   1.574   1.646   8.233  1.0811  0.7834  0.8361
   80MOL0     O10926   1.470   1.709   8.157 -0.4290  0.2027 -0.0595
   80MOL0     C10927   1.354   1.740   8.221  0.2548  0.2366  0.0229
   80MOL0     C10928   1.293   1.665   8.328 -0.1878  0.3129  0.3923
   80MOL0     C10929   1.167   1.697   8.371  0.7247  0.4444 -0.3552
   80MOL0     C10930   1.118   1.604   8.488  0.2221 -0.4460  0.2308
   80MOL0     C10931   1.093   1.802   8.300 -0.9317 -1.1565 -0.5804
   80MOL0     C10932   0.966   1.856   8.340  0.6443 -0.0867 -0.4363
   80MOL0     O10933   0.894   1.932   8.245 -0.0225  0.2895  0.5827
   80MOL0     C10934   0.772   1.977   8.282  0.2888 -0.4636 -0.1679
   80MOL0     C10935   0.654   1.905   8.257  0.0909 -0.4668 -0.0801
   80MOL0     C10936   0.522   1.958   8.279  0.8424  0.6678  0.4141
   80MOL0     C10937   0.511   2.083   8.346 -0.2946  0.4074  0.7938
   80MOL0     O10938   0.389   2.134   8.399 -0.3928  0.5990 -0.0593
   80MOL0     C10939   0.292   2.036   8.445 -0.8626  0.7102  0.3022
   80MOL0     C10940   0.197   2.067   8.557  0.1087 -0.2771 -0.2532
   80MOL0     C10941   0.262   2.138   8.682 -0.3697  0.0969 -0.5478
   80MOL0     C10942   0.167   2.227   8.772  0.2851 -0.4319 -0.0955
   80MOL0     C10943   0.233   2.302   8.878 -1.0512 -0.4342 -1.0414
   80MOL0     C10944   0.331   2.232   8.971 -0.6830  0.2126  0.6117
   80MOL0     C10945   0.262   2.124   9.051 -0.5472 -0.5167 -0.6734
   80MOL0     C10946   0.367   2.031   9.121  0.2914  0.0990 -0.1944
   80MOL0    Cl10947   0.434   2.127   9.258 -0.1640  0.6641  0.4828
   80MOL0     C10948   0.632   2.153   8.364  0.8942 -0.6725  0.5464
   80MOL0     C10949   0.759   2.103   8.344  0.2249 -0.0624  0.0506
   80MOL0     O10950   0.911   1.820   8.446  0.1752 -1.4389  0.4300
   80MOL0     C10951   1.156   1.866   8.193 -0.6991 -1.3815 -0.0828
   80MOL0     C10952   1.286   1.832   8.154  0.2783  0.5732  0.0749
   80MOL0     N10953   1.739   1.719   7.702 -0.9385 -0.0475  0.1468
   80MOL0     N10954   1.670   1.816   7.649  0.4001 -0.3251 -0.2046
   80MOL0     C10955   1.286   2.578   7.273 -1.0480 -0.6042 -0.2938
   80MOL0     C10956   1.190   2.671   7.239  0.8290 -0.1982 -0.1608
   80MOL0     C10957   0.957   3.041   7.108 -0.0430  1.2153 -1.1225
   80MOL0     C10958   0.991   3.175   7.087  0.0132 -0.0536 -0.3728
   80MOL0     C10959   0.901   3.277   7.100  0.3839  0.4465  0.1353
   80MOL0     C10960   0.773   3.247   7.136 -1.6498  0.0198  0.0691
   80MOL0     O10961   0.700   3.355   7.139 -0.1377 -0.4270  0.6543
   80MOL0     C10962   0.563   3.356   7.188  0.0618 -0.2668 -0.1937
   80MOL0     C10963   0.559   3.332   7.341  0.1879  0.0598  0.3414
   80MOL0     C10964   0.629   3.446   7.412  0.2484 -0.0697 -0.0740
   80MOL0     C10965   0.543   3.574   7.388 -0.0211  0.1308  0.8126
   80MOL0     C10966   0.575   3.680   7.482  0.1917 -0.1200  0.6930
   80MOL0     C10967   0.611   3.767   7.555 -1.3361  0.3589 -0.3045
   80MOL0     C10968   0.740   3.115   7.154  0.2010  0.4521  1.2175
   80MOL0     C10969   0.820   3.006   7.136 -0.0201 -0.2021 -0.0175
   80MOL0     C10970   0.771   2.869   7.154  0.2293 -0.2703 -0.4505
   80MOL0     H10971   1.372   2.916   7.084  0.6471 -0.4456 -0.3315
   80MOL0     H10972   1.546   2.749   7.134  0.4563  0.5765  2.4477
   80MOL0     H10973   1.674   2.559   7.147  2.0036 -1.2297  1.1652
   80MOL0     H10974   1.576   2.453   7.054  0.8680 -1.6066 -0.5576
   80MOL0     H10975   1.625   2.270   7.248 -0.5216  1.3963  1.7876
   80MOL0     H10976   1.750   2.315   7.137 -1.1706 -1.0596 -0.7073
   80MOL0     H10977   1.884   2.389   7.284  0.1095  0.0534 -0.6772
   80MOL0     H10978   1.750   2.488   7.367 -1.9099 -1.0816 -0.7241
   80MOL0     H10979   1.827   2.175   7.394  3.9549  0.8579 -1.1978
   80MOL0     H10980   1.901   2.304   7.496  0.4661  0.5087 -0.3574
   80MOL0     H10981   1.615   2.190   7.507 -0.3466 -0.2263  1.7128
   80MOL0     H10982   1.634   2.343   7.567 -1.6128 -1.9309  0.4581
   80MOL0     H10983   1.834   2.118   7.675  4.2024  3.0629 -3.0662
   80MOL0     H10984   1.804   2.286   7.732  0.3873  0.0693 -0.1380
   80MOL0     H10985   1.583   2.229   7.826  1.9238  0.5051  0.4408
   80MOL0     H10986   1.696   2.133   7.887  4.2623  2.8005 -1.5279
   80MOL0     H10987   1.479   2.001   7.791  0.3088 -3.2379  0.2044
   80MOL0     H10988   1.545   2.032   7.638  3.7207 -0.1640 -0.1949
   80MOL0     H10989   1.662   1.890   7.977  1.8452  1.3705  0.1136
   80MOL0     H10990   1.899   1.660   7.982  2.9135 -4.2089 -2.1109
   80MOL0     H10991   1.831   1.540   7.874 -1.8340  0.4742 -1.7657
   80MOL0     H10992   1.602   1.571   7.993  0.1325  1.6377  1.8900
   80MOL0     H10993   1.725   1.462   8.067 -1.8717 -0.3339  2.7154
   80MOL0     H10994   1.781   1.600   8.226  0.2301  3.3387  2.0801
   80MOL0     H10995   1.732   1.749   8.155 -0.5074 -0.2065  1.2648
   80MOL0     H10996   1.551   1.541   8.252  0.8296  0.2180 -2.0403
   80MOL0     H10997   1.571   1.687   8.334 -2.3329 -0.9899  1.6031
   80MOL0     H10998   1.352   1.593   8.385  0.0126 -1.3623 -1.8173
   80MOL0     H10999   1.174   1.627   8.580 -0.7341 -4.2552  1.9602
   80MOL0     H11000   1.122   1.496   8.468 -1.4322 -0.8745  1.8816
   80MOL0     H11001   1.012   1.619   8.511  0.4543  2.4886 -0.1966
   80MOL0     H11002   0.655   1.813   8.198 -0.0541  0.0933 -0.9683
   80MOL0     H11003   0.439   1.892   8.255  1.6792  0.0577 -0.9465
   80MOL0     H11004   0.232   2.009   8.358 -0.3335 -0.8108  0.3780
   80MOL0     H11005   0.352   1.955   8.487  0.3098  0.6020 -1.4654
   80MOL0     H11006   0.114   2.128   8.521 -1.9972 -1.2516  2.5108
   80MOL0     H11007   0.143   1.976   8.585  0.0022 -0.0138  0.4347
   80MOL0     H11008   0.334   2.205   8.634  0.1261 -0.8028 -1.0847
   80MOL0     H11009   0.324   2.067   8.736  0.4889  0.2671 -1.2750
   80MOL0     H11010   0.082   2.168   8.806  0.6051 -2.2661 -2.2244
   80MOL0     H11011   0.127   2.291   8.693 -0.1564 -1.0159 -0.3535
   80MOL0     H11012   0.283   2.386   8.829 -1.0981 -2.2171 -4.4894
   80MOL0     H11013   0.154   2.353   8.934  0.0317  1.1648 -0.9063
   80MOL0     H11014   0.350   2.312   9.043 -1.8074  1.4339 -0.4060
   80MOL0     H11015   0.418   2.185   8.924 -0.7538 -2.6714  3.0875
   80MOL0     H11016   0.201   2.061   8.986 -1.5519  0.7698 -1.0155
   80MOL0     H11017   0.197   2.158   9.132 -0.1361 -1.5088  0.1073
   80MOL0     H11018   0.453   2.011   9.057 -1.2971 -0.7079 -2.2109
   80MOL0     H11019   0.337   1.934   9.162  0.0402 -0.2368 -1.1572
   80MOL0     H11020   0.624   2.254   8.403 -0.0070 -0.0665 -1.0941
   80MOL0     H11021   0.833   2.171   8.383  1.4528 -2.2192  1.6836
   80MOL0     H11022   1.111   1.954   8.146  1.4342 -2.1831 -4.0606
   80MOL0     H11023   1.328   1.893   8.074  0.0589 -0.5270 -0.9070
   80MOL0     H11024   1.271   2.490   7.335  0.1969  0.3448  1.4540
   80MOL0     H11025   1.090   2.661   7.280  0.2870  1.8082 -0.8981
   80MOL0     H11026   1.094   3.189   7.056  0.6157 -0.7134  1.2279
   80MOL0     H11027   0.933   3.372   7.060  0.9599  0.5827  0.8751
   80MOL0     H11028   0.510   3.452   7.186 -2.7394 -1.3214  5.0219
   80MOL0     H11029   0.502   3.289   7.128 -0.5794  1.3074 -1.3707
   80MOL0     H11030   0.615   3.239   7.353  0.0439 -0.1971 -0.8207
   80MOL0     H11031   0.453   3.313   7.359  0.0455 -0.2546 -0.7149
   80MOL0     H11032   0.629   3.422   7.519 -1.8628 -1.0882 -0.2463
   80MOL0     H11033   0.734   3.457   7.384  0.6468 -2.4260  0.3165
   80MOL0     H11034   0.437   3.546   7.398  0.6527 -3.6648 -0.7710
   80MOL0     H11035   0.559   3.614   7.288  2.4034  0.6891  1.3709
   80MOL0     H11036   0.640   3.852   7.614 -0.7301  1.3731 -1.9800
   80MOL0     H11037   0.636   3.096   7.178 -0.3028 -1.9396 -2.1342
   80MOL0     H11038   0.773   2.816   7.059  2.0187  2.7129 -2.2246
   80MOL0     H11039   0.825   2.817   7.233 -2.2706  1.2203  2.4619
   80MOL0     H11040   0.673   2.859   7.203  1.0542 -0.7940  1.1703
   81MOL0     O11041  10.481   7.219   3.595 -0.1550  0.5162 -0.1342
   81MOL0     C11042  10.444   7.265   3.704  0.3416 -0.3441  0.1952
   81MOL0     O11043  10.316   7.242   3.763 -0.4822  0.7352  0.2983
   81MOL0     C11044  10.237   7.177   3.680 -0.3489  0.1443 -0.5562
   81MOL0     C11045  10.129   7.238   3.614 -0.2031 -0.2263 -1.1875
   81MOL0     C11046  10.047   7.158   3.535 -0.1563 -0.3655  0.7916
   81MOL0     C11047  10.073   7.021   3.504  0.1881 -0.8389 -0.2286
   81MOL0     O11048   9.976   6.971   3.423 -0.3318 -0.7072  0.5647
   81MOL0     C11049   9.966   6.829   3.397  0.3328  0.5888  0.2598
   81MOL0     C11050   9.832   6.797   3.322 -0.1794 -0.2323  1.0590
   81MOL0     C11051   9.813   6.649   3.333  0.2074 -0.9327  0.1519
   81MOL0     C11052   9.681   6.602   3.262 -0.4427 -0.2425 -0.0647
   81MOL0     C11053   9.674   6.453   3.227 -0.7851  0.9834  0.2602
   81MOL0     C11054   9.672   6.365   3.364 -0.2874  0.1598  0.4645
   81MOL0     C11055   9.540   6.376   3.437  0.3322 -0.4592 -0.7537
   81MOL0     C11056   9.556   6.379   3.589 -0.0192  0.4889 -0.4804
   81MOL0     N11057   9.629   6.500   3.641 -0.2652  0.2232  0.6602
   81MOL0     C11058   9.756   6.502   3.700  0.5380 -0.6778 -0.1511
   81MOL0     C11059   9.787   6.634   3.713  1.2280  0.1027  0.4292
   81MOL0     C11060   9.909   6.691   3.774  0.5719 -0.2775 -0.9607
   81MOL0     C11061   9.917   6.844   3.777  0.3801  0.0378 -0.3403
   81MOL0     C11062   9.836   6.907   3.893 -0.2674  0.2631 -0.6531
   81MOL0     C11063   9.907   6.927   4.028 -0.0436  1.4772 -0.3025
   81MOL0     O11064   9.994   7.040   4.019 -0.5938 -0.3638 -0.2473
   81MOL0     C11065  10.099   7.047   4.107 -0.2691  0.0792 -0.3431
   81MOL0     C11066  10.141   6.952   4.211  0.8160  0.4135 -0.5947
   81MOL0     C11067  10.240   6.985   4.304  0.0070 -0.3304  0.3147
   81MOL0     C11068  10.255   6.899   4.423 -0.0133  0.2829 -0.3326
   81MOL0     C11069  10.317   7.105   4.291 -0.1751  0.2426  0.1883
   81MOL0     C11070  10.412   7.152   4.396  0.0317 -0.6867 -0.2572
   81MOL0     O11071  10.509   7.229   4.341  0.3268 -0.2804  0.2807
   81MOL0     C11072  10.609   7.271   4.420  0.3497 -0.5569 -0.2025
   81MOL0     C11073  10.614   7.405   4.425  0.2759  0.0751 -0.0445
   81MOL0     C11074  10.718   7.465   4.508 -0.0374  0.0109  0.0406
   81MOL0     C11075  10.801   7.389   4.587 -0.1210  0.5939  0.3695
   81MOL0     O11076  10.888   7.453   4.677  0.0779  0.9915  0.0294
   81MOL0     C11077  10.933   7.376   4.789  0.2878  0.3061  0.3934
   81MOL0     C11078  11.001   7.451   4.893  0.0548 -0.9474 -0.1131
   81MOL0     C11079  10.896   7.519   4.978  0.6969  0.2199  0.6814
   81MOL0     C11080  10.958   7.611   5.080 -0.5264 -0.1559 -0.0393
   81MOL0     C11081  10.851   7.670   5.175  0.7099  0.1565  0.0345
   81MOL0     C11082  10.918   7.751   5.284 -0.0934 -0.6644  0.0671
   81MOL0     C11083  10.832   7.859   5.348 -0.0417 -0.2548 -0.2516
   81MOL0     C11084  10.698   7.826   5.408  0.1902  0.2032 -0.0954
   81MOL0    Cl11085  10.724   7.757   5.564  0.2603 -0.6122 -0.0141
   81MOL0     C11086  10.790   7.253   4.573  0.1984 -0.1153 -0.3070
   81MOL0     C11087  10.703   7.190   4.480  0.0375  0.5319 -0.3934
   81MOL0     O11088  10.391   7.139   4.514 -0.5044  0.0463  0.1938
   81MOL0     C11089  10.287   7.192   4.181 -0.3105 -0.2340 -0.5817
   81MOL0     C11090  10.178   7.161   4.102  0.1333  0.4281 -0.2532
   81MOL0     N11091   9.680   6.707   3.663 -0.5780  0.3587  0.9143
   81MOL0     N11092   9.593   6.625   3.614  0.1473 -0.0058 -0.2842
   81MOL0     C11093  10.179   6.962   3.573  0.9935  0.2528 -0.2508
   81MOL0     C11094  10.254   7.039   3.657 -1.1689 -0.0308 -0.8103
   81MOL0     C11095  10.541   7.334   3.785 -0.2133  0.2650 -0.2606
   81MOL0     C11096  10.526   7.343   3.923 -0.9448 -0.5818 -0.1111
   81MOL0     C11097  10.620   7.400   4.009  0.2183 -0.4510  0.1998
   81MOL0     C11098  10.739   7.469   3.969  0.8988 -0.8139 -0.2091
   81MOL0     O11099  10.818   7.548   4.045 -0.0808 -0.4561 -0.2740
   81MOL0     C11100  10.809   7.545   4.201 -0.5843  0.2167  0.6525
   81MOL0     C11101  10.933   7.617   4.251 -0.7136 -0.0961  0.2758
   81MOL0     C11102  11.061   7.547   4.210 -0.0336 -0.6315 -0.6901
   81MOL0     C11103  11.175   7.596   4.305  0.4617  0.0220  0.2433
   81MOL0     C11104  11.203   7.734   4.267  0.2961 -0.3705  0.2521
   81MOL0     C11105  11.251   7.845   4.242  0.5253  0.2187  0.0423
   81MOL0     C11106  10.758   7.458   3.828 -0.7428 -0.4378  0.1524
   81MOL0     C11107  10.671   7.392   3.739  0.5001  1.0698  0.6774
   81MOL0     C11108  10.694   7.405   3.589  0.0018 -0.0665 -0.0482
   81MOL0     H11109  10.112   7.342   3.638 -1.1123 -0.9703  1.7609
   81MOL0     H11110   9.955   7.197   3.494  0.0216 -2.7787 -2.2905
   81MOL0     H11111   9.966   6.766   3.486 -0.1338  0.1450 -0.0534
   81MOL0     H11112  10.043   6.793   3.329 -0.1942 -1.4099  0.6795
   81MOL0     H11113   9.758   6.861   3.372  0.8776  0.1335  2.1964
   81MOL0     H11114   9.852   6.834   3.221  0.9552  0.8163  1.6431
   81MOL0     H11115   9.904   6.600   3.296  1.4397  0.1886  1.5733
   81MOL0     H11116   9.799   6.625   3.439 -2.7105 -3.4209 -0.6444
   81MOL0     H11117   9.603   6.631   3.334  0.4492 -0.6239  1.0930
   81MOL0     H11118   9.669   6.663   3.172  0.5879  2.0864  1.2520
   81MOL0     H11119   9.762   6.428   3.167  0.2121 -0.7174  2.3014
   81MOL0     H11120   9.587   6.433   3.164  0.2158 -1.2510 -0.5117
   81MOL0     H11121   9.693   6.259   3.346 -0.1601  0.3421 -0.5363
   81MOL0     H11122   9.754   6.411   3.420  0.3737  2.0744 -1.9050
   81MOL0     H11123   9.486   6.284   3.413  0.6626 -0.1453 -2.8849
   81MOL0     H11124   9.480   6.462   3.405  0.3226  1.4686  3.6779
   81MOL0     H11125   9.465   6.381   3.650  1.8053  1.9041  2.4383
   81MOL0     H11126   9.613   6.293   3.625 -3.3015 -1.9472 -0.6492
   81MOL0     H11127   9.820   6.426   3.744  3.0200  1.6389  0.4875
   81MOL0     H11128  10.000   6.648   3.730  1.2197  2.2102 -2.2382
   81MOL0     H11129   9.920   6.643   3.871  4.4169 -1.1303 -1.6511
   81MOL0     H11130  10.019   6.871   3.808 -0.5099  0.2960  2.6740
   81MOL0     H11131   9.890   6.884   3.679 -2.5029 -0.7665  0.0600
   81MOL0     H11132   9.792   7.002   3.861 -0.0755  1.0811  1.3467
   81MOL0     H11133   9.752   6.847   3.927  0.6029 -0.2038  0.7425
   81MOL0     H11134   9.846   6.938   4.118  1.9973  0.9762  1.1984
   81MOL0     H11135   9.965   6.835   4.040 -1.5129  0.4586 -0.6248
   81MOL0     H11136  10.087   6.860   4.227 -0.3496  1.3781  1.4663
   81MOL0     H11137  10.209   6.802   4.400  3.3067 -1.5086 -0.0943
   81MOL0     H11138  10.204   6.944   4.509 -0.0275 -2.2554  1.0905
   81MOL0     H11139  10.362   6.896   4.443  0.5445  2.0780 -2.6471
   81MOL0     H11140  10.550   7.466   4.362 -4.6385 -4.1799  0.2352
   81MOL0     H11141  10.732   7.573   4.519  0.7705 -0.0216 -0.5480
   81MOL0     H11142  10.848   7.312   4.814 -0.9223  1.9517  0.5820
   81MOL0     H11143  11.007   7.306   4.748 -0.3586  0.7202 -1.5710
   81MOL0     H11144  11.056   7.364   4.933  0.8734 -0.2260  0.3725
   81MOL0     H11145  11.079   7.518   4.854 -0.0488 -1.7448 -1.7858
   81MOL0     H11146  10.830   7.448   5.028  0.8254 -0.9727 -0.7971
   81MOL0     H11147  10.830   7.581   4.917 -1.3695 -1.3262  1.2490
   81MOL0     H11148  11.001   7.694   5.022 -2.3550 -0.0826 -1.3733
   81MOL0     H11149  11.042   7.562   5.131  0.6293  1.3050 -0.4651
   81MOL0     H11150  10.789   7.736   5.115 -2.8346 -3.7469 -1.0189
   81MOL0     H11151  10.800   7.586   5.222  2.3727 -1.0679 -0.2374
   81MOL0     H11152  11.007   7.798   5.242 -1.4359  0.9215 -1.1607
   81MOL0     H11153  10.964   7.688   5.362  1.5842 -0.1703 -0.4902
   81MOL0     H11154  10.802   7.939   5.280 -2.3395 -0.3993  0.5170
   81MOL0     H11155  10.885   7.910   5.429 -1.0788  2.0892 -0.9673
   81MOL0     H11156  10.644   7.761   5.340  2.2972  0.8057 -2.4939
   81MOL0     H11157  10.647   7.922   5.422  1.6551  1.1693 -1.0487
   81MOL0     H11158  10.850   7.191   4.639  1.7843  1.5887 -0.0480
   81MOL0     H11159  10.688   7.082   4.474  0.7321  0.3934  0.1924
   81MOL0     H11160  10.346   7.282   4.166 -0.3380 -0.0959  0.1059
   81MOL0     H11161  10.150   7.225   4.019  1.6020  2.4873  0.7370
   81MOL0     H11162  10.196   6.856   3.554 -0.7798  0.0864 -1.1085
   81MOL0     H11163  10.330   6.982   3.709  1.0055  4.1784  1.0890
   81MOL0     H11164  10.433   7.309   3.969  0.1624 -1.0484  1.8735
   81MOL0     H11165  10.592   7.408   4.114 -6.3092 -0.2535 -1.1416
   81MOL0     H11166  10.715   7.581   4.243 -1.0381 -2.9835  2.7257
   81MOL0     H11167  10.801   7.441   4.234 -2.1897  0.6382  1.6952
   81MOL0     H11168  10.934   7.628   4.359  0.3039 -0.5803  0.3328
   81MOL0     H11169  10.929   7.718   4.209 -1.3204  0.1559  0.9345
   81MOL0     H11170  11.047   7.439   4.218  2.8282 -1.0825 -0.9170
   81MOL0     H11171  11.093   7.574   4.109  0.6906  1.0425 -0.0477
   81MOL0     H11172  11.260   7.529   4.291 -1.1345 -1.6839 -2.1945
   81MOL0     H11173  11.141   7.596   4.409 -1.7002 -1.0019 -0.3914
   81MOL0     H11174  11.287   7.943   4.220 -0.6735  0.6311 -0.1637
   81MOL0     H11175  10.836   7.524   3.794 -1.3106 -0.0990 -0.5022
   81MOL0     H11176  10.735   7.309   3.556  0.8453  0.0652  0.6048
   81MOL0     H11177  10.607   7.433   3.528  1.3101  1.2227 -1.4269
   81MOL0     H11178  10.772   7.479   3.568  0.6186 -1.1316 -1.7410
   82MOL0     O11179   6.735  10.049   5.863 -0.0433  0.0953 -0.4747
   82MOL0     C11180   6.626  10.105   5.864  0.1425 -0.0167  0.6282
   82MOL0     O11181   6.595  10.208   5.949 -0.0729  0.3691  0.2086
   82MOL0     C11182   6.694  10.278   6.013  0.4255  0.7642  0.7203
   82MOL0     C11183   6.711  10.417   5.984  0.4318  0.2607  0.4734
   82MOL0     C11184   6.808  10.496   6.046 -0.0127  0.7115  0.3873
   82MOL0     C11185   6.885  10.433   6.141 -0.2595 -0.5410 -0.2902
   82MOL0     O11186   6.967  10.523   6.208 -0.4006 -0.1981 -0.1979
   82MOL0     C11187   7.097  10.478   6.230 -0.1115 -0.1265 -0.4528
   82MOL0     C11188   7.188  10.603   6.249 -1.1398  0.9214 -1.0598
   82MOL0     C11189   7.172  10.708   6.146  0.1340 -0.2388 -1.2207
   82MOL0     C11190   7.278  10.817   6.151  0.6055 -0.2518  0.0025
   82MOL0     C11191   7.239  10.959   6.082 -0.3986  0.3853  0.4713
   82MOL0     C11192   7.144  11.035   6.169 -0.0308 -0.8433  0.5907
   82MOL0     C11193   7.122  11.188   6.118  0.0688  0.0840 -0.3553
   82MOL0     C11194   7.131  11.290   6.240  0.6052 -0.0402 -0.1888
   82MOL0     N11195   7.104  11.426   6.202  0.1253 -0.8860  0.3218
   82MOL0     C11196   6.976  11.482   6.171  0.7247 -0.3309 -0.5609
   82MOL0     C11197   7.007  11.614   6.156  0.4263  0.2810 -0.4692
   82MOL0     C11198   6.915  11.730   6.127  0.0583 -0.0078 -0.7538
   82MOL0     C11199   6.919  11.825   6.254 -0.1095 -0.4581 -0.3135
   82MOL0     C11200   6.804  11.916   6.265 -0.7943  0.5039  0.4634
   82MOL0     C11201   6.786  11.995   6.394 -0.5013 -0.4417 -0.3878
   82MOL0     O11202   6.689  12.097   6.375 -0.2729 -0.4094 -0.0345
   82MOL0     C11203   6.675  12.203   6.465 -0.6830  0.7685 -0.8810
   82MOL0     C11204   6.733  12.204   6.591 -1.1930 -0.4205  0.5344
   82MOL0     C11205   6.700  12.312   6.683  0.8378 -0.3901  0.7615
   82MOL0     C11206   6.747  12.310   6.825  0.8045  0.3280  1.2262
   82MOL0     C11207   6.621  12.422   6.644  0.1951 -1.0021  0.7439
   82MOL0     C11208   6.600  12.549   6.722  0.6972  0.0195 -0.0399
   82MOL0     O11209   6.475  12.603   6.707 -0.0209  0.8518  0.1741
   82MOL0     C11210   6.468  12.732   6.704  0.0608 -0.2615  0.2935
   82MOL0     C11211   6.491  12.783   6.572 -0.2145  0.0860 -0.2800
   82MOL0     C11212   6.489  12.926   6.545  0.1159 -0.7812  0.3843
   82MOL0     C11213   6.462  13.013   6.659  0.6846 -0.3725  0.6851
   82MOL0     O11214   6.449  13.147   6.648  0.0387  0.1302 -0.0294
   82MOL0     C11215   6.366  13.189   6.541 -0.7462 -0.3870  0.5479
   82MOL0     C11216   6.304  13.319   6.582 -0.2439 -0.5640  0.0812
   82MOL0     C11217   6.203  13.294   6.693 -0.0294 -0.2916 -0.8205
   82MOL0     C11218   6.118  13.425   6.728 -0.3949  0.6673  0.2942
   82MOL0     C11219   5.972  13.375   6.744  0.2884  0.7513 -0.3996
   82MOL0     C11220   5.906  13.346   6.610 -0.1704  0.2707  0.1677
   82MOL0     C11221   5.761  13.308   6.641  1.1634  0.2041  0.4545
   82MOL0     C11222   5.701  13.252   6.511 -0.0597  0.6634 -1.3818
   82MOL0    Cl11223   5.541  13.175   6.541 -0.5602  0.0967  0.2307
   82MOL0     C11224   6.444  12.955   6.792  0.0983  0.4882  0.2201
   82MOL0     C11225   6.451  12.815   6.812  0.6565  0.0398  0.1628
   82MOL0     O11226   6.689  12.586   6.804  0.8990  0.4471  0.0475
   82MOL0     C11227   6.558  12.411   6.513  0.0876 -0.2260 -0.4633
   82MOL0     C11228   6.587  12.309   6.421 -0.3764  0.0738  0.1985
   82MOL0     N11229   7.141  11.627   6.181 -0.1303  0.0243 -0.0949
   82MOL0     N11230   7.202  11.516   6.195  0.0757 -0.1524  0.3783
   82MOL0     C11231   6.880  10.293   6.165  0.9842  0.3139 -0.0424
   82MOL0     C11232   6.771  10.219   6.112 -0.3897 -0.5530  1.2569
   82MOL0     C11233   6.530  10.064   5.763 -0.3891  0.3184  0.1531
   82MOL0     C11234   6.404  10.126   5.748 -0.1947  1.1438 -0.0574
   82MOL0     C11235   6.309  10.100   5.646  0.4567  0.3577 -1.0765
   82MOL0     C11236   6.339   9.998   5.557 -0.6136 -0.8040  0.1679
   82MOL0     O11237   6.240   9.965   5.465  0.0813  0.5841  0.9061
   82MOL0     C11238   6.240   9.830   5.411  0.8554  0.1192 -1.1509
   82MOL0     C11239   6.102   9.802   5.345 -0.2283 -0.6483  0.3871
   82MOL0     C11240   6.086   9.657   5.317  0.1876 -0.5089 -0.7379
   82MOL0     C11241   5.954   9.624   5.251 -0.0833 -0.9909 -0.1586
   82MOL0     C11242   5.916   9.695   5.129 -0.3221 -0.1289  0.6364
   82MOL0     C11243   5.879   9.760   5.034  0.2067  0.5394  1.0398
   82MOL0     C11244   6.462   9.928   5.576  0.4044  0.0470 -0.1859
   82MOL0     C11245   6.563   9.966   5.665 -0.4290  0.5106 -0.9044
   82MOL0     C11246   6.676   9.866   5.675  0.3886  0.4617  0.4851
   82MOL0     H11247   6.662  10.456   5.895  1.6079 -1.9252 -1.2458
   82MOL0     H11248   6.831  10.599   6.025  1.4997  0.2606 -0.2861
   82MOL0     H11249   7.134  10.417   6.147 -1.2738 -1.6645  0.0935
   82MOL0     H11250   7.095  10.410   6.316  0.6090  1.4332  0.8383
   82MOL0     H11251   7.170  10.656   6.343  0.3350 -0.0967 -0.1474
   82MOL0     H11252   7.290  10.563   6.253 -1.3424  0.4143 -0.8484
   82MOL0     H11253   7.182  10.660   6.048 -3.6190  1.4553 -2.6300
   82MOL0     H11254   7.072  10.751   6.143 -0.0550 -0.4143  0.9401
   82MOL0     H11255   7.289  10.832   6.259  1.0937 -1.6609  0.1658
   82MOL0     H11256   7.375  10.788   6.111  1.5966  2.2349  0.4093
   82MOL0     H11257   7.188  10.950   5.986  3.3439  1.4837 -1.8276
   82MOL0     H11258   7.334  11.010   6.065 -0.7371  0.2058 -2.3898
   82MOL0     H11259   7.047  10.984   6.179  1.0719 -2.8280  1.8999
   82MOL0     H11260   7.178  11.033   6.273 -2.0444  2.4259  1.4744
   82MOL0     H11261   7.028  11.198   6.062 -1.3963 -0.4111  1.8886
   82MOL0     H11262   7.203  11.204   6.047  0.2332 -1.6655 -0.6020
   82MOL0     H11263   7.075  11.264   6.331 -1.0595  0.7646 -0.9337
   82MOL0     H11264   7.234  11.294   6.275  0.6336 -0.0870 -0.2645
   82MOL0     H11265   6.878  11.435   6.170  0.7182 -0.3165 -1.9174
   82MOL0     H11266   6.812  11.704   6.100 -0.3104  1.7976 -1.2102
   82MOL0     H11267   6.937  11.777   6.030 -1.1092 -0.2929 -1.1827
   82MOL0     H11268   6.919  11.769   6.349  1.7205  0.3304  0.1758
   82MOL0     H11269   7.013  11.880   6.249 -0.1141 -0.4053  0.1161
   82MOL0     H11270   6.814  11.981   6.177 -0.7663 -0.4114 -0.2313
   82MOL0     H11271   6.714  11.855   6.257  0.2896 -1.2252  0.9478
   82MOL0     H11272   6.756  11.946   6.488 -0.7462  1.5844  0.6295
   82MOL0     H11273   6.886  12.034   6.412 -0.0760 -2.1262  1.2528
   82MOL0     H11274   6.810  12.129   6.609  0.9539  1.4504 -0.3280
   82MOL0     H11275   6.770  12.206   6.850  0.8264 -0.2062 -0.8260
   82MOL0     H11276   6.657  12.347   6.874 -1.0085 -0.7865 -1.0374
   82MOL0     H11277   6.831  12.379   6.828  1.3243 -0.1604 -0.6722
   82MOL0     H11278   6.505  12.715   6.489  1.2059 -1.9739  1.5465
   82MOL0     H11279   6.506  12.972   6.449  0.1180  0.9602  1.1925
   82MOL0     H11280   6.428  13.221   6.457  1.4986  1.7264  2.8402
   82MOL0     H11281   6.303  13.110   6.498  1.5344 -0.8384 -2.2593
   82MOL0     H11282   6.378  13.390   6.619 -2.5449  1.8828  0.2763
   82MOL0     H11283   6.258  13.367   6.496 -1.1878  0.2940  1.0294
   82MOL0     H11284   6.238  13.257   6.790 -1.2092  2.1761  0.6444
   82MOL0     H11285   6.144  13.209   6.656  1.3455 -1.9689  0.6092
   82MOL0     H11286   6.123  13.501   6.649  0.1880  0.5785  0.2466
   82MOL0     H11287   6.160  13.468   6.820 -0.0662  1.5743 -0.2647
   82MOL0     H11288   5.967  13.285   6.805 -3.4734  2.2803  1.9392
   82MOL0     H11289   5.917  13.453   6.799 -0.3297 -0.8706  1.4011
   82MOL0     H11290   5.950  13.272   6.542 -0.9335  1.0823 -1.2691
   82MOL0     H11291   5.899  13.436   6.549 -1.1604 -0.2956 -0.5767
   82MOL0     H11292   5.695  13.392   6.664 -0.5245 -1.0966  0.6031
   82MOL0     H11293   5.752  13.234   6.721 -1.8869 -1.3167 -1.1042
   82MOL0     H11294   5.769  13.182   6.461 -1.8275 -1.0060 -1.5409
   82MOL0     H11295   5.691  13.340   6.445  0.0600  1.3531 -0.5011
   82MOL0     H11296   6.438  13.014   6.883  2.1986 -0.6094  1.1458
   82MOL0     H11297   6.441  12.791   6.917  2.2923  3.3472  1.2218
   82MOL0     H11298   6.484  12.486   6.487 -1.8537 -2.1413 -0.7699
   82MOL0     H11299   6.537  12.304   6.325  0.0004 -3.9050  0.0407
   82MOL0     H11300   6.935  10.233   6.237 -2.4477 -1.5469  1.2587
   82MOL0     H11301   6.743  10.118   6.139  1.7994 -2.4344 -2.6195
   82MOL0     H11302   6.366  10.192   5.825 -0.3759  3.1674 -1.7871
   82MOL0     H11303   6.210  10.144   5.641  0.9820  1.4301 -2.7717
   82MOL0     H11304   6.322   9.800   5.344  0.9983 -0.3404 -0.7804
   82MOL0     H11305   6.253   9.769   5.501 -0.7315  3.6579  1.7298
   82MOL0     H11306   6.088   9.858   5.253 -0.0951 -1.2436 -0.0010
   82MOL0     H11307   6.031   9.833   5.422  0.6636 -3.1146  2.3614
   82MOL0     H11308   6.170   9.618   5.259  2.2648 -1.3787  2.5469
   82MOL0     H11309   6.095   9.590   5.404  1.8621 -0.8981 -1.1767
   82MOL0     H11310   5.870   9.637   5.319 -0.3729  0.7066 -0.8013
   82MOL0     H11311   5.952   9.515   5.235  2.6135 -1.2770  0.9435
   82MOL0     H11312   5.846   9.833   4.963 -2.5710 -1.2999  0.2643
   82MOL0     H11313   6.480   9.838   5.518 -1.7133 -1.3116  1.0883
   82MOL0     H11314   6.663   9.792   5.594  1.6600  2.0560 -1.2559
   82MOL0     H11315   6.772   9.912   5.653  0.1345  0.3277 -1.0500
   82MOL0     H11316   6.681   9.822   5.775 -2.1951  4.9235  2.8663
   83MOL0     O11317   9.445   4.829   8.007 -0.4513 -0.0216  0.3257
   83MOL0     C11318   9.392   4.761   8.096 -0.3036 -0.8448 -0.3727
   83MOL0     O11319   9.450   4.663   8.163 -0.1428 -0.5478  0.2853
   83MOL0     C11320   9.587   4.661   8.174 -0.3092 -0.4003  0.0503
   83MOL0     C11321   9.640   4.544   8.224  0.1531 -0.0064 -1.0716
   83MOL0     C11322   9.782   4.525   8.229  0.1254 -0.1976  0.0226
   83MOL0     C11323   9.871   4.629   8.200  0.0809  1.1223 -0.3153
   83MOL0     O11324  10.008   4.626   8.219 -0.1013  0.6433 -0.0150
   83MOL0     C11325  10.078   4.599   8.094 -0.2814  0.0798  1.1496
   83MOL0     C11326  10.081   4.453   8.058 -0.3544  0.0253  0.2645
   83MOL0     C11327  10.130   4.375   8.173 -0.9160 -0.0321 -0.0355
   83MOL0     C11328  10.163   4.228   8.137  0.1153  0.3228  0.3081
   83MOL0     C11329  10.222   4.157   8.261  0.4438  0.4619 -0.1125
   83MOL0     C11330  10.250   4.008   8.243  0.2843  0.5311  0.2086
   83MOL0     C11331  10.327   3.970   8.118 -1.1887  0.1655  0.4224
   83MOL0     C11332  10.366   3.827   8.099  1.4228  0.1013 -0.3778
   83MOL0     N11333  10.435   3.804   7.967 -0.5944 -0.3961 -0.4108
   83MOL0     C11334  10.571   3.809   7.954 -0.2170  1.5339 -0.5689
   83MOL0     C11335  10.599   3.736   7.848  0.5977 -0.6369  0.6336
   83MOL0     C11336  10.735   3.691   7.809 -0.0565  0.0523 -0.1536
   83MOL0     C11337  10.836   3.805   7.775  0.2166  0.0215 -0.7243
   83MOL0     C11338  10.794   3.891   7.657 -1.0509 -0.7510 -1.3095
   83MOL0     C11339  10.902   4.005   7.643  0.8253 -0.0746  0.2042
   83MOL0     O11340  10.854   4.125   7.702 -0.1611 -0.1276 -0.8266
   83MOL0     C11341  10.901   4.162   7.825  0.1021  0.3650 -1.0727
   83MOL0     C11342  10.999   4.099   7.903 -0.3298 -0.0592 -0.1182
   83MOL0     C11343  11.060   4.173   8.009 -1.0799  0.4899  0.3115
   83MOL0     C11344  11.169   4.101   8.080 -0.0446  0.3669 -0.1547
   83MOL0     C11345  11.017   4.295   8.043  0.1899 -1.2167  0.0485
   83MOL0     C11346  11.081   4.379   8.150  0.6008  0.1048 -0.0500
   83MOL0     O11347  10.996   4.420   8.243  0.2375  0.0154  0.1155
   83MOL0     C11348  11.044   4.523   8.326  1.1513  0.0969  0.4428
   83MOL0     C11349  11.072   4.651   8.281  0.1306 -0.5574 -0.3815
   83MOL0     C11350  11.092   4.754   8.371  0.0144  0.1141  0.3838
   83MOL0     C11351  11.103   4.736   8.504  0.6296 -0.3672 -0.6440
   83MOL0     O11352  11.113   4.848   8.577 -0.4186 -0.1910 -0.7078
   83MOL0     C11353  11.092   4.837   8.722 -0.7750 -0.1997  0.4779
   83MOL0     C11354  11.137   4.975   8.777  0.6094  0.0058 -0.0687
   83MOL0     C11355  11.127   4.987   8.932 -0.4331 -0.6246 -0.5866
   83MOL0     C11356  11.265   5.001   8.994  0.3999 -0.3473  0.8491
   83MOL0     C11357  11.266   4.951   9.133 -0.3812  0.0345  0.3743
   83MOL0     C11358  11.169   5.018   9.237 -0.3075 -0.6204 -0.0898
   83MOL0     C11359  11.205   4.960   9.374 -0.2332  0.3804  1.0023
   83MOL0     C11360  11.112   5.003   9.486 -0.3232 -1.3817  0.2198
   83MOL0    Cl11361  10.946   4.933   9.474 -0.1858 -0.1148 -0.2132
   83MOL0     C11362  11.093   4.603   8.557  0.1203 -1.0632  0.0895
   83MOL0     C11363  11.073   4.499   8.464  0.6432  0.4762  0.2677
   83MOL0     O11364  11.200   4.404   8.140  0.3773 -0.4316 -0.7040
   83MOL0     C11365  10.911   4.354   7.959 -0.2564  0.9648 -0.1867
   83MOL0     C11366  10.855   4.293   7.844 -0.0994 -0.1701  0.0418
   83MOL0     N11367  10.481   3.712   7.779 -0.4168 -0.1714  0.7153
   83MOL0     N11368  10.382   3.744   7.861  0.0541  0.4375 -0.4677
   83MOL0     C11369   9.817   4.741   8.162  0.3354 -0.6237  0.5619
   83MOL0     C11370   9.683   4.760   8.145 -0.0841 -0.4845  0.2714
   83MOL0     C11371   9.249   4.790   8.118 -0.3024 -0.2880 -0.3694
   83MOL0     C11372   9.178   4.688   8.173 -0.3974  0.4330 -1.1912
   83MOL0     C11373   9.042   4.704   8.195 -0.2666 -0.3695  0.3161
   83MOL0     C11374   8.974   4.818   8.158 -0.3735 -0.4188 -0.6297
   83MOL0     O11375   8.834   4.823   8.172 -0.2502 -0.0194  0.1682
   83MOL0     C11376   8.786   4.907   8.271 -0.1202  0.2492 -0.6653
   83MOL0     C11377   8.662   4.846   8.341 -0.4514 -0.0706 -0.4834
   83MOL0     C11378   8.524   4.900   8.278  0.3583 -0.8847 -0.1061
   83MOL0     C11379   8.407   4.812   8.316  0.1809  0.2517 -0.3798
   83MOL0     C11380   8.372   4.830   8.461 -0.4640  0.4376  0.1957
   83MOL0     C11381   8.326   4.842   8.572  0.8389 -0.7804  0.0634
   83MOL0     C11382   9.048   4.934   8.133 -0.0602  0.5486 -0.0896
   83MOL0     C11383   9.181   4.919   8.095 -0.1027 -0.3507  0.2344
   83MOL0     C11384   9.254   5.046   8.069  0.4169  0.0150 -0.6930
   83MOL0     H11385   9.570   4.473   8.267 -1.6273  1.5674 -1.2265
   83MOL0     H11386   9.826   4.441   8.282  0.8371  1.9548  3.1716
   83MOL0     H11387  10.180   4.632   8.114  1.1622 -2.4565 -1.2393
   83MOL0     H11388  10.038   4.667   8.018 -1.8235 -1.2390  0.7323
   83MOL0     H11389   9.980   4.416   8.038 -0.4606 -0.1543  1.0990
   83MOL0     H11390  10.149   4.431   7.975  1.2907  3.8855  0.3936
   83MOL0     H11391  10.216   4.428   8.214 -0.0825  0.8931 -2.7563
   83MOL0     H11392  10.060   4.382   8.256 -1.6688  2.0854 -0.7907
   83MOL0     H11393  10.070   4.177   8.108 -0.6757  0.0069  3.1307
   83MOL0     H11394  10.233   4.234   8.054  0.2835  0.2990  0.4478
   83MOL0     H11395  10.153   4.169   8.344  0.3342  0.7992 -0.2493
   83MOL0     H11396  10.320   4.203   8.281  0.1469  0.4717  1.4298
   83MOL0     H11397  10.302   3.980   8.335 -1.7076  2.1301  1.9069
   83MOL0     H11398  10.151   3.963   8.232 -0.9793  3.3819 -1.0055
   83MOL0     H11399  10.414   4.034   8.108  1.3040 -2.9750  0.3367
   83MOL0     H11400  10.266   3.991   8.029 -0.9674  2.2217  0.7063
   83MOL0     H11401  10.430   3.782   8.176 -0.2914 -0.3231  0.8848
   83MOL0     H11402  10.273   3.770   8.093  0.4829  1.3276  1.4443
   83MOL0     H11403  10.653   3.830   8.023  2.4182 -2.2090 -2.1853
   83MOL0     H11404  10.739   3.621   7.725  3.1147 -3.2723  2.4492
   83MOL0     H11405  10.775   3.629   7.890 -2.4984 -1.5223 -0.0217
   83MOL0     H11406  10.838   3.882   7.853 -1.0512  3.1421 -3.5276
   83MOL0     H11407  10.931   3.753   7.764  0.3854  0.2287 -0.2607
   83MOL0     H11408  10.789   3.824   7.570 -2.2339  0.3363 -2.1127
   83MOL0     H11409  10.700   3.946   7.670  0.9385  2.6926 -0.3145
   83MOL0     H11410  11.000   3.972   7.680  1.3357  0.0872 -0.9658
   83MOL0     H11411  10.920   4.027   7.538  0.5168  0.7099  0.3071
   83MOL0     H11412  11.029   3.997   7.877 -2.6850 -0.4429 -1.6242
   83MOL0     H11413  11.267   4.140   8.051 -0.1308 -0.9877 -2.5123
   83MOL0     H11414  11.165   3.994   8.059 -2.5057  0.1751  0.9724
   83MOL0     H11415  11.150   4.109   8.187 -2.8729  0.1010 -0.5544
   83MOL0     H11416  11.076   4.674   8.175  2.7124  2.6015  0.2179
   83MOL0     H11417  11.103   4.856   8.336 -0.1893  0.1140  0.3209
   83MOL0     H11418  10.985   4.829   8.745 -0.6623 -1.4858  0.5845
   83MOL0     H11419  11.154   4.760   8.767  0.2051 -1.4985 -2.7931
   83MOL0     H11420  11.236   4.993   8.733  1.8529 -0.1440  2.4324
   83MOL0     H11421  11.073   5.053   8.735 -2.5177 -1.8148  0.9860
   83MOL0     H11422  11.086   4.889   8.960 -2.6132  0.0515 -1.1977
   83MOL0     H11423  11.059   5.064   8.969 -3.4233 -4.3081  2.3855
   83MOL0     H11424  11.288   5.108   8.998  0.3745 -0.3464  0.9570
   83MOL0     H11425  11.350   4.963   8.937  0.5057 -1.2193  1.5749
   83MOL0     H11426  11.244   4.844   9.128 -0.6486  0.0537  1.0964
   83MOL0     H11427  11.369   4.951   9.171  0.5306  1.6761 -1.8605
   83MOL0     H11428  11.066   4.999   9.205 -0.4686  0.8514 -0.5321
   83MOL0     H11429  11.185   5.126   9.238  1.7611 -0.8454 -1.6615
   83MOL0     H11430  11.311   4.975   9.396  0.0175 -1.0724  0.8387
   83MOL0     H11431  11.197   4.851   9.376 -3.1783  0.5081  1.9375
   83MOL0     H11432  11.110   5.112   9.487  1.0892 -1.1777 -3.4409
   83MOL0     H11433  11.164   4.977   9.579 -0.5835  0.0576  0.7763
   83MOL0     H11434  11.116   4.578   8.660 -1.4504 -0.3134  0.6473
   83MOL0     H11435  11.095   4.396   8.489  1.3513  0.7842  0.9567
   83MOL0     H11436  10.878   4.448   8.002 -1.5233  0.7368 -0.6062
   83MOL0     H11437  10.778   4.338   7.782 -1.5711  0.7492  2.3682
   83MOL0     H11438   9.878   4.830   8.150 -1.7907  0.9406  0.8607
   83MOL0     H11439   9.637   4.855   8.119 -0.9210 -0.8362  0.4433
   83MOL0     H11440   9.216   4.587   8.181 -0.8536  0.2685 -1.0767
   83MOL0     H11441   8.973   4.632   8.237 -0.2164 -0.3328  0.4639
   83MOL0     H11442   8.868   4.920   8.342  0.1308  1.4443 -1.1339
   83MOL0     H11443   8.755   5.005   8.233  0.6093  0.3015 -1.1574
   83MOL0     H11444   8.663   4.880   8.445 -2.8981 -1.3061  0.0234
   83MOL0     H11445   8.660   4.737   8.336 -4.6191 -0.3884  2.8642
   83MOL0     H11446   8.495   4.996   8.322 -2.4606 -2.7383  2.4945
   83MOL0     H11447   8.527   4.917   8.170 -0.1722 -1.7402 -0.2640
   83MOL0     H11448   8.441   4.708   8.306  1.3306  0.6463 -0.6765
   83MOL0     H11449   8.327   4.828   8.243  0.1367  3.2052  0.2102
   83MOL0     H11450   8.299   4.858   8.675 -1.1576 -3.5664  0.0775
   83MOL0     H11451   8.993   5.026   8.120 -0.6548 -0.0722 -2.3786
   83MOL0     H11452   9.349   5.047   8.122  0.6012 -0.4532 -1.0051
   83MOL0     H11453   9.288   5.058   7.965  1.6115 -0.9788 -0.4435
   83MOL0     H11454   9.196   5.135   8.097 -1.1969 -0.9769 -0.7135
   84MOL0     O11455   5.401   4.309   5.032 -0.4985  0.0174  0.1032
   84MOL0     C11456   5.488   4.360   5.100  1.1390  0.1712 -0.7134
   84MOL0     O11457   5.461   4.400   5.235 -0.3503 -0.4689 -0.7187
   84MOL0     C11458   5.374   4.329   5.315  0.2311  0.8008  0.7206
   84MOL0     C11459   5.315   4.389   5.427 -0.3683  0.5928 -1.3384
   84MOL0     C11460   5.228   4.324   5.520  0.5228  0.3611 -0.6032
   84MOL0     C11461   5.192   4.191   5.499  0.3906 -0.6324  0.2025
   84MOL0     O11462   5.127   4.113   5.585  0.3343 -0.5467 -0.2369
   84MOL0     C11463   4.988   4.155   5.612 -0.8318  0.0108 -0.0272
   84MOL0     C11464   4.902   4.027   5.575 -0.4655 -0.2632 -1.0341
   84MOL0     C11465   4.945   3.895   5.666  0.4851  0.0250  0.1879
   84MOL0     C11466   4.863   3.771   5.620  0.5649 -0.1687 -0.0249
   84MOL0     C11467   4.878   3.662   5.721 -0.0105 -0.1897 -0.2425
   84MOL0     C11468   4.823   3.536   5.664  0.8289 -0.1034  0.1729
   84MOL0     C11469   4.669   3.547   5.631 -0.2747  0.3132 -0.0388
   84MOL0     C11470   4.581   3.597   5.745 -1.5266 -0.4647 -0.3463
   84MOL0     N11471   4.588   3.501   5.852  0.0135 -0.0495 -0.0764
   84MOL0     C11472   4.543   3.369   5.848 -0.1014  0.0944  0.1125
   84MOL0     C11473   4.569   3.325   5.980  0.8509 -0.3950 -0.2227
   84MOL0     C11474   4.541   3.184   6.032  0.0063 -0.9811 -0.5185
   84MOL0     C11475   4.402   3.140   5.998  0.7838  0.8020 -0.7159
   84MOL0     C11476   4.394   2.999   6.067 -0.1718 -1.3260  0.4611
   84MOL0     C11477   4.263   2.936   6.049  0.8726 -0.3370  0.2872
   84MOL0     O11478   4.259   2.895   5.910 -0.6769 -0.3002  0.5866
   84MOL0     C11479   4.173   2.800   5.866  0.4552 -0.4235 -0.2256
   84MOL0     C11480   4.048   2.757   5.919  0.1746 -0.0184  0.8275
   84MOL0     C11481   3.970   2.655   5.852 -0.4175  0.2978  0.1563
   84MOL0     C11482   3.833   2.612   5.924  0.0852  0.1648 -0.4278
   84MOL0     C11483   4.029   2.585   5.735 -0.1708 -0.5626 -0.6676
   84MOL0     C11484   3.953   2.474   5.666 -0.4796  1.0352 -0.2095
   84MOL0     O11485   3.821   2.449   5.703 -0.1700  0.4225  0.0800
   84MOL0     C11486   3.744   2.361   5.628 -0.1030  0.6793 -0.1829
   84MOL0     C11487   3.795   2.250   5.549  0.2925 -0.2667  0.2883
   84MOL0     C11488   3.701   2.177   5.469 -0.6671 -0.4789 -0.8200
   84MOL0     C11489   3.564   2.197   5.478  0.4397  0.2850  0.3684
   84MOL0     O11490   3.473   2.114   5.411 -0.1219 -0.4096 -0.9961
   84MOL0     C11491   3.470   1.983   5.468 -0.8388  1.1675 -0.3282
   84MOL0     C11492   3.345   1.918   5.396  0.5261  0.6777 -0.0987
   84MOL0     C11493   3.376   1.915   5.247  0.1603  0.2663  0.3992
   84MOL0     C11494   3.288   1.810   5.174 -0.1306  0.6997  0.6707
   84MOL0     C11495   3.338   1.748   5.039 -0.2740 -0.4559  0.1665
   84MOL0     C11496   3.235   1.696   4.936 -0.8630 -0.3175 -0.5430
   84MOL0     C11497   3.281   1.701   4.799  0.1087 -0.5207  0.0417
   84MOL0     C11498   3.160   1.667   4.709 -0.2078 -0.3247  0.3195
   84MOL0    Cl11499   3.227   1.626   4.550  0.4194  0.1981 -0.0774
   84MOL0     C11500   3.506   2.286   5.574  0.3633 -1.0226 -0.2946
   84MOL0     C11501   3.601   2.377   5.635  0.4036 -0.3195  0.7977
   84MOL0     O11502   4.022   2.412   5.583  0.5475  0.5109 -0.4613
   84MOL0     C11503   4.159   2.628   5.693  0.9342  0.1702 -1.0776
   84MOL0     C11504   4.221   2.737   5.754  0.3232 -0.0202  0.4776
   84MOL0     N11505   4.630   3.422   6.050  0.5809  0.2509  0.4016
   84MOL0     N11506   4.644   3.525   5.970  0.1762 -0.4569 -0.5508
   84MOL0     C11507   5.239   4.128   5.376  1.5803 -0.4112  0.3571
   84MOL0     C11508   5.325   4.203   5.292  0.3129 -0.4503 -0.3145
   84MOL0     C11509   5.623   4.395   5.049 -0.1219 -0.2816 -0.2582
   84MOL0     C11510   5.720   4.428   5.146 -0.0815 -0.0591 -0.4448
   84MOL0     C11511   5.846   4.483   5.110  0.6527  0.4025  0.0290
   84MOL0     C11512   5.877   4.503   4.974  0.9020  0.4357  0.5504
   84MOL0     O11513   5.996   4.547   4.922 -0.6728 -0.5127  0.1382
   84MOL0     C11514   6.034   4.677   4.978  0.3209 -0.0149 -0.3704
   84MOL0     C11515   6.115   4.760   4.880  0.0501  0.0256 -0.8562
   84MOL0     C11516   6.042   4.773   4.741 -0.8288  0.3757  0.2769
   84MOL0     C11517   6.141   4.849   4.646  0.0124  0.1760  0.2055
   84MOL0     C11518   6.089   4.860   4.503  0.3705  0.4501 -0.9977
   84MOL0     C11519   6.049   4.876   4.390  0.2467 -0.7941  0.8216
   84MOL0     C11520   5.780   4.480   4.882 -0.4243  0.4723  0.2248
   84MOL0     C11521   5.661   4.421   4.915  0.6281 -0.0619  0.1745
   84MOL0     C11522   5.573   4.381   4.804  0.1076 -0.2788  0.0507
   84MOL0     H11523   5.336   4.494   5.443 -0.5594  0.4760 -0.2352
   84MOL0     H11524   5.187   4.375   5.606 -1.4016 -1.6999 -0.2224
   84MOL0     H11525   4.951   4.237   5.550 -2.7560 -0.6894  0.1054
   84MOL0     H11526   4.974   4.181   5.717 -2.7216  0.7477 -0.4151
   84MOL0     H11527   4.801   4.063   5.599  0.8405  3.4164 -0.3201
   84MOL0     H11528   4.906   3.996   5.470  0.1170 -1.1195 -0.7673
   84MOL0     H11529   5.050   3.888   5.635  0.8303 -3.1037  1.6775
   84MOL0     H11530   4.942   3.923   5.772 -0.1441  1.8163 -0.2689
   84MOL0     H11531   4.754   3.777   5.610  0.0436 -4.0426  1.6607
   84MOL0     H11532   4.894   3.742   5.519  2.1854 -1.3029  0.7585
   84MOL0     H11533   4.838   3.683   5.820 -1.9303 -1.2016 -0.7615
   84MOL0     H11534   4.983   3.634   5.736 -0.0616 -0.5292 -0.5123
   84MOL0     H11535   4.880   3.507   5.575 -1.5192  2.2054 -2.2867
   84MOL0     H11536   4.833   3.445   5.724  0.1720  0.0671  0.5573
   84MOL0     H11537   4.632   3.448   5.603  2.3509 -0.6624 -0.3425
   84MOL0     H11538   4.651   3.611   5.544 -0.4886 -1.8825 -1.6930
   84MOL0     H11539   4.614   3.697   5.773  0.6999 -1.0993 -0.5066
   84MOL0     H11540   4.476   3.610   5.714 -2.0660 -2.6744  0.3777
   84MOL0     H11541   4.488   3.308   5.778 -1.2788  0.8045  0.3860
   84MOL0     H11542   4.562   3.174   6.139  0.2792  1.2854 -0.3158
   84MOL0     H11543   4.610   3.111   5.989  1.0726 -1.0296  1.1531
   84MOL0     H11544   4.326   3.202   6.048  0.7583  1.5142 -1.6085
   84MOL0     H11545   4.395   3.123   5.891  2.2967 -1.0789 -0.5736
   84MOL0     H11546   4.474   2.939   6.023  1.1411 -0.5777  1.7492
   84MOL0     H11547   4.418   3.015   6.172 -1.5869  2.1982  0.3773
   84MOL0     H11548   4.249   2.849   6.115  1.4280 -0.0837  0.7440
   84MOL0     H11549   4.195   3.020   6.062  2.6446  1.0625  0.8619
   84MOL0     H11550   3.998   2.813   5.998 -0.7503 -0.7365  0.7806
   84MOL0     H11551   3.818   2.687   6.002  2.4073 -2.1940  2.4901
   84MOL0     H11552   3.836   2.512   5.966  1.9878  0.9218  1.4629
   84MOL0     H11553   3.749   2.620   5.854  2.8637 -1.6963 -4.3753
   84MOL0     H11554   3.894   2.212   5.529 -0.4571 -2.0893 -0.1739
   84MOL0     H11555   3.735   2.115   5.388 -1.9977 -0.7729 -1.1780
   84MOL0     H11556   3.566   1.939   5.439 -0.4869  0.4505  1.8037
   84MOL0     H11557   3.467   1.978   5.577  0.6926 -0.0526 -0.3033
   84MOL0     H11558   3.327   1.822   5.445  1.0699  0.8364  0.4245
   84MOL0     H11559   3.254   1.970   5.426  0.1374  1.2626 -2.1708
   84MOL0     H11560   3.485   1.912   5.232  0.0009  0.2029 -0.9351
   84MOL0     H11561   3.357   2.014   5.204  4.5464  1.7223  1.2652
   84MOL0     H11562   3.192   1.858   5.152  0.7505  1.6231 -1.3664
   84MOL0     H11563   3.271   1.725   5.241 -1.8531  0.4407 -0.0435
   84MOL0     H11564   3.394   1.829   4.991 -1.3949  1.6784  2.2231
   84MOL0     H11565   3.404   1.662   5.059 -2.0802 -1.9660 -0.1461
   84MOL0     H11566   3.148   1.763   4.937 -0.7898 -0.2310  0.0295
   84MOL0     H11567   3.194   1.596   4.951  0.5025 -0.8499 -0.2312
   84MOL0     H11568   3.352   1.618   4.787  0.6119  0.0587 -1.1787
   84MOL0     H11569   3.321   1.802   4.784 -1.6683  0.3671  0.9755
   84MOL0     H11570   3.096   1.756   4.712 -0.1016  0.0203 -3.1972
   84MOL0     H11571   3.109   1.573   4.734  0.6306 -1.6252 -2.4859
   84MOL0     H11572   3.399   2.290   5.587  0.3850 -2.4290  0.4057
   84MOL0     H11573   3.567   2.468   5.685 -0.2564 -0.8045  1.2494
   84MOL0     H11574   4.200   2.586   5.603  0.8930 -0.9666 -0.5854
   84MOL0     H11575   4.323   2.753   5.720  0.4895 -1.0906  0.4190
   84MOL0     H11576   5.203   4.026   5.363 -1.9475  0.3926  2.4126
   84MOL0     H11577   5.354   4.152   5.201  0.1161 -1.4856  0.1934
   84MOL0     H11578   5.701   4.415   5.252  2.4740 -2.4522 -0.1491
   84MOL0     H11579   5.921   4.511   5.184  1.0701 -2.1975  0.6621
   84MOL0     H11580   5.947   4.726   5.021 -0.1105 -1.7526  0.8454
   84MOL0     H11581   6.084   4.641   5.068 -1.6397 -2.8100 -0.2755
   84MOL0     H11582   6.205   4.702   4.861  0.6980 -0.1716  2.3711
   84MOL0     H11583   6.141   4.856   4.926  0.8013  1.1670 -3.4693
   84MOL0     H11584   6.011   4.675   4.703 -0.8848  0.1846  0.8002
   84MOL0     H11585   5.955   4.838   4.749  0.1841  1.7832  0.0747
   84MOL0     H11586   6.239   4.800   4.640  0.9307  1.8505  0.6267
   84MOL0     H11587   6.166   4.953   4.672 -0.5752  0.6035 -0.8862
   84MOL0     H11588   6.022   4.878   4.286 -2.5276 -2.7188  1.3828
   84MOL0     H11589   5.817   4.516   4.786  0.4395  0.9939  0.7338
   84MOL0     H11590   5.583   4.272   4.793  0.3049 -0.2085 -0.5035
   84MOL0     H11591   5.472   4.420   4.819  0.5244  0.5696  0.6946
   84MOL0     H11592   5.611   4.417   4.708 -0.3856  0.0188 -0.0368
   85MOL0     O11593   8.112   0.603   0.827  0.2637  0.6431 -0.2152
   85MOL0     C11594   8.104   0.646   0.709  0.3951  0.2765 -0.4521
   85MOL0     O11595   8.213   0.688   0.635 -0.2614  0.2580  1.1641
   85MOL0     C11596   8.301   0.768   0.697  0.6385  0.0680 -0.5668
   85MOL0     C11597   8.291   0.910   0.727 -0.1111  0.5986 -0.9838
   85MOL0     C11598   8.390   0.978   0.804  0.2541  0.4247  0.3316
   85MOL0     C11599   8.505   0.923   0.849 -0.2125 -0.6757  0.5959
   85MOL0     O11600   8.597   1.005   0.906 -0.2910 -0.5966 -0.2296
   85MOL0     C11601   8.701   0.959   0.995  0.9460  0.2832 -0.3508
   85MOL0     C11602   8.830   1.049   0.984 -0.3900  0.6420  0.1573
   85MOL0     C11603   8.955   0.998   1.071  0.6178  0.0807 -0.8096
   85MOL0     C11604   9.079   1.084   1.044  0.6631 -0.0984 -0.3011
   85MOL0     C11605   9.205   1.038   1.120  0.1599 -0.4514 -0.7488
   85MOL0     C11606   9.335   1.122   1.092  0.1194  0.2353  0.4178
   85MOL0     C11607   9.438   1.093   1.195  0.1044  0.1980 -0.3945
   85MOL0     C11608   9.559   1.193   1.176 -0.3860 -0.1339  0.1283
   85MOL0     N11609   9.658   1.181   1.283 -0.6434 -0.4680 -0.2957
   85MOL0     C11610   9.753   1.086   1.305 -0.3928 -0.2610 -0.8101
   85MOL0     C11611   9.793   1.116   1.434  0.7752 -1.4878  0.7084
   85MOL0     C11612   9.888   1.040   1.518 -0.5031  0.2606  0.0667
   85MOL0     C11613   9.991   1.146   1.567  0.0158 -0.0260 -0.2974
   85MOL0     C11614  10.139   1.110   1.564  0.4873 -0.2974 -0.2870
   85MOL0     C11615  10.175   1.024   1.685  0.2887  0.7567 -0.6470
   85MOL0     O11616  10.320   1.001   1.697  0.1209 -0.3426 -0.6656
   85MOL0     C11617  10.394   1.080   1.784 -0.4956 -0.2714  0.1268
   85MOL0     C11618  10.353   1.194   1.849  0.3522  0.2425 -0.3335
   85MOL0     C11619  10.433   1.274   1.937  0.0000  0.1792 -0.2287
   85MOL0     C11620  10.370   1.402   2.004  0.1789  0.6531  0.1197
   85MOL0     C11621  10.565   1.232   1.959  2.0117  1.4829 -0.3317
   85MOL0     C11622  10.670   1.306   2.037 -0.8721 -0.9069  0.2548
   85MOL0     O11623  10.794   1.252   2.045  0.5390  0.2334 -0.4029
   85MOL0     C11624  10.899   1.281   2.131 -0.0582  0.5130  0.0270
   85MOL0     C11625  10.975   1.397   2.123  0.1002  0.0477  0.1454
   85MOL0     C11626  11.072   1.429   2.212 -0.0545  0.3733 -0.0000
   85MOL0     C11627  11.113   1.334   2.305 -0.1962 -0.0006 -0.5587
   85MOL0     O11628  11.206   1.374   2.393  0.5923  0.4928 -0.1976
   85MOL0     C11629  11.165   1.379   2.528 -0.2050 -0.5140 -0.9877
   85MOL0     C11630  11.223   1.499   2.601 -0.3214 -0.8733  0.2034
   85MOL0     C11631  11.373   1.508   2.595  0.0995  0.1079 -0.8239
   85MOL0     C11632  11.456   1.394   2.665  0.5248  0.2445 -0.0813
   85MOL0     C11633  11.477   1.427   2.813 -0.7631 -1.8688  0.5120
   85MOL0     C11634  11.619   1.409   2.850 -0.6185  0.0300 -0.3055
   85MOL0     C11635  11.648   1.452   2.993 -0.5674 -0.1583 -0.5004
   85MOL0     C11636  11.777   1.378   3.041  0.6370 -0.6850 -0.9074
   85MOL0    Cl11637  11.774   1.361   3.225 -0.0781 -0.0895  0.4176
   85MOL0     C11638  11.038   1.211   2.317  0.6358  0.5630 -0.1732
   85MOL0     C11639  10.935   1.186   2.229  0.0901  0.1365  1.0693
   85MOL0     O11640  10.644   1.423   2.084  0.0618 -0.2321 -0.1146
   85MOL0     C11641  10.598   1.114   1.888  0.6374  0.6753 -1.3259
   85MOL0     C11642  10.517   1.034   1.807 -0.9289 -0.8476 -0.4846
   85MOL0     N11643   9.725   1.231   1.485 -0.2256  0.4221 -0.5995
   85MOL0     N11644   9.645   1.263   1.387  0.1720 -0.3629 -0.1854
   85MOL0     C11645   8.526   0.790   0.797  0.1862 -1.0770 -0.3265
   85MOL0     C11646   8.423   0.719   0.723 -0.4521  0.2963 -0.1959
   85MOL0     C11647   7.964   0.659   0.655  0.2310 -0.2779  0.8323
   85MOL0     C11648   7.939   0.748   0.552  0.5666 -0.3651  0.3724
   85MOL0     C11649   7.812   0.781   0.504  0.8044  0.7069  0.7975
   85MOL0     C11650   7.695   0.723   0.561 -0.4967  0.7392  0.2027
   85MOL0     O11651   7.568   0.748   0.520 -0.3010  0.0593  0.1109
   85MOL0     C11652   7.543   0.871   0.451  0.0158 -0.8696  0.5435
   85MOL0     C11653   7.481   0.835   0.314 -0.7292 -0.5461  1.5454
   85MOL0     C11654   7.476   0.954   0.218 -0.6650  0.4109 -0.0851
   85MOL0     C11655   7.384   0.919   0.093  0.0028  0.2247 -0.6927
   85MOL0     C11656   7.375   1.036   0.002  0.3305  0.8097 -0.4464
   85MOL0     C11657   7.369   1.114  -0.086  0.0575  0.3343  0.3787
   85MOL0     C11658   7.718   0.629   0.661  0.6087 -0.3240 -0.4632
   85MOL0     C11659   7.848   0.593   0.699  0.3970  0.4008 -0.8463
   85MOL0     C11660   7.848   0.466   0.779 -1.2519 -0.6127 -0.5673
   85MOL0     H11661   8.205   0.962   0.685 -1.1842  1.8644  2.4052
   85MOL0     H11662   8.361   1.079   0.830  1.6445  0.9782 -0.1788
   85MOL0     H11663   8.725   0.855   0.970 -0.1215 -0.1290  0.2718
   85MOL0     H11664   8.655   0.969   1.094  0.0403 -1.8858 -0.5101
   85MOL0     H11665   8.841   1.076   0.878 -1.0684 -1.1446 -0.3981
   85MOL0     H11666   8.801   1.144   1.030 -1.8860  1.9342 -3.0987
   85MOL0     H11667   8.934   1.014   1.178 -1.0399 -1.0810 -0.9261
   85MOL0     H11668   8.975   0.894   1.044 -0.1869 -0.3152  0.0290
   85MOL0     H11669   9.107   1.070   0.939  2.4748  1.0458 -0.0140
   85MOL0     H11670   9.075   1.191   1.066  3.7966 -0.1191  0.8418
   85MOL0     H11671   9.230   0.940   1.078  1.0997 -0.8761  0.7194
   85MOL0     H11672   9.186   1.026   1.227 -0.1784 -0.8627 -0.8519
   85MOL0     H11673   9.372   1.100   0.991  1.6771 -0.4292  1.0934
   85MOL0     H11674   9.300   1.225   1.090  0.6238  0.4707  2.1422
   85MOL0     H11675   9.470   0.989   1.200 -0.9293 -0.1121  0.0515
   85MOL0     H11676   9.397   1.113   1.295 -0.1640 -3.7454  0.4319
   85MOL0     H11677   9.607   1.176   1.079  2.1401  2.8914  0.7053
   85MOL0     H11678   9.529   1.298   1.170 -0.1712 -0.1450 -3.6554
   85MOL0     H11679   9.782   0.999   1.247  2.2160  1.0814 -1.7073
   85MOL0     H11680   9.939   0.963   1.458 -0.3615 -1.4410  2.2596
   85MOL0     H11681   9.834   1.000   1.604 -1.6687  0.8934 -0.3544
   85MOL0     H11682   9.979   1.234   1.503  0.2090  0.2289  0.0131
   85MOL0     H11683   9.957   1.178   1.666 -0.1975  0.4023 -0.5037
   85MOL0     H11684  10.162   1.056   1.472  0.3243  1.0525 -1.1547
   85MOL0     H11685  10.202   1.199   1.573  2.3810 -1.4743 -1.3748
   85MOL0     H11686  10.134   1.065   1.778  0.5661 -1.6876  0.6306
   85MOL0     H11687  10.119   0.932   1.668  0.9524  0.5013 -1.5439
   85MOL0     H11688  10.266   1.238   1.801  0.0880 -1.5784 -1.5928
   85MOL0     H11689  10.395   1.492   1.947 -2.2944  3.8155  3.5461
   85MOL0     H11690  10.401   1.418   2.107 -0.1930  0.8099  0.2077
   85MOL0     H11691  10.261   1.397   2.003  0.1587  0.3542  1.5733
   85MOL0     H11692  10.943   1.450   2.034  2.0327 -2.3522 -2.1360
   85MOL0     H11693  11.132   1.519   2.202  1.7191 -1.0323 -3.7733
   85MOL0     H11694  11.058   1.399   2.534  0.4628  3.3049  0.7890
   85MOL0     H11695  11.185   1.289   2.587 -0.9242  0.0079  0.0783
   85MOL0     H11696  11.185   1.585   2.545  1.9859 -0.6823 -1.2315
   85MOL0     H11697  11.195   1.511   2.706  2.9415  0.9293  1.0140
   85MOL0     H11698  11.403   1.609   2.623  1.6890 -0.2402 -1.1500
   85MOL0     H11699  11.399   1.504   2.489 -0.2880 -0.2760 -0.9061
   85MOL0     H11700  11.551   1.376   2.614  0.1980 -0.9308 -0.3148
   85MOL0     H11701  11.407   1.298   2.643  1.1928  0.2493 -1.7664
   85MOL0     H11702  11.461   1.535   2.820 -1.3026 -1.9421  0.4923
   85MOL0     H11703  11.394   1.389   2.875 -1.0467  0.6808  1.8306
   85MOL0     H11704  11.673   1.483   2.790 -1.0392  0.1915 -0.4860
   85MOL0     H11705  11.659   1.311   2.821  3.3728  1.4402 -0.2580
   85MOL0     H11706  11.573   1.412   3.063 -0.5849 -0.9481 -0.9496
   85MOL0     H11707  11.668   1.557   3.014 -0.1579 -0.7817  2.6659
   85MOL0     H11708  11.870   1.428   3.011  0.1304  2.1994  1.7920
   85MOL0     H11709  11.781   1.272   3.015 -0.7444 -1.1606  0.6207
   85MOL0     H11710  11.037   1.156   2.410  1.5341  1.3018  0.2927
   85MOL0     H11711  10.879   1.093   2.240  1.5261 -0.6934  1.7415
   85MOL0     H11712  10.692   1.064   1.912 -0.1147  0.6959  2.1645
   85MOL0     H11713  10.550   0.938   1.768 -0.1040 -0.5861 -0.4412
   85MOL0     H11714   8.627   0.753   0.806  0.9987  0.8012 -1.3065
   85MOL0     H11715   8.436   0.617   0.689  0.1406 -0.3729  1.8959
   85MOL0     H11716   8.019   0.790   0.491 -1.1195 -1.0621 -2.5061
   85MOL0     H11717   7.798   0.841   0.414 -0.5204  0.4454  0.8120
   85MOL0     H11718   7.472   0.935   0.504 -0.3114 -0.9783  0.2411
   85MOL0     H11719   7.633   0.932   0.437 -0.6135  1.6385  5.4821
   85MOL0     H11720   7.388   0.777   0.313 -0.9271 -0.4443 -2.4120
   85MOL0     H11721   7.553   0.763   0.275  2.2654  1.2717  3.2778
   85MOL0     H11722   7.451   1.046   0.273  1.7423 -0.1576  2.1842
   85MOL0     H11723   7.577   0.974   0.181 -0.6309  1.0244  0.3209
   85MOL0     H11724   7.287   0.900   0.141  0.9606 -0.4590  1.0638
   85MOL0     H11725   7.423   0.830   0.043  0.5935 -1.1136  1.9751
   85MOL0     H11726   7.367   1.192  -0.159 -2.2930  0.6342  0.6952
   85MOL0     H11727   7.635   0.567   0.693  0.1127 -0.4608 -1.9645
   85MOL0     H11728   7.949   0.423   0.784 -1.3076 -0.6924 -0.0319
   85MOL0     H11729   7.816   0.497   0.879 -0.2491  2.0955 -0.9963
   85MOL0     H11730   7.786   0.390   0.731 -1.5947 -0.0437 -1.0381
   86MOL0     O11731   6.255   7.409  10.097  0.6223 -0.1488 -0.6945
   86MOL0     C11732   6.348   7.378  10.021 -0.2981  0.3792  0.1374
   86MOL0     O11733   6.479   7.391  10.042  0.8622  0.4989 -0.2312
   86MOL0     C11734   6.508   7.431  10.168 -1.0080 -0.1491 -0.8911
   86MOL0     C11735   6.580   7.552  10.192  0.2481  0.0794 -0.7164
   86MOL0     C11736   6.624   7.583  10.324  0.3247  0.1921  0.2182
   86MOL0     C11737   6.609   7.489  10.428 -0.6680  0.4504  0.7261
   86MOL0     O11738   6.663   7.528  10.547  0.3145 -0.3844 -0.1501
   86MOL0     C11739   6.742   7.432  10.621  0.5105  0.5914  0.6560
   86MOL0     C11740   6.859   7.377  10.539  0.7056  0.2875 -0.7836
   86MOL0     C11741   6.966   7.490  10.509 -0.1082 -0.2263  0.7904
   86MOL0     C11742   7.081   7.427  10.419 -0.4978  0.1808 -0.6194
   86MOL0     C11743   7.200   7.518  10.371  0.2579 -0.4438 -0.9030
   86MOL0     C11744   7.165   7.668  10.333  0.2559 -0.5950 -0.0315
   86MOL0     C11745   7.046   7.677  10.237 -1.3040  0.2351  0.7303
   86MOL0     C11746   6.977   7.812  10.250  0.2442 -0.3971  0.4181
   86MOL0     N11747   6.887   7.840  10.138  0.3170  0.0491  0.6125
   86MOL0     C11748   6.899   7.810  10.005 -0.0979 -0.3702  0.8248
   86MOL0     C11749   6.784   7.830   9.942  0.7165 -0.0200 -1.0607
   86MOL0     C11750   6.765   7.835   9.796 -0.5337 -0.1739 -1.3906
   86MOL0     C11751   6.611   7.842   9.766  0.4572 -0.6299  0.4341
   86MOL0     C11752   6.587   7.868   9.615 -0.0443  0.2254  1.1710
   86MOL0     C11753   6.443   7.861   9.580  0.7984 -0.3105 -0.2889
   86MOL0     O11754   6.387   7.737   9.603  0.2400 -0.4818 -0.0833
   86MOL0     C11755   6.253   7.726   9.576 -0.0425  0.3623  0.5624
   86MOL0     C11756   6.166   7.680   9.682  0.3706  0.8395  0.0401
   86MOL0     C11757   6.033   7.680   9.663  0.9259  0.4054 -0.7456
   86MOL0     C11758   5.949   7.627   9.785 -0.5350  0.1307 -0.9064
   86MOL0     C11759   5.982   7.709   9.528  0.1374  0.8957 -1.0450
   86MOL0     C11760   5.836   7.705   9.495 -0.3220 -0.2633  0.0709
   86MOL0     O11761   5.806   7.711   9.351 -0.1209  0.1048 -0.6693
   86MOL0     C11762   5.680   7.690   9.320 -0.1344 -0.2455  1.4130
   86MOL0     C11763   5.630   7.575   9.261 -1.1662  0.0258  0.5900
   86MOL0     C11764   5.492   7.563   9.227  0.8662 -0.6601 -0.7739
   86MOL0     C11765   5.414   7.678   9.233 -0.7706 -0.3180 -0.5223
   86MOL0     O11766   5.287   7.673   9.188  1.5593 -0.2208  0.6889
   86MOL0     C11767   5.165   7.736   9.255  1.2030  0.2676  0.2323
   86MOL0     C11768   5.102   7.605   9.303 -0.1100  0.4453 -0.2470
   86MOL0     C11769   5.026   7.536   9.193  0.5677  0.4356  0.0655
   86MOL0     C11770   5.098   7.442   9.104  0.5354  0.1227 -0.5900
   86MOL0     C11771   5.003   7.359   9.011  0.2003  0.8262 -0.4467
   86MOL0     C11772   5.078   7.249   8.932 -0.0567 -0.9614  0.6793
   86MOL0     C11773   5.173   7.301   8.823 -0.2578 -0.3012 -0.0286
   86MOL0     C11774   5.097   7.343   8.702  0.1397 -0.3405  0.5870
   86MOL0    Cl11775   5.217   7.391   8.575 -0.1798  0.8266  0.0850
   86MOL0     C11776   5.464   7.792   9.292  0.5550  0.8405  0.0425
   86MOL0     C11777   5.593   7.801   9.334 -0.5831 -0.6012  0.1441
   86MOL0     O11778   5.750   7.696   9.586  1.0261  0.2509  0.2499
   86MOL0     C11779   6.070   7.750   9.429 -0.4463 -0.6179  0.3669
   86MOL0     C11780   6.202   7.755   9.454 -0.0547 -1.1702  0.4024
   86MOL0     N11781   6.704   7.897  10.036 -0.0219 -0.4469  0.1384
   86MOL0     N11782   6.765   7.893  10.148 -0.0350 -0.2575 -0.0604
   86MOL0     C11783   6.538   7.372  10.405  0.3357  0.4175  0.5108
   86MOL0     C11784   6.485   7.342  10.273 -0.3557  0.0856 -0.4156
   86MOL0     C11785   6.286   7.342   9.877  0.3007 -0.3198  0.2343
   86MOL0     C11786   6.147   7.280   9.874 -1.3329 -0.0219 -0.3176
   86MOL0     C11787   6.101   7.258   9.748  0.7929  0.2560  1.0180
   86MOL0     C11788   6.169   7.283   9.630  1.4259 -0.4026 -0.3095
   86MOL0     O11789   6.110   7.237   9.514  0.4057 -0.0527  0.4780
   86MOL0     C11790   6.111   7.325   9.404 -1.1237 -0.5001  0.4034
   86MOL0     C11791   6.033   7.261   9.295 -0.1954 -0.7007  0.5569
   86MOL0     C11792   5.917   7.348   9.249 -0.5478  0.2544  0.5561
   86MOL0     C11793   5.869   7.278   9.118  0.2611 -0.5154 -0.9118
   86MOL0     C11794   5.809   7.143   9.128 -0.5122  0.0727  0.1529
   86MOL0     C11795   5.770   7.031   9.143 -0.6972  0.2612 -0.0677
   86MOL0     C11796   6.289   7.349   9.631 -0.0093  0.7586 -0.0945
   86MOL0     C11797   6.359   7.378   9.756 -0.1518  0.2118  0.3701
   86MOL0     C11798   6.489   7.443   9.754 -0.7240  1.0762  0.3344
   86MOL0     H11799   6.605   7.623  10.114 -0.4668  0.9560 -0.1766
   86MOL0     H11800   6.690   7.666  10.346  2.7779 -1.8548  0.9694
   86MOL0     H11801   6.681   7.355  10.667 -0.6980  0.5511 -0.9240
   86MOL0     H11802   6.786   7.485  10.706  3.0496 -0.7610  0.3022
   86MOL0     H11803   6.898   7.304  10.611  1.8852 -0.8590 -2.5050
   86MOL0     H11804   6.816   7.320  10.456  0.8055 -1.4111  0.2933
   86MOL0     H11805   6.917   7.571  10.454  2.1209 -1.1008 -2.8362
   86MOL0     H11806   7.011   7.519  10.604  0.8080 -2.8612  1.2732
   86MOL0     H11807   7.114   7.334  10.466 -0.6319  1.1566  1.5460
   86MOL0     H11808   7.025   7.396  10.331 -0.4568 -1.1532 -0.1954
   86MOL0     H11809   7.245   7.476  10.280 -1.1837  1.1531 -2.4475
   86MOL0     H11810   7.274   7.516  10.451 -0.4385 -2.0232 -0.2481
   86MOL0     H11811   7.146   7.719  10.428 -2.2823 -0.7900 -0.3487
   86MOL0     H11812   7.257   7.704  10.285 -0.0268 -0.2146 -0.2969
   86MOL0     H11813   6.972   7.602  10.266  0.9090 -2.5883 -0.5153
   86MOL0     H11814   7.082   7.659  10.135  0.1495  0.3339  1.1993
   86MOL0     H11815   6.924   7.816  10.345 -1.3280  3.6880 -0.4428
   86MOL0     H11816   7.052   7.891  10.247  0.5644 -0.7158 -1.0195
   86MOL0     H11817   6.988   7.781   9.949 -0.3549  2.3072 -1.1781
   86MOL0     H11818   6.810   7.754   9.737 -2.5099 -0.6665 -2.2885
   86MOL0     H11819   6.816   7.925   9.762 -0.3008 -0.7277 -2.5391
   86MOL0     H11820   6.567   7.744   9.788 -0.5710 -0.0569  1.0255
   86MOL0     H11821   6.562   7.920   9.826  0.7602 -0.6759  0.7414
   86MOL0     H11822   6.625   7.968   9.588 -0.5922 -0.1894 -1.3674
   86MOL0     H11823   6.639   7.790   9.560  3.8302  2.0356  1.9237
   86MOL0     H11824   6.394   7.941   9.636 -1.7864 -1.6591 -0.4596
   86MOL0     H11825   6.433   7.882   9.473  1.7438 -1.3271 -0.6011
   86MOL0     H11826   6.203   7.665   9.783 -1.6068  0.8049  0.8088
   86MOL0     H11827   6.011   7.576   9.859 -2.2077 -0.2273  0.3078
   86MOL0     H11828   5.891   7.540   9.753  1.5610 -0.9214 -2.0384
   86MOL0     H11829   5.888   7.703   9.835  0.3334  0.8833 -0.9478
   86MOL0     H11830   5.690   7.488   9.238 -0.6215  0.5724 -0.1089
   86MOL0     H11831   5.460   7.472   9.178  1.1477  0.1542 -2.5854
   86MOL0     H11832   5.197   7.800   9.339  0.5748 -0.0588  0.7268
   86MOL0     H11833   5.100   7.799   9.193 -0.4327 -0.4262  1.1806
   86MOL0     H11834   5.178   7.537   9.342  0.6694  1.1465 -0.5208
   86MOL0     H11835   5.029   7.625   9.383  2.4356  1.9800  1.8488
   86MOL0     H11836   4.987   7.615   9.128  1.6216  2.7426  2.0842
   86MOL0     H11837   4.942   7.489   9.246 -2.7077  2.0929 -3.1647
   86MOL0     H11838   5.149   7.365   9.163  0.2498  1.7009  1.8645
   86MOL0     H11839   5.182   7.487   9.051  0.2216 -1.9351 -3.0235
   86MOL0     H11840   4.924   7.301   9.060  1.2562 -1.0637 -0.9009
   86MOL0     H11841   4.957   7.432   8.944  1.9609  0.3223 -2.3087
   86MOL0     H11842   5.019   7.165   8.895 -0.8524  0.3888 -1.3079
   86MOL0     H11843   5.148   7.196   8.997  0.9108 -3.0290 -1.8551
   86MOL0     H11844   5.231   7.216   8.786 -0.0354  0.9108 -2.6453
   86MOL0     H11845   5.246   7.372   8.862  0.6072 -2.1890  2.0535
   86MOL0     H11846   5.038   7.434   8.716  1.8340  1.2250 -1.6954
   86MOL0     H11847   5.049   7.251   8.665  2.4493 -2.4513  2.5093
   86MOL0     H11848   5.418   7.886   9.319  3.0994  1.4747  2.6502
   86MOL0     H11849   5.634   7.892   9.375 -0.4611 -1.3255  1.7009
   86MOL0     H11850   6.038   7.777   9.329  0.8456  3.9918  0.9593
   86MOL0     H11851   6.273   7.775   9.374  0.5059  1.3837  1.4409
   86MOL0     H11852   6.514   7.306  10.488  2.2997 -0.1449  0.6920
   86MOL0     H11853   6.440   7.246  10.250 -2.7788  0.7251  1.2870
   86MOL0     H11854   6.081   7.265   9.959 -2.0576 -1.3089 -1.0732
   86MOL0     H11855   6.015   7.193   9.739  2.2313 -1.7096  0.5305
   86MOL0     H11856   6.063   7.418   9.437  1.7977  2.2296 -2.2903
   86MOL0     H11857   6.206   7.361   9.365 -0.7526 -0.3889  1.3801
   86MOL0     H11858   5.988   7.164   9.321 -1.2796 -0.2215  0.5278
   86MOL0     H11859   6.105   7.252   9.213  1.2782 -1.2178  1.8428
   86MOL0     H11860   5.840   7.360   9.326  0.0412  0.0514  1.1894
   86MOL0     H11861   5.954   7.448   9.226 -0.1117 -0.0888 -0.2779
   86MOL0     H11862   5.948   7.291   9.043 -0.1315 -1.1184 -1.4469
   86MOL0     H11863   5.784   7.339   9.087  1.5983  0.3562 -3.0680
   86MOL0     H11864   5.720   6.938   9.163  0.0878 -0.5598 -1.7313
   86MOL0     H11865   6.337   7.366   9.535 -2.8032  0.9035 -1.5872
   86MOL0     H11866   6.494   7.540   9.804  2.1815  1.1511  0.1014
   86MOL0     H11867   6.558   7.368   9.795 -1.2970 -0.2394 -1.0250
   86MOL0     H11868   6.513   7.457   9.648  0.2029 -1.3172  0.1471
   87MOL0     O11869   0.377   6.193   9.456  1.0034  0.1469 -0.1075
   87MOL0     C11870   0.457   6.280   9.495  0.4863  0.0253 -0.1373
   87MOL0     O11871   0.452   6.419   9.451 -0.1440  0.4507 -0.5613
   87MOL0     C11872   0.352   6.453   9.368  0.4953 -0.0806  1.0148
   87MOL0     C11873   0.361   6.424   9.226  0.2058 -0.2482 -0.9274
   87MOL0     C11874   0.261   6.469   9.148  0.3811 -0.4446  0.3557
   87MOL0     C11875   0.143   6.532   9.203  1.5589  0.5160  0.0190
   87MOL0     O11876   0.026   6.551   9.134 -0.5189  0.4520 -0.1049
   87MOL0     C11877  -0.013   6.456   9.028  0.4147  0.0640 -0.7046
   87MOL0     C11878  -0.159   6.408   9.034  0.2122  0.2340 -0.3127
   87MOL0     C11879  -0.252   6.507   8.962 -0.0595  0.8334 -0.4893
   87MOL0     C11880  -0.398   6.444   8.972 -1.4025 -0.5478 -0.4725
   87MOL0     C11881  -0.501   6.549   8.937  0.3186 -0.6070  0.2147
   87MOL0     C11882  -0.640   6.500   8.987  0.8988  0.5470 -0.2272
   87MOL0     C11883  -0.745   6.618   8.972 -0.2009  0.0334 -0.1870
   87MOL0     C11884  -0.880   6.587   9.029 -1.0222  0.3379  0.2919
   87MOL0     N11885  -0.955   6.516   8.924  0.5159  0.6404  0.4464
   87MOL0     C11886  -0.956   6.377   8.920  0.0458 -1.0331  0.5299
   87MOL0     C11887  -1.059   6.350   8.837  0.2813 -0.4035  0.5218
   87MOL0     C11888  -1.122   6.216   8.802  0.2961  0.0026 -0.6485
   87MOL0     C11889  -1.269   6.213   8.814 -0.5161  0.0906  0.7340
   87MOL0     C11890  -1.337   6.275   8.936  0.4737  0.0706 -0.6412
   87MOL0     C11891  -1.487   6.254   8.963 -0.1562 -0.0104 -1.2532
   87MOL0     O11892  -1.575   6.316   8.871  0.5711  0.1671 -1.0017
   87MOL0     C11893  -1.688   6.237   8.841 -1.2669  0.1701 -0.4497
   87MOL0     C11894  -1.718   6.202   8.714  0.4356 -0.5039  0.0242
   87MOL0     C11895  -1.835   6.115   8.691  0.8639 -0.3351 -0.4743
   87MOL0     C11896  -1.864   6.076   8.551 -0.3341 -0.5958 -0.6177
   87MOL0     C11897  -1.933   6.091   8.796  0.5238 -0.5643 -0.2245
   87MOL0     C11898  -2.074   6.037   8.772 -0.2985 -0.0395  0.8766
   87MOL0     O11899  -2.135   5.971   8.876 -0.2771 -0.2014  0.1250
   87MOL0     C11900  -2.256   5.914   8.861  0.3461  0.1111 -0.4728
   87MOL0     C11901  -2.281   5.803   8.777 -0.0171  0.3374  1.0855
   87MOL0     C11902  -2.417   5.761   8.766 -0.1345  0.0823  1.3129
   87MOL0     C11903  -2.532   5.816   8.832  0.4143 -0.2688 -0.7858
   87MOL0     O11904  -2.660   5.777   8.808  0.6571  0.1216  0.2071
   87MOL0     C11905  -2.698   5.646   8.850 -0.0572 -0.1733 -0.2461
   87MOL0     C11906  -2.846   5.610   8.826 -0.8296  0.2482 -0.5073
   87MOL0     C11907  -2.882   5.477   8.890 -0.2922  0.8790  0.2932
   87MOL0     C11908  -2.908   5.476   9.044 -0.2400  0.2401  0.0613
   87MOL0     C11909  -3.023   5.549   9.102 -0.2121  0.3153 -0.5771
   87MOL0     C11910  -3.156   5.465   9.085 -0.2408  0.1625 -1.4089
   87MOL0     C11911  -3.277   5.556   9.127  0.5512 -0.0803  0.0308
   87MOL0     C11912  -3.328   5.645   9.010 -0.2393  0.5864 -0.1175
   87MOL0    Cl11913  -3.454   5.755   9.055  0.2067  0.4749 -0.3512
   87MOL0     C11914  -2.496   5.918   8.928 -0.6605  0.3420  0.4860
   87MOL0     C11915  -2.365   5.961   8.935  0.0731 -0.3421 -0.2821
   87MOL0     O11916  -2.126   6.060   8.662 -0.4783 -0.5313  0.2051
   87MOL0     C11917  -1.892   6.120   8.924  0.5236  0.4303 -0.3409
   87MOL0     C11918  -1.774   6.195   8.946 -0.5006 -0.1878 -0.6343
   87MOL0     N11919  -1.099   6.464   8.777 -0.2314 -0.3179 -0.0634
   87MOL0     N11920  -1.032   6.561   8.825 -0.1204 -0.7474 -0.0589
   87MOL0     C11921   0.129   6.545   9.346 -0.6238  0.1857 -0.4241
   87MOL0     C11922   0.245   6.505   9.427 -0.1224 -1.2580 -0.8103
   87MOL0     C11923   0.547   6.251   9.612 -0.6662 -0.1676 -0.2924
   87MOL0     C11924   0.581   6.354   9.712  0.2868  0.0337  0.5004
   87MOL0     C11925   0.640   6.333   9.836  0.4804  0.8136  0.2880
   87MOL0     C11926   0.674   6.208   9.877 -0.2376 -0.0027  0.2312
   87MOL0     O11927   0.765   6.181   9.975 -0.0804 -0.2306 -0.4852
   87MOL0     C11928   0.817   6.283  10.060 -0.5553 -0.1112 -0.2584
   87MOL0     C11929   0.720   6.342  10.164  0.5863  1.1879 -1.1651
   87MOL0     C11930   0.709   6.254  10.291  0.1139 -0.4517  0.8660
   87MOL0     C11931   0.605   6.317  10.393 -0.3006  0.3341 -0.5881
   87MOL0     C11932   0.603   6.254  10.526 -0.7117 -0.8023 -0.2317
   87MOL0     C11933   0.595   6.209  10.635  0.2429  0.2173 -0.0542
   87MOL0     C11934   0.645   6.107   9.790  0.5953  0.4637 -0.4117
   87MOL0     C11935   0.585   6.121   9.660  0.1059 -0.9525 -0.1686
   87MOL0     C11936   0.567   5.995   9.583  0.6780  0.1276 -1.0668
   87MOL0     H11937   0.449   6.368   9.196  0.6101  0.2609 -0.7045
   87MOL0     H11938   0.285   6.454   9.043 -0.3782 -2.7058  0.4647
   87MOL0     H11939   0.048   6.366   9.040  0.3624  0.3536  2.5972
   87MOL0     H11940   0.012   6.497   8.930 -0.1750  2.0685 -0.0722
   87MOL0     H11941  -0.169   6.316   8.975 -1.7361 -0.2872  0.7568
   87MOL0     H11942  -0.192   6.385   9.136  2.3003 -0.8490  0.1682
   87MOL0     H11943  -0.240   6.612   8.992 -4.0598  1.4156 -0.3217
   87MOL0     H11944  -0.222   6.503   8.857 -1.3387  0.6037 -0.8662
   87MOL0     H11945  -0.402   6.351   8.914 -0.3771 -0.7890 -0.1694
   87MOL0     H11946  -0.416   6.421   9.077  0.6559  0.6351  0.1884
   87MOL0     H11947  -0.502   6.555   8.828 -1.2188 -3.9265 -0.0868
   87MOL0     H11948  -0.483   6.647   8.983  0.8681  0.5292 -2.2747
   87MOL0     H11949  -0.671   6.408   8.937 -0.6284 -1.2241  3.6322
   87MOL0     H11950  -0.622   6.482   9.093 -1.3093  1.0796  0.2913
   87MOL0     H11951  -0.760   6.660   8.872 -0.9367  1.7665  0.5988
   87MOL0     H11952  -0.695   6.694   9.033  4.4076 -0.9881 -2.2627
   87MOL0     H11953  -0.869   6.536   9.125  0.2057  1.0369  0.5408
   87MOL0     H11954  -0.928   6.682   9.056  1.9665  1.6625  1.3236
   87MOL0     H11955  -0.897   6.307   8.979  1.2291  0.6324  1.4041
   87MOL0     H11956  -1.069   6.133   8.849  1.4215  0.2565 -1.4349
   87MOL0     H11957  -1.089   6.204   8.698  1.1661  2.5772 -0.7520
   87MOL0     H11958  -1.306   6.267   8.727  2.0110 -1.4628 -1.4622
   87MOL0     H11959  -1.295   6.110   8.786 -1.6866  0.7342 -0.6825
   87MOL0     H11960  -1.280   6.243   9.023  1.3271 -0.3533 -1.3366
   87MOL0     H11961  -1.320   6.383   8.934  2.0083 -0.1558 -2.1662
   87MOL0     H11962  -1.503   6.146   8.973 -0.7107  0.2773  2.3483
   87MOL0     H11963  -1.514   6.286   9.064  0.3204 -2.6258 -0.2024
   87MOL0     H11964  -1.657   6.233   8.630 -0.7777  3.3606  0.3711
   87MOL0     H11965  -1.941   6.136   8.503 -0.3703 -0.4850 -0.4218
   87MOL0     H11966  -1.890   5.971   8.537  0.2101 -0.5680 -2.0480
   87MOL0     H11967  -1.771   6.099   8.497  1.1060 -0.4435  1.7554
   87MOL0     H11968  -2.209   5.743   8.722 -3.2241 -1.7720 -1.2494
   87MOL0     H11969  -2.424   5.682   8.692  1.3938  0.9971  0.1494
   87MOL0     H11970  -2.640   5.576   8.790 -0.4412  0.6203 -1.5899
   87MOL0     H11971  -2.666   5.638   8.954  1.8831 -0.1505 -0.8052
   87MOL0     H11972  -2.912   5.686   8.869 -0.5985 -1.0885  2.4627
   87MOL0     H11973  -2.849   5.607   8.717  1.8767  1.1154 -0.6834
   87MOL0     H11974  -2.796   5.415   8.863 -0.2932  1.4994 -1.2488
   87MOL0     H11975  -2.966   5.436   8.834  0.9201 -1.7838  0.2453
   87MOL0     H11976  -2.823   5.533   9.083 -1.1466  2.7845 -1.4653
   87MOL0     H11977  -2.911   5.372   9.077  0.8751  0.4582  0.9044
   87MOL0     H11978  -2.985   5.563   9.203  3.1117 -4.0145 -0.9469
   87MOL0     H11979  -3.027   5.646   9.050  0.7707  1.0211  0.6005
   87MOL0     H11980  -3.155   5.390   9.165 -0.1261 -0.1172 -1.6736
   87MOL0     H11981  -3.165   5.419   8.986 -1.7347 -1.9752 -0.3703
   87MOL0     H11982  -3.240   5.624   9.204 -0.2168  2.2397 -1.5518
   87MOL0     H11983  -3.362   5.507   9.177 -0.6494  1.7278 -0.1188
   87MOL0     H11984  -3.378   5.572   8.946 -0.5151  0.4084  0.2989
   87MOL0     H11985  -3.250   5.694   8.950  1.0528 -0.7085  0.4366
   87MOL0     H11986  -2.574   5.970   8.984  0.2793  1.3968  0.8471
   87MOL0     H11987  -2.352   6.051   8.993 -0.9359 -0.8116  0.6964
   87MOL0     H11988  -1.958   6.102   9.008  2.3044  1.0539  1.2520
   87MOL0     H11989  -1.769   6.219   9.051 -1.2244 -0.9645 -0.4173
   87MOL0     H11990   0.040   6.572   9.402 -1.3995 -2.3537 -0.3089
   87MOL0     H11991   0.223   6.518   9.532  0.1308  3.0587 -1.1213
   87MOL0     H11992   0.557   6.458   9.693  0.5850  0.6140  3.0041
   87MOL0     H11993   0.661   6.428   9.884 -0.7511  0.6032  1.2950
   87MOL0     H11994   0.906   6.251  10.115  1.1963  3.9825 -0.2961
   87MOL0     H11995   0.860   6.365  10.001  2.3485  1.1472  3.2483
   87MOL0     H11996   0.620   6.363  10.125 -0.8870 -1.9347  0.5260
   87MOL0     H11997   0.762   6.433  10.207  1.1576 -0.8796  3.1522
   87MOL0     H11998   0.677   6.154  10.260  3.2358 -0.6437 -2.3660
   87MOL0     H11999   0.807   6.240  10.339 -1.9489 -0.2945  5.6580
   87MOL0     H12000   0.509   6.318  10.341  0.8693 -2.2994 -3.0332
   87MOL0     H12001   0.635   6.419  10.421  0.1504  0.8191 -2.6483
   87MOL0     H12002   0.585   6.159  10.729  0.1840 -0.4477 -0.4044
   87MOL0     H12003   0.668   6.009   9.830 -2.4805 -1.0244 -1.9249
   87MOL0     H12004   0.595   6.016   9.479  3.0291  2.8090 -0.0449
   87MOL0     H12005   0.625   5.908   9.617 -1.5169 -0.5342  1.3797
   87MOL0     H12006   0.463   5.961   9.591  1.7556 -3.1544  2.3938
   88MOL0     O12007   1.541   1.649  10.970 -0.2548  0.4470 -0.0530
   88MOL0     C12008   1.664   1.653  10.953 -0.4294 -0.1689  0.1539
   88MOL0     O12009   1.742   1.763  10.993 -0.0210  0.3132  0.3253
   88MOL0     C12010   1.698   1.849  11.086  0.5466 -0.3054 -0.5664
   88MOL0     C12011   1.761   1.980  11.074 -0.1854  0.8125  0.0378
   88MOL0     C12012   1.730   2.081  11.165 -0.0127 -0.3345  0.1367
   88MOL0     C12013   1.653   2.050  11.281 -0.4331 -0.3802  0.1340
   88MOL0     O12014   1.639   2.154  11.368 -0.2106  0.3031 -0.1218
   88MOL0     C12015   1.551   2.147  11.482  1.3167  0.1091  0.7363
   88MOL0     C12016   1.402   2.133  11.432 -0.0986  0.6451  0.6605
   88MOL0     C12017   1.347   2.255  11.353  0.0805  0.7999 -0.4859
   88MOL0     C12018   1.192   2.249  11.341  0.7837  0.0178  0.9001
   88MOL0     C12019   1.135   2.352  11.237 -0.5612  0.2444 -0.6183
   88MOL0     C12020   0.997   2.312  11.206  0.7402 -0.0691  0.6528
   88MOL0     C12021   0.934   2.419  11.113  0.5099  0.2291  0.7915
   88MOL0     C12022   0.805   2.353  11.040  0.3374  0.1360  0.3770
   88MOL0     N12023   0.707   2.300  11.134  0.2725 -0.5977  0.2768
   88MOL0     C12024   0.652   2.362  11.238 -0.7842 -0.1858 -0.1308
   88MOL0     C12025   0.535   2.294  11.265  0.6836  0.0608 -0.3182
   88MOL0     C12026   0.423   2.330  11.360 -0.4312  0.1346 -0.2398
   88MOL0     C12027   0.412   2.237  11.486  0.6371 -0.1471  0.6896
   88MOL0     C12028   0.266   2.237  11.531 -0.2602  0.3701  0.0780
   88MOL0     C12029   0.240   2.150  11.657  0.3117 -0.4925 -0.1135
   88MOL0     O12030   0.191   2.026  11.605 -0.1629 -0.1564 -0.6075
   88MOL0     C12031   0.142   1.928  11.689 -0.6316  0.5990  0.6444
   88MOL0     C12032   0.094   1.806  11.630  0.0813 -0.8932 -0.8063
   88MOL0     C12033   0.040   1.701  11.697  0.3714  0.5314  0.4593
   88MOL0     C12034  -0.021   1.586  11.609  0.2581  0.3286 -0.2297
   88MOL0     C12035   0.034   1.712  11.842 -0.8741 -0.7635 -1.0392
   88MOL0     C12036  -0.028   1.626  11.935 -0.2309 -0.4595  0.1626
   88MOL0     O12037  -0.094   1.689  12.030  0.2486  0.5530 -0.1082
   88MOL0     C12038  -0.139   1.628  12.141 -0.3099  0.4130 -0.7062
   88MOL0     C12039  -0.094   1.671  12.264 -0.8517  0.4587  0.7930
   88MOL0     C12040  -0.115   1.600  12.384 -0.4302  0.6305 -0.7888
   88MOL0     C12041  -0.199   1.487  12.384 -0.0015 -0.7322 -0.1977
   88MOL0     O12042  -0.216   1.414  12.493  0.7907 -0.0694  0.6240
   88MOL0     C12043  -0.148   1.439  12.617  0.2345  0.4768 -0.1876
   88MOL0     C12044  -0.198   1.344  12.725  0.0123  1.2138 -0.1044
   88MOL0     C12045  -0.215   1.402  12.867  0.2517  0.4384  0.6267
   88MOL0     C12046  -0.361   1.441  12.879 -1.3046 -0.1922  0.5555
   88MOL0     C12047  -0.395   1.491  13.018  0.6523  0.9502 -0.8560
   88MOL0     C12048  -0.549   1.504  13.027 -0.4460 -0.1851  0.2935
   88MOL0     C12049  -0.634   1.374  13.026 -0.8112  0.2941 -0.3518
   88MOL0     C12050  -0.613   1.285  13.153 -0.5254 -0.5798  0.1200
   88MOL0    Cl12051  -0.705   1.350  13.280 -0.5926  0.2467  0.4684
   88MOL0     C12052  -0.245   1.448  12.265 -1.1693 -0.7994  0.5085
   88MOL0     C12053  -0.212   1.510  12.143  0.9190 -0.4477 -0.3573
   88MOL0     O12054  -0.025   1.502  11.917 -0.4683  0.7758  0.3068
   88MOL0     C12055   0.088   1.824  11.901 -0.3533 -0.7212 -0.2029
   88MOL0     C12056   0.151   1.931  11.825  0.9614  0.0349 -0.7758
   88MOL0     N12057   0.525   2.182  11.177  0.9852 -0.1972  0.4178
   88MOL0     N12058   0.626   2.197  11.094  0.5700  0.1494  0.7608
   88MOL0     C12059   1.607   1.922  11.303  0.7624 -0.3745 -0.1275
   88MOL0     C12060   1.617   1.830  11.206 -0.8984  1.0812 -0.4528
   88MOL0     C12061   1.743   1.547  10.880  0.1282 -0.2193  0.3424
   88MOL0     C12062   1.850   1.585  10.794 -0.1444 -0.5199  0.4072
   88MOL0     C12063   1.914   1.482  10.709 -0.0404 -0.2291 -0.3776
   88MOL0     C12064   1.873   1.356  10.711  0.7210 -0.4158  0.8517
   88MOL0     O12065   1.941   1.272  10.630 -0.2254 -0.7934 -0.7849
   88MOL0     C12066   1.903   1.137  10.623  0.4824  0.3180 -0.3298
   88MOL0     C12067   1.987   1.079  10.501  0.1509  0.6663 -0.4481
   88MOL0     C12068   2.137   1.104  10.521 -0.2269 -0.5885  1.0080
   88MOL0     C12069   2.220   1.039  10.413 -0.0918  0.7796  0.6085
   88MOL0     C12070   2.360   1.063  10.442 -0.3844  0.1883  0.0450
   88MOL0     C12071   2.473   1.104  10.457  0.0235  0.5669 -1.5431
   88MOL0     C12072   1.769   1.322  10.797 -0.2212 -0.1061 -0.1489
   88MOL0     C12073   1.692   1.414  10.868  0.5584  0.3315 -0.2159
   88MOL0     C12074   1.577   1.364  10.954  0.6731 -0.1997 -0.0485
   88MOL0     H12075   1.818   1.993  10.983  1.5775  0.0505  0.9886
   88MOL0     H12076   1.766   2.184  11.164 -2.2883  0.5350  1.3378
   88MOL0     H12077   1.564   2.237  11.543  3.4650 -0.3180  1.0029
   88MOL0     H12078   1.583   2.078  11.561 -0.1579 -0.9255  0.4479
   88MOL0     H12079   1.389   2.042  11.372 -3.9894 -0.8113  3.3164
   88MOL0     H12080   1.330   2.114  11.512 -3.4968 -2.7909 -2.8038
   88MOL0     H12081   1.375   2.351  11.398  0.6186  1.1786 -1.5895
   88MOL0     H12082   1.383   2.253  11.250  0.0484 -0.8401 -0.5010
   88MOL0     H12083   1.180   2.148  11.301  3.9363 -0.1377  0.1102
   88MOL0     H12084   1.134   2.264  11.432 -1.4863  4.1777 -0.9254
   88MOL0     H12085   1.197   2.352  11.146  3.7202  1.7895  1.9922
   88MOL0     H12086   1.143   2.451  11.282 -0.9076 -0.5689  1.3588
   88MOL0     H12087   0.996   2.219  11.149  1.8860  0.3454 -0.0602
   88MOL0     H12088   0.936   2.307  11.297 -0.6841  3.0521 -0.0306
   88MOL0     H12089   1.001   2.450  11.032 -0.0178  0.8047  0.5682
   88MOL0     H12090   0.900   2.493  11.185 -1.3065 -2.7743  3.2931
   88MOL0     H12091   0.755   2.432  10.983 -1.3047  0.3812  2.0603
   88MOL0     H12092   0.836   2.280  10.965  0.5989 -2.3573  2.7364
   88MOL0     H12093   0.684   2.458  11.277  1.6985 -1.9077  2.4904
   88MOL0     H12094   0.333   2.315  11.300 -0.4125 -3.0930  0.3579
   88MOL0     H12095   0.426   2.429  11.407  0.1863 -0.9680  2.2543
   88MOL0     H12096   0.445   2.134  11.467 -2.2978 -1.2146  0.8315
   88MOL0     H12097   0.478   2.277  11.564  1.3111 -0.7664  0.4502
   88MOL0     H12098   0.249   2.340  11.564 -0.0799  0.5458 -0.3855
   88MOL0     H12099   0.193   2.208  11.455 -0.9415 -1.5331  1.3760
   88MOL0     H12100   0.335   2.128  11.707 -0.4603  0.5221  1.8920
   88MOL0     H12101   0.169   2.197  11.724  0.6221 -0.0094 -0.1205
   88MOL0     H12102   0.105   1.818  11.523  2.6794  2.7135 -0.3421
   88MOL0     H12103  -0.113   1.611  11.554 -0.9535 -3.4272 -0.1655
   88MOL0     H12104  -0.038   1.496  11.669 -1.8325 -0.1913 -1.4709
   88MOL0     H12105   0.057   1.552  11.541  0.0828  0.6296 -0.5856
   88MOL0     H12106  -0.023   1.752  12.255 -0.4215 -0.1447 -3.4953
   88MOL0     H12107  -0.073   1.646  12.473 -0.1612  0.1016 -0.6381
   88MOL0     H12108  -0.040   1.442  12.605  0.3996  1.1130  1.2301
   88MOL0     H12109  -0.185   1.541  12.637 -0.9283  0.7579 -3.2785
   88MOL0     H12110  -0.299   1.322  12.688  0.4690  1.9169 -1.8447
   88MOL0     H12111  -0.132   1.258  12.739 -0.0053  1.0147 -1.1816
   88MOL0     H12112  -0.153   1.490  12.886 -1.7455  1.9796  0.3516
   88MOL0     H12113  -0.196   1.326  12.943 -0.5632  0.4234  0.8206
   88MOL0     H12114  -0.427   1.357  12.858 -1.5616  0.2336 -0.3677
   88MOL0     H12115  -0.382   1.518  12.805 -2.0144  0.8334  1.7675
   88MOL0     H12116  -0.366   1.412  13.089 -1.8819 -1.4269 -2.2623
   88MOL0     H12117  -0.344   1.581  13.053  1.0157  2.0707 -3.9751
   88MOL0     H12118  -0.572   1.564  12.938  1.7967 -3.5720 -2.8479
   88MOL0     H12119  -0.561   1.567  13.115  2.3926  1.9934 -0.7165
   88MOL0     H12120  -0.596   1.312  12.944 -0.7219 -1.7315  1.1306
   88MOL0     H12121  -0.738   1.392  12.996 -0.0428  0.0978 -3.4592
   88MOL0     H12122  -0.508   1.268  13.176 -0.7779 -3.5982 -0.5672
   88MOL0     H12123  -0.655   1.186  13.133 -0.6671 -1.2235  3.0991
   88MOL0     H12124  -0.305   1.359  12.279 -1.0755 -1.0968 -0.8743
   88MOL0     H12125  -0.256   1.477  12.049  1.2295  0.9642 -1.0243
   88MOL0     H12126   0.090   1.830  12.009  0.4657 -0.9301 -0.2027
   88MOL0     H12127   0.191   2.018  11.876  0.9389  1.1598 -2.5860
   88MOL0     H12128   1.549   1.899  11.392  0.4460  3.3184  0.7939
   88MOL0     H12129   1.568   1.734  11.219 -0.8886  1.1631  0.1970
   88MOL0     H12130   1.880   1.689  10.807 -2.4777 -0.0374  2.7049
   88MOL0     H12131   2.007   1.508  10.660  0.3962 -0.8180  0.1186
   88MOL0     H12132   1.930   1.102  10.723  1.0715 -0.2778 -0.6912
   88MOL0     H12133   1.798   1.110  10.605  0.1930 -1.5762  3.2395
   88MOL0     H12134   1.965   1.147  10.418  2.4526  1.3519 -0.5544
   88MOL0     H12135   1.961   0.975  10.479 -2.4845  0.8234  1.3782
   88MOL0     H12136   2.149   1.212  10.505  0.8234 -0.4859  2.3829
   88MOL0     H12137   2.182   1.079  10.617  1.2100  1.8511  1.0622
   88MOL0     H12138   2.193   1.081  10.316  1.1411 -1.4215 -0.7616
   88MOL0     H12139   2.207   0.931  10.418  1.8171  0.4234 -1.0353
   88MOL0     H12140   2.569   1.151  10.467 -0.3253  1.0354 -0.2200
   88MOL0     H12141   1.736   1.219  10.803 -0.7613  0.0370 -0.5618
   88MOL0     H12142   1.580   1.421  11.047 -0.3603  2.6453 -1.6158
   88MOL0     H12143   1.481   1.385  10.906 -0.8588 -1.7943  2.1116
   88MOL0     H12144   1.582   1.256  10.971  1.0036  0.2677  3.3508
   89MOL0     O12145   8.811  11.277   9.224 -0.0704  0.1441  0.0415
   89MOL0     C12146   8.835  11.219   9.114 -0.1059  0.0716 -0.3911
   89MOL0     O12147   8.916  11.265   9.012  0.7287  0.0027  0.0856
   89MOL0     C12148   8.983  11.383   9.032 -0.5286 -1.0890 -1.0945
   89MOL0     C12149   8.923  11.504   8.993  0.1312  0.4980 -0.0196
   89MOL0     C12150   8.993  11.630   9.003  0.5101  0.2476  0.4101
   89MOL0     C12151   9.127  11.629   9.038 -0.2831  0.1082  0.1576
   89MOL0     O12152   9.208  11.738   9.031  0.6520  0.0668  0.0808
   89MOL0     C12153   9.239  11.798   8.901 -0.6226  0.5369 -0.5722
   89MOL0     C12154   9.230  11.713   8.770 -0.9060 -0.4978  0.2232
   89MOL0     C12155   9.328  11.760   8.659 -0.3903  0.5418  0.1998
   89MOL0     C12156   9.306  11.905   8.608  1.0835 -0.3868 -1.0012
   89MOL0     C12157   9.165  11.926   8.535 -0.8782 -0.3021  0.1395
   89MOL0     C12158   9.117  11.816   8.438 -0.8407 -0.4431 -0.0429
   89MOL0     C12159   8.987  11.870   8.370 -1.0390  0.5552 -0.1833
   89MOL0     C12160   8.911  11.755   8.303 -0.2077 -0.1994  0.1819
   89MOL0     N12161   8.839  11.793   8.179 -0.7100 -0.2302  0.1604
   89MOL0     C12162   8.901  11.832   8.061 -1.5163 -0.6393 -0.8064
   89MOL0     C12163   8.809  11.896   7.989  0.0954  0.2585  0.1108
   89MOL0     C12164   8.830  11.962   7.855 -0.7398 -0.7038  0.2001
   89MOL0     C12165   8.810  12.121   7.864  0.3029 -0.8847  0.6991
   89MOL0     C12166   8.881  12.185   7.751  0.2533 -0.1657  0.6651
   89MOL0     C12167   8.872  12.344   7.758 -0.9703  0.7974  0.5513
   89MOL0     O12168   8.731  12.380   7.774 -0.9375  0.9501  0.1330
   89MOL0     C12169   8.705  12.467   7.878 -0.3794 -0.4181 -0.1563
   89MOL0     C12170   8.577  12.469   7.933 -0.5578 -0.4160  0.0319
   89MOL0     C12171   8.532  12.582   8.007 -0.1072  1.0798 -0.2798
   89MOL0     C12172   8.380  12.604   8.027  0.3557  0.4744  0.2980
   89MOL0     C12173   8.627  12.676   8.059 -0.1085 -0.2305  0.0070
   89MOL0     C12174   8.607  12.778   8.156 -0.6515 -0.2526  0.8501
   89MOL0     O12175   8.513  12.754   8.246 -0.1537  0.4049  0.3834
   89MOL0     C12176   8.446  12.858   8.301 -1.1291  0.2138 -0.1276
   89MOL0     C12177   8.516  12.956   8.382 -0.3593 -0.3263  0.1324
   89MOL0     C12178   8.436  13.063   8.426  0.0330  0.1016 -0.1046
   89MOL0     C12179   8.302  13.074   8.403  0.4786  0.6307 -1.4596
   89MOL0     O12180   8.240  13.182   8.454 -0.0320  0.0282  0.2498
   89MOL0     C12181   8.212  13.279   8.344  0.1344  0.2171 -0.0488
   89MOL0     C12182   8.183  13.418   8.407 -1.2319  0.7818 -0.7675
   89MOL0     C12183   8.171  13.527   8.308  0.5070  0.2769  0.5692
   89MOL0     C12184   8.288  13.617   8.293 -1.0305 -0.1378  0.0124
   89MOL0     C12185   8.258  13.730   8.185  0.0170  0.5180  1.0216
   89MOL0     C12186   8.269  13.683   8.042 -0.3214  0.8162 -0.0459
   89MOL0     C12187   8.183  13.761   7.944 -0.5808 -0.1054 -0.6889
   89MOL0     C12188   8.166  13.711   7.804  0.4935  1.1588 -0.0860
   89MOL0    Cl12189   8.329  13.724   7.723  0.1719  0.8590 -0.2248
   89MOL0     C12190   8.244  12.980   8.324 -0.2617 -0.6724 -0.1865
   89MOL0     C12191   8.308  12.869   8.272 -0.3114 -0.0904  0.2773
   89MOL0     O12192   8.671  12.882   8.148  0.3657 -0.6014  0.1078
   89MOL0     C12193   8.759  12.661   8.012  0.0482 -0.9477 -0.2130
   89MOL0     C12194   8.796  12.565   7.919 -0.2807  0.0288  0.3464
   89MOL0     N12195   8.684  11.890   8.055 -0.0761  0.4332  0.0392
   89MOL0     N12196   8.710  11.830   8.170  0.1863  0.6236 -0.1807
   89MOL0     C12197   9.191  11.509   9.069  0.0592 -0.1404  0.1989
   89MOL0     C12198   9.119  11.387   9.079  0.4975  0.0630 -0.2476
   89MOL0     C12199   8.782  11.077   9.097 -0.2277  1.4018  0.6433
   89MOL0     C12200   8.700  11.027   9.194 -0.2236  0.2121  0.0679
   89MOL0     C12201   8.646  10.892   9.185 -0.1885 -0.1959 -0.2777
   89MOL0     C12202   8.668  10.815   9.076  0.5005  0.1688  0.0002
   89MOL0     O12203   8.604  10.700   9.041 -0.0637  0.2698  0.2752
   89MOL0     C12204   8.467  10.692   9.070 -0.3558 -1.3104  0.0862
   89MOL0     C12205   8.424  10.551   9.040 -0.4076  0.1443  1.2613
   89MOL0     C12206   8.438  10.517   8.887 -0.7131 -0.6194  0.4389
   89MOL0     C12207   8.360  10.390   8.834 -0.3084 -0.2234 -0.4731
   89MOL0     C12208   8.374  10.394   8.692  0.0642  1.6625 -0.7879
   89MOL0     C12209   8.368  10.356   8.579  0.5053 -0.1302  0.2567
   89MOL0     C12210   8.759  10.856   8.975  0.1985 -0.1813 -0.5277
   89MOL0     C12211   8.811  10.994   8.980 -0.1808  0.2970 -0.2647
   89MOL0     C12212   8.893  11.039   8.865 -1.4896  0.4003 -0.9461
   89MOL0     H12213   8.825  11.510   8.948 -0.5649  3.5433  1.6243
   89MOL0     H12214   8.935  11.717   8.975 -0.2411 -0.5578 -0.6406
   89MOL0     H12215   9.334  11.851   8.914  0.4209 -1.1320 -1.1040
   89MOL0     H12216   9.166  11.878   8.894  0.0093  1.0803 -1.1606
   89MOL0     H12217   9.242  11.606   8.786 -1.3772 -0.3958  1.3627
   89MOL0     H12218   9.128  11.719   8.732 -0.4088  1.6545 -0.9465
   89MOL0     H12219   9.435  11.755   8.684 -0.4858  0.2153  0.5551
   89MOL0     H12220   9.323  11.692   8.574  2.2447 -0.2761  0.5789
   89MOL0     H12221   9.303  11.960   8.702 -0.0740 -1.7791 -0.1744
   89MOL0     H12222   9.380  11.936   8.534 -0.5835 -0.7061 -2.9022
   89MOL0     H12223   9.183  12.013   8.472  0.8856 -1.5945 -1.2530
   89MOL0     H12224   9.083  11.946   8.605 -0.3520 -0.0820  0.6947
   89MOL0     H12225   9.201  11.786   8.375 -0.6586 -4.0781  1.6534
   89MOL0     H12226   9.092  11.723   8.490 -2.9200  0.4445  0.6643
   89MOL0     H12227   8.999  11.952   8.299  0.7767  0.2353 -0.3080
   89MOL0     H12228   8.912  11.906   8.441 -3.9756 -2.6742 -1.3567
   89MOL0     H12229   8.960  11.658   8.288 -0.4790 -0.2278 -0.5765
   89MOL0     H12230   8.833  11.729   8.375 -2.7472 -2.1583 -2.9678
   89MOL0     H12231   9.002  11.804   8.034 -0.8073 -0.5834  1.5702
   89MOL0     H12232   8.759  11.921   7.783  0.4702 -0.0876 -1.3937
   89MOL0     H12233   8.931  11.935   7.822 -0.8834 -1.2599  0.2011
   89MOL0     H12234   8.704  12.148   7.871  0.6865  1.5363 -1.2805
   89MOL0     H12235   8.863  12.156   7.953  1.6255 -0.5610 -0.1855
   89MOL0     H12236   8.988  12.165   7.740  0.2743  0.8120 -1.1889
   89MOL0     H12237   8.826  12.157   7.661 -2.3577  1.1490  1.7658
   89MOL0     H12238   8.945  12.372   7.835 -0.4502  0.3286  0.2297
   89MOL0     H12239   8.917  12.396   7.673 -0.5208  2.5422  1.7829
   89MOL0     H12240   8.500  12.399   7.903  1.2253 -2.7202  0.5525
   89MOL0     H12241   8.349  12.566   8.125 -1.8121  1.5537  0.0824
   89MOL0     H12242   8.317  12.546   7.959  0.9948 -1.0355  0.9220
   89MOL0     H12243   8.354  12.710   8.027 -1.3430  0.1037 -1.4954
   89MOL0     H12244   8.624  12.953   8.389 -0.4927 -2.3757  3.2990
   89MOL0     H12245   8.482  13.137   8.491  0.5472  0.3295 -0.7208
   89MOL0     H12246   8.292  13.276   8.269 -1.7056  0.6370 -2.1078
   89MOL0     H12247   8.128  13.252   8.280  0.3340 -2.0643  0.5454
   89MOL0     H12248   8.097  13.410   8.475 -1.5512  0.6216 -1.1869
   89MOL0     H12249   8.272  13.438   8.468 -1.8754  1.3201  0.0153
   89MOL0     H12250   8.081  13.580   8.339  0.7465  0.7879  0.3969
   89MOL0     H12251   8.142  13.478   8.214 -1.6406  3.2881 -0.4849
   89MOL0     H12252   8.377  13.570   8.250 -1.5556 -0.1138 -1.1337
   89MOL0     H12253   8.319  13.658   8.390  1.0190 -1.8042  0.1351
   89MOL0     H12254   8.154  13.761   8.197 -0.1059  0.5904 -0.1222
   89MOL0     H12255   8.331  13.810   8.198 -0.4402  1.1283 -0.0535
   89MOL0     H12256   8.236  13.579   8.034  0.4439  0.6420 -1.1958
   89MOL0     H12257   8.370  13.682   8.002 -0.2601 -0.2377  0.1173
   89MOL0     H12258   8.229  13.860   7.939 -0.0378 -0.2830  0.4969
   89MOL0     H12259   8.086  13.784   7.990 -0.3291 -2.6623  1.3779
   89MOL0     H12260   8.092  13.757   7.738  1.2218 -0.5839 -2.2188
   89MOL0     H12261   8.136  13.608   7.823  1.8962  0.9717  1.3396
   89MOL0     H12262   8.143  13.000   8.291 -0.4658 -2.6568 -0.8759
   89MOL0     H12263   8.254  12.804   8.204  0.5519 -0.5062 -0.0342
   89MOL0     H12264   8.833  12.734   8.043 -0.2722 -1.5070  2.0192
   89MOL0     H12265   8.896  12.571   7.877 -0.7944 -1.4207 -1.1844
   89MOL0     H12266   9.296  11.507   9.092  0.3122  1.1813 -0.7117
   89MOL0     H12267   9.159  11.290   9.106 -1.2742 -1.2826 -2.1579
   89MOL0     H12268   8.685  11.079   9.287  0.1194 -1.5445  1.1506
   89MOL0     H12269   8.592  10.851   9.270  0.7371 -0.4927  0.1870
   89MOL0     H12270   8.439  10.707   9.175 -1.3757 -2.6821  0.0257
   89MOL0     H12271   8.411  10.770   9.018 -0.4601 -1.9103 -0.7183
   89MOL0     H12272   8.318  10.547   9.068  0.1746  2.2061  4.1879
   89MOL0     H12273   8.483  10.483   9.102 -0.3632 -0.4266  0.6024
   89MOL0     H12274   8.402  10.606   8.834 -3.6128 -1.7598  0.2749
   89MOL0     H12275   8.542  10.492   8.869 -1.5005 -3.5982 -0.5655
   89MOL0     H12276   8.255  10.391   8.863  0.1156 -0.4022  1.2020
   89MOL0     H12277   8.401  10.300   8.882  0.8593  1.5629  2.0934
   89MOL0     H12278   8.371  10.334   8.474  1.8366 -0.2354  0.3018
   89MOL0     H12279   8.782  10.800   8.885  3.5436 -0.2987  0.3048
   89MOL0     H12280   8.997  11.053   8.896 -0.4613 -0.2421 -3.7983
   89MOL0     H12281   8.889  10.966   8.784 -2.1711 -0.7760  0.1012
   89MOL0     H12282   8.856  11.136   8.830  0.8965  1.7983  0.1300
   90MOL0     O12283   3.780   9.632   5.098  0.1347 -0.1551  0.1261
   90MOL0     C12284   3.843   9.606   5.201 -0.0796  0.4767 -0.4494
   90MOL0     O12285   3.891   9.704   5.288  0.1308  0.1153  0.2646
   90MOL0     C12286   3.861   9.832   5.257  0.2904  0.3829  0.2332
   90MOL0     C12287   3.969   9.916   5.226  0.2929  0.1959  0.5252
   90MOL0     C12288   3.938  10.050   5.210  0.5189 -0.0258  1.4276
   90MOL0     C12289   3.812  10.103   5.227  0.0857 -1.0514 -0.3949
   90MOL0     O12290   3.805  10.237   5.220  1.2571  0.0809  0.1848
   90MOL0     C12291   3.678  10.309   5.206 -1.2531  1.1936 -0.0020
   90MOL0     C12292   3.634  10.307   5.060  0.6518 -0.1203 -0.1819
   90MOL0     C12293   3.744  10.358   4.959 -0.2719 -1.0715  0.0336
   90MOL0     C12294   3.669  10.407   4.830 -0.2287  0.3244 -0.5512
   90MOL0     C12295   3.604  10.310   4.742 -0.1679 -0.7228 -0.3724
   90MOL0     C12296   3.452  10.325   4.718 -0.3252 -1.2428 -0.0250
   90MOL0     C12297   3.397  10.237   4.611  0.0537  0.3970  0.3712
   90MOL0     C12298   3.245  10.257   4.587  0.1350  0.1298  0.4619
   90MOL0     N12299   3.212  10.227   4.451  0.2394 -0.0907  0.7527
   90MOL0     C12300   3.214  10.105   4.388 -0.2281 -0.0250  0.6664
   90MOL0     C12301   3.169  10.128   4.257  0.0504  0.0796 -0.4075
   90MOL0     C12302   3.157  10.029   4.158 -0.5746 -0.3349  0.6148
   90MOL0     C12303   3.013   9.970   4.153  0.3342 -0.5429  0.5467
   90MOL0     C12304   2.965   9.885   4.279  0.1291 -0.9339  0.6275
   90MOL0     C12305   2.912   9.756   4.232 -0.0005  0.3359  0.6174
   90MOL0     O12306   3.018   9.665   4.193  0.3663 -0.4146  0.5710
   90MOL0     C12307   3.001   9.596   4.074  0.0313  0.5177 -0.1474
   90MOL0     C12308   2.904   9.501   4.067 -0.3568 -0.2821 -0.5026
   90MOL0     C12309   2.884   9.435   3.948 -0.2537  1.2811  0.6194
   90MOL0     C12310   2.780   9.325   3.952  0.2122  0.5221 -0.5142
   90MOL0     C12311   2.961   9.464   3.837  0.3604  0.3155  0.6901
   90MOL0     C12312   2.936   9.407   3.701 -0.0886 -0.0772  0.3231
   90MOL0     O12313   2.975   9.491   3.583 -0.3981 -0.4778  0.2098
   90MOL0     C12314   2.981   9.429   3.458 -0.3605  0.8987  0.1214
   90MOL0     C12315   2.857   9.389   3.398 -0.9117 -0.0848  0.1577
   90MOL0     C12316   2.858   9.339   3.279  0.6931  0.1249  0.9873
   90MOL0     C12317   2.975   9.305   3.214 -0.5954  0.8509  0.8910
   90MOL0     O12318   2.971   9.249   3.086  0.2657 -0.3394 -0.1955
   90MOL0     C12319   2.871   9.148   3.065 -0.4868 -0.2487  0.1013
   90MOL0     C12320   2.921   9.034   2.965  0.7295  0.4451  0.0462
   90MOL0     C12321   2.781   8.974   2.913  0.3717 -0.6695 -0.7818
   90MOL0     C12322   2.801   8.843   2.843 -0.5483 -0.5675  0.0934
   90MOL0     C12323   2.667   8.787   2.799 -0.2373  0.3762  0.3038
   90MOL0     C12324   2.691   8.651   2.735  0.1863 -0.1863  0.1354
   90MOL0     C12325   2.769   8.664   2.595  0.3294 -0.1723 -0.1986
   90MOL0     C12326   2.786   8.529   2.528 -0.1321 -0.5970  0.4642
   90MOL0    Cl12327   2.890   8.544   2.372 -0.0003  0.4813 -0.1555
   90MOL0     C12328   3.092   9.342   3.270  0.0203 -1.1187 -1.0879
   90MOL0     C12329   3.097   9.416   3.389 -0.3551 -0.0122  1.2516
   90MOL0     O12330   2.896   9.292   3.696 -0.1979  0.9463 -0.9029
   90MOL0     C12331   3.053   9.572   3.836  0.2772 -0.4858 -1.0874
   90MOL0     C12332   3.076   9.633   3.959  0.8597  0.3385  0.8117
   90MOL0     N12333   3.147  10.268   4.248  0.3985  0.6134 -0.9020
   90MOL0     N12334   3.167  10.325   4.362 -0.1339  0.0893 -0.2918
   90MOL0     C12335   3.706  10.018   5.254  0.3955  0.0302  0.6765
   90MOL0     C12336   3.733   9.883   5.259 -0.5205 -0.2724  0.3191
   90MOL0     C12337   3.872   9.474   5.252 -0.0896  0.0036  0.0101
   90MOL0     C12338   4.000   9.423   5.225  0.3096 -0.0846  0.6997
   90MOL0     C12339   4.034   9.292   5.256 -0.2726  0.5178 -0.0052
   90MOL0     C12340   3.937   9.222   5.334 -0.3037 -0.4119 -0.7215
   90MOL0     O12341   3.949   9.085   5.387 -0.3235 -0.3118  0.5932
   90MOL0     C12342   4.066   9.021   5.347  0.3083 -0.5250 -0.0519
   90MOL0     C12343   4.055   8.873   5.385 -0.1381  0.5246 -0.5577
   90MOL0     C12344   4.186   8.809   5.430 -0.2891 -0.2629 -0.0276
   90MOL0     C12345   4.160   8.672   5.479 -0.5903  0.7485  0.4698
   90MOL0     C12346   4.289   8.607   5.502 -0.3652 -0.2576  0.7332
   90MOL0     C12347   4.407   8.578   5.513 -0.0187 -0.7813 -0.2893
   90MOL0     C12348   3.815   9.276   5.364 -0.4700  0.1207  0.0737
   90MOL0     C12349   3.782   9.411   5.335 -0.8621 -0.5596 -0.5028
   90MOL0     C12350   3.653   9.475   5.374 -0.0034  0.1489 -0.7414
   90MOL0     H12351   4.069   9.878   5.208 -0.1259 -0.2550 -0.9656
   90MOL0     H12352   4.016  10.121   5.185 -0.3557 -0.4784 -3.7627
   90MOL0     H12353   3.702  10.411   5.236  1.3376  1.1228 -1.5951
   90MOL0     H12354   3.606  10.275   5.282  3.5932 -1.0793  4.1713
   90MOL0     H12355   3.593  10.209   5.034  1.0424 -1.4154  3.5810
   90MOL0     H12356   3.547  10.373   5.068  1.7104  1.1285  1.6765
   90MOL0     H12357   3.796  10.445   5.001  0.3993 -0.0881 -2.6220
   90MOL0     H12358   3.821  10.285   4.933  2.3590  1.3486  0.5097
   90MOL0     H12359   3.596  10.480   4.868  1.3808  0.9349  1.5515
   90MOL0     H12360   3.739  10.466   4.770  0.7757  0.0605  0.3322
   90MOL0     H12361   3.600  10.206   4.777 -0.5903 -0.1722  1.3238
   90MOL0     H12362   3.650  10.318   4.643  0.0247 -1.8275 -0.3865
   90MOL0     H12363   3.397  10.300   4.810 -0.6746  0.1753  0.1754
   90MOL0     H12364   3.430  10.430   4.694  3.4509  0.2198  1.9404
   90MOL0     H12365   3.412  10.132   4.639  1.1270 -0.3941 -2.7016
   90MOL0     H12366   3.448  10.236   4.514  1.7953 -1.9366  1.2189
   90MOL0     H12367   3.197  10.211   4.674 -1.7510  2.2996  0.6757
   90MOL0     H12368   3.223  10.364   4.595  4.6813  1.2209  1.1268
   90MOL0     H12369   3.229  10.002   4.418 -1.3740 -2.0098 -4.4674
   90MOL0     H12370   3.220   9.940   4.158  1.5627  1.0850 -0.7745
   90MOL0     H12371   3.170  10.080   4.062 -0.4387  0.9628  1.3012
   90MOL0     H12372   2.951  10.059   4.135 -1.3120 -1.5601  0.9190
   90MOL0     H12373   3.006   9.899   4.070  0.6379  0.1514 -0.0766
   90MOL0     H12374   3.040   9.873   4.358 -1.1248  0.9729  2.1882
   90MOL0     H12375   2.882   9.943   4.319  0.7262  1.4391 -1.3421
   90MOL0     H12376   2.860   9.697   4.307 -1.2610 -2.0613 -1.9419
   90MOL0     H12377   2.837   9.784   4.157 -2.0692 -1.4059  1.9195
   90MOL0     H12378   2.849   9.500   4.160 -0.3063  0.4200 -0.4625
   90MOL0     H12379   2.746   9.326   4.056  1.1532 -0.4471 -0.1671
   90MOL0     H12380   2.809   9.223   3.924 -1.0150  0.8877 -3.4009
   90MOL0     H12381   2.699   9.350   3.883 -0.1847  0.3666 -0.1065
   90MOL0     H12382   2.761   9.415   3.442 -1.3397  0.2070 -0.9217
   90MOL0     H12383   2.756   9.317   3.249  0.6531  0.3697  0.9367
   90MOL0     H12384   2.838   9.100   3.158  0.7405  0.2455  0.8266
   90MOL0     H12385   2.786   9.203   3.024  1.1603  0.3708 -2.7998
   90MOL0     H12386   2.980   9.080   2.885  1.5431 -1.6572 -0.6375
   90MOL0     H12387   2.982   8.961   3.018 -1.3258 -2.1641 -0.9466
   90MOL0     H12388   2.737   9.047   2.845 -0.9264 -0.6526  0.0427
   90MOL0     H12389   2.717   8.953   2.999  1.7147  3.7623  1.6226
   90MOL0     H12390   2.859   8.773   2.904  0.5280  0.3209  0.1189
   90MOL0     H12391   2.868   8.855   2.758  0.5016 -2.2605  0.6347
   90MOL0     H12392   2.596   8.772   2.881  1.3300 -1.1321  1.4758
   90MOL0     H12393   2.631   8.852   2.720  3.0795  2.1517  0.0769
   90MOL0     H12394   2.595   8.604   2.712  0.4237 -0.4528 -0.3257
   90MOL0     H12395   2.745   8.589   2.807  2.4384  1.2035 -0.2650
   90MOL0     H12396   2.870   8.702   2.614  0.4778 -0.1607 -1.0070
   90MOL0     H12397   2.701   8.717   2.529 -4.8968 -5.0631  0.4717
   90MOL0     H12398   2.686   8.488   2.511  0.4256 -2.3794  1.2573
   90MOL0     H12399   2.841   8.470   2.602 -1.5594  0.1031  2.1478
   90MOL0     H12400   3.191   9.332   3.227  1.3800 -0.5638  1.7105
   90MOL0     H12401   3.192   9.453   3.424 -0.9666  1.7835  1.1382
   90MOL0     H12402   3.106   9.612   3.750  1.3897  3.7806  1.2966
   90MOL0     H12403   3.152   9.710   3.961  1.5275 -0.1992 -1.3746
   90MOL0     H12404   3.602  10.049   5.253  0.3230 -0.2251  0.4372
   90MOL0     H12405   3.649   9.815   5.267  0.3188 -1.8238 -2.7082
   90MOL0     H12406   4.077   9.466   5.162 -1.6386 -0.3983 -2.1195
   90MOL0     H12407   4.130   9.242   5.252 -0.9203 -1.1712  2.5956
   90MOL0     H12408   4.074   9.033   5.239 -4.3418  0.0821 -0.5231
   90MOL0     H12409   4.157   9.069   5.383  0.2082  1.0604 -1.7577
   90MOL0     H12410   4.022   8.823   5.294 -0.0461  2.4461 -1.6997
   90MOL0     H12411   3.976   8.871   5.460 -1.2848 -2.5870 -1.6599
   90MOL0     H12412   4.244   8.798   5.338 -0.2016  1.7087 -0.2583
   90MOL0     H12413   4.235   8.866   5.510  3.2350 -0.3820 -1.9026
   90MOL0     H12414   4.107   8.605   5.409  0.8810  0.3796 -0.3280
   90MOL0     H12415   4.101   8.684   5.570  0.6873  1.8502  1.1828
   90MOL0     H12416   4.512   8.559   5.508  0.3692  0.8116  0.9145
   90MOL0     H12417   3.747   9.216   5.424  1.5853  0.5801  3.1259
   90MOL0     H12418   3.584   9.482   5.290  0.5642 -0.9759 -1.3318
   90MOL0     H12419   3.602   9.412   5.448 -0.5983  3.1228  1.5454
   90MOL0     H12420   3.675   9.572   5.419 -3.2069 -0.3404  2.3679
   91MOL0     O12421   9.805   6.580  10.280  0.3556 -0.1258 -0.4694
   91MOL0     C12422   9.759   6.468  10.259 -0.0703  0.3070 -0.0652
   91MOL0     O12423   9.815   6.348  10.309  0.2839  0.0331 -0.5468
   91MOL0     C12424   9.941   6.347  10.350  0.5124  0.5663 -0.6956
   91MOL0     C12425   9.969   6.253  10.451 -0.4920 -0.0527 -0.7769
   91MOL0     C12426  10.101   6.242  10.500  0.7202  0.4833 -0.0853
   91MOL0     C12427  10.201   6.324  10.458 -0.3865  1.2845  1.2004
   91MOL0     O12428  10.322   6.318  10.516  0.0016 -0.4085 -0.6769
   91MOL0     C12429  10.340   6.294  10.656  0.0598  0.1702  0.4308
   91MOL0     C12430  10.480   6.332  10.698  0.8602  0.1353  1.0006
   91MOL0     C12431  10.525   6.277  10.822 -0.0235  0.5788 -0.6997
   91MOL0     C12432  10.683   6.247  10.833  1.1307 -0.3714  1.0984
   91MOL0     C12433  10.722   6.213  10.967  0.4045  0.6868 -0.6642
   91MOL0     C12434  10.660   6.075  11.014  0.1635 -0.8066  0.7020
   91MOL0     C12435  10.733   6.028  11.138  1.1436  0.3188  0.7135
   91MOL0     C12436  10.676   5.886  11.173 -0.3944  0.2288  0.3121
   91MOL0     N12437  10.692   5.780  11.073  0.1375  0.7961 -0.2088
   91MOL0     C12438  10.803   5.696  11.069  0.5791  0.4204 -0.2464
   91MOL0     C12439  10.769   5.599  10.974  1.1031 -0.5825 -0.2799
   91MOL0     C12440  10.860   5.493  10.919  0.9148 -0.1420  0.0203
   91MOL0     C12441  10.967   5.551  10.829 -0.4190  0.8010  0.5168
   91MOL0     C12442  11.035   5.435  10.740  0.8009 -0.1507 -0.4224
   91MOL0     C12443  11.156   5.489  10.673 -0.1889  0.2785 -0.2984
   91MOL0     O12444  11.251   5.391  10.632 -0.3803  0.2505  0.1410
   91MOL0     C12445  11.350   5.412  10.553  0.1448 -0.2782 -0.3377
   91MOL0     C12446  11.366   5.532  10.476  0.4400 -0.5747  0.4023
   91MOL0     C12447  11.485   5.561  10.397  0.3097  0.4961  0.2473
   91MOL0     C12448  11.478   5.678  10.297  1.0298 -0.0696  0.7489
   91MOL0     C12449  11.588   5.454  10.385  0.2985 -0.4343 -0.2812
   91MOL0     C12450  11.699   5.451  10.291 -0.0084 -0.3795 -0.1789
   91MOL0     O12451  11.778   5.334  10.293 -0.1289  0.1792 -0.0764
   91MOL0     C12452  11.902   5.350  10.244  0.4657  0.7985 -0.6906
   91MOL0     C12453  11.921   5.355  10.110  0.0046 -0.6560 -0.3688
   91MOL0     C12454  12.045   5.331  10.052  0.9450  0.1068 -0.3222
   91MOL0     C12455  12.152   5.309  10.139 -0.4723 -0.3739  0.1730
   91MOL0     O12456  12.274   5.279  10.082  0.3327  0.3122  0.2022
   91MOL0     C12457  12.366   5.386  10.083 -0.2887  0.4419  0.0499
   91MOL0     C12458  12.513   5.338  10.053 -0.5007  0.0883  0.3905
   91MOL0     C12459  12.519   5.296   9.900  0.2151 -0.4149 -0.0338
   91MOL0     C12460  12.571   5.407   9.799  0.4183  0.8441 -0.3676
   91MOL0     C12461  12.709   5.451   9.835  0.1261  0.1948  0.3086
   91MOL0     C12462  12.769   5.505   9.709 -0.5218 -0.0993 -0.5555
   91MOL0     C12463  12.913   5.545   9.717  0.0538 -0.1999  0.9550
   91MOL0     C12464  13.011   5.436   9.705 -0.7950 -0.0157 -0.2156
   91MOL0    Cl12465  13.173   5.478   9.724 -0.2734  0.1650 -0.1254
   91MOL0     C12466  12.141   5.310  10.275 -0.5454  0.1129  0.1926
   91MOL0     C12467  12.009   5.323  10.331 -0.4501  0.2416  0.0982
   91MOL0     O12468  11.725   5.557  10.236  0.2252  0.4710 -0.2822
   91MOL0     C12469  11.567   5.342  10.469 -0.6636  0.5670  0.5522
   91MOL0     C12470  11.453   5.322  10.548  0.2376 -0.6372  0.7605
   91MOL0     N12471  10.652   5.634  10.926 -0.0536  0.9291  0.6865
   91MOL0     N12472  10.598   5.728  10.988  0.3966 -0.0390  0.3073
   91MOL0     C12473  10.177   6.401  10.346 -0.0445 -1.3081  1.0197
   91MOL0     C12474  10.048   6.404  10.290 -0.2087  0.0651  0.0907
   91MOL0     C12475   9.620   6.465  10.214  0.2847 -0.9245  1.0346
   91MOL0     C12476   9.549   6.342  10.213 -0.0936  0.0354  0.6360
   91MOL0     C12477   9.417   6.326  10.177  0.5860  0.0748 -0.1854
   91MOL0     C12478   9.344   6.436  10.148  0.1634 -0.8437 -0.2889
   91MOL0     O12479   9.212   6.414  10.133  0.2526 -0.0049  0.0694
   91MOL0     C12480   9.113   6.517  10.093 -0.2477  0.3034  0.2024
   91MOL0     C12481   9.120   6.508   9.938 -0.5830 -0.3570 -0.1920
   91MOL0     C12482   9.023   6.604   9.872 -0.2903 -0.0257  0.1412
   91MOL0     C12483   8.976   6.556   9.736 -0.1022 -0.8078 -0.5230
   91MOL0     C12484   8.867   6.636   9.675 -0.5632  0.2999  0.8819
   91MOL0     C12485   8.777   6.705   9.629 -0.1465  0.1807 -0.4030
   91MOL0     C12486   9.401   6.560  10.126  0.5385  0.2763  0.0604
   91MOL0     C12487   9.539   6.585  10.159 -0.7521  0.2986 -1.0844
   91MOL0     C12488   9.575   6.731  10.157  0.1330 -0.1754  0.5545
   91MOL0     H12489   9.881   6.212  10.499 -3.0028  5.0878 -0.3257
   91MOL0     H12490  10.117   6.171  10.580 -3.4519 -0.5003  0.0960
   91MOL0     H12491  10.319   6.190  10.681 -0.9022  0.3228  0.3043
   91MOL0     H12492  10.274   6.355  10.719 -1.1374 -0.9782  0.3335
   91MOL0     H12493  10.546   6.309  10.613 -1.3114  2.4494 -1.5393
   91MOL0     H12494  10.472   6.441  10.697  0.9530  0.1971 -1.6880
   91MOL0     H12495  10.493   6.334  10.910 -0.2141 -2.0071  1.0385
   91MOL0     H12496  10.469   6.185  10.842 -0.4836  0.8062 -0.9176
   91MOL0     H12497  10.709   6.170  10.759  0.2960  2.3664 -2.3427
   91MOL0     H12498  10.741   6.336  10.806  0.0599 -0.0189 -0.1945
   91MOL0     H12499  10.687   6.288  11.038  0.5759 -1.0383  1.3593
   91MOL0     H12500  10.831   6.205  10.976  0.4835  2.3258  0.2280
   91MOL0     H12501  10.554   6.088  11.037 -0.7831  2.8707 -4.1221
   91MOL0     H12502  10.671   6.002  10.934 -0.0378  0.2336 -0.3040
   91MOL0     H12503  10.713   6.087  11.227 -1.0907  0.1327  0.3820
   91MOL0     H12504  10.839   6.015  11.113  0.6662 -2.4959 -0.1715
   91MOL0     H12505  10.734   5.852  11.259 -1.6290  1.7179  1.8116
   91MOL0     H12506  10.570   5.880  11.200 -0.7456  0.4203 -0.9695
   91MOL0     H12507  10.899   5.698  11.121 -0.5049 -1.5051  2.0007
   91MOL0     H12508  10.811   5.411  10.866  2.9863  0.0671 -2.3715
   91MOL0     H12509  10.922   5.454  11.001  1.4850  2.5388  0.9684
   91MOL0     H12510  10.921   5.617  10.755  1.9521  1.6355 -0.2769
   91MOL0     H12511  11.034   5.609  10.893  0.0671 -1.8801  2.6401
   91MOL0     H12512  11.054   5.352  10.809 -0.5036 -0.5401 -0.5138
   91MOL0     H12513  10.958   5.406  10.668 -1.9911 -0.7863  2.5486
   91MOL0     H12514  11.112   5.539  10.586  0.2573 -1.9054 -1.8646
   91MOL0     H12515  11.206   5.555  10.744 -2.2206 -0.6006  2.1332
   91MOL0     H12516  11.287   5.607  10.475 -0.1807 -1.2254  0.4730
   91MOL0     H12517  11.567   5.739  10.312  2.2833 -2.0622  1.7516
   91MOL0     H12518  11.398   5.751  10.316  1.8659  0.9622  0.4103
   91MOL0     H12519  11.445   5.636  10.202 -0.0596 -0.6496  1.3632
   91MOL0     H12520  11.830   5.366  10.052  0.2416  2.2087 -0.3294
   91MOL0     H12521  12.051   5.340   9.944  2.4206  1.1362 -0.1853
   91MOL0     H12522  12.355   5.471  10.015  2.2252 -0.8962 -2.2539
   91MOL0     H12523  12.368   5.437  10.179 -0.5340  1.2375 -0.3573
   91MOL0     H12524  12.582   5.412  10.092 -0.0034 -2.3031  4.6175
   91MOL0     H12525  12.538   5.251  10.115  0.5010 -0.2475 -0.4584
   91MOL0     H12526  12.428   5.249   9.861 -0.5347  0.5795  0.4655
   91MOL0     H12527  12.593   5.217   9.884  2.2994  1.2114  1.0743
   91MOL0     H12528  12.501   5.491   9.806 -1.7897 -0.9621  0.3300
   91MOL0     H12529  12.563   5.367   9.698 -1.6866 -0.4862  0.2824
   91MOL0     H12530  12.714   5.534   9.906  2.6894 -0.4665  1.0023
   91MOL0     H12531  12.759   5.362   9.873 -0.9251 -0.0357  1.1836
   91MOL0     H12532  12.716   5.600   9.694 -3.4335 -1.6889 -1.1342
   91MOL0     H12533  12.758   5.439   9.623  1.1375 -0.5615 -0.4451
   91MOL0     H12534  12.931   5.611   9.802 -2.7044  0.8834  0.7947
   91MOL0     H12535  12.934   5.621   9.641 -2.0888  0.3029  0.8278
   91MOL0     H12536  12.985   5.379   9.616 -1.7782 -0.3974  0.2942
   91MOL0     H12537  12.989   5.368   9.789  2.3558  0.3128  1.0118
   91MOL0     H12538  12.229   5.302  10.338  1.1257  3.9146 -1.3295
   91MOL0     H12539  11.988   5.313  10.437 -3.2481 -1.1429 -0.4974
   91MOL0     H12540  11.649   5.270  10.466 -0.0032  1.3295 -0.2041
   91MOL0     H12541  11.464   5.244  10.623  1.0370 -0.8406  0.4359
   91MOL0     H12542  10.264   6.452  10.307  0.4664 -2.7989  0.1315
   91MOL0     H12543  10.044   6.465  10.200 -1.3236 -0.6863 -0.3889
   91MOL0     H12544   9.601   6.251  10.239  1.0890  0.2843 -0.7593
   91MOL0     H12545   9.360   6.234  10.180 -0.5686  0.7968  1.2263
   91MOL0     H12546   9.013   6.494  10.131 -0.6798  3.0149  0.9141
   91MOL0     H12547   9.136   6.618  10.127 -0.9748 -0.1163  2.0639
   91MOL0     H12548   9.105   6.406   9.902  1.8691 -0.7006 -0.4378
   91MOL0     H12549   9.221   6.537   9.906 -0.3090 -0.9635  0.0963
   91MOL0     H12550   8.937   6.623   9.937  1.8551  3.5092  2.2416
   91MOL0     H12551   9.075   6.699   9.860 -2.6440  1.2241 -1.0031
   91MOL0     H12552   8.947   6.451   9.746 -0.4253 -0.8211 -1.5198
   91MOL0     H12553   9.066   6.558   9.674 -0.0809 -1.7031 -0.5233
   91MOL0     H12554   8.705   6.772   9.586 -0.0118  0.9431  0.5279
   91MOL0     H12555   9.341   6.637  10.080 -0.5431 -0.4496  0.2236
   91MOL0     H12556   9.559   6.788  10.249 -2.0427  3.5429 -1.8584
   91MOL0     H12557   9.681   6.743  10.130 -0.1230  0.6059 -0.1525
   91MOL0     H12558   9.506   6.786  10.092  0.5229 -0.2678  0.0539
   92MOL0     O12559   3.834   8.801   5.865  0.3183  1.0539 -0.7271
   92MOL0     C12560   3.953   8.790   5.839  0.1406 -0.3967  0.4244
   92MOL0     O12561   4.038   8.893   5.791 -0.3024  0.7960 -0.3442
   92MOL0     C12562   4.010   9.022   5.814 -0.2446  0.7241 -0.4722
   92MOL0     C12563   4.068   9.112   5.911  0.0243 -0.8174 -0.9915
   92MOL0     C12564   4.040   9.249   5.903  0.5039 -0.6070 -0.3791
   92MOL0     C12565   3.971   9.303   5.799 -1.0864  0.4994  0.4766
   92MOL0     O12566   3.959   9.443   5.803  0.5220 -0.5894  0.6585
   92MOL0     C12567   4.047   9.497   5.699 -0.3773  0.4794  0.2315
   92MOL0     C12568   4.062   9.656   5.725  1.1003 -0.7630 -0.5309
   92MOL0     C12569   3.977   9.737   5.630 -0.7977 -0.4663  0.7059
   92MOL0     C12570   3.979   9.883   5.681  0.7586  0.2042 -0.0014
   92MOL0     C12571   3.960   9.981   5.560  0.3296 -0.3754  0.1912
   92MOL0     C12572   3.966  10.123   5.612 -0.0248 -0.0933 -0.0246
   92MOL0     C12573   3.836  10.166   5.654  0.5468  0.0914 -0.5012
   92MOL0     C12574   3.738  10.196   5.550  0.2844 -1.1637  0.5219
   92MOL0     N12575   3.623  10.270   5.610 -0.3768 -0.1078  0.5922
   92MOL0     C12576   3.556  10.212   5.715  0.0414 -0.3660 -0.3453
   92MOL0     C12577   3.509  10.321   5.774  0.7656  0.3380  0.1929
   92MOL0     C12578   3.421  10.306   5.891 -0.5909  0.1202  0.3512
   92MOL0     C12579   3.456  10.367   6.024 -0.2706 -0.4656  0.1401
   92MOL0     C12580   3.574  10.284   6.085  0.1781 -0.1593  1.1798
   92MOL0     C12581   3.637  10.326   6.219  0.2263 -0.1025 -0.4956
   92MOL0     O12582   3.525  10.346   6.314  0.7856 -0.5231  0.6282
   92MOL0     C12583   3.475  10.473   6.344  0.3651 -0.2855  0.3371
   92MOL0     C12584   3.335  10.475   6.381 -0.5030  0.2100 -0.8725
   92MOL0     C12585   3.263  10.592   6.414 -0.0527  0.3227  0.7118
   92MOL0     C12586   3.116  10.580   6.443 -0.8360  0.2696  0.8704
   92MOL0     C12587   3.333  10.713   6.414  0.0227 -0.0971  1.2053
   92MOL0     C12588   3.263  10.847   6.434 -0.6719  0.0506 -0.0766
   92MOL0     O12589   3.346  10.955   6.444  0.2734 -0.2573  0.6771
   92MOL0     C12590   3.288  11.075   6.454  0.6928 -0.7228 -0.4175
   92MOL0     C12591   3.245  11.150   6.340 -0.6411 -0.6683  0.1116
   92MOL0     C12592   3.175  11.269   6.352  0.0493 -0.7601 -0.8374
   92MOL0     C12593   3.156  11.330   6.477 -0.4798  0.4026  0.2447
   92MOL0     O12594   3.104  11.456   6.500  0.4525 -0.2288 -0.4272
   92MOL0     C12595   3.052  11.517   6.380 -0.7308  0.1158 -0.6989
   92MOL0     C12596   2.920  11.468   6.333 -0.9645  0.2251  0.8156
   92MOL0     C12597   2.923  11.476   6.178  0.8238  0.6892 -0.7639
   92MOL0     C12598   2.927  11.609   6.111 -0.8339  0.3656 -0.1485
   92MOL0     C12599   2.904  11.613   5.964 -0.9024 -0.7616 -0.8312
   92MOL0     C12600   2.915  11.755   5.913 -0.0635 -0.3996 -0.3731
   92MOL0     C12601   2.803  11.852   5.972 -0.7747 -0.5715 -0.5007
   92MOL0     C12602   2.737  11.934   5.871  1.2193  0.6751 -0.3522
   92MOL0    Cl12603   2.628  11.826   5.784 -0.0432 -0.3067 -0.0183
   92MOL0     C12604   3.200  11.253   6.582  0.2275  0.6945 -0.4020
   92MOL0     C12605   3.268  11.133   6.582 -0.0353  0.4307  0.0179
   92MOL0     O12606   3.141  10.848   6.439  0.3946  0.3110 -0.8467
   92MOL0     C12607   3.473  10.704   6.380 -0.5743 -1.0094 -0.1169
   92MOL0     C12608   3.546  10.588   6.356 -0.6749  0.4088 -0.4444
   92MOL0     N12609   3.539  10.435   5.707 -0.1823  0.3033 -0.1897
   92MOL0     N12610   3.614  10.404   5.611  0.6030  0.3938  0.0932
   92MOL0     C12611   3.911   9.215   5.700 -1.0111 -0.1539  0.1924
   92MOL0     C12612   3.932   9.077   5.714  0.5487 -1.1493  0.9188
   92MOL0     C12613   4.010   8.646   5.836 -0.0236 -0.5132 -0.6206
   92MOL0     C12614   3.925   8.534   5.821  0.1583  0.3447 -0.6215
   92MOL0     C12615   3.966   8.402   5.796  0.6999 -0.1251  0.5317
   92MOL0     C12616   4.102   8.379   5.786 -0.0880 -0.4437  0.0162
   92MOL0     O12617   4.150   8.247   5.764 -0.1155  0.0812  0.0842
   92MOL0     C12618   4.140   8.211   5.627  0.2205  0.2932  0.3279
   92MOL0     C12619   4.214   8.081   5.585  0.0810  0.5856 -0.3242
   92MOL0     C12620   4.151   7.966   5.668  0.4672 -0.1058  0.8510
   92MOL0     C12621   4.229   7.838   5.672  1.1135 -0.1301  0.0562
   92MOL0     C12622   4.152   7.738   5.743 -0.4273 -1.1120 -0.4198
   92MOL0     C12623   4.086   7.647   5.801  0.8667 -0.1294 -0.0720
   92MOL0     C12624   4.192   8.480   5.816 -0.1046 -0.0814 -0.2170
   92MOL0     C12625   4.151   8.610   5.833 -0.1995  0.2149  0.2052
   92MOL0     C12626   4.252   8.717   5.862 -0.1502 -0.6051  0.5051
   92MOL0     H12627   4.129   9.072   5.991 -0.8790 -1.5931 -0.6639
   92MOL0     H12628   4.088   9.321   5.968  0.0698 -0.2203 -0.4844
   92MOL0     H12629   4.009   9.489   5.597  0.0235  1.4049 -0.0010
   92MOL0     H12630   4.146   9.451   5.696 -0.5625  0.1333 -1.8846
   92MOL0     H12631   4.043   9.679   5.830  0.1150 -1.2325 -0.5948
   92MOL0     H12632   4.164   9.692   5.708  0.5679  1.7155  1.0701
   92MOL0     H12633   4.016   9.728   5.529 -1.5842 -0.8671  0.4288
   92MOL0     H12634   3.872   9.712   5.612 -0.7414  0.1765 -0.6108
   92MOL0     H12635   3.894   9.894   5.748  2.3434  3.9391  1.6920
   92MOL0     H12636   4.067   9.915   5.738  0.6758 -1.2233  0.9642
   92MOL0     H12637   3.866   9.960   5.508  1.0006  0.1491 -1.2822
   92MOL0     H12638   4.046   9.974   5.493  3.1501 -0.1172  3.5211
   92MOL0     H12639   4.029  10.130   5.700 -0.6456  1.1623  0.3463
   92MOL0     H12640   4.011  10.184   5.533  2.0127 -0.2491  0.9567
   92MOL0     H12641   3.856  10.258   5.710  1.0453  0.4119 -1.2068
   92MOL0     H12642   3.780  10.095   5.716 -3.6423  2.2790 -1.3680
   92MOL0     H12643   3.790  10.259   5.477  0.9835 -1.8035  0.4595
   92MOL0     H12644   3.706  10.109   5.493 -1.7292  0.4115 -0.8994
   92MOL0     H12645   3.551  10.111   5.753 -1.2542 -0.9928 -2.0648
   92MOL0     H12646   3.407  10.199   5.910  2.6178 -0.3391  0.6852
   92MOL0     H12647   3.322  10.349   5.872  0.0357  0.3364 -3.1743
   92MOL0     H12648   3.481  10.472   6.006 -1.6743 -0.1352  0.0553
   92MOL0     H12649   3.367  10.359   6.086 -0.5577  2.5101  0.2708
   92MOL0     H12650   3.527  10.186   6.100 -0.9286 -0.0234 -1.0076
   92MOL0     H12651   3.655  10.266   6.014  1.0277 -0.6759  2.2427
   92MOL0     H12652   3.706  10.249   6.253  1.5870  0.2498 -2.2700
   92MOL0     H12653   3.695  10.419   6.211  0.9256 -0.5780 -1.1367
   92MOL0     H12654   3.290  10.377   6.383  1.1556 -0.5981  1.3645
   92MOL0     H12655   3.055  10.620   6.361  0.4036 -0.4188 -0.4229
   92MOL0     H12656   3.096  10.627   6.540 -2.2107  0.4341  0.5215
   92MOL0     H12657   3.090  10.476   6.463 -0.8905  0.4324  1.6898
   92MOL0     H12658   3.263  11.126   6.236  2.1725  2.2558 -0.2324
   92MOL0     H12659   3.149  11.325   6.262  0.0204  0.0979 -0.3004
   92MOL0     H12660   3.044  11.621   6.412  2.3578 -0.5068  2.8748
   92MOL0     H12661   3.127  11.518   6.301 -1.7066 -3.7673 -1.9107
   92MOL0     H12662   2.895  11.365   6.358 -3.0068  0.5036  0.1645
   92MOL0     H12663   2.833  11.529   6.359 -1.6512  0.5020 -1.7844
   92MOL0     H12664   2.824  11.444   6.147 -0.5886  4.4254 -0.6560
   92MOL0     H12665   3.002  11.408   6.144  0.6582 -0.4715  1.0275
   92MOL0     H12666   3.024  11.656   6.132 -1.0044  1.0284 -0.7818
   92MOL0     H12667   2.851  11.675   6.155 -0.6334 -0.2628  1.2061
   92MOL0     H12668   2.973  11.542   5.918 -2.3657 -1.4271 -2.0899
   92MOL0     H12669   2.804  11.572   5.950 -1.1518 -2.0254  3.3797
   92MOL0     H12670   2.889  11.739   5.808 -1.3254 -1.2800  0.0562
   92MOL0     H12671   3.011  11.804   5.931 -1.7320  2.0760  2.6373
   92MOL0     H12672   2.847  11.933   6.031  0.2387  0.8640 -3.0835
   92MOL0     H12673   2.738  11.787   6.032 -3.4552  3.2829  1.1841
   92MOL0     H12674   2.819  11.971   5.809  0.9220  0.6336 -0.7746
   92MOL0     H12675   2.680  12.009   5.927  1.0773  0.4433 -0.1831
   92MOL0     H12676   3.200  11.310   6.674 -3.1077  0.2160  0.0399
   92MOL0     H12677   3.299  11.077   6.670 -1.4181 -2.3853 -1.1769
   92MOL0     H12678   3.529  10.797   6.380 -0.8561 -0.7956  1.9264
   92MOL0     H12679   3.653  10.597   6.338 -0.6879  0.3332 -0.5624
   92MOL0     H12680   3.845   9.265   5.630 -1.0820  2.3442  1.9399
   92MOL0     H12681   3.882   9.012   5.644  1.8397 -1.0224 -0.1540
   92MOL0     H12682   3.818   8.553   5.829  0.1890 -0.3256  2.9801
   92MOL0     H12683   3.895   8.321   5.783 -2.1829  1.6635  3.5713
   92MOL0     H12684   4.033   8.204   5.606  0.9201  0.1332 -4.2294
   92MOL0     H12685   4.169   8.300   5.570 -0.7534  2.0583  2.4528
   92MOL0     H12686   4.319   8.096   5.612  0.4666  1.0962 -1.9779
   92MOL0     H12687   4.218   8.053   5.479  1.4486 -2.0047  0.3238
   92MOL0     H12688   4.149   8.003   5.770 -3.1628  2.6581 -0.0198
   92MOL0     H12689   4.046   7.950   5.641  0.7620 -1.5425  0.4264
   92MOL0     H12690   4.324   7.864   5.719 -0.3407  3.9298  1.1854
   92MOL0     H12691   4.251   7.801   5.572  0.0345 -0.7749  0.0406
   92MOL0     H12692   4.043   7.561   5.848 -2.3154  1.4031  0.0848
   92MOL0     H12693   4.297   8.454   5.823 -0.5560 -1.5128  2.0520
   92MOL0     H12694   4.279   8.770   5.770 -2.0180  0.3177  0.4247
   92MOL0     H12695   4.210   8.801   5.918 -1.5894  1.8429 -3.7353
   92MOL0     H12696   4.342   8.675   5.908 -0.1099 -0.7358  0.3090
   93MOL0     O12697   2.406  11.478   8.919 -0.2717  0.0679 -0.3035
   93MOL0     C12698   2.381  11.363   8.880  0.3425 -0.5735 -0.2388
   93MOL0     O12699   2.286  11.330   8.791 -1.3556  0.0538 -0.1814
   93MOL0     C12700   2.255  11.423   8.690  0.0711  0.3572 -1.0429
   93MOL0     C12701   2.337  11.522   8.640 -0.6844  0.2034  0.8943
   93MOL0     C12702   2.291  11.617   8.542 -0.6165  0.4950  0.4412
   93MOL0     C12703   2.160  11.613   8.488 -0.5113  0.9505 -0.1366
   93MOL0     O12704   2.118  11.720   8.417  0.3036 -0.1030  0.5078
   93MOL0     C12705   1.971  11.731   8.388  0.5290 -1.0842 -0.1205
   93MOL0     C12706   1.907  11.668   8.265 -0.1727  0.8514 -0.3415
   93MOL0     C12707   1.961  11.730   8.144  0.3556  0.3016  0.0423
   93MOL0     C12708   1.899  11.672   8.015 -0.0825  0.5651 -0.4324
   93MOL0     C12709   1.975  11.721   7.892 -0.6701  1.3055 -0.6126
   93MOL0     C12710   2.097  11.632   7.845  0.4636 -0.1154  0.0543
   93MOL0     C12711   2.133  11.655   7.697 -0.2890  0.2354 -0.1420
   93MOL0     C12712   2.233  11.551   7.665 -0.3510 -0.8286  0.4701
   93MOL0     N12713   2.263  11.556   7.523  0.2626 -0.2709 -0.0659
   93MOL0     C12714   2.166  11.547   7.418  0.5470  0.0785 -0.6503
   93MOL0     C12715   2.241  11.591   7.307  0.6955 -0.3786  0.6828
   93MOL0     C12716   2.189  11.602   7.155  0.6832  1.1045 -0.2239
   93MOL0     C12717   2.051  11.674   7.156 -0.9365 -0.6486  0.1510
   93MOL0     C12718   2.020  11.756   7.029 -0.3770  0.4489 -0.1398
   93MOL0     C12719   2.005  11.673   6.908  0.2341 -0.5000  0.5095
   93MOL0     O12720   1.895  11.582   6.940  0.2371 -0.0590  0.6200
   93MOL0     C12721   1.839  11.505   6.839  0.3603 -0.5731  0.2061
   93MOL0     C12722   1.784  11.388   6.884 -1.3023  0.2077 -0.0997
   93MOL0     C12723   1.731  11.290   6.808 -0.6549 -0.8086 -0.3391
   93MOL0     C12724   1.680  11.174   6.883 -0.0479  0.2224  0.5522
   93MOL0     C12725   1.757  11.296   6.670  0.6402  0.4166 -0.1207
   93MOL0     C12726   1.713  11.193   6.582 -0.2038  0.1104  1.1131
   93MOL0     O12727   1.666  11.236   6.453 -0.3365 -0.6109 -0.0630
   93MOL0     C12728   1.609  11.148   6.360  0.5326  0.7398 -0.2516
   93MOL0     C12729   1.618  11.177   6.222  0.1043  0.2040 -0.2572
   93MOL0     C12730   1.566  11.095   6.127  0.0612  0.1069  1.1062
   93MOL0     C12731   1.483  10.986   6.155  0.1405 -0.5813 -0.1643
   93MOL0     O12732   1.429  10.910   6.050 -0.3942 -0.2926 -0.0012
   93MOL0     C12733   1.298  10.847   6.064 -0.9228  0.4007  0.3127
   93MOL0     C12734   1.206  10.892   5.950 -0.1729  0.2291  0.1391
   93MOL0     C12735   1.060  10.845   5.970  0.8106 -0.2506 -0.1248
   93MOL0     C12736   0.981  10.852   5.833  0.2365 -1.4041 -0.2148
   93MOL0     C12737   0.827  10.841   5.851 -0.6863  0.5461 -0.8534
   93MOL0     C12738   0.742  10.872   5.727 -1.0455  0.5164 -0.1123
   93MOL0     C12739   0.718  10.757   5.624  1.0226 -0.1389  0.3434
   93MOL0     C12740   0.633  10.816   5.515  0.7019 -0.4279  0.3942
   93MOL0    Cl12741   0.608  10.698   5.383  0.7104  0.1091 -0.1344
   93MOL0     C12742   1.480  10.950   6.293  0.2953  0.0699  0.1664
   93MOL0     C12743   1.536  11.034   6.389  0.0639 -0.0253 -0.5014
   93MOL0     O12744   1.739  11.077   6.610  0.1365  1.0899 -0.4725
   93MOL0     C12745   1.832  11.404   6.617  0.4341 -0.4914  0.1809
   93MOL0     C12746   1.860  11.516   6.702 -0.1579  0.2488  0.0510
   93MOL0     N12747   2.361  11.621   7.348  1.0307 -0.6920 -0.8535
   93MOL0     N12748   2.387  11.590   7.473  0.1281 -0.0940 -0.0670
   93MOL0     C12749   2.080  11.503   8.532 -0.4283 -0.8202  0.4489
   93MOL0     C12750   2.124  11.406   8.631  0.1751 -0.4369  0.2383
   93MOL0     C12751   2.420  11.245   8.954 -0.4123  1.1797 -0.1933
   93MOL0     C12752   2.341  11.130   8.945  0.3363 -0.3600  0.6869
   93MOL0     C12753   2.366  11.010   9.018  0.6981 -0.6811  0.9255
   93MOL0     C12754   2.473  11.002   9.104 -0.5644  1.0121  0.0463
   93MOL0     O12755   2.512  10.897   9.181  0.1269 -0.4438  0.3040
   93MOL0     C12756   2.431  10.781   9.182  0.6886  0.1521  0.5085
   93MOL0     C12757   2.457  10.666   9.287 -0.0515  0.0979 -0.5264
   93MOL0     C12758   2.585  10.591   9.252 -1.2275 -0.2920  0.5751
   93MOL0     C12759   2.623  10.472   9.351  1.3800 -0.1827  0.5974
   93MOL0     C12760   2.671  10.508   9.488 -0.8999 -1.3764 -0.5079
   93MOL0     C12761   2.715  10.555   9.595  0.6566  0.5210  0.5419
   93MOL0     C12762   2.560  11.109   9.119  0.1087 -0.3595  0.9443
   93MOL0     C12763   2.538  11.229   9.037 -0.2776 -0.4373  0.1289
   93MOL0     C12764   2.637  11.341   9.054 -0.5138  0.1052 -0.1458
   93MOL0     H12765   2.439  11.542   8.671 -0.6845  2.8386 -0.5745
   93MOL0     H12766   2.356  11.690   8.494 -3.6201  1.7545 -2.0548
   93MOL0     H12767   1.950  11.838   8.384 -0.2128 -1.1307  1.5556
   93MOL0     H12768   1.913  11.700   8.476 -3.1063 -0.9675 -2.2663
   93MOL0     H12769   1.925  11.560   8.257 -2.5030  0.2849  1.2094
   93MOL0     H12770   1.799  11.683   8.272 -0.1564  0.5322  0.6045
   93MOL0     H12771   1.938  11.837   8.137 -0.7545 -0.0197 -1.9794
   93MOL0     H12772   2.068  11.706   8.140  0.3166 -0.1472  1.2378
   93MOL0     H12773   1.899  11.563   8.019  2.1495  0.5060  3.9055
   93MOL0     H12774   1.795  11.706   8.008  0.3736  2.5043  1.0617
   93MOL0     H12775   2.001  11.827   7.895 -2.1726  1.7527 -2.1362
   93MOL0     H12776   1.898  11.710   7.815  0.6940 -1.3298 -1.7421
   93MOL0     H12777   2.180  11.653   7.913 -0.6611  0.4989  1.2822
   93MOL0     H12778   2.078  11.524   7.854  0.6218 -0.3472 -1.9068
   93MOL0     H12779   2.163  11.758   7.673  3.0796 -1.0777 -2.2404
   93MOL0     H12780   2.038  11.636   7.647 -0.8012 -0.8689  1.1755
   93MOL0     H12781   2.321  11.568   7.728 -1.3928  1.0567  1.5155
   93MOL0     H12782   2.184  11.454   7.679  0.1835 -1.1522  0.1239
   93MOL0     H12783   2.059  11.527   7.420  0.5775 -0.0203  0.3916
   93MOL0     H12784   2.184  11.505   7.106 -3.2698  1.9789 -1.9280
   93MOL0     H12785   2.263  11.663   7.104  2.3930 -1.9076 -1.6213
   93MOL0     H12786   1.965  11.607   7.167 -1.3402 -0.5083 -1.8130
   93MOL0     H12787   2.054  11.755   7.229 -1.5746  2.5116 -3.0295
   93MOL0     H12788   1.927  11.812   7.045 -1.2448 -0.7024 -0.9841
   93MOL0     H12789   2.100  11.826   7.005  0.3057 -0.5989 -1.0167
   93MOL0     H12790   1.988  11.740   6.823  0.2788  0.5335  1.2944
   93MOL0     H12791   2.098  11.617   6.893 -0.6955 -1.2172 -4.0644
   93MOL0     H12792   1.778  11.386   6.992 -0.1368  0.6671 -0.0081
   93MOL0     H12793   1.570  11.177   6.884 -0.1002  1.3617 -1.7853
   93MOL0     H12794   1.720  11.186   6.984  1.1839  0.7933  0.0128
   93MOL0     H12795   1.708  11.076   6.845 -2.0348  0.9247 -3.1069
   93MOL0     H12796   1.671  11.266   6.189  2.6710 -0.4654  1.7106
   93MOL0     H12797   1.594  11.126   6.026  2.2678  1.1455  1.9734
   93MOL0     H12798   1.308  10.739   6.075  2.8776  0.7411  1.5105
   93MOL0     H12799   1.249  10.887   6.154 -1.2922 -0.7485  0.6347
   93MOL0     H12800   1.203  11.001   5.950 -2.0117  0.2452 -1.8882
   93MOL0     H12801   1.247  10.857   5.855  3.7741 -1.7665  2.3299
   93MOL0     H12802   1.007  10.909   6.040  0.2800 -0.2855 -0.4907
   93MOL0     H12803   1.069  10.742   6.005  2.0094  0.0202  0.4366
   93MOL0     H12804   1.005  10.775   5.759 -2.3842 -0.8102 -1.8278
   93MOL0     H12805   1.015  10.946   5.789  4.1669 -1.3333  2.4787
   93MOL0     H12806   0.800  10.742   5.891 -1.6473 -0.1197 -2.9941
   93MOL0     H12807   0.805  10.912   5.931  2.1616 -1.7565  2.2760
   93MOL0     H12808   0.783  10.969   5.695  2.4288 -0.6405  0.4367
   93MOL0     H12809   0.642  10.900   5.762 -1.3518 -1.6739  0.8848
   93MOL0     H12810   0.665  10.669   5.661  0.0229  0.1443 -0.3737
   93MOL0     H12811   0.818  10.730   5.587  0.3824 -3.8348  0.8668
   93MOL0     H12812   0.678  10.905   5.472 -0.2160 -0.1028  0.0920
   93MOL0     H12813   0.539  10.838   5.567  1.2361 -1.9603  2.1122
   93MOL0     H12814   1.413  10.875   6.333  1.3331  0.4338  2.8044
   93MOL0     H12815   1.522  11.007   6.493 -2.2062  0.2846 -0.6711
   93MOL0     H12816   1.865  11.400   6.514  1.4382  2.6207  0.2923
   93MOL0     H12817   1.919  11.596   6.656  1.9200 -1.7160 -0.9102
   93MOL0     H12818   1.981  11.488   8.490  0.3651 -1.1528 -1.4228
   93MOL0     H12819   2.045  11.349   8.679 -0.8049  1.6023  1.1577
   93MOL0     H12820   2.251  11.132   8.884  0.9141 -2.5804 -0.3604
   93MOL0     H12821   2.302  10.923   9.010  0.1858 -0.2873  0.6687
   93MOL0     H12822   2.329  10.817   9.201  1.4487  1.4312  2.4125
   93MOL0     H12823   2.428  10.733   9.084 -0.8326 -1.0670  1.1115
   93MOL0     H12824   2.372  10.599   9.270  0.4932 -1.6198  2.6967
   93MOL0     H12825   2.459  10.696   9.392 -1.8373 -2.4257  0.3262
   93MOL0     H12826   2.579  10.553   9.149 -1.3966  2.7434 -0.6327
   93MOL0     H12827   2.664  10.666   9.247 -0.7275 -0.7452  1.3686
   93MOL0     H12828   2.696  10.398   9.317 -0.3582 -0.0277 -4.1048
   93MOL0     H12829   2.526  10.425   9.368  0.0215  1.3325 -2.2452
   93MOL0     H12830   2.754  10.595   9.686 -0.3731  0.1439  1.1604
   93MOL0     H12831   2.643  11.099   9.189  0.4484 -1.2810  0.4274
   93MOL0     H12832   2.718  11.315   9.123 -0.3824  0.7395 -0.0505
   93MOL0     H12833   2.677  11.374   8.958 -0.9880 -1.5977 -0.9644
   93MOL0     H12834   2.594  11.433   9.096 -0.3748 -0.2027  0.6847
   94MOL0     O12835   5.082   0.753   3.026 -0.6038  0.4606  0.7216
   94MOL0     C12836   5.058   0.843   2.950 -0.3720  0.2722 -0.4504
   94MOL0     O12837   5.156   0.941   2.914 -0.1146 -0.4442  0.2615
   94MOL0     C12838   5.281   0.920   2.971 -0.7496  0.3566 -0.8549
   94MOL0     C12839   5.328   0.985   3.084  0.4754  0.5727  1.1366
   94MOL0     C12840   5.448   0.953   3.151  0.7755  1.3226 -0.0305
   94MOL0     C12841   5.532   0.858   3.094  0.8311  0.0101 -0.6863
   94MOL0     O12842   5.661   0.830   3.152 -0.0201  0.2571 -0.3348
   94MOL0     C12843   5.767   0.763   3.079  0.2589 -0.3491 -0.0613
   94MOL0     C12844   5.862   0.701   3.175  0.6707  0.1156  0.1778
   94MOL0     C12845   5.962   0.793   3.239 -0.0448 -0.8829  0.0624
   94MOL0     C12846   6.033   0.723   3.352 -0.0916  0.5166 -0.5771
   94MOL0     C12847   6.103   0.811   3.452 -0.6376  0.1337  0.6517
   94MOL0     C12848   6.237   0.880   3.384 -0.4049 -0.7113  0.4115
   94MOL0     C12849   6.298   0.970   3.496 -0.4286  0.4451 -0.4124
   94MOL0     C12850   6.261   1.111   3.478 -0.6532 -0.5312 -0.3888
   94MOL0     N12851   6.311   1.191   3.591  1.5942 -0.1577 -0.7656
   94MOL0     C12852   6.317   1.325   3.581 -0.7828  0.0831 -0.5370
   94MOL0     C12853   6.318   1.367   3.709  0.5824 -0.5604 -0.4571
   94MOL0     C12854   6.301   1.508   3.759  0.4359  0.1481  0.8542
   94MOL0     C12855   6.433   1.566   3.823 -0.4276  0.2510 -0.3262
   94MOL0     C12856   6.392   1.691   3.915 -0.0160  0.1200  0.3420
   94MOL0     C12857   6.330   1.662   4.052  0.5971  0.0933  0.4215
   94MOL0     O12858   6.257   1.786   4.099 -0.7182 -0.5399  0.0876
   94MOL0     C12859   6.122   1.800   4.074 -0.7285  0.2591 -0.6261
   94MOL0     C12860   6.029   1.720   4.007 -1.4359 -0.0299  0.0603
   94MOL0     C12861   5.887   1.740   3.998 -0.6660 -0.3301 -0.2769
   94MOL0     C12862   5.802   1.651   3.907 -0.9257 -0.3565  0.5695
   94MOL0     C12863   5.843   1.861   4.066  0.1465  1.0064 -0.0740
   94MOL0     C12864   5.701   1.909   4.066  0.5596  0.7277 -0.0921
   94MOL0     O12865   5.603   1.817   4.078  0.2922  0.4933  0.1751
   94MOL0     C12866   5.475   1.857   4.073  0.7151 -0.0739 -0.5304
   94MOL0     C12867   5.413   1.979   4.044  0.2532 -1.0239 -0.1318
   94MOL0     C12868   5.274   1.988   4.047  0.0064 -0.6170 -0.3432
   94MOL0     C12869   5.186   1.880   4.076 -0.2270  0.3013  0.8638
   94MOL0     O12870   5.056   1.896   4.042  0.3349 -0.2898  0.4194
   94MOL0     C12871   4.981   1.788   3.987  0.9590 -0.1977  0.2338
   94MOL0     C12872   4.834   1.825   3.947 -0.7199 -0.2739 -0.7070
   94MOL0     C12873   4.798   1.796   3.804  0.2226 -1.3750  0.0273
   94MOL0     C12874   4.749   1.651   3.804  0.1459 -0.1449  0.9392
   94MOL0     C12875   4.678   1.613   3.668  0.0067  0.1343 -0.4707
   94MOL0     C12876   4.743   1.666   3.541 -0.7253  0.1660  0.2332
   94MOL0     C12877   4.647   1.632   3.427  0.0165 -1.1566  0.6882
   94MOL0     C12878   4.630   1.483   3.395  0.5009  0.3380  0.1955
   94MOL0    Cl12879   4.572   1.466   3.225  0.0970 -0.2177 -0.2777
   94MOL0     C12880   5.247   1.760   4.115  0.5214  0.4469  0.3034
   94MOL0     C12881   5.390   1.743   4.093  0.5046  0.4318 -1.6437
   94MOL0     O12882   5.692   2.027   4.042  0.0115  0.6086 -0.1361
   94MOL0     C12883   5.932   1.954   4.130  0.7511 -0.2821  0.1677
   94MOL0     C12884   6.065   1.924   4.132 -1.3904  0.2540  0.1246
   94MOL0     N12885   6.322   1.263   3.794  0.2916 -0.3010 -0.1415
   94MOL0     N12886   6.313   1.159   3.726 -0.3495 -0.3174  1.3196
   94MOL0     C12887   5.484   0.788   2.978 -0.4153 -0.3111  0.0262
   94MOL0     C12888   5.357   0.814   2.923 -0.4702  0.0789  0.0148
   94MOL0     C12889   4.943   0.821   2.852  1.0318  0.4615  0.5429
   94MOL0     C12890   4.949   0.856   2.711  0.6222  0.7005  0.4155
   94MOL0     C12891   4.850   0.830   2.618  0.0532  0.4244 -0.2495
   94MOL0     C12892   4.724   0.778   2.669  0.3721  0.5095 -0.2713
   94MOL0     O12893   4.619   0.792   2.582 -0.1528  0.3975 -0.1751
   94MOL0     C12894   4.550   0.666   2.553 -1.8053  0.2358  0.0315
   94MOL0     C12895   4.410   0.673   2.595  0.3901 -0.8133  0.2795
   94MOL0     C12896   4.330   0.776   2.518  0.3602 -0.8743 -0.1445
   94MOL0     C12897   4.191   0.791   2.588 -0.0617  0.0087 -0.0832
   94MOL0     C12898   4.092   0.851   2.502 -0.8188  0.2287 -1.6601
   94MOL0     C12899   4.010   0.900   2.444 -0.2915  0.1572 -0.1918
   94MOL0     C12900   4.713   0.746   2.811 -0.3854  0.6144  0.5104
   94MOL0     C12901   4.824   0.767   2.897 -0.3864 -0.3570 -0.8219
   94MOL0     C12902   4.799   0.732   3.043  0.7629  0.8046 -0.0764
   94MOL0     H12903   5.271   1.068   3.124 -0.4245  0.0300  0.9929
   94MOL0     H12904   5.473   0.999   3.246  1.4804  0.7412  0.0792
   94MOL0     H12905   5.820   0.830   3.011 -1.7857  1.7846  0.3399
   94MOL0     H12906   5.725   0.681   3.021  0.7653 -0.6988  0.0509
   94MOL0     H12907   5.797   0.643   3.241 -0.2381 -2.2526 -2.5795
   94MOL0     H12908   5.911   0.621   3.118 -1.9842 -1.2505 -0.3291
   94MOL0     H12909   6.026   0.817   3.154  0.3231  0.0450  0.5912
   94MOL0     H12910   5.906   0.875   3.285 -0.7588 -1.9459  1.1727
   94MOL0     H12911   5.952   0.674   3.406  0.9029 -1.5618 -0.8874
   94MOL0     H12912   6.098   0.653   3.298  0.8787 -0.2534  1.4925
   94MOL0     H12913   6.136   0.736   3.525 -0.8188 -0.9914 -0.3871
   94MOL0     H12914   6.041   0.889   3.497  0.2832  2.6981 -2.2064
   94MOL0     H12915   6.319   0.811   3.362 -1.0326 -2.0294  2.0682
   94MOL0     H12916   6.219   0.935   3.291 -2.6202  1.1373  1.8497
   94MOL0     H12917   6.406   0.962   3.482 -0.4387 -1.1726  0.1957
   94MOL0     H12918   6.279   0.937   3.599  0.6729 -0.0885 -0.3652
   94MOL0     H12919   6.298   1.150   3.383 -0.8549  0.2223 -0.1656
   94MOL0     H12920   6.152   1.112   3.464 -0.9587 -1.3722  1.5755
   94MOL0     H12921   6.335   1.388   3.494 -1.0634 -0.1993 -0.8053
   94MOL0     H12922   6.226   1.505   3.839  0.5758 -2.9385  0.9943
   94MOL0     H12923   6.275   1.582   3.683  4.3573  1.1007  0.2602
   94MOL0     H12924   6.480   1.493   3.890  1.0576  1.0201 -0.4863
   94MOL0     H12925   6.499   1.600   3.742  0.3923  0.3815  0.3837
   94MOL0     H12926   6.476   1.761   3.921 -0.8558  1.5632 -2.7819
   94MOL0     H12927   6.313   1.743   3.861 -1.6879 -1.7917  0.8273
   94MOL0     H12928   6.268   1.573   4.038  1.6829 -0.3696 -1.8073
   94MOL0     H12929   6.410   1.635   4.122  2.2117 -1.5510 -1.9341
   94MOL0     H12930   6.071   1.630   3.962  0.7768  0.8106  0.2776
   94MOL0     H12931   5.757   1.718   3.834 -1.3730 -0.3262  0.8695
   94MOL0     H12932   5.729   1.599   3.970  0.3938 -4.9959 -1.3259
   94MOL0     H12933   5.856   1.571   3.855  0.0108 -1.0514  2.5067
   94MOL0     H12934   5.463   2.067   4.007 -2.1110  0.4494 -0.0380
   94MOL0     H12935   5.226   2.078   4.011  0.0265 -0.9660 -1.2672
   94MOL0     H12936   5.021   1.746   3.894 -1.7863  0.7364 -1.4854
   94MOL0     H12937   4.985   1.704   4.057  1.8585  0.3869  0.9093
   94MOL0     H12938   4.757   1.780   4.011  0.0319 -0.0903  0.3632
   94MOL0     H12939   4.825   1.933   3.960 -0.2642 -0.0521 -2.1663
   94MOL0     H12940   4.883   1.823   3.741  0.2675  2.0164  1.3642
   94MOL0     H12941   4.713   1.854   3.769 -0.1583 -3.9289 -3.8212
   94MOL0     H12942   4.679   1.628   3.886  1.3599  2.0199  2.6952
   94MOL0     H12943   4.833   1.584   3.821  1.2188  1.1183  0.7419
   94MOL0     H12944   4.676   1.505   3.656  0.0024  0.0353  0.3450
   94MOL0     H12945   4.575   1.651   3.675 -1.0338 -2.4806 -0.6486
   94MOL0     H12946   4.835   1.609   3.524 -0.5291 -0.2944  2.4892
   94MOL0     H12947   4.771   1.771   3.553  3.8722 -1.0908  3.1144
   94MOL0     H12948   4.708   1.670   3.344  0.4342 -0.5732  1.2592
   94MOL0     H12949   4.550   1.683   3.425  0.1473 -0.8819 -1.5321
   94MOL0     H12950   4.572   1.421   3.464  0.7909 -0.4421 -0.2501
   94MOL0     H12951   4.724   1.428   3.406 -1.0193 -2.1053  2.3740
   94MOL0     H12952   5.181   1.674   4.130  1.9458 -1.1603 -2.0835
   94MOL0     H12953   5.428   1.643   4.106 -1.0752 -0.3917 -2.9039
   94MOL0     H12954   5.891   2.044   4.175 -0.7217 -1.6278  1.6512
   94MOL0     H12955   6.146   1.982   4.175 -0.0986 -1.7177  0.4839
   94MOL0     H12956   5.535   0.706   2.928  1.8453  1.5851 -0.9703
   94MOL0     H12957   5.325   0.759   2.834  0.1114 -0.0356 -0.1313
   94MOL0     H12958   5.045   0.897   2.682  0.5693  0.1517 -0.5745
   94MOL0     H12959   4.852   0.872   2.518 -0.4798 -2.7188 -1.7154
   94MOL0     H12960   4.553   0.647   2.446  3.0176 -0.4536  0.0595
   94MOL0     H12961   4.591   0.574   2.596  2.3894  0.5896 -2.6084
   94MOL0     H12962   4.404   0.696   2.702  0.1286  1.5382 -0.1807
   94MOL0     H12963   4.364   0.574   2.589  0.4720 -0.7765 -1.4931
   94MOL0     H12964   4.381   0.872   2.513  0.7794 -1.1553 -1.9206
   94MOL0     H12965   4.319   0.742   2.414 -0.4049  0.5513 -0.5443
   94MOL0     H12966   4.203   0.849   2.680 -4.7374 -1.0146  1.4641
   94MOL0     H12967   4.150   0.695   2.620 -1.7107  0.8873  0.5837
   94MOL0     H12968   3.932   0.958   2.399  1.4718  2.7359 -0.1665
   94MOL0     H12969   4.620   0.713   2.855  0.0522  1.2199  1.9661
   94MOL0     H12970   4.861   0.793   3.110 -1.2192  1.0793  1.5824
   94MOL0     H12971   4.695   0.759   3.062  0.3916  0.0405 -0.9401
   94MOL0     H12972   4.815   0.628   3.073 -1.0125  1.2562  2.7537
   95MOL0     O12973   6.678  11.544   5.145  0.7036 -0.4350 -0.1187
   95MOL0     C12974   6.782  11.484   5.104 -0.4381  0.0282 -0.4273
   95MOL0     O12975   6.910  11.537   5.103  0.0665 -0.1364 -0.3589
   95MOL0     C12976   6.949  11.657   5.177  1.0592  0.0880 -0.0975
   95MOL0     C12977   6.864  11.734   5.268  0.8962  0.6305  0.4862
   95MOL0     C12978   6.904  11.852   5.327 -0.4352 -0.1319  0.0591
   95MOL0     C12979   7.038  11.889   5.316 -0.4559  0.2453 -0.1748
   95MOL0     O12980   7.075  11.985   5.398 -0.2820 -0.6868  0.3474
   95MOL0     C12981   7.224  11.993   5.418 -0.0275 -0.2544  0.3791
   95MOL0     C12982   7.263  12.087   5.521 -0.3003 -0.8352 -0.2062
   95MOL0     C12983   7.190  12.224   5.536  0.2770  0.0764 -0.3907
   95MOL0     C12984   7.236  12.308   5.658 -0.9676  0.1182  1.2532
   95MOL0     C12985   7.166  12.447   5.665 -0.4769 -0.3681  0.1852
   95MOL0     C12986   7.246  12.547   5.756  0.8525  0.0986 -0.5339
   95MOL0     C12987   7.188  12.695   5.763  0.3251 -0.9617  1.8684
   95MOL0     C12988   7.033  12.687   5.787 -0.0104 -0.0193 -0.2322
   95MOL0     N12989   6.980  12.818   5.811 -0.5476 -1.7519 -0.3706
   95MOL0     C12990   7.002  12.928   5.734 -0.2870 -0.8379 -0.0578
   95MOL0     C12991   6.953  13.027   5.797 -0.1469 -0.0999 -0.6265
   95MOL0     C12992   6.953  13.166   5.752 -0.0775  0.2260  0.7278
   95MOL0     C12993   7.089  13.230   5.790 -0.2625 -0.4757  0.1203
   95MOL0     C12994   7.134  13.340   5.692 -0.6425 -1.5832 -0.1999
   95MOL0     C12995   7.268  13.393   5.734 -0.3048  0.6899  0.5381
   95MOL0     O12996   7.307  13.490   5.633  0.5049 -1.0183  1.0041
   95MOL0     C12997   7.271  13.620   5.635  0.2949  0.1205  0.1926
   95MOL0     C12998   7.299  13.692   5.518  0.4999 -0.1503  0.1265
   95MOL0     C12999   7.276  13.826   5.503  0.3004 -0.9274 -0.3092
   95MOL0     C13000   7.327  13.881   5.376 -0.3898  0.2385  0.1919
   95MOL0     C13001   7.219  13.904   5.607  0.1759 -0.3335  0.5417
   95MOL0     C13002   7.201  14.059   5.605  0.3234  0.3113  0.6167
   95MOL0     O13003   7.198  14.118   5.722 -0.2727 -0.6040 -0.7428
   95MOL0     C13004   7.164  14.250   5.729 -0.6437  0.4296  0.2383
   95MOL0     C13005   7.194  14.355   5.640  0.3745 -0.0101 -0.2887
   95MOL0     C13006   7.163  14.487   5.671 -0.2213 -0.5240 -0.2392
   95MOL0     C13007   7.098  14.527   5.788  0.0101  0.4722 -0.4866
   95MOL0     O13008   7.043  14.651   5.824  0.7079 -0.6713 -0.3179
   95MOL0     C13009   7.113  14.762   5.769  0.4307  0.1068 -0.7309
   95MOL0     C13010   7.088  14.892   5.834 -0.0550  0.1176 -0.1115
   95MOL0     C13011   7.146  15.006   5.758  0.3003 -0.1384 -0.2141
   95MOL0     C13012   7.249  15.074   5.846 -0.1176  0.1511  0.8123
   95MOL0     C13013   7.283  15.209   5.794 -0.5371  0.5490  0.6294
   95MOL0     C13014   7.391  15.217   5.679 -0.4562  0.5626 -0.2611
   95MOL0     C13015   7.516  15.123   5.700  0.8542 -0.0128 -0.0979
   95MOL0     C13016   7.629  15.156   5.611  1.0097  0.0611  0.8034
   95MOL0    Cl13017   7.563  15.137   5.449  0.1406  0.1338  0.3113
   95MOL0     C13018   7.053  14.423   5.872  0.5957  0.0224  0.5111
   95MOL0     C13019   7.095  14.290   5.843 -0.1214  0.7492  0.5553
   95MOL0     O13020   7.158  14.106   5.500  0.0767 -0.1778  0.0040
   95MOL0     C13021   7.206  13.835   5.728  1.3253  0.1717  0.5506
   95MOL0     C13022   7.224  13.693   5.748 -0.2101 -0.2104 -0.5816
   95MOL0     N13023   6.897  12.989   5.919 -0.0842 -0.8158  0.3658
   95MOL0     N13024   6.911  12.861   5.922  0.3335 -0.1520  0.0487
   95MOL0     C13025   7.126  11.824   5.230 -0.2354  0.0477  0.5044
   95MOL0     C13026   7.078  11.708   5.157  0.5087 -0.3519  0.5062
   95MOL0     C13027   6.751  11.346   5.054  0.3250  0.4156 -0.1482
   95MOL0     C13028   6.662  11.265   5.125  0.3520 -0.7645  0.5916
   95MOL0     C13029   6.620  11.147   5.074 -0.1995  0.8088  0.2921
   95MOL0     C13030   6.659  11.093   4.947 -0.1783 -0.1914  0.1748
   95MOL0     O13031   6.592  10.989   4.894  0.5089 -0.2560 -0.5075
   95MOL0     C13032   6.620  10.922   4.768  0.0562 -0.0982 -0.4377
   95MOL0     C13033   6.570  10.988   4.643 -0.0364  0.9327 -0.4005
   95MOL0     C13034   6.567  10.881   4.534  0.3365 -0.2393  0.5002
   95MOL0     C13035   6.530  10.949   4.399 -0.8120  0.6983  0.2282
   95MOL0     C13036   6.394  10.991   4.388 -0.2351 -0.3368 -0.6180
   95MOL0     C13037   6.279  11.029   4.399  0.1410  0.0338 -0.6288
   95MOL0     C13038   6.751  11.178   4.881 -0.2377 -0.0519  0.2087
   95MOL0     C13039   6.798  11.300   4.936  0.1713  0.6749  0.9499
   95MOL0     C13040   6.896  11.384   4.857  0.6071  0.2841 -0.5271
   95MOL0     H13041   6.759  11.710   5.282  0.6857  1.7422  0.9243
   95MOL0     H13042   6.842  11.903   5.400 -0.8370  2.3955 -1.9478
   95MOL0     H13043   7.271  12.030   5.327 -1.6942  2.5566  0.5212
   95MOL0     H13044   7.264  11.893   5.439  4.4234  0.5376 -2.9369
   95MOL0     H13045   7.274  12.050   5.623 -3.8631  0.9663  0.9779
   95MOL0     H13046   7.360  12.134   5.499 -0.7083  1.7847  2.9156
   95MOL0     H13047   7.196  12.289   5.448  0.6139  3.6896  2.0928
   95MOL0     H13048   7.085  12.196   5.554  0.4879  1.0220  2.9900
   95MOL0     H13049   7.217  12.253   5.750 -1.4235  0.1978  1.2098
   95MOL0     H13050   7.343  12.328   5.644 -1.3423  2.3419  1.2082
   95MOL0     H13051   7.063  12.430   5.698 -1.2263 -1.2225 -2.4111
   95MOL0     H13052   7.150  12.491   5.566  1.4942 -1.1367 -0.5268
   95MOL0     H13053   7.245  12.495   5.853  0.2407  1.9477  0.4859
   95MOL0     H13054   7.351  12.555   5.725  1.5020 -0.8991  1.2114
   95MOL0     H13055   7.206  12.752   5.671 -0.6449 -1.2360  1.4921
   95MOL0     H13056   7.224  12.752   5.849  0.8759  0.6439  0.6324
   95MOL0     H13057   6.983  12.638   5.703  0.5512 -1.9679  0.5153
   95MOL0     H13058   7.015  12.620   5.872 -2.0185  1.3660  0.5072
   95MOL0     H13059   7.058  12.941   5.642 -0.8960  2.2814 -0.0773
   95MOL0     H13060   6.881  13.220   5.814  0.4033  2.0986 -0.2637
   95MOL0     H13061   6.945  13.171   5.643  0.7514  1.6071  0.7086
   95MOL0     H13062   7.087  13.267   5.894 -0.9887 -1.7907  0.5946
   95MOL0     H13063   7.163  13.151   5.781 -1.8590 -1.8408 -1.8585
   95MOL0     H13064   7.142  13.295   5.593  1.0012 -2.3635  0.2433
   95MOL0     H13065   7.064  13.424   5.699 -0.4661 -1.4624  0.1519
   95MOL0     H13066   7.270  13.446   5.830  0.5161  0.4944  0.6436
   95MOL0     H13067   7.333  13.306   5.746 -0.6791  0.7522  3.8451
   95MOL0     H13068   7.342  13.641   5.433 -1.0791  1.3184 -1.6157
   95MOL0     H13069   7.398  13.812   5.329  0.5996  0.7631  0.8867
   95MOL0     H13070   7.374  13.980   5.380  2.1473 -0.8260 -1.0335
   95MOL0     H13071   7.241  13.884   5.309  0.4373 -3.4889 -1.2848
   95MOL0     H13072   7.253  14.341   5.550  1.2534 -0.9946  0.4108
   95MOL0     H13073   7.178  14.567   5.600 -1.1045  2.1141  2.3727
   95MOL0     H13074   7.221  14.745   5.765  0.4858  0.6177 -1.6300
   95MOL0     H13075   7.085  14.759   5.664 -0.7169  1.1224 -0.4778
   95MOL0     H13076   6.981  14.915   5.835  0.0050  0.7867 -2.4782
   95MOL0     H13077   7.125  14.882   5.936 -2.2727 -1.9526  0.6008
   95MOL0     H13078   7.057  15.068   5.740  0.3059  0.2531  1.0494
   95MOL0     H13079   7.187  14.979   5.660  0.8408 -1.4329  0.3499
   95MOL0     H13080   7.336  15.008   5.844  1.4042  2.0958 -1.1720
   95MOL0     H13081   7.219  15.088   5.950  0.2556 -0.4269  1.0071
   95MOL0     H13082   7.194  15.268   5.769  0.9729  1.5595 -2.9708
   95MOL0     H13083   7.344  15.260   5.870  0.6897  0.6202 -0.3682
   95MOL0     H13084   7.423  15.321   5.671 -1.4575  0.7949 -1.5759
   95MOL0     H13085   7.352  15.191   5.580  0.3863 -1.1069 -0.1871
   95MOL0     H13086   7.490  15.018   5.688 -1.9456  0.6630 -0.8044
   95MOL0     H13087   7.567  15.132   5.796  1.8507 -1.7103 -0.4333
   95MOL0     H13088   7.703  15.075   5.617  0.9513  0.0951  4.9689
   95MOL0     H13089   7.682  15.251   5.624  0.3727  0.9868 -2.3470
   95MOL0     H13090   6.977  14.457   5.942 -1.0704 -1.3949 -0.5150
   95MOL0     H13091   7.071  14.217   5.920  0.9624  1.6780  1.8082
   95MOL0     H13092   7.155  13.894   5.803 -2.9033  1.5216 -3.0120
   95MOL0     H13093   7.219  13.655   5.849  0.4956  0.3027 -0.3488
   95MOL0     H13094   7.228  11.857   5.210 -0.3198  0.7053  1.0968
   95MOL0     H13095   7.141  11.669   5.078  1.5995  2.9756 -0.4320
   95MOL0     H13096   6.622  11.303   5.219  1.5615  1.7335  0.1750
   95MOL0     H13097   6.545  11.097   5.135  1.4602 -1.4771  0.5895
   95MOL0     H13098   6.726  10.894   4.770 -0.0396 -0.8224  3.5450
   95MOL0     H13099   6.573  10.825   4.785  0.9382 -0.2292  1.5893
   95MOL0     H13100   6.632  11.074   4.617 -0.6372  0.6167 -3.2296
   95MOL0     H13101   6.470  11.019   4.676 -1.0532 -2.3960 -0.0238
   95MOL0     H13102   6.659  10.823   4.537  0.0835 -0.8446 -1.5681
   95MOL0     H13103   6.493  10.806   4.564 -1.1479  0.4617 -1.1565
   95MOL0     H13104   6.537  10.867   4.327  1.0308 -0.5714  1.7464
   95MOL0     H13105   6.602  11.029   4.378 -2.4791  1.8675 -1.3252
   95MOL0     H13106   6.176  11.059   4.404  0.7005  1.8301  1.8743
   95MOL0     H13107   6.776  11.148   4.780  1.1384 -0.0584  0.5309
   95MOL0     H13108   6.860  11.485   4.837  1.5032  0.8429  0.5697
   95MOL0     H13109   6.983  11.403   4.920  0.4437 -0.2205 -0.1505
   95MOL0     H13110   6.914  11.339   4.759  0.9742  0.0813 -0.3690
   96MOL0     O13111   8.686   8.813  11.020 -0.1080  0.7522  0.6483
   96MOL0     C13112   8.706   8.691  11.048 -0.4149  1.2971 -0.0262
   96MOL0     O13113   8.689   8.627  11.161 -1.0037  0.4250  0.3134
   96MOL0     C13114   8.679   8.712  11.273  0.5876 -0.8371  0.7929
   96MOL0     C13115   8.764   8.674  11.375 -0.2664 -0.4652  0.7335
   96MOL0     C13116   8.768   8.743  11.499 -0.2042 -0.8883  0.1664
   96MOL0     C13117   8.668   8.844  11.524 -0.3728 -0.4365 -0.4928
   96MOL0     O13118   8.674   8.900  11.654 -0.7466  0.0160  0.2781
   96MOL0     C13119   8.536   8.921  11.708  0.5703  0.3942 -0.0225
   96MOL0     C13120   8.481   8.790  11.759 -0.4018 -0.0395 -0.4027
   96MOL0     C13121   8.331   8.779  11.769 -0.3163  0.1402 -0.0336
   96MOL0     C13122   8.274   8.903  11.833  1.1490 -0.1182  0.7973
   96MOL0     C13123   8.134   8.857  11.878  0.5076  0.0915  0.2011
   96MOL0     C13124   8.066   8.948  11.989  0.0319  0.1464 -0.5917
   96MOL0     C13125   7.933   8.894  12.022  1.6137 -0.9426 -1.2608
   96MOL0     C13126   7.867   8.963  12.140 -0.3556  0.8104 -0.0187
   96MOL0     N13127   7.802   9.087  12.099  0.6267  0.2169  0.7258
   96MOL0     C13128   7.673   9.099  12.044 -1.4692  0.5292  0.0973
   96MOL0     C13129   7.656   9.214  11.979 -0.0721 -0.9727 -1.3704
   96MOL0     C13130   7.522   9.269  11.936 -0.4750  0.5560 -0.2555
   96MOL0     C13131   7.523   9.278  11.787  0.2775  0.3648  0.1864
   96MOL0     C13132   7.385   9.324  11.729  0.0925  0.7288  0.4712
   96MOL0     C13133   7.392   9.381  11.584  0.3762  0.2521  0.4275
   96MOL0     O13134   7.462   9.292  11.508  0.3230  0.0662 -1.0549
   96MOL0     C13135   7.490   9.310  11.380  0.7029  0.3492 -0.5454
   96MOL0     C13136   7.423   9.396  11.298 -1.0965  0.4889 -0.5051
   96MOL0     C13137   7.435   9.392  11.156  0.7051  0.0831 -0.2997
   96MOL0     C13138   7.351   9.481  11.071  0.0403  0.1416  0.3043
   96MOL0     C13139   7.519   9.303  11.094  0.7402  0.4899 -0.7335
   96MOL0     C13140   7.533   9.281  10.947  0.8525 -0.7981  0.5846
   96MOL0     O13141   7.644   9.219  10.902 -0.0460  0.3114  0.7228
   96MOL0     C13142   7.635   9.154  10.778  0.4424 -0.4562  0.1410
   96MOL0     C13143   7.601   9.021  10.796 -1.3208  0.0810  0.2325
   96MOL0     C13144   7.549   8.959  10.681  0.2483  0.3130  0.0103
   96MOL0     C13145   7.557   9.018  10.546 -0.2135 -0.5483  0.7497
   96MOL0     O13146   7.516   8.937  10.439  0.5226 -0.1779  0.0839
   96MOL0     C13147   7.474   9.014  10.323  0.4677  0.4265 -1.3242
   96MOL0     C13148   7.404   8.924  10.226 -0.3156  0.2972  0.2218
   96MOL0     C13149   7.286   8.847  10.283  0.9073 -0.7847 -0.4958
   96MOL0     C13150   7.167   8.843  10.191  1.2730  0.8372 -0.0340
   96MOL0     C13151   7.049   8.776  10.247 -0.6883  0.5546 -0.8238
   96MOL0     C13152   6.927   8.781  10.148 -0.1719  0.4205 -0.3261
   96MOL0     C13153   6.947   8.742  10.012 -0.1241 -0.0906  0.7018
   96MOL0     C13154   6.820   8.719   9.939  0.4041  0.0531 -0.0792
   96MOL0    Cl13155   6.840   8.742   9.767 -0.1653  0.3101 -0.4934
   96MOL0     C13156   7.588   9.155  10.542 -0.1466  0.7336  1.0132
   96MOL0     C13157   7.638   9.220  10.656 -0.7311  0.4819  0.3446
   96MOL0     O13158   7.430   9.298  10.878  0.2051  0.0831 -0.1566
   96MOL0     C13159   7.598   9.216  11.179  1.1731 -0.3737  0.1023
   96MOL0     C13160   7.578   9.225  11.320 -0.3444 -0.0464  0.0405
   96MOL0     N13161   7.768   9.285  12.006 -0.1272  0.0795  0.2759
   96MOL0     N13162   7.854   9.210  12.068 -0.1281 -1.0947 -0.2840
   96MOL0     C13163   8.568   8.868  11.421  0.0575 -1.0805  0.0734
   96MOL0     C13164   8.576   8.799  11.301  0.5632  0.4023 -0.1994
   96MOL0     C13165   8.734   8.600  10.937  0.3960  0.2535  0.5225
   96MOL0     C13166   8.665   8.629  10.818  0.2188  0.1645 -0.5103
   96MOL0     C13167   8.672   8.546  10.711 -0.4186 -0.3400  0.1783
   96MOL0     C13168   8.762   8.437  10.713  0.2498  0.9474 -1.0771
   96MOL0     O13169   8.791   8.359  10.603 -0.2589 -0.5860  0.7024
   96MOL0     C13170   8.715   8.368  10.477  0.3522 -0.9627 -0.2948
   96MOL0     C13171   8.762   8.257  10.384 -0.1885  0.0011  0.7340
   96MOL0     C13172   8.717   8.273  10.241 -0.8409 -1.3988  0.7480
   96MOL0     C13173   8.568   8.266  10.210  0.6478  0.5993 -0.4653
   96MOL0     C13174   8.529   8.123  10.212  0.4683  0.4441 -0.5660
   96MOL0     C13175   8.495   8.007  10.194  0.4512 -1.0806 -0.2564
   96MOL0     C13176   8.834   8.410  10.826 -0.4911 -0.1061  0.3298
   96MOL0     C13177   8.819   8.484  10.942 -0.2141 -0.2908  0.5865
   96MOL0     C13178   8.901   8.454  11.068 -0.0873 -0.6171 -0.2216
   96MOL0     H13179   8.828   8.586  11.375  0.0633 -0.2268  0.8904
   96MOL0     H13180   8.822   8.723  11.591 -0.3552  0.4878  0.5785
   96MOL0     H13181   8.467   8.972  11.640 -1.6427  0.5534  2.1877
   96MOL0     H13182   8.538   8.984  11.798  0.1902 -1.6452  1.4756
   96MOL0     H13183   8.511   8.713  11.688  0.1830  1.2272 -1.5581
   96MOL0     H13184   8.531   8.767  11.853  1.1289 -0.1742 -1.2211
   96MOL0     H13185   8.292   8.762  11.668 -0.4119 -2.4979  0.3744
   96MOL0     H13186   8.313   8.692  11.833 -4.5799  2.4580  2.3957
   96MOL0     H13187   8.325   8.937  11.923  0.4685 -1.3141  1.6707
   96MOL0     H13188   8.276   8.991  11.768  1.6230 -1.2613 -0.7881
   96MOL0     H13189   8.153   8.756  11.913  1.9406  1.0627  2.4993
   96MOL0     H13190   8.073   8.851  11.787  2.2207 -0.0055 -1.0099
   96MOL0     H13191   8.131   8.936  12.077 -1.5185  1.3756  0.7746
   96MOL0     H13192   8.051   9.047  11.946 -0.0717  1.4312  2.2352
   96MOL0     H13193   7.931   8.789  12.053 -1.8608 -0.1689  1.7574
   96MOL0     H13194   7.865   8.898  11.936  0.2005  0.4092 -0.1291
   96MOL0     H13195   7.785   8.896  12.169  1.1359 -1.6772 -1.1841
   96MOL0     H13196   7.934   8.979  12.225 -1.7878 -0.2577  1.3973
   96MOL0     H13197   7.595   9.025  12.030  0.6472 -1.5617 -1.8250
   96MOL0     H13198   7.518   9.374  11.966  0.8910  1.4172 -2.7790
   96MOL0     H13199   7.443   9.207  11.980  0.6071 -1.4371 -0.9894
   96MOL0     H13200   7.599   9.348  11.752  0.1746  0.5789  0.3849
   96MOL0     H13201   7.538   9.176  11.750  1.6306  0.0121  1.6095
   96MOL0     H13202   7.311   9.244  11.727  0.0448  0.7677  0.6279
   96MOL0     H13203   7.336   9.394  11.797  0.4305  1.0942  0.3422
   96MOL0     H13204   7.289   9.378  11.549  0.1007 -2.8259  1.2455
   96MOL0     H13205   7.443   9.478  11.584  0.6397  0.1159 -0.0091
   96MOL0     H13206   7.350   9.463  11.343  0.8453  1.1315  1.9083
   96MOL0     H13207   7.315   9.568  11.127 -5.0687 -0.5144 -1.4498
   96MOL0     H13208   7.261   9.424  11.047 -0.9694  0.5860  2.7607
   96MOL0     H13209   7.402   9.509  10.978  3.8529 -0.5935  1.9636
   96MOL0     H13210   7.588   8.968  10.889 -3.4519  0.2355  0.0589
   96MOL0     H13211   7.505   8.862  10.695 -1.5566  1.1153  0.1152
   96MOL0     H13212   7.400   9.090  10.352  0.7492  0.9016 -1.8209
   96MOL0     H13213   7.555   9.066  10.270  0.1080  1.5749 -0.7926
   96MOL0     H13214   7.373   8.993  10.147  1.6735  3.2905  1.8515
   96MOL0     H13215   7.472   8.847  10.187 -3.5608 -1.6602 -1.9938
   96MOL0     H13216   7.254   8.907  10.368 -0.4162 -1.3620 -0.5567
   96MOL0     H13217   7.334   8.753  10.312  2.1953 -0.6876 -2.1532
   96MOL0     H13218   7.208   8.788  10.106  0.8863 -0.1907  0.4226
   96MOL0     H13219   7.145   8.945  10.160  0.4316  0.6221 -0.1606
   96MOL0     H13220   7.065   8.669  10.266 -1.9342  0.1245 -2.0392
   96MOL0     H13221   7.027   8.827  10.341 -1.0918 -1.0271 -0.0266
   96MOL0     H13222   6.892   8.884  10.154  1.2085  0.8067  3.3761
   96MOL0     H13223   6.857   8.712  10.196  1.4024 -1.1092 -0.1234
   96MOL0     H13224   7.010   8.655   9.992 -4.6268 -3.5812 -0.1126
   96MOL0     H13225   7.008   8.821   9.967 -0.9149  0.2377  0.1718
   96MOL0     H13226   6.742   8.780   9.985 -0.2436  0.8534 -2.1563
   96MOL0     H13227   6.806   8.618   9.979  3.2825  0.1996  1.6314
   96MOL0     H13228   7.592   9.209  10.448  1.6762  1.1017  1.2752
   96MOL0     H13229   7.662   9.326  10.656 -0.6741  0.5066 -1.4343
   96MOL0     H13230   7.667   9.138  11.145  1.0775 -0.1621 -0.5925
   96MOL0     H13231   7.630   9.157  11.387 -0.1767  0.0444  0.0052
   96MOL0     H13232   8.492   8.945  11.424  1.1341  0.1238 -1.3858
   96MOL0     H13233   8.500   8.811  11.225  0.0123 -1.4305 -0.0048
   96MOL0     H13234   8.612   8.723  10.807 -0.4981 -0.1712 -0.0745
   96MOL0     H13235   8.629   8.603  10.629 -0.2901 -1.7920 -0.9468
   96MOL0     H13236   8.607   8.368  10.496  0.7427 -1.1382  2.2085
   96MOL0     H13237   8.729   8.458  10.417  2.0486 -0.6075  0.5537
   96MOL0     H13238   8.729   8.161  10.424 -3.1083  0.6967  0.2325
   96MOL0     H13239   8.871   8.257  10.399 -0.0112  0.5904 -0.4172
   96MOL0     H13240   8.759   8.372  10.217  1.4694 -1.0816  5.0519
   96MOL0     H13241   8.778   8.201  10.185  3.3410  3.0745 -1.2153
   96MOL0     H13242   8.551   8.284  10.103  2.9309 -0.8413 -1.1512
   96MOL0     H13243   8.503   8.317  10.281  1.4617 -1.2618  1.7658
   96MOL0     H13244   8.458   7.910  10.166  0.4376 -2.5225  4.0607
   96MOL0     H13245   8.902   8.325  10.832  2.3978  2.1341  2.5440
   96MOL0     H13246   8.931   8.540  11.129 -1.2110 -2.2481  2.8612
   96MOL0     H13247   8.846   8.381  11.128  1.4297 -0.7494  1.0697
   96MOL0     H13248   8.995   8.409  11.035 -0.2772 -2.0325  1.0036
   97MOL0     O13249   3.076   1.259   7.379 -0.5275 -0.6360  0.2442
   97MOL0     C13250   3.089   1.336   7.281  0.1031  0.5876  0.1254
   97MOL0     O13251   3.164   1.314   7.176  0.2847  0.1676  0.5928
   97MOL0     C13252   3.199   1.187   7.140 -0.5548 -0.1084 -0.1601
   97MOL0     C13253   3.317   1.135   7.190 -0.0836  0.0590 -0.0097
   97MOL0     C13254   3.347   1.002   7.163 -0.2786  0.5152 -0.5174
   97MOL0     C13255   3.271   0.923   7.070  0.4197 -0.1190 -0.0689
   97MOL0     O13256   3.305   0.796   7.030 -0.0569 -0.0395 -0.6161
   97MOL0     C13257   3.360   0.718   7.133 -0.5777 -0.1449  0.8722
   97MOL0     C13258   3.366   0.571   7.105 -0.8221 -0.0079  0.5907
   97MOL0     C13259   3.450   0.537   6.979 -0.8525 -1.1137 -0.2055
   97MOL0     C13260   3.593   0.592   6.974 -1.1384  0.5594  0.7201
   97MOL0     C13261   3.667   0.538   6.856  0.5540 -0.5063  0.3068
   97MOL0     C13262   3.788   0.629   6.815 -0.2152 -0.8365 -0.6224
   97MOL0     C13263   3.822   0.622   6.663  0.3132 -1.0364 -0.3415
   97MOL0     C13264   3.711   0.679   6.573  0.1514 -0.7078 -0.7201
   97MOL0     N13265   3.743   0.655   6.429  0.1743 -0.2879 -0.1244
   97MOL0     C13266   3.839   0.698   6.351 -0.1738  0.1611  0.2047
   97MOL0     C13267   3.821   0.655   6.233  0.2159  0.5595 -0.1236
   97MOL0     C13268   3.917   0.686   6.120 -0.1508  0.7730  0.6278
   97MOL0     C13269   3.843   0.788   6.031  0.9965  0.1038 -0.7417
   97MOL0     C13270   3.944   0.852   5.935  0.2097 -0.0579 -0.5196
   97MOL0     C13271   3.891   0.961   5.850 -0.5518  0.3742  0.6716
   97MOL0     O13272   3.789   0.912   5.763  0.3575  0.0611  0.2483
   97MOL0     C13273   3.766   0.973   5.642  0.4653 -0.4560 -0.2521
   97MOL0     C13274   3.821   1.091   5.594  0.1503 -1.1005 -0.0955
   97MOL0     C13275   3.798   1.139   5.466  0.5838 -0.7808  0.3571
   97MOL0     C13276   3.880   1.251   5.411  0.5901  1.1153 -0.3346
   97MOL0     C13277   3.691   1.086   5.393 -0.4411  1.2037  0.4030
   97MOL0     C13278   3.633   1.147   5.270 -0.2664 -0.8740 -0.6993
   97MOL0     O13279   3.564   1.052   5.194  0.2664  0.0063  0.1845
   97MOL0     C13280   3.509   1.091   5.077  0.3671  0.0672 -0.5592
   97MOL0     C13281   3.563   1.181   4.988  0.0074  0.7889  0.0137
   97MOL0     C13282   3.502   1.215   4.867  0.0745  1.2703  0.4332
   97MOL0     C13283   3.385   1.139   4.833 -0.1198 -0.9139 -0.2777
   97MOL0     O13284   3.338   1.181   4.717  0.6970 -0.1344 -0.4201
   97MOL0     C13285   3.251   1.092   4.652  0.4579 -0.1944 -0.1740
   97MOL0     C13286   3.107   1.134   4.690  0.9216 -0.2102 -0.7938
   97MOL0     C13287   3.007   1.039   4.628  1.4460 -1.1393 -0.3152
   97MOL0     C13288   2.868   1.094   4.660  0.5982  0.2129  0.1409
   97MOL0     C13289   2.771   0.978   4.624 -0.2078 -0.7975 -0.1680
   97MOL0     C13290   2.620   1.020   4.630 -0.3297 -0.3620  1.0457
   97MOL0     C13291   2.585   1.125   4.518 -0.3608 -0.0548 -0.1136
   97MOL0     C13292   2.439   1.165   4.513 -0.0371  0.0143 -1.2259
   97MOL0    Cl13293   2.405   1.264   4.644  0.0384  0.3697  0.1443
   97MOL0     C13294   3.319   1.047   4.917 -0.8522 -0.7312 -0.9353
   97MOL0     C13295   3.389   1.023   5.038 -0.1098  0.0999 -0.0669
   97MOL0     O13296   3.634   1.266   5.256  0.6991 -0.4029  0.1367
   97MOL0     C13297   3.628   0.970   5.438  0.2010 -0.1873 -0.5136
   97MOL0     C13298   3.668   0.912   5.558 -0.0633 -0.1037  0.3254
   97MOL0     N13299   3.720   0.561   6.241 -0.2881 -0.4375  0.4170
   97MOL0     N13300   3.674   0.568   6.358 -0.6766 -0.2863 -0.3522
   97MOL0     C13301   3.157   0.981   7.015  0.1961 -0.4214  0.5180
   97MOL0     C13302   3.116   1.109   7.052 -0.5870 -0.6586  0.0826
   97MOL0     C13303   3.026   1.469   7.289  0.2933  0.4115 -0.3773
   97MOL0     C13304   3.105   1.583   7.289  0.0068 -0.6975  0.0543
   97MOL0     C13305   3.049   1.714   7.278  0.9609  0.2788 -0.1753
   97MOL0     C13306   2.905   1.726   7.264 -0.6170 -0.0560 -0.2967
   97MOL0     O13307   2.869   1.853   7.245  0.3843  0.0088  0.0787
   97MOL0     C13308   2.726   1.883   7.209  0.0568  0.4067 -0.8620
   97MOL0     C13309   2.690   1.839   7.070  0.2202 -0.1086  0.0121
   97MOL0     C13310   2.782   1.907   6.964 -0.2810  0.3467 -0.9088
   97MOL0     C13311   2.883   1.811   6.889 -0.7195  0.3170  0.1114
   97MOL0     C13312   2.966   1.898   6.802 -0.6074 -0.0023  0.4337
   97MOL0     C13313   3.038   1.960   6.734  0.0858  0.2061  0.7208
   97MOL0     C13314   2.825   1.614   7.289  0.0961 -0.1822  0.2391
   97MOL0     C13315   2.881   1.480   7.290 -1.0981 -0.1692  0.3668
   97MOL0     C13316   2.782   1.361   7.293 -0.0340 -0.3941 -0.2670
   97MOL0     H13317   3.374   1.197   7.259  0.4916 -2.0103  1.4669
   97MOL0     H13318   3.437   0.961   7.207  0.7314  2.7216 -0.3732
   97MOL0     H13319   3.297   0.720   7.222 -0.8463 -1.9054  0.7605
   97MOL0     H13320   3.453   0.766   7.166 -1.7236  4.3308 -1.7379
   97MOL0     H13321   3.395   0.514   7.194 -1.9843 -0.8578  0.4497
   97MOL0     H13322   3.263   0.544   7.080 -1.0664  0.7783  0.7210
   97MOL0     H13323   3.449   0.429   6.961  0.2514 -1.1884  0.1143
   97MOL0     H13324   3.396   0.571   6.890  1.9512 -0.9400 -1.9495
   97MOL0     H13325   3.580   0.700   6.968 -0.5282  0.6084  0.2341
   97MOL0     H13326   3.646   0.568   7.067 -1.0342  1.2892  0.8521
   97MOL0     H13327   3.592   0.537   6.776  1.0694 -0.1837 -0.1845
   97MOL0     H13328   3.702   0.435   6.871  0.6336 -0.7075 -1.1861
   97MOL0     H13329   3.758   0.732   6.837  0.7774 -0.1704 -2.1818
   97MOL0     H13330   3.873   0.614   6.883 -0.1345  1.9679 -0.0007
   97MOL0     H13331   3.823   0.518   6.630 -1.5233 -1.5409  1.0646
   97MOL0     H13332   3.912   0.680   6.639 -0.4788  0.9426  1.1983
   97MOL0     H13333   3.614   0.634   6.596 -0.3164  1.9520  3.5754
   97MOL0     H13334   3.710   0.787   6.587 -0.6740 -0.9158  1.1666
   97MOL0     H13335   3.918   0.767   6.380 -0.0162 -0.8140  2.2563
   97MOL0     H13336   3.937   0.596   6.062 -2.6970  0.3716  0.2596
   97MOL0     H13337   4.016   0.720   6.152  0.1393  2.0095 -1.4069
   97MOL0     H13338   3.764   0.735   5.977  1.1474 -1.0697  0.1386
   97MOL0     H13339   3.797   0.867   6.092  1.4234  1.6418 -2.3296
   97MOL0     H13340   4.028   0.895   5.990  1.1569  0.4622 -2.2790
   97MOL0     H13341   3.992   0.781   5.868  2.5400  2.6344 -1.9622
   97MOL0     H13342   3.848   1.040   5.912 -2.9460  2.1002 -2.8124
   97MOL0     H13343   3.982   0.999   5.801 -0.0803 -2.4608 -0.9206
   97MOL0     H13344   3.904   1.137   5.646  0.4019 -0.4224 -1.0669
   97MOL0     H13345   3.817   1.339   5.427  0.0182  0.9067 -1.3571
   97MOL0     H13346   3.898   1.240   5.303 -0.4930  1.0943 -0.5227
   97MOL0     H13347   3.974   1.255   5.468 -1.2302 -2.5114  3.4614
   97MOL0     H13348   3.657   1.233   5.008  0.6208  1.0727 -3.0627
   97MOL0     H13349   3.549   1.286   4.800  1.2648 -0.3034 -0.4657
   97MOL0     H13350   3.272   1.112   4.547  2.2055 -0.1251  0.1542
   97MOL0     H13351   3.271   0.985   4.662 -0.9332 -0.4207  0.4650
   97MOL0     H13352   3.084   1.118   4.796 -3.6742  0.9002 -1.4151
   97MOL0     H13353   3.088   1.239   4.666 -1.6462 -0.1560  1.0969
   97MOL0     H13354   3.012   0.938   4.670  0.0353 -0.3775  1.8281
   97MOL0     H13355   3.016   1.038   4.518 -1.3710  1.5888 -0.6945
   97MOL0     H13356   2.852   1.183   4.599 -0.2796  0.5455  0.8450
   97MOL0     H13357   2.858   1.129   4.763  1.2271  1.5920 -0.2358
   97MOL0     H13358   2.798   0.932   4.529  0.6625 -3.0888  1.1050
   97MOL0     H13359   2.786   0.904   4.703 -0.2300 -1.3627 -0.6953
   97MOL0     H13360   2.596   1.056   4.731  1.8921  2.4875  0.6835
   97MOL0     H13361   2.569   0.926   4.609  1.0699 -0.6113 -1.6295
   97MOL0     H13362   2.622   1.087   4.423  0.2850  0.9847 -0.2992
   97MOL0     H13363   2.654   1.209   4.531 -1.8433  1.3591 -0.9095
   97MOL0     H13364   2.372   1.080   4.503  1.9495 -1.3879 -3.5224
   97MOL0     H13365   2.426   1.219   4.418  0.1574  1.5929 -0.4016
   97MOL0     H13366   3.235   0.994   4.874 -2.5502  2.7960 -2.4269
   97MOL0     H13367   3.347   0.943   5.099 -2.6304  1.0176 -0.4902
   97MOL0     H13368   3.531   0.938   5.402 -1.0015  2.2336  0.3644
   97MOL0     H13369   3.620   0.827   5.607 -0.6924 -0.8397 -1.4910
   97MOL0     H13370   3.098   0.949   6.930  0.3336  1.3276 -0.2789
   97MOL0     H13371   3.030   1.153   7.002 -0.6146 -0.6453  0.1417
   97MOL0     H13372   3.213   1.582   7.282 -0.0221  1.2121 -1.5250
   97MOL0     H13373   3.112   1.803   7.272  0.2980  0.7236 -0.7218
   97MOL0     H13374   2.649   1.838   7.273 -0.0336  2.1374  0.3264
   97MOL0     H13375   2.713   1.991   7.220  1.7492  0.4031  3.0801
   97MOL0     H13376   2.587   1.863   7.041  0.2568 -0.7937 -0.6991
   97MOL0     H13377   2.697   1.731   7.057 -1.6968 -0.4172  1.1505
   97MOL0     H13378   2.713   1.958   6.895 -4.6139 -2.6235  0.7889
   97MOL0     H13379   2.827   1.992   7.016 -2.4617  0.1932  1.4290
   97MOL0     H13380   2.828   1.739   6.829  1.2373 -1.5809  0.4742
   97MOL0     H13381   2.951   1.768   6.963 -1.1422 -0.8559 -0.1730
   97MOL0     H13382   3.103   2.017   6.671 -0.7962  2.8930  2.0841
   97MOL0     H13383   2.718   1.635   7.293  0.2641  0.7705  0.0351
   97MOL0     H13384   2.765   1.334   7.188  3.1638  1.0023 -1.2696
   97MOL0     H13385   2.834   1.283   7.350 -0.5306 -2.3003 -2.2683
   97MOL0     H13386   2.689   1.372   7.349 -1.0299  0.8692 -2.0715
   98MOL0     O13387   3.975  10.412   4.224 -0.1475 -0.2089  0.0654
   98MOL0     C13388   3.861  10.415   4.282 -0.9505  0.1401 -0.0247
   98MOL0     O13389   3.828  10.483   4.391 -0.5144  0.0057 -0.4223
   98MOL0     C13390   3.944  10.528   4.459 -0.1858 -0.5699 -0.2401
   98MOL0     C13391   3.979  10.667   4.470 -0.1558  0.4021  0.2739
   98MOL0     C13392   4.072  10.704   4.569 -0.5197  0.4205 -1.0307
   98MOL0     C13393   4.147  10.611   4.646  0.4218  0.1922  1.5300
   98MOL0     O13394   4.228  10.649   4.751  0.1845  0.3299 -0.6750
   98MOL0     C13395   4.308  10.768   4.740 -0.2288 -0.2407 -0.0855
   98MOL0     C13396   4.457  10.752   4.783  0.1345 -0.6592  0.1168
   98MOL0     C13397   4.473  10.663   4.917  0.3067  0.1465 -0.0125
   98MOL0     C13398   4.426  10.740   5.043 -0.8366 -0.6995 -0.5344
   98MOL0     C13399   4.536  10.776   5.140 -0.0468 -0.2665  0.2861
   98MOL0     C13400   4.627  10.658   5.187  0.3967  0.5884  0.6943
   98MOL0     C13401   4.740  10.726   5.264 -0.4895 -0.2810 -0.4828
   98MOL0     C13402   4.713  10.796   5.404  0.5693  0.5519  0.3361
   98MOL0     N13403   4.633  10.707   5.494 -0.8546 -0.0203 -0.0932
   98MOL0     C13404   4.507  10.648   5.472  0.1065 -0.8143  0.5005
   98MOL0     C13405   4.501  10.568   5.581  0.6166  0.7405 -0.3336
   98MOL0     C13406   4.377  10.479   5.605  0.3112  1.2242 -0.2922
   98MOL0     C13407   4.249  10.553   5.620 -0.0360 -0.2186  0.4767
   98MOL0     C13408   4.239  10.618   5.767 -0.4303  0.3638  0.6421
   98MOL0     C13409   4.137  10.729   5.785 -0.6016  1.2083  0.1623
   98MOL0     O13410   4.178  10.849   5.717 -0.1651 -0.3865 -0.1142
   98MOL0     C13411   4.157  10.971   5.782 -0.4868  0.5192  0.3576
   98MOL0     C13412   4.065  10.994   5.885 -0.3468 -0.4495 -0.6426
   98MOL0     C13413   4.069  11.113   5.959 -0.9403 -0.5441 -0.7664
   98MOL0     C13414   3.982  11.125   6.080  0.2532 -0.4910  0.2031
   98MOL0     C13415   4.144  11.228   5.907  0.0730  0.3324 -0.5740
   98MOL0     C13416   4.131  11.363   5.951 -0.6650 -0.5454 -0.3081
   98MOL0     O13417   4.177  11.461   5.861  0.2346  0.3306 -0.2019
   98MOL0     C13418   4.206  11.591   5.892 -0.3219 -0.6298 -1.0033
   98MOL0     C13419   4.175  11.665   6.007 -0.8804  0.2569  0.1333
   98MOL0     C13420   4.225  11.795   6.031  0.4896  0.5874  0.7208
   98MOL0     C13421   4.313  11.857   5.939  0.6055  0.3875  0.6334
   98MOL0     O13422   4.362  11.985   5.953  0.1134  0.0443  0.1987
   98MOL0     C13423   4.275  12.080   6.011 -0.8290  0.5963 -0.7342
   98MOL0     C13424   4.368  12.182   6.076 -0.4033 -0.8338 -0.4716
   98MOL0     C13425   4.477  12.242   5.986 -0.0550 -0.0861  0.6890
   98MOL0     C13426   4.420  12.310   5.867  0.7583  0.5737  0.5806
   98MOL0     C13427   4.519  12.411   5.809 -0.4346  0.0210  1.1979
   98MOL0     C13428   4.457  12.481   5.687 -0.1232  0.2964  0.6492
   98MOL0     C13429   4.543  12.599   5.636 -0.1311  0.6543 -0.8137
   98MOL0     C13430   4.507  12.641   5.491  0.1698 -0.0495  0.5960
   98MOL0    Cl13431   4.345  12.710   5.498  0.1917  0.2874 -0.1622
   98MOL0     C13432   4.343  11.787   5.820  0.5312 -0.0103 -0.1292
   98MOL0     C13433   4.290  11.662   5.797 -0.1634  0.0384 -0.8693
   98MOL0     O13434   4.085  11.391   6.063  0.0416 -0.0942  0.0364
   98MOL0     C13435   4.246  11.201   5.805  0.2264 -0.3620 -0.3020
   98MOL0     C13436   4.239  11.080   5.739  0.9985  0.4512  0.0848
   98MOL0     N13437   4.612  10.579   5.664  0.5849  0.4958  0.1686
   98MOL0     N13438   4.693  10.658   5.601  0.4707 -0.1850 -0.5597
   98MOL0     C13439   4.108  10.480   4.637 -1.1831 -0.8506 -0.5838
   98MOL0     C13440   4.006  10.437   4.544 -0.0022 -0.4645  0.4400
   98MOL0     C13441   3.765  10.320   4.228  0.0124  0.6314  0.6389
   98MOL0     C13442   3.819  10.225   4.134 -0.5848 -0.7251  0.1067
   98MOL0     C13443   3.725  10.130   4.084 -0.6519  0.9652 -0.0017
   98MOL0     C13444   3.599  10.120   4.122  0.5963 -0.4526 -0.6504
   98MOL0     O13445   3.503  10.022   4.094 -0.2942 -0.6625 -0.4005
   98MOL0     C13446   3.535   9.937   3.987  0.1992  0.9835  0.0440
   98MOL0     C13447   3.412   9.890   3.921  0.6411 -0.1841 -0.0577
   98MOL0     C13448   3.443   9.792   3.801  0.3857 -0.6452 -0.3064
   98MOL0     C13449   3.321   9.801   3.700  0.6957 -0.1026 -0.3705
   98MOL0     C13450   3.336   9.911   3.600  0.3419  0.7376 -0.3004
   98MOL0     C13451   3.340   9.997   3.516  0.2912  0.0238  1.3322
   98MOL0     C13452   3.541  10.221   4.199 -0.4059  0.4225 -0.4921
   98MOL0     C13453   3.622  10.322   4.251 -0.0946 -0.7475 -0.1799
   98MOL0     C13454   3.551  10.436   4.314 -1.4280  0.1297 -0.6103
   98MOL0     H13455   3.913  10.739   4.422 -1.6630  0.1846  1.8995
   98MOL0     H13456   4.095  10.809   4.586 -3.9409  0.8560  2.4894
   98MOL0     H13457   4.267  10.853   4.795  2.4088  0.5399  0.8050
   98MOL0     H13458   4.313  10.804   4.636  1.2662 -0.8822 -0.2607
   98MOL0     H13459   4.513  10.707   4.701 -0.7951 -1.0110 -0.3286
   98MOL0     H13460   4.498  10.852   4.798 -2.5051  0.2275  2.3526
   98MOL0     H13461   4.432  10.563   4.902  0.5650 -0.2725  1.8284
   98MOL0     H13462   4.580  10.642   4.926 -0.1590 -1.6223  2.2825
   98MOL0     H13463   4.369  10.829   5.016  3.1341  1.9122 -1.0952
   98MOL0     H13464   4.360  10.676   5.103 -0.9409  0.4636  0.6382
   98MOL0     H13465   4.491  10.827   5.226  1.7365  0.6818  0.6980
   98MOL0     H13466   4.601  10.836   5.075 -0.1431  0.0477  0.4781
   98MOL0     H13467   4.568  10.581   5.237  0.8710  0.5456  1.1978
   98MOL0     H13468   4.676  10.607   5.103  1.9928 -1.9022  2.9841
   98MOL0     H13469   4.784  10.796   5.192  1.0706 -0.3074  0.4052
   98MOL0     H13470   4.813  10.648   5.288 -1.3225 -0.3129  2.2836
   98MOL0     H13471   4.809  10.817   5.452  0.3178  2.0877  0.2313
   98MOL0     H13472   4.668  10.892   5.377 -1.4860 -0.4483 -0.0271
   98MOL0     H13473   4.434  10.664   5.394 -0.6645  0.1056  1.3839
   98MOL0     H13474   4.378  10.402   5.683  0.5178  1.8279  0.3110
   98MOL0     H13475   4.370  10.414   5.517  1.1349  1.2778 -0.4100
   98MOL0     H13476   4.251  10.636   5.548  1.7176 -0.1934  0.4911
   98MOL0     H13477   4.165  10.484   5.610 -0.9464  0.4140  2.9632
   98MOL0     H13478   4.221  10.535   5.836 -1.4793  1.0717  1.2450
   98MOL0     H13479   4.337  10.655   5.799 -0.6903  0.7819  0.9604
   98MOL0     H13480   4.055  10.677   5.735  3.6756 -2.9369 -3.5536
   98MOL0     H13481   4.120  10.744   5.892 -0.8997  2.1901 -0.0151
   98MOL0     H13482   4.004  10.923   5.940 -0.5725  1.2118  1.3946
   98MOL0     H13483   3.909  11.205   6.086  1.4578  0.6907 -0.3920
   98MOL0     H13484   4.048  11.130   6.168  0.0743  0.0796  0.3074
   98MOL0     H13485   3.927  11.031   6.092  0.4696 -0.5031  1.1846
   98MOL0     H13486   4.107  11.624   6.082  0.6300  0.7969  1.8673
   98MOL0     H13487   4.190  11.840   6.124  0.2915  1.5511  0.1914
   98MOL0     H13488   4.225  12.127   5.926 -2.9740 -0.5372 -0.1614
   98MOL0     H13489   4.207  12.034   6.083  0.4471 -0.0383  0.1152
   98MOL0     H13490   4.298  12.260   6.107 -2.4330 -2.2499 -1.3065
   98MOL0     H13491   4.425  12.136   6.157 -0.6102  1.0592  0.8008
   98MOL0     H13492   4.552  12.166   5.962  1.0441  0.6440  1.6610
   98MOL0     H13493   4.527  12.321   6.044 -0.6074 -0.9118  2.3508
   98MOL0     H13494   4.323  12.361   5.880  0.6299  0.6937 -0.6922
   98MOL0     H13495   4.396  12.248   5.781  1.1235 -1.9746  2.2274
   98MOL0     H13496   4.555  12.489   5.876  3.4819  0.5335 -1.2277
   98MOL0     H13497   4.603  12.359   5.763  0.0580 -0.1129  2.2054
   98MOL0     H13498   4.360  12.525   5.709 -1.6785 -2.6112  0.0532
   98MOL0     H13499   4.441  12.404   5.611 -3.5504  0.6917  0.8455
   98MOL0     H13500   4.648  12.570   5.641 -0.7331 -2.2057 -2.8583
   98MOL0     H13501   4.531  12.681   5.708 -0.5198 -0.3526  0.2915
   98MOL0     H13502   4.508  12.553   5.425 -0.2841 -0.9854  1.8036
   98MOL0     H13503   4.583  12.711   5.455  1.5750 -2.5279 -1.6313
   98MOL0     H13504   4.410  11.832   5.748 -0.1662  0.3027 -0.5936
   98MOL0     H13505   4.325  11.611   5.708  0.5649 -1.5987  0.3100
   98MOL0     H13506   4.326  11.272   5.783  0.7948 -0.2737  1.8109
   98MOL0     H13507   4.311  11.043   5.667  1.7385 -1.7581  1.8755
   98MOL0     H13508   4.157  10.402   4.695  0.4841  0.7519  0.2737
   98MOL0     H13509   3.974  10.333   4.543 -2.7053  0.2921 -1.4846
   98MOL0     H13510   3.921  10.230   4.097  0.4685 -0.1852  2.8224
   98MOL0     H13511   3.769  10.065   4.009  0.0527  2.3035 -0.7736
   98MOL0     H13512   3.610   9.974   3.916  1.7149 -1.3824  0.2910
   98MOL0     H13513   3.567   9.840   4.027 -1.1170  0.8599  0.8582
   98MOL0     H13514   3.362   9.980   3.884 -1.3872 -0.2415  2.2936
   98MOL0     H13515   3.345   9.842   3.994  0.8975  0.5766  0.6935
   98MOL0     H13516   3.534   9.830   3.754  1.1233 -0.7523  0.9872
   98MOL0     H13517   3.455   9.690   3.838 -1.2638 -1.5339 -2.0730
   98MOL0     H13518   3.232   9.817   3.761 -0.0288  1.0365 -1.6635
   98MOL0     H13519   3.319   9.710   3.640 -1.1184 -0.2979 -0.0587
   98MOL0     H13520   3.336  10.069   3.437  3.5199 -0.4599  0.5891
   98MOL0     H13521   3.433  10.221   4.207 -0.3377  2.3047  1.2138
   98MOL0     H13522   3.469  10.381   4.362 -1.4918 -2.1242 -3.0774
   98MOL0     H13523   3.600  10.503   4.386 -0.7899 -2.0122  1.0826
   98MOL0     H13524   3.512  10.504   4.238 -1.2550  1.3822  0.3860
   99MOL0     O13525   5.244   3.108   8.762  0.6017 -0.1278  0.5082
   99MOL0     C13526   5.210   3.222   8.799 -0.1199 -0.2680  0.6706
   99MOL0     O13527   5.288   3.320   8.852  0.1081  0.3857  0.1411
   99MOL0     C13528   5.424   3.301   8.866 -0.6190  0.7712 -0.3758
   99MOL0     C13529   5.485   3.317   8.995 -0.4851  0.3958 -0.8561
   99MOL0     C13530   5.626   3.312   8.993 -0.9480  0.0965 -0.3307
   99MOL0     C13531   5.708   3.286   8.877  0.0718 -0.0231  0.1319
   99MOL0     O13532   5.840   3.266   8.897 -0.3663  0.0714 -0.9936
   99MOL0     C13533   5.922   3.349   8.804 -1.3851  0.2175 -0.3775
   99MOL0     C13534   5.985   3.256   8.698 -0.2350  0.5974 -0.4188
   99MOL0     C13535   6.097   3.165   8.742  0.8130  0.0718 -0.4650
   99MOL0     C13536   6.152   3.078   8.634  0.9256 -0.3139  0.1526
   99MOL0     C13537   6.303   3.058   8.639 -0.4934  0.1093  0.4993
   99MOL0     C13538   6.339   2.918   8.592  0.1459  0.9336 -0.4204
   99MOL0     C13539   6.491   2.895   8.571  0.2078 -0.6711  0.3790
   99MOL0     C13540   6.525   2.759   8.503 -0.0499 -0.1868 -0.1838
   99MOL0     N13541   6.669   2.737   8.464  0.9520 -0.6209  0.1736
   99MOL0     C13542   6.719   2.782   8.339 -0.2978  0.4274 -0.4399
   99MOL0     C13543   6.850   2.752   8.343  0.0982  0.6600  0.7623
   99MOL0     C13544   6.937   2.771   8.235 -0.7844 -0.4460  0.9677
   99MOL0     C13545   7.049   2.656   8.225  0.7993  0.6591  0.1098
   99MOL0     C13546   6.976   2.517   8.194 -0.5191  0.8263  0.7232
   99MOL0     C13547   7.017   2.464   8.050 -0.4038  0.8799 -0.0464
   99MOL0     O13548   7.155   2.470   8.015  0.2146 -0.0253 -0.0208
   99MOL0     C13549   7.191   2.455   7.891 -0.6387 -0.0256  0.4922
   99MOL0     C13550   7.281   2.548   7.843 -0.7337  0.3138  0.5959
   99MOL0     C13551   7.326   2.547   7.707 -0.0661 -0.4115 -0.3044
   99MOL0     C13552   7.411   2.658   7.648 -0.0461 -0.8211 -0.3838
   99MOL0     C13553   7.277   2.447   7.618  0.0269  0.9842  0.4019
   99MOL0     C13554   7.306   2.445   7.468  0.4070 -0.1193  0.6913
   99MOL0     O13555   7.216   2.377   7.389 -0.0368 -0.4560 -0.9349
   99MOL0     C13556   7.258   2.327   7.270 -1.0336 -0.6222  0.4154
   99MOL0     C13557   7.226   2.391   7.150 -0.8583 -0.1282 -0.4248
   99MOL0     C13558   7.267   2.333   7.032 -0.4035  0.1162  0.2862
   99MOL0     C13559   7.369   2.228   7.021  0.2982 -0.0363  1.5475
   99MOL0     O13560   7.401   2.171   6.903  0.0684  0.2065  0.2038
   99MOL0     C13561   7.340   2.183   6.778 -0.0915 -0.1535  0.4848
   99MOL0     C13562   7.204   2.121   6.787 -0.3116 -1.3397  0.4943
   99MOL0     C13563   7.155   2.045   6.667 -0.3460 -0.1470 -0.3307
   99MOL0     C13564   7.132   2.134   6.543  0.1705 -0.7034  0.4375
   99MOL0     C13565   7.073   2.066   6.422  1.1926  0.1984 -0.0858
   99MOL0     C13566   7.031   2.149   6.297  1.4676 -0.1724  0.1426
   99MOL0     C13567   6.948   2.057   6.195 -0.1058 -0.0213  0.1800
   99MOL0     C13568   6.880   2.135   6.079 -0.7465  0.0764  0.8818
   99MOL0    Cl13569   7.002   2.247   6.000 -0.2474  0.2584 -0.1633
   99MOL0     C13570   7.398   2.165   7.144 -0.4259 -0.7952 -0.9505
   99MOL0     C13571   7.347   2.217   7.257  0.1131  0.9514 -0.6810
   99MOL0     O13572   7.416   2.481   7.428  0.7245  0.3422  0.0874
   99MOL0     C13573   7.187   2.355   7.676  0.2506  0.0588  0.7938
   99MOL0     C13574   7.137   2.353   7.805 -0.3773 -0.0767 -0.4751
   99MOL0     N13575   6.874   2.699   8.467 -0.3998 -0.8903  0.3751
   99MOL0     N13576   6.773   2.699   8.543 -1.0096 -0.6381  0.0921
   99MOL0     C13577   5.643   3.270   8.759  0.0730 -0.1036 -0.4216
   99MOL0     C13578   5.505   3.282   8.751  0.2065  0.2434  0.6412
   99MOL0     C13579   5.058   3.240   8.817  0.6107 -0.4904  0.0937
   99MOL0     C13580   5.005   3.301   8.929  0.4940  0.2138  0.3876
   99MOL0     C13581   4.866   3.317   8.950 -0.8258  0.7197 -0.8234
   99MOL0     C13582   4.776   3.270   8.859  0.8028 -0.3350 -0.3405
   99MOL0     O13583   4.641   3.291   8.878  0.1713  0.6513  0.4896
   99MOL0     C13584   4.555   3.268   8.769  0.3600  1.3220 -0.7720
   99MOL0     C13585   4.411   3.257   8.838  0.6969  0.3860  0.0689
   99MOL0     C13586   4.385   3.121   8.889 -0.0117 -0.3502  0.5368
   99MOL0     C13587   4.249   3.122   8.963  0.2635 -0.1372  0.2758
   99MOL0     C13588   4.210   2.996   9.035  0.2723 -0.6140 -0.2553
   99MOL0     C13589   4.198   2.885   9.080 -0.3643 -0.4325 -0.0721
   99MOL0     C13590   4.835   3.200   8.746  0.5091  0.6816  0.0918
   99MOL0     C13591   4.965   3.197   8.717 -0.9862  0.3512 -0.5235
   99MOL0     C13592   5.005   3.125   8.586 -0.1831 -0.5381  0.4577
   99MOL0     H13593   5.424   3.352   9.078 -2.5847 -1.1238 -1.6726
   99MOL0     H13594   5.685   3.312   9.084  1.5772 -1.5948 -1.8541
   99MOL0     H13595   6.003   3.395   8.861 -0.1806  0.1633 -1.9768
   99MOL0     H13596   5.864   3.429   8.757 -1.1233  1.9579  2.0439
   99MOL0     H13597   5.900   3.206   8.650 -2.5394  2.6794  1.2063
   99MOL0     H13598   6.035   3.309   8.617  1.5255 -2.4845 -1.5120
   99MOL0     H13599   6.173   3.234   8.780  0.9223  0.4605 -1.3542
   99MOL0     H13600   6.059   3.099   8.821  1.3344 -0.7598 -0.8995
   99MOL0     H13601   6.106   2.983   8.661  0.0298 -1.1503 -3.8121
   99MOL0     H13602   6.112   3.111   8.538 -2.6858  0.8019  1.8831
   99MOL0     H13603   6.346   3.088   8.735  2.4832  2.0676 -1.2567
   99MOL0     H13604   6.343   3.131   8.568  0.6027 -0.6001  0.3637
   99MOL0     H13605   6.302   2.858   8.675 -1.6704 -1.1796 -2.5964
   99MOL0     H13606   6.275   2.892   8.507  1.5295 -3.6551 -0.3436
   99MOL0     H13607   6.547   2.900   8.665  1.0620 -0.5562 -0.1238
   99MOL0     H13608   6.533   2.970   8.503  0.4619 -0.6843  0.5189
   99MOL0     H13609   6.472   2.685   8.564 -5.6343  4.9905  2.3271
   99MOL0     H13610   6.461   2.752   8.414  2.3316 -5.4169 -1.8854
   99MOL0     H13611   6.666   2.809   8.248  0.1761  0.0804 -0.8229
   99MOL0     H13612   6.997   2.862   8.245 -1.6036  0.1849  0.2910
   99MOL0     H13613   6.876   2.777   8.145 -1.9820  0.1475  1.7940
   99MOL0     H13614   7.118   2.696   8.150 -0.2838  2.6518  0.1077
   99MOL0     H13615   7.095   2.637   8.322  0.4359 -2.2841 -0.1979
   99MOL0     H13616   7.009   2.443   8.267 -1.6642  1.6237  2.0894
   99MOL0     H13617   6.869   2.536   8.206 -0.4327  0.2975  2.6044
   99MOL0     H13618   6.986   2.359   8.046  1.0809  0.4305 -3.1556
   99MOL0     H13619   6.958   2.519   7.976 -0.8152  0.5016  0.0008
   99MOL0     H13620   7.307   2.641   7.892 -2.0396  0.6382  0.6978
   99MOL0     H13621   7.520   2.650   7.653 -0.1154 -3.8620 -1.3634
   99MOL0     H13622   7.395   2.748   7.708 -2.4695 -2.3537  1.4556
   99MOL0     H13623   7.375   2.692   7.550  1.3608  3.1841  0.2991
   99MOL0     H13624   7.160   2.477   7.153  0.7870  1.1800 -0.1131
   99MOL0     H13625   7.237   2.373   6.936  1.5363 -1.0809 -0.8988
   99MOL0     H13626   7.343   2.289   6.749 -0.2716 -0.1061  0.6353
   99MOL0     H13627   7.379   2.118   6.699 -2.5842 -0.9084 -0.2358
   99MOL0     H13628   7.205   2.060   6.878  0.7817 -0.1122  1.3351
   99MOL0     H13629   7.133   2.201   6.808 -0.4403 -1.1821 -0.4985
   99MOL0     H13630   7.055   2.010   6.695 -0.3654 -0.1609 -0.4167
   99MOL0     H13631   7.222   1.967   6.628  0.1778  0.8510 -1.4875
   99MOL0     H13632   7.227   2.176   6.510 -0.8532  0.3879 -1.2871
   99MOL0     H13633   7.065   2.217   6.565 -2.4710 -2.5593 -0.0921
   99MOL0     H13634   7.148   1.990   6.396  0.4822 -2.0979  3.7337
   99MOL0     H13635   6.986   2.013   6.462  3.1521 -1.4194  2.3668
   99MOL0     H13636   7.123   2.177   6.246  1.7265 -2.7562 -0.9651
   99MOL0     H13637   6.967   2.233   6.324 -0.7458 -1.8309  0.3658
   99MOL0     H13638   6.876   1.996   6.250 -2.1510  0.7898 -1.4554
   99MOL0     H13639   7.029   1.995   6.156  0.2956 -0.2995  1.4100
   99MOL0     H13640   6.797   2.202   6.107  1.2397  2.4243  1.4862
   99MOL0     H13641   6.844   2.062   6.006 -2.8028  0.1537  1.7393
   99MOL0     H13642   7.458   2.076   7.160  1.2257  0.7371  2.5515
   99MOL0     H13643   7.386   2.182   7.352  0.1058  3.4810  0.3528
   99MOL0     H13644   7.160   2.284   7.599 -0.5273  1.5915 -0.4140
   99MOL0     H13645   7.061   2.281   7.833  1.4713 -1.5928  0.9108
   99MOL0     H13646   5.697   3.257   8.666  1.7223  0.1390  0.4582
   99MOL0     H13647   5.466   3.295   8.651  0.8341  2.7827  0.6432
   99MOL0     H13648   5.064   3.344   9.009 -0.2385 -1.0345  1.6202
   99MOL0     H13649   4.827   3.371   9.036 -0.7639 -0.7113  0.1373
   99MOL0     H13650   4.558   3.354   8.700  2.5431  1.3871 -0.6746
   99MOL0     H13651   4.568   3.173   8.717  1.0067 -1.1257  3.4083
   99MOL0     H13652   4.325   3.279   8.775 -0.1485 -1.1718  0.6232
   99MOL0     H13653   4.394   3.332   8.917 -0.9275  0.8089 -0.6362
   99MOL0     H13654   4.375   3.052   8.805  0.5992 -0.4441  0.5344
   99MOL0     H13655   4.468   3.084   8.950  1.8690 -2.1836 -2.8742
   99MOL0     H13656   4.161   3.147   8.904 -0.7650  1.0123  2.1897
   99MOL0     H13657   4.255   3.195   9.045  1.2748 -0.8308  0.8354
   99MOL0     H13658   4.168   2.795   9.129  0.0084  0.7293  2.4604
   99MOL0     H13659   4.770   3.157   8.671 -0.5319  2.4477 -0.0598
   99MOL0     H13660   4.921   3.096   8.523 -0.3845  0.0592  0.4511
   99MOL0     H13661   5.076   3.185   8.528 -0.0285 -1.1543 -0.0088
   99MOL0     H13662   5.081   3.047   8.598  0.0302 -0.3089  0.6163
  100MOL0     O13663  11.115   6.110   7.979 -0.1826 -0.2592  0.6011
  100MOL0     C13664  11.019   6.171   7.931 -0.2231 -0.2251  0.6192
  100MOL0     O13665  11.017   6.229   7.805  0.1184  0.6179  0.2067
  100MOL0     C13666  11.134   6.265   7.742  0.1236 -0.3021 -0.0142
  100MOL0     C13667  11.218   6.183   7.666 -0.1597  0.1900  0.2939
  100MOL0     C13668  11.324   6.233   7.597 -0.1107 -0.5622 -0.2281
  100MOL0     C13669  11.361   6.375   7.608 -0.3120  0.4433 -0.5620
  100MOL0     O13670  11.481   6.419   7.564 -0.6985  0.4538 -0.3700
  100MOL0     C13671  11.536   6.371   7.449 -0.4564  0.1306  0.0121
  100MOL0     C13672  11.591   6.492   7.379  1.2006  0.1451 -0.0763
  100MOL0     C13673  11.732   6.524   7.399  0.3737  0.5373 -0.0902
  100MOL0     C13674  11.827   6.445   7.302 -0.9326  0.6078  0.0945
  100MOL0     C13675  11.970   6.499   7.304  0.5164 -0.2797  0.5683
  100MOL0     C13676  12.060   6.437   7.196  0.3280  0.3042  0.2055
  100MOL0     C13677  12.214   6.467   7.221  0.1144 -0.0067 -0.3621
  100MOL0     C13678  12.270   6.390   7.344  0.1665  0.2863  0.3432
  100MOL0     N13679  12.413   6.426   7.377  0.0236 -0.3732 -0.0661
  100MOL0     C13680  12.525   6.393   7.299  0.8892  0.1586  0.0934
  100MOL0     C13681  12.628   6.415   7.370 -0.2536  0.2014 -0.0717
  100MOL0     C13682  12.765   6.385   7.320  0.2779 -0.4157 -1.2164
  100MOL0     C13683  12.860   6.331   7.418  0.6317 -0.1493 -0.1292
  100MOL0     C13684  12.808   6.226   7.522  0.4185 -0.4093 -0.0077
  100MOL0     C13685  12.941   6.161   7.592 -0.1699 -0.7925 -0.8443
  100MOL0     O13686  13.013   6.282   7.651 -0.1154  0.8865 -0.2736
  100MOL0     C13687  13.107   6.262   7.745 -0.1742  0.6910 -0.5906
  100MOL0     C13688  13.142   6.144   7.801  0.7552 -0.2468 -0.4746
  100MOL0     C13689  13.252   6.127   7.882 -0.3420  0.2174 -0.5908
  100MOL0     C13690  13.287   5.989   7.930 -0.1388  0.3698  0.1255
  100MOL0     C13691  13.333   6.232   7.915 -0.2974 -0.3288 -0.1748
  100MOL0     C13692  13.460   6.227   7.996  0.3900 -0.5095  0.1315
  100MOL0     O13693  13.544   6.334   7.994 -0.2131 -0.4524  0.0807
  100MOL0     C13694  13.678   6.300   8.008  0.2624 -0.5570  0.1563
  100MOL0     C13695  13.769   6.337   7.908  0.4867  0.1904 -0.6509
  100MOL0     C13696  13.909   6.316   7.926 -0.3407 -0.5732  0.4851
  100MOL0     C13697  13.957   6.279   8.057 -0.5256 -0.9039 -0.3490
  100MOL0     O13698  14.090   6.280   8.082  0.3821 -0.1159 -0.4690
  100MOL0     C13699  14.171   6.195   7.992 -0.2163 -0.0711  0.3192
  100MOL0     C13700  14.307   6.200   8.062  0.5877  0.3871 -0.3867
  100MOL0     C13701  14.385   6.331   8.043  0.9515 -0.3980  0.4743
  100MOL0     C13702  14.534   6.296   8.078  0.6996  0.5633 -0.1890
  100MOL0     C13703  14.608   6.425   8.075 -0.5851  0.4887  0.8329
  100MOL0     C13704  14.760   6.421   8.115  1.5530 -0.6246 -0.6738
  100MOL0     C13705  14.842   6.314   8.035  0.2791  0.0357 -1.4041
  100MOL0     C13706  14.995   6.336   8.054 -0.2530  0.6254  0.6243
  100MOL0    Cl13707  15.073   6.223   7.943  0.0542  0.2878 -0.0820
  100MOL0     C13708  13.861   6.240   8.155 -0.8370  0.1330 -0.5464
  100MOL0     C13709  13.727   6.247   8.123  0.5297  0.1996  0.4640
  100MOL0     O13710  13.490   6.121   8.051 -0.3129 -0.5159 -0.6565
  100MOL0     C13711  13.291   6.362   7.871  0.5238 -0.6286  0.2529
  100MOL0     C13712  13.188   6.374   7.782  0.0739 -0.2931  0.7796
  100MOL0     N13713  12.589   6.464   7.498 -0.0499 -0.3730 -0.0107
  100MOL0     N13714  12.459   6.485   7.492  0.5756  0.5096 -1.1569
  100MOL0     C13715  11.291   6.451   7.706 -1.2414 -0.8070  0.1984
  100MOL0     C13716  11.180   6.396   7.768 -0.8200  0.3154 -1.2340
  100MOL0     C13717  10.892   6.182   8.014  0.5423 -0.1804  0.4326
  100MOL0     C13718  10.788   6.267   7.957  0.4099  0.1653 -1.2307
  100MOL0     C13719  10.663   6.261   8.012  0.1753 -1.2162 -0.5355
  100MOL0     C13720  10.631   6.200   8.128  0.6447  0.2555  0.3896
  100MOL0     O13721  10.504   6.212   8.173 -0.6032  0.0700 -0.4878
  100MOL0     C13722  10.450   6.098   8.237 -0.0067  0.8269  0.2041
  100MOL0     C13723  10.314   6.133   8.278  0.6782  1.0395  0.4461
  100MOL0     C13724  10.306   6.231   8.386  0.0018 -0.0902  0.3298
  100MOL0     C13725  10.166   6.213   8.446 -0.2491 -0.2635 -0.3035
  100MOL0     C13726  10.062   6.251   8.353 -0.1444  0.3616  0.3875
  100MOL0     C13727   9.974   6.296   8.283  0.0524  1.5717 -0.3364
  100MOL0     C13728  10.737   6.127   8.195  1.5135 -0.2060  0.3898
  100MOL0     C13729  10.859   6.119   8.137 -0.0618  0.8220 -0.0197
  100MOL0     C13730  10.948   6.022   8.198 -0.0167  0.4105 -0.4313
  100MOL0     H13731  11.185   6.081   7.651  1.3313  0.0028 -2.2205
  100MOL0     H13732  11.381   6.166   7.534 -1.1373 -1.0738 -0.6259
  100MOL0     H13733  11.466   6.319   7.384 -0.3290 -2.6833  1.9187
  100MOL0     H13734  11.619   6.306   7.477  0.4433  2.0071  1.9841
  100MOL0     H13735  11.566   6.481   7.273 -0.7419 -0.6883  0.4267
  100MOL0     H13736  11.534   6.579   7.412 -3.1221 -2.4547  0.0194
  100MOL0     H13737  11.746   6.629   7.371 -2.2006  0.5700 -1.5732
  100MOL0     H13738  11.764   6.511   7.502 -0.6478  1.2162  0.3344
  100MOL0     H13739  11.820   6.338   7.323 -0.1544  0.4730 -0.2835
  100MOL0     H13740  11.782   6.454   7.203 -3.9518 -1.3295  1.1629
  100MOL0     H13741  12.021   6.480   7.399  0.9904  1.1938  0.6245
  100MOL0     H13742  11.973   6.608   7.298  1.5041 -0.1987  1.9547
  100MOL0     H13743  12.044   6.329   7.202 -4.0083  0.8152  0.5354
  100MOL0     H13744  12.037   6.466   7.093 -4.5224  0.7993  1.2094
  100MOL0     H13745  12.218   6.573   7.247 -0.1583  0.2935 -1.4754
  100MOL0     H13746  12.274   6.451   7.130  0.3930 -1.6039  0.0811
  100MOL0     H13747  12.225   6.424   7.438 -2.3589 -0.5266 -0.4865
  100MOL0     H13748  12.259   6.282   7.329 -2.4386  0.8754 -3.1787
  100MOL0     H13749  12.526   6.337   7.206  0.6891 -4.9412  2.8093
  100MOL0     H13750  12.813   6.477   7.284 -0.5814  0.4359 -0.2233
  100MOL0     H13751  12.743   6.317   7.237 -0.7881  0.1392 -1.3980
  100MOL0     H13752  12.937   6.279   7.359  0.1257 -0.6788 -0.3439
  100MOL0     H13753  12.909   6.413   7.471  1.6207  1.0138 -2.6287
  100MOL0     H13754  12.761   6.281   7.604  2.8031  2.5176 -0.4338
  100MOL0     H13755  12.741   6.153   7.475 -1.5665 -0.7778  3.0780
  100MOL0     H13756  12.899   6.097   7.671 -0.7578 -2.1709 -2.2230
  100MOL0     H13757  12.997   6.096   7.523 -0.8813 -3.4773  0.9265
  100MOL0     H13758  13.093   6.057   7.758 -1.2683  1.7161 -2.4318
  100MOL0     H13759  13.204   5.919   7.914  1.5836 -1.4854 -1.3220
  100MOL0     H13760  13.302   5.976   8.037  1.5164  3.3126  0.3647
  100MOL0     H13761  13.369   5.963   7.862 -4.0632 -1.4028 -4.5659
  100MOL0     H13762  13.716   6.369   7.819 -2.2215  0.3108  0.8886
  100MOL0     H13763  13.982   6.335   7.848 -0.8087 -1.3082 -0.1569
  100MOL0     H13764  14.126   6.095   7.991 -1.8653  0.6464 -0.3638
  100MOL0     H13765  14.181   6.248   7.897  2.7108  2.7633  2.0099
  100MOL0     H13766  14.290   6.191   8.169 -0.9096 -0.7189 -0.6863
  100MOL0     H13767  14.356   6.115   8.015 -0.7786 -1.0485  0.6789
  100MOL0     H13768  14.340   6.403   8.112 -0.3162 -0.6622 -0.0454
  100MOL0     H13769  14.391   6.367   7.940  1.3632  3.0709  1.6027
  100MOL0     H13770  14.583   6.219   8.019  0.2834 -0.0166  0.2116
  100MOL0     H13771  14.535   6.264   8.182 -2.7999  2.1356  0.4687
  100MOL0     H13772  14.601   6.469   7.975  0.2491  2.7707  1.7215
  100MOL0     H13773  14.574   6.498   8.149  2.0868 -0.3211  3.0485
  100MOL0     H13774  14.757   6.388   8.219 -0.3651 -0.8655 -0.7670
  100MOL0     H13775  14.790   6.526   8.106 -1.8017  0.5421  0.1022
  100MOL0     H13776  14.817   6.316   7.929  0.2383 -0.6959 -1.4180
  100MOL0     H13777  14.814   6.213   8.067  0.0893  0.5995  0.2697
  100MOL0     H13778  15.029   6.315   8.156  1.9835  0.9203 -0.0202
  100MOL0     H13779  15.020   6.438   8.024  1.5148  0.2483  0.7549
  100MOL0     H13780  13.890   6.196   8.249 -2.5160 -3.0467 -1.3891
  100MOL0     H13781  13.658   6.228   8.204 -1.6911 -0.4671 -1.4911
  100MOL0     H13782  13.341   6.454   7.901 -2.8060  1.3399  0.3207
  100MOL0     H13783  13.160   6.472   7.745  1.0738  0.0453  0.8871
  100MOL0     H13784  11.313   6.556   7.719 -2.5759 -0.1788 -2.1011
  100MOL0     H13785  11.126   6.465   7.832  1.4738  2.0058 -0.9804
  100MOL0     H13786  10.802   6.326   7.867 -3.2591  1.0044 -1.3894
  100MOL0     H13787  10.583   6.318   7.966 -1.8547 -3.2121  0.3268
  100MOL0     H13788  10.457   6.011   8.172  0.2277 -0.1756  1.5419
  100MOL0     H13789  10.506   6.079   8.329  0.9323  1.6260 -0.1857
  100MOL0     H13790  10.263   6.042   8.310 -4.5479  3.5126  0.1956
  100MOL0     H13791  10.258   6.165   8.189  0.7915 -0.1325 -0.0716
  100MOL0     H13792  10.378   6.202   8.463 -0.6389 -1.1452  0.5516
  100MOL0     H13793  10.322   6.333   8.351 -2.8605  0.0223 -0.9368
  100MOL0     H13794  10.158   6.269   8.540  2.0742 -1.2046  0.5377
  100MOL0     H13795  10.148   6.108   8.471 -1.1436  0.0809  0.5584
  100MOL0     H13796   9.890   6.327   8.224 -1.7018  3.0218  2.6890
  100MOL0     H13797  10.709   6.082   8.290 -1.3781  2.2961  0.8677
  100MOL0     H13798  10.901   5.973   8.284 -0.7727 -0.8691 -1.5267
  100MOL0     H13799  10.984   5.941   8.133  4.4135  0.4754  1.5424
  100MOL0     H13800  11.037   6.076   8.230 -1.1763  0.1288  3.8863
  101MOL0     O13801   8.857   7.711   7.006 -0.1118  0.0353  0.2647
  101MOL0     C13802   8.918   7.783   7.085  0.2799 -0.1169  1.0034
  101MOL0     O13803   9.037   7.852   7.051  0.1790  0.3078 -0.3604
  101MOL0     C13804   9.089   7.872   6.925 -0.2681  0.0517 -0.0113
  101MOL0     C13805   9.024   7.852   6.801  0.1315 -0.8525  0.2653
  101MOL0     C13806   9.097   7.878   6.679  0.1622 -0.6008 -1.3238
  101MOL0     C13807   9.242   7.905   6.690  0.9889 -0.3712  0.3203
  101MOL0     O13808   9.298   7.931   6.565 -0.5363  0.8354 -1.0081
  101MOL0     C13809   9.431   7.949   6.536 -0.7718 -0.6166  0.6282
  101MOL0     C13810   9.457   8.005   6.394  0.2427  0.0275 -0.0291
  101MOL0     C13811   9.593   7.979   6.338 -0.5902 -0.6363 -0.2026
  101MOL0     C13812   9.704   8.062   6.416 -1.5552  0.6088 -0.4678
  101MOL0     C13813   9.758   7.989   6.545 -0.4286  0.0548  0.2369
  101MOL0     C13814   9.895   8.036   6.576 -0.0786 -0.5086  0.3384
  101MOL0     C13815   9.966   7.947   6.677 -0.6465  0.8433 -0.0018
  101MOL0     C13816  10.113   7.977   6.663  0.0254 -0.2617 -0.0617
  101MOL0     N13817  10.176   7.897   6.555  0.2284  0.4787 -0.3083
  101MOL0     C13818  10.304   7.853   6.563  0.5522  0.0390 -0.8654
  101MOL0     C13819  10.337   7.778   6.448  0.2910  0.5816  0.1943
  101MOL0     C13820  10.484   7.752   6.419 -0.7207 -0.6586 -0.7990
  101MOL0     C13821  10.581   7.703   6.526 -0.2133 -0.1650  0.4382
  101MOL0     C13822  10.726   7.673   6.468 -0.3485  0.3980 -0.2518
  101MOL0     C13823  10.810   7.792   6.451  0.1468 -0.0428  0.4123
  101MOL0     O13824  10.948   7.750   6.418  0.4156  1.1053  0.5116
  101MOL0     C13825  11.028   7.843   6.361  0.7113  0.1784 -1.5790
  101MOL0     C13826  11.145   7.800   6.306  0.2234 -0.4972  1.1913
  101MOL0     C13827  11.244   7.892   6.255  0.5639 -0.7669  0.5883
  101MOL0     C13828  11.384   7.839   6.223 -0.2024  0.2097 -0.8600
  101MOL0     C13829  11.211   8.033   6.248  0.2440  0.7302 -0.1357
  101MOL0     C13830  11.290   8.140   6.167  0.4776 -0.1448  0.2001
  101MOL0     O13831  11.372   8.091   6.069  0.5260 -0.5331  0.6474
  101MOL0     C13832  11.451   8.192   6.009  1.1979  0.6803 -0.0871
  101MOL0     C13833  11.557   8.247   6.083 -0.3961  0.4510  0.1775
  101MOL0     C13834  11.640   8.336   6.034 -1.3320 -0.3478  0.1153
  101MOL0     C13835  11.616   8.388   5.902  0.3588  0.0041 -0.0065
  101MOL0     O13836  11.691   8.487   5.842 -0.3323 -0.7540  0.0941
  101MOL0     C13837  11.839   8.503   5.853  0.1141  0.2071  0.3992
  101MOL0     C13838  11.868   8.642   5.820 -0.6125 -0.0556 -0.0083
  101MOL0     C13839  12.013   8.681   5.856 -0.0459 -0.5492 -0.6767
  101MOL0     C13840  12.030   8.833   5.894 -0.2551  0.8546  0.3665
  101MOL0     C13841  11.975   8.926   5.779 -0.0172  0.4750  0.1292
  101MOL0     C13842  11.973   9.074   5.830 -0.1276 -0.2525 -0.4908
  101MOL0     C13843  11.881   9.163   5.749  0.3843  0.1112 -0.2068
  101MOL0     C13844  11.914   9.314   5.761 -0.4350 -0.1389  0.4489
  101MOL0    Cl13845  11.771   9.410   5.743  0.0588 -0.0504  0.3955
  101MOL0     C13846  11.499   8.336   5.835 -0.8052  0.4740  0.9231
  101MOL0     C13847  11.416   8.240   5.881 -0.0744  0.5525 -0.3727
  101MOL0     O13848  11.278   8.263   6.199  0.0022  0.2031  0.0034
  101MOL0     C13849  11.091   8.072   6.317 -0.5613 -0.1637 -0.6218
  101MOL0     C13850  10.998   7.981   6.372  0.0964  0.4280 -0.5888
  101MOL0     N13851  10.221   7.781   6.376  0.7755 -0.0737  0.2586
  101MOL0     N13852  10.135   7.857   6.431 -0.1718 -0.1058 -0.1979
  101MOL0     C13853   9.297   7.921   6.808 -0.1272 -1.0371  0.3713
  101MOL0     C13854   9.223   7.910   6.925 -0.2467  0.1239  0.2268
  101MOL0     C13855   8.867   7.778   7.227 -0.2967  0.8021  0.0219
  101MOL0     C13856   8.772   7.680   7.256 -0.4230  0.6248  0.9177
  101MOL0     C13857   8.722   7.677   7.382  0.5572  0.0060 -0.1027
  101MOL0     C13858   8.775   7.752   7.488  0.3210  0.2917  0.4682
  101MOL0     O13859   8.703   7.748   7.610  0.0005  0.7268  0.0203
  101MOL0     C13860   8.783   7.796   7.719 -0.7152 -0.4520  0.3352
  101MOL0     C13861   8.719   7.744   7.850  0.0273 -0.7890  0.2700
  101MOL0     C13862   8.752   7.833   7.976 -0.1444  0.3958  0.7610
  101MOL0     C13863   8.688   7.789   8.104  0.2983 -0.0244 -0.2864
  101MOL0     C13864   8.745   7.665   8.157 -0.9732 -1.3464  0.8247
  101MOL0     C13865   8.824   7.580   8.199  0.1093  0.2454  0.8897
  101MOL0     C13866   8.871   7.842   7.459 -0.5535 -0.1808  0.9393
  101MOL0     C13867   8.913   7.864   7.331 -0.4607  0.7585  0.9326
  101MOL0     C13868   8.993   7.987   7.306  0.2505 -0.3134 -0.2225
  101MOL0     H13869   8.916   7.837   6.795 -0.2877  1.7797 -0.4667
  101MOL0     H13870   9.040   7.882   6.587 -0.5877 -0.3340 -0.8638
  101MOL0     H13871   9.473   7.848   6.526  1.3317  0.3303 -0.7686
  101MOL0     H13872   9.481   8.006   6.615  0.4098  0.3774 -0.7852
  101MOL0     H13873   9.392   7.953   6.322  2.0472 -2.5734  0.1017
  101MOL0     H13874   9.435   8.112   6.395  1.0406  0.1970  1.1073
  101MOL0     H13875   9.623   7.874   6.333 -0.6179 -0.6150 -0.7883
  101MOL0     H13876   9.584   8.025   6.240  2.8020 -0.9822 -0.7951
  101MOL0     H13877   9.788   8.071   6.347 -2.3134  0.8794 -1.3776
  101MOL0     H13878   9.659   8.154   6.453  0.6769  1.6872 -0.2521
  101MOL0     H13879   9.759   7.881   6.530  2.5100 -0.0456  0.6859
  101MOL0     H13880   9.691   8.014   6.628 -0.0582 -0.8906  0.8345
  101MOL0     H13881   9.955   8.042   6.484 -0.5954 -3.4378 -0.2753
  101MOL0     H13882   9.884   8.138   6.615 -1.9376 -1.0552  1.3871
  101MOL0     H13883   9.943   7.843   6.651  0.7863  1.0616 -2.5194
  101MOL0     H13884   9.932   7.973   6.777  0.4754 -1.2030  0.9785
  101MOL0     H13885  10.136   8.081   6.638  1.6919 -1.3390 -3.5972
  101MOL0     H13886  10.164   7.959   6.758  0.8835  0.3464 -0.3968
  101MOL0     H13887  10.372   7.885   6.642 -0.5084 -1.6886  0.8257
  101MOL0     H13888  10.522   7.846   6.378  0.3776 -0.2692  1.0252
  101MOL0     H13889  10.487   7.686   6.332 -0.4889 -0.1966 -1.1458
  101MOL0     H13890  10.581   7.770   6.612 -2.7723  0.2173  0.1997
  101MOL0     H13891  10.547   7.609   6.570  1.9249 -1.2176 -0.0179
  101MOL0     H13892  10.770   7.601   6.538 -0.6064 -1.9856 -2.4253
  101MOL0     H13893  10.712   7.627   6.370  1.4995  3.0900 -1.8916
  101MOL0     H13894  10.763   7.847   6.369 -0.6968  1.4395  1.8434
  101MOL0     H13895  10.802   7.856   6.539 -3.9517  1.0460 -0.5278
  101MOL0     H13896  11.157   7.692   6.309 -2.3249 -0.8279  1.7725
  101MOL0     H13897  11.463   7.886   6.282 -0.4112 -0.1026 -0.3260
  101MOL0     H13898  11.423   7.847   6.121 -0.8576  0.5936 -1.0870
  101MOL0     H13899  11.386   7.731   6.241 -0.7328  0.1090 -1.3822
  101MOL0     H13900  11.563   8.217   6.187  0.7382 -2.2931 -0.6097
  101MOL0     H13901  11.721   8.375   6.095  0.3831 -1.4693 -1.3550
  101MOL0     H13902  11.873   8.478   5.954 -0.3075  1.8663  0.9831
  101MOL0     H13903  11.875   8.430   5.780 -1.0549 -1.6751  1.5982
  101MOL0     H13904  11.859   8.654   5.712  0.5229 -1.5843 -0.3067
  101MOL0     H13905  11.797   8.707   5.872  0.0088  1.4695 -1.0080
  101MOL0     H13906  12.079   8.664   5.771 -0.4058 -7.4520 -0.0915
  101MOL0     H13907  12.048   8.620   5.939 -0.0780 -0.6055 -0.7043
  101MOL0     H13908  12.137   8.849   5.909 -0.5848  0.8157  3.1858
  101MOL0     H13909  11.975   8.850   5.987 -0.5705 -0.3484  0.4155
  101MOL0     H13910  12.043   8.938   5.694 -1.0707  3.2134 -0.4249
  101MOL0     H13911  11.874   8.898   5.748 -1.3708  0.3074  4.0887
  101MOL0     H13912  12.071   9.121   5.840  1.4381 -3.4748  0.5665
  101MOL0     H13913  11.922   9.061   5.926 -3.1910 -1.2586 -2.1235
  101MOL0     H13914  11.777   9.146   5.780  0.9224 -1.4097  0.8562
  101MOL0     H13915  11.894   9.128   5.647  1.8008  0.5388 -0.1956
  101MOL0     H13916  11.978   9.338   5.675  1.6992 -2.0625  1.4165
  101MOL0     H13917  11.963   9.338   5.856 -1.2066  0.9906  0.5821
  101MOL0     H13918  11.460   8.376   5.742 -0.2759  1.6735  1.1918
  101MOL0     H13919  11.329   8.196   5.833  0.0377 -1.5290  1.1851
  101MOL0     H13920  11.069   8.178   6.308  1.0176  0.4015  1.5015
  101MOL0     H13921  10.919   8.021   6.434  0.3965 -2.7413  2.1237
  101MOL0     H13922   9.395   7.966   6.819 -1.0435  2.8485 -4.1074
  101MOL0     H13923   9.278   7.942   7.013 -0.1534  2.4815 -0.6243
  101MOL0     H13924   8.740   7.617   7.174  0.3968  0.7426  0.4952
  101MOL0     H13925   8.635   7.619   7.411  2.0292 -1.8232  0.9119
  101MOL0     H13926   8.892   7.793   7.725 -0.7085  0.6499  1.0398
  101MOL0     H13927   8.776   7.905   7.726 -0.2440 -0.4834  1.5656
  101MOL0     H13928   8.776   7.652   7.868  3.6079  0.4217 -3.4454
  101MOL0     H13929   8.612   7.733   7.832 -0.3163  2.2117  0.0323
  101MOL0     H13930   8.859   7.842   7.997  0.1212 -2.5884  1.1226
  101MOL0     H13931   8.694   7.924   7.957 -1.4110 -0.9469 -2.6623
  101MOL0     H13932   8.580   7.771   8.093  0.3737 -0.7741  0.1344
  101MOL0     H13933   8.699   7.880   8.164  0.4416  1.2799 -2.1888
  101MOL0     H13934   8.898   7.508   8.229 -0.7302 -1.4269 -0.8609
  101MOL0     H13935   8.897   7.915   7.535  1.2532 -1.0004  1.1660
  101MOL0     H13936   8.959   8.065   7.374 -4.4793 -2.5218  0.4031
  101MOL0     H13937   9.099   7.971   7.327  0.3153  2.1502  1.7868
  101MOL0     H13938   8.978   8.018   7.202 -4.6669 -0.3538  0.2129
  102MOL0     O13939   6.041   3.068   6.791 -0.4978  1.0933 -0.5625
  102MOL0     C13940   6.044   3.017   6.674 -0.3196 -1.1456  0.2538
  102MOL0     O13941   6.155   2.958   6.616 -0.2344  0.6050 -0.2863
  102MOL0     C13942   6.253   2.916   6.698 -0.5806 -0.8759  0.2203
  102MOL0     C13943   6.334   3.011   6.764 -0.0242 -0.3315 -0.4559
  102MOL0     C13944   6.437   2.962   6.841  0.2189  0.0175  0.2785
  102MOL0     C13945   6.452   2.823   6.854 -0.5845  0.0635 -1.2721
  102MOL0     O13946   6.558   2.756   6.908 -0.2160 -0.4127 -0.3922
  102MOL0     C13947   6.663   2.839   6.949  0.1542  0.5008  1.1545
  102MOL0     C13948   6.652   2.913   7.080 -1.0385  0.2781 -0.8624
  102MOL0     C13949   6.774   3.001   7.109  0.2240  0.8005  0.3670
  102MOL0     C13950   6.750   3.081   7.239  0.2331  1.1830  0.8042
  102MOL0     C13951   6.889   3.137   7.284 -0.5024 -0.0042 -0.5604
  102MOL0     C13952   6.973   3.068   7.388  0.0961 -0.3142 -0.1591
  102MOL0     C13953   6.911   3.070   7.527  0.3071 -0.0158  0.5816
  102MOL0     C13954   6.954   2.959   7.607 -0.1134  0.5679 -0.6201
  102MOL0     N13955   6.954   2.977   7.744 -1.0939  0.4942 -0.2892
  102MOL0     C13956   6.860   3.037   7.825 -0.0427  0.5055  0.1460
  102MOL0     C13957   6.905   3.022   7.946  0.3023  0.7756  0.2678
  102MOL0     C13958   6.849   3.088   8.072  0.2260 -0.2543  0.3079
  102MOL0     C13959   6.926   3.217   8.100  0.1654  0.0040 -0.3290
  102MOL0     C13960   6.836   3.340   8.125  0.9282  0.7376 -0.2073
  102MOL0     C13961   6.908   3.465   8.158  0.5412  0.2925  0.2751
  102MOL0     O13962   6.817   3.579   8.152 -0.0053 -0.4447  0.1757
  102MOL0     C13963   6.762   3.635   8.270  0.0667 -0.4016 -0.1499
  102MOL0     C13964   6.807   3.614   8.403  0.0536  0.2204  0.1604
  102MOL0     C13965   6.750   3.685   8.504  0.5048  0.5728 -0.3824
  102MOL0     C13966   6.797   3.651   8.642 -0.9740 -0.5315  0.5669
  102MOL0     C13967   6.633   3.764   8.476 -0.5076 -0.6901 -0.3802
  102MOL0     C13968   6.552   3.835   8.579 -0.0557  0.5045 -0.1994
  102MOL0     O13969   6.441   3.902   8.523 -0.1330  0.2888  0.4669
  102MOL0     C13970   6.358   3.979   8.592 -0.0733 -0.9245 -0.6527
  102MOL0     C13971   6.406   4.082   8.667 -0.2317 -0.4452 -0.2059
  102MOL0     C13972   6.332   4.157   8.764  0.2763 -0.2404 -0.5152
  102MOL0     C13973   6.203   4.116   8.791 -0.5046  0.5164 -0.2252
  102MOL0     O13974   6.145   4.191   8.889 -0.8189 -1.1088 -0.6926
  102MOL0     C13975   6.007   4.166   8.919 -0.5833 -0.0405  0.1433
  102MOL0     C13976   5.947   4.263   9.030 -0.6684 -0.0790  0.8595
  102MOL0     C13977   5.966   4.412   8.987  0.3255  0.4743  0.0838
  102MOL0     C13978   5.876   4.510   9.057 -0.1802  0.5192  0.1298
  102MOL0     C13979   5.732   4.501   9.012  0.3889 -0.5792  1.1978
  102MOL0     C13980   5.624   4.576   9.095  0.1880  0.2154 -0.1369
  102MOL0     C13981   5.487   4.528   9.051  0.4651 -0.7100 -0.1898
  102MOL0     C13982   5.391   4.531   9.174  0.5963 -0.2553  0.0437
  102MOL0    Cl13983   5.225   4.494   9.114  0.2110 -0.3857 -0.3106
  102MOL0     C13984   6.150   4.009   8.715  0.6311 -1.3381 -1.5153
  102MOL0     C13985   6.224   3.947   8.620 -0.0723  0.0887 -1.1441
  102MOL0     O13986   6.593   3.859   8.694  0.3708 -0.5755  0.2713
  102MOL0     C13987   6.586   3.777   8.343 -0.1036 -0.6429  0.5468
  102MOL0     C13988   6.652   3.719   8.236  0.1926  0.3194  0.4400
  102MOL0     N13989   7.033   2.967   7.938  0.1950 -0.3391 -0.0425
  102MOL0     N13990   7.058   2.933   7.819 -0.0666 -0.3373 -0.8305
  102MOL0     C13991   6.358   2.739   6.800  0.2044  1.0926 -0.6467
  102MOL0     C13992   6.270   2.783   6.711  0.0070 -0.4513 -0.7281
  102MOL0     C13993   5.934   3.045   6.585  0.2161  0.2139 -0.3895
  102MOL0     C13994   5.940   2.984   6.454  0.1048  0.2713 -0.1833
  102MOL0     C13995   5.851   3.018   6.350  0.3408 -0.4928  1.1576
  102MOL0     C13996   5.745   3.107   6.377  0.4957  0.7154  0.4389
  102MOL0     O13997   5.662   3.148   6.272  0.3953 -0.1452  0.0084
  102MOL0     C13998   5.520   3.132   6.298  0.3145 -0.1056 -0.1916
  102MOL0     C13999   5.447   3.167   6.171 -0.1402  1.2550  0.0412
  102MOL0     C14000   5.301   3.228   6.169 -0.3342  0.3869 -0.8433
  102MOL0     C14001   5.258   3.262   6.029 -0.2465 -0.7654  0.0386
  102MOL0     C14002   5.114   3.298   6.028  0.3050  0.1041 -0.7089
  102MOL0     C14003   4.999   3.320   6.051 -0.1837  0.2351  0.0124
  102MOL0     C14004   5.732   3.156   6.510  0.7914  0.6983  0.3872
  102MOL0     C14005   5.818   3.120   6.615 -0.7549  0.5968 -0.4524
  102MOL0     C14006   5.781   3.176   6.750 -0.3761 -0.7354 -0.4384
  102MOL0     H14007   6.321   3.118   6.759 -0.4581 -0.2058  2.0402
  102MOL0     H14008   6.513   3.036   6.866 -0.1558  0.2313  0.8071
  102MOL0     H14009   6.694   2.904   6.867 -0.1281  0.3009  0.8886
  102MOL0     H14010   6.744   2.766   6.962 -1.4587 -2.1106 -2.1142
  102MOL0     H14011   6.560   2.973   7.085  0.2803  2.4787 -1.4259
  102MOL0     H14012   6.645   2.828   7.149  3.2090 -0.0684 -0.6044
  102MOL0     H14013   6.868   2.947   7.127 -1.4791 -2.4449  0.1159
  102MOL0     H14014   6.800   3.061   7.022  4.0713 -0.3416  0.5380
  102MOL0     H14015   6.686   3.166   7.212 -0.2831  0.0314 -1.9621
  102MOL0     H14016   6.701   3.016   7.312  3.5913 -2.4083  0.1508
  102MOL0     H14017   6.885   3.243   7.309  1.4761 -0.6320  3.1867
  102MOL0     H14018   6.952   3.140   7.195 -0.7099  0.1873 -0.6998
  102MOL0     H14019   6.975   2.964   7.353 -4.5856 -0.3441 -0.9053
  102MOL0     H14020   7.075   3.109   7.382 -0.9757  2.4038 -1.8698
  102MOL0     H14021   6.801   3.076   7.528 -0.1183 -4.4888  0.8607
  102MOL0     H14022   6.959   3.156   7.574 -0.8443  0.2516  1.3413
  102MOL0     H14023   6.889   2.872   7.592  0.6306 -0.1813  0.3431
  102MOL0     H14024   7.055   2.926   7.581 -0.5736 -1.9548  0.4750
  102MOL0     H14025   6.768   3.088   7.800 -0.9699 -0.3179  1.6957
  102MOL0     H14026   6.856   3.014   8.153  0.9597 -0.4275  0.0974
  102MOL0     H14027   6.744   3.110   8.053  0.1885 -0.8594 -0.2556
  102MOL0     H14028   6.995   3.204   8.184 -0.6202  0.1577  0.3479
  102MOL0     H14029   6.992   3.225   8.013 -1.2356 -2.5222 -1.7317
  102MOL0     H14030   6.765   3.347   8.042  0.9882 -0.7915 -0.4137
  102MOL0     H14031   6.778   3.295   8.206 -0.5615 -0.3357 -1.8052
  102MOL0     H14032   6.952   3.463   8.259  2.2208  0.1499 -0.4307
  102MOL0     H14033   6.990   3.473   8.087 -0.5441  2.6125 -0.8273
  102MOL0     H14034   6.898   3.558   8.422  1.4835  2.1110 -0.7989
  102MOL0     H14035   6.862   3.563   8.645 -2.8303 -2.0211 -0.4036
  102MOL0     H14036   6.718   3.630   8.715 -1.5928  0.6807  0.2681
  102MOL0     H14037   6.850   3.730   8.697 -2.5075  0.4901  0.6447
  102MOL0     H14038   6.513   4.101   8.659  0.0145 -1.5313  0.3377
  102MOL0     H14039   6.377   4.241   8.817 -1.3344  1.7701 -2.1691
  102MOL0     H14040   5.941   4.162   8.832  0.7001 -1.8816 -0.8239
  102MOL0     H14041   6.000   4.067   8.965  0.1036 -0.3303 -0.3499
  102MOL0     H14042   5.838   4.248   9.030 -1.2314  3.1601 -0.3077
  102MOL0     H14043   5.986   4.248   9.131 -1.4440  0.8373  1.3080
  102MOL0     H14044   5.941   4.407   8.880 -2.0523  0.3725  0.5778
  102MOL0     H14045   6.068   4.449   8.992 -0.4961  2.7075  2.2101
  102MOL0     H14046   5.904   4.613   9.033 -4.5036  1.7957 -0.3629
  102MOL0     H14047   5.880   4.486   9.164  2.0403 -3.9805 -0.7109
  102MOL0     H14048   5.744   4.547   8.913  1.3387  0.3468  1.7300
  102MOL0     H14049   5.707   4.395   8.998 -0.9198 -0.4275  2.2608
  102MOL0     H14050   5.633   4.682   9.071 -1.1446  0.3274 -0.2432
  102MOL0     H14051   5.631   4.550   9.201 -0.8417 -1.2155 -0.3807
  102MOL0     H14052   5.489   4.424   9.016  0.3954 -0.3850 -1.1896
  102MOL0     H14053   5.459   4.596   8.970  2.2919  0.4078  0.0610
  102MOL0     H14054   5.403   4.626   9.228  4.5293  0.1454 -1.1984
  102MOL0     H14055   5.411   4.445   9.239 -0.3836 -2.2060 -2.1071
  102MOL0     H14056   6.052   3.966   8.733 -0.7599  1.1637 -2.5597
  102MOL0     H14057   6.193   3.852   8.577  0.7119 -0.0187 -1.4863
  102MOL0     H14058   6.488   3.821   8.326  1.1181  2.3461  0.5899
  102MOL0     H14059   6.618   3.714   8.133  3.7250  0.8080 -0.8738
  102MOL0     H14060   6.371   2.633   6.817  4.3109  1.8612  2.6819
  102MOL0     H14061   6.197   2.723   6.657 -1.2580 -0.2201  0.6680
  102MOL0     H14062   6.023   2.919   6.429 -0.6548 -0.0425 -2.1332
  102MOL0     H14063   5.868   2.979   6.251 -0.5592 -4.6567  2.4340
  102MOL0     H14064   5.502   3.026   6.314  1.7166 -1.0578 -3.8354
  102MOL0     H14065   5.494   3.197   6.381  2.9023  2.1130 -0.9670
  102MOL0     H14066   5.451   3.072   6.118  1.5130  0.7559  0.9879
  102MOL0     H14067   5.504   3.246   6.121  0.0064  0.0756 -1.7195
  102MOL0     H14068   5.231   3.150   6.201  1.4486 -0.6320  0.8110
  102MOL0     H14069   5.298   3.312   6.239  2.5594  2.0852 -2.5842
  102MOL0     H14070   5.287   3.182   5.960  2.5641  1.3820 -1.4642
  102MOL0     H14071   5.315   3.350   5.999 -0.9661 -0.3898 -0.2546
  102MOL0     H14072   4.895   3.341   6.061 -0.4126 -0.7706 -0.1334
  102MOL0     H14073   5.659   3.236   6.525  1.4710  1.0488  1.9393
  102MOL0     H14074   5.856   3.252   6.772  1.8641 -3.6914  3.1747
  102MOL0     H14075   5.683   3.225   6.750 -0.3308 -0.5323  2.1994
  102MOL0     H14076   5.788   3.103   6.831  0.7632 -1.7303 -1.3936
  103MOL0     O14077   9.902  11.424   9.144 -0.2539 -0.1228 -0.9759
  103MOL0     C14078   9.844  11.504   9.077  0.3087 -0.4944  0.7876
  103MOL0     O14079   9.835  11.633   9.112  0.2853 -0.4550 -0.1136
  103MOL0     C14080   9.902  11.695   9.215  0.0116  0.8712  0.8110
  103MOL0     C14081   9.996  11.793   9.197 -0.3706 -0.6149 -0.6639
  103MOL0     C14082  10.056  11.854   9.311 -0.4522 -0.7478 -0.2865
  103MOL0     C14083  10.015  11.830   9.434  0.4515 -1.0292 -0.0924
  103MOL0     O14084  10.058  11.932   9.521  0.0914 -1.2686 -0.1640
  103MOL0     C14085  10.064  11.906   9.663  0.0856  0.4873 -0.3836
  103MOL0     C14086   9.941  11.969   9.739 -0.3316 -0.4390 -0.1947
  103MOL0     C14087   9.925  12.122   9.717 -0.5170 -0.4519  0.2885
  103MOL0     C14088   9.778  12.162   9.761 -1.1205 -0.1494  0.4464
  103MOL0     C14089   9.745  12.312   9.741 -0.2041 -0.5781  0.0136
  103MOL0     C14090   9.593  12.338   9.765  1.3317 -0.0532  0.4595
  103MOL0     C14091   9.543  12.458   9.683 -0.1574  0.4659  0.0987
  103MOL0     C14092   9.396  12.506   9.692 -0.4325  0.4289 -0.8464
  103MOL0     N14093   9.361  12.614   9.773  0.2116 -0.7508 -0.9676
  103MOL0     C14094   9.390  12.752   9.754  0.3625 -0.2080  0.4773
  103MOL0     C14095   9.318  12.810   9.849  0.1056  0.3332 -0.4198
  103MOL0     C14096   9.291  12.962   9.860  0.1593  0.4799  0.1499
  103MOL0     C14097   9.237  12.999   9.989 -0.2435 -0.2726  0.0763
  103MOL0     C14098   9.216  13.152  10.003 -1.0597 -0.0690  0.5064
  103MOL0     C14099   9.150  13.176  10.138  0.3131 -0.8310 -0.1641
  103MOL0     O14100   9.042  13.276  10.143 -0.2517 -0.6252  0.0044
  103MOL0     C14101   9.065  13.408  10.181 -0.1418  0.1881 -0.2456
  103MOL0     C14102   9.192  13.461  10.185  0.7377  0.8373 -0.2553
  103MOL0     C14103   9.221  13.592  10.229  0.4452 -0.3711 -0.6955
  103MOL0     C14104   9.363  13.635  10.224  0.1256  0.8689  0.4764
  103MOL0     C14105   9.119  13.674  10.275  0.8146 -0.0121  0.4542
  103MOL0     C14106   9.123  13.819  10.314  1.1485 -1.0035 -0.2351
  103MOL0     O14107   9.012  13.869  10.384  0.0641 -0.4504 -0.3381
  103MOL0     C14108   9.010  13.986  10.467  0.1267  0.5841  0.4840
  103MOL0     C14109   8.899  13.998  10.557 -0.0276  1.0782  0.2565
  103MOL0     C14110   8.876  14.119  10.624 -0.6735 -0.5456 -0.4019
  103MOL0     C14111   8.973  14.218  10.616 -1.0518 -1.2580  0.3005
  103MOL0     O14112   8.953  14.336  10.692  0.2520 -0.0969 -0.1655
  103MOL0     C14113   9.015  14.455  10.647  0.1720 -0.5835  0.2355
  103MOL0     C14114   8.910  14.560  10.694 -0.5609  0.3824  0.2926
  103MOL0     C14115   8.962  14.690  10.718 -0.4276 -0.3479  0.3634
  103MOL0     C14116   8.857  14.795  10.760 -0.7271 -0.8003 -0.9390
  103MOL0     C14117   8.945  14.918  10.795  0.7727 -0.8486 -0.7162
  103MOL0     C14118   8.846  15.028  10.835  0.2661 -0.1684  0.3921
  103MOL0     C14119   8.927  15.155  10.868  0.0356 -0.6453 -0.8538
  103MOL0     C14120   8.873  15.266  10.779 -0.4148  1.4546 -0.7005
  103MOL0    Cl14121   8.999  15.387  10.773  0.3264 -0.1752  0.6029
  103MOL0     C14122   9.091  14.203  10.542  0.4828 -0.9057 -0.8832
  103MOL0     C14123   9.104  14.085  10.456 -0.2738 -0.0711  0.3614
  103MOL0     O14124   9.210  13.887  10.274 -0.6889 -0.3181 -1.2268
  103MOL0     C14125   8.989  13.615  10.273 -0.7606  0.6099 -0.5729
  103MOL0     C14126   8.962  13.481  10.236 -0.0849 -0.3815 -0.4261
  103MOL0     N14127   9.281  12.713   9.943 -0.0629 -0.4453 -1.4107
  103MOL0     N14128   9.305  12.593   9.901 -0.3397 -0.3806  0.5160
  103MOL0     C14129   9.912  11.736   9.460 -0.4987  0.5295 -0.4527
  103MOL0     C14130   9.863  11.667   9.348  0.2096 -0.7022 -0.8153
  103MOL0     C14131   9.776  11.464   8.953 -0.4546  0.0606  0.3952
  103MOL0     C14132   9.842  11.371   8.859  0.4013 -0.2433 -1.5479
  103MOL0     C14133   9.799  11.360   8.723 -0.8634 -0.4375 -0.5235
  103MOL0     C14134   9.680  11.425   8.671 -0.7369  0.9779 -0.3534
  103MOL0     O14135   9.655  11.419   8.535 -0.3198  0.2803  0.5174
  103MOL0     C14136   9.521  11.431   8.490 -0.1396  0.1475 -0.2092
  103MOL0     C14137   9.535  11.433   8.336  0.2849 -0.6842  1.0935
  103MOL0     C14138   9.488  11.561   8.269 -0.1281  0.9616  0.5084
  103MOL0     C14139   9.343  11.559   8.208  0.0286 -0.3883  0.5016
  103MOL0     C14140   9.251  11.506   8.305 -0.2051  0.5584 -0.5790
  103MOL0     C14141   9.174  11.461   8.388  0.4997  1.1038  0.2691
  103MOL0     C14142   9.613  11.501   8.764 -0.5972 -0.2342  0.6019
  103MOL0     C14143   9.650  11.517   8.900  0.5785  0.4326  0.9046
  103MOL0     C14144   9.550  11.586   8.983  0.1859 -0.2360  0.1511
  103MOL0     H14145  10.032  11.805   9.096 -0.4490  1.3634 -0.5020
  103MOL0     H14146  10.132  11.926   9.282 -2.7138  1.3983 -1.2324
  103MOL0     H14147  10.158  11.953   9.693 -0.1237  0.6298  0.0560
  103MOL0     H14148  10.064  11.799   9.684  2.0532  0.9498  2.3768
  103MOL0     H14149   9.851  11.915   9.706 -0.1345  1.5266 -4.5552
  103MOL0     H14150   9.963  11.951   9.845 -3.2523  1.2283  0.8236
  103MOL0     H14151  10.005  12.175   9.768 -1.4773  2.4577 -0.9649
  103MOL0     H14152   9.956  12.142   9.614  3.0660 -1.3465  1.0657
  103MOL0     H14153   9.703  12.104   9.707 -0.1819 -2.9423  1.9651
  103MOL0     H14154   9.773  12.130   9.865  1.0345  0.7544  0.8842
  103MOL0     H14155   9.767  12.331   9.635  1.4099 -1.7324  0.1037
  103MOL0     H14156   9.813  12.380   9.794 -1.6284  2.7837 -2.1518
  103MOL0     H14157   9.533  12.251   9.736  1.3903  0.1579 -0.3033
  103MOL0     H14158   9.581  12.364   9.871  0.1076 -0.7527  0.5115
  103MOL0     H14159   9.556  12.428   9.578 -1.1719  0.0865  0.0658
  103MOL0     H14160   9.606  12.544   9.706  0.4140 -0.2240  1.2100
  103MOL0     H14161   9.364  12.527   9.589  0.5334  0.4413 -1.1524
  103MOL0     H14162   9.333  12.419   9.711  0.7609 -0.6320 -1.5728
  103MOL0     H14163   9.455  12.786   9.674  0.6078 -2.7979 -0.5291
  103MOL0     H14164   9.222  12.990   9.780 -1.5207  0.1835  1.4331
  103MOL0     H14165   9.390  13.004   9.839  1.2053 -1.6683  0.4858
  103MOL0     H14166   9.139  12.951   9.998 -1.2010  1.9261  3.6614
  103MOL0     H14167   9.299  12.965  10.073 -1.1181 -0.7740  0.5322
  103MOL0     H14168   9.315  13.198  10.006 -2.9010  4.2943  2.3976
  103MOL0     H14169   9.159  13.186   9.916 -1.1283 -0.2708  0.4721
  103MOL0     H14170   9.105  13.082  10.173 -1.6380 -0.3677 -1.3062
  103MOL0     H14171   9.224  13.210  10.211  2.7587  0.6067 -3.0735
  103MOL0     H14172   9.280  13.401  10.163  0.5740  0.1996  0.7562
  103MOL0     H14173   9.414  13.540  10.203 -0.8247  0.4196  0.1159
  103MOL0     H14174   9.392  13.678  10.320  0.9933 -0.2933  0.7648
  103MOL0     H14175   9.389  13.706  10.146 -0.2187 -1.1311 -1.5676
  103MOL0     H14176   8.817  13.928  10.547  0.4191  0.7527 -1.8073
  103MOL0     H14177   8.793  14.130  10.694  0.9869  2.0192  1.3346
  103MOL0     H14178   9.111  14.470  10.698 -0.1624 -2.2647  1.4475
  103MOL0     H14179   9.019  14.462  10.538 -2.1293 -0.6052  0.1008
  103MOL0     H14180   8.844  14.564  10.607  0.4641 -0.6049 -0.5635
  103MOL0     H14181   8.850  14.530  10.780 -1.0250 -1.6035 -0.6623
  103MOL0     H14182   9.016  14.730  10.632 -0.0543  3.4358  2.1776
  103MOL0     H14183   9.030  14.677  10.802 -0.8552  0.9297  0.9321
  103MOL0     H14184   8.794  14.762  10.843 -1.5800  0.0343 -1.2412
  103MOL0     H14185   8.800  14.829  10.673 -4.4977 -3.6360  0.1593
  103MOL0     H14186   9.001  14.885  10.883 -1.5064  2.6135  2.3526
  103MOL0     H14187   9.012  14.947  10.713 -0.1367  1.6567 -0.6666
  103MOL0     H14188   8.797  14.989  10.924  1.9675 -3.4102  0.0616
  103MOL0     H14189   8.776  15.033  10.751  1.6150  1.7900 -0.6934
  103MOL0     H14190   9.035  15.159  10.849  0.5021  2.1956  1.5769
  103MOL0     H14191   8.919  15.182  10.974  1.4557  0.8584 -1.0883
  103MOL0     H14192   8.790  15.304  10.839 -1.6821  1.8393 -2.5974
  103MOL0     H14193   8.856  15.219  10.682 -1.1231 -5.0869  2.0774
  103MOL0     H14194   9.156  14.289  10.537 -3.0463  2.1254  0.5615
  103MOL0     H14195   9.189  14.082  10.388 -1.4483 -1.2121 -1.1396
  103MOL0     H14196   8.902  13.661  10.318 -0.0293  2.2030 -0.7406
  103MOL0     H14197   8.871  13.427  10.258 -0.1028 -0.3317 -0.3752
  103MOL0     H14198   9.849  11.738   9.549 -0.1666 -0.5607 -0.1828
  103MOL0     H14199   9.783  11.599   9.374 -0.4858  0.9711  1.8541
  103MOL0     H14200   9.918  11.309   8.905 -0.3155  1.8092  3.0094
  103MOL0     H14201   9.866  11.310   8.654 -2.9790 -3.1651 -0.7363
  103MOL0     H14202   9.466  11.349   8.539 -0.8240  2.6748  3.7630
  103MOL0     H14203   9.469  11.521   8.523 -1.2508 -1.0755  1.6059
  103MOL0     H14204   9.512  11.338   8.288 -0.6694  1.0309 -2.1579
  103MOL0     H14205   9.643  11.438   8.319 -0.1645 -1.0910 -3.0800
  103MOL0     H14206   9.507  11.649   8.332 -2.3991  1.4520  0.5949
  103MOL0     H14207   9.555  11.578   8.184  0.6879  0.0868  0.9572
  103MOL0     H14208   9.331  11.491   8.123 -0.1313  0.9784 -0.6148
  103MOL0     H14209   9.319  11.661   8.175 -0.1705 -0.6922 -0.3460
  103MOL0     H14210   9.109  11.424   8.464  0.9007 -0.3091 -0.0570
  103MOL0     H14211   9.530  11.563   8.732  0.3698  1.6991  1.6682
  103MOL0     H14212   9.450  11.562   8.945  0.2195 -0.4264  0.1858
  103MOL0     H14213   9.563  11.554   9.086  0.0664 -2.7045 -0.5359
  103MOL0     H14214   9.552  11.695   8.973 -0.9199 -0.2620 -0.6085
  104MOL0     O14215   0.052   0.626   5.961 -0.5248 -0.4552  0.4955
  104MOL0     C14216   0.108   0.724   6.010  0.6181  0.5734 -1.1495
  104MOL0     O14217   0.046   0.808   6.094 -0.8911  0.3488 -0.7718
  104MOL0     C14218  -0.082   0.779   6.137  0.2036 -1.0533 -0.3289
  104MOL0     C14219  -0.104   0.682   6.235 -0.3708  0.6030  0.6674
  104MOL0     C14220  -0.236   0.651   6.262  0.2798 -0.5504  0.3914
  104MOL0     C14221  -0.343   0.710   6.188  0.1055  0.7007 -0.2536
  104MOL0     O14222  -0.468   0.660   6.197 -0.2268  0.1285  0.7913
  104MOL0     C14223  -0.489   0.519   6.170  0.7112 -0.3593  0.5801
  104MOL0     C14224  -0.643   0.485   6.179  0.0240  0.1762  0.1788
  104MOL0     C14225  -0.690   0.495   6.325 -1.3303 -0.3345  0.5054
  104MOL0     C14226  -0.734   0.353   6.357  0.1946 -0.2315 -0.5200
  104MOL0     C14227  -0.802   0.345   6.497 -0.3996 -1.0672  0.4149
  104MOL0     C14228  -0.908   0.447   6.531  0.1261 -0.6076  0.9258
  104MOL0     C14229  -1.013   0.445   6.434  0.5472  0.1199  0.0199
  104MOL0     C14230  -1.097   0.568   6.433  0.1624 -0.0139  0.3975
  104MOL0     N14231  -1.109   0.633   6.563 -0.0397 -0.8966  0.1401
  104MOL0     C14232  -1.159   0.590   6.679  0.6528  0.1195  0.0677
  104MOL0     C14233  -1.145   0.685   6.774  0.3131  0.4078 -0.4363
  104MOL0     C14234  -1.187   0.682   6.915 -0.1186 -0.0777  0.6824
  104MOL0     C14235  -1.323   0.750   6.942 -0.1989  0.2628 -0.4880
  104MOL0     C14236  -1.325   0.824   7.076  0.5011  0.3539 -0.1243
  104MOL0     C14237  -1.480   0.849   7.108 -0.7926  0.3246  0.3815
  104MOL0     O14238  -1.547   0.724   7.123  0.0294  0.0020 -0.9579
  104MOL0     C14239  -1.672   0.710   7.174 -0.7241  0.6699 -0.7934
  104MOL0     C14240  -1.749   0.584   7.163 -0.0775 -0.2535 -0.3011
  104MOL0     C14241  -1.872   0.565   7.224 -0.1263 -0.2274  0.5682
  104MOL0     C14242  -1.923   0.426   7.210 -0.8212  0.4999  0.0074
  104MOL0     C14243  -1.924   0.661   7.311 -0.3596  0.6279  1.1833
  104MOL0     C14244  -2.065   0.644   7.358  0.5723 -0.7410 -0.2842
  104MOL0     O14245  -2.150   0.577   7.272  0.1442  0.1584  0.5150
  104MOL0     C14246  -2.264   0.522   7.332  0.0619 -0.1820  0.3552
  104MOL0     C14247  -2.378   0.502   7.248 -0.0066 -0.2041 -0.7876
  104MOL0     C14248  -2.497   0.438   7.298 -0.0458 -0.2286 -0.5010
  104MOL0     C14249  -2.507   0.393   7.430  0.4466 -0.3236  0.0133
  104MOL0     O14250  -2.606   0.305   7.467  1.0140  0.2084  0.2061
  104MOL0     C14251  -2.736   0.351   7.432  0.1946  0.1956  0.6779
  104MOL0     C14252  -2.807   0.251   7.346  0.1696 -0.3000 -0.0409
  104MOL0     C14253  -2.839   0.116   7.414  0.0183  0.0273 -0.5056
  104MOL0     C14254  -2.964   0.125   7.498 -0.3013 -0.3336 -0.2898
  104MOL0     C14255  -3.002  -0.007   7.568  0.2610 -0.6026  0.3417
  104MOL0     C14256  -3.132   0.016   7.653  0.9589  0.7746  0.0886
  104MOL0     C14257  -3.084   0.076   7.784  0.2071 -0.5883 -0.1530
  104MOL0     C14258  -2.989  -0.004   7.864 -0.2393  0.4607 -0.6065
  104MOL0    Cl14259  -3.036  -0.173   7.859  0.1216 -0.2397 -0.2521
  104MOL0     C14260  -2.382   0.390   7.504  1.0151 -0.6656  0.0562
  104MOL0     C14261  -2.268   0.459   7.456  0.6958 -0.5595 -0.0863
  104MOL0     O14262  -2.099   0.705   7.453 -0.6536 -0.3451 -0.7324
  104MOL0     C14263  -1.858   0.783   7.317  0.0933  0.4129 -0.3583
  104MOL0     C14264  -1.733   0.808   7.258  0.0542 -1.4571  0.0870
  104MOL0     N14265  -1.088   0.795   6.718  0.2011  0.1914  0.7223
  104MOL0     N14266  -1.067   0.761   6.602 -0.5890  0.4712  0.2405
  104MOL0     C14267  -0.318   0.811   6.095 -0.0180  0.0549 -0.5729
  104MOL0     C14268  -0.187   0.851   6.074 -0.6249 -0.1705 -0.6396
  104MOL0     C14269   0.252   0.741   5.993  0.8588  0.6593  0.2336
  104MOL0     C14270   0.311   0.862   6.037 -0.6617 -0.4055 -0.4941
  104MOL0     C14271   0.451   0.878   6.029  0.1448 -0.9011 -0.3925
  104MOL0     C14272   0.536   0.784   5.983 -0.0066 -0.1026  0.2424
  104MOL0     O14273   0.669   0.801   5.971 -0.4111 -0.2234 -0.1267
  104MOL0     C14274   0.742   0.906   6.047 -0.1137  0.7984  0.3433
  104MOL0     C14275   0.770   0.864   6.189  0.3029  0.7792  0.0356
  104MOL0     C14276   0.900   0.923   6.222 -0.3991 -0.1109 -1.0346
  104MOL0     C14277   0.932   0.895   6.371 -0.0712 -0.0700  0.2761
  104MOL0     C14278   1.073   0.932   6.377  0.4720  0.1863 -0.5157
  104MOL0     C14279   1.190   0.949   6.387 -0.0422  0.1054 -0.4679
  104MOL0     C14280   0.479   0.673   5.926 -0.3735 -0.1584  0.4723
  104MOL0     C14281   0.342   0.649   5.931  0.3547 -1.0202  0.2479
  104MOL0     C14282   0.296   0.518   5.873 -0.6945  0.3483 -0.1704
  104MOL0     H14283  -0.024   0.621   6.275 -0.6836 -1.0933 -1.1622
  104MOL0     H14284  -0.249   0.578   6.341  1.3287 -0.6276  0.5116
  104MOL0     H14285  -0.447   0.456   6.248 -0.1268 -1.6330  0.0469
  104MOL0     H14286  -0.449   0.498   6.070 -1.9632  0.1727 -0.7199
  104MOL0     H14287  -0.705   0.554   6.120  2.1574  0.1207 -2.3326
  104MOL0     H14288  -0.666   0.390   6.131  1.7016 -0.1059 -0.1117
  104MOL0     H14289  -0.614   0.543   6.388 -2.0363  1.5070  0.0301
  104MOL0     H14290  -0.781   0.555   6.329 -0.3160  1.3858 -0.7120
  104MOL0     H14291  -0.803   0.318   6.279  0.4085 -0.1706 -0.7361
  104MOL0     H14292  -0.646   0.289   6.355  0.3995  0.0650 -1.6697
  104MOL0     H14293  -0.735   0.355   6.583 -1.5318  3.1273  1.0368
  104MOL0     H14294  -0.843   0.244   6.500 -0.5837 -0.9901  0.6309
  104MOL0     H14295  -0.943   0.419   6.631  2.1076 -2.6964  1.1167
  104MOL0     H14296  -0.869   0.549   6.525 -0.3835 -0.4827 -0.6595
  104MOL0     H14297  -1.089   0.372   6.465 -0.4324  2.8861  5.3592
  104MOL0     H14298  -0.975   0.414   6.336  0.6961 -1.0785  0.4365
  104MOL0     H14299  -1.066   0.632   6.351  2.1365 -0.5046  0.7068
  104MOL0     H14300  -1.196   0.543   6.392  0.9041  2.9241 -3.8038
  104MOL0     H14301  -1.203   0.493   6.697  2.6704 -0.8857 -0.1770
  104MOL0     H14302  -1.108   0.718   6.982  1.0381 -1.2554  0.0039
  104MOL0     H14303  -1.201   0.581   6.952 -1.6148 -0.0784  0.1643
  104MOL0     H14304  -1.360   0.808   6.858  0.7095 -1.1369 -1.9077
  104MOL0     H14305  -1.400   0.673   6.943 -0.7322  0.7404 -2.1288
  104MOL0     H14306  -1.297   0.759   7.160  0.5056 -1.9036 -1.7781
  104MOL0     H14307  -1.271   0.919   7.075  2.4192 -0.7046 -0.9047
  104MOL0     H14308  -1.488   0.914   7.196 -3.1924  1.1109 -0.3627
  104MOL0     H14309  -1.529   0.897   7.023 -0.5962  3.2232  1.7603
  104MOL0     H14310  -1.690   0.509   7.113  0.1451  0.9528 -1.9247
  104MOL0     H14311  -1.984   0.424   7.119  0.9199  0.5355 -1.2238
  104MOL0     H14312  -1.980   0.394   7.297  0.9886 -2.9367  0.1076
  104MOL0     H14313  -1.844   0.353   7.190 -0.8353  0.0242  1.6045
  104MOL0     H14314  -2.368   0.530   7.143  2.7702 -0.4163 -0.6582
  104MOL0     H14315  -2.585   0.407   7.243  0.8769 -0.6502 -1.7722
  104MOL0     H14316  -2.783   0.372   7.529  1.6519 -2.0029  1.9553
  104MOL0     H14317  -2.740   0.441   7.371 -1.4399 -0.9895 -1.0781
  104MOL0     H14318  -2.899   0.296   7.307  1.3253  0.3188 -2.2268
  104MOL0     H14319  -2.748   0.223   7.258 -0.3193  2.0782 -1.2114
  104MOL0     H14320  -2.758   0.081   7.478 -1.5079  0.9179  2.0696
  104MOL0     H14321  -2.864   0.038   7.341 -0.4064 -0.2236 -0.0994
  104MOL0     H14322  -3.053   0.156   7.442  1.0362 -3.0270 -4.3174
  104MOL0     H14323  -2.923   0.194   7.572  0.2988 -0.3041 -0.6467
  104MOL0     H14324  -3.025  -0.079   7.489 -2.0118 -3.0727  3.0150
  104MOL0     H14325  -2.916  -0.051   7.618  0.5684  0.6322  0.9624
  104MOL0     H14326  -3.189  -0.076   7.667  0.4102  0.6151 -2.6441
  104MOL0     H14327  -3.193   0.094   7.607 -1.5450  0.3127  2.3868
  104MOL0     H14328  -3.176   0.102   7.836 -0.6634 -1.2792 -1.2940
  104MOL0     H14329  -3.031   0.168   7.760  0.9326 -0.8476  0.4310
  104MOL0     H14330  -2.988   0.023   7.970  1.0223 -1.7780  0.0395
  104MOL0     H14331  -2.887  -0.011   7.824  1.4449  2.7159  2.7401
  104MOL0     H14332  -2.364   0.345   7.601  0.5739 -1.2531 -0.1284
  104MOL0     H14333  -2.176   0.440   7.510  1.1214 -2.6741 -1.4405
  104MOL0     H14334  -1.907   0.860   7.376 -2.2774  0.7232 -2.5429
  104MOL0     H14335  -1.681   0.899   7.285  2.7260 -2.6531 -0.6722
  104MOL0     H14336  -0.407   0.849   6.045 -0.7849  0.9919  1.4216
  104MOL0     H14337  -0.183   0.935   6.005 -0.3284  1.7548  1.5924
  104MOL0     H14338   0.248   0.945   6.069  0.4693  2.0030 -3.8966
  104MOL0     H14339   0.488   0.975   6.061 -0.8294 -0.2584 -1.1792
  104MOL0     H14340   0.829   0.923   5.983 -1.3484 -2.5270 -2.5653
  104MOL0     H14341   0.685   1.000   6.039 -1.2588 -0.0480 -3.4502
  104MOL0     H14342   0.767   0.755   6.203  1.7060  0.7884  0.5268
  104MOL0     H14343   0.686   0.909   6.243 -2.2757 -0.1540 -2.8455
  104MOL0     H14344   0.979   0.880   6.161 -1.0060 -4.4311  0.8613
  104MOL0     H14345   0.901   1.032   6.213 -2.4235 -0.1744 -2.8976
  104MOL0     H14346   0.919   0.791   6.401  1.1030 -0.4273 -0.3816
  104MOL0     H14347   0.883   0.960   6.445  0.4259  0.3499  0.2464
  104MOL0     H14348   1.296   0.966   6.388 -0.3709  2.8629  1.9244
  104MOL0     H14349   0.539   0.608   5.863  1.1318  1.0839  0.5479
  104MOL0     H14350   0.385   0.465   5.837 -0.2375  1.3848 -0.5912
  104MOL0     H14351   0.243   0.450   5.940 -0.3947 -1.2717 -1.5027
  104MOL0     H14352   0.225   0.525   5.790 -2.3117 -1.8597  0.8929
  105MOL0     O14353   6.872   6.172  11.534  0.3100 -0.2220 -0.1055
  105MOL0     C14354   6.890   6.069  11.470 -0.0330 -0.1851  0.3117
  105MOL0     O14355   6.987   6.050  11.368  0.8925 -0.1176 -0.0332
  105MOL0     C14356   7.050   6.164  11.314  0.0652  0.5772 -0.6127
  105MOL0     C14357   7.187   6.145  11.272 -1.6135 -0.3144 -1.0296
  105MOL0     C14358   7.257   6.257  11.235  0.5275 -0.4459 -0.2434
  105MOL0     C14359   7.200   6.391  11.220 -0.8813  0.7872  0.2192
  105MOL0     O14360   7.300   6.474  11.179  0.6832  0.2294 -0.0281
  105MOL0     C14361   7.266   6.613  11.189  0.5618 -1.5426 -0.2588
  105MOL0     C14362   7.383   6.710  11.206  1.2389 -0.5552 -0.4837
  105MOL0     C14363   7.333   6.854  11.229  0.9160 -0.0517 -0.2518
  105MOL0     C14364   7.457   6.950  11.245  0.1787  0.1914  0.2972
  105MOL0     C14365   7.421   7.095  11.250 -0.5599  0.3144  0.4978
  105MOL0     C14366   7.377   7.158  11.110  0.1534 -0.4913 -0.0419
  105MOL0     C14367   7.327   7.299  11.125  0.2158  0.3606 -0.5519
  105MOL0     C14368   7.176   7.307  11.172 -0.1309 -0.6753 -0.2789
  105MOL0     N14369   7.076   7.273  11.079  0.4387  0.1258  1.0497
  105MOL0     C14370   6.975   7.187  11.087  0.4100  0.0238 -0.7173
  105MOL0     C14371   6.905   7.195  10.971  1.0874 -0.7172 -0.3351
  105MOL0     C14372   6.787   7.124  10.910 -0.1639 -0.9099 -0.4432
  105MOL0     C14373   6.665   7.160  10.991 -0.1218  0.3881 -0.0209
  105MOL0     C14374   6.545   7.075  10.943 -0.1460 -0.2113  0.1729
  105MOL0     C14375   6.497   7.093  10.797  0.7206  0.1440  0.3946
  105MOL0     O14376   6.380   7.012  10.789 -0.8609  0.2703  0.5382
  105MOL0     C14377   6.344   6.988  10.660 -0.0670  0.7308 -0.4397
  105MOL0     C14378   6.377   6.865  10.606  0.7229  0.1210 -0.2359
  105MOL0     C14379   6.311   6.824  10.490  0.0004  0.5466 -0.2359
  105MOL0     C14380   6.358   6.682  10.439 -0.2348  0.3057 -0.0686
  105MOL0     C14381   6.220   6.907  10.421  0.4043  0.2346 -0.2117
  105MOL0     C14382   6.136   6.860  10.304 -0.3092 -1.4224  0.1891
  105MOL0     O14383   6.130   6.940  10.203 -0.8803  0.5474 -0.2611
  105MOL0     C14384   6.074   6.908  10.081  0.3438  0.6873  0.1079
  105MOL0     C14385   6.154   6.858   9.974 -0.1447  0.2801 -0.2045
  105MOL0     C14386   6.100   6.857   9.851  0.7322 -0.3712  0.6355
  105MOL0     C14387   5.961   6.877   9.832 -0.5761 -0.2332 -0.5720
  105MOL0     O14388   5.895   6.866   9.707  0.0839 -0.0283 -0.5613
  105MOL0     C14389   5.962   6.793   9.597  0.3193 -0.8052  0.3483
  105MOL0     C14390   5.875   6.798   9.479 -1.0286  0.3579 -0.1320
  105MOL0     C14391   5.736   6.747   9.507 -0.1831  0.2351  0.2484
  105MOL0     C14392   5.660   6.706   9.372  0.5369 -0.0535 -1.1747
  105MOL0     C14393   5.512   6.667   9.395  0.7589  0.1612  0.2587
  105MOL0     C14394   5.502   6.519   9.434 -0.8741 -1.1379  0.0635
  105MOL0     C14395   5.351   6.476   9.435 -0.2188  0.4764 -0.2228
  105MOL0     C14396   5.325   6.326   9.481  0.3162  0.5203  0.0508
  105MOL0    Cl14397   5.404   6.185   9.397 -0.5001 -0.0812  0.0654
  105MOL0     C14398   5.878   6.927   9.938 -0.2400 -0.1590  0.9795
  105MOL0     C14399   5.944   6.949  10.056  0.6869 -1.3371  0.1888
  105MOL0     O14400   6.106   6.746  10.304 -0.8332  0.2742 -0.4208
  105MOL0     C14401   6.200   7.035  10.480 -0.4781  0.0626 -0.5370
  105MOL0     C14402   6.249   7.068  10.604  0.2938 -0.8563 -0.5133
  105MOL0     N14403   6.955   7.294  10.901  0.1320  0.0556  0.6404
  105MOL0     N14404   7.057   7.335  10.954  0.6158  0.7330 -0.4018
  105MOL0     C14405   7.064   6.405  11.243 -0.5266  0.3860  0.3642
  105MOL0     C14406   7.002   6.294  11.309  1.0263 -0.4173  0.2843
  105MOL0     C14407   6.814   5.943  11.497 -0.1522 -0.7087  0.4871
  105MOL0     C14408   6.869   5.819  11.448  0.6409  0.9327  0.7065
  105MOL0     C14409   6.793   5.698  11.464 -0.1059  0.6843  0.9821
  105MOL0     C14410   6.666   5.703  11.509  0.4066  0.0312  0.6272
  105MOL0     O14411   6.598   5.587  11.494 -0.2090 -0.5242 -0.5969
  105MOL0     C14412   6.454   5.587  11.464 -0.3324 -0.1446  0.1774
  105MOL0     C14413   6.401   5.446  11.469  0.3723 -0.0682 -0.1330
  105MOL0     C14414   6.277   5.429  11.558  0.5131 -0.8967 -0.3427
  105MOL0     C14415   6.226   5.289  11.576  0.3204 -0.3303 -0.2291
  105MOL0     C14416   6.113   5.278  11.478 -0.2640 -0.1894  0.3464
  105MOL0     C14417   6.025   5.265  11.394  0.0542 -1.4783 -0.7482
  105MOL0     C14418   6.609   5.821  11.558  0.6943  0.2177  0.1066
  105MOL0     C14419   6.687   5.940  11.562 -0.6862  0.4081 -0.6305
  105MOL0     C14420   6.621   6.070  11.610  0.2627 -0.5485 -0.6064
  105MOL0     H14421   7.253   6.059  11.280 -0.3974  0.7007  0.3547
  105MOL0     H14422   7.364   6.250  11.218  1.1104  2.8183  1.4016
  105MOL0     H14423   7.195   6.629  11.271  0.6375  0.4328 -0.5406
  105MOL0     H14424   7.212   6.653  11.103  2.6432  1.7504 -0.1763
  105MOL0     H14425   7.437   6.675  11.295  1.5458  0.3982 -0.2869
  105MOL0     H14426   7.444   6.688  11.117 -1.5643 -3.0014 -1.9715
  105MOL0     H14427   7.275   6.878  11.139 -1.6993 -1.0901  1.0674
  105MOL0     H14428   7.271   6.856  11.319 -0.8637 -0.5357 -1.4108
  105MOL0     H14429   7.519   6.926  11.332  1.9125  0.2586 -0.8767
  105MOL0     H14430   7.526   6.926  11.163  1.2614 -1.2656  1.5681
  105MOL0     H14431   7.503   7.157  11.287  0.7678 -0.3566 -1.1969
  105MOL0     H14432   7.342   7.116  11.323  1.9095 -1.2390  3.8385
  105MOL0     H14433   7.458   7.163  11.036 -2.9066  1.6671 -3.6641
  105MOL0     H14434   7.296   7.094  11.074 -0.6498  0.4273  0.0800
  105MOL0     H14435   7.338   7.357  11.032  1.4099 -3.8105 -3.2984
  105MOL0     H14436   7.388   7.355  11.196  0.2995 -0.3756 -0.0325
  105MOL0     H14437   7.156   7.248  11.262  0.6040 -1.0461 -0.3524
  105MOL0     H14438   7.155   7.412  11.193 -0.3880 -0.3901 -1.8741
  105MOL0     H14439   6.958   7.121  11.171  1.3016 -1.3201 -1.5525
  105MOL0     H14440   6.786   7.014  10.912 -2.7241 -0.9494 -0.3790
  105MOL0     H14441   6.766   7.158  10.809 -1.1996 -1.0948 -0.2995
  105MOL0     H14442   6.696   7.146  11.095 -1.0390 -1.5124  0.0255
  105MOL0     H14443   6.645   7.267  10.980  1.4349  0.6449 -0.5979
  105MOL0     H14444   6.581   6.973  10.958  1.6447  0.5123  1.0041
  105MOL0     H14445   6.462   7.078  11.014 -0.5511 -0.2947 -0.2931
  105MOL0     H14446   6.475   7.200  10.787  1.0158  0.3961  2.1048
  105MOL0     H14447   6.562   7.075  10.711 -2.9422  0.2854 -2.6857
  105MOL0     H14448   6.452   6.802  10.653  2.4329  0.1375 -2.7520
  105MOL0     H14449   6.438   6.645  10.503  1.7160  1.1586 -1.8983
  105MOL0     H14450   6.403   6.678  10.339  0.0675  0.4902  0.0588
  105MOL0     H14451   6.266   6.624  10.454  0.4650 -0.8310 -0.0909
  105MOL0     H14452   6.261   6.845   9.989 -0.5902 -2.0060  1.6210
  105MOL0     H14453   6.169   6.830   9.772  2.3552  0.9099  1.5585
  105MOL0     H14454   6.059   6.838   9.573  0.2947  0.3705  2.1954
  105MOL0     H14455   5.978   6.691   9.635  0.9892 -0.2780  1.5537
  105MOL0     H14456   5.869   6.902   9.445  2.5768  0.8616  0.3614
  105MOL0     H14457   5.924   6.736   9.404 -0.8545 -0.8759  0.9650
  105MOL0     H14458   5.670   6.820   9.555 -1.3186 -0.4489 -0.2309
  105MOL0     H14459   5.731   6.656   9.567 -0.5448  1.2445  1.8196
  105MOL0     H14460   5.715   6.642   9.302  4.3696  1.3987  0.2272
  105MOL0     H14461   5.654   6.796   9.310  0.7296 -1.4004 -3.2718
  105MOL0     H14462   5.469   6.716   9.482 -0.7071  2.6217 -1.7013
  105MOL0     H14463   5.460   6.687   9.300  3.2542 -1.4058 -1.5632
  105MOL0     H14464   5.557   6.510   9.529  1.4781  3.0976 -0.6090
  105MOL0     H14465   5.547   6.460   9.354 -1.1962 -0.4025 -0.6775
  105MOL0     H14466   5.324   6.506   9.334  5.1307 -2.5366 -2.9946
  105MOL0     H14467   5.303   6.539   9.511  1.2456  0.2782  0.9080
  105MOL0     H14468   5.218   6.303   9.486  0.8599 -2.0989  1.2196
  105MOL0     H14469   5.355   6.329   9.586 -5.7306 -0.2169  2.1772
  105MOL0     H14470   5.776   6.956   9.915 -0.2439 -2.1117 -1.9530
  105MOL0     H14471   5.894   6.995  10.141 -0.2551 -0.6940 -0.6798
  105MOL0     H14472   6.137   7.117  10.446  0.4434  2.3484  2.7970
  105MOL0     H14473   6.218   7.162  10.649  1.0335 -1.2590  0.8968
  105MOL0     H14474   7.013   6.498  11.220  1.8990  2.2746  2.1146
  105MOL0     H14475   6.895   6.306  11.327  1.1685  0.0877  0.8309
  105MOL0     H14476   6.975   5.816  11.426  0.4893 -3.7308 -0.3811
  105MOL0     H14477   6.838   5.605  11.430 -0.0814  0.8588  0.5266
  105MOL0     H14478   6.397   5.652  11.530 -0.0484  0.6586 -0.3452
  105MOL0     H14479   6.447   5.626  11.362 -2.1237  1.3905  0.8408
  105MOL0     H14480   6.480   5.376  11.498  3.7038  2.5719 -2.0978
  105MOL0     H14481   6.367   5.420  11.368 -2.9421  1.4713  0.4600
  105MOL0     H14482   6.293   5.471  11.658  1.8536 -1.5823 -0.2410
  105MOL0     H14483   6.200   5.494  11.517  1.0748  1.0592  1.5177
  105MOL0     H14484   6.186   5.282  11.677  3.2653  1.0814  1.1638
  105MOL0     H14485   6.307   5.215  11.576  0.9124  0.3071  0.6824
  105MOL0     H14486   5.950   5.274  11.318  0.6609  1.5736 -1.1374
  105MOL0     H14487   6.502   5.822  11.573  0.4168 -0.0591 -1.6977
  105MOL0     H14488   6.538   6.054  11.681  0.3109 -1.8367 -0.8263
  105MOL0     H14489   6.685   6.139  11.665 -0.0898  2.5675 -3.7335
  105MOL0     H14490   6.579   6.130  11.529  2.0291 -0.3621 -1.4036
  106MOL0     O14491  10.751   8.864  10.491  0.2753  0.1352  0.1161
  106MOL0     C14492  10.766   8.809  10.382  0.2305  0.6567  0.0462
  106MOL0     O14493  10.720   8.855  10.261  0.0759  0.3170 -0.1295
  106MOL0     C14494  10.670   8.981  10.262  1.0182  0.5736  0.0878
  106MOL0     C14495  10.736   9.084  10.200  0.1291  0.3648  0.4731
  106MOL0     C14496  10.675   9.207  10.202 -0.2197  0.4376 -0.2786
  106MOL0     C14497  10.552   9.240  10.267  0.4171  0.2912 -0.4577
  106MOL0     O14498  10.498   9.368  10.270  0.0266 -0.3155  0.3522
  106MOL0     C14499  10.441   9.400  10.145  0.1165 -0.5172 -0.4999
  106MOL0     C14500  10.378   9.545  10.148  0.9349 -0.3963 -0.2109
  106MOL0     C14501  10.469   9.667  10.178  0.0219 -0.0863 -0.0786
  106MOL0     C14502  10.556   9.697  10.052 -0.0352 -0.1553 -0.6764
  106MOL0     C14503  10.669   9.807  10.080  0.3035 -0.4849 -0.2008
  106MOL0     C14504  10.631   9.937  10.147 -0.2129  0.0414 -1.1326
  106MOL0     C14505  10.597  10.042  10.048  0.4876 -0.8297  0.4165
  106MOL0     C14506  10.527  10.157  10.120  1.4796 -0.2192  0.4274
  106MOL0     N14507  10.471  10.258  10.032 -0.6267  0.4557  0.3114
  106MOL0     C14508  10.517  10.286   9.912 -0.3561 -0.1593  0.3102
  106MOL0     C14509  10.457  10.396   9.866 -0.7185  0.3477 -0.1318
  106MOL0     C14510  10.482  10.464   9.735 -0.1481  0.8796  0.4516
  106MOL0     C14511  10.365  10.441   9.648 -0.3531 -0.0049  0.1572
  106MOL0     C14512  10.396  10.503   9.512  1.1260 -0.7368  0.6203
  106MOL0     C14513  10.277  10.507   9.413  0.0446  0.1753 -0.9142
  106MOL0     O14514  10.318  10.589   9.298  1.0503 -0.2663  0.5432
  106MOL0     C14515  10.420  10.559   9.215 -0.9122  0.5377  1.0656
  106MOL0     C14516  10.425  10.427   9.154  0.5742  0.5814 -0.6278
  106MOL0     C14517  10.503  10.393   9.051 -0.6134 -0.0091  0.1369
  106MOL0     C14518  10.500  10.251   8.998 -0.1419  0.5806  0.0649
  106MOL0     C14519  10.586  10.500   9.000  0.8117  0.3445  0.1547
  106MOL0     C14520  10.689  10.475   8.899  0.3231 -0.4127 -0.2246
  106MOL0     O14521  10.731  10.351   8.886  0.2591  0.5000 -0.2332
  106MOL0     C14522  10.846  10.330   8.816 -0.4182 -0.2150 -0.4034
  106MOL0     C14523  10.857  10.218   8.736  0.6886  0.6334 -0.7305
  106MOL0     C14524  10.976  10.183   8.673 -0.9002 -0.0529 -0.8331
  106MOL0     C14525  11.084  10.269   8.688 -0.1216  0.0799  1.1513
  106MOL0     O14526  11.191  10.231   8.609 -0.3692 -0.2873 -0.3493
  106MOL0     C14527  11.309  10.306   8.636  0.5690  0.1371 -0.3514
  106MOL0     C14528  11.419  10.266   8.535 -0.9937  0.4336  0.0213
  106MOL0     C14529  11.493  10.144   8.586  0.1521  0.5360  0.0701
  106MOL0     C14530  11.409  10.038   8.648 -1.0347  0.9193 -0.8281
  106MOL0     C14531  11.463   9.893   8.653 -0.0340 -0.1393 -0.1182
  106MOL0     C14532  11.584   9.864   8.755 -0.5803 -0.5007  0.4033
  106MOL0     C14533  11.536   9.896   8.901 -0.1328 -0.2720 -0.8152
  106MOL0     C14534  11.637   9.838   9.005 -0.4249  0.1581 -0.0451
  106MOL0    Cl14535  11.801   9.888   8.988  0.1528 -0.3687 -0.0558
  106MOL0     C14536  11.080  10.377   8.770  0.0873  0.3905 -0.5919
  106MOL0     C14537  10.964  10.411   8.836  0.6105  0.2752  0.0098
  106MOL0     O14538  10.735  10.574   8.845  0.0849 -0.1855 -0.1511
  106MOL0     C14539  10.585  10.628   9.055  0.0431  0.0829 -0.5022
  106MOL0     C14540  10.502  10.662   9.161  1.4066 -0.8535 -0.4325
  106MOL0     N14541  10.388  10.445   9.971  0.1395  0.8710  0.5457
  106MOL0     N14542  10.397  10.365  10.071  0.0612 -0.7379 -1.3779
  106MOL0     C14543  10.482   9.133  10.313 -0.2213 -1.4552  0.4193
  106MOL0     C14544  10.542   9.004  10.310  0.5346  0.7195  0.7057
  106MOL0     C14545  10.847   8.681  10.391  0.1526  0.7415 -0.4599
  106MOL0     C14546  10.938   8.663  10.501  0.9604 -0.2629 -0.6616
  106MOL0     C14547  11.025   8.557  10.513 -0.0552 -0.0087  0.5764
  106MOL0     C14548  11.045   8.469  10.407  0.0854  0.2631  0.0759
  106MOL0     O14549  11.143   8.378  10.429 -0.2788  0.3854 -0.4214
  106MOL0     C14550  11.164   8.266  10.348 -0.6082  0.7626  0.0328
  106MOL0     C14551  11.049   8.166  10.373  0.4487 -0.1441  0.3151
  106MOL0     C14552  11.015   8.118  10.516 -0.9097 -0.2155 -0.0988
  106MOL0     C14553  10.950   7.980  10.516 -0.7506  0.0661 -0.3394
  106MOL0     C14554  10.907   7.958  10.658  0.1909  0.3230  0.0889
  106MOL0     C14555  10.865   7.935  10.765 -0.5277 -0.5728  0.2654
  106MOL0     C14556  10.961   8.479  10.290 -0.8386  0.1168 -0.0991
  106MOL0     C14557  10.868   8.587  10.279  0.5273  0.5219  0.6702
  106MOL0     C14558  10.787   8.589  10.150 -0.4546 -0.7844  0.1222
  106MOL0     H14559  10.830   9.072  10.147 -0.5710  1.0406 -0.9956
  106MOL0     H14560  10.716   9.291  10.147 -1.4252  0.8134 -0.6309
  106MOL0     H14561  10.366   9.329  10.110  1.5461 -2.1888 -0.2730
  106MOL0     H14562  10.517   9.405  10.066 -3.2501 -0.8602 -4.0716
  106MOL0     H14563  10.328   9.570  10.055  0.0450  0.7489  0.5512
  106MOL0     H14564  10.299   9.547  10.224  0.5500  0.0686 -0.6211
  106MOL0     H14565  10.408   9.757  10.189  0.3150  0.5006 -2.7197
  106MOL0     H14566  10.531   9.645  10.266 -0.6914 -3.8629 -0.3511
  106MOL0     H14567  10.593   9.607  10.002 -1.0388 -0.6069 -0.6329
  106MOL0     H14568  10.490   9.747   9.979 -0.7495  0.5621  0.4305
  106MOL0     H14569  10.723   9.832   9.988  2.8170 -0.4886  1.2044
  106MOL0     H14570  10.723   9.745  10.151 -1.3678 -1.2733  0.4423
  106MOL0     H14571  10.545   9.922  10.212  0.2668 -3.7049 -1.1576
  106MOL0     H14572  10.713   9.974  10.209 -0.4232  0.8058 -1.2988
  106MOL0     H14573  10.529   9.998   9.974  1.5987 -2.8678  0.5315
  106MOL0     H14574  10.685  10.061   9.987 -0.4438 -0.9958 -1.0344
  106MOL0     H14575  10.445  10.128  10.187  0.4890 -2.0744 -1.4599
  106MOL0     H14576  10.606  10.207  10.177  2.2192  0.5193 -1.1826
  106MOL0     H14577  10.595  10.233   9.859  0.2648  2.6735 -1.8861
  106MOL0     H14578  10.566  10.420   9.681 -1.9383 -1.2401 -0.7476
  106MOL0     H14579  10.507  10.567   9.763 -0.0779  0.5800  1.5630
  106MOL0     H14580  10.351  10.333   9.635 -1.6772  0.3773 -2.1724
  106MOL0     H14581  10.277  10.484   9.697  0.7760 -1.2494  3.5440
  106MOL0     H14582  10.422  10.608   9.525 -3.1358  0.3606  1.9438
  106MOL0     H14583  10.458  10.436   9.453 -2.1507 -1.6660 -2.0805
  106MOL0     H14584  10.252  10.403   9.392  0.3417 -0.1014  0.0469
  106MOL0     H14585  10.185  10.546   9.457  1.4315  0.6757  1.7261
  106MOL0     H14586  10.351  10.354   9.184  0.1330  1.1335 -0.3408
  106MOL0     H14587  10.475  10.245   8.891  0.3775  0.1081 -0.0399
  106MOL0     H14588  10.428  10.194   9.056  1.3070  0.6502  2.0338
  106MOL0     H14589  10.589  10.188   9.009  0.3332  1.4804  1.7694
  106MOL0     H14590  10.764  10.167   8.710  0.4227  0.4436  0.5417
  106MOL0     H14591  11.000  10.096   8.613  1.2540 -0.5113  0.5666
  106MOL0     H14592  11.299  10.414   8.623 -0.3027  0.1631  0.4089
  106MOL0     H14593  11.350  10.295   8.737 -1.3116  0.0624  0.4509
  106MOL0     H14594  11.363  10.247   8.443  1.4450 -0.2158 -1.4208
  106MOL0     H14595  11.488  10.340   8.494  1.8020 -2.7266 -1.4501
  106MOL0     H14596  11.564  10.161   8.668  0.7684  1.2859 -0.5904
  106MOL0     H14597  11.543  10.105   8.497  0.2167  0.1064  0.2948
  106MOL0     H14598  11.314  10.025   8.595 -0.0466 -1.1397 -2.2747
  106MOL0     H14599  11.389  10.048   8.755 -0.5645  0.2464 -0.6687
  106MOL0     H14600  11.380   9.823   8.662 -0.6851  0.5765 -0.4198
  106MOL0     H14601  11.503   9.873   8.553 -1.1042  0.7875 -0.7535
  106MOL0     H14602  11.666   9.931   8.727 -0.9923  1.0835  2.6959
  106MOL0     H14603  11.624   9.765   8.733  2.5831  0.8904 -0.5676
  106MOL0     H14604  11.445   9.837   8.915  0.0843 -0.0232  2.3390
  106MOL0     H14605  11.510  10.001   8.915 -3.7413 -1.0623 -0.8054
  106MOL0     H14606  11.642   9.730   8.988  3.0756  0.0228  0.9515
  106MOL0     H14607  11.603   9.854   9.108 -0.7034  0.7127 -0.2206
  106MOL0     H14608  11.158  10.452   8.778  1.5349 -0.7174 -3.0440
  106MOL0     H14609  10.963  10.496   8.903  1.4675 -1.5282  2.4240
  106MOL0     H14610  10.642  10.709   9.011  0.8515  0.1241  0.5669
  106MOL0     H14611  10.483  10.760   9.205  0.8585 -2.0305  2.1533
  106MOL0     H14612  10.384   9.151  10.356 -1.2196 -0.7036 -1.9836
  106MOL0     H14613  10.478   8.925  10.348  0.8541  1.1365  2.1482
  106MOL0     H14614  10.925   8.724  10.590  0.4165 -2.1280  0.6028
  106MOL0     H14615  11.070   8.549  10.611  3.2838 -3.5391 -0.9808
  106MOL0     H14616  11.155   8.304  10.247 -6.3472  0.6297  0.1588
  106MOL0     H14617  11.260   8.219  10.373 -1.4861 -1.4052 -0.3888
  106MOL0     H14618  11.070   8.081  10.307 -0.4610  0.7152 -1.1288
  106MOL0     H14619  10.960   8.203  10.321  0.9318  2.3809  1.1288
  106MOL0     H14620  11.113   8.112  10.564 -1.2972 -1.5822  0.5738
  106MOL0     H14621  10.947   8.192  10.560 -0.3653 -1.0605  2.3278
  106MOL0     H14622  11.013   7.897  10.482 -2.0893 -2.5009  2.8164
  106MOL0     H14623  10.863   7.980  10.450  0.3209 -0.4213 -1.7907
  106MOL0     H14624  10.819   7.932  10.862  1.6975 -1.5530  1.3684
  106MOL0     H14625  10.967   8.406  10.210 -1.7683 -0.4027  0.2854
  106MOL0     H14626  10.810   8.682  10.097 -0.4950 -1.9498 -2.0560
  106MOL0     H14627  10.818   8.506  10.085 -0.6226  0.7942 -2.0675
  106MOL0     H14628  10.679   8.595  10.163 -0.2122  1.9552  1.4214
  107MOL0     O14629   5.179   1.231   2.308  0.5281  0.3866  0.2842
  107MOL0     C14630   5.197   1.342   2.367  0.7226 -0.2737  1.0257
  107MOL0     O14631   5.191   1.461   2.301  0.6426  0.4628  0.7065
  107MOL0     C14632   5.184   1.442   2.165 -0.4290  0.3589 -0.3407
  107MOL0     C14633   5.293   1.477   2.081  0.6800 -0.3946 -0.6785
  107MOL0     C14634   5.283   1.479   1.942 -0.6283 -0.4747 -0.0352
  107MOL0     C14635   5.159   1.450   1.879  0.4926  0.2200 -0.2475
  107MOL0     O14636   5.133   1.439   1.750  0.2545  0.3165  0.7831
  107MOL0     C14637   5.153   1.550   1.659  0.1844 -0.1567  0.6440
  107MOL0     C14638   5.243   1.498   1.547  0.4539 -1.0793  0.0985
  107MOL0     C14639   5.158   1.451   1.419 -1.0585 -0.2182  0.5307
  107MOL0     C14640   5.106   1.578   1.340  0.2304 -0.3192 -0.6062
  107MOL0     C14641   5.057   1.549   1.196  0.2346  0.0360  0.9676
  107MOL0     C14642   5.175   1.579   1.101 -0.1773 -0.6532 -0.3786
  107MOL0     C14643   5.142   1.545   0.960 -0.6145 -0.2746 -0.0367
  107MOL0     C14644   5.225   1.421   0.919  0.2824  0.0950  0.2553
  107MOL0     N14645   5.169   1.294   0.959  0.6079  0.5177  1.0358
  107MOL0     C14646   5.128   1.193   0.873 -0.5811  0.8996  1.0609
  107MOL0     C14647   5.074   1.096   0.950 -0.0606 -0.7057 -0.3055
  107MOL0     C14648   5.010   0.965   0.915 -0.4135  0.4929  0.6246
  107MOL0     C14649   5.070   0.846   0.991 -0.8218 -0.2641  0.8856
  107MOL0     C14650   5.222   0.853   0.977 -0.3921 -0.8588  0.3606
  107MOL0     C14651   5.262   0.721   1.055  0.6717  0.5717  0.6384
  107MOL0     O14652   5.406   0.712   1.049  0.2398  0.7778  0.6248
  107MOL0     C14653   5.489   0.790   1.123 -0.0886 -0.3264  0.9810
  107MOL0     C14654   5.443   0.897   1.208 -0.7545  0.3282 -0.4992
  107MOL0     C14655   5.531   0.980   1.283 -0.3845 -0.4263  0.8041
  107MOL0     C14656   5.463   1.075   1.383 -0.1566  1.1351 -0.1584
  107MOL0     C14657   5.669   0.972   1.264  0.3982  0.1796  0.2637
  107MOL0     C14658   5.775   1.052   1.322 -0.1209  0.4139 -0.6824
  107MOL0     O14659   5.904   1.006   1.308 -0.4934 -0.5319 -0.7350
  107MOL0     C14660   6.024   1.061   1.362 -0.6864  0.9849 -0.1704
  107MOL0     C14661   6.034   1.183   1.425  0.4761  0.2653 -0.6564
  107MOL0     C14662   6.154   1.240   1.460  0.5207  0.0998 -0.5505
  107MOL0     C14663   6.272   1.163   1.446  0.1516 -1.0541 -0.1517
  107MOL0     O14664   6.376   1.217   1.514  0.1806  0.8983 -0.1615
  107MOL0     C14665   6.503   1.157   1.506 -0.7221 -0.1086  0.3970
  107MOL0     C14666   6.624   1.234   1.555 -1.0570  0.3506  0.3589
  107MOL0     C14667   6.619   1.387   1.535  0.3603 -0.3802 -0.5868
  107MOL0     C14668   6.676   1.422   1.397  0.5998 -0.8897 -0.0401
  107MOL0     C14669   6.675   1.570   1.375 -0.2940 -1.1907 -1.0838
  107MOL0     C14670   6.531   1.626   1.361 -0.4816  0.1570  0.1679
  107MOL0     C14671   6.542   1.779   1.315 -0.3387 -1.1837 -0.4838
  107MOL0     C14672   6.398   1.845   1.286 -1.0195  0.5922 -0.6223
  107MOL0    Cl14673   6.339   1.793   1.126  0.2146 -0.1203 -0.1390
  107MOL0     C14674   6.267   1.030   1.400  0.5201 -0.3669 -0.6054
  107MOL0     C14675   6.144   0.987   1.347  0.7833 -0.0991 -0.0175
  107MOL0     O14676   5.742   1.148   1.387 -0.2560  0.3659 -0.4217
  107MOL0     C14677   5.712   0.866   1.176  0.3129 -0.2314 -0.3067
  107MOL0     C14678   5.626   0.774   1.117 -0.4292  0.4319 -0.6497
  107MOL0     N14679   5.097   1.133   1.083 -0.9778 -0.2091 -0.0783
  107MOL0     N14680   5.150   1.249   1.091 -0.2612  0.4404  0.0073
  107MOL0     C14681   5.051   1.427   1.964  0.4438 -0.3324  0.7898
  107MOL0     C14682   5.067   1.421   2.100  0.8681  1.0199  0.1050
  107MOL0     C14683   5.192   1.348   2.521  0.4475 -0.4083  0.0657
  107MOL0     C14684   5.180   1.475   2.577 -0.4748  0.5511  1.1367
  107MOL0     C14685   5.170   1.481   2.718 -0.1909  1.2703 -0.3101
  107MOL0     C14686   5.191   1.367   2.804  0.2024 -0.1590  0.9799
  107MOL0     O14687   5.209   1.375   2.937 -0.1076 -0.1941 -0.2167
  107MOL0     C14688   5.286   1.477   3.002 -0.0005  1.1866 -0.0503
  107MOL0     C14689   5.431   1.482   2.947 -0.8654  0.2160 -0.7916
  107MOL0     C14690   5.525   1.363   2.991 -1.3149 -0.3378 -0.7245
  107MOL0     C14691   5.582   1.361   3.140  0.1336 -0.1731  0.2312
  107MOL0     C14692   5.642   1.236   3.193  0.5075 -0.1830  0.1127
  107MOL0     C14693   5.697   1.139   3.246 -0.7567 -0.0437  0.0339
  107MOL0     C14694   5.212   1.250   2.744  0.5967 -0.6246  0.1294
  107MOL0     C14695   5.205   1.237   2.600  0.0227 -0.5531 -0.3869
  107MOL0     C14696   5.236   1.094   2.551 -1.1680  0.0576 -0.4153
  107MOL0     H14697   5.385   1.508   2.131  0.1295  1.9264 -0.9825
  107MOL0     H14698   5.368   1.486   1.875 -1.1575  0.5852 -0.6208
  107MOL0     H14699   5.185   1.646   1.701 -1.5475  1.1228 -0.7799
  107MOL0     H14700   5.053   1.572   1.620  0.1643 -3.6782 -1.7704
  107MOL0     H14701   5.310   1.574   1.507 -0.4583 -1.4546 -2.2944
  107MOL0     H14702   5.304   1.414   1.583  2.9561  1.0373  1.0992
  107MOL0     H14703   5.216   1.398   1.343  0.1751  0.0554  1.2554
  107MOL0     H14704   5.084   1.375   1.442  0.5119 -1.7312  0.8047
  107MOL0     H14705   5.020   1.610   1.400 -0.9562  0.8910 -2.8517
  107MOL0     H14706   5.176   1.660   1.359 -1.7507  0.6963  3.3250
  107MOL0     H14707   4.969   1.612   1.187  1.5107  1.7722  0.0236
  107MOL0     H14708   5.027   1.445   1.179 -0.0169  0.1818  0.5093
  107MOL0     H14709   5.195   1.687   1.100 -2.4154 -0.1904 -0.1696
  107MOL0     H14710   5.263   1.528   1.142 -1.1641  0.1907  3.1911
  107MOL0     H14711   5.168   1.629   0.895  0.5089 -0.9081 -0.4287
  107MOL0     H14712   5.035   1.526   0.953 -1.1505  2.7177 -3.3004
  107MOL0     H14713   5.224   1.422   0.809 -2.0614  1.7541  0.2126
  107MOL0     H14714   5.330   1.424   0.950  0.3878 -1.2706  0.0693
  107MOL0     H14715   5.130   1.176   0.765  2.3859 -0.1658  1.2001
  107MOL0     H14716   5.018   0.945   0.808  1.0850  3.2411  0.1446
  107MOL0     H14717   4.902   0.960   0.929 -0.3379 -0.3474  1.0358
  107MOL0     H14718   5.041   0.866   1.094 -1.9840 -2.3909  1.0380
  107MOL0     H14719   5.017   0.756   0.956 -0.1021 -0.8074  1.1656
  107MOL0     H14720   5.249   0.836   0.872 -1.2580  2.3531 -0.4659
  107MOL0     H14721   5.265   0.944   1.019 -2.5368  2.6493 -4.2695
  107MOL0     H14722   5.222   0.729   1.156 -1.3565  0.0558 -0.0620
  107MOL0     H14723   5.213   0.642   0.996 -0.5200  1.4698  0.3649
  107MOL0     H14724   5.338   0.910   1.229  0.0731  3.6570  2.5093
  107MOL0     H14725   5.354   1.071   1.369 -0.2542 -0.2030  0.7269
  107MOL0     H14726   5.497   1.176   1.359 -0.9412  1.5678  0.4945
  107MOL0     H14727   5.485   1.049   1.487  3.9259  0.2070 -1.0894
  107MOL0     H14728   5.939   1.231   1.444 -0.8522 -3.6029  5.8661
  107MOL0     H14729   6.142   1.342   1.497 -4.7690  0.8938 -3.4409
  107MOL0     H14730   6.498   1.059   1.555 -0.8283 -1.0700 -1.4693
  107MOL0     H14731   6.525   1.139   1.401  2.1794  0.6981  0.7749
  107MOL0     H14732   6.633   1.224   1.664  1.6861  1.8114  0.3623
  107MOL0     H14733   6.714   1.197   1.506  0.3879  3.8710  0.0756
  107MOL0     H14734   6.676   1.437   1.614 -2.2632  0.8598  0.6248
  107MOL0     H14735   6.517   1.414   1.562  0.0308 -3.2613  1.5515
  107MOL0     H14736   6.614   1.376   1.320 -0.4703  0.6726 -0.1629
  107MOL0     H14737   6.778   1.383   1.390  0.2641 -2.9061  3.5486
  107MOL0     H14738   6.742   1.615   1.449 -3.3563  1.9843  0.0492
  107MOL0     H14739   6.724   1.594   1.280  0.6699 -3.1056 -1.1247
  107MOL0     H14740   6.484   1.622   1.459 -0.3797  0.4173  0.2282
  107MOL0     H14741   6.464   1.582   1.286 -0.6980  0.2210  0.3240
  107MOL0     H14742   6.589   1.795   1.218  0.2803  4.3463  0.3985
  107MOL0     H14743   6.588   1.842   1.392  0.5428 -0.7675 -1.3325
  107MOL0     H14744   6.396   1.954   1.296 -4.0039  0.4864  1.2859
  107MOL0     H14745   6.319   1.828   1.360 -1.1412 -0.3712 -0.9715
  107MOL0     H14746   6.352   0.964   1.395 -1.2805 -2.7025 -3.1279
  107MOL0     H14747   6.126   0.903   1.281 -1.6836  2.6670 -3.1916
  107MOL0     H14748   5.815   0.849   1.146  1.5647 -0.3788  3.4892
  107MOL0     H14749   5.669   0.701   1.049 -2.1314 -0.3162 -0.9732
  107MOL0     H14750   4.957   1.402   1.915  0.3290  3.1243 -1.0792
  107MOL0     H14751   4.989   1.393   2.170  1.6167 -0.5446  0.3623
  107MOL0     H14752   5.184   1.562   2.513  4.9577 -0.5745 -0.5997
  107MOL0     H14753   5.165   1.578   2.765  1.3919  0.9071  0.6593
  107MOL0     H14754   5.237   1.575   3.011  2.2135  2.3098  0.6049
  107MOL0     H14755   5.288   1.444   3.107 -0.3224  2.1483  0.2746
  107MOL0     H14756   5.481   1.576   2.972  0.7341 -0.2708 -2.0122
  107MOL0     H14757   5.438   1.474   2.838  1.5006 -1.7044 -0.5652
  107MOL0     H14758   5.458   1.276   2.990 -1.2118 -0.4252 -0.2116
  107MOL0     H14759   5.607   1.347   2.920 -0.5614 -1.2378  0.3163
  107MOL0     H14760   5.498   1.390   3.204 -0.3783  2.2576 -1.3975
  107MOL0     H14761   5.661   1.434   3.157  1.6496 -1.2079 -1.8973
  107MOL0     H14762   5.746   1.047   3.272  0.0080  0.6661  1.1954
  107MOL0     H14763   5.234   1.163   2.803  1.4512 -0.8842 -0.5575
  107MOL0     H14764   5.292   1.031   2.621  1.1596  0.2642 -2.0077
  107MOL0     H14765   5.145   1.034   2.534 -0.4570 -0.4240 -2.8925
  107MOL0     H14766   5.309   1.091   2.470 -0.1507 -2.3614  0.5052
  108MOL0     O14767   6.196   8.774   6.773  0.0449 -0.5234  0.3672
  108MOL0     C14768   6.145   8.664   6.744 -0.0952 -0.5941 -1.0347
  108MOL0     O14769   6.089   8.626   6.624 -0.1075  0.0049  0.0925
  108MOL0     C14770   6.123   8.693   6.509 -0.2877  0.2051  1.0143
  108MOL0     C14771   6.108   8.826   6.490  0.3951  0.4013  0.6500
  108MOL0     C14772   6.128   8.889   6.364  1.2351 -0.3412  0.5736
  108MOL0     C14773   6.168   8.815   6.253  0.3533  1.2002 -0.8363
  108MOL0     O14774   6.175   8.876   6.127 -0.3528 -0.7820  0.0373
  108MOL0     C14775   6.127   8.811   6.009  1.0078  0.4081  0.5823
  108MOL0     C14776   5.989   8.863   5.963 -0.5180  0.5962 -0.0518
  108MOL0     C14777   6.016   8.977   5.867  0.0397 -0.5282 -0.1041
  108MOL0     C14778   5.890   9.046   5.827  0.3446 -0.6489  0.5680
  108MOL0     C14779   5.835   9.006   5.687  0.1000  0.0695 -0.9063
  108MOL0     C14780   5.703   9.069   5.647  0.8865  0.0836 -0.0785
  108MOL0     C14781   5.655   9.016   5.514  0.3778  0.6903 -0.2467
  108MOL0     C14782   5.522   9.088   5.462 -1.1032  0.3327 -1.1321
  108MOL0     N14783   5.396   9.047   5.517  0.9492 -0.3485  0.0091
  108MOL0     C14784   5.325   8.929   5.487  1.1345 -0.4753  0.1394
  108MOL0     C14785   5.203   8.949   5.543  0.2490 -0.2614  1.1281
  108MOL0     C14786   5.085   8.865   5.505  0.6483 -0.2638 -0.4356
  108MOL0     C14787   4.951   8.934   5.494  0.1777 -1.0792  0.6600
  108MOL0     C14788   4.927   9.014   5.365  0.0215  0.7263 -0.0274
  108MOL0     C14789   4.779   9.007   5.317  0.0387  0.8022 -0.5986
  108MOL0     O14790   4.764   8.867   5.280 -0.4938  0.5702 -0.4823
  108MOL0     C14791   4.647   8.826   5.222  0.1746  1.3160 -0.9919
  108MOL0     C14792   4.553   8.914   5.156 -0.8620  0.1911 -0.4362
  108MOL0     C14793   4.436   8.867   5.095 -0.7095  0.5799 -0.1007
  108MOL0     C14794   4.343   8.977   5.041 -0.2788 -0.3229  0.7101
  108MOL0     C14795   4.421   8.729   5.078  0.1126  0.2840 -0.4067
  108MOL0     C14796   4.298   8.660   5.015 -0.0753  0.4043  0.2856
  108MOL0     O14797   4.217   8.571   5.085 -0.4222  0.0089  0.6799
  108MOL0     C14798   4.098   8.514   5.035  0.2229 -0.6260  0.0601
  108MOL0     C14799   3.992   8.586   4.993  0.1201 -0.0300 -0.6215
  108MOL0     C14800   3.865   8.532   4.954  0.0234  0.2224 -0.3088
  108MOL0     C14801   3.844   8.402   4.964  0.3924  0.4905  0.0517
  108MOL0     O14802   3.724   8.346   4.925 -0.0624 -0.5556  0.2230
  108MOL0     C14803   3.677   8.356   4.792  0.2567 -0.2236  0.3598
  108MOL0     C14804   3.537   8.284   4.795 -0.8154  0.0442  1.1163
  108MOL0     C14805   3.487   8.262   4.659  1.2071 -0.0254  0.0713
  108MOL0     C14806   3.337   8.210   4.649 -0.0300 -0.6232  0.4433
  108MOL0     C14807   3.327   8.068   4.692 -0.8162  0.1988 -0.9003
  108MOL0     C14808   3.178   8.022   4.710 -0.2305  0.2126  0.2837
  108MOL0     C14809   3.146   7.887   4.769 -0.5745 -0.1033  0.0807
  108MOL0     C14810   3.246   7.781   4.715 -0.7373 -0.1735  0.5998
  108MOL0    Cl14811   3.236   7.781   4.533 -0.3293 -0.1286  0.2065
  108MOL0     C14812   3.951   8.319   5.008 -0.3895 -0.2607  0.2744
  108MOL0     C14813   4.075   8.376   5.039 -0.5244  1.1565  0.3532
  108MOL0     O14814   4.270   8.706   4.905 -0.8907 -0.3923 -0.3789
  108MOL0     C14815   4.510   8.640   5.153  0.8580 -0.7192 -0.3122
  108MOL0     C14816   4.624   8.690   5.217 -0.3064  0.6409 -0.1672
  108MOL0     N14817   5.192   9.073   5.597 -0.0726  0.2991  0.2603
  108MOL0     N14818   5.307   9.132   5.576  0.0371  0.4649 -0.1051
  108MOL0     C14819   6.182   8.672   6.274  0.5463 -1.5589  0.1612
  108MOL0     C14820   6.159   8.618   6.397 -0.5870  0.6485  0.1113
  108MOL0     C14821   6.124   8.565   6.858  0.4023 -0.7430  0.6140
  108MOL0     C14822   6.167   8.435   6.836  0.4204 -0.3161  0.0398
  108MOL0     C14823   6.165   8.341   6.942  0.4187 -0.3961 -0.7328
  108MOL0     C14824   6.097   8.373   7.061  0.0540 -0.3209 -0.9770
  108MOL0     O14825   6.069   8.272   7.155  0.2643 -0.6830  0.6736
  108MOL0     C14826   6.117   8.137   7.135 -0.1361  0.7098 -0.7324
  108MOL0     C14827   6.089   8.063   7.271  0.6468 -0.7207  0.0135
  108MOL0     C14828   6.091   7.907   7.263  0.5140 -0.5862  0.5660
  108MOL0     C14829   6.236   7.850   7.269  0.4412 -0.6204  0.0275
  108MOL0     C14830   6.249   7.712   7.232  0.3906 -0.2814 -0.0258
  108MOL0     C14831   6.254   7.589   7.232  0.4839  0.2194  0.2393
  108MOL0     C14832   6.057   8.504   7.080  0.3866 -0.0275 -0.1418
  108MOL0     C14833   6.070   8.602   6.981 -0.7296 -0.1627 -0.4927
  108MOL0     C14834   6.025   8.739   7.009  0.4496  1.1395 -0.2227
  108MOL0     H14835   6.107   8.896   6.572  2.9919  1.9598 -0.5413
  108MOL0     H14836   6.130   8.997   6.372  1.7939 -0.3601  0.7448
  108MOL0     H14837   6.112   8.703   6.008  1.3207  0.3617 -0.2646
  108MOL0     H14838   6.201   8.817   5.928  0.6420  0.7062  0.2648
  108MOL0     H14839   5.934   8.783   5.913  2.3614 -4.5335  3.9562
  108MOL0     H14840   5.939   8.899   6.053  2.9638  1.5061  1.6910
  108MOL0     H14841   6.069   9.051   5.927  2.6667  0.2479 -3.1243
  108MOL0     H14842   6.068   8.957   5.773 -0.4873 -2.1683 -0.0899
  108MOL0     H14843   5.807   9.030   5.897 -1.9408 -1.4032 -2.1143
  108MOL0     H14844   5.914   9.153   5.831 -0.7758 -0.3894  0.6273
  108MOL0     H14845   5.821   8.897   5.688  0.0352  0.0801 -0.7150
  108MOL0     H14846   5.905   9.054   5.618 -4.0132  3.5739 -3.1174
  108MOL0     H14847   5.628   9.068   5.726  2.2475  0.7068  1.2667
  108MOL0     H14848   5.733   9.173   5.630  4.3727 -0.7657  0.0729
  108MOL0     H14849   5.641   8.908   5.527  0.5600  0.7006  0.0505
  108MOL0     H14850   5.734   9.035   5.441  0.5663 -4.9320 -1.9234
  108MOL0     H14851   5.528   9.197   5.477 -0.8363 -0.0391  2.1850
  108MOL0     H14852   5.526   9.077   5.353 -0.9939 -2.2992 -0.9084
  108MOL0     H14853   5.353   8.831   5.448 -0.6600 -0.9519 -0.0640
  108MOL0     H14854   5.078   8.784   5.578 -1.6178  0.6014  0.4113
  108MOL0     H14855   5.110   8.804   5.417  3.9803  0.3344 -0.0113
  108MOL0     H14856   4.866   8.866   5.508 -1.7580  1.5695  2.5354
  108MOL0     H14857   4.939   8.993   5.585 -0.2777 -2.3738  1.4762
  108MOL0     H14858   4.955   9.114   5.398  0.6437 -0.0432  1.8784
  108MOL0     H14859   4.984   8.983   5.277  0.8970  3.8318 -0.6776
  108MOL0     H14860   4.707   9.027   5.396 -0.2935 -0.4848 -0.5546
  108MOL0     H14861   4.755   9.061   5.225 -3.4179 -1.0694 -0.9668
  108MOL0     H14862   4.578   9.018   5.139  0.5699 -0.5287 -3.3417
  108MOL0     H14863   4.297   9.038   5.119 -1.3434 -0.3771  0.1452
  108MOL0     H14864   4.253   8.939   4.991 -0.5073  1.1131 -0.0092
  108MOL0     H14865   4.390   9.047   4.971 -1.3894 -1.2313 -1.0158
  108MOL0     H14866   4.016   8.692   4.989  1.8848 -0.3811 -0.5486
  108MOL0     H14867   3.789   8.596   4.911  1.0919 -0.3050 -3.1755
  108MOL0     H14868   3.663   8.461   4.765 -0.8065  0.0461  1.8516
  108MOL0     H14869   3.748   8.302   4.729 -0.1299 -0.8939  0.4902
  108MOL0     H14870   3.550   8.186   4.842 -2.3061 -0.2530  0.9662
  108MOL0     H14871   3.468   8.346   4.854 -4.4082 -3.2935  0.8308
  108MOL0     H14872   3.553   8.192   4.606 -0.6842 -1.8290 -0.0166
  108MOL0     H14873   3.486   8.356   4.604  0.5626 -0.4108 -0.5964
  108MOL0     H14874   3.287   8.227   4.553 -0.9074 -0.1170  0.9740
  108MOL0     H14875   3.278   8.271   4.717 -0.8045  0.4388 -1.1276
  108MOL0     H14876   3.372   8.015   4.608  0.3699 -1.8891  0.9578
  108MOL0     H14877   3.380   8.044   4.784 -0.4503 -0.9852 -1.4055
  108MOL0     H14878   3.143   8.021   4.606  2.1556  0.8683 -0.6107
  108MOL0     H14879   3.137   8.110   4.761  1.1282  2.0690 -1.6154
  108MOL0     H14880   3.041   7.875   4.742 -0.5178  0.6144 -0.4931
  108MOL0     H14881   3.146   7.891   4.878  2.7145 -2.4945  0.3407
  108MOL0     H14882   3.208   7.682   4.740 -0.7400 -0.4263 -0.3435
  108MOL0     H14883   3.344   7.814   4.751 -0.4839 -2.7378  2.5303
  108MOL0     H14884   3.953   8.210   5.005  3.3891 -0.2928 -1.1066
  108MOL0     H14885   4.170   8.328   5.063  2.2944  4.8831 -2.0900
  108MOL0     H14886   4.499   8.532   5.156 -3.7690 -0.4332  0.0244
  108MOL0     H14887   4.683   8.626   5.283 -2.2378  0.3147  1.3403
  108MOL0     H14888   6.207   8.604   6.194 -0.4158 -2.1211  0.3268
  108MOL0     H14889   6.178   8.512   6.392 -0.4377  0.7368 -2.0718
  108MOL0     H14890   6.212   8.405   6.742  0.5255  4.8576 -1.8778
  108MOL0     H14891   6.206   8.244   6.918 -0.9411 -0.2391 -4.3958
  108MOL0     H14892   6.057   8.088   7.058  1.6704 -0.2609 -1.5705
  108MOL0     H14893   6.220   8.113   7.106  0.4926  2.9464 -0.4719
  108MOL0     H14894   5.990   8.086   7.312  1.3812 -1.0500  2.1078
  108MOL0     H14895   6.165   8.093   7.344  0.1706 -0.4394  0.4026
  108MOL0     H14896   6.043   7.869   7.353  2.1428 -3.4966  0.3213
  108MOL0     H14897   6.041   7.870   7.173 -0.5920  0.6197  0.6546
  108MOL0     H14898   6.287   7.877   7.362  1.7271  4.5352 -1.8840
  108MOL0     H14899   6.289   7.900   7.188 -1.9850 -2.6563 -3.0830
  108MOL0     H14900   6.250   7.484   7.251 -0.1374  0.7116  3.2715
  108MOL0     H14901   5.990   8.514   7.165 -3.0730 -1.3132 -2.4839
  108MOL0     H14902   5.960   8.784   6.933 -2.3643  0.5485  1.6827
  108MOL0     H14903   5.959   8.731   7.095 -0.2440 -0.4591 -0.8679
  108MOL0     H14904   6.112   8.794   7.046 -0.1754  1.0739  1.4197
  109MOL0     O14905   6.476   0.043   0.517 -0.4394  0.0144 -0.2725
  109MOL0     C14906   6.474   0.166   0.496  0.0815 -0.7337 -0.1728
  109MOL0     O14907   6.479   0.264   0.594  0.1607  0.6783  0.1485
  109MOL0     C14908   6.511   0.227   0.725  0.6968  0.2740  1.4281
  109MOL0     C14909   6.627   0.279   0.774 -0.4612  0.2520 -0.7824
  109MOL0     C14910   6.658   0.267   0.913 -0.2549  0.6043 -0.6533
  109MOL0     C14911   6.567   0.195   0.990 -0.7497 -0.1269 -0.2290
  109MOL0     O14912   6.591   0.147   1.116 -0.2530  0.6314 -0.9763
  109MOL0     C14913   6.721   0.163   1.178  0.4472 -0.4574  0.1195
  109MOL0     C14914   6.737   0.088   1.316  1.4246 -0.0080  0.5075
  109MOL0     C14915   6.624   0.125   1.420 -0.7437 -0.1364 -0.0860
  109MOL0     C14916   6.625   0.032   1.532  0.1514 -0.0828 -0.5025
  109MOL0     C14917   6.520   0.074   1.635  0.0788  0.4341 -0.0010
  109MOL0     C14918   6.548   0.199   1.717  0.3616 -0.4501  0.0226
  109MOL0     C14919   6.415   0.235   1.770  0.2727 -0.2895 -0.6226
  109MOL0     C14920   6.342   0.358   1.716 -0.7335 -0.0912  0.3140
  109MOL0     N14921   6.328   0.347   1.568 -0.3080  0.2269  0.3742
  109MOL0     C14922   6.399   0.404   1.467 -0.5035 -0.3538 -0.2314
  109MOL0     C14923   6.354   0.355   1.354  0.6269 -0.5664  0.2954
  109MOL0     C14924   6.390   0.400   1.220 -1.1495  0.7778  0.7086
  109MOL0     C14925   6.324   0.528   1.173 -0.0573  0.3871 -0.1951
  109MOL0     C14926   6.359   0.658   1.252  0.3960 -0.2694  0.3612
  109MOL0     C14927   6.492   0.727   1.205  0.4074  0.4555  0.2135
  109MOL0     O14928   6.607   0.653   1.243  0.5555 -0.6172  0.2834
  109MOL0     C14929   6.684   0.700   1.342  0.1080  0.7390  0.3176
  109MOL0     C14930   6.624   0.754   1.453 -0.0211  0.1498 -0.0499
  109MOL0     C14931   6.693   0.788   1.567 -0.0164 -0.7097  0.5026
  109MOL0     C14932   6.612   0.834   1.693  0.3660  0.1576  0.0384
  109MOL0     C14933   6.835   0.777   1.569  0.2068  0.8202  0.1095
  109MOL0     C14934   6.928   0.828   1.678 -1.0395  0.7354 -0.3370
  109MOL0     O14935   6.868   0.896   1.776  0.2937 -0.3410  0.5248
  109MOL0     C14936   6.957   0.978   1.852 -1.3873 -0.1682 -0.0774
  109MOL0     C14937   7.021   1.094   1.795  0.2533 -0.2515 -1.0790
  109MOL0     C14938   7.098   1.180   1.871 -0.0934 -0.2171  0.1290
  109MOL0     C14939   7.121   1.157   2.013  1.0099 -0.2319  1.3085
  109MOL0     O14940   7.187   1.239   2.093 -0.2232 -0.1342 -0.6834
  109MOL0     C14941   7.288   1.193   2.182 -0.1064 -0.1302 -0.5632
  109MOL0     C14942   7.405   1.121   2.111  0.3394  0.2770 -0.4913
  109MOL0     C14943   7.542   1.125   2.187  0.6013  0.7808 -0.1056
  109MOL0     C14944   7.533   1.040   2.321 -0.0416  0.6552 -0.3160
  109MOL0     C14945   7.646   1.074   2.423  0.3846  0.7749  0.2681
  109MOL0     C14946   7.753   0.971   2.446 -0.4609  0.0700 -0.6391
  109MOL0     C14947   7.799   0.891   2.332  0.7407  0.3653 -0.4814
  109MOL0     C14948   7.877   0.763   2.360 -0.4221 -0.0524 -0.0770
  109MOL0    Cl14949   7.801   0.613   2.450 -0.1322 -0.0061  0.0186
  109MOL0     C14950   7.053   1.047   2.072  1.0271 -0.3119 -0.3872
  109MOL0     C14951   6.971   0.957   1.996 -0.4687 -1.0790 -0.1544
  109MOL0     O14952   7.048   0.836   1.642  0.2613 -0.6585 -0.3450
  109MOL0     C14953   6.894   0.717   1.456  0.1913  0.1484 -0.3902
  109MOL0     C14954   6.822   0.665   1.344 -0.5769  0.3964  0.0667
  109MOL0     N14955   6.261   0.262   1.386 -0.2398 -0.4338 -0.2529
  109MOL0     N14956   6.239   0.265   1.512  0.2140  0.2761 -0.3751
  109MOL0     C14957   6.448   0.138   0.934 -0.6860 -0.1678  1.0028
  109MOL0     C14958   6.420   0.158   0.800 -1.4241  0.4024  0.5805
  109MOL0     C14959   6.456   0.215   0.353 -1.1049  0.4230 -0.0799
  109MOL0     C14960   6.409   0.125   0.255  0.4654  0.2116 -0.2856
  109MOL0     C14961   6.395   0.159   0.125  0.5868  0.9018  0.0157
  109MOL0     C14962   6.426   0.286   0.078  0.6894  0.0083 -0.0724
  109MOL0     O14963   6.409   0.298  -0.052 -0.4384 -0.6400  1.2066
  109MOL0     C14964   6.432   0.428  -0.106  0.8859  0.9297  0.5800
  109MOL0     C14965   6.395   0.428  -0.259 -0.1352 -0.0849 -0.8691
  109MOL0     C14966   6.481   0.338  -0.339  0.2047 -0.3240  0.7380
  109MOL0     C14967   6.416   0.283  -0.465  0.8449 -0.0001  0.0086
  109MOL0     C14968   6.347   0.394  -0.537 -0.7550  0.5229  0.1237
  109MOL0     C14969   6.292   0.489  -0.591  0.1893  0.0308 -0.4462
  109MOL0     C14970   6.478   0.374   0.166  0.2268 -0.0844  0.0096
  109MOL0     C14971   6.485   0.346   0.305  1.1707  0.4311  0.0408
  109MOL0     C14972   6.550   0.452   0.386 -0.1385 -0.4899 -0.0727
  109MOL0     H14973   6.692   0.347   0.719  0.6016 -1.5827 -1.8777
  109MOL0     H14974   6.750   0.306   0.954 -0.5150 -1.5185  2.2709
  109MOL0     H14975   6.754   0.268   1.177 -0.3549 -0.1977  0.2109
  109MOL0     H14976   6.800   0.118   1.118  0.6920  1.6761 -1.2862
  109MOL0     H14977   6.718  -0.018   1.298 -1.4649  0.7891 -1.7508
  109MOL0     H14978   6.831   0.118   1.365  0.7720  4.0365 -0.3194
  109MOL0     H14979   6.653   0.225   1.454  1.7635 -1.3308  1.5619
  109MOL0     H14980   6.529   0.113   1.367 -0.1361 -1.0203 -1.0233
  109MOL0     H14981   6.586  -0.065   1.501  0.5860  0.0789 -1.6214
  109MOL0     H14982   6.727   0.014   1.567  0.5459  0.4878 -1.3376
  109MOL0     H14983   6.525  -0.006   1.709  0.8018  1.3431  0.9766
  109MOL0     H14984   6.429   0.081   1.575  1.8768 -2.0918 -3.3600
  109MOL0     H14985   6.626   0.183   1.793 -1.9148 -0.0074  2.6259
  109MOL0     H14986   6.600   0.268   1.650  0.0875 -2.3850 -2.3031
  109MOL0     H14987   6.426   0.256   1.876  0.5177  1.7482 -1.0011
  109MOL0     H14988   6.343   0.154   1.756 -1.1617  1.1776 -2.2655
  109MOL0     H14989   6.250   0.383   1.770 -0.7868 -1.6897  0.9912
  109MOL0     H14990   6.407   0.437   1.755  0.7534 -2.8344  3.9819
  109MOL0     H14991   6.489   0.463   1.457  1.2979 -3.3433 -4.4437
  109MOL0     H14992   6.364   0.330   1.140  0.7729  2.3936 -1.4929
  109MOL0     H14993   6.498   0.409   1.204 -1.4818  5.2266 -0.2572
  109MOL0     H14994   6.336   0.552   1.067  2.4608 -0.4878 -0.1770
  109MOL0     H14995   6.218   0.500   1.181  0.6026 -1.8886  1.5635
  109MOL0     H14996   6.276   0.719   1.216  0.5054 -1.2927 -1.8424
  109MOL0     H14997   6.355   0.648   1.360  0.7635  0.4134  0.4442
  109MOL0     H14998   6.482   0.729   1.096 -0.7419 -1.1782  0.2472
  109MOL0     H14999   6.482   0.828   1.246 -2.7384  0.9128 -1.3401
  109MOL0     H15000   6.516   0.764   1.456 -0.4670 -0.7560 -4.8444
  109MOL0     H15001   6.511   0.857   1.660  0.2690  2.7226  1.7647
  109MOL0     H15002   6.645   0.928   1.739 -1.2248 -0.5299  2.8444
  109MOL0     H15003   6.613   0.762   1.776  0.0129 -1.6788 -1.4948
  109MOL0     H15004   7.000   1.131   1.695  0.0583  0.0355 -0.9318
  109MOL0     H15005   7.151   1.260   1.820  0.6423 -0.0959  1.0538
  109MOL0     H15006   7.311   1.276   2.248 -1.0179 -2.0892  2.4192
  109MOL0     H15007   7.249   1.122   2.256  1.3397 -1.1576 -0.7324
  109MOL0     H15008   7.366   1.020   2.096 -2.4080  0.4538  3.7521
  109MOL0     H15009   7.429   1.167   2.015 -1.0164 -0.0899 -1.0267
  109MOL0     H15010   7.568   1.226   2.221  0.3796  0.7200  0.2480
  109MOL0     H15011   7.623   1.085   2.126  0.5719  2.4061 -1.2839
  109MOL0     H15012   7.520   0.932   2.313  1.9692  0.3736 -0.2599
  109MOL0     H15013   7.447   1.082   2.373 -0.8052 -1.1981 -0.0186
  109MOL0     H15014   7.698   1.161   2.383 -0.2568  0.9533 -0.1843
  109MOL0     H15015   7.603   1.111   2.517  1.3751  0.3813  0.8942
  109MOL0     H15016   7.709   0.895   2.512  0.3075  0.4744  0.3660
  109MOL0     H15017   7.840   0.999   2.506 -1.5401  0.1351  0.9805
  109MOL0     H15018   7.865   0.954   2.271  0.6186  1.3266  0.3551
  109MOL0     H15019   7.710   0.859   2.278  0.2301 -1.5381  1.3269
  109MOL0     H15020   7.970   0.788   2.411  0.5597 -0.9392 -1.3679
  109MOL0     H15021   7.905   0.729   2.260 -4.1883  0.0632 -1.3238
  109MOL0     H15022   7.068   1.035   2.179  1.5415  1.5795 -0.2145
  109MOL0     H15023   6.916   0.873   2.035  1.2580 -1.0466  2.6193
  109MOL0     H15024   7.000   0.698   1.442 -0.2311 -1.9310 -0.9703
  109MOL0     H15025   6.880   0.633   1.258 -0.8519  2.6557 -1.0438
  109MOL0     H15026   6.385   0.072   0.992  0.1980 -3.3193 -1.3223
  109MOL0     H15027   6.325   0.118   0.765 -1.4757 -1.3981  2.5259
  109MOL0     H15028   6.371   0.030   0.290 -2.0934  1.3670  0.3060
  109MOL0     H15029   6.381   0.075   0.058  1.3689 -1.1660  2.3364
  109MOL0     H15030   6.358   0.503  -0.078 -1.2771 -0.8077 -0.1687
  109MOL0     H15031   6.539   0.453  -0.097  0.7999  1.5984 -0.1827
  109MOL0     H15032   6.405   0.532  -0.291 -0.1664 -0.2087 -1.2934
  109MOL0     H15033   6.293   0.394  -0.278 -0.3314  0.9422 -1.7048
  109MOL0     H15034   6.577   0.389  -0.352 -0.4730  1.0471  0.9747
  109MOL0     H15035   6.499   0.257  -0.268  1.1303  0.7316  1.7483
  109MOL0     H15036   6.337   0.218  -0.427 -0.0390  1.6035  1.0233
  109MOL0     H15037   6.474   0.209  -0.521  1.1654  0.4586 -0.2808
  109MOL0     H15038   6.249   0.578  -0.634  0.8371  1.6536  2.0405
  109MOL0     H15039   6.516   0.472   0.138 -2.3788  1.7096  2.2463
  109MOL0     H15040   6.630   0.409   0.447 -0.7435  1.0992  1.9760
  109MOL0     H15041   6.601   0.528   0.326  1.7867 -1.6307  0.0360
  109MOL0     H15042   6.489   0.511   0.456  0.7489  0.3891 -0.0227
  110MOL0     O15043   0.704   3.169   4.195 -0.7414  0.2801 -0.0306
  110MOL0     C15044   0.587   3.212   4.215 -0.7338  0.3599 -0.7642
  110MOL0     O15045   0.552   3.289   4.323  0.3596  0.3866  0.1796
  110MOL0     C15046   0.656   3.325   4.409  0.2422 -0.1288  0.0044
  110MOL0     C15047   0.731   3.448   4.409  1.0251  0.6515  1.2773
  110MOL0     C15048   0.828   3.483   4.504  0.5631  0.5045  0.5549
  110MOL0     C15049   0.860   3.390   4.609 -0.6222  0.0418  0.5879
  110MOL0     O15050   0.967   3.424   4.700  0.2200  0.2612 -0.4651
  110MOL0     C15051   0.976   3.340   4.823 -0.3355 -0.2881  0.3724
  110MOL0     C15052   1.033   3.420   4.937 -0.7886 -0.3422  0.1778
  110MOL0     C15053   1.001   3.348   5.063  0.1362  0.9527 -0.4663
  110MOL0     C15054   1.093   3.383   5.181 -1.1112  0.4155  0.5996
  110MOL0     C15055   1.098   3.259   5.262 -0.9389 -0.7598 -0.4952
  110MOL0     C15056   1.220   3.257   5.359  0.0929  0.0778  0.9446
  110MOL0     C15057   1.233   3.373   5.461  0.0226  0.0652  0.2661
  110MOL0     C15058   1.108   3.380   5.553  0.6292  0.7426  0.8099
  110MOL0     N15059   1.100   3.257   5.646  0.7840  0.0925  0.2763
  110MOL0     C15060   1.014   3.149   5.643 -0.4925 -0.1664  0.9547
  110MOL0     C15061   1.071   3.073   5.738 -0.7643  0.3302  0.5609
  110MOL0     C15062   1.026   2.934   5.773  0.4096 -0.2577 -0.4081
  110MOL0     C15063   0.959   2.849   5.669 -0.4120  0.0543  0.0048
  110MOL0     C15064   0.807   2.864   5.674 -0.1095 -0.1296 -0.0308
  110MOL0     C15065   0.737   2.753   5.580 -0.4493  0.4659 -0.6168
  110MOL0     O15066   0.798   2.788   5.457 -0.5174 -0.6024  0.1931
  110MOL0     C15067   0.733   2.884   5.375  0.3502 -0.0083 -0.2884
  110MOL0     C15068   0.594   2.885   5.354  0.6899  1.2142 -0.7890
  110MOL0     C15069   0.519   2.962   5.268 -0.9775  0.8924  0.5419
  110MOL0     C15070   0.365   2.954   5.252 -0.3410 -0.5735  0.1617
  110MOL0     C15071   0.599   3.057   5.192 -0.1526 -0.5013 -0.1890
  110MOL0     C15072   0.546   3.133   5.075  0.2900  0.7583  0.7104
  110MOL0     O15073   0.436   3.076   5.008 -0.0887 -0.8904  0.3038
  110MOL0     C15074   0.385   3.122   4.891  0.2931 -0.6506 -0.8820
  110MOL0     C15075   0.443   3.200   4.787  0.1569 -0.1885  0.1440
  110MOL0     C15076   0.359   3.236   4.681  0.7348  0.5802 -0.3646
  110MOL0     C15077   0.222   3.190   4.676 -0.5660 -0.2660  0.4344
  110MOL0     O15078   0.148   3.221   4.567  0.3606  0.4891  0.6709
  110MOL0     C15079   0.001   3.227   4.570 -1.4140 -0.5320 -0.0667
  110MOL0     C15080  -0.048   3.247   4.434  0.1870 -0.0513 -0.0012
  110MOL0     C15081   0.019   3.368   4.354  0.0239 -0.3288  0.0810
  110MOL0     C15082   0.060   3.315   4.209 -0.5911  0.3124  0.5968
  110MOL0     C15083   0.129   3.420   4.125  0.3162 -0.0037 -0.1827
  110MOL0     C15084   0.165   3.394   3.979  0.7497  0.1072  0.8710
  110MOL0     C15085   0.038   3.384   3.894  0.2516 -1.3017  0.3710
  110MOL0     C15086  -0.004   3.521   3.843  0.5174 -0.6990 -0.0130
  110MOL0    Cl15087  -0.157   3.529   3.744  0.6479  0.2269 -0.1730
  110MOL0     C15088   0.172   3.106   4.778  0.7014  0.1943 -0.0719
  110MOL0     C15089   0.254   3.067   4.880 -0.8604 -0.3204  1.3488
  110MOL0     O15090   0.594   3.240   5.038 -0.5719  0.7227 -0.3535
  110MOL0     C15091   0.736   3.066   5.216  0.6725 -0.0473  0.2091
  110MOL0     C15092   0.808   2.985   5.303  0.7480 -0.3914  0.1026
  110MOL0     N15093   1.189   3.134   5.782 -0.2047 -0.3379 -0.7450
  110MOL0     N15094   1.193   3.247   5.735  0.1827  0.4433 -0.0549
  110MOL0     C15095   0.793   3.263   4.601  0.3992 -0.1874 -0.2054
  110MOL0     C15096   0.682   3.233   4.514  0.5155 -0.6256 -0.4306
  110MOL0     C15097   0.485   3.158   4.128 -0.4964 -0.7378  0.4556
  110MOL0     C15098   0.379   3.084   4.182  1.0122  0.1466 -0.2111
  110MOL0     C15099   0.302   3.004   4.097 -0.3016  0.3399  0.4138
  110MOL0     C15100   0.331   2.993   3.968  0.8901 -0.7482 -0.7039
  110MOL0     O15101   0.249   2.908   3.902 -0.0566 -0.0708 -0.0811
  110MOL0     C15102   0.281   2.853   3.771  0.8893 -0.6446 -0.3205
  110MOL0     C15103   0.248   2.707   3.776  0.3823 -0.5688  0.1150
  110MOL0     C15104   0.283   2.647   3.635  0.2046 -0.0161 -0.5042
  110MOL0     C15105   0.405   2.553   3.643 -0.5132  0.3560  0.1087
  110MOL0     C15106   0.536   2.633   3.663  0.4224 -0.5424  0.8578
  110MOL0     C15107   0.645   2.684   3.679  1.3804 -0.2021 -0.1312
  110MOL0     C15108   0.432   3.071   3.908  0.6305 -0.7079  0.8316
  110MOL0     C15109   0.507   3.156   3.988 -0.1291  0.4028  0.4681
  110MOL0     C15110   0.610   3.253   3.927  0.1977 -0.0030  0.7019
  110MOL0     H15111   0.700   3.520   4.334 -0.3706 -0.0778  1.1229
  110MOL0     H15112   0.873   3.581   4.497  0.6847  0.6037  2.1694
  110MOL0     H15113   1.056   3.271   4.795  1.2046  2.3054 -2.1641
  110MOL0     H15114   0.879   3.293   4.842 -0.3475 -0.5931 -0.3635
  110MOL0     H15115   1.137   3.449   4.917 -1.2670 -0.1934 -2.5376
  110MOL0     H15116   0.979   3.515   4.935 -0.1098  0.0660  0.8200
  110MOL0     H15117   0.895   3.368   5.081  0.3259  3.2238 -1.5524
  110MOL0     H15118   1.010   3.242   5.038  1.1915  0.2525  2.4937
  110MOL0     H15119   1.196   3.403   5.148 -0.2930 -2.3449  1.2061
  110MOL0     H15120   1.048   3.468   5.233 -0.1063  1.7860 -0.6807
  110MOL0     H15121   1.111   3.173   5.196  1.6224  0.4908 -1.7793
  110MOL0     H15122   1.016   3.250   5.334  0.9534 -0.1431  1.8675
  110MOL0     H15123   1.219   3.162   5.413  0.4705  1.0467  2.7305
  110MOL0     H15124   1.314   3.253   5.302 -1.1088 -2.6566 -1.0760
  110MOL0     H15125   1.239   3.463   5.399  1.6384 -0.0373  0.2376
  110MOL0     H15126   1.327   3.366   5.515 -0.2427 -0.1156  0.7117
  110MOL0     H15127   1.109   3.469   5.616 -3.4592  1.7209 -0.1997
  110MOL0     H15128   1.021   3.372   5.487  0.8137 -3.4576  0.7868
  110MOL0     H15129   0.923   3.139   5.585  0.0801  0.8499 -0.1653
  110MOL0     H15130   0.976   2.936   5.870 -1.8177  0.1469 -1.4966
  110MOL0     H15131   1.121   2.884   5.795 -0.6766 -1.0888  2.9880
  110MOL0     H15132   1.009   2.879   5.577  0.3994 -0.4609  0.2684
  110MOL0     H15133   0.983   2.744   5.688  3.7396  1.0769  1.4709
  110MOL0     H15134   0.770   2.851   5.776 -4.3900  2.8166 -0.9049
  110MOL0     H15135   0.782   2.968   5.649 -3.1906 -0.6894  0.3162
  110MOL0     H15136   0.757   2.651   5.615  0.4526  1.0007  0.4924
  110MOL0     H15137   0.628   2.762   5.583 -0.4905  0.4543 -1.6739
  110MOL0     H15138   0.539   2.808   5.408 -1.7860  1.1248 -3.2803
  110MOL0     H15139   0.332   3.058   5.247  2.1379  0.4980  2.9770
  110MOL0     H15140   0.312   2.920   5.342  0.1849  0.6288  0.9529
  110MOL0     H15141   0.323   2.897   5.168 -0.6886  0.9827 -0.7530
  110MOL0     H15142   0.542   3.245   4.785 -0.5632  1.8467  3.2948
  110MOL0     H15143   0.403   3.291   4.599  3.3300 -1.1399 -0.2348
  110MOL0     H15144  -0.033   3.129   4.606  3.0540 -1.4356  2.5893
  110MOL0     H15145  -0.023   3.312   4.634  1.3540  0.0961  0.2925
  110MOL0     H15146  -0.051   3.157   4.372 -0.7968  1.8448 -2.9096
  110MOL0     H15147  -0.152   3.278   4.445 -0.0163 -0.2055 -1.2558
  110MOL0     H15148   0.096   3.415   4.416  0.6990  0.0579 -1.0383
  110MOL0     H15149  -0.059   3.444   4.345  0.4418 -0.1129 -2.2883
  110MOL0     H15150  -0.041   3.300   4.168 -0.3602 -0.5960  0.3299
  110MOL0     H15151   0.125   3.227   4.208 -0.5569  0.3414  0.2536
  110MOL0     H15152   0.067   3.510   4.123 -1.8929 -1.4523 -0.7222
  110MOL0     H15153   0.222   3.447   4.175 -0.6197  0.8793  1.1694
  110MOL0     H15154   0.200   3.291   3.984  0.5032  0.0591  4.0545
  110MOL0     H15155   0.237   3.463   3.935  0.7504  0.2224  1.0494
  110MOL0     H15156  -0.051   3.342   3.944 -0.7958 -0.7677 -0.9957
  110MOL0     H15157   0.062   3.330   3.802 -2.8979 -0.8787 -0.8270
  110MOL0     H15158   0.080   3.573   3.796  4.0152 -0.2316  5.7379
  110MOL0     H15159  -0.017   3.586   3.930  4.1344 -3.4630  2.9006
  110MOL0     H15160   0.085   3.047   4.754  1.7874 -1.9215  0.9441
  110MOL0     H15161   0.236   2.988   4.953  1.3335 -0.2552  2.0420
  110MOL0     H15162   0.789   3.146   5.164 -2.9514  1.2236 -1.9372
  110MOL0     H15163   0.916   2.996   5.306  1.0584 -0.0595 -4.5040
  110MOL0     H15164   0.816   3.199   4.685  0.3846 -0.5378 -0.4694
  110MOL0     H15165   0.617   3.148   4.531  1.7623 -0.8609  4.7678
  110MOL0     H15166   0.367   3.094   4.290 -0.7056  2.3419 -0.5431
  110MOL0     H15167   0.223   2.942   4.137  1.1301 -3.1639 -1.7726
  110MOL0     H15168   0.218   2.909   3.701  1.0832 -0.3767 -0.2846
  110MOL0     H15169   0.386   2.860   3.740  1.5885 -0.3954  1.9140
  110MOL0     H15170   0.140   2.706   3.795  0.4486 -0.1109  0.5441
  110MOL0     H15171   0.284   2.639   3.854 -1.1728 -1.8903 -0.2623
  110MOL0     H15172   0.206   2.586   3.588  0.4087  0.0062 -0.8727
  110MOL0     H15173   0.285   2.723   3.556 -1.8137 -1.7818 -2.3807
  110MOL0     H15174   0.417   2.501   3.548  3.0611 -0.1284  0.6906
  110MOL0     H15175   0.397   2.481   3.726  2.8872 -0.5019 -0.1525
  110MOL0     H15176   0.748   2.712   3.689  0.8384  1.1382  2.4230
  110MOL0     H15177   0.451   3.060   3.802 -2.3052 -0.3913  0.1865
  110MOL0     H15178   0.580   3.257   3.822  0.7322 -0.1002  0.5438
  110MOL0     H15179   0.611   3.352   3.973 -0.0404  0.2481  0.1708
  110MOL0     H15180   0.711   3.211   3.927 -0.8369 -2.6855  0.0798
  111MOL0     O15181   4.836   4.806   1.636 -0.1284  0.5878 -0.4680
  111MOL0     C15182   4.859   4.918   1.587 -0.5594 -0.2739  0.7855
  111MOL0     O15183   4.916   5.022   1.657 -0.0014  0.4881 -0.2645
  111MOL0     C15184   4.947   5.001   1.796 -0.0643  0.7873  0.5302
  111MOL0     C15185   5.062   5.064   1.838  0.5567  2.0231 -0.3056
  111MOL0     C15186   5.094   5.044   1.970  0.1596 -0.0971 -0.7304
  111MOL0     C15187   5.000   4.988   2.060  0.9296 -0.5546 -0.0581
  111MOL0     O15188   5.022   4.976   2.194  0.5130  0.2311 -1.0709
  111MOL0     C15189   5.149   4.995   2.242 -0.8619  0.7179 -0.5677
  111MOL0     C15190   5.141   4.967   2.391  0.2452  0.1832  0.0856
  111MOL0     C15191   5.281   4.989   2.458  0.4715  0.1228  0.1932
  111MOL0     C15192   5.284   4.979   2.612  1.2237 -0.2338 -0.5890
  111MOL0     C15193   5.410   5.018   2.681  0.9071  0.3204  0.9162
  111MOL0     C15194   5.527   4.919   2.660  0.5952 -0.1988  0.2090
  111MOL0     C15195   5.661   4.964   2.724 -0.3191  0.0739  0.0818
  111MOL0     C15196   5.723   5.076   2.646 -0.0385 -1.1188  0.0914
  111MOL0     N15197   5.758   5.052   2.512  0.6035  0.0782  0.4368
  111MOL0     C15198   5.870   4.987   2.463  0.3836  0.4767 -0.7133
  111MOL0     C15199   5.866   4.981   2.326 -0.5761 -0.4214 -0.6193
  111MOL0     C15200   5.969   4.905   2.240 -0.0112  0.3474 -0.1051
  111MOL0     C15201   6.085   5.003   2.207  0.7632  1.1069 -0.8621
  111MOL0     C15202   6.166   4.946   2.092  0.1898  0.3094  1.0940
  111MOL0     C15203   6.215   4.798   2.088 -0.2799  0.0374 -0.3677
  111MOL0     O15204   6.296   4.787   1.964 -0.1311 -0.0627  0.1586
  111MOL0     C15205   6.290   4.697   1.857 -0.1527  0.7418  0.3429
  111MOL0     C15206   6.186   4.611   1.829 -0.2080 -0.2724  0.3797
  111MOL0     C15207   6.192   4.526   1.714  0.1760 -0.7209 -0.2988
  111MOL0     C15208   6.080   4.439   1.686 -0.4392  0.2873  0.8494
  111MOL0     C15209   6.306   4.523   1.635 -0.0329  0.5868  0.3864
  111MOL0     C15210   6.331   4.426   1.518 -0.2330  1.0411 -0.7950
  111MOL0     O15211   6.257   4.304   1.514 -0.0684 -0.2172  0.8488
  111MOL0     C15212   6.243   4.238   1.388  0.0000 -0.0776  0.4250
  111MOL0     C15213   6.237   4.295   1.263  0.1212 -0.6791  0.2168
  111MOL0     C15214   6.216   4.223   1.147 -0.4915 -0.8265  0.2476
  111MOL0     C15215   6.209   4.093   1.154 -0.2590 -0.3496 -0.8768
  111MOL0     O15216   6.178   4.009   1.049  0.1994 -0.1757  0.3310
  111MOL0     C15217   6.202   4.071   0.918  0.5412  0.1604 -0.2494
  111MOL0     C15218   6.214   3.952   0.819 -0.4991 -0.4015  1.0765
  111MOL0     C15219   6.342   3.859   0.849 -0.0858 -0.5851  0.4791
  111MOL0     C15220   6.390   3.807   0.711  0.1723  0.5223 -0.9781
  111MOL0     C15221   6.481   3.688   0.721 -0.4354 -0.1979  1.1095
  111MOL0     C15222   6.577   3.694   0.843  0.7960  0.3412  0.4602
  111MOL0     C15223   6.635   3.555   0.863  0.2798  0.0714 -0.4497
  111MOL0     C15224   6.737   3.507   0.767  0.0921  1.2242  0.9743
  111MOL0    Cl15225   6.763   3.326   0.788 -0.0450  0.1427 -0.1073
  111MOL0     C15226   6.206   4.028   1.284 -0.4532  0.8879 -0.2962
  111MOL0     C15227   6.231   4.099   1.400 -0.2823  0.0991  0.3230
  111MOL0     O15228   6.419   4.464   1.438  0.7383 -0.6403 -0.2711
  111MOL0     C15229   6.409   4.617   1.667  0.5269  0.3474  1.4114
  111MOL0     C15230   6.401   4.705   1.772  0.5657 -0.4301 -0.4101
  111MOL0     N15231   5.748   5.042   2.289  0.3816  0.7186 -0.4411
  111MOL0     N15232   5.686   5.083   2.398  1.2164  0.0152 -0.8118
  111MOL0     C15233   4.886   4.928   2.019  0.2622  0.1717 -0.7294
  111MOL0     C15234   4.863   4.935   1.883 -0.8089  0.2520 -0.7661
  111MOL0     C15235   4.811   4.951   1.451  0.7088  1.1922  1.0695
  111MOL0     C15236   4.780   4.834   1.370 -0.0681  0.4677 -0.5741
  111MOL0     C15237   4.754   4.834   1.234  0.0880 -0.2413 -0.8822
  111MOL0     C15238   4.749   4.955   1.168 -0.9688  0.8166 -0.1796
  111MOL0     O15239   4.740   4.956   1.031  0.2439 -0.6633 -0.4134
  111MOL0     C15240   4.859   5.006   0.968 -0.0155 -0.2386 -0.2029
  111MOL0     C15241   4.989   4.930   1.008  0.7733  0.1337 -0.4278
  111MOL0     C15242   4.970   4.789   0.956 -0.4026  0.3371 -0.5066
  111MOL0     C15243   5.076   4.693   1.011 -1.0245  0.1320 -0.6275
  111MOL0     C15244   5.041   4.640   1.146  0.5676  0.1369 -0.1429
  111MOL0     C15245   4.996   4.581   1.244 -0.3080  0.1380  0.8986
  111MOL0     C15246   4.777   5.076   1.251  0.0336  0.0435  0.4985
  111MOL0     C15247   4.794   5.072   1.388 -0.3266  1.5690  0.0329
  111MOL0     C15248   4.818   5.196   1.461  0.5435 -0.5949 -0.5626
  111MOL0     H15249   5.114   5.108   1.754 -2.0988  0.2451 -3.0628
  111MOL0     H15250   5.189   5.085   2.002  1.2173 -0.5008 -3.0962
  111MOL0     H15251   5.171   5.102   2.237  2.9184  0.1483  0.6203
  111MOL0     H15252   5.221   4.939   2.182 -0.6351  0.8871 -0.4538
  111MOL0     H15253   5.072   5.034   2.445 -0.2703 -0.6848  0.5319
  111MOL0     H15254   5.101   4.868   2.416  4.3891 -1.1747  2.3195
  111MOL0     H15255   5.365   4.932   2.418  1.0129 -0.4721  2.0971
  111MOL0     H15256   5.316   5.090   2.433  2.1634 -0.7300 -1.0618
  111MOL0     H15257   5.200   5.037   2.652  0.0332 -1.0884 -1.8078
  111MOL0     H15258   5.253   4.879   2.643  0.3179 -0.7925 -3.1350
  111MOL0     H15259   5.403   5.018   2.790  2.5880 -1.1267  1.0610
  111MOL0     H15260   5.444   5.116   2.646  1.5091 -0.0855  0.3592
  111MOL0     H15261   5.486   4.828   2.706  2.5927 -1.0925  0.3023
  111MOL0     H15262   5.538   4.894   2.554 -0.1776 -2.1217  0.5436
  111MOL0     H15263   5.730   4.879   2.721 -2.6190 -1.8746 -0.6527
  111MOL0     H15264   5.662   4.982   2.832  2.1181 -3.8607  0.9513
  111MOL0     H15265   5.664   5.167   2.660 -0.8356 -1.6663  0.3346
  111MOL0     H15266   5.816   5.095   2.702  0.1061 -1.1644 -0.1334
  111MOL0     H15267   5.940   4.929   2.522 -2.0490  0.3900  2.3062
  111MOL0     H15268   5.910   4.876   2.153 -0.8323 -0.6900  0.7782
  111MOL0     H15269   6.005   4.818   2.295 -1.5460  0.0126  0.4121
  111MOL0     H15270   6.045   5.103   2.185  4.0155  2.6084 -0.6749
  111MOL0     H15271   6.146   5.007   2.298 -1.7883 -3.9684  1.4470
  111MOL0     H15272   6.120   4.957   1.993 -3.8111 -1.4072  2.5400
  111MOL0     H15273   6.247   5.019   2.098  0.4030  0.4123 -1.7728
  111MOL0     H15274   6.282   4.765   2.168 -0.5420 -1.1252 -0.5962
  111MOL0     H15275   6.132   4.727   2.094  0.7170 -1.0672  0.8925
  111MOL0     H15276   6.096   4.589   1.885 -0.7657 -0.7197 -0.6710
  111MOL0     H15277   6.069   4.403   1.584 -2.0353 -2.9839  2.0091
  111MOL0     H15278   5.986   4.491   1.704 -1.4183 -1.6062  1.4339
  111MOL0     H15279   6.097   4.352   1.751 -0.2963  1.1596  2.0085
  111MOL0     H15280   6.244   4.404   1.259  2.0840 -0.7973 -0.7939
  111MOL0     H15281   6.218   4.286   1.059 -0.0833  0.3510  1.0670
  111MOL0     H15282   6.115   4.126   0.882  1.3088  0.5225 -1.6337
  111MOL0     H15283   6.299   4.121   0.907  1.5034 -0.9880  2.2421
  111MOL0     H15284   6.121   3.894   0.816 -0.3671 -0.7364  2.5880
  111MOL0     H15285   6.229   4.000   0.722  0.8123 -0.5660  1.1859
  111MOL0     H15286   6.330   3.775   0.918  1.8200  0.5792  2.3415
  111MOL0     H15287   6.421   3.919   0.895 -0.9019 -0.4491  1.7362
  111MOL0     H15288   6.447   3.890   0.669  2.5998 -0.5943 -0.0948
  111MOL0     H15289   6.305   3.768   0.654  1.3495 -3.4521 -0.3075
  111MOL0     H15290   6.416   3.600   0.723 -0.7493 -0.0127 -0.2531
  111MOL0     H15291   6.544   3.686   0.632 -1.1744 -5.7454  0.3233
  111MOL0     H15292   6.524   3.705   0.938  2.1769  0.7985  1.2200
  111MOL0     H15293   6.638   3.786   0.841 -0.5630  1.2762 -1.4210
  111MOL0     H15294   6.554   3.481   0.866  1.7082 -1.6691  3.7392
  111MOL0     H15295   6.675   3.547   0.965  1.4363  0.1066 -0.8892
  111MOL0     H15296   6.826   3.570   0.764  0.9996 -0.0385 -0.2865
  111MOL0     H15297   6.687   3.518   0.670 -0.9114 -0.1647  1.3041
  111MOL0     H15298   6.189   3.921   1.280 -0.5604  0.7089  2.8673
  111MOL0     H15299   6.210   4.041   1.490  1.6045  1.3964  1.6594
  111MOL0     H15300   6.496   4.618   1.602 -0.5601 -0.6813 -0.1573
  111MOL0     H15301   6.468   4.786   1.801  0.6109 -1.4016  2.5751
  111MOL0     H15302   4.816   4.890   2.093  1.6164  0.4788  0.7592
  111MOL0     H15303   4.775   4.881   1.847  0.2207 -2.5734  0.6210
  111MOL0     H15304   4.785   4.735   1.416 -1.2011  1.1318  1.0959
  111MOL0     H15305   4.737   4.745   1.174  1.9384 -1.3033  0.0555
  111MOL0     H15306   4.845   5.006   0.860  0.7808 -2.8225 -0.3742
  111MOL0     H15307   4.879   5.111   0.992  0.5922 -0.4802  0.3790
  111MOL0     H15308   5.017   4.933   1.114  1.5830  0.1549 -0.6326
  111MOL0     H15309   5.073   4.978   0.957  1.1325 -0.1193 -0.0771
  111MOL0     H15310   4.870   4.747   0.973 -0.1602 -1.4692 -3.0252
  111MOL0     H15311   4.994   4.789   0.850  1.8247  0.5180 -0.0497
  111MOL0     H15312   5.174   4.742   1.009 -1.1967  0.5421  0.4453
  111MOL0     H15313   5.081   4.607   0.943  1.2657 -1.7792  1.7206
  111MOL0     H15314   4.972   4.537   1.338 -1.0996  0.9962  1.1065
  111MOL0     H15315   4.772   5.168   1.194  0.4041 -1.0471 -1.4133
  111MOL0     H15316   4.746   5.211   1.542  1.7693 -1.7991  0.7945
  111MOL0     H15317   4.917   5.208   1.505  0.3285  0.0502 -0.2384
  111MOL0     H15318   4.801   5.288   1.403  1.7903 -0.3796 -0.6157
  112MOL0     O15319   9.544   3.384   2.928  0.4935  0.3085 -0.2653
  112MOL0     C15320   9.490   3.390   3.034 -0.0192  0.5548 -1.3910
  112MOL0     O15321   9.471   3.276   3.117  0.6252 -0.0318  0.7572
  112MOL0     C15322   9.491   3.155   3.057 -0.5375 -0.7698  0.3359
  112MOL0     C15323   9.412   3.109   2.950  0.3039  0.9088  0.0838
  112MOL0     C15324   9.444   2.989   2.890  0.1448 -0.1007 -0.2348
  112MOL0     C15325   9.546   2.907   2.937  1.0792 -0.0759 -0.2229
  112MOL0     O15326   9.571   2.784   2.886  0.6531  0.0179 -0.5413
  112MOL0     C15327   9.521   2.750   2.754  0.1308 -0.8835  0.1604
  112MOL0     C15328   9.574   2.619   2.692 -0.3925  0.3638 -0.4131
  112MOL0     C15329   9.723   2.591   2.691 -0.2488 -0.1441 -0.0454
  112MOL0     C15330   9.777   2.451   2.657  0.1080 -0.2619  0.2168
  112MOL0     C15331   9.915   2.444   2.619 -0.1907  0.1159  0.5169
  112MOL0     C15332  10.017   2.467   2.729  0.6640  0.0347  0.4616
  112MOL0     C15333  10.165   2.488   2.687  0.2728 -0.8114 -0.5589
  112MOL0     C15334  10.222   2.361   2.626  0.1874 -0.1134  0.8277
  112MOL0     N15335  10.366   2.388   2.604 -1.1332 -0.1276  0.4562
  112MOL0     C15336  10.425   2.461   2.502 -0.2694 -0.3191  0.7348
  112MOL0     C15337  10.546   2.498   2.545  0.1715  0.3798  0.4051
  112MOL0     C15338  10.654   2.563   2.474  0.8051  0.2010 -0.3038
  112MOL0     C15339  10.725   2.451   2.392  0.7087  0.6717 -0.0581
  112MOL0     C15340  10.837   2.509   2.308  0.1846  0.0180  0.4407
  112MOL0     C15341  10.905   2.393   2.226  0.3584 -0.5186 -0.8590
  112MOL0     O15342  10.994   2.433   2.122  0.3010  0.1592  0.5475
  112MOL0     C15343  11.040   2.342   2.024 -0.2201  0.5256  0.2650
  112MOL0     C15344  11.040   2.199   2.054 -0.1716 -0.4463 -0.4162
  112MOL0     C15345  11.107   2.102   1.979 -0.6459  0.3916 -0.2972
  112MOL0     C15346  11.088   1.958   2.034 -0.1745  0.2913  0.3899
  112MOL0     C15347  11.183   2.147   1.872 -0.4059  0.2079 -0.3790
  112MOL0     C15348  11.254   2.055   1.769 -0.0770 -0.4484 -0.6351
  112MOL0     O15349  11.287   2.108   1.651 -0.7259 -0.2683  0.3701
  112MOL0     C15350  11.369   2.032   1.573  0.5693  0.8803  0.4718
  112MOL0     C15351  11.511   2.049   1.569  0.1776  0.0538  0.2867
  112MOL0     C15352  11.597   1.961   1.499  0.6020 -1.2647 -0.2996
  112MOL0     C15353  11.538   1.860   1.424  0.6368  0.6834  0.3309
  112MOL0     O15354  11.596   1.784   1.330 -0.0420  0.7845  0.8945
  112MOL0     C15355  11.734   1.817   1.291  1.1046  0.3113 -0.6315
  112MOL0     C15356  11.738   1.940   1.205  0.1993 -0.0988 -0.5841
  112MOL0     C15357  11.874   1.998   1.191  0.1875  0.5228  0.0123
  112MOL0     C15358  11.962   1.924   1.090 -0.5694 -0.3684 -0.6078
  112MOL0     C15359  12.096   1.981   1.085 -0.1774 -0.2823  0.4111
  112MOL0     C15360  12.169   1.946   0.948 -0.8095 -0.1895  0.3484
  112MOL0     C15361  12.312   2.012   0.942  0.2627  0.0492  0.2903
  112MOL0     C15362  12.367   2.038   0.801 -0.4211  0.0022 -0.2486
  112MOL0    Cl15363  12.399   1.869   0.749  0.2295 -0.0780  0.6922
  112MOL0     C15364  11.398   1.845   1.432  0.9373 -0.2160 -0.3070
  112MOL0     C15365  11.311   1.928   1.499 -0.6612 -1.1039 -0.1166
  112MOL0     O15366  11.289   1.938   1.811 -0.3230 -0.6356 -0.1091
  112MOL0     C15367  11.183   2.288   1.838  0.9429  0.2966  1.1996
  112MOL0     C15368  11.109   2.386   1.906 -0.1486  0.5684 -0.0484
  112MOL0     N15369  10.566   2.437   2.669  0.8572 -0.2138  0.3822
  112MOL0     N15370  10.458   2.382   2.707 -0.0662  0.4746  0.9988
  112MOL0     C15371   9.617   2.947   3.050 -0.0169  0.2249 -0.0816
  112MOL0     C15372   9.589   3.070   3.112 -0.3061  0.1604  0.6327
  112MOL0     C15373   9.383   3.492   3.069 -0.4541 -0.6276  0.9064
  112MOL0     C15374   9.269   3.469   3.154 -0.0928 -0.8020  0.2193
  112MOL0     C15375   9.167   3.560   3.170  0.1500 -0.8644  0.7708
  112MOL0     C15376   9.167   3.676   3.093  0.3677 -1.0563  0.4396
  112MOL0     O15377   9.047   3.748   3.105  0.1958  0.0020 -0.2789
  112MOL0     C15378   9.023   3.848   3.006 -0.2677  0.2841 -0.1079
  112MOL0     C15379   8.879   3.892   2.995  0.1905 -0.0571 -0.0126
  112MOL0     C15380   8.847   3.960   2.861 -0.3137  0.3788  0.3419
  112MOL0     C15381   8.952   4.075   2.828 -0.0555  0.1109  0.8063
  112MOL0     C15382   9.057   4.034   2.736  0.2816 -0.8787  0.1983
  112MOL0     C15383   9.158   4.031   2.679 -0.2489 -0.2336 -0.2491
  112MOL0     C15384   9.282   3.710   3.015  0.3794 -0.5248 -0.7957
  112MOL0     C15385   9.387   3.618   3.005  0.3368  0.0350 -0.6423
  112MOL0     C15386   9.497   3.672   2.924  0.8125 -0.3985 -0.0218
  112MOL0     H15387   9.335   3.166   2.898 -2.9914 -5.4537 -3.1840
  112MOL0     H15388   9.374   2.971   2.809 -3.7773  0.7468  2.6822
  112MOL0     H15389   9.545   2.822   2.674 -0.6817  0.8399  1.4007
  112MOL0     H15390   9.412   2.751   2.756  0.0932  0.4456 -0.8185
  112MOL0     H15391   9.529   2.544   2.758  2.9294 -0.5755  1.0287
  112MOL0     H15392   9.532   2.608   2.592 -0.7743  0.9506 -0.3170
  112MOL0     H15393   9.774   2.656   2.619  0.4006  0.0139  0.5529
  112MOL0     H15394   9.752   2.612   2.794 -0.7089 -0.9846  0.2669
  112MOL0     H15395   9.764   2.386   2.744  1.6338  1.8482  2.1659
  112MOL0     H15396   9.711   2.419   2.576  0.4879 -2.0557  0.5859
  112MOL0     H15397   9.929   2.510   2.533 -1.9560  1.2583  1.0432
  112MOL0     H15398   9.925   2.339   2.591  1.2201  0.0042  1.3437
  112MOL0     H15399   9.990   2.561   2.779  0.8920 -0.2533  1.1362
  112MOL0     H15400  10.007   2.399   2.814  1.1528  0.8114  1.1495
  112MOL0     H15401  10.224   2.499   2.778 -1.7944  1.2542  0.6401
  112MOL0     H15402  10.169   2.576   2.623 -0.6208 -0.0552  0.3765
  112MOL0     H15403  10.213   2.267   2.681  1.0308 -0.8117 -0.1812
  112MOL0     H15404  10.181   2.341   2.527  0.3189 -1.1757  0.9803
  112MOL0     H15405  10.371   2.481   2.410 -3.7845 -4.0711  1.7010
  112MOL0     H15406  10.716   2.618   2.545 -0.1771 -2.3357  2.7279
  112MOL0     H15407  10.609   2.617   2.390 -0.0401 -2.2917 -1.5564
  112MOL0     H15408  10.768   2.378   2.462  2.1370  2.2332  0.7607
  112MOL0     H15409  10.652   2.408   2.323  1.2729 -0.5217  0.0625
  112MOL0     H15410  10.804   2.576   2.228  1.9416  2.2107  1.4297
  112MOL0     H15411  10.909   2.552   2.379 -1.3125 -0.9161  2.6327
  112MOL0     H15412  10.954   2.324   2.296  0.4078  0.0237 -0.3526
  112MOL0     H15413  10.822   2.338   2.180 -0.7011  0.4214 -0.1282
  112MOL0     H15414  10.982   2.160   2.137 -0.0711 -0.4137 -0.3299
  112MOL0     H15415  11.113   1.957   2.140  1.6398  2.0247  0.0228
  112MOL0     H15416  11.167   1.893   1.994  1.1423  1.7369  0.5392
  112MOL0     H15417  10.983   1.930   2.023 -0.4162  1.0320  0.7920
  112MOL0     H15418  11.539   2.132   1.633 -0.7961  1.7174 -1.3552
  112MOL0     H15419  11.704   1.979   1.492  0.1881  0.8611 -3.2045
  112MOL0     H15420  11.797   1.819   1.381 -1.8741  1.3716  1.6037
  112MOL0     H15421  11.766   1.745   1.216  1.3006  1.3350 -1.5478
  112MOL0     H15422  11.708   1.930   1.100  1.5191  2.0288 -1.2188
  112MOL0     H15423  11.686   2.020   1.259  1.5173 -0.3839  1.2033
  112MOL0     H15424  11.934   1.976   1.279 -0.8628 -1.9496  0.2116
  112MOL0     H15425  11.865   2.105   1.171 -0.5542  0.7541  1.4375
  112MOL0     H15426  11.924   1.939   0.988  0.4034 -1.7821 -1.2195
  112MOL0     H15427  11.974   1.815   1.097 -1.1434 -0.4323 -0.5379
  112MOL0     H15428  12.093   2.090   1.087  1.8833 -0.0878 -1.7946
  112MOL0     H15429  12.155   1.940   1.168  0.4294 -2.4861 -1.0241
  112MOL0     H15430  12.106   1.965   0.861 -1.8399 -0.1854  1.0719
  112MOL0     H15431  12.190   1.839   0.944  4.4714  0.5839  0.6437
  112MOL0     H15432  12.385   1.959   1.005  3.0553  3.6522  0.4067
  112MOL0     H15433  12.298   2.109   0.990 -3.2881 -0.0463 -0.2626
  112MOL0     H15434  12.460   2.095   0.808  0.7611 -2.0446  2.8192
  112MOL0     H15435  12.302   2.104   0.743 -2.0690 -0.2236  1.2347
  112MOL0     H15436  11.359   1.776   1.359  1.3891  0.6996 -1.4443
  112MOL0     H15437  11.203   1.926   1.513 -0.4319  1.6972  3.5165
  112MOL0     H15438  11.228   2.322   1.745  1.6185  2.0514  2.1242
  112MOL0     H15439  11.105   2.492   1.883  1.5167  1.0155  1.4354
  112MOL0     H15440   9.681   2.876   3.100 -0.4708  1.1713  1.9245
  112MOL0     H15441   9.646   3.101   3.199 -0.1772  1.7567  0.0070
  112MOL0     H15442   9.270   3.395   3.233 -2.5804  0.6594  1.7519
  112MOL0     H15443   9.085   3.540   3.238 -0.5765 -3.0394 -0.6236
  112MOL0     H15444   9.083   3.936   3.031  0.3042  0.5034 -2.0592
  112MOL0     H15445   9.052   3.815   2.906 -2.8132 -4.1347  0.3568
  112MOL0     H15446   8.846   3.957   3.076  1.7165  0.5378  0.1663
  112MOL0     H15447   8.816   3.804   2.979 -2.0230  1.8443 -2.7721
  112MOL0     H15448   8.842   3.895   2.773 -1.7331 -1.8145  1.9497
  112MOL0     H15449   8.747   4.001   2.878 -2.3250 -3.5917 -0.8524
  112MOL0     H15450   9.012   4.104   2.914 -0.4697  0.8624  0.8496
  112MOL0     H15451   8.898   4.161   2.785 -1.6898 -1.3914 -0.2889
  112MOL0     H15452   9.257   4.010   2.645  0.5101 -0.6693  2.0460
  112MOL0     H15453   9.276   3.799   2.953 -0.5902 -0.1134 -0.1297
  112MOL0     H15454   9.504   3.608   2.836 -1.8063 -1.5968  0.5285
  112MOL0     H15455   9.502   3.779   2.902 -3.0882 -0.0897 -0.2189
  112MOL0     H15456   9.585   3.661   2.988  1.0869  3.0080  0.3708
  113MOL0     O15457  11.197   9.839   1.703  0.7326  0.0045  0.8207
  113MOL0     C15458  11.228   9.726   1.731 -0.3997  0.2166 -0.5143
  113MOL0     O15459  11.358   9.679   1.746  0.1391  0.1612 -0.5372
  113MOL0     C15460  11.466   9.765   1.721 -0.5453  0.6491 -0.5298
  113MOL0     C15461  11.587   9.716   1.781 -0.6297 -0.1799  0.5641
  113MOL0     C15462  11.708   9.777   1.746 -0.2551  0.4986 -0.2297
  113MOL0     C15463  11.716   9.884   1.657 -0.4332 -0.5209  0.6549
  113MOL0     O15464  11.832   9.959   1.627  0.3654  0.0947  0.5373
  113MOL0     C15465  11.928   9.970   1.728  0.3311 -0.2889 -0.1885
  113MOL0     C15466  11.974  10.116   1.742  0.1513  1.1397 -0.3746
  113MOL0     C15467  11.865  10.215   1.701 -0.4920 -0.4782 -0.2163
  113MOL0     C15468  11.866  10.359   1.772 -0.3629  0.4207  0.3121
  113MOL0     C15469  11.747  10.444   1.733 -0.6902  0.6982  0.5774
  113MOL0     C15470  11.608  10.403   1.788  0.1141  0.0043  0.1283
  113MOL0     C15471  11.501  10.501   1.763  0.6024 -0.1310  0.4839
  113MOL0     C15472  11.360  10.438   1.777 -0.3420  0.4542  0.1564
  113MOL0     N15473  11.319  10.365   1.657 -0.6923  0.4841 -0.2849
  113MOL0     C15474  11.238  10.246   1.644 -0.1733 -0.4965 -0.0485
  113MOL0     C15475  11.240  10.222   1.509 -0.8312  0.0061  0.1829
  113MOL0     C15476  11.197  10.094   1.427 -0.5834  0.9088  0.7393
  113MOL0     C15477  11.308  10.064   1.318 -0.4966 -0.1609 -0.0392
  113MOL0     C15478  11.302   9.912   1.279 -1.0542  0.2395 -0.3185
  113MOL0     C15479  11.423   9.855   1.207  0.1830  0.4348  0.1541
  113MOL0     O15480  11.427   9.712   1.165 -0.3379 -0.1123  0.1910
  113MOL0     C15481  11.369   9.664   1.048 -0.0664 -0.4206 -0.4446
  113MOL0     C15482  11.318   9.757   0.952  0.2981 -0.2729 -1.0259
  113MOL0     C15483  11.238   9.718   0.842 -1.1256  0.0275  1.2509
  113MOL0     C15484  11.172   9.828   0.759  0.6255  0.1241 -0.0493
  113MOL0     C15485  11.238   9.579   0.813 -0.4673  0.5628 -0.6196
  113MOL0     C15486  11.178   9.535   0.688  0.1911  0.8935  0.0905
  113MOL0     O15487  11.051   9.577   0.651 -0.3551 -0.6469  0.3483
  113MOL0     C15488  11.015   9.545   0.521  1.1212 -0.3976  0.8378
  113MOL0     C15489  10.945   9.425   0.502  1.2090  0.3690  0.1039
  113MOL0     C15490  10.916   9.385   0.375 -0.4392  0.1255 -0.5512
  113MOL0     C15491  10.938   9.473   0.266 -0.5287  0.5344 -0.1535
  113MOL0     O15492  10.887   9.437   0.139  0.0248 -0.2769 -0.3152
  113MOL0     C15493  10.893   9.532   0.032  0.0510 -0.7353  0.0322
  113MOL0     C15494  10.821   9.465  -0.079  0.9341  0.2645  0.2889
  113MOL0     C15495  10.914   9.347  -0.138 -0.5613  0.4464  0.7957
  113MOL0     C15496  10.841   9.278  -0.251  0.0051  0.4469  0.6899
  113MOL0     C15497  10.937   9.203  -0.343  0.1059  0.8755 -0.0332
  113MOL0     C15498  10.882   9.133  -0.464  0.5817  1.0139  0.8697
  113MOL0     C15499  10.990   9.031  -0.524  0.5404  0.2118  0.7508
  113MOL0     C15500  10.962   8.995  -0.669  0.3264 -0.4947 -0.4397
  113MOL0    Cl15501  11.064   8.879  -0.758  0.1177  0.0139  0.0032
  113MOL0     C15502  11.017   9.587   0.290  0.5678  0.2314  0.3059
  113MOL0     C15503  11.063   9.621   0.419  0.3277 -0.6770  0.3429
  113MOL0     O15504  11.254   9.462   0.616  0.9921 -0.1104  0.3403
  113MOL0     C15505  11.298   9.490   0.908  0.0414 -0.7031  0.0313
  113MOL0     C15506  11.350   9.527   1.026 -0.2811  0.4229  0.3413
  113MOL0     N15507  11.299  10.328   1.442 -0.5071  0.0215 -0.2122
  113MOL0     N15508  11.342  10.402   1.532 -0.2303 -1.0227 -0.1507
  113MOL0     C15509  11.594   9.921   1.596 -0.3197 -0.3977  0.1837
  113MOL0     C15510  11.470   9.865   1.627 -0.5671 -0.0079 -0.6850
  113MOL0     C15511  11.126   9.619   1.739 -0.3756  0.6492 -0.8036
  113MOL0     C15512  11.173   9.498   1.793  0.5072 -0.8533  0.0902
  113MOL0     C15513  11.090   9.387   1.797  0.7805 -0.6626  0.2872
  113MOL0     C15514  10.955   9.390   1.775 -0.0347 -0.1657  0.6082
  113MOL0     O15515  10.878   9.276   1.790 -0.8435  0.4143  0.0850
  113MOL0     C15516  10.747   9.270   1.730 -0.8951  0.1406 -1.3998
  113MOL0     C15517  10.673   9.138   1.764 -0.0683 -0.0983 -0.3265
  113MOL0     C15518  10.611   9.116   1.909 -0.1039  0.3446 -0.5220
  113MOL0     C15519  10.504   9.014   1.916 -0.1449  0.2956 -0.5269
  113MOL0     C15520  10.427   9.009   2.046  0.0826 -0.1517  0.5603
  113MOL0     C15521  10.355   9.000   2.140  0.1542  0.2790 -0.7345
  113MOL0     C15522  10.905   9.515   1.727 -0.0979  0.2107 -0.4568
  113MOL0     C15523  10.992   9.622   1.705  0.9058  0.3917  0.5658
  113MOL0     C15524  10.925   9.748   1.653 -0.3428  0.2447 -0.9044
  113MOL0     H15525  11.599   9.642   1.860  0.2869  0.0803  0.6786
  113MOL0     H15526  11.795   9.730   1.790 -0.1213  0.9917  0.0394
  113MOL0     H15527  12.007   9.894   1.725  2.6772  1.8657  2.1249
  113MOL0     H15528  11.869   9.947   1.818  3.2884 -1.9163  1.4587
  113MOL0     H15529  12.004  10.126   1.847  3.9372 -2.1075 -0.8981
  113MOL0     H15530  12.057  10.139   1.675  1.0733  0.1526  0.3876
  113MOL0     H15531  11.864  10.235   1.594 -2.0735 -0.4783 -0.2185
  113MOL0     H15532  11.765  10.175   1.718 -1.1482  1.4587  0.8423
  113MOL0     H15533  11.878  10.353   1.880 -2.1374  1.0692  0.5830
  113MOL0     H15534  11.954  10.403   1.725 -0.6397 -0.2677 -0.8952
  113MOL0     H15535  11.750  10.461   1.625  0.6901  0.1664  0.5013
  113MOL0     H15536  11.753  10.541   1.783  1.3252  0.2871  1.2297
  113MOL0     H15537  11.571  10.309   1.746  0.3358 -0.3133  0.6420
  113MOL0     H15538  11.607  10.408   1.897 -2.3829 -0.6890  0.1986
  113MOL0     H15539  11.518  10.552   1.668 -3.1678 -0.1729 -0.3951
  113MOL0     H15540  11.488  10.583   1.834  0.3169  1.1367 -0.9642
  113MOL0     H15541  11.342  10.393   1.875  2.2473  2.0913  1.4772
  113MOL0     H15542  11.293  10.524   1.778  1.7381  2.2682 -2.3604
  113MOL0     H15543  11.193  10.188   1.724 -2.3125 -1.5184 -1.8832
  113MOL0     H15544  11.107  10.110   1.367 -0.1580 -2.1680 -0.9663
  113MOL0     H15545  11.176  10.005   1.487 -1.7833  0.0790 -0.8182
  113MOL0     H15546  11.290  10.138   1.240 -0.0942  1.1679  1.0871
  113MOL0     H15547  11.408  10.087   1.356 -0.0380  2.5848 -2.5517
  113MOL0     H15548  11.293   9.853   1.371  5.4565  3.5185  3.2015
  113MOL0     H15549  11.218   9.899   1.211 -1.0707  1.0975 -0.4726
  113MOL0     H15550  11.457   9.921   1.127  1.5425 -1.3927 -0.8629
  113MOL0     H15551  11.510   9.864   1.272  1.9933 -0.7726 -1.9503
  113MOL0     H15552  11.329   9.864   0.972 -0.0629 -0.6627  1.6366
  113MOL0     H15553  11.187   9.926   0.805  0.3849  0.4399 -0.6336
  113MOL0     H15554  11.067   9.799   0.775  1.0948 -2.8845 -1.5702
  113MOL0     H15555  11.192   9.828   0.651  2.2756 -0.3989  0.2416
  113MOL0     H15556  10.920   9.369   0.591  1.9566 -2.9395 -1.6257
  113MOL0     H15557  10.853   9.297   0.376  0.2708 -0.4918  2.9696
  113MOL0     H15558  10.846   9.626   0.062 -0.3954 -1.0821  0.4488
  113MOL0     H15559  10.993   9.565   0.005 -1.6115  4.6348 -0.6640
  113MOL0     H15560  10.725   9.430  -0.040  1.4398  0.6396  1.9683
  113MOL0     H15561  10.803   9.537  -0.159 -3.8155  0.9179  1.6258
  113MOL0     H15562  10.928   9.276  -0.056 -2.0669 -1.3334 -0.4081
  113MOL0     H15563  11.011   9.382  -0.174 -0.0960 -1.1863  0.3811
  113MOL0     H15564  10.791   9.348  -0.318  2.6309  2.8867  1.0531
  113MOL0     H15565  10.763   9.212  -0.210 -0.1422  0.6379  0.7161
  113MOL0     H15566  11.006   9.279  -0.381 -0.2626  0.5094 -1.5171
  113MOL0     H15567  10.998   9.140  -0.277  0.5642 -0.2961 -1.5275
  113MOL0     H15568  10.863   9.214  -0.535 -3.0045  1.8762  2.5837
  113MOL0     H15569  10.788   9.080  -0.448  1.1181 -0.1107  0.4169
  113MOL0     H15570  10.982   8.942  -0.461 -1.5033 -0.1441  0.0544
  113MOL0     H15571  11.094   9.066  -0.522  2.1516 -3.7306 -1.6318
  113MOL0     H15572  10.954   9.083  -0.732  0.2590  0.0627  0.3275
  113MOL0     H15573  10.859   8.957  -0.666  0.4371 -0.9347  3.0462
  113MOL0     H15574  11.049   9.635   0.198 -0.5241 -1.8517 -1.2687
  113MOL0     H15575  11.124   9.710   0.431 -0.2390 -0.3762  1.1498
  113MOL0     H15576  11.285   9.383   0.896 -0.1840 -1.1844  3.6284
  113MOL0     H15577  11.393   9.449   1.088 -0.8144 -0.1425  0.0195
  113MOL0     H15578  11.588  10.013   1.539  0.2618 -0.4449  0.0426
  113MOL0     H15579  11.381   9.904   1.579 -1.0114  2.0780  1.5891
  113MOL0     H15580  11.278   9.481   1.814  0.7188  1.1301  0.8307
  113MOL0     H15581  11.139   9.296   1.829  1.5647  0.0584  1.1971
  113MOL0     H15582  10.689   9.350   1.777 -2.9480 -2.3350  0.5744
  113MOL0     H15583  10.743   9.278   1.621 -3.6812 -0.9785 -1.4798
  113MOL0     H15584  10.729   9.052   1.725  2.5516 -0.9199  4.4452
  113MOL0     H15585  10.587   9.144   1.697  0.0109  0.7614 -0.3599
  113MOL0     H15586  10.681   9.082   1.985 -1.5823 -1.9610 -0.0647
  113MOL0     H15587  10.573   9.214   1.939 -1.7302  0.0798 -1.5699
  113MOL0     H15588  10.550   8.915   1.910  0.3891  0.5745 -1.1875
  113MOL0     H15589  10.443   9.016   1.825 -0.7506 -3.5919 -0.3675
  113MOL0     H15590  10.286   8.979   2.219  1.4067 -0.7733  0.1183
  113MOL0     H15591  10.799   9.536   1.712  0.2144  1.4899 -1.0508
  113MOL0     H15592  10.939   9.831   1.722 -3.8045  1.4758 -1.4697
  113MOL0     H15593  10.976   9.783   1.563 -1.4488  0.6706 -1.3803
  113MOL0     H15594  10.820   9.730   1.628 -1.0195 -0.6273  2.0805
  114MOL0     O15595   3.579   3.674   3.777 -0.8275 -1.0862 -0.1985
  114MOL0     C15596   3.628   3.595   3.700  0.0514 -0.9255  0.3412
  114MOL0     O15597   3.562   3.492   3.650 -1.0819 -0.0874  0.1229
  114MOL0     C15598   3.433   3.497   3.618  1.8195 -0.1576  0.0964
  114MOL0     C15599   3.346   3.418   3.689 -0.4797  0.3010  0.8982
  114MOL0     C15600   3.213   3.409   3.666  0.4375  0.1577  0.3595
  114MOL0     C15601   3.154   3.483   3.554 -0.0254  0.4936  0.0574
  114MOL0     O15602   3.020   3.486   3.527  0.1004  0.3757  0.2259
  114MOL0     C15603   2.929   3.395   3.584  0.0739 -0.1441  0.1979
  114MOL0     C15604   2.788   3.417   3.524 -1.0497  0.4231 -0.5201
  114MOL0     C15605   2.738   3.554   3.559 -0.3017 -0.6175 -0.1113
  114MOL0     C15606   2.585   3.543   3.563 -0.1790 -0.0074  0.0813
  114MOL0     C15607   2.523   3.681   3.585  0.5647 -0.2642  0.7386
  114MOL0     C15608   2.567   3.794   3.489  0.2916  0.9051  0.9365
  114MOL0     C15609   2.479   3.912   3.530 -0.5112  0.1488  0.1145
  114MOL0     C15610   2.486   4.011   3.414 -0.6290 -0.3022 -0.5939
  114MOL0     N15611   2.392   3.989   3.297 -0.6858 -0.2051 -0.9445
  114MOL0     C15612   2.260   3.970   3.313 -0.7041 -0.2735 -0.0396
  114MOL0     C15613   2.223   3.908   3.197  0.7152  1.1045 -0.5014
  114MOL0     C15614   2.085   3.837   3.178  0.8398 -0.1143 -0.1232
  114MOL0     C15615   2.072   3.695   3.233 -0.5013  0.1656 -0.0779
  114MOL0     C15616   2.198   3.609   3.227 -0.1689 -0.0411  0.3217
  114MOL0     C15617   2.254   3.578   3.088 -0.3253  0.1881 -0.5682
  114MOL0     O15618   2.357   3.480   3.109  0.1278 -0.2393  0.2038
  114MOL0     C15619   2.325   3.363   3.051  0.5777 -0.6971 -0.4453
  114MOL0     C15620   2.430   3.295   2.995 -0.0382  0.3399  0.6164
  114MOL0     C15621   2.423   3.171   2.928  0.5298  0.6085 -1.0873
  114MOL0     C15622   2.553   3.095   2.885  0.3086 -0.5256 -0.5195
  114MOL0     C15623   2.288   3.113   2.915 -1.2498 -0.0610  0.3570
  114MOL0     C15624   2.262   2.983   2.851  0.1201  0.2171 -0.1987
  114MOL0     O15625   2.133   2.937   2.851 -0.8423  0.1172 -0.3869
  114MOL0     C15626   2.085   2.877   2.743  0.1319 -0.3327 -0.4953
  114MOL0     C15627   1.985   2.782   2.758  1.2123  0.0903 -0.6127
  114MOL0     C15628   1.940   2.705   2.653  0.2316 -0.2424  1.3493
  114MOL0     C15629   1.976   2.740   2.522 -0.4047  0.1602  0.6658
  114MOL0     O15630   1.935   2.679   2.406  0.6391  0.1268  0.0798
  114MOL0     C15631   1.815   2.605   2.416 -0.1989  0.1527  0.1732
  114MOL0     C15632   1.772   2.552   2.272  0.0425  0.2740 -0.0710
  114MOL0     C15633   1.684   2.432   2.288  0.3449  1.1477 -0.1443
  114MOL0     C15634   1.558   2.466   2.366  0.6447  0.8517 -0.3986
  114MOL0     C15635   1.434   2.382   2.309 -0.1658  0.9517  0.3726
  114MOL0     C15636   1.292   2.448   2.333 -0.4825  0.3417 -0.8184
  114MOL0     C15637   1.265   2.575   2.257 -0.2246 -0.0048  0.5930
  114MOL0     C15638   1.120   2.603   2.251  0.3348 -0.9745 -0.4071
  114MOL0    Cl15639   1.083   2.718   2.120  0.1258 -0.1687  0.1447
  114MOL0     C15640   2.055   2.855   2.499 -0.0603  0.1373  0.5187
  114MOL0     C15641   2.107   2.920   2.613 -0.5914 -0.9845 -0.2272
  114MOL0     O15642   2.353   2.924   2.794 -0.1192  0.1350  0.6517
  114MOL0     C15643   2.184   3.182   2.974 -0.7315 -1.6057 -0.2672
  114MOL0     C15644   2.192   3.308   3.047 -1.0362  0.5386  1.0127
  114MOL0     N15645   2.329   3.912   3.107  0.1585  0.2594 -0.1537
  114MOL0     N15646   2.435   3.953   3.167  0.5481 -0.6544 -0.4157
  114MOL0     C15647   3.238   3.564   3.476 -0.6123  0.0897 -0.0125
  114MOL0     C15648   3.377   3.567   3.508  0.3517 -0.2857 -0.6658
  114MOL0     C15649   3.781   3.603   3.668  0.3237  0.3416  0.6436
  114MOL0     C15650   3.844   3.483   3.643 -0.1119 -0.4178 -0.3519
  114MOL0     C15651   3.983   3.474   3.639 -0.6885 -0.8678 -0.1369
  114MOL0     C15652   4.063   3.595   3.641  0.9630  0.8584  0.1149
  114MOL0     O15653   4.193   3.599   3.597  0.0490  0.1233 -1.0985
  114MOL0     C15654   4.253   3.486   3.530 -0.2533  0.2503 -0.2381
  114MOL0     C15655   4.372   3.522   3.443 -0.2612  0.4702  0.6295
  114MOL0     C15656   4.494   3.576   3.523  1.0354  1.2592  0.4895
  114MOL0     C15657   4.582   3.678   3.457  0.5711  0.3847  0.3147
  114MOL0     C15658   4.708   3.632   3.411 -0.2378  0.0019  0.0166
  114MOL0     C15659   4.820   3.595   3.398  0.2367 -0.3884  0.4730
  114MOL0     C15660   3.993   3.708   3.655  0.2990  0.0706 -1.0073
  114MOL0     C15661   3.856   3.723   3.671 -0.3483 -0.3194  0.7194
  114MOL0     C15662   3.798   3.857   3.709  0.1047 -1.9108  0.9032
  114MOL0     H15663   3.380   3.382   3.786  2.9158  2.5911  0.7361
  114MOL0     H15664   3.150   3.356   3.737 -0.6916 -0.0471 -0.7592
  114MOL0     H15665   2.928   3.417   3.691  1.2452  0.1772  0.1621
  114MOL0     H15666   2.959   3.291   3.564  0.3314  0.2552 -1.7208
  114MOL0     H15667   2.797   3.407   3.415  0.8628 -0.7645 -0.3133
  114MOL0     H15668   2.718   3.340   3.557 -2.1227  1.7260  0.3415
  114MOL0     H15669   2.764   3.582   3.661  1.1348  1.0731 -0.8714
  114MOL0     H15670   2.772   3.634   3.491  0.9231  0.6103  1.8382
  114MOL0     H15671   2.552   3.516   3.463 -0.5744  0.9904 -0.0629
  114MOL0     H15672   2.535   3.482   3.640 -2.7967  0.1964 -1.3245
  114MOL0     H15673   2.529   3.715   3.689 -2.6998  1.3832  0.5092
  114MOL0     H15674   2.416   3.660   3.585  0.4129  0.4860  0.0554
  114MOL0     H15675   2.673   3.809   3.508 -0.1297  0.1240  4.4324
  114MOL0     H15676   2.541   3.757   3.389 -0.3223 -1.2157  1.8154
  114MOL0     H15677   2.521   3.951   3.624 -2.7003  1.5590  0.5634
  114MOL0     H15678   2.378   3.872   3.544  0.0298 -1.9838 -1.4207
  114MOL0     H15679   2.472   4.109   3.460 -2.8974 -0.8453  0.0122
  114MOL0     H15680   2.587   4.020   3.373  0.9056 -3.6100  2.0306
  114MOL0     H15681   2.209   3.980   3.408  0.8832  1.7723  0.6642
  114MOL0     H15682   2.059   3.832   3.072  0.2228 -0.6746  0.0510
  114MOL0     H15683   2.013   3.911   3.213  1.4830  0.8395 -0.7701
  114MOL0     H15684   2.038   3.699   3.337  2.1089  0.7154  0.8164
  114MOL0     H15685   2.001   3.632   3.178  1.9042 -4.1023  1.2043
  114MOL0     H15686   2.279   3.659   3.281  0.0138  1.5235 -1.3234
  114MOL0     H15687   2.174   3.513   3.274  0.4678  0.2241  1.1941
  114MOL0     H15688   2.170   3.552   3.023 -1.2059  1.1248  0.1432
  114MOL0     H15689   2.283   3.671   3.038  0.8968 -1.0861 -2.3498
  114MOL0     H15690   2.523   3.351   2.996  0.0307  0.2266  2.1078
  114MOL0     H15691   2.639   3.154   2.917 -0.4573 -0.8196  2.4437
  114MOL0     H15692   2.559   3.073   2.779 -2.4536  2.0400 -1.3595
  114MOL0     H15693   2.566   3.006   2.947 -2.7173 -1.0044 -0.4222
  114MOL0     H15694   1.951   2.749   2.856 -0.4361 -1.6664 -1.6991
  114MOL0     H15695   1.879   2.617   2.672  1.2176 -1.0854  0.7172
  114MOL0     H15696   1.847   2.522   2.480  3.5900  1.6786  0.5718
  114MOL0     H15697   1.737   2.664   2.463  0.3398  2.7563 -1.9555
  114MOL0     H15698   1.727   2.634   2.216  1.9750  0.9891 -0.6352
  114MOL0     H15699   1.858   2.517   2.215  2.7426  0.5255  3.5165
  114MOL0     H15700   1.735   2.354   2.344 -4.1964 -0.8536  1.6875
  114MOL0     H15701   1.663   2.395   2.187 -1.3365 -0.3201  0.6991
  114MOL0     H15702   1.532   2.572   2.354  2.0704  0.9758 -3.4678
  114MOL0     H15703   1.570   2.452   2.473 -1.6695 -0.0943 -0.2072
  114MOL0     H15704   1.444   2.357   2.203 -4.6669 -0.4595  0.0595
  114MOL0     H15705   1.425   2.285   2.357 -3.3939  1.3887  0.9015
  114MOL0     H15706   1.286   2.464   2.441 -1.1599 -0.9318 -0.6394
  114MOL0     H15707   1.217   2.370   2.320  2.6336 -3.0023 -0.4875
  114MOL0     H15708   1.303   2.558   2.156 -0.0453 -1.5601  0.8874
  114MOL0     H15709   1.314   2.660   2.305  0.3033 -1.6854  3.2502
  114MOL0     H15710   1.091   2.654   2.344 -1.0317  0.2008 -1.4426
  114MOL0     H15711   1.063   2.510   2.239 -0.7723 -0.2606 -0.7653
  114MOL0     H15712   2.066   2.885   2.395 -0.4989 -1.2736  0.0454
  114MOL0     H15713   2.152   3.019   2.614 -3.0050  0.2088  1.9926
  114MOL0     H15714   2.082   3.146   2.976 -1.6700  0.5691 -2.7036
  114MOL0     H15715   2.102   3.347   3.093 -2.4506 -2.7260  1.2670
  114MOL0     H15716   3.197   3.616   3.390  0.3415 -0.7909 -1.0512
  114MOL0     H15717   3.441   3.620   3.438 -0.5079  0.2779 -1.0563
  114MOL0     H15718   3.781   3.395   3.636  0.3797 -0.8250  0.1936
  114MOL0     H15719   4.021   3.372   3.640 -1.3783 -1.1936  2.8019
  114MOL0     H15720   4.280   3.399   3.591  0.4920 -0.3270 -1.3486
  114MOL0     H15721   4.182   3.449   3.455  0.9892  0.3388 -1.4887
  114MOL0     H15722   4.339   3.599   3.372  1.6638 -1.0519 -2.1284
  114MOL0     H15723   4.395   3.439   3.375 -0.0281  1.4873 -0.5726
  114MOL0     H15724   4.442   3.628   3.604  1.0053  0.9555  0.6657
  114MOL0     H15725   4.546   3.494   3.573  1.7607  1.2483 -0.2576
  114MOL0     H15726   4.589   3.768   3.519  0.2328  0.5335  0.1385
  114MOL0     H15727   4.538   3.705   3.360  1.1878 -3.7866 -1.3219
  114MOL0     H15728   4.923   3.597   3.366 -0.5127  0.8438 -2.1862
  114MOL0     H15729   4.053   3.797   3.669 -1.4688  0.8848  2.7839
  114MOL0     H15730   3.871   3.934   3.681 -1.4892 -0.2494  1.0997
  114MOL0     H15731   3.701   3.872   3.661  0.8532 -4.2129 -1.6291
  114MOL0     H15732   3.782   3.864   3.817  3.4386 -1.4117  1.4904
  115MOL0     O15733   3.126   8.983   1.147  0.5070  0.2260  0.6744
  115MOL0     C15734   3.049   8.901   1.091  0.5336 -0.3592  0.5611
  115MOL0     O15735   2.918   8.887   1.130 -0.3559  0.3407  0.7394
  115MOL0     C15736   2.844   8.816   1.052  0.4284 -0.0341  0.4056
  115MOL0     C15737   2.732   8.876   0.986 -0.1535 -0.6461 -0.6809
  115MOL0     C15738   2.658   8.810   0.893 -0.2081  0.9493 -0.6285
  115MOL0     C15739   2.672   8.676   0.873 -0.9044 -0.3134 -0.6921
  115MOL0     O15740   2.592   8.598   0.798  0.1582 -0.1210 -0.0181
  115MOL0     C15741   2.578   8.642   0.664 -0.6475  0.5068 -0.2546
  115MOL0     C15742   2.510   8.558   0.565  0.3353  0.3017  0.3649
  115MOL0     C15743   2.503   8.632   0.428  0.0029  0.1307 -0.1692
  115MOL0     C15744   2.436   8.550   0.311  0.2901  0.3534  0.1528
  115MOL0     C15745   2.371   8.641   0.200  0.0113 -1.3905 -0.1739
  115MOL0     C15746   2.264   8.745   0.247  0.7978  0.2219 -0.7916
  115MOL0     C15747   2.169   8.771   0.133  0.3592  0.1905  0.5634
  115MOL0     C15748   2.065   8.669   0.121  0.6557  0.4364 -0.0497
  115MOL0     N15749   1.957   8.715   0.023  1.0142 -0.0580 -0.6972
  115MOL0     C15750   1.840   8.779   0.060  0.0412  0.7210  1.2625
  115MOL0     C15751   1.769   8.795  -0.059 -0.2748 -0.2001  0.1878
  115MOL0     C15752   1.624   8.848  -0.066 -0.4957 -0.7486  0.4915
  115MOL0     C15753   1.535   8.728  -0.070 -0.1683  0.6958 -0.4321
  115MOL0     C15754   1.387   8.784  -0.087 -0.3163  0.4589 -0.0371
  115MOL0     C15755   1.283   8.671  -0.114  0.2695 -0.0207  0.9876
  115MOL0     O15756   1.149   8.714  -0.116  0.4944  0.4512  0.0821
  115MOL0     C15757   1.110   8.782  -0.230  0.9384 -1.2201  0.0670
  115MOL0     C15758   1.186   8.830  -0.337  0.4200  0.7306 -0.1441
  115MOL0     C15759   1.116   8.886  -0.454  0.1547  0.0603 -0.7613
  115MOL0     C15760   1.195   8.898  -0.588  0.2117 -0.5309  1.0509
  115MOL0     C15761   0.980   8.932  -0.435  0.4556 -0.3608 -0.6431
  115MOL0     C15762   0.909   9.024  -0.522  0.0447  0.4289  0.6953
  115MOL0     O15763   0.783   8.984  -0.561  0.5469 -0.5167  0.0746
  115MOL0     C15764   0.728   9.081  -0.646 -0.3958  0.3415  1.0945
  115MOL0     C15765   0.648   9.188  -0.600  0.6507  0.7458  0.8568
  115MOL0     C15766   0.615   9.295  -0.685  0.0745 -1.3704  0.0261
  115MOL0     C15767   0.638   9.278  -0.823  0.2119 -0.0520  0.4141
  115MOL0     O15768   0.581   9.369  -0.908  0.3903 -0.1377  0.4483
  115MOL0     C15769   0.572   9.350  -1.046  0.0584  0.0262 -0.0072
  115MOL0     C15770   0.481   9.450  -1.120  0.3891 -0.9816 -0.2294
  115MOL0     C15771   0.491   9.436  -1.270  0.1526  0.0445  0.6376
  115MOL0     C15772   0.475   9.567  -1.347  0.5559  0.1928 -0.2316
  115MOL0     C15773   0.495   9.520  -1.494  0.2690 -0.0443  0.0949
  115MOL0     C15774   0.434   9.631  -1.587  0.3598  0.5412  0.1179
  115MOL0     C15775   0.442   9.583  -1.730  0.0588  0.5383 -0.7837
  115MOL0     C15776   0.449   9.713  -1.814  0.0404  0.4766  0.1044
  115MOL0    Cl15777   0.455   9.699  -1.988 -0.3213 -0.0103  0.5530
  115MOL0     C15778   0.712   9.170  -0.866 -0.8839  0.7047 -0.3310
  115MOL0     C15779   0.751   9.070  -0.783 -0.2238 -0.7329 -0.6870
  115MOL0     O15780   0.964   9.132  -0.540 -0.5717  0.8910 -0.5684
  115MOL0     C15781   0.914   8.898  -0.322  0.3636 -0.6824 -0.5166
  115MOL0     C15782   0.973   8.815  -0.227 -0.2105 -0.7899 -0.1893
  115MOL0     N15783   1.850   8.731  -0.156  0.3178 -0.6853 -0.8518
  115MOL0     N15784   1.958   8.681  -0.108  0.5385  0.2550 -0.8173
  115MOL0     C15785   2.765   8.607   0.952 -0.5004  0.5963 -0.3583
  115MOL0     C15786   2.859   8.681   1.025  0.4431 -0.0906 -1.1108
  115MOL0     C15787   3.113   8.816   0.987 -0.0151  0.2058 -0.3780
  115MOL0     C15788   3.185   8.701   1.027 -0.2082  0.5998  0.0356
  115MOL0     C15789   3.240   8.621   0.926 -0.6366 -0.5480  0.8543
  115MOL0     C15790   3.242   8.669   0.789  0.1956  0.3124 -0.5651
  115MOL0     O15791   3.317   8.597   0.695 -0.2428 -0.5830  0.5371
  115MOL0     C15792   3.351   8.656   0.563  0.4780 -0.0327 -0.3462
  115MOL0     C15793   3.494   8.626   0.526 -0.4972 -0.0721 -0.2837
  115MOL0     C15794   3.491   8.512   0.420  0.5070 -0.3171 -0.7517
  115MOL0     C15795   3.630   8.458   0.375 -0.3094 -0.2785 -0.7253
  115MOL0     C15796   3.622   8.344   0.281  0.1435 -0.3627  0.2549
  115MOL0     C15797   3.596   8.238   0.218 -0.2433  0.1904  1.4067
  115MOL0     C15798   3.162   8.776   0.757  0.3114  0.2677  0.5864
  115MOL0     C15799   3.094   8.850   0.853 -0.5934  0.4811 -0.1883
  115MOL0     C15800   3.007   8.965   0.796  0.0960 -0.9392 -0.2181
  115MOL0     H15801   2.705   8.980   0.995 -0.6586 -0.7627 -0.8315
  115MOL0     H15802   2.587   8.874   0.841  1.3915  3.6919  0.3028
  115MOL0     H15803   2.682   8.653   0.635  0.3011 -2.7589  1.3973
  115MOL0     H15804   2.521   8.736   0.659  0.0935  1.3588  3.5457
  115MOL0     H15805   2.564   8.464   0.551 -2.7552 -1.1509 -4.3855
  115MOL0     H15806   2.414   8.527   0.606  1.2533  1.2490  3.5251
  115MOL0     H15807   2.444   8.720   0.458  0.1172 -0.0002  0.4616
  115MOL0     H15808   2.602   8.658   0.389  1.8328 -4.1341  1.0807
  115MOL0     H15809   2.513   8.478   0.281 -0.4902 -0.0612 -0.9238
  115MOL0     H15810   2.355   8.489   0.354 -0.1157  0.9484  0.2391
  115MOL0     H15811   2.322   8.577   0.126  0.6628 -1.0225 -0.9431
  115MOL0     H15812   2.445   8.698   0.143 -0.6276 -0.7012 -0.3329
  115MOL0     H15813   2.214   8.703   0.335  0.0012  2.1887 -0.2507
  115MOL0     H15814   2.303   8.844   0.272 -3.3059  2.3774 -1.9666
  115MOL0     H15815   2.220   8.799   0.040  1.7745 -2.8782  0.2788
  115MOL0     H15816   2.112   8.860   0.161 -0.9423 -1.0524  2.0831
  115MOL0     H15817   2.110   8.577   0.082 -0.2231  1.3066 -3.4011
  115MOL0     H15818   2.019   8.649   0.219  0.4958 -0.0191 -0.2172
  115MOL0     H15819   1.805   8.799   0.161  0.5891  2.0497  1.2149
  115MOL0     H15820   1.618   8.910  -0.156  3.7965  1.7466  1.6390
  115MOL0     H15821   1.600   8.923   0.010 -1.0675  0.0854 -0.4816
  115MOL0     H15822   1.573   8.671  -0.155  0.9717  1.7360 -0.6429
  115MOL0     H15823   1.544   8.669   0.022 -0.3621 -1.4331 -1.7085
  115MOL0     H15824   1.363   8.836   0.006  1.1489 -1.1905  1.3405
  115MOL0     H15825   1.387   8.856  -0.170  2.9262  0.6091 -0.0252
  115MOL0     H15826   1.290   8.620  -0.210  0.5333  3.3376 -0.9107
  115MOL0     H15827   1.285   8.592  -0.038  0.3590 -0.9911  0.0102
  115MOL0     H15828   1.290   8.799  -0.339  0.0720 -0.6525  1.2545
  115MOL0     H15829   1.215   9.002  -0.616 -0.3335 -0.7477 -0.2254
  115MOL0     H15830   1.142   8.854  -0.673 -1.7323  1.4885  1.1278
  115MOL0     H15831   1.293   8.851  -0.575  1.7023  1.8417 -0.8558
  115MOL0     H15832   0.611   9.201  -0.498 -3.2864  0.6330 -0.4041
  115MOL0     H15833   0.564   9.388  -0.667 -0.2236 -1.6145  0.4711
  115MOL0     H15834   0.672   9.359  -1.089 -0.9496  0.9765 -2.3653
  115MOL0     H15835   0.537   9.250  -1.073  0.1775  0.2705 -1.1362
  115MOL0     H15836   0.373   9.436  -1.102  0.0299 -1.1293 -2.2599
  115MOL0     H15837   0.501   9.552  -1.086  0.8552 -0.3027 -2.4215
  115MOL0     H15838   0.418   9.360  -1.298  1.2475 -0.2731 -1.5364
  115MOL0     H15839   0.587   9.386  -1.289  0.0482  0.0054  0.2012
  115MOL0     H15840   0.554   9.638  -1.318  0.4407  0.5691 -0.8282
  115MOL0     H15841   0.376   9.610  -1.330 -0.1350 -0.4088 -2.3948
  115MOL0     H15842   0.599   9.517  -1.528 -0.2884 -1.1934 -1.6233
  115MOL0     H15843   0.449   9.425  -1.521  3.5736 -1.9415  0.5458
  115MOL0     H15844   0.497   9.720  -1.581  1.9752 -0.4177 -1.6450
  115MOL0     H15845   0.328   9.648  -1.562 -0.1980  0.3568 -1.9474
  115MOL0     H15846   0.369   9.505  -1.757  2.8014 -1.3414 -3.3708
  115MOL0     H15847   0.536   9.528  -1.741  0.0590  0.5741 -0.9541
  115MOL0     H15848   0.529   9.779  -1.778 -1.3248  2.2742 -0.0088
  115MOL0     H15849   0.362   9.773  -1.784 -0.0354  0.3519  0.1356
  115MOL0     H15850   0.732   9.139  -0.968  3.5965 -0.7358  0.7904
  115MOL0     H15851   0.803   8.988  -0.831  2.8561  2.2779 -3.0159
  115MOL0     H15852   0.806   8.903  -0.330  0.3420 -1.0085 -0.4201
  115MOL0     H15853   0.922   8.767  -0.143 -2.5146  0.5168 -0.7590
  115MOL0     H15854   2.754   8.501   0.929  2.0143  0.6193 -2.0745
  115MOL0     H15855   2.937   8.628   1.079 -0.2776 -1.9316 -1.8044
  115MOL0     H15856   3.197   8.672   1.131  1.7446 -1.7819 -0.7604
  115MOL0     H15857   3.294   8.530   0.949 -0.4699 -0.9813 -1.1161
  115MOL0     H15858   3.277   8.644   0.483  2.2310  0.6386 -2.1572
  115MOL0     H15859   3.339   8.763   0.583 -1.5499 -0.3309  0.3524
  115MOL0     H15860   3.551   8.587   0.611  0.5144 -2.2353 -1.8483
  115MOL0     H15861   3.551   8.711   0.486  0.9466  1.0768  3.7800
  115MOL0     H15862   3.431   8.425   0.447  0.2524  0.0483 -0.1280
  115MOL0     H15863   3.451   8.548   0.325  0.7509  0.7411 -0.4684
  115MOL0     H15864   3.678   8.422   0.466  1.8625  1.5237 -1.0784
  115MOL0     H15865   3.690   8.538   0.331 -3.2697  2.3575 -0.3186
  115MOL0     H15866   3.591   8.153   0.152 -0.6252  0.2340  1.3750
  115MOL0     H15867   3.154   8.815   0.656  1.4296  1.8906  1.0804
  115MOL0     H15868   3.008   9.052   0.862 -3.7834  0.8455 -2.1947
  115MOL0     H15869   3.041   9.006   0.700  1.6273 -0.1319  0.6419
  115MOL0     H15870   2.908   8.924   0.773  0.2273 -1.3601 -0.0313
  116MOL0     O15871   6.890   6.561   5.528  0.2986  0.2012 -0.0633
  116MOL0     C15872   6.801   6.641   5.532 -0.1777 -0.8340  0.1276
  116MOL0     O15873   6.789   6.737   5.437  0.3914 -0.7269  0.2139
  116MOL0     C15874   6.836   6.727   5.312  0.3364  0.3783  0.1708
  116MOL0     C15875   6.746   6.673   5.211  0.5086  0.6290 -0.5065
  116MOL0     C15876   6.777   6.684   5.078 -0.7748  0.2690  0.3837
  116MOL0     C15877   6.903   6.728   5.040  0.0588 -0.6081 -0.2361
  116MOL0     O15878   6.956   6.723   4.914  0.4889  0.8932  0.7135
  116MOL0     C15879   6.874   6.734   4.797  0.3632  0.6066 -0.1348
  116MOL0     C15880   6.952   6.779   4.668  0.1147 -0.0328  0.2790
  116MOL0     C15881   7.086   6.692   4.656 -0.1855 -1.2157  0.4861
  116MOL0     C15882   7.049   6.544   4.631 -1.1735 -0.2564  0.9224
  116MOL0     C15883   7.156   6.454   4.553 -0.1638 -0.3921 -0.5897
  116MOL0     C15884   7.128   6.307   4.559 -0.5932  1.3032 -0.0441
  116MOL0     C15885   7.195   6.246   4.430 -0.2178 -0.1869 -0.1976
  116MOL0     C15886   7.233   6.092   4.447 -0.7938  0.4299 -0.3152
  116MOL0     N15887   7.112   6.012   4.428 -0.3119  0.2861  0.1962
  116MOL0     C15888   7.062   5.982   4.306  0.2627  0.3498 -0.9485
  116MOL0     C15889   6.980   5.874   4.330 -0.4851 -0.8760  0.9203
  116MOL0     C15890   6.909   5.781   4.231 -0.6264 -0.4761 -1.1301
  116MOL0     C15891   6.850   5.848   4.099  0.1872  0.4889  1.0934
  116MOL0     C15892   6.958   5.911   4.015  0.0426  0.0499  0.0616
  116MOL0     C15893   6.944   5.897   3.869 -0.4333 -0.8443 -0.1996
  116MOL0     O15894   6.966   5.759   3.843  0.4574  0.3815  0.4483
  116MOL0     C15895   6.942   5.702   3.714 -0.3985 -0.0521 -0.6177
  116MOL0     C15896   6.962   5.778   3.599 -0.9226 -0.2476  0.0008
  116MOL0     C15897   6.926   5.728   3.475 -0.0124  0.0064  0.0110
  116MOL0     C15898   6.952   5.821   3.358  0.1870 -0.0711  0.3083
  116MOL0     C15899   6.877   5.596   3.458  0.0972  0.3261  0.1393
  116MOL0     C15900   6.830   5.535   3.331 -0.0113 -0.2114 -0.3264
  116MOL0     O15901   6.782   5.409   3.333 -0.6062  0.2834 -0.2097
  116MOL0     C15902   6.749   5.330   3.224  0.1303 -0.5599 -0.5531
  116MOL0     C15903   6.740   5.351   3.087  0.4755  0.7472 -1.0015
  116MOL0     C15904   6.668   5.256   3.001 -0.1387  0.1651 -0.5734
  116MOL0     C15905   6.610   5.139   3.055  0.0605  0.3168 -0.2438
  116MOL0     O15906   6.547   5.049   2.958 -0.3779 -0.4125 -0.2528
  116MOL0     C15907   6.484   4.939   3.023 -0.0328  0.6445 -0.0730
  116MOL0     C15908   6.398   4.841   2.943 -0.2987  0.4936  0.4926
  116MOL0     C15909   6.480   4.738   2.860  0.3715  0.1036  0.4322
  116MOL0     C15910   6.548   4.810   2.743  0.8375  0.0508 -0.0109
  116MOL0     C15911   6.611   4.727   2.635 -0.1502  0.2349  0.1012
  116MOL0     C15912   6.511   4.629   2.566  0.1132 -0.5368  0.2735
  116MOL0     C15913   6.491   4.664   2.423 -0.1780  0.5843 -0.3028
  116MOL0     C15914   6.434   4.805   2.401  0.5807 -0.1188  1.2166
  116MOL0    Cl15915   6.265   4.836   2.440 -0.2339 -0.1656  0.2867
  116MOL0     C15916   6.624   5.113   3.193  0.7219  0.5986 -0.0979
  116MOL0     C15917   6.690   5.213   3.273  0.3537 -0.0822  0.0664
  116MOL0     O15918   6.829   5.602   3.232 -0.5249 -0.4051  0.5886
  116MOL0     C15919   6.858   5.522   3.580 -0.5985 -0.1079  0.8046
  116MOL0     C15920   6.892   5.572   3.703 -0.2537 -0.1869 -0.3843
  116MOL0     N15921   6.985   5.851   4.472  0.1116 -0.3174 -0.4010
  116MOL0     N15922   7.061   5.940   4.525  0.1440 -0.3329  0.2482
  116MOL0     C15923   7.000   6.777   5.135 -0.5822  0.8522  0.0093
  116MOL0     C15924   6.962   6.784   5.277 -0.1926  0.1584  0.5583
  116MOL0     C15925   6.694   6.646   5.635 -0.0087 -0.0861  0.1208
  116MOL0     C15926   6.560   6.675   5.602 -0.3581 -0.5265  0.4880
  116MOL0     C15927   6.460   6.695   5.696 -0.4347  0.1150 -0.1304
  116MOL0     C15928   6.482   6.660   5.834  0.5730 -0.4900  0.7163
  116MOL0     O15929   6.384   6.680   5.926 -0.6583 -0.5089  0.5662
  116MOL0     C15930   6.400   6.655   6.066  0.7025 -0.0324 -0.5543
  116MOL0     C15931   6.268   6.644   6.147 -0.1383 -0.2079  0.6974
  116MOL0     C15932   6.290   6.643   6.299 -0.2224 -0.0727 -0.5116
  116MOL0     C15933   6.364   6.767   6.356  0.0517  0.1703  0.2280
  116MOL0     C15934   6.508   6.753   6.363 -0.7781  0.4233  0.2178
  116MOL0     C15935   6.631   6.742   6.363 -0.0885 -0.0447 -0.4737
  116MOL0     C15936   6.613   6.612   5.868  0.0767 -0.5463  0.5693
  116MOL0     C15937   6.716   6.613   5.774 -0.5955 -0.3129  0.7667
  116MOL0     C15938   6.853   6.573   5.818 -0.2942  0.1181 -0.2299
  116MOL0     H15939   6.657   6.631   5.257  1.0116  0.1774  0.0713
  116MOL0     H15940   6.709   6.648   5.002 -1.0435  0.1384  0.6813
  116MOL0     H15941   6.790   6.804   4.802 -0.1037  0.2085 -1.9307
  116MOL0     H15942   6.823   6.640   4.774  1.9128 -0.0393 -1.0980
  116MOL0     H15943   6.880   6.771   4.586 -1.5337  3.7901  1.1236
  116MOL0     H15944   6.976   6.885   4.660 -0.2842  0.0801  0.5069
  116MOL0     H15945   7.140   6.715   4.564  0.1417 -3.1838  0.1420
  116MOL0     H15946   7.152   6.698   4.743  2.2319 -1.2114 -1.2690
  116MOL0     H15947   7.037   6.500   4.730 -1.5080  0.7283  1.3294
  116MOL0     H15948   6.958   6.541   4.570 -0.2979  3.0549 -0.8014
  116MOL0     H15949   7.258   6.472   4.588 -0.3477  0.3313 -0.4231
  116MOL0     H15950   7.155   6.486   4.448  3.3516  1.3269 -0.2382
  116MOL0     H15951   7.186   6.275   4.646 -0.1795 -0.2725 -0.8718
  116MOL0     H15952   7.021   6.290   4.564 -0.4054 -0.1460 -0.6484
  116MOL0     H15953   7.282   6.301   4.395  0.2750 -0.4787  0.5495
  116MOL0     H15954   7.122   6.244   4.348 -1.3234 -2.6335  0.7387
  116MOL0     H15955   7.307   6.054   4.376  1.7081 -1.2050  2.9463
  116MOL0     H15956   7.276   6.085   4.547 -2.5395 -1.5473  0.3726
  116MOL0     H15957   7.095   6.032   4.216  1.8358 -0.6104 -0.9430
  116MOL0     H15958   6.826   5.746   4.293 -2.0990  2.5255 -1.2588
  116MOL0     H15959   6.976   5.703   4.193  0.6933  0.2653 -0.4112
  116MOL0     H15960   6.778   5.787   4.044  0.4372 -1.6867  3.0612
  116MOL0     H15961   6.788   5.930   4.136  1.7068  0.4551  3.9703
  116MOL0     H15962   6.966   6.018   4.036 -1.0547  0.2105 -0.2741
  116MOL0     H15963   7.050   5.862   4.049 -1.2043 -0.8114  2.4322
  116MOL0     H15964   6.857   5.932   3.813  2.3514  3.3846 -2.4541
  116MOL0     H15965   7.029   5.955   3.833 -0.6937 -0.9741 -1.0488
  116MOL0     H15966   7.008   5.874   3.618  0.3848 -0.5909 -1.2456
  116MOL0     H15967   6.999   5.913   3.393  0.0655 -0.5245  1.7709
  116MOL0     H15968   6.857   5.855   3.315  1.1234 -0.2778 -2.0310
  116MOL0     H15969   7.012   5.773   3.281 -0.9985 -0.2908 -0.5082
  116MOL0     H15970   6.772   5.445   3.042  0.6599  1.8360  1.2516
  116MOL0     H15971   6.639   5.271   2.897 -0.3509  2.2413 -0.2483
  116MOL0     H15972   6.555   4.872   3.071  0.8676  0.8345 -1.0942
  116MOL0     H15973   6.423   4.978   3.105  0.3436 -0.2952  0.6692
  116MOL0     H15974   6.330   4.787   3.009 -0.7158 -1.2149 -1.2681
  116MOL0     H15975   6.333   4.899   2.877 -2.3708 -2.0482  0.1224
  116MOL0     H15976   6.416   4.657   2.825 -0.1892  0.4999  0.5276
  116MOL0     H15977   6.554   4.692   2.927  0.9420 -1.9442 -1.4879
  116MOL0     H15978   6.624   4.883   2.772  1.4547 -1.0787  1.3704
  116MOL0     H15979   6.470   4.878   2.709  0.7899  2.1230  3.7423
  116MOL0     H15980   6.671   4.785   2.564  1.1782 -1.3859 -0.1660
  116MOL0     H15981   6.677   4.666   2.697 -0.4085  0.9526  1.1089
  116MOL0     H15982   6.412   4.642   2.610  0.3688 -1.1906  1.0745
  116MOL0     H15983   6.538   4.523   2.576 -0.8140 -0.6064  2.8581
  116MOL0     H15984   6.438   4.588   2.366  2.9059 -0.6185 -1.7936
  116MOL0     H15985   6.591   4.658   2.379 -1.6191 -1.6825 -3.7130
  116MOL0     H15986   6.452   4.837   2.298 -1.3384 -0.2402  0.8128
  116MOL0     H15987   6.502   4.871   2.456  0.5717  0.7483  0.2232
  116MOL0     H15988   6.591   5.025   3.248  1.1818  0.4032 -0.1346
  116MOL0     H15989   6.694   5.198   3.381 -2.1844  0.2401  0.2647
  116MOL0     H15990   6.822   5.421   3.590  0.9086 -0.5625  1.9688
  116MOL0     H15991   6.872   5.522   3.798 -1.7421  1.5739  0.3078
  116MOL0     H15992   7.103   6.800   5.110 -0.8568 -0.3261 -2.4904
  116MOL0     H15993   7.039   6.830   5.339 -0.5535  5.6953 -2.4859
  116MOL0     H15994   6.532   6.693   5.498 -1.5736 -0.2341  0.8566
  116MOL0     H15995   6.365   6.736   5.662  1.3631  2.9137 -2.2640
  116MOL0     H15996   6.461   6.566   6.083  4.5531  1.5225 -4.2768
  116MOL0     H15997   6.467   6.727   6.114 -0.1483  0.9303 -0.7579
  116MOL0     H15998   6.213   6.551   6.128 -2.1169  0.7711  1.3121
  116MOL0     H15999   6.195   6.723   6.127  1.5954  2.4582  3.9626
  116MOL0     H16000   6.191   6.637   6.345  0.7526 -2.5790  1.5422
  116MOL0     H16001   6.341   6.553   6.334  1.4248  0.9792 -0.0373
  116MOL0     H16002   6.345   6.780   6.463  3.2542  0.4121  0.8794
  116MOL0     H16003   6.334   6.864   6.316 -0.6092  0.0918  0.5199
  116MOL0     H16004   6.738   6.730   6.363  0.0429  0.9128  0.7300
  116MOL0     H16005   6.636   6.586   5.971 -1.8989 -0.3669  1.1014
  116MOL0     H16006   6.865   6.467   5.794 -0.0191 -0.7376  3.2123
  116MOL0     H16007   6.927   6.637   5.768  1.0288 -2.9560 -2.5248
  116MOL0     H16008   6.868   6.576   5.926  1.8036 -4.2938 -0.1780
  117MOL0     O16009   7.339   1.613   7.578 -0.1250 -0.0879 -0.6036
  117MOL0     C16010   7.444   1.552   7.608  0.9913 -0.2242 -0.1627
  117MOL0     O16011   7.545   1.504   7.525 -0.4524 -0.9110 -0.3199
  117MOL0     C16012   7.580   1.591   7.424  0.2339 -0.1449  0.1895
  117MOL0     C16013   7.695   1.554   7.353  0.0768 -0.7513  0.4697
  117MOL0     C16014   7.739   1.618   7.238  0.1983 -0.6168  0.4112
  117MOL0     C16015   7.667   1.729   7.185  0.5168 -0.5326  0.3788
  117MOL0     O16016   7.687   1.796   7.069  0.0790  0.0477 -0.2216
  117MOL0     C16017   7.823   1.796   7.025 -0.3019 -0.3784  0.6553
  117MOL0     C16018   7.838   1.903   6.915 -0.3115  0.2720  0.3141
  117MOL0     C16019   7.945   1.875   6.810  0.9102  1.3913 -0.6385
  117MOL0     C16020   8.097   1.864   6.869  0.2268  0.1856 -0.2543
  117MOL0     C16021   8.204   1.804   6.780  0.1807  0.4892 -0.1379
  117MOL0     C16022   8.199   1.866   6.644 -0.3201  0.7816  0.5720
  117MOL0     C16023   8.320   1.833   6.545 -0.2082  0.0393  0.0861
  117MOL0     C16024   8.319   1.678   6.515  0.9210  0.2211 -0.9652
  117MOL0     N16025   8.419   1.647   6.413  0.9117  0.9266 -0.6159
  117MOL0     C16026   8.445   1.713   6.299 -0.0219  0.2087  1.0983
  117MOL0     C16027   8.563   1.662   6.255  0.0448 -0.4201  0.7255
  117MOL0     C16028   8.620   1.693   6.124 -0.4141 -0.4411 -0.2307
  117MOL0     C16029   8.584   1.608   6.007 -0.4586 -0.2913 -0.2560
  117MOL0     C16030   8.446   1.645   5.950  0.4478 -1.0308 -0.2880
  117MOL0     C16031   8.428   1.596   5.810  0.2518  0.1314 -0.9015
  117MOL0     O16032   8.306   1.643   5.767  0.1885  0.3977 -1.5959
  117MOL0     C16033   8.264   1.598   5.642 -0.1571 -0.0657 -0.6869
  117MOL0     C16034   8.146   1.666   5.592 -1.0615  0.9974 -0.2858
  117MOL0     C16035   8.095   1.632   5.471 -1.1349 -0.3094 -0.0203
  117MOL0     C16036   7.979   1.723   5.420  0.4011  0.1076 -0.9352
  117MOL0     C16037   8.158   1.525   5.401  0.6177  0.4078  0.2269
  117MOL0     C16038   8.091   1.477   5.271 -1.2300  0.6642 -0.6269
  117MOL0     O16039   7.956   1.467   5.279  0.0629 -0.4869  0.1758
  117MOL0     C16040   7.887   1.448   5.158 -0.5989  1.1794 -1.5198
  117MOL0     C16041   7.852   1.557   5.074 -0.3461 -0.5325  0.3528
  117MOL0     C16042   7.796   1.543   4.949 -0.5930 -0.0306  0.0068
  117MOL0     C16043   7.769   1.417   4.905 -0.1807  0.9785  0.7774
  117MOL0     O16044   7.716   1.380   4.780  0.3816 -0.1085 -0.6164
  117MOL0     C16045   7.682   1.473   4.678  0.4211  0.1133  1.3025
  117MOL0     C16046   7.691   1.418   4.528  0.3423 -0.5000 -0.5949
  117MOL0     C16047   7.582   1.312   4.523 -0.0129  0.4000  0.1693
  117MOL0     C16048   7.607   1.233   4.389  0.2786 -0.3021 -0.4678
  117MOL0     C16049   7.516   1.112   4.370  0.0388  0.3610 -1.2656
  117MOL0     C16050   7.518   1.055   4.230  0.5303 -0.2404 -0.6821
  117MOL0     C16051   7.466   0.905   4.233 -0.4387  0.0979 -0.0484
  117MOL0     C16052   7.548   0.800   4.148 -0.1897 -0.3431  0.0047
  117MOL0    Cl16053   7.594   0.867   3.983  0.0184  0.1890  0.0445
  117MOL0     C16054   7.802   1.314   4.986 -0.2057  0.8785 -0.2753
  117MOL0     C16055   7.860   1.322   5.108  0.8901 -0.4529 -0.3999
  117MOL0     O16056   8.160   1.446   5.178 -0.0125  0.0956  0.0635
  117MOL0     C16057   8.272   1.463   5.449  1.1772  0.4912 -0.5910
  117MOL0     C16058   8.331   1.500   5.565  0.3038 -0.4566 -1.2137
  117MOL0     N16059   8.611   1.579   6.359 -0.4383 -0.0903  0.4402
  117MOL0     N16060   8.521   1.582   6.455 -1.2521  0.1687 -0.0663
  117MOL0     C16061   7.557   1.769   7.254  0.0528  0.3493  0.5375
  117MOL0     C16062   7.519   1.710   7.371  0.5533  0.3329 -0.9186
  117MOL0     C16063   7.481   1.557   7.750 -0.2006  0.3785  0.1375
  117MOL0     C16064   7.617   1.542   7.783  0.1135 -0.6000 -0.2090
  117MOL0     C16065   7.661   1.528   7.917  0.1506  0.5827 -0.2420
  117MOL0     C16066   7.572   1.540   8.019  0.0850 -0.4170 -0.3405
  117MOL0     O16067   7.598   1.545   8.162 -0.3871 -0.3819  0.2274
  117MOL0     C16068   7.735   1.502   8.199  0.1658  0.0472 -0.9886
  117MOL0     C16069   7.716   1.417   8.333 -0.2496  0.4418 -0.0068
  117MOL0     C16070   7.835   1.330   8.370  0.2381  0.1744  0.1186
  117MOL0     C16071   7.880   1.222   8.261 -1.0718  0.9965  0.1464
  117MOL0     C16072   7.980   1.126   8.309 -0.3760 -0.6166 -0.4547
  117MOL0     C16073   8.059   1.042   8.340  0.0489 -0.0617 -0.1986
  117MOL0     C16074   7.437   1.564   7.984  0.7954  0.4576 -0.1967
  117MOL0     C16075   7.382   1.568   7.861  0.6110 -0.4943  0.7638
  117MOL0     C16076   7.233   1.586   7.839 -0.2224 -0.0449  0.0086
  117MOL0     H16077   7.760   1.484   7.404  0.8777  0.1495  0.7163
  117MOL0     H16078   7.828   1.602   7.178 -1.0034  3.5406 -2.9697
  117MOL0     H16079   7.850   1.700   6.979 -2.2930  0.0823 -1.6343
  117MOL0     H16080   7.883   1.814   7.115 -0.8960 -0.8694  1.1566
  117MOL0     H16081   7.743   1.911   6.863 -1.4238 -1.3970  1.9598
  117MOL0     H16082   7.862   2.004   6.948  1.4876  0.2799 -0.8499
  117MOL0     H16083   7.918   1.784   6.757 -2.4093  1.8261  0.0976
  117MOL0     H16084   7.946   1.960   6.741  0.5307  2.0929  0.2125
  117MOL0     H16085   8.133   1.963   6.897 -0.2234  0.3863 -0.3802
  117MOL0     H16086   8.102   1.820   6.969  2.6337  3.7942  1.4316
  117MOL0     H16087   8.179   1.698   6.774  3.1571 -0.1876 -2.6302
  117MOL0     H16088   8.306   1.820   6.818  1.0137  0.6312 -2.3279
  117MOL0     H16089   8.105   1.850   6.592 -0.3329  2.8216 -0.0931
  117MOL0     H16090   8.200   1.974   6.656  2.9349  0.9133  0.1704
  117MOL0     H16091   8.418   1.856   6.589 -0.1584  1.2462 -0.6125
  117MOL0     H16092   8.313   1.886   6.450  3.4423  0.5522 -0.0387
  117MOL0     H16093   8.352   1.632   6.609  0.4499 -1.3963 -1.5663
  117MOL0     H16094   8.222   1.646   6.475  1.7208  0.5328 -3.2692
  117MOL0     H16095   8.379   1.779   6.242 -0.7133 -1.2159  0.1976
  117MOL0     H16096   8.723   1.661   6.142 -0.4993 -0.6508 -0.1145
  117MOL0     H16097   8.606   1.798   6.099 -1.6132 -0.3548  0.7447
  117MOL0     H16098   8.660   1.619   5.928 -0.4458 -3.0356 -0.7413
  117MOL0     H16099   8.592   1.503   6.037  2.7769 -0.5950 -1.6791
  117MOL0     H16100   8.374   1.602   6.021 -0.2148  0.9379  0.3031
  117MOL0     H16101   8.422   1.751   5.965  0.8573 -0.6004 -2.3384
  117MOL0     H16102   8.509   1.628   5.744  0.0962  1.4866 -0.4532
  117MOL0     H16103   8.424   1.486   5.813  4.1505 -0.2256  3.9560
  117MOL0     H16104   8.101   1.735   5.663 -0.1713  1.5204 -0.2176
  117MOL0     H16105   7.884   1.685   5.459  0.9501 -2.1085 -1.5985
  117MOL0     H16106   7.972   1.727   5.311 -4.8702  0.7490 -0.8474
  117MOL0     H16107   7.981   1.821   5.469 -4.3970  0.3284 -0.7090
  117MOL0     H16108   7.851   1.655   5.120  3.2099  0.8892 -2.0738
  117MOL0     H16109   7.774   1.633   4.893 -0.4695 -1.0280 -1.7118
  117MOL0     H16110   7.585   1.503   4.719 -0.5539  2.3341 -2.1488
  117MOL0     H16111   7.747   1.561   4.682  2.4556 -1.0252 -2.1270
  117MOL0     H16112   7.668   1.497   4.456  0.3091  0.3912  0.3744
  117MOL0     H16113   7.793   1.381   4.521  0.6436  0.2354 -0.2228
  117MOL0     H16114   7.485   1.361   4.528  0.7237  2.4561 -2.9755
  117MOL0     H16115   7.598   1.242   4.606  1.1426  1.4445  0.8533
  117MOL0     H16116   7.707   1.189   4.382  1.0366  1.5858 -2.6402
  117MOL0     H16117   7.585   1.295   4.302  0.1332 -0.4444 -0.5325
  117MOL0     H16118   7.545   1.033   4.439 -2.2641  1.6704  1.3916
  117MOL0     H16119   7.415   1.142   4.398 -0.1126  0.7806 -2.1996
  117MOL0     H16120   7.623   1.055   4.200  1.1524  2.1243  1.1634
  117MOL0     H16121   7.457   1.102   4.152  1.5261 -1.1626 -2.0855
  117MOL0     H16122   7.361   0.911   4.202 -0.8643  0.3684  1.3503
  117MOL0     H16123   7.453   0.865   4.334  2.1357  0.8460  0.6384
  117MOL0     H16124   7.498   0.705   4.130  0.3920 -0.4398 -1.2072
  117MOL0     H16125   7.634   0.776   4.211  1.2247  1.0101 -1.2901
  117MOL0     H16126   7.781   1.218   4.940  2.1101  0.8398 -1.3868
  117MOL0     H16127   7.880   1.232   5.165 -2.2031 -0.4254  0.9154
  117MOL0     H16128   8.320   1.393   5.381 -1.1213 -2.7716  0.8884
  117MOL0     H16129   8.424   1.454   5.598  0.8372  2.4896  2.0302
  117MOL0     H16130   7.501   1.854   7.218  0.4317 -0.1124 -1.2370
  117MOL0     H16131   7.430   1.750   7.418  0.8417  0.3946 -0.4105
  117MOL0     H16132   7.690   1.546   7.702  0.1393 -0.3559 -0.1744
  117MOL0     H16133   7.767   1.517   7.937  1.1044  5.4808 -1.2748
  117MOL0     H16134   7.781   1.432   8.128  1.4337 -0.5310  0.3379
  117MOL0     H16135   7.791   1.590   8.231  0.5049 -0.7481  0.7541
  117MOL0     H16136   7.631   1.350   8.323 -1.2624  1.6695  0.1215
  117MOL0     H16137   7.703   1.483   8.419  0.0529  1.8110 -0.9722
  117MOL0     H16138   7.923   1.393   8.388  0.1284 -0.2894  2.6165
  117MOL0     H16139   7.824   1.286   8.470 -0.6276 -0.7053 -0.3499
  117MOL0     H16140   7.931   1.283   8.186 -0.5864  0.5828  0.1344
  117MOL0     H16141   7.794   1.169   8.219  0.7219 -0.9178 -1.3354
  117MOL0     H16142   8.136   0.969   8.356  0.3621 -0.0387 -1.4638
  117MOL0     H16143   7.362   1.573   8.062 -0.5923  2.9563 -1.6757
  117MOL0     H16144   7.183   1.590   7.937 -0.3387 -0.1219 -0.0472
  117MOL0     H16145   7.225   1.681   7.787  5.1592  0.7060  0.0243
  117MOL0     H16146   7.184   1.494   7.804 -1.3932 -0.9186  3.4830
  118MOL0     O16147   8.330   3.838   8.644  0.3642  0.6738  0.2067
  118MOL0     C16148   8.442   3.816   8.629 -1.0199 -0.2526 -0.5331
  118MOL0     O16149   8.503   3.700   8.671 -0.5207  0.1482  1.1119
  118MOL0     C16150   8.431   3.592   8.704 -0.4882 -0.4751 -0.4994
  118MOL0     C16151   8.329   3.602   8.804 -0.4300 -0.3012 -0.0141
  118MOL0     C16152   8.274   3.480   8.830  0.3563 -0.4067  0.3841
  118MOL0     C16153   8.293   3.356   8.759  1.0562 -0.1963 -0.2173
  118MOL0     O16154   8.221   3.234   8.771 -0.4815 -0.5138 -0.5415
  118MOL0     C16155   8.090   3.244   8.823  0.6314 -0.8076 -0.4196
  118MOL0     C16156   8.020   3.109   8.832  0.1502 -0.1691  0.9415
  118MOL0     C16157   8.077   3.031   8.952  0.1237 -0.8499  0.4890
  118MOL0     C16158   8.045   2.881   8.953  0.6580 -0.6006 -0.1224
  118MOL0     C16159   8.159   2.794   8.905  0.0591 -0.5791 -0.3317
  118MOL0     C16160   8.147   2.655   8.954 -1.1735 -0.0015  0.1086
  118MOL0     C16161   8.239   2.556   8.889  0.2142  0.5240  0.0407
  118MOL0     C16162   8.381   2.587   8.926 -0.7041  0.9840  0.7569
  118MOL0     N16163   8.418   2.611   9.066 -0.4469  0.6902  0.0028
  118MOL0     C16164   8.390   2.523   9.166 -0.1946  0.0951  0.4724
  118MOL0     C16165   8.469   2.568   9.265 -0.9492  0.9932 -0.2455
  118MOL0     C16166   8.472   2.494   9.392 -0.1046  0.2468  0.2156
  118MOL0     C16167   8.612   2.442   9.434 -0.9500  0.3455 -0.9515
  118MOL0     C16168   8.611   2.384   9.575  0.6095  0.0237 -0.4266
  118MOL0     C16169   8.496   2.286   9.595  0.6701  0.6186 -0.0082
  118MOL0     O16170   8.367   2.334   9.637 -0.8426 -0.3783  0.0829
  118MOL0     C16171   8.350   2.426   9.743 -0.4216 -0.4866 -0.7702
  118MOL0     C16172   8.227   2.495   9.753 -0.2616 -0.3407 -0.1767
  118MOL0     C16173   8.195   2.577   9.862  0.5671 -0.3000  0.4285
  118MOL0     C16174   8.069   2.677   9.864  0.3070  0.4716  0.3525
  118MOL0     C16175   8.294   2.584   9.963  0.6604  0.2246  0.4012
  118MOL0     C16176   8.254   2.640  10.097 -0.4630  0.4870 -0.5774
  118MOL0     O16177   8.166   2.569  10.177 -0.2342  0.3068  0.4302
  118MOL0     C16178   8.153   2.607  10.309 -0.0525 -0.4409 -0.7902
  118MOL0     C16179   8.256   2.610  10.396 -0.3459  0.4461 -0.0371
  118MOL0     C16180   8.235   2.617  10.529 -0.0269 -0.1803 -0.7692
  118MOL0     C16181   8.112   2.656  10.578 -0.5837  0.8257  1.0612
  118MOL0     O16182   8.115   2.676  10.711  0.0902  0.3168  0.0299
  118MOL0     C16183   8.033   2.782  10.753  0.1940  0.8170  0.0640
  118MOL0     C16184   7.903   2.726  10.819  0.2711  0.1099  0.4206
  118MOL0     C16185   7.930   2.635  10.940 -0.1158  1.4717  0.0811
  118MOL0     C16186   7.799   2.574  11.006  0.1622  0.7198 -0.4725
  118MOL0     C16187   7.822   2.441  11.063 -0.1570  0.0734  0.0585
  118MOL0     C16188   7.814   2.323  10.955 -0.1628 -0.0542  0.2266
  118MOL0     C16189   7.825   2.187  11.023 -0.4730  0.1813 -0.0763
  118MOL0     C16190   7.824   2.076  10.926 -0.0955  0.6914  1.4321
  118MOL0    Cl16191   7.663   1.987  10.935 -0.2916 -0.2631  0.2832
  118MOL0     C16192   7.997   2.658  10.489  0.2759  1.2321 -0.6452
  118MOL0     C16193   8.022   2.632  10.355  0.7308  1.5263 -0.8593
  118MOL0     O16194   8.325   2.734  10.132  0.4237  0.6213  0.2714
  118MOL0     C16195   8.413   2.504   9.959  0.0291 -1.0371 -1.0112
  118MOL0     C16196   8.441   2.427   9.840  0.2846  0.0192  1.0287
  118MOL0     N16197   8.516   2.690   9.240 -0.3441 -0.9519  0.3576
  118MOL0     N16198   8.497   2.712   9.115  0.5894  0.1918  0.4537
  118MOL0     C16199   8.406   3.348   8.679 -0.5308 -0.6507 -0.7414
  118MOL0     C16200   8.469   3.466   8.648 -0.2103  0.1405 -0.1875
  118MOL0     C16201   8.523   3.917   8.548  0.1669  0.5618 -0.1084
  118MOL0     C16202   8.503   4.055   8.556 -0.4349  0.3813 -0.0178
  118MOL0     C16203   8.578   4.144   8.485 -0.9338  0.6011 -0.1662
  118MOL0     C16204   8.684   4.108   8.405 -0.4128 -0.1408  0.7952
  118MOL0     O16205   8.745   4.211   8.323  0.0039 -0.1615 -0.6271
  118MOL0     C16206   8.888   4.197   8.287 -0.1389  0.1921  0.8974
  118MOL0     C16207   8.980   4.206   8.407  0.7963 -0.0093  0.7919
  118MOL0     C16208   9.095   4.297   8.391  0.2153 -0.8166  0.3848
  118MOL0     C16209   9.177   4.307   8.512  0.3801  0.5230 -1.5141
  118MOL0     C16210   9.278   4.413   8.494  0.3748 -0.0030 -0.2467
  118MOL0     C16211   9.359   4.509   8.500  0.1975  0.8918  0.0735
  118MOL0     C16212   8.705   3.971   8.389 -0.3568  0.7842 -0.3708
  118MOL0     C16213   8.624   3.875   8.447  0.4318  0.0348 -0.6680
  118MOL0     C16214   8.658   3.730   8.424  0.3708  0.2517 -0.0176
  118MOL0     H16215   8.298   3.696   8.848 -0.8350 -0.7179  0.5935
  118MOL0     H16216   8.210   3.495   8.916  2.6184  2.1964  1.7467
  118MOL0     H16217   8.038   3.320   8.764  1.0334 -0.5890 -0.4999
  118MOL0     H16218   8.085   3.275   8.928 -0.2248 -0.8111 -0.4516
  118MOL0     H16219   7.912   3.128   8.835  0.0602 -0.3339 -0.4025
  118MOL0     H16220   8.029   3.044   8.745 -0.8757 -0.9055  1.3728
  118MOL0     H16221   8.183   3.049   8.968 -0.0292  0.6267 -0.0058
  118MOL0     H16222   8.017   3.067   9.036  1.5463 -1.4298  1.8066
  118MOL0     H16223   8.029   2.860   9.059  0.1192  2.6531  0.5554
  118MOL0     H16224   7.957   2.856   8.894 -1.3573  2.0785  1.5096
  118MOL0     H16225   8.253   2.828   8.948 -1.2789  1.9395  0.7970
  118MOL0     H16226   8.172   2.809   8.798  0.4872  2.0371  0.0312
  118MOL0     H16227   8.157   2.654   9.062 -1.1701 -1.8736  0.1224
  118MOL0     H16228   8.048   2.613   8.930 -1.0010 -0.9386  1.0045
  118MOL0     H16229   8.225   2.547   8.781  2.7136 -2.7319 -0.1953
  118MOL0     H16230   8.207   2.462   8.936 -1.7879  0.4645 -1.3245
  118MOL0     H16231   8.437   2.496   8.905 -0.7520  1.3679 -1.2336
  118MOL0     H16232   8.419   2.663   8.857 -2.0012  0.8360 -0.1575
  118MOL0     H16233   8.341   2.428   9.147  0.3954  0.0735 -1.0805
  118MOL0     H16234   8.401   2.410   9.398  0.0797  0.1940  2.8640
  118MOL0     H16235   8.442   2.563   9.471  0.2515  0.0896  0.4915
  118MOL0     H16236   8.645   2.371   9.357 -2.9519  1.6225 -3.0922
  118MOL0     H16237   8.671   2.534   9.441  3.6414 -1.9467 -3.9000
  118MOL0     H16238   8.707   2.335   9.596  1.0418  1.1700  0.4091
  118MOL0     H16239   8.603   2.467   9.645 -2.4670  0.0891 -0.7090
  118MOL0     H16240   8.489   2.220   9.509  2.0594  0.9220 -0.3850
  118MOL0     H16241   8.539   2.226   9.677  0.8761  0.2623 -0.3722
  118MOL0     H16242   8.155   2.487   9.673 -0.8088  0.0160  0.2786
  118MOL0     H16243   7.985   2.608   9.856 -0.6640  1.4657  1.6350
  118MOL0     H16244   8.077   2.756   9.788  3.2259  0.7898  0.8794
  118MOL0     H16245   8.046   2.739   9.951 -1.4138 -0.2366  0.4311
  118MOL0     H16246   8.357   2.597  10.360  0.2766  0.4041  1.6338
  118MOL0     H16247   8.310   2.585  10.601 -1.2812 -2.3198 -0.3256
  118MOL0     H16248   8.088   2.828  10.835  2.0398 -1.7197  0.3923
  118MOL0     H16249   8.007   2.851  10.673 -2.6415  0.8112  0.8769
  118MOL0     H16250   7.837   2.805  10.857  0.4404 -1.1278  3.5615
  118MOL0     H16251   7.852   2.653  10.755  2.4729 -2.6772  1.6358
  118MOL0     H16252   7.999   2.684  11.008  0.3254  1.2890 -0.2289
  118MOL0     H16253   7.987   2.550  10.901  1.9149  2.8084  0.0110
  118MOL0     H16254   7.722   2.572  10.928 -0.6492  2.2437  0.2446
  118MOL0     H16255   7.777   2.643  11.088  0.5224 -0.4188  0.6181
  118MOL0     H16256   7.920   2.425  11.109  0.4485 -2.7127 -1.8835
  118MOL0     H16257   7.749   2.430  11.144 -0.7151  2.9546  0.0439
  118MOL0     H16258   7.889   2.332  10.877  3.9400 -0.1341  3.7892
  118MOL0     H16259   7.720   2.335  10.900 -0.5609  1.2032  1.1378
  118MOL0     H16260   7.746   2.175  11.098 -0.5589  0.6465 -0.0929
  118MOL0     H16261   7.916   2.174  11.081  0.6751 -1.5779 -2.0986
  118MOL0     H16262   7.900   2.003  10.958  0.4645 -0.3782 -1.9996
  118MOL0     H16263   7.862   2.101  10.827  3.8511 -4.9694  0.9881
  118MOL0     H16264   7.892   2.674  10.511 -0.8172 -2.4403 -2.3533
  118MOL0     H16265   7.942   2.625  10.282 -0.4151 -0.5279  0.4563
  118MOL0     H16266   8.489   2.509  10.036 -1.1860  4.2789  0.2452
  118MOL0     H16267   8.541   2.386   9.846  0.9727  1.7783  2.1185
  118MOL0     H16268   8.437   3.254   8.634  1.4976  0.3858 -1.6269
  118MOL0     H16269   8.536   3.469   8.562 -1.4357 -1.4791 -1.2723
  118MOL0     H16270   8.418   4.088   8.615 -1.0715  0.8485 -1.1653
  118MOL0     H16271   8.539   4.245   8.496 -2.6015 -0.2768  3.9851
  118MOL0     H16272   8.911   4.113   8.220  2.1683  0.5531  1.1770
  118MOL0     H16273   8.913   4.284   8.227 -0.8401  1.0328  1.7972
  118MOL0     H16274   9.005   4.101   8.424  0.8690  0.1048  1.4090
  118MOL0     H16275   8.924   4.236   8.496 -1.3522  0.8433 -0.7516
  118MOL0     H16276   9.150   4.251   8.308 -0.8744 -3.2112  0.8948
  118MOL0     H16277   9.048   4.389   8.354  2.1394 -0.8998 -2.5747
  118MOL0     H16278   9.229   4.211   8.518 -3.2427 -1.5199  1.8071
  118MOL0     H16279   9.120   4.314   8.605  0.6612  0.0411 -1.3013
  118MOL0     H16280   9.427   4.584   8.535 -0.4125  1.3136  0.3808
  118MOL0     H16281   8.783   3.932   8.325 -1.0910 -0.1040 -0.7490
  118MOL0     H16282   8.729   3.696   8.499  1.6028  0.4558 -1.0648
  118MOL0     H16283   8.573   3.662   8.428  2.9756 -3.3622 -1.4141
  118MOL0     H16284   8.704   3.726   8.325  1.0890 -0.2850  0.3330
  119MOL0     O16285   2.814   8.183   4.777 -0.1342  0.0491 -0.2937
  119MOL0     C16286   2.738   8.229   4.688 -0.3443 -0.9165 -0.5897
  119MOL0     O16287   2.614   8.211   4.671  0.0969  0.2129 -0.3385
  119MOL0     C16288   2.549   8.131   4.760  0.2331  0.5004  0.2192
  119MOL0     C16289   2.520   8.178   4.889 -0.4162 -0.0803 -0.2334
  119MOL0     C16290   2.442   8.102   4.974  0.1632  0.1551 -0.2663
  119MOL0     C16291   2.401   7.976   4.942  0.5706 -0.6173  0.6968
  119MOL0     O16292   2.323   7.890   5.012  1.1244 -0.0941  0.0555
  119MOL0     C16293   2.393   7.780   5.070 -0.1541  0.7176 -0.0419
  119MOL0     C16294   2.311   7.754   5.202 -1.5651  0.5208  0.7342
  119MOL0     C16295   2.372   7.642   5.290 -0.7175  1.0410 -0.1116
  119MOL0     C16296   2.303   7.620   5.428  0.1249  0.0116 -0.3302
  119MOL0     C16297   2.359   7.502   5.508 -1.0076 -0.1930  0.0395
  119MOL0     C16298   2.300   7.486   5.648  0.3322  0.2957  0.4989
  119MOL0     C16299   2.150   7.452   5.664  0.3427 -0.1823 -0.3730
  119MOL0     C16300   2.126   7.316   5.603  0.6985 -0.7913  0.6947
  119MOL0     N16301   2.199   7.194   5.647 -0.0115 -0.2855 -0.4678
  119MOL0     C16302   2.194   7.135   5.771 -0.0211  0.0142 -0.7066
  119MOL0     C16303   2.292   7.041   5.764  0.4643  0.0377 -0.6887
  119MOL0     C16304   2.312   6.944   5.880  0.4485  0.3191 -0.2472
  119MOL0     C16305   2.184   6.934   5.971  0.3180  0.0123  0.7130
  119MOL0     C16306   2.166   6.805   6.051 -0.7110  0.3378 -0.5877
  119MOL0     C16307   2.025   6.804   6.117 -0.0301  0.6903  0.6228
  119MOL0     O16308   1.998   6.680   6.195  0.1377 -0.5121 -0.3307
  119MOL0     C16309   1.968   6.563   6.126  0.4615 -0.2294 -0.6689
  119MOL0     C16310   1.847   6.509   6.109  1.1594  0.2304  0.0818
  119MOL0     C16311   1.825   6.387   6.033 -0.6923 -0.1155  0.3413
  119MOL0     C16312   1.679   6.333   6.024  0.9427  0.2792  0.8790
  119MOL0     C16313   1.936   6.320   5.977 -1.0961 -0.2172  0.6360
  119MOL0     C16314   1.926   6.206   5.880 -0.1149 -0.5098 -0.7986
  119MOL0     O16315   1.805   6.201   5.803 -0.3037 -0.1268 -0.3504
  119MOL0     C16316   1.800   6.096   5.715  0.6112  0.3190 -0.1944
  119MOL0     C16317   1.887   6.074   5.601  0.5903 -0.8437 -0.2278
  119MOL0     C16318   1.847   5.983   5.499  0.0330 -0.1905  0.3226
  119MOL0     C16319   1.729   5.909   5.523  0.0245 -0.3052 -0.8147
  119MOL0     O16320   1.683   5.804   5.446  0.1164 -0.3223  0.1879
  119MOL0     C16321   1.698   5.821   5.298  0.3274 -0.6660 -0.3593
  119MOL0     C16322   1.590   5.723   5.247 -0.1390  0.1939 -0.2371
  119MOL0     C16323   1.551   5.755   5.097  0.1358 -0.2850 -0.6529
  119MOL0     C16324   1.441   5.674   5.034 -0.7954 -1.0256 -0.3711
  119MOL0     C16325   1.459   5.675   4.879  0.7147  0.3413  0.2582
  119MOL0     C16326   1.350   5.587   4.814 -0.6913 -0.2830 -0.6397
  119MOL0     C16327   1.347   5.606   4.666 -0.8692 -1.1004 -1.4002
  119MOL0     C16328   1.277   5.494   4.586 -0.5920 -0.3366  0.1367
  119MOL0    Cl16329   1.114   5.506   4.608 -0.2554 -0.0886  0.2421
  119MOL0     C16330   1.647   5.933   5.639 -0.1377 -0.4437 -0.4866
  119MOL0     C16331   1.686   6.024   5.739  0.4053 -0.0961  0.6023
  119MOL0     O16332   2.015   6.119   5.882 -0.3544  0.5872  0.1921
  119MOL0     C16333   2.067   6.369   6.013 -0.0135  0.5470  0.0488
  119MOL0     C16334   2.074   6.484   6.084 -1.0918 -0.5106  0.8560
  119MOL0     N16335   2.361   7.034   5.646  0.6372  0.8577  0.6543
  119MOL0     N16336   2.301   7.125   5.579 -0.2461 -0.9670  0.3851
  119MOL0     C16337   2.425   7.935   4.807  0.5462 -0.1200  0.6241
  119MOL0     C16338   2.492   8.015   4.714  0.0943 -0.5352 -0.1899
  119MOL0     C16339   2.812   8.318   4.603 -0.3427  0.3649 -0.3611
  119MOL0     C16340   2.819   8.279   4.475 -0.3509  0.3143  1.0829
  119MOL0     C16341   2.887   8.360   4.372 -0.3212 -0.1506  0.0907
  119MOL0     C16342   2.939   8.487   4.410  0.5859  0.3427 -0.2665
  119MOL0     O16343   2.989   8.571   4.318  0.0443  0.8492 -0.3109
  119MOL0     C16344   2.991   8.547   4.180 -0.1574  0.5704  0.0523
  119MOL0     C16345   3.100   8.448   4.141  0.0142  0.7701 -0.0536
  119MOL0     C16346   3.214   8.438   4.245 -0.6694  0.0605 -0.3633
  119MOL0     C16347   3.263   8.300   4.210 -0.1604  0.6420 -0.7466
  119MOL0     C16348   3.404   8.267   4.250  0.2345  0.9406  0.3645
  119MOL0     C16349   3.524   8.236   4.265 -0.5503 -0.9655  0.8714
  119MOL0     C16350   2.927   8.530   4.549 -0.1563  0.2688  0.6996
  119MOL0     C16351   2.873   8.441   4.648  0.6938 -0.0900  0.3442
  119MOL0     C16352   2.849   8.485   4.790  0.0597 -0.2164 -0.1899
  119MOL0     H16353   2.565   8.271   4.922  1.5137 -1.8019  2.3408
  119MOL0     H16354   2.413   8.145   5.069  1.8425 -0.4258  0.5599
  119MOL0     H16355   2.498   7.802   5.094 -0.6878  2.6522  0.7166
  119MOL0     H16356   2.399   7.702   4.994  2.0533  0.9890 -0.2166
  119MOL0     H16357   2.320   7.848   5.259  2.5109 -0.5538  2.1926
  119MOL0     H16358   2.207   7.731   5.179 -1.9819  1.3412  1.6689
  119MOL0     H16359   2.370   7.549   5.232  0.5035 -0.4398  2.0627
  119MOL0     H16360   2.480   7.658   5.285 -0.7802  1.1626 -1.1430
  119MOL0     H16361   2.310   7.710   5.490 -3.3099 -0.3791  0.8150
  119MOL0     H16362   2.197   7.613   5.403 -0.1808  2.0786  0.2005
  119MOL0     H16363   2.467   7.501   5.520 -0.6912  1.6012 -1.9793
  119MOL0     H16364   2.336   7.406   5.463 -3.0180  0.2064  0.0865
  119MOL0     H16365   2.357   7.402   5.690  0.5434  0.8206  1.2683
  119MOL0     H16366   2.317   7.584   5.693 -1.6655  2.5752 -3.2029
  119MOL0     H16367   2.085   7.524   5.613 -0.1240 -1.3364 -1.4491
  119MOL0     H16368   2.136   7.450   5.772 -2.6769 -3.4024 -0.6485
  119MOL0     H16369   2.022   7.292   5.627  1.1329 -0.5218  3.1218
  119MOL0     H16370   2.141   7.322   5.495  0.8733  0.9820  0.7967
  119MOL0     H16371   2.117   7.148   5.847  0.0912 -1.5788 -0.2768
  119MOL0     H16372   2.394   6.978   5.944 -0.2292 -0.8169  1.2913
  119MOL0     H16373   2.341   6.850   5.832  0.6543  1.3501 -2.2338
  119MOL0     H16374   2.170   7.020   6.037 -0.8524 -1.2736  2.2293
  119MOL0     H16375   2.098   6.940   5.904  0.2169  1.8467  0.9416
  119MOL0     H16376   2.188   6.719   5.988 -2.3035  0.1589 -0.9597
  119MOL0     H16377   2.242   6.797   6.129 -0.1433 -1.9634 -1.2994
  119MOL0     H16378   2.001   6.890   6.180  2.2681  0.9435  1.2507
  119MOL0     H16379   1.954   6.808   6.034  0.3091 -0.2061  0.2717
  119MOL0     H16380   1.758   6.560   6.142 -1.6704 -3.8369 -0.5173
  119MOL0     H16381   1.610   6.378   6.096 -0.4465  0.0400 -0.2576
  119MOL0     H16382   1.669   6.225   6.038 -0.9196  0.2962  0.0787
  119MOL0     H16383   1.643   6.349   5.921 -1.0094  0.5181  1.5543
  119MOL0     H16384   1.978   6.134   5.602 -0.6523  1.1425  1.1775
  119MOL0     H16385   1.924   5.963   5.426  0.2995  1.3771  0.1233
  119MOL0     H16386   1.670   5.922   5.266  1.4149 -0.2594 -0.0592
  119MOL0     H16387   1.795   5.795   5.256  1.8117  0.0387  2.4184
  119MOL0     H16388   1.636   5.624   5.247 -1.2967 -0.4313 -2.8428
  119MOL0     H16389   1.504   5.721   5.314  0.7287 -1.2610  0.8899
  119MOL0     H16390   1.641   5.736   5.038  0.7943 -0.0982  0.2590
  119MOL0     H16391   1.526   5.860   5.084  1.9701 -0.0054 -2.3706
  119MOL0     H16392   1.342   5.717   5.055  0.2915  0.8760  1.2442
  119MOL0     H16393   1.445   5.567   5.058  3.1633 -1.0982 -0.8470
  119MOL0     H16394   1.451   5.778   4.845 -1.7063  1.5949  4.0149
  119MOL0     H16395   1.557   5.630   4.863  0.2079 -0.5949 -0.4118
  119MOL0     H16396   1.258   5.608   4.870 -0.9461  2.1157 -1.8160
  119MOL0     H16397   1.372   5.481   4.827 -2.1018 -0.4900  0.3061
  119MOL0     H16398   1.449   5.616   4.629 -0.3093  0.4580  0.4145
  119MOL0     H16399   1.282   5.693   4.655 -2.4343 -1.5076  2.7737
  119MOL0     H16400   1.315   5.399   4.623 -2.1625 -1.1654 -0.3097
  119MOL0     H16401   1.306   5.498   4.481  2.5944  0.3047  0.9345
  119MOL0     H16402   1.558   5.871   5.634  0.1431 -0.7823 -4.0054
  119MOL0     H16403   1.625   6.052   5.824  2.6789  0.4236  2.1703
  119MOL0     H16404   2.151   6.311   5.976 -2.0302 -2.8816  0.5105
  119MOL0     H16405   2.174   6.498   6.123 -0.6628  0.9510 -0.6692
  119MOL0     H16406   2.393   7.837   4.772  0.6547 -0.0554  0.3454
  119MOL0     H16407   2.511   7.990   4.610  1.6883  3.4099 -1.0370
  119MOL0     H16408   2.784   8.179   4.452  0.0412  0.1832  1.0470
  119MOL0     H16409   2.890   8.321   4.271  0.2937 -1.4936  0.6090
  119MOL0     H16410   2.902   8.505   4.132 -0.8940 -1.9934  3.3053
  119MOL0     H16411   2.998   8.642   4.126 -0.5383  0.5061 -0.1163
  119MOL0     H16412   3.149   8.489   4.052 -3.2949  1.5540 -1.6898
  119MOL0     H16413   3.049   8.352   4.129  2.7233 -1.0035  1.7051
  119MOL0     H16414   3.291   8.510   4.214 -0.2644 -0.0598  0.3458
  119MOL0     H16415   3.202   8.448   4.353  0.8439  0.9857 -0.2403
  119MOL0     H16416   3.261   8.274   4.104  1.6108  0.9628 -0.8992
  119MOL0     H16417   3.197   8.231   4.262  3.7238  0.0912  4.2617
  119MOL0     H16418   3.629   8.215   4.258 -0.2481  0.6200  0.1830
  119MOL0     H16419   2.974   8.626   4.568 -0.0240  0.4843 -0.6169
  119MOL0     H16420   2.876   8.588   4.815  0.3439 -0.4632  0.5432
  119MOL0     H16421   2.743   8.486   4.818  0.3304 -3.4942  1.4450
  119MOL0     H16422   2.891   8.414   4.862  0.3770  0.3892  0.2247
  120MOL0     O16423   0.167   1.425   6.398 -0.7464 -0.0120  1.3221
  120MOL0     C16424   0.082   1.442   6.312  0.7056  0.1199  0.0769
  120MOL0     O16425  -0.057   1.437   6.327 -0.3433 -0.5989 -0.8563
  120MOL0     C16426  -0.102   1.433   6.460  0.4041  0.9159  0.8697
  120MOL0     C16427  -0.232   1.377   6.478  1.2190 -0.1083  0.0736
  120MOL0     C16428  -0.308   1.378   6.591  0.1532  0.0243  0.4162
  120MOL0     C16429  -0.247   1.426   6.704  0.3030  0.0853  0.6538
  120MOL0     O16430  -0.316   1.439   6.819 -0.0009 -0.1246  0.4206
  120MOL0     C16431  -0.424   1.527   6.807 -0.0881  0.1324 -0.3404
  120MOL0     C16432  -0.505   1.511   6.939  0.2690  0.8008 -0.4062
  120MOL0     C16433  -0.642   1.584   6.940  0.8831 -0.6160 -0.5309
  120MOL0     C16434  -0.616   1.729   6.924  0.1281  0.3067 -0.0400
  120MOL0     C16435  -0.741   1.819   6.937  0.2210 -0.0275  0.0208
  120MOL0     C16436  -0.698   1.965   6.934  1.0551 -0.4083 -0.6758
  120MOL0     C16437  -0.822   2.065   6.927 -0.6867  1.1394 -0.4513
  120MOL0     C16438  -0.778   2.209   6.942  0.0896  0.6691  0.6248
  120MOL0     N16439  -0.725   2.281   6.819 -0.0013  1.3427 -0.3554
  120MOL0     C16440  -0.614   2.374   6.814 -0.8546  0.3786 -0.0705
  120MOL0     C16441  -0.602   2.407   6.684  0.6212 -0.6968 -0.3639
  120MOL0     C16442  -0.516   2.520   6.629 -0.5944  0.4858  0.8117
  120MOL0     C16443  -0.516   2.520   6.479  0.7100 -0.4348  1.1403
  120MOL0     C16444  -0.448   2.649   6.434  0.5774 -0.2226  0.2352
  120MOL0     C16445  -0.559   2.770   6.433  0.1008 -0.1668 -0.7815
  120MOL0     O16446  -0.505   2.885   6.368  0.0102 -0.2653  0.7623
  120MOL0     C16447  -0.435   2.964   6.453 -0.5655 -1.3549  0.6331
  120MOL0     C16448  -0.303   2.991   6.435 -0.2726 -0.4305 -0.3812
  120MOL0     C16449  -0.243   3.088   6.516  0.4346 -0.0985  0.1209
  120MOL0     C16450  -0.103   3.130   6.482 -0.4681  0.5016 -0.0203
  120MOL0     C16451  -0.320   3.158   6.610  0.7529 -0.3874  0.7517
  120MOL0     C16452  -0.271   3.271   6.697 -0.6460  0.0399  0.4756
  120MOL0     O16453  -0.357   3.359   6.738 -0.2452 -0.4849 -0.1252
  120MOL0     C16454  -0.321   3.473   6.801  0.4234  0.7020 -0.4511
  120MOL0     C16455  -0.319   3.601   6.749  0.8158  0.2821  1.6143
  120MOL0     C16456  -0.281   3.711   6.831  0.2019  0.2180  0.8779
  120MOL0     C16457  -0.244   3.693   6.968  0.0594 -0.4369 -0.3341
  120MOL0     O16458  -0.196   3.807   7.039 -0.6105 -0.6824  0.2665
  120MOL0     C16459  -0.135   3.782   7.167  0.1665  0.7651 -0.8611
  120MOL0     C16460  -0.107   3.907   7.251  0.9614 -0.5023 -0.0695
  120MOL0     C16461  -0.024   4.001   7.166  0.2721  0.1542  0.0349
  120MOL0     C16462   0.010   4.141   7.218  0.2819 -0.6813  0.0425
  120MOL0     C16463   0.050   4.243   7.109 -0.1035 -0.0230  0.0161
  120MOL0     C16464   0.107   4.378   7.156  0.0765  0.7425 -0.0149
  120MOL0     C16465   0.223   4.355   7.244 -0.1707 -1.2022  0.8000
  120MOL0     C16466   0.269   4.499   7.292 -0.2228 -0.6437  0.1349
  120MOL0    Cl16467   0.170   4.587   7.420 -0.1282 -0.4772  0.4092
  120MOL0     C16468  -0.245   3.561   7.018 -0.6518 -0.1010  0.4014
  120MOL0     C16469  -0.288   3.460   6.938  0.2109 -0.1225 -0.0107
  120MOL0     O16470  -0.144   3.270   6.723  0.3288 -0.2104  0.2833
  120MOL0     C16471  -0.460   3.130   6.629 -0.2866 -0.4684  0.1066
  120MOL0     C16472  -0.511   3.027   6.556  0.6031 -0.5293 -0.0544
  120MOL0     N16473  -0.691   2.326   6.614 -0.1986  0.2610  0.9424
  120MOL0     N16474  -0.764   2.248   6.687  0.7282 -0.3275 -0.2574
  120MOL0     C16475  -0.117   1.480   6.700 -0.2231 -0.0117 -0.1395
  120MOL0     C16476  -0.046   1.488   6.576  0.1025  0.1397 -0.6235
  120MOL0     C16477   0.129   1.475   6.176 -0.6734  0.4032 -0.7786
  120MOL0     C16478   0.266   1.468   6.147 -0.6549 -0.1996 -0.3242
  120MOL0     C16479   0.320   1.499   6.027  0.9023 -0.2701 -0.4025
  120MOL0     C16480   0.248   1.556   5.924  0.0182  0.7083  0.7904
  120MOL0     O16481   0.322   1.587   5.816  0.2860  0.4623  0.2882
  120MOL0     C16482   0.263   1.639   5.691  0.2850 -0.2017 -1.1337
  120MOL0     C16483   0.362   1.725   5.615  1.6110 -0.3302  0.7856
  120MOL0     C16484   0.440   1.828   5.689 -0.6365  0.2942 -0.0327
  120MOL0     C16485   0.364   1.896   5.814  0.3433 -0.5736  0.0553
  120MOL0     C16486   0.424   2.023   5.853  0.3468 -0.0727  1.3331
  120MOL0     C16487   0.480   2.123   5.874 -0.4909  0.0461 -0.3327
  120MOL0     C16488   0.109   1.558   5.941 -1.3538 -0.2637 -0.1685
  120MOL0     C16489   0.041   1.524   6.067 -0.7820  0.1742  0.3320
  120MOL0     C16490  -0.104   1.538   6.075  1.5070  0.7694  0.8242
  120MOL0     H16491  -0.283   1.331   6.394  0.6529 -1.1249  0.9334
  120MOL0     H16492  -0.411   1.346   6.600 -0.1386  0.5822 -0.7691
  120MOL0     H16493  -0.483   1.501   6.719  2.7501 -0.0758 -2.3291
  120MOL0     H16494  -0.388   1.630   6.798 -2.1674  0.8779 -0.4641
  120MOL0     H16495  -0.538   1.409   6.958 -0.8401  0.9791 -1.2134
  120MOL0     H16496  -0.447   1.533   7.028 -3.2677  0.6399  2.1538
  120MOL0     H16497  -0.707   1.549   6.860 -0.4953 -2.2138  1.1772
  120MOL0     H16498  -0.692   1.570   7.037  0.3720 -0.3748 -0.7568
  120MOL0     H16499  -0.533   1.758   6.990 -0.8936  3.1918  0.1212
  120MOL0     H16500  -0.569   1.742   6.826  1.8098  1.5510  0.8689
  120MOL0     H16501  -0.786   1.797   7.034  2.9530 -3.7810  0.6583
  120MOL0     H16502  -0.806   1.782   6.857 -2.3351  0.5125  1.7555
  120MOL0     H16503  -0.639   1.977   7.025  3.6326 -0.6542 -2.2411
  120MOL0     H16504  -0.634   1.987   6.848  0.3534  1.2624 -0.8153
  120MOL0     H16505  -0.898   2.042   7.002  1.5812 -2.7963  0.9776
  120MOL0     H16506  -0.877   2.046   6.834 -0.1215 -1.9200 -0.2946
  120MOL0     H16507  -0.865   2.255   6.989 -1.8054 -2.2948  0.3416
  120MOL0     H16508  -0.700   2.219   7.018 -2.5227 -1.0383  3.7800
  120MOL0     H16509  -0.541   2.403   6.889  1.9326 -0.5358 -2.2369
  120MOL0     H16510  -0.413   2.518   6.665 -0.4948  2.2736  0.6887
  120MOL0     H16511  -0.543   2.617   6.672 -1.0260  1.0296 -0.6354
  120MOL0     H16512  -0.466   2.434   6.434  0.9880  0.5529 -0.5107
  120MOL0     H16513  -0.617   2.506   6.440  0.8918 -2.7344  1.3960
  120MOL0     H16514  -0.358   2.685   6.485  0.8623  0.3744 -0.6701
  120MOL0     H16515  -0.419   2.630   6.330 -1.1713  0.9212 -0.5049
  120MOL0     H16516  -0.630   2.742   6.354  1.4781 -2.1809 -1.3736
  120MOL0     H16517  -0.614   2.785   6.526  0.2528  3.5270 -1.1356
  120MOL0     H16518  -0.244   2.951   6.352 -1.4516  0.0541 -1.4834
  120MOL0     H16519  -0.106   3.238   6.464  1.8453  0.9886  1.9609
  120MOL0     H16520  -0.060   3.079   6.396 -1.0324  2.3674 -1.4906
  120MOL0     H16521  -0.033   3.108   6.563  2.9210 -1.7710 -3.2743
  120MOL0     H16522  -0.353   3.610   6.646 -1.2678  2.0285  2.3580
  120MOL0     H16523  -0.277   3.813   6.795  1.0986 -0.4283 -0.9312
  120MOL0     H16524  -0.212   3.727   7.223  0.5575 -0.6738 -1.6652
  120MOL0     H16525  -0.043   3.724   7.166  0.6432  1.4426  0.8380
  120MOL0     H16526  -0.199   3.958   7.278 -0.8859 -1.8491 -3.2107
  120MOL0     H16527  -0.042   3.885   7.336 -3.2532 -1.8626  3.1295
  120MOL0     H16528  -0.075   4.025   7.072  2.0341 -0.6071 -1.1735
  120MOL0     H16529   0.068   3.947   7.141 -0.2822 -0.3364 -1.0276
  120MOL0     H16530   0.094   4.124   7.285  0.7501  2.9943  0.6283
  120MOL0     H16531  -0.078   4.169   7.278 -0.7282 -2.1981 -0.6696
  120MOL0     H16532   0.123   4.194   7.044 -0.1679  0.9616 -0.8300
  120MOL0     H16533  -0.038   4.267   7.049  0.2611  0.7634 -0.2283
  120MOL0     H16534   0.023   4.431   7.201  0.4721  0.6345  0.8675
  120MOL0     H16535   0.149   4.432   7.070  1.0854 -2.1037 -1.4610
  120MOL0     H16536   0.302   4.305   7.187  0.2949 -0.3705  0.7001
  120MOL0     H16537   0.199   4.290   7.330 -1.2491 -1.9899 -0.0715
  120MOL0     H16538   0.281   4.556   7.199 -4.5771 -3.4066 -2.4934
  120MOL0     H16539   0.367   4.498   7.341 -0.7886 -1.1316  1.2869
  120MOL0     H16540  -0.203   3.540   7.116 -0.2973 -0.5004  0.1713
  120MOL0     H16541  -0.305   3.360   6.977 -1.8464 -0.3140 -1.2391
  120MOL0     H16542  -0.528   3.188   6.691 -1.0515  0.6890 -1.7372
  120MOL0     H16543  -0.619   3.012   6.557 -0.6871  5.8514  2.3477
  120MOL0     H16544  -0.083   1.520   6.795  0.4546 -1.2945  0.1789
  120MOL0     H16545   0.049   1.541   6.578 -0.0229  0.3466  1.0165
  120MOL0     H16546   0.329   1.437   6.229 -2.0614 -0.2192  0.7950
  120MOL0     H16547   0.427   1.490   6.011  0.6082  0.4779 -3.3068
  120MOL0     H16548   0.218   1.563   5.626  3.1688 -2.7971 -0.3202
  120MOL0     H16549   0.191   1.711   5.732 -0.7594 -0.7544 -1.9518
  120MOL0     H16550   0.310   1.781   5.537 -0.4293 -1.4807  1.2286
  120MOL0     H16551   0.431   1.661   5.559  1.7458 -1.9229  2.6541
  120MOL0     H16552   0.532   1.792   5.734 -1.8587 -1.9248  0.8554
  120MOL0     H16553   0.462   1.903   5.612 -0.7247  0.6224  0.2627
  120MOL0     H16554   0.368   1.830   5.901 -0.1127 -0.3094  0.2765
  120MOL0     H16555   0.257   1.895   5.796 -0.1395 -1.3025  2.5893
  120MOL0     H16556   0.540   2.208   5.897  0.2942 -0.6929  0.4338
  120MOL0     H16557   0.049   1.612   5.869  0.1342 -0.7601 -1.8511
  120MOL0     H16558  -0.152   1.588   5.990  0.1053 -2.5858 -0.5446
  120MOL0     H16559  -0.159   1.447   6.103  0.6509  1.4731  1.4705
  120MOL0     H16560  -0.124   1.599   6.163  0.6326 -2.2966  2.9243
  121MOL0     O16561   4.293   1.145   4.329 -0.0311  0.2177  0.1280
  121MOL0     C16562   4.364   1.090   4.240 -0.1597  0.0910 -0.2073
  121MOL0     O16563   4.413   1.147   4.124  0.2213  0.3097 -0.6796
  121MOL0     C16564   4.424   1.284   4.123 -0.0114  0.3179 -0.1029
  121MOL0     C16565   4.552   1.335   4.135  0.2082 -1.1307 -0.2205
  121MOL0     C16566   4.559   1.480   4.135 -0.3884  0.4062  0.7221
  121MOL0     C16567   4.454   1.564   4.122  0.1585 -0.4912 -0.3606
  121MOL0     O16568   4.488   1.699   4.111 -0.2230 -0.3956 -0.0357
  121MOL0     C16569   4.534   1.747   4.238 -0.4304 -0.0015 -0.1118
  121MOL0     C16570   4.493   1.896   4.222 -0.0365  0.2256 -0.8851
  121MOL0     C16571   4.548   1.977   4.328 -0.5824 -0.0537 -0.2571
  121MOL0     C16572   4.485   2.109   4.326  0.7910 -0.3186  0.5548
  121MOL0     C16573   4.501   2.189   4.458 -0.1330 -0.1204 -0.0162
  121MOL0     C16574   4.463   2.335   4.440  0.9468  0.1807  0.5174
  121MOL0     C16575   4.345   2.358   4.329 -0.1238  0.9377  0.1685
  121MOL0     C16576   4.299   2.497   4.324  0.2899 -0.0246  0.1033
  121MOL0     N16577   4.393   2.592   4.264 -0.0526  0.1468  0.1419
  121MOL0     C16578   4.388   2.652   4.136  0.6487  0.8646 -0.4701
  121MOL0     C16579   4.485   2.742   4.137  0.3012  0.6341  0.1422
  121MOL0     C16580   4.505   2.842   4.029 -0.2738  0.1213 -1.0702
  121MOL0     C16581   4.651   2.859   3.988 -1.3532 -0.2650 -0.1162
  121MOL0     C16582   4.650   2.975   3.893 -0.0081  0.4259 -0.4389
  121MOL0     C16583   4.782   2.993   3.808  0.1854  0.4060  1.2219
  121MOL0     O16584   4.826   2.864   3.761 -0.1503  0.7505 -0.2491
  121MOL0     C16585   4.761   2.794   3.664  0.7854 -0.6232  0.3003
  121MOL0     C16586   4.787   2.657   3.654  0.1469  1.3866 -0.0818
  121MOL0     C16587   4.738   2.575   3.550  0.0426  1.1777 -0.0965
  121MOL0     C16588   4.798   2.437   3.553  0.2014  0.2897  0.6366
  121MOL0     C16589   4.640   2.621   3.459 -0.8666  0.3005  0.3038
  121MOL0     C16590   4.589   2.533   3.346 -0.7823  0.0381 -0.5729
  121MOL0     O16591   4.509   2.601   3.259 -1.0611  0.1655 -0.7551
  121MOL0     C16592   4.448   2.538   3.157 -0.5438 -0.6268  0.7912
  121MOL0     C16593   4.478   2.611   3.046  0.3549  0.3024  1.0141
  121MOL0     C16594   4.439   2.565   2.922  0.1908 -1.0466  0.4358
  121MOL0     C16595   4.375   2.441   2.903 -0.5784 -0.2171 -0.8328
  121MOL0     O16596   4.355   2.386   2.778 -0.1716 -0.6638 -0.1226
  121MOL0     C16597   4.248   2.296   2.756 -0.2990  0.2006  0.1089
  121MOL0     C16598   4.134   2.355   2.674 -0.2053 -0.1474  0.0809
  121MOL0     C16599   4.027   2.254   2.626  0.5040  0.3206  0.1371
  121MOL0     C16600   4.056   2.194   2.489 -0.2018 -0.3664  0.2456
  121MOL0     C16601   3.930   2.114   2.438  0.8581 -0.3736 -0.6320
  121MOL0     C16602   3.949   2.050   2.291 -0.5131  0.4350 -0.7480
  121MOL0     C16603   3.835   1.958   2.252  0.0915 -0.5793 -0.1453
  121MOL0     C16604   3.843   1.900   2.107 -0.2989 -0.9687  0.0582
  121MOL0    Cl16605   3.711   1.799   2.046  0.4818 -0.0907 -0.3504
  121MOL0     C16606   4.347   2.367   3.023  0.4197 -0.3626  0.9964
  121MOL0     C16607   4.375   2.417   3.151  0.5818 -0.2516 -0.1774
  121MOL0     O16608   4.608   2.410   3.352 -0.0639 -0.1109 -0.0578
  121MOL0     C16609   4.600   2.757   3.473 -0.4225  0.5622  0.1602
  121MOL0     C16610   4.658   2.834   3.576  0.6272  0.1347  0.8132
  121MOL0     N16611   4.543   2.745   4.263  0.3627 -0.5509 -0.0249
  121MOL0     N16612   4.496   2.645   4.334 -0.8639 -0.1288 -0.2517
  121MOL0     C16613   4.322   1.508   4.107 -0.8796  0.2546 -0.7100
  121MOL0     C16614   4.307   1.365   4.114 -0.1859 -0.1797  0.1562
  121MOL0     C16615   4.396   0.950   4.274  0.2405  0.8918 -1.0590
  121MOL0     C16616   4.417   0.862   4.167  0.2840 -0.0739  0.4700
  121MOL0     C16617   4.474   0.735   4.187  0.1189  1.0881  0.5912
  121MOL0     C16618   4.509   0.693   4.315  0.5176  1.2011  0.8926
  121MOL0     O16619   4.565   0.576   4.353  0.1352  0.6238  0.0764
  121MOL0     C16620   4.610   0.478   4.265 -0.3599 -0.2032  0.7186
  121MOL0     C16621   4.628   0.337   4.328 -0.0690  0.1097 -0.4520
  121MOL0     C16622   4.497   0.295   4.395  0.1451 -0.3037 -0.3908
  121MOL0     C16623   4.387   0.267   4.289  0.5762  0.3090 -0.6084
  121MOL0     C16624   4.435   0.192   4.179 -0.4778 -0.0181 -0.4082
  121MOL0     C16625   4.501   0.129   4.101 -0.0146 -0.5111 -1.1832
  121MOL0     C16626   4.497   0.784   4.417  0.6458  0.2946  0.3514
  121MOL0     C16627   4.430   0.903   4.403  0.1288  0.1679  0.0875
  121MOL0     C16628   4.424   0.986   4.539  1.3555 -0.0387  0.9578
  121MOL0     H16629   4.645   1.281   4.149  0.3968 -1.0691 -1.1773
  121MOL0     H16630   4.659   1.521   4.128 -0.9516  1.5288 -1.4126
  121MOL0     H16631   4.639   1.728   4.262  0.2485  1.6270 -1.5922
  121MOL0     H16632   4.483   1.698   4.322 -0.4097 -1.1268 -0.7511
  121MOL0     H16633   4.543   1.928   4.130  2.2323 -0.3691  0.0715
  121MOL0     H16634   4.383   1.898   4.224 -0.0638 -0.8743 -0.2838
  121MOL0     H16635   4.522   1.925   4.421 -0.3353 -1.7876 -1.1107
  121MOL0     H16636   4.657   1.976   4.339 -0.5232 -1.6258 -0.8294
  121MOL0     H16637   4.526   2.175   4.249 -1.2940 -0.0683 -0.4263
  121MOL0     H16638   4.376   2.103   4.313  0.5298  4.1907 -1.0881
  121MOL0     H16639   4.605   2.185   4.491 -0.3338 -0.6893  0.5828
  121MOL0     H16640   4.445   2.146   4.542  0.6126  0.7470  0.9588
  121MOL0     H16641   4.435   2.374   4.539  0.3443  2.4447 -0.4778
  121MOL0     H16642   4.544   2.394   4.396 -0.2322 -1.4468 -4.3976
  121MOL0     H16643   4.256   2.298   4.353 -0.2233  1.1255  0.2675
  121MOL0     H16644   4.373   2.322   4.229  1.6449  0.4965  0.7830
  121MOL0     H16645   4.201   2.495   4.276  0.9787 -4.5593 -1.5729
  121MOL0     H16646   4.284   2.539   4.424  0.0484  1.8781 -0.6879
  121MOL0     H16647   4.313   2.636   4.059  0.5648 -1.0158 -0.0569
  121MOL0     H16648   4.467   2.939   4.061 -0.4206 -0.5890  1.0028
  121MOL0     H16649   4.453   2.803   3.941 -1.6989 -2.3365  0.7418
  121MOL0     H16650   4.714   2.882   4.075  1.4983 -1.7113 -1.6586
  121MOL0     H16651   4.688   2.768   3.940 -2.1921 -0.3874 -0.5484
  121MOL0     H16652   4.573   2.954   3.818  0.1676 -0.2563 -0.4371
  121MOL0     H16653   4.629   3.067   3.948 -2.1639 -0.0411 -0.3959
  121MOL0     H16654   4.778   3.064   3.725  1.9242  0.3677  1.0765
  121MOL0     H16655   4.864   3.032   3.869  2.0110  0.2364 -1.0188
  121MOL0     H16656   4.839   2.622   3.743  0.7778 -2.2032 -1.6547
  121MOL0     H16657   4.894   2.437   3.607  1.6373 -4.5356 -1.4395
  121MOL0     H16658   4.822   2.407   3.451  3.0998  2.8982  0.3888
  121MOL0     H16659   4.734   2.360   3.596  0.9242 -2.1273 -2.3287
  121MOL0     H16660   4.516   2.711   3.064  0.8124  0.6106 -1.2964
  121MOL0     H16661   4.467   2.624   2.835 -1.4634  0.5450  0.9271
  121MOL0     H16662   4.281   2.197   2.726 -0.6221  0.4375 -1.0940
  121MOL0     H16663   4.198   2.271   2.850 -0.7157 -0.4373 -0.2765
  121MOL0     H16664   4.083   2.425   2.741 -0.4797 -0.5492  0.2957
  121MOL0     H16665   4.178   2.420   2.598 -2.6940  1.2611 -0.2667
  121MOL0     H16666   3.934   2.307   2.604 -1.3786 -2.9497 -0.3809
  121MOL0     H16667   4.005   2.172   2.695  1.3051  2.4008  3.0799
  121MOL0     H16668   4.139   2.123   2.501 -2.0746 -2.3455  2.5885
  121MOL0     H16669   4.090   2.276   2.426  2.4966 -0.2770  1.6376
  121MOL0     H16670   3.904   2.039   2.514 -2.6464  1.3694  0.1043
  121MOL0     H16671   3.840   2.176   2.437 -0.3534 -2.0260  0.1358
  121MOL0     H16672   4.030   1.977   2.293 -1.5928 -0.7976  0.5574
  121MOL0     H16673   3.962   2.132   2.220 -2.3702  2.6337  1.2562
  121MOL0     H16674   3.740   2.013   2.251 -0.1947 -0.6944 -4.9074
  121MOL0     H16675   3.817   1.883   2.330 -0.7406 -0.1638  0.0811
  121MOL0     H16676   3.933   1.838   2.120  1.9215  2.1353  0.8314
  121MOL0     H16677   3.867   1.983   2.040  1.7080 -1.1800  0.4273
  121MOL0     H16678   4.310   2.265   3.018  2.5337 -1.0864 -2.1503
  121MOL0     H16679   4.353   2.371   3.246 -1.1192  1.5892  0.4041
  121MOL0     H16680   4.524   2.797   3.407  0.3417 -1.0708 -1.8158
  121MOL0     H16681   4.618   2.935   3.589  3.4008  1.1616  2.3326
  121MOL0     H16682   4.232   1.570   4.104 -1.8187 -0.8214  2.1245
  121MOL0     H16683   4.210   1.316   4.114 -2.3059  3.5625 -0.8350
  121MOL0     H16684   4.399   0.891   4.064 -2.0382  0.9205  1.1042
  121MOL0     H16685   4.505   0.687   4.095 -0.4355 -0.5240  1.2118
  121MOL0     H16686   4.545   0.465   4.178  2.0670  1.2752 -1.4760
  121MOL0     H16687   4.705   0.507   4.218 -1.6644  2.7666 -0.3588
  121MOL0     H16688   4.699   0.349   4.410 -2.2714 -2.9755  2.1994
  121MOL0     H16689   4.668   0.260   4.261 -0.5255 -1.9990  1.5505
  121MOL0     H16690   4.514   0.207   4.457  3.2162  1.4721  1.5749
  121MOL0     H16691   4.444   0.369   4.456  1.2332  3.6792 -3.8186
  121MOL0     H16692   4.354   0.361   4.244  0.7615  1.6528  1.9078
  121MOL0     H16693   4.300   0.226   4.341  0.4187  2.5780  1.0722
  121MOL0     H16694   4.564   0.087   4.026  0.6350 -1.1260 -0.3112
  121MOL0     H16695   4.535   0.764   4.517  2.7192  0.9239 -0.2596
  121MOL0     H16696   4.317   1.007   4.551  1.8829  1.5269  4.0196
  121MOL0     H16697   4.452   0.926   4.626  0.4313 -0.3557  1.0526
  121MOL0     H16698   4.487   1.075   4.543  1.6311 -0.1941  0.2325
  122MOL0     O16699   8.762   0.299   4.910 -0.0600 -0.1191 -0.6274
  122MOL0     C16700   8.880   0.266   4.908  0.3754 -0.1856  0.3930
  122MOL0     O16701   8.927   0.150   4.956 -0.8070 -0.1164 -0.4222
  122MOL0     C16702   8.854   0.060   5.033  0.4300 -0.1395  0.9387
  122MOL0     C16703   8.846  -0.072   4.982 -0.0297 -0.3334  0.8652
  122MOL0     C16704   8.771  -0.170   5.041 -0.0055  1.2800  1.0435
  122MOL0     C16705   8.699  -0.148   5.155  0.1822  0.3412 -0.8132
  122MOL0     O16706   8.648  -0.255   5.225  0.7225 -0.1035 -0.8891
  122MOL0     C16707   8.505  -0.252   5.261  0.4075 -0.0159 -0.3361
  122MOL0     C16708   8.404  -0.266   5.148 -0.3551  0.2647  0.3908
  122MOL0     C16709   8.262  -0.243   5.201  0.7046 -0.9085  0.1308
  122MOL0     C16710   8.168  -0.258   5.086  0.2098  0.9384  0.0240
  122MOL0     C16711   8.083  -0.393   5.099  0.4764  0.3709 -0.8627
  122MOL0     C16712   7.988  -0.414   4.975  0.5759  0.3238  0.1163
  122MOL0     C16713   8.032  -0.525   4.878  0.1857 -0.4872 -0.5260
  122MOL0     C16714   7.956  -0.513   4.744  0.0592  0.5492  0.1249
  122MOL0     N16715   7.959  -0.634   4.661 -1.0857  0.1098  0.1046
  122MOL0     C16716   7.868  -0.698   4.595  0.5291  0.2185  1.1018
  122MOL0     C16717   7.931  -0.804   4.547 -0.0098 -0.3744 -0.0060
  122MOL0     C16718   7.874  -0.923   4.469 -0.2313  0.6482  0.4672
  122MOL0     C16719   7.801  -0.868   4.350 -0.4530  0.7738 -0.3830
  122MOL0     C16720   7.727  -0.978   4.285 -0.0239 -0.2621  0.3902
  122MOL0     C16721   7.688  -0.954   4.136 -0.7133  1.0339 -0.0546
  122MOL0     O16722   7.596  -1.052   4.091 -0.4209 -0.3307  0.3842
  122MOL0     C16723   7.543  -1.012   3.968 -0.5417 -0.6004 -0.4525
  122MOL0     C16724   7.601  -0.919   3.876  0.8439 -0.6227  0.1291
  122MOL0     C16725   7.532  -0.885   3.756  0.7513  0.0691  0.0911
  122MOL0     C16726   7.593  -0.786   3.665  0.6806 -0.4239  0.3377
  122MOL0     C16727   7.400  -0.944   3.722 -1.1358  0.0886  0.4485
  122MOL0     C16728   7.322  -0.908   3.594  0.4101  0.3580  0.1412
  122MOL0     O16729   7.197  -0.973   3.584  0.4303 -0.4620 -0.0702
  122MOL0     C16730   7.106  -0.935   3.488  0.3545  0.5042  0.0978
  122MOL0     C16731   7.005  -1.015   3.466  0.4881  0.0766 -0.6869
  122MOL0     C16732   6.901  -0.990   3.364 -0.2255  0.3869  0.7286
  122MOL0     C16733   6.886  -0.857   3.310  0.3195 -1.4732  0.1246
  122MOL0     O16734   6.779  -0.834   3.222 -0.2937  0.3044  0.5686
  122MOL0     C16735   6.661  -0.875   3.277  0.3585  0.3268  0.3395
  122MOL0     C16736   6.528  -0.803   3.219  0.7780  0.0598  0.1736
  122MOL0     C16737   6.506  -0.660   3.272  0.3265 -0.2092 -0.0774
  122MOL0     C16738   6.433  -0.646   3.405  0.7027  0.2135  0.2416
  122MOL0     C16739   6.337  -0.536   3.429  0.2988 -0.7014  0.0499
  122MOL0     C16740   6.402  -0.393   3.431  0.8421 -0.0248  0.4052
  122MOL0     C16741   6.307  -0.284   3.482 -0.5195  0.3285  0.1074
  122MOL0     C16742   6.196  -0.245   3.373 -0.3533  0.7008 -0.1862
  122MOL0    Cl16743   6.104  -0.097   3.430  0.1240 -0.2132 -0.4254
  122MOL0     C16744   6.987  -0.767   3.333  0.7231  0.2883  0.9139
  122MOL0     C16745   7.089  -0.805   3.417 -0.0461 -0.5994 -0.4357
  122MOL0     O16746   7.358  -0.824   3.514  0.7989 -0.1230  0.4351
  122MOL0     C16747   7.352  -1.042   3.811 -0.0199 -0.1400 -0.0419
  122MOL0     C16748   7.425  -1.069   3.932  0.3658  0.6375 -0.3456
  122MOL0     N16749   8.060  -0.801   4.588 -0.0874  0.3783  0.8577
  122MOL0     N16750   8.077  -0.704   4.653 -0.0242  0.3133 -0.2333
  122MOL0     C16751   8.693  -0.017   5.197  0.1382 -0.2477  0.6865
  122MOL0     C16752   8.772   0.085   5.141 -0.0796  0.1503  0.1463
  122MOL0     C16753   8.967   0.359   4.831 -0.6001  0.4290 -0.8239
  122MOL0     C16754   8.938   0.492   4.838 -0.2496 -0.7415  0.1009
  122MOL0     C16755   9.019   0.581   4.772 -0.8779  0.0838  0.3431
  122MOL0     C16756   9.130   0.549   4.692  0.0027 -0.3743  1.1736
  122MOL0     O16757   9.215   0.639   4.634 -0.1870  0.0481 -0.1052
  122MOL0     C16758   9.199   0.779   4.647  0.7918 -1.0449 -0.5777
  122MOL0     C16759   9.261   0.847   4.526  0.3087  0.8041  0.4977
  122MOL0     C16760   9.231   0.991   4.529  0.5875 -0.1180 -0.3359
  122MOL0     C16761   9.336   1.067   4.434  0.6011  0.1214 -0.0860
  122MOL0     C16762   9.347   1.021   4.294  0.5321  0.6176 -1.3600
  122MOL0     C16763   9.326   1.012   4.177 -0.0439 -0.0461 -0.8443
  122MOL0     C16764   9.150   0.418   4.682 -0.0097  0.5013  0.2631
  122MOL0     C16765   9.077   0.311   4.747 -0.0632  0.8603 -0.4440
  122MOL0     C16766   9.123   0.171   4.746  0.0676 -0.5867  0.4500
  122MOL0     H16767   8.919  -0.108   4.910  0.7888  2.2036  0.3020
  122MOL0     H16768   8.790  -0.275   5.020  4.0674  1.5099  2.6306
  122MOL0     H16769   8.488  -0.164   5.324 -0.5424 -0.4053 -0.0286
  122MOL0     H16770   8.489  -0.339   5.325  0.9759 -1.2145 -1.7517
  122MOL0     H16771   8.422  -0.186   5.076  2.2259 -2.3326 -2.1252
  122MOL0     H16772   8.412  -0.368   5.109  1.2522  1.0528 -1.5128
  122MOL0     H16773   8.231  -0.298   5.290 -0.1401 -2.9544 -1.3614
  122MOL0     H16774   8.251  -0.143   5.246  2.4829 -1.4249  1.8144
  122MOL0     H16775   8.098  -0.173   5.086 -0.6731  0.2293 -0.1612
  122MOL0     H16776   8.216  -0.272   4.989 -1.1438  2.9919 -1.0127
  122MOL0     H16777   8.013  -0.379   5.183 -0.0607  0.9764 -1.4069
  122MOL0     H16778   8.152  -0.477   5.111  1.5419  1.2880 -0.3889
  122MOL0     H16779   7.897  -0.460   5.014 -0.0518  0.6940 -0.8568
  122MOL0     H16780   7.974  -0.318   4.924  3.6850  0.8630  0.1265
  122MOL0     H16781   8.035  -0.627   4.918 -0.4439 -0.8317 -1.3202
  122MOL0     H16782   8.131  -0.503   4.838  0.6833  1.1511  1.4322
  122MOL0     H16783   7.849  -0.507   4.768 -0.7193 -0.3110 -2.6648
  122MOL0     H16784   7.974  -0.426   4.681 -0.3211  1.2319  0.9465
  122MOL0     H16785   7.763  -0.678   4.577  1.0208  0.2349 -2.6701
  122MOL0     H16786   7.813  -0.985   4.536 -2.1753  0.2924 -1.5096
  122MOL0     H16787   7.955  -0.986   4.432 -1.0463  1.1689 -2.4542
  122MOL0     H16788   7.717  -0.810   4.390 -2.3748 -1.8111 -0.3853
  122MOL0     H16789   7.869  -0.822   4.278  1.2697 -3.1373 -1.5376
  122MOL0     H16790   7.782  -1.072   4.302  0.0480  0.2221  3.3111
  122MOL0     H16791   7.630  -0.994   4.334 -1.8283  3.5412 -1.5753
  122MOL0     H16792   7.636  -0.858   4.132 -1.0453  0.8436 -0.3350
  122MOL0     H16793   7.779  -0.964   4.077 -1.9585  0.6110 -1.9832
  122MOL0     H16794   7.686  -0.861   3.912  1.3584 -1.3826  0.1692
  122MOL0     H16795   7.526  -0.702   3.645  2.2733  1.4635  2.3411
  122MOL0     H16796   7.634  -0.835   3.577  0.3799 -0.2433  0.0959
  122MOL0     H16797   7.672  -0.735   3.721 -0.2154 -0.2653  1.5117
  122MOL0     H16798   7.005  -1.110   3.517 -0.8435  0.3279 -0.1816
  122MOL0     H16799   6.832  -1.072   3.347 -0.6819  0.6878  1.1073
  122MOL0     H16800   6.659  -0.983   3.257  2.4613  0.6882 -2.6106
  122MOL0     H16801   6.657  -0.836   3.379 -0.1569  4.7424 -1.1690
  122MOL0     H16802   6.536  -0.789   3.111 -0.6472 -0.2553  0.0101
  122MOL0     H16803   6.433  -0.856   3.228 -0.6242  2.3516 -0.1750
  122MOL0     H16804   6.438  -0.614   3.199  1.9230  1.7868 -0.3941
  122MOL0     H16805   6.602  -0.609   3.270  0.9396 -1.2804  0.9838
  122MOL0     H16806   6.510  -0.646   3.482  0.6361 -0.1794  0.3119
  122MOL0     H16807   6.388  -0.746   3.409  1.8266 -0.2869  0.8513
  122MOL0     H16808   6.249  -0.536   3.364 -0.6162 -3.3502  1.1597
  122MOL0     H16809   6.295  -0.550   3.529  1.4232 -0.2835  0.5957
  122MOL0     H16810   6.433  -0.374   3.328 -1.3538  2.9632  0.1561
  122MOL0     H16811   6.497  -0.395   3.487  3.0024  2.9521 -2.7418
  122MOL0     H16812   6.380  -0.204   3.497  1.3973 -1.6037  1.8997
  122MOL0     H16813   6.253  -0.310   3.574  0.2967 -1.1372  0.2034
  122MOL0     H16814   6.129  -0.332   3.372  1.4407 -0.7364 -0.2348
  122MOL0     H16815   6.258  -0.241   3.283  3.8441  0.2522  2.4077
  122MOL0     H16816   6.989  -0.674   3.277 -3.1891  0.2897  0.5174
  122MOL0     H16817   7.164  -0.727   3.429 -1.1498  0.2201  1.5592
  122MOL0     H16818   7.263  -1.096   3.778 -0.6143  0.9670 -0.2999
  122MOL0     H16819   7.385  -1.146   3.997  1.9252 -0.6374 -0.8526
  122MOL0     H16820   8.648  -0.003   5.295  1.8438 -5.7273  2.6608
  122MOL0     H16821   8.763   0.186   5.179 -4.9913  0.1987 -0.5391
  122MOL0     H16822   8.856   0.526   4.901  1.2180 -1.8509  2.7499
  122MOL0     H16823   8.986   0.684   4.776  1.4118  0.8844  0.5746
  122MOL0     H16824   9.098   0.816   4.668  1.4171  1.3782 -1.4207
  122MOL0     H16825   9.256   0.795   4.739 -0.6367 -0.8662  0.2948
  122MOL0     H16826   9.206   0.806   4.441  2.2539 -0.7457 -0.1014
  122MOL0     H16827   9.367   0.820   4.522  0.2186  0.2297  1.4868
  122MOL0     H16828   9.126   1.010   4.504 -0.0619 -2.0910  0.7382
  122MOL0     H16829   9.250   1.023   4.632  1.1567 -1.5611  0.0228
  122MOL0     H16830   9.438   1.063   4.473  0.0778  0.9053  1.4316
  122MOL0     H16831   9.324   1.174   4.450  0.4731  0.2742 -1.1264
  122MOL0     H16832   9.304   1.007   4.072  0.7019  2.1944 -1.1522
  122MOL0     H16833   9.233   0.373   4.628  1.2876  3.2753 -0.2009
  122MOL0     H16834   9.170   0.146   4.841  0.8457  1.9024  0.8079
  122MOL0     H16835   9.041   0.104   4.720 -0.9919  1.6822 -2.7558
  122MOL0     H16836   9.205   0.160   4.674  0.9874 -0.5651  1.4748
  123MOL0     O16837   2.694  10.932   7.836 -0.4171  0.1166 -0.4443
  123MOL0     C16838   2.782  10.848   7.824  0.2228 -0.0805  0.2882
  123MOL0     O16839   2.821  10.793   7.705  0.3253  0.6251  0.3223
  123MOL0     C16840   2.783  10.845   7.589  0.3627 -0.8423  0.1166
  123MOL0     C16841   2.788  10.984   7.558 -0.2962  0.4768  1.1335
  123MOL0     C16842   2.747  11.025   7.421  0.0207  0.4859 -0.8490
  123MOL0     C16843   2.708  10.926   7.328  0.0333  0.0968  0.0652
  123MOL0     O16844   2.686  10.944   7.195  0.1148 -0.1047  0.1350
  123MOL0     C16845   2.729  11.061   7.119  0.3207 -0.0331  0.0047
  123MOL0     C16846   2.842  11.020   7.014  0.0066 -0.2572 -0.4413
  123MOL0     C16847   2.801  10.903   6.931  0.0034  0.6826 -0.8058
  123MOL0     C16848   2.878  10.889   6.793  0.0452  0.9271  0.2875
  123MOL0     C16849   2.825  10.760   6.714 -0.1732  0.4562  0.2832
  123MOL0     C16850   2.678  10.772   6.661 -0.4968  0.5413  0.4060
  123MOL0     C16851   2.668  10.668   6.545  0.3232  0.4717  0.2685
  123MOL0     C16852   2.523  10.667   6.482 -0.0904  0.5469 -0.0101
  123MOL0     N16853   2.532  10.613   6.354  0.2420  0.5566 -0.8017
  123MOL0     C16854   2.600  10.678   6.260  0.8494 -0.8227 -0.1149
  123MOL0     C16855   2.630  10.584   6.171  0.7380 -0.8727 -0.5674
  123MOL0     C16856   2.709  10.605   6.046  0.4309  0.3528 -0.9000
  123MOL0     C16857   2.853  10.600   6.083 -0.3889 -0.1425 -0.3094
  123MOL0     C16858   2.933  10.727   6.078 -0.1623 -0.5091 -0.1504
  123MOL0     C16859   2.966  10.770   5.934  0.9000  0.7370  1.3612
  123MOL0     O16860   3.054  10.680   5.865 -0.3533  0.6013 -0.3945
  123MOL0     C16861   3.128  10.729   5.770 -0.7198 -0.4329  0.4349
  123MOL0     C16862   3.078  10.811   5.670  0.1657  0.1582  0.0205
  123MOL0     C16863   3.151  10.837   5.550  0.4860  0.2631  0.1247
  123MOL0     C16864   3.074  10.928   5.447  0.4479  0.1788 -0.4098
  123MOL0     C16865   3.277  10.771   5.539 -0.3085 -0.7294  0.3783
  123MOL0     C16866   3.354  10.786   5.409  1.2247  0.5402  0.3574
  123MOL0     O16867   3.450  10.702   5.377 -0.2488  0.3607 -0.4230
  123MOL0     C16868   3.499  10.700   5.248 -0.0482  0.3022 -0.1832
  123MOL0     C16869   3.417  10.683   5.135  0.6760 -0.5327  0.8420
  123MOL0     C16870   3.472  10.687   5.002  0.2645  0.7316  0.5401
  123MOL0     C16871   3.607  10.698   4.982 -1.1067  0.6386 -0.0179
  123MOL0     O16872   3.679  10.696   4.861  0.1120  0.1823 -0.1791
  123MOL0     C16873   3.613  10.739   4.740  0.5746 -0.0274 -0.0746
  123MOL0     C16874   3.557  10.881   4.747  0.2036  0.7715  0.4165
  123MOL0     C16875   3.455  10.923   4.642 -0.1527  0.1212  0.3190
  123MOL0     C16876   3.381  11.048   4.684  1.1474  0.0546  0.2506
  123MOL0     C16877   3.290  11.096   4.568 -0.2081  0.4470  0.5653
  123MOL0     C16878   3.228  11.232   4.614  0.1847  0.4587  0.1337
  123MOL0     C16879   3.115  11.292   4.526  0.4800  0.5124 -0.4514
  123MOL0     C16880   3.107  11.444   4.541  0.2614  0.5355 -0.2480
  123MOL0    Cl16881   2.968  11.496   4.451 -0.2674  0.0542 -0.4479
  123MOL0     C16882   3.688  10.696   5.097 -1.8269 -0.7778  0.5390
  123MOL0     C16883   3.639  10.708   5.229 -0.5762 -0.2744 -0.5364
  123MOL0     O16884   3.312  10.870   5.329 -0.0174 -0.0882 -0.1432
  123MOL0     C16885   3.315  10.672   5.631  0.0142 -0.5515 -0.7837
  123MOL0     C16886   3.245  10.650   5.750  0.4216  0.0211 -0.1113
  123MOL0     N16887   2.572  10.463   6.208  0.1874  0.3415  0.2394
  123MOL0     N16888   2.510  10.484   6.316  1.0166  1.1016 -0.9096
  123MOL0     C16889   2.692  10.794   7.359  0.9863 -0.3811 -0.8575
  123MOL0     C16890   2.729  10.758   7.493  0.5731  0.0462  0.8414
  123MOL0     C16891   2.839  10.795   7.953 -0.6546 -1.1675  0.4399
  123MOL0     C16892   2.920  10.671   7.935  0.3311 -1.2205 -0.3141
  123MOL0     C16893   2.951  10.595   8.054 -0.3863 -0.1220  0.6968
  123MOL0     C16894   2.947  10.656   8.177 -0.3279 -0.7645 -0.3580
  123MOL0     O16895   2.992  10.574   8.278 -0.3837 -0.0492 -0.7492
  123MOL0     C16896   2.933  10.581   8.408 -1.3260 -0.2175  0.5258
  123MOL0     C16897   2.943  10.426   8.437 -0.1956  0.5754 -0.5233
  123MOL0     C16898   3.089  10.368   8.450  0.1167  0.1807 -0.5325
  123MOL0     C16899   3.181  10.439   8.554  0.0278  0.7790 -0.5609
  123MOL0     C16900   3.320  10.387   8.536 -0.3073 -0.0462 -0.2851
  123MOL0     C16901   3.437  10.345   8.526  0.1330 -0.2585  0.0302
  123MOL0     C16902   2.887  10.781   8.196  0.7288  0.6512 -0.6833
  123MOL0     C16903   2.831  10.850   8.081 -0.8757 -0.0523 -0.3577
  123MOL0     C16904   2.741  10.970   8.108  0.1212  0.2697 -0.4675
  123MOL0     H16905   2.827  11.052   7.632  2.6695 -2.4760  2.5413
  123MOL0     H16906   2.756  11.128   7.388  2.9023  1.3227  2.0161
  123MOL0     H16907   2.754  11.157   7.164 -1.8221 -0.2603  1.9065
  123MOL0     H16908   2.638  11.086   7.063 -0.4073  0.0759  1.1938
  123MOL0     H16909   2.853  11.103   6.942  1.0256  0.0687  0.0618
  123MOL0     H16910   2.941  11.013   7.060  0.2212  2.4361 -0.2849
  123MOL0     H16911   2.824  10.811   6.986 -0.6919 -0.7383 -2.7779
  123MOL0     H16912   2.695  10.925   6.915 -0.0081  2.1128  0.8885
  123MOL0     H16913   2.857  10.977   6.732  1.3868  3.1109  2.7761
  123MOL0     H16914   2.986  10.881   6.804  0.2164  0.6431 -1.3399
  123MOL0     H16915   2.823  10.676   6.783 -1.1280  2.6719  3.1504
  123MOL0     H16916   2.890  10.744   6.628 -0.0691 -1.0052  0.6131
  123MOL0     H16917   2.612  10.746   6.744  0.0367  1.5658  1.1603
  123MOL0     H16918   2.660  10.874   6.624 -0.3717 -0.0193 -1.3153
  123MOL0     H16919   2.699  10.566   6.569  0.9572 -0.2430 -3.0367
  123MOL0     H16920   2.729  10.712   6.465  3.6192  2.5481  3.5848
  123MOL0     H16921   2.471  10.598   6.550  0.1288  0.9661  0.5861
  123MOL0     H16922   2.484  10.769   6.484 -0.0777  0.7039 -3.0891
  123MOL0     H16923   2.631  10.782   6.255  1.7380 -1.0034  1.1755
  123MOL0     H16924   2.676  10.695   5.994 -4.0417 -0.4394  0.2004
  123MOL0     H16925   2.696  10.521   5.977  1.6620  0.5576 -1.4057
  123MOL0     H16926   2.871  10.559   6.183 -0.3201 -0.0774 -0.2949
  123MOL0     H16927   2.909  10.535   6.015  2.8348 -2.4954  4.0637
  123MOL0     H16928   2.864  10.802   6.116 -0.3187 -0.6032 -0.2491
  123MOL0     H16929   3.032  10.720   6.125  0.0545 -3.1771 -0.8440
  123MOL0     H16930   2.877  10.775   5.871  0.2911 -1.9512  1.8925
  123MOL0     H16931   3.017  10.866   5.946  2.0597  0.2796  0.3341
  123MOL0     H16932   2.981  10.858   5.682 -0.4545 -0.1891 -2.8900
  123MOL0     H16933   3.077  10.892   5.344  0.7647  1.6168 -0.9137
  123MOL0     H16934   3.118  11.027   5.438 -3.6903  2.2131 -0.5919
  123MOL0     H16935   2.967  10.937   5.467  0.5790  1.2907 -0.1841
  123MOL0     H16936   3.312  10.659   5.143  0.6077 -0.2129  0.9523
  123MOL0     H16937   3.393  10.672   4.929 -1.1658 -0.8809  2.3426
  123MOL0     H16938   3.694  10.736   4.666  0.4269 -1.9189 -0.1919
  123MOL0     H16939   3.535  10.673   4.704  0.9701  0.1952 -1.4201
  123MOL0     H16940   3.511  10.911   4.842 -0.8591  4.0597 -0.9823
  123MOL0     H16941   3.639  10.948   4.720 -0.4714  1.3316 -0.2945
  123MOL0     H16942   3.372  10.857   4.614 -0.8679  0.6355  1.1532
  123MOL0     H16943   3.500  10.951   4.546  0.6544 -2.3850 -0.1245
  123MOL0     H16944   3.456  11.119   4.720  0.9895 -0.6425  2.0862
  123MOL0     H16945   3.318  11.018   4.769  1.1199 -1.6658 -0.3376
  123MOL0     H16946   3.350  11.121   4.480  0.1469 -1.1019  0.3448
  123MOL0     H16947   3.219  11.024   4.527 -0.2755  0.8585 -0.0459
  123MOL0     H16948   3.307  11.307   4.610  2.6104 -2.0001 -2.4261
  123MOL0     H16949   3.193  11.232   4.718  1.3024 -0.7125  0.5465
  123MOL0     H16950   3.019  11.248   4.552 -0.0166  2.0742  0.5264
  123MOL0     H16951   3.129  11.269   4.420 -1.1940  1.5313 -0.9230
  123MOL0     H16952   3.198  11.469   4.486  0.3062 -2.9902 -2.0751
  123MOL0     H16953   3.113  11.477   4.645  2.8191  0.1987 -0.2286
  123MOL0     H16954   3.793  10.687   5.074 -1.7804 -1.6087  1.0314
  123MOL0     H16955   3.691  10.727   5.322 -3.3902 -2.9716  1.7872
  123MOL0     H16956   3.396  10.602   5.611  1.0739 -0.4728  2.5728
  123MOL0     H16957   3.275  10.572   5.819  2.5245 -0.1020 -1.0648
  123MOL0     H16958   2.635  10.741   7.283 -4.2897  2.5831  0.4708
  123MOL0     H16959   2.704  10.656   7.523  2.1300 -0.7051 -0.2992
  123MOL0     H16960   2.945  10.635   7.835  0.5093  0.0332 -0.7391
  123MOL0     H16961   2.998  10.499   8.035  0.8013  0.7239 -1.0223
  123MOL0     H16962   3.001  10.642   8.467 -0.3017 -1.7354  0.9733
  123MOL0     H16963   2.833  10.622   8.390 -1.5939 -1.8795 -2.6790
  123MOL0     H16964   2.891  10.378   8.354 -1.1877 -0.1742  0.4947
  123MOL0     H16965   2.895  10.418   8.535  1.8071 -0.8308  0.4006
  123MOL0     H16966   3.088  10.266   8.490  4.5537  0.8379  1.9909
  123MOL0     H16967   3.140  10.367   8.353  1.5559  0.5526  0.1862
  123MOL0     H16968   3.143  10.412   8.653 -3.8077 -1.0463 -2.3230
  123MOL0     H16969   3.187  10.547   8.537  0.0214  0.9005  0.1737
  123MOL0     H16970   3.531  10.294   8.528  0.2584 -0.0119  0.4262
  123MOL0     H16971   2.881  10.815   8.299  0.7815 -2.9010  0.6159
  123MOL0     H16972   2.721  10.983   8.215  2.7987 -2.5016  0.5101
  123MOL0     H16973   2.807  11.049   8.070 -0.4260  0.5593 -0.8340
  123MOL0     H16974   2.639  10.973   8.068 -1.6830 -0.9989  3.4846
  124MOL0     O16975   9.626   1.595   7.006 -0.0364 -0.5302 -0.6421
  124MOL0     C16976   9.525   1.654   7.033 -0.2458 -0.8768 -0.6698
  124MOL0     O16977   9.403   1.595   7.049 -0.4408 -0.5531 -0.4922
  124MOL0     C16978   9.385   1.469   7.000 -0.6632  0.9696 -0.4160
  124MOL0     C16979   9.315   1.382   7.086  0.3503 -0.2291  0.2624
  124MOL0     C16980   9.288   1.251   7.057 -0.8404  0.1385  0.3018
  124MOL0     C16981   9.327   1.195   6.933  0.3892  1.0011 -0.8552
  124MOL0     O16982   9.331   1.059   6.896 -0.4704 -0.6736  0.2510
  124MOL0     C16983   9.290   0.973   7.005  0.3475  0.3991  0.3048
  124MOL0     C16984   9.265   0.827   6.965 -0.8831  0.5115  0.1680
  124MOL0     C16985   9.387   0.770   6.910 -0.1239  0.0928  0.3076
  124MOL0     C16986   9.417   0.630   6.942 -0.0598 -0.2633  1.0608
  124MOL0     C16987   9.500   0.563   6.841  0.3261  0.1153  0.5713
  124MOL0     C16988   9.648   0.618   6.838  0.4376 -0.9811  1.0585
  124MOL0     C16989   9.748   0.526   6.767  0.0022 -0.7517  0.3598
  124MOL0     C16990   9.889   0.574   6.790 -0.7887 -0.0679  0.0787
  124MOL0     N16991   9.995   0.487   6.738 -0.5405 -0.2652 -0.3424
  124MOL0     C16992  10.020   0.472   6.606  0.6311  0.2447  0.5142
  124MOL0     C16993  10.119   0.383   6.592  0.1638 -1.0840  1.4214
  124MOL0     C16994  10.165   0.337   6.453 -1.1693 -0.4888 -0.1046
  124MOL0     C16995  10.060   0.254   6.373  0.6016 -0.1717 -0.5760
  124MOL0     C16996  10.020   0.117   6.417 -0.7085 -0.6967 -0.3861
  124MOL0     C16997   9.900   0.128   6.506 -0.1628  0.1412 -0.0829
  124MOL0     O16998   9.785   0.151   6.422  0.0051  0.1459  0.0035
  124MOL0     C16999   9.671   0.158   6.498 -0.4265  0.6990 -1.0841
  124MOL0     C17000   9.620   0.057   6.574 -0.1243 -0.9639  0.0669
  124MOL0     C17001   9.511   0.077   6.660 -0.2049 -0.4245 -0.0824
  124MOL0     C17002   9.450  -0.047   6.728  0.0527  0.5286  0.1667
  124MOL0     C17003   9.450   0.205   6.663 -0.4509  0.0729 -0.3379
  124MOL0     C17004   9.346   0.230   6.760  0.1003 -0.3349 -0.2768
  124MOL0     O17005   9.226   0.265   6.714  0.4900  0.4388  0.0221
  124MOL0     C17006   9.111   0.220   6.777  0.2834 -0.0007 -1.1557
  124MOL0     C17007   9.050   0.093   6.751 -0.6630  0.5997 -0.8273
  124MOL0     C17008   8.940   0.039   6.822  0.1577  0.3000  1.1689
  124MOL0     C17009   8.887   0.107   6.931 -0.1592  0.1147  0.1286
  124MOL0     O17010   8.792   0.060   7.013  0.6659 -0.9565  0.9900
  124MOL0     C17011   8.714  -0.059   6.978  0.7750  0.7109 -0.7248
  124MOL0     C17012   8.587  -0.081   7.063 -0.7201 -0.6723  0.5036
  124MOL0     C17013   8.494   0.049   7.072  0.1881  0.0686 -0.4910
  124MOL0     C17014   8.396   0.026   7.179 -0.1580  0.4341 -0.2523
  124MOL0     C17015   8.286   0.129   7.177  0.4772 -0.1377 -0.5546
  124MOL0     C17016   8.164   0.092   7.266 -0.2386 -0.0471 -0.1077
  124MOL0     C17017   8.089  -0.029   7.195  0.1544 -1.9705 -0.4724
  124MOL0     C17018   7.965  -0.071   7.275  0.0956 -0.0020  0.0179
  124MOL0    Cl17019   8.025  -0.169   7.414 -0.5646  0.0524 -0.3615
  124MOL0     C17020   8.937   0.231   6.952 -0.3731  0.1512 -0.2899
  124MOL0     C17021   9.044   0.284   6.888 -0.5771 -0.0949  0.1165
  124MOL0     O17022   9.372   0.212   6.878  0.3263  0.6149 -0.5944
  124MOL0     C17023   9.507   0.307   6.582 -0.1815  0.1350 -0.3166
  124MOL0     C17024   9.610   0.279   6.493  0.3122  0.7991  0.1346
  124MOL0     N17025  10.164   0.351   6.717  0.0400  0.0621 -0.4664
  124MOL0     N17026  10.087   0.414   6.804  0.6082  0.7869 -0.1529
  124MOL0     C17027   9.384   1.286   6.835 -0.2721 -0.6965  0.7393
  124MOL0     C17028   9.409   1.420   6.873  0.0413  0.8168 -0.0775
  124MOL0     C17029   9.541   1.810   7.048 -0.5396 -0.1593  0.1750
  124MOL0     C17030   9.671   1.864   7.037  0.3179  0.4849  0.1598
  124MOL0     C17031   9.693   2.001   7.054  0.3169 -1.1602  0.5020
  124MOL0     C17032   9.590   2.089   7.086  0.4322 -0.0796  0.6637
  124MOL0     O17033   9.627   2.219   7.111  0.1407  0.6532 -0.2984
  124MOL0     C17034   9.528   2.294   7.183  0.6008  0.4265  0.8688
  124MOL0     C17035   9.432   2.354   7.084 -0.6799  0.6165 -0.3715
  124MOL0     C17036   9.426   2.506   7.091  0.1497  0.2697 -0.0905
  124MOL0     C17037   9.524   2.577   7.000 -0.4477  0.1165  0.8029
  124MOL0     C17038   9.558   2.717   7.016  0.9043  0.1469 -1.2501
  124MOL0     C17039   9.599   2.832   7.031  0.6167  0.4693 -0.0347
  124MOL0     C17040   9.461   2.033   7.100 -0.4111  0.0392 -0.0906
  124MOL0     C17041   9.443   1.902   7.068  0.1526  0.2286 -0.5271
  124MOL0     C17042   9.298   1.855   7.051 -0.8571  0.2328  0.5095
  124MOL0     H17043   9.285   1.437   7.174  0.9775  1.9233 -0.7884
  124MOL0     H17044   9.246   1.196   7.140  3.1885 -0.6738  2.0245
  124MOL0     H17045   9.190   1.001   7.040 -0.6900 -0.8507 -1.4720
  124MOL0     H17046   9.353   0.997   7.091 -1.3585  2.1059  1.1787
  124MOL0     H17047   9.245   0.775   7.059  0.5040 -1.8916 -0.7928
  124MOL0     H17048   9.180   0.822   6.896 -2.3251  0.5793  1.8507
  124MOL0     H17049   9.365   0.775   6.803  1.6059  2.1270 -0.0210
  124MOL0     H17050   9.476   0.822   6.946  0.2461 -1.0868  1.1516
  124MOL0     H17051   9.467   0.607   7.036  1.1229 -1.3293  0.2057
  124MOL0     H17052   9.317   0.586   6.944 -0.6275  0.7778 -1.0405
  124MOL0     H17053   9.449   0.569   6.745  2.8191  2.3083 -0.7570
  124MOL0     H17054   9.506   0.455   6.857  1.8481 -0.6767 -3.8725
  124MOL0     H17055   9.652   0.712   6.782 -1.0390 -0.5756  1.5930
  124MOL0     H17056   9.679   0.631   6.943  2.3887  1.8207  0.2867
  124MOL0     H17057   9.719   0.532   6.661 -1.7781  2.5516  0.9157
  124MOL0     H17058   9.725   0.423   6.798 -1.2748 -1.7179 -3.2248
  124MOL0     H17059   9.890   0.676   6.749  1.1833  1.3256  3.1956
  124MOL0     H17060   9.910   0.583   6.897  3.4762  4.3301 -0.8042
  124MOL0     H17061   9.972   0.517   6.520 -1.1168 -0.4883  1.0696
  124MOL0     H17062  10.252   0.271   6.459  0.0797  1.0776 -0.1612
  124MOL0     H17063  10.190   0.414   6.380 -0.5734  0.9254  1.5181
  124MOL0     H17064   9.968   0.311   6.356  0.7625  1.0231  2.0183
  124MOL0     H17065  10.103   0.235   6.274 -0.3206 -0.4359 -0.9418
  124MOL0     H17066   9.999   0.058   6.327  1.9480  2.2155 -3.1702
  124MOL0     H17067  10.108   0.073   6.466 -0.4155  0.3953  0.1018
  124MOL0     H17068   9.889   0.033   6.559 -2.6949  0.3762 -0.0632
  124MOL0     H17069   9.917   0.210   6.576  2.6814  0.7776 -1.3652
  124MOL0     H17070   9.651  -0.046   6.561  1.4059 -0.3765 -1.3136
  124MOL0     H17071   9.480  -0.049   6.833 -0.9883  0.4994  0.4746
  124MOL0     H17072   9.499  -0.134   6.683  0.5168  1.2201 -0.7117
  124MOL0     H17073   9.340  -0.049   6.724 -0.0745  2.3401  1.4058
  124MOL0     H17074   9.102   0.035   6.675 -3.3312 -3.3586  0.0550
  124MOL0     H17075   8.900  -0.057   6.791  0.0612  1.6089 -3.6343
  124MOL0     H17076   8.694  -0.060   6.871  2.7760  1.8284 -1.1691
  124MOL0     H17077   8.779  -0.147   6.982  0.2221  0.2759 -1.2349
  124MOL0     H17078   8.530  -0.160   7.013  1.7840 -0.8202 -2.3687
  124MOL0     H17079   8.611  -0.112   7.165  1.0438  0.5939  0.5209
  124MOL0     H17080   8.451   0.080   6.976  0.0936 -1.4255 -0.9430
  124MOL0     H17081   8.538   0.143   7.108 -0.9758  0.6266 -0.4921
  124MOL0     H17082   8.452   0.017   7.273  1.0947  2.0206 -0.7987
  124MOL0     H17083   8.351  -0.074   7.173  0.7555 -0.1371  1.4368
  124MOL0     H17084   8.329   0.216   7.227 -1.0905  0.9932 -1.1131
  124MOL0     H17085   8.264   0.151   7.072  1.5246 -0.5442 -0.8702
  124MOL0     H17086   8.094   0.175   7.280 -1.7414 -1.6260  2.4399
  124MOL0     H17087   8.199   0.064   7.366 -0.9699 -1.1854 -0.1435
  124MOL0     H17088   8.154  -0.117   7.190 -0.6030 -2.4844 -3.4906
  124MOL0     H17089   8.067   0.004   7.093  3.0060  2.4606  0.0685
  124MOL0     H17090   7.911  -0.146   7.216 -0.3666  0.2747  0.0891
  124MOL0     H17091   7.899   0.014   7.291 -0.8774 -0.6410 -0.4940
  124MOL0     H17092   8.887   0.292   7.026 -1.8745  0.8650 -1.8176
  124MOL0     H17093   9.079   0.376   6.936 -1.5701 -0.6175  1.9282
  124MOL0     H17094   9.469   0.408   6.565  2.7107  1.1274 -1.6230
  124MOL0     H17095   9.640   0.354   6.421 -1.6733 -0.3832 -2.0627
  124MOL0     H17096   9.430   1.249   6.743 -2.4018 -0.5010 -0.4776
  124MOL0     H17097   9.460   1.469   6.791 -1.6458 -0.3210 -1.9016
  124MOL0     H17098   9.764   1.811   7.019  0.2480  0.4698 -0.1736
  124MOL0     H17099   9.791   2.047   7.046 -0.9796  1.4872 -2.0329
  124MOL0     H17100   9.479   2.255   7.273 -2.2390  1.2469 -0.2131
  124MOL0     H17101   9.579   2.380   7.227 -1.1215  1.1540  1.5527
  124MOL0     H17102   9.329   2.321   7.099 -1.5978  3.8500  1.4223
  124MOL0     H17103   9.469   2.324   6.985  0.8741  2.2990 -0.3535
  124MOL0     H17104   9.324   2.545   7.087 -0.6985 -1.8534 -0.1181
  124MOL0     H17105   9.453   2.546   7.189 -1.6929 -1.1736  1.0627
  124MOL0     H17106   9.486   2.580   6.898 -0.2867  3.4231  0.7399
  124MOL0     H17107   9.618   2.520   7.004 -1.1964 -1.0960  3.0446
  124MOL0     H17108   9.628   2.935   7.022 -0.0203  0.7758  1.2278
  124MOL0     H17109   9.375   2.095   7.120  1.0736  2.8463 -1.7913
  124MOL0     H17110   9.222   1.933   7.060 -2.0774 -0.4481 -2.5533
  124MOL0     H17111   9.287   1.801   6.956 -0.5244 -0.8020  1.0522
  124MOL0     H17112   9.261   1.792   7.132  1.9760  0.5694  2.1832
  125MOL0     O17113   1.925   9.413  10.215 -0.1976  0.1894  0.1077
  125MOL0     C17114   1.954   9.428  10.095  0.5203  1.0609  0.2607
  125MOL0     O17115   2.018   9.539  10.038 -0.8555 -0.2162  0.3893
  125MOL0     C17116   2.033   9.641  10.130  0.0484  0.6175  0.1703
  125MOL0     C17117   2.102   9.627  10.251  0.6789  0.5421  0.1237
  125MOL0     C17118   2.114   9.737  10.343  0.8294  0.2551 -0.1254
  125MOL0     C17119   2.068   9.861  10.309 -0.0597 -0.1733 -0.7775
  125MOL0     O17120   2.100   9.959  10.397 -0.3475 -0.1088 -0.2396
  125MOL0     C17121   2.168  10.072  10.332  0.2347  0.4998 -0.5719
  125MOL0     C17122   2.204  10.168  10.436 -0.5908 -0.3904  0.4174
  125MOL0     C17123   2.097  10.222  10.530  0.9748  0.4608 -0.1263
  125MOL0     C17124   2.131  10.362  10.588 -0.2100  0.6436 -0.2402
  125MOL0     C17125   2.020  10.394  10.680 -1.0157  0.1326  0.4124
  125MOL0     C17126   2.054  10.528  10.734  0.6818  0.1314 -0.2317
  125MOL0     C17127   1.937  10.591  10.804  0.4655  1.0387 -0.0074
  125MOL0     C17128   1.888  10.711  10.739 -0.0843 -0.5553 -0.4737
  125MOL0     N17129   1.765  10.773  10.802 -0.1428  0.4406 -0.6938
  125MOL0     C17130   1.716  10.741  10.932  0.1925  1.2065 -0.4704
  125MOL0     C17131   1.621  10.833  10.956 -0.3060 -1.0290  0.9047
  125MOL0     C17132   1.516  10.847  11.064  0.2353 -0.5478 -0.0676
  125MOL0     C17133   1.424  10.719  11.074  0.4451 -0.0096 -0.0135
  125MOL0     C17134   1.298  10.737  10.985 -0.0474 -0.9379  0.2908
  125MOL0     C17135   1.188  10.833  11.005  0.4055  0.2996  0.1125
  125MOL0     O17136   1.108  10.798  11.117 -0.4126  0.7518  0.3277
  125MOL0     C17137   0.983  10.853  11.118 -0.5131 -0.6126 -1.6247
  125MOL0     C17138   0.901  10.801  11.217  0.0259  0.1892 -0.0045
  125MOL0     C17139   0.765  10.845  11.245 -1.4063  0.3219  0.6774
  125MOL0     C17140   0.685  10.778  11.350  0.2421  1.3043 -0.0382
  125MOL0     C17141   0.708  10.950  11.159  0.8091  0.8835 -0.7098
  125MOL0     C17142   0.570  10.995  11.160 -0.8422  0.7230 -0.1470
  125MOL0     O17143   0.550  11.122  11.118  0.6284  0.2025  0.4952
  125MOL0     C17144   0.420  11.178  11.136  0.7503 -0.1730  1.1491
  125MOL0     C17145   0.332  11.143  11.244 -0.4812 -0.4576  1.3424
  125MOL0     C17146   0.206  11.190  11.249  0.0591 -0.3283  0.0334
  125MOL0     C17147   0.162  11.286  11.153 -0.5163 -0.0088 -0.4320
  125MOL0     O17148   0.043  11.341  11.159  0.1896  0.4557  0.8646
  125MOL0     C17149  -0.004  11.374  11.289 -0.3365 -0.3807 -0.8024
  125MOL0     C17150  -0.124  11.463  11.289  1.1929 -0.5061 -0.0942
  125MOL0     C17151  -0.166  11.525  11.423  0.0672  0.6457  0.0721
  125MOL0     C17152  -0.276  11.622  11.427 -0.7007 -0.6117 -0.1824
  125MOL0     C17153  -0.310  11.645  11.576  0.3818  0.1801 -0.2892
  125MOL0     C17154  -0.431  11.734  11.605 -0.1287 -1.2543 -0.0298
  125MOL0     C17155  -0.377  11.881  11.603  0.2951 -0.7271 -0.0184
  125MOL0     C17156  -0.449  11.969  11.703 -0.0798 -0.8613 -0.5454
  125MOL0    Cl17157  -0.614  12.016  11.655 -0.1305  0.1427  0.3068
  125MOL0     C17158   0.252  11.327  11.053 -0.0641 -0.3313 -0.6606
  125MOL0     C17159   0.376  11.267  11.037  0.1554 -0.2111  0.3674
  125MOL0     O17160   0.485  10.912  11.178  0.4130  0.3790  0.9415
  125MOL0     C17161   0.792  11.003  11.064 -1.0909 -0.3025  0.0393
  125MOL0     C17162   0.929  10.957  11.039  0.2805 -1.2351  0.5436
  125MOL0     N17163   1.620  10.924  10.851 -0.1325 -0.0571 -0.9756
  125MOL0     N17164   1.717  10.891  10.770  0.3624  1.1791 -0.3690
  125MOL0     C17165   2.002   9.876  10.188 -0.1462  0.1492 -1.1158
  125MOL0     C17166   1.988   9.771  10.103  0.3498  0.4199  1.4282
  125MOL0     C17167   1.941   9.308  10.005 -0.0801 -0.1048  0.3363
  125MOL0     C17168   2.030   9.303   9.899 -0.4371 -0.3427  0.0049
  125MOL0     C17169   2.020   9.188   9.820 -0.2619  0.1876 -0.1386
  125MOL0     C17170   1.931   9.081   9.835  0.7718  0.0540  0.2682
  125MOL0     O17171   1.923   8.987   9.744 -0.0389  0.7842 -0.4938
  125MOL0     C17172   2.052   8.927   9.724  0.2520  0.1511  0.1230
  125MOL0     C17173   2.014   8.784   9.678 -0.4211 -0.5117  0.9778
  125MOL0     C17174   2.149   8.711   9.684 -0.0421 -0.0022 -0.4638
  125MOL0     C17175   2.146   8.586   9.612  0.1047  0.2663  0.5390
  125MOL0     C17176   2.075   8.473   9.677  0.2131 -1.0492 -0.3637
  125MOL0     C17177   1.995   8.394   9.713  0.0371  1.0018  0.0676
  125MOL0     C17178   1.837   9.089   9.938  0.5900 -0.2429 -1.0982
  125MOL0     C17179   1.842   9.210  10.024  1.1203  0.6927  0.7615
  125MOL0     C17180   1.734   9.227  10.122 -1.5201 -0.0015 -0.7401
  125MOL0     H17181   2.143   9.529  10.274 -1.3548 -1.0901 -2.6295
  125MOL0     H17182   2.178   9.720  10.429 -0.9707  2.1570  1.7046
  125MOL0     H17183   2.106  10.116  10.253 -1.3408 -0.9243 -0.1779
  125MOL0     H17184   2.251  10.045  10.265  0.3441  0.0803 -0.2698
  125MOL0     H17185   2.280  10.132  10.505  2.5566  1.8142 -1.6268
  125MOL0     H17186   2.251  10.260  10.401 -1.1654 -0.2024  0.1149
  125MOL0     H17187   1.999  10.230  10.482 -1.5806  1.1963  4.5995
  125MOL0     H17188   2.085  10.154  10.615  0.9816 -2.0323 -2.0166
  125MOL0     H17189   2.233  10.367  10.628 -0.3809  1.9177  0.0686
  125MOL0     H17190   2.137  10.433  10.504  1.5928 -1.4794 -2.0499
  125MOL0     H17191   2.027  10.322  10.761 -0.2144 -1.8018 -1.2773
  125MOL0     H17192   1.928  10.390  10.622 -0.5585 -0.5715 -0.2903
  125MOL0     H17193   2.135  10.522  10.807  0.1342 -1.2260  0.3040
  125MOL0     H17194   2.080  10.597  10.653 -0.8983  1.4956  0.3437
  125MOL0     H17195   1.953  10.608  10.911 -2.6510 -3.6438  1.4973
  125MOL0     H17196   1.857  10.517  10.803 -0.1461  1.6677 -1.7099
  125MOL0     H17197   1.960  10.794  10.733 -2.1566  1.3325 -0.4902
  125MOL0     H17198   1.846  10.675  10.645 -1.3119 -1.3517  0.3662
  125MOL0     H17199   1.714  10.651  10.993  0.0743  0.4209 -1.6128
  125MOL0     H17200   1.454  10.936  11.046  0.5013 -0.5253 -0.9461
  125MOL0     H17201   1.564  10.858  11.162 -0.7803 -1.5128  0.5630
  125MOL0     H17202   1.483  10.634  11.039 -1.0994 -1.2756  0.3520
  125MOL0     H17203   1.393  10.710  11.179  1.3513  3.1534  0.6360
  125MOL0     H17204   1.331  10.747  10.881  2.5168  2.5027  1.2518
  125MOL0     H17205   1.254  10.637  10.981 -0.2408 -0.8729 -3.5696
  125MOL0     H17206   1.216  10.939  11.004 -0.1224  0.4728 -2.1850
  125MOL0     H17207   1.125  10.817  10.917  2.2195 -1.7145 -0.9339
  125MOL0     H17208   0.945  10.737  11.292 -0.8306  0.2791  0.5829
  125MOL0     H17209   0.620  10.854  11.393 -2.5953 -0.9349 -0.0140
  125MOL0     H17210   0.746  10.729  11.427  1.8247  1.9582 -0.8265
  125MOL0     H17211   0.619  10.700  11.310  1.5856  0.6277 -1.0585
  125MOL0     H17212   0.373  11.067  11.309  0.3347 -1.1394  0.0679
  125MOL0     H17213   0.141  11.135  11.317 -3.2913  2.2027 -0.8992
  125MOL0     H17214  -0.022  11.281  11.344  3.6532 -0.5594  0.5634
  125MOL0     H17215   0.072  11.431  11.344 -1.1422 -0.3877  0.3623
  125MOL0     H17216  -0.116  11.545  11.217 -0.5452  0.0290  0.2515
  125MOL0     H17217  -0.207  11.406  11.246  1.9947 -0.9518 -1.0819
  125MOL0     H17218  -0.077  11.556  11.477  1.6745 -2.3646 -0.6348
  125MOL0     H17219  -0.196  11.438  11.482  2.8696  2.3124  4.4365
  125MOL0     H17220  -0.364  11.589  11.371 -3.3597 -0.4886  3.5576
  125MOL0     H17221  -0.231  11.709  11.378  0.5756 -0.9696  0.2967
  125MOL0     H17222  -0.337  11.555  11.631 -0.2423 -1.0347 -2.4736
  125MOL0     H17223  -0.224  11.696  11.622  1.5978  0.5117 -2.8018
  125MOL0     H17224  -0.471  11.732  11.707 -0.4031 -0.4127 -0.1100
  125MOL0     H17225  -0.514  11.722  11.535 -3.0872  0.6819  2.8481
  125MOL0     H17226  -0.379  11.920  11.501 -4.2474 -3.0499 -1.0844
  125MOL0     H17227  -0.271  11.889  11.631  0.5320 -1.1738 -0.7603
  125MOL0     H17228  -0.396  12.064  11.718  0.2651 -1.4941  3.2255
  125MOL0     H17229  -0.445  11.916  11.799  1.2625 -1.1467 -0.7351
  125MOL0     H17230   0.232  11.392  10.969  1.3697  0.7964 -0.1518
  125MOL0     H17231   0.435  11.301  10.952 -0.1741 -1.9191 -0.5917
  125MOL0     H17232   0.750  11.066  10.986  1.1599  0.8548 -0.3141
  125MOL0     H17233   0.967  11.013  10.954  0.6046 -0.8583  0.9333
  125MOL0     H17234   1.959   9.974  10.170 -0.6413  0.2501  0.4427
  125MOL0     H17235   1.929   9.781  10.012  0.4191  0.4643  1.3873
  125MOL0     H17236   2.098   9.385   9.879 -0.0656 -0.8181 -0.6800
  125MOL0     H17237   2.076   9.202   9.728 -2.4995  0.0420 -1.5926
  125MOL0     H17238   2.093   8.989   9.643 -0.3528  0.8671  0.3599
  125MOL0     H17239   2.112   8.926   9.816 -0.3998  0.6102  0.5601
  125MOL0     H17240   1.964   8.778   9.581  1.2196 -2.4151  0.1771
  125MOL0     H17241   1.945   8.741   9.751 -1.0910 -0.7383  0.2284
  125MOL0     H17242   2.226   8.756   9.620  0.4364 -1.8938 -1.3019
  125MOL0     H17243   2.180   8.684   9.785 -1.5032 -1.9197 -0.4490
  125MOL0     H17244   2.245   8.542   9.606 -0.2269 -0.6908  1.8021
  125MOL0     H17245   2.111   8.615   9.512 -0.9684 -2.1244  0.1393
  125MOL0     H17246   1.914   8.346   9.765  0.5997  1.9346  1.8837
  125MOL0     H17247   1.773   9.003   9.956 -0.5176  1.1912  3.3377
  125MOL0     H17248   1.765   9.191  10.220  1.4462  1.1063 -1.1818
  125MOL0     H17249   1.723   9.335  10.134  1.2470  0.1086  2.0445
  125MOL0     H17250   1.643   9.170  10.102 -1.7986  0.1769 -0.0250
  126MOL0     O17251   7.383   7.640   5.193  0.3547 -0.9928  0.4276
  126MOL0     C17252   7.425   7.526   5.224 -1.2713 -0.8951 -0.2306
  126MOL0     O17253   7.505   7.450   5.138  0.1266  0.0900  0.4272
  126MOL0     C17254   7.505   7.492   5.008 -0.5101 -0.6134 -0.1322
  126MOL0     C17255   7.630   7.499   4.948  0.3501 -0.9026  0.1148
  126MOL0     C17256   7.653   7.556   4.818  0.0053  0.8641 -0.6298
  126MOL0     C17257   7.537   7.577   4.733  0.0152  0.4901  0.2137
  126MOL0     O17258   7.548   7.625   4.608  0.8983  0.0215 -0.6217
  126MOL0     C17259   7.670   7.614   4.549 -0.3784 -0.5399 -0.1423
  126MOL0     C17260   7.662   7.645   4.395 -0.4965  0.6367 -0.1893
  126MOL0     C17261   7.604   7.776   4.362 -0.7699 -0.3557  0.6391
  126MOL0     C17262   7.631   7.817   4.218 -0.2790 -1.4317  0.6566
  126MOL0     C17263   7.541   7.931   4.172 -0.1513 -0.2921 -0.1669
  126MOL0     C17264   7.545   7.967   4.020 -0.0058  0.2308  0.9975
  126MOL0     C17265   7.682   8.002   3.961  0.0778  0.6814  0.7561
  126MOL0     C17266   7.680   8.118   3.858  0.3551  0.1866 -0.2358
  126MOL0     N17267   7.638   8.251   3.911  0.0399  0.4708 -0.1881
  126MOL0     C17268   7.694   8.336   4.004  0.7087 -0.0365  0.1626
  126MOL0     C17269   7.602   8.436   4.047 -0.2441 -0.0804 -1.1186
  126MOL0     C17270   7.613   8.525   4.168 -0.1372 -1.0642  0.1835
  126MOL0     C17271   7.739   8.538   4.235 -0.3565  0.6987  0.3931
  126MOL0     C17272   7.854   8.601   4.151  0.1143  0.1956 -0.7157
  126MOL0     C17273   7.988   8.577   4.217 -0.0335 -0.2032  0.8257
  126MOL0     O17274   7.992   8.448   4.283 -0.4552 -0.1533 -0.2522
  126MOL0     C17275   8.010   8.332   4.215  0.1787  0.1554 -0.4950
  126MOL0     C17276   8.010   8.212   4.294 -1.3905  0.9028 -0.0344
  126MOL0     C17277   8.036   8.079   4.242 -0.3832 -1.1673 -0.6222
  126MOL0     C17278   8.052   7.960   4.337 -0.1380 -0.1853  0.8022
  126MOL0     C17279   8.053   8.067   4.101 -1.2469  0.2991 -0.0997
  126MOL0     C17280   8.066   7.935   4.036 -0.3736 -0.1545  0.0682
  126MOL0     O17281   7.960   7.854   4.027 -0.1207 -0.0333  0.2840
  126MOL0     C17282   7.980   7.728   3.984  0.1176 -0.3204  0.4427
  126MOL0     C17283   8.001   7.701   3.848 -0.9690  0.4699 -0.0696
  126MOL0     C17284   7.984   7.573   3.801  1.1389 -0.2755 -1.0562
  126MOL0     C17285   7.950   7.470   3.890 -0.4313  0.5996 -0.1927
  126MOL0     O17286   7.943   7.334   3.849  0.7105 -0.6753  0.1469
  126MOL0     C17287   7.990   7.295   3.717 -0.1793 -0.1991  0.3145
  126MOL0     C17288   7.954   7.141   3.689 -1.2860 -0.4401  0.4257
  126MOL0     C17289   7.815   7.127   3.624  0.1141 -0.2862  0.6265
  126MOL0     C17290   7.781   6.985   3.595  0.6113  0.2558  0.6111
  126MOL0     C17291   7.635   6.963   3.551 -0.1356  0.1920 -0.5397
  126MOL0     C17292   7.528   6.951   3.660 -0.4283 -0.6589 -0.2142
  126MOL0     C17293   7.552   6.829   3.754 -0.1094 -0.6765  0.1796
  126MOL0     C17294   7.422   6.804   3.838 -0.7917  0.7887  0.3249
  126MOL0    Cl17295   7.471   6.693   3.956 -0.0217  0.1869 -0.3587
  126MOL0     C17296   7.942   7.488   4.024  0.3491 -0.2528 -0.4840
  126MOL0     C17297   7.948   7.624   4.072  0.6000 -0.4551  0.3462
  126MOL0     O17298   8.178   7.910   3.988  0.7191 -0.4827  0.2042
  126MOL0     C17299   8.044   8.179   4.017 -0.7097 -0.0478 -0.6280
  126MOL0     C17300   8.032   8.306   4.077 -0.7312 -0.3634 -0.0997
  126MOL0     N17301   7.498   8.411   3.959 -0.3123  1.1700  0.1797
  126MOL0     N17302   7.519   8.312   3.883 -0.0319  1.5073  0.1553
  126MOL0     C17303   7.410   7.554   4.789  0.0451 -0.2443  0.1128
  126MOL0     C17304   7.395   7.520   4.926 -0.4162  0.8878 -0.4319
  126MOL0     C17305   7.412   7.487   5.369  1.4209 -0.1927  1.1280
  126MOL0     C17306   7.516   7.414   5.420  0.0948  0.7364  0.1772
  126MOL0     C17307   7.498   7.362   5.547 -0.2206 -0.3797 -0.3307
  126MOL0     C17308   7.381   7.377   5.619  0.6749  0.6528 -1.2105
  126MOL0     O17309   7.368   7.318   5.740  0.0526  0.6862 -0.7165
  126MOL0     C17310   7.352   7.175   5.732 -0.7575 -0.2476  0.6187
  126MOL0     C17311   7.259   7.114   5.840 -1.2709 -0.1399  0.2591
  126MOL0     C17312   7.118   7.155   5.834 -0.5992  0.6114  0.2070
  126MOL0     C17313   7.047   7.131   5.698  0.4894  0.8306 -0.5217
  126MOL0     C17314   7.049   6.989   5.653 -0.1184 -0.1423  0.7176
  126MOL0     C17315   7.053   6.877   5.608  0.5687  0.2877  0.1869
  126MOL0     C17316   7.276   7.452   5.563 -0.6251  0.5873 -0.8832
  126MOL0     C17317   7.294   7.512   5.445 -0.2389 -0.2711  0.2106
  126MOL0     C17318   7.172   7.585   5.376  0.4637  0.4746 -0.2482
  126MOL0     H17319   7.724   7.475   4.997  1.2944  0.6790 -0.8388
  126MOL0     H17320   7.757   7.566   4.785 -0.0764 -1.3477 -1.7458
  126MOL0     H17321   7.710   7.514   4.570  1.1219 -0.9689 -4.1032
  126MOL0     H17322   7.731   7.686   4.606  1.6871 -0.2137 -2.5497
  126MOL0     H17323   7.767   7.643   4.364  0.6526  3.0533  3.0710
  126MOL0     H17324   7.598   7.567   4.352  0.2269 -0.4179  0.5918
  126MOL0     H17325   7.495   7.781   4.373 -1.0234  3.3460 -1.7510
  126MOL0     H17326   7.646   7.857   4.422  4.6304 -1.9523 -0.4480
  126MOL0     H17327   7.737   7.843   4.212 -0.3251 -1.2617  0.5866
  126MOL0     H17328   7.601   7.743   4.143 -0.0855  0.2623 -1.1544
  126MOL0     H17329   7.564   8.015   4.238 -0.6214 -3.2468  4.2146
  126MOL0     H17330   7.439   7.903   4.203  1.3260 -2.1115  3.6760
  126MOL0     H17331   7.501   7.880   3.971  1.5260 -1.4141  2.3696
  126MOL0     H17332   7.478   8.047   3.987  2.0332  1.0957 -1.3342
  126MOL0     H17333   7.717   7.914   3.906 -3.1311 -1.6802  2.1626
  126MOL0     H17334   7.745   8.023   4.048 -0.8527 -1.0399  1.9043
  126MOL0     H17335   7.786   8.132   3.839  0.8645  2.5741  3.4162
  126MOL0     H17336   7.620   8.078   3.776  0.9382 -1.6342  0.1726
  126MOL0     H17337   7.791   8.316   4.049  0.3874 -0.7712  0.5515
  126MOL0     H17338   7.541   8.502   4.247  0.0132  3.7285  2.0240
  126MOL0     H17339   7.582   8.621   4.127  1.9067 -1.1514 -1.7815
  126MOL0     H17340   7.717   8.594   4.326 -2.3215  1.9837 -0.7903
  126MOL0     H17341   7.773   8.439   4.267  2.9328  1.6972  0.3080
  126MOL0     H17342   7.859   8.560   4.050  0.6133 -0.4024 -0.4544
  126MOL0     H17343   7.825   8.705   4.134  3.0699  0.6438 -4.3118
  126MOL0     H17344   8.077   8.587   4.155  0.6504 -0.9648  1.6589
  126MOL0     H17345   7.996   8.656   4.293 -0.0256 -1.1404  1.8226
  126MOL0     H17346   7.992   8.224   4.401 -1.8641  1.0527 -0.1295
  126MOL0     H17347   7.963   7.938   4.396  1.2748 -1.3392  2.5823
  126MOL0     H17348   8.132   7.969   4.411 -1.4210  0.4204  2.1597
  126MOL0     H17349   8.073   7.877   4.269  2.7943 -0.0834  1.4510
  126MOL0     H17350   8.021   7.791   3.790  0.1724  0.7107  0.6650
  126MOL0     H17351   7.994   7.552   3.695  2.5407 -0.7335 -0.8544
  126MOL0     H17352   7.951   7.368   3.646 -2.7111  0.5410  2.3108
  126MOL0     H17353   8.097   7.315   3.703 -0.3513 -0.9424 -2.7683
  126MOL0     H17354   8.030   7.107   3.618 -1.2808 -1.4884  0.9107
  126MOL0     H17355   7.967   7.069   3.770  2.6229 -2.0657 -1.3875
  126MOL0     H17356   7.822   7.190   3.535  0.3289 -0.9187  0.1891
  126MOL0     H17357   7.737   7.179   3.680  1.0097  1.7190  0.1169
  126MOL0     H17358   7.813   6.921   3.678 -2.2367 -1.8747  0.2153
  126MOL0     H17359   7.850   6.959   3.514 -1.0790 -1.0255 -0.4950
  126MOL0     H17360   7.615   7.054   3.494  2.5947  2.1290  1.3188
  126MOL0     H17361   7.618   6.870   3.495 -0.6579  0.0138 -0.0927
  126MOL0     H17362   7.429   6.946   3.614 -0.0090  0.0004 -1.2095
  126MOL0     H17363   7.519   7.038   3.726 -0.0912 -1.9834  1.6770
  126MOL0     H17364   7.639   6.844   3.820  1.4959 -1.3020 -1.7086
  126MOL0     H17365   7.573   6.749   3.683  2.7336  0.3292 -0.2750
  126MOL0     H17366   7.343   6.765   3.773  0.9253 -0.1935 -1.3140
  126MOL0     H17367   7.383   6.892   3.888  1.4366  0.5796  2.6216
  126MOL0     H17368   7.905   7.416   4.096 -2.2274 -0.6680 -2.0986
  126MOL0     H17369   7.946   7.654   4.176  1.0234 -0.4957  0.3648
  126MOL0     H17370   8.065   8.160   3.913  2.0740 -1.1942  0.0443
  126MOL0     H17371   8.050   8.394   4.016  2.6041  0.3738  1.7375
  126MOL0     H17372   7.320   7.574   4.731  0.7527 -1.9687 -1.6887
  126MOL0     H17373   7.294   7.506   4.964 -1.4733 -1.0257 -3.4928
  126MOL0     H17374   7.608   7.393   5.368 -1.3936 -3.5227 -1.2316
  126MOL0     H17375   7.578   7.306   5.593 -1.6639  0.0342  2.9783
  126MOL0     H17376   7.315   7.145   5.634 -1.1992  3.0117 -0.3192
  126MOL0     H17377   7.453   7.134   5.727 -1.1623 -1.0973 -2.4769
  126MOL0     H17378   7.296   7.143   5.938 -5.4687  3.1049  1.1549
  126MOL0     H17379   7.271   7.006   5.844  1.2618  0.0436 -0.5041
  126MOL0     H17380   7.066   7.103   5.914 -1.5098  0.0546 -0.7245
  126MOL0     H17381   7.117   7.259   5.868 -0.3343  0.5957  0.2663
  126MOL0     H17382   7.086   7.202   5.624  2.8697 -1.2156 -1.3598
  126MOL0     H17383   6.939   7.143   5.711  0.2180 -2.1894  0.7728
  126MOL0     H17384   7.075   6.773   5.591  2.5284  0.2961  2.1388
  126MOL0     H17385   7.183   7.463   5.617 -0.9506  0.6104 -1.4405
  126MOL0     H17386   7.143   7.553   5.275  0.0325 -0.9576  0.3000
  126MOL0     H17387   7.084   7.552   5.433  2.2602 -1.1547  1.7498
  126MOL0     H17388   7.193   7.692   5.374  2.8197  0.5934  6.1965
  127MOL0     O17389  10.024   0.046   9.967  0.1253 -0.2235  0.1060
  127MOL0     C17390   9.968   0.062  10.080  0.0074  0.4556  0.4868
  127MOL0     O17391  10.022   0.040  10.199  0.5029 -0.2601  0.2604
  127MOL0     C17392  10.133  -0.050  10.204  0.3464 -0.3800  0.0931
  127MOL0     C17393  10.122  -0.156  10.295 -0.6254  0.4052  0.1189
  127MOL0     C17394  10.232  -0.235  10.318  0.1837  0.3903  0.0224
  127MOL0     C17395  10.352  -0.224  10.232  1.0080  0.7211  0.5150
  127MOL0     O17396  10.470  -0.300  10.242  0.0282  0.1110  0.4154
  127MOL0     C17397  10.523  -0.337  10.369 -0.5357 -0.5234 -0.6262
  127MOL0     C17398  10.626  -0.447  10.355  0.1156 -0.2239 -1.0263
  127MOL0     C17399  10.678  -0.504  10.500 -0.9265  0.7135 -0.2994
  127MOL0     C17400  10.801  -0.586  10.479  0.4703  0.4201 -1.1035
  127MOL0     C17401  10.774  -0.723  10.430  0.7159  0.0405 -0.4270
  127MOL0     C17402  10.880  -0.835  10.476  0.1554  0.2111  0.6737
  127MOL0     C17403  10.852  -0.984  10.430 -0.1659  0.1860  0.1844
  127MOL0     C17404  10.913  -1.084  10.529 -0.0620  1.2234 -0.7023
  127MOL0     N17405  10.898  -1.224  10.477  1.0643 -0.4786 -0.5215
  127MOL0     C17406  10.985  -1.327  10.501  0.6271 -0.2325  0.1492
  127MOL0     C17407  10.919  -1.440  10.456  0.3088  0.3872  0.4422
  127MOL0     C17408  10.972  -1.582  10.473  0.8224  0.1875 -0.3447
  127MOL0     C17409  11.020  -1.654  10.354  0.1882 -0.1531 -0.4724
  127MOL0     C17410  11.165  -1.625  10.336  0.0293  0.4729 -0.0342
  127MOL0     C17411  11.227  -1.723  10.228 -0.3479 -0.5955 -0.4538
  127MOL0     O17412  11.138  -1.738  10.120 -0.9577 -1.0461  0.1305
  127MOL0     C17413  11.175  -1.659  10.008 -0.1480 -1.2183  0.7069
  127MOL0     C17414  11.271  -1.691   9.911 -0.3984 -1.0071  0.2497
  127MOL0     C17415  11.281  -1.632   9.782 -0.3370 -0.5365 -0.2900
  127MOL0     C17416  11.396  -1.678   9.691  0.3909  0.0701  0.4398
  127MOL0     C17417  11.204  -1.514   9.757  0.4857  0.7312 -0.6864
  127MOL0     C17418  11.212  -1.444   9.619  0.4391 -0.4455 -1.2567
  127MOL0     O17419  11.171  -1.311   9.616  0.7003  0.5921  0.9580
  127MOL0     C17420  11.175  -1.231   9.499  0.3615  0.0321 -0.0233
  127MOL0     C17421  11.232  -1.258   9.382  0.0538  0.5050  0.5327
  127MOL0     C17422  11.218  -1.166   9.276 -0.5866  0.9545  0.9390
  127MOL0     C17423  11.161  -1.047   9.294  0.6231 -0.3247  0.5120
  127MOL0     O17424  11.162  -0.968   9.177 -0.4793 -0.4702 -0.2878
  127MOL0     C17425  11.078  -0.847   9.186  0.7284 -0.1496  0.5505
  127MOL0     C17426  11.172  -0.719   9.159  0.2035  0.4891  0.9446
  127MOL0     C17427  11.300  -0.746   9.077 -0.2175 -0.2431 -0.4290
  127MOL0     C17428  11.259  -0.784   8.934 -1.2295 -0.5962  1.0183
  127MOL0     C17429  11.370  -0.769   8.815 -0.3036  0.7338 -0.9424
  127MOL0     C17430  11.468  -0.886   8.842 -0.0890 -0.1078 -0.8791
  127MOL0     C17431  11.571  -0.898   8.729  0.0779  0.3467  0.1925
  127MOL0     C17432  11.679  -1.001   8.773 -0.4433  0.2296 -0.0499
  127MOL0    Cl17433  11.612  -1.155   8.821 -0.5426  0.0396  0.3359
  127MOL0     C17434  11.106  -1.014   9.424 -0.7010  0.3743 -0.3559
  127MOL0     C17435  11.117  -1.107   9.525  0.4500  0.0811  0.3765
  127MOL0     O17436  11.216  -1.512   9.515  0.1317 -0.8851  0.8423
  127MOL0     C17437  11.110  -1.463   9.866 -0.5683  0.3850  0.0723
  127MOL0     C17438  11.100  -1.538   9.988  0.5418  0.1124  0.9134
  127MOL0     N17439  10.804  -1.409  10.388  0.7531 -0.4258 -0.8790
  127MOL0     N17440  10.787  -1.275  10.402  0.1110  0.1673 -0.5516
  127MOL0     C17441  10.350  -0.127  10.128  0.1511  0.7589 -0.1177
  127MOL0     C17442  10.241  -0.038  10.112 -0.2615 -0.2351  0.0099
  127MOL0     C17443   9.835   0.139  10.074 -0.9622  0.4648 -0.2915
  127MOL0     C17444   9.783   0.207  10.196  0.8719 -0.5886 -0.9741
  127MOL0     C17445   9.664   0.286  10.200  0.8370 -0.1400  0.6490
  127MOL0     C17446   9.593   0.295  10.079  0.4216  1.0164 -0.2583
  127MOL0     O17447   9.486   0.376  10.076 -0.5705  0.0630  0.5979
  127MOL0     C17448   9.500   0.503  10.004 -0.3031  0.1953 -1.0557
  127MOL0     C17449   9.370   0.573   9.974  0.3872  0.7314  0.9397
  127MOL0     C17450   9.287   0.519   9.851 -0.3638  0.1049  0.5034
  127MOL0     C17451   9.142   0.542   9.862  0.3430  0.7830 -0.1401
  127MOL0     C17452   9.101   0.688   9.891 -0.2573  0.2789 -0.6368
  127MOL0     C17453   9.086   0.807   9.924  0.6503  0.1478 -0.4167
  127MOL0     C17454   9.640   0.228   9.966 -0.8244  0.4039  0.1889
  127MOL0     C17455   9.762   0.152   9.958 -0.1702 -0.3772 -0.4841
  127MOL0     C17456   9.798   0.094   9.825 -0.3695 -0.3883 -0.2355
  127MOL0     H17457  10.031  -0.151  10.354  0.9008  2.9739  2.4824
  127MOL0     H17458  10.227  -0.315  10.391  1.2762 -1.1042 -1.4617
  127MOL0     H17459  10.450  -0.371  10.443  2.2514 -1.2321  2.0003
  127MOL0     H17460  10.571  -0.248  10.411 -2.3994 -0.2197  1.0189
  127MOL0     H17461  10.577  -0.535  10.311  0.7134 -1.3432  0.4477
  127MOL0     H17462  10.707  -0.400  10.298  1.5775 -1.4258 -0.0458
  127MOL0     H17463  10.703  -0.413  10.555 -2.4098  0.4472  0.8502
  127MOL0     H17464  10.600  -0.556  10.556  2.1910 -0.5408  3.2435
  127MOL0     H17465  10.866  -0.538  10.406  1.3962 -0.1757 -0.6917
  127MOL0     H17466  10.851  -0.605  10.575 -2.2877 -2.2458 -0.0312
  127MOL0     H17467  10.755  -0.707  10.324  1.4737  0.7191 -0.4741
  127MOL0     H17468  10.679  -0.758  10.472  1.1214  0.2327  0.7046
  127MOL0     H17469  10.974  -0.796  10.434  0.9684 -0.1808  2.0402
  127MOL0     H17470  10.892  -0.838  10.585  1.0840 -0.5349  0.5636
  127MOL0     H17471  10.903  -1.005  10.336 -2.1246  1.4507 -1.2500
  127MOL0     H17472  10.746  -1.010  10.419  0.0095 -0.3469 -0.2711
  127MOL0     H17473  11.018  -1.056  10.541  0.3919 -0.8585  0.8054
  127MOL0     H17474  10.862  -1.075  10.625  1.8264 -0.5642  0.5751
  127MOL0     H17475  11.075  -1.323  10.563  0.3337  1.2053  0.5320
  127MOL0     H17476  10.882  -1.638  10.500 -0.4577  2.0672 -0.5235
  127MOL0     H17477  11.047  -1.586  10.552 -1.8979 -2.0348  2.3832
  127MOL0     H17478  11.018  -1.763  10.365 -0.2919  0.0188  1.7170
  127MOL0     H17479  10.961  -1.624  10.268 -3.0088 -1.8215  0.9829
  127MOL0     H17480  11.176  -1.526  10.291  1.0562  0.4794  0.1967
  127MOL0     H17481  11.227  -1.622  10.426  1.8343  0.4259 -1.2067
  127MOL0     H17482  11.325  -1.681  10.202 -1.9074  3.0560 -0.9745
  127MOL0     H17483  11.243  -1.809  10.294  1.3399  0.7690  1.0264
  127MOL0     H17484  11.341  -1.770   9.935  0.9290  0.6037  1.9082
  127MOL0     H17485  11.478  -1.610   9.667 -0.3587  0.6546 -0.5503
  127MOL0     H17486  11.343  -1.694   9.597  0.1594  2.6126  0.0510
  127MOL0     H17487  11.445  -1.770   9.724  0.5656  0.4937  1.4009
  127MOL0     H17488  11.279  -1.349   9.348 -0.7312  1.0035 -2.1298
  127MOL0     H17489  11.253  -1.190   9.176  0.4030  2.1906  0.9595
  127MOL0     H17490  11.019  -0.854   9.094 -0.3072  1.1951  1.0678
  127MOL0     H17491  11.004  -0.837   9.267 -0.5658  0.6279 -0.6798
  127MOL0     H17492  11.109  -0.641   9.114 -1.4601 -1.6548 -0.6024
  127MOL0     H17493  11.205  -0.687   9.259 -0.2754  0.9357  0.9656
  127MOL0     H17494  11.366  -0.818   9.127  1.4276  1.7421  0.3874
  127MOL0     H17495  11.364  -0.658   9.066 -1.2980  0.7270  0.6973
  127MOL0     H17496  11.191  -0.709   8.892 -0.9213 -1.6269 -1.4786
  127MOL0     H17497  11.210  -0.881   8.932 -0.0683 -1.2721  2.7666
  127MOL0     H17498  11.334  -0.794   8.715 -0.5333  3.0021 -1.4925
  127MOL0     H17499  11.420  -0.672   8.807 -0.1502  0.4934 -4.3343
  127MOL0     H17500  11.420  -0.984   8.850 -0.8380  0.1707 -1.8321
  127MOL0     H17501  11.515  -0.857   8.936  0.2511  0.3093 -1.1774
  127MOL0     H17502  11.627  -0.805   8.718  0.7014  0.0070  0.4557
  127MOL0     H17503  11.533  -0.934   8.633 -0.1186  2.0127 -0.3911
  127MOL0     H17504  11.742  -0.958   8.852  1.0117 -0.3434 -0.8590
  127MOL0     H17505  11.752  -1.020   8.694  0.4557 -1.9812  1.2229
  127MOL0     H17506  11.059  -0.918   9.441 -0.4774  0.3850  0.2330
  127MOL0     H17507  11.076  -1.112   9.626 -1.1399 -1.4749 -0.2868
  127MOL0     H17508  11.044  -1.377   9.861  0.3957  1.1163 -0.4418
  127MOL0     H17509  11.027  -1.500  10.058 -0.6828 -2.3736  1.1151
  127MOL0     H17510  10.435  -0.130  10.061  1.3715 -2.0601  1.4010
  127MOL0     H17511  10.254   0.047  10.045  0.4930 -0.2015  0.1894
  127MOL0     H17512   9.836   0.210  10.291  0.0049  0.8388 -0.5158
  127MOL0     H17513   9.636   0.351  10.283 -3.3988  1.1131 -1.5146
  127MOL0     H17514   9.557   0.564  10.074  0.5259 -0.2712 -1.3180
  127MOL0     H17515   9.564   0.486   9.917  1.2123  0.2606  0.0217
  127MOL0     H17516   9.405   0.671   9.940 -0.7479 -0.1127 -3.3690
  127MOL0     H17517   9.311   0.601  10.061 -0.8648  3.5529 -0.6722
  127MOL0     H17518   9.321   0.575   9.763 -1.5725  2.4826  1.4466
  127MOL0     H17519   9.293   0.411   9.834  0.1913  0.1349  0.5007
  127MOL0     H17520   9.100   0.470   9.933 -2.0884  2.6196  0.3862
  127MOL0     H17521   9.103   0.515   9.763 -1.2642 -2.0188  1.1196
  127MOL0     H17522   9.063   0.908   9.951  1.1075  0.2117 -0.2486
  127MOL0     H17523   9.589   0.249   9.873 -2.6100 -0.3072  0.9595
  127MOL0     H17524   9.740   0.144   9.747 -1.3557  0.6357  1.1117
  127MOL0     H17525   9.898   0.125   9.793  1.3367  0.4463  4.9314
  127MOL0     H17526   9.790  -0.015   9.827 -0.5129 -0.4007  2.7546
  128MOL0     O17527  10.387  10.291  10.682  0.2467 -0.0415 -0.4387
  128MOL0     C17528  10.393  10.315  10.559 -0.3773  1.0188 -0.6349
  128MOL0     O17529  10.414  10.215  10.461  0.3597  0.7456 -0.4436
  128MOL0     C17530  10.403  10.083  10.496 -0.1431  0.1930  0.0900
  128MOL0     C17531  10.502  10.023  10.578  0.2663 -0.1790  0.1662
  128MOL0     C17532  10.495   9.889  10.603  0.7796  0.0584  0.1477
  128MOL0     C17533  10.395   9.805  10.549  0.4952  0.3433  0.2166
  128MOL0     O17534  10.395   9.667  10.542  0.3379 -0.8030 -0.5796
  128MOL0     C17535  10.462   9.583  10.627  0.2480  0.1323 -0.0764
  128MOL0     C17536  10.388   9.448  10.607 -0.6243 -0.4971  0.4598
  128MOL0     C17537  10.456   9.321  10.658  0.1945 -0.0875  0.2528
  128MOL0     C17538  10.519   9.351  10.807  0.6956  0.1035  0.4656
  128MOL0     C17539  10.607   9.235  10.856  0.4791 -0.9474  0.6427
  128MOL0     C17540  10.545   9.153  10.965 -1.0706  0.1728 -0.3628
  128MOL0     C17541  10.442   9.052  10.922  0.1088  0.3599 -0.2260
  128MOL0     C17542  10.492   8.926  10.845  0.4751  0.0522  0.4289
  128MOL0     N17543  10.593   8.847  10.903  0.3405 -0.2467  0.1852
  128MOL0     C17544  10.657   8.746  10.833  0.5362 -0.1070 -0.3181
  128MOL0     C17545  10.675   8.647  10.918 -1.0779 -0.7401 -0.1268
  128MOL0     C17546  10.727   8.508  10.900 -0.3770 -0.3279  0.9291
  128MOL0     C17547  10.886   8.516  10.944  0.1186  0.4833  0.0045
  128MOL0     C17548  10.934   8.373  10.947  0.8759  0.6351  0.3759
  128MOL0     C17549  11.091   8.362  10.931 -0.3141  1.5555 -0.8133
  128MOL0     O17550  11.136   8.227  10.952  0.1943  0.2291  0.3999
  128MOL0     C17551  11.209   8.176  10.850  0.7610  0.5144 -0.2666
  128MOL0     C17552  11.211   8.035  10.829  0.2801 -0.4986  0.2573
  128MOL0     C17553  11.297   7.972  10.737  0.2104 -0.2057 -0.6086
  128MOL0     C17554  11.269   7.831  10.702  0.2932  0.1978 -1.3577
  128MOL0     C17555  11.390   8.055  10.662 -0.8850  0.1142 -0.4510
  128MOL0     C17556  11.475   8.006  10.550 -0.0315  0.7172 -0.1721
  128MOL0     O17557  11.529   7.878  10.568 -1.0241 -0.3316  0.8714
  128MOL0     C17558  11.621   7.832  10.472  0.0134 -0.3673 -0.7340
  128MOL0     C17559  11.579   7.812  10.343 -0.8560  0.5744  0.0006
  128MOL0     C17560  11.672   7.784  10.236  0.9278  0.2601 -0.6547
  128MOL0     C17561  11.793   7.736  10.275  0.6049 -0.9062 -0.0908
  128MOL0     O17562  11.876   7.670  10.184 -0.0537 -0.5020  0.4244
  128MOL0     C17563  11.962   7.760  10.118  1.1573 -0.3954  0.8969
  128MOL0     C17564  12.066   7.687  10.021  0.9118 -0.1795 -0.2504
  128MOL0     C17565  11.990   7.612   9.911 -1.2575 -1.1781 -0.4174
  128MOL0     C17566  12.095   7.540   9.824 -0.6273 -0.6138  0.1653
  128MOL0     C17567  12.193   7.451   9.885  0.1785 -0.1227 -0.5932
  128MOL0     C17568  12.272   7.370   9.777  0.2298  0.3568 -0.0365
  128MOL0     C17569  12.193   7.325   9.652  0.8614 -0.2802 -0.6458
  128MOL0     C17570  12.288   7.262   9.551 -0.3925  0.3222  0.8998
  128MOL0    Cl17571  12.217   7.252   9.387  0.0993  0.1906  0.4855
  128MOL0     C17572  11.838   7.744  10.414 -0.4786 -0.1379  0.2767
  128MOL0     C17573  11.751   7.800  10.511 -0.6167  0.0838  0.6203
  128MOL0     O17574  11.492   8.082  10.455 -0.1743 -0.3123 -0.3041
  128MOL0     C17575  11.387   8.197  10.687  0.5835  0.4386  0.6328
  128MOL0     C17576  11.302   8.255  10.780  0.9700  0.3567  0.2395
  128MOL0     N17577  10.637   8.691  11.043  0.3574  0.0261  0.0836
  128MOL0     N17578  10.594   8.811  11.035 -1.0285 -0.1038  1.0477
  128MOL0     C17579  10.305   9.865  10.459  0.5823  0.6909 -1.1984
  128MOL0     C17580  10.312  10.002  10.429 -1.1124  1.3861  0.3448
  128MOL0     C17581  10.399  10.462  10.522  0.0297 -0.3357 -0.4089
  128MOL0     C17582  10.419  10.498  10.389 -0.2173  0.2879  0.0456
  128MOL0     C17583  10.413  10.629  10.345 -0.1917  0.6716 -0.5769
  128MOL0     C17584  10.387  10.729  10.437 -0.1463 -0.1315  0.0215
  128MOL0     O17585  10.384  10.862  10.398  0.1518  0.5025  0.1641
  128MOL0     C17586  10.349  10.893  10.260  0.2485 -0.2769 -0.3940
  128MOL0     C17587  10.221  10.833  10.218  0.0368 -0.3308  0.8493
  128MOL0     C17588  10.094  10.880  10.296 -0.5007  0.5166  0.4235
  128MOL0     C17589   9.987  10.891  10.185 -0.1021 -0.5001 -0.8914
  128MOL0     C17590   9.857  10.894  10.249  0.1175  0.8428 -0.4375
  128MOL0     C17591   9.765  10.887  10.326 -0.3147 -0.2049  0.7012
  128MOL0     C17592  10.363  10.697  10.564  0.7679 -0.0801 -0.0097
  128MOL0     C17593  10.375  10.565  10.614 -0.3640  0.3207 -0.4276
  128MOL0     C17594  10.351  10.559  10.767 -0.5107  0.4527  0.2088
  128MOL0     H17595  10.565  10.094  10.631  1.7358 -1.0562 -0.3636
  128MOL0     H17596  10.576   9.852  10.665  1.5588 -0.4868 -1.1563
  128MOL0     H17597  10.469   9.630  10.726  1.0760  1.2196 -0.6286
  128MOL0     H17598  10.564   9.565  10.592  0.4442 -1.0991  1.0341
  128MOL0     H17599  10.301   9.452  10.673 -0.5645 -0.4817  0.5378
  128MOL0     H17600  10.348   9.447  10.506 -0.5374  1.1599  0.3757
  128MOL0     H17601  10.390   9.234  10.657  2.8776 -2.2431 -1.2662
  128MOL0     H17602  10.545   9.300  10.599  0.1099 -0.5825  0.2987
  128MOL0     H17603  10.593   9.431  10.798 -0.4143  1.2769  1.2635
  128MOL0     H17604  10.433   9.375  10.870  2.3153  0.5695  2.6085
  128MOL0     H17605  10.704   9.272  10.892  0.8102  0.2784 -1.3778
  128MOL0     H17606  10.631   9.178  10.766 -0.6997 -0.7202  0.1700
  128MOL0     H17607  10.622   9.099  11.020  2.5773  1.9333 -3.2973
  128MOL0     H17608  10.501   9.225  11.035  0.2737 -0.9977  1.7785
  128MOL0     H17609  10.380   9.105  10.849  4.0334  3.3711 -1.7445
  128MOL0     H17610  10.395   9.010  11.011  1.3034 -0.7895 -0.1091
  128MOL0     H17611  10.407   8.863  10.817  0.2190  0.5242  0.1359
  128MOL0     H17612  10.528   8.956  10.746 -2.0871  1.2914 -0.2305
  128MOL0     H17613  10.648   8.735  10.725 -1.5979  0.5282 -0.2568
  128MOL0     H17614  10.726   8.489  10.792 -6.6278  0.0247  0.5255
  128MOL0     H17615  10.671   8.429  10.952  1.1716 -2.1406 -0.0400
  128MOL0     H17616  10.937   8.575  10.867 -1.3759 -0.2410 -1.6370
  128MOL0     H17617  10.901   8.564  11.040  4.2871 -0.5344  0.0383
  128MOL0     H17618  10.904   8.326  11.042  1.9163 -2.4273 -0.6902
  128MOL0     H17619  10.885   8.311  10.872  2.6239 -0.8579  0.4158
  128MOL0     H17620  11.104   8.404  10.831 -3.1951  1.4214 -1.3312
  128MOL0     H17621  11.146   8.432  10.996 -2.2269  1.1470  1.3998
  128MOL0     H17622  11.150   7.976  10.897 -0.2452 -0.1206  0.1159
  128MOL0     H17623  11.351   7.763  10.725  0.4509 -0.9996 -4.9495
  128MOL0     H17624  11.251   7.816  10.595  1.6570 -1.0263 -1.4495
  128MOL0     H17625  11.172   7.795  10.738  1.4065 -2.4080 -0.7101
  128MOL0     H17626  11.475   7.841  10.332 -1.5681 -1.8019 -0.1060
  128MOL0     H17627  11.629   7.780  10.136  0.6993  2.4170 -0.6856
  128MOL0     H17628  11.896   7.819  10.054 -2.0612 -4.0871  0.5137
  128MOL0     H17629  12.005   7.829  10.192 -1.6279  0.5633  1.7440
  128MOL0     H17630  12.133   7.763   9.980  2.3130 -0.5729  1.1863
  128MOL0     H17631  12.120   7.617  10.086 -1.8697 -4.3806 -2.0131
  128MOL0     H17632  11.927   7.683   9.858  1.9437  1.1411 -1.4214
  128MOL0     H17633  11.914   7.547   9.956 -3.9124  0.9227 -1.5771
  128MOL0     H17634  12.141   7.612   9.756  1.4716 -2.2839 -0.2927
  128MOL0     H17635  12.033   7.466   9.771 -1.8847  0.0558  0.6510
  128MOL0     H17636  12.246   7.513   9.957 -0.7658  0.5907 -0.5009
  128MOL0     H17637  12.134   7.376   9.938 -0.9188  0.3773 -1.0759
  128MOL0     H17638  12.318   7.278   9.814  0.0025 -0.6093 -2.0235
  128MOL0     H17639  12.344   7.439   9.734 -1.1007  1.2236 -0.9615
  128MOL0     H17640  12.153   7.419   9.612  1.9512  1.9163  2.9001
  128MOL0     H17641  12.120   7.250   9.682  1.9303 -1.7029 -1.5224
  128MOL0     H17642  12.317   7.164   9.590 -0.2798  0.2462  0.6305
  128MOL0     H17643  12.379   7.318   9.530 -0.7510  0.6622  0.1903
  128MOL0     H17644  11.938   7.711  10.439 -0.7943 -0.5178  1.1042
  128MOL0     H17645  11.780   7.813  10.614  0.3549 -2.8237  0.7867
  128MOL0     H17646  11.448   8.261  10.623 -1.1290  0.3408 -1.2151
  128MOL0     H17647  11.314   8.361  10.800 -1.0764  0.5525  0.6528
  128MOL0     H17648  10.222   9.808  10.418 -0.7150 -0.3573  2.4663
  128MOL0     H17649  10.250  10.039  10.348 -0.9716  3.0861  0.9685
  128MOL0     H17650  10.429  10.427  10.307  1.6849 -0.9267  1.2476
  128MOL0     H17651  10.456  10.646  10.247  4.3297  3.5229  1.5817
  128MOL0     H17652  10.334  11.002  10.255  0.9323 -0.1850 -0.5649
  128MOL0     H17653  10.424  10.872  10.183 -0.5986 -2.3007 -0.7222
  128MOL0     H17654  10.227  10.724  10.225 -1.4477 -0.4511  0.4333
  128MOL0     H17655  10.208  10.866  10.115 -1.6516  3.5452  2.1409
  128MOL0     H17656  10.070  10.805  10.372  0.4562 -1.0984 -0.7889
  128MOL0     H17657  10.104  10.969  10.358 -0.8560 -0.5037  2.0140
  128MOL0     H17658   9.985  10.813  10.108  0.3032  1.5714 -3.1200
  128MOL0     H17659  10.003  10.990  10.142  1.7867 -0.5215 -0.3536
  128MOL0     H17660   9.671  10.882  10.377 -1.6468  1.0097 -1.5091
  128MOL0     H17661  10.330  10.781  10.624 -1.6676  0.8217 -2.4129
  128MOL0     H17662  10.265  10.501  10.800  0.9057 -1.6405  0.3891
  128MOL0     H17663  10.437  10.514  10.818  0.7044  0.5969 -1.6285
  128MOL0     H17664  10.335  10.661  10.803 -1.9487  0.5122 -0.5220
  129MOL0     O17665   2.276   2.475   9.281  0.2219 -0.0464 -0.4848
  129MOL0     C17666   2.168   2.497   9.221  0.6964  1.1593 -0.0361
  129MOL0     O17667   2.098   2.402   9.150 -0.0381  0.2353  0.7267
  129MOL0     C17668   2.155   2.289   9.093 -0.4834  0.1658 -0.1834
  129MOL0     C17669   2.288   2.286   9.050  0.5588 -1.2262 -0.9264
  129MOL0     C17670   2.347   2.180   8.975 -0.2278 -0.1470 -1.0069
  129MOL0     C17671   2.272   2.069   8.933 -0.7253  0.6981 -0.0139
  129MOL0     O17672   2.307   1.974   8.846  0.0709  0.5668  0.7891
  129MOL0     C17673   2.423   1.989   8.763  0.2703 -0.2877  0.2407
  129MOL0     C17674   2.454   1.874   8.673  0.6608  1.2916  0.1476
  129MOL0     C17675   2.476   1.748   8.762 -0.3448 -0.5135 -0.2169
  129MOL0     C17676   2.556   1.626   8.712  0.2235 -0.0683 -0.5136
  129MOL0     C17677   2.586   1.526   8.825 -0.4726  0.3788  0.7894
  129MOL0     C17678   2.681   1.420   8.776  0.1465  0.1602  1.0297
  129MOL0     C17679   2.705   1.297   8.868 -0.9003  0.6496 -0.2703
  129MOL0     C17680   2.742   1.338   9.010 -0.7416 -0.1831 -0.8975
  129MOL0     N17681   2.820   1.220   9.078 -0.1225  0.3320  0.5573
  129MOL0     C17682   2.960   1.208   9.060 -0.5218 -0.9187 -0.2047
  129MOL0     C17683   2.993   1.083   9.112  0.3418  0.3793  1.4802
  129MOL0     C17684   3.138   1.049   9.139 -1.0792 -0.1420 -0.1589
  129MOL0     C17685   3.152   0.983   9.277 -0.5485 -0.1401  0.9422
  129MOL0     C17686   3.285   0.924   9.290 -0.1063 -0.0327  0.2750
  129MOL0     C17687   3.287   0.771   9.258  0.6559 -0.4843 -0.1365
  129MOL0     O17688   3.426   0.733   9.247 -0.1855  0.4677 -0.3544
  129MOL0     C17689   3.458   0.609   9.273 -0.0990  0.6098 -0.0959
  129MOL0     C17690   3.360   0.506   9.280  0.2597 -0.6710 -1.2604
  129MOL0     C17691   3.398   0.371   9.290 -0.5357  0.6052 -0.3708
  129MOL0     C17692   3.295   0.268   9.311 -0.9750 -0.2024 -0.6594
  129MOL0     C17693   3.544   0.342   9.281  0.4000 -0.3497  0.1724
  129MOL0     C17694   3.607   0.203   9.273  0.2282  0.2085 -0.2547
  129MOL0     O17695   3.738   0.193   9.225 -0.4206  0.2184 -0.2988
  129MOL0     C17696   3.798   0.067   9.204 -0.3772 -0.2087 -0.5872
  129MOL0     C17697   3.808  -0.033   9.303 -0.2442 -0.0559 -0.0395
  129MOL0     C17698   3.849  -0.163   9.268  0.7257 -0.4029 -0.2127
  129MOL0     C17699   3.893  -0.199   9.136 -0.3266  0.1315 -0.8585
  129MOL0     O17700   3.940  -0.330   9.120 -0.1549 -0.5191  0.4341
  129MOL0     C17701   4.085  -0.328   9.127 -0.4451  1.0328  0.5176
  129MOL0     C17702   4.123  -0.477   9.139 -0.9716  0.1609  0.1898
  129MOL0     C17703   4.274  -0.499   9.107 -0.6366  0.0841  0.2384
  129MOL0     C17704   4.312  -0.655   9.091  0.8824 -0.1544 -0.6720
  129MOL0     C17705   4.291  -0.696   8.940 -0.2416  0.1832  0.0028
  129MOL0     C17706   4.309  -0.854   8.908  0.4171  0.0137 -0.6974
  129MOL0     C17707   4.445  -0.914   8.938  0.2850  0.0877 -0.2420
  129MOL0     C17708   4.548  -0.829   8.870 -0.7736 -0.1156  0.6002
  129MOL0    Cl17709   4.719  -0.892   8.904 -0.0848 -0.2795 -0.2689
  129MOL0     C17710   3.884  -0.098   9.038 -0.5138 -0.2132  0.1088
  129MOL0     C17711   3.835   0.031   9.071  0.2105  0.1623  0.4337
  129MOL0     O17712   3.530   0.111   9.306 -0.3243 -0.5827  0.3175
  129MOL0     C17713   3.633   0.450   9.274 -0.2351 -1.0635  0.3996
  129MOL0     C17714   3.595   0.585   9.274 -1.7785 -0.5051 -0.9457
  129MOL0     N17715   2.870   1.020   9.142  0.0194  0.0735 -0.5672
  129MOL0     N17716   2.771   1.099   9.123 -0.1980  0.4872 -0.9642
  129MOL0     C17717   2.140   2.079   8.968 -0.2302 -0.8669 -0.9793
  129MOL0     C17718   2.081   2.187   9.044 -0.5684  0.1291  0.8878
  129MOL0     C17719   2.088   2.616   9.252  0.1504  0.4496  0.7248
  129MOL0     C17720   2.048   2.690   9.139  0.2968 -0.5279 -1.0527
  129MOL0     C17721   1.973   2.798   9.149  0.4068 -0.7590  0.6755
  129MOL0     C17722   1.943   2.860   9.269 -0.1027  0.1747  0.6072
  129MOL0     O17723   1.874   2.980   9.279  0.5345 -0.1608  0.1059
  129MOL0     C17724   1.801   3.030   9.167  0.6142  0.0553 -0.0108
  129MOL0     C17725   1.658   2.979   9.161 -0.2670  1.0515  0.3504
  129MOL0     C17726   1.567   3.041   9.261  0.6348  0.0877  0.0229
  129MOL0     C17727   1.441   2.958   9.291  0.4535  1.2827  0.3024
  129MOL0     C17728   1.363   3.030   9.385 -0.5041  0.3405 -0.0666
  129MOL0     C17729   1.287   3.089   9.456  0.3047 -0.6150 -0.4602
  129MOL0     C17730   1.975   2.786   9.378 -0.3541 -1.2503  0.4150
  129MOL0     C17731   2.051   2.671   9.372 -0.7633  1.2070  0.1042
  129MOL0     C17732   2.067   2.578   9.494  0.3237 -0.6418  0.5978
  129MOL0     H17733   2.345   2.373   9.081  0.4519 -1.6014  0.3689
  129MOL0     H17734   2.453   2.186   8.952 -0.2912 -0.1023 -1.2855
  129MOL0     H17735   2.517   1.990   8.820 -1.0879 -0.2699  2.6189
  129MOL0     H17736   2.415   2.076   8.698  0.3929  0.1898  0.8530
  129MOL0     H17737   2.361   1.863   8.617  0.5623 -3.2911  0.7914
  129MOL0     H17738   2.529   1.896   8.597 -1.3326  2.8939 -1.4765
  129MOL0     H17739   2.539   1.772   8.848  4.3697 -2.5731 -2.6991
  129MOL0     H17740   2.379   1.721   8.807  1.0418 -0.3376  3.2141
  129MOL0     H17741   2.505   1.560   8.641  0.7073 -2.2519  1.0808
  129MOL0     H17742   2.651   1.659   8.670  0.2594  0.0734 -0.3185
  129MOL0     H17743   2.489   1.476   8.833  0.2649 -1.0698  0.8453
  129MOL0     H17744   2.616   1.568   8.921  0.8642  0.7014  0.2556
  129MOL0     H17745   2.638   1.376   8.686  0.4514  1.3981  0.2547
  129MOL0     H17746   2.771   1.478   8.755 -0.6847  1.4763  0.9844
  129MOL0     H17747   2.788   1.243   8.821  0.2756  2.8263 -0.8465
  129MOL0     H17748   2.620   1.229   8.858 -1.4820  1.5356 -1.5584
  129MOL0     H17749   2.803   1.427   8.995  0.1453 -0.8555 -1.3863
  129MOL0     H17750   2.652   1.350   9.071 -0.1577 -1.7756  0.3645
  129MOL0     H17751   3.024   1.293   9.040 -2.1796  0.1373 -1.1632
  129MOL0     H17752   3.195   1.143   9.143  0.5612 -1.1259  0.6081
  129MOL0     H17753   3.185   0.982   9.067 -0.9085 -0.4892  0.2702
  129MOL0     H17754   3.126   1.052   9.358 -1.2176 -0.4767  1.0191
  129MOL0     H17755   3.071   0.911   9.267 -1.1770  0.6792 -0.1176
  129MOL0     H17756   3.356   0.972   9.222  1.0799 -0.5919  1.0611
  129MOL0     H17757   3.325   0.934   9.392  1.1800 -0.7269 -0.1362
  129MOL0     H17758   3.228   0.716   9.332 -2.4762  1.3031 -1.0960
  129MOL0     H17759   3.225   0.764   9.168  0.6118  0.0579 -0.1522
  129MOL0     H17760   3.252   0.516   9.278  0.1984 -1.2336 -3.2940
  129MOL0     H17761   3.307   0.207   9.221 -0.3403 -0.9933 -0.0492
  129MOL0     H17762   3.199   0.318   9.327 -1.5191 -1.8506  1.7326
  129MOL0     H17763   3.316   0.208   9.400  2.4753  2.3106  0.4458
  129MOL0     H17764   3.776  -0.011   9.404  1.6269 -1.7853  1.0117
  129MOL0     H17765   3.843  -0.248   9.336 -0.2895 -0.0531  0.1473
  129MOL0     H17766   4.133  -0.296   9.033 -4.1600  0.9319 -1.5850
  129MOL0     H17767   4.133  -0.267   9.204  0.0601 -1.7995  2.6129
  129MOL0     H17768   4.105  -0.498   9.245 -0.1993  0.5952  0.4121
  129MOL0     H17769   4.053  -0.537   9.080  2.2798 -1.4926 -2.3028
  129MOL0     H17770   4.337  -0.461   9.188 -0.4072  0.6457 -0.1926
  129MOL0     H17771   4.294  -0.439   9.018 -0.0936 -0.8301 -0.2706
  129MOL0     H17772   4.243  -0.711   9.155  1.6494  1.1289  1.4060
  129MOL0     H17773   4.414  -0.669   9.129  0.6844  0.4550  0.1177
  129MOL0     H17774   4.185  -0.674   8.919  0.7393  2.0778 -3.9453
  129MOL0     H17775   4.351  -0.641   8.867  0.5516 -0.0945  0.4333
  129MOL0     H17776   4.288  -0.865   8.802  0.4320  2.1693 -0.9634
  129MOL0     H17777   4.245  -0.914   8.974  1.0712  0.6051  0.5194
  129MOL0     H17778   4.445  -1.013   8.891 -3.1360  0.5805 -1.5725
  129MOL0     H17779   4.478  -0.916   9.043  3.2774  2.1279 -1.0035
  129MOL0     H17780   4.546  -0.723   8.893  1.0960 -0.0183  0.5325
  129MOL0     H17781   4.535  -0.829   8.761  0.1141  3.1438  0.3852
  129MOL0     H17782   3.914  -0.124   8.937  2.5995  0.9434  0.6355
  129MOL0     H17783   3.839   0.103   8.991  2.5155 -0.5072 -0.1441
  129MOL0     H17784   3.738   0.427   9.264  0.3862 -0.6017  4.3429
  129MOL0     H17785   3.666   0.667   9.264 -3.0280  0.8917  0.8795
  129MOL0     H17786   2.072   2.000   8.937 -2.4219  0.2870  0.5826
  129MOL0     H17787   1.976   2.187   9.073  0.2386 -0.1512  4.2670
  129MOL0     H17788   2.067   2.661   9.036  1.7863 -3.4838 -0.0549
  129MOL0     H17789   1.946   2.839   9.052 -0.2094 -0.8430  0.8079
  129MOL0     H17790   1.781   3.134   9.193 -1.0724 -0.6374  1.7093
  129MOL0     H17791   1.854   3.035   9.071 -0.0120  4.1780 -0.3077
  129MOL0     H17792   1.663   2.869   9.161  1.6484  1.0220 -2.2101
  129MOL0     H17793   1.628   3.006   9.059  2.5147 -0.5729 -1.0529
  129MOL0     H17794   1.617   3.059   9.358 -0.6154  1.3646  0.4705
  129MOL0     H17795   1.542   3.140   9.222 -0.5172  0.0484  0.6155
  129MOL0     H17796   1.449   2.853   9.321 -0.2238  1.2681  0.4531
  129MOL0     H17797   1.381   2.957   9.199  2.7024 -0.0528 -1.2609
  129MOL0     H17798   1.235   3.156   9.521  0.7952 -0.0204 -0.6726
  129MOL0     H17799   1.923   2.813   9.469 -1.7739  0.0210 -0.7265
  129MOL0     H17800   2.001   2.490   9.491 -0.5183 -0.0154 -1.8410
  129MOL0     H17801   2.175   2.560   9.494  0.7564  1.6006 -0.9075
  129MOL0     H17802   2.033   2.633   9.583 -1.1099 -1.8199  0.8296
  130MOL0     O17803  10.881   9.956  11.066  0.1177  0.0428 -0.1687
  130MOL0     C17804  10.792   9.944  10.976 -0.4966  0.5301 -0.3479
  130MOL0     O17805  10.776  10.025  10.867  0.0686  0.4382 -0.0852
  130MOL0     C17806  10.836  10.153  10.866  0.2430 -1.0579  0.0530
  130MOL0     C17807  10.759  10.268  10.888 -0.9765 -0.0812 -0.5569
  130MOL0     C17808  10.817  10.395  10.890  0.2305  0.0626  1.2856
  130MOL0     C17809  10.952  10.413  10.844  0.6661 -0.1658  1.3328
  130MOL0     O17810  11.023  10.528  10.826  0.1676  0.6187 -0.2931
  130MOL0     C17811  10.984  10.643  10.914 -0.2512  0.2544 -0.8106
  130MOL0     C17812  11.108  10.708  10.992 -0.5280  0.3547  0.1994
  130MOL0     C17813  11.239  10.674  10.911 -1.0893 -0.0957  0.6884
  130MOL0     C17814  11.240  10.776  10.800  0.0103  0.0746 -0.1128
  130MOL0     C17815  11.333  10.738  10.686  0.7905  0.9923  0.6935
  130MOL0     C17816  11.355  10.851  10.594  0.0604 -0.4032 -0.1259
  130MOL0     C17817  11.217  10.918  10.548  0.0643  1.0311 -0.6145
  130MOL0     C17818  11.232  11.040  10.446 -0.2958  0.4286 -0.6714
  130MOL0     N17819  11.245  10.990  10.305 -0.1318  0.4019  0.0164
  130MOL0     C17820  11.353  10.970  10.233 -0.5533  0.4029 -0.1524
  130MOL0     C17821  11.318  10.942  10.108  0.6215  0.3347  0.8011
  130MOL0     C17822  11.406  10.927   9.988 -1.0781  0.2333  0.4146
  130MOL0     C17823  11.462  10.779   9.974 -0.3992 -0.3621 -0.0304
  130MOL0     C17824  11.549  10.742  10.089 -0.3968  0.9225 -0.3633
  130MOL0     C17825  11.610  10.601  10.060 -0.3436 -0.3978 -0.1036
  130MOL0     O17826  11.678  10.540  10.168 -0.0387 -0.5596 -0.1896
  130MOL0     C17827  11.609  10.455  10.256 -0.3007 -1.2340 -0.1756
  130MOL0     C17828  11.471  10.451  10.264  0.0359  0.1016 -0.8041
  130MOL0     C17829  11.415  10.367  10.357  0.1459 -0.1559  0.4810
  130MOL0     C17830  11.264  10.371  10.345 -0.3897  0.4327  0.3888
  130MOL0     C17831  11.496  10.285  10.448 -0.8347  0.2836  0.7268
  130MOL0     C17832  11.440  10.184  10.537 -0.4400 -0.3980  0.5630
  130MOL0     O17833  11.526  10.106  10.608 -0.2879 -0.6048  0.6006
  130MOL0     C17834  11.499  10.020  10.711 -0.5875  0.0339  0.3355
  130MOL0     C17835  11.396  10.051  10.805  1.4448  0.5438  0.3498
  130MOL0     C17836  11.384   9.970  10.917  0.1934  0.3038  0.2018
  130MOL0     C17837  11.463   9.856  10.930  0.0743 -0.2867 -0.9886
  130MOL0     O17838  11.452   9.763  11.033  0.5671 -0.3870 -0.2850
  130MOL0     C17839  11.313   9.727  11.071 -0.6656  0.6787  0.5612
  130MOL0     C17840  11.314   9.659  11.206  0.0719  0.5695 -0.7088
  130MOL0     C17841  11.377   9.520  11.197  0.0497  1.1174 -0.4043
  130MOL0     C17842  11.316   9.427  11.301  0.7198 -0.4015  1.1448
  130MOL0     C17843  11.427   9.324  11.336  0.1842 -0.6765  0.0549
  130MOL0     C17844  11.540   9.386  11.423  0.1226  0.1107 -0.8001
  130MOL0     C17845  11.494   9.426  11.566  0.1481 -0.0693 -0.1623
  130MOL0     C17846  11.602   9.407  11.673 -0.5041 -0.4670  0.6218
  130MOL0    Cl17847  11.770   9.487  11.632  0.1118  0.1298  0.2734
  130MOL0     C17848  11.551   9.825  10.835 -0.2669  0.7466  0.3823
  130MOL0     C17849  11.573   9.901  10.727  0.1758 -0.3207  0.1673
  130MOL0     O17850  11.322  10.162  10.536 -0.1923  0.3630  0.6796
  130MOL0     C17851  11.639  10.294  10.438 -0.3110 -0.5011  0.1796
  130MOL0     C17852  11.691  10.381  10.337  0.1235 -0.8839  0.3143
  130MOL0     N17853  11.181  10.930  10.117 -0.6166  0.3315  0.3653
  130MOL0     N17854  11.142  10.942  10.231  0.3184  0.9080  0.1912
  130MOL0     C17855  11.024  10.296  10.813 -0.0272 -0.7743 -0.7437
  130MOL0     C17856  10.970  10.167  10.824  0.9940 -0.0253 -0.5436
  130MOL0     C17857  10.703   9.835  10.986 -0.3909  0.5296  0.1753
  130MOL0     C17858  10.565   9.853  10.958 -0.2316 -0.0790  0.6730
  130MOL0     C17859  10.475   9.753  10.979 -0.4347 -0.7437  0.8193
  130MOL0     C17860  10.518   9.632  11.026 -0.5754  0.3152  0.6810
  130MOL0     O17861  10.436   9.532  11.054  0.5796  0.0287 -1.1024
  130MOL0     C17862  10.293   9.550  11.068 -0.1774  0.8350 -0.4272
  130MOL0     C17863  10.230   9.408  11.101  1.6154  0.4591  0.8943
  130MOL0     C17864  10.260   9.381  11.244  0.3771 -0.4715 -0.0463
  130MOL0     C17865  10.228   9.234  11.282  0.9552  1.5779 -0.4108
  130MOL0     C17866  10.362   9.161  11.288  0.6845  0.4124 -0.0170
  130MOL0     C17867  10.462   9.103  11.310 -0.8511 -1.4684 -0.6572
  130MOL0     C17868  10.657   9.604  11.044  0.4814 -0.7444 -0.0631
  130MOL0     C17869  10.754   9.702  11.019 -0.1736 -0.5405 -0.6493
  130MOL0     C17870  10.897   9.667  11.052 -0.0800 -0.4399  0.4855
  130MOL0     H17871  10.658  10.252  10.925  0.1094 -2.5307  1.7339
  130MOL0     H17872  10.764  10.484  10.922  2.1101  1.0875  1.6701
  130MOL0     H17873  10.914  10.612  10.991  1.1767  3.6653  2.1845
  130MOL0     H17874  10.936  10.721  10.854 -0.3550  0.9424  0.1341
  130MOL0     H17875  11.098  10.814  11.014  0.9993  0.0813  2.5429
  130MOL0     H17876  11.102  10.667  11.094 -1.9069  1.3371  0.5525
  130MOL0     H17877  11.331  10.693  10.967  0.0514 -1.1019 -0.7650
  130MOL0     H17878  11.245  10.573  10.871  1.8075 -0.0323  0.7792
  130MOL0     H17879  11.137  10.790  10.768  0.4387  0.2782 -1.4755
  130MOL0     H17880  11.279  10.872  10.836  1.0682 -0.5671  0.5193
  130MOL0     H17881  11.285  10.654  10.636 -2.3299  2.7315  0.4872
  130MOL0     H17882  11.427  10.704  10.729  1.7971  3.9035  1.0225
  130MOL0     H17883  11.423  10.925  10.637 -0.5736  0.6234 -0.8593
  130MOL0     H17884  11.388  10.805  10.500 -3.0278 -0.0272 -1.5083
  130MOL0     H17885  11.170  10.962  10.637 -0.9412  1.6712 -1.4441
  130MOL0     H17886  11.151  10.843  10.503 -2.4172  2.2091  0.8359
  130MOL0     H17887  11.145  11.106  10.448 -0.5151  0.2210  2.6270
  130MOL0     H17888  11.308  11.110  10.483 -2.5858  1.7641  1.8552
  130MOL0     H17889  11.456  10.976  10.266 -1.2687 -1.7191  2.9575
  130MOL0     H17890  11.488  10.999   9.995  1.9531 -3.1095  3.9301
  130MOL0     H17891  11.349  10.952   9.898 -2.9464 -1.4580  1.0556
  130MOL0     H17892  11.371  10.718   9.981  1.0445 -2.5217  0.6766
  130MOL0     H17893  11.505  10.760   9.875 -0.3955 -1.8269  0.2387
  130MOL0     H17894  11.625  10.819  10.102 -1.3653  1.8811 -0.1783
  130MOL0     H17895  11.484  10.738  10.177  0.4936 -0.2819  0.2736
  130MOL0     H17896  11.527  10.539  10.025 -3.2330  0.9915  3.6192
  130MOL0     H17897  11.685  10.607   9.981  0.0242  1.6393  0.3412
  130MOL0     H17898  11.414  10.512  10.195  1.4298  2.9701  0.4015
  130MOL0     H17899  11.232  10.413  10.441 -1.4098  1.8542 -0.5193
  130MOL0     H17900  11.220  10.274  10.320  0.4809  0.6945 -2.5594
  130MOL0     H17901  11.225  10.421  10.256  0.6775 -3.6321 -2.6443
  130MOL0     H17902  11.342  10.142  10.780 -1.4079 -0.8034  1.2608
  130MOL0     H17903  11.304   9.998  10.986  2.2270  0.7671  2.5102
  130MOL0     H17904  11.243   9.811  11.064 -0.5656  0.6587 -1.5907
  130MOL0     H17905  11.282   9.653  10.996 -0.1431  2.2275 -1.2803
  130MOL0     H17906  11.373   9.715  11.279  1.7354 -1.1120 -0.6816
  130MOL0     H17907  11.208   9.645  11.229  0.1135  0.0448 -0.8088
  130MOL0     H17908  11.487   9.526  11.202  0.7830 -5.7610  1.5110
  130MOL0     H17909  11.368   9.480  11.096  2.1238 -0.8987  0.1294
  130MOL0     H17910  11.222   9.389  11.261  0.7110  0.0548  0.7107
  130MOL0     H17911  11.283   9.490  11.385 -2.4959  2.1549 -1.7286
  130MOL0     H17912  11.372   9.244  11.385  1.3318 -0.3499  1.9780
  130MOL0     H17913  11.465   9.276  11.246  1.0731 -2.4013  1.2963
  130MOL0     H17914  11.598   9.467  11.377  1.8350 -1.6453 -1.8844
  130MOL0     H17915  11.616   9.311  11.443  0.3424 -0.0228 -2.0486
  130MOL0     H17916  11.397   9.379  11.587  0.9848 -2.7742 -1.8407
  130MOL0     H17917  11.480   9.535  11.562  1.5755  0.2358  1.9105
  130MOL0     H17918  11.626   9.301  11.686  1.5793  0.2473  3.4327
  130MOL0     H17919  11.568   9.450  11.768  1.2862 -0.1277  1.1458
  130MOL0     H17920  11.609   9.735  10.858 -1.3820 -0.1762 -0.3258
  130MOL0     H17921  11.635   9.861  10.648  0.6955 -0.3248  0.5736
  130MOL0     H17922  11.701  10.235  10.504 -1.4012  0.0293  1.7284
  130MOL0     H17923  11.797  10.374  10.317  0.5358  3.0823  0.2205
  130MOL0     H17924  11.126  10.300  10.776 -0.9328  0.8097 -3.3788
  130MOL0     H17925  11.029  10.077  10.815  1.7688  0.2605  1.2490
  130MOL0     H17926  10.536   9.950  10.918  0.4486 -0.9307 -2.1486
  130MOL0     H17927  10.370   9.778  10.968 -0.7043 -2.0982  0.0507
  130MOL0     H17928  10.269   9.626  11.143  0.8204 -0.4692  1.3072
  130MOL0     H17929  10.259   9.577  10.968  1.4077 -2.0874 -1.8870
  130MOL0     H17930  10.277   9.336  11.033  0.9850  0.5980  0.2985
  130MOL0     H17931  10.122   9.409  11.085  1.4544 -0.6196  1.7654
  130MOL0     H17932  10.368   9.394  11.258  0.3825 -0.1041 -0.4106
  130MOL0     H17933  10.215   9.457  11.309 -1.0939  0.1456 -1.7114
  130MOL0     H17934  10.159   9.197  11.206  0.8892 -1.7914  1.1024
  130MOL0     H17935  10.176   9.233  11.379 -1.2725 -1.3327 -1.4814
  130MOL0     H17936  10.544   9.036  11.328  0.0741 -0.6848 -1.7741
  130MOL0     H17937  10.676   9.498  11.054 -2.3542 -1.5851 -2.3187
  130MOL0     H17938  10.971   9.726  10.996 -2.1718 -0.9199 -3.0966
  130MOL0     H17939  10.919   9.680  11.159 -0.8089 -0.5588  0.6531
  130MOL0     H17940  10.910   9.561  11.028  0.0053 -0.6794  1.5407
  131MOL0     O17941  11.210   2.865   6.039  0.9422  0.2389 -0.2827
  131MOL0     C17942  11.284   2.764   6.045  0.0486  0.4996  0.0146
  131MOL0     O17943  11.420   2.767   6.038 -0.7149  0.4741 -0.1378
  131MOL0     C17944  11.476   2.887   6.007  0.5663 -0.2689  0.6140
  131MOL0     C17945  11.562   2.951   6.098 -0.2798  0.1585  0.7597
  131MOL0     C17946  11.639   3.069   6.065  0.4904 -0.4136  0.1755
  131MOL0     C17947  11.617   3.129   5.945  0.0968  0.7269  0.1626
  131MOL0     O17948  11.681   3.241   5.902 -0.0933  0.1815  0.4356
  131MOL0     C17949  11.783   3.292   5.992 -1.4540 -0.8524  0.5657
  131MOL0     C17950  11.792   3.447   5.963  0.3893 -0.2233 -0.0512
  131MOL0     C17951  11.874   3.484   5.841 -0.1306 -0.4842  1.0185
  131MOL0     C17952  11.882   3.635   5.804  0.0771  0.3969  0.0308
  131MOL0     C17953  12.002   3.661   5.717 -0.9485  0.5511  0.6773
  131MOL0     C17954  11.985   3.797   5.643 -0.3243 -0.4287 -0.6734
  131MOL0     C17955  12.022   3.909   5.737 -0.4832 -0.1373  0.6367
  131MOL0     C17956  11.975   4.051   5.690 -0.2871 -0.3669  0.2801
  131MOL0     N17957  11.834   4.041   5.647  0.2585  1.0001 -0.0306
  131MOL0     C17958  11.731   4.059   5.734  0.7261  0.2182  0.3400
  131MOL0     C17959  11.612   4.044   5.658 -0.4970 -0.2848  0.9572
  131MOL0     C17960  11.468   4.057   5.714  0.4307  0.6269 -0.6117
  131MOL0     C17961  11.455   4.184   5.806  0.6954 -0.2472 -0.3088
  131MOL0     C17962  11.492   4.322   5.738 -0.4703  0.5950  0.1861
  131MOL0     C17963  11.406   4.348   5.608  0.0682 -0.0910 -0.5699
  131MOL0     O17964  11.430   4.479   5.554  0.5109 -1.1767 -0.4425
  131MOL0     C17965  11.547   4.514   5.487 -0.7764  0.1215  1.0170
  131MOL0     C17966  11.639   4.415   5.463 -0.5905 -0.4949  0.4252
  131MOL0     C17967  11.758   4.457   5.404 -0.0361  0.1332  0.0709
  131MOL0     C17968  11.873   4.361   5.407 -0.1095 -0.4439  0.2008
  131MOL0     C17969  11.782   4.588   5.357 -0.0537  0.7007  0.0141
  131MOL0     C17970  11.906   4.626   5.282 -0.6266  0.7669 -0.8845
  131MOL0     O17971  11.899   4.715   5.184 -0.2810 -0.6181  0.0266
  131MOL0     C17972  12.009   4.741   5.105 -0.4233  0.9512 -0.3879
  131MOL0     C17973  12.085   4.632   5.057  0.1023 -0.6282  0.6811
  131MOL0     C17974  12.197   4.664   4.980  0.1792  0.5335  0.6249
  131MOL0     C17975  12.235   4.786   4.934  0.0979 -0.5952  0.9511
  131MOL0     O17976  12.344   4.816   4.859  0.1388  0.0422  0.3479
  131MOL0     C17977  12.417   4.701   4.802 -0.1024  0.3614 -0.1765
  131MOL0     C17978  12.535   4.776   4.735  0.2511  0.2611 -1.0744
  131MOL0     C17979  12.643   4.704   4.656 -0.7416  0.4142 -0.4171
  131MOL0     C17980  12.724   4.596   4.738  0.2366  0.0083  0.2629
  131MOL0     C17981  12.829   4.530   4.645 -0.5419  0.1652 -0.6062
  131MOL0     C17982  12.903   4.411   4.709  0.7807  0.3865 -0.2005
  131MOL0     C17983  13.011   4.368   4.628 -0.1399 -0.3125 -0.4515
  131MOL0     C17984  13.071   4.234   4.667 -0.4179  0.0077  0.8128
  131MOL0    Cl17985  13.236   4.217   4.590 -0.3272  0.1873 -0.1016
  131MOL0     C17986  12.153   4.897   4.970  0.4076 -0.9054 -0.3314
  131MOL0     C17987  12.033   4.870   5.045  0.6884 -0.4969 -0.2084
  131MOL0     O17988  12.012   4.591   5.330  0.4358 -0.6679 -0.1553
  131MOL0     C17989  11.683   4.691   5.376 -0.3683  0.3104  0.8238
  131MOL0     C17990  11.570   4.652   5.441 -0.0147 -0.7107 -0.7791
  131MOL0     N17991  11.656   4.021   5.522 -0.4213  0.7546 -0.8739
  131MOL0     N17992  11.789   4.029   5.515  0.2252 -0.6631  0.7751
  131MOL0     C17993  11.528   3.073   5.851  0.2755 -1.0096  0.2974
  131MOL0     C17994  11.465   2.945   5.879  0.0942  0.4519  0.0202
  131MOL0     C17995  11.224   2.634   6.071  0.1521  0.5524  0.1643
  131MOL0     C17996  11.307   2.531   6.104  0.3841 -0.2283  0.6677
  131MOL0     C17997  11.264   2.409   6.123  0.3188  0.0128 -0.5113
  131MOL0     C17998  11.129   2.376   6.126  0.3367  0.2261 -0.1102
  131MOL0     O17999  11.083   2.245   6.141  0.2729  0.3010  0.5297
  131MOL0     C18000  11.058   2.184   6.012  0.3065  0.5581  0.6924
  131MOL0     C18001  10.979   2.043   6.023 -0.2652 -0.4947 -0.0920
  131MOL0     C18002  11.040   1.947   6.118  0.1886 -0.0216 -0.2631
  131MOL0     C18003  10.961   1.810   6.109  0.7561  0.2536  0.2242
  131MOL0     C18004  11.030   1.706   6.044  0.8259  0.6747  0.3662
  131MOL0     C18005  11.108   1.637   5.989  0.3308  0.0918 -0.2549
  131MOL0     C18006  11.035   2.472   6.098 -0.0309  0.1884  0.2807
  131MOL0     C18007  11.085   2.603   6.068  0.1525  0.4710  1.4337
  131MOL0     C18008  10.970   2.706   6.053  0.1018 -0.5072  0.4771
  131MOL0     H18009  11.590   2.904   6.192 -1.1297 -1.3160  0.3023
  131MOL0     H18010  11.712   3.104   6.136  3.4990 -0.6123 -2.6187
  131MOL0     H18011  11.880   3.241   5.984 -0.8099  0.4269 -0.1686
  131MOL0     H18012  11.752   3.295   6.096 -0.2722 -2.5174  1.0160
  131MOL0     H18013  11.692   3.484   5.941  1.1380  0.5372 -2.5524
  131MOL0     H18014  11.816   3.491   6.060 -2.0748 -1.9123  1.4387
  131MOL0     H18015  11.971   3.436   5.855 -0.0875 -0.2834  1.4297
  131MOL0     H18016  11.829   3.440   5.751  1.4806  1.2039 -0.7254
  131MOL0     H18017  11.788   3.671   5.760  1.0766 -0.6388 -3.2355
  131MOL0     H18018  11.891   3.698   5.892 -0.5267 -1.0958  1.2067
  131MOL0     H18019  12.019   3.583   5.643  1.8725 -0.6666  2.4511
  131MOL0     H18020  12.084   3.650   5.788  0.3150  0.9616 -0.6739
  131MOL0     H18021  12.036   3.808   5.547 -0.0014  0.4796 -0.4089
  131MOL0     H18022  11.879   3.807   5.615 -0.3490  5.9461  0.1921
  131MOL0     H18023  12.126   3.900   5.770 -1.2666 -0.5312  3.2223
  131MOL0     H18024  11.974   3.889   5.833 -2.6999 -0.3907 -0.4569
  131MOL0     H18025  11.998   4.121   5.771 -0.0751 -1.0509  0.8294
  131MOL0     H18026  12.040   4.090   5.612 -2.4434  2.9873 -0.0179
  131MOL0     H18027  11.732   4.073   5.842 -1.1537 -1.3151  0.6164
  131MOL0     H18028  11.444   3.965   5.766  1.9039  0.3271 -0.4396
  131MOL0     H18029  11.396   4.054   5.631 -0.0072  2.0002 -0.3171
  131MOL0     H18030  11.350   4.198   5.832  0.4980 -2.9970  0.7023
  131MOL0     H18031  11.515   4.178   5.898 -2.3317  1.5706  1.9545
  131MOL0     H18032  11.467   4.394   5.816 -2.1721  0.3039 -0.0523
  131MOL0     H18033  11.599   4.317   5.719  0.0159 -0.9887  2.7887
  131MOL0     H18034  11.409   4.275   5.527 -0.5301  1.0084 -1.6204
  131MOL0     H18035  11.306   4.341   5.651  0.0794  0.2657 -0.4777
  131MOL0     H18036  11.604   4.316   5.491 -1.7839 -0.0541  0.5593
  131MOL0     H18037  11.920   4.341   5.310 -2.0983 -5.0491 -0.0721
  131MOL0     H18038  11.842   4.259   5.432  1.7046 -1.7250 -2.2934
  131MOL0     H18039  11.956   4.387   5.473  0.8943 -2.5040 -0.1543
  131MOL0     H18040  12.064   4.536   5.103 -0.2552 -0.3703  1.0591
  131MOL0     H18041  12.258   4.580   4.947 -1.4665  0.3132 -2.2705
  131MOL0     H18042  12.436   4.636   4.889 -0.2065 -1.0528 -1.1678
  131MOL0     H18043  12.360   4.642   4.730  0.7381 -2.5529  1.3614
  131MOL0     H18044  12.486   4.844   4.665 -3.1516 -2.5037 -1.6877
  131MOL0     H18045  12.588   4.844   4.803 -1.5933 -0.5509  1.3401
  131MOL0     H18046  12.721   4.773   4.623 -2.1545  2.3738  0.1618
  131MOL0     H18047  12.598   4.646   4.574 -4.2807  2.2021  0.0510
  131MOL0     H18048  12.657   4.519   4.779  1.1090  0.0780  1.8959
  131MOL0     H18049  12.761   4.640   4.831 -1.7010  0.1999  0.9883
  131MOL0     H18050  12.793   4.480   4.554 -1.3391 -1.4785  0.5519
  131MOL0     H18051  12.902   4.610   4.629  0.3535 -0.0662  1.8881
  131MOL0     H18052  12.833   4.331   4.736  1.6665  0.5388  2.8833
  131MOL0     H18053  12.949   4.446   4.802 -0.4326 -0.9065  0.9342
  131MOL0     H18054  13.095   4.436   4.644 -0.4792  0.3222 -1.3281
  131MOL0     H18055  12.999   4.382   4.521 -1.4259 -1.2478 -0.4470
  131MOL0     H18056  13.005   4.149   4.648 -0.1740 -0.1155  0.5098
  131MOL0     H18057  13.098   4.228   4.773 -0.3000  3.4990  1.0714
  131MOL0     H18058  12.172   4.986   4.911 -0.9525  0.2501  0.8939
  131MOL0     H18059  11.963   4.949   5.071  0.6957  0.4910 -2.8304
  131MOL0     H18060  11.707   4.788   5.335  3.1066  0.3042  2.5248
  131MOL0     H18061  11.499   4.727   5.475  0.4693 -0.1190 -1.0630
  131MOL0     H18062  11.528   3.112   5.750  4.0849  0.2098  0.6209
  131MOL0     H18063  11.421   2.889   5.797 -3.2580  0.0974  1.8824
  131MOL0     H18064  11.416   2.540   6.101  0.7574 -2.4624  3.4291
  131MOL0     H18065  11.343   2.335   6.137  0.9668  1.1667  2.9845
  131MOL0     H18066  10.994   2.251   5.954 -3.0962 -3.5325 -0.8305
  131MOL0     H18067  11.151   2.173   5.956  0.1713 -1.9822  0.8432
  131MOL0     H18068  10.994   2.002   5.923  6.3773  1.3065 -0.2847
  131MOL0     H18069  10.876   2.072   6.045  0.3404  1.3975  0.4817
  131MOL0     H18070  11.140   1.920   6.084  0.8339  0.2175  1.3687
  131MOL0     H18071  11.042   2.001   6.212  0.4403  1.1024 -0.8952
  131MOL0     H18072  10.858   1.819   6.074  0.6414 -2.1778 -0.2271
  131MOL0     H18073  10.957   1.772   6.211 -1.8472  1.6231  0.7230
  131MOL0     H18074  11.191   1.589   5.941  1.8610  1.5449  0.8267
  131MOL0     H18075  10.931   2.441   6.098 -1.0375  3.1556 -0.6591
  131MOL0     H18076  11.008   2.791   5.994  3.4800  0.6999  3.9774
  131MOL0     H18077  10.877   2.677   6.004  0.4625  0.9213 -1.1957
  131MOL0     H18078  10.951   2.755   6.149  0.2099  0.3424  0.0834
  132MOL0     O18079   5.939   5.174   4.518 -0.0774  0.0928  0.1699
  132MOL0     C18080   5.859   5.242   4.446 -0.4752  0.7279 -0.3196
  132MOL0     O18081   5.836   5.228   4.316  0.1353 -0.6155  0.3083
  132MOL0     C18082   5.931   5.189   4.228 -0.1679  0.4891  1.3952
  132MOL0     C18083   6.059   5.240   4.220 -0.8446  1.0134 -0.2640
  132MOL0     C18084   6.140   5.192   4.120 -0.0795  0.2700 -0.3095
  132MOL0     C18085   6.111   5.074   4.050 -0.0882  0.7511 -0.5378
  132MOL0     O18086   6.210   5.005   3.981 -0.3094 -0.1016  0.3820
  132MOL0     C18087   6.239   4.870   4.020 -0.3273 -0.1282  0.3281
  132MOL0     C18088   6.186   4.776   3.914  0.6019  0.5563  0.1971
  132MOL0     C18089   6.262   4.639   3.917 -0.0661 -0.0608  0.7619
  132MOL0     C18090   6.253   4.587   3.767 -0.0787 -0.4392  0.4720
  132MOL0     C18091   6.336   4.470   3.742  0.0527 -0.2826  0.3420
  132MOL0     C18092   6.277   4.338   3.774 -0.2923 -1.1160 -0.8144
  132MOL0     C18093   6.381   4.235   3.738 -0.2874 -0.2550 -0.1401
  132MOL0     C18094   6.300   4.106   3.763  0.0183 -0.3250 -0.6588
  132MOL0     N18095   6.380   3.986   3.749 -0.3491 -0.6344  0.1370
  132MOL0     C18096   6.382   3.914   3.628  0.1566 -0.5536  0.2099
  132MOL0     C18097   6.460   3.805   3.645  0.6658 -1.0728  0.1391
  132MOL0     C18098   6.490   3.703   3.544  0.8926  0.3524  0.4426
  132MOL0     C18099   6.629   3.638   3.560 -0.3760  0.3622 -0.1043
  132MOL0     C18100   6.640   3.544   3.437 -0.3694 -0.1033 -0.0907
  132MOL0     C18101   6.651   3.617   3.303  0.3389  0.2808 -0.1691
  132MOL0     O18102   6.632   3.516   3.199  0.9590 -0.3215 -0.1615
  132MOL0     C18103   6.745   3.460   3.139 -0.2290 -0.1676  0.5014
  132MOL0     C18104   6.711   3.363   3.049 -0.4719  0.5723 -0.5989
  132MOL0     C18105   6.807   3.292   2.982 -1.0019 -0.1745  0.7804
  132MOL0     C18106   6.759   3.170   2.907  0.5444  0.4719  0.8853
  132MOL0     C18107   6.945   3.317   2.999  0.7018 -0.3652 -0.9834
  132MOL0     C18108   7.057   3.233   2.935 -0.3439 -1.4228  0.1122
  132MOL0     O18109   7.183   3.268   2.977 -0.4020 -0.4950  0.1945
  132MOL0     C18110   7.290   3.229   2.894  0.0311 -0.0146  1.1489
  132MOL0     C18111   7.270   3.173   2.757 -0.5763 -0.6893  0.5548
  132MOL0     C18112   7.383   3.138   2.684 -0.7798  1.1745  0.1338
  132MOL0     C18113   7.512   3.167   2.724 -0.4201 -0.3714  0.2350
  132MOL0     O18114   7.625   3.146   2.651 -0.1477 -0.3221  0.3265
  132MOL0     C18115   7.645   3.008   2.607 -0.3673 -0.0910  0.4993
  132MOL0     C18116   7.662   3.005   2.447 -0.1135 -0.0055 -0.4385
  132MOL0     C18117   7.803   3.032   2.405  0.2167  0.8082  0.1535
  132MOL0     C18118   7.890   2.908   2.423 -0.0503  0.3214  0.8397
  132MOL0     C18119   8.044   2.928   2.408  0.0229  0.7429 -0.9190
  132MOL0     C18120   8.123   2.793   2.398 -0.4553  0.1850 -0.1837
  132MOL0     C18121   8.275   2.810   2.370  0.8179 -0.2527  0.3642
  132MOL0     C18122   8.359   2.687   2.427  0.7765  0.4666 -0.1355
  132MOL0    Cl18123   8.313   2.535   2.358  0.2250  0.2024  0.0408
  132MOL0     C18124   7.525   3.237   2.844  0.6247 -0.7779  0.0961
  132MOL0     C18125   7.420   3.255   2.934 -0.5163 -0.8076 -0.2005
  132MOL0     O18126   7.023   3.128   2.880 -0.1782  0.0282  0.6883
  132MOL0     C18127   6.975   3.416   3.101 -0.6066  1.5050  0.1044
  132MOL0     C18128   6.882   3.496   3.151 -1.0951 -0.4111 -0.0788
  132MOL0     N18129   6.502   3.815   3.772 -0.4065 -0.4135  0.4325
  132MOL0     N18130   6.454   3.918   3.840 -0.0553  0.2408 -0.2331
  132MOL0     C18131   5.979   5.025   4.050 -1.1149 -0.1617  0.1893
  132MOL0     C18132   5.892   5.086   4.131  0.4364 -0.1268 -0.2733
  132MOL0     C18133   5.781   5.336   4.520 -0.5767  0.6624  0.0692
  132MOL0     C18134   5.841   5.440   4.601 -0.1271  0.7341  0.7161
  132MOL0     C18135   5.779   5.525   4.690  0.3188  0.3229 -0.1869
  132MOL0     C18136   5.645   5.520   4.687 -0.1471 -0.0355  0.3491
  132MOL0     O18137   5.557   5.610   4.746 -0.5292  0.3051 -0.2924
  132MOL0     C18138   5.618   5.726   4.814  0.4072 -0.0216 -0.1842
  132MOL0     C18139   5.594   5.697   4.969  0.4141 -0.8249  0.2860
  132MOL0     C18140   5.627   5.828   5.047 -0.1157 -0.3625 -0.1519
  132MOL0     C18141   5.506   5.881   5.127  1.3282  0.5762  0.1658
  132MOL0     C18142   5.547   5.952   5.240  0.2446 -0.2210 -0.8939
  132MOL0     C18143   5.561   6.018   5.340 -0.2738  0.4723  0.4520
  132MOL0     C18144   5.583   5.427   4.605  0.9098  0.7882  0.1415
  132MOL0     C18145   5.641   5.335   4.515 -0.4245  0.3276 -0.5871
  132MOL0     C18146   5.551   5.235   4.454  0.0047 -0.2716 -0.0214
  132MOL0     H18147   6.096   5.312   4.292  0.1186 -1.2406  1.6341
  132MOL0     H18148   6.241   5.232   4.121  0.2447 -0.3424 -2.6420
  132MOL0     H18149   6.203   4.829   4.115  2.9441  0.0807  1.8076
  132MOL0     H18150   6.348   4.858   4.023 -0.3489 -1.7313 -2.3472
  132MOL0     H18151   6.077   4.765   3.924  0.5275 -0.1906 -1.2118
  132MOL0     H18152   6.209   4.816   3.815  1.3231 -2.3112 -0.9000
  132MOL0     H18153   6.368   4.654   3.941  0.8258  0.0056 -2.6543
  132MOL0     H18154   6.202   4.569   3.976 -1.9843  0.2378 -0.7132
  132MOL0     H18155   6.150   4.565   3.739 -0.3871  0.7358  0.6361
  132MOL0     H18156   6.289   4.672   3.707 -2.3574 -0.4161 -0.9718
  132MOL0     H18157   6.423   4.480   3.807  0.3322  1.0932 -0.2033
  132MOL0     H18158   6.370   4.476   3.638  0.9498 -1.3964  0.5615
  132MOL0     H18159   6.257   4.321   3.880  3.2934 -0.7409  0.0665
  132MOL0     H18160   6.188   4.311   3.717 -0.7654  0.9680 -1.1652
  132MOL0     H18161   6.479   4.239   3.786  1.2918  2.1890 -3.2054
  132MOL0     H18162   6.412   4.239   3.633 -0.6107  0.6108 -0.2122
  132MOL0     H18163   6.256   4.113   3.862 -0.6692  0.6149 -1.0118
  132MOL0     H18164   6.209   4.102   3.702  0.1080  1.9662 -1.0401
  132MOL0     H18165   6.342   3.938   3.529  3.3715  3.0671 -0.4535
  132MOL0     H18166   6.467   3.746   3.446 -0.9591  2.7912  1.8372
  132MOL0     H18167   6.418   3.622   3.560 -0.4323  1.6539  1.3498
  132MOL0     H18168   6.714   3.707   3.565  0.4739 -0.7101  0.7245
  132MOL0     H18169   6.641   3.579   3.651 -0.7029 -2.8261 -1.9803
  132MOL0     H18170   6.734   3.490   3.454 -0.9638 -0.4415  2.7058
  132MOL0     H18171   6.565   3.465   3.442  0.9722 -1.3560  1.2349
  132MOL0     H18172   6.568   3.687   3.289  2.3918  2.6249 -1.6180
  132MOL0     H18173   6.747   3.670   3.309  0.2916  0.2195  2.3346
  132MOL0     H18174   6.609   3.328   3.043 -0.0911 -0.3803 -2.0668
  132MOL0     H18175   6.651   3.179   2.889  0.0092 -5.9927 -1.7498
  132MOL0     H18176   6.769   3.084   2.974 -1.8709 -1.0369 -0.5304
  132MOL0     H18177   6.811   3.153   2.813  1.8924 -0.1283  1.7117
  132MOL0     H18178   7.174   3.150   2.714 -1.1925  0.1860  1.4222
  132MOL0     H18179   7.362   3.087   2.590 -0.5184 -1.0185  1.1990
  132MOL0     H18180   7.734   2.973   2.659 -1.0559  0.5564  2.1848
  132MOL0     H18181   7.561   2.949   2.646 -0.8971 -0.5173 -1.1839
  132MOL0     H18182   7.640   2.905   2.409 -1.7235  0.8822 -2.0139
  132MOL0     H18183   7.588   3.066   2.394  2.3274  2.3901 -1.3054
  132MOL0     H18184   7.832   3.127   2.451 -0.2462  1.2273 -0.3983
  132MOL0     H18185   7.792   3.050   2.297 -0.5708 -0.0532  0.0811
  132MOL0     H18186   7.876   2.841   2.338 -2.5791  1.6665  0.1155
  132MOL0     H18187   7.869   2.859   2.518  0.9900 -1.1660  0.3556
  132MOL0     H18188   8.059   2.993   2.321  2.8240 -0.1294 -1.2023
  132MOL0     H18189   8.084   2.991   2.488 -1.0125  0.9282 -0.5361
  132MOL0     H18190   8.081   2.724   2.324 -0.1132 -0.2100 -0.0167
  132MOL0     H18191   8.106   2.740   2.492 -0.4479  0.0601 -0.2527
  132MOL0     H18192   8.321   2.906   2.396  0.1840  0.1785 -0.0538
  132MOL0     H18193   8.285   2.810   2.261  0.2073 -0.0714  0.2998
  132MOL0     H18194   8.343   2.670   2.534 -2.3855  0.3012 -0.5459
  132MOL0     H18195   8.465   2.700   2.404  1.3651 -1.7412  1.0300
  132MOL0     H18196   7.627   3.261   2.874  0.5714  0.8076 -0.8418
  132MOL0     H18197   7.436   3.296   3.033  1.7906  0.3844 -0.9896
  132MOL0     H18198   7.079   3.418   3.132 -0.8910  1.0023  1.1118
  132MOL0     H18199   6.922   3.568   3.222 -1.0471 -1.0871  0.5898
  132MOL0     H18200   5.948   4.939   3.992  0.9581 -0.5175 -0.4913
  132MOL0     H18201   5.795   5.037   4.134 -0.6419  1.9355  1.7722
  132MOL0     H18202   5.948   5.444   4.583 -0.7147  0.2454 -4.2993
  132MOL0     H18203   5.836   5.590   4.757  2.6403 -1.6135 -0.1582
  132MOL0     H18204   5.721   5.754   4.791 -0.1136  0.9589 -1.4224
  132MOL0     H18205   5.554   5.812   4.792 -1.4396 -1.1510  0.5633
  132MOL0     H18206   5.663   5.616   4.994 -0.4602 -1.8134 -0.4198
  132MOL0     H18207   5.490   5.671   4.990 -0.6616  2.7906  0.1770
  132MOL0     H18208   5.703   5.817   5.125  1.5450  3.8721 -0.8613
  132MOL0     H18209   5.664   5.907   4.980 -1.1489 -1.5856 -2.2434
  132MOL0     H18210   5.456   5.791   5.164  1.7687 -0.3630 -1.4207
  132MOL0     H18211   5.437   5.946   5.072 -0.4154  0.9087  2.5388
  132MOL0     H18212   5.577   6.085   5.422  1.5268 -0.5239  0.9571
  132MOL0     H18213   5.476   5.417   4.618  0.8430 -0.1565 -1.0235
  132MOL0     H18214   5.477   5.207   4.530 -0.1624  1.4420  0.5026
  132MOL0     H18215   5.497   5.288   4.374 -0.4102 -1.3921 -0.5060
  132MOL0     H18216   5.588   5.147   4.401 -3.8862 -1.5762 -0.9063
  133MOL0     O18217   0.738   7.333  10.840  0.4466 -0.5982  0.3227
  133MOL0     C18218   0.629   7.283  10.873  0.1237  0.0717 -0.2854
  133MOL0     O18219   0.584   7.161  10.830  0.2449 -0.0830  0.7617
  133MOL0     C18220   0.638   7.090  10.722  0.4093  0.6494  0.3565
  133MOL0     C18221   0.770   7.084  10.680 -0.7593  0.5290  0.3776
  133MOL0     C18222   0.808   7.011  10.563 -0.2067 -0.0660  0.1516
  133MOL0     C18223   0.716   6.932  10.487 -0.3162 -0.9271 -0.1142
  133MOL0     O18224   0.756   6.869  10.369 -0.4391 -0.8305 -0.5117
  133MOL0     C18225   0.672   6.783  10.284  1.8392 -0.5281  0.0230
  133MOL0     C18226   0.764   6.722  10.176  0.2196 -0.6516 -0.2869
  133MOL0     C18227   0.691   6.657  10.058  0.4956 -0.4971  0.3302
  133MOL0     C18228   0.638   6.760   9.957  0.0146 -0.1902  0.5686
  133MOL0     C18229   0.596   6.693   9.820  0.4326  0.9744  0.4146
  133MOL0     C18230   0.548   6.813   9.731 -0.3023 -0.1278  0.5324
  133MOL0     C18231   0.517   6.748   9.592 -0.0780  0.5188  0.3322
  133MOL0     C18232   0.482   6.845   9.482  0.8084 -0.1109  0.2142
  133MOL0     N18233   0.363   6.924   9.519 -0.0493 -0.0542  0.0131
  133MOL0     C18234   0.366   7.052   9.569 -0.0371 -0.4374 -0.1613
  133MOL0     C18235   0.241   7.071   9.608 -0.0190 -0.4684 -0.4023
  133MOL0     C18236   0.207   7.201   9.681  0.6291 -0.2608  0.4743
  133MOL0     C18237   0.183   7.185   9.828  0.1608  0.3311 -0.5131
  133MOL0     C18238   0.318   7.160   9.898  0.3795  0.3329  0.1849
  133MOL0     C18239   0.305   7.160  10.047 -0.4196  0.0683 -0.6051
  133MOL0     O18240   0.263   7.284  10.096  1.0669  0.2066  0.4028
  133MOL0     C18241   0.222   7.294  10.220  0.2803  0.5825  0.3121
  133MOL0     C18242   0.236   7.191  10.316 -0.5140 -0.5026 -0.2037
  133MOL0     C18243   0.173   7.200  10.447  0.3804 -0.5039  0.6004
  133MOL0     C18244   0.194   7.084  10.545  0.2086  0.4200  0.6406
  133MOL0     C18245   0.110   7.326  10.486  0.0620  0.1895 -0.1482
  133MOL0     C18246   0.047   7.346  10.621  0.0431 -0.6168 -0.2329
  133MOL0     O18247  -0.033   7.461  10.634 -0.0064 -0.2422 -0.2302
  133MOL0     C18248  -0.044   7.506  10.761  0.5665 -0.6937 -0.2914
  133MOL0     C18249  -0.135   7.453  10.851  0.4460  0.5114  0.2752
  133MOL0     C18250  -0.158   7.507  10.985  0.3013  0.3865  0.9436
  133MOL0     C18251  -0.084   7.622  11.020  0.0135  0.4000 -0.7096
  133MOL0     O18252  -0.093   7.674  11.145 -0.2711  0.1649 -0.2744
  133MOL0     C18253  -0.179   7.798  11.142 -0.3651  0.6295  0.3522
  133MOL0     C18254  -0.106   7.927  11.121  1.0761 -0.2848  0.5251
  133MOL0     C18255  -0.195   8.044  11.175 -0.4033  0.5673  0.7597
  133MOL0     C18256  -0.121   8.174  11.151 -0.3227 -0.4023 -0.3369
  133MOL0     C18257  -0.215   8.270  11.206  0.6061 -0.8498 -1.0165
  133MOL0     C18258  -0.174   8.420  11.169 -0.4197 -0.0755 -0.4238
  133MOL0     C18259  -0.282   8.508  11.230  0.2638  0.0080 -0.3336
  133MOL0     C18260  -0.237   8.653  11.197  0.2022 -0.0515 -0.2925
  133MOL0    Cl18261  -0.244   8.681  11.021  0.1861 -0.2029  0.2159
  133MOL0     C18262   0.010   7.681  10.931 -0.1724  0.0792 -1.4887
  133MOL0     C18263   0.028   7.625  10.803 -0.1701  0.4419  1.2050
  133MOL0     O18264   0.050   7.257  10.703  1.0305 -0.1583 -0.2111
  133MOL0     C18265   0.097   7.429  10.386  0.0710  0.5809 -0.2791
  133MOL0     C18266   0.145   7.404  10.253  0.9814 -1.3004  0.4170
  133MOL0     N18267   0.170   6.951   9.590  0.3350  0.5289 -0.4257
  133MOL0     N18268   0.242   6.876   9.520  0.2591 -0.1365 -0.2748
  133MOL0     C18269   0.584   6.938  10.535 -0.5051  0.2165  0.2258
  133MOL0     C18270   0.547   7.012  10.649  0.4029  1.4267  0.8285
  133MOL0     C18271   0.551   7.363  10.975  0.0087 -0.4172  0.1219
  133MOL0     C18272   0.619   7.462  11.046  0.1603  0.1145  0.6144
  133MOL0     C18273   0.551   7.539  11.141 -1.1684 -0.2973  0.2578
  133MOL0     C18274   0.423   7.518  11.177  0.4827  0.0342  0.2550
  133MOL0     O18275   0.376   7.621  11.258 -0.1802  0.3628  0.0857
  133MOL0     C18276   0.231   7.615  11.287 -0.3455  0.3352 -1.4671
  133MOL0     C18277   0.180   7.743  11.345 -0.4219 -0.2981 -0.7289
  133MOL0     C18278   0.181   7.747  11.502 -0.7081  0.5762  0.6707
  133MOL0     C18279   0.315   7.747  11.563 -0.8654 -1.3445  0.3577
  133MOL0     C18280   0.315   7.698  11.706 -0.3788 -0.4944  0.2648
  133MOL0     C18281   0.338   7.664  11.824 -0.0966 -0.2169 -0.0998
  133MOL0     C18282   0.349   7.428  11.105  0.9611 -0.4640 -0.1607
  133MOL0     C18283   0.419   7.346  11.014 -0.6064  0.0550 -0.2819
  133MOL0     C18284   0.333   7.249  10.943  0.6088 -0.1232  0.4533
  133MOL0     H18285   0.847   7.154  10.712  0.9177 -0.6382 -0.9130
  133MOL0     H18286   0.910   7.015  10.526  0.5144  0.7488  2.1068
  133MOL0     H18287   0.601   6.848  10.232  2.1650  0.7937  1.1470
  133MOL0     H18288   0.626   6.702  10.341  0.6295 -0.1858 -0.4293
  133MOL0     H18289   0.832   6.798  10.136  1.5656 -1.8263 -0.3028
  133MOL0     H18290   0.829   6.659  10.237 -2.2407 -1.5163  1.5981
  133MOL0     H18291   0.755   6.587  10.002  0.0876 -0.4636 -0.1880
  133MOL0     H18292   0.608   6.605  10.106  1.5304  0.0563  2.8736
  133MOL0     H18293   0.545   6.806   9.991  0.3077  0.5561  0.3762
  133MOL0     H18294   0.717   6.833   9.936 -0.1068  0.3480  1.9022
  133MOL0     H18295   0.522   6.614   9.831  2.4423 -0.7965  2.1354
  133MOL0     H18296   0.682   6.640   9.780  0.7451 -0.1555  2.4546
  133MOL0     H18297   0.460   6.864   9.772 -0.1962  1.6199 -1.2702
  133MOL0     H18298   0.632   6.882   9.738 -1.1880  1.4080 -2.4271
  133MOL0     H18299   0.430   6.684   9.608 -0.9354  1.7957  0.8921
  133MOL0     H18300   0.605   6.691   9.560 -1.3433 -1.7076  0.5942
  133MOL0     H18301   0.560   6.917   9.454 -0.4930  0.7492 -1.3335
  133MOL0     H18302   0.445   6.780   9.402 -0.4767  0.1345  0.5848
  133MOL0     H18303   0.453   7.117   9.573  0.1380 -0.5136 -1.9650
  133MOL0     H18304   0.113   7.221   9.629  0.9334 -1.8651 -0.7984
  133MOL0     H18305   0.274   7.284   9.657 -0.5884  0.2230 -1.4373
  133MOL0     H18306   0.146   7.279   9.869  0.3999  0.4432 -0.5519
  133MOL0     H18307   0.113   7.105   9.855  1.6495 -0.7469  0.2822
  133MOL0     H18308   0.362   7.062   9.875 -1.3540 -0.1834 -1.1010
  133MOL0     H18309   0.388   7.240   9.871  0.3768  0.7509  1.3715
  133MOL0     H18310   0.224   7.089  10.068 -1.7124  0.9117 -2.4856
  133MOL0     H18311   0.397   7.124  10.095 -1.2092 -0.7607  0.3612
  133MOL0     H18312   0.296   7.101  10.310  0.3121 -0.1656  1.9876
  133MOL0     H18313   0.262   7.114  10.625  2.6074  0.0124 -1.1419
  133MOL0     H18314   0.236   6.994  10.498 -1.7170  0.1552 -0.6859
  133MOL0     H18315   0.094   7.052  10.576  0.2006  0.2561  0.4469
  133MOL0     H18316  -0.196   7.371  10.814 -0.6565  1.4422 -0.0108
  133MOL0     H18317  -0.229   7.463  11.055 -2.9592  0.7077 -1.9161
  133MOL0     H18318  -0.240   7.791  11.052 -1.0463  0.6952  0.8016
  133MOL0     H18319  -0.240   7.813  11.231 -2.3622  1.4630 -1.0887
  133MOL0     H18320  -0.008   7.929  11.171 -0.5749 -0.6340  4.1170
  133MOL0     H18321  -0.096   7.945  11.014 -3.8342 -3.0638 -0.7263
  133MOL0     H18322  -0.220   8.023  11.280  2.1297 -3.2170  0.8028
  133MOL0     H18323  -0.279   8.052  11.105  0.3939 -1.6360 -0.5494
  133MOL0     H18324  -0.086   8.193  11.049  0.8570 -0.4873  0.0378
  133MOL0     H18325  -0.026   8.178  11.205 -0.9493 -3.6822  1.2438
  133MOL0     H18326  -0.318   8.258  11.169  0.3945 -1.5747 -0.2178
  133MOL0     H18327  -0.213   8.258  11.315 -0.2556 -0.3260 -0.9337
  133MOL0     H18328  -0.182   8.429  11.060 -1.0330  0.5119 -0.3420
  133MOL0     H18329  -0.073   8.434  11.208 -0.5259  0.2533 -0.2554
  133MOL0     H18330  -0.271   8.500  11.338  1.8440 -1.3272 -0.5586
  133MOL0     H18331  -0.386   8.494  11.199  0.1715  0.7858 -0.3918
  133MOL0     H18332  -0.137   8.677  11.234  0.3838  1.2547 -1.5456
  133MOL0     H18333  -0.308   8.722  11.245  1.6231 -0.4107  2.5477
  133MOL0     H18334   0.067   7.766  10.967 -2.2988  1.2702 -0.7666
  133MOL0     H18335   0.099   7.687  10.749  0.7956 -1.6058  0.0418
  133MOL0     H18336   0.047   7.521  10.414 -0.4832  0.5066 -1.0044
  133MOL0     H18337   0.103   7.483  10.193 -4.1182 -1.4877  3.1497
  133MOL0     H18338   0.509   6.883  10.480 -0.2894  1.4489 -1.3701
  133MOL0     H18339   0.442   7.014  10.674  0.3395  0.0106  0.7524
  133MOL0     H18340   0.724   7.482  11.031 -0.1087  1.5645  0.4609
  133MOL0     H18341   0.600   7.623  11.190 -0.0650 -1.1077  0.5732
  133MOL0     H18342   0.186   7.606  11.187  0.2074  0.7288 -1.7600
  133MOL0     H18343   0.204   7.531  11.350 -0.8051  2.0470  0.7480
  133MOL0     H18344   0.076   7.764  11.319  0.2836  2.4624 -1.7354
  133MOL0     H18345   0.231   7.834  11.310 -2.0368  2.1388  2.6635
  133MOL0     H18346   0.125   7.831  11.543 -1.5823  0.6847 -0.6775
  133MOL0     H18347   0.140   7.653  11.541  0.0846  0.6577  1.7317
  133MOL0     H18348   0.359   7.846  11.563  2.0280 -2.5343  0.3813
  133MOL0     H18349   0.388   7.678  11.520  2.2009  1.0638  1.3770
  133MOL0     H18350   0.354   7.648  11.929  2.4993 -0.5435 -0.4579
  133MOL0     H18351   0.245   7.416  11.132  0.7904  0.9460 -0.0915
  133MOL0     H18352   0.357   7.144  10.962  0.9289  0.0175  0.8397
  133MOL0     H18353   0.225   7.256  10.962  0.3977  1.4882 -1.0965
  133MOL0     H18354   0.345   7.263  10.835 -0.6442 -3.5459 -0.2495
  134MOL0     O18355   8.993   0.258   3.656  0.7707 -0.1294 -1.3199
  134MOL0     C18356   8.882   0.204   3.666 -0.5978 -0.5555  0.2837
  134MOL0     O18357   8.788   0.241   3.747  0.4305 -0.9601 -0.0204
  134MOL0     C18358   8.805   0.347   3.838  0.3486 -0.4207 -0.0414
  134MOL0     C18359   8.807   0.317   3.975  0.6425  0.7550 -0.6417
  134MOL0     C18360   8.820   0.413   4.069  0.4702 -1.2787 -0.3050
  134MOL0     C18361   8.844   0.547   4.030 -0.0662  0.1626 -0.9360
  134MOL0     O18362   8.887   0.634   4.126 -0.7894 -0.2754 -0.2067
  134MOL0     C18363   8.904   0.777   4.087  0.1406  0.8909 -0.8163
  134MOL0     C18364   8.957   0.845   4.224  0.5407  0.0701 -0.4745
  134MOL0     C18365   8.955   0.994   4.221 -0.1098  1.1569  0.4947
  134MOL0     C18366   8.804   1.041   4.229  0.9329 -0.2929 -0.3072
  134MOL0     C18367   8.795   1.196   4.200 -0.3840 -0.7287  0.1774
  134MOL0     C18368   8.872   1.291   4.290 -0.9073 -0.1237 -0.0229
  134MOL0     C18369   8.867   1.442   4.228  0.3425  0.2459  0.4315
  134MOL0     C18370   8.975   1.456   4.130 -0.1191  1.1186  0.9281
  134MOL0     N18371   8.958   1.579   4.054  0.4301 -0.8029  0.6176
  134MOL0     C18372   8.925   1.598   3.921  0.7260  0.3768  0.1213
  134MOL0     C18373   8.943   1.725   3.893  0.0333 -0.6633  0.6617
  134MOL0     C18374   8.905   1.812   3.774  0.0326 -0.7102  0.2403
  134MOL0     C18375   8.912   1.728   3.645 -0.1296  1.2014  0.3279
  134MOL0     C18376   8.872   1.812   3.523 -0.1230  0.7046 -1.3979
  134MOL0     C18377   8.873   1.737   3.388 -0.1150  0.0001  0.2215
  134MOL0     O18378   9.003   1.701   3.349  0.4071  0.3114 -0.1730
  134MOL0     C18379   9.020   1.655   3.219  0.0777  0.0309 -0.0987
  134MOL0     C18380   9.149   1.650   3.175 -0.5260 -0.6575  0.5855
  134MOL0     C18381   9.189   1.589   3.048  0.3004  0.2479 -0.3744
  134MOL0     C18382   9.338   1.557   3.023  0.7979  0.2753  0.0440
  134MOL0     C18383   9.082   1.556   2.950 -0.2681  0.1228  0.7027
  134MOL0     C18384   9.091   1.503   2.809  0.8843  0.7688 -0.1436
  134MOL0     O18385   8.972   1.513   2.733  0.5482  0.2975 -0.0471
  134MOL0     C18386   8.984   1.474   2.607  0.8309  0.5686 -0.7006
  134MOL0     C18387   8.971   1.571   2.518  0.0040  0.6633  0.2383
  134MOL0     C18388   8.984   1.534   2.382 -0.0250 -0.1856  0.3169
  134MOL0     C18389   9.009   1.403   2.340 -0.7767 -0.0582  0.8606
  134MOL0     O18390   9.022   1.389   2.205  0.5405  0.3746  0.1105
  134MOL0     C18391   9.090   1.278   2.150 -1.2853 -0.4514  0.2238
  134MOL0     C18392   9.138   1.301   2.015  0.3295 -0.7541 -0.4143
  134MOL0     C18393   9.269   1.386   1.986  0.8756  0.2789 -0.6180
  134MOL0     C18394   9.228   1.531   1.992 -1.1024  0.4171 -0.2921
  134MOL0     C18395   9.349   1.630   1.991 -0.8332 -0.0593  0.2312
  134MOL0     C18396   9.317   1.767   1.932 -1.0966  1.5537 -0.3434
  134MOL0     C18397   9.441   1.858   1.940  0.3024 -0.1015  0.4277
  134MOL0     C18398   9.406   2.004   1.981  0.6119 -0.5882  0.1775
  134MOL0    Cl18399   9.358   2.007   2.155 -0.1124 -0.3336 -0.4302
  134MOL0     C18400   9.009   1.297   2.438 -0.1019 -0.2665  0.0965
  134MOL0     C18401   8.988   1.335   2.577 -1.5536 -0.0348  0.5183
  134MOL0     O18402   9.204   1.473   2.772 -0.1092 -0.0184 -0.3310
  134MOL0     C18403   8.956   1.589   2.999  0.1438 -0.2546  0.1436
  134MOL0     C18404   8.922   1.634   3.123 -1.0785  0.1052  0.1372
  134MOL0     N18405   9.005   1.783   4.005  0.5059  0.3091  0.0340
  134MOL0     N18406   9.018   1.692   4.098  0.8290 -0.4565 -0.1237
  134MOL0     C18407   8.827   0.577   3.897 -0.3821  0.2233 -0.5943
  134MOL0     C18408   8.811   0.475   3.805 -0.4054 -0.8941 -0.0433
  134MOL0     C18409   8.847   0.093   3.577 -0.3635 -1.0531  0.0058
  134MOL0     C18410   8.882   0.102   3.435 -0.9513  0.5640 -0.1517
  134MOL0     C18411   8.817   0.016   3.339 -0.0960  1.0343  0.4877
  134MOL0     C18412   8.736  -0.078   3.384  0.9081  0.3617 -0.2867
  134MOL0     O18413   8.697  -0.160   3.287 -1.2816 -0.2300 -0.0166
  134MOL0     C18414   8.564  -0.140   3.243  0.2750  0.3293 -0.9578
  134MOL0     C18415   8.528  -0.057   3.128  0.9871  0.0065  0.0842
  134MOL0     C18416   8.380  -0.076   3.075  1.0209  0.1899  0.6278
  134MOL0     C18417   8.363  -0.032   2.926 -0.1510 -1.4508 -0.0915
  134MOL0     C18418   8.246  -0.079   2.854 -1.4597 -0.1625  0.4173
  134MOL0     C18419   8.162  -0.143   2.796  0.3991 -0.4058 -0.3736
  134MOL0     C18420   8.702  -0.086   3.516 -0.7087  0.0936 -0.2987
  134MOL0     C18421   8.751  -0.007   3.618 -0.7166 -0.1882 -0.2114
  134MOL0     C18422   8.715  -0.033   3.763 -0.7873  0.7650  1.0845
  134MOL0     H18423   8.805   0.213   4.008  2.1643  0.4080 -1.5352
  134MOL0     H18424   8.817   0.396   4.176 -1.8049 -0.3389 -0.1484
  134MOL0     H18425   8.804   0.818   4.071 -1.5680 -0.8085  3.9290
  134MOL0     H18426   8.973   0.790   4.003  2.9378  1.4623  1.4133
  134MOL0     H18427   8.895   0.808   4.307 -0.8586  0.1852 -1.4252
  134MOL0     H18428   9.060   0.829   4.256  0.1965  0.0385  0.6689
  134MOL0     H18429   9.005   1.042   4.306 -2.8725 -0.0761  2.9994
  134MOL0     H18430   8.994   1.025   4.123 -2.5119  1.5052 -0.4153
  134MOL0     H18431   8.739   0.992   4.156 -1.7444  1.0406  1.0323
  134MOL0     H18432   8.766   1.007   4.326 -0.6504 -0.5297 -0.9873
  134MOL0     H18433   8.694   1.238   4.200 -1.3399 -2.8920 -0.3250
  134MOL0     H18434   8.833   1.217   4.099  2.3970  1.4471  1.5287
  134MOL0     H18435   8.835   1.301   4.392  3.6044  3.4359  1.6173
  134MOL0     H18436   8.978   1.265   4.289 -0.9428 -0.4478  1.8862
  134MOL0     H18437   8.883   1.506   4.315  1.5989 -0.3599  0.6561
  134MOL0     H18438   8.771   1.465   4.180  0.3757  1.0232  0.7135
  134MOL0     H18439   9.077   1.464   4.171  0.3712  1.4992 -0.3090
  134MOL0     H18440   8.988   1.377   4.055  1.5407  3.9596 -2.1182
  134MOL0     H18441   8.897   1.522   3.849  1.4897 -2.6071  2.7691
  134MOL0     H18442   8.978   1.893   3.775  0.1614 -0.8167 -0.3419
  134MOL0     H18443   8.810   1.865   3.789  0.0503 -0.7919  0.6592
  134MOL0     H18444   9.012   1.684   3.636  0.7223  2.3104  3.1066
  134MOL0     H18445   8.839   1.646   3.645 -0.8700  1.7769  2.8108
  134MOL0     H18446   8.772   1.847   3.550 -0.5943 -1.4612 -0.1500
  134MOL0     H18447   8.944   1.895   3.521 -0.0963  0.6745 -1.6848
  134MOL0     H18448   8.804   1.651   3.390  0.1076 -0.2505 -1.3779
  134MOL0     H18449   8.821   1.807   3.322 -1.7474 -2.8231 -1.6970
  134MOL0     H18450   9.222   1.665   3.253  0.7258  1.2311 -0.8339
  134MOL0     H18451   9.389   1.630   2.959  1.1977 -1.2776 -1.4759
  134MOL0     H18452   9.357   1.461   2.976 -1.8816  1.3088 -3.5488
  134MOL0     H18453   9.384   1.544   3.122  0.2859 -0.0117  0.2468
  134MOL0     H18454   8.962   1.677   2.540  0.6751  0.6718  0.5153
  134MOL0     H18455   8.980   1.618   2.313  1.6112 -1.8396 -1.9563
  134MOL0     H18456   9.174   1.231   2.201  0.8956  0.1202 -2.6269
  134MOL0     H18457   9.017   1.196   2.153 -0.3889 -1.2411  1.4118
  134MOL0     H18458   9.168   1.203   1.976  1.1313 -0.3493 -0.8276
  134MOL0     H18459   9.055   1.342   1.957  0.4526  0.3531  0.1735
  134MOL0     H18460   9.318   1.363   1.891 -2.0734 -1.7431 -1.8063
  134MOL0     H18461   9.333   1.367   2.073  0.2043  1.8243  0.2698
  134MOL0     H18462   9.161   1.537   2.079 -1.4630 -1.8714 -0.3502
  134MOL0     H18463   9.169   1.555   1.903 -3.5266  1.5176  1.4971
  134MOL0     H18464   9.386   1.654   2.092  0.1932  0.0699 -0.1615
  134MOL0     H18465   9.437   1.578   1.952 -1.0759 -0.8602  0.7219
  134MOL0     H18466   9.228   1.813   1.975 -0.2419  2.2921  0.6853
  134MOL0     H18467   9.302   1.747   1.826  1.6287  0.3779 -0.6034
  134MOL0     H18468   9.493   1.859   1.844  0.8279 -0.2589  0.7111
  134MOL0     H18469   9.514   1.819   2.011  0.2833  3.3001  2.5446
  134MOL0     H18470   9.331   2.048   1.915 -1.0598 -5.4901 -1.6194
  134MOL0     H18471   9.497   2.065   1.974 -1.7231  3.1886 -0.0976
  134MOL0     H18472   9.035   1.195   2.415  2.9000  0.4975 -0.2777
  134MOL0     H18473   8.988   1.250   2.644  0.5702  0.2432  0.9327
  134MOL0     H18474   8.867   1.581   2.938  2.4726 -1.0987 -3.4370
  134MOL0     H18475   8.818   1.656   3.143 -1.3114  0.6882 -1.5557
  134MOL0     H18476   8.856   0.671   3.853 -1.5621  1.5233  1.2598
  134MOL0     H18477   8.812   0.496   3.698 -2.8798  0.4226  0.1238
  134MOL0     H18478   8.955   0.178   3.408 -1.8731  1.3445 -0.5162
  134MOL0     H18479   8.835   0.017   3.232  0.6047 -0.2650  0.5733
  134MOL0     H18480   8.534  -0.239   3.207  0.2272  0.3423 -0.9541
  134MOL0     H18481   8.517  -0.110   3.337  0.1852  0.1825 -0.9550
  134MOL0     H18482   8.596  -0.087   3.047  1.4031  1.2430 -0.0373
  134MOL0     H18483   8.545   0.049   3.146  0.7863 -0.1676  1.4228
  134MOL0     H18484   8.352  -0.182   3.078  1.9882 -0.1628 -1.2336
  134MOL0     H18485   8.299  -0.022   3.124 -2.9690 -3.0518 -1.7017
  134MOL0     H18486   8.447  -0.068   2.865 -0.1335  1.1482 -1.7775
  134MOL0     H18487   8.366   0.077   2.919 -2.8180 -1.3233 -0.1485
  134MOL0     H18488   8.068  -0.164   2.748 -0.6519  1.8465  0.5603
  134MOL0     H18489   8.636  -0.170   3.536  1.8571 -1.8331  0.6244
  134MOL0     H18490   8.625   0.030   3.771 -0.8888  0.5077  2.0249
  134MOL0     H18491   8.690  -0.138   3.777 -1.6398  0.6265 -1.0511
  134MOL0     H18492   8.801  -0.013   3.827  2.2250 -2.2547 -1.6822
  135MOL0     O18493   7.049   3.127   9.970  0.2649 -0.0147 -0.0715
  135MOL0     C18494   7.138   3.210   9.958 -0.2761  1.4696  0.7007
  135MOL0     O18495   7.274   3.170   9.943 -0.8307 -0.3517 -0.4831
  135MOL0     C18496   7.307   3.039   9.981 -0.5414  0.1506 -0.4310
  135MOL0     C18497   7.379   2.961   9.886 -0.4096 -0.0094 -1.0141
  135MOL0     C18498   7.432   2.838   9.927  0.3625  0.2259 -0.3928
  135MOL0     C18499   7.416   2.799  10.062 -0.3161  0.0245  0.2124
  135MOL0     O18500   7.469   2.691  10.122  0.2777  0.4793  1.2228
  135MOL0     C18501   7.546   2.594  10.040  0.0457 -0.7512 -0.7142
  135MOL0     C18502   7.622   2.499  10.147 -0.6219 -0.1918  0.4610
  135MOL0     C18503   7.764   2.455  10.100 -0.7301  0.0618 -1.0484
  135MOL0     C18504   7.823   2.359  10.214 -0.6995 -0.7387  0.1127
  135MOL0     C18505   7.942   2.280  10.156  0.0952 -0.4711  0.5900
  135MOL0     C18506   7.909   2.168  10.059  0.5687  0.6021  0.7068
  135MOL0     C18507   8.021   2.129   9.964  0.7610 -0.6124 -0.9611
  135MOL0     C18508   8.108   2.025  10.032  1.5901  0.5806 -0.1672
  135MOL0     N18509   8.224   1.995   9.946  0.6806 -0.0294 -0.1161
  135MOL0     C18510   8.227   1.900   9.851  0.2240 -0.1488 -0.0013
  135MOL0     C18511   8.334   1.935   9.777  0.1254  0.8733  0.0520
  135MOL0     C18512   8.378   1.853   9.660 -0.3516  0.2988 -0.4364
  135MOL0     C18513   8.502   1.771   9.708  0.7934 -0.3472  0.8040
  135MOL0     C18514   8.479   1.668   9.824  1.5810  0.6175 -0.6809
  135MOL0     C18515   8.575   1.555   9.837 -0.2850 -0.2189  0.2677
  135MOL0     O18516   8.541   1.470   9.723 -0.2072  0.2417 -0.0831
  135MOL0     C18517   8.572   1.336   9.721 -0.4836 -0.9017 -0.1592
  135MOL0     C18518   8.621   1.276   9.834 -1.2334  1.0490 -0.1271
  135MOL0     C18519   8.656   1.140   9.834 -0.5098 -0.2183 -1.1437
  135MOL0     C18520   8.707   1.082   9.967  1.2025  0.0727 -0.1725
  135MOL0     C18521   8.614   1.056   9.728  0.9793  0.6851  0.2802
  135MOL0     C18522   8.643   0.911   9.714  0.4517  0.1698  0.7200
  135MOL0     O18523   8.682   0.828   9.820  0.1347 -0.2478  0.3173
  135MOL0     C18524   8.711   0.699   9.807  0.1834 -0.5160 -0.4050
  135MOL0     C18525   8.690   0.624   9.924 -0.0041 -0.8965  0.4251
  135MOL0     C18526   8.740   0.495   9.934 -0.6939  0.5050 -0.2461
  135MOL0     C18527   8.808   0.433   9.827 -1.3882 -0.2189 -0.4940
  135MOL0     O18528   8.861   0.305   9.834 -0.3618 -0.0150  0.2755
  135MOL0     C18529   8.834   0.224   9.945  0.5047 -0.2731 -0.1520
  135MOL0     C18530   8.922   0.095   9.947  0.0436  0.3409 -0.0139
  135MOL0     C18531   9.056   0.112  10.008  0.4692  0.3263 -0.5177
  135MOL0     C18532   9.034   0.122  10.164 -0.6871  0.6295  0.6199
  135MOL0     C18533   9.161   0.177  10.232  0.4266 -0.0049  0.0186
  135MOL0     C18534   9.143   0.154  10.381 -0.3452  0.2205 -0.1270
  135MOL0     C18535   9.270   0.159  10.463  0.7905 -0.3022  0.0010
  135MOL0     C18536   9.357   0.279  10.434 -0.8071  0.1673  0.2518
  135MOL0    Cl18537   9.500   0.266  10.543  0.3627  0.3431  0.0894
  135MOL0     C18538   8.834   0.508   9.715  0.2640  0.2155 -0.2925
  135MOL0     C18539   8.783   0.640   9.699 -0.9823  0.0218  0.5392
  135MOL0     O18540   8.617   0.869   9.594 -0.3577  0.7863 -0.2035
  135MOL0     C18541   8.554   1.122   9.617  0.4472  0.1020 -0.1658
  135MOL0     C18542   8.541   1.258   9.611 -0.5437 -0.4327  0.4165
  135MOL0     N18543   8.381   2.053   9.822 -0.6049 -0.0882 -0.3532
  135MOL0     N18544   8.324   2.080   9.933  0.0279  0.2357  0.0285
  135MOL0     C18545   7.341   2.871  10.160 -0.4536 -0.9501  0.6065
  135MOL0     C18546   7.286   2.995  10.118  0.3700  0.0634  0.9224
  135MOL0     C18547   7.103   3.359   9.963  0.0514 -0.3590  0.0296
  135MOL0     C18548   7.197   3.444   9.909 -0.3073  0.0639 -0.9028
  135MOL0     C18549   7.176   3.575   9.909  0.9226  0.2373  0.2279
  135MOL0     C18550   7.061   3.625   9.951  0.4005  0.2346 -0.5888
  135MOL0     O18551   7.025   3.751   9.915 -0.3861 -0.4268  0.5432
  135MOL0     C18552   7.080   3.846  10.018 -0.4609 -0.0682 -0.0575
  135MOL0     C18553   7.061   3.993   9.982  0.1644  0.3666 -0.1667
  135MOL0     C18554   7.110   4.046   9.845 -0.0832  0.2670 -0.1242
  135MOL0     C18555   7.165   4.192   9.855 -0.0468 -0.0222 -0.2435
  135MOL0     C18556   7.052   4.282   9.858  0.0081 -0.6147 -0.5137
  135MOL0     C18557   6.954   4.355   9.871 -0.3594 -0.0377 -0.2674
  135MOL0     C18558   6.968   3.542  10.009 -0.1473  0.2469 -0.7159
  135MOL0     C18559   6.984   3.405  10.022  0.1099 -0.2821 -0.3864
  135MOL0     C18560   6.877   3.311  10.064  0.3893  0.7894  0.1195
  135MOL0     H18561   7.385   2.977   9.779  4.2985 -1.0880 -1.1173
  135MOL0     H18562   7.485   2.788   9.846 -0.7522  1.6028 -2.0428
  135MOL0     H18563   7.617   2.665   9.997  0.7194 -0.2081  1.1830
  135MOL0     H18564   7.503   2.537   9.957  0.9369 -0.2990 -1.5080
  135MOL0     H18565   7.634   2.546  10.245  1.1460  3.3789 -1.2518
  135MOL0     H18566   7.555   2.413  10.152  0.6232 -1.2622 -0.6436
  135MOL0     H18567   7.756   2.405  10.003  0.5217 -0.9610 -0.6539
  135MOL0     H18568   7.835   2.537  10.089  1.4825 -1.6253 -0.1897
  135MOL0     H18569   7.849   2.420  10.301  3.8798 -1.1234 -0.7283
  135MOL0     H18570   7.749   2.283  10.242 -1.6212 -0.5027 -1.5613
  135MOL0     H18571   8.000   2.233  10.237  0.4425 -3.8425 -1.4199
  135MOL0     H18572   8.005   2.351  10.102 -0.1217 -1.3166 -0.8294
  135MOL0     H18573   7.860   2.082  10.105  0.4850 -0.8790 -1.9613
  135MOL0     H18574   7.840   2.219   9.992 -1.1776 -2.3665  0.0856
  135MOL0     H18575   8.080   2.220   9.951  2.2421 -0.8717  2.7410
  135MOL0     H18576   7.984   2.094   9.867 -2.0409 -2.1341  0.5150
  135MOL0     H18577   8.151   2.057  10.128 -0.0557 -0.6645  1.0387
  135MOL0     H18578   8.053   1.932  10.045  0.8449  0.9007 -0.9558
  135MOL0     H18579   8.144   1.834   9.831 -0.4014  0.1689  1.4260
  135MOL0     H18580   8.404   1.909   9.570  2.5162 -2.2557 -1.3464
  135MOL0     H18581   8.290   1.795   9.630 -0.3425  0.4263 -0.7126
  135MOL0     H18582   8.530   1.713   9.620  0.5757  1.5177 -0.5548
  135MOL0     H18583   8.571   1.846   9.746 -1.7238  3.6369 -1.7141
  135MOL0     H18584   8.484   1.721   9.920  1.8274  0.4199 -0.5844
  135MOL0     H18585   8.380   1.623   9.811  3.0412 -2.4391 -2.2408
  135MOL0     H18586   8.681   1.578   9.846 -0.7319  1.4758  1.7100
  135MOL0     H18587   8.557   1.498   9.928 -0.3101 -1.4409 -0.4744
  135MOL0     H18588   8.652   1.324   9.926  2.1236 -1.8981  0.5340
  135MOL0     H18589   8.775   0.999   9.947  1.3235 -0.1338  1.0460
  135MOL0     H18590   8.626   1.048  10.032 -0.7663  3.8623 -0.3542
  135MOL0     H18591   8.774   1.156  10.013 -0.5619  1.1033  0.8614
  135MOL0     H18592   8.635   0.672  10.004  2.0109 -0.6302  1.7389
  135MOL0     H18593   8.712   0.438  10.022 -0.6786  0.4023 -0.3072
  135MOL0     H18594   8.851   0.279  10.038  3.9790 -1.8762  0.3299
  135MOL0     H18595   8.729   0.195   9.946  0.6159 -0.6993 -0.4509
  135MOL0     H18596   8.860   0.028  10.008  1.4233 -2.2929 -1.3661
  135MOL0     H18597   8.935   0.040   9.853 -1.2999 -1.0393  0.5588
  135MOL0     H18598   9.108   0.203   9.978  0.7701  1.3557  2.6757
  135MOL0     H18599   9.109   0.017  10.000  0.7549  0.5055 -0.7356
  135MOL0     H18600   9.020   0.019  10.197 -0.5022  0.6274  0.6949
  135MOL0     H18601   8.950   0.184  10.196 -0.8622  0.4897  0.4284
  135MOL0     H18602   9.257   0.137  10.202  2.4204  1.7066  3.4841
  135MOL0     H18603   9.171   0.282  10.204 -0.8033 -0.2582 -1.5305
  135MOL0     H18604   9.100   0.058  10.412  0.9658 -0.3231  0.0657
  135MOL0     H18605   9.066   0.223  10.418 -0.1039 -0.6282  2.1411
  135MOL0     H18606   9.321   0.064  10.448  1.7247  0.0500  0.8565
  135MOL0     H18607   9.248   0.154  10.570 -1.4744 -0.1898 -0.4002
  135MOL0     H18608   9.307   0.371  10.465  0.7703  1.8741 -1.8827
  135MOL0     H18609   9.384   0.275  10.328 -1.0683 -0.0310  0.1921
  135MOL0     H18610   8.895   0.460   9.638  0.7154  1.9084 -1.0426
  135MOL0     H18611   8.805   0.691   9.605 -2.4103 -2.1878 -1.0801
  135MOL0     H18612   8.532   1.073   9.522  0.6939 -0.0941 -0.1217
  135MOL0     H18613   8.522   1.305   9.515  0.5039 -0.3546  0.2342
  135MOL0     H18614   7.334   2.829  10.260  0.5335 -0.6530  0.8175
  135MOL0     H18615   7.232   3.060  10.186  1.0877 -0.1934  1.7515
  135MOL0     H18616   7.281   3.402   9.856 -0.1460 -0.6312 -0.1194
  135MOL0     H18617   7.242   3.646   9.859 -1.5666  3.1727  0.7893
  135MOL0     H18618   7.033   3.827  10.115 -0.7097  3.6163  0.6917
  135MOL0     H18619   7.188   3.831  10.032 -0.0405  2.5044  0.0590
  135MOL0     H18620   7.111   4.049  10.062  0.4656 -0.3803  0.1716
  135MOL0     H18621   6.958   4.027   9.994 -0.1338 -0.2863 -0.7700
  135MOL0     H18622   7.192   3.985   9.806 -0.8004 -0.0605 -1.1501
  135MOL0     H18623   7.021   4.023   9.786 -2.0722 -3.8598  3.8006
  135MOL0     H18624   7.226   4.201   9.764 -0.2537 -3.8722 -0.9424
  135MOL0     H18625   7.233   4.222   9.936  4.5669  0.5017 -3.8460
  135MOL0     H18626   6.861   4.409   9.870 -1.2491 -1.5416 -0.6943
  135MOL0     H18627   6.873   3.581  10.045 -0.2649 -1.1085  0.5242
  135MOL0     H18628   6.853   3.263   9.968  4.3333  2.4682 -1.9377
  135MOL0     H18629   6.918   3.246  10.142 -2.0800  2.4773  3.0466
  135MOL0     H18630   6.793   3.368  10.103  1.7021  1.6300  1.8363
  136MOL0     O18631   8.518   0.979   1.337 -0.8202 -0.1577  0.0104
  136MOL0     C18632   8.467   1.084   1.382  0.2637  0.3774  1.2373
  136MOL0     O18633   8.530   1.203   1.392  0.2651 -0.3516 -0.4474
  136MOL0     C18634   8.666   1.210   1.392  0.4899  0.3153  0.0363
  136MOL0     C18635   8.734   1.152   1.506  0.3776  0.2805  0.7030
  136MOL0     C18636   8.876   1.172   1.523 -0.5465 -0.2607  0.1875
  136MOL0     C18637   8.949   1.236   1.421 -0.1814  0.3369  0.3230
  136MOL0     O18638   9.084   1.251   1.448  0.1818 -0.0200  0.1540
  136MOL0     C18639   9.110   1.353   1.546  0.4677  0.4447  0.9794
  136MOL0     C18640   9.253   1.416   1.559  0.0276 -0.7199  0.3766
  136MOL0     C18641   9.286   1.461   1.415 -0.0847  0.8466  1.2082
  136MOL0     C18642   9.182   1.554   1.352 -0.4164  0.1630 -0.1077
  136MOL0     C18643   9.253   1.594   1.219 -0.0090  0.0004  0.2648
  136MOL0     C18644   9.160   1.651   1.114 -0.5448 -0.1029 -0.4040
  136MOL0     C18645   9.101   1.787   1.159 -0.5933 -0.3074 -0.4286
  136MOL0     C18646   8.999   1.852   1.062  0.0228  0.6083 -0.4894
  136MOL0     N18647   9.050   1.862   0.917 -0.1445 -0.3785  0.4072
  136MOL0     C18648   9.127   1.962   0.861 -0.6290  0.5644 -0.3594
  136MOL0     C18649   9.116   1.949   0.723  0.0914  0.7822  0.2158
  136MOL0     C18650   9.185   2.024   0.612 -0.3744  0.0560  0.0171
  136MOL0     C18651   9.295   2.129   0.638  0.5030  0.4294  0.2242
  136MOL0     C18652   9.426   2.065   0.694 -0.6966 -0.0630  0.4618
  136MOL0     C18653   9.509   2.168   0.764 -0.7620 -0.5088 -1.1303
  136MOL0     O18654   9.562   2.267   0.666  1.2415  0.0983 -0.1902
  136MOL0     C18655   9.522   2.397   0.679  0.1629  0.5243  0.8915
  136MOL0     C18656   9.516   2.475   0.790 -0.0084  1.0958  0.7294
  136MOL0     C18657   9.482   2.615   0.783  0.3983 -0.1120 -0.4092
  136MOL0     C18658   9.488   2.688   0.914  0.0371  0.7580  0.7593
  136MOL0     C18659   9.451   2.667   0.655 -0.6105 -0.4541  0.2950
  136MOL0     C18660   9.401   2.803   0.635 -0.2357  0.8794 -0.6130
  136MOL0     O18661   9.302   2.802   0.536 -0.1331  0.0994 -0.4058
  136MOL0     C18662   9.206   2.897   0.532 -0.5967 -0.0583  0.4349
  136MOL0     C18663   9.088   2.849   0.492  0.0033  0.1114  0.0971
  136MOL0     C18664   8.984   2.933   0.475 -0.1521  0.1649 -0.1288
  136MOL0     C18665   8.996   3.071   0.495  0.3268  0.7571 -0.3161
  136MOL0     O18666   8.886   3.151   0.492  0.2885 -0.4718 -0.1613
  136MOL0     C18667   8.893   3.278   0.418  1.1453 -0.0423  0.6004
  136MOL0     C18668   8.755   3.304   0.346 -0.1403  0.1333 -0.0221
  136MOL0     C18669   8.759   3.269   0.194 -0.4148 -0.6994 -1.0264
  136MOL0     C18670   8.641   3.348   0.128  0.5747  0.6822  0.1447
  136MOL0     C18671   8.505   3.295   0.186  0.6612  0.6962  0.4739
  136MOL0     C18672   8.381   3.351   0.107  1.0207 -1.1051 -0.4733
  136MOL0     C18673   8.248   3.299   0.159 -0.2950 -0.3304  0.5462
  136MOL0     C18674   8.128   3.325   0.061  0.5401  0.1631 -0.1323
  136MOL0    Cl18675   7.976   3.269   0.141  0.1120  0.3065  0.2025
  136MOL0     C18676   9.120   3.125   0.535  0.4888  0.2100 -0.1790
  136MOL0     C18677   9.224   3.034   0.554 -0.5235  0.2567  0.2405
  136MOL0     O18678   9.433   2.900   0.702  0.4351 -0.5011  0.5961
  136MOL0     C18679   9.463   2.588   0.538  0.2847  0.1681  0.5952
  136MOL0     C18680   9.482   2.452   0.560  1.0281 -0.2662 -0.5822
  136MOL0     N18681   9.022   1.849   0.695 -0.5015  0.8105  0.5003
  136MOL0     N18682   8.986   1.797   0.812  0.0170  0.4826  0.1546
  136MOL0     C18683   8.892   1.274   1.300  0.3909 -0.6675 -1.2011
  136MOL0     C18684   8.750   1.269   1.288  0.1492 -0.8537  0.4007
  136MOL0     C18685   8.319   1.084   1.380 -0.5061 -1.4484 -0.8663
  136MOL0     C18686   8.260   1.212   1.418  0.5610  0.1418  0.4573
  136MOL0     C18687   8.128   1.223   1.419  0.8667  0.9202  0.3430
  136MOL0     C18688   8.042   1.115   1.400  0.2488  0.4565 -0.6741
  136MOL0     O18689   7.904   1.114   1.413 -0.5483  0.2768  0.3834
  136MOL0     C18690   7.840   1.233   1.453 -0.4943  0.7998 -0.0178
  136MOL0     C18691   7.838   1.325   1.330 -0.0731  0.5199 -0.3527
  136MOL0     C18692   7.791   1.286   1.191  0.0139 -0.0056 -0.0611
  136MOL0     C18693   7.644   1.251   1.189 -0.5504 -0.6633 -0.1121
  136MOL0     C18694   7.589   1.241   1.053 -0.7913  0.4682  1.3545
  136MOL0     C18695   7.539   1.226   0.945  0.5124 -0.1008  0.1368
  136MOL0     C18696   8.099   0.990   1.366  1.1838  0.1412 -0.4196
  136MOL0     C18697   8.236   0.974   1.345 -0.1695 -0.0940 -0.0354
  136MOL0     C18698   8.283   0.836   1.285  0.5634 -0.4296 -0.3116
  136MOL0     H18699   8.670   1.107   1.581  0.2933  0.5640  0.8038
  136MOL0     H18700   8.930   1.152   1.615  2.4761 -2.2395 -1.8059
  136MOL0     H18701   9.088   1.306   1.642 -2.7259  0.9662  0.6156
  136MOL0     H18702   9.043   1.437   1.525  0.5639 -0.0865 -1.9186
  136MOL0     H18703   9.260   1.497   1.631  2.3303 -1.0091  0.5548
  136MOL0     H18704   9.310   1.334   1.603 -1.1216 -0.9248  1.5630
  136MOL0     H18705   9.389   1.499   1.412  0.4628 -0.1186 -4.7678
  136MOL0     H18706   9.287   1.374   1.349 -3.3052 -0.4596  2.6651
  136MOL0     H18707   9.089   1.504   1.325  0.0790 -0.5815 -0.4729
  136MOL0     H18708   9.175   1.639   1.421  4.4114  1.6066 -0.9876
  136MOL0     H18709   9.298   1.508   1.167 -0.2989  1.7828 -3.2696
  136MOL0     H18710   9.342   1.654   1.239 -1.6661  2.4666  0.5994
  136MOL0     H18711   9.207   1.650   1.015 -0.2136 -0.1054 -0.2511
  136MOL0     H18712   9.076   1.582   1.106  0.2266 -1.0057 -0.9943
  136MOL0     H18713   9.188   1.854   1.156 -0.5051 -0.3994 -0.0050
  136MOL0     H18714   9.067   1.784   1.263  2.7126 -0.3480  0.7811
  136MOL0     H18715   8.910   1.790   1.070  0.1047  0.7368  2.0865
  136MOL0     H18716   8.978   1.951   1.104 -0.1760  1.0933 -1.6946
  136MOL0     H18717   9.196   2.021   0.921  0.4015 -1.7937  0.9065
  136MOL0     H18718   9.117   2.081   0.548 -2.0651  1.2138  2.6714
  136MOL0     H18719   9.219   1.941   0.550 -2.9474 -0.7354 -0.4599
  136MOL0     H18720   9.317   2.186   0.547  0.1843 -1.5366 -1.1365
  136MOL0     H18721   9.247   2.200   0.706 -1.3865 -1.0738  0.5571
  136MOL0     H18722   9.403   1.991   0.771  0.4535 -0.7701  0.1545
  136MOL0     H18723   9.468   2.010   0.609 -2.4232 -1.0132  0.1745
  136MOL0     H18724   9.450   2.217   0.841  0.8097  0.8766 -0.7482
  136MOL0     H18725   9.601   2.132   0.811  0.6356  1.8293 -1.8821
  136MOL0     H18726   9.550   2.434   0.885  0.6997  0.6079  0.2784
  136MOL0     H18727   9.435   2.637   0.995  1.4687 -0.2358  1.1015
  136MOL0     H18728   9.446   2.789   0.911  1.2478  1.4997 -5.7999
  136MOL0     H18729   9.593   2.697   0.942  0.1088 -1.6032  1.4281
  136MOL0     H18730   9.076   2.743   0.472 -2.7146  0.3470  0.1360
  136MOL0     H18731   8.888   2.894   0.445  0.3009 -1.6980  0.7246
  136MOL0     H18732   8.914   3.372   0.471 -0.4119  1.8459 -1.9274
  136MOL0     H18733   8.964   3.275   0.335  0.0197  1.9190 -0.4898
  136MOL0     H18734   8.670   3.257   0.396 -1.0740 -1.7898 -3.1416
  136MOL0     H18735   8.746   3.413   0.353 -0.6805  0.0252  1.4834
  136MOL0     H18736   8.749   3.162   0.175 -2.5447 -0.7261  0.0359
  136MOL0     H18737   8.854   3.295   0.145  0.3719 -0.8557  0.3771
  136MOL0     H18738   8.653   3.337   0.020 -0.1842  0.2896  0.0942
  136MOL0     H18739   8.644   3.454   0.158  0.2454  0.6131  0.4218
  136MOL0     H18740   8.514   3.186   0.185  1.2723  0.7106  2.0819
  136MOL0     H18741   8.487   3.316   0.292 -1.5630  2.6435 -0.2119
  136MOL0     H18742   8.389   3.319   0.003  1.6074  2.2350 -1.5941
  136MOL0     H18743   8.387   3.459   0.126  1.4061 -1.4485  1.6540
  136MOL0     H18744   8.226   3.341   0.258 -0.5584 -2.9767  1.6769
  136MOL0     H18745   8.259   3.194   0.184  0.9126 -0.4826 -0.5148
  136MOL0     H18746   8.132   3.272  -0.035 -0.2951 -0.4222  0.1472
  136MOL0     H18747   8.114   3.431   0.037 -3.4544 -0.2715 -0.4462
  136MOL0     H18748   9.135   3.231   0.552 -2.2057  0.7318 -0.5679
  136MOL0     H18749   9.321   3.068   0.587 -0.9447 -0.0828  1.9102
  136MOL0     H18750   9.440   2.634   0.443  0.1237 -2.4296 -0.6916
  136MOL0     H18751   9.487   2.383   0.476  2.0596 -1.1331  0.1735
  136MOL0     H18752   8.942   1.323   1.217  1.8375  1.0430  0.5834
  136MOL0     H18753   8.701   1.318   1.206  0.1967  0.2761  1.0338
  136MOL0     H18754   8.321   1.300   1.436 -0.9520  0.9969  1.7680
  136MOL0     H18755   8.093   1.323   1.444 -3.4163  0.1476 -1.5883
  136MOL0     H18756   7.738   1.199   1.473 -0.3630  0.3882 -0.0389
  136MOL0     H18757   7.872   1.290   1.541 -1.0728  3.1455 -1.2597
  136MOL0     H18758   7.929   1.385   1.319 -0.1224  0.3264 -2.0306
  136MOL0     H18759   7.759   1.399   1.351  1.0038  1.3720  0.9243
  136MOL0     H18760   7.825   1.370   1.131 -0.0136 -1.0244 -1.5519
  136MOL0     H18761   7.851   1.206   1.147  3.5484  2.1765  0.3943
  136MOL0     H18762   7.576   1.327   1.229 -0.3098  0.5487 -1.8695
  136MOL0     H18763   7.633   1.154   1.238  1.8221 -1.5171 -1.1324
  136MOL0     H18764   7.489   1.203   0.853  0.5481  2.3503 -0.5742
  136MOL0     H18765   8.034   0.905   1.353  2.0311 -0.4858 -0.6779
  136MOL0     H18766   8.342   0.786   1.362 -0.2422 -0.7236  0.1289
  136MOL0     H18767   8.195   0.777   1.258  1.1286 -1.3316 -0.2193
  136MOL0     H18768   8.351   0.841   1.200 -1.1406 -0.6089 -1.7603
  137MOL0     O18769   4.742   2.622  11.329 -0.2270  0.6779 -0.4059
  137MOL0     C18770   4.631   2.673  11.311  0.3223  0.5649 -1.1515
  137MOL0     O18771   4.526   2.614  11.251 -0.1736 -0.7098  0.1326
  137MOL0     C18772   4.561   2.497  11.191  0.2435  0.3550  0.6053
  137MOL0     C18773   4.548   2.370  11.242 -0.1394  0.4348 -0.3513
  137MOL0     C18774   4.575   2.248  11.171  0.9171 -0.7579  0.4281
  137MOL0     C18775   4.623   2.256  11.038  0.4274  0.2918  0.4267
  137MOL0     O18776   4.687   2.140  10.982  0.1167  0.9585 -0.2250
  137MOL0     C18777   4.696   2.133  10.844 -0.2206  0.2485 -0.1961
  137MOL0     C18778   4.757   2.005  10.793 -0.2761  0.5132  0.0208
  137MOL0     C18779   4.761   2.002  10.637 -0.7769  0.8580  0.1543
  137MOL0     C18780   4.874   1.906  10.585 -0.1672 -1.1534 -0.3127
  137MOL0     C18781   4.846   1.853  10.444  0.3170 -0.2164  0.2434
  137MOL0     C18782   4.890   1.947  10.342 -0.1362 -0.1783  0.0742
  137MOL0     C18783   4.888   1.913  10.195  0.2150 -0.4202 -0.4006
  137MOL0     C18784   4.896   2.028  10.098 -0.0861  0.3725  0.8386
  137MOL0     N18785   4.979   2.001   9.984 -0.5260  0.4609  1.2285
  137MOL0     C18786   4.973   1.883   9.913 -0.4461 -0.5617 -0.6618
  137MOL0     C18787   5.083   1.885   9.829 -0.6363 -0.0292  0.2593
  137MOL0     C18788   5.116   1.785   9.725 -0.2932  0.0325  0.2743
  137MOL0     C18789   5.006   1.711   9.657 -0.4251 -0.6045  0.9712
  137MOL0     C18790   5.056   1.676   9.511 -0.7329  0.0859 -0.6693
  137MOL0     C18791   5.185   1.579   9.514  0.2311 -1.1306  0.2225
  137MOL0     O18792   5.159   1.461   9.606  1.4252  0.1931  0.4957
  137MOL0     C18793   5.249   1.364   9.630  0.1471  0.0752  1.2431
  137MOL0     C18794   5.381   1.355   9.585 -0.3079 -0.3786 -0.6466
  137MOL0     C18795   5.467   1.251   9.631  0.3161  0.8453  0.2344
  137MOL0     C18796   5.609   1.241   9.574  0.3187  0.2158 -0.1974
  137MOL0     C18797   5.427   1.155   9.735 -0.6649 -0.4081  0.3128
  137MOL0     C18798   5.512   1.057   9.798 -0.4250  0.2968 -0.6594
  137MOL0     O18799   5.644   1.077   9.789 -0.1971  0.0045 -0.0522
  137MOL0     C18800   5.732   0.994   9.848  0.4429  0.5316  1.1014
  137MOL0     C18801   5.812   0.922   9.770 -0.7217 -0.1706 -0.4188
  137MOL0     C18802   5.908   0.838   9.832 -0.2028  0.6044 -0.8627
  137MOL0     C18803   5.912   0.839   9.978 -0.5884 -0.6520  0.9061
  137MOL0     O18804   5.996   0.757  10.047 -0.0529  0.0059 -0.2128
  137MOL0     C18805   6.132   0.783  10.019 -0.6167  0.0949 -0.3933
  137MOL0     C18806   6.215   0.646  10.000  0.3686 -0.2230 -0.2097
  137MOL0     C18807   6.186   0.591   9.861 -0.0084 -0.0062 -0.3498
  137MOL0     C18808   6.068   0.498   9.848 -0.2033 -0.2915  0.2338
  137MOL0     C18809   6.049   0.448   9.695  0.3530  0.4605 -1.4268
  137MOL0     C18810   5.982   0.302   9.697  0.3440 -0.9099  0.2474
  137MOL0     C18811   5.968   0.248   9.553 -0.3051 -0.1412 -0.6369
  137MOL0     C18812   5.833   0.297   9.497  0.0524  0.3209 -0.1229
  137MOL0    Cl18813   5.852   0.331   9.325  0.5104  0.6195  0.3419
  137MOL0     C18814   5.825   0.916  10.046 -0.5630 -0.9354  0.2820
  137MOL0     C18815   5.731   0.992   9.984  0.6689  0.0084 -0.0922
  137MOL0     O18816   5.454   0.972   9.865 -0.0769  0.0760  0.5851
  137MOL0     C18817   5.293   1.175   9.785 -1.2633 -0.0543  0.2048
  137MOL0     C18818   5.217   1.273   9.732 -0.1165 -0.5456  1.0491
  137MOL0     N18819   5.152   2.001   9.852 -0.2764  0.9060 -0.1999
  137MOL0     N18820   5.093   2.065   9.945 -0.3369 -0.6368 -0.3306
  137MOL0     C18821   4.639   2.382  10.990 -0.4803  0.5190 -0.0309
  137MOL0     C18822   4.603   2.505  11.062  1.1202  0.1995  0.6714
  137MOL0     C18823   4.606   2.814  11.364 -0.0518 -0.1118  0.2427
  137MOL0     C18824   4.687   2.870  11.458  0.8483 -0.2451 -0.9467
  137MOL0     C18825   4.662   2.994  11.518  0.1123 -0.3301 -0.6655
  137MOL0     C18826   4.559   3.079  11.478 -0.3715 -0.4254  0.7734
  137MOL0     O18827   4.538   3.188  11.551  0.4358 -0.4744  0.1173
  137MOL0     C18828   4.410   3.256  11.530 -0.2086 -0.3159 -0.0788
  137MOL0     C18829   4.405   3.372  11.621  0.4385 -0.3728 -0.0740
  137MOL0     C18830   4.370   3.343  11.769  0.5146  0.8039 -0.8294
  137MOL0     C18831   4.418   3.457  11.866  0.1122 -0.5695 -0.2279
  137MOL0     C18832   4.315   3.559  11.856  0.3896  0.5685  0.0938
  137MOL0     C18833   4.238   3.653  11.855  0.1189 -0.0181 -0.6690
  137MOL0     C18834   4.489   3.031  11.367  0.3294 -0.1978  0.0565
  137MOL0     C18835   4.512   2.906  11.309  0.1707  0.4931 -0.0286
  137MOL0     C18836   4.423   2.889  11.184 -0.0798  0.1886 -0.2065
  137MOL0     H18837   4.513   2.354  11.344 -0.6585 -0.1687 -0.6215
  137MOL0     H18838   4.564   2.151  11.219  2.5910 -0.3112  1.7969
  137MOL0     H18839   4.752   2.218  10.804  0.2292  0.7085  1.3395
  137MOL0     H18840   4.593   2.144  10.810  0.0304 -0.4545 -1.2031
  137MOL0     H18841   4.859   1.994  10.830  0.0622  0.9686 -0.7436
  137MOL0     H18842   4.701   1.923  10.839 -0.9684  0.4717 -0.8682
  137MOL0     H18843   4.664   1.979  10.591 -1.2008 -1.8282  2.1485
  137MOL0     H18844   4.777   2.104  10.601  2.2479  0.5638  0.4191
  137MOL0     H18845   4.959   1.974  10.591 -1.1181 -0.0430  1.5602
  137MOL0     H18846   4.884   1.823  10.656 -1.7997  0.0280  1.4194
  137MOL0     H18847   4.743   1.827  10.420  0.5275  0.6638 -1.9130
  137MOL0     H18848   4.909   1.764  10.438 -0.7149 -0.9064 -0.5423
  137MOL0     H18849   4.829   2.037  10.352  1.0049  0.3826  2.7982
  137MOL0     H18850   4.995   1.966  10.368  0.4052 -2.3439 -0.3154
  137MOL0     H18851   4.790   1.872  10.171 -1.1481  1.9530  0.7811
  137MOL0     H18852   4.962   1.836  10.172  2.4172  1.8530 -1.4397
  137MOL0     H18853   4.795   2.043  10.059 -0.3154 -2.0559  0.3303
  137MOL0     H18854   4.931   2.121  10.143  0.2692  1.6111 -1.7748
  137MOL0     H18855   4.897   1.806   9.910 -1.7268  0.6778 -0.9565
  137MOL0     H18856   5.186   1.714   9.770 -0.3820  1.0401  2.0997
  137MOL0     H18857   5.156   1.841   9.640 -0.9518 -0.6866 -0.5089
  137MOL0     H18858   4.968   1.629   9.719  2.1706 -2.2307  0.5766
  137MOL0     H18859   4.919   1.775   9.647 -0.2826 -0.0350  2.8592
  137MOL0     H18860   4.980   1.631   9.447  0.7408  0.4494 -2.7864
  137MOL0     H18861   5.085   1.759   9.445 -0.5490 -1.9291 -3.2726
  137MOL0     H18862   5.210   1.548   9.412  0.6165  3.1234 -1.1497
  137MOL0     H18863   5.272   1.632   9.552 -0.1379  0.4465 -1.0410
  137MOL0     H18864   5.425   1.417   9.507  2.7624 -0.5848  0.7737
  137MOL0     H18865   5.632   1.136   9.557  1.8081  0.8190 -2.4379
  137MOL0     H18866   5.682   1.290   9.639  1.1125 -1.0316 -0.1324
  137MOL0     H18867   5.617   1.285   9.474  0.3541 -0.6369 -0.5749
  137MOL0     H18868   5.790   0.941   9.666  1.3749 -2.5777 -1.4097
  137MOL0     H18869   5.975   0.769   9.781  0.6132 -2.4410  3.7735
  137MOL0     H18870   6.154   0.838   9.928  0.8179 -2.3494 -1.6341
  137MOL0     H18871   6.161   0.829  10.114 -2.6680  0.5997  0.0295
  137MOL0     H18872   6.323   0.662  10.008  0.3554 -0.4495  0.4794
  137MOL0     H18873   6.188   0.569  10.073  0.8322  1.2402  1.5607
  137MOL0     H18874   6.278   0.536   9.841  0.7409  0.8185  0.6786
  137MOL0     H18875   6.179   0.673   9.788  1.8355  0.4539 -0.0562
  137MOL0     H18876   5.977   0.548   9.884 -0.2797 -1.3243  1.5444
  137MOL0     H18877   6.093   0.410   9.908 -2.4896 -2.2841 -1.5218
  137MOL0     H18878   5.983   0.520   9.645 -2.9587 -2.7154 -2.0732
  137MOL0     H18879   6.137   0.456   9.631 -0.4316  1.9023 -2.3909
  137MOL0     H18880   5.880   0.314   9.736  0.8088  0.0587  1.2185
  137MOL0     H18881   6.044   0.235   9.757  1.4975 -2.0944 -2.1272
  137MOL0     H18882   5.975   0.139   9.556  1.4334 -0.0678 -0.9177
  137MOL0     H18883   6.058   0.292   9.508  0.7528  0.2792  1.7463
  137MOL0     H18884   5.802   0.388   9.549 -2.3486 -1.3298  1.5596
  137MOL0     H18885   5.749   0.230   9.517 -2.0074  3.1931  1.3743
  137MOL0     H18886   5.843   0.917  10.153  1.3460  2.9942  0.0802
  137MOL0     H18887   5.651   1.041  10.038  0.8840  0.9256 -0.5835
  137MOL0     H18888   5.250   1.108   9.858 -1.7636  0.7914  0.6991
  137MOL0     H18889   5.116   1.288   9.769  0.2730  0.4676  1.7480
  137MOL0     H18890   4.667   2.391  10.886 -0.4061 -1.0433 -0.1650
  137MOL0     H18891   4.590   2.599  11.009 -0.0248  0.3760  1.2461
  137MOL0     H18892   4.766   2.814  11.508  0.2849  0.6686  1.0730
  137MOL0     H18893   4.713   3.044  11.599 -0.9746  1.3197 -0.9346
  137MOL0     H18894   4.397   3.286  11.426 -0.9790  3.2532  0.8848
  137MOL0     H18895   4.325   3.190  11.552 -1.3850  1.0948 -0.2269
  137MOL0     H18896   4.328   3.441  11.587 -1.7444 -0.6362  3.7573
  137MOL0     H18897   4.499   3.426  11.604 -0.6258  0.9883 -1.9791
  137MOL0     H18898   4.261   3.333  11.780  0.5253  0.9988 -0.5452
  137MOL0     H18899   4.418   3.250  11.802  0.3551  1.3846  1.1678
  137MOL0     H18900   4.518   3.490  11.837 -0.4794  0.1258 -1.5735
  137MOL0     H18901   4.413   3.410  11.965 -1.7438  1.7241  0.8684
  137MOL0     H18902   4.176   3.741  11.852  0.9501  0.5922 -0.1890
  137MOL0     H18903   4.410   3.095  11.330  0.0402 -1.0746 -0.8689
  137MOL0     H18904   4.331   2.840  11.215  1.0941 -1.2309  1.2223
  137MOL0     H18905   4.387   2.983  11.140  1.0060  1.1003  0.7839
  137MOL0     H18906   4.477   2.826  11.113  0.5320  0.8584 -0.3523
  138MOL0     O18907  11.018   9.269   4.462  0.2526 -0.2303  0.0102
  138MOL0     C18908  11.081   9.179   4.515  0.1553  0.1965 -0.3384
  138MOL0     O18909  11.214   9.177   4.542 -0.2233 -1.2479  0.3641
  138MOL0     C18910  11.285   9.295   4.529 -0.1450 -0.7813  0.3902
  138MOL0     C18911  11.408   9.306   4.456 -0.6732 -0.4224 -0.8954
  138MOL0     C18912  11.481   9.426   4.449  0.6193  0.1527 -1.2483
  138MOL0     C18913  11.446   9.531   4.537 -0.2790  0.4765  0.1274
  138MOL0     O18914  11.495   9.653   4.519  0.3901  0.3641  0.6572
  138MOL0     C18915  11.576   9.698   4.628 -0.7768 -1.8106  0.1843
  138MOL0     C18916  11.582   9.856   4.616 -0.2384  0.0575  0.0705
  138MOL0     C18917  11.454   9.926   4.561  0.2288  0.6608 -0.6066
  138MOL0     C18918  11.345   9.944   4.662  1.7409  1.0400  0.5179
  138MOL0     C18919  11.212   9.990   4.609  0.4037  0.8256  0.5455
  138MOL0     C18920  11.187  10.138   4.651  0.7517  0.0405 -0.3100
  138MOL0     C18921  11.061  10.197   4.605  0.0205  0.5341 -1.3103
  138MOL0     C18922  11.048  10.203   4.453 -0.6931 -0.5861 -0.5402
  138MOL0     N18923  10.946  10.312   4.417  0.1226  0.6773  0.0208
  138MOL0     C18924  10.819  10.312   4.452  0.5929 -0.3014  0.9388
  138MOL0     C18925  10.779  10.425   4.395 -0.1737 -0.0338 -0.7580
  138MOL0     C18926  10.644  10.478   4.417 -0.0461  0.2558  1.0698
  138MOL0     C18927  10.666  10.616   4.480  0.7547 -0.4710  0.4617
  138MOL0     C18928  10.734  10.624   4.615  0.4905  0.2542  0.2939
  138MOL0     C18929  10.648  10.561   4.729 -0.4785 -0.0904 -0.2388
  138MOL0     O18930  10.674  10.419   4.726 -0.1371 -0.2410 -0.0195
  138MOL0     C18931  10.568  10.335   4.761 -0.7608 -0.3772 -0.0768
  138MOL0     C18932  10.450  10.373   4.813 -0.2508 -0.4054  0.2550
  138MOL0     C18933  10.361  10.281   4.859 -0.8472 -0.1080 -0.7200
  138MOL0     C18934  10.228  10.333   4.916 -0.3845  0.2177  0.8196
  138MOL0     C18935  10.393  10.140   4.850  0.8207  0.5492 -0.3212
  138MOL0     C18936  10.311  10.026   4.906  0.4703 -0.3225  0.4540
  138MOL0     O18937  10.225  10.060   5.003  0.6985  0.7073  0.3092
  138MOL0     C18938  10.160   9.963   5.071 -0.0124  0.4781  0.8071
  138MOL0     C18939  10.224   9.915   5.186 -0.0603  0.0698 -0.0485
  138MOL0     C18940  10.162   9.808   5.258 -0.2012  0.0782 -0.3048
  138MOL0     C18941  10.041   9.742   5.215 -0.2287  0.4635 -0.3137
  138MOL0     O18942  10.015   9.633   5.291  0.5068 -0.0557  0.5959
  138MOL0     C18943   9.882   9.569   5.253  0.7038 -0.2488 -0.9651
  138MOL0     C18944   9.878   9.449   5.347 -0.0871  0.6905  0.1663
  138MOL0     C18945   9.991   9.351   5.317 -0.6611 -0.0364  0.2696
  138MOL0     C18946   9.933   9.212   5.276 -0.4134  0.1274  0.4876
  138MOL0     C18947  10.048   9.106   5.260  0.6945 -0.0560  0.7002
  138MOL0     C18948  10.007   8.981   5.181  0.4224 -0.2406 -0.6781
  138MOL0     C18949  10.120   8.880   5.166  0.3845 -0.8931  0.2443
  138MOL0     C18950  10.066   8.755   5.106  0.3392 -0.1887 -0.2295
  138MOL0    Cl18951   9.991   8.630   5.211  0.0227 -0.0401  0.0834
  138MOL0     C18952   9.975   9.799   5.103 -0.7070 -0.2379 -0.5887
  138MOL0     C18953  10.038   9.907   5.022 -0.2509 -0.0458 -1.3282
  138MOL0     O18954  10.342   9.911   4.872 -0.3577 -0.8079 -0.3294
  138MOL0     C18955  10.519  10.106   4.802 -0.1634 -0.2589 -0.3693
  138MOL0     C18956  10.606  10.205   4.768 -1.0759 -0.5432 -0.0048
  138MOL0     N18957  10.876  10.475   4.302 -0.7364 -0.2286  0.1046
  138MOL0     N18958  10.975  10.395   4.316 -0.1260 -0.4667 -0.5697
  138MOL0     C18959  11.329   9.516   4.617 -0.4824  0.2893 -0.5239
  138MOL0     C18960  11.254   9.394   4.615 -0.2713 -0.5800 -0.3483
  138MOL0     C18961  11.015   9.061   4.577 -0.1804  0.1171 -0.2537
  138MOL0     C18962  11.080   8.993   4.686 -0.3931 -0.2186 -0.1740
  138MOL0     C18963  11.018   8.896   4.758 -0.5105  0.3999 -0.2103
  138MOL0     C18964  10.887   8.871   4.734 -0.0123  0.3502 -1.6083
  138MOL0     O18965  10.828   8.759   4.795 -0.7070 -0.0721  0.2288
  138MOL0     C18966  10.902   8.650   4.851 -0.9702 -0.2786  0.4434
  138MOL0     C18967  10.829   8.530   4.894  1.1200  0.2430 -0.2819
  138MOL0     C18968  10.920   8.409   4.895 -0.5165  0.2130 -0.0820
  138MOL0     C18969  10.844   8.281   4.889 -0.0427 -0.6852  0.4938
  138MOL0     C18970  10.921   8.151   4.885  0.1117 -0.6143 -0.3032
  138MOL0     C18971  10.968   8.040   4.888  0.0693  0.1333  0.5909
  138MOL0     C18972  10.816   8.927   4.629 -0.5230 -0.5062  0.4431
  138MOL0     C18973  10.884   9.017   4.546  0.6441  0.1422  0.4798
  138MOL0     C18974  10.831   9.058   4.408 -0.1841  0.0316 -0.0253
  138MOL0     H18975  11.432   9.216   4.400  0.7280 -0.2521 -0.5853
  138MOL0     H18976  11.559   9.425   4.373  0.4118 -0.3081 -1.4595
  138MOL0     H18977  11.677   9.657   4.629  0.2674  0.5159 -1.5818
  138MOL0     H18978  11.533   9.675   4.726  1.7298 -1.5028  1.4469
  138MOL0     H18979  11.601   9.881   4.721 -0.6395  1.8069 -0.2445
  138MOL0     H18980  11.661   9.874   4.542 -0.3907  0.2861 -0.0384
  138MOL0     H18981  11.488  10.025   4.530 -1.1713  0.8417 -1.6869
  138MOL0     H18982  11.425   9.874   4.469  1.6840  1.9397 -1.8535
  138MOL0     H18983  11.331   9.842   4.699 -0.8448  1.0289 -0.2910
  138MOL0     H18984  11.366  10.002   4.752  0.2082 -0.9569  2.2610
  138MOL0     H18985  11.132   9.928   4.651 -1.1172 -0.4946 -3.7519
  138MOL0     H18986  11.216   9.976   4.501  4.1403 -0.8648  0.7313
  138MOL0     H18987  11.176  10.136   4.760 -2.2740 -1.8586 -0.5409
  138MOL0     H18988  11.277  10.200   4.639  1.7782 -1.2726  0.3210
  138MOL0     H18989  11.061  10.301   4.639 -3.2137  0.0883  0.4400
  138MOL0     H18990  10.975  10.146   4.648  1.5571  0.4976  2.0288
  138MOL0     H18991  11.147  10.244   4.432 -0.7565  1.0912  1.9427
  138MOL0     H18992  11.021  10.111   4.401 -2.5162  0.8701 -2.3224
  138MOL0     H18993  10.752  10.248   4.510 -2.7963  0.6955 -1.5230
  138MOL0     H18994  10.585  10.419   4.487 -2.3116  1.1334 -0.0079
  138MOL0     H18995  10.589  10.488   4.324  0.0151  0.1093  1.0191
  138MOL0     H18996  10.729  10.679   4.417 -0.2625 -0.8332 -0.9700
  138MOL0     H18997  10.570  10.668   4.484  0.0412 -1.8265  1.6094
  138MOL0     H18998  10.836  10.583   4.620 -0.2887 -1.9054 -0.4447
  138MOL0     H18999  10.733  10.730   4.644 -0.8215  0.1448  0.6962
  138MOL0     H19000  10.683  10.601   4.825 -2.4579  3.3139 -0.7596
  138MOL0     H19001  10.542  10.580   4.713 -0.2235 -0.0858 -2.1704
  138MOL0     H19002  10.416  10.473   4.841 -0.7433 -1.6002  4.7081
  138MOL0     H19003  10.250  10.361   5.019  0.6781  2.5870  0.0271
  138MOL0     H19004  10.147  10.260   4.901 -1.4778  1.3714  0.9674
  138MOL0     H19005  10.204  10.419   4.853  3.6285 -0.4165 -1.9290
  138MOL0     H19006  10.316   9.956   5.224  0.5452  1.0243 -2.3430
  138MOL0     H19007  10.226   9.774   5.338 -0.4170 -2.6047 -1.1886
  138MOL0     H19008   9.806   9.646   5.268  2.0446  1.2177 -1.5380
  138MOL0     H19009   9.870   9.541   5.148  0.5266  0.0567 -1.0265
  138MOL0     H19010   9.876   9.487   5.449 -3.5578  1.4770 -0.0662
  138MOL0     H19011   9.780   9.403   5.331 -0.2296  0.0764  2.4760
  138MOL0     H19012  10.065   9.342   5.397  0.4934 -1.6448 -0.9273
  138MOL0     H19013  10.043   9.392   5.230 -1.5903  1.8796  0.5439
  138MOL0     H19014   9.876   9.225   5.184 -0.9031  0.4834  0.8355
  138MOL0     H19015   9.858   9.174   5.347 -1.3488 -1.9489 -1.4897
  138MOL0     H19016  10.143   9.148   5.228  0.8542  1.5719  3.0672
  138MOL0     H19017  10.076   9.070   5.360 -1.1761  0.4271  1.4370
  138MOL0     H19018   9.947   9.009   5.094 -0.1334  0.1669 -0.1733
  138MOL0     H19019   9.935   8.941   5.252 -0.2073  1.3617 -0.3643
  138MOL0     H19020  10.155   8.861   5.268 -0.5026  0.2236  0.7739
  138MOL0     H19021  10.191   8.923   5.095  0.5083 -2.1991 -0.4655
  138MOL0     H19022  10.153   8.705   5.062  0.4853 -0.6022  0.5173
  138MOL0     H19023   9.996   8.790   5.030  0.9911  0.2057 -0.6661
  138MOL0     H19024   9.878   9.770   5.063 -2.1091  2.1887  0.8414
  138MOL0     H19025  10.003   9.950   4.929 -2.7138 -0.5059 -0.6847
  138MOL0     H19026  10.555  10.004   4.811  1.2654  0.1538 -0.9922
  138MOL0     H19027  10.712  10.185   4.756 -0.1687  2.3019  2.1784
  138MOL0     H19028  11.311   9.596   4.688 -1.1369  0.4892 -0.9118
  138MOL0     H19029  11.173   9.390   4.688 -2.6078  2.5318 -2.4665
  138MOL0     H19030  11.181   9.020   4.716 -1.2656  1.3086  1.5825
  138MOL0     H19031  11.065   8.842   4.840  1.8088  0.7956 -1.1864
  138MOL0     H19032  10.980   8.636   4.775 -2.0157  1.0901 -0.9553
  138MOL0     H19033  10.947   8.677   4.947 -0.8104  2.7633 -0.3686
  138MOL0     H19034  10.759   8.510   4.813  1.4004  1.6532 -0.8995
  138MOL0     H19035  10.773   8.546   4.987 -0.3199 -2.6242 -0.5453
  138MOL0     H19036  10.991   8.409   4.812 -0.7981 -1.4067 -0.3496
  138MOL0     H19037  10.986   8.421   4.982  1.7878 -0.2022 -1.6747
  138MOL0     H19038  10.784   8.275   4.797 -1.2630 -1.3828  1.3093
  138MOL0     H19039  10.775   8.294   4.973 -0.0586  4.3148 -0.0359
  138MOL0     H19040  10.992   7.938   4.909 -0.8412 -0.4766 -1.0717
  138MOL0     H19041  10.717   8.895   4.598 -0.2347 -0.6725 -0.3271
  138MOL0     H19042  10.785   9.157   4.409 -0.8787 -0.2535 -1.2902
  138MOL0     H19043  10.904   9.063   4.327 -0.9346 -0.0485 -0.7261
  138MOL0     H19044  10.757   8.985   4.374  0.1088 -0.4982  0.4395
  139MOL0     O19045  10.773   8.918   3.696 -0.6430 -0.1023  0.6505
  139MOL0     C19046  10.713   8.915   3.587  0.7550 -0.2573 -1.1323
  139MOL0     O19047  10.700   8.802   3.510  0.2572  0.8804  0.7795
  139MOL0     C19048  10.766   8.683   3.539 -0.4293  0.3936  0.9904
  139MOL0     C19049  10.775   8.616   3.663  0.3247 -0.6117 -0.8407
  139MOL0     C19050  10.837   8.494   3.673  0.2041  0.5313  1.0684
  139MOL0     C19051  10.894   8.443   3.556 -1.0666  0.6876 -0.4772
  139MOL0     O19052  10.958   8.317   3.560  0.2720  0.8238  0.4003
  139MOL0     C19053  10.939   8.223   3.667 -0.3864 -0.4130  0.6445
  139MOL0     C19054  11.025   8.104   3.635 -0.7634  0.2159 -0.4034
  139MOL0     C19055  10.957   8.026   3.520 -0.2212 -0.0421 -0.4014
  139MOL0     C19056  10.856   7.923   3.572 -0.4914  0.2987  0.0141
  139MOL0     C19057  10.786   7.837   3.467 -0.4363  0.5354 -0.1050
  139MOL0     C19058  10.655   7.920   3.439 -0.1299 -0.1438  0.4990
  139MOL0     C19059  10.530   7.825   3.415 -0.4705 -0.3865 -0.0892
  139MOL0     C19060  10.424   7.838   3.525 -0.2408  0.4576 -0.6913
  139MOL0     N19061  10.330   7.731   3.513 -0.0344 -0.0677 -0.5696
  139MOL0     C19062  10.235   7.709   3.411  0.3344  0.5156 -0.4121
  139MOL0     C19063  10.153   7.615   3.451  0.1637 -0.0651  0.8322
  139MOL0     C19064  10.041   7.555   3.372 -0.6949 -0.1352 -1.0824
  139MOL0     C19065  10.087   7.499   3.235 -0.3098  0.8600  0.0457
  139MOL0     C19066  10.189   7.386   3.245 -0.8183  0.2408 -0.2792
  139MOL0     C19067  10.342   7.418   3.286 -0.0895  0.5198 -0.2017
  139MOL0     O19068  10.398   7.525   3.213 -0.8802 -1.0637  0.6866
  139MOL0     C19069  10.411   7.535   3.071 -0.3940  0.6391  1.1723
  139MOL0     C19070  10.430   7.418   2.993 -0.6437  0.0075  0.6652
  139MOL0     C19071  10.448   7.422   2.854  0.2321  0.2019 -0.0706
  139MOL0     C19072  10.486   7.295   2.775 -0.4997  0.2548 -0.6382
  139MOL0     C19073  10.413   7.540   2.784  0.0648  0.2051 -0.5395
  139MOL0     C19074  10.386   7.536   2.630 -0.9052 -0.3781 -1.3186
  139MOL0     O19075  10.454   7.631   2.573  0.0160  1.0507  0.2520
  139MOL0     C19076  10.429   7.667   2.441  0.1728  0.4396  1.2275
  139MOL0     C19077  10.375   7.795   2.434  0.3187 -0.0647 -0.1134
  139MOL0     C19078  10.342   7.850   2.313  0.4531 -0.1473 -0.7299
  139MOL0     C19079  10.347   7.779   2.195 -0.0587 -0.2886  0.2349
  139MOL0     O19080  10.319   7.854   2.082  0.4439 -0.0133  0.3147
  139MOL0     C19081  10.345   7.792   1.957  0.4623 -0.2569  0.0975
  139MOL0     C19082  10.322   7.881   1.844  0.3253 -0.4349 -0.1005
  139MOL0     C19083  10.182   7.915   1.825 -1.2978  0.0791 -0.5007
  139MOL0     C19084  10.168   7.991   1.702 -0.3136  0.1343 -0.0116
  139MOL0     C19085  10.023   8.027   1.695 -0.8353  0.4043 -0.6962
  139MOL0     C19086   9.992   8.074   1.548  0.3053  0.4325  0.0296
  139MOL0     C19087   9.848   8.089   1.497 -0.2772  0.8528  0.5945
  139MOL0     C19088   9.839   8.102   1.344  1.2083 -0.6649  0.0035
  139MOL0    Cl19089   9.874   7.945   1.275  0.1388 -0.2143  0.4151
  139MOL0     C19090  10.392   7.641   2.206 -0.6461 -0.3510  0.2560
  139MOL0     C19091  10.434   7.584   2.328 -0.3139  0.4233  0.6298
  139MOL0     O19092  10.306   7.466   2.581  0.2421  1.1008  0.0036
  139MOL0     C19093  10.398   7.664   2.854  0.1761 -0.1680 -0.9074
  139MOL0     C19094  10.392   7.660   3.001 -0.1999  0.6163  0.7541
  139MOL0     N19095  10.193   7.585   3.576  0.3862 -0.3345 -0.3208
  139MOL0     N19096  10.306   7.645   3.613  0.5240  0.7886 -0.4876
  139MOL0     C19097  10.872   8.506   3.432  0.7478  0.4334  0.1205
  139MOL0     C19098  10.807   8.628   3.423  0.0377 -0.1478  1.6498
  139MOL0     C19099  10.655   9.042   3.537  0.6227  0.1752 -0.3889
  139MOL0     C19100  10.626   9.050   3.403 -0.6611 -0.2674  0.2711
  139MOL0     C19101  10.550   9.146   3.352 -0.1132  0.6621 -0.1307
  139MOL0     C19102  10.511   9.258   3.418 -0.1076 -0.2300 -1.2676
  139MOL0     O19103  10.431   9.351   3.350 -0.1600  0.4325  0.0978
  139MOL0     C19104  10.394   9.472   3.419 -1.4138 -0.6740 -0.3742
  139MOL0     C19105  10.346   9.584   3.333  0.9466 -0.0402 -0.7297
  139MOL0     C19106  10.449   9.680   3.267 -0.1540 -0.0943 -0.3978
  139MOL0     C19107  10.399   9.766   3.141  0.4294  0.1370  0.3508
  139MOL0     C19108  10.300   9.862   3.178  0.7477  0.9735 -0.5082
  139MOL0     C19109  10.215   9.939   3.211  0.3174  0.0065 -0.2637
  139MOL0     C19110  10.558   9.266   3.555 -0.6627  0.0627  0.5723
  139MOL0     C19111  10.622   9.158   3.615  0.3225  0.4210  0.9489
  139MOL0     C19112  10.642   9.169   3.761  0.0031  0.3374 -0.6296
  139MOL0     H19113  10.735   8.673   3.746  1.6146 -1.4271  0.3754
  139MOL0     H19114  10.852   8.453   3.772 -2.6419  0.0039  1.3530
  139MOL0     H19115  10.833   8.195   3.670 -0.4844 -0.4297 -1.6330
  139MOL0     H19116  10.988   8.261   3.758  2.0853  0.1313 -0.8202
  139MOL0     H19117  11.127   8.140   3.619  1.0646 -4.8589 -2.0855
  139MOL0     H19118  11.023   8.040   3.724 -0.2912 -1.1273 -1.3282
  139MOL0     H19119  10.919   8.101   3.451  2.7859  3.0722  1.0400
  139MOL0     H19120  11.041   7.976   3.471  1.7158  1.2555  1.3838
  139MOL0     H19121  10.905   7.842   3.626  2.0953  0.6687 -1.6315
  139MOL0     H19122  10.778   7.962   3.639 -1.0463  1.3905 -1.2156
  139MOL0     H19123  10.767   7.743   3.519 -0.1077  0.9567  0.7846
  139MOL0     H19124  10.842   7.820   3.375 -0.2426  1.1317 -0.1045
  139MOL0     H19125  10.616   7.981   3.521 -0.1733 -1.7595  1.7198
  139MOL0     H19126  10.676   7.981   3.350  2.4989 -1.5778  0.0685
  139MOL0     H19127  10.565   7.722   3.401 -3.6672 -1.4138 -1.2367
  139MOL0     H19128  10.491   7.859   3.318  4.3752  2.3358 -1.4386
  139MOL0     H19129  10.486   7.830   3.614 -1.4134  3.2453  0.4974
  139MOL0     H19130  10.376   7.936   3.533  1.6264  1.4551 -1.1413
  139MOL0     H19131  10.218   7.750   3.312 -0.3996 -1.1816 -1.0229
  139MOL0     H19132   9.961   7.629   3.363 -2.4392 -1.7705  0.1296
  139MOL0     H19133  10.009   7.467   3.429  0.2089 -1.3775 -2.4344
  139MOL0     H19134  10.000   7.457   3.183  0.8942  0.4003 -1.6933
  139MOL0     H19135  10.127   7.572   3.165 -3.3025  1.1732 -1.4887
  139MOL0     H19136  10.156   7.315   3.321 -1.2070 -0.2413 -0.8940
  139MOL0     H19137  10.192   7.326   3.154  2.8086  0.2298 -0.2971
  139MOL0     H19138  10.357   7.441   3.392 -1.1573 -0.0673  0.0958
  139MOL0     H19139  10.412   7.336   3.266  0.0916 -0.1225  2.7082
  139MOL0     H19140  10.445   7.327   3.051 -1.3079 -0.7656 -0.3377
  139MOL0     H19141  10.484   7.208   2.842 -2.4404  1.5638  1.1686
  139MOL0     H19142  10.591   7.298   2.746  0.4047 -1.8335  2.0323
  139MOL0     H19143  10.423   7.271   2.690  0.0770 -1.1797 -0.6777
  139MOL0     H19144  10.353   7.836   2.532 -0.6701 -0.6771 -0.0684
  139MOL0     H19145  10.305   7.950   2.333  2.5311  0.4596  0.4146
  139MOL0     H19146  10.448   7.756   1.950  0.7958  0.3672  1.3730
  139MOL0     H19147  10.294   7.696   1.945  2.0257 -1.1154  0.0652
  139MOL0     H19148  10.374   7.976   1.862 -0.7639  0.6315 -2.2478
  139MOL0     H19149  10.372   7.839   1.757  1.8811 -0.4772  0.7788
  139MOL0     H19150  10.141   7.969   1.911  1.4622  2.2379 -0.3904
  139MOL0     H19151  10.133   7.818   1.810  2.2295 -2.1421  1.1781
  139MOL0     H19152  10.190   7.925   1.617 -2.4104 -1.2096  0.4122
  139MOL0     H19153  10.229   8.082   1.698  1.2930 -0.8582  0.8297
  139MOL0     H19154   9.966   7.941   1.731  1.4703 -0.4375  1.1728
  139MOL0     H19155   9.988   8.106   1.761 -1.2727 -0.6879  0.4086
  139MOL0     H19156  10.017   7.986   1.488 -0.8176  0.7562 -0.9621
  139MOL0     H19157  10.065   8.155   1.531  1.0525  0.0263  1.1728
  139MOL0     H19158   9.805   8.181   1.537 -0.2601  1.7937 -1.4385
  139MOL0     H19159   9.783   8.008   1.530 -2.2275  2.0663 -0.1013
  139MOL0     H19160   9.903   8.186   1.315 -0.2377  0.6751  0.5368
  139MOL0     H19161   9.732   8.114   1.323  0.6486 -1.1419  2.3247
  139MOL0     H19162  10.417   7.574   2.124  2.0269 -1.3255  1.7381
  139MOL0     H19163  10.462   7.480   2.342 -1.1131  0.3157  1.5632
  139MOL0     H19164  10.370   7.759   2.809  0.3081  0.1359 -0.3606
  139MOL0     H19165  10.361   7.744   3.061 -3.1615  0.9654 -1.1053
  139MOL0     H19166  10.889   8.443   3.346  2.3591 -0.5869  1.1215
  139MOL0     H19167  10.795   8.671   3.324  1.8626 -1.7650  0.6379
  139MOL0     H19168  10.666   8.971   3.340 -0.1075  0.4494 -0.2891
  139MOL0     H19169  10.536   9.145   3.244  0.0674  0.2436 -0.1523
  139MOL0     H19170  10.310   9.442   3.482 -2.3603  1.2339 -0.6505
  139MOL0     H19171  10.472   9.516   3.482 -1.6394 -0.0082 -0.5518
  139MOL0     H19172  10.274   9.643   3.390 -0.2596 -2.3920  0.3045
  139MOL0     H19173  10.288   9.536   3.253  2.8303 -1.7998 -1.1410
  139MOL0     H19174  10.475   9.752   3.345 -0.4846  0.2138 -0.5704
  139MOL0     H19175  10.536   9.634   3.221 -1.6209 -0.7816 -2.6709
  139MOL0     H19176  10.358   9.694   3.069  1.6753 -1.0580  0.7953
  139MOL0     H19177  10.486   9.817   3.097  0.2343  0.0501 -0.1483
  139MOL0     H19178  10.149  10.017   3.243  1.1046  0.1623  1.0743
  139MOL0     H19179  10.516   9.345   3.616 -1.8146  0.3303 -0.5201
  139MOL0     H19180  10.569   9.234   3.812 -1.1264 -2.4241  1.5817
  139MOL0     H19181  10.642   9.075   3.817  0.4661  0.1997 -0.8598
  139MOL0     H19182  10.745   9.204   3.773  0.0384 -0.4323  1.8595
  140MOL0     O19183   6.354   2.495   7.524  0.4512  0.3877  0.8504
  140MOL0     C19184   6.436   2.579   7.486  0.8162  0.1879 -0.7850
  140MOL0     O19185   6.518   2.565   7.374 -0.4814 -0.0551  0.4673
  140MOL0     C19186   6.520   2.448   7.304  0.3138 -0.7979  0.6270
  140MOL0     C19187   6.475   2.470   7.168  0.6436 -0.0570  0.8593
  140MOL0     C19188   6.501   2.373   7.082  0.1122 -0.1392  0.3465
  140MOL0     C19189   6.555   2.246   7.125  1.3719 -0.3096  0.3773
  140MOL0     O19190   6.564   2.154   7.021  0.0927 -0.2274  0.1462
  140MOL0     C19191   6.660   2.046   7.040  0.0820 -0.6601  0.1167
  140MOL0     C19192   6.677   1.995   6.895 -0.3318 -0.1197  0.2596
  140MOL0     C19193   6.794   1.914   6.861  0.9175 -0.5969 -1.1281
  140MOL0     C19194   6.813   1.812   6.977 -0.4009  0.8100  0.0270
  140MOL0     C19195   6.915   1.698   6.940 -0.9245  0.0720  0.6000
  140MOL0     C19196   6.848   1.582   6.861 -0.4340 -0.8988  0.3735
  140MOL0     C19197   6.943   1.464   6.849 -0.3979  0.7886  0.2760
  140MOL0     C19198   6.897   1.346   6.763  0.8032 -0.7054  0.5275
  140MOL0     N19199   6.949   1.219   6.813 -0.1300  0.3818  0.2928
  140MOL0     C19200   6.911   1.154   6.933 -0.6004  0.4406  0.2258
  140MOL0     C19201   7.022   1.073   6.963  0.4546 -0.2311  0.5865
  140MOL0     C19202   7.039   1.010   7.092 -0.2366 -0.0876 -0.2956
  140MOL0     C19203   7.152   1.060   7.182 -0.6592  0.3831 -0.2040
  140MOL0     C19204   7.143   1.211   7.195  0.1012  0.3266  0.1766
  140MOL0     C19205   7.031   1.264   7.282  0.0315  0.2146  0.6178
  140MOL0     O19206   6.994   1.403   7.249 -0.0587  0.3125  0.5854
  140MOL0     C19207   6.877   1.453   7.318  0.1923  0.5388  0.5084
  140MOL0     C19208   6.843   1.585   7.296  1.1144 -0.3097 -0.3205
  140MOL0     C19209   6.738   1.640   7.368 -0.3665  0.1961  0.0870
  140MOL0     C19210   6.698   1.782   7.346  0.6149 -0.3540  0.6596
  140MOL0     C19211   6.651   1.560   7.454  0.0291 -1.1212 -0.1125
  140MOL0     C19212   6.530   1.609   7.521  0.2240 -0.6431 -0.3957
  140MOL0     O19213   6.452   1.500   7.570 -0.0305 -0.7149 -0.8503
  140MOL0     C19214   6.351   1.517   7.662 -0.3460  0.3102 -0.6172
  140MOL0     C19215   6.275   1.629   7.699 -0.5491 -0.1827 -0.6066
  140MOL0     C19216   6.151   1.613   7.763  0.2264  0.0429 -0.4876
  140MOL0     C19217   6.104   1.486   7.801 -0.4428  0.7511 -0.2385
  140MOL0     O19218   5.991   1.476   7.883  0.0160  0.3233 -0.6759
  140MOL0     C19219   6.029   1.500   8.013  0.3385 -0.2731  0.1239
  140MOL0     C19220   5.954   1.613   8.090 -0.1356 -0.1896 -0.2841
  140MOL0     C19221   5.806   1.631   8.053  0.1227  0.9988  0.0497
  140MOL0     C19222   5.732   1.703   8.167  0.1609 -0.2583 -0.4814
  140MOL0     C19223   5.588   1.715   8.122 -0.3606 -0.4482  0.8831
  140MOL0     C19224   5.507   1.809   8.216 -0.5486 -0.0457  0.9132
  140MOL0     C19225   5.356   1.801   8.177  0.1898  0.6404 -0.3203
  140MOL0     C19226   5.283   1.858   8.295  0.1736 -0.9823  0.1726
  140MOL0    Cl19227   5.105   1.800   8.287  0.0137 -0.0188 -0.4761
  140MOL0     C19228   6.184   1.374   7.777  0.6110 -0.5608 -0.6858
  140MOL0     C19229   6.303   1.390   7.698  0.4045 -0.5048 -0.0563
  140MOL0     O19230   6.485   1.725   7.513 -0.4651 -0.3609 -0.3535
  140MOL0     C19231   6.685   1.432   7.471 -0.6767  0.0117  0.7361
  140MOL0     C19232   6.794   1.375   7.408 -0.2158  0.1522  0.3087
  140MOL0     N19233   7.106   1.083   6.851  0.1868 -0.2365  1.0642
  140MOL0     N19234   7.071   1.182   6.775  0.1957 -0.4373 -0.7274
  140MOL0     C19235   6.580   2.225   7.256 -0.4799 -0.4082 -0.2371
  140MOL0     C19236   6.575   2.330   7.350  1.2326  0.0661  0.1750
  140MOL0     C19237   6.438   2.714   7.547  0.1204  0.6104  0.1606
  140MOL0     C19238   6.471   2.825   7.455  1.2207  0.9570  0.3567
  140MOL0     C19239   6.467   2.956   7.501 -1.1411 -0.2443  0.5250
  140MOL0     C19240   6.432   2.982   7.633  0.3211 -0.0971  0.2104
  140MOL0     O19241   6.433   3.112   7.684  0.2122  0.7793  0.0520
  140MOL0     C19242   6.390   3.212   7.587 -0.3632 -0.3348  0.3119
  140MOL0     C19243   6.515   3.290   7.540 -0.3247 -0.4029 -0.4780
  140MOL0     C19244   6.601   3.360   7.652 -0.3830  0.9992  1.2951
  140MOL0     C19245   6.535   3.471   7.731  0.5074 -0.2131 -0.5770
  140MOL0     C19246   6.497   3.593   7.650 -0.3797 -0.1399  0.0303
  140MOL0     C19247   6.463   3.693   7.583 -0.9236  0.3423  0.0862
  140MOL0     C19248   6.406   2.875   7.720 -0.1635 -0.1214  0.1642
  140MOL0     C19249   6.399   2.748   7.677  0.0078  0.8135  0.1824
  140MOL0     C19250   6.360   2.650   7.786 -0.6398  0.0985  0.2665
  140MOL0     H19251   6.433   2.563   7.129  0.7608 -0.4799 -0.3089
  140MOL0     H19252   6.473   2.376   6.977 -1.2477 -1.3737  0.6322
  140MOL0     H19253   6.641   1.971   7.118  1.6746 -2.0747 -0.7803
  140MOL0     H19254   6.760   2.079   7.070  0.2882 -0.5929 -0.6219
  140MOL0     H19255   6.587   1.940   6.868  0.5227 -1.2950 -0.2758
  140MOL0     H19256   6.680   2.083   6.829 -1.2825  0.7731  1.3716
  140MOL0     H19257   6.781   1.850   6.773 -1.0488 -1.8001 -0.0585
  140MOL0     H19258   6.889   1.967   6.858  1.1520 -0.8836  0.5031
  140MOL0     H19259   6.856   1.857   7.067 -2.0247  0.5165  0.9757
  140MOL0     H19260   6.718   1.768   7.008 -0.0271  0.7524  1.1685
  140MOL0     H19261   6.943   1.660   7.038 -1.1637  0.6917  0.9140
  140MOL0     H19262   6.995   1.731   6.872 -1.6963  1.9258  0.5432
  140MOL0     H19263   6.754   1.561   6.915  0.1659 -1.0624  1.3861
  140MOL0     H19264   6.822   1.615   6.760  0.1837 -0.9323  0.1989
  140MOL0     H19265   6.971   1.436   6.951  0.2938 -0.1015 -0.1410
  140MOL0     H19266   7.042   1.485   6.807 -0.3075 -1.2683 -0.7095
  140MOL0     H19267   6.788   1.339   6.771  0.7005 -1.6925 -1.2426
  140MOL0     H19268   6.935   1.371   6.664 -0.2572 -0.3251  0.2066
  140MOL0     H19269   6.826   1.177   6.997 -3.4499 -3.4537 -1.7274
  140MOL0     H19270   7.062   0.906   7.065  0.0305  0.2044 -1.2231
  140MOL0     H19271   6.944   1.001   7.147 -0.5603  0.5606 -0.7442
  140MOL0     H19272   7.156   1.014   7.281 -0.2297 -1.2216 -0.9414
  140MOL0     H19273   7.251   1.040   7.139  0.1235  0.5380  1.4319
  140MOL0     H19274   7.235   1.258   7.228  0.7784  0.9973 -2.4360
  140MOL0     H19275   7.140   1.244   7.091 -0.6868 -0.0257  0.0793
  140MOL0     H19276   6.943   1.201   7.266 -0.3127  1.3197 -2.5462
  140MOL0     H19277   7.040   1.262   7.391 -0.3660 -0.4860  0.6456
  140MOL0     H19278   6.900   1.648   7.229  2.5756  0.8031  1.8512
  140MOL0     H19279   6.617   1.787   7.272  0.7730  0.5863  0.5354
  140MOL0     H19280   6.784   1.838   7.308  0.6818 -1.8903 -1.6522
  140MOL0     H19281   6.666   1.845   7.430 -4.2284  0.5256 -1.4768
  140MOL0     H19282   6.301   1.729   7.667  3.7730 -1.5913 -2.1714
  140MOL0     H19283   6.086   1.697   7.782  0.1343 -0.2477  0.5588
  140MOL0     H19284   6.004   1.403   8.057 -3.0998 -0.2739 -1.4832
  140MOL0     H19285   6.136   1.517   8.017  0.4190  0.4042 -2.6307
  140MOL0     H19286   5.961   1.594   8.198  0.3738  1.1803 -0.0541
  140MOL0     H19287   6.008   1.706   8.067  1.0514 -1.2819 -2.1921
  140MOL0     H19288   5.755   1.536   8.032  0.7530 -0.1392  3.0438
  140MOL0     H19289   5.787   1.695   7.967 -2.7083 -0.3576 -0.4476
  140MOL0     H19290   5.777   1.802   8.176 -1.0435  0.1958  0.8377
  140MOL0     H19291   5.737   1.646   8.260  0.2888  1.4169  0.5760
  140MOL0     H19292   5.595   1.767   8.026  2.5599  0.8280  1.7005
  140MOL0     H19293   5.541   1.616   8.120  0.5706 -0.8959 -0.5615
  140MOL0     H19294   5.532   1.914   8.197  1.8251 -0.9236 -1.5386
  140MOL0     H19295   5.521   1.784   8.322 -1.4189 -0.0446  1.0298
  140MOL0     H19296   5.323   1.699   8.157 -2.1310  1.2241  0.2213
  140MOL0     H19297   5.329   1.863   8.091  0.5722 -2.1925 -2.6012
  140MOL0     H19298   5.289   1.966   8.306  5.2025 -1.1260  1.4363
  140MOL0     H19299   5.313   1.809   8.389 -3.6550  1.1914  2.8140
  140MOL0     H19300   6.160   1.275   7.815 -1.3807  0.9454  2.3112
  140MOL0     H19301   6.357   1.299   7.675 -0.2465 -1.5262  2.1795
  140MOL0     H19302   6.620   1.377   7.538 -2.6987  1.6385  0.2029
  140MOL0     H19303   6.800   1.266   7.416 -0.1888  0.1362  0.0933
  140MOL0     H19304   6.616   2.129   7.292 -0.6411 -0.4700 -0.2451
  140MOL0     H19305   6.597   2.318   7.455  0.6174  2.9046  0.7152
  140MOL0     H19306   6.516   2.801   7.359 -0.4499  1.6452 -0.6527
  140MOL0     H19307   6.501   3.034   7.434 -1.6154 -0.0871  0.4633
  140MOL0     H19308   6.336   3.173   7.500 -1.8398  3.2847 -0.5746
  140MOL0     H19309   6.308   3.271   7.630 -0.3095  1.0082 -1.3070
  140MOL0     H19310   6.480   3.371   7.474 -0.0860 -0.3831 -0.5809
  140MOL0     H19311   6.578   3.221   7.483  2.5801 -0.9001  3.0231
  140MOL0     H19312   6.645   3.288   7.722  0.0814  0.9744  0.9861
  140MOL0     H19313   6.682   3.410   7.599 -1.6162  0.7202 -0.9549
  140MOL0     H19314   6.599   3.496   7.816  1.1809 -2.0830 -0.4945
  140MOL0     H19315   6.441   3.432   7.770  0.8660  0.9046  1.5742
  140MOL0     H19316   6.427   3.767   7.516 -3.4847  0.9972  2.0417
  140MOL0     H19317   6.388   2.899   7.824 -2.8002  1.1349 -0.4803
  140MOL0     H19318   6.372   2.690   7.887 -2.7517 -1.7363  1.3472
  140MOL0     H19319   6.259   2.612   7.770 -0.8694  1.5559 -2.1076
  140MOL0     H19320   6.430   2.566   7.777 -1.6028 -0.4890 -2.6549
  141MOL0     O19321  10.605   6.680  11.378 -0.0332 -0.5941  0.0481
  141MOL0     C19322  10.484   6.660  11.360  0.0221  0.3595  0.8006
  141MOL0     O19323  10.386   6.635  11.454  0.2441  0.1115  0.9549
  141MOL0     C19324  10.444   6.603  11.572 -0.0886  1.1382 -0.0384
  141MOL0     C19325  10.442   6.698  11.676 -0.1978  0.3011  0.2684
  141MOL0     C19326  10.494   6.676  11.799  0.2536  0.1475 -0.5760
  141MOL0     C19327  10.549   6.555  11.824 -0.5297 -0.4135  0.3817
  141MOL0     O19328  10.621   6.543  11.937 -0.0790  0.3210 -0.1054
  141MOL0     C19329  10.763   6.574  11.924  0.5123  0.1254  0.6340
  141MOL0     C19330  10.863   6.492  11.999  1.1629  0.6572  0.7488
  141MOL0     C19331  10.816   6.344  12.012  0.0245  0.7880 -0.1459
  141MOL0     C19332  10.911   6.257  12.090  0.7103  0.1685  1.1445
  141MOL0     C19333  11.020   6.208  11.994  0.4923  0.4886  0.3853
  141MOL0     C19334  11.116   6.110  12.072  0.6748  0.6548 -0.1993
  141MOL0     C19335  11.247   6.179  12.115 -0.3537  0.2202 -0.0123
  141MOL0     C19336  11.311   6.111  12.237 -0.1211  0.0673 -1.1007
  141MOL0     N19337  11.415   6.011  12.194 -0.0786  0.0648 -0.0447
  141MOL0     C19338  11.549   6.026  12.206 -0.2460  0.8949  0.0408
  141MOL0     C19339  11.604   5.903  12.169 -0.3934 -0.3155 -0.8425
  141MOL0     C19340  11.750   5.866  12.175 -0.1136 -0.4679 -0.0031
  141MOL0     C19341  11.805   5.823  12.039 -0.5924 -0.6135 -0.0872
  141MOL0     C19342  11.838   5.947  11.946  0.3261 -0.1415  0.0400
  141MOL0     C19343  11.900   5.896  11.810 -0.3191  0.6844 -0.3159
  141MOL0     O19344  12.046   5.873  11.812  0.3430 -0.6917  0.1681
  141MOL0     C19345  12.119   5.991  11.802 -0.0420 -0.2202 -0.0622
  141MOL0     C19346  12.252   5.964  11.805  0.0259 -0.2804 -0.4723
  141MOL0     C19347  12.346   6.062  11.776 -0.2188 -0.1982 -0.1379
  141MOL0     C19348  12.492   6.011  11.769 -0.3095 -0.4868  0.6704
  141MOL0     C19349  12.312   6.200  11.759 -0.3923 -0.4449  0.1952
  141MOL0     C19350  12.413   6.310  11.739  0.6160  0.3368 -0.5026
  141MOL0     O19351  12.350   6.419  11.675  0.3401  0.2465  0.5892
  141MOL0     C19352  12.416   6.548  11.674 -0.1823  0.7952 -0.2113
  141MOL0     C19353  12.359   6.649  11.588  0.5053  0.7269  0.5560
  141MOL0     C19354  12.409   6.774  11.588  0.1176 -0.2103 -0.3430
  141MOL0     C19355  12.502   6.822  11.683  0.4118 -0.3679  0.1032
  141MOL0     O19356  12.520   6.962  11.694  0.1367  0.0884  0.1818
  141MOL0     C19357  12.614   7.014  11.795  1.0022 -0.2832 -0.3096
  141MOL0     C19358  12.764   7.004  11.756  0.0157  0.3397 -0.2111
  141MOL0     C19359  12.805   7.134  11.687 -0.1836 -0.5137 -0.5547
  141MOL0     C19360  12.954   7.133  11.648 -0.4726  1.1060  0.0838
  141MOL0     C19361  13.013   7.261  11.593 -1.1455  0.0686 -0.4619
  141MOL0     C19362  13.175   7.262  11.583  0.2843 -0.2502 -0.3026
  141MOL0     C19363  13.232   7.137  11.503 -0.6153 -0.5680 -0.3420
  141MOL0     C19364  13.182   7.107  11.363 -0.2806 -0.1336 -0.2781
  141MOL0    Cl19365  13.242   7.218  11.238  0.6225  0.1052 -0.0145
  141MOL0     C19366  12.552   6.726  11.775  0.9500 -0.1212  0.2311
  141MOL0     C19367  12.506   6.597  11.768 -1.1376  0.9874 -0.0880
  141MOL0     O19368  12.535   6.304  11.764 -1.3295 -0.4284 -0.0044
  141MOL0     C19369  12.169   6.226  11.771 -0.0710  0.1293 -0.8225
  141MOL0     C19370  12.084   6.120  11.793 -0.3867 -0.6598  0.7202
  141MOL0     N19371  11.495   5.815  12.149 -1.1305  0.3134 -0.2656
  141MOL0     N19372  11.388   5.885  12.163 -0.2408 -0.6000  0.0040
  141MOL0     C19373  10.558   6.462  11.723 -0.0536 -0.3424 -0.2251
  141MOL0     C19374  10.498   6.479  11.600 -0.8501 -0.0306  0.2280
  141MOL0     C19375  10.432   6.699  11.222  0.1863  0.4103  0.6093
  141MOL0     C19376  10.312   6.765  11.219 -0.1285 -0.3590  0.9090
  141MOL0     C19377  10.260   6.808  11.094  0.6220 -0.4320 -0.2739
  141MOL0     C19378  10.318   6.762  10.974 -0.0151 -0.8535 -0.1383
  141MOL0     O19379  10.236   6.799  10.865  0.4763 -0.1102 -0.3075
  141MOL0     C19380  10.296   6.766  10.735 -0.6003 -0.0171  0.4854
  141MOL0     C19381  10.189   6.776  10.641  0.0031 -0.6601  0.5509
  141MOL0     C19382  10.078   6.674  10.675 -0.5932  0.2771 -0.3911
  141MOL0     C19383   9.980   6.651  10.551  0.1888  0.0168  0.3478
  141MOL0     C19384   9.905   6.771  10.533  0.1887  0.1637  0.3592
  141MOL0     C19385   9.851   6.882  10.522  0.5817  0.4136  0.0986
  141MOL0     C19386  10.441   6.698  10.976  0.1062  0.7833  0.6595
  141MOL0     C19387  10.497   6.661  11.098 -1.1891  0.1329 -0.8729
  141MOL0     C19388  10.619   6.571  11.101 -0.2624  0.0213  0.1403
  141MOL0     H19389  10.389   6.792  11.662  0.4162  0.3461 -2.1838
  141MOL0     H19390  10.484   6.753  11.874  0.3890  0.2451 -0.6588
  141MOL0     H19391  10.777   6.679  11.951  1.7252  0.6507 -1.8064
  141MOL0     H19392  10.792   6.567  11.819  0.4221 -2.0043  0.6908
  141MOL0     H19393  10.963   6.501  11.954  1.9393  1.4364  2.5187
  141MOL0     H19394  10.873   6.533  12.100 -1.0235  1.5993  0.6437
  141MOL0     H19395  10.727   6.344  12.076  1.4821  0.6411  2.0017
  141MOL0     H19396  10.800   6.322  11.907  1.3189 -1.6572  0.1014
  141MOL0     H19397  10.966   6.320  12.161  1.6479 -0.5124  1.0439
  141MOL0     H19398  10.860   6.177  12.145  1.5706 -1.4051 -0.2749
  141MOL0     H19399  11.073   6.286  11.938  0.1459 -0.3374 -1.1468
  141MOL0     H19400  10.982   6.142  11.915  3.8383 -0.1333 -0.8996
  141MOL0     H19401  11.066   6.082  12.165  0.1075 -0.5776 -0.8471
  141MOL0     H19402  11.130   6.024  12.007 -1.4162  0.2441 -0.2008
  141MOL0     H19403  11.235   6.283  12.148 -2.6871 -0.3607  1.1515
  141MOL0     H19404  11.322   6.179  12.036 -0.8414 -0.5111 -0.4885
  141MOL0     H19405  11.352   6.192  12.299 -4.3596  1.5520  0.1261
  141MOL0     H19406  11.233   6.060  12.295  1.1819 -0.1200  0.5365
  141MOL0     H19407  11.609   6.111  12.235  1.3388 -0.8473  2.0856
  141MOL0     H19408  11.784   5.798  12.253 -3.5372  0.1467  2.2356
  141MOL0     H19409  11.797   5.962  12.198 -1.0542  0.0025  0.0089
  141MOL0     H19410  11.896   5.764  12.052  0.2729  0.2334 -1.8555
  141MOL0     H19411  11.736   5.759  11.982 -2.3269  1.9646 -1.0715
  141MOL0     H19412  11.747   6.004  11.922 -1.1346 -1.2890  2.4653
  141MOL0     H19413  11.897   6.030  11.986  1.4893  0.2266 -2.2336
  141MOL0     H19414  11.854   5.806  11.769  1.7541 -0.0680 -1.1058
  141MOL0     H19415  11.872   5.960  11.726 -0.1097 -0.4790 -1.2999
  141MOL0     H19416  12.283   5.860  11.813 -1.2641 -0.6652 -0.2691
  141MOL0     H19417  12.494   5.904  11.792 -4.0665 -0.1936  3.4766
  141MOL0     H19418  12.547   6.062  11.848 -1.1152 -0.6333  1.3463
  141MOL0     H19419  12.523   6.023  11.665 -0.7116 -0.0791  0.5924
  141MOL0     H19420  12.279   6.623  11.520  0.3229  0.9144  0.6963
  141MOL0     H19421  12.375   6.842  11.511 -0.2231 -0.9604 -0.8731
  141MOL0     H19422  12.585   7.118  11.811 -0.4241 -0.9165  1.4411
  141MOL0     H19423  12.599   6.966  11.892  3.0966 -1.6884 -0.6047
  141MOL0     H19424  12.816   6.989  11.851 -1.8664 -0.5325  0.7318
  141MOL0     H19425  12.788   6.926  11.684  1.3604  0.8821 -0.3938
  141MOL0     H19426  12.787   7.223  11.748  2.4382 -0.1498 -0.2204
  141MOL0     H19427  12.743   7.148  11.598  0.3747 -0.7291 -0.9856
  141MOL0     H19428  12.967   7.060  11.567  0.5451  2.1037 -0.6854
  141MOL0     H19429  13.013   7.101  11.734  1.3626 -1.2198 -1.9166
  141MOL0     H19430  12.978   7.283  11.492  2.8064 -0.6484 -2.1629
  141MOL0     H19431  12.998   7.341  11.666  1.6585 -0.2121  0.5412
  141MOL0     H19432  13.205   7.256  11.688  1.9065 -0.6539 -0.7590
  141MOL0     H19433  13.213   7.354  11.538 -1.0109  0.2547 -0.4244
  141MOL0     H19434  13.200   7.051  11.562  0.0348 -1.7569 -1.6571
  141MOL0     H19435  13.341   7.151  11.506 -0.5281 -0.5115 -2.2407
  141MOL0     H19436  13.073   7.114  11.359 -0.2651  0.1227 -0.2704
  141MOL0     H19437  13.204   7.005  11.328  0.5626  0.2378 -0.8608
  141MOL0     H19438  12.626   6.747  11.851  2.8504 -0.9002 -1.3113
  141MOL0     H19439  12.546   6.530  11.843  2.0645 -0.6108 -2.9141
  141MOL0     H19440  12.127   6.326  11.765  2.4114  1.2666 -0.6333
  141MOL0     H19441  11.980   6.148  11.777 -0.2662 -1.6699 -2.5592
  141MOL0     H19442  10.612   6.369  11.737  0.7712 -0.0166 -1.1962
  141MOL0     H19443  10.507   6.409  11.518  1.8116  0.8434 -0.3259
  141MOL0     H19444  10.241   6.786  11.298 -1.7028  0.0910 -0.5664
  141MOL0     H19445  10.169   6.866  11.091  1.6014  1.2055  0.3818
  141MOL0     H19446  10.369   6.843  10.707 -1.9742  1.5357  0.9626
  141MOL0     H19447  10.331   6.663  10.729 -1.8429 -0.5830  2.0673
  141MOL0     H19448  10.218   6.744  10.540 -0.6678  2.4907 -0.7803
  141MOL0     H19449  10.157   6.881  10.640  1.4124 -0.1735  2.0565
  141MOL0     H19450  10.123   6.579  10.704  3.1342  1.1222 -2.7733
  141MOL0     H19451  10.016   6.712  10.757  0.3063 -2.9129  1.9622
  141MOL0     H19452   9.919   6.563  10.572 -1.3767  0.9040 -0.2098
  141MOL0     H19453  10.032   6.622  10.459  2.3271 -0.1278  1.5654
  141MOL0     H19454   9.823   6.985  10.517  1.7865  0.7284 -0.6297
  141MOL0     H19455  10.489   6.664  10.885 -0.5410 -1.9566  1.2769
  141MOL0     H19456  10.615   6.469  11.140 -0.5194 -0.6625 -1.5427
  141MOL0     H19457  10.665   6.565  11.002  3.8120  1.6474  1.7375
  141MOL0     H19458  10.703   6.606  11.161  0.5573 -1.6131 -0.0058
  142MOL0     O19459   1.708   5.171   5.496 -0.6381  0.0173  0.0022
  142MOL0     C19460   1.733   5.291   5.496 -0.6953 -0.0263  0.7128
  142MOL0     O19461   1.652   5.390   5.538  0.7820 -0.3944 -0.1380
  142MOL0     C19462   1.519   5.368   5.570 -0.2834  0.4808 -0.1899
  142MOL0     C19463   1.428   5.451   5.511 -0.1284  0.0314  0.7016
  142MOL0     C19464   1.294   5.426   5.536 -0.5878 -0.0454 -0.0759
  142MOL0     C19465   1.243   5.326   5.617  0.4076  0.0114 -0.2171
  142MOL0     O19466   1.103   5.312   5.626  0.2988 -0.0869  0.0169
  142MOL0     C19467   1.056   5.223   5.727 -1.1325 -0.1240  0.2034
  142MOL0     C19468   0.908   5.249   5.759  0.7332  0.6948  0.3451
  142MOL0     C19469   0.860   5.138   5.856  0.0939  0.9114 -0.6468
  142MOL0     C19470   0.887   4.996   5.823 -0.4948  0.4438 -0.0059
  142MOL0     C19471   0.810   4.912   5.933 -0.5208  0.9204 -0.8433
  142MOL0     C19472   0.837   4.768   5.937  0.2858  0.6429 -0.2642
  142MOL0     C19473   0.976   4.729   5.991  0.2443  0.5306  0.3345
  142MOL0     C19474   0.984   4.580   5.968  0.1231  0.2602 -0.0687
  142MOL0     N19475   1.120   4.521   5.994  0.6606 -0.5842  0.7661
  142MOL0     C19476   1.232   4.562   5.934  0.0299 -1.3573  0.8579
  142MOL0     C19477   1.331   4.497   5.995  0.0187 -0.3222  0.4271
  142MOL0     C19478   1.480   4.517   5.971  0.1435  0.4252 -0.1176
  142MOL0     C19479   1.553   4.406   5.888  0.5958 -0.7625  0.4656
  142MOL0     C19480   1.688   4.451   5.831 -0.4205  0.3445 -0.3966
  142MOL0     C19481   1.721   4.355   5.719 -0.3631 -0.2654  0.5680
  142MOL0     O19482   1.845   4.383   5.674  0.5297 -0.0276  0.0750
  142MOL0     C19483   1.866   4.493   5.604 -0.8015  0.0292  0.4976
  142MOL0     C19484   1.774   4.585   5.551  1.1077  0.0757 -0.5144
  142MOL0     C19485   1.815   4.696   5.472 -0.8868  0.2242 -0.1110
  142MOL0     C19486   1.705   4.788   5.418  0.9106 -0.2851 -0.4712
  142MOL0     C19487   1.955   4.712   5.451  0.3417 -0.3000  0.0599
  142MOL0     C19488   2.009   4.825   5.374 -0.6307  0.0318  0.4715
  142MOL0     O19489   1.953   4.862   5.255  0.2091 -0.9748  0.0854
  142MOL0     C19490   2.030   4.931   5.159  0.3789  0.3249  0.3988
  142MOL0     C19491   1.949   4.972   5.048 -0.2921 -0.7449  0.0358
  142MOL0     C19492   2.004   5.047   4.941  0.6547  0.9787  0.1793
  142MOL0     C19493   2.143   5.063   4.931  0.0512  0.3440  0.6107
  142MOL0     O19494   2.205   5.120   4.820  0.2903  0.3064  0.2926
  142MOL0     C19495   2.143   5.106   4.692 -0.7880  0.3697  0.2911
  142MOL0     C19496   2.246   5.134   4.577 -0.0301 -0.0043  0.0384
  142MOL0     C19497   2.276   5.282   4.561 -0.0258 -0.0107  0.2457
  142MOL0     C19498   2.396   5.303   4.462  0.4344 -0.0990 -0.0350
  142MOL0     C19499   2.519   5.213   4.506 -0.1079  0.1824 -0.4683
  142MOL0     C19500   2.645   5.229   4.423  0.1643  0.6238 -0.6422
  142MOL0     C19501   2.764   5.137   4.455 -0.1567 -0.1106  0.1023
  142MOL0     C19502   2.830   5.202   4.585  0.4331  0.9696 -0.0923
  142MOL0    Cl19503   2.996   5.124   4.614 -0.3643 -0.1109  0.0985
  142MOL0     C19504   2.222   5.018   5.041  0.4757  0.0020 -0.0425
  142MOL0     C19505   2.160   4.956   5.147 -0.9233  0.0308 -0.6654
  142MOL0     O19506   2.099   4.882   5.433  0.4465 -0.1598 -0.1380
  142MOL0     C19507   2.042   4.627   5.522 -0.5548  0.2592 -0.5113
  142MOL0     C19508   2.003   4.512   5.578  0.2212 -0.4695  0.4945
  142MOL0     N19509   1.279   4.407   6.084 -0.3341  0.0068 -0.4627
  142MOL0     N19510   1.156   4.428   6.085 -0.2522  0.2142 -0.3384
  142MOL0     C19511   1.340   5.235   5.675  0.1222 -0.3767  0.1526
  142MOL0     C19512   1.473   5.261   5.659 -0.2379  0.2628 -0.1332
  142MOL0     C19513   1.859   5.326   5.424  0.8145 -1.1442 -0.7225
  142MOL0     C19514   1.911   5.242   5.322 -0.2498  0.1431  0.2947
  142MOL0     C19515   2.022   5.280   5.257  0.6237  0.0269  0.0942
  142MOL0     C19516   2.089   5.403   5.287 -0.3179 -0.0215 -0.5210
  142MOL0     O19517   2.197   5.457   5.207 -0.3929 -0.1917 -0.3119
  142MOL0     C19518   2.300   5.361   5.170  0.8626 -0.5311  0.7548
  142MOL0     C19519   2.441   5.414   5.163 -0.5251 -0.0488  0.1991
  142MOL0     C19520   2.535   5.307   5.117 -0.3151 -0.3099 -0.3206
  142MOL0     C19521   2.680   5.371   5.113 -0.0680  1.1402  0.1338
  142MOL0     C19522   2.761   5.275   5.031  0.4449 -0.9407  0.3105
  142MOL0     C19523   2.827   5.196   4.961 -0.3114  0.1742 -1.0049
  142MOL0     C19524   2.051   5.478   5.400  0.4371 -0.1803  0.2256
  142MOL0     C19525   1.937   5.438   5.468 -0.5627  0.3776  0.1705
  142MOL0     C19526   1.901   5.535   5.581 -1.3255  0.4297 -0.0945
  142MOL0     H19527   1.471   5.528   5.447 -0.3075 -0.5811 -0.1839
  142MOL0     H19528   1.221   5.492   5.490 -1.4971  0.0049  1.3781
  142MOL0     H19529   1.114   5.226   5.820  0.1427 -2.6810 -0.4360
  142MOL0     H19530   1.062   5.124   5.682 -1.1402  1.0922 -2.7376
  142MOL0     H19531   0.895   5.352   5.795 -0.3843  0.5726  0.3423
  142MOL0     H19532   0.840   5.245   5.673 -0.0202  1.7939  0.8612
  142MOL0     H19533   0.902   5.160   5.954  1.3130  2.6355 -1.4973
  142MOL0     H19534   0.753   5.157   5.867  0.6577  3.1846  2.0303
  142MOL0     H19535   0.848   4.970   5.724  0.6391  0.1832 -0.3956
  142MOL0     H19536   0.993   4.972   5.822 -0.9355 -1.6705 -1.1201
  142MOL0     H19537   0.702   4.926   5.928 -1.7347 -2.9676  4.6223
  142MOL0     H19538   0.828   4.951   6.033 -4.6065  0.3441  0.3103
  142MOL0     H19539   0.760   4.725   6.002  1.2170  1.8430  1.7272
  142MOL0     H19540   0.821   4.723   5.839 -3.8851  1.8111 -0.2887
  142MOL0     H19541   0.996   4.745   6.098  0.7174  2.1242  0.0405
  142MOL0     H19542   1.040   4.792   5.929 -3.8655  1.5607 -3.2780
  142MOL0     H19543   0.907   4.536   6.031 -0.1196  0.6133 -0.1192
  142MOL0     H19544   0.964   4.544   5.866 -0.2636 -0.1478  0.1517
  142MOL0     H19545   1.240   4.634   5.854  0.4651 -2.0914  0.2261
  142MOL0     H19546   1.532   4.516   6.068  2.0097  2.8883 -1.0075
  142MOL0     H19547   1.487   4.616   5.926  1.4184  0.1032 -0.6772
  142MOL0     H19548   1.555   4.317   5.950  1.2803  0.3592  2.1324
  142MOL0     H19549   1.480   4.408   5.806  0.7610  4.3956  0.1103
  142MOL0     H19550   1.677   4.551   5.788  0.7023  0.2483 -0.9465
  142MOL0     H19551   1.755   4.454   5.918 -2.2391  0.6039  1.0625
  142MOL0     H19552   1.723   4.252   5.754  1.2218 -0.1324  0.9377
  142MOL0     H19553   1.641   4.362   5.644  0.1298  1.4782  0.1511
  142MOL0     H19554   1.666   4.574   5.559  1.4238 -3.7238  0.7307
  142MOL0     H19555   1.697   4.884   5.468 -1.4649 -0.2514 -0.8197
  142MOL0     H19556   1.603   4.749   5.428  1.0442 -0.2299  1.3102
  142MOL0     H19557   1.723   4.794   5.310 -2.7382 -0.6051 -1.2304
  142MOL0     H19558   1.842   4.960   5.058 -0.1821 -0.1226  2.8575
  142MOL0     H19559   1.945   5.087   4.859 -1.9557  2.5345  2.6232
  142MOL0     H19560   2.123   5.000   4.677 -1.0920  0.7272 -2.3192
  142MOL0     H19561   2.052   5.164   4.673 -0.7323  0.2827 -0.2594
  142MOL0     H19562   2.333   5.085   4.623 -1.7449 -0.3032  3.2345
  142MOL0     H19563   2.227   5.091   4.479  1.0860 -0.7033  0.1049
  142MOL0     H19564   2.308   5.337   4.649  1.1693 -0.0201 -0.1570
  142MOL0     H19565   2.188   5.328   4.513 -0.7036  1.2909  2.6055
  142MOL0     H19566   2.424   5.406   4.483 -3.3109  1.5363 -2.0183
  142MOL0     H19567   2.368   5.292   4.356 -4.3212  1.6290  0.7862
  142MOL0     H19568   2.536   5.243   4.609 -2.4971  0.5538 -0.1421
  142MOL0     H19569   2.504   5.104   4.507 -0.0899  0.0968  3.1845
  142MOL0     H19570   2.681   5.332   4.434  0.2122  0.6130 -0.6967
  142MOL0     H19571   2.624   5.220   4.316  1.4187  0.2764 -0.8803
  142MOL0     H19572   2.828   5.147   4.367 -2.1496  1.5482 -1.2922
  142MOL0     H19573   2.740   5.033   4.477  2.9791 -0.8110  0.6751
  142MOL0     H19574   2.758   5.184   4.665 -0.4991 -1.3849 -1.3605
  142MOL0     H19575   2.841   5.308   4.560  1.3641  1.4638  2.1735
  142MOL0     H19576   2.330   5.024   5.045  0.5429  0.0914 -1.5088
  142MOL0     H19577   2.216   4.918   5.232 -0.4762 -1.0094 -1.4047
  142MOL0     H19578   2.149   4.636   5.505 -0.4295 -1.1689 -0.6630
  142MOL0     H19579   2.079   4.441   5.612  1.6676  0.6701 -0.2404
  142MOL0     H19580   1.309   5.149   5.734 -0.5698  0.7763  1.5237
  142MOL0     H19581   1.537   5.195   5.716 -2.3921  0.0911  2.2488
  142MOL0     H19582   1.873   5.146   5.289  1.2375 -1.1137  2.0412
  142MOL0     H19583   2.067   5.218   5.179 -0.2241  0.7017 -0.9482
  142MOL0     H19584   2.312   5.280   5.244  1.0336 -2.3881 -1.2120
  142MOL0     H19585   2.273   5.313   5.076  0.1375 -2.1490  1.7522
  142MOL0     H19586   2.481   5.446   5.259 -1.1473  0.0395  0.4369
  142MOL0     H19587   2.441   5.503   5.100  1.1662  1.7755  2.6316
  142MOL0     H19588   2.532   5.227   5.192  2.7680 -0.5246 -0.2742
  142MOL0     H19589   2.498   5.263   5.024  0.2701 -0.2638 -0.5809
  142MOL0     H19590   2.729   5.388   5.209  1.2087  0.6946 -0.4143
  142MOL0     H19591   2.684   5.471   5.067  1.0641  0.7229 -0.7322
  142MOL0     H19592   2.881   5.125   4.901 -3.2203 -1.5591 -1.7548
  142MOL0     H19593   2.102   5.571   5.423  0.3633 -0.2861  0.8441
  142MOL0     H19594   1.991   5.591   5.609  0.1714 -0.5536 -2.5992
  142MOL0     H19595   1.820   5.599   5.545  0.8093  1.7989 -2.7988
  142MOL0     H19596   1.865   5.477   5.667 -0.7281 -0.1166 -0.2054
  143MOL0     O19597   8.046   0.178   8.208 -0.2287 -0.1758  0.4600
  143MOL0     C19598   8.154   0.217   8.156  0.5097 -0.0476  0.3867
  143MOL0     O19599   8.227   0.149   8.068 -0.1025  0.3907 -0.2953
  143MOL0     C19600   8.163   0.052   7.995  0.2874 -0.1432  0.7245
  143MOL0     C19601   8.054   0.076   7.908  0.4210  0.1470 -0.3413
  143MOL0     C19602   7.980  -0.034   7.852  0.1402 -0.3579  0.0377
  143MOL0     C19603   8.030  -0.164   7.864 -0.0203 -0.3135 -0.3685
  143MOL0     O19604   7.957  -0.268   7.816  0.3596 -0.2054  0.3223
  143MOL0     C19605   7.831  -0.243   7.751 -0.1355  0.6099  0.6971
  143MOL0     C19606   7.767  -0.382   7.708 -0.0215  0.2038 -1.1808
  143MOL0     C19607   7.662  -0.381   7.594  0.3439 -0.0044 -0.5035
  143MOL0     C19608   7.530  -0.325   7.651 -0.3767 -0.7256  0.0442
  143MOL0     C19609   7.416  -0.335   7.550  0.2131  0.2879 -0.3560
  143MOL0     C19610   7.360  -0.480   7.529 -0.0380  0.7721  0.4315
  143MOL0     C19611   7.251  -0.518   7.637 -0.9091 -0.2517 -0.4214
  143MOL0     C19612   7.210  -0.669   7.619  0.7604 -0.4202 -0.2804
  143MOL0     N19613   7.321  -0.761   7.661 -0.4907 -0.1038 -0.8343
  143MOL0     C19614   7.330  -0.790   7.795  0.5288  0.2122 -0.1509
  143MOL0     C19615   7.394  -0.908   7.800 -0.4329  0.1035 -1.2308
  143MOL0     C19616   7.438  -0.994   7.910  0.7591 -0.0453 -0.6710
  143MOL0     C19617   7.326  -1.082   7.971 -0.7002  1.0664  0.3458
  143MOL0     C19618   7.373  -1.211   8.049  0.3084  1.2140  0.1589
  143MOL0     C19619   7.414  -1.177   8.188 -0.2457 -0.5196  0.5578
  143MOL0     O19620   7.542  -1.109   8.184  0.1743  0.1670 -0.3602
  143MOL0     C19621   7.592  -1.050   8.302 -0.0521  0.4394 -0.2195
  143MOL0     C19622   7.538  -1.089   8.433 -0.0991  0.2567 -0.0460
  143MOL0     C19623   7.597  -1.059   8.550  0.1103 -1.3151  0.0237
  143MOL0     C19624   7.536  -1.111   8.680  0.2255 -0.1068  0.7601
  143MOL0     C19625   7.704  -0.966   8.538  0.5823  0.4301 -0.3014
  143MOL0     C19626   7.762  -0.909   8.657 -0.1732 -1.2560  0.0320
  143MOL0     O19627   7.827  -0.788   8.645  0.2332  0.2413  0.6153
  143MOL0     C19628   7.756  -0.682   8.700  0.0896  0.7209 -0.4814
  143MOL0     C19629   7.617  -0.671   8.739 -0.4177 -0.8463  0.0927
  143MOL0     C19630   7.567  -0.565   8.815 -0.3154 -1.2003 -0.2449
  143MOL0     C19631   7.655  -0.472   8.860  0.1875  0.7974 -0.2338
  143MOL0     O19632   7.600  -0.378   8.954 -0.6685  0.2479  0.2717
  143MOL0     C19633   7.701  -0.323   9.034 -0.3631  0.0163 -0.1229
  143MOL0     C19634   7.662  -0.189   9.105 -0.5967  0.4390  0.6010
  143MOL0     C19635   7.777  -0.119   9.173 -1.0789  0.1400  0.1779
  143MOL0     C19636   7.753   0.024   9.213 -0.1146  0.2689 -0.1202
  143MOL0     C19637   7.885   0.088   9.221 -0.0566  0.2254  0.2597
  143MOL0     C19638   7.864   0.237   9.269 -0.8418  0.4610 -0.5069
  143MOL0     C19639   7.996   0.319   9.272  0.1724 -0.0465 -0.4058
  143MOL0     C19640   7.986   0.444   9.360  0.1481  0.4614  0.2745
  143MOL0    Cl19641   7.841   0.536   9.334  0.5808 -0.2587  0.4546
  143MOL0     C19642   7.787  -0.472   8.805  0.2823 -0.7314  0.1825
  143MOL0     C19643   7.836  -0.577   8.727  0.6115  0.0684  0.2171
  143MOL0     O19644   7.775  -0.983   8.757 -0.8249  0.3592 -0.4306
  143MOL0     C19645   7.749  -0.916   8.410 -0.4802  0.3320 -1.1771
  143MOL0     C19646   7.703  -0.980   8.299 -0.6190  0.4565  0.0853
  143MOL0     N19647   7.408  -0.949   7.665 -0.1275 -0.3803  0.5320
  143MOL0     N19648   7.370  -0.860   7.583  1.2359 -0.8488 -0.1513
  143MOL0     C19649   8.144  -0.190   7.945  0.1978  1.0496  0.7710
  143MOL0     C19650   8.205  -0.078   8.001 -0.3348 -1.0712 -0.5025
  143MOL0     C19651   8.219   0.343   8.207 -0.9704 -0.7120 -0.3958
  143MOL0     C19652   8.348   0.368   8.170  0.1027  0.7207 -0.7705
  143MOL0     C19653   8.420   0.476   8.222  0.2070  0.4763 -1.2291
  143MOL0     C19654   8.363   0.573   8.304  0.4767 -0.6285  0.2929
  143MOL0     O19655   8.426   0.677   8.363 -0.5555  0.1137 -0.7273
  143MOL0     C19656   8.575   0.678   8.359  0.8436 -0.2813 -0.0329
  143MOL0     C19657   8.624   0.737   8.234  0.1286 -0.1770 -0.5423
  143MOL0     C19658   8.772   0.715   8.198 -0.0796  0.7411  0.1286
  143MOL0     C19659   8.882   0.756   8.299 -0.4888  0.1891 -0.1346
  143MOL0     C19660   8.878   0.906   8.323 -0.7337  0.7745  0.2622
  143MOL0     C19661   8.866   1.022   8.344  0.1204  0.8657  0.6560
  143MOL0     C19662   8.231   0.555   8.332  0.3029 -0.1024 -0.6879
  143MOL0     C19663   8.157   0.447   8.283  0.0331  0.0497 -0.3151
  143MOL0     C19664   8.012   0.442   8.326 -0.1118 -0.4379 -0.8051
  143MOL0     H19665   8.033   0.182   7.897  2.2445  0.3895 -2.1181
  143MOL0     H19666   7.891  -0.003   7.798  0.3941 -0.0038 -0.1823
  143MOL0     H19667   7.852  -0.180   7.663 -0.0328  0.9123  0.9371
  143MOL0     H19668   7.762  -0.195   7.821 -1.2504 -0.2650  0.2423
  143MOL0     H19669   7.849  -0.446   7.675  0.9555  1.4412 -1.2337
  143MOL0     H19670   7.721  -0.426   7.796  2.2493  0.7773  0.3748
  143MOL0     H19671   7.692  -0.301   7.526 -0.2380  1.6034  1.0589
  143MOL0     H19672   7.655  -0.483   7.555  0.9713 -0.3143  0.1592
  143MOL0     H19673   7.498  -0.373   7.744  2.9480  1.0193  2.3056
  143MOL0     H19674   7.541  -0.217   7.667 -2.5226 -0.6541  1.3913
  143MOL0     H19675   7.445  -0.290   7.455 -0.0487  0.4430 -0.3621
  143MOL0     H19676   7.337  -0.275   7.595 -1.0013 -1.1907 -0.4492
  143MOL0     H19677   7.316  -0.485   7.429  0.7353 -0.6802  0.1365
  143MOL0     H19678   7.438  -0.556   7.520 -1.1118 -0.5272  1.6810
  143MOL0     H19679   7.166  -0.450   7.632 -1.4371 -0.7039  1.4409
  143MOL0     H19680   7.291  -0.500   7.737  2.4339  2.4200 -2.0506
  143MOL0     H19681   7.117  -0.693   7.672  2.6004 -1.9994  2.5091
  143MOL0     H19682   7.193  -0.690   7.513 -0.7873 -0.8941  0.0324
  143MOL0     H19683   7.302  -0.721   7.873 -1.5440  2.7015 -2.8730
  143MOL0     H19684   7.476  -0.926   7.987  1.6897 -1.7331  0.4092
  143MOL0     H19685   7.517  -1.056   7.867  1.8441  1.7321 -1.3503
  143MOL0     H19686   7.265  -1.024   8.040  1.4750  1.2173  2.2679
  143MOL0     H19687   7.265  -1.120   7.889  0.1053  1.2391 -0.3550
  143MOL0     H19688   7.293  -1.283   8.064  0.6558  0.7952  0.0386
  143MOL0     H19689   7.456  -1.259   7.995  0.8273  1.1504  0.9810
  143MOL0     H19690   7.342  -1.110   8.236 -1.8335 -0.1882 -2.0889
  143MOL0     H19691   7.436  -1.269   8.243  0.2576 -2.5837 -2.8253
  143MOL0     H19692   7.449  -1.151   8.441 -1.6857  2.5767  1.5734
  143MOL0     H19693   7.602  -1.193   8.710 -1.0243 -2.3696 -2.1891
  143MOL0     H19694   7.436  -1.155   8.673  1.3051 -2.5145 -0.7757
  143MOL0     H19695   7.527  -1.025   8.747 -2.2007  0.5641 -0.3424
  143MOL0     H19696   7.547  -0.747   8.705 -0.9138  0.1054 -1.0775
  143MOL0     H19697   7.463  -0.562   8.844  0.2801 -0.6500  2.1083
  143MOL0     H19698   7.727  -0.393   9.114 -0.4846 -0.4062 -0.4514
  143MOL0     H19699   7.795  -0.308   8.979 -0.7169 -0.1484 -0.7762
  143MOL0     H19700   7.630  -0.108   9.038 -2.1619  2.0292  3.1045
  143MOL0     H19701   7.584  -0.203   9.180  0.8413  3.3699  2.8391
  143MOL0     H19702   7.858  -0.134   9.102 -0.6791 -2.4711  1.0700
  143MOL0     H19703   7.801  -0.182   9.260 -0.7119  1.5608  1.1336
  143MOL0     H19704   7.706   0.021   9.311  0.0049 -1.7068 -0.0880
  143MOL0     H19705   7.687   0.063   9.135 -0.2226  2.4816  1.0026
  143MOL0     H19706   7.948   0.036   9.293  2.7187  1.7133 -0.9350
  143MOL0     H19707   7.933   0.086   9.123  1.6089 -2.9123  1.0295
  143MOL0     H19708   7.831   0.242   9.373  2.8671 -1.8543  0.9678
  143MOL0     H19709   7.798   0.298   9.206 -4.6518  3.6127  5.5649
  143MOL0     H19710   8.034   0.357   9.176  2.4807  1.4039  0.9822
  143MOL0     H19711   8.067   0.246   9.310 -2.2939 -1.6238  1.4838
  143MOL0     H19712   8.066   0.516   9.343  0.6775  0.4741  2.4773
  143MOL0     H19713   7.993   0.425   9.468  2.3742 -1.9712 -0.2081
  143MOL0     H19714   7.862  -0.394   8.812  0.8188 -1.2987  0.9008
  143MOL0     H19715   7.934  -0.582   8.680  0.5219 -0.8680  0.1229
  143MOL0     H19716   7.832  -0.847   8.404 -0.1779  1.3235  5.7793
  143MOL0     H19717   7.738  -0.958   8.199  4.5150 -2.3039  0.9557
  143MOL0     H19718   8.186  -0.290   7.951  0.8810  1.3676  1.4706
  143MOL0     H19719   8.289  -0.108   8.063  0.6648 -2.4328 -2.4111
  143MOL0     H19720   8.404   0.313   8.096  0.7569 -1.4401  1.2065
  143MOL0     H19721   8.522   0.486   8.185  0.2761  2.7666 -0.5689
  143MOL0     H19722   8.606   0.739   8.444 -2.8251  4.7194 -1.8110
  143MOL0     H19723   8.598   0.571   8.362 -1.3079 -0.8463 -1.6739
  143MOL0     H19724   8.610   0.846   8.232 -0.1185 -0.2168 -1.1133
  143MOL0     H19725   8.574   0.695   8.146  1.3517 -0.9504 -0.8991
  143MOL0     H19726   8.778   0.606   8.196  0.1825  0.7574 -2.2478
  143MOL0     H19727   8.817   0.762   8.110  5.0950 -0.0856  1.9273
  143MOL0     H19728   8.975   0.724   8.252 -1.2238 -0.7515 -0.9971
  143MOL0     H19729   8.876   0.701   8.393  2.8317 -1.3907 -0.7041
  143MOL0     H19730   8.878   1.129   8.345 -1.9066  1.1198  1.4851
  143MOL0     H19731   8.187   0.634   8.391 -1.7123  0.0223 -2.2495
  143MOL0     H19732   7.990   0.341   8.362  1.1929 -0.2183  0.6752
  143MOL0     H19733   7.986   0.511   8.406 -2.4326 -0.8276 -1.1624
  143MOL0     H19734   7.945   0.478   8.247 -3.3811  1.6118  2.6127
  144MOL0     O19735   1.724   5.119   4.795 -0.4315  0.2042  0.4147
  144MOL0     C19736   1.737   5.224   4.727 -0.6411 -0.3847 -0.2020
  144MOL0     O19737   1.681   5.253   4.607 -0.3019  0.0049  0.3676
  144MOL0     C19738   1.611   5.150   4.554 -0.0984  0.5413  1.0798
  144MOL0     C19739   1.681   5.061   4.464  0.2389 -0.0490  0.5920
  144MOL0     C19740   1.612   4.946   4.414  0.5150 -0.3312  0.0980
  144MOL0     C19741   1.477   4.930   4.448  0.2826 -0.0920  0.3245
  144MOL0     O19742   1.402   4.828   4.394 -0.6484  0.1264  0.0567
  144MOL0     C19743   1.428   4.815   4.254 -0.2661  0.7383 -0.6885
  144MOL0     C19744   1.340   4.713   4.193 -0.3807 -0.0525  0.0948
  144MOL0     C19745   1.371   4.572   4.262  0.6611  0.0286 -0.6867
  144MOL0     C19746   1.310   4.471   4.174  1.1854  0.9165  0.8090
  144MOL0     C19747   1.344   4.329   4.223  0.3047 -0.0484  0.3814
  144MOL0     C19748   1.289   4.221   4.128  0.1367 -0.1982 -0.4769
  144MOL0     C19749   1.318   4.081   4.186 -0.1544 -0.9777  0.0063
  144MOL0     C19750   1.462   4.072   4.234  0.1609 -0.7834 -0.2061
  144MOL0     N19751   1.503   3.938   4.274  0.4189  0.7228  0.2444
  144MOL0     C19752   1.497   3.820   4.204 -0.0370  0.0893  0.9830
  144MOL0     C19753   1.573   3.725   4.278 -0.1052 -0.4827  0.5479
  144MOL0     C19754   1.605   3.583   4.248  0.6623  0.8135  0.3073
  144MOL0     C19755   1.508   3.525   4.143  0.3033 -0.2082 -0.0919
  144MOL0     C19756   1.538   3.373   4.125  0.3415  0.4560  0.6151
  144MOL0     C19757   1.477   3.311   4.000 -0.8647  0.1988  0.1769
  144MOL0     O19758   1.499   3.404   3.899  1.0183 -1.3408  0.6839
  144MOL0     C19759   1.404   3.421   3.801  0.3009  0.2721 -0.4207
  144MOL0     C19760   1.310   3.333   3.765 -0.2430  0.6516  0.4419
  144MOL0     C19761   1.217   3.368   3.667  0.0060 -0.6975  0.1693
  144MOL0     C19762   1.133   3.251   3.613  0.6108  0.2240  0.0171
  144MOL0     C19763   1.199   3.505   3.629  0.0259  0.3763  0.4406
  144MOL0     C19764   1.096   3.544   3.535 -0.3749 -0.5261 -0.5650
  144MOL0     O19765   0.966   3.503   3.553  0.3488  1.0749 -0.7857
  144MOL0     C19766   0.861   3.530   3.463  0.0389  0.0968 -0.0965
  144MOL0     C19767   0.847   3.655   3.398 -0.8106  0.2315 -0.2224
  144MOL0     C19768   0.755   3.674   3.296 -0.8818 -0.5772 -0.3188
  144MOL0     C19769   0.664   3.572   3.262  0.4298  0.5902  0.5347
  144MOL0     O19770   0.570   3.582   3.157  0.3085  0.1447  0.7570
  144MOL0     C19771   0.502   3.700   3.118 -0.8152 -0.2851 -1.5235
  144MOL0     C19772   0.406   3.690   2.995 -0.2393 -0.7238  0.5195
  144MOL0     C19773   0.473   3.705   2.858  0.8624  0.1535  0.4841
  144MOL0     C19774   0.519   3.847   2.822 -0.3952 -0.5387  1.0000
  144MOL0     C19775   0.547   3.857   2.674 -0.7227 -0.0592 -0.2140
  144MOL0     C19776   0.425   3.886   2.586  0.1405 -0.6865  0.5572
  144MOL0     C19777   0.476   3.886   2.440 -0.1613  0.4540  0.0665
  144MOL0     C19778   0.409   3.977   2.334  0.2822  0.0490 -0.9425
  144MOL0    Cl19779   0.431   4.152   2.389 -0.3340  0.0555 -0.1447
  144MOL0     C19780   0.668   3.449   3.335  0.2447  0.6025 -0.4982
  144MOL0     C19781   0.769   3.425   3.429 -0.0856 -0.0452 -0.5849
  144MOL0     O19782   1.134   3.616   3.447  0.6903  0.2572  0.5933
  144MOL0     C19783   1.296   3.600   3.678 -0.1241 -0.6071 -0.5339
  144MOL0     C19784   1.398   3.552   3.766 -0.1050 -0.2953  0.5506
  144MOL0     N19785   1.618   3.788   4.391 -0.6403  0.4871  0.3100
  144MOL0     N19786   1.573   3.912   4.388 -1.1315 -1.0649  0.1468
  144MOL0     C19787   1.415   5.014   4.539  0.0407 -0.4590 -0.4632
  144MOL0     C19788   1.482   5.122   4.593  0.6905 -0.6243  0.5365
  144MOL0     C19789   1.838   5.327   4.783  0.9027  0.2242 -0.5950
  144MOL0     C19790   1.929   5.383   4.699 -0.1139  0.7951  0.1841
  144MOL0     C19791   2.016   5.479   4.747  0.5531 -0.8700 -0.4337
  144MOL0     C19792   2.006   5.524   4.882 -0.8206 -0.0063  0.1693
  144MOL0     O19793   2.065   5.643   4.907 -0.2376 -0.7632  0.5330
  144MOL0     C19794   2.024   5.711   5.031  0.3233  0.6027  0.1172
  144MOL0     C19795   2.111   5.846   5.041  1.1243 -0.5897  0.3540
  144MOL0     C19796   2.244   5.821   5.081  0.3875 -0.4964 -0.6827
  144MOL0     C19797   2.327   5.947   5.091  0.8377 -0.0363 -0.0831
  144MOL0     C19798   2.463   5.908   5.130 -0.3102 -0.0832  0.2315
  144MOL0     C19799   2.580   5.873   5.152 -0.7007 -0.8730  0.2154
  144MOL0     C19800   1.919   5.459   4.968 -0.3947 -0.5365  0.3734
  144MOL0     C19801   1.828   5.364   4.919 -0.0736 -0.1518 -0.2245
  144MOL0     C19802   1.726   5.314   5.025  0.6785  0.3502 -0.3803
  144MOL0     H19803   1.782   5.086   4.433  0.6660 -3.0407 -0.8248
  144MOL0     H19804   1.668   4.875   4.354 -1.0022 -3.7707  2.4269
  144MOL0     H19805   1.529   4.783   4.228 -0.8767 -1.3824 -0.6694
  144MOL0     H19806   1.405   4.911   4.208 -1.8277  1.5923  1.6917
  144MOL0     H19807   1.233   4.734   4.205 -0.8037 -2.4389  1.0272
  144MOL0     H19808   1.366   4.715   4.087 -3.1970 -0.5709 -0.7127
  144MOL0     H19809   1.479   4.556   4.262  1.0464  2.2423  0.6214
  144MOL0     H19810   1.337   4.573   4.366  2.2534 -0.1775 -0.1481
  144MOL0     H19811   1.203   4.495   4.175  0.8002 -0.4778 -0.7497
  144MOL0     H19812   1.339   4.479   4.069  4.4300  1.1484  1.6317
  144MOL0     H19813   1.302   4.321   4.324  1.0856 -1.9622  0.5803
  144MOL0     H19814   1.453   4.322   4.231  0.1300 -1.1089  2.4106
  144MOL0     H19815   1.183   4.250   4.124  0.1822  0.0314 -0.0761
  144MOL0     H19816   1.337   4.218   4.031 -0.2950 -0.9691 -0.6760
  144MOL0     H19817   1.298   3.999   4.116  0.5754 -2.7027  1.7315
  144MOL0     H19818   1.250   4.070   4.271 -0.9767  2.3939 -0.0951
  144MOL0     H19819   1.529   4.105   4.154 -3.3613 -0.3959 -3.2493
  144MOL0     H19820   1.480   4.135   4.322 -1.6971  3.2106 -2.4269
  144MOL0     H19821   1.444   3.796   4.112  0.9775  3.0263 -0.5097
  144MOL0     H19822   1.588   3.531   4.342 -2.2688  2.4202  0.7902
  144MOL0     H19823   1.710   3.569   4.219 -0.0007 -0.7928 -1.5961
  144MOL0     H19824   1.402   3.544   4.159  0.0430  0.3739 -2.1840
  144MOL0     H19825   1.526   3.585   4.053 -1.8967  1.0520  0.2338
  144MOL0     H19826   1.646   3.362   4.139  0.1886 -1.9614  0.2542
  144MOL0     H19827   1.491   3.324   4.211 -2.4395 -0.4656 -1.3117
  144MOL0     H19828   1.538   3.223   3.976 -0.0808  0.5414  0.8887
  144MOL0     H19829   1.375   3.274   4.016 -0.1341 -1.2111  1.8035
  144MOL0     H19830   1.313   3.234   3.809  2.8125  1.2584  1.8327
  144MOL0     H19831   1.188   3.157   3.622  2.8533  1.6692  2.7914
  144MOL0     H19832   1.097   3.272   3.512 -0.6390  0.3250  0.4614
  144MOL0     H19833   1.047   3.238   3.680  2.1546  0.2440  2.1084
  144MOL0     H19834   0.929   3.722   3.421  0.2274 -0.9731 -0.3011
  144MOL0     H19835   0.750   3.770   3.246  1.9196 -0.8099 -1.2357
  144MOL0     H19836   0.445   3.741   3.202  1.8230  0.8758 -0.1881
  144MOL0     H19837   0.574   3.782   3.108  1.5706 -1.9258  0.7030
  144MOL0     H19838   0.356   3.593   2.999  1.0014 -1.3499  1.5485
  144MOL0     H19839   0.329   3.765   3.014 -1.1364 -2.2415  3.3484
  144MOL0     H19840   0.403   3.677   2.779 -0.1014 -0.5669  1.5543
  144MOL0     H19841   0.558   3.636   2.849 -0.9436 -1.9799 -1.5456
  144MOL0     H19842   0.621   3.848   2.863 -0.0167 -0.5595  0.0918
  144MOL0     H19843   0.455   3.931   2.849  0.4628  0.6503 -0.4921
  144MOL0     H19844   0.609   3.947   2.666  0.6364 -1.0212 -0.9299
  144MOL0     H19845   0.610   3.775   2.640  0.1451  0.5544 -0.1080
  144MOL0     H19846   0.366   3.975   2.607  1.2140 -0.3978  2.6115
  144MOL0     H19847   0.356   3.805   2.609  0.5247 -0.1029  4.3282
  144MOL0     H19848   0.479   3.781   2.409  0.0805 -0.1597  2.0807
  144MOL0     H19849   0.582   3.911   2.447 -0.2282  0.6433  0.3889
  144MOL0     H19850   0.300   3.965   2.329  0.2232  0.5422 -0.9132
  144MOL0     H19851   0.456   3.971   2.235 -0.3422 -1.4933 -1.1762
  144MOL0     H19852   0.599   3.368   3.316  0.1981 -0.2452  2.6447
  144MOL0     H19853   0.783   3.331   3.479 -1.0698  1.1326  2.0773
  144MOL0     H19854   1.302   3.706   3.654 -0.3638 -0.6959 -0.9976
  144MOL0     H19855   1.457   3.631   3.810 -2.0318  1.2164  0.6088
  144MOL0     H19856   1.314   5.001   4.576 -0.3095  2.2512 -0.2751
  144MOL0     H19857   1.434   5.197   4.655 -1.0905  1.0120 -2.5709
  144MOL0     H19858   1.926   5.375   4.591 -1.5384 -1.1748  0.3122
  144MOL0     H19859   2.074   5.535   4.674 -1.3095 -1.3726 -2.4213
  144MOL0     H19860   1.917   5.730   5.014  0.7736  1.4585 -2.0480
  144MOL0     H19861   2.050   5.651   5.119  2.8314  1.2253 -0.1321
  144MOL0     H19862   2.061   5.905   5.118 -3.8623 -2.5259 -1.0021
  144MOL0     H19863   2.087   5.904   4.951  0.4608 -0.1567  0.8021
  144MOL0     H19864   2.236   5.765   5.175 -0.5003  0.9175  0.1210
  144MOL0     H19865   2.287   5.759   5.001 -0.8736 -1.2622 -0.8014
  144MOL0     H19866   2.286   6.026   5.154  0.6050  1.6806 -2.2805
  144MOL0     H19867   2.342   5.986   4.990 -0.7007  3.7659  0.9886
  144MOL0     H19868   2.671   5.838   5.196 -0.2049  1.7868  1.5603
  144MOL0     H19869   1.912   5.490   5.072 -2.9879  3.0642 -0.6679
  144MOL0     H19870   1.719   5.377   5.114 -1.5944 -0.7079  0.2700
  144MOL0     H19871   1.634   5.298   4.969  1.1883 -3.3689 -0.4163
  144MOL0     H19872   1.750   5.217   5.070 -2.2209 -0.3192 -0.0657
  145MOL0     O19873   2.881   8.347   6.953 -0.0001  0.7430  0.2539
  145MOL0     C19874   2.870   8.437   6.874 -0.6234 -0.2797  1.5415
  145MOL0     O19875   2.764   8.467   6.797 -0.7882 -0.0142  0.1338
  145MOL0     C19876   2.690   8.358   6.752 -0.2040  0.4473  0.6653
  145MOL0     C19877   2.737   8.235   6.729 -0.4812  0.4387 -0.6962
  145MOL0     C19878   2.665   8.129   6.676  0.9633 -0.5577  0.4535
  145MOL0     C19879   2.531   8.154   6.632 -0.3652  0.8629  0.6429
  145MOL0     O19880   2.436   8.058   6.589  0.1278 -0.1241 -0.6049
  145MOL0     C19881   2.440   7.931   6.653  0.0182  0.2838 -0.3395
  145MOL0     C19882   2.315   7.851   6.613  0.0495  0.0944  0.8360
  145MOL0     C19883   2.184   7.922   6.641  0.2977 -0.5659 -0.4404
  145MOL0     C19884   2.054   7.835   6.618 -0.0786  0.3469 -0.7723
  145MOL0     C19885   1.922   7.909   6.648 -0.5996  0.3076  0.6503
  145MOL0     C19886   1.893   7.948   6.800 -0.3424 -0.0967  0.9270
  145MOL0     C19887   1.748   7.989   6.811 -0.7174  0.6746  0.1194
  145MOL0     C19888   1.714   8.067   6.945  0.3439  0.1087 -0.1292
  145MOL0     N19889   1.602   8.163   6.930  0.4412  0.4100 -0.0964
  145MOL0     C19890   1.473   8.145   6.989 -0.3411  0.1706  0.5543
  145MOL0     C19891   1.411   8.257   6.961 -0.2477 -0.5670  0.1340
  145MOL0     C19892   1.267   8.282   6.988 -0.4630  0.2063 -0.4211
  145MOL0     C19893   1.185   8.286   6.851 -0.2420 -0.2513  0.3714
  145MOL0     C19894   1.058   8.202   6.834 -0.2798  0.1340 -0.0192
  145MOL0     C19895   0.970   8.246   6.716 -0.2860  0.2474  0.4797
  145MOL0     O19896   1.019   8.217   6.581 -0.0377 -0.4126  0.0118
  145MOL0     C19897   1.020   8.092   6.522  0.4405  1.0397 -0.1451
  145MOL0     C19898   1.089   8.071   6.411 -0.4240  1.0180  0.6151
  145MOL0     C19899   1.092   7.942   6.343  0.2269 -0.2881  0.2292
  145MOL0     C19900   1.164   7.927   6.209 -0.0569  0.1633  0.2444
  145MOL0     C19901   1.007   7.834   6.390 -0.3862  0.0011  0.3913
  145MOL0     C19902   1.009   7.691   6.341 -0.0312  0.6932 -0.1339
  145MOL0     O19903   0.894   7.617   6.339  0.3551  0.2093 -0.9982
  145MOL0     C19904   0.884   7.486   6.327  0.0316  0.8857  0.0490
  145MOL0     C19905   0.757   7.432   6.329 -0.9609 -0.2853  0.3485
  145MOL0     C19906   0.731   7.296   6.343  0.2051 -0.3540 -0.5238
  145MOL0     C19907   0.840   7.212   6.371 -0.7563 -0.0016  0.3383
  145MOL0     O19908   0.822   7.081   6.399 -0.3824  0.9475 -0.0697
  145MOL0     C19909   0.771   6.994   6.298 -0.4761 -0.7499 -0.1437
  145MOL0     C19910   0.864   6.876   6.286  0.0783 -0.2259 -0.0379
  145MOL0     C19911   1.008   6.919   6.268 -0.9865  0.2074 -1.4357
  145MOL0     C19912   1.088   6.794   6.244  0.2677 -1.6787 -0.1735
  145MOL0     C19913   1.237   6.836   6.272  0.2749  0.1567 -0.8225
  145MOL0     C19914   1.309   6.891   6.136 -0.4615  0.6236 -0.5671
  145MOL0     C19915   1.455   6.941   6.171  0.7318 -1.2428  0.0374
  145MOL0     C19916   1.543   6.844   6.246  1.4285  0.2244 -0.0340
  145MOL0    Cl19917   1.706   6.879   6.203 -0.0858  1.0865  0.6308
  145MOL0     C19918   0.967   7.264   6.380 -0.0607 -0.1699  0.1073
  145MOL0     C19919   0.981   7.399   6.355 -0.4948  0.6506  0.1175
  145MOL0     O19920   1.120   7.643   6.322 -1.0667 -0.3269  0.0112
  145MOL0     C19921   0.923   7.862   6.496  0.3234  0.1174 -0.0643
  145MOL0     C19922   0.929   7.990   6.560 -0.4166  1.0080  0.2540
  145MOL0     N19923   1.497   8.349   6.898  0.2046  0.3946 -1.1954
  145MOL0     N19924   1.610   8.287   6.879 -0.6711  0.6256 -0.7184
  145MOL0     C19925   2.482   8.279   6.642 -0.3862  1.1025 -0.1192
  145MOL0     C19926   2.554   8.377   6.709 -0.1368  0.3506  0.3853
  145MOL0     C19927   2.975   8.545   6.879  0.6010  0.0769  0.1393
  145MOL0     C19928   2.936   8.670   6.821 -0.4928  0.3566 -0.7678
  145MOL0     C19929   3.025   8.780   6.845  0.6014  0.7753 -0.1772
  145MOL0     C19930   3.154   8.757   6.884 -0.3533 -0.2110 -0.2061
  145MOL0     O19931   3.255   8.846   6.892 -1.0688  0.5952 -0.2096
  145MOL0     C19932   3.236   8.980   6.851 -0.4806 -0.0742 -1.4795
  145MOL0     C19933   3.381   9.034   6.810  0.8421 -0.9363  0.0489
  145MOL0     C19934   3.476   8.930   6.751  0.1236 -0.5279  0.0292
  145MOL0     C19935   3.611   8.980   6.716 -0.0883  0.4826 -0.1470
  145MOL0     C19936   3.669   9.058   6.836  0.0671 -0.0192  0.2946
  145MOL0     C19937   3.728   9.125   6.919  0.0711 -0.2226  0.2298
  145MOL0     C19938   3.193   8.629   6.939 -0.5611 -0.3466 -0.6911
  145MOL0     C19939   3.105   8.523   6.941 -0.3875 -0.6371  0.0606
  145MOL0     C19940   3.153   8.394   6.992 -0.0908  0.7711  0.7168
  145MOL0     H19941   2.839   8.221   6.764 -0.4320 -0.5319 -1.2025
  145MOL0     H19942   2.703   8.028   6.674 -0.4344 -1.2665  3.2353
  145MOL0     H19943   2.427   7.961   6.757 -3.0122  1.6134 -1.0017
  145MOL0     H19944   2.535   7.882   6.626 -1.6193 -2.4459 -1.6224
  145MOL0     H19945   2.321   7.828   6.506 -0.2781  1.0797  0.5968
  145MOL0     H19946   2.320   7.749   6.654  1.3085 -1.7257 -3.2525
  145MOL0     H19947   2.193   7.961   6.743  0.4261  0.5331 -0.8551
  145MOL0     H19948   2.171   7.999   6.564 -0.6385 -1.3360 -1.0778
  145MOL0     H19949   2.055   7.785   6.521 -1.2141  2.1693 -1.7643
  145MOL0     H19950   2.053   7.757   6.696  1.2857  2.8539  1.9599
  145MOL0     H19951   1.838   7.845   6.621 -0.3096  0.2385 -0.1174
  145MOL0     H19952   1.917   7.998   6.584 -1.3938 -1.2119 -1.5400
  145MOL0     H19953   1.907   7.861   6.865  0.6949  0.7400  1.8732
  145MOL0     H19954   1.965   8.022   6.835  0.8441 -0.0515 -1.4253
  145MOL0     H19955   1.687   7.899   6.806  1.0942 -0.6990  1.3710
  145MOL0     H19956   1.712   8.053   6.730 -2.0259 -1.5692 -1.1558
  145MOL0     H19957   1.681   7.999   7.024 -2.8737  0.2233 -1.2483
  145MOL0     H19958   1.798   8.125   6.984  1.6784 -2.4408  1.0256
  145MOL0     H19959   1.439   8.056   7.040  5.0868 -2.7483 -0.2960
  145MOL0     H19960   1.250   8.378   7.036  0.1200  0.5281 -0.8428
  145MOL0     H19961   1.223   8.210   7.058  0.7474 -1.8060 -1.6118
  145MOL0     H19962   1.153   8.390   6.842  1.7381  0.3493 -0.1662
  145MOL0     H19963   1.253   8.252   6.772 -1.5112  0.4203 -1.0420
  145MOL0     H19964   1.077   8.095   6.823  0.5393  0.3478 -0.8309
  145MOL0     H19965   1.007   8.206   6.931  3.1695  2.2748  1.9085
  145MOL0     H19966   0.875   8.193   6.714  0.2977 -0.8432  0.9183
  145MOL0     H19967   0.962   8.354   6.734  2.8905  0.6659 -0.0680
  145MOL0     H19968   1.154   8.149   6.373  0.1117  0.5073  0.4612
  145MOL0     H19969   1.237   7.846   6.216 -0.2211 -0.3316 -2.5649
  145MOL0     H19970   1.215   8.019   6.180  2.0841  0.4323  4.2261
  145MOL0     H19971   1.089   7.887   6.139  2.3680 -1.6629 -1.4862
  145MOL0     H19972   0.678   7.507   6.323  2.5087  3.7785  0.6620
  145MOL0     H19973   0.630   7.255   6.345 -0.0206  0.1202 -1.3338
  145MOL0     H19974   0.672   6.955   6.325 -1.6112  2.2910  0.4041
  145MOL0     H19975   0.756   7.038   6.199  1.1285  1.1302  0.3918
  145MOL0     H19976   0.852   6.810   6.372 -3.1086 -0.8620 -0.8283
  145MOL0     H19977   0.829   6.809   6.207  0.4039  0.0569 -0.4252
  145MOL0     H19978   1.043   6.965   6.361  1.3961  0.4146 -2.3580
  145MOL0     H19979   1.016   6.987   6.183  0.6261  4.4598  1.7731
  145MOL0     H19980   1.082   6.762   6.140 -2.1089  0.4334 -0.7859
  145MOL0     H19981   1.052   6.716   6.311  0.3808 -4.3255 -2.9858
  145MOL0     H19982   1.246   6.904   6.357 -1.8006  1.3855 -1.5136
  145MOL0     H19983   1.282   6.739   6.290 -1.8994 -1.1233 -1.8503
  145MOL0     H19984   1.246   6.967   6.089 -3.1566  0.8927  3.1165
  145MOL0     H19985   1.312   6.815   6.056 -0.8425 -0.3399  0.3089
  145MOL0     H19986   1.435   7.030   6.232 -2.0185 -1.2094 -0.7936
  145MOL0     H19987   1.517   6.979   6.089  2.3039 -2.8879  0.4177
  145MOL0     H19988   1.504   6.743   6.235 -0.3476  1.1742 -5.4621
  145MOL0     H19989   1.535   6.874   6.351 -0.5415  0.9707 -0.3592
  145MOL0     H19990   1.048   7.199   6.411  0.8680  0.6413 -0.5649
  145MOL0     H19991   1.088   7.416   6.356 -0.1820 -1.0586  1.7348
  145MOL0     H19992   0.847   7.791   6.527  1.0296 -0.2687  0.8564
  145MOL0     H19993   0.854   8.019   6.634 -1.5080 -0.6188 -0.1487
  145MOL0     H19994   2.385   8.299   6.596 -1.0850  0.5827  1.0820
  145MOL0     H19995   2.501   8.471   6.713 -0.8617 -0.0813  1.0887
  145MOL0     H19996   2.836   8.700   6.792 -0.8753  0.0720  0.2306
  145MOL0     H19997   2.987   8.880   6.825  0.0503  0.6067  0.0312
  145MOL0     H19998   3.185   8.990   6.754  2.3354 -0.2814 -3.0912
  145MOL0     H19999   3.194   9.042   6.931 -0.5385 -0.8996 -0.8672
  145MOL0     H20000   3.422   9.075   6.903 -1.5345  2.0478 -0.0879
  145MOL0     H20001   3.372   9.110   6.733  2.1058 -1.2625 -0.4486
  145MOL0     H20002   3.485   8.846   6.821 -0.0989 -1.2043 -0.7362
  145MOL0     H20003   3.438   8.899   6.653  0.3181 -3.4104  0.7568
  145MOL0     H20004   3.603   9.049   6.632 -1.0384 -0.9966 -1.3295
  145MOL0     H20005   3.669   8.897   6.675 -0.6857  0.6047 -1.2636
  145MOL0     H20006   3.791   9.182   6.986  2.6491  0.7408 -2.7463
  145MOL0     H20007   3.294   8.630   6.978  0.7404  0.3202 -3.7422
  145MOL0     H20008   3.123   8.359   7.092 -0.7502 -1.0851 -0.0811
  145MOL0     H20009   3.126   8.314   6.922  1.5509 -2.8151  3.7650
  145MOL0     H20010   3.262   8.391   7.000  0.1402  2.2160 -1.2235
  146MOL0     O20011   4.620   8.164  11.102  0.0918  0.3932  0.4467
  146MOL0     C20012   4.622   8.102  10.994  0.6590 -0.1472 -0.6135
  146MOL0     O20013   4.545   7.989  10.974  0.0815 -0.4198 -0.3287
  146MOL0     C20014   4.425   7.971  11.046  0.3815 -0.4828 -0.4914
  146MOL0     C20015   4.330   8.072  11.054  0.0623  0.0880 -0.4547
  146MOL0     C20016   4.205   8.041  11.113 -0.4365  0.0684  0.3427
  146MOL0     C20017   4.178   7.922  11.180 -0.1892 -0.1664  0.6832
  146MOL0     O20018   4.055   7.922  11.225 -0.9616 -0.4158  0.6849
  146MOL0     C20019   4.005   7.793  11.288  0.7710  0.0769 -0.2222
  146MOL0     C20020   3.848   7.800  11.302  0.4984  0.6380  0.7004
  146MOL0     C20021   3.804   7.947  11.341 -0.5614 -0.0189  0.5002
  146MOL0     C20022   3.668   7.942  11.395 -0.4924 -0.6476 -0.6061
  146MOL0     C20023   3.614   8.089  11.398 -0.6717  0.0190  0.5542
  146MOL0     C20024   3.469   8.093  11.436 -0.9580  0.1105 -0.4778
  146MOL0     C20025   3.369   8.079  11.310 -0.0792 -0.2253 -0.3861
  146MOL0     C20026   3.222   8.073  11.356  0.8494  0.8049  0.3204
  146MOL0     N20027   3.141   8.022  11.240 -0.0328  0.3362  0.3543
  146MOL0     C20028   3.087   8.093  11.135 -0.6110  0.7976  0.8386
  146MOL0     C20029   3.013   8.002  11.069  0.2025 -1.1009  0.8587
  146MOL0     C20030   2.938   8.036  10.935 -0.0381  0.6320 -0.0173
  146MOL0     C20031   2.812   8.117  10.958 -0.5678  0.1307 -0.4332
  146MOL0     C20032   2.729   8.111  10.830 -0.4412 -0.3425 -0.3830
  146MOL0     C20033   2.592   8.168  10.858  0.4341  0.5786  0.0121
  146MOL0     O20034   2.601   8.311  10.846  0.9326 -0.0264 -0.5085
  146MOL0     C20035   2.483   8.385  10.828  0.9258 -0.6647  0.8928
  146MOL0     C20036   2.492   8.531  10.812  0.5863 -0.2575  0.1707
  146MOL0     C20037   2.379   8.613  10.806  0.3430 -0.1115  0.8909
  146MOL0     C20038   2.400   8.759  10.784 -0.1838 -0.2338 -0.6858
  146MOL0     C20039   2.257   8.546  10.769  0.0557 -0.3701 -0.1414
  146MOL0     C20040   2.124   8.605  10.752  0.9740  0.4814  0.9863
  146MOL0     O20041   2.067   8.565  10.631  0.1491  0.0288  0.2754
  146MOL0     C20042   1.934   8.578  10.643  0.9218 -0.4945 -0.0241
  146MOL0     C20043   1.879   8.705  10.623 -0.8736 -0.4111 -0.7615
  146MOL0     C20044   1.739   8.731  10.648 -0.5196 -0.7012 -1.0137
  146MOL0     C20045   1.655   8.622  10.691  0.1572 -0.9391  0.3217
  146MOL0     O20046   1.520   8.636  10.708  0.3092 -0.5445 -0.3101
  146MOL0     C20047   1.453   8.741  10.633 -0.7962 -0.3402  0.3696
  146MOL0     C20048   1.304   8.710  10.602 -0.3921 -0.3812  0.3016
  146MOL0     C20049   1.287   8.635  10.470 -0.4728  0.0197  0.5706
  146MOL0     C20050   1.314   8.487  10.489 -0.4856  0.5789  0.9963
  146MOL0     C20051   1.216   8.418  10.580 -0.1579  1.1032  0.6151
  146MOL0     C20052   1.243   8.266  10.577 -0.0773 -0.4803 -0.4535
  146MOL0     C20053   1.124   8.180  10.628  0.4166 -0.3314  0.3719
  146MOL0     C20054   1.157   8.032  10.636  0.5883  0.2175  0.0924
  146MOL0    Cl20055   1.300   8.001  10.730  0.0412 -0.3397  0.3077
  146MOL0     C20056   1.715   8.499  10.707 -0.3324  0.4072 -0.2020
  146MOL0     C20057   1.854   8.468  10.680  0.5897 -0.3698  0.0645
  146MOL0     O20058   2.075   8.676  10.841  0.3841  0.3118  0.0492
  146MOL0     C20059   2.250   8.407  10.777  0.3908  0.1868 -0.5298
  146MOL0     C20060   2.357   8.332  10.808  0.1920 -0.1769  0.1005
  146MOL0     N20061   3.024   7.878  11.114  0.6575  0.2886  0.0431
  146MOL0     N20062   3.102   7.886  11.224 -0.0809 -1.0568 -0.4080
  146MOL0     C20063   4.273   7.823  11.173 -0.4263  0.0182  0.1750
  146MOL0     C20064   4.402   7.847  11.109 -0.1611 -0.0386  1.0731
  146MOL0     C20065   4.718   8.142  10.893 -0.7943 -0.5065 -0.7372
  146MOL0     C20066   4.851   8.182  10.940 -0.0961 -0.2016  0.1872
  146MOL0     C20067   4.938   8.257  10.868 -0.3567  0.2170  0.3113
  146MOL0     C20068   4.906   8.284  10.740  0.5795  1.1873  0.2955
  146MOL0     O20069   4.966   8.371  10.658 -0.5788  0.2552  0.0205
  146MOL0     C20070   5.092   8.422  10.701  0.0984 -0.0354  0.3864
  146MOL0     C20071   5.166   8.504  10.601 -0.2802  0.5485  0.1585
  146MOL0     C20072   5.184   8.435  10.454 -0.8849  0.3279 -0.8123
  146MOL0     C20073   5.153   8.526  10.339  0.2706  0.4932  0.1213
  146MOL0     C20074   5.009   8.558  10.330 -0.0258 -0.1292  0.4608
  146MOL0     C20075   4.890   8.587  10.329  0.0818 -0.8166  0.0391
  146MOL0     C20076   4.787   8.242  10.679  0.2984  0.2796  0.4791
  146MOL0     C20077   4.690   8.174  10.761  0.2952  0.2306  0.2706
  146MOL0     C20078   4.550   8.151  10.696  0.5400  0.3807 -0.2320
  146MOL0     H20079   4.363   8.169  11.019  1.2502  0.1623  0.7889
  146MOL0     H20080   4.126   8.116  11.107 -1.0933 -0.3394  2.6514
  146MOL0     H20081   4.053   7.774  11.384  0.4626  1.9861  0.3472
  146MOL0     H20082   4.020   7.704  11.226 -2.4425  0.4392 -1.7758
  146MOL0     H20083   3.791   7.769  11.214  1.2309  0.0917  0.4064
  146MOL0     H20084   3.829   7.749  11.397  1.5409  1.1549  1.2002
  146MOL0     H20085   3.862   7.971  11.430 -0.5875 -5.0089  2.1659
  146MOL0     H20086   3.817   8.011  11.253  1.2795  1.5404  1.8290
  146MOL0     H20087   3.612   7.891  11.316  1.4699  1.5990 -3.6959
  146MOL0     H20088   3.654   7.890  11.490 -1.8906  2.6247  1.1205
  146MOL0     H20089   3.637   8.137  11.302  2.2696 -1.7042  0.2553
  146MOL0     H20090   3.676   8.140  11.472 -0.6659 -2.6362  2.5173
  146MOL0     H20091   3.470   8.021  11.518  3.0647  0.0045 -0.3793
  146MOL0     H20092   3.454   8.195  11.475 -0.6682  0.1001 -0.3358
  146MOL0     H20093   3.397   7.988  11.256 -0.5775 -1.0611  0.7260
  146MOL0     H20094   3.381   8.163  11.241  2.3604  0.7575  1.1227
  146MOL0     H20095   3.223   7.992  11.429  0.3677 -1.8645 -2.4292
  146MOL0     H20096   3.202   8.173  11.394  2.4192  2.8440 -3.6043
  146MOL0     H20097   3.087   8.201  11.126 -0.9499  0.8682  1.6055
  146MOL0     H20098   2.910   7.937  10.897 -1.4409  0.5064  1.2441
  146MOL0     H20099   3.006   8.087  10.866 -0.8880  0.2838 -1.1423
  146MOL0     H20100   2.763   8.072  11.045  0.9246 -4.2385 -1.5666
  146MOL0     H20101   2.835   8.224  10.960 -2.0820  0.4724 -0.2036
  146MOL0     H20102   2.773   8.152  10.739 -0.6126 -1.9508 -1.2363
  146MOL0     H20103   2.718   8.003  10.814 -0.8476 -0.4053  0.2807
  146MOL0     H20104   2.523   8.128  10.783  3.9167 -2.9407 -1.6800
  146MOL0     H20105   2.546   8.136  10.952 -1.3198 -3.3454 -1.9455
  146MOL0     H20106   2.587   8.583  10.809 -0.0873  0.9778 -1.8319
  146MOL0     H20107   2.423   8.797  10.884  1.5595 -1.9176 -0.3853
  146MOL0     H20108   2.305   8.808  10.764 -0.7799 -1.3642 -0.6999
  146MOL0     H20109   2.470   8.784  10.704 -2.1373 -0.5359 -2.5484
  146MOL0     H20110   1.938   8.791  10.593 -0.0025  0.1525  2.3178
  146MOL0     H20111   1.700   8.831  10.635  2.2126  0.9577  2.0640
  146MOL0     H20112   1.457   8.839  10.681 -2.0875 -1.2980  2.5445
  146MOL0     H20113   1.511   8.755  10.540  1.0779  0.0417  1.5342
  146MOL0     H20114   1.264   8.667  10.695 -2.5961  3.4531  1.3740
  146MOL0     H20115   1.246   8.801  10.581  1.7624  1.0213  0.1777
  146MOL0     H20116   1.351   8.669  10.389 -2.2961 -0.8518 -1.3090
  146MOL0     H20117   1.185   8.643  10.431  0.3041 -2.0000 -2.1661
  146MOL0     H20118   1.414   8.479  10.532  0.6866 -0.7306 -1.7404
  146MOL0     H20119   1.312   8.438  10.391  0.6878  1.8979  0.2730
  146MOL0     H20120   1.216   8.448  10.685 -2.1222  1.1745  0.6197
  146MOL0     H20121   1.124   8.425  10.521  1.5406 -0.7494 -2.6018
  146MOL0     H20122   1.336   8.244  10.629 -0.2707  0.4796  0.3315
  146MOL0     H20123   1.272   8.246  10.473 -0.4102  0.5780 -0.7735
  146MOL0     H20124   1.036   8.199  10.566  1.1206 -0.1281 -0.5777
  146MOL0     H20125   1.098   8.211  10.730  0.3679 -1.4927  0.7182
  146MOL0     H20126   1.191   7.989  10.541  1.5705 -1.8492  1.3060
  146MOL0     H20127   1.065   7.996  10.683 -0.2064  2.8202  0.7272
  146MOL0     H20128   1.658   8.409  10.725  0.4772 -0.5544 -2.0709
  146MOL0     H20129   1.904   8.373  10.700 -0.1387 -1.8261 -4.0965
  146MOL0     H20130   2.162   8.347  10.756  2.5374 -3.8395  0.9359
  146MOL0     H20131   2.343   8.226  10.830 -1.4194 -0.5899 -2.3797
  146MOL0     H20132   4.257   7.721  11.208 -0.5247 -0.5136 -1.3469
  146MOL0     H20133   4.472   7.766  11.094  0.0572 -0.0247  1.9482
  146MOL0     H20134   4.874   8.182  11.046 -0.7282  4.2334  0.4990
  146MOL0     H20135   5.028   8.304  10.907  1.7176 -3.0709 -0.1047
  146MOL0     H20136   5.096   8.487  10.789  2.4176  1.1539 -0.5188
  146MOL0     H20137   5.147   8.329  10.719 -1.2265 -0.5169  2.2154
  146MOL0     H20138   5.263   8.521  10.648  1.3889 -1.2885 -2.3604
  146MOL0     H20139   5.114   8.599  10.588 -2.1247 -0.5951 -1.3078
  146MOL0     H20140   5.284   8.392  10.440 -1.3250 -0.9843 -0.0464
  146MOL0     H20141   5.122   8.345  10.449  0.1138 -0.3012 -2.4910
  146MOL0     H20142   5.174   8.477  10.244 -0.0218  1.6224 -0.5512
  146MOL0     H20143   5.208   8.619  10.356  1.4869 -0.1091 -0.4556
  146MOL0     H20144   4.784   8.596  10.320  0.0582 -2.5108 -2.7687
  146MOL0     H20145   4.762   8.276  10.579 -2.0474 -1.2433  0.4453
  146MOL0     H20146   4.531   8.046  10.670 -2.2525  1.4581 -3.1650
  146MOL0     H20147   4.467   8.187  10.758  0.4597 -3.7882  2.5127
  146MOL0     H20148   4.555   8.205  10.602 -1.8413 -1.0954 -1.2915
  147MOL0     O20149   2.320   5.222   6.868 -0.9965  0.8128  0.1235
  147MOL0     C20150   2.362   5.232   6.753  0.6707  0.2431  0.0383
  147MOL0     O20151   2.473   5.308   6.709 -0.0628  0.0684  0.6013
  147MOL0     C20152   2.569   5.324   6.807  0.4044 -0.5231 -0.2763
  147MOL0     C20153   2.620   5.210   6.885 -0.3471 -1.2826 -0.1090
  147MOL0     C20154   2.709   5.236   6.997  0.4864  0.7314  0.0526
  147MOL0     C20155   2.757   5.369   7.029 -0.1230  0.4129  0.7115
  147MOL0     O20156   2.843   5.406   7.132  0.6731  0.2132  1.0140
  147MOL0     C20157   2.923   5.302   7.189  0.5004  0.2652  0.2914
  147MOL0     C20158   3.042   5.351   7.276 -0.3678 -0.5919 -1.4255
  147MOL0     C20159   3.138   5.418   7.184 -1.2252 -0.4730 -0.0102
  147MOL0     C20160   3.248   5.490   7.253 -0.0744 -0.4434 -0.2223
  147MOL0     C20161   3.357   5.573   7.175  0.2844 -0.2096 -0.4949
  147MOL0     C20162   3.424   5.490   7.071  0.8126  0.1233 -0.1022
  147MOL0     C20163   3.504   5.365   7.123 -0.1564 -0.0467 -0.8383
  147MOL0     C20164   3.534   5.270   7.014 -0.0509  0.6158 -0.5652
  147MOL0     N20165   3.669   5.208   7.026  0.1082 -0.6358  0.9414
  147MOL0     C20166   3.686   5.083   7.070 -1.0136 -0.9868 -0.4679
  147MOL0     C20167   3.818   5.067   7.072 -0.2971 -0.5635  0.0553
  147MOL0     C20168   3.881   4.934   7.092 -0.9850 -1.2881 -0.7439
  147MOL0     C20169   3.988   4.898   6.986 -0.1809 -0.4132  0.0607
  147MOL0     C20170   4.126   4.956   7.020 -0.6035 -0.6571  0.4770
  147MOL0     C20171   4.242   4.910   6.943  0.2205  0.7265  0.4845
  147MOL0     O20172   4.227   4.954   6.807  0.0460  0.0845  0.1037
  147MOL0     C20173   4.337   4.996   6.732  0.1374 -0.0403  0.2854
  147MOL0     C20174   4.321   5.022   6.596 -0.4601 -0.3890 -0.2901
  147MOL0     C20175   4.430   5.065   6.510 -0.4890  0.5023 -0.9728
  147MOL0     C20176   4.398   5.084   6.363 -0.2135 -0.2418  0.2658
  147MOL0     C20177   4.565   5.072   6.560  0.5583 -0.0485  0.3397
  147MOL0     C20178   4.687   5.099   6.483  0.7781  0.4696  0.7496
  147MOL0     O20179   4.719   5.001   6.391 -0.3078  0.2208  0.4934
  147MOL0     C20180   4.826   5.031   6.314 -0.3210 -0.7176  0.2286
  147MOL0     C20181   4.846   5.148   6.249 -0.6659 -0.6559 -0.2877
  147MOL0     C20182   4.961   5.162   6.166 -0.1900  0.3243 -0.3986
  147MOL0     C20183   5.045   5.049   6.145 -0.3304 -0.8957 -0.5988
  147MOL0     O20184   5.155   5.072   6.076  0.3007 -0.9940  0.1165
  147MOL0     C20185   5.134   5.042   5.936  0.6899  0.6457  0.6274
  147MOL0     C20186   5.271   5.069   5.866  0.2729 -0.1121  0.5546
  147MOL0     C20187   5.347   4.939   5.830  0.0594 -0.1123 -0.4331
  147MOL0     C20188   5.470   4.905   5.919  0.3167 -0.4722  0.1812
  147MOL0     C20189   5.555   4.793   5.862 -1.1518 -0.1704 -0.4914
  147MOL0     C20190   5.673   4.779   5.957  0.3355 -0.3748 -0.1130
  147MOL0     C20191   5.652   4.749   6.106  0.0328 -0.6274 -0.4384
  147MOL0     C20192   5.551   4.622   6.119 -0.4859 -0.3859  0.9582
  147MOL0    Cl20193   5.604   4.487   6.020  0.3410 -0.0489  0.0603
  147MOL0     C20194   5.022   4.930   6.210  0.2557 -0.1265 -0.3531
  147MOL0     C20195   4.904   4.922   6.287  0.1139 -0.5879 -0.6592
  147MOL0     O20196   4.771   5.167   6.547  0.3259  1.1326  0.3547
  147MOL0     C20197   4.576   5.033   6.699 -0.2812 -0.7932  0.2622
  147MOL0     C20198   4.467   5.000   6.782  1.0245 -0.7181 -0.3446
  147MOL0     N20199   3.877   5.188   7.039 -0.4933  0.2284 -0.1334
  147MOL0     N20200   3.790   5.272   7.013  0.1890 -0.5111 -0.2078
  147MOL0     C20201   2.709   5.475   6.937  0.4417  0.4229  0.2856
  147MOL0     C20202   2.611   5.453   6.841 -0.0483 -0.3742  0.0846
  147MOL0     C20203   2.280   5.135   6.661  0.3440  0.5153  0.1248
  147MOL0     C20204   2.161   5.068   6.708 -0.0848  0.1290 -0.5025
  147MOL0     C20205   2.072   4.995   6.622  0.5264 -0.3073 -0.4927
  147MOL0     C20206   2.095   4.975   6.493 -0.5090 -0.1147  0.6963
  147MOL0     O20207   2.032   4.891   6.404 -0.3485 -0.4016 -0.2046
  147MOL0     C20208   1.919   4.816   6.438 -0.6991 -0.3582 -0.9708
  147MOL0     C20209   1.870   4.729   6.323  0.6648  0.4892  0.9743
  147MOL0     C20210   1.749   4.646   6.374  0.5398  0.6709  0.0859
  147MOL0     C20211   1.623   4.732   6.362  0.3840 -0.6056 -0.4045
  147MOL0     C20212   1.502   4.666   6.394  0.0678  0.1977 -0.3282
  147MOL0     C20213   1.399   4.597   6.392  0.2063 -0.8784  0.0511
  147MOL0     C20214   2.207   5.035   6.446 -0.1967 -0.3152 -0.4786
  147MOL0     C20215   2.302   5.107   6.523 -0.2843 -0.5104 -0.2622
  147MOL0     C20216   2.408   5.191   6.457  0.0180 -0.2713  0.3081
  147MOL0     H20217   2.588   5.112   6.852 -0.0289 -1.3599 -0.1856
  147MOL0     H20218   2.741   5.154   7.061  2.2404  0.3152 -1.2642
  147MOL0     H20219   2.975   5.248   7.110  1.3200  0.4397  0.7012
  147MOL0     H20220   2.856   5.230   7.238 -3.7808  2.3001 -2.0091
  147MOL0     H20221   3.010   5.417   7.358 -2.9071 -1.0678 -1.9298
  147MOL0     H20222   3.102   5.270   7.317  2.7733  0.7056 -3.1369
  147MOL0     H20223   3.171   5.338   7.117 -0.2328  1.1754 -1.5755
  147MOL0     H20224   3.091   5.493   7.119  0.6986 -0.3356 -1.3072
  147MOL0     H20225   3.211   5.570   7.318  0.9675  1.6304 -2.0422
  147MOL0     H20226   3.315   5.426   7.312  1.1671  2.0641  1.2655
  147MOL0     H20227   3.425   5.622   7.245 -0.6921  1.1777 -0.4822
  147MOL0     H20228   3.305   5.658   7.130 -4.7578 -2.9060 -0.4170
  147MOL0     H20229   3.351   5.457   6.996 -0.3068  2.1728  0.0116
  147MOL0     H20230   3.487   5.556   7.012 -0.8125  2.2710  0.4387
  147MOL0     H20231   3.455   5.310   7.203 -1.0408  3.5162  1.3257
  147MOL0     H20232   3.596   5.414   7.158 -1.3049  1.2159  0.5189
  147MOL0     H20233   3.461   5.189   7.019 -1.2164  1.7289  2.3005
  147MOL0     H20234   3.528   5.323   6.918 -0.4444 -2.6611 -2.4736
  147MOL0     H20235   3.609   5.011   7.097 -1.8846 -0.2645 -0.9787
  147MOL0     H20236   3.802   4.859   7.082 -0.7706 -1.5218 -0.6908
  147MOL0     H20237   3.909   4.911   7.195 -0.6962  0.0659 -0.5030
  147MOL0     H20238   4.006   4.790   6.975  3.0031  0.0241  0.1952
  147MOL0     H20239   3.955   4.941   6.891 -2.1145 -1.3824  0.2419
  147MOL0     H20240   4.122   5.065   7.025  1.9894 -0.4075 -0.9878
  147MOL0     H20241   4.152   4.926   7.122  1.4013  3.3408  1.3047
  147MOL0     H20242   4.332   4.956   6.984  0.9018  0.7032 -0.9552
  147MOL0     H20243   4.250   4.801   6.950  3.8692  0.4621 -3.4732
  147MOL0     H20244   4.226   5.002   6.547 -0.9616  1.9333 -0.3568
  147MOL0     H20245   4.398   5.192   6.350 -1.2053 -0.3727 -0.9393
  147MOL0     H20246   4.305   5.037   6.332  3.0403 -5.5174 -3.2555
  147MOL0     H20247   4.475   5.050   6.293 -1.1023  1.5804 -1.7018
  147MOL0     H20248   4.785   5.237   6.261 -0.6603 -0.4936 -1.3654
  147MOL0     H20249   4.973   5.262   6.126 -3.2741  1.8290  2.0290
  147MOL0     H20250   5.111   4.936   5.919  1.8322  0.8995 -3.4669
  147MOL0     H20251   5.055   5.105   5.894  0.2923 -1.0375 -1.3180
  147MOL0     H20252   5.247   5.132   5.780 -3.1864  0.2025  1.6181
  147MOL0     H20253   5.329   5.139   5.927 -1.9731  0.0360  2.7046
  147MOL0     H20254   5.367   4.935   5.723  4.8958 -1.3383  0.2985
  147MOL0     H20255   5.280   4.853   5.842 -0.7612  0.6641  0.7655
  147MOL0     H20256   5.432   4.879   6.018  0.0948  0.5166  0.3678
  147MOL0     H20257   5.532   4.995   5.932  1.6421 -1.1772 -0.8865
  147MOL0     H20258   5.497   4.700   5.861 -0.2457 -0.7953  1.3321
  147MOL0     H20259   5.596   4.812   5.763 -0.0991  0.1865  0.0033
  147MOL0     H20260   5.747   4.860   5.958  1.8521 -1.6746 -1.0957
  147MOL0     H20261   5.734   4.702   5.910  0.1876  0.2133 -1.3229
  147MOL0     H20262   5.627   4.837   6.166 -0.4820  1.7705 -3.8698
  147MOL0     H20263   5.746   4.719   6.154 -0.8532 -0.4569  1.4625
  147MOL0     H20264   5.449   4.654   6.097 -0.0984  1.0965  1.2167
  147MOL0     H20265   5.569   4.601   6.225  3.2772 -0.2921  0.4812
  147MOL0     H20266   5.095   4.852   6.189  2.2696  1.4626  0.4223
  147MOL0     H20267   4.875   4.835   6.345 -2.7475  1.4459  1.2374
  147MOL0     H20268   4.678   5.034   6.735  0.4009  0.2366 -1.5752
  147MOL0     H20269   4.499   4.964   6.880  1.9356 -1.0358 -0.7430
  147MOL0     H20270   2.737   5.575   6.969 -2.9511  1.6508 -0.1612
  147MOL0     H20271   2.568   5.530   6.779 -0.0503 -3.4836 -4.2829
  147MOL0     H20272   2.119   5.085   6.806  1.5400  0.8228  0.1100
  147MOL0     H20273   1.982   4.964   6.673  0.6466 -4.3027 -2.3798
  147MOL0     H20274   1.946   4.775   6.536  3.0594  1.9226 -0.8396
  147MOL0     H20275   1.832   4.881   6.452 -0.7665 -0.7469  0.5020
  147MOL0     H20276   1.960   4.670   6.298 -0.1769 -0.7389  0.7548
  147MOL0     H20277   1.846   4.774   6.226  1.1728 -1.4572 -0.1294
  147MOL0     H20278   1.717   4.566   6.307  0.1335  1.4710 -0.7039
  147MOL0     H20279   1.757   4.600   6.473 -1.6678  0.1248  0.0685
  147MOL0     H20280   1.618   4.779   6.264  0.0067  1.6587  0.6292
  147MOL0     H20281   1.627   4.812   6.436 -2.5866 -0.5725 -0.1531
  147MOL0     H20282   1.301   4.556   6.381 -0.4894  1.1264 -2.0730
  147MOL0     H20283   2.225   5.008   6.342  2.8557 -2.9864  0.5840
  147MOL0     H20284   2.503   5.176   6.508 -1.8197 -0.5693  3.9658
  147MOL0     H20285   2.409   5.172   6.349 -1.1258 -2.4125  0.6290
  147MOL0     H20286   2.385   5.297   6.474  1.2047 -0.1326  1.1749
  148MOL0     O20287   2.033   5.508   3.076 -0.3245  0.5853 -0.1573
  148MOL0     C20288   1.926   5.563   3.083  0.1583 -0.3088  0.0457
  148MOL0     O20289   1.871   5.623   2.974 -0.4919  0.0088 -0.5888
  148MOL0     C20290   1.934   5.634   2.852  0.0763  0.1882  1.5945
  148MOL0     C20291   2.070   5.659   2.829  0.6121  0.3215  0.7179
  148MOL0     C20292   2.113   5.685   2.694  0.9929  0.1274 -1.6166
  148MOL0     C20293   2.029   5.666   2.586 -0.2480  0.0152  0.7706
  148MOL0     O20294   2.084   5.668   2.459  0.5500 -0.1341  0.2692
  148MOL0     C20295   2.044   5.570   2.367  1.1819  1.1034 -0.5053
  148MOL0     C20296   2.157   5.488   2.321 -0.5250  0.3354  0.4071
  148MOL0     C20297   2.250   5.426   2.423  0.6083  0.0928  0.3305
  148MOL0     C20298   2.370   5.350   2.360  0.3834  0.4617  0.0265
  148MOL0     C20299   2.492   5.295   2.436 -0.2125  0.3559 -0.5727
  148MOL0     C20300   2.445   5.213   2.555 -0.1881  0.4045  0.5198
  148MOL0     C20301   2.433   5.300   2.683 -0.7318  0.3032  0.4807
  148MOL0     C20302   2.381   5.223   2.814 -0.1086 -0.9390  0.0440
  148MOL0     N20303   2.246   5.162   2.792 -0.5211  0.3654  0.0410
  148MOL0     C20304   2.123   5.224   2.835 -0.3558  0.5160 -0.5833
  148MOL0     C20305   2.030   5.138   2.802  0.4958  0.7689 -0.4325
  148MOL0     C20306   1.878   5.160   2.820 -1.3100 -0.3114  0.5888
  148MOL0     C20307   1.796   5.037   2.843 -0.3420  1.2746  0.5125
  148MOL0     C20308   1.820   4.966   2.975  0.2195 -0.3954  1.4670
  148MOL0     C20309   1.777   4.821   2.971 -0.1086 -0.9447 -0.2469
  148MOL0     O20310   1.637   4.797   2.984 -0.8222 -0.2579 -0.5186
  148MOL0     C20311   1.577   4.823   3.111  0.5642 -0.0684 -0.3186
  148MOL0     C20312   1.631   4.804   3.240 -0.1113  0.3805  0.6241
  148MOL0     C20313   1.548   4.826   3.355 -0.6609 -0.3923 -0.1747
  148MOL0     C20314   1.600   4.782   3.486  0.3218 -0.0753  0.3966
  148MOL0     C20315   1.423   4.894   3.350  0.4085 -0.3255  0.3960
  148MOL0     C20316   1.334   4.925   3.464  0.4134  0.5209  0.2694
  148MOL0     O20317   1.387   4.918   3.595 -0.1373 -0.0113  0.5961
  148MOL0     C20318   1.295   4.940   3.700  0.7572  0.1707 -0.0252
  148MOL0     C20319   1.208   4.832   3.722 -0.1005  0.3124  0.0173
  148MOL0     C20320   1.115   4.843   3.823 -0.4623 -0.1831  0.1418
  148MOL0     C20321   1.110   4.953   3.911 -0.2437 -0.0392  0.7749
  148MOL0     O20322   1.008   4.967   3.999  0.0367 -0.0127 -0.5355
  148MOL0     C20323   0.906   4.870   4.016  0.6666 -0.5699  0.1605
  148MOL0     C20324   0.942   4.784   4.140  0.7931 -0.0867  0.4350
  148MOL0     C20325   0.864   4.657   4.138  0.7491 -0.2920  0.1090
  148MOL0     C20326   0.910   4.579   4.259  0.4092  0.0526 -0.1491
  148MOL0     C20327   0.880   4.435   4.268  0.2277  0.0837 -0.0369
  148MOL0     C20328   0.940   4.369   4.389 -0.2995  0.4507  0.1937
  148MOL0     C20329   0.915   4.209   4.394 -0.1547 -0.1488  0.6609
  148MOL0     C20330   0.966   4.130   4.515  0.8354 -0.0594 -1.1349
  148MOL0    Cl20331   1.156   4.128   4.520 -0.0998 -0.1394 -0.3898
  148MOL0     C20332   1.211   5.051   3.899 -0.1324  0.8376  0.5286
  148MOL0     C20333   1.298   5.038   3.792 -0.3457 -0.8118  0.9482
  148MOL0     O20334   1.215   4.945   3.436  0.2319  0.1294  0.0027
  148MOL0     C20335   1.373   4.914   3.214  0.5644 -0.5432  0.1962
  148MOL0     C20336   1.443   4.871   3.101  0.4795 -1.0897 -0.9802
  148MOL0     N20337   2.095   5.029   2.751  0.5189 -0.2727  0.6582
  148MOL0     N20338   2.219   5.050   2.733 -0.6480 -0.4059 -0.2455
  148MOL0     C20339   1.890   5.662   2.610 -0.9037  0.6886 -0.5940
  148MOL0     C20340   1.844   5.638   2.742  0.4293  0.4777 -0.7720
  148MOL0     C20341   1.843   5.576   3.211  0.2976 -0.0851  0.0290
  148MOL0     C20342   1.711   5.634   3.198 -1.2820  0.4384  0.7134
  148MOL0     C20343   1.637   5.668   3.310  0.9053  0.6062  0.9214
  148MOL0     C20344   1.690   5.662   3.438  1.1642 -1.3785  0.0856
  148MOL0     O20345   1.622   5.738   3.533 -0.3623  1.0423 -0.1000
  148MOL0     C20346   1.619   5.696   3.669  0.2686  0.5852  0.0144
  148MOL0     C20347   1.557   5.789   3.761  0.8363 -0.9044  0.0643
  148MOL0     C20348   1.403   5.781   3.753 -0.1997 -0.2880 -0.1370
  148MOL0     C20349   1.316   5.866   3.849 -0.3301 -0.4593 -0.5270
  148MOL0     C20350   1.238   5.959   3.778  0.1088 -1.0134  0.9780
  148MOL0     C20351   1.187   6.058   3.723  0.1114 -0.1579  0.3275
  148MOL0     C20352   1.815   5.606   3.453 -0.4252 -0.4424 -0.3371
  148MOL0     C20353   1.892   5.563   3.349  0.3212 -0.0700  1.3375
  148MOL0     C20354   2.028   5.506   3.393  0.8922 -0.7828  0.3805
  148MOL0     H20355   2.139   5.667   2.912  2.5175 -2.2038 -0.4954
  148MOL0     H20356   2.220   5.689   2.675  1.8194 -3.8405  0.9940
  148MOL0     H20357   1.987   5.601   2.279 -1.6272 -2.1498 -0.0262
  148MOL0     H20358   1.967   5.507   2.412 -0.2641  3.9945  1.4602
  148MOL0     H20359   2.128   5.406   2.254 -3.2241 -0.8841  2.8556
  148MOL0     H20360   2.224   5.555   2.267 -1.8481  0.6621 -0.9036
  148MOL0     H20361   2.291   5.508   2.483 -0.2058 -0.0805  1.1441
  148MOL0     H20362   2.200   5.354   2.489 -0.3579 -0.6581 -1.1726
  148MOL0     H20363   2.326   5.262   2.311 -0.4805  0.3120  1.0391
  148MOL0     H20364   2.403   5.416   2.279  1.4095  1.7773  1.4710
  148MOL0     H20365   2.551   5.380   2.472  0.1124  0.2353 -0.8168
  148MOL0     H20366   2.545   5.224   2.372 -3.4163 -1.6468 -1.2398
  148MOL0     H20367   2.350   5.161   2.545 -1.5517  2.8088  0.1856
  148MOL0     H20368   2.522   5.138   2.576 -0.1870 -0.7443 -3.0456
  148MOL0     H20369   2.363   5.382   2.662 -0.2161 -0.0622 -3.3520
  148MOL0     H20370   2.529   5.337   2.719 -0.5509  0.7560 -0.4366
  148MOL0     H20371   2.463   5.159   2.850 -0.2080  0.4310  2.9999
  148MOL0     H20372   2.370   5.298   2.893 -1.0256 -2.1904  1.1484
  148MOL0     H20373   2.123   5.322   2.883  4.4193 -0.0349  1.1213
  148MOL0     H20374   1.839   5.215   2.734 -0.6923  2.2767  1.8784
  148MOL0     H20375   1.865   5.230   2.902  0.3097  0.2532  0.4098
  148MOL0     H20376   1.688   5.054   2.843 -0.9481 -1.9309 -0.1943
  148MOL0     H20377   1.810   4.976   2.753  0.4859  3.2274 -0.7443
  148MOL0     H20378   1.927   4.975   2.994  0.6192  0.3823 -0.8525
  148MOL0     H20379   1.764   5.023   3.049 -1.5155 -0.6982  0.4397
  148MOL0     H20380   1.803   4.789   2.869 -0.7904 -0.5586 -0.5450
  148MOL0     H20381   1.827   4.762   3.048 -1.8376 -0.2689  1.4692
  148MOL0     H20382   1.731   4.763   3.248 -1.0206 -1.9860  0.7375
  148MOL0     H20383   1.527   4.731   3.550  1.6068 -1.5203  0.7716
  148MOL0     H20384   1.628   4.868   3.547 -3.0694  1.9464 -0.6307
  148MOL0     H20385   1.682   4.712   3.469 -0.1442 -0.5805  0.1642
  148MOL0     H20386   1.209   4.746   3.655 -0.2416  1.1349 -1.0671
  148MOL0     H20387   1.053   4.755   3.834  0.1127 -0.4195  1.6758
  148MOL0     H20388   0.818   4.932   4.034  0.7025 -0.9520  1.7306
  148MOL0     H20389   0.886   4.824   3.918 -0.2925  1.9465 -0.8992
  148MOL0     H20390   1.051   4.769   4.141  0.7043 -0.9087  2.5019
  148MOL0     H20391   0.918   4.837   4.233 -1.3452 -3.1047  1.7886
  148MOL0     H20392   0.883   4.617   4.039  3.8408  4.6611 -1.6768
  148MOL0     H20393   0.759   4.680   4.160  1.1300 -0.1560  2.0006
  148MOL0     H20394   0.867   4.614   4.354 -2.7863 -4.6166  0.4362
  148MOL0     H20395   1.018   4.588   4.273  0.3286 -0.2608  0.7854
  148MOL0     H20396   0.774   4.408   4.268  0.2160  0.1294  0.1675
  148MOL0     H20397   0.926   4.397   4.176 -1.2353 -2.0003  0.0001
  148MOL0     H20398   0.902   4.414   4.482  1.2063  0.0192  1.0636
  148MOL0     H20399   1.046   4.392   4.380 -0.1330 -0.7499 -1.1776
  148MOL0     H20400   0.975   4.180   4.307  0.3177 -0.7829  1.1883
  148MOL0     H20401   0.809   4.188   4.377 -0.2776  0.9780 -0.1080
  148MOL0     H20402   0.926   4.028   4.514 -0.2057  0.3067  0.0719
  148MOL0     H20403   0.913   4.167   4.603  1.6245  2.0004 -1.4779
  148MOL0     H20404   1.225   5.138   3.962 -2.4933  0.8465  1.1152
  148MOL0     H20405   1.376   5.113   3.786 -0.3597 -0.8187  0.6502
  148MOL0     H20406   1.273   4.951   3.193  1.7701  1.9321 -1.7315
  148MOL0     H20407   1.392   4.876   3.005 -0.8991 -0.4332 -0.2404
  148MOL0     H20408   1.821   5.657   2.527 -1.1381  0.1411 -0.3758
  148MOL0     H20409   1.746   5.597   2.764  1.3956 -1.8623 -0.5457
  148MOL0     H20410   1.674   5.641   3.097 -3.6166  1.4196  1.5755
  148MOL0     H20411   1.539   5.715   3.307  1.4890  1.9359 -2.3902
  148MOL0     H20412   1.576   5.596   3.679 -0.9307  1.2115  1.4802
  148MOL0     H20413   1.724   5.688   3.701  0.3253 -1.7704 -0.5332
  148MOL0     H20414   1.600   5.888   3.745 -1.8886  0.5528  0.9754
  148MOL0     H20415   1.584   5.758   3.863  1.4207 -1.2391 -0.1881
  148MOL0     H20416   1.372   5.805   3.651 -2.3843 -1.0057  0.2955
  148MOL0     H20417   1.374   5.676   3.762  1.0775 -0.5349  1.5573
  148MOL0     H20418   1.362   5.917   3.933  0.2509 -2.3724  0.3633
  148MOL0     H20419   1.244   5.798   3.895 -2.3911  1.4055 -0.8156
  148MOL0     H20420   1.125   6.135   3.683  0.9137  0.0730 -0.5165
  148MOL0     H20421   1.866   5.616   3.548  1.3311 -0.4622 -1.2394
  148MOL0     H20422   2.074   5.442   3.318  3.1111 -0.2997  1.2616
  148MOL0     H20423   2.095   5.586   3.426  1.5808 -1.6212  1.0503
  148MOL0     H20424   2.011   5.437   3.476 -1.9895 -1.4514 -0.6505
  149MOL0     O20425   1.272   1.981   2.840  0.9002  0.7762 -0.4303
  149MOL0     C20426   1.256   2.068   2.924 -0.2759 -0.8968  0.1842
  149MOL0     O20427   1.325   2.173   2.946 -0.8260 -0.2666  0.8220
  149MOL0     C20428   1.440   2.213   2.883 -1.3298  0.3638  0.6320
  149MOL0     C20429   1.491   2.337   2.917 -0.2960 -0.5000 -0.3120
  149MOL0     C20430   1.610   2.393   2.872  0.2673 -0.2653  0.2474
  149MOL0     C20431   1.687   2.324   2.779  1.2751  0.1224  0.7592
  149MOL0     O20432   1.807   2.387   2.753  0.6331  0.1562 -0.0570
  149MOL0     C20433   1.897   2.308   2.683  0.3814  0.5141 -0.4227
  149MOL0     C20434   2.037   2.360   2.689 -1.1268 -0.0532  0.1842
  149MOL0     C20435   2.071   2.413   2.833  0.2480 -0.1363 -0.8188
  149MOL0     C20436   2.208   2.480   2.825  0.9416 -0.7274  0.5046
  149MOL0     C20437   2.265   2.533   2.955 -1.0220  0.5596  0.0724
  149MOL0     C20438   2.403   2.606   2.932 -0.0309  0.4173  0.2525
  149MOL0     C20439   2.522   2.551   3.009 -0.7358  0.3100 -0.2329
  149MOL0     C20440   2.651   2.636   3.002 -0.0381  0.2542  0.2747
  149MOL0     N20441   2.759   2.599   2.908 -0.8736  0.3288  0.2341
  149MOL0     C20442   2.758   2.606   2.767 -0.4513  0.4097 -0.4774
  149MOL0     C20443   2.877   2.565   2.729 -0.4522 -0.3787  0.0745
  149MOL0     C20444   2.925   2.553   2.583  0.5067 -0.6827 -0.5127
  149MOL0     C20445   3.020   2.669   2.558  0.8337 -0.1886  0.0954
  149MOL0     C20446   3.057   2.667   2.401  0.7408  0.1026 -0.4499
  149MOL0     C20447   3.178   2.756   2.373 -0.1091  0.3333  0.7034
  149MOL0     O20448   3.301   2.695   2.407 -0.0768 -1.3867  0.4310
  149MOL0     C20449   3.416   2.744   2.343  0.0577 -0.2615 -1.0548
  149MOL0     C20450   3.495   2.639   2.300  0.2322  0.2688  0.7356
  149MOL0     C20451   3.610   2.662   2.221 -0.4623  0.2667 -0.6464
  149MOL0     C20452   3.664   2.542   2.154  0.8117  0.0105 -0.8100
  149MOL0     C20453   3.666   2.795   2.213  1.8612 -0.8859  0.6694
  149MOL0     C20454   3.793   2.826   2.151  0.7472 -0.2983 -0.8204
  149MOL0     O20455   3.844   2.956   2.175  0.4397 -0.3474  0.4504
  149MOL0     C20456   3.961   3.006   2.118 -0.5928  0.3105 -0.3162
  149MOL0     C20457   4.010   2.963   1.998  0.0959 -0.9155  0.7201
  149MOL0     C20458   4.133   3.026   1.952 -0.4438  1.1961 -0.1157
  149MOL0     C20459   4.191   3.127   2.024 -0.7748 -0.0009  0.9294
  149MOL0     O20460   4.310   3.182   1.979  0.1643 -0.2098 -0.0162
  149MOL0     C20461   4.370   3.282   2.062 -0.1247 -0.8011  0.3162
  149MOL0     C20462   4.494   3.324   1.981 -0.6422  0.0549  0.3213
  149MOL0     C20463   4.570   3.432   2.057 -0.0811 -0.2272  1.1451
  149MOL0     C20464   4.606   3.395   2.198 -1.2677 -0.7126 -0.4278
  149MOL0     C20465   4.729   3.491   2.238 -0.3308 -0.2289 -0.2259
  149MOL0     C20466   4.766   3.464   2.376  0.9171 -0.5221 -0.3247
  149MOL0     C20467   4.866   3.562   2.425 -0.6526  0.0444  0.2212
  149MOL0     C20468   4.869   3.563   2.577 -0.9974 -0.2237  0.1457
  149MOL0    Cl20469   4.997   3.682   2.637  0.2311 -0.4104 -0.2770
  149MOL0     C20470   4.127   3.177   2.141  0.3353 -0.3628  1.2642
  149MOL0     C20471   4.018   3.107   2.183 -0.3468 -0.5241  0.6721
  149MOL0     O20472   3.848   2.744   2.086  0.3877  0.1350 -0.0128
  149MOL0     C20473   3.579   2.902   2.269 -0.0584 -0.1909 -0.2278
  149MOL0     C20474   3.452   2.881   2.317 -0.4433 -0.0778  0.4197
  149MOL0     N20475   2.952   2.521   2.839  1.7722  0.3171 -0.0690
  149MOL0     N20476   2.874   2.537   2.937  0.2998 -0.0098 -0.5301
  149MOL0     C20477   1.629   2.205   2.723 -0.8924  0.4583  0.0020
  149MOL0     C20478   1.510   2.153   2.779  0.0105  0.5093 -0.0443
  149MOL0     C20479   1.138   2.054   3.011 -0.9510 -0.1205 -0.5711
  149MOL0     C20480   1.173   2.064   3.149  1.3966 -0.1371  0.4729
  149MOL0     C20481   1.080   2.027   3.242 -0.0517  0.7519  0.1278
  149MOL0     C20482   0.955   1.976   3.213  0.0056 -0.4026  0.7151
  149MOL0     O20483   0.866   1.942   3.313  0.7604  0.1962 -0.2277
  149MOL0     C20484   0.917   1.941   3.447  0.5346  0.4309  0.2835
  149MOL0     C20485   0.824   1.864   3.538  0.1318 -0.1804 -1.0453
  149MOL0     C20486   0.771   1.745   3.470  0.1133  0.4451 -1.0165
  149MOL0     C20487   0.693   1.658   3.562 -0.0698  0.0633 -1.9328
  149MOL0     C20488   0.616   1.543   3.508 -1.4436 -1.2386 -0.7208
  149MOL0     C20489   0.552   1.451   3.472  0.4787 -0.0858 -0.2818
  149MOL0     C20490   0.923   1.964   3.080 -1.3612 -0.5149 -0.4680
  149MOL0     C20491   1.012   2.006   2.976  0.2912 -0.4130 -0.1310
  149MOL0     C20492   0.987   1.966   2.833  0.0174  0.5955 -0.0572
  149MOL0     H20493   1.439   2.388   2.997 -2.4682 -1.9417 -0.6974
  149MOL0     H20494   1.635   2.491   2.911  0.9383  0.0257 -0.8714
  149MOL0     H20495   1.878   2.288   2.577  0.9309  0.1665 -0.4578
  149MOL0     H20496   1.898   2.206   2.722 -2.8024  0.5311 -0.0188
  149MOL0     H20497   2.113   2.293   2.648  0.4811  1.9020 -0.2066
  149MOL0     H20498   2.049   2.436   2.612  3.0907 -1.4250 -0.7395
  149MOL0     H20499   2.007   2.500   2.851  2.5629  1.3446  0.8104
  149MOL0     H20500   2.064   2.335   2.909 -0.3118  1.2067  0.5518
  149MOL0     H20501   2.291   2.421   2.786  2.1328 -1.1541  3.4326
  149MOL0     H20502   2.208   2.562   2.753  0.6549  1.4971  2.8781
  149MOL0     H20503   2.278   2.456   3.033 -1.8097  0.9376  0.5861
  149MOL0     H20504   2.204   2.613   2.998 -0.4817  1.2001 -0.3388
  149MOL0     H20505   2.421   2.598   2.824 -1.4623  3.0070 -0.2838
  149MOL0     H20506   2.384   2.710   2.961  1.7267  1.0720 -0.7760
  149MOL0     H20507   2.555   2.454   2.973 -0.7964 -0.3752  1.4825
  149MOL0     H20508   2.491   2.533   3.112 -1.7035 -0.7018 -0.6966
  149MOL0     H20509   2.623   2.741   2.987 -2.1528 -0.5581 -1.8786
  149MOL0     H20510   2.694   2.635   3.103  0.8110  0.2696 -0.0784
  149MOL0     H20511   2.684   2.645   2.698  0.0934 -0.8014 -1.7862
  149MOL0     H20512   2.838   2.562   2.518 -0.8460 -0.5064  1.2578
  149MOL0     H20513   2.973   2.454   2.588 -1.2884 -1.6836 -1.9524
  149MOL0     H20514   2.977   2.761   2.599  3.1937  0.7303  0.6987
  149MOL0     H20515   3.113   2.649   2.613  3.5990  0.7274 -3.8331
  149MOL0     H20516   3.071   2.563   2.373 -2.0957  0.4058 -3.6015
  149MOL0     H20517   2.959   2.695   2.361 -1.1787  1.4497  4.4902
  149MOL0     H20518   3.169   2.778   2.266 -0.9796 -0.2659  0.6440
  149MOL0     H20519   3.169   2.849   2.430 -1.2135 -0.3677  1.7205
  149MOL0     H20520   3.459   2.539   2.320  1.4490 -0.6965 -1.5734
  149MOL0     H20521   3.593   2.462   2.175  0.5291 -0.1879 -2.4041
  149MOL0     H20522   3.762   2.514   2.193 -1.0280  0.6739  5.2603
  149MOL0     H20523   3.674   2.568   2.048  0.7757  1.2141 -0.5397
  149MOL0     H20524   3.982   2.878   1.938  1.8166  0.5851 -2.5007
  149MOL0     H20525   4.195   2.992   1.869  1.5293  2.0788  0.9468
  149MOL0     H20526   4.304   3.367   2.082 -2.3067 -2.2305 -0.4002
  149MOL0     H20527   4.416   3.222   2.141 -0.8745 -2.3968 -0.3984
  149MOL0     H20528   4.558   3.235   1.978  1.3615  1.4014  0.6878
  149MOL0     H20529   4.476   3.351   1.876  1.7761  0.7216  0.0094
  149MOL0     H20530   4.511   3.524   2.055 -1.1252 -0.4507  6.6509
  149MOL0     H20531   4.659   3.452   1.995 -2.3133 -0.8747 -2.5923
  149MOL0     H20532   4.631   3.289   2.208 -0.5513 -0.7192 -2.0000
  149MOL0     H20533   4.512   3.422   2.246 -0.9983 -0.4860 -0.0232
  149MOL0     H20534   4.811   3.482   2.167 -2.2993  0.3885 -2.6994
  149MOL0     H20535   4.700   3.595   2.220  1.2230  0.7077  2.2175
  149MOL0     H20536   4.806   3.362   2.375  4.4028  0.6966  0.4991
  149MOL0     H20537   4.682   3.458   2.446  0.8399 -3.0563 -0.5599
  149MOL0     H20538   4.853   3.657   2.373  1.7984  0.8230  0.8930
  149MOL0     H20539   4.966   3.528   2.398 -0.0242  0.6710  1.6220
  149MOL0     H20540   4.896   3.459   2.600  0.9607 -0.2383 -1.9072
  149MOL0     H20541   4.773   3.584   2.625 -3.0525 -3.7455 -2.0659
  149MOL0     H20542   4.146   3.265   2.200 -1.6248  1.1492 -0.2440
  149MOL0     H20543   3.976   3.133   2.280 -1.6204 -0.7416  0.1996
  149MOL0     H20544   3.615   3.003   2.247 -1.5873  0.3651 -0.2670
  149MOL0     H20545   3.392   2.960   2.361 -1.3323  0.1012 -1.0238
  149MOL0     H20546   1.675   2.150   2.642 -1.9968 -2.6826  1.3140
  149MOL0     H20547   1.477   2.057   2.739  1.6491 -0.4309  0.7388
  149MOL0     H20548   1.272   2.102   3.173  0.6221  2.3143  0.1231
  149MOL0     H20549   1.103   2.060   3.342 -1.1723  3.4963 -0.4321
  149MOL0     H20550   1.013   1.889   3.435  0.0637  0.0564 -2.5441
  149MOL0     H20551   0.928   2.041   3.490  1.4141  0.1758  0.6820
  149MOL0     H20552   0.748   1.934   3.573  4.2706  3.4716  1.7863
  149MOL0     H20553   0.890   1.833   3.620  2.6202  1.4772 -2.2721
  149MOL0     H20554   0.709   1.753   3.380  1.1132 -2.7206 -2.1247
  149MOL0     H20555   0.858   1.689   3.435  1.3959  1.9366 -0.3618
  149MOL0     H20556   0.617   1.718   3.612 -0.2615  0.1190 -2.2882
  149MOL0     H20557   0.768   1.611   3.626 -2.1199  0.2324  0.7460
  149MOL0     H20558   0.499   1.366   3.434  4.5527 -2.5051 -1.1775
  149MOL0     H20559   0.830   1.912   3.060  0.1566 -3.8714  0.5255
  149MOL0     H20560   1.065   1.904   2.788  0.0077  0.2525  0.3834
  149MOL0     H20561   0.890   1.918   2.816  1.3938 -3.1342  1.4421
  149MOL0     H20562   0.978   2.059   2.778 -0.0217 -0.3832 -1.7639
  150MOL0     O20563   3.134   1.514  11.182  0.8639  0.7402  0.4402
  150MOL0     C20564   3.101   1.396  11.210 -0.0167 -0.3149  0.7120
  150MOL0     O20565   2.983   1.336  11.191  0.5777 -0.3458  0.0434
  150MOL0     C20566   2.892   1.390  11.100  0.0902  0.6532  0.7163
  150MOL0     C20567   2.921   1.477  10.986 -0.2935 -0.8351 -0.8887
  150MOL0     C20568   2.823   1.532  10.907  0.1778 -0.8134  0.1535
  150MOL0     C20569   2.688   1.480  10.917 -0.1171 -0.6341 -0.5693
  150MOL0     O20570   2.610   1.537  10.818 -0.3993 -0.8050 -0.6694
  150MOL0     C20571   2.508   1.453  10.759 -1.1476  0.2983 -0.1728
  150MOL0     C20572   2.361   1.485  10.801  0.8002 -0.6859  0.1300
  150MOL0     C20573   2.323   1.512  10.946  1.3107  0.6049 -0.2404
  150MOL0     C20574   2.193   1.604  10.949 -1.0383 -0.9667  0.4243
  150MOL0     C20575   2.138   1.631  11.091  0.8851 -0.0655 -0.1897
  150MOL0     C20576   2.049   1.508  11.133 -0.6000  0.1657  0.4574
  150MOL0     C20577   1.938   1.557  11.223 -0.3180  0.1748 -0.4044
  150MOL0     C20578   1.873   1.435  11.297 -0.8181  0.0942  0.8200
  150MOL0     N20579   1.755   1.483  11.376  0.7405  0.3582  0.3314
  150MOL0     C20580   1.750   1.534  11.501  1.0643  0.0328  0.0396
  150MOL0     C20581   1.622   1.565  11.518  0.7302  0.9000  0.0434
  150MOL0     C20582   1.555   1.615  11.642  0.1520  0.4844  0.6962
  150MOL0     C20583   1.425   1.694  11.613 -0.3402  0.5548  0.6053
  150MOL0     C20584   1.347   1.713  11.741  0.4201 -0.3322  0.1666
  150MOL0     C20585   1.223   1.804  11.719  0.0755 -0.1715  0.8819
  150MOL0     O20586   1.131   1.795  11.830  0.0322  0.4362  0.1862
  150MOL0     C20587   1.023   1.883  11.829 -0.8242  0.2669 -0.9948
  150MOL0     C20588   0.964   1.942  11.716  0.2777  0.2702  0.3284
  150MOL0     C20589   0.851   2.026  11.732  0.5999  0.2568  0.1888
  150MOL0     C20590   0.781   2.089  11.610 -0.5482 -0.6377 -0.0553
  150MOL0     C20591   0.787   2.039  11.860 -1.0487 -0.9441  0.2456
  150MOL0     C20592   0.660   2.112  11.890 -0.3087 -0.5701  0.1582
  150MOL0     O20593   0.650   2.171  12.009 -0.2604 -0.7574 -0.2255
  150MOL0     C20594   0.525   2.220  12.039 -0.6765 -0.3094  0.7575
  150MOL0     C20595   0.465   2.166  12.153 -0.5963  0.2405  0.0368
  150MOL0     C20596   0.342   2.223  12.197  0.6731 -0.1944 -0.2059
  150MOL0     C20597   0.288   2.333  12.131 -0.0567  0.2494 -0.3876
  150MOL0     O20598   0.174   2.392  12.173  0.0250  0.2279  0.9443
  150MOL0     C20599   0.051   2.308  12.176  0.6232 -0.0034 -0.5208
  150MOL0     C20600   0.015   2.253  12.046 -0.1559  0.8082  0.0134
  150MOL0     C20601  -0.129   2.196  12.043  0.0354  0.3875  0.2153
  150MOL0     C20602  -0.183   2.159  11.902 -0.5315 -0.4724  0.0498
  150MOL0     C20603  -0.309   2.061  11.878 -0.7796 -0.9469 -0.1567
  150MOL0     C20604  -0.431   2.147  11.910  0.5512  0.4256 -0.7325
  150MOL0     C20605  -0.555   2.076  11.852  0.0127  0.0268  0.8221
  150MOL0     C20606  -0.677   2.165  11.877 -0.2678  0.9416 -0.3690
  150MOL0    Cl20607  -0.846   2.100  11.831  0.0581  0.1505  0.1921
  150MOL0     C20608   0.358   2.391  12.020 -0.1021 -0.1145  0.4281
  150MOL0     C20609   0.476   2.335  11.981 -0.0943 -0.2247 -0.0550
  150MOL0     O20610   0.573   2.106  11.807  0.2826 -0.7582  0.9179
  150MOL0     C20611   0.849   1.982  11.970 -0.1723 -0.1852 -0.1867
  150MOL0     C20612   0.967   1.909  11.952 -0.4343  0.1371 -0.5576
  150MOL0     N20613   1.549   1.525  11.404 -0.2515  0.7618 -0.5251
  150MOL0     N20614   1.631   1.481  11.315 -0.3272  0.5212  0.2156
  150MOL0     C20615   2.660   1.386  11.023  0.2619 -0.2401  0.2537
  150MOL0     C20616   2.758   1.347  11.115  0.3205 -0.6318 -0.0164
  150MOL0     C20617   3.210   1.323  11.277  0.2194 -0.3903 -0.4043
  150MOL0     C20618   3.164   1.272  11.396 -0.2798  1.4335  0.4535
  150MOL0     C20619   3.253   1.194  11.462 -0.1211 -1.0846  0.0011
  150MOL0     C20620   3.389   1.179  11.427  0.9490  1.1130  0.3509
  150MOL0     O20621   3.477   1.128  11.521  0.9190 -0.5209  0.4264
  150MOL0     C20622   3.590   1.055  11.469  0.5071 -0.5747 -0.7145
  150MOL0     C20623   3.710   1.148  11.462 -0.4552 -0.4980 -0.1828
  150MOL0     C20624   3.798   1.124  11.590 -0.0689  0.0844  1.0436
  150MOL0     C20625   3.926   1.194  11.607  0.1075  0.6569  0.4942
  150MOL0     C20626   3.911   1.333  11.634 -0.6212 -0.7939 -0.1967
  150MOL0     C20627   3.918   1.450  11.665 -0.7365  0.0221 -0.1412
  150MOL0     C20628   3.434   1.238  11.310  0.9195 -0.6268 -0.2241
  150MOL0     C20629   3.343   1.311  11.232  0.9075 -0.1830  0.7419
  150MOL0     C20630   3.394   1.367  11.097  0.2703  0.5992  0.2805
  150MOL0     H20631   3.025   1.495  10.962 -0.7494 -0.8075 -3.0201
  150MOL0     H20632   2.838   1.610  10.832 -0.0292  0.5176  1.4560
  150MOL0     H20633   2.529   1.356  10.803 -0.7501  1.9851  3.7661
  150MOL0     H20634   2.526   1.444  10.652 -1.9572 -2.0703 -0.1538
  150MOL0     H20635   2.332   1.573  10.742 -1.2635 -2.9850 -2.5227
  150MOL0     H20636   2.302   1.396  10.777 -0.7729  0.7966 -1.9135
  150MOL0     H20637   2.313   1.411  10.987  0.1444  1.1628  0.9144
  150MOL0     H20638   2.417   1.548  10.989  0.7140  0.4789  1.2367
  150MOL0     H20639   2.210   1.697  10.894 -4.5131  0.4437  1.4585
  150MOL0     H20640   2.111   1.560  10.893 -1.1193 -0.7996  0.4119
  150MOL0     H20641   2.058   1.705  11.077  0.0108 -1.0271 -0.4310
  150MOL0     H20642   2.214   1.660  11.164  0.2857 -0.6402  0.6790
  150MOL0     H20643   2.002   1.456  11.049  2.2524  0.7410 -1.6647
  150MOL0     H20644   2.113   1.447  11.198  0.9573 -0.7966 -1.8258
  150MOL0     H20645   1.859   1.611  11.170  0.1604  2.7147  1.3063
  150MOL0     H20646   1.984   1.628  11.293 -1.9827 -0.4874  1.4423
  150MOL0     H20647   1.837   1.367  11.219  2.0212 -1.1362  0.4800
  150MOL0     H20648   1.935   1.386  11.372  1.7295  2.0787  0.1744
  150MOL0     H20649   1.834   1.542  11.570  1.9294 -0.6942 -0.9098
  150MOL0     H20650   1.632   1.673  11.694  1.2598 -0.8429  0.6197
  150MOL0     H20651   1.531   1.527  11.703 -0.3096  0.2814  0.2333
  150MOL0     H20652   1.456   1.783  11.557  2.7969 -1.1576 -0.5931
  150MOL0     H20653   1.356   1.636  11.551  0.1034  2.1265 -1.4748
  150MOL0     H20654   1.321   1.618  11.788  0.4945  0.4586  1.8721
  150MOL0     H20655   1.409   1.758  11.819 -0.2707  2.0936 -0.5716
  150MOL0     H20656   1.242   1.906  11.685 -0.0884 -0.6819 -0.8263
  150MOL0     H20657   1.166   1.762  11.636  1.0445  0.3375 -0.0575
  150MOL0     H20658   0.995   1.918  11.615  1.0515 -2.7135  1.1957
  150MOL0     H20659   0.854   2.118  11.535 -0.6198 -0.9042 -0.2270
  150MOL0     H20660   0.732   2.181  11.644 -0.8944 -2.3344  4.8728
  150MOL0     H20661   0.707   2.023  11.565 -0.2766 -0.4205 -0.8319
  150MOL0     H20662   0.523   2.094  12.208 -0.3925  0.7536  0.5054
  150MOL0     H20663   0.282   2.193  12.282 -0.4649 -0.8104 -1.1777
  150MOL0     H20664   0.064   2.229  12.251  1.5018  0.2298 -0.4116
  150MOL0     H20665  -0.034   2.371  12.202  2.6668  3.1078 -0.8149
  150MOL0     H20666   0.028   2.327  11.966  2.0095 -1.0078 -1.4599
  150MOL0     H20667   0.084   2.169  12.032  1.1363  1.7868  0.3122
  150MOL0     H20668  -0.208   2.253  12.094  0.6907 -1.0626  3.0943
  150MOL0     H20669  -0.121   2.103  12.100  2.1757  0.8275  0.7276
  150MOL0     H20670  -0.103   2.107  11.847 -2.3729 -0.6551 -2.6526
  150MOL0     H20671  -0.199   2.254  11.850  1.7583 -0.9563 -1.7115
  150MOL0     H20672  -0.315   2.025  11.775  3.2199 -0.7743 -0.5899
  150MOL0     H20673  -0.294   1.974  11.943  1.1719 -0.1934  0.4481
  150MOL0     H20674  -0.425   2.252  11.878 -0.3126  1.4286  2.1208
  150MOL0     H20675  -0.444   2.133  12.017  1.4380  0.9769 -0.5509
  150MOL0     H20676  -0.567   1.976  11.894  0.3542  0.0710  1.0307
  150MOL0     H20677  -0.540   2.059  11.745 -0.4918 -3.9617  1.2136
  150MOL0     H20678  -0.668   2.268  11.841 -1.9254  1.1923 -0.1633
  150MOL0     H20679  -0.680   2.166  11.986  0.6773 -0.5476 -0.2962
  150MOL0     H20680   0.315   2.486  11.990 -0.4696  0.2643  2.0204
  150MOL0     H20681   0.539   2.371  11.900  2.9673 -3.2674  0.7266
  150MOL0     H20682   0.821   1.986  12.075 -1.8461 -2.1839 -0.4827
  150MOL0     H20683   1.015   1.862  12.038  1.3863  1.6494 -0.6864
  150MOL0     H20684   2.558   1.349  11.033  0.8208 -1.6294  1.1379
  150MOL0     H20685   2.731   1.279  11.195  0.1939 -0.7522 -0.1620
  150MOL0     H20686   3.066   1.290  11.438 -0.8237 -1.6465  0.7818
  150MOL0     H20687   3.229   1.159  11.562 -0.9100  0.0329  0.2296
  150MOL0     H20688   3.603   0.964  11.528  0.4295 -1.6317 -2.2504
  150MOL0     H20689   3.559   1.026  11.368 -1.3729 -2.1007  0.2282
  150MOL0     H20690   3.684   1.254  11.459 -0.2718 -0.4429  0.0929
  150MOL0     H20691   3.756   1.117  11.368 -0.8506 -0.2756 -0.4498
  150MOL0     H20692   3.737   1.143  11.679 -1.6777  1.0946 -0.2117
  150MOL0     H20693   3.812   1.017  11.578  1.2199  0.3820 -0.4455
  150MOL0     H20694   3.970   1.185  11.507  1.6679  1.0467  1.1235
  150MOL0     H20695   3.989   1.138  11.677 -0.3773  0.5224  0.8295
  150MOL0     H20696   3.937   1.543  11.713  1.9654 -1.1171  1.2196
  150MOL0     H20697   3.542   1.243  11.296  1.3095 -1.0411  2.1544
  150MOL0     H20698   3.496   1.329  11.083 -0.5974 -2.2508  1.0449
  150MOL0     H20699   3.330   1.353  11.009  2.8296  0.1827 -1.6556
  150MOL0     H20700   3.410   1.474  11.106  2.0354  0.2443  1.8694
  151MOL0     O20701   1.228   3.517   1.930  0.4299  0.1419  0.2541
  151MOL0     C20702   1.291   3.426   1.979  0.6428 -0.1295  0.2873
  151MOL0     O20703   1.407   3.389   1.939 -0.1632 -0.3985 -0.7407
  151MOL0     C20704   1.480   3.482   1.866  0.5480  1.4947  0.0414
  151MOL0     C20705   1.447   3.516   1.735 -0.2135  0.2182 -0.3324
  151MOL0     C20706   1.535   3.600   1.663 -0.1569  0.3604  0.4719
  151MOL0     C20707   1.655   3.644   1.713  0.6932 -0.4114  0.9179
  151MOL0     O20708   1.744   3.732   1.648  1.0293  0.3860 -0.8169
  151MOL0     C20709   1.887   3.727   1.671  0.9038 -0.3139  0.1595
  151MOL0     C20710   1.954   3.740   1.532 -0.7850  0.0748  0.4813
  151MOL0     C20711   1.922   3.613   1.443  0.6751  0.0361 -0.7111
  151MOL0     C20712   2.004   3.590   1.310 -0.1229 -0.3318  0.5662
  151MOL0     C20713   1.964   3.448   1.257  0.3422  0.1513 -0.0410
  151MOL0     C20714   1.977   3.468   1.105 -0.1947 -0.7180  0.1838
  151MOL0     C20715   1.963   3.345   1.023  0.2694 -0.8037 -0.4011
  151MOL0     C20716   2.085   3.301   0.944 -0.6524 -1.3111  0.1099
  151MOL0     N20717   2.136   3.401   0.838  0.1294  0.3656 -0.0803
  151MOL0     C20718   2.131   3.398   0.700  0.2817 -0.1292 -0.7842
  151MOL0     C20719   2.208   3.493   0.655 -0.0046 -0.1649  0.4025
  151MOL0     C20720   2.232   3.529   0.514  0.2786  0.3588 -0.0261
  151MOL0     C20721   2.300   3.411   0.435  0.2246 -0.5365  0.0045
  151MOL0     C20722   2.327   3.431   0.292  0.7476 -0.1970  0.3987
  151MOL0     C20723   2.312   3.293   0.220  0.2394  0.5923  0.3691
  151MOL0     O20724   2.374   3.175   0.288 -0.4868 -0.6045 -0.3908
  151MOL0     C20725   2.501   3.147   0.251  1.4179 -0.8588 -0.6708
  151MOL0     C20726   2.556   3.030   0.305 -0.0493 -0.0115 -0.4640
  151MOL0     C20727   2.693   2.992   0.290 -0.0578 -0.0447 -0.6246
  151MOL0     C20728   2.738   2.864   0.351  0.6550 -0.7815  0.7119
  151MOL0     C20729   2.784   3.082   0.222  0.2224  0.7824  0.7329
  151MOL0     C20730   2.926   3.047   0.203  0.1692 -0.1881  1.1777
  151MOL0     O20731   2.987   3.142   0.140  0.6379 -0.8286 -0.1271
  151MOL0     C20732   3.119   3.131   0.133  0.2625 -0.3576 -0.8061
  151MOL0     C20733   3.185   3.074   0.027 -0.4435  0.7114  0.5363
  151MOL0     C20734   3.325   3.073   0.011 -0.1632 -0.3396  0.2199
  151MOL0     C20735   3.399   3.136   0.108 -0.3808  0.3810  0.5187
  151MOL0     O20736   3.534   3.152   0.094  0.0043 -0.3847 -0.1603
  151MOL0     C20737   3.607   3.032   0.079 -0.6790 -0.4536  0.3928
  151MOL0     C20738   3.760   3.063   0.051  0.7103  0.5303  0.1164
  151MOL0     C20739   3.845   3.096   0.172 -0.0583  0.0774  0.2845
  151MOL0     C20740   3.809   3.238   0.219  0.3658  0.2477 -0.9785
  151MOL0     C20741   3.912   3.314   0.298 -0.0250 -0.2945 -0.0062
  151MOL0     C20742   3.947   3.234   0.434 -0.2265 -0.2648  0.6305
  151MOL0     C20743   4.079   3.291   0.504  0.8060  0.8058  0.7167
  151MOL0     C20744   4.081   3.270   0.655  1.0805  0.1979  0.2610
  151MOL0    Cl20745   4.082   3.085   0.691 -0.0003 -0.1693  0.0740
  151MOL0     C20746   3.329   3.195   0.217  1.0383  1.0886 -0.2189
  151MOL0     C20747   3.191   3.189   0.231 -0.0446 -0.7575  0.0374
  151MOL0     O20748   2.978   2.944   0.246  0.0755  0.7861  0.7261
  151MOL0     C20749   2.730   3.203   0.170  0.2432 -0.4349 -0.0904
  151MOL0     C20750   2.596   3.235   0.184  0.9473 -0.0361 -0.0583
  151MOL0     N20751   2.254   3.563   0.762 -0.0455 -0.0996  0.7596
  151MOL0     N20752   2.215   3.507   0.869 -0.1393 -1.6022  0.7811
  151MOL0     C20753   1.684   3.616   1.848  0.1571  1.0759  0.2650
  151MOL0     C20754   1.603   3.530   1.927 -0.1966  0.4956 -0.2823
  151MOL0     C20755   1.222   3.346   2.081  0.0128  1.1131 -0.5738
  151MOL0     C20756   1.215   3.210   2.077  0.3468  0.0649  0.5266
  151MOL0     C20757   1.145   3.140   2.170  0.0648 -0.0982  0.0106
  151MOL0     C20758   1.079   3.197   2.276  0.3038 -0.4173 -0.2500
  151MOL0     O20759   1.004   3.124   2.359  0.4297 -0.0200 -0.6879
  151MOL0     C20760   0.895   3.174   2.444  0.6700 -0.5601 -0.3459
  151MOL0     C20761   0.785   3.070   2.474  0.1646  0.1726 -0.2985
  151MOL0     C20762   0.760   2.975   2.353  0.3225  1.0799 -0.5102
  151MOL0     C20763   0.665   2.863   2.388 -0.0690 -0.5306  0.7653
  151MOL0     C20764   0.524   2.908   2.393 -0.5410  1.4978  0.8145
  151MOL0     C20765   0.403   2.918   2.409  0.8487 -0.2958  0.2607
  151MOL0     C20766   1.082   3.335   2.278 -0.1989 -0.5976  0.9767
  151MOL0     C20767   1.154   3.414   2.189  0.4894 -0.5437 -0.7431
  151MOL0     C20768   1.146   3.563   2.205  0.4146 -0.0156 -0.0502
  151MOL0     H20769   1.357   3.498   1.678  0.6570  0.1238 -1.7370
  151MOL0     H20770   1.506   3.633   1.564  1.6287 -2.0927 -0.9701
  151MOL0     H20771   1.919   3.645   1.735 -2.3230 -1.0467  0.9921
  151MOL0     H20772   1.910   3.810   1.739  0.8846  0.4226 -0.7180
  151MOL0     H20773   1.912   3.820   1.471  0.8433 -0.7105 -1.8023
  151MOL0     H20774   2.061   3.761   1.548 -0.1511 -3.0042  0.9851
  151MOL0     H20775   1.937   3.526   1.507  3.0888  2.2011  1.9535
  151MOL0     H20776   1.814   3.609   1.426  0.7627  0.5808 -1.4303
  151MOL0     H20777   1.973   3.670   1.242  1.6142 -0.8410 -0.9017
  151MOL0     H20778   2.112   3.600   1.318 -0.1597 -0.3761  1.1624
  151MOL0     H20779   1.858   3.421   1.260  0.7901 -1.7544  0.1050
  151MOL0     H20780   2.022   3.371   1.308 -0.6720  0.9874  2.5349
  151MOL0     H20781   1.916   3.554   1.077  2.2857  1.5793  1.4223
  151MOL0     H20782   2.076   3.513   1.093 -0.4499  0.6272  2.5774
  151MOL0     H20783   1.881   3.359   0.952 -0.1019  3.5384  0.5968
  151MOL0     H20784   1.933   3.267   1.094  1.2818  1.0786  2.2432
  151MOL0     H20785   2.165   3.295   1.018  0.8951  3.1321 -0.8576
  151MOL0     H20786   2.077   3.205   0.893  1.6773 -2.3396  1.5349
  151MOL0     H20787   2.068   3.324   0.652 -2.2397  0.7225  1.0162
  151MOL0     H20788   2.281   3.626   0.499  0.0623  1.1925  3.7172
  151MOL0     H20789   2.138   3.536   0.459  0.3026 -1.5184 -0.3761
  151MOL0     H20790   2.394   3.379   0.481  0.0371  0.6810  1.3075
  151MOL0     H20791   2.224   3.334   0.452  0.5060 -1.2091 -1.5751
  151MOL0     H20792   2.251   3.499   0.253 -0.7769 -1.5082  0.9988
  151MOL0     H20793   2.427   3.475   0.281  0.7856  0.2755  2.3802
  151MOL0     H20794   2.207   3.262   0.222  0.4546 -0.1845  2.9105
  151MOL0     H20795   2.340   3.302   0.115 -0.6694  1.7037  0.1966
  151MOL0     H20796   2.487   2.976   0.368 -1.5371  1.4358 -0.7852
  151MOL0     H20797   2.826   2.880   0.414 -0.6971  1.9649  2.0309
  151MOL0     H20798   2.758   2.787   0.276 -0.9778 -0.4482 -0.1047
  151MOL0     H20799   2.660   2.831   0.420  0.4020  0.0192  0.8149
  151MOL0     H20800   3.121   3.040  -0.054 -0.2041 -0.3504  0.7656
  151MOL0     H20801   3.362   3.026  -0.080 -0.1191 -1.9747  1.0462
  151MOL0     H20802   3.598   2.973   0.171  0.6270  1.2821  1.7179
  151MOL0     H20803   3.571   2.975  -0.007 -0.2959  0.6425 -0.5244
  151MOL0     H20804   3.795   2.974  -0.004 -2.2562 -0.5338 -0.2492
  151MOL0     H20805   3.765   3.141  -0.025 -1.4713 -0.7091 -1.4351
  151MOL0     H20806   3.953   3.100   0.158 -0.2468  2.3723 -1.1101
  151MOL0     H20807   3.826   3.028   0.256  1.2754 -0.6187  0.0522
  151MOL0     H20808   3.714   3.233   0.273  1.4949 -0.5656  1.0552
  151MOL0     H20809   3.784   3.301   0.133  4.1544  2.9633 -0.3442
  151MOL0     H20810   4.001   3.314   0.234 -0.3133 -2.8162 -0.4976
  151MOL0     H20811   3.879   3.417   0.316  2.7285  1.6188 -4.1861
  151MOL0     H20812   3.964   3.128   0.411  3.7929  0.6527 -1.5761
  151MOL0     H20813   3.862   3.246   0.501 -1.6672  1.0648 -1.3723
  151MOL0     H20814   4.083   3.396   0.475  6.6332  0.7523  0.0901
  151MOL0     H20815   4.164   3.235   0.462  1.9367 -0.0258  3.8303
  151MOL0     H20816   3.997   3.329   0.691  1.6789  2.5290 -1.8628
  151MOL0     H20817   4.167   3.321   0.697  2.1745  0.0975 -1.7253
  151MOL0     H20818   3.381   3.251   0.295  1.8468 -0.8255  0.6740
  151MOL0     H20819   3.134   3.232   0.313 -0.8383 -0.7205 -0.5246
  151MOL0     H20820   2.767   3.283   0.106 -3.2986  0.1012 -1.7475
  151MOL0     H20821   2.557   3.325   0.138  0.9438 -0.5031 -1.0033
  151MOL0     H20822   1.783   3.639   1.887  0.8021  3.4930 -2.4926
  151MOL0     H20823   1.635   3.502   2.027 -4.2762  0.4679  1.1743
  151MOL0     H20824   1.266   3.169   1.991 -2.7278 -1.3346 -0.7797
  151MOL0     H20825   1.144   3.032   2.160  0.4614 -0.4305  2.7588
  151MOL0     H20826   0.933   3.202   2.543  0.8332 -2.1121  0.0611
  151MOL0     H20827   0.845   3.257   2.393 -2.2112 -0.4921  2.3092
  151MOL0     H20828   0.692   3.124   2.495 -0.0030  0.1491 -0.9512
  151MOL0     H20829   0.807   3.013   2.565 -1.5914  3.7999  2.6755
  151MOL0     H20830   0.727   3.028   2.263  0.5868  1.5585 -0.3276
  151MOL0     H20831   0.859   2.929   2.343 -0.7978 -1.9711  0.9375
  151MOL0     H20832   0.702   2.806   2.474 -1.4567  0.1043  1.8240
  151MOL0     H20833   0.676   2.797   2.301  3.3129 -0.4429  0.9897
  151MOL0     H20834   0.299   2.938   2.426  0.5645 -1.4717 -0.0194
  151MOL0     H20835   1.022   3.380   2.355  0.8027 -0.9287  1.9714
  151MOL0     H20836   1.236   3.617   2.175 -0.0760 -0.1795 -1.9755
  151MOL0     H20837   1.067   3.608   2.144  1.1313  0.4171 -0.6745
  151MOL0     H20838   1.132   3.581   2.312 -1.9272 -0.2288 -0.2601
  152MOL0     O20839   3.589   8.544  10.354  0.1924  0.3488  0.1244
  152MOL0     C20840   3.700   8.534  10.389  0.2513  0.2734 -0.3089
  152MOL0     O20841   3.808   8.552  10.306  0.5575  0.2571  0.0973
  152MOL0     C20842   3.799   8.585  10.172  0.9321  0.1359  0.3387
  152MOL0     C20843   3.732   8.701  10.118 -0.3953 -0.6075  0.0416
  152MOL0     C20844   3.739   8.720   9.980 -0.4417 -0.5761 -0.2280
  152MOL0     C20845   3.798   8.638   9.893  0.6841  0.3019  0.7771
  152MOL0     O20846   3.801   8.671   9.759 -0.1216 -0.1417  0.7596
  152MOL0     C20847   3.722   8.583   9.669 -0.3422 -0.3861 -0.4780
  152MOL0     C20848   3.575   8.540   9.716 -0.7131  0.1153 -0.1920
  152MOL0     C20849   3.490   8.665   9.705  0.0221 -0.3876 -0.1985
  152MOL0     C20850   3.345   8.619   9.684 -0.0030  0.0835 -0.5983
  152MOL0     C20851   3.295   8.527   9.795 -0.2143  0.6065 -0.2279
  152MOL0     C20852   3.149   8.494   9.772  0.2295  0.6944 -1.5216
  152MOL0     C20853   3.094   8.395   9.880  0.7253 -0.2503  0.0391
  152MOL0     C20854   3.052   8.265   9.807  0.4845 -0.5020  0.1194
  152MOL0     N20855   3.168   8.193   9.748  0.4719 -0.7819 -0.5136
  152MOL0     C20856   3.193   8.181   9.615 -0.7203 -0.0100 -0.0645
  152MOL0     C20857   3.311   8.115   9.603 -0.2128 -0.4982 -0.9581
  152MOL0     C20858   3.370   8.066   9.476  0.0994 -0.4183 -0.0442
  152MOL0     C20859   3.376   7.917   9.468 -0.7297  0.0854 -0.2876
  152MOL0     C20860   3.482   7.868   9.567 -0.7633  0.2192 -0.3829
  152MOL0     C20861   3.539   7.729   9.508  0.0550 -0.3389  0.1505
  152MOL0     O20862   3.649   7.687   9.588 -0.7965  0.7211 -0.0774
  152MOL0     C20863   3.765   7.664   9.522 -0.0061  0.6466 -1.0549
  152MOL0     C20864   3.829   7.766   9.454 -0.4122  0.6745 -0.3429
  152MOL0     C20865   3.953   7.764   9.402 -0.3891 -0.4044 -0.0896
  152MOL0     C20866   4.002   7.882   9.328 -0.4679  0.9776 -0.3275
  152MOL0     C20867   4.033   7.656   9.431 -0.8204 -1.3385  0.0437
  152MOL0     C20868   4.180   7.653   9.416 -0.7186 -0.4629  1.7862
  152MOL0     O20869   4.242   7.559   9.487 -0.1997 -0.2073 -0.4730
  152MOL0     C20870   4.372   7.594   9.537  0.1547  0.1183  0.0067
  152MOL0     C20871   4.412   7.725   9.569  0.3532  0.1554 -0.9680
  152MOL0     C20872   4.537   7.741   9.631 -0.2803 -0.2550 -0.5854
  152MOL0     C20873   4.622   7.631   9.667  1.7302 -1.1921  0.8509
  152MOL0     O20874   4.717   7.640   9.759 -0.9829  0.5797  0.0867
  152MOL0     C20875   4.827   7.735   9.723 -0.2141  1.1858 -0.2880
  152MOL0     C20876   4.872   7.788   9.861 -0.0151 -0.4495  0.0337
  152MOL0     C20877   4.943   7.694   9.952  0.9103 -0.8360  0.4785
  152MOL0     C20878   4.981   7.783  10.074  0.8858  0.7561 -0.2554
  152MOL0     C20879   4.884   7.766  10.191  0.0706 -0.5721 -0.1819
  152MOL0     C20880   4.875   7.620  10.247  0.5105  1.0115 -0.4384
  152MOL0     C20881   4.770   7.616  10.356 -0.7322 -0.4486  0.2040
  152MOL0     C20882   4.747   7.494  10.438  0.7903  0.3212  0.0926
  152MOL0    Cl20883   4.627   7.549  10.539 -0.0661  0.5987  0.1702
  152MOL0     C20884   4.580   7.500   9.629  0.9944 -0.2736 -0.4591
  152MOL0     C20885   4.450   7.478   9.572  1.3896 -0.8564 -1.0487
  152MOL0     O20886   4.240   7.722   9.329  0.3492 -0.9399  0.1403
  152MOL0     C20887   3.975   7.545   9.500 -0.5570  0.2952 -0.1816
  152MOL0     C20888   3.844   7.557   9.547  0.9051 -0.2044 -0.0502
  152MOL0     N20889   3.364   8.096   9.728  0.1344 -0.2028 -0.3146
  152MOL0     N20890   3.274   8.139   9.818 -0.5666  0.2119  0.5061
  152MOL0     C20891   3.856   8.521   9.940  0.2988 -0.0409 -0.2670
  152MOL0     C20892   3.851   8.492  10.077 -0.3454 -0.1593 -0.0047
  152MOL0     C20893   3.723   8.519  10.532 -0.0275 -0.3691 -0.5642
  152MOL0     C20894   3.837   8.442  10.562 -0.6876 -0.1026 -0.1230
  152MOL0     C20895   3.863   8.401  10.689  0.0540 -0.1181  0.1040
  152MOL0     C20896   3.786   8.442  10.795  0.7909 -0.5703  0.7150
  152MOL0     O20897   3.819   8.385  10.920 -0.1356 -0.5739  0.1454
  152MOL0     C20898   3.714   8.311  10.978 -0.1227  0.5305 -0.1984
  152MOL0     C20899   3.666   8.183  10.910 -0.3931  0.4038  0.1066
  152MOL0     C20900   3.761   8.065  10.941  0.0315  0.4793 -0.2631
  152MOL0     C20901   3.708   7.923  10.895 -0.0091 -0.3676  0.8197
  152MOL0     C20902   3.584   7.886  10.966 -0.6616 -0.9716  0.3191
  152MOL0     C20903   3.484   7.850  11.032 -0.2618 -0.1577  0.0357
  152MOL0     C20904   3.675   8.525  10.777  0.4953 -0.4265 -0.3447
  152MOL0     C20905   3.640   8.559  10.640  0.2280 -0.0846 -0.2641
  152MOL0     C20906   3.508   8.639  10.616 -0.5171  0.2296  0.9431
  152MOL0     H20907   3.682   8.760  10.194  2.1550  1.9438 -0.1035
  152MOL0     H20908   3.702   8.810   9.932  2.2794  0.2511 -0.9775
  152MOL0     H20909   3.784   8.496   9.644 -0.4104 -1.0514  1.4229
  152MOL0     H20910   3.709   8.627   9.570 -0.5705 -1.7958 -1.0939
  152MOL0     H20911   3.547   8.467   9.640  1.7608 -0.8388 -0.2616
  152MOL0     H20912   3.562   8.501   9.817 -2.4543 -2.2091 -1.2199
  152MOL0     H20913   3.510   8.726   9.794  3.1565 -1.1112 -0.2941
  152MOL0     H20914   3.517   8.728   9.620  0.2412  0.3584  0.4130
  152MOL0     H20915   3.281   8.708   9.684  3.0063  2.4191  0.7444
  152MOL0     H20916   3.326   8.560   9.594 -1.8350  1.2949 -1.0667
  152MOL0     H20917   3.336   8.565   9.889  2.0663 -1.7008 -0.1721
  152MOL0     H20918   3.345   8.436   9.760 -1.6136 -0.3751  0.2271
  152MOL0     H20919   3.090   8.586   9.784 -2.0313 -0.7032 -1.2727
  152MOL0     H20920   3.118   8.463   9.672 -2.6135  1.8063 -1.0969
  152MOL0     H20921   3.007   8.443   9.927  1.2009  0.8398 -0.1753
  152MOL0     H20922   3.154   8.365   9.966  0.7771 -0.7577 -0.1739
  152MOL0     H20923   2.997   8.201   9.876  1.2914 -1.0135  0.2895
  152MOL0     H20924   2.988   8.291   9.722  2.0975  1.1520 -0.6604
  152MOL0     H20925   3.118   8.201   9.539 -1.4319 -0.3856  0.5165
  152MOL0     H20926   3.468   8.114   9.471  0.7587 -1.6576  0.4751
  152MOL0     H20927   3.301   8.101   9.399 -3.5883 -2.6581  1.9363
  152MOL0     H20928   3.276   7.876   9.484 -0.7396 -0.9846 -2.6890
  152MOL0     H20929   3.393   7.881   9.366  0.7334  1.6899 -0.6433
  152MOL0     H20930   3.560   7.945   9.570 -0.1927 -0.3798  1.2061
  152MOL0     H20931   3.446   7.853   9.669  1.7122  2.3097  0.9042
  152MOL0     H20932   3.469   7.647   9.523 -1.5494  0.4863 -2.1927
  152MOL0     H20933   3.568   7.738   9.403  1.8234  3.5145  0.7808
  152MOL0     H20934   3.769   7.855   9.439 -0.4427  0.7715  0.3303
  152MOL0     H20935   4.091   7.921   9.379  0.7019 -0.4891 -1.1674
  152MOL0     H20936   3.929   7.963   9.324 -1.0421  0.6049  1.7285
  152MOL0     H20937   4.024   7.859   9.223 -1.2825 -1.6399  0.0181
  152MOL0     H20938   4.354   7.814   9.549 -0.0783  0.5794  1.7849
  152MOL0     H20939   4.562   7.843   9.661  0.1566 -0.7022  0.6317
  152MOL0     H20940   4.916   7.699   9.672 -1.2201 -0.4852 -0.9408
  152MOL0     H20941   4.790   7.821   9.668  2.3985  1.6304 -1.4812
  152MOL0     H20942   4.949   7.863   9.837 -1.1941  2.4785  4.2938
  152MOL0     H20943   4.792   7.825   9.926  1.4543 -0.8713  2.1862
  152MOL0     H20944   5.037   7.669   9.902  0.6577  0.2054 -0.5634
  152MOL0     H20945   4.878   7.607   9.962 -1.0116  0.5564  0.5742
  152MOL0     H20946   4.980   7.891  10.058 -1.4212  0.8334  0.0370
  152MOL0     H20947   5.082   7.758  10.108  1.0962  0.0901 -1.3455
  152MOL0     H20948   4.914   7.840  10.266  0.3993 -1.6214  0.7422
  152MOL0     H20949   4.794   7.807  10.144  2.9712  1.6495 -4.5222
  152MOL0     H20950   4.972   7.585  10.282  0.7811  2.4658  0.3597
  152MOL0     H20951   4.842   7.546  10.173  0.3430  2.6368 -2.0689
  152MOL0     H20952   4.683   7.643  10.295 -0.2848  1.0772  0.2136
  152MOL0     H20953   4.788   7.698  10.425  0.1214  0.6344 -1.2600
  152MOL0     H20954   4.830   7.467  10.503 -1.9509  0.3903  3.9223
  152MOL0     H20955   4.702   7.408  10.387 -3.0033  1.8828  0.4067
  152MOL0     H20956   4.644   7.422   9.672  1.1503  0.3644  0.5010
  152MOL0     H20957   4.412   7.379   9.551 -1.9775  0.1025  0.0016
  152MOL0     H20958   4.037   7.459   9.522 -1.2365  0.1716  1.4117
  152MOL0     H20959   3.806   7.480   9.614 -0.8056 -1.2232 -2.0816
  152MOL0     H20960   3.905   8.460   9.866 -2.0572  0.1387 -2.1058
  152MOL0     H20961   3.907   8.407  10.114 -0.1245  0.7670  1.9117
  152MOL0     H20962   3.910   8.415  10.487 -4.0873  0.9400 -4.1547
  152MOL0     H20963   3.945   8.331  10.700  1.6967 -0.9696 -9.1166
  152MOL0     H20964   3.746   8.278  11.078  2.0554 -1.0801 -1.3220
  152MOL0     H20965   3.623   8.370  10.987 -0.1036  0.2515  2.9139
  152MOL0     H20966   3.652   8.181  10.802 -0.7728 -4.0912  0.0488
  152MOL0     H20967   3.568   8.170  10.957 -0.3490  0.1710  0.1359
  152MOL0     H20968   3.859   8.081  10.896 -1.0451 -0.5697 -3.1904
  152MOL0     H20969   3.772   8.068  11.050  1.7462  1.0086 -0.4340
  152MOL0     H20970   3.788   7.851  10.915 -0.6411 -0.8864  1.5938
  152MOL0     H20971   3.703   7.907  10.787 -3.8230  1.6997  0.5188
  152MOL0     H20972   3.413   7.805  11.099  0.1652 -1.2926 -0.2427
  152MOL0     H20973   3.625   8.556  10.868  3.0482  1.2691  0.6083
  152MOL0     H20974   3.454   8.660  10.709 -2.1551 -2.4814  0.7137
  152MOL0     H20975   3.541   8.729  10.564  2.3986  0.5107  3.0306
  152MOL0     H20976   3.436   8.580  10.558  0.7550 -1.0884  0.6405
  153MOL0     O20977   3.317   8.117   0.809  0.4215 -0.8867 -0.9907
  153MOL0     C20978   3.228   8.095   0.732 -0.3677 -0.0297 -0.1821
  153MOL0     O20979   3.237   8.074   0.596  0.4434 -0.5262  0.4596
  153MOL0     C20980   3.360   8.077   0.529 -0.4670 -0.1310  0.0410
  153MOL0     C20981   3.472   8.157   0.565 -0.0790 -0.6259  0.2765
  153MOL0     C20982   3.600   8.133   0.519 -0.7465  0.5174  0.3841
  153MOL0     C20983   3.622   8.032   0.429 -0.3926  0.4237  0.5741
  153MOL0     O20984   3.735   7.987   0.366  0.0632  0.4801  0.1212
  153MOL0     C20985   3.822   7.919   0.456 -0.2733 -0.1731  0.3558
  153MOL0     C20986   3.853   7.782   0.396 -0.5298  0.7493  0.5099
  153MOL0     C20987   3.934   7.684   0.483 -0.7449 -0.6638  0.1637
  153MOL0     C20988   4.080   7.726   0.491 -0.5197  0.6093  0.6736
  153MOL0     C20989   4.154   7.602   0.437  0.1582 -0.0948 -1.1048
  153MOL0     C20990   4.309   7.612   0.434  0.2601 -0.7122 -0.5977
  153MOL0     C20991   4.364   7.626   0.577 -0.5611  0.8876 -0.3726
  153MOL0     C20992   4.513   7.594   0.583 -0.2312 -0.3043 -0.1811
  153MOL0     N20993   4.560   7.614   0.718 -0.4939 -0.9542 -0.6394
  153MOL0     C20994   4.644   7.711   0.760 -0.4655 -0.4652  1.4380
  153MOL0     C20995   4.676   7.685   0.890  0.3113  0.0099 -0.7558
  153MOL0     C20996   4.762   7.746   0.988 -0.2698  0.2985  0.3731
  153MOL0     C20997   4.679   7.853   1.062 -0.7117 -0.1985  0.0449
  153MOL0     C20998   4.745   7.916   1.185  0.2847  0.4322 -0.1929
  153MOL0     C20999   4.646   7.915   1.312 -0.0286  0.2101  0.9845
  153MOL0     O21000   4.694   7.949   1.446 -0.1043 -0.2102 -0.4641
  153MOL0     C21001   4.696   8.082   1.460 -0.0449  0.0385 -0.0361
  153MOL0     C21002   4.587   8.161   1.498  0.6124 -0.0831 -0.3665
  153MOL0     C21003   4.600   8.301   1.505  1.0719 -0.1055  0.0063
  153MOL0     C21004   4.463   8.378   1.537 -0.3332 -0.4459  0.2983
  153MOL0     C21005   4.721   8.360   1.471 -0.7294 -0.1694 -0.9331
  153MOL0     C21006   4.741   8.505   1.469 -0.4014 -0.0941 -0.7215
  153MOL0     O21007   4.688   8.571   1.574  0.4459  0.4156 -0.2261
  153MOL0     C21008   4.683   8.715   1.577  0.6813  0.4703  0.1590
  153MOL0     C21009   4.771   8.789   1.660 -0.1857  0.3052 -0.4938
  153MOL0     C21010   4.766   8.929   1.659  0.5401 -0.2283  0.1276
  153MOL0     C21011   4.680   8.998   1.569  0.0362 -0.2668  0.4689
  153MOL0     O21012   4.705   9.133   1.560  0.2045 -0.3342  0.2713
  153MOL0     C21013   4.650   9.221   1.456 -0.8804  0.1271 -0.5893
  153MOL0     C21014   4.758   9.255   1.346 -0.7166 -1.2208  0.3275
  153MOL0     C21015   4.706   9.382   1.267 -0.2670 -0.5875  0.8744
  153MOL0     C21016   4.799   9.422   1.147  0.5061 -0.4849 -0.1103
  153MOL0     C21017   4.797   9.578   1.123 -0.1043  1.0963  0.4794
  153MOL0     C21018   4.676   9.621   1.055  0.1736 -0.1906  0.4232
  153MOL0     C21019   4.693   9.762   0.996 -0.2669 -0.1425  0.8227
  153MOL0     C21020   4.559   9.805   0.926  0.1576  0.0396  0.8729
  153MOL0    Cl21021   4.556   9.971   0.858  0.0241 -0.2988 -0.3393
  153MOL0     C21022   4.592   8.922   1.490  0.2933 -0.7034  1.3365
  153MOL0     C21023   4.595   8.783   1.493  0.3350  0.7110 -0.5570
  153MOL0     O21024   4.789   8.557   1.371 -0.5145  0.1142  0.2856
  153MOL0     C21025   4.829   8.279   1.443 -0.1610  0.2656 -0.1181
  153MOL0     C21026   4.820   8.136   1.438  0.1319 -0.8782  0.7097
  153MOL0     N21027   4.608   7.567   0.926  0.0597  0.1606  0.0329
  153MOL0     N21028   4.541   7.529   0.823  0.0056  0.4966  0.1851
  153MOL0     C21029   3.516   7.970   0.372 -0.3746 -0.0541  0.4324
  153MOL0     C21030   3.384   7.988   0.424 -0.4365  0.0621 -0.9996
  153MOL0     C21031   3.101   8.087   0.780  0.9273  1.0860  0.0074
  153MOL0     C21032   3.034   7.973   0.739  0.2226  0.3573  0.0282
  153MOL0     C21033   2.895   7.969   0.751 -0.3264  0.3021 -0.3094
  153MOL0     C21034   2.824   8.079   0.805  0.1750  0.4994  0.5563
  153MOL0     O21035   2.686   8.089   0.810 -0.8474  0.4456  0.2430
  153MOL0     C21036   2.611   7.980   0.762 -0.7848 -0.4912  0.6366
  153MOL0     C21037   2.465   8.003   0.756 -0.3431  0.1144  0.3470
  153MOL0     C21038   2.387   8.013   0.884  0.7749 -0.7880  0.1192
  153MOL0     C21039   2.259   8.102   0.859  0.5761  0.5011 -0.4503
  153MOL0     C21040   2.287   8.241   0.842  0.1627  0.1656 -0.1501
  153MOL0     C21041   2.309   8.356   0.816 -0.1258 -0.7203  0.0365
  153MOL0     C21042   2.893   8.181   0.872  0.2557  0.3158 -0.4184
  153MOL0     C21043   3.027   8.192   0.849 -0.3320 -0.3853  0.3729
  153MOL0     C21044   3.090   8.325   0.885 -0.0796  0.7380 -0.5448
  153MOL0     H21045   3.475   8.239   0.636  0.4484  0.3519 -0.8372
  153MOL0     H21046   3.692   8.192   0.526  0.6223 -1.1800 -1.8701
  153MOL0     H21047   3.779   7.902   0.556  1.1046  0.2323  1.0419
  153MOL0     H21048   3.914   7.978   0.460 -0.3856  0.0917 -0.7458
  153MOL0     H21049   3.757   7.736   0.371  0.2665 -0.2249 -0.8842
  153MOL0     H21050   3.901   7.800   0.299 -1.0472 -0.4634  0.0179
  153MOL0     H21051   3.888   7.676   0.582 -4.1592  0.3617 -1.2033
  153MOL0     H21052   3.920   7.580   0.453 -1.3234 -1.1549  2.0364
  153MOL0     H21053   4.102   7.819   0.438  0.8862 -0.5911 -0.9800
  153MOL0     H21054   4.117   7.748   0.591  0.1560 -0.2100  0.6254
  153MOL0     H21055   4.109   7.577   0.340  0.0714 -1.1750 -0.8016
  153MOL0     H21056   4.140   7.514   0.500  1.4301  1.0686  0.8882
  153MOL0     H21057   4.346   7.520   0.387  1.7055 -0.0235 -0.8831
  153MOL0     H21058   4.336   7.701   0.375 -3.0288  1.8993  1.4546
  153MOL0     H21059   4.315   7.557   0.646  4.6503 -2.2993  0.6773
  153MOL0     H21060   4.343   7.725   0.620 -2.2254  1.0548 -1.4833
  153MOL0     H21061   4.540   7.491   0.557  0.7349 -0.5250  1.5402
  153MOL0     H21062   4.560   7.657   0.507  0.4042 -0.8542 -0.2460
  153MOL0     H21063   4.681   7.789   0.695  2.5459 -0.8206  2.5824
  153MOL0     H21064   4.841   7.800   0.936 -0.6389  0.6592  0.1920
  153MOL0     H21065   4.806   7.667   1.050 -1.7972 -0.7617  0.1415
  153MOL0     H21066   4.645   7.937   1.001 -0.0164  0.6433  0.7748
  153MOL0     H21067   4.591   7.802   1.101 -0.7550  1.2857  2.0490
  153MOL0     H21068   4.838   7.866   1.212  0.6989  0.0582 -2.1568
  153MOL0     H21069   4.765   8.021   1.164 -0.0599  0.7494  0.9941
  153MOL0     H21070   4.565   7.982   1.280 -0.0487  0.4646  1.5514
  153MOL0     H21071   4.602   7.816   1.324  2.0204 -0.6168  2.2197
  153MOL0     H21072   4.489   8.118   1.515  0.2544  0.2114 -1.5389
  153MOL0     H21073   4.379   8.309   1.545 -1.2469  0.0998 -3.0695
  153MOL0     H21074   4.450   8.438   1.447  1.0276 -2.1483 -1.1123
  153MOL0     H21075   4.460   8.446   1.623  2.9672 -0.8365  0.8501
  153MOL0     H21076   4.839   8.740   1.729  0.8275  0.0129 -1.6748
  153MOL0     H21077   4.819   8.980   1.739  1.7193 -0.5457 -0.4201
  153MOL0     H21078   4.554   9.182   1.422 -2.0377  1.6344  0.7981
  153MOL0     H21079   4.633   9.317   1.506 -0.4109  0.1299 -0.4310
  153MOL0     H21080   4.854   9.277   1.393  1.2145 -2.0774 -2.8868
  153MOL0     H21081   4.782   9.175   1.276 -0.2412 -0.5783 -0.2550
  153MOL0     H21082   4.688   9.467   1.333 -2.6930  0.5212 -1.0438
  153MOL0     H21083   4.603   9.356   1.241  0.0443 -0.4801 -0.5538
  153MOL0     H21084   4.761   9.364   1.063  0.9170 -2.7685  1.1881
  153MOL0     H21085   4.901   9.387   1.168 -0.2308 -2.1215  0.9772
  153MOL0     H21086   4.817   9.633   1.215  0.7417  1.5489  0.0313
  153MOL0     H21087   4.878   9.608   1.057 -0.5407  1.5025  0.1173
  153MOL0     H21088   4.597   9.632   1.130  1.4986  0.9816  1.6911
  153MOL0     H21089   4.644   9.559   0.970  0.2012 -2.7042  2.1190
  153MOL0     H21090   4.787   9.776   0.942 -0.0851  1.9284  1.5701
  153MOL0     H21091   4.715   9.831   1.079  4.0570 -0.8438  0.4670
  153MOL0     H21092   4.472   9.797   0.991  0.3952  1.8727  1.4945
  153MOL0     H21093   4.544   9.755   0.830 -0.0162  3.2557 -0.9373
  153MOL0     H21094   4.527   8.984   1.430  2.5137 -0.3420 -0.8793
  153MOL0     H21095   4.514   8.725   1.450  2.4777 -1.8873 -1.3370
  153MOL0     H21096   4.927   8.326   1.440 -0.2933  0.6766  1.2550
  153MOL0     H21097   4.891   8.069   1.391 -3.8016 -4.4748 -0.7753
  153MOL0     H21098   3.537   7.902   0.290 -2.2930  2.1428 -2.0566
  153MOL0     H21099   3.296   7.931   0.396  0.1113 -2.7459  2.3726
  153MOL0     H21100   3.084   7.893   0.685 -1.0116  1.4101 -2.8612
  153MOL0     H21101   2.848   7.871   0.745 -1.9713  1.0084  0.6108
  153MOL0     H21102   2.650   7.942   0.667 -0.7541 -0.3026  0.5741
  153MOL0     H21103   2.629   7.896   0.830 -0.8432 -1.4516 -0.5168
  153MOL0     H21104   2.424   7.914   0.708 -0.8612 -2.0043  4.2453
  153MOL0     H21105   2.455   8.094   0.698 -0.7018  1.8300  2.9339
  153MOL0     H21106   2.354   7.916   0.923 -1.2040  0.5916  2.1368
  153MOL0     H21107   2.461   8.057   0.951  2.9503 -1.8269 -1.4925
  153MOL0     H21108   2.187   8.090   0.941  1.7752 -0.1163  0.5512
  153MOL0     H21109   2.216   8.058   0.768  2.6185 -1.0769 -0.7230
  153MOL0     H21110   2.322   8.461   0.798  0.5246 -0.9882 -1.1145
  153MOL0     H21111   2.837   8.265   0.913 -0.9063  0.1831 -1.6578
  153MOL0     H21112   3.162   8.362   0.811 -3.8929  4.2892 -2.9849
  153MOL0     H21113   3.015   8.404   0.893 -1.5223 -0.6728  0.4967
  153MOL0     H21114   3.133   8.318   0.985  2.3772  0.8043 -1.5298
  154MOL0     O21115   2.573   7.356   4.374 -0.3111 -1.2175  0.9245
  154MOL0     C21116   2.555   7.341   4.496 -0.5076  0.5381 -0.5951
  154MOL0     O21117   2.617   7.241   4.565 -0.1183 -0.0956 -0.1476
  154MOL0     C21118   2.672   7.140   4.495  1.3312  0.2246 -0.2831
  154MOL0     C21119   2.804   7.098   4.521 -0.2312  0.0302  0.2400
  154MOL0     C21120   2.878   6.998   4.465  0.5316  0.2307  0.4810
  154MOL0     C21121   2.808   6.922   4.373 -0.1171  0.6795  0.1488
  154MOL0     O21122   2.863   6.822   4.295 -0.2766  0.5222  0.1178
  154MOL0     C21123   2.991   6.852   4.237 -0.2850  0.3521 -0.3091
  154MOL0     C21124   2.988   6.955   4.120  0.6590 -0.4443 -0.7678
  154MOL0     C21125   2.960   6.895   3.980 -0.3702  0.5919  0.6572
  154MOL0     C21126   3.094   6.879   3.914  0.3493 -0.8158  0.2902
  154MOL0     C21127   3.073   6.828   3.772  0.3328 -0.4659  1.2977
  154MOL0     C21128   3.213   6.818   3.697  0.5248 -0.9753 -0.4623
  154MOL0     C21129   3.228   6.737   3.571 -0.7726 -0.1118 -0.4374
  154MOL0     C21130   3.139   6.618   3.563 -0.5422 -0.4246 -0.2360
  154MOL0     N21131   3.208   6.511   3.487 -0.0726  0.1122  0.6899
  154MOL0     C21132   3.281   6.522   3.368  0.9462 -1.1879  0.3364
  154MOL0     C21133   3.333   6.394   3.351 -0.6466 -0.3368 -0.2049
  154MOL0     C21134   3.420   6.342   3.240  0.7208 -0.3046 -0.7090
  154MOL0     C21135   3.566   6.369   3.282 -1.0302  0.3737 -0.2920
  154MOL0     C21136   3.643   6.317   3.161 -0.7251  0.2543  0.4261
  154MOL0     C21137   3.632   6.374   3.019 -0.4540  0.7486  0.0177
  154MOL0     O21138   3.752   6.373   2.938  0.1416  0.1501 -0.1021
  154MOL0     C21139   3.807   6.255   2.898  0.7451 -1.1228  0.1255
  154MOL0     C21140   3.740   6.153   2.842 -0.5265 -0.6171  0.1075
  154MOL0     C21141   3.805   6.041   2.811  0.4629  0.2653  1.2142
  154MOL0     C21142   3.717   5.938   2.740 -0.7823 -0.1156  0.6509
  154MOL0     C21143   3.937   6.012   2.848 -0.0820  0.0149  0.4948
  154MOL0     C21144   4.002   5.873   2.821  0.4089 -0.1407  0.0134
  154MOL0     O21145   4.089   5.839   2.913  0.6683 -0.4112 -0.5819
  154MOL0     C21146   4.148   5.713   2.904  0.8866 -0.6222 -0.8197
  154MOL0     C21147   4.088   5.595   2.859 -0.2364  0.3402 -0.1648
  154MOL0     C21148   4.158   5.470   2.879  0.1447 -0.0293  0.4608
  154MOL0     C21149   4.275   5.464   2.942  0.2994  0.3555 -0.2388
  154MOL0     O21150   4.351   5.353   2.972  0.7759 -0.4972  0.3739
  154MOL0     C21151   4.407   5.289   2.851 -0.3299 -0.6418 -0.3032
  154MOL0     C21152   4.520   5.192   2.905  0.7010 -0.7047  0.6871
  154MOL0     C21153   4.629   5.275   2.967  0.3429  0.7577 -0.7920
  154MOL0     C21154   4.755   5.266   2.884 -0.0904 -0.0010  0.3226
  154MOL0     C21155   4.880   5.315   2.955 -0.0600 -0.3165 -0.4773
  154MOL0     C21156   5.015   5.289   2.884  0.0433  0.7227 -0.1601
  154MOL0     C21157   5.124   5.315   2.992  1.4787  0.5008 -1.0068
  154MOL0     C21158   5.262   5.287   2.941 -0.0926 -0.0951  0.4115
  154MOL0    Cl21159   5.379   5.274   3.073 -0.1014  0.3352 -0.0108
  154MOL0     C21160   4.331   5.584   2.990  0.7320 -0.3073  0.0207
  154MOL0     C21161   4.275   5.709   2.962 -0.6879 -1.4354  0.1875
  154MOL0     O21162   3.988   5.817   2.707 -0.3031  0.6029 -0.0270
  154MOL0     C21163   4.009   6.117   2.913  0.4910  0.0719  0.3149
  154MOL0     C21164   3.942   6.231   2.944  0.2605  0.8903  0.4515
  154MOL0     N21165   3.293   6.316   3.457 -0.1462 -0.0047 -0.4310
  154MOL0     N21166   3.209   6.385   3.534  0.3255  0.5958 -0.2871
  154MOL0     C21167   2.671   6.952   4.338  0.3796  0.0977 -0.3221
  154MOL0     C21168   2.608   7.067   4.388 -0.3523  0.7273  0.4451
  154MOL0     C21169   2.454   7.411   4.575 -0.3121  0.2833 -0.0896
  154MOL0     C21170   2.457   7.400   4.714  0.2412  0.2629 -0.7447
  154MOL0     C21171   2.371   7.479   4.788  0.1323 -0.4012  0.2192
  154MOL0     C21172   2.272   7.559   4.724  1.3168  0.1690 -0.5694
  154MOL0     O21173   2.175   7.623   4.796  0.5602  0.0396  0.1760
  154MOL0     C21174   2.051   7.545   4.788  0.4653  0.1655 -0.3388
  154MOL0     C21175   1.989   7.535   4.931  0.2078 -0.4747  0.4354
  154MOL0     C21176   1.950   7.673   4.979  0.0951 -0.8234  0.4617
  154MOL0     C21177   1.861   7.656   5.096  0.7199  0.3003  0.6118
  154MOL0     C21178   1.862   7.776   5.184  0.5386 -0.0274  0.7519
  154MOL0     C21179   1.864   7.868   5.261 -0.1581  0.1618 -0.8279
  154MOL0     C21180   2.275   7.571   4.589 -0.7897  0.4930  0.0114
  154MOL0     C21181   2.367   7.505   4.508 -0.9817  0.7913 -0.4493
  154MOL0     C21182   2.378   7.560   4.372 -0.7286  0.9178  0.1711
  154MOL0     H21183   2.852   7.159   4.597 -0.5418 -0.8826  1.2041
  154MOL0     H21184   2.985   6.997   4.483  0.8744  1.9604 -1.1408
  154MOL0     H21185   3.039   6.764   4.194  1.4461  0.4338  1.3135
  154MOL0     H21186   3.058   6.891   4.314 -1.5641  2.5205 -0.1929
  154MOL0     H21187   2.907   7.027   4.136  1.3277  0.3336 -0.8740
  154MOL0     H21188   3.081   7.012   4.120  1.8851 -2.3611 -0.8506
  154MOL0     H21189   2.920   6.794   3.988 -0.8778  0.8365  1.3152
  154MOL0     H21190   2.890   6.953   3.919  0.0468  2.9796  2.2969
  154MOL0     H21191   3.152   6.971   3.918  0.3789 -0.7920 -0.5280
  154MOL0     H21192   3.153   6.807   3.972 -0.9554 -1.8344  0.3895
  154MOL0     H21193   3.018   6.899   3.709  2.0291  0.2373  0.5637
  154MOL0     H21194   3.028   6.729   3.766  1.0532 -0.6986 -2.0441
  154MOL0     H21195   3.236   6.922   3.668 -1.5117  0.6600  3.1354
  154MOL0     H21196   3.282   6.792   3.778  0.1275  1.9638  0.9816
  154MOL0     H21197   3.331   6.704   3.555 -0.8985 -0.6145 -0.2321
  154MOL0     H21198   3.222   6.810   3.490  1.1416  3.1366  2.0431
  154MOL0     H21199   3.125   6.575   3.662  0.5360 -2.5847 -0.9508
  154MOL0     H21200   3.036   6.643   3.536 -0.3902  1.4362  0.8074
  154MOL0     H21201   3.287   6.609   3.304 -5.1621  1.4336  2.5493
  154MOL0     H21202   3.384   6.390   3.149  1.6855  0.0216 -0.9319
  154MOL0     H21203   3.400   6.235   3.229 -4.2884  0.4288 -1.2501
  154MOL0     H21204   3.579   6.473   3.314 -0.2990  1.2773 -3.2266
  154MOL0     H21205   3.577   6.307   3.371 -5.4042 -0.5087 -0.1772
  154MOL0     H21206   3.746   6.346   3.182 -0.4066 -0.2872 -0.3250
  154MOL0     H21207   3.643   6.208   3.149  0.7897  0.3843 -1.1228
  154MOL0     H21208   3.555   6.307   2.980 -0.4673 -0.2955  1.7127
  154MOL0     H21209   3.604   6.478   3.032  1.5551  1.1892  1.2356
  154MOL0     H21210   3.636   6.163   2.815 -0.3700 -0.6712 -0.5418
  154MOL0     H21211   3.627   5.981   2.695 -0.5720 -1.4760 -1.1667
  154MOL0     H21212   3.679   5.868   2.815  0.7838 -1.9774 -0.1985
  154MOL0     H21213   3.767   5.879   2.664 -0.1875 -0.3221  1.1904
  154MOL0     H21214   3.981   5.592   2.839 -0.1731 -2.7425 -0.4682
  154MOL0     H21215   4.122   5.377   2.838  0.2459 -0.6551  1.7333
  154MOL0     H21216   4.337   5.229   2.792 -0.2162 -0.1203 -0.9763
  154MOL0     H21217   4.456   5.362   2.786  0.5335  1.0106  2.0470
  154MOL0     H21218   4.490   5.106   2.966 -0.4201 -1.4129 -0.7915
  154MOL0     H21219   4.560   5.140   2.817  0.6924  0.8058 -0.2586
  154MOL0     H21220   4.652   5.223   3.060  0.8311 -0.1779 -1.4223
  154MOL0     H21221   4.601   5.378   2.993 -2.4132 -0.1158  0.0027
  154MOL0     H21222   4.740   5.331   2.798 -2.4532  0.5758  1.0727
  154MOL0     H21223   4.779   5.162   2.858  0.4241  0.2828 -0.3368
  154MOL0     H21224   4.880   5.424   2.958  0.7249 -0.3157  0.0063
  154MOL0     H21225   4.900   5.274   3.055  0.1748 -2.0130 -1.1716
  154MOL0     H21226   5.031   5.364   2.807  1.9345  1.4968  0.9311
  154MOL0     H21227   5.009   5.191   2.835 -2.9490  1.6402 -1.8499
  154MOL0     H21228   5.097   5.248   3.074  0.1681  2.2077  0.0327
  154MOL0     H21229   5.114   5.416   3.033  3.7360 -0.8699  3.6735
  154MOL0     H21230   5.294   5.366   2.871  1.7501 -1.4469 -0.3672
  154MOL0     H21231   5.269   5.188   2.895  2.8301 -0.5297  1.5714
  154MOL0     H21232   4.424   5.583   3.046 -0.1737 -1.1619  1.5902
  154MOL0     H21233   4.330   5.798   2.991 -0.0270 -1.2803 -1.4430
  154MOL0     H21234   4.111   6.117   2.949  1.6930  0.5717 -2.7777
  154MOL0     H21235   3.999   6.299   3.007 -0.2775  0.8797  0.9648
  154MOL0     H21236   2.625   6.898   4.256 -2.6362 -0.6905  1.7220
  154MOL0     H21237   2.512   7.104   4.353 -0.2686  2.3588  1.8626
  154MOL0     H21238   2.523   7.332   4.767 -1.1452 -0.2938  0.3328
  154MOL0     H21239   2.353   7.472   4.895  0.1811 -0.7040  0.2086
  154MOL0     H21240   1.979   7.600   4.726 -0.6289  1.0578  1.6091
  154MOL0     H21241   2.068   7.445   4.746  2.5670  1.4435 -2.8105
  154MOL0     H21242   2.065   7.491   4.996  1.7718 -2.7272 -2.6764
  154MOL0     H21243   1.899   7.472   4.929 -0.0748 -0.0635 -1.7173
  154MOL0     H21244   2.034   7.729   5.023 -2.6623  2.4438  1.9720
  154MOL0     H21245   1.910   7.735   4.899  3.4712  0.8761 -0.0846
  154MOL0     H21246   1.880   7.563   5.151 -4.7218 -1.3635  0.3609
  154MOL0     H21247   1.756   7.648   5.064  0.8475  3.1651 -0.7741
  154MOL0     H21248   1.859   7.947   5.333  0.2046 -0.7710  0.2502
  154MOL0     H21249   2.202   7.634   4.539  0.4722  0.3313 -2.1944
  154MOL0     H21250   2.358   7.482   4.298  3.0708 -0.5691  0.4765
  154MOL0     H21251   2.316   7.646   4.347 -1.9668 -0.4709 -1.8563
  154MOL0     H21252   2.480   7.597   4.366 -0.9340  1.2508 -1.8766
  155MOL0     O21253  10.176   3.870   7.625  0.0247  0.9831  0.3648
  155MOL0     C21254  10.225   3.880   7.517 -0.5708  0.2873 -0.5522
  155MOL0     O21255  10.295   3.982   7.479  0.2983 -0.5137  0.2900
  155MOL0     C21256  10.319   4.083   7.572 -0.3086 -1.0355  0.0070
  155MOL0     C21257  10.413   4.068   7.680 -0.3877 -0.1021  0.9838
  155MOL0     C21258  10.442   4.167   7.769  0.1078 -0.1806 -0.2164
  155MOL0     C21259  10.389   4.297   7.751 -0.2019 -0.2518  0.8987
  155MOL0     O21260  10.403   4.406   7.827  0.3890 -0.2669 -0.4290
  155MOL0     C21261  10.503   4.409   7.929 -0.2693  0.5160  0.9910
  155MOL0     C21262  10.493   4.542   8.018 -0.9360 -0.8680  0.6047
  155MOL0     C21263  10.567   4.518   8.157  0.0138 -0.0107  1.2813
  155MOL0     C21264  10.487   4.470   8.269 -0.3480  0.3068  0.1243
  155MOL0     C21265  10.564   4.478   8.404 -0.6380 -0.4838  0.0206
  155MOL0     C21266  10.514   4.598   8.493 -0.6839 -0.0125  0.6203
  155MOL0     C21267  10.574   4.596   8.631 -0.0799  0.2025 -0.2098
  155MOL0     C21268  10.477   4.606   8.756  0.1390  0.4009 -0.3057
  155MOL0     N21269  10.556   4.606   8.873 -0.2270 -0.1849  0.4723
  155MOL0     C21270  10.664   4.693   8.912  0.3531  0.8648  0.3925
  155MOL0     C21271  10.704   4.645   9.029 -0.0706 -1.2200  0.4220
  155MOL0     C21272  10.799   4.711   9.130 -0.1478  0.6471 -0.9170
  155MOL0     C21273  10.743   4.725   9.272 -0.0788 -0.9890 -0.1467
  155MOL0     C21274  10.660   4.854   9.293 -0.6824  1.0753 -0.2023
  155MOL0     C21275  10.518   4.856   9.223  0.9634 -0.2902  0.0642
  155MOL0     O21276  10.446   4.745   9.287 -0.2190 -0.0311  1.0624
  155MOL0     C21277  10.317   4.716   9.255  0.2769 -0.1635  0.3829
  155MOL0     C21278  10.242   4.685   9.366  0.3901  0.1535 -0.4389
  155MOL0     C21279  10.108   4.663   9.370  0.0277  0.2309 -0.1406
  155MOL0     C21280  10.039   4.645   9.504  0.5139  0.7121  0.4252
  155MOL0     C21281  10.042   4.661   9.241  0.4158  0.2800  0.1591
  155MOL0     C21282   9.905   4.631   9.223  0.6431  0.1105 -0.1448
  155MOL0     O21283   9.856   4.519   9.293 -0.6892 -0.4631  0.3926
  155MOL0     C21284   9.724   4.493   9.299 -0.1751  0.3694 -0.4799
  155MOL0     C21285   9.658   4.413   9.205  0.4299 -0.9921  0.1257
  155MOL0     C21286   9.520   4.394   9.216  0.6867 -0.3439 -0.0480
  155MOL0     C21287   9.440   4.459   9.320  0.0605 -0.8379  0.7654
  155MOL0     O21288   9.299   4.434   9.318 -0.5438 -0.3429  0.2302
  155MOL0     C21289   9.237   4.435   9.448  0.6257  0.0176 -0.0290
  155MOL0     C21290   9.280   4.326   9.541 -0.3934  0.1163  0.3279
  155MOL0     C21291   9.274   4.190   9.469 -0.0298 -0.1785  0.5344
  155MOL0     C21292   9.314   4.074   9.561 -0.9693  0.7656 -0.2105
  155MOL0     C21293   9.468   4.037   9.554  0.8785 -0.5381 -0.0828
  155MOL0     C21294   9.570   4.155   9.533 -0.6106 -0.1610 -0.6556
  155MOL0     C21295   9.707   4.097   9.542 -0.2354  0.6113 -0.4618
  155MOL0     C21296   9.810   4.204   9.511 -0.0141  0.4202  0.2794
  155MOL0    Cl21297   9.982   4.165   9.543 -0.0495  0.5215  0.3830
  155MOL0     C21298   9.499   4.557   9.403  0.6675  0.6202  0.4508
  155MOL0     C21299   9.644   4.565   9.392  0.7046  0.6514  0.0387
  155MOL0     O21300   9.840   4.701   9.150  0.3203 -0.8102  0.6283
  155MOL0     C21301  10.118   4.686   9.119  0.7933  0.8430 -0.0666
  155MOL0     C21302  10.257   4.704   9.134 -0.1649  0.6037 -0.1359
  155MOL0     N21303  10.634   4.529   9.054  0.1807  0.3669 -0.2901
  155MOL0     N21304  10.549   4.508   8.966 -0.1259 -0.5899  0.0508
  155MOL0     C21305  10.286   4.314   7.652  0.2741  0.1483  0.2683
  155MOL0     C21306  10.250   4.215   7.564 -0.7451  0.0098 -0.0772
  155MOL0     C21307  10.201   3.768   7.427 -0.3974  0.3136 -0.7585
  155MOL0     C21308  10.089   3.681   7.455  0.4128  1.5180  0.3804
  155MOL0     C21309  10.063   3.561   7.384 -0.2486 -0.1585 -0.8753
  155MOL0     C21310  10.162   3.515   7.296  0.3361  0.0791 -0.8570
  155MOL0     O21311  10.149   3.405   7.211  0.4378  0.6053  0.6336
  155MOL0     C21312  10.018   3.386   7.141 -0.6901  0.0938 -0.5474
  155MOL0     C21313   9.942   3.277   7.211  1.0066  1.1847  0.5288
  155MOL0     C21314   9.995   3.144   7.158  0.7514 -0.6410 -0.1653
  155MOL0     C21315   9.888   3.042   7.173  0.5836  0.6897  0.1384
  155MOL0     C21316   9.929   2.909   7.131 -0.5826 -0.6602  0.2685
  155MOL0     C21317   9.962   2.807   7.083 -0.1139  1.8186  0.0066
  155MOL0     C21318  10.278   3.590   7.282  0.3708  0.2914  0.5865
  155MOL0     C21319  10.295   3.715   7.343 -1.1491  0.3703 -0.1845
  155MOL0     C21320  10.440   3.768   7.350  0.5244  0.1802  1.2794
  155MOL0     H21321  10.474   3.980   7.695 -0.8272 -0.3989  1.0568
  155MOL0     H21322  10.506   4.132   7.850 -0.2750  1.1319  0.6918
  155MOL0     H21323  10.603   4.404   7.885 -0.2721 -2.0592  1.1242
  155MOL0     H21324  10.483   4.318   7.987  0.0969 -2.5709 -3.2705
  155MOL0     H21325  10.539   4.631   7.975 -0.8340 -0.0941  2.2306
  155MOL0     H21326  10.387   4.561   8.036 -1.3748 -2.3425 -0.2216
  155MOL0     H21327  10.641   4.441   8.135 -0.1886  0.4959 -1.5298
  155MOL0     H21328  10.620   4.611   8.180  0.4280  0.9870 -2.9395
  155MOL0     H21329  10.396   4.530   8.281  0.0614  0.6937  1.4149
  155MOL0     H21330  10.458   4.369   8.240 -1.4080  0.4517  0.6076
  155MOL0     H21331  10.671   4.490   8.387 -0.6615  2.2074  1.2082
  155MOL0     H21332  10.540   4.383   8.454 -2.7792  2.7206  6.2193
  155MOL0     H21333  10.530   4.697   8.451 -2.1615  1.0869  2.4590
  155MOL0     H21334  10.405   4.586   8.497 -0.6961 -1.8458 -2.2669
  155MOL0     H21335  10.651   4.673   8.643  0.3045 -0.1910 -0.0975
  155MOL0     H21336  10.640   4.508   8.627  1.4005  1.3272 -1.8813
  155MOL0     H21337  10.422   4.701   8.748  1.8100  1.4835  0.5789
  155MOL0     H21338  10.419   4.514   8.764 -0.9336  0.9661 -1.1739
  155MOL0     H21339  10.698   4.788   8.870 -0.3950  0.9462 -0.0434
  155MOL0     H21340  10.813   4.813   9.092 -1.5563  0.4426 -2.1118
  155MOL0     H21341  10.897   4.664   9.133  0.1362  0.9827 -3.1379
  155MOL0     H21342  10.677   4.642   9.300 -0.6660  0.0854  1.8635
  155MOL0     H21343  10.821   4.732   9.349 -1.0867  0.2240  0.8264
  155MOL0     H21344  10.632   4.860   9.398  2.5648 -2.4446  1.0630
  155MOL0     H21345  10.723   4.939   9.265 -0.5830  0.3015 -2.5487
  155MOL0     H21346  10.466   4.951   9.238 -0.4119 -1.2698  1.9313
  155MOL0     H21347  10.515   4.829   9.117 -0.7878 -2.1593  0.5252
  155MOL0     H21348  10.281   4.691   9.467 -2.2823 -0.1606  0.7162
  155MOL0     H21349   9.940   4.692   9.500  0.5667  0.7905  0.0080
  155MOL0     H21350  10.090   4.690   9.589 -0.2106  1.3275  0.5461
  155MOL0     H21351  10.025   4.538   9.520 -1.5994  0.8896  0.0074
  155MOL0     H21352   9.717   4.364   9.129 -0.1256 -1.8492  0.2296
  155MOL0     H21353   9.478   4.312   9.158  0.3228 -0.2776  0.1176
  155MOL0     H21354   9.256   4.531   9.497  0.9232  0.0223 -0.1529
  155MOL0     H21355   9.128   4.441   9.445  0.4228 -0.7933  2.6982
  155MOL0     H21356   9.381   4.353   9.573  0.0808 -0.5233 -0.5719
  155MOL0     H21357   9.225   4.332   9.636  1.0710  0.3942  1.1930
  155MOL0     H21358   9.354   4.195   9.394  3.0055 -1.6535  3.3963
  155MOL0     H21359   9.181   4.177   9.413 -1.6584 -0.8213  3.1899
  155MOL0     H21360   9.247   3.989   9.547  1.2884 -1.3890  1.1498
  155MOL0     H21361   9.302   4.102   9.666  1.4341  2.1128 -0.2135
  155MOL0     H21362   9.488   3.965   9.635 -3.9281 -2.8861 -0.6093
  155MOL0     H21363   9.481   3.987   9.457  1.5159  1.6025 -1.1550
  155MOL0     H21364   9.550   4.232   9.609 -2.7187 -0.9289 -0.3643
  155MOL0     H21365   9.560   4.198   9.433 -0.6337 -0.0776 -0.6175
  155MOL0     H21366   9.725   4.016   9.472  1.1029  0.1829  0.3322
  155MOL0     H21367   9.722   4.043   9.636 -1.9203  1.2904  0.2451
  155MOL0     H21368   9.796   4.297   9.568 -1.3991 -0.6565  1.7625
  155MOL0     H21369   9.799   4.222   9.403 -2.0554  2.1714  0.7018
  155MOL0     H21370   9.448   4.623   9.471  1.0857 -0.9390  2.3725
  155MOL0     H21371   9.682   4.629   9.471 -0.5086  1.9723 -0.4154
  155MOL0     H21372  10.077   4.684   9.019  1.0318  0.8505 -0.1649
  155MOL0     H21373  10.319   4.723   9.047  0.0803  1.6966  0.2684
  155MOL0     H21374  10.237   4.409   7.636  0.9650  0.3381 -0.8946
  155MOL0     H21375  10.174   4.232   7.489 -2.2055  1.6374  1.6913
  155MOL0     H21376  10.024   3.709   7.538  2.5342  1.2045  2.2561
  155MOL0     H21377   9.967   3.517   7.405  0.6908 -2.4804 -1.1652
  155MOL0     H21378   9.952   3.473   7.140 -2.2506 -1.0213  0.8053
  155MOL0     H21379  10.031   3.357   7.036 -0.3821  0.1815 -0.5352
  155MOL0     H21380   9.835   3.295   7.192  1.1936 -0.6471 -3.2175
  155MOL0     H21381   9.961   3.272   7.318 -1.8276  0.9569  1.1048
  155MOL0     H21382  10.030   3.144   7.054  1.0711 -4.8312 -0.2136
  155MOL0     H21383  10.074   3.105   7.222 -0.0321  1.0883  1.9729
  155MOL0     H21384   9.802   3.078   7.116  1.0843 -1.8265 -2.4386
  155MOL0     H21385   9.861   3.034   7.279  0.9539 -0.9409  0.1412
  155MOL0     H21386   9.970   2.717   7.026  2.2866  1.8329  0.2430
  155MOL0     H21387  10.356   3.544   7.222  0.5546 -0.6593  1.5090
  155MOL0     H21388  10.475   3.776   7.453  1.4228  0.7405  0.9386
  155MOL0     H21389  10.504   3.708   7.285 -0.8538  2.2634 -2.2779
  155MOL0     H21390  10.449   3.867   7.306 -3.3245 -0.2692 -1.0329
  156MOL0     O21391  11.294   7.740  10.132  0.4497  0.0624  0.5896
  156MOL0     C21392  11.375   7.667  10.077 -0.2019 -0.0536  0.5287
  156MOL0     O21393  11.445   7.700   9.959 -0.3560 -0.0500  0.6431
  156MOL0     C21394  11.444   7.830   9.916  1.3289 -0.5185  0.2768
  156MOL0     C21395  11.559   7.896   9.916 -0.8721  0.0048 -0.5037
  156MOL0     C21396  11.553   8.033   9.878  0.8128 -0.1260 -0.3983
  156MOL0     C21397  11.437   8.094   9.825 -0.0895  0.0386 -0.8965
  156MOL0     O21398  11.433   8.233   9.799  0.1380 -0.0115 -0.5390
  156MOL0     C21399  11.461   8.321   9.910  0.5671  0.2413 -0.0695
  156MOL0     C21400  11.404   8.457   9.887 -0.2684  0.1516  0.4988
  156MOL0     C21401  11.251   8.467   9.919 -0.3600  0.0402 -0.0061
  156MOL0     C21402  11.166   8.362   9.851 -0.4663  0.9932  0.3338
  156MOL0     C21403  11.014   8.375   9.871  0.3910  0.4450 -0.3046
  156MOL0     C21404  10.954   8.506   9.823 -0.1649 -0.2709 -0.3177
  156MOL0     C21405  10.964   8.521   9.672  0.4600  0.1966  0.0026
  156MOL0     C21406  10.858   8.626   9.628 -0.3002 -0.4688 -0.1788
  156MOL0     N21407  10.884   8.681   9.492 -0.5119  0.2568 -1.1194
  156MOL0     C21408  10.837   8.617   9.386  0.4960 -0.2213 -0.2372
  156MOL0     C21409  10.887   8.693   9.282 -0.1832 -1.1080 -0.2046
  156MOL0     C21410  10.860   8.667   9.132 -0.0978 -0.0796 -0.3533
  156MOL0     C21411  10.753   8.750   9.077 -0.3943  0.2334  0.1252
  156MOL0     C21412  10.791   8.892   9.031 -0.4072  0.3400 -0.3545
  156MOL0     C21413  10.865   8.901   8.889 -0.2882  0.2983 -0.3964
  156MOL0     O21414  10.866   9.038   8.859 -0.8229 -0.2470  0.5597
  156MOL0     C21415  10.956   9.125   8.911  0.0484 -0.5153  1.0735
  156MOL0     C21416  11.055   9.099   9.001 -0.9323 -0.0923 -0.8287
  156MOL0     C21417  11.138   9.198   9.054  0.2676  0.1782 -0.2530
  156MOL0     C21418  11.230   9.155   9.157 -0.0735  0.5888 -0.5999
  156MOL0     C21419  11.141   9.327   9.002  0.0571 -0.9868 -0.6969
  156MOL0     C21420  11.234   9.434   9.050 -0.0987 -0.2011 -0.9752
  156MOL0     O21421  11.252   9.434   9.179  0.3162  0.0237 -0.3272
  156MOL0     C21422  11.330   9.519   9.243  0.9846 -1.4509  0.1703
  156MOL0     C21423  11.282   9.646   9.266  0.6813  0.2651 -0.1152
  156MOL0     C21424  11.365   9.740   9.336  0.4548 -0.2333 -0.3134
  156MOL0     C21425  11.499   9.718   9.360 -0.3247  0.9816 -0.8463
  156MOL0     O21426  11.580   9.803   9.433 -1.1491 -0.5339  0.8535
  156MOL0     C21427  11.716   9.824   9.400  0.4182 -0.1650 -1.1281
  156MOL0     C21428  11.760   9.957   9.448 -0.0955  0.1773 -0.0619
  156MOL0     C21429  11.659  10.074   9.423  0.6431  0.3740 -0.8027
  156MOL0     C21430  11.646  10.142   9.283 -0.1284 -0.1708 -0.2075
  156MOL0     C21431  11.781  10.187   9.223  0.2918 -1.5622  0.7941
  156MOL0     C21432  11.752  10.272   9.098 -0.7296 -0.3532 -0.5109
  156MOL0     C21433  11.844  10.398   9.084  0.5134 -0.1852  0.7414
  156MOL0     C21434  11.807  10.499   9.187 -0.3175 -0.5803 -0.5579
  156MOL0    Cl21435  11.655  10.577   9.153  0.0462 -1.0643 -0.2484
  156MOL0     C21436  11.549   9.593   9.336  1.3551  1.2040  0.5550
  156MOL0     C21437  11.464   9.502   9.273 -0.4318 -0.3605  0.2885
  156MOL0     O21438  11.266   9.525   8.975  0.3688  0.2613 -0.4152
  156MOL0     C21439  11.044   9.354   8.909  0.6964 -0.0930  0.1112
  156MOL0     C21440  10.950   9.255   8.863 -0.4829 -0.7110  0.4437
  156MOL0     N21441  10.944   8.800   9.339 -0.2087 -0.3406  0.0874
  156MOL0     N21442  10.948   8.796   9.465  0.6451  0.5356 -0.2532
  156MOL0     C21443  11.317   8.017   9.823 -0.1896 -0.4274 -0.0080
  156MOL0     C21444  11.319   7.890   9.881  1.1739  0.0114  0.5791
  156MOL0     C21445  11.382   7.523  10.119 -0.0618  0.4137  0.2964
  156MOL0     C21446  11.426   7.433  10.027 -0.1668  0.1395  1.0502
  156MOL0     C21447  11.433   7.298  10.050 -0.5139  0.1215 -0.5711
  156MOL0     C21448  11.402   7.235  10.163  0.5387  0.4661 -0.4553
  156MOL0     O21449  11.408   7.096  10.168  0.0153  0.8114 -0.5191
  156MOL0     C21450  11.389   7.032  10.291 -0.3883  0.3280 -0.3385
  156MOL0     C21451  11.416   6.879  10.287 -0.8767 -0.2427 -0.0461
  156MOL0     C21452  11.453   6.813  10.421 -0.5877  0.6150 -0.8280
  156MOL0     C21453  11.392   6.855  10.551 -0.5203  0.2639  0.8865
  156MOL0     C21454  11.440   6.780  10.665  0.3619 -0.0458 -0.0631
  156MOL0     C21455  11.458   6.720  10.771 -0.2030 -0.4160  0.0866
  156MOL0     C21456  11.363   7.332  10.265 -0.0090 -0.4568 -0.5448
  156MOL0     C21457  11.345   7.470  10.241 -0.0894  0.4842 -0.4848
  156MOL0     C21458  11.290   7.566  10.341 -0.2169  0.2521  0.2955
  156MOL0     H21459  11.653   7.849   9.942 -1.7519 -0.9350  1.1170
  156MOL0     H21460  11.638   8.100   9.894  1.1824 -0.5379 -0.6315
  156MOL0     H21461  11.565   8.326   9.943 -0.1345 -2.2259  3.0973
  156MOL0     H21462  11.414   8.282  10.001  1.5668  2.1723  1.3492
  156MOL0     H21463  11.462   8.531   9.943  2.3716 -0.6266 -1.0366
  156MOL0     H21464  11.427   8.489   9.785 -0.9917 -0.1898  0.2252
  156MOL0     H21465  11.234   8.464  10.028 -2.1297 -0.5513 -0.2631
  156MOL0     H21466  11.220   8.561   9.873 -5.2349 -2.1831 -2.0055
  156MOL0     H21467  11.193   8.356   9.745  0.1572 -0.3556  0.5337
  156MOL0     H21468  11.201   8.266   9.891 -1.6468  0.1361 -0.6373
  156MOL0     H21469  10.981   8.359   9.974  1.1175  0.1803 -0.1012
  156MOL0     H21470  10.973   8.291   9.814 -1.2524  2.1137 -1.6499
  156MOL0     H21471  10.851   8.513   9.858 -0.8260  0.2204 -2.2464
  156MOL0     H21472  11.008   8.585   9.877  1.0576  0.4321 -2.4327
  156MOL0     H21473  10.945   8.425   9.623  0.1530  0.3642 -0.2109
  156MOL0     H21474  11.066   8.551   9.644  1.0494  1.8359  3.3990
  156MOL0     H21475  10.755   8.594   9.642  0.1096 -2.0726 -0.6621
  156MOL0     H21476  10.880   8.705   9.701 -1.2831  2.2063 -2.5944
  156MOL0     H21477  10.777   8.526   9.384  0.9553 -0.6253  1.8259
  156MOL0     H21478  10.841   8.562   9.109 -0.5778 -0.0927  0.0897
  156MOL0     H21479  10.954   8.701   9.088  1.3381 -1.0787  1.7684
  156MOL0     H21480  10.697   8.706   8.995  0.7989 -1.3861  0.1097
  156MOL0     H21481  10.687   8.763   9.163 -0.1304 -0.9321  0.5305
  156MOL0     H21482  10.695   8.944   9.021 -1.0116 -0.5405  0.7279
  156MOL0     H21483  10.852   8.937   9.110  0.5208  1.7250 -1.7842
  156MOL0     H21484  10.963   8.855   8.902 -2.5931 -5.3480 -0.1640
  156MOL0     H21485  10.819   8.840   8.810 -0.6048 -0.3118  0.2539
  156MOL0     H21486  11.069   8.998   9.039  1.1997  0.2466 -0.5575
  156MOL0     H21487  11.207   9.050   9.181  0.7301 -0.0302 -2.3447
  156MOL0     H21488  11.198   9.195   9.253  0.8674 -1.3719  0.6096
  156MOL0     H21489  11.334   9.167   9.126  1.4822 -1.5974  3.0138
  156MOL0     H21490  11.181   9.685   9.256  1.2230  2.4815  2.0350
  156MOL0     H21491  11.311   9.832   9.360  0.4630 -0.8973  2.5795
  156MOL0     H21492  11.782   9.760   9.458 -0.1436  0.5915  0.4156
  156MOL0     H21493  11.724   9.814   9.292 -0.6776 -0.3368 -1.2080
  156MOL0     H21494  11.781   9.946   9.555  0.7463 -0.1486 -0.2588
  156MOL0     H21495  11.855   9.984   9.401 -0.3265 -1.2048 -1.3904
  156MOL0     H21496  11.688  10.158   9.486 -3.7398 -0.9283  3.4989
  156MOL0     H21497  11.561  10.045   9.461  0.2633 -0.1086 -2.0897
  156MOL0     H21498  11.598  10.239   9.299  2.5183  0.9621  1.6078
  156MOL0     H21499  11.592  10.081   9.209 -1.8349 -2.1243  2.4552
  156MOL0     H21500  11.853  10.233   9.292  1.9171 -1.2594 -1.0061
  156MOL0     H21501  11.836  10.099   9.186  2.1276 -0.3575  0.5135
  156MOL0     H21502  11.650  10.310   9.101 -0.9250 -0.8711 -0.5360
  156MOL0     H21503  11.744  10.203   9.013  1.0650  1.3924 -2.2290
  156MOL0     H21504  11.843  10.449   8.987 -2.3851 -0.8071  0.3587
  156MOL0     H21505  11.946  10.362   9.102  0.7838 -0.6614 -1.3826
  156MOL0     H21506  11.875  10.585   9.188 -1.9363  0.7414 -0.4319
  156MOL0     H21507  11.827  10.453   9.285  0.5593 -0.1836 -0.5350
  156MOL0     H21508  11.644   9.556   9.371  1.2889 -1.3220 -1.6493
  156MOL0     H21509  11.502   9.403   9.246  0.0829 -0.6979  2.1019
  156MOL0     H21510  11.036   9.455   8.870 -0.2391 -0.5513 -0.9619
  156MOL0     H21511  10.871   9.276   8.793  1.2976  1.3856 -1.0780
  156MOL0     H21512  11.225   8.060   9.784 -0.1267 -0.6259 -0.3779
  156MOL0     H21513  11.226   7.836   9.896  1.6243 -0.7739  0.6403
  156MOL0     H21514  11.458   7.471   9.931 -0.1745  2.5224  1.9357
  156MOL0     H21515  11.470   7.227   9.977 -0.1734 -1.6547  1.2449
  156MOL0     H21516  11.455   7.084  10.361  0.7393  0.7776 -1.6924
  156MOL0     H21517  11.286   7.051  10.324 -0.3885  1.4937 -0.9493
  156MOL0     H21518  11.500   6.867  10.218 -1.1487 -0.5010 -0.3414
  156MOL0     H21519  11.329   6.821  10.253  1.2062 -3.0844 -0.8695
  156MOL0     H21520  11.444   6.705  10.409  3.3650  0.4000 -3.4233
  156MOL0     H21521  11.560   6.833  10.424 -0.6741  1.0037  0.7779
  156MOL0     H21522  11.283   6.847  10.548 -0.3631 -2.4757  0.3149
  156MOL0     H21523  11.427   6.958  10.568  1.9873 -0.5890  1.2930
  156MOL0     H21524  11.473   6.653  10.854  1.9331 -0.8834 -0.6189
  156MOL0     H21525  11.330   7.294  10.361 -2.4674  1.4004 -0.5765
  156MOL0     H21526  11.265   7.510  10.432 -1.4503 -0.7760 -0.6557
  156MOL0     H21527  11.358   7.648  10.369  3.0329 -1.7102 -1.2115
  156MOL0     H21528  11.202   7.619  10.304 -0.2426  0.3550  0.4966
  157MOL0     O21529   6.080   5.670   0.593 -0.4269 -0.4185 -0.0930
  157MOL0     C21530   6.110   5.611   0.492  0.9920 -0.4060 -1.1452
  157MOL0     O21531   6.090   5.664   0.364 -0.5397 -0.0102  0.0912
  157MOL0     C21532   6.010   5.771   0.330 -1.0721 -0.0908  0.8248
  157MOL0     C21533   6.032   5.816   0.203 -0.3980  0.1274  0.0835
  157MOL0     C21534   5.958   5.930   0.161 -0.9697 -0.1404 -0.6579
  157MOL0     C21535   5.860   5.997   0.244 -0.1626  0.5598  0.1939
  157MOL0     O21536   5.799   6.100   0.195 -0.8816  0.2368  0.8681
  157MOL0     C21537   5.815   6.220   0.276  0.4781  0.2433  0.4613
  157MOL0     C21538   5.796   6.346   0.181 -0.4156 -0.3284 -1.2829
  157MOL0     C21539   5.655   6.359   0.116  0.4626  0.3809 -0.1469
  157MOL0     C21540   5.642   6.487   0.025 -0.0985 -0.4144  0.0405
  157MOL0     C21541   5.583   6.450  -0.106 -0.3618 -0.1910  0.2372
  157MOL0     C21542   5.443   6.392  -0.103  0.1130 -0.3973 -0.3478
  157MOL0     C21543   5.339   6.486  -0.037 -0.3883  0.6666  0.4595
  157MOL0     C21544   5.199   6.439  -0.086  0.5988  0.7353  0.1961
  157MOL0     N21545   5.170   6.311  -0.037  0.7140  1.3517 -0.3777
  157MOL0     C21546   5.137   6.282   0.096 -0.2647  0.6861  0.4922
  157MOL0     C21547   5.108   6.150   0.089 -0.8925  0.0649 -0.6451
  157MOL0     C21548   5.068   6.082   0.216 -0.1806  0.3214  0.2053
  157MOL0     C21549   5.153   5.950   0.242  0.1242 -0.2047 -0.1531
  157MOL0     C21550   5.295   5.979   0.291 -0.8031 -0.0911  0.5597
  157MOL0     C21551   5.389   6.075   0.211  0.8546  0.7868 -0.1801
  157MOL0     O21552   5.398   6.059   0.073  0.0207 -0.4274 -0.8028
  157MOL0     C21553   5.502   5.987   0.021 -0.3640 -0.5389  0.1518
  157MOL0     C21554   5.546   6.015  -0.110 -1.1276  0.5837  0.6199
  157MOL0     C21555   5.642   5.924  -0.178 -0.4527  0.0392 -1.0213
  157MOL0     C21556   5.664   5.959  -0.325 -0.2551  0.5334 -0.4261
  157MOL0     C21557   5.714   5.824  -0.106 -0.4171  0.5609  0.2068
  157MOL0     C21558   5.794   5.724  -0.180 -1.1065  0.0895 -0.2864
  157MOL0     O21559   5.753   5.675  -0.303 -0.0595  0.0997 -0.1337
  157MOL0     C21560   5.838   5.595  -0.374  0.0693  0.7208 -0.0267
  157MOL0     C21561   5.795   5.468  -0.428  0.6085  0.0882 -0.9643
  157MOL0     C21562   5.875   5.380  -0.500  0.1659  0.3186 -0.0982
  157MOL0     C21563   6.000   5.429  -0.528 -0.3038  0.3851 -0.7441
  157MOL0     O21564   6.081   5.350  -0.600 -1.0704 -0.0308  0.4354
  157MOL0     C21565   6.079   5.375  -0.735  0.3349 -0.5989  0.5868
  157MOL0     C21566   6.097   5.250  -0.819  0.3619 -0.6060  0.5508
  157MOL0     C21567   6.243   5.211  -0.807 -0.0235 -0.1468  0.2351
  157MOL0     C21568   6.344   5.301  -0.883 -1.3496  0.7058  0.0653
  157MOL0     C21569   6.495   5.262  -0.844  1.4362 -0.3430  0.4990
  157MOL0     C21570   6.571   5.246  -0.982  0.0456  0.1677 -0.3708
  157MOL0     C21571   6.718   5.267  -0.951 -0.4833 -0.5809 -0.0848
  157MOL0     C21572   6.794   5.324  -1.075  0.0944 -0.8250 -0.7249
  157MOL0    Cl21573   6.963   5.321  -1.021 -0.0363  0.0685  0.2148
  157MOL0     C21574   6.046   5.549  -0.481  0.4017 -0.2037 -0.0760
  157MOL0     C21575   5.966   5.633  -0.399 -0.0800 -0.2135 -0.2961
  157MOL0     O21576   5.897   5.691  -0.125 -0.1565 -0.0497 -0.1213
  157MOL0     C21577   5.678   5.802   0.027 -0.5085  0.8236  0.7047
  157MOL0     C21578   5.579   5.891   0.090  0.7559 -0.2195  0.0540
  157MOL0     N21579   5.102   6.101  -0.042  0.2949  0.4365 -0.9230
  157MOL0     N21580   5.147   6.203  -0.110  0.1510  0.3170 -0.2937
  157MOL0     C21581   5.836   5.936   0.363  0.0235 -0.0144 -0.2926
  157MOL0     C21582   5.914   5.833   0.410 -0.2036  0.4275  0.2682
  157MOL0     C21583   6.165   5.479   0.520  0.3679  1.1597  0.3873
  157MOL0     C21584   6.194   5.402   0.411  0.6168  0.2380 -0.2118
  157MOL0     C21585   6.219   5.267   0.423 -0.1378  0.5815 -0.1480
  157MOL0     C21586   6.227   5.201   0.548  0.9260 -0.8328 -0.2848
  157MOL0     O21587   6.245   5.070   0.543 -0.4069  0.0230 -0.6401
  157MOL0     C21588   6.186   4.991   0.649 -0.2228 -1.7398  0.3925
  157MOL0     C21589   6.173   4.844   0.605 -0.3387 -0.2244  0.1908
  157MOL0     C21590   6.305   4.786   0.573  0.7543  0.0847  0.4873
  157MOL0     C21591   6.304   4.680   0.464 -0.3015  0.5673  0.7126
  157MOL0     C21592   6.437   4.654   0.419  0.3709 -0.1853  0.2013
  157MOL0     C21593   6.551   4.659   0.382 -0.7068  0.3191  1.0366
  157MOL0     C21594   6.190   5.279   0.665  0.0270  0.4044  0.1011
  157MOL0     C21595   6.162   5.414   0.650  0.4814  0.2071 -1.2666
  157MOL0     C21596   6.135   5.486   0.788 -0.3407 -0.4623  0.2785
  157MOL0     H21597   6.118   5.775   0.150 -1.4265 -0.9519 -0.7980
  157MOL0     H21598   5.969   5.956   0.056 -0.6472  1.6441 -0.2105
  157MOL0     H21599   5.911   6.212   0.329  1.3840 -1.0112 -1.2712
  157MOL0     H21600   5.736   6.225   0.352  0.0651  2.4587 -0.0490
  157MOL0     H21601   5.821   6.434   0.242 -1.4772 -0.4839 -0.5841
  157MOL0     H21602   5.875   6.339   0.105  4.1235  2.4607  2.5948
  157MOL0     H21603   5.640   6.270   0.054  0.1224  0.9056 -0.8270
  157MOL0     H21604   5.584   6.362   0.199 -1.0326 -3.0325 -1.1008
  157MOL0     H21605   5.589   6.565   0.081  1.6686 -0.4480  1.8816
  157MOL0     H21606   5.739   6.538   0.014 -0.5064  0.0671 -1.6640
  157MOL0     H21607   5.647   6.386  -0.168  0.6705  0.8960  0.1422
  157MOL0     H21608   5.580   6.541  -0.165 -1.1947 -0.0253  0.5176
  157MOL0     H21609   5.403   6.385  -0.204 -1.6861  2.5563  0.0237
  157MOL0     H21610   5.444   6.295  -0.052  1.5996 -1.1828 -1.7694
  157MOL0     H21611   5.360   6.591  -0.059  1.2904  0.5463  1.3178
  157MOL0     H21612   5.333   6.482   0.073 -0.9933  2.5761  0.5309
  157MOL0     H21613   5.123   6.512  -0.058 -2.6424 -2.2759 -0.1695
  157MOL0     H21614   5.208   6.437  -0.195 -0.8133  0.2780  0.0687
  157MOL0     H21615   5.154   6.342   0.185  2.3524  0.5554  0.1452
  157MOL0     H21616   4.963   6.049   0.211 -0.2930  0.1405  2.7311
  157MOL0     H21617   5.076   6.154   0.298 -0.0590 -0.0619  0.5332
  157MOL0     H21618   5.094   5.904   0.322 -1.5136 -0.5359 -1.4796
  157MOL0     H21619   5.161   5.879   0.159  2.7202  1.3064 -1.2790
  157MOL0     H21620   5.283   6.026   0.389  1.8225  1.3862  0.2707
  157MOL0     H21621   5.351   5.886   0.304  1.7324  1.0443 -1.2946
  157MOL0     H21622   5.340   6.172   0.224 -0.4064  0.0284  0.9167
  157MOL0     H21623   5.491   6.085   0.251  0.7668  0.7012  0.0667
  157MOL0     H21624   5.499   6.091  -0.171 -2.2108 -1.0033 -0.5930
  157MOL0     H21625   5.764   5.972  -0.366  0.0765 -2.9624 -0.9737
  157MOL0     H21626   5.596   6.041  -0.352  2.5878  2.8236 -1.1623
  157MOL0     H21627   5.634   5.868  -0.377 -3.9707  0.1523  1.9354
  157MOL0     H21628   5.693   5.446  -0.400  1.4385 -1.7521  0.9083
  157MOL0     H21629   5.830   5.294  -0.549 -0.8397  0.6684  0.1785
  157MOL0     H21630   5.981   5.411  -0.766 -0.3958 -1.1536  2.1482
  157MOL0     H21631   6.150   5.452  -0.766  0.1716 -0.4616  0.5566
  157MOL0     H21632   6.021   5.178  -0.787 -3.5343  1.9900 -1.8796
  157MOL0     H21633   6.072   5.277  -0.922 -0.8925  0.5386  1.1253
  157MOL0     H21634   6.262   5.113  -0.852  2.0327  0.6388 -0.7285
  157MOL0     H21635   6.269   5.211  -0.701 -0.2688  2.3717  0.3454
  157MOL0     H21636   6.340   5.409  -0.861  4.1156  0.5251  3.7501
  157MOL0     H21637   6.332   5.285  -0.990  1.4623 -1.0711 -0.0641
  157MOL0     H21638   6.530   5.351  -0.791 -0.9726  1.3796 -0.6219
  157MOL0     H21639   6.522   5.169  -0.792 -1.2919 -1.8554 -0.5590
  157MOL0     H21640   6.539   5.321  -1.055 -0.6023  0.0028 -0.2585
  157MOL0     H21641   6.560   5.155  -1.042 -2.8407  1.0246 -1.2761
  157MOL0     H21642   6.751   5.166  -0.924  1.3089  1.1135  5.4105
  157MOL0     H21643   6.738   5.330  -0.864  1.2176 -1.5036  0.2434
  157MOL0     H21644   6.767   5.428  -1.098  0.3095 -0.5633  0.1619
  157MOL0     H21645   6.786   5.260  -1.163 -4.1092  1.7322 -2.5059
  157MOL0     H21646   6.150   5.566  -0.506  0.0343  0.9662 -0.8548
  157MOL0     H21647   5.997   5.724  -0.349 -1.4809  0.5165 -0.7107
  157MOL0     H21648   5.706   5.709   0.076 -2.4108  0.2013  0.6899
  157MOL0     H21649   5.556   5.879   0.196  0.1622 -1.4450 -0.1958
  157MOL0     H21650   5.760   5.984   0.425 -0.0006 -0.4221 -0.0025
  157MOL0     H21651   5.891   5.795   0.509 -1.5462 -2.6194 -1.0887
  157MOL0     H21652   6.187   5.436   0.308  1.8122  3.9503  0.8006
  157MOL0     H21653   6.242   5.208   0.335  0.2672 -0.9447  0.9173
  157MOL0     H21654   6.249   4.996   0.739  1.0385 -0.1994 -0.5030
  157MOL0     H21655   6.089   5.031   0.679  1.7730  2.4510  2.1896
  157MOL0     H21656   6.114   4.849   0.513 -0.4531  1.4534  0.3178
  157MOL0     H21657   6.120   4.779   0.676  0.5644  0.2270  1.3127
  157MOL0     H21658   6.383   4.860   0.551  2.7970 -0.6602  4.2729
  157MOL0     H21659   6.336   4.732   0.663  1.1078 -1.9476 -0.7898
  157MOL0     H21660   6.244   4.706   0.377 -1.0121 -1.3714  0.5656
  157MOL0     H21661   6.267   4.586   0.507  1.8214 -0.9086 -0.4954
  157MOL0     H21662   6.649   4.644   0.343 -0.9073  1.9732 -0.1736
  157MOL0     H21663   6.182   5.228   0.760 -0.2546 -1.9837 -1.1269
  157MOL0     H21664   6.179   5.433   0.873  0.7490 -4.0752 -2.2537
  157MOL0     H21665   6.200   5.574   0.786  0.3143 -0.9229  0.8652
  157MOL0     H21666   6.030   5.496   0.817 -0.3600 -1.2561  0.5139
  158MOL0     O21667   2.378   8.805   5.996 -0.7314  0.1444 -0.4359
  158MOL0     C21668   2.429   8.810   5.887  0.9232 -0.3407  1.4074
  158MOL0     O21669   2.557   8.844   5.860 -0.0913 -0.0865 -0.2149
  158MOL0     C21670   2.638   8.894   5.960  0.1268 -0.2578  0.3147
  158MOL0     C21671   2.602   8.996   6.047  0.4236  0.1777 -0.0969
  158MOL0     C21672   2.690   9.043   6.139 -0.4541 -0.0987  0.0003
  158MOL0     C21673   2.821   9.009   6.146 -1.2901 -0.3105  0.0950
  158MOL0     O21674   2.911   9.069   6.234 -0.8147 -0.1743  0.3723
  158MOL0     C21675   2.883   9.191   6.306  0.2308  0.4313 -0.6600
  158MOL0     C21676   2.872   9.311   6.211 -0.3827 -0.3170 -0.1864
  158MOL0     C21677   2.991   9.331   6.122  0.5333 -0.0134  0.3242
  158MOL0     C21678   2.974   9.434   6.006  0.5310 -0.2009  0.1020
  158MOL0     C21679   3.101   9.528   5.973 -0.3380  0.4457  0.2022
  158MOL0     C21680   3.094   9.619   5.841 -0.4296 -0.2831 -0.2068
  158MOL0     C21681   2.987   9.716   5.843 -0.5159 -0.2696 -0.2345
  158MOL0     C21682   2.997   9.813   5.965 -1.1679 -0.4163  0.0646
  158MOL0     N21683   3.136   9.871   5.986  0.6410 -0.5252 -0.1311
  158MOL0     C21684   3.216   9.836   6.095  1.2120  0.0116 -0.6809
  158MOL0     C21685   3.334   9.901   6.066  0.1677  0.0675  0.0011
  158MOL0     C21686   3.445   9.915   6.154  0.5403 -1.3917 -0.2148
  158MOL0     C21687   3.423  10.014   6.271  0.7920  0.2553 -0.4216
  158MOL0     C21688   3.345   9.955   6.385 -0.4945 -0.4541 -0.4732
  158MOL0     C21689   3.349  10.039   6.517 -0.2127 -0.3933 -0.0868
  158MOL0     O21690   3.466   9.995   6.581 -0.0009  0.7908  0.1737
  158MOL0     C21691   3.504  10.056   6.708 -0.0321  0.0619 -0.2664
  158MOL0     C21692   3.612   9.990   6.773  0.0362  0.4237 -1.0204
  158MOL0     C21693   3.677  10.045   6.883  0.0321  0.2413  0.0567
  158MOL0     C21694   3.797   9.981   6.944  0.1744  0.4186  0.9463
  158MOL0     C21695   3.626  10.161   6.941  0.2536  0.7279 -0.0728
  158MOL0     C21696   3.675  10.239   7.061 -0.4663  0.9717 -0.0883
  158MOL0     O21697   3.594  10.331   7.117  0.2872  0.9244 -0.2878
  158MOL0     C21698   3.624  10.391   7.234  0.2590 -0.0303  0.1571
  158MOL0     C21699   3.516  10.425   7.311  0.0692  0.8701 -0.3972
  158MOL0     C21700   3.539  10.504   7.421  0.4202  0.3901 -0.2987
  158MOL0     C21701   3.656  10.573   7.451 -0.6129 -0.2008  0.8202
  158MOL0     O21702   3.675  10.652   7.556 -0.3973 -0.7943  0.1256
  158MOL0     C21703   3.608  10.783   7.531  0.1474  0.7951 -0.8195
  158MOL0     C21704   3.585  10.861   7.657 -1.0149 -0.0033  0.3078
  158MOL0     C21705   3.471  10.813   7.741 -0.1471 -0.1335 -0.7600
  158MOL0     C21706   3.503  10.831   7.889  0.4078 -0.1529 -0.9885
  158MOL0     C21707   3.394  10.802   7.985  0.3012  0.2082 -0.3135
  158MOL0     C21708   3.251  10.871   7.962  0.5093 -0.8496 -0.5032
  158MOL0     C21709   3.273  11.013   8.029  0.2336 -0.5622 -0.8091
  158MOL0     C21710   3.156  11.110   8.007  0.4970  0.1002 -0.3284
  158MOL0    Cl21711   3.180  11.242   8.123 -0.3977 -0.3427 -0.2178
  158MOL0     C21712   3.760  10.544   7.366  0.2546  0.0528  0.6627
  158MOL0     C21713   3.749  10.449   7.265 -0.6302 -0.0250 -0.2134
  158MOL0     O21714   3.787  10.208   7.095  1.1093  0.0875 -0.4604
  158MOL0     C21715   3.518  10.221   6.876 -0.1853 -0.4399 -0.9586
  158MOL0     C21716   3.454  10.167   6.769  0.3803  0.0550  0.2687
  158MOL0     N21717   3.319   9.962   5.938 -0.0901  0.2450 -0.9433
  158MOL0     N21718   3.197   9.948   5.894 -0.8917 -0.0585 -0.2251
  158MOL0     C21719   2.858   8.903   6.058  0.5417 -1.0181 -0.4694
  158MOL0     C21720   2.767   8.840   5.967  0.4326 -1.3574  0.2297
  158MOL0     C21721   2.365   8.752   5.767 -0.3179  0.0808 -0.2482
  158MOL0     C21722   2.347   8.832   5.655 -0.3460 -1.5771 -0.8015
  158MOL0     C21723   2.275   8.793   5.542  1.5116  0.2985 -1.0290
  158MOL0     C21724   2.215   8.663   5.541 -0.3575 -0.2311 -0.7123
  158MOL0     O21725   2.125   8.624   5.448  0.8235  0.5502 -0.5996
  158MOL0     C21726   2.093   8.700   5.333  1.3960 -0.2403  0.5840
  158MOL0     C21727   2.191   8.666   5.223  0.2361 -0.8700  0.1157
  158MOL0     C21728   2.141   8.716   5.081 -0.5757 -0.4794 -0.5257
  158MOL0     C21729   2.257   8.719   4.978  0.4456 -0.7847 -0.2447
  158MOL0     C21730   2.202   8.772   4.845  0.0817 -1.0845 -1.2245
  158MOL0     C21731   2.158   8.801   4.738 -0.1228 -0.2618  0.5512
  158MOL0     C21732   2.229   8.584   5.657  0.0782  0.0618  0.3334
  158MOL0     C21733   2.299   8.625   5.771  0.6004  0.1571 -0.2667
  158MOL0     C21734   2.317   8.531   5.894 -0.1025  0.2868  0.6345
  158MOL0     H21735   2.498   9.024   6.053  0.1752 -0.9522  2.0522
  158MOL0     H21736   2.647   9.102   6.219 -1.4456 -1.9534  0.8924
  158MOL0     H21737   2.962   9.194   6.382 -1.3491 -1.6695  1.2204
  158MOL0     H21738   2.793   9.177   6.367  0.2327 -0.0222 -0.7534
  158MOL0     H21739   2.784   9.295   6.148  2.0688 -1.3258 -3.6107
  158MOL0     H21740   2.854   9.403   6.269 -1.0568 -1.1747  1.0246
  158MOL0     H21741   3.079   9.351   6.185  2.0772  0.3798 -1.8380
  158MOL0     H21742   3.007   9.235   6.073 -1.3329  0.4559 -1.3548
  158MOL0     H21743   2.955   9.373   5.917  3.9111 -2.0000  0.4512
  158MOL0     H21744   2.882   9.492   6.019 -1.6071 -2.4270 -3.3725
  158MOL0     H21745   3.180   9.453   5.961 -3.2330 -2.5905 -1.8619
  158MOL0     H21746   3.118   9.583   6.066  0.1007  2.5806 -1.0800
  158MOL0     H21747   3.181   9.680   5.813 -3.3267  5.3780  1.5500
  158MOL0     H21748   3.079   9.551   5.757 -0.2595  0.8736 -1.1949
  158MOL0     H21749   2.896   9.657   5.853 -0.4429 -0.1493  1.2945
  158MOL0     H21750   2.985   9.782   5.755 -2.1943 -1.4320 -1.1164
  158MOL0     H21751   2.921   9.883   5.930 -1.1817 -1.0807 -1.2833
  158MOL0     H21752   2.962   9.759   6.054  0.5750  0.3952  1.3129
  158MOL0     H21753   3.181   9.785   6.184 -2.7084 -0.2563 -2.1902
  158MOL0     H21754   3.537   9.940   6.102  0.6620 -1.1172  0.1337
  158MOL0     H21755   3.465   9.813   6.190 -0.4405 -1.3187  0.6066
  158MOL0     H21756   3.520  10.042   6.313 -0.4152 -0.8174  3.5151
  158MOL0     H21757   3.360  10.098   6.240 -1.5528 -1.5424 -0.7977
  158MOL0     H21758   3.241   9.938   6.356  0.0006  1.0306 -3.5468
  158MOL0     H21759   3.391   9.859   6.408  0.2972 -0.2297 -1.0905
  158MOL0     H21760   3.348  10.146   6.498  0.5719 -0.3565  0.0521
  158MOL0     H21761   3.265  10.014   6.582 -1.0922 -2.3152 -1.8505
  158MOL0     H21762   3.640   9.891   6.738  4.8327  1.1008  0.1938
  158MOL0     H21763   3.813   9.888   6.889 -1.4422  1.1729 -0.9208
  158MOL0     H21764   3.774   9.957   7.048  0.5768  1.5288  1.3076
  158MOL0     H21765   3.881  10.051   6.946 -1.0170  1.9052  0.8005
  158MOL0     H21766   3.413  10.396   7.297  0.4710 -0.5015 -0.7349
  158MOL0     H21767   3.451  10.533   7.478 -0.4159  1.3764 -1.9980
  158MOL0     H21768   3.675  10.834   7.461  1.8311 -2.7961 -2.0352
  158MOL0     H21769   3.511  10.776   7.480 -0.7382 -0.8001  0.9303
  158MOL0     H21770   3.673  10.866   7.721  1.3424  2.9472 -2.7507
  158MOL0     H21771   3.552  10.959   7.621 -4.8808  0.4876  4.2888
  158MOL0     H21772   3.460  10.705   7.727 -2.1053  0.1654 -1.9497
  158MOL0     H21773   3.380  10.866   7.710  1.4137  2.5162 -1.1750
  158MOL0     H21774   3.513  10.939   7.900 -3.4376  0.7743 -4.2055
  158MOL0     H21775   3.594  10.780   7.920 -1.4345 -1.7180  2.4333
  158MOL0     H21776   3.375  10.695   7.972  3.1163 -1.0924  3.8906
  158MOL0     H21777   3.425  10.821   8.088 -0.9368  3.0971 -0.3832
  158MOL0     H21778   3.170  10.816   8.012 -1.2387  2.2750  0.3160
  158MOL0     H21779   3.215  10.873   7.859 -2.9748 -0.4467  0.5724
  158MOL0     H21780   3.359  11.067   7.988 -2.3846  2.5337 -2.6222
  158MOL0     H21781   3.286  10.989   8.135 -2.7965 -2.3454 -0.7359
  158MOL0     H21782   3.062  11.054   8.016 -1.6400  3.2177 -1.3035
  158MOL0     H21783   3.166  11.132   7.900  0.7424 -2.1509 -0.8039
  158MOL0     H21784   3.852  10.597   7.390  1.7350 -2.6159  1.2913
  158MOL0     H21785   3.831  10.429   7.197  3.7993  3.1074  3.5375
  158MOL0     H21786   3.487  10.323   6.896 -0.1839  0.3999 -4.5186
  158MOL0     H21787   3.367  10.226   6.741  2.3993  3.1647  0.0371
  158MOL0     H21788   2.964   8.879   6.058  0.4550 -1.3943 -0.7610
  158MOL0     H21789   2.792   8.757   5.901  1.4389 -2.5409  2.0053
  158MOL0     H21790   2.364   8.939   5.665 -0.1012 -1.8441  2.9915
  158MOL0     H21791   2.252   8.860   5.460  1.1426 -2.0988 -2.9967
  158MOL0     H21792   1.992   8.674   5.300  0.5255  4.7037 -1.4143
  158MOL0     H21793   2.082   8.807   5.350 -1.6761 -0.2926 -0.5864
  158MOL0     H21794   2.190   8.558   5.210 -0.8454 -0.5965 -2.9628
  158MOL0     H21795   2.295   8.694   5.243 -0.0023 -0.0077  0.1980
  158MOL0     H21796   2.069   8.640   5.050 -1.5460 -0.1949  0.9162
  158MOL0     H21797   2.100   8.817   5.092 -0.6251 -0.5799  0.2465
  158MOL0     H21798   2.297   8.620   4.956 -1.0734 -0.9537 -2.6677
  158MOL0     H21799   2.327   8.788   5.025 -0.0580 -0.4180 -0.0120
  158MOL0     H21800   2.098   8.829   4.654  0.2066 -0.1024  0.3671
  158MOL0     H21801   2.201   8.479   5.648  3.3674 -0.8202 -1.0749
  158MOL0     H21802   2.418   8.542   5.936  0.7431  1.3474 -1.5480
  158MOL0     H21803   2.247   8.565   5.971  3.5669  3.3030  2.9605
  158MOL0     H21804   2.305   8.425   5.868  3.1925 -0.7252  2.6067
  159MOL0     O21805   5.991   1.266   8.567  0.6661 -0.0668  0.0624
  159MOL0     C21806   5.906   1.183   8.573 -0.4030  0.5568 -0.4821
  159MOL0     O21807   5.848   1.130   8.693  1.2080  0.3487  0.4588
  159MOL0     C21808   5.853   1.186   8.823  0.4325 -0.4958  0.5532
  159MOL0     C21809   5.869   1.328   8.843  0.6315  0.1325  0.3800
  159MOL0     C21810   5.850   1.377   8.967 -0.0378  0.2694  0.3053
  159MOL0     C21811   5.810   1.300   9.079  0.3607  0.2186  0.4616
  159MOL0     O21812   5.780   1.361   9.196 -0.1411  0.4605  0.2743
  159MOL0     C21813   5.874   1.459   9.248  0.3234 -0.4660  0.2227
  159MOL0     C21814   5.827   1.495   9.392 -1.1344  0.2736 -0.1775
  159MOL0     C21815   5.700   1.577   9.383  0.0914  0.5009 -0.6434
  159MOL0     C21816   5.729   1.734   9.376 -0.0614  0.1471  1.4678
  159MOL0     C21817   5.648   1.803   9.484 -0.1247  0.6849 -1.7074
  159MOL0     C21818   5.679   1.953   9.489 -0.5638 -0.2023 -0.3246
  159MOL0     C21819   5.617   2.007   9.622  0.0124  0.1072  0.0201
  159MOL0     C21820   5.647   2.156   9.645  0.7252 -0.6200 -0.5326
  159MOL0     N21821   5.587   2.201   9.777  0.4122 -0.6804  0.3043
  159MOL0     C21822   5.453   2.217   9.789 -0.5596  0.0586 -0.8918
  159MOL0     C21823   5.435   2.295   9.903  0.5746  0.6207 -1.3412
  159MOL0     C21824   5.307   2.322   9.982 -0.2919 -0.1327 -0.0312
  159MOL0     C21825   5.193   2.375   9.898 -0.2181 -0.4761 -0.1501
  159MOL0     C21826   5.224   2.519   9.867 -0.5981 -0.4148 -0.4383
  159MOL0     C21827   5.120   2.577   9.779  0.0556  1.2386  0.2686
  159MOL0     O21828   5.159   2.711   9.755  0.1669 -0.0360 -0.2719
  159MOL0     C21829   5.049   2.798   9.734 -0.9361 -0.0794  0.6972
  159MOL0     C21830   4.944   2.786   9.645 -0.0948  1.5092  1.1723
  159MOL0     C21831   4.869   2.904   9.604 -0.2362  0.4449 -0.2125
  159MOL0     C21832   4.754   2.888   9.508 -0.1065  0.7847  0.0263
  159MOL0     C21833   4.883   3.023   9.684 -0.1784  0.2729 -0.2457
  159MOL0     C21834   4.807   3.156   9.662  1.2897 -0.4060  0.1442
  159MOL0     O21835   4.824   3.249   9.768  0.7216  0.1896 -0.5689
  159MOL0     C21836   4.822   3.384   9.735  0.0277  0.1659 -0.0818
  159MOL0     C21837   4.935   3.439   9.685 -0.8618 -1.5569 -0.8462
  159MOL0     C21838   4.939   3.577   9.648  0.0360  0.2245  0.6955
  159MOL0     C21839   4.820   3.649   9.671  0.1176  0.0067  0.2956
  159MOL0     O21840   4.829   3.779   9.632  0.0200  0.3817 -0.0336
  159MOL0     C21841   4.705   3.854   9.633  0.1956  0.1404  0.1061
  159MOL0     C21842   4.663   3.908   9.770 -1.0771  0.9226 -1.8538
  159MOL0     C21843   4.521   3.967   9.789 -0.9107  0.0290 -0.3299
  159MOL0     C21844   4.489   4.001   9.945  0.9081  0.8309  0.3678
  159MOL0     C21845   4.576   4.106  10.005  0.0921  0.2219 -0.0752
  159MOL0     C21846   4.579   4.242   9.921 -1.3002 -0.1980  0.2031
  159MOL0     C21847   4.444   4.286   9.866 -0.8449  0.1591  0.1091
  159MOL0     C21848   4.453   4.425   9.802  0.7209  0.4790  0.4342
  159MOL0    Cl21849   4.293   4.462   9.722 -0.9537  0.1722 -0.2881
  159MOL0     C21850   4.705   3.590   9.726 -0.3636  0.5054  1.0456
  159MOL0     C21851   4.715   3.457   9.762 -0.9895 -0.3388  0.3334
  159MOL0     O21852   4.738   3.177   9.559 -0.5547  0.1359  0.0104
  159MOL0     C21853   4.976   3.031   9.788 -0.2625 -0.2782 -0.5609
  159MOL0     C21854   5.059   2.923   9.805  0.3456  0.3516  0.5431
  159MOL0     N21855   5.562   2.320   9.954 -0.3400  0.1670 -0.4176
  159MOL0     N21856   5.644   2.276   9.875 -0.9040  0.5155 -0.0544
  159MOL0     C21857   5.791   1.154   9.058  0.3194  0.3557 -0.8223
  159MOL0     C21858   5.816   1.104   8.931  0.8481  0.7753 -0.6870
  159MOL0     C21859   5.890   1.114   8.449  0.1514  0.2421 -0.8929
  159MOL0     C21860   5.892   0.974   8.442  0.1027  0.1934 -0.0879
  159MOL0     C21861   5.852   0.901   8.329 -0.6824 -0.0152  0.9915
  159MOL0     C21862   5.812   0.972   8.213 -0.8707 -0.0625 -0.1229
  159MOL0     O21863   5.773   0.898   8.102 -0.3459 -0.6278  0.3509
  159MOL0     C21864   5.783   0.946   7.970 -1.2930 -0.9607 -0.4868
  159MOL0     C21865   5.647   0.922   7.897 -0.3322 -1.0339 -0.0078
  159MOL0     C21866   5.657   0.954   7.746  0.2046 -0.6973  0.4158
  159MOL0     C21867   5.705   1.100   7.708  0.6771 -0.0956  0.4672
  159MOL0     C21868   5.624   1.199   7.787  0.1079  0.2580  0.1946
  159MOL0     C21869   5.556   1.274   7.856  0.9980 -0.8306 -0.0319
  159MOL0     C21870   5.815   1.109   8.218  1.3650 -0.4034  0.4435
  159MOL0     C21871   5.852   1.186   8.330  1.0327 -0.5193 -0.6746
  159MOL0     C21872   5.866   1.339   8.320 -0.1660  0.1529  0.4332
  159MOL0     H21873   5.908   1.386   8.761 -1.6482 -1.5824 -2.0720
  159MOL0     H21874   5.875   1.483   8.979 -0.7742  0.3278  1.4573
  159MOL0     H21875   5.867   1.557   9.201  0.0173  0.0655  1.3400
  159MOL0     H21876   5.978   1.426   9.245 -0.0180 -2.2407  3.4468
  159MOL0     H21877   5.806   1.399   9.441 -2.6531 -1.5436 -3.9396
  159MOL0     H21878   5.899   1.558   9.444  0.3478 -1.7523  0.3601
  159MOL0     H21879   5.648   1.552   9.290  0.0423 -3.1699  0.2163
  159MOL0     H21880   5.629   1.556   9.464  1.0304  1.0408  0.3306
  159MOL0     H21881   5.834   1.754   9.398 -0.3470  0.6206  2.4447
  159MOL0     H21882   5.681   1.771   9.285 -2.0170 -1.0348  1.9683
  159MOL0     H21883   5.677   1.764   9.582  0.9006  3.7267 -0.6911
  159MOL0     H21884   5.540   1.791   9.479 -0.4127  1.8321  0.4797
  159MOL0     H21885   5.785   1.979   9.495 -0.6059  0.3596 -1.5698
  159MOL0     H21886   5.626   1.993   9.402  0.1725  3.0721  0.5813
  159MOL0     H21887   5.661   1.966   9.714  1.2752 -1.7306 -1.3187
  159MOL0     H21888   5.510   1.988   9.631  0.2696 -1.2851  0.4070
  159MOL0     H21889   5.755   2.163   9.658  0.4777  0.3561  1.2617
  159MOL0     H21890   5.596   2.223   9.575 -2.0983 -2.7339 -0.6532
  159MOL0     H21891   5.370   2.174   9.732 -0.2275 -1.7518 -0.0748
  159MOL0     H21892   5.339   2.383  10.067 -0.2045 -0.8162  0.4396
  159MOL0     H21893   5.281   2.226  10.028 -1.6324  0.7562  1.1500
  159MOL0     H21894   5.184   2.310   9.810  0.4677 -1.7817  0.7170
  159MOL0     H21895   5.102   2.369   9.957 -0.4849  2.3215 -0.1778
  159MOL0     H21896   5.235   2.569   9.964  0.8416 -2.3160  0.4443
  159MOL0     H21897   5.324   2.530   9.823  0.4578 -1.0089  1.6610
  159MOL0     H21898   5.113   2.524   9.684  0.7950  0.2185  0.7600
  159MOL0     H21899   5.023   2.568   9.830  0.1337 -2.4622  0.0758
  159MOL0     H21900   4.939   2.694   9.589  4.0864  1.0517  1.2684
  159MOL0     H21901   4.764   2.794   9.453  1.0270 -0.3815  2.1419
  159MOL0     H21902   4.752   2.974   9.440  2.4898  0.9306  0.0603
  159MOL0     H21903   4.658   2.891   9.561 -1.1246 -0.7367 -1.6067
  159MOL0     H21904   5.029   3.386   9.679  1.5564  2.1143  1.0480
  159MOL0     H21905   5.022   3.634   9.608 -1.5770  2.0189 -0.2679
  159MOL0     H21906   4.716   3.945   9.573  2.4310  0.1849  0.5176
  159MOL0     H21907   4.633   3.795   9.575  2.3753 -1.1637 -1.4209
  159MOL0     H21908   4.674   3.816   9.829 -3.5168  1.3030 -0.6430
  159MOL0     H21909   4.730   3.985   9.808 -1.0599  0.6327 -1.2815
  159MOL0     H21910   4.444   3.899   9.752 -1.7004  1.7794 -2.0436
  159MOL0     H21911   4.516   4.054   9.724  0.1804 -1.6222 -2.8106
  159MOL0     H21912   4.497   3.909  10.003 -0.5293  0.0629 -0.5815
  159MOL0     H21913   4.384   4.024   9.965 -0.2105 -4.1417  1.4681
  159MOL0     H21914   4.535   4.116  10.106  0.3191 -2.6424  0.3679
  159MOL0     H21915   4.673   4.059  10.022 -0.0759 -1.2165 -2.5990
  159MOL0     H21916   4.652   4.213   9.845  0.0594 -1.6332  1.9565
  159MOL0     H21917   4.634   4.321   9.972  1.1952 -2.2551  0.8727
  159MOL0     H21918   4.381   4.296   9.955  0.5092  2.9893  0.8513
  159MOL0     H21919   4.398   4.205   9.809 -1.4821 -0.6466  1.6993
  159MOL0     H21920   4.537   4.421   9.732  2.4564 -0.4734  2.4435
  159MOL0     H21921   4.479   4.490   9.885  2.2108 -0.2286  0.5494
  159MOL0     H21922   4.609   3.632   9.756 -1.3402 -1.4204  0.7296
  159MOL0     H21923   4.641   3.397   9.814 -2.2115  2.7867  2.5556
  159MOL0     H21924   4.991   3.110   9.861 -1.1271 -1.0137  0.4604
  159MOL0     H21925   5.136   2.926   9.881  1.0556  1.4795 -0.1857
  159MOL0     H21926   5.753   1.096   9.142 -0.2458  3.3828  1.1850
  159MOL0     H21927   5.803   0.998   8.910 -0.1691  1.3601 -3.3859
  159MOL0     H21928   5.912   0.908   8.525 -0.8281 -1.3985 -1.0783
  159MOL0     H21929   5.862   0.793   8.330  1.0756 -0.0393 -2.5092
  159MOL0     H21930   5.813   1.050   7.961 -2.7037 -0.5694 -0.8292
  159MOL0     H21931   5.870   0.896   7.926  0.5921  1.5936  0.0908
  159MOL0     H21932   5.567   0.974   7.950  1.6391  1.3589  0.8600
  159MOL0     H21933   5.625   0.815   7.901  0.2144 -1.1900 -0.9319
  159MOL0     H21934   5.730   0.881   7.710  0.2952  0.8816 -2.9139
  159MOL0     H21935   5.558   0.936   7.703  0.1924  0.6706 -0.1495
  159MOL0     H21936   5.695   1.122   7.602 -1.5150  0.4276  0.7209
  159MOL0     H21937   5.805   1.105   7.751  0.5851 -0.9807  0.8169
  159MOL0     H21938   5.498   1.342   7.915  1.3018 -0.0983 -0.5648
  159MOL0     H21939   5.794   1.173   8.132 -2.7626 -0.3308  1.2853
  159MOL0     H21940   5.813   1.382   8.235  1.7785  3.0691  0.5435
  159MOL0     H21941   5.840   1.402   8.406  0.1933 -1.9021  2.1144
  159MOL0     H21942   5.973   1.359   8.309  0.2979 -2.0777  0.5537
  160MOL0     O21943   0.606   6.303   5.761 -0.0223  0.5716 -0.2316
  160MOL0     C21944   0.721   6.308   5.719 -0.1605 -0.3173  0.5374
  160MOL0     O21945   0.815   6.397   5.763  0.7570 -0.8235 -0.1121
  160MOL0     C21946   0.764   6.495   5.846  0.0697  0.9232 -0.3706
  160MOL0     C21947   0.695   6.592   5.780  0.8500 -0.7955  0.6400
  160MOL0     C21948   0.623   6.675   5.863 -0.5420  0.4203  0.1865
  160MOL0     C21949   0.610   6.664   6.002 -0.4251 -0.1274 -0.5202
  160MOL0     O21950   0.530   6.738   6.092  0.0655 -0.0282  0.3426
  160MOL0     C21951   0.458   6.846   6.043  0.7419 -0.2116 -0.1570
  160MOL0     C21952   0.356   6.899   6.149  0.8599 -0.3605 -0.3400
  160MOL0     C21953   0.223   6.824   6.115 -0.3919 -0.3199  1.1481
  160MOL0     C21954   0.121   6.848   6.224 -0.4259 -0.1305  0.1953
  160MOL0     C21955   0.071   6.985   6.241 -0.9729  0.0902 -0.2008
  160MOL0     C21956  -0.039   7.003   6.350  0.0727  0.7278  0.2579
  160MOL0     C21957  -0.052   7.136   6.403 -0.0411  0.1192 -0.1104
  160MOL0     C21958  -0.177   7.167   6.485  0.4430 -1.1234 -1.3729
  160MOL0     N21959  -0.178   7.291   6.567  0.7900 -0.3649 -1.0084
  160MOL0     C21960  -0.287   7.376   6.588  0.2232 -0.4049 -0.0497
  160MOL0     C21961  -0.244   7.441   6.694 -0.3565  0.2026 -0.0025
  160MOL0     C21962  -0.327   7.530   6.775  0.3593  0.8467 -0.1236
  160MOL0     C21963  -0.389   7.634   6.670 -0.5684  0.4579  0.2030
  160MOL0     C21964  -0.484   7.736   6.738  0.2826 -0.3807  1.4682
  160MOL0     C21965  -0.604   7.649   6.789  0.0722 -0.1728 -0.7412
  160MOL0     O21966  -0.723   7.731   6.791  0.0569  0.0065 -0.0723
  160MOL0     C21967  -0.842   7.677   6.841 -0.3678 -0.4629  0.1793
  160MOL0     C21968  -0.878   7.543   6.834  0.8855  1.0295 -0.1485
  160MOL0     C21969  -1.008   7.502   6.880  0.8203  1.0988 -0.8937
  160MOL0     C21970  -1.052   7.365   6.850 -0.4114 -0.0749  0.1056
  160MOL0     C21971  -1.099   7.593   6.944 -0.3682 -0.5563  0.2797
  160MOL0     C21972  -1.239   7.559   7.003  0.9142 -0.3033 -0.1184
  160MOL0     O21973  -1.317   7.668   7.033  0.3137 -0.4909 -0.2228
  160MOL0     C21974  -1.431   7.665   7.104  0.9216 -0.1225 -0.1774
  160MOL0     C21975  -1.538   7.746   7.065 -0.1830 -0.6170 -0.4950
  160MOL0     C21976  -1.660   7.753   7.135 -0.8531  1.2164 -0.0764
  160MOL0     C21977  -1.681   7.682   7.248 -0.9336  0.0647  0.6436
  160MOL0     O21978  -1.800   7.718   7.319  0.5519  0.2285  1.6201
  160MOL0     C21979  -1.869   7.619   7.403  0.4843  0.0688 -0.3774
  160MOL0     C21980  -1.891   7.679   7.542  0.0414 -0.0494  0.0380
  160MOL0     C21981  -2.013   7.621   7.623  0.2553  0.2732  0.0755
  160MOL0     C21982  -1.970   7.600   7.768  0.1668  0.4136  0.2467
  160MOL0     C21983  -2.087   7.544   7.848 -0.7054 -0.1313  0.6734
  160MOL0     C21984  -2.183   7.657   7.874  0.0515  0.7814  0.1380
  160MOL0     C21985  -2.294   7.617   7.973  0.2885  0.3647 -0.6923
  160MOL0     C21986  -2.356   7.731   8.053  0.5687 -0.6578 -0.4855
  160MOL0    Cl21987  -2.217   7.784   8.154  0.1274  0.4935  0.1910
  160MOL0     C21988  -1.571   7.614   7.297  0.3443  0.6279 -0.0631
  160MOL0     C21989  -1.452   7.595   7.227 -0.0309 -0.0133  0.8013
  160MOL0     O21990  -1.258   7.440   7.042 -0.1270 -0.2299  0.7010
  160MOL0     C21991  -1.055   7.726   6.950 -0.2153  0.7443  0.0474
  160MOL0     C21992  -0.941   7.768   6.891 -0.1669 -0.5747 -1.3057
  160MOL0     N21993  -0.115   7.422   6.722 -0.2688  0.3466 -0.0685
  160MOL0     N21994  -0.076   7.335   6.644 -0.5180  0.8008 -0.2991
  160MOL0     C21995   0.685   6.563   6.056 -0.9457  0.3555 -0.3383
  160MOL0     C21996   0.768   6.487   5.987  0.4877 -0.2188  0.1673
  160MOL0     C21997   0.769   6.201   5.620  1.4432  1.0073  0.7296
  160MOL0     C21998   0.870   6.227   5.513 -0.1199  0.0575 -0.7765
  160MOL0     C21999   0.896   6.143   5.413 -0.4316  0.7133  0.2847
  160MOL0     C22000   0.834   6.017   5.411 -0.5562  0.0069 -1.0708
  160MOL0     O22001   0.833   5.932   5.300 -0.2147 -0.3336  0.0422
  160MOL0     C22002   0.916   5.984   5.191  1.1398 -0.1335 -0.4176
  160MOL0     C22003   0.930   5.868   5.102  0.1485 -0.0520 -0.6056
  160MOL0     C22004   1.041   5.884   5.001 -0.5558  0.1874  0.1145
  160MOL0     C22005   1.016   5.823   4.869 -0.0704 -0.8342 -0.5095
  160MOL0     C22006   0.976   5.684   4.868  0.0693  0.1207 -0.0230
  160MOL0     C22007   0.933   5.571   4.853 -0.1137  0.0136  0.0072
  160MOL0     C22008   0.748   5.983   5.513  0.2900 -0.7679 -0.4136
  160MOL0     C22009   0.720   6.060   5.620  0.4677  0.3951 -0.2284
  160MOL0     C22010   0.624   6.007   5.723 -0.6126  0.3393 -1.0141
  160MOL0     H22011   0.699   6.602   5.672 -1.4827 -2.7702  0.2923
  160MOL0     H22012   0.568   6.760   5.824  1.3368  0.8757 -1.6271
  160MOL0     H22013   0.405   6.824   5.950 -1.8823  3.9816  0.0888
  160MOL0     H22014   0.525   6.926   6.010 -0.5335  1.3241  0.7833
  160MOL0     H22015   0.388   6.888   6.253  0.1719  0.8243  0.0158
  160MOL0     H22016   0.336   7.004   6.125 -1.0417 -1.0607 -2.1362
  160MOL0     H22017   0.188   6.858   6.017 -0.0296  1.5361  1.6303
  160MOL0     H22018   0.236   6.716   6.104 -1.2346 -0.4243  1.0765
  160MOL0     H22019   0.033   6.785   6.203  1.0903 -1.8313 -1.4561
  160MOL0     H22020   0.155   6.818   6.323  0.0508  4.1819  1.5456
  160MOL0     H22021   0.033   7.027   6.147 -1.4134  0.0853 -0.0291
  160MOL0     H22022   0.162   7.043   6.259  1.6700 -3.1691 -1.9601
  160MOL0     H22023  -0.140   6.973   6.321 -0.5245  0.1184  2.6890
  160MOL0     H22024  -0.003   6.936   6.430  0.4377  1.2949  0.5754
  160MOL0     H22025  -0.038   7.212   6.325 -0.8994 -2.2246 -2.7071
  160MOL0     H22026   0.042   7.134   6.458  0.6528  1.0454 -1.1893
  160MOL0     H22027  -0.270   7.157   6.429  0.4952 -1.2376 -1.4383
  160MOL0     H22028  -0.177   7.088   6.559  1.8888  0.3971  0.3623
  160MOL0     H22029  -0.388   7.374   6.550  0.1660  1.2951 -0.0611
  160MOL0     H22030  -0.260   7.583   6.843  0.1947  3.9927 -2.1991
  160MOL0     H22031  -0.403   7.480   6.836 -0.9978  3.5039  0.5155
  160MOL0     H22032  -0.299   7.675   6.624  1.1191 -0.1525  2.7474
  160MOL0     H22033  -0.441   7.585   6.587  0.7980 -2.4827  0.9674
  160MOL0     H22034  -0.430   7.787   6.818 -0.3222 -1.1560  2.3986
  160MOL0     H22035  -0.524   7.809   6.667 -1.3328 -0.6534  2.0336
  160MOL0     H22036  -0.619   7.565   6.721  0.4415  0.7330 -1.9658
  160MOL0     H22037  -0.585   7.619   6.892 -4.0401  3.1930  1.3365
  160MOL0     H22038  -0.798   7.476   6.802 -1.6735 -2.3323 -0.0978
  160MOL0     H22039  -0.981   7.310   6.788 -2.1510 -3.0504  0.5576
  160MOL0     H22040  -1.153   7.365   6.807  0.0655  0.6007 -1.0721
  160MOL0     H22041  -1.055   7.299   6.937  4.3805 -1.7651 -0.6959
  160MOL0     H22042  -1.534   7.810   6.977  0.2448  0.5813  0.3763
  160MOL0     H22043  -1.755   7.799   7.108 -2.1190 -2.2190 -2.0825
  160MOL0     H22044  -1.962   7.585   7.357  1.0224 -0.3309 -1.1920
  160MOL0     H22045  -1.803   7.536   7.429 -0.2556  0.2428  2.3894
  160MOL0     H22046  -1.799   7.666   7.600  0.1206 -1.7916 -0.4397
  160MOL0     H22047  -1.896   7.788   7.533  0.7623  0.2319  2.3543
  160MOL0     H22048  -2.046   7.525   7.583  1.3134 -0.0472 -0.0478
  160MOL0     H22049  -2.090   7.699   7.618  0.4909  0.4699 -0.5320
  160MOL0     H22050  -1.937   7.697   7.806  1.1119  1.9278 -3.9071
  160MOL0     H22051  -1.881   7.539   7.786 -0.9501 -0.5814  2.7747
  160MOL0     H22052  -2.117   7.453   7.795 -0.6669  0.5548 -0.5456
  160MOL0     H22053  -2.049   7.514   7.946  4.2102  0.9710 -0.6276
  160MOL0     H22054  -2.239   7.695   7.788  1.6644  0.0976 -1.2669
  160MOL0     H22055  -2.126   7.746   7.902 -0.7900  1.3739  0.0103
  160MOL0     H22056  -2.257   7.542   8.043  1.9526  1.9683  0.2176
  160MOL0     H22057  -2.368   7.569   7.908  0.5396 -2.5900  1.0460
  160MOL0     H22058  -2.431   7.688   8.121  2.5129 -1.2580  1.3680
  160MOL0     H22059  -2.397   7.809   7.988 -0.4358 -0.8559 -0.1136
  160MOL0     H22060  -1.603   7.570   7.391  0.9206  0.9586  0.2966
  160MOL0     H22061  -1.368   7.538   7.266  1.6859 -0.1955 -2.7149
  160MOL0     H22062  -1.114   7.805   6.996 -1.1606 -0.2835  0.6894
  160MOL0     H22063  -0.915   7.872   6.907  1.5986 -1.4227  2.2142
  160MOL0     H22064   0.673   6.557   6.164 -0.1042 -0.7525 -0.2879
  160MOL0     H22065   0.835   6.410   6.024  2.4149  2.4199  2.5565
  160MOL0     H22066   0.930   6.317   5.510  1.8548 -1.0988  0.8397
  160MOL0     H22067   0.957   6.178   5.330  1.0275 -1.9588  0.1238
  160MOL0     H22068   0.855   6.056   5.136  0.9763  0.2536  0.2557
  160MOL0     H22069   1.016   6.011   5.226  0.6399 -2.4307  3.4324
  160MOL0     H22070   0.838   5.866   5.044 -0.5532  2.0114  0.3732
  160MOL0     H22071   0.937   5.777   5.162 -3.1803 -0.2788 -0.3781
  160MOL0     H22072   1.055   5.990   4.977 -1.9416  0.1597 -0.9537
  160MOL0     H22073   1.132   5.834   5.035 -0.9846 -0.0793  0.8905
  160MOL0     H22074   1.105   5.846   4.810  3.2542 -1.2055  3.8563
  160MOL0     H22075   0.939   5.880   4.816 -1.2274 -1.4143  0.4761
  160MOL0     H22076   0.882   5.480   4.829 -1.1984  0.9994 -1.6230
  160MOL0     H22077   0.706   5.883   5.509 -1.1636 -0.3890  2.6864
  160MOL0     H22078   0.525   6.053   5.723 -1.2077 -0.7327  1.6851
  160MOL0     H22079   0.609   5.899   5.718 -0.0612 -0.0762  2.8696
  160MOL0     H22080   0.663   6.028   5.823 -0.5762  1.4226 -1.2343
  161MOL0     O22081   8.015   2.807   1.483  0.8231 -0.2717  0.5515
  161MOL0     C22082   8.101   2.748   1.417 -0.1788  0.1432  0.0428
  161MOL0     O22083   8.097   2.615   1.373 -0.1469 -0.2808  0.0619
  161MOL0     C22084   7.976   2.555   1.371  0.2409  0.4254 -0.1918
  161MOL0     C22085   7.915   2.556   1.245 -0.7581 -0.2585  0.1856
  161MOL0     C22086   7.796   2.494   1.217 -1.0427 -0.1600  0.1401
  161MOL0     C22087   7.718   2.440   1.317 -0.1178 -0.1625 -0.2610
  161MOL0     O22088   7.597   2.388   1.280 -0.3658 -0.0733 -0.1294
  161MOL0     C22089   7.523   2.326   1.391 -1.4958  0.1818  0.0662
  161MOL0     C22090   7.402   2.249   1.338  0.4429  0.0536  0.4084
  161MOL0     C22091   7.360   2.120   1.410  0.4949 -0.0243  0.7697
  161MOL0     C22092   7.243   2.053   1.342  0.5749  0.3440  0.1650
  161MOL0     C22093   7.221   1.917   1.414  1.0377  0.6031  0.3189
  161MOL0     C22094   7.093   1.851   1.349 -0.3172 -0.1140  0.8254
  161MOL0     C22095   7.075   1.704   1.394  0.4423 -0.5259 -0.4116
  161MOL0     C22096   7.012   1.676   1.526 -0.0875  0.0725  0.2758
  161MOL0     N22097   7.099   1.680   1.645  0.6147 -0.0190  0.3651
  161MOL0     C22098   7.166   1.571   1.676 -0.6438  0.4816 -0.1358
  161MOL0     C22099   7.228   1.599   1.792 -0.1616 -0.5243 -0.4486
  161MOL0     C22100   7.334   1.532   1.872 -0.2222 -0.6198  0.1765
  161MOL0     C22101   7.339   1.577   2.023 -0.1483 -0.0279  0.0444
  161MOL0     C22102   7.436   1.702   2.043  0.5543 -0.2718  0.6833
  161MOL0     C22103   7.492   1.721   2.177  0.2881 -0.8070 -0.1159
  161MOL0     O22104   7.541   1.856   2.200 -0.4281 -0.0532  0.0972
  161MOL0     C22105   7.555   1.895   2.326 -0.7263  0.6274  0.0571
  161MOL0     C22106   7.574   1.799   2.431 -0.4000  0.2780 -0.1229
  161MOL0     C22107   7.592   1.838   2.567  0.8939  0.7257  0.7392
  161MOL0     C22108   7.581   1.740   2.675  0.8177  0.7346 -0.2206
  161MOL0     C22109   7.600   1.977   2.592 -0.2606  0.2076  1.1318
  161MOL0     C22110   7.607   2.031   2.730  0.1930 -0.0931  0.4370
  161MOL0     O22111   7.527   2.130   2.769  0.5732  0.1254 -0.2908
  161MOL0     C22112   7.560   2.183   2.888 -1.5976 -0.1308 -0.4794
  161MOL0     C22113   7.511   2.136   3.007  1.2377 -0.8007 -0.3929
  161MOL0     C22114   7.535   2.212   3.124  0.2022 -0.5144  0.0427
  161MOL0     C22115   7.614   2.323   3.133  0.6799 -1.3471  0.6755
  161MOL0     O22116   7.625   2.391   3.249  0.1653 -0.0499  0.0811
  161MOL0     C22117   7.536   2.374   3.358  0.3340 -0.6122 -0.4452
  161MOL0     C22118   7.586   2.470   3.461  0.4985  0.7784 -0.2149
  161MOL0     C22119   7.726   2.435   3.513  0.4770  0.4426  0.4204
  161MOL0     C22120   7.757   2.517   3.634  0.0635 -0.4689  0.8047
  161MOL0     C22121   7.884   2.466   3.725  0.8880 -1.2229 -0.2681
  161MOL0     C22122   7.853   2.340   3.809 -0.3842 -0.3208  0.1033
  161MOL0     C22123   7.986   2.285   3.867  0.7835  0.5982  0.8961
  161MOL0     C22124   8.020   2.363   3.991 -0.1753  0.3535  0.3309
  161MOL0    Cl22125   7.891   2.370   4.123 -0.2509 -0.1863 -0.3446
  161MOL0     C22126   7.682   2.355   3.012 -0.0380  0.6741 -0.7448
  161MOL0     C22127   7.649   2.286   2.895  0.3400 -0.4823  0.1700
  161MOL0     O22128   7.672   1.962   2.804  0.1014 -0.3277 -0.8891
  161MOL0     C22129   7.597   2.073   2.487  0.3516 -0.3343 -0.5751
  161MOL0     C22130   7.569   2.035   2.356 -0.0572  0.4289 -0.3979
  161MOL0     N22131   7.204   1.731   1.828 -0.4144  0.3167 -0.0924
  161MOL0     N22132   7.118   1.777   1.742 -0.8311 -0.1029  0.4776
  161MOL0     C22133   7.770   2.447   1.451 -0.1624  0.4950 -1.1933
  161MOL0     C22134   7.894   2.507   1.478 -0.0569  0.5352 -0.6642
  161MOL0     C22135   8.230   2.831   1.395 -0.1097  0.4652  0.4350
  161MOL0     C22136   8.334   2.775   1.310 -0.0100 -0.0493  0.3326
  161MOL0     C22137   8.468   2.827   1.302 -0.1241  0.3830  0.3268
  161MOL0     C22138   8.493   2.946   1.379 -0.5960 -0.2687 -0.0297
  161MOL0     O22139   8.610   3.016   1.369  0.2675 -0.6693  0.5504
  161MOL0     C22140   8.718   2.978   1.283  0.4628  0.1148  0.4349
  161MOL0     C22141   8.838   3.056   1.332 -0.7171  0.5429 -0.4840
  161MOL0     C22142   8.847   3.208   1.303  0.6803  0.9286 -0.6126
  161MOL0     C22143   8.994   3.262   1.301 -0.9409 -0.1691  0.1559
  161MOL0     C22144   8.994   3.411   1.323 -0.7271  0.4867  0.0153
  161MOL0     C22145   8.979   3.528   1.345 -0.3568  0.0337 -0.9528
  161MOL0     C22146   8.390   3.006   1.454  0.2880  0.3112  0.2657
  161MOL0     C22147   8.257   2.954   1.460 -0.4290 -0.6828  1.0356
  161MOL0     C22148   8.162   3.043   1.527 -0.0168 -0.1098  0.4566
  161MOL0     H22149   7.951   2.609   1.158 -4.7081  0.9913 -0.9236
  161MOL0     H22150   7.759   2.508   1.115 -0.2195  3.1656  0.1874
  161MOL0     H22151   7.496   2.409   1.455 -0.7431  3.4597 -3.4704
  161MOL0     H22152   7.584   2.263   1.457 -2.4378 -0.9914 -0.1368
  161MOL0     H22153   7.317   2.315   1.358  0.2611 -1.0806  4.1258
  161MOL0     H22154   7.410   2.236   1.230  1.5715  0.0680  0.4812
  161MOL0     H22155   7.446   2.052   1.406  2.6929  2.4952  1.7945
  161MOL0     H22156   7.338   2.138   1.516  0.2804 -4.0160  1.5579
  161MOL0     H22157   7.155   2.116   1.357 -2.4325 -2.7421 -2.8746
  161MOL0     H22158   7.252   2.040   1.234  0.5850 -1.7181  0.3792
  161MOL0     H22159   7.204   1.924   1.522 -0.3099  1.2820  0.0823
  161MOL0     H22160   7.309   1.854   1.401 -0.6363 -1.2750 -3.2188
  161MOL0     H22161   7.008   1.915   1.375 -0.3072  0.2168  0.0690
  161MOL0     H22162   7.101   1.848   1.240  0.4381  0.9833  0.8281
  161MOL0     H22163   7.173   1.655   1.393  0.4854 -0.4753 -2.1780
  161MOL0     H22164   7.013   1.652   1.321 -1.2406 -1.5247  1.6353
  161MOL0     H22165   6.918   1.731   1.539 -0.9669 -1.0618 -0.9682
  161MOL0     H22166   6.975   1.573   1.525  0.0797  0.0083  0.5432
  161MOL0     H22167   7.178   1.477   1.623 -0.8330 -0.0518  0.7419
  161MOL0     H22168   7.432   1.548   1.826 -0.1493  1.1518  0.8904
  161MOL0     H22169   7.307   1.426   1.875  0.2882 -0.9696 -3.4692
  161MOL0     H22170   7.247   1.609   2.071 -2.5142 -1.8296 -2.9183
  161MOL0     H22171   7.381   1.492   2.077  1.1737 -0.4659 -1.5764
  161MOL0     H22172   7.515   1.708   1.968 -1.3859  1.4471 -1.3562
  161MOL0     H22173   7.372   1.790   2.027 -1.0305 -1.6075 -0.8948
  161MOL0     H22174   7.418   1.703   2.255  1.3753  0.3528  1.2304
  161MOL0     H22175   7.581   1.657   2.175  0.9444 -0.0174  1.7688
  161MOL0     H22176   7.580   1.694   2.405  2.6074  0.2285  0.4107
  161MOL0     H22177   7.540   1.640   2.657  2.7218 -1.0969  4.0854
  161MOL0     H22178   7.512   1.783   2.748  1.8397  0.3514  1.0111
  161MOL0     H22179   7.680   1.734   2.722 -1.1848 -0.8043  4.3436
  161MOL0     H22180   7.455   2.042   3.002  0.7545 -0.4440 -2.8176
  161MOL0     H22181   7.485   2.171   3.211  1.7482 -1.6156  0.4456
  161MOL0     H22182   7.434   2.406   3.338  0.3306 -0.0088  0.4676
  161MOL0     H22183   7.537   2.269   3.389  0.0961  0.2111  2.7013
  161MOL0     H22184   7.584   2.577   3.438 -2.1429  0.6679 -0.8886
  161MOL0     H22185   7.515   2.456   3.544  0.2198 -0.7274 -0.6694
  161MOL0     H22186   7.801   2.450   3.435 -0.1528 -0.2235 -0.3190
  161MOL0     H22187   7.728   2.331   3.547 -1.6833  0.5490  1.0104
  161MOL0     H22188   7.683   2.516   3.714  0.6837 -1.0194  1.3811
  161MOL0     H22189   7.774   2.621   3.604  0.7948 -0.8925 -0.3012
  161MOL0     H22190   7.970   2.454   3.658  0.5914  0.5723 -1.0377
  161MOL0     H22191   7.904   2.544   3.799  1.5123 -2.7221  1.2046
  161MOL0     H22192   7.809   2.254   3.758  2.7568 -1.6899 -0.5328
  161MOL0     H22193   7.775   2.365   3.881 -0.0789  4.0582 -0.7786
  161MOL0     H22194   8.067   2.278   3.794 -1.3426 -0.4473 -1.5303
  161MOL0     H22195   7.978   2.178   3.889 -0.7058  0.1032 -1.5854
  161MOL0     H22196   8.056   2.460   3.957  0.0195 -0.5587 -2.2756
  161MOL0     H22197   8.098   2.301   4.036 -0.2161 -0.1367 -0.2600
  161MOL0     H22198   7.756   2.434   3.012  0.1266  0.5223 -0.2963
  161MOL0     H22199   7.693   2.312   2.800  2.4950  0.5570  1.3763
  161MOL0     H22200   7.616   2.173   2.524 -2.3783 -0.7938  2.6332
  161MOL0     H22201   7.567   2.121   2.290 -2.6185 -0.2763 -1.3638
  161MOL0     H22202   7.713   2.396   1.529 -1.3848  1.1262 -1.6487
  161MOL0     H22203   7.940   2.514   1.576  1.3126  0.4867 -1.2732
  161MOL0     H22204   8.287   2.692   1.258 -3.4089  0.7644  1.7936
  161MOL0     H22205   8.534   2.769   1.239 -1.8573 -0.9758 -0.3150
  161MOL0     H22206   8.745   2.873   1.293  3.2332  0.6526 -0.5249
  161MOL0     H22207   8.690   3.000   1.179 -0.7066  0.9128  0.8855
  161MOL0     H22208   8.914   2.992   1.287 -1.3596 -1.7367  1.4532
  161MOL0     H22209   8.843   3.039   1.440  2.3361  3.2495 -0.0615
  161MOL0     H22210   8.808   3.215   1.202  1.9506  0.4211 -1.1646
  161MOL0     H22211   8.788   3.260   1.379 -0.4992 -0.4088 -0.5707
  161MOL0     H22212   9.041   3.239   1.205 -1.8865 -4.1018  0.4573
  161MOL0     H22213   9.053   3.235   1.389  1.1765  1.9510 -0.5077
  161MOL0     H22214   8.957   3.632   1.356  2.6597  1.2418 -4.1948
  161MOL0     H22215   8.412   3.099   1.505 -0.3589  0.8631 -0.4392
  161MOL0     H22216   8.204   3.128   1.581 -1.9752  1.1088  0.1991
  161MOL0     H22217   8.090   3.078   1.451  1.8454 -2.8888 -2.8757
  161MOL0     H22218   8.113   2.986   1.606  0.4785 -0.8510  0.2353
  162MOL0     O22219   5.376  10.128   3.786  0.0480  0.4710 -0.3374
  162MOL0     C22220   5.375  10.246   3.823 -0.2070 -0.4963 -0.0359
  162MOL0     O22221   5.259  10.319   3.858 -0.2609 -0.1481 -0.0856
  162MOL0     C22222   5.143  10.240   3.874  0.4327 -0.5494 -1.1075
  162MOL0     C22223   5.097  10.185   3.998 -0.0296  0.8579 -0.1787
  162MOL0     C22224   4.988  10.087   4.000  0.4067  0.1786 -0.4860
  162MOL0     C22225   4.922  10.050   3.883  0.2232 -0.0250 -0.1859
  162MOL0     O22226   4.831   9.945   3.888  0.4337 -0.2783  0.5854
  162MOL0     C22227   4.719   9.944   3.798  0.6629  0.2430  0.4169
  162MOL0     C22228   4.623   9.847   3.861 -0.3005  0.1681 -0.1126
  162MOL0     C22229   4.512   9.799   3.767 -0.0930 -0.3862  0.5328
  162MOL0     C22230   4.402   9.903   3.722 -0.4252  0.2769 -0.6652
  162MOL0     C22231   4.321   9.852   3.605 -0.5673 -0.0903 -0.7056
  162MOL0     C22232   4.191   9.931   3.589  0.2725 -0.7138  0.2183
  162MOL0     C22233   4.207  10.061   3.514 -0.0029  0.0340 -0.4806
  162MOL0     C22234   4.088  10.151   3.502  0.8696 -0.2718 -0.2125
  162MOL0     N22235   3.960  10.080   3.456 -0.5901 -0.5169 -0.5064
  162MOL0     C22236   3.935  10.057   3.328  0.5880  0.5637 -0.8786
  162MOL0     C22237   3.815   9.993   3.323 -0.5695 -0.2640  0.0214
  162MOL0     C22238   3.751   9.928   3.198  1.4231 -1.4804 -0.1556
  162MOL0     C22239   3.725  10.029   3.078 -0.2315 -0.0224 -0.4871
  162MOL0     C22240   3.611  10.131   3.103  0.4691 -0.3789 -0.0117
  162MOL0     C22241   3.646  10.239   3.203  0.7100  0.1608 -0.2248
  162MOL0     O22242   3.720  10.346   3.147  0.3644 -0.1834 -0.1702
  162MOL0     C22243   3.825  10.393   3.222  0.1405 -0.2385 -0.2440
  162MOL0     C22244   3.954  10.359   3.180 -0.2124 -0.2582 -0.2073
  162MOL0     C22245   4.070  10.405   3.239 -0.7198 -0.1225  0.2360
  162MOL0     C22246   4.198  10.357   3.187 -0.2821  0.2106  0.4190
  162MOL0     C22247   4.060  10.492   3.352  0.1590 -0.2018  0.2544
  162MOL0     C22248   4.169  10.549   3.432 -0.7509  0.5648 -0.5412
  162MOL0     O22249   4.142  10.640   3.524 -0.2510  0.3720  0.4567
  162MOL0     C22250   4.222  10.685   3.619 -0.6369 -0.0619  0.3080
  162MOL0     C22251   4.356  10.653   3.654 -0.1764  1.7346 -0.1420
  162MOL0     C22252   4.395  10.688   3.784 -0.3964 -0.5300  0.0654
  162MOL0     C22253   4.325  10.761   3.877 -0.9782 -0.5058  0.8445
  162MOL0     O22254   4.354  10.782   4.013 -0.2009  0.6358  0.0193
  162MOL0     C22255   4.333  10.662   4.092  0.2361  0.2291 -0.1636
  162MOL0     C22256   4.391  10.667   4.237  0.1743 -0.3051 -0.5585
  162MOL0     C22257   4.369  10.526   4.313  0.9289 -0.1749  0.4790
  162MOL0     C22258   4.448  10.500   4.441 -0.6643  0.1860  0.1781
  162MOL0     C22259   4.431  10.356   4.487 -0.7491  0.8376 -0.4506
  162MOL0     C22260   4.484  10.337   4.628 -0.1791  0.2080 -0.0236
  162MOL0     C22261   4.639  10.336   4.631 -0.0172  0.5799  0.1149
  162MOL0     C22262   4.688  10.357   4.777  0.2737 -0.1316  0.2624
  162MOL0    Cl22263   4.666  10.208   4.879  0.1921  0.3942  0.3727
  162MOL0     C22264   4.193  10.792   3.839 -0.5175 -0.5563  0.5896
  162MOL0     C22265   4.150  10.759   3.714  0.5241  0.1440  0.6214
  162MOL0     O22266   4.281  10.516   3.412  0.5758 -0.5193 -0.6096
  162MOL0     C22267   3.925  10.535   3.381  0.0312 -0.4752 -1.0077
  162MOL0     C22268   3.818  10.482   3.322  0.4765 -0.8802  0.5021
  162MOL0     N22269   3.771   9.980   3.456 -0.6990  1.1827 -0.0031
  162MOL0     N22270   3.866  10.019   3.538 -0.0861 -0.3201  0.0782
  162MOL0     C22271   4.960  10.119   3.768 -0.2522  0.5248  1.0446
  162MOL0     C22272   5.076  10.205   3.758  0.3799  1.0950 -0.8025
  162MOL0     C22273   5.501  10.319   3.845 -0.5641  0.4459  0.5083
  162MOL0     C22274   5.503  10.407   3.949  0.0132 -0.3359  0.2196
  162MOL0     C22275   5.614  10.486   3.965  0.1979 -0.8632  0.2645
  162MOL0     C22276   5.722  10.475   3.875  0.5418 -0.2946  0.0934
  162MOL0     O22277   5.822  10.557   3.908 -0.1012  0.1844  0.0205
  162MOL0     C22278   5.944  10.556   3.830  0.2209 -0.3414  0.3065
  162MOL0     C22279   6.039  10.666   3.867  0.1023  0.2765  0.0442
  162MOL0     C22280   5.960  10.803   3.856 -0.3597  1.1767 -0.8087
  162MOL0     C22281   5.944  10.883   3.991  0.1874  0.2095  0.1736
  162MOL0     C22282   5.879  10.798   4.085 -0.1233  0.1170 -1.1612
  162MOL0     C22283   5.834  10.734   4.180 -0.7096  0.3572 -0.7459
  162MOL0     C22284   5.711  10.391   3.763 -0.0934  0.2234  0.1153
  162MOL0     C22285   5.608  10.303   3.750  0.2920 -0.7694  0.1544
  162MOL0     C22286   5.624  10.201   3.636  0.1248  0.2039 -0.5818
  162MOL0     H22287   5.142  10.226   4.088 -0.0355  0.6611 -0.0860
  162MOL0     H22288   4.991  10.018   4.084  1.2949 -0.7739 -1.2870
  162MOL0     H22289   4.752   9.903   3.702 -0.3564  1.5565 -0.5403
  162MOL0     H22290   4.670  10.041   3.786 -1.9284 -0.7441  2.2538
  162MOL0     H22291   4.672   9.753   3.887 -0.5983  0.7296  2.7920
  162MOL0     H22292   4.579   9.886   3.953  3.0146  0.9159  1.2954
  162MOL0     H22293   4.565   9.764   3.678 -2.3735 -0.1761 -1.0208
  162MOL0     H22294   4.454   9.713   3.802  2.0997 -1.3225  2.0337
  162MOL0     H22295   4.333   9.914   3.807 -0.8882  0.9776 -1.1185
  162MOL0     H22296   4.447  10.001   3.703  0.5023 -0.3782 -2.0000
  162MOL0     H22297   4.296   9.746   3.605 -0.6587 -0.3025  4.2917
  162MOL0     H22298   4.382   9.870   3.516  0.4647  1.3837  0.2434
  162MOL0     H22299   4.120   9.872   3.529  1.4439 -1.0496 -0.8935
  162MOL0     H22300   4.146   9.960   3.684  1.5033 -0.1132  0.6292
  162MOL0     H22301   4.245  10.034   3.415 -0.9057 -0.9651 -0.5772
  162MOL0     H22302   4.283  10.123   3.561 -0.3687  0.3650 -0.3242
  162MOL0     H22303   4.067  10.184   3.604 -1.2950 -0.2171 -0.6253
  162MOL0     H22304   4.111  10.240   3.442 -1.8266  1.0186  0.5121
  162MOL0     H22305   4.010  10.084   3.254  3.2343 -0.1155  1.3975
  162MOL0     H22306   3.655   9.891   3.237  1.7184 -1.0283  1.0735
  162MOL0     H22307   3.814   9.845   3.166 -0.3502 -2.8776 -0.1728
  162MOL0     H22308   3.819  10.083   3.064 -0.2449  0.1704  0.1476
  162MOL0     H22309   3.705   9.968   2.989 -1.1838 -3.2141  1.7224
  162MOL0     H22310   3.582  10.183   3.011  1.6364 -1.0538 -0.7937
  162MOL0     H22311   3.526  10.068   3.130 -0.6562  0.9545 -0.3615
  162MOL0     H22312   3.550  10.275   3.240 -0.5874 -2.0618 -1.2310
  162MOL0     H22313   3.693  10.195   3.291 -0.6310 -1.0369 -0.0772
  162MOL0     H22314   3.955  10.283   3.103 -1.0269 -0.1900 -0.2940
  162MOL0     H22315   4.261  10.444   3.169  1.0287 -0.4700  1.5713
  162MOL0     H22316   4.186  10.308   3.090 -1.1340  0.2074  0.5179
  162MOL0     H22317   4.236  10.290   3.264 -1.5417 -0.9629  0.0582
  162MOL0     H22318   4.425  10.604   3.585 -2.3005 -3.0063  0.7656
  162MOL0     H22319   4.494  10.653   3.813 -0.1274 -0.8532 -1.2142
  162MOL0     H22320   4.226  10.641   4.097  0.0426  1.3465  3.5563
  162MOL0     H22321   4.395  10.586   4.045  2.5900  3.1322 -2.1862
  162MOL0     H22322   4.498  10.690   4.238  0.5538 -1.8731  1.8134
  162MOL0     H22323   4.345  10.752   4.288 -1.0529 -1.1046 -0.2853
  162MOL0     H22324   4.376  10.439   4.246 -1.3520 -1.1140  1.3717
  162MOL0     H22325   4.264  10.522   4.344  1.4449 -0.1898  2.2935
  162MOL0     H22326   4.409  10.571   4.515 -4.9426 -1.8193  0.1501
  162MOL0     H22327   4.549  10.532   4.415 -0.3825 -1.8948 -1.5675
  162MOL0     H22328   4.323  10.341   4.494 -0.6774  0.9160  1.0006
  162MOL0     H22329   4.461  10.277   4.418  2.5146 -0.0403  1.7581
  162MOL0     H22330   4.445  10.243   4.669  3.3160 -0.7676  1.3633
  162MOL0     H22331   4.435  10.412   4.691 -0.9148 -0.7968  0.6373
  162MOL0     H22332   4.678  10.423   4.577 -0.6637 -0.5623 -2.3008
  162MOL0     H22333   4.676  10.246   4.582 -1.9013  0.9277 -2.0800
  162MOL0     H22334   4.632  10.435   4.829  0.4814  0.6930 -0.7145
  162MOL0     H22335   4.790  10.395   4.770  1.3785 -3.1013 -2.3099
  162MOL0     H22336   4.129  10.845   3.910 -1.3838 -1.0349  0.1794
  162MOL0     H22337   4.045  10.780   3.697  0.4276  0.4586  1.5618
  162MOL0     H22338   3.920  10.605   3.463  1.6991 -2.8938  1.3128
  162MOL0     H22339   3.718  10.510   3.353 -0.4103 -2.3876 -0.9014
  162MOL0     H22340   4.908  10.087   3.678  0.3708 -0.2787  0.9678
  162MOL0     H22341   5.108  10.238   3.660  0.8634  0.3726 -0.8993
  162MOL0     H22342   5.415  10.419   4.011  1.3137 -3.5126  3.0210
  162MOL0     H22343   5.621  10.556   4.048  0.5449 -0.8368  0.2152
  162MOL0     H22344   6.003  10.464   3.841 -0.3279 -0.7641 -0.2301
  162MOL0     H22345   5.915  10.578   3.727 -0.7364  2.4333  1.0846
  162MOL0     H22346   6.109  10.662   3.783  2.0022 -0.1485  1.5731
  162MOL0     H22347   6.100  10.650   3.957  0.9612 -0.3591 -0.6382
  162MOL0     H22348   6.019  10.866   3.789 -1.8370  1.7542 -1.6159
  162MOL0     H22349   5.861  10.794   3.809 -1.6506 -1.6144  2.0773
  162MOL0     H22350   5.901  10.984   3.988  0.1711  0.5562  4.8926
  162MOL0     H22351   6.040  10.908   4.037 -1.3947  1.1421  3.2655
  162MOL0     H22352   5.799  10.679   4.265 -3.1754  0.5013 -1.5995
  162MOL0     H22353   5.797  10.364   3.702  1.8854 -1.7937  3.4821
  162MOL0     H22354   5.661  10.107   3.679 -0.6655  1.3340  2.9184
  162MOL0     H22355   5.523  10.188   3.594 -1.4987  3.0417  2.0244
  162MOL0     H22356   5.690  10.240   3.558  0.6116  1.0073  0.2205
  163MOL0     O22357   1.668   4.882   8.457  0.4886  1.2025  0.0536
  163MOL0     C22358   1.594   4.786   8.433  0.6977 -0.8038  0.4831
  163MOL0     O22359   1.620   4.670   8.372  0.2191 -0.1002  0.6415
  163MOL0     C22360   1.757   4.652   8.342 -0.4356 -0.0959 -0.2986
  163MOL0     C22361   1.857   4.647   8.444 -0.9769 -0.6115 -0.2976
  163MOL0     C22362   1.988   4.611   8.412  0.9816 -1.3558  0.2052
  163MOL0     C22363   2.023   4.581   8.278 -0.4016 -0.0591  0.6586
  163MOL0     O22364   2.150   4.544   8.230 -0.7336  0.2356 -0.9033
  163MOL0     C22365   2.239   4.492   8.335 -0.7074  0.9230  0.4055
  163MOL0     C22366   2.367   4.461   8.264  0.1054  0.3140  0.7165
  163MOL0     C22367   2.361   4.379   8.138  0.0878  0.5519  0.0274
  163MOL0     C22368   2.505   4.372   8.076  0.7694  0.9623 -0.0589
  163MOL0     C22369   2.505   4.313   7.929 -0.5311 -0.1918 -0.4856
  163MOL0     C22370   2.657   4.284   7.903 -0.3774  0.5937 -0.3016
  163MOL0     C22371   2.688   4.244   7.757 -0.3805  0.0097 -0.3863
  163MOL0     C22372   2.633   4.107   7.708  0.0937 -0.4838  0.2696
  163MOL0     N22373   2.659   4.095   7.559 -0.1932  0.1632 -0.0166
  163MOL0     C22374   2.625   4.180   7.458  0.2629 -0.5517  0.3372
  163MOL0     C22375   2.685   4.121   7.349  0.3995 -0.7353 -0.6633
  163MOL0     C22376   2.667   4.165   7.208  0.7197 -0.1944 -0.3180
  163MOL0     C22377   2.591   4.056   7.126  0.9313 -0.2197  0.1650
  163MOL0     C22378   2.444   4.038   7.187  0.5985  0.0666 -0.1778
  163MOL0     C22379   2.349   3.954   7.097 -0.5193 -0.1793  0.6240
  163MOL0     O22380   2.219   3.992   7.148  0.4070  0.4065 -0.5130
  163MOL0     C22381   2.111   3.913   7.119 -0.2805 -0.1002 -0.6274
  163MOL0     C22382   1.980   3.949   7.164  0.3477 -0.5603  0.0851
  163MOL0     C22383   1.863   3.882   7.129 -0.4129  0.3233  0.1077
  163MOL0     C22384   1.738   3.948   7.167  0.6348 -0.1341  0.0848
  163MOL0     C22385   1.862   3.761   7.062  0.2103  0.0826  1.0250
  163MOL0     C22386   1.755   3.672   7.029  1.0415 -0.3594  0.2562
  163MOL0     O22387   1.631   3.703   7.086  0.0615 -0.7664 -0.3856
  163MOL0     C22388   1.524   3.629   7.040 -1.1288  0.6237 -0.6016
  163MOL0     C22389   1.469   3.635   6.911 -1.3888 -0.9379 -0.1054
  163MOL0     C22390   1.373   3.547   6.869  0.1728 -0.7820  0.9884
  163MOL0     C22391   1.318   3.458   6.958  0.7039 -0.5348 -0.6713
  163MOL0     O22392   1.238   3.343   6.930  0.5205 -0.2223  0.3972
  163MOL0     C22393   1.236   3.312   6.784 -0.0930  0.3943 -0.5169
  163MOL0     C22394   1.119   3.371   6.702  0.1013 -0.7215  1.1495
  163MOL0     C22395   0.977   3.307   6.701  0.4738 -0.3062 -0.5199
  163MOL0     C22396   0.982   3.153   6.671 -0.2043 -0.2882 -0.2262
  163MOL0     C22397   0.847   3.090   6.664  0.7661 -0.3285  0.1416
  163MOL0     C22398   0.868   2.939   6.631 -0.3476 -0.1789 -0.0327
  163MOL0     C22399   0.744   2.883   6.567 -0.2378 -0.3642 -0.1429
  163MOL0     C22400   0.759   2.743   6.530 -1.1255  0.0925 -0.7319
  163MOL0    Cl22401   0.600   2.677   6.468 -0.0247  0.2385  0.4806
  163MOL0     C22402   1.345   3.473   7.094 -1.2777 -0.4790 -0.4756
  163MOL0     C22403   1.447   3.564   7.131  0.4293  0.0752 -0.2107
  163MOL0     O22404   1.775   3.587   6.940  0.3345  0.7168 -1.1881
  163MOL0     C22405   1.995   3.721   7.024  0.1101  0.0348 -0.3153
  163MOL0     C22406   2.113   3.788   7.054  0.5648  0.3945  1.2654
  163MOL0     N22407   2.770   4.019   7.382  0.0819 -0.1457 -0.0510
  163MOL0     N22408   2.750   4.004   7.504 -0.2371 -0.4811  0.5884
  163MOL0     C22409   1.923   4.569   8.176  1.1062  1.5602 -0.2726
  163MOL0     C22410   1.786   4.609   8.215 -1.1534 -0.2765  0.0910
  163MOL0     C22411   1.463   4.781   8.489  0.5594 -0.2751 -0.3389
  163MOL0     C22412   1.383   4.896   8.462  0.2482  0.9015  1.1403
  163MOL0     C22413   1.247   4.901   8.490 -0.4249 -0.6404 -0.3215
  163MOL0     C22414   1.189   4.796   8.553 -0.3940 -0.0380 -0.0512
  163MOL0     O22415   1.052   4.811   8.584  0.1818 -0.3364  0.5152
  163MOL0     C22416   1.016   4.758   8.706  0.1835  0.3447 -0.0194
  163MOL0     C22417   0.889   4.828   8.737 -0.0098 -0.1558 -0.8323
  163MOL0     C22418   0.920   4.976   8.777 -0.3332  0.4906 -0.0066
  163MOL0     C22419   0.874   4.990   8.924 -1.0166 -0.6540  0.8551
  163MOL0     C22420   0.831   5.119   8.962 -0.5026 -0.5190  0.3772
  163MOL0     C22421   0.786   5.228   8.995 -0.5415  0.3580  0.3035
  163MOL0     C22422   1.260   4.678   8.583  1.2851  0.2537 -0.1876
  163MOL0     C22423   1.396   4.670   8.551 -0.3950 -0.9351 -0.3443
  163MOL0     C22424   1.460   4.542   8.585 -0.5188  0.7461 -0.1122
  163MOL0     H22425   1.836   4.671   8.547  2.2408  0.7146  0.1906
  163MOL0     H22426   2.056   4.583   8.493 -1.2733 -1.5121  2.1627
  163MOL0     H22427   2.193   4.413   8.394 -1.6234  1.8701  0.9918
  163MOL0     H22428   2.266   4.566   8.411 -0.1149  1.2353 -0.0985
  163MOL0     H22429   2.405   4.554   8.221  1.2087 -1.2315 -1.8950
  163MOL0     H22430   2.439   4.427   8.340  0.5558 -3.4504 -1.1838
  163MOL0     H22431   2.310   4.283   8.150  1.8302 -0.3003  1.0287
  163MOL0     H22432   2.302   4.428   8.060 -3.8674 -1.3771  1.5318
  163MOL0     H22433   2.539   4.475   8.084  2.1551  0.5025  0.2981
  163MOL0     H22434   2.568   4.311   8.141  0.1563 -0.2750 -0.5850
  163MOL0     H22435   2.461   4.383   7.857  1.0496  2.1206  0.6772
  163MOL0     H22436   2.455   4.216   7.936  0.8328 -0.8194  1.2995
  163MOL0     H22437   2.711   4.379   7.910  0.1579  0.2032  1.2867
  163MOL0     H22438   2.688   4.209   7.977  0.0483  0.5674 -0.5023
  163MOL0     H22439   2.797   4.240   7.744 -0.2465  0.7756  0.3969
  163MOL0     H22440   2.643   4.324   7.698  0.9724  1.3249  0.2794
  163MOL0     H22441   2.691   4.032   7.763 -2.0047 -3.2447 -1.0857
  163MOL0     H22442   2.531   4.101   7.745  0.7456 -1.3338  2.0406
  163MOL0     H22443   2.550   4.259   7.458 -1.1119 -1.8027  1.4959
  163MOL0     H22444   2.768   4.192   7.176  1.4272 -0.0921  1.8247
  163MOL0     H22445   2.610   4.258   7.205 -1.8979 -1.6458  0.5529
  163MOL0     H22446   2.584   4.084   7.020 -1.1378 -2.1721 -0.3040
  163MOL0     H22447   2.649   3.963   7.126  0.5683 -0.4594  1.0926
  163MOL0     H22448   2.446   3.995   7.288 -0.3752 -1.7437 -0.8906
  163MOL0     H22449   2.393   4.132   7.205  1.6770  0.5074  0.7481
  163MOL0     H22450   2.352   3.991   6.994  0.4037 -0.2225  0.6252
  163MOL0     H22451   2.372   3.848   7.103  0.1875 -0.1208 -0.8076
  163MOL0     H22452   1.960   4.052   7.193 -1.0755  0.0145 -2.6652
  163MOL0     H22453   1.671   3.965   7.082 -2.7473 -1.9202  2.1857
  163MOL0     H22454   1.764   4.041   7.218  1.1391 -0.7778  1.0156
  163MOL0     H22455   1.683   3.882   7.235  2.2637 -2.0155 -0.3313
  163MOL0     H22456   1.513   3.704   6.840 -2.4753 -1.1626 -1.0097
  163MOL0     H22457   1.367   3.530   6.762 -2.1546 -1.6164  1.1883
  163MOL0     H22458   1.332   3.325   6.733  1.0178 -0.5686  1.2017
  163MOL0     H22459   1.229   3.203   6.775 -0.0385  0.1661  1.6318
  163MOL0     H22460   1.101   3.472   6.739  2.7325  0.2681  0.0340
  163MOL0     H22461   1.160   3.386   6.602  1.9007  0.2429  1.9785
  163MOL0     H22462   0.905   3.338   6.624 -1.5247  3.4372  2.5369
  163MOL0     H22463   0.921   3.321   6.793 -1.2570  1.1923 -1.7366
  163MOL0     H22464   1.026   3.106   6.760  2.4154 -2.8029 -2.6725
  163MOL0     H22465   1.052   3.134   6.590  0.3819 -0.8481  0.3976
  163MOL0     H22466   0.804   3.106   6.763  3.2746  2.9425  0.8872
  163MOL0     H22467   0.781   3.144   6.596 -0.4838 -1.5066  0.3901
  163MOL0     H22468   0.887   2.882   6.722  2.4606  2.2745  1.0543
  163MOL0     H22469   0.955   2.929   6.566 -1.6820 -0.3853 -1.8765
  163MOL0     H22470   0.722   2.942   6.478  2.6871 -1.1737 -1.5330
  163MOL0     H22471   0.672   2.909   6.645  3.7158  1.3783  3.3748
  163MOL0     H22472   0.782   2.683   6.619 -1.4589  1.4544  0.3101
  163MOL0     H22473   0.849   2.741   6.468 -0.4526 -0.5359  0.2190
  163MOL0     H22474   1.287   3.422   7.171 -1.6181  3.4954  2.1858
  163MOL0     H22475   1.461   3.583   7.237 -4.1662 -2.0666  1.0001
  163MOL0     H22476   2.010   3.638   6.956  0.1758  1.1473 -1.6969
  163MOL0     H22477   2.202   3.753   7.003  0.8538  0.6442  1.5904
  163MOL0     H22478   1.940   4.549   8.071 -2.2431 -0.8168 -0.5481
  163MOL0     H22479   1.709   4.614   8.139  1.6983 -0.5327 -3.0370
  163MOL0     H22480   1.434   4.986   8.428 -1.9094  3.0335  3.1853
  163MOL0     H22481   1.183   4.988   8.482 -1.0160 -1.1357 -1.1319
  163MOL0     H22482   1.002   4.653   8.678 -0.1733 -0.0959  1.6693
  163MOL0     H22483   1.090   4.770   8.786 -1.7704 -0.4379  2.0443
  163MOL0     H22484   0.836   4.770   8.814  0.3328  3.1874  2.1785
  163MOL0     H22485   0.825   4.832   8.648 -1.0231 -0.2624 -0.1253
  163MOL0     H22486   1.027   4.994   8.775 -0.6452  2.5205 -0.8748
  163MOL0     H22487   0.869   5.049   8.713  4.0013  1.9606 -2.1754
  163MOL0     H22488   0.960   4.971   8.989  1.7947  2.6819 -1.4947
  163MOL0     H22489   0.786   4.926   8.941 -2.2112 -0.1616 -2.6163
  163MOL0     H22490   0.744   5.320   9.030  1.5471  1.3165  0.4919
  163MOL0     H22491   1.214   4.596   8.638 -1.4203  0.6833 -1.6462
  163MOL0     H22492   1.568   4.556   8.581 -0.4500  0.3781  0.3260
  163MOL0     H22493   1.437   4.507   8.686 -2.2532  0.4074 -0.5927
  163MOL0     H22494   1.434   4.470   8.508  1.3961 -0.4835  0.3174
  164MOL0     O22495   4.638   9.571   5.880 -0.1942 -0.3993  0.0818
  164MOL0     C22496   4.525   9.608   5.851 -0.6335 -0.1002  0.5873
  164MOL0     O22497   4.407   9.559   5.893 -0.1189  0.8922 -0.6731
  164MOL0     C22498   4.418   9.489   6.009 -0.1469  0.4498  0.3660
  164MOL0     C22499   4.404   9.350   6.006 -0.0994 -0.6500 -0.7287
  164MOL0     C22500   4.395   9.286   6.135 -0.1036  0.4420  0.6480
  164MOL0     C22501   4.422   9.356   6.252  0.1115 -0.1042 -0.8250
  164MOL0     O22502   4.429   9.284   6.368 -0.2270 -0.5213  0.3415
  164MOL0     C22503   4.445   9.356   6.500  0.0928  0.1177  0.0268
  164MOL0     C22504   4.423   9.234   6.595 -0.3802 -0.3948 -0.4309
  164MOL0     C22505   4.557   9.156   6.610 -0.1465  0.0313  0.3118
  164MOL0     C22506   4.522   9.013   6.643 -0.2882 -0.3542  0.7742
  164MOL0     C22507   4.645   8.940   6.696  0.2814 -0.1955 -0.7285
  164MOL0     C22508   4.646   8.787   6.692 -0.9203 -0.2891  0.8509
  164MOL0     C22509   4.555   8.729   6.582 -0.0680 -0.8763  0.3996
  164MOL0     C22510   4.563   8.572   6.587  1.0154 -0.0922  0.4851
  164MOL0     N22511   4.443   8.490   6.550  0.5207  0.5074  0.1341
  164MOL0     C22512   4.344   8.456   6.641 -0.1383 -0.4118  0.3149
  164MOL0     C22513   4.240   8.417   6.557  0.4410  0.4734  0.3592
  164MOL0     C22514   4.114   8.377   6.607 -0.0710  0.7080  0.1354
  164MOL0     C22515   4.140   8.223   6.619  0.3362 -0.0551  1.7540
  164MOL0     C22516   4.019   8.174   6.699 -0.1820  0.5017  0.2429
  164MOL0     C22517   4.009   8.022   6.697 -0.2417 -0.6108 -0.7170
  164MOL0     O22518   4.071   7.971   6.811 -0.3262  0.0968  0.3190
  164MOL0     C22519   4.097   7.834   6.808  0.6446 -0.3639  0.2454
  164MOL0     C22520   4.051   7.734   6.726 -0.3860  0.8821  0.7964
  164MOL0     C22521   4.088   7.597   6.736  0.1073 -0.2540 -0.0417
  164MOL0     C22522   4.026   7.501   6.638  0.5700  0.6239  0.9163
  164MOL0     C22523   4.161   7.554   6.845 -1.0700  0.4346 -0.4679
  164MOL0     C22524   4.215   7.410   6.870 -0.6576  0.1846  0.6876
  164MOL0     O22525   4.246   7.378   6.990  0.3664  0.2429 -0.1078
  164MOL0     C22526   4.264   7.254   7.034  0.1150  0.4977 -0.2311
  164MOL0     C22527   4.152   7.173   7.063  0.6639 -0.3027 -0.0702
  164MOL0     C22528   4.172   7.055   7.138 -0.1400 -0.5091 -0.5710
  164MOL0     C22529   4.295   7.032   7.195  0.2432  0.3458  0.4163
  164MOL0     O22530   4.310   6.923   7.275  0.1615  0.5121 -0.2210
  164MOL0     C22531   4.360   6.953   7.407  0.1099 -0.4486 -0.4304
  164MOL0     C22532   4.395   6.828   7.491 -0.3396  0.4408  0.3059
  164MOL0     C22533   4.271   6.750   7.547  0.4327 -1.4704  0.2144
  164MOL0     C22534   4.199   6.813   7.670 -0.0326 -0.8078  0.5030
  164MOL0     C22535   4.087   6.717   7.718  0.1176  0.0626 -0.8167
  164MOL0     C22536   4.124   6.593   7.796 -0.3676 -0.0923  0.3213
  164MOL0     C22537   4.030   6.570   7.920  0.9311  0.0854  0.6118
  164MOL0     C22538   4.031   6.423   7.959 -0.7660  0.4167 -0.1921
  164MOL0    Cl22539   4.202   6.384   8.010  0.1816 -0.3891  0.1928
  164MOL0     C22540   4.404   7.104   7.155 -0.3315 -0.7680 -0.1311
  164MOL0     C22541   4.394   7.218   7.068  0.0093 -0.8030 -0.1458
  164MOL0     O22542   4.223   7.339   6.777 -0.0834  0.0954 -0.0989
  164MOL0     C22543   4.205   7.650   6.942  0.7015 -0.8627 -0.1913
  164MOL0     C22544   4.170   7.790   6.918  0.0653  0.7801  0.5938
  164MOL0     N22545   4.277   8.429   6.423 -0.1976 -0.4572  0.0868
  164MOL0     N22546   4.402   8.479   6.420  0.3197  0.1038  0.2270
  164MOL0     C22547   4.443   9.490   6.251  0.1243 -0.3747 -0.5355
  164MOL0     C22548   4.438   9.560   6.129  0.1169 -0.0917  0.4835
  164MOL0     C22549   4.513   9.715   5.753  0.8067  0.5330 -0.1176
  164MOL0     C22550   4.576   9.686   5.629  0.6914  0.0609  0.2290
  164MOL0     C22551   4.561   9.758   5.518 -0.0588 -0.3033 -0.1240
  164MOL0     C22552   4.472   9.870   5.518  0.3363 -0.0681 -0.1374
  164MOL0     O22553   4.456   9.948   5.408 -0.0915  0.5040  0.9613
  164MOL0     C22554   4.568  10.021   5.367 -0.5840  0.8516 -0.3549
  164MOL0     C22555   4.570  10.169   5.422  1.0858  0.4260 -0.1012
  164MOL0     C22556   4.688  10.249   5.384 -0.1244  0.2496  0.3210
  164MOL0     C22557   4.717  10.242   5.234  0.3358  0.5052 -0.2840
  164MOL0     C22558   4.802  10.346   5.181  0.2242  0.3717 -0.7989
  164MOL0     C22559   4.884  10.418   5.140 -0.4786  0.5652  0.0238
  164MOL0     C22560   4.407   9.900   5.634 -0.1633  0.2902  1.0427
  164MOL0     C22561   4.420   9.823   5.747  0.2188  0.2107 -0.8354
  164MOL0     C22562   4.333   9.874   5.861 -0.2277  1.2344 -0.0673
  164MOL0     H22563   4.391   9.291   5.916  0.9274  0.1266 -1.4190
  164MOL0     H22564   4.389   9.179   6.149  0.3323 -0.1008 -2.6189
  164MOL0     H22565   4.367   9.432   6.512 -1.0076 -0.6620 -1.7739
  164MOL0     H22566   4.539   9.409   6.515  0.6711  0.4730 -3.7932
  164MOL0     H22567   4.400   9.276   6.693  0.7040 -0.6262 -0.0566
  164MOL0     H22568   4.342   9.169   6.560 -0.9924  0.5670 -0.8304
  164MOL0     H22569   4.595   9.172   6.509  0.9356  2.4602  1.0365
  164MOL0     H22570   4.624   9.203   6.683  0.9510  0.2745 -0.8223
  164MOL0     H22571   4.448   8.992   6.721  1.3161 -0.9650  2.2022
  164MOL0     H22572   4.483   8.963   6.554 -0.3743  0.9104  0.0791
  164MOL0     H22573   4.661   8.971   6.799 -0.3322 -1.5981 -0.1811
  164MOL0     H22574   4.730   8.963   6.632  2.0695 -2.7896  0.5642
  164MOL0     H22575   4.751   8.756   6.698 -0.0640  2.1962  0.0116
  164MOL0     H22576   4.619   8.732   6.783  2.6506 -3.9688  0.0140
  164MOL0     H22577   4.570   8.763   6.479 -0.0194 -1.1215  0.3258
  164MOL0     H22578   4.449   8.752   6.599 -0.0256  0.5288 -1.0069
  164MOL0     H22579   4.642   8.535   6.520  1.5567 -0.0644  1.1042
  164MOL0     H22580   4.596   8.541   6.686  2.9904 -3.4132 -1.0221
  164MOL0     H22581   4.356   8.467   6.749  1.4195 -0.4671  0.1664
  164MOL0     H22582   4.038   8.402   6.534 -2.2102  2.1531  2.6806
  164MOL0     H22583   4.093   8.420   6.706 -1.1167 -1.6494  0.9930
  164MOL0     H22584   4.145   8.183   6.518 -1.4882 -3.0628  2.7397
  164MOL0     H22585   4.236   8.203   6.668  1.9714  2.5069 -0.1407
  164MOL0     H22586   4.030   8.214   6.801 -0.6827 -0.0931  0.5378
  164MOL0     H22587   3.928   8.216   6.655 -0.2429  1.3012  1.0741
  164MOL0     H22588   3.905   7.990   6.707 -0.0237 -0.9409  0.7641
  164MOL0     H22589   4.046   7.972   6.607  5.1818  0.1270  0.7151
  164MOL0     H22590   3.992   7.763   6.639 -0.3663 -1.0331  0.0938
  164MOL0     H22591   3.994   7.556   6.549  0.4570  0.7167  1.0154
  164MOL0     H22592   3.947   7.440   6.683  1.3589 -0.6646  0.6061
  164MOL0     H22593   4.103   7.431   6.605  0.0626  0.4768 -0.0146
  164MOL0     H22594   4.052   7.203   7.036  0.1464 -2.1998 -0.4036
  164MOL0     H22595   4.083   6.999   7.162 -1.4086  2.4319  2.3351
  164MOL0     H22596   4.444   7.022   7.395  1.1244 -1.7878 -1.3441
  164MOL0     H22597   4.291   7.009   7.470 -1.5877  1.2867 -3.5841
  164MOL0     H22598   4.453   6.764   7.424  4.0931  5.8429 -1.8007
  164MOL0     H22599   4.465   6.851   7.572  0.2159 -2.7148  0.8583
  164MOL0     H22600   4.307   6.652   7.578 -0.7931 -1.4660  1.7593
  164MOL0     H22601   4.198   6.743   7.465  2.5947 -1.4359 -1.8226
  164MOL0     H22602   4.153   6.907   7.639 -1.9693 -1.4619  1.2047
  164MOL0     H22603   4.260   6.820   7.761 -0.8859 -1.6508  1.1720
  164MOL0     H22604   4.020   6.775   7.782 -0.9880 -0.9206 -1.0290
  164MOL0     H22605   4.020   6.682   7.639  0.7143  0.1226 -1.3555
  164MOL0     H22606   4.229   6.607   7.821  0.6535 -1.7740 -2.5074
  164MOL0     H22607   4.108   6.505   7.733 -1.6876  0.5477 -0.2652
  164MOL0     H22608   3.931   6.589   7.878  1.0100 -3.6492 -1.7287
  164MOL0     H22609   4.059   6.631   8.007 -2.1431 -0.9142  2.5317
  164MOL0     H22610   3.997   6.363   7.874 -2.3884 -0.3670  0.9662
  164MOL0     H22611   3.974   6.401   8.049  3.7989 -3.5114  2.1965
  164MOL0     H22612   4.507   7.079   7.178 -0.3017 -2.2924 -1.7108
  164MOL0     H22613   4.485   7.270   7.039  2.0453 -1.8378  3.6799
  164MOL0     H22614   4.267   7.638   7.030 -0.8094  2.9080  1.6061
  164MOL0     H22615   4.213   7.869   6.979  0.4982  1.7251 -0.8803
  164MOL0     H22616   4.456   9.549   6.341  0.4434 -0.2945 -0.6324
  164MOL0     H22617   4.451   9.667   6.116 -1.2777  0.3847  2.4568
  164MOL0     H22618   4.644   9.602   5.628  2.8293  1.6621 -2.1212
  164MOL0     H22619   4.602   9.725   5.423 -0.7168  0.0474 -0.5395
  164MOL0     H22620   4.661   9.963   5.376  0.5621  2.3712 -1.8249
  164MOL0     H22621   4.544  10.019   5.260 -1.4328 -2.7447 -0.2252
  164MOL0     H22622   4.557  10.172   5.530 -2.3375  3.2869 -0.4316
  164MOL0     H22623   4.476  10.216   5.394 -1.0542 -1.0908  3.7763
  164MOL0     H22624   4.678  10.353   5.417 -0.7043  0.4805 -0.5697
  164MOL0     H22625   4.782  10.205   5.420 -0.7363 -0.6495  0.8428
  164MOL0     H22626   4.621  10.251   5.183  1.0360  1.4860 -1.4751
  164MOL0     H22627   4.761  10.147   5.202  2.6394  1.3077  0.2605
  164MOL0     H22628   4.958  10.481   5.095 -0.5778  1.5081  1.1505
  164MOL0     H22629   4.339   9.984   5.627  0.4342  0.6841 -0.2404
  164MOL0     H22630   4.398   9.931   5.928  1.9047  0.1879 -1.1505
  164MOL0     H22631   4.255   9.945   5.831  0.5629  1.2671 -2.1401
  164MOL0     H22632   4.296   9.788   5.918  1.2197  0.8928  0.4060
  165MOL0     O22633   2.043   1.279   6.068 -0.4651  0.5500  0.3232
  165MOL0     C22634   2.110   1.177   6.052 -0.0445 -0.4572  0.8567
  165MOL0     O22635   2.107   1.080   6.144  0.4965  0.5203 -0.0018
  165MOL0     C22636   1.992   1.057   6.215 -0.7102 -0.6248 -0.4930
  165MOL0     C22637   1.859   1.055   6.169 -0.3973  0.3978  0.0319
  165MOL0     C22638   1.754   1.028   6.255 -0.6699 -0.8027  0.0158
  165MOL0     C22639   1.773   0.996   6.387  0.3470  0.6459 -0.2377
  165MOL0     O22640   1.660   0.966   6.460 -0.2464  0.5818 -0.2395
  165MOL0     C22641   1.660   0.929   6.594 -1.1537 -0.6856  0.2966
  165MOL0     C22642   1.521   0.899   6.656 -0.2398 -0.0605  0.2779
  165MOL0     C22643   1.478   0.760   6.612  0.0028 -0.1471  0.0759
  165MOL0     C22644   1.335   0.741   6.655  0.4210  0.4444 -0.9079
  165MOL0     C22645   1.287   0.603   6.598 -0.1121 -0.9795 -0.6424
  165MOL0     C22646   1.150   0.546   6.642  0.2309 -0.4898  0.2539
  165MOL0     C22647   1.040   0.651   6.650 -0.6836  0.2593  0.2526
  165MOL0     C22648   0.914   0.628   6.744 -0.0620  0.0310 -0.5179
  165MOL0     N22649   0.808   0.720   6.699 -0.0993 -0.2162 -0.1611
  165MOL0     C22650   0.689   0.694   6.629 -0.2539  0.2749 -0.0597
  165MOL0     C22651   0.634   0.814   6.599  0.5497  0.4014 -0.1957
  165MOL0     C22652   0.503   0.850   6.538 -1.8666 -1.1239  0.2300
  165MOL0     C22653   0.424   0.729   6.482 -0.6398  0.5942  0.1090
  165MOL0     C22654   0.485   0.678   6.351 -0.1452 -0.1295  0.8278
  165MOL0     C22655   0.397   0.584   6.277  0.3940 -0.0083 -1.3770
  165MOL0     O22656   0.372   0.460   6.355  0.0263 -0.1002  0.1676
  165MOL0     C22657   0.275   0.371   6.302  1.0934 -0.5314  0.5222
  165MOL0     C22658   0.277   0.236   6.335 -0.3148 -0.7244  0.5333
  165MOL0     C22659   0.192   0.132   6.290 -0.6499 -0.1971  0.1511
  165MOL0     C22660   0.227  -0.013   6.328  0.9520 -0.2505  0.9301
  165MOL0     C22661   0.086   0.158   6.196 -0.3073 -0.8463 -0.2733
  165MOL0     C22662  -0.015   0.064   6.142  0.4583 -0.5642 -0.0947
  165MOL0     O22663  -0.093   0.124   6.046  0.0889  0.3501  0.1149
  165MOL0     C22664  -0.155   0.044   5.955 -0.4206 -0.6455 -0.2772
  165MOL0     C22665  -0.087   0.007   5.836  0.1783 -0.2257 -0.4077
  165MOL0     C22666  -0.158  -0.062   5.731 -1.2529  0.3200  0.1006
  165MOL0     C22667  -0.296  -0.101   5.744 -1.0126 -0.8380  0.9317
  165MOL0     O22668  -0.362  -0.175   5.654 -0.6861  0.4049 -0.9952
  165MOL0     C22669  -0.366  -0.115   5.517 -0.2279 -0.9245  0.5434
  165MOL0     C22670  -0.469  -0.194   5.439  0.4616  0.3723 -0.2359
  165MOL0     C22671  -0.614  -0.156   5.435 -0.3019 -0.3207  0.1088
  165MOL0     C22672  -0.690  -0.153   5.574 -0.4240 -0.0766  0.4556
  165MOL0     C22673  -0.700  -0.296   5.632 -0.3310  0.4065 -0.0964
  165MOL0     C22674  -0.777  -0.304   5.773  0.3786  0.7964 -0.1798
  165MOL0     C22675  -0.765  -0.446   5.819  0.5478  0.1309 -0.4507
  165MOL0     C22676  -0.866  -0.542   5.760 -0.9319  0.1715 -0.2397
  165MOL0    Cl22677  -0.857  -0.707   5.838 -0.3356  0.0921  0.1336
  165MOL0     C22678  -0.362  -0.056   5.854  0.4363 -0.1045 -0.2981
  165MOL0     C22679  -0.297   0.017   5.950 -0.3839  0.0339 -0.6418
  165MOL0     O22680  -0.022  -0.052   6.180 -0.1389 -0.2663  0.6029
  165MOL0     C22681   0.089   0.296   6.163 -0.1958 -0.5679  0.2727
  165MOL0     C22682   0.169   0.397   6.217 -0.3323  0.5330  0.6448
  165MOL0     N22683   0.716   0.908   6.656 -0.8278  0.8022 -0.3405
  165MOL0     N22684   0.824   0.853   6.712 -0.0154 -0.0988  0.0291
  165MOL0     C22685   1.905   1.015   6.438  0.2098 -0.0856 -0.1743
  165MOL0     C22686   2.013   1.042   6.349  0.1647  0.1737 -0.0712
  165MOL0     C22687   2.195   1.177   5.926 -1.0308  0.5803 -0.0044
  165MOL0     C22688   2.229   1.300   5.859  0.0694  0.3024 -1.5113
  165MOL0     C22689   2.330   1.297   5.763 -0.3281 -0.7987  0.1687
  165MOL0     C22690   2.394   1.187   5.716  0.4713  0.0691  0.1601
  165MOL0     O22691   2.479   1.201   5.613 -0.4795 -0.2028 -0.1933
  165MOL0     C22692   2.574   1.093   5.587 -0.2651 -0.7334 -0.2264
  165MOL0     C22693   2.675   1.103   5.466 -0.4239  0.1281 -0.7046
  165MOL0     C22694   2.765   1.225   5.477  0.5488 -0.3651  0.4171
  165MOL0     C22695   2.854   1.219   5.602  0.3966  0.5060  0.2833
  165MOL0     C22696   2.956   1.322   5.615  0.5431  0.5072  1.1380
  165MOL0     C22697   3.023   1.423   5.608 -0.0045 -0.7059 -0.2971
  165MOL0     C22698   2.345   1.071   5.764  0.7450 -0.3492  0.2158
  165MOL0     C22699   2.255   1.057   5.867  1.2825 -0.0333 -0.4438
  165MOL0     C22700   2.224   0.921   5.927 -0.6140  0.1364  0.1035
  165MOL0     H22701   1.841   1.073   6.063  1.8429  2.5393 -0.0814
  165MOL0     H22702   1.651   1.018   6.223  0.0608 -0.5751 -2.6315
  165MOL0     H22703   1.717   1.000   6.654  0.3608 -1.1037 -0.5642
  165MOL0     H22704   1.706   0.830   6.603  0.7227 -0.0719 -1.4290
  165MOL0     H22705   1.529   0.900   6.765 -0.2030 -4.9337  0.5190
  165MOL0     H22706   1.440   0.967   6.627  0.7361  0.2081 -2.0860
  165MOL0     H22707   1.498   0.758   6.504  3.1093  2.2321  0.4742
  165MOL0     H22708   1.542   0.684   6.657  0.2332 -1.5598 -2.4231
  165MOL0     H22709   1.339   0.755   6.763  3.9277  1.0717 -0.9862
  165MOL0     H22710   1.272   0.825   6.624  1.5400  1.4437 -0.5887
  165MOL0     H22711   1.364   0.532   6.630  0.8368  0.3925  0.2438
  165MOL0     H22712   1.289   0.614   6.490 -1.7060  0.1190 -0.5946
  165MOL0     H22713   1.120   0.459   6.583  3.6018 -0.7497 -1.2923
  165MOL0     H22714   1.166   0.508   6.743 -0.0906  0.0495  0.5160
  165MOL0     H22715   1.010   0.648   6.545 -1.7427  0.8529  0.5196
  165MOL0     H22716   1.082   0.747   6.680 -0.1143  0.2852 -0.5998
  165MOL0     H22717   0.887   0.524   6.724  3.4591 -1.0182 -0.5617
  165MOL0     H22718   0.937   0.640   6.851  0.6461 -0.5702 -0.5886
  165MOL0     H22719   0.634   0.601   6.620  0.6457 -0.2064 -0.8982
  165MOL0     H22720   0.531   0.919   6.458  1.6470 -1.2317  1.2094
  165MOL0     H22721   0.434   0.904   6.605 -2.7403 -3.4403  1.3332
  165MOL0     H22722   0.422   0.647   6.554 -0.3434  2.8810  2.9696
  165MOL0     H22723   0.323   0.762   6.458 -0.3387 -1.2586 -4.7317
  165MOL0     H22724   0.494   0.766   6.285 -0.9209 -0.6377  0.0218
  165MOL0     H22725   0.587   0.642   6.365 -0.5156 -1.1092  1.0878
  165MOL0     H22726   0.303   0.631   6.247 -0.2361  1.1148  1.9494
  165MOL0     H22727   0.459   0.557   6.191  2.3650  3.2308 -1.1636
  165MOL0     H22728   0.358   0.205   6.401 -0.6276 -0.2705  1.1383
  165MOL0     H22729   0.132  -0.058   6.359  0.0912 -0.6510 -1.9625
  165MOL0     H22730   0.290  -0.016   6.417  0.4602 -1.1074  1.2626
  165MOL0     H22731   0.266  -0.063   6.239  1.1410  0.1076  0.8072
  165MOL0     H22732   0.015   0.029   5.805  0.0549 -0.5379 -1.0681
  165MOL0     H22733  -0.111  -0.081   5.635 -0.1041 -3.6742  1.2635
  165MOL0     H22734  -0.398  -0.012   5.531 -2.2951 -1.4355 -0.0626
  165MOL0     H22735  -0.272  -0.114   5.461 -1.3756  2.7958 -1.6457
  165MOL0     H22736  -0.448  -0.178   5.333 -0.5871  4.0868 -0.0336
  165MOL0     H22737  -0.452  -0.299   5.461  0.4838  0.3811 -0.2082
  165MOL0     H22738  -0.665  -0.230   5.373  0.9156 -0.9395 -0.1746
  165MOL0     H22739  -0.623  -0.061   5.381 -0.6802 -0.6332 -0.3833
  165MOL0     H22740  -0.791  -0.113   5.564 -0.3708 -0.2051 -0.8114
  165MOL0     H22741  -0.638  -0.082   5.638  2.2448 -2.2083  0.8860
  165MOL0     H22742  -0.740  -0.367   5.560  1.4690  0.1156 -0.8489
  165MOL0     H22743  -0.598  -0.331   5.651 -1.0031 -1.5624  0.1208
  165MOL0     H22744  -0.883  -0.278   5.765  0.2262  0.1073 -0.4451
  165MOL0     H22745  -0.736  -0.236   5.849  2.2656 -0.1893 -0.2672
  165MOL0     H22746  -0.770  -0.442   5.928 -1.3638 -2.2566 -0.3578
  165MOL0     H22747  -0.672  -0.494   5.787  0.4107 -0.0330 -0.6078
  165MOL0     H22748  -0.864  -0.552   5.651  2.6873 -0.7357 -0.1889
  165MOL0     H22749  -0.964  -0.496   5.781 -0.3529  0.4498  2.1203
  165MOL0     H22750  -0.470  -0.064   5.861  0.0919  3.6413  0.6950
  165MOL0     H22751  -0.352   0.044   6.040  0.9788 -3.0213  1.2966
  165MOL0     H22752   0.012   0.324   6.091  0.2291  2.0003  0.7419
  165MOL0     H22753   0.141   0.498   6.187  0.3789  0.2022 -1.3151
  165MOL0     H22754   1.923   1.031   6.544 -1.7270  0.1144  0.1725
  165MOL0     H22755   2.117   1.044   6.377  1.1386 -0.5223 -3.2586
  165MOL0     H22756   2.192   1.394   5.898 -0.2030 -0.7729  1.0133
  165MOL0     H22757   2.369   1.391   5.723  1.8058 -1.6209  0.1651
  165MOL0     H22758   2.622   1.071   5.683 -3.2597 -2.2331  1.0790
  165MOL0     H22759   2.521   1.000   5.561 -2.1622  0.2736 -0.1387
  165MOL0     H22760   2.608   1.125   5.381  0.3582 -1.4495 -1.7766
  165MOL0     H22761   2.730   1.009   5.458  1.0985  1.0579 -1.5633
  165MOL0     H22762   2.825   1.232   5.386  0.4755 -1.9048  0.2196
  165MOL0     H22763   2.715   1.322   5.479 -0.3908 -0.8421  2.4826
  165MOL0     H22764   2.901   1.120   5.608  0.4957  0.5895  0.9583
  165MOL0     H22765   2.796   1.222   5.695  0.7202  0.8807  0.4788
  165MOL0     H22766   3.080   1.510   5.633  0.5576 -0.9165 -0.8387
  165MOL0     H22767   2.383   0.975   5.731  3.3504  0.1718  1.4505
  165MOL0     H22768   2.247   0.835   5.863 -0.0615  0.0658  0.3924
  165MOL0     H22769   2.278   0.920   6.022 -2.3081  0.4235  1.1243
  165MOL0     H22770   2.117   0.909   5.948 -0.4795  1.4699  1.7227
  166MOL0     O22771   0.509  11.130   0.869  0.6044 -0.7373  0.1016
  166MOL0     C22772   0.542  11.119   0.749 -0.6482  0.2254 -0.7421
  166MOL0     O22773   0.498  11.018   0.670  0.5461  0.2242 -0.3479
  166MOL0     C22774   0.431  10.907   0.723  0.1615 -0.4360 -0.5203
  166MOL0     C22775   0.498  10.835   0.820 -0.7462 -0.5896  1.1748
  166MOL0     C22776   0.429  10.728   0.884 -0.1573 -0.4412 -0.1536
  166MOL0     C22777   0.300  10.690   0.850 -0.2857  0.3079 -0.1266
  166MOL0     O22778   0.243  10.595   0.925  0.0849 -0.5827  0.7630
  166MOL0     C22779   0.121  10.533   0.880 -1.0293  0.6719 -0.2616
  166MOL0     C22780   0.086  10.419   0.988 -0.6551  0.5633 -0.1947
  166MOL0     C22781   0.217  10.352   1.042 -0.6455  0.5259 -0.0640
  166MOL0     C22782   0.171  10.218   1.106 -0.8314 -0.0136  0.4656
  166MOL0     C22783   0.268  10.192   1.218  0.5962 -0.4172  0.7972
  166MOL0     C22784   0.257  10.052   1.273  0.3908 -0.2713  0.3887
  166MOL0     C22785   0.273   9.948   1.167 -0.0891 -0.3990 -1.4000
  166MOL0     C22786   0.308   9.818   1.231 -0.4457  0.0959  0.4808
  166MOL0     N22787   0.318   9.715   1.124 -0.2847 -0.2112 -0.3848
  166MOL0     C22788   0.232   9.688   1.019  0.4344 -0.2012 -0.6285
  166MOL0     C22789   0.302   9.599   0.944  0.7910  0.0007  0.5977
  166MOL0     C22790   0.255   9.561   0.808  0.6847 -1.1511 -0.5321
  166MOL0     C22791   0.143   9.450   0.809 -0.0532  0.6389 -0.6293
  166MOL0     C22792   0.206   9.322   0.853 -0.5364  0.6894 -0.5340
  166MOL0     C22793   0.214   9.301   1.002 -0.1821  0.5136 -0.0220
  166MOL0     O22794   0.086   9.331   1.061 -0.0688 -0.4593  0.3685
  166MOL0     C22795   0.101   9.320   1.201 -0.0493 -1.0371  0.5551
  166MOL0     C22796   0.054   9.424   1.273 -0.5090  0.4464 -0.1657
  166MOL0     C22797   0.074   9.436   1.413 -0.1723  0.5434  0.8439
  166MOL0     C22798   0.018   9.553   1.483  0.1456  0.3214 -0.6574
  166MOL0     C22799   0.141   9.324   1.482  0.1998  0.3077  1.2317
  166MOL0     C22800   0.159   9.307   1.626 -0.3353 -1.4380 -0.2854
  166MOL0     O22801   0.203   9.188   1.669 -0.0429  0.2508 -0.3771
  166MOL0     C22802   0.281   9.196   1.782  0.1249 -0.6266  0.9907
  166MOL0     C22803   0.223   9.207   1.909 -0.7320 -0.8375 -0.5427
  166MOL0     C22804   0.313   9.208   2.014 -0.2666 -0.4331  0.2170
  166MOL0     C22805   0.454   9.171   2.003  0.4306  1.0895  0.3319
  166MOL0     O22806   0.549   9.151   2.102 -0.1243  0.0370  0.3531
  166MOL0     C22807   0.493   9.105   2.227 -0.4093 -0.6660  0.1533
  166MOL0     C22808   0.611   9.076   2.316  1.0960 -0.6674 -0.6093
  166MOL0     C22809   0.588   9.002   2.445 -0.2716  0.0637 -0.7046
  166MOL0     C22810   0.507   9.071   2.555  0.0507 -0.4142  0.4919
  166MOL0     C22811   0.532   9.010   2.702 -0.0973  0.7009  0.0846
  166MOL0     C22812   0.442   9.080   2.807  0.7149  0.4700  0.9493
  166MOL0     C22813   0.502   9.041   2.948 -0.3484  0.3117 -0.5695
  166MOL0     C22814   0.424   9.075   3.079 -0.2220  0.3623  0.2668
  166MOL0    Cl22815   0.541   9.061   3.209 -0.0077  0.0868 -0.2323
  166MOL0     C22816   0.505   9.166   1.871  0.8499  0.5623 -0.6091
  166MOL0     C22817   0.413   9.175   1.771 -0.1882  0.1561 -0.0555
  166MOL0     O22818   0.140   9.404   1.702 -0.7432  0.2132 -0.0137
  166MOL0     C22819   0.180   9.213   1.402  0.3030 -0.2609 -0.1103
  166MOL0     C22820   0.162   9.210   1.268 -0.9128  0.3258 -0.4370
  166MOL0     N22821   0.427   9.575   1.000 -0.3874 -0.3239  0.6580
  166MOL0     N22822   0.431   9.638   1.109 -0.3904 -0.3033 -1.3366
  166MOL0     C22823   0.230  10.752   0.748  0.2085 -0.5100  0.2757
  166MOL0     C22824   0.300  10.861   0.678  0.5887  0.5286  0.5983
  166MOL0     C22825   0.620  11.242   0.694  1.1745 -0.0401 -0.5574
  166MOL0     C22826   0.732  11.220   0.615 -0.3116 -1.1778 -1.0754
  166MOL0     C22827   0.812  11.323   0.577 -0.0162  0.0089  1.4933
  166MOL0     C22828   0.769  11.455   0.595  0.4035 -0.6545 -0.1751
  166MOL0     O22829   0.841  11.561   0.554 -0.1903  0.5557  0.3670
  166MOL0     C22830   0.777  11.649   0.462  0.6136 -0.9429  0.8742
  166MOL0     C22831   0.773  11.587   0.320 -0.7542  0.1026 -0.7669
  166MOL0     C22832   0.713  11.691   0.224  0.1260  0.3592  0.4097
  166MOL0     C22833   0.802  11.732   0.106  0.3303  0.1269 -0.3542
  166MOL0     C22834   0.940  11.783   0.134  0.4413 -0.0770  0.0763
  166MOL0     C22835   1.051  11.834   0.164  0.4854  0.9301 -0.5625
  166MOL0     C22836   0.646  11.478   0.661 -0.7803 -0.5369  0.2240
  166MOL0     C22837   0.572  11.376   0.706 -0.4592  0.0525 -0.1976
  166MOL0     C22838   0.445  11.404   0.783  0.0260 -0.4452  0.0402
  166MOL0     H22839   0.601  10.855   0.848  0.1465 -1.3625 -1.2631
  166MOL0     H22840   0.485  10.673   0.959  0.4706 -1.1404 -1.0984
  166MOL0     H22841   0.125  10.486   0.781  0.1622 -0.9685  0.5334
  166MOL0     H22842   0.041  10.608   0.868 -1.4486 -0.0398 -2.3568
  166MOL0     H22843   0.031  10.464   1.071  0.2864 -0.7081  1.1831
  166MOL0     H22844   0.031  10.339   0.938 -1.2558  0.0489  1.2294
  166MOL0     H22845   0.290  10.339   0.961 -1.3833  1.3559 -0.8859
  166MOL0     H22846   0.269  10.401   1.124 -0.0597 -0.1313 -0.0323
  166MOL0     H22847   0.067  10.224   1.140 -1.1066 -0.5284 -0.2713
  166MOL0     H22848   0.185  10.144   1.027  1.5529 -1.0644  1.7618
  166MOL0     H22849   0.261  10.268   1.296  1.6704  0.3677  0.1667
  166MOL0     H22850   0.372  10.213   1.189  0.0074  1.3846 -0.2021
  166MOL0     H22851   0.337  10.029   1.344  0.4707  1.0737  0.7653
  166MOL0     H22852   0.159  10.034   1.319  0.7074 -0.2101  1.1100
  166MOL0     H22853   0.349   9.967   1.091  2.6668 -3.2220  0.4219
  166MOL0     H22854   0.181   9.931   1.109 -1.1540  0.7074 -0.1003
  166MOL0     H22855   0.406   9.818   1.280 -0.1305  0.2707 -0.1398
  166MOL0     H22856   0.229   9.793   1.303 -1.1668 -2.0207 -0.9535
  166MOL0     H22857   0.134   9.722   0.989 -1.5580 -2.1427  3.0126
  166MOL0     H22858   0.346   9.528   0.758  1.4798  1.8484 -1.2983
  166MOL0     H22859   0.217   9.646   0.750 -1.3102 -3.4290 -2.8175
  166MOL0     H22860   0.056   9.480   0.867 -1.1437 -1.5820 -0.9856
  166MOL0     H22861   0.099   9.443   0.709 -0.2323 -0.4920 -0.4846
  166MOL0     H22862   0.154   9.232   0.818 -0.9608  1.1828 -1.1902
  166MOL0     H22863   0.305   9.323   0.805 -1.0052 -0.0649 -1.5562
  166MOL0     H22864   0.212   9.193   1.012 -1.7621  0.2015 -2.6609
  166MOL0     H22865   0.304   9.345   1.047 -0.0404 -1.0754  1.3259
  166MOL0     H22866   0.017   9.515   1.226 -0.2926  0.8841  0.4911
  166MOL0     H22867  -0.071   9.592   1.434  0.6136  2.1885 -0.1283
  166MOL0     H22868   0.098   9.626   1.501  0.2472 -0.5845  3.5092
  166MOL0     H22869  -0.014   9.520   1.582 -1.8635 -3.0322 -2.2538
  166MOL0     H22870   0.116   9.225   1.915 -0.9140 -1.7318 -0.8289
  166MOL0     H22871   0.276   9.229   2.113  0.1518 -0.6290  0.4172
  166MOL0     H22872   0.438   9.182   2.282  2.2420  3.1849 -2.1514
  166MOL0     H22873   0.432   9.014   2.212  0.5313 -1.1406 -0.9687
  166MOL0     H22874   0.676   9.022   2.247 -0.5395 -1.6312 -1.4620
  166MOL0     H22875   0.664   9.170   2.334  2.1367 -1.2689 -0.4553
  166MOL0     H22876   0.692   8.984   2.474 -0.7304 -1.6867  0.0067
  166MOL0     H22877   0.552   8.899   2.432  0.3485 -1.0767  4.4156
  166MOL0     H22878   0.401   9.048   2.536 -0.5689  3.0747 -0.8707
  166MOL0     H22879   0.518   9.179   2.555 -2.0810 -0.1445 -0.7883
  166MOL0     H22880   0.509   8.904   2.708  2.4839  0.1456  1.6242
  166MOL0     H22881   0.638   9.015   2.728 -0.1786 -0.6861  0.7369
  166MOL0     H22882   0.338   9.046   2.797  1.1549 -1.7763  3.0222
  166MOL0     H22883   0.451   9.189   2.800 -0.1626  0.4448 -1.2487
  166MOL0     H22884   0.596   9.094   2.962 -0.6350  1.6760 -3.1386
  166MOL0     H22885   0.505   8.932   2.946  1.5892  0.3314 -0.1947
  166MOL0     H22886   0.336   9.011   3.093  0.2165 -0.8369 -1.9039
  166MOL0     H22887   0.399   9.181   3.080  0.6460  0.7030  5.0626
  166MOL0     H22888   0.606   9.125   1.865  0.0533 -2.0346  1.7883
  166MOL0     H22889   0.457   9.144   1.677 -0.7132  1.2501 -0.6810
  166MOL0     H22890   0.213   9.126   1.458 -1.7367 -0.5699  0.6715
  166MOL0     H22891   0.201   9.120   1.222 -0.5868 -0.3019  1.0387
  166MOL0     H22892   0.127  10.740   0.716  0.3021  1.0945 -0.7147
  166MOL0     H22893   0.250  10.916   0.600 -1.3629 -0.5363  1.0382
  166MOL0     H22894   0.757  11.116   0.592  1.3294 -0.8982 -0.6490
  166MOL0     H22895   0.902  11.317   0.517 -1.4175 -0.0236 -0.7555
  166MOL0     H22896   0.675  11.679   0.486  1.1744  1.8070  0.1452
  166MOL0     H22897   0.835  11.741   0.467 -0.7697  0.1674 -1.5746
  166MOL0     H22898   0.713  11.496   0.314 -1.3013 -0.0038  3.3892
  166MOL0     H22899   0.875  11.559   0.291  0.0807 -0.6224  2.4399
  166MOL0     H22900   0.614  11.662   0.186  1.1419 -0.5524 -1.7462
  166MOL0     H22901   0.684  11.772   0.292  0.9991  0.3085  0.8524
  166MOL0     H22902   0.757  11.812   0.047 -0.2956 -0.7222 -1.0482
  166MOL0     H22903   0.804  11.657   0.027  1.0753 -2.1449  1.6712
  166MOL0     H22904   1.151  11.867   0.181  1.4560 -0.6166 -2.8462
  166MOL0     H22905   0.603  11.576   0.676  0.8653  0.2711 -0.1300
  166MOL0     H22906   0.463  11.376   0.888 -0.9847 -0.2843  0.2629
  166MOL0     H22907   0.403  11.504   0.768 -1.5071 -1.0574  0.1337
  166MOL0     H22908   0.369  11.335   0.747 -0.7009  0.9967 -1.2767
  167MOL0     O22909   5.533   5.829   7.418 -0.9869 -0.1363  0.2395
  167MOL0     C22910   5.516   5.947   7.381  0.3213  0.1453 -0.4255
  167MOL0     O22911   5.427   5.981   7.286  0.3630  0.2572  0.3278
  167MOL0     C22912   5.313   5.907   7.252 -0.2530 -0.2022  0.2273
  167MOL0     C22913   5.259   5.932   7.131  0.3306  0.7945  0.7967
  167MOL0     C22914   5.135   5.878   7.090  0.0723 -0.2193 -0.0063
  167MOL0     C22915   5.063   5.791   7.170  1.0415 -0.0293  0.3778
  167MOL0     O22916   4.934   5.750   7.135 -0.2207  0.5017 -0.3619
  167MOL0     C22917   4.845   5.832   7.063  0.1377 -0.7117 -0.5641
  167MOL0     C22918   4.708   5.775   7.083  0.0965  0.7728  0.5008
  167MOL0     C22919   4.667   5.781   7.235  0.3378 -0.1049 -0.7564
  167MOL0     C22920   4.512   5.759   7.241 -1.0723 -0.6990 -0.0390
  167MOL0     C22921   4.448   5.801   7.371  0.6852 -0.0027 -0.6244
  167MOL0     C22922   4.492   5.702   7.488  0.0806  0.3666  0.1619
  167MOL0     C22923   4.415   5.750   7.611 -0.0127 -0.7564  0.1004
  167MOL0     C22924   4.471   5.672   7.734 -0.1737  0.0169  0.2665
  167MOL0     N22925   4.404   5.702   7.858 -0.0127  0.3393  0.3583
  167MOL0     C22926   4.464   5.746   7.973  0.4760  0.0862  0.8969
  167MOL0     C22927   4.353   5.778   8.050 -0.1240  0.1561 -0.5467
  167MOL0     C22928   4.365   5.839   8.194 -0.0087  0.7388  0.1024
  167MOL0     C22929   4.226   5.865   8.264 -0.4306  0.4121  0.1298
  167MOL0     C22930   4.153   5.731   8.301  1.1825  0.8135  0.2106
  167MOL0     C22931   4.005   5.757   8.360 -0.5729 -0.6141 -1.4238
  167MOL0     O22932   4.032   5.859   8.456  0.7427  0.6625  0.5669
  167MOL0     C22933   4.004   5.842   8.585  0.1047  1.0648  0.8346
  167MOL0     C22934   3.908   5.761   8.642 -0.0871 -1.0117  1.1224
  167MOL0     C22935   3.891   5.756   8.784  0.6914 -0.0492 -0.7520
  167MOL0     C22936   3.777   5.689   8.832  0.1677  0.3720  0.5802
  167MOL0     C22937   3.977   5.826   8.870  0.3228 -0.4524  1.4907
  167MOL0     C22938   3.993   5.799   9.007 -0.1915  0.7455 -0.3099
  167MOL0     O22939   4.043   5.901   9.091  0.4672 -0.0934  0.1179
  167MOL0     C22940   4.048   5.900   9.230 -0.2291 -0.6123  0.8225
  167MOL0     C22941   4.053   6.029   9.293  0.2620  0.3903  0.9738
  167MOL0     C22942   4.054   6.043   9.434 -0.0837 -0.5595  0.2942
  167MOL0     C22943   4.038   5.931   9.518 -0.1735  0.0814  0.3697
  167MOL0     O22944   4.029   5.927   9.653  0.4842  0.4320 -0.6429
  167MOL0     C22945   4.023   6.054   9.726 -0.6739 -0.1926 -0.0643
  167MOL0     C22946   4.013   6.026   9.877 -0.6206  0.0662 -0.5831
  167MOL0     C22947   3.870   5.969   9.916 -0.6598  0.6385 -0.2540
  167MOL0     C22948   3.875   5.975  10.073  0.0515 -0.4940  0.0248
  167MOL0     C22949   3.749   5.927  10.146 -0.2254  0.5950 -0.1180
  167MOL0     C22950   3.619   6.001  10.117 -0.3636  0.1636  0.3943
  167MOL0     C22951   3.625   6.150  10.147 -0.1164 -0.4212 -0.9682
  167MOL0     C22952   3.484   6.198  10.104  0.1414 -0.4348  1.1556
  167MOL0    Cl22953   3.361   6.125  10.207 -0.3901  0.6145  0.4644
  167MOL0     C22954   4.040   5.805   9.457 -0.5605  0.7727  0.1593
  167MOL0     C22955   4.041   5.788   9.312 -0.3388  0.1614  0.3127
  167MOL0     O22956   3.960   5.686   9.048  0.1028 -0.3014 -1.3072
  167MOL0     C22957   4.069   5.918   8.807  0.5689  0.0698  0.3383
  167MOL0     C22958   4.077   5.928   8.670  0.0042  0.4137 -0.8090
  167MOL0     N22959   4.242   5.759   7.979  0.4944  0.6583  0.2877
  167MOL0     N22960   4.268   5.711   7.871 -1.2437  0.1403  0.1043
  167MOL0     C22961   5.120   5.767   7.302 -0.2295 -0.6394 -0.5742
  167MOL0     C22962   5.246   5.819   7.337 -0.7599  0.8361  0.2543
  167MOL0     C22963   5.622   6.053   7.426  1.6079 -0.0254 -0.0009
  167MOL0     C22964   5.624   6.166   7.343 -0.4551 -0.4649 -0.4796
  167MOL0     C22965   5.708   6.270   7.365 -0.6367  0.5089  0.6067
  167MOL0     C22966   5.780   6.269   7.482  0.1090  0.2997  0.2962
  167MOL0     O22967   5.861   6.373   7.510 -0.2580 -0.3160 -0.2045
  167MOL0     C22968   5.998   6.343   7.558  0.1024 -1.1349  0.2461
  167MOL0     C22969   6.072   6.476   7.551 -0.2058 -0.4895  0.6381
  167MOL0     C22970   6.139   6.510   7.417 -0.4961 -0.6737 -0.2508
  167MOL0     C22971   6.178   6.659   7.419  0.4794 -0.8779 -0.6310
  167MOL0     C22972   6.284   6.691   7.333  0.1113  0.3038 -0.0913
  167MOL0     C22973   6.363   6.697   7.239  0.4357 -0.5350 -0.4071
  167MOL0     C22974   5.779   6.161   7.570  0.3081  0.3296  0.2526
  167MOL0     C22975   5.699   6.054   7.536  0.1719 -0.2640 -0.4946
  167MOL0     C22976   5.694   5.937   7.632 -0.6555  0.6411 -0.6359
  167MOL0     H22977   5.318   5.997   7.066  3.0050 -0.2868  2.0035
  167MOL0     H22978   5.097   5.916   6.996 -0.3254 -1.0891 -0.2009
  167MOL0     H22979   4.872   5.831   6.957  1.6125 -0.9493 -0.2112
  167MOL0     H22980   4.856   5.935   7.099 -2.0633 -1.1398  1.5243
  167MOL0     H22981   4.640   5.832   7.019 -1.3526  1.1734  2.3050
  167MOL0     H22982   4.687   5.675   7.045 -0.8553  1.2136 -0.2062
  167MOL0     H22983   4.721   5.704   7.290  1.6097  1.7468  0.7113
  167MOL0     H22984   4.677   5.882   7.276 -0.7228  0.6277 -2.1832
  167MOL0     H22985   4.462   5.833   7.177  0.0250 -0.6720 -0.9008
  167MOL0     H22986   4.484   5.656   7.218  2.6891 -1.6315 -1.2246
  167MOL0     H22987   4.339   5.793   7.361  0.4062  2.7986 -0.4451
  167MOL0     H22988   4.471   5.905   7.394  1.8219 -0.5222  0.7742
  167MOL0     H22989   4.457   5.602   7.460 -3.3252  1.1894  1.0062
  167MOL0     H22990   4.600   5.699   7.504  0.1702  0.6234 -0.4098
  167MOL0     H22991   4.310   5.723   7.596 -0.6328  1.4252  0.2254
  167MOL0     H22992   4.425   5.858   7.625  0.1479 -0.4826 -1.8855
  167MOL0     H22993   4.466   5.564   7.721 -0.9858  0.2513 -1.8360
  167MOL0     H22994   4.579   5.691   7.739 -0.2575  0.4638  0.4030
  167MOL0     H22995   4.571   5.754   7.985  0.7593  2.6499 -2.0809
  167MOL0     H22996   4.416   5.935   8.183 -0.9505  1.1325 -0.9777
  167MOL0     H22997   4.424   5.775   8.261  0.4456  0.5003 -0.5165
  167MOL0     H22998   4.242   5.916   8.359  0.7878  1.2876 -0.5118
  167MOL0     H22999   4.160   5.939   8.218 -0.8183  1.8337  2.7698
  167MOL0     H23000   4.133   5.658   8.222 -0.2714 -1.9635  2.8774
  167MOL0     H23001   4.213   5.677   8.375 -0.0788 -0.9774 -0.0100
  167MOL0     H23002   3.942   5.802   8.282 -0.7638  3.2733  0.7187
  167MOL0     H23003   3.956   5.671   8.406 -1.0088  0.4078  0.0975
  167MOL0     H23004   3.845   5.707   8.573  0.6014  0.3868 -0.6833
  167MOL0     H23005   3.712   5.664   8.748  0.8701 -1.7199  0.5970
  167MOL0     H23006   3.720   5.756   8.896 -1.5427 -0.6719  0.1956
  167MOL0     H23007   3.810   5.601   8.888  5.0968  2.2142  1.1504
  167MOL0     H23008   4.059   6.116   9.228 -0.8067  0.4086  0.8902
  167MOL0     H23009   4.076   6.137   9.483 -2.2832  0.1748 -0.0025
  167MOL0     H23010   4.114   6.111   9.709 -1.1129  0.1034 -1.5329
  167MOL0     H23011   3.937   6.114   9.693 -0.8505 -0.4095 -0.0020
  167MOL0     H23012   4.088   5.951   9.904 -0.5298 -0.4347 -2.1574
  167MOL0     H23013   4.018   6.114   9.942 -0.6241 -1.8146  2.1511
  167MOL0     H23014   3.856   5.865   9.885 -3.4249  0.9775 -0.3846
  167MOL0     H23015   3.790   6.037   9.886 -1.7575 -0.7788 -0.6554
  167MOL0     H23016   3.894   6.075  10.114 -2.0184 -0.2726  0.5838
  167MOL0     H23017   3.953   5.906  10.105 -0.1334 -1.1969 -0.9946
  167MOL0     H23018   3.727   5.822  10.122  2.4533  0.0556 -0.5505
  167MOL0     H23019   3.759   5.936  10.254 -2.3787 -1.5767  0.3454
  167MOL0     H23020   3.540   5.959  10.180  0.1508  2.7643  2.9806
  167MOL0     H23021   3.586   5.996  10.013 -0.6479  4.0580  0.1464
  167MOL0     H23022   3.708   6.200  10.096 -1.5369  2.2687 -0.8534
  167MOL0     H23023   3.629   6.178  10.253  1.2019  3.2595 -1.8431
  167MOL0     H23024   3.464   6.184   9.997 -2.2029 -0.0181  1.4877
  167MOL0     H23025   3.478   6.306  10.124 -0.0377  0.3374 -2.3122
  167MOL0     H23026   4.048   5.721   9.525 -1.1526 -0.4094 -1.1651
  167MOL0     H23027   4.062   5.694   9.262 -0.2685  2.3781 -4.2723
  167MOL0     H23028   4.146   5.959   8.872  2.1427 -0.8933 -0.8597
  167MOL0     H23029   4.141   6.000   8.619 -0.5107  0.1661 -1.8423
  167MOL0     H23030   5.056   5.706   7.364  0.5570 -0.4115  0.4876
  167MOL0     H23031   5.294   5.797   7.432 -0.9410  0.3848  0.2448
  167MOL0     H23032   5.560   6.178   7.256  1.0837  0.6402 -1.5042
  167MOL0     H23033   5.712   6.355   7.298 -0.1167  1.8878  2.3286
  167MOL0     H23034   6.001   6.303   7.660 -3.9148  1.6981  1.7132
  167MOL0     H23035   6.036   6.265   7.491  1.5755 -0.1438 -0.1200
  167MOL0     H23036   6.140   6.466   7.635 -3.1117  0.0177  3.2262
  167MOL0     H23037   6.004   6.558   7.576  0.2852  0.3344 -0.6369
  167MOL0     H23038   6.229   6.451   7.402 -0.2551 -0.3104 -0.2343
  167MOL0     H23039   6.069   6.529   7.335  1.1986  3.8151 -0.9746
  167MOL0     H23040   6.207   6.695   7.518 -1.0199  0.7071 -0.7279
  167MOL0     H23041   6.088   6.709   7.382  0.5866 -0.6553 -0.5884
  167MOL0     H23042   6.426   6.680   7.155 -1.0086 -2.1646 -1.2250
  167MOL0     H23043   5.822   6.157   7.669  1.9450  0.6755 -0.4174
  167MOL0     H23044   5.695   5.840   7.583 -0.4631  0.7920 -0.9311
  167MOL0     H23045   5.773   5.941   7.708 -3.0584  2.1066  1.9824
  167MOL0     H23046   5.602   5.950   7.690 -0.1282  0.2511  0.3089
  168MOL0     O23047   7.082  10.967   8.181 -0.0665  0.4030  0.8173
  168MOL0     C23048   7.171  10.885   8.162  0.5012 -0.7008  0.8207
  168MOL0     O23049   7.153  10.763   8.107  0.4424 -0.0027  0.6988
  168MOL0     C23050   7.033  10.700   8.098  0.0496  0.6636 -0.8362
  168MOL0     C23051   6.954  10.676   8.214  0.5632  0.6105 -0.1111
  168MOL0     C23052   6.835  10.602   8.210  0.0204  1.0291  0.4541
  168MOL0     C23053   6.791  10.547   8.081 -0.5831  1.4105 -0.8609
  168MOL0     O23054   6.685  10.456   8.063 -0.1193  0.0459 -0.2417
  168MOL0     C23055   6.599  10.435   8.172 -0.4177  0.6375  0.1040
  168MOL0     C23056   6.510  10.554   8.211  1.3736  1.1999  0.4372
  168MOL0     C23057   6.414  10.580   8.094 -0.8875  0.2372 -0.4050
  168MOL0     C23058   6.443  10.711   8.023 -0.7156 -0.3293  0.1617
  168MOL0     C23059   6.333  10.745   7.915 -0.1674  0.6355 -1.2144
  168MOL0     C23060   6.385  10.819   7.790  0.2771  0.1952 -0.4397
  168MOL0     C23061   6.468  10.714   7.704 -0.2536  0.1142  1.0802
  168MOL0     C23062   6.525  10.776   7.575  0.4681 -0.4621  1.1292
  168MOL0     N23063   6.602  10.899   7.603 -0.0919  0.4671  0.1463
  168MOL0     C23064   6.711  10.906   7.684 -0.3780 -0.2148  0.1202
  168MOL0     C23065   6.755  11.033   7.676  0.3011  0.4842  0.2304
  168MOL0     C23066   6.882  11.052   7.776  1.3434 -0.3328  0.4728
  168MOL0     C23067   6.849  11.090   7.930 -1.2462  0.3098  0.8682
  168MOL0     C23068   6.752  10.999   7.991 -0.6341  0.9953  0.6018
  168MOL0     C23069   6.717  11.017   8.140  0.3667 -0.3619 -0.3758
  168MOL0     O23070   6.667  11.151   8.163 -0.2733  0.0242 -0.1299
  168MOL0     C23071   6.663  11.214   8.285  0.2829 -0.4859  0.2178
  168MOL0     C23072   6.653  11.349   8.281  0.7243 -0.6815 -0.3876
  168MOL0     C23073   6.629  11.423   8.403 -0.8772 -0.6261 -0.3767
  168MOL0     C23074   6.619  11.579   8.385  0.0133  0.2992 -1.1054
  168MOL0     C23075   6.607  11.351   8.528  0.4423 -0.1776 -0.1955
  168MOL0     C23076   6.562  11.405   8.662 -0.4490  0.7322  0.1186
  168MOL0     O23077   6.582  11.540   8.675 -0.0419 -0.5732  0.3540
  168MOL0     C23078   6.590  11.585   8.808  0.5732 -0.0936  0.3679
  168MOL0     C23079   6.562  11.715   8.829  0.9197 -1.3133 -0.2303
  168MOL0     C23080   6.560  11.777   8.961  1.0823  0.3636  0.3707
  168MOL0     C23081   6.592  11.702   9.074 -0.4355 -0.4388  0.0849
  168MOL0     O23082   6.595  11.753   9.207 -0.0501 -0.5790 -0.2219
  168MOL0     C23083   6.549  11.885   9.232  0.2772  0.1631  0.0084
  168MOL0     C23084   6.468  11.882   9.354 -0.0229  0.5510  0.2742
  168MOL0     C23085   6.550  11.917   9.479  0.1512  0.5820 -0.4855
  168MOL0     C23086   6.469  11.888   9.600 -0.2784 -0.4439 -0.6836
  168MOL0     C23087   6.557  11.882   9.729 -0.2985  0.5104 -0.1713
  168MOL0     C23088   6.490  11.793   9.838 -0.5611  0.2556 -0.9592
  168MOL0     C23089   6.558  11.773   9.971 -0.7266 -0.2851 -0.0543
  168MOL0     C23090   6.592  11.906  10.053 -0.0771  0.6524 -0.4910
  168MOL0    Cl23091   6.431  11.957  10.112 -0.3397 -0.2057  0.1363
  168MOL0     C23092   6.636  11.571   9.047  0.3425  0.5709  0.0090
  168MOL0     C23093   6.644  11.517   8.922 -0.0461 -0.5766  0.3353
  168MOL0     O23094   6.529  11.325   8.752  0.3615  0.3177 -0.3153
  168MOL0     C23095   6.617  11.215   8.527  0.1232 -0.0587 -0.7345
  168MOL0     C23096   6.639  11.147   8.413  0.0784 -0.2838 -0.3314
  168MOL0     N23097   6.672  11.104   7.599 -0.0683  0.0054  0.1034
  168MOL0     N23098   6.578  11.025   7.564  0.8623  0.5585  0.7857
  168MOL0     C23099   6.869  10.576   7.973 -0.2296 -0.7923 -0.1373
  168MOL0     C23100   6.988  10.643   7.979 -0.0824  0.4453 -0.1636
  168MOL0     C23101   7.314  10.935   8.167 -0.7574 -0.6248  0.0052
  168MOL0     C23102   7.362  11.029   8.078  0.9790  0.7672 -0.3598
  168MOL0     C23103   7.486  11.095   8.088  0.3849 -0.7033  0.1380
  168MOL0     C23104   7.558  11.062   8.209  0.1289 -1.1969  0.8044
  168MOL0     O23105   7.677  11.120   8.233 -0.6382  0.4675  0.2368
  168MOL0     C23106   7.717  11.233   8.161 -0.5327  0.5742 -0.4414
  168MOL0     C23107   7.834  11.314   8.196 -0.5185 -0.2706  0.9840
  168MOL0     C23108   7.830  11.341   8.348  0.0063  0.5065 -0.1553
  168MOL0     C23109   7.958  11.412   8.407  0.3244  0.5316 -0.0158
  168MOL0     C23110   8.066  11.309   8.423 -0.8952  0.2717  0.5655
  168MOL0     C23111   8.153  11.214   8.424  0.3684 -0.3541 -0.7043
  168MOL0     C23112   7.500  10.983   8.303 -0.2095 -0.0756 -0.3192
  168MOL0     C23113   7.385  10.910   8.290 -0.3787 -0.8738 -0.4058
  168MOL0     C23114   7.355  10.809   8.404  0.3081  0.3834  0.2465
  168MOL0     H23115   6.984  10.700   8.316  3.7376  1.2230 -1.0910
  168MOL0     H23116   6.781  10.577   8.301  0.4092  3.6592  1.4756
  168MOL0     H23117   6.651  10.409   8.265 -0.1388  2.5594  0.5198
  168MOL0     H23118   6.531  10.357   8.136  0.4934  0.8784 -2.2511
  168MOL0     H23119   6.448  10.519   8.294  2.3196 -0.9149  0.3003
  168MOL0     H23120   6.576  10.633   8.248  0.1844  2.5667 -0.2448
  168MOL0     H23121   6.426  10.499   8.021  0.0414  0.8983 -1.0138
  168MOL0     H23122   6.314  10.571   8.138 -0.5018 -0.3185  0.3839
  168MOL0     H23123   6.451  10.796   8.092  1.2038 -1.6041  1.5972
  168MOL0     H23124   6.539  10.690   7.975 -1.9410 -2.4949 -1.5003
  168MOL0     H23125   6.259  10.799   7.975 -1.1069 -1.4620 -0.3833
  168MOL0     H23126   6.278  10.656   7.881 -1.1992  0.0354  1.7402
  168MOL0     H23127   6.298  10.862   7.740 -0.2280  1.8955  1.7167
  168MOL0     H23128   6.451  10.904   7.813  1.7818 -0.2663 -2.7577
  168MOL0     H23129   6.416  10.619   7.689  1.2970 -0.6448  0.2326
  168MOL0     H23130   6.556  10.686   7.761 -0.5072  0.6604  1.7578
  168MOL0     H23131   6.574  10.710   7.504 -0.6311  0.5439 -0.6558
  168MOL0     H23132   6.435  10.804   7.519  1.2149 -0.9351 -0.3526
  168MOL0     H23133   6.759  10.830   7.744  3.3795  2.3523  0.7439
  168MOL0     H23134   6.944  11.126   7.725  1.4020 -0.4247  0.4107
  168MOL0     H23135   6.943  10.962   7.775  0.5035 -0.9143 -0.6642
  168MOL0     H23136   6.948  11.095   7.976 -1.2842 -1.3233  1.1822
  168MOL0     H23137   6.804  11.188   7.946  0.2887  0.9484  1.4836
  168MOL0     H23138   6.660  10.998   7.932  1.2999  1.2204 -2.6744
  168MOL0     H23139   6.800  10.901   7.983 -3.6625 -0.4161 -3.5558
  168MOL0     H23140   6.640  10.943   8.163  0.0778 -0.5502 -1.8508
  168MOL0     H23141   6.804  11.006   8.205  1.3839  3.7331 -0.7755
  168MOL0     H23142   6.672  11.402   8.188  1.4042 -0.8926 -0.3750
  168MOL0     H23143   6.686  11.634   8.452 -0.9163 -1.4325  1.4120
  168MOL0     H23144   6.513  11.601   8.401  0.0718 -0.8687  1.4260
  168MOL0     H23145   6.652  11.611   8.286  0.4326  0.7801 -0.8121
  168MOL0     H23146   6.527  11.772   8.744  3.2412 -1.3596 -1.2783
  168MOL0     H23147   6.532  11.882   8.960  0.9740  0.4019  2.4597
  168MOL0     H23148   6.631  11.959   9.236 -1.6485  2.3937  0.4563
  168MOL0     H23149   6.480  11.930   9.160  2.4346  0.2752 -2.1511
  168MOL0     H23150   6.394  11.963   9.347 -1.5789 -0.9013 -0.6024
  168MOL0     H23151   6.401  11.796   9.353  1.9027 -1.0428  1.1034
  168MOL0     H23152   6.583  12.021   9.480 -0.8288  0.9409 -1.9698
  168MOL0     H23153   6.640  11.855   9.487 -2.0235 -2.6323  1.4793
  168MOL0     H23154   6.415  11.794   9.587  0.1995 -0.6024 -1.6532
  168MOL0     H23155   6.397  11.968   9.620  1.3263  1.4553 -2.0600
  168MOL0     H23156   6.645  11.825   9.699 -0.0905  0.7748 -0.0648
  168MOL0     H23157   6.574  11.986   9.758  1.9602 -0.6199  3.0615
  168MOL0     H23158   6.484  11.692   9.796  0.4509  0.6759 -2.1844
  168MOL0     H23159   6.391  11.836   9.855 -1.5076 -1.3067 -2.2251
  168MOL0     H23160   6.653  11.719   9.961 -0.3163 -0.2744  2.8107
  168MOL0     H23161   6.484  11.711  10.023 -0.7095  1.4526  2.2265
  168MOL0     H23162   6.651  11.964   9.982  1.5998  1.1283  1.2204
  168MOL0     H23163   6.663  11.881  10.133  1.4347 -1.1122 -2.2782
  168MOL0     H23164   6.669  11.511   9.131  3.0449  1.4256 -0.3567
  168MOL0     H23165   6.685  11.416   8.917 -1.6954 -1.2909  0.5976
  168MOL0     H23166   6.595  11.143   8.606 -1.0510 -1.3071 -2.1270
  168MOL0     H23167   6.641  11.045   8.450 -1.2792  0.8359  3.3217
  168MOL0     H23168   6.822  10.558   7.876 -0.3781 -1.1309 -0.0038
  168MOL0     H23169   7.036  10.654   7.882 -1.4343  2.9565 -0.6356
  168MOL0     H23170   7.302  11.043   7.989 -0.5671 -0.3182  0.4691
  168MOL0     H23171   7.510  11.168   8.012  0.3477 -0.9569 -0.1171
  168MOL0     H23172   7.744  11.193   8.063 -3.3816 -0.2357 -0.9782
  168MOL0     H23173   7.630  11.298   8.157 -1.4960 -0.6046  0.5008
  168MOL0     H23174   7.836  11.407   8.138 -3.9132 -0.4466  0.3929
  168MOL0     H23175   7.924  11.256   8.174 -0.5902 -0.5885  1.5298
  168MOL0     H23176   7.749  11.407   8.379 -0.1393 -0.7248  2.3998
  168MOL0     H23177   7.806  11.250   8.404  2.2639 -2.6178 -3.8000
  168MOL0     H23178   7.940  11.449   8.508 -0.1850 -1.4231  0.6485
  168MOL0     H23179   7.995  11.495   8.346  2.1276  0.1813  0.5195
  168MOL0     H23180   8.232  11.142   8.413  1.4888  0.6252  0.5074
  168MOL0     H23181   7.559  10.964   8.392 -1.2538 -4.0364 -0.2791
  168MOL0     H23182   7.444  10.772   8.455  1.7589  0.2905 -2.1979
  168MOL0     H23183   7.285  10.864   8.469 -0.7448 -1.4465  0.7412
  168MOL0     H23184   7.316  10.712   8.372  2.0863 -0.5593  0.7966
  169MOL0     O23185   2.721  11.130   1.498  0.3292 -0.1307 -0.7330
  169MOL0     C23186   2.794  11.206   1.437 -0.3200 -0.7039  0.1711
  169MOL0     O23187   2.749  11.283   1.328  0.4984 -0.4454 -0.6720
  169MOL0     C23188   2.636  11.241   1.261  0.0542  0.3681  0.6352
  169MOL0     C23189   2.510  11.302   1.287 -0.0453 -0.4504 -0.8274
  169MOL0     C23190   2.398  11.273   1.213 -0.3306  0.2642 -1.2309
  169MOL0     C23191   2.401  11.185   1.109  0.3624 -0.0468  0.7696
  169MOL0     O23192   2.278  11.163   1.053 -0.0762 -0.1762  0.3062
  169MOL0     C23193   2.276  11.108   0.918  0.2780  0.3086 -0.1717
  169MOL0     C23194   2.291  10.955   0.919  0.2093 -0.5380  1.0970
  169MOL0     C23195   2.309  10.918   0.771  0.2088 -1.0972 -0.0382
  169MOL0     C23196   2.355  10.778   0.757  0.2850  0.9352  0.1896
  169MOL0     C23197   2.345  10.747   0.606 -0.1048  0.2177 -0.5973
  169MOL0     C23198   2.206  10.712   0.543 -0.1905  0.3767 -0.3438
  169MOL0     C23199   2.211  10.688   0.395  0.1071 -0.0637 -0.2366
  169MOL0     C23200   2.080  10.625   0.361  0.4329 -0.3153 -0.0855
  169MOL0     N23201   2.083  10.562   0.229  0.6630  0.6827  0.3504
  169MOL0     C23202   2.039  10.613   0.106 -0.5792 -0.3623 -0.9611
  169MOL0     C23203   2.050  10.513   0.012 -0.9890 -0.1736 -0.8213
  169MOL0     C23204   2.040  10.523  -0.135 -0.2933 -0.2645  0.8001
  169MOL0     C23205   2.178  10.527  -0.200 -0.6329  0.0220 -0.1813
  169MOL0     C23206   2.175  10.543  -0.351  0.1386 -0.3330  0.7500
  169MOL0     C23207   2.122  10.411  -0.424  0.8358  0.0236 -0.1509
  169MOL0     O23208   2.201  10.307  -0.376 -0.7811  0.5424 -0.6919
  169MOL0     C23209   2.181  10.179  -0.424 -1.0874  0.2601 -0.5523
  169MOL0     C23210   2.094  10.149  -0.527  0.7532 -0.7951  0.9631
  169MOL0     C23211   2.088  10.022  -0.588  0.3016  0.4290  0.1675
  169MOL0     C23212   2.008  10.004  -0.709 -0.0717 -0.3803  0.2037
  169MOL0     C23213   2.166   9.914  -0.532  0.0345  0.3545  0.7243
  169MOL0     C23214   2.168   9.778  -0.585 -0.5527 -0.3577  0.6117
  169MOL0     O23215   2.218   9.681  -0.503  0.0760  0.0642 -0.0963
  169MOL0     C23216   2.182   9.558  -0.490 -0.3126  0.8319 -0.0861
  169MOL0     C23217   2.256   9.478  -0.406 -0.2904 -0.4032 -0.3949
  169MOL0     C23218   2.240   9.339  -0.406 -0.8669 -0.3851 -0.8144
  169MOL0     C23219   2.143   9.273  -0.472 -0.1366 -1.1048  0.8778
  169MOL0     O23220   2.115   9.139  -0.484  0.2201  1.4707  0.2080
  169MOL0     C23221   2.197   9.046  -0.409 -0.7198 -1.1734 -0.3594
  169MOL0     C23222   2.128   8.902  -0.409 -0.0401  0.5063  0.6470
  169MOL0     C23223   2.216   8.784  -0.374 -0.5308 -0.7794 -0.6501
  169MOL0     C23224   2.309   8.802  -0.256 -0.0818 -0.1943  0.3007
  169MOL0     C23225   2.379   8.674  -0.201  0.5786  0.4043  0.3376
  169MOL0     C23226   2.448   8.580  -0.302 -0.4807 -0.4825 -0.5251
  169MOL0     C23227   2.497   8.449  -0.252  0.2290  0.3241 -0.1957
  169MOL0     C23228   2.591   8.404  -0.369  0.0353  1.0210  0.0334
  169MOL0    Cl23229   2.639   8.243  -0.339  0.0004  0.4476 -0.1938
  169MOL0     C23230   2.049   9.359  -0.545  0.0561 -0.3933 -0.5071
  169MOL0     C23231   2.073   9.493  -0.554 -1.0707 -0.8169  0.1655
  169MOL0     O23232   2.136   9.751  -0.697 -0.5266  0.0926  0.4320
  169MOL0     C23233   2.241   9.941  -0.415  0.0214 -0.6677  0.1210
  169MOL0     C23234   2.258  10.074  -0.368 -0.2778 -0.7499  0.2597
  169MOL0     N23235   2.102  10.398   0.081 -0.7442  0.2721  0.4255
  169MOL0     N23236   2.112  10.430   0.205 -0.1428  0.1475 -0.1617
  169MOL0     C23237   2.528  11.130   1.067  0.9988 -0.4744 -0.1524
  169MOL0     C23238   2.643  11.157   1.147 -0.4653 -0.0818  0.1850
  169MOL0     C23239   2.929  11.224   1.473  0.0383  1.0512 -1.2075
  169MOL0     C23240   2.985  11.348   1.461  0.7221 -0.2104  0.4776
  169MOL0     C23241   3.110  11.373   1.508 -0.4428 -0.4287  0.2200
  169MOL0     C23242   3.186  11.270   1.568 -1.0178 -0.5504  0.3377
  169MOL0     O23243   3.302  11.309   1.627  0.1283  0.0375  0.3727
  169MOL0     C23244   3.422  11.233   1.582  0.1672 -0.3532 -0.0263
  169MOL0     C23245   3.430  11.205   1.435  0.6409  0.4388 -0.1725
  169MOL0     C23246   3.450  11.335   1.359 -0.8035 -0.3683 -0.0307
  169MOL0     C23247   3.595  11.362   1.319  0.6202 -0.9030  0.7289
  169MOL0     C23248   3.644  11.256   1.233  0.4433  0.6884 -0.4913
  169MOL0     C23249   3.675  11.156   1.177  0.4295  0.7897 -1.3010
  169MOL0     C23250   3.139  11.150   1.589 -0.5255  0.6218  0.6325
  169MOL0     C23251   3.009  11.126   1.537 -0.3556  1.0090 -0.2368
  169MOL0     C23252   2.981  10.973   1.518  0.0491 -0.1835 -1.0199
  169MOL0     H23253   2.503  11.370   1.371  0.9331  0.2360 -1.2796
  169MOL0     H23254   2.303  11.320   1.235 -1.0789 -0.1855 -3.2725
  169MOL0     H23255   2.362  11.149   0.865  0.8999 -1.0939 -0.3014
  169MOL0     H23256   2.186  11.151   0.873  1.1510  2.0125 -0.3683
  169MOL0     H23257   2.375  10.919   0.978  0.8641  1.1082  1.2071
  169MOL0     H23258   2.199  10.917   0.965  0.9836 -0.4951  2.7403
  169MOL0     H23259   2.212  10.934   0.723  1.1369 -0.5265 -1.8150
  169MOL0     H23260   2.384  10.979   0.719 -0.7829  0.1495 -0.0574
  169MOL0     H23261   2.460  10.763   0.784  1.1634  3.2679 -1.5471
  169MOL0     H23262   2.279  10.719   0.808 -1.0555  2.6773  0.3154
  169MOL0     H23263   2.415  10.669   0.574 -0.0846  0.6351 -1.6057
  169MOL0     H23264   2.368  10.834   0.544 -1.8107 -0.4405 -2.2698
  169MOL0     H23265   2.180  10.617   0.590 -0.8849  0.9143  0.3738
  169MOL0     H23266   2.131  10.787   0.570  0.1671 -0.2629  2.8268
  169MOL0     H23267   2.291  10.622   0.360 -0.8277 -1.3119 -0.0949
  169MOL0     H23268   2.224  10.786   0.349  2.5596  0.3298  1.1636
  169MOL0     H23269   2.055  10.544   0.430 -0.6177  1.0450  1.1995
  169MOL0     H23270   1.997  10.697   0.364  1.0405  0.3713  2.3729
  169MOL0     H23271   2.002  10.714   0.094  0.6154  0.2337  0.1569
  169MOL0     H23272   1.989  10.614  -0.166 -0.5559 -0.3529  0.9674
  169MOL0     H23273   1.988  10.432  -0.168  2.2923 -1.1796 -1.0997
  169MOL0     H23274   2.228  10.617  -0.164  0.4873 -0.9190  0.6760
  169MOL0     H23275   2.236  10.440  -0.167  1.5258  1.7534  0.9023
  169MOL0     H23276   2.123  10.635  -0.378  0.7511 -0.1970 -0.0040
  169MOL0     H23277   2.279  10.557  -0.382  0.3066 -0.5836  1.1903
  169MOL0     H23278   2.019  10.390  -0.394  0.2002 -1.0904 -2.8236
  169MOL0     H23279   2.130  10.421  -0.533 -1.9391 -1.2874 -0.5513
  169MOL0     H23280   2.021  10.222  -0.563  2.0648 -0.8996 -2.2506
  169MOL0     H23281   2.063  10.014  -0.803  0.1638  1.6030  0.5181
  169MOL0     H23282   1.934  10.084  -0.714  1.3809  1.0578  1.0484
  169MOL0     H23283   1.940   9.918  -0.711  1.8054 -1.9108 -1.3045
  169MOL0     H23284   2.322   9.536  -0.342 -2.0103 -0.3931  1.4580
  169MOL0     H23285   2.299   9.284  -0.334 -1.4364  0.7247  0.5692
  169MOL0     H23286   2.300   9.042  -0.447 -0.5388  1.4198 -0.3184
  169MOL0     H23287   2.198   9.076  -0.304 -0.1992 -2.4392  0.0292
  169MOL0     H23288   2.045   8.900  -0.338 -0.6783  1.4902 -0.0372
  169MOL0     H23289   2.092   8.882  -0.510  1.2637 -0.9377  0.4320
  169MOL0     H23290   2.283   8.760  -0.457  0.0150  3.4574 -1.6986
  169MOL0     H23291   2.157   8.693  -0.359  1.0147 -1.8591 -0.8688
  169MOL0     H23292   2.243   8.846  -0.181  0.3578  0.5593  0.2591
  169MOL0     H23293   2.382   8.877  -0.290  0.6196 -1.2325 -0.5151
  169MOL0     H23294   2.451   8.704  -0.125  0.8157 -1.8026  1.0477
  169MOL0     H23295   2.301   8.609  -0.160 -1.8229  1.5295 -2.0733
  169MOL0     H23296   2.523   8.628  -0.366 -1.5646  1.7424 -0.2013
  169MOL0     H23297   2.370   8.552  -0.374 -2.1613  0.5730  0.8110
  169MOL0     H23298   2.413   8.383  -0.230 -0.1619  1.3041  1.4126
  169MOL0     H23299   2.543   8.451  -0.153 -0.1944 -1.0770  0.0502
  169MOL0     H23300   2.676   8.473  -0.375  1.3192 -0.5792 -0.9318
  169MOL0     H23301   2.542   8.418  -0.465 -0.7806 -0.4838  0.1989
  169MOL0     H23302   1.970   9.316  -0.605  1.3713 -1.9258 -1.2256
  169MOL0     H23303   1.997   9.543  -0.614 -1.9371 -1.3025  0.8337
  169MOL0     H23304   2.300   9.863  -0.368 -0.0854 -0.7955  0.0458
  169MOL0     H23305   2.323  10.100  -0.284 -0.7456 -2.2314  1.1247
  169MOL0     H23306   2.535  11.058   0.987  0.5390 -1.2532  0.4924
  169MOL0     H23307   2.736  11.109   1.117 -1.0733 -1.6476  0.7351
  169MOL0     H23308   2.943  11.439   1.418 -0.4718 -0.2594  1.4938
  169MOL0     H23309   3.156  11.469   1.490 -1.7750  0.3282  0.6890
  169MOL0     H23310   3.507  11.299   1.605 -2.5803  2.4752  3.0666
  169MOL0     H23311   3.414  11.139   1.636 -0.6539  0.0339  0.5428
  169MOL0     H23312   3.339  11.155   1.403  1.2797 -0.0421 -1.3126
  169MOL0     H23313   3.501  11.124   1.414 -0.7420 -0.5911 -1.0107
  169MOL0     H23314   3.391  11.305   1.271 -2.8264 -3.2883  2.1259
  169MOL0     H23315   3.412  11.428   1.402  0.4430  2.2150 -3.9042
  169MOL0     H23316   3.660  11.369   1.406 -2.2771  0.5709  2.9468
  169MOL0     H23317   3.607  11.458   1.266 -2.6986 -0.6598  0.2147
  169MOL0     H23318   3.696  11.057   1.140  3.9500 -0.8538  3.9590
  169MOL0     H23319   3.197  11.075   1.641  5.1867  3.4647 -0.8784
  169MOL0     H23320   3.008  10.916   1.608  1.4788 -3.1199 -3.1679
  169MOL0     H23321   2.875  10.949   1.511  0.1853 -1.8079  1.3246
  169MOL0     H23322   3.051  10.925   1.449  0.0126  2.1206 -2.7756
  170MOL0     O23323   8.732   8.700   4.685  0.0683 -0.2664  0.3633
  170MOL0     C23324   8.732   8.792   4.763 -0.1378  0.0309  0.5590
  170MOL0     O23325   8.770   8.926   4.728 -0.0369 -0.7761  0.9250
  170MOL0     C23326   8.762   9.030   4.822  0.6888  0.2625 -0.0583
  170MOL0     C23327   8.690   9.145   4.793 -0.0056  0.0746  0.1196
  170MOL0     C23328   8.677   9.253   4.888 -0.1282  1.2160  0.2662
  170MOL0     C23329   8.729   9.234   5.017  0.3071 -0.0579  0.6505
  170MOL0     O23330   8.714   9.320   5.122  0.5034 -0.4286  0.2533
  170MOL0     C23331   8.653   9.453   5.092 -0.8817 -0.8937 -0.6356
  170MOL0     C23332   8.649   9.543   5.216  0.1172  0.9747  0.0032
  170MOL0     C23333   8.618   9.691   5.187  0.9101  0.0272  0.4677
  170MOL0     C23334   8.473   9.714   5.190 -0.2021  0.1337 -1.2694
  170MOL0     C23335   8.434   9.857   5.186  0.3327  0.2703 -0.2189
  170MOL0     C23336   8.279   9.868   5.168 -0.4781 -0.2493  0.2397
  170MOL0     C23337   8.240  10.023   5.195 -0.5152 -0.7733 -0.6742
  170MOL0     C23338   8.227  10.064   5.347 -0.6365 -0.2753  0.9280
  170MOL0     N23339   8.140   9.977   5.429 -0.1493 -0.3776  0.4864
  170MOL0     C23340   8.190   9.876   5.513  0.7288 -0.9893  0.4673
  170MOL0     C23341   8.083   9.836   5.576 -0.2744 -0.3723 -0.2816
  170MOL0     C23342   8.095   9.727   5.675  0.7942 -0.0906 -0.3132
  170MOL0     C23343   8.229   9.708   5.749  0.2459 -0.5477 -0.6782
  170MOL0     C23344   8.273   9.836   5.831 -0.0017  0.1573 -0.0922
  170MOL0     C23345   8.390   9.832   5.923  0.1083  0.0322  0.2994
  170MOL0     O23346   8.513   9.888   5.878 -0.1121 -0.2585  0.1174
  170MOL0     C23347   8.541  10.020   5.884 -0.1940 -0.2914 -0.6276
  170MOL0     C23348   8.467  10.125   5.956 -0.7109 -0.8649 -1.0349
  170MOL0     C23349   8.505  10.261   5.958 -1.1783  0.0026 -0.4710
  170MOL0     C23350   8.425  10.364   6.028 -0.4330 -0.3760 -1.0041
  170MOL0     C23351   8.620  10.298   5.884  0.8566 -0.4971  0.4654
  170MOL0     C23352   8.675  10.432   5.873 -0.2921  0.4724  0.0028
  170MOL0     O23353   8.714  10.468   5.748 -0.3931  0.2505  0.0198
  170MOL0     C23354   8.778  10.584   5.755 -0.2101  0.3739  0.5240
  170MOL0     C23355   8.717  10.696   5.702  0.5230 -0.2634  0.2048
  170MOL0     C23356   8.785  10.811   5.680  0.5789 -0.9541  1.1672
  170MOL0     C23357   8.910  10.836   5.736 -0.1924 -0.0989  0.4336
  170MOL0     O23358   8.945  10.972   5.727  0.2038  0.2049 -0.1924
  170MOL0     C23359   9.084  11.009   5.740 -0.4828 -0.4221 -0.1437
  170MOL0     C23360   9.116  11.097   5.861  0.2855 -0.3860 -0.3575
  170MOL0     C23361   9.262  11.145   5.872  0.4913  0.3480  0.2184
  170MOL0     C23362   9.293  11.230   6.002 -0.2408  1.1342  1.3760
  170MOL0     C23363   9.183  11.343   6.020 -1.0148 -0.0102  0.4879
  170MOL0     C23364   9.240  11.445   6.125 -0.1609  0.1617 -0.9373
  170MOL0     C23365   9.312  11.395   6.248 -0.1726  0.3742  0.5608
  170MOL0     C23366   9.330  11.512   6.353 -0.0385  0.4041 -0.1042
  170MOL0    Cl23367   9.173  11.564   6.414 -0.1763  0.4111  0.0821
  170MOL0     C23368   8.966  10.729   5.816 -0.0001  0.7840  0.0906
  170MOL0     C23369   8.900  10.603   5.815  0.3099 -0.0945 -0.7688
  170MOL0     O23370   8.690  10.492   5.979  0.3009  0.1746 -0.3361
  170MOL0     C23371   8.693  10.198   5.812  0.5132 -0.0064 -0.9700
  170MOL0     C23372   8.646  10.063   5.802  0.0486  0.3462  0.8659
  170MOL0     N23373   7.972   9.903   5.540  0.0242 -0.0156 -0.1844
  170MOL0     N23374   8.007   9.989   5.448  0.6037 -0.3016 -0.2578
  170MOL0     C23375   8.801   9.123   5.044  0.1171  0.1749  0.0720
  170MOL0     C23376   8.816   9.013   4.955 -0.5665 -0.9443 -0.3063
  170MOL0     C23377   8.677   8.746   4.891 -0.8891 -0.6308 -0.4680
  170MOL0     C23378   8.546   8.788   4.919  0.1847  0.3785  0.0823
  170MOL0     C23379   8.488   8.747   5.040  0.0515  1.5376 -0.2326
  170MOL0     C23380   8.553   8.664   5.136  0.1424 -0.3631  0.2476
  170MOL0     O23381   8.492   8.631   5.257 -0.6046 -0.4766  0.5829
  170MOL0     C23382   8.404   8.518   5.251  0.4144 -0.1430  0.0393
  170MOL0     C23383   8.336   8.472   5.385 -0.1478  0.0187  0.2644
  170MOL0     C23384   8.261   8.581   5.464  0.6676  0.1481  0.6333
  170MOL0     C23385   8.145   8.647   5.386 -0.1230 -0.1737  0.5953
  170MOL0     C23386   8.127   8.787   5.436  0.7776  0.1779  1.5027
  170MOL0     C23387   8.104   8.887   5.492  0.3519 -0.4930  0.6077
  170MOL0     C23388   8.683   8.626   5.096 -0.1773  0.5932  0.2439
  170MOL0     C23389   8.749   8.652   4.978 -0.2566 -0.5458  0.6147
  170MOL0     C23390   8.897   8.614   4.963  1.1902 -0.7201 -0.3828
  170MOL0     H23391   8.645   9.145   4.694  1.7519 -2.0161 -0.7860
  170MOL0     H23392   8.619   9.341   4.864  1.0776  1.7718 -0.7537
  170MOL0     H23393   8.550   9.437   5.059 -0.7167 -0.4163 -1.3955
  170MOL0     H23394   8.714   9.505   5.017 -0.7763  4.6445  2.7708
  170MOL0     H23395   8.586   9.503   5.296 -1.6120  2.2120 -0.6876
  170MOL0     H23396   8.751   9.522   5.251  0.0028 -1.6177 -0.9538
  170MOL0     H23397   8.660   9.739   5.275 -1.1389 -1.1234  2.1631
  170MOL0     H23398   8.663   9.739   5.099  0.9433  2.4881  1.7237
  170MOL0     H23399   8.435   9.664   5.100  0.8261 -2.1690 -0.5158
  170MOL0     H23400   8.418   9.673   5.276 -1.9264 -0.2654 -2.5041
  170MOL0     H23401   8.496   9.911   5.113 -2.4332  0.5442 -2.5657
  170MOL0     H23402   8.458   9.900   5.283 -1.2416 -0.1790  0.4055
  170MOL0     H23403   8.235   9.835   5.074 -0.5293 -2.9153  1.1309
  170MOL0     H23404   8.223   9.816   5.247 -0.0341 -0.4233  0.4407
  170MOL0     H23405   8.139  10.051   5.162 -2.0729 -3.4285  1.3433
  170MOL0     H23406   8.311  10.087   5.143  2.5349 -2.8912  0.5875
  170MOL0     H23407   8.328  10.072   5.388 -0.4415  2.2874  0.1399
  170MOL0     H23408   8.189  10.166   5.363  0.6239 -0.1566  3.6735
  170MOL0     H23409   8.291   9.840   5.524  0.2487 -1.9108  2.3210
  170MOL0     H23410   8.071   9.628   5.635  3.8700 -1.6197  1.3136
  170MOL0     H23411   8.018   9.739   5.752 -2.6553 -0.7996 -3.3576
  170MOL0     H23412   8.217   9.625   5.819  1.7120 -0.1250  0.1138
  170MOL0     H23413   8.301   9.673   5.675 -0.1783  0.9096 -1.8478
  170MOL0     H23414   8.290   9.919   5.762 -1.4232  0.1337 -0.4872
  170MOL0     H23415   8.186   9.860   5.892 -0.3996 -0.8858 -0.2355
  170MOL0     H23416   8.358   9.883   6.014 -0.3859 -1.4496  0.9744
  170MOL0     H23417   8.402   9.726   5.948 -2.8844 -0.1926  1.0949
  170MOL0     H23418   8.373  10.097   6.002 -0.4650 -1.3343 -0.8053
  170MOL0     H23419   8.328  10.327   6.065  0.8529 -0.5894  2.5338
  170MOL0     H23420   8.409  10.451   5.964 -0.9441 -0.1908 -0.6349
  170MOL0     H23421   8.470  10.396   6.122 -0.4578 -3.1789  0.0556
  170MOL0     H23422   8.620  10.687   5.654  0.1922  4.3709 -0.4717
  170MOL0     H23423   8.736  10.893   5.628  2.0020  0.2085  1.6102
  170MOL0     H23424   9.149  10.922   5.749  2.4980  1.7991  1.5071
  170MOL0     H23425   9.112  11.059   5.647  0.0395 -0.2192  0.1179
  170MOL0     H23426   9.043  11.179   5.863  1.0611  0.3175 -0.2689
  170MOL0     H23427   9.096  11.035   5.949  0.9110  0.2487  0.2476
  170MOL0     H23428   9.285  11.206   5.784 -1.7457  1.8441  0.6134
  170MOL0     H23429   9.327  11.057   5.867  0.2369  0.1776 -0.1229
  170MOL0     H23430   9.390  11.272   5.975  0.4803 -1.1707  0.1333
  170MOL0     H23431   9.298  11.162   6.088  0.0819 -1.9655 -0.9283
  170MOL0     H23432   9.152  11.377   5.921  6.0034  0.9669 -1.9227
  170MOL0     H23433   9.103  11.291   6.073 -0.7785  1.1575  2.0760
  170MOL0     H23434   9.157  11.510   6.152 -0.2011  0.4708 -1.7832
  170MOL0     H23435   9.316  11.504   6.072  0.2182 -0.6104 -1.2758
  170MOL0     H23436   9.414  11.373   6.216 -0.9563  1.5255 -3.2684
  170MOL0     H23437   9.253  11.313   6.291  0.1013  1.2301  2.6647
  170MOL0     H23438   9.379  11.602   6.314 -0.8045  2.3014  2.9627
  170MOL0     H23439   9.393  11.480   6.436  0.1511 -0.1772 -0.4654
  170MOL0     H23440   9.068  10.737   5.853 -0.8084 -0.6589  2.8863
  170MOL0     H23441   8.941  10.516   5.866 -2.5431 -0.1324  1.7307
  170MOL0     H23442   8.782  10.215   5.752  1.6736  0.1821  0.7237
  170MOL0     H23443   8.700   9.994   5.737 -1.6633  0.3542 -0.6568
  170MOL0     H23444   8.848   9.121   5.142  0.4036 -0.6863 -0.0702
  170MOL0     H23445   8.877   8.928   4.983 -0.6764 -0.4364  1.5809
  170MOL0     H23446   8.497   8.859   4.853 -0.2128  0.3922  0.3832
  170MOL0     H23447   8.389   8.784   5.062  0.1921  0.7494  2.0173
  170MOL0     H23448   8.330   8.529   5.170 -0.2145 -3.8166 -0.0319
  170MOL0     H23449   8.463   8.429   5.232 -0.6371 -0.5727 -1.3965
  170MOL0     H23450   8.419   8.431   5.443 -0.0786  0.8311  0.7637
  170MOL0     H23451   8.267   8.390   5.365  0.4730 -0.4342 -0.0596
  170MOL0     H23452   8.215   8.546   5.557 -3.3658  1.9485 -0.4512
  170MOL0     H23453   8.331   8.662   5.485 -2.6115  3.7793 -1.2987
  170MOL0     H23454   8.051   8.590   5.392  0.5435 -1.9245 -2.8808
  170MOL0     H23455   8.155   8.654   5.278  1.8213  0.6861  0.7887
  170MOL0     H23456   8.092   8.984   5.536 -1.4317 -0.3069 -0.1814
  170MOL0     H23457   8.750   8.571   5.161  2.5169  0.7979 -2.1663
  170MOL0     H23458   8.943   8.707   4.928  1.7069 -0.9257 -0.2658
  170MOL0     H23459   8.934   8.594   5.064 -1.4340  0.1393  0.8491
  170MOL0     H23460   8.911   8.530   4.896  1.5580 -2.4038  1.6873
  171MOL0     O23461   4.565   7.065   2.682 -0.4074  0.1741  0.1788
  171MOL0     C23462   4.443   7.061   2.690  1.0586 -0.1546  0.5981
  171MOL0     O23463   4.365   6.946   2.648 -0.5991  0.1049 -0.2547
  171MOL0     C23464   4.431   6.835   2.611  0.4436 -0.7176  0.1391
  171MOL0     C23465   4.495   6.822   2.486 -0.6750  0.5505  0.3557
  171MOL0     C23466   4.537   6.698   2.444 -0.2308 -0.7377  0.0619
  171MOL0     C23467   4.516   6.584   2.521  0.1129  0.1168 -0.5079
  171MOL0     O23468   4.565   6.460   2.486  0.6638  0.0411 -0.6177
  171MOL0     C23469   4.549   6.404   2.359 -0.8270  0.6430  0.2773
  171MOL0     C23470   4.406   6.375   2.326 -0.7599 -0.3567  0.5182
  171MOL0     C23471   4.347   6.267   2.419  0.4884 -0.1939 -0.5649
  171MOL0     C23472   4.410   6.134   2.409  0.4000 -0.4684 -0.1796
  171MOL0     C23473   4.315   6.035   2.483  0.3300 -0.5010 -0.8065
  171MOL0     C23474   4.381   5.898   2.504 -0.4710  0.4822  0.9663
  171MOL0     C23475   4.294   5.805   2.570  0.8086 -0.1495 -0.0872
  171MOL0     C23476   4.359   5.663   2.590  1.1576  0.3213  0.3423
  171MOL0     N23477   4.501   5.665   2.638 -1.3605  0.7880 -0.0860
  171MOL0     C23478   4.540   5.710   2.759 -1.0862 -0.3176  0.3770
  171MOL0     C23479   4.675   5.696   2.753 -0.4324  0.1202 -0.1928
  171MOL0     C23480   4.769   5.742   2.865  0.2655 -0.4294 -0.0375
  171MOL0     C23481   4.795   5.891   2.844  0.4392  1.5830  0.2480
  171MOL0     C23482   4.902   5.947   2.927  0.5560 -0.1441 -0.2590
  171MOL0     C23483   4.977   6.060   2.847  0.7802 -0.0402  0.6737
  171MOL0     O23484   4.866   6.150   2.812  0.1779  0.1592 -0.4511
  171MOL0     C23485   4.880   6.279   2.801 -0.1677 -0.7964  0.2814
  171MOL0     C23486   4.783   6.363   2.855 -0.2674 -0.9811  0.2148
  171MOL0     C23487   4.805   6.509   2.858  0.5665  0.2426 -0.4982
  171MOL0     C23488   4.691   6.585   2.924  0.0320  0.3358  0.6434
  171MOL0     C23489   4.923   6.574   2.810 -0.4406 -0.5245 -0.4019
  171MOL0     C23490   4.938   6.722   2.793  0.9602  0.2328  0.2647
  171MOL0     O23491   5.018   6.757   2.686  0.0853  0.3713 -0.8696
  171MOL0     C23492   5.014   6.884   2.656 -0.5173  1.2355 -0.6882
  171MOL0     C23493   4.914   6.933   2.573 -0.8970 -0.1291  0.3440
  171MOL0     C23494   4.896   7.067   2.545 -0.0154  0.2260  0.8462
  171MOL0     C23495   4.982   7.159   2.603  0.3068  0.2560 -0.7972
  171MOL0     O23496   4.965   7.292   2.612  0.3231  0.1837  0.1409
  171MOL0     C23497   4.857   7.356   2.528  0.9132 -0.5359 -0.1748
  171MOL0     C23498   4.882   7.505   2.491  0.4553  0.8765  0.8160
  171MOL0     C23499   4.753   7.584   2.442 -0.4890 -0.1460  0.0808
  171MOL0     C23500   4.681   7.639   2.560  0.2959  0.1586  0.0082
  171MOL0     C23501   4.562   7.720   2.523  0.1068  0.6368  0.2166
  171MOL0     C23502   4.495   7.772   2.645 -1.0259 -0.5847 -0.2195
  171MOL0     C23503   4.368   7.833   2.601  0.4514 -0.2800  0.1251
  171MOL0     C23504   4.324   7.920   2.716  1.5473  0.3473  0.4711
  171MOL0    Cl23505   4.321   8.097   2.666  0.1409  0.0692 -0.1329
  171MOL0     C23506   5.090   7.111   2.674  0.1061  0.0706  0.4226
  171MOL0     C23507   5.104   6.977   2.712  0.3826  0.1389 -0.3186
  171MOL0     O23508   4.885   6.801   2.873  0.0911  0.3083 -0.2257
  171MOL0     C23509   5.007   6.482   2.737  0.9513  0.3617  0.1397
  171MOL0     C23510   4.986   6.342   2.733 -0.3973  0.0424 -0.9706
  171MOL0     N23511   4.716   5.669   2.630 -0.1085 -0.5668  0.4940
  171MOL0     N23512   4.614   5.643   2.560 -0.3582 -0.7093 -0.0717
  171MOL0     C23513   4.464   6.594   2.647 -0.9536  0.8746 -0.3595
  171MOL0     C23514   4.410   6.715   2.684  0.1200  0.6095 -0.5692
  171MOL0     C23515   4.367   7.182   2.747 -0.8178  0.0679 -0.4107
  171MOL0     C23516   4.225   7.164   2.760 -0.2065  0.6486  0.0060
  171MOL0     C23517   4.143   7.271   2.799  0.5222  0.7610 -1.0980
  171MOL0     C23518   4.197   7.391   2.839  0.0819 -1.4402  0.7829
  171MOL0     O23519   4.122   7.482   2.907  0.0648 -0.2642 -0.3023
  171MOL0     C23520   4.084   7.600   2.834  0.3737 -0.6813 -0.6425
  171MOL0     C23521   3.958   7.574   2.763  0.7349  0.1150  0.9285
  171MOL0     C23522   3.835   7.544   2.859 -0.0266  0.7224 -0.3624
  171MOL0     C23523   3.717   7.463   2.788 -0.1112 -0.3149 -0.7579
  171MOL0     C23524   3.753   7.338   2.715  0.0183  0.3409 -0.7039
  171MOL0     C23525   3.785   7.244   2.659  0.3537  0.1470  0.3512
  171MOL0     C23526   4.336   7.407   2.840 -0.6657 -0.0113  0.9809
  171MOL0     C23527   4.424   7.304   2.789  0.2151 -0.8453 -0.5012
  171MOL0     C23528   4.562   7.328   2.814 -0.0330  0.1523 -0.3439
  171MOL0     H23529   4.486   6.901   2.413 -1.7331  2.0966  2.0828
  171MOL0     H23530   4.573   6.687   2.343  2.2159 -1.3077  0.9351
  171MOL0     H23531   4.611   6.314   2.368 -1.6231  0.0278 -0.3230
  171MOL0     H23532   4.585   6.475   2.283 -0.3117  0.4758  0.3571
  171MOL0     H23533   4.355   6.472   2.338 -0.8619 -0.0606 -1.7841
  171MOL0     H23534   4.393   6.347   2.221 -2.7587  0.9223  0.3613
  171MOL0     H23535   4.367   6.312   2.517 -2.2280  4.1504 -1.7432
  171MOL0     H23536   4.244   6.262   2.381  0.4125 -0.3737 -0.3328
  171MOL0     H23537   4.434   6.103   2.307  1.8796 -0.4125  0.1311
  171MOL0     H23538   4.505   6.135   2.463  0.6659  1.1192 -0.6329
  171MOL0     H23539   4.218   6.006   2.442 -0.7566 -3.7310  3.3313
  171MOL0     H23540   4.288   6.072   2.582 -1.1024 -1.0044 -0.9887
  171MOL0     H23541   4.407   5.855   2.406 -0.2786  0.5647  0.9802
  171MOL0     H23542   4.474   5.905   2.560 -0.2947  1.0841  0.6150
  171MOL0     H23543   4.199   5.791   2.518  0.2398 -1.5233  1.2392
  171MOL0     H23544   4.264   5.851   2.666 -0.6938  2.8801 -1.8445
  171MOL0     H23545   4.295   5.594   2.645  0.6160 -1.1017 -1.9187
  171MOL0     H23546   4.356   5.613   2.492  1.0788  1.4987 -0.2837
  171MOL0     H23547   4.490   5.744   2.849  0.9368 -0.7101  1.7220
  171MOL0     H23548   4.865   5.693   2.845 -0.1145 -1.0794 -0.3029
  171MOL0     H23549   4.741   5.697   2.961 -1.2177  0.6960  0.0899
  171MOL0     H23550   4.820   5.902   2.738  1.9890  0.0047  0.4008
  171MOL0     H23551   4.707   5.956   2.846 -2.3942 -1.8164 -1.4257
  171MOL0     H23552   4.855   5.981   3.020  1.7048  1.1470 -0.1288
  171MOL0     H23553   4.973   5.871   2.959  3.2097  1.1240 -2.6774
  171MOL0     H23554   5.050   6.109   2.912  0.6430 -1.8791  2.2957
  171MOL0     H23555   5.027   6.027   2.755 -1.1796  1.1975 -0.9273
  171MOL0     H23556   4.698   6.319   2.905  2.0720 -1.6044  4.0942
  171MOL0     H23557   4.729   6.628   3.017  1.1189 -1.1688  0.9307
  171MOL0     H23558   4.608   6.524   2.962  1.5885 -0.8913  2.2316
  171MOL0     H23559   4.662   6.669   2.860  1.4084 -0.1357 -0.6661
  171MOL0     H23560   4.839   6.866   2.533  1.0525 -2.0120 -0.3915
  171MOL0     H23561   4.806   7.101   2.495 -1.4041 -1.5015  2.0352
  171MOL0     H23562   4.831   7.292   2.443 -3.2251 -0.3435  0.7395
  171MOL0     H23563   4.775   7.347   2.600  1.0682 -0.3291  0.0319
  171MOL0     H23564   4.939   7.548   2.574 -2.4215  0.4476  3.1476
  171MOL0     H23565   4.945   7.502   2.401 -2.7977 -0.2215 -1.6487
  171MOL0     H23566   4.679   7.521   2.392  0.2384 -1.3558  0.4701
  171MOL0     H23567   4.783   7.671   2.383 -0.2007 -1.0003 -1.0567
  171MOL0     H23568   4.748   7.685   2.633 -0.9935  1.6491  0.3068
  171MOL0     H23569   4.646   7.553   2.617 -0.4152 -0.0194 -0.6721
  171MOL0     H23570   4.594   7.797   2.452  1.2619 -1.9451 -2.2861
  171MOL0     H23571   4.483   7.656   2.483 -0.1084  0.9112  0.2023
  171MOL0     H23572   4.558   7.847   2.692 -3.8415  2.8967 -1.5173
  171MOL0     H23573   4.473   7.694   2.719 -1.8389 -0.2904 -0.1390
  171MOL0     H23574   4.287   7.762   2.583  1.1077 -0.6782 -1.3503
  171MOL0     H23575   4.383   7.897   2.514  0.6398  0.1242  0.4482
  171MOL0     H23576   4.374   7.907   2.813 -0.0574 -0.8841  1.1880
  171MOL0     H23577   4.218   7.899   2.733  1.1302  0.6123 -1.5439
  171MOL0     H23578   5.160   7.188   2.704  1.4802 -0.5487 -1.0485
  171MOL0     H23579   5.198   6.951   2.759  0.8891 -0.5948 -1.6672
  171MOL0     H23580   5.088   6.515   2.673  3.1620 -0.3699  2.3729
  171MOL0     H23581   5.059   6.282   2.679  2.5245  2.6046 -0.1735
  171MOL0     H23582   4.465   6.500   2.701  2.3980 -0.3293 -2.2440
  171MOL0     H23583   4.369   6.727   2.783  3.3846 -0.0440  1.0013
  171MOL0     H23584   4.186   7.064   2.751 -0.3679  0.2005  3.8539
  171MOL0     H23585   4.037   7.266   2.822  0.3081  2.7373 -1.4386
  171MOL0     H23586   4.070   7.689   2.896  0.9782 -1.1635  0.1939
  171MOL0     H23587   4.161   7.636   2.765  0.5267  2.5750  1.0225
  171MOL0     H23588   3.957   7.493   2.689  0.8532 -0.2494  1.3216
  171MOL0     H23589   3.934   7.665   2.709 -2.9058 -1.1588  0.1155
  171MOL0     H23590   3.860   7.500   2.956 -0.2145  1.8251  0.2017
  171MOL0     H23591   3.784   7.635   2.892  0.1331  0.9483 -0.7375
  171MOL0     H23592   3.674   7.530   2.714  0.3714 -0.4638 -1.1812
  171MOL0     H23593   3.639   7.432   2.859  2.2929 -0.5047  2.0185
  171MOL0     H23594   3.811   7.155   2.607  0.3643 -0.0177  0.6380
  171MOL0     H23595   4.380   7.500   2.876  1.1640  0.1800 -1.4525
  171MOL0     H23596   4.600   7.233   2.854 -1.7058 -0.5309 -0.2775
  171MOL0     H23597   4.605   7.344   2.715 -1.6196  0.3275 -1.0315
  171MOL0     H23598   4.584   7.409   2.885 -0.7166 -1.9411  2.4522
  172MOL0     O23599   1.894   3.605   5.065  0.4412 -0.3792  0.8319
  172MOL0     C23600   1.860   3.671   4.968  0.4690 -1.2781 -0.5206
  172MOL0     O23601   1.823   3.614   4.853  0.2645  0.3150 -0.6919
  172MOL0     C23602   1.824   3.483   4.832 -0.5383  0.0390 -0.4135
  172MOL0     C23603   1.940   3.410   4.821  1.2690 -0.0007 -0.3412
  172MOL0     C23604   1.936   3.283   4.763  0.2771 -0.1063 -0.2358
  172MOL0     C23605   1.813   3.221   4.730  0.2253 -0.8928 -0.5062
  172MOL0     O23606   1.789   3.106   4.682 -0.1654  0.0883  0.4590
  172MOL0     C23607   1.900   3.014   4.664  0.5939  0.1328 -0.0486
  172MOL0     C23608   1.857   2.875   4.652 -0.6363 -0.7206 -0.8725
  172MOL0     C23609   1.787   2.827   4.779 -0.5420  0.3145 -0.1101
  172MOL0     C23610   1.897   2.754   4.861 -0.8029  0.1952  0.5958
  172MOL0     C23611   1.841   2.692   4.988 -0.9917  0.4994 -0.3035
  172MOL0     C23612   1.951   2.612   5.072  0.4551 -1.0170  0.3970
  172MOL0     C23613   1.920   2.475   5.123  0.0919  0.2823 -0.6306
  172MOL0     C23614   1.982   2.363   5.019 -0.8934 -0.4058 -0.0448
  172MOL0     N23615   1.888   2.335   4.907 -0.1983 -0.9997  0.3781
  172MOL0     C23616   1.916   2.331   4.771 -0.6243 -0.7708  0.8003
  172MOL0     C23617   1.794   2.300   4.712 -0.2205  0.3477 -1.3547
  172MOL0     C23618   1.785   2.274   4.559  0.5418  1.4068 -0.9278
  172MOL0     C23619   1.810   2.406   4.481 -0.5611 -0.5484  0.6087
  172MOL0     C23620   1.729   2.522   4.517  0.4447  0.7573 -0.2567
  172MOL0     C23621   1.575   2.497   4.501  0.8474  0.1432 -0.0015
  172MOL0     O23622   1.541   2.451   4.370 -0.1531 -0.5477  0.8624
  172MOL0     C23623   1.407   2.447   4.337  0.0779 -0.4424 -0.2710
  172MOL0     C23624   1.386   2.433   4.195  0.4795  0.5012 -0.1571
  172MOL0     C23625   1.261   2.414   4.143  0.4736  0.1136 -0.2827
  172MOL0     C23626   1.250   2.432   3.989  0.3517 -0.0034 -0.2225
  172MOL0     C23627   1.150   2.404   4.230 -0.7209 -0.4887  0.2933
  172MOL0     C23628   1.021   2.376   4.169  0.0300  1.1336 -0.1680
  172MOL0     O23629   0.914   2.439   4.232 -0.1649 -0.0381  0.3168
  172MOL0     C23630   0.786   2.431   4.179  0.1843 -0.1122  0.1586
  172MOL0     C23631   0.732   2.515   4.085 -0.6667 -0.6233  0.7077
  172MOL0     C23632   0.602   2.498   4.028  0.2689 -0.6216 -0.3086
  172MOL0     C23633   0.532   2.381   4.065 -0.2266 -0.7801  0.6231
  172MOL0     O23634   0.402   2.360   4.010  0.3968 -0.2175  0.2020
  172MOL0     C23635   0.369   2.222   3.991  0.8557  1.1368 -0.1904
  172MOL0     C23636   0.279   2.221   3.862  0.0179 -0.7408  0.1161
  172MOL0     C23637   0.135   2.251   3.889 -0.0886  0.5816 -0.6535
  172MOL0     C23638   0.040   2.203   3.779 -0.1924  0.8141  0.0169
  172MOL0     C23639  -0.104   2.212   3.837 -0.6233 -0.7525 -0.9738
  172MOL0     C23640  -0.199   2.182   3.728 -0.8859  0.3504  0.7063
  172MOL0     C23641  -0.349   2.207   3.782  0.2865 -0.2721 -0.1148
  172MOL0     C23642  -0.420   2.108   3.865 -1.0974 -0.0867  0.3759
  172MOL0    Cl23643  -0.464   1.977   3.747 -0.1855  0.3660  0.0431
  172MOL0     C23644   0.581   2.299   4.160 -0.6153  0.0969  0.1442
  172MOL0     C23645   0.700   2.327   4.217 -0.3299 -0.4096 -0.1704
  172MOL0     O23646   1.007   2.299   4.073 -0.2812  0.1738 -0.2164
  172MOL0     C23647   1.162   2.426   4.368 -0.5174 -0.8198  0.1500
  172MOL0     C23648   1.294   2.454   4.419  0.4755  0.5073  0.8455
  172MOL0     N23649   1.696   2.296   4.814 -0.2779  0.1761 -0.4205
  172MOL0     N23650   1.752   2.321   4.924  0.0941 -0.2914 -0.4636
  172MOL0     C23651   1.693   3.296   4.748 -0.0863 -0.2159 -0.2102
  172MOL0     C23652   1.708   3.429   4.785  0.1592 -0.8835 -0.4238
  172MOL0     C23653   1.844   3.819   4.988  1.2836 -1.1030 -0.5541
  172MOL0     C23654   1.874   3.873   5.115  1.2786  0.5783 -0.0648
  172MOL0     C23655   1.880   4.007   5.137 -0.5509 -0.2664 -0.2725
  172MOL0     C23656   1.841   4.096   5.040  0.1626  0.9483  0.6356
  172MOL0     O23657   1.841   4.231   5.070  0.2498 -0.5611  0.1725
  172MOL0     C23658   1.731   4.275   5.154 -0.2486 -0.1162  0.6514
  172MOL0     C23659   1.613   4.322   5.067  0.1739 -0.4399  0.0153
  172MOL0     C23660   1.658   4.459   5.002  0.5106 -0.5188 -0.0519
  172MOL0     C23661   1.547   4.565   5.038  0.0383 -0.5056  1.2792
  172MOL0     C23662   1.576   4.693   4.958 -0.7467  0.7802 -0.5833
  172MOL0     C23663   1.606   4.808   4.917 -0.4833  0.1655 -0.4219
  172MOL0     C23664   1.792   4.055   4.911  0.7568 -0.3165 -0.6207
  172MOL0     C23665   1.803   3.911   4.887  0.8815 -0.6390  0.2345
  172MOL0     C23666   1.781   3.873   4.741  0.6363  0.2663  0.0743
  172MOL0     H23667   2.034   3.441   4.864  0.8794 -1.1769  1.4509
  172MOL0     H23668   2.034   3.236   4.763  0.3009 -0.2031  2.0466
  172MOL0     H23669   1.973   3.027   4.745  0.0244 -1.8186  0.8293
  172MOL0     H23670   1.962   3.036   4.576  2.0424  2.3069  1.3971
  172MOL0     H23671   1.790   2.877   4.565 -0.6078  2.1984 -0.9407
  172MOL0     H23672   1.936   2.805   4.626 -3.8563 -4.6762 -1.0701
  172MOL0     H23673   1.746   2.906   4.842  2.7408  0.7388  1.7504
  172MOL0     H23674   1.704   2.757   4.767 -1.0724  0.8691  0.2899
  172MOL0     H23675   1.930   2.671   4.799 -1.4568  0.7884 -0.5778
  172MOL0     H23676   1.987   2.815   4.876  1.4319 -2.8987  0.6871
  172MOL0     H23677   1.756   2.627   4.962 -1.0649  1.0105 -1.4272
  172MOL0     H23678   1.804   2.762   5.063 -1.5968 -0.0167 -0.1112
  172MOL0     H23679   2.045   2.602   5.017 -0.1508 -2.6606 -0.4254
  172MOL0     H23680   1.962   2.678   5.159 -2.5679  1.6212 -1.0480
  172MOL0     H23681   1.815   2.465   5.151  0.1741 -1.4587 -0.8293
  172MOL0     H23682   1.967   2.464   5.222 -0.5369  1.5810 -0.1680
  172MOL0     H23683   2.075   2.396   4.973 -1.2154  2.5370  1.2128
  172MOL0     H23684   1.996   2.275   5.084 -0.6080  0.1043  0.5953
  172MOL0     H23685   2.010   2.355   4.723 -2.8003 -0.3315 -3.7744
  172MOL0     H23686   1.684   2.245   4.529  0.5440 -1.3952  1.2929
  172MOL0     H23687   1.851   2.190   4.538  0.3374  0.2090  2.5807
  172MOL0     H23688   1.915   2.436   4.495 -0.6825 -0.6087  1.7723
  172MOL0     H23689   1.797   2.384   4.375 -1.6365 -1.6520  0.9499
  172MOL0     H23690   1.759   2.567   4.612 -0.2281  2.1216 -0.6597
  172MOL0     H23691   1.754   2.596   4.440  0.6502 -2.1302 -3.1611
  172MOL0     H23692   1.552   2.417   4.572  4.1092 -1.5952 -0.7004
  172MOL0     H23693   1.518   2.587   4.526  0.1377 -0.0960 -0.7277
  172MOL0     H23694   1.473   2.448   4.132  0.0572 -3.1731 -1.8801
  172MOL0     H23695   1.161   2.492   3.967 -0.4621 -0.9530  0.3787
  172MOL0     H23696   1.249   2.340   3.930 -0.4516  0.3622 -0.8081
  172MOL0     H23697   1.336   2.494   3.962  0.3356  0.2049  0.1924
  172MOL0     H23698   0.792   2.596   4.044 -3.5905  0.4400 -1.9261
  172MOL0     H23699   0.562   2.573   3.961 -0.6950  0.3234  1.2521
  172MOL0     H23700   0.459   2.163   3.972 -0.6057 -1.2327 -0.1821
  172MOL0     H23701   0.316   2.166   4.068 -0.1219  0.6707 -1.1815
  172MOL0     H23702   0.322   2.286   3.785  0.2977  1.0479  1.7015
  172MOL0     H23703   0.289   2.117   3.831 -1.6633 -1.1465  0.8130
  172MOL0     H23704   0.116   2.350   3.930  0.6394 -0.2008  1.7652
  172MOL0     H23705   0.114   2.184   3.974  0.2292  2.3877  0.9225
  172MOL0     H23706   0.055   2.096   3.762 -1.5271  0.7423 -0.8905
  172MOL0     H23707   0.060   2.246   3.680  4.1505 -1.3148 -0.2874
  172MOL0     H23708  -0.125   2.139   3.916  1.2522 -2.2144 -1.7550
  172MOL0     H23709  -0.112   2.315   3.873 -0.7111 -1.7466  2.1296
  172MOL0     H23710  -0.178   2.078   3.701  0.7229  0.0812  2.7478
  172MOL0     H23711  -0.174   2.237   3.637 -0.5040  0.0933  0.6556
  172MOL0     H23712  -0.415   2.236   3.700  1.3591 -0.2769 -1.0054
  172MOL0     H23713  -0.334   2.299   3.840  1.9499  0.6089 -1.8230
  172MOL0     H23714  -0.506   2.150   3.918 -0.0998  0.3165  1.7270
  172MOL0     H23715  -0.347   2.068   3.937  0.1701 -1.8233 -1.7499
  172MOL0     H23716   0.523   2.220   4.207  0.3619  0.0131  1.2810
  172MOL0     H23717   0.738   2.262   4.296  1.9718  0.0325 -0.8424
  172MOL0     H23718   1.080   2.430   4.439  1.2059  0.3684  2.1704
  172MOL0     H23719   1.305   2.462   4.527  0.5246  0.2462  0.8616
  172MOL0     H23720   1.592   3.261   4.731  0.5943 -1.8049 -1.2304
  172MOL0     H23721   1.622   3.493   4.801  0.2483 -1.0258  0.7085
  172MOL0     H23722   1.913   3.803   5.188  0.8234 -0.1119 -0.4745
  172MOL0     H23723   1.929   4.038   5.229 -2.0679 -0.1480  0.5386
  172MOL0     H23724   1.694   4.183   5.202 -0.8927  0.1810  0.7408
  172MOL0     H23725   1.762   4.345   5.232  0.3481 -0.5660  0.8245
  172MOL0     H23726   1.527   4.346   5.131 -2.0560 -1.3847 -2.4383
  172MOL0     H23727   1.593   4.252   4.985 -0.1134 -0.6792  0.2865
  172MOL0     H23728   1.735   4.507   5.062 -1.8908  3.5267  0.1902
  172MOL0     H23729   1.674   4.461   4.893 -0.2337  1.5990 -0.1615
  172MOL0     H23730   1.553   4.579   5.146  0.2706 -1.1305  1.3522
  172MOL0     H23731   1.449   4.526   5.009  0.4739 -0.1476 -0.8645
  172MOL0     H23732   1.654   4.902   4.899  3.4675 -1.7884 -1.0096
  172MOL0     H23733   1.762   4.135   4.844 -5.6196 -0.3684  1.5562
  172MOL0     H23734   1.703   3.797   4.729  2.2254 -1.3426 -0.3838
  172MOL0     H23735   1.779   3.956   4.670  1.7835 -0.1610 -0.4739
  172MOL0     H23736   1.874   3.818   4.725 -0.5645 -2.4319  1.6675
  173MOL0     O23737  11.539   2.422   6.809 -0.1786  0.2407 -0.0584
  173MOL0     C23738  11.494   2.401   6.702  0.0452  0.0406  0.3075
  173MOL0     O23739  11.548   2.446   6.579  0.8644  0.5832 -0.5637
  173MOL0     C23740  11.599   2.570   6.551 -0.2423 -0.0047  0.4533
  173MOL0     C23741  11.623   2.673   6.646  0.9023  0.9357  0.0172
  173MOL0     C23742  11.691   2.788   6.620 -0.4879  0.2289  0.4245
  173MOL0     C23743  11.730   2.813   6.487 -0.4818  1.0282  0.0397
  173MOL0     O23744  11.802   2.930   6.462 -0.1697 -0.0766  0.0737
  173MOL0     C23745  11.902   2.927   6.363  0.3946  0.2728  0.2936
  173MOL0     C23746  11.997   3.046   6.381  0.3280 -0.7740  0.4397
  173MOL0     C23747  11.936   3.175   6.329 -0.2836  0.8398  0.1828
  173MOL0     C23748  12.030   3.297   6.337  0.4607 -0.4398 -0.3553
  173MOL0     C23749  12.149   3.281   6.248 -0.1565 -0.4142 -0.1994
  173MOL0     C23750  12.216   3.414   6.208  0.1749 -0.2151  0.0473
  173MOL0     C23751  12.222   3.523   6.320  0.0774 -1.0805 -0.6765
  173MOL0     C23752  12.305   3.643   6.266 -0.5959  0.3874 -0.4661
  173MOL0     N23753  12.451   3.637   6.282 -0.5488  0.1294  0.5489
  173MOL0     C23754  12.514   3.620   6.399  0.1346 -0.4057  0.4518
  173MOL0     C23755  12.649   3.639   6.370 -0.4309  0.6004 -1.1655
  173MOL0     C23756  12.766   3.624   6.459 -0.0777  0.5522  0.5374
  173MOL0     C23757  12.856   3.757   6.436  0.1459  0.6566  0.1751
  173MOL0     C23758  12.976   3.727   6.524 -0.1535 -0.0295 -0.0370
  173MOL0     C23759  13.074   3.852   6.508 -0.0065 -0.4382  0.2739
  173MOL0     O23760  13.193   3.830   6.583  0.3292  0.5999  0.6430
  173MOL0     C23761  13.275   3.942   6.607  0.9547  0.6212  1.0910
  173MOL0     C23762  13.241   4.078   6.570 -0.4590  0.9772 -0.3564
  173MOL0     C23763  13.331   4.187   6.602  0.2460  0.4247  0.3407
  173MOL0     C23764  13.302   4.328   6.552 -0.1257 -0.7033  1.3629
  173MOL0     C23765  13.446   4.159   6.695 -0.4623 -0.4662 -0.3568
  173MOL0     C23766  13.542   4.258   6.748 -0.0506 -0.7583 -0.3857
  173MOL0     O23767  13.625   4.212   6.859  0.7271 -0.3881 -0.4912
  173MOL0     C23768  13.756   4.253   6.871  0.3165 -0.4195 -1.0896
  173MOL0     C23769  13.847   4.181   6.797  0.9933 -0.3234  0.1138
  173MOL0     C23770  13.986   4.208   6.797 -0.3000 -1.3660  0.6026
  173MOL0     C23771  14.035   4.309   6.878  0.5566 -0.5288  0.0182
  173MOL0     O23772  14.168   4.346   6.870 -0.4503 -1.0344  1.0330
  173MOL0     C23773  14.218   4.477   6.900 -0.5176  0.5110  0.8915
  173MOL0     C23774  14.346   4.505   6.810  0.1908  0.6551  0.0088
  173MOL0     C23775  14.463   4.571   6.882 -0.6580 -0.0099  0.0058
  173MOL0     C23776  14.604   4.554   6.817 -0.3965  0.1226  0.1026
  173MOL0     C23777  14.699   4.653   6.886  0.9826  0.0204 -0.4991
  173MOL0     C23778  14.816   4.662   6.789 -0.9087  0.7876 -0.7427
  173MOL0     C23779  14.913   4.750   6.859 -0.1105  0.4024  0.5797
  173MOL0     C23780  15.047   4.737   6.801 -0.1751 -0.4528 -0.6527
  173MOL0    Cl23781  15.053   4.784   6.632 -0.7542 -0.5050 -0.1355
  173MOL0     C23782  13.938   4.387   6.954 -0.4043  0.0891 -0.6173
  173MOL0     C23783  13.804   4.356   6.956  0.1585  0.2907 -0.8668
  173MOL0     O23784  13.547   4.373   6.700 -0.2771 -0.1779  0.3072
  173MOL0     C23785  13.465   4.028   6.734  0.2286 -0.2018 -0.6064
  173MOL0     C23786  13.381   3.925   6.688  0.1808  0.0750 -0.1278
  173MOL0     N23787  12.667   3.655   6.233 -0.0680  0.3611 -0.5467
  173MOL0     N23788  12.546   3.654   6.179 -0.5222 -0.9224  1.1053
  173MOL0     C23789  11.710   2.711   6.395 -0.7722  1.1570  0.0540
  173MOL0     C23790  11.651   2.593   6.421  0.4032  0.6273  0.4238
  173MOL0     C23791  11.391   2.294   6.693 -0.3143  0.5631  0.4366
  173MOL0     C23792  11.351   2.252   6.567  0.2847  0.0448  0.0212
  173MOL0     C23793  11.242   2.162   6.551  0.5605  0.2096  0.0572
  173MOL0     C23794  11.180   2.106   6.664 -0.0679 -0.1354  0.0334
  173MOL0     O23795  11.080   2.005   6.670 -0.2876 -0.3152 -0.9490
  173MOL0     C23796  11.027   1.968   6.540  0.7904  0.6760  0.7514
  173MOL0     C23797  10.894   1.896   6.582 -0.1496 -0.9466 -0.5908
  173MOL0     C23798  10.814   1.854   6.457 -0.7594 -0.0202  0.2885
  173MOL0     C23799  10.674   1.815   6.495 -0.3767  0.1845 -0.3248
  173MOL0     C23800  10.594   1.754   6.395 -0.3099 -0.1048  0.9801
  173MOL0     C23801  10.506   1.718   6.321 -0.1337  0.1680 -0.4954
  173MOL0     C23802  11.232   2.137   6.789 -0.2718 -0.8131 -0.9508
  173MOL0     C23803  11.336   2.223   6.803 -0.3453 -0.1200  0.7636
  173MOL0     C23804  11.364   2.243   6.951  0.7013  0.6789  0.1019
  173MOL0     H23805  11.603   2.641   6.748  2.2366 -0.0916 -0.0093
  173MOL0     H23806  11.726   2.866   6.687  1.5688 -0.9693  0.8471
  173MOL0     H23807  11.850   2.922   6.266 -0.4110  2.3091  0.5685
  173MOL0     H23808  11.957   2.834   6.377  0.3760 -0.2066 -2.2070
  173MOL0     H23809  12.028   3.051   6.485  3.0710  1.6990 -0.3644
  173MOL0     H23810  12.095   3.031   6.335  2.2931  0.7645  3.7710
  173MOL0     H23811  11.907   3.155   6.225  2.3817 -2.4533 -0.1107
  173MOL0     H23812  11.853   3.200   6.395 -0.2067  2.7277 -0.3571
  173MOL0     H23813  11.978   3.391   6.312  2.6889  1.4172  1.4721
  173MOL0     H23814  12.074   3.306   6.437 -0.3267 -1.2973  0.0833
  173MOL0     H23815  12.118   3.215   6.166 -0.4034 -3.7853  2.3950
  173MOL0     H23816  12.221   3.226   6.310  0.5748  1.4531  0.6809
  173MOL0     H23817  12.321   3.384   6.193  0.1000 -0.5935  0.2599
  173MOL0     H23818  12.164   3.443   6.116  1.5999  2.3596 -0.0401
  173MOL0     H23819  12.273   3.486   6.410 -1.5469 -1.1013  0.2713
  173MOL0     H23820  12.122   3.557   6.347  0.6095 -2.0428  3.0476
  173MOL0     H23821  12.279   3.657   6.160  0.7102  4.1174 -0.4613
  173MOL0     H23822  12.269   3.733   6.317  0.5323 -0.4028  1.8195
  173MOL0     H23823  12.476   3.584   6.494 -2.3452 -0.1799 -0.3897
  173MOL0     H23824  12.819   3.531   6.436 -1.4788 -0.9595  2.8635
  173MOL0     H23825  12.723   3.604   6.558 -0.6728  0.1873  0.2104
  173MOL0     H23826  12.894   3.758   6.334  0.2343 -0.6938  0.1823
  173MOL0     H23827  12.804   3.851   6.458 -0.1374  0.1468  1.8252
  173MOL0     H23828  12.939   3.711   6.626  0.7731 -0.6528  0.2178
  173MOL0     H23829  13.029   3.636   6.494  1.5465  0.1556  2.0992
  173MOL0     H23830  13.107   3.862   6.404  3.7250 -3.7530  0.8826
  173MOL0     H23831  13.017   3.941   6.535  0.9634 -0.0949  1.2474
  173MOL0     H23832  13.157   4.111   6.510 -1.4109  1.7536  1.3259
  173MOL0     H23833  13.278   4.396   6.634  3.3211  0.6835  1.3781
  173MOL0     H23834  13.224   4.332   6.475  3.7614  0.8541 -2.9725
  173MOL0     H23835  13.380   4.380   6.495 -2.1253 -1.7558 -2.7326
  173MOL0     H23836  13.829   4.094   6.733  4.6456 -1.1401 -0.0694
  173MOL0     H23837  14.051   4.138   6.746 -2.8016 -1.1258 -3.3659
  173MOL0     H23838  14.140   4.549   6.874 -1.3478 -0.9337 -0.8429
  173MOL0     H23839  14.231   4.478   7.008  1.1618 -2.9750  0.8553
  173MOL0     H23840  14.385   4.414   6.764  4.7388  0.1231  4.1034
  173MOL0     H23841  14.312   4.572   6.731  1.5060 -1.8700 -2.8687
  173MOL0     H23842  14.471   4.537   6.985  0.0084  0.2276  0.0379
  173MOL0     H23843  14.452   4.680   6.885 -0.8949  0.0416 -1.7361
  173MOL0     H23844  14.589   4.573   6.710  0.6306 -0.8513 -0.2234
  173MOL0     H23845  14.630   4.449   6.828 -1.6566 -0.0146  2.5493
  173MOL0     H23846  14.646   4.748   6.879  1.3126  0.2552  0.2077
  173MOL0     H23847  14.716   4.618   6.988  0.3590  1.3367  0.0840
  173MOL0     H23848  14.784   4.692   6.689 -2.3685 -0.8750 -0.8188
  173MOL0     H23849  14.857   4.561   6.777  2.0994  2.0760 -2.5433
  173MOL0     H23850  14.909   4.740   6.968  3.0146 -4.1524  0.5542
  173MOL0     H23851  14.866   4.844   6.829 -1.1592 -0.6757 -1.4093
  173MOL0     H23852  15.083   4.634   6.812 -1.5279 -0.9434 -0.5588
  173MOL0     H23853  15.107   4.803   6.864 -1.7984 -0.1611  0.6273
  173MOL0     H23854  13.977   4.473   7.009 -1.8452  0.8991 -0.8265
  173MOL0     H23855  13.730   4.411   7.013  1.8713  1.0198  0.7851
  173MOL0     H23856  13.548   3.999   6.798  0.6082  1.3872 -0.3347
  173MOL0     H23857  13.415   3.827   6.719  1.2092  0.6545  0.6286
  173MOL0     H23858  11.744   2.720   6.292  2.0147 -2.2186  0.4974
  173MOL0     H23859  11.648   2.514   6.347  0.5051  0.5775  0.4715
  173MOL0     H23860  11.390   2.279   6.470 -0.8334 -1.4651 -0.8992
  173MOL0     H23861  11.209   2.132   6.452 -2.4327  2.9793  0.0519
  173MOL0     H23862  11.009   2.051   6.470  1.2973  0.2967  0.1628
  173MOL0     H23863  11.095   1.905   6.481 -1.2430 -1.0076  0.0901
  173MOL0     H23864  10.832   1.970   6.634 -0.9403 -0.5399 -2.0291
  173MOL0     H23865  10.911   1.808   6.644  1.3512 -1.4014 -1.6023
  173MOL0     H23866  10.821   1.931   6.380 -1.2594  1.2778  1.4914
  173MOL0     H23867  10.877   1.769   6.428  1.5325  0.0940  4.1925
  173MOL0     H23868  10.628   1.909   6.528  0.2718  1.2586 -2.3246
  173MOL0     H23869  10.680   1.741   6.575  0.4060 -0.7081 -1.1888
  173MOL0     H23870  10.424   1.677   6.265 -1.0777 -1.2161  1.7319
  173MOL0     H23871  11.191   2.082   6.874 -1.5305 -0.2236 -1.1570
  173MOL0     H23872  11.317   2.335   6.989  0.8261  0.5355  0.6132
  173MOL0     H23873  11.327   2.163   7.016  2.3096  1.5603  2.2356
  173MOL0     H23874  11.471   2.245   6.971  1.1524 -1.0197 -1.8393
  174MOL0     O23875   8.362   0.426   2.242  0.4076  0.1410  0.4811
  174MOL0     C23876   8.244   0.415   2.272  0.5249 -0.0915 -0.1131
  174MOL0     O23877   8.190   0.465   2.387 -0.0277  0.0162  0.0896
  174MOL0     C23878   8.274   0.528   2.477  0.1990 -0.2249 -0.5841
  174MOL0     C23879   8.404   0.492   2.518  0.2883 -0.9132 -0.0909
  174MOL0     C23880   8.469   0.552   2.623 -0.4431 -0.7127 -0.1762
  174MOL0     C23881   8.405   0.665   2.690 -0.3936  0.9675 -0.0461
  174MOL0     O23882   8.474   0.721   2.794  0.1777  0.3305  1.3672
  174MOL0     C23883   8.413   0.804   2.891 -0.2360 -0.3028  0.1319
  174MOL0     C23884   8.527   0.836   2.994  0.3883 -0.7261 -0.3405
  174MOL0     C23885   8.547   0.712   3.070 -0.5467 -0.5057 -0.0169
  174MOL0     C23886   8.669   0.722   3.157 -0.0206  0.6434  0.3018
  174MOL0     C23887   8.669   0.819   3.272 -0.2638 -1.1427 -0.2505
  174MOL0     C23888   8.582   0.775   3.391 -0.3466 -0.6224 -1.2800
  174MOL0     C23889   8.603   0.854   3.523  0.5280  0.0578  1.1240
  174MOL0     C23890   8.724   0.802   3.599  0.9153 -0.5371  0.4870
  174MOL0     N23891   8.779   0.908   3.689  0.3700  0.7015 -0.3458
  174MOL0     C23892   8.822   1.031   3.642 -0.8793 -0.1155  1.1185
  174MOL0     C23893   8.844   1.103   3.759 -0.0012  0.6319 -0.6320
  174MOL0     C23894   8.869   1.255   3.771 -0.4568 -0.0353 -0.3705
  174MOL0     C23895   8.974   1.313   3.668  0.2628 -0.2783  1.3013
  174MOL0     C23896   8.920   1.370   3.531  0.9324  0.0905  0.4766
  174MOL0     C23897   8.990   1.330   3.400  0.6803  1.0126  0.2195
  174MOL0     O23898   9.010   1.185   3.405 -0.3426 -0.3877  0.1045
  174MOL0     C23899   9.041   1.121   3.285 -1.4511 -1.0338 -0.0062
  174MOL0     C23900   9.091   1.182   3.168  0.2356 -0.7708 -0.0420
  174MOL0     C23901   9.112   1.100   3.047 -0.8277 -0.6237 -0.2755
  174MOL0     C23902   9.166   1.174   2.926  0.3816 -0.1062  0.0242
  174MOL0     C23903   9.088   0.959   3.054 -0.3516  0.8069 -0.5788
  174MOL0     C23904   9.075   0.876   2.931 -0.5509 -0.7606 -0.5839
  174MOL0     O23905   9.124   0.748   2.941  0.1449  0.0972  0.0895
  174MOL0     C23906   9.105   0.673   2.827  0.0299 -0.1330  0.3422
  174MOL0     C23907   8.989   0.643   2.755 -0.8308 -0.2541  0.6959
  174MOL0     C23908   8.997   0.580   2.629  1.3093  0.7642  0.9482
  174MOL0     C23909   9.115   0.536   2.572  0.2556  0.5518  0.5939
  174MOL0     O23910   9.134   0.467   2.459  0.2300  0.4480 -0.4472
  174MOL0     C23911   9.115   0.542   2.341  0.1838 -0.0474 -1.2592
  174MOL0     C23912   9.183   0.485   2.231 -0.4855 -0.0324  0.1211
  174MOL0     C23913   9.155   0.567   2.113 -0.3300  0.5955  0.8236
  174MOL0     C23914   9.229   0.554   1.982 -0.3286  0.8504  0.6394
  174MOL0     C23915   9.383   0.550   1.999  0.3802 -0.3651  0.5848
  174MOL0     C23916   9.466   0.565   1.866  1.0795 -1.0096 -0.3754
  174MOL0     C23917   9.583   0.661   1.902  0.4386  0.6508  1.1210
  174MOL0     C23918   9.672   0.689   1.780 -0.1537  0.5303  0.8018
  174MOL0    Cl23919   9.837   0.616   1.803  0.0803 -0.3967  0.7133
  174MOL0     C23920   9.227   0.550   2.651 -0.3480  0.8675 -0.9564
  174MOL0     C23921   9.225   0.627   2.766  0.3401  0.5768 -0.2977
  174MOL0     O23922   9.037   0.932   2.832  0.2682  0.0628  0.5130
  174MOL0     C23923   9.059   0.899   3.177 -0.9731  0.2038  0.6385
  174MOL0     C23924   9.033   0.976   3.285  0.2403 -0.2304 -0.6560
  174MOL0     N23925   8.805   1.027   3.864 -0.3232  0.8028 -0.8482
  174MOL0     N23926   8.767   0.908   3.824  0.0263 -0.4588 -0.4801
  174MOL0     C23927   8.279   0.702   2.647  0.5530  0.0064 -0.1730
  174MOL0     C23928   8.213   0.640   2.540 -0.9726  0.5723  1.4203
  174MOL0     C23929   8.155   0.345   2.174  0.5099 -0.4670 -1.6697
  174MOL0     C23930   8.013   0.347   2.193 -0.7468  0.4146 -0.7068
  174MOL0     C23931   7.922   0.290   2.103 -0.2271  0.6819  0.1071
  174MOL0     C23932   7.967   0.220   1.996 -0.0713 -0.6333  0.3150
  174MOL0     O23933   7.878   0.170   1.909  0.1781 -0.1907  0.1903
  174MOL0     C23934   7.905   0.125   1.771  0.3536 -0.2538  0.2948
  174MOL0     C23935   7.796   0.181   1.681  0.6434 -0.2075  0.0013
  174MOL0     C23936   7.763   0.329   1.688  0.4046 -0.6688  0.0421
  174MOL0     C23937   7.650   0.371   1.587 -0.3597  0.4439  0.0052
  174MOL0     C23938   7.673   0.374   1.445 -0.8835  0.3769  0.0413
  174MOL0     C23939   7.706   0.371   1.325  1.2199 -0.5041 -1.1217
  174MOL0     C23940   8.104   0.205   1.984 -0.3309  0.3238  0.2869
  174MOL0     C23941   8.197   0.271   2.065  0.2840  0.2059  0.5776
  174MOL0     C23942   8.340   0.261   2.028 -0.5552 -0.8120  0.3097
  174MOL0     H23943   8.442   0.407   2.463  1.1676  0.4764 -1.7192
  174MOL0     H23944   8.569   0.513   2.642  1.3971  1.9829 -3.3345
  174MOL0     H23945   8.321   0.761   2.932 -0.0707 -2.5656 -1.6618
  174MOL0     H23946   8.384   0.901   2.850 -0.3731 -0.3271  0.1726
  174MOL0     H23947   8.612   0.872   2.936 -0.1784  1.4603  0.0840
  174MOL0     H23948   8.506   0.917   3.066  3.4039  1.3579 -1.6203
  174MOL0     H23949   8.462   0.695   3.136  0.0387 -3.5842  0.1052
  174MOL0     H23950   8.566   0.628   3.003 -2.2045  0.1375 -1.3518
  174MOL0     H23951   8.683   0.623   3.201 -3.5489 -0.9247 -1.6693
  174MOL0     H23952   8.760   0.740   3.100 -0.9724  0.1289 -1.4474
  174MOL0     H23953   8.651   0.922   3.239  0.9469 -0.8307  0.0157
  174MOL0     H23954   8.769   0.830   3.315  0.2350 -3.9777 -0.5110
  174MOL0     H23955   8.479   0.782   3.354 -0.6874 -0.0618 -0.2718
  174MOL0     H23956   8.594   0.667   3.407  0.1250 -0.7272 -2.2593
  174MOL0     H23957   8.513   0.837   3.583 -1.2449 -2.5555 -1.8998
  174MOL0     H23958   8.612   0.959   3.494 -1.0877 -1.0086 -4.5267
  174MOL0     H23959   8.711   0.707   3.651 -0.5961  0.5966  2.3022
  174MOL0     H23960   8.810   0.777   3.535 -0.7310 -1.3804 -1.5330
  174MOL0     H23961   8.829   1.078   3.544  1.4256  0.5400  1.5291
  174MOL0     H23962   8.894   1.290   3.872 -1.3273  0.4586 -0.3108
  174MOL0     H23963   8.774   1.302   3.743  1.3933  3.9238 -0.5825
  174MOL0     H23964   9.025   1.401   3.710 -0.7311  0.7222  0.4929
  174MOL0     H23965   9.058   1.245   3.652 -0.4513 -0.7606 -0.6510
  174MOL0     H23966   8.811   1.357   3.525  1.0391 -0.2351 -1.2007
  174MOL0     H23967   8.938   1.478   3.540  2.5048 -0.1995  1.0813
  174MOL0     H23968   8.937   1.368   3.312 -0.9004  1.1331  1.1899
  174MOL0     H23969   9.083   1.387   3.404  0.9639  0.5272  3.1382
  174MOL0     H23970   9.095   1.291   3.171 -1.2421 -0.7186  2.3882
  174MOL0     H23971   9.222   1.116   2.852  2.3466 -0.4466  1.6920
  174MOL0     H23972   9.230   1.253   2.966 -1.1108  1.2273 -0.1525
  174MOL0     H23973   9.087   1.225   2.870 -1.4822 -0.8595  1.8567
  174MOL0     H23974   8.886   0.670   2.779 -0.2203  1.4895  1.4852
  174MOL0     H23975   8.908   0.569   2.568  1.2826  0.1659  1.0856
  174MOL0     H23976   9.008   0.560   2.325  0.3746  4.0380  0.7638
  174MOL0     H23977   9.150   0.645   2.357 -1.5002  0.2390  1.1284
  174MOL0     H23978   9.293   0.490   2.236 -0.0449 -2.9314 -2.8870
  174MOL0     H23979   9.157   0.379   2.223 -4.8369  1.0170 -3.9084
  174MOL0     H23980   9.172   0.675   2.125  3.1011  0.2559  0.0292
  174MOL0     H23981   9.050   0.560   2.083 -0.2218  1.9532  0.0375
  174MOL0     H23982   9.201   0.633   1.911 -2.4358  1.8664  2.4833
  174MOL0     H23983   9.203   0.460   1.933  0.0462  1.3435 -0.5496
  174MOL0     H23984   9.420   0.631   2.063  2.9625 -0.0779 -1.0994
  174MOL0     H23985   9.423   0.455   2.035  0.7623 -0.3328  0.2619
  174MOL0     H23986   9.401   0.612   1.791 -0.1302  1.3300  1.9478
  174MOL0     H23987   9.508   0.468   1.839 -0.8785 -2.1209  0.3375
  174MOL0     H23988   9.647   0.616   1.978 -2.8067 -1.0831  3.0920
  174MOL0     H23989   9.545   0.757   1.939 -3.2769 -0.8085  1.5824
  174MOL0     H23990   9.696   0.795   1.777  2.1138  0.1014  1.5188
  174MOL0     H23991   9.630   0.647   1.688 -2.6127  0.2284  1.9750
  174MOL0     H23992   9.324   0.525   2.609  0.8371  1.8497  1.0432
  174MOL0     H23993   9.321   0.629   2.817  0.1901 -1.4220  0.1533
  174MOL0     H23994   9.058   0.791   3.189 -3.1016  0.0899 -0.1700
  174MOL0     H23995   8.995   0.939   3.380  1.9785  0.3459  0.3280
  174MOL0     H23996   8.228   0.777   2.707 -3.2288 -3.7296  1.7888
  174MOL0     H23997   8.113   0.665   2.506  0.5145  1.9993 -2.5269
  174MOL0     H23998   7.978   0.404   2.279  0.2303  2.4575 -1.5808
  174MOL0     H23999   7.817   0.313   2.114 -0.5606  1.0547 -3.0125
  174MOL0     H24000   8.004   0.161   1.745  1.4337 -2.9086  0.3739
  174MOL0     H24001   7.896   0.016   1.764 -1.4373 -0.0464 -1.7209
  174MOL0     H24002   7.702   0.139   1.717 -0.4574  2.4655  0.4876
  174MOL0     H24003   7.809   0.152   1.577  1.0846  0.6747 -0.2023
  174MOL0     H24004   7.718   0.335   1.787 -0.5565 -1.0466 -0.3613
  174MOL0     H24005   7.862   0.374   1.680  0.6487 -0.9239  1.4937
  174MOL0     H24006   7.614   0.473   1.597  0.8886  1.0646 -1.4266
  174MOL0     H24007   7.559   0.310   1.597  0.8136 -1.9204 -2.3759
  174MOL0     H24008   7.709   0.378   1.219 -0.5727 -1.0636 -1.2458
  174MOL0     H24009   8.137   0.148   1.897  0.4557 -4.2064  3.1793
  174MOL0     H24010   8.376   0.363   2.010 -4.0662  1.1498  2.9762
  174MOL0     H24011   8.396   0.214   2.109  2.3084  0.6345 -0.6733
  174MOL0     H24012   8.354   0.195   1.942 -0.9033 -1.7168  0.9327
  175MOL0     O24013   7.554   0.188   2.847 -0.1964  0.3185  0.4139
  175MOL0     C24014   7.555   0.061   2.837 -0.4870 -0.5016  0.2690
  175MOL0     O24015   7.661  -0.022   2.869 -0.0268  0.9353 -0.1056
  175MOL0     C24016   7.772   0.022   2.942 -0.6271 -0.0470  1.0451
  175MOL0     C24017   7.786   0.137   3.015  0.5696  0.0993 -0.2016
  175MOL0     C24018   7.895   0.168   3.098  0.9043 -0.2479  0.3923
  175MOL0     C24019   7.993   0.068   3.120 -1.0407 -0.2628  0.0789
  175MOL0     O24020   8.096   0.078   3.210 -0.4246 -0.4871 -0.0204
  175MOL0     C24021   8.087   0.198   3.287  0.4089 -0.6716  0.5290
  175MOL0     C24022   8.217   0.222   3.368 -0.2615 -0.2269 -0.1675
  175MOL0     C24023   8.237   0.117   3.481  0.4301  0.2697 -0.6504
  175MOL0     C24024   8.355   0.138   3.572  0.0929 -0.5329  0.2133
  175MOL0     C24025   8.349   0.273   3.643 -0.4950 -0.2951  0.2112
  175MOL0     C24026   8.443   0.286   3.764  0.4133  0.3615 -0.0913
  175MOL0     C24027   8.453   0.433   3.817  0.8797 -0.0101 -0.1660
  175MOL0     C24028   8.331   0.471   3.908  0.5979 -0.3351 -0.3491
  175MOL0     N24029   8.334   0.599   3.974  0.0627 -0.7640  0.1495
  175MOL0     C24030   8.426   0.707   3.950  0.5172  0.7010  0.4696
  175MOL0     C24031   8.404   0.798   4.052 -0.3681  0.3247 -0.3920
  175MOL0     C24032   8.459   0.941   4.071  1.0975  0.4313  0.0497
  175MOL0     C24033   8.379   1.044   4.004 -0.6944  0.2572  0.2507
  175MOL0     C24034   8.392   1.054   3.851  0.5841 -1.0750 -0.4864
  175MOL0     C24035   8.283   1.134   3.790  1.2009  0.4855  0.7847
  175MOL0     O24036   8.296   1.144   3.649 -0.5777 -0.2727  0.2524
  175MOL0     C24037   8.252   1.042   3.570 -0.2795  0.2025  0.4122
  175MOL0     C24038   8.213   0.917   3.629 -0.3447  0.2621 -0.2765
  175MOL0     C24039   8.177   0.803   3.554 -1.0718  0.1128 -1.0866
  175MOL0     C24040   8.156   0.680   3.645  0.5529 -0.4618  0.4647
  175MOL0     C24041   8.177   0.815   3.416 -0.6862  0.0868  0.1187
  175MOL0     C24042   8.135   0.703   3.334 -0.1368 -0.1100  0.4467
  175MOL0     O24043   8.148   0.732   3.205 -0.5975  0.1841 -0.0844
  175MOL0     C24044   8.115   0.636   3.113 -0.3208  0.3027 -0.3969
  175MOL0     C24045   8.199   0.527   3.102  0.4841  0.9082  0.1264
  175MOL0     C24046   8.180   0.450   2.988 -0.0076  0.0653  0.7212
  175MOL0     C24047   8.092   0.480   2.875 -0.1852  0.2106 -0.3294
  175MOL0     O24048   8.098   0.400   2.761 -0.4157 -0.3115  0.5563
  175MOL0     C24049   8.002   0.298   2.757  1.1115  0.0078  0.5544
  175MOL0     C24050   8.036   0.214   2.629 -0.0227 -0.5582 -0.3190
  175MOL0     C24051   7.942   0.098   2.592  0.8336 -0.4815  1.2248
  175MOL0     C24052   7.810   0.143   2.518  0.0624 -0.1425  0.2911
  175MOL0     C24053   7.749   0.045   2.410  0.1713 -0.0007  1.2189
  175MOL0     C24054   7.722  -0.096   2.464  0.5421  0.9904  1.2100
  175MOL0     C24055   7.698  -0.199   2.353 -0.3173  0.5263  0.3804
  175MOL0     C24056   7.584  -0.166   2.260 -0.1302 -0.2420 -0.7981
  175MOL0    Cl24057   7.641  -0.063   2.122 -0.5730 -0.0377 -0.4989
  175MOL0     C24058   8.014   0.597   2.890 -0.5152 -0.3125 -0.5440
  175MOL0     C24059   8.029   0.674   3.003  0.3901 -0.1883 -0.7999
  175MOL0     O24060   8.105   0.594   3.372  0.3032  0.6486  0.1633
  175MOL0     C24061   8.215   0.936   3.356 -0.2736 -0.8572  0.0602
  175MOL0     C24062   8.259   1.044   3.433  0.1852 -0.0786 -0.1582
  175MOL0     N24063   8.297   0.743   4.130  0.3176 -0.4181 -0.2308
  175MOL0     N24064   8.255   0.635   4.078  0.0272 -0.6814 -0.0554
  175MOL0     C24065   7.978  -0.053   3.047 -0.1023 -1.1996 -0.7522
  175MOL0     C24066   7.867  -0.073   2.965 -0.5019 -1.1844  1.0860
  175MOL0     C24067   7.433  -0.013   2.778 -0.8405 -0.3579  0.7621
  175MOL0     C24068   7.402   0.032   2.649 -0.2837  0.8688  0.1571
  175MOL0     C24069   7.284  -0.020   2.591 -0.0921 -0.3373  0.2564
  175MOL0     C24070   7.206  -0.111   2.656  0.1432  0.7972 -0.8349
  175MOL0     O24071   7.088  -0.173   2.605 -0.2086 -0.4202  0.3940
  175MOL0     C24072   7.029  -0.103   2.491 -0.4266  0.9780  0.3947
  175MOL0     C24073   7.067  -0.178   2.359 -0.1298  0.1105 -0.5945
  175MOL0     C24074   7.068  -0.101   2.236  0.5534  0.0793  0.6638
  175MOL0     C24075   6.929  -0.061   2.194  0.1379  0.2929 -0.0524
  175MOL0     C24076   6.899   0.075   2.247 -0.3187  0.6267  0.5041
  175MOL0     C24077   6.863   0.180   2.293  1.0733 -0.2155 -0.5835
  175MOL0     C24078   7.242  -0.154   2.786  0.9700 -0.1554 -0.8401
  175MOL0     C24079   7.354  -0.104   2.849  1.0464 -0.0232  0.0163
  175MOL0     C24080   7.389  -0.138   2.998 -0.7993  0.5798 -0.2573
  175MOL0     H24081   7.698   0.200   3.022 -0.2269 -1.1134  1.5626
  175MOL0     H24082   7.890   0.267   3.141  1.7280  0.9150 -2.0505
  175MOL0     H24083   8.006   0.202   3.361 -3.0278  0.5277 -2.9158
  175MOL0     H24084   8.077   0.288   3.225 -0.7694  2.1569  4.4146
  175MOL0     H24085   8.313   0.219   3.316  1.2499  0.1441  2.4419
  175MOL0     H24086   8.196   0.317   3.417  1.8789 -0.0026  0.3727
  175MOL0     H24087   8.142   0.106   3.534  0.3127 -1.6254 -1.1682
  175MOL0     H24088   8.233   0.021   3.429 -1.2586 -0.6019  0.9628
  175MOL0     H24089   8.370   0.055   3.642  0.8411  0.1286  0.8711
  175MOL0     H24090   8.447   0.155   3.515 -1.3875  0.4765 -2.0307
  175MOL0     H24091   8.249   0.308   3.670 -0.4066  0.0156  0.1463
  175MOL0     H24092   8.358   0.342   3.559 -7.2015  2.3560  1.0759
  175MOL0     H24093   8.413   0.224   3.850  1.9374 -0.9262 -0.4457
  175MOL0     H24094   8.544   0.259   3.734  0.7985 -0.8357  2.0650
  175MOL0     H24095   8.473   0.498   3.731 -0.1811 -1.4318 -1.5369
  175MOL0     H24096   8.536   0.443   3.888  1.3852 -1.3347 -0.5474
  175MOL0     H24097   8.240   0.475   3.847  0.5675  0.3017 -0.2762
  175MOL0     H24098   8.305   0.402   3.989 -1.6423  0.5945 -0.1821
  175MOL0     H24099   8.502   0.702   3.873  2.6767 -5.3259  2.4009
  175MOL0     H24100   8.556   0.947   4.020 -0.0887  1.0249 -2.3091
  175MOL0     H24101   8.490   0.963   4.173 -1.9767  2.1057  0.7489
  175MOL0     H24102   8.278   1.048   4.046 -0.6362 -0.7036  0.5020
  175MOL0     H24103   8.426   1.138   4.034  0.1896  1.0074 -3.0587
  175MOL0     H24104   8.483   1.102   3.814 -1.6940  3.1657 -1.1564
  175MOL0     H24105   8.389   0.956   3.802 -0.0072 -0.3948 -1.8497
  175MOL0     H24106   8.188   1.089   3.819  0.3812 -0.8227 -3.2778
  175MOL0     H24107   8.297   1.232   3.837  1.4923  1.7266 -1.7280
  175MOL0     H24108   8.189   0.905   3.734  2.0288  0.4517  0.3348
  175MOL0     H24109   8.055   0.676   3.687 -0.7895  0.2066 -2.4512
  175MOL0     H24110   8.225   0.677   3.730  3.1625  0.3485 -1.5137
  175MOL0     H24111   8.183   0.586   3.595  0.4426  0.0923 -0.6657
  175MOL0     H24112   8.269   0.502   3.181 -0.6474  2.2038  1.5875
  175MOL0     H24113   8.236   0.358   2.978  0.6386  0.6105 -1.1647
  175MOL0     H24114   8.001   0.230   2.842 -0.1620  0.3415  0.8360
  175MOL0     H24115   7.903   0.342   2.744  1.5009  0.7570  0.0513
  175MOL0     H24116   8.049   0.277   2.541 -0.8124  0.9346  0.5885
  175MOL0     H24117   8.138   0.176   2.644  0.7173  1.1313 -0.8049
  175MOL0     H24118   7.926   0.026   2.673 -1.6798 -1.3187  0.0604
  175MOL0     H24119   8.001   0.047   2.515 -0.5728  0.8294 -0.8284
  175MOL0     H24120   7.832   0.231   2.456 -2.6074 -1.4526 -2.8278
  175MOL0     H24121   7.732   0.157   2.593  1.6271 -2.4504  2.4997
  175MOL0     H24122   7.657   0.095   2.377 -0.1281 -0.2509  1.6701
  175MOL0     H24123   7.819   0.048   2.326 -0.0407  1.9369  1.0674
  175MOL0     H24124   7.637  -0.093   2.534 -0.7007 -1.2547 -0.0662
  175MOL0     H24125   7.810  -0.134   2.516 -1.2207 -3.0424  1.6124
  175MOL0     H24126   7.671  -0.296   2.396 -0.7250  0.0153 -1.0044
  175MOL0     H24127   7.795  -0.200   2.302  0.6194  1.9993  1.9822
  175MOL0     H24128   7.511  -0.104   2.312 -0.4773 -2.6115  1.7555
  175MOL0     H24129   7.527  -0.251   2.220  0.5349 -1.0939  0.0219
  175MOL0     H24130   7.941   0.620   2.813 -3.6186  1.0868  2.6009
  175MOL0     H24131   7.977   0.769   2.997  0.3904 -0.2810 -3.7338
  175MOL0     H24132   8.230   0.950   3.250 -0.3907  3.8156  0.4584
  175MOL0     H24133   8.295   1.135   3.385 -0.5780  0.0062 -0.5984
  175MOL0     H24134   8.066  -0.116   3.056  0.9840  0.4995  1.7155
  175MOL0     H24135   7.853  -0.172   2.923  0.7832 -0.7129 -0.5575
  175MOL0     H24136   7.468   0.099   2.596  2.4424  0.2018  2.4587
  175MOL0     H24137   7.266  -0.006   2.485 -3.1413 -2.4855  0.3531
  175MOL0     H24138   6.922  -0.105   2.514 -0.4736  1.7850  0.2959
  175MOL0     H24139   7.060   0.002   2.489 -0.0698  0.9082  1.5270
  175MOL0     H24140   7.002  -0.265   2.350  0.9001 -0.4801 -3.3898
  175MOL0     H24141   7.171  -0.211   2.372  0.5282  2.9057  3.0326
  175MOL0     H24142   7.139  -0.018   2.249 -1.8531  1.9967  2.6787
  175MOL0     H24143   7.109  -0.166   2.158  0.9551  0.3334  0.6583
  175MOL0     H24144   6.853  -0.135   2.220 -1.3315  2.5975  2.7042
  175MOL0     H24145   6.913  -0.055   2.086  3.1881  1.3991 -0.5371
  175MOL0     H24146   6.840   0.280   2.323 -1.2115 -1.1213  0.9575
  175MOL0     H24147   7.173  -0.216   2.842 -2.0624  3.5290 -0.0402
  175MOL0     H24148   7.412  -0.042   3.044  1.0825 -0.5842  1.4033
  175MOL0     H24149   7.308  -0.189   3.052  0.2948 -3.5767 -2.1568
  175MOL0     H24150   7.485  -0.188   3.011 -0.6569  1.3707  2.3651
  176MOL0     O24151   9.333   6.951   0.564 -0.0268 -0.4396 -0.8573
  176MOL0     C24152   9.240   6.926   0.482 -0.6374 -0.5609  0.9566
  176MOL0     O24153   9.242   6.825   0.389  0.3353  0.0019 -0.4682
  176MOL0     C24154   9.353   6.739   0.401  0.8598 -0.1707 -0.2466
  176MOL0     C24155   9.387   6.678   0.522 -0.3638 -0.4457 -0.2357
  176MOL0     C24156   9.483   6.578   0.525 -0.5076 -0.6892 -0.0037
  176MOL0     C24157   9.543   6.535   0.406 -0.1654  0.6450 -0.0118
  176MOL0     O24158   9.620   6.424   0.413 -0.0002 -0.9017  0.3603
  176MOL0     C24159   9.669   6.368   0.293 -0.0721  0.1681 -0.5061
  176MOL0     C24160   9.552   6.294   0.218 -0.6742 -0.0467  0.2701
  176MOL0     C24161   9.511   6.151   0.253 -0.0115  0.5049  0.0771
  176MOL0     C24162   9.634   6.062   0.263 -0.5121  0.3481 -0.1189
  176MOL0     C24163   9.602   5.913   0.268  0.2970  1.0632 -0.2992
  176MOL0     C24164   9.544   5.857   0.134  0.8391  0.6631  0.9315
  176MOL0     C24165   9.537   5.705   0.125  0.2652 -0.0306  0.0338
  176MOL0     C24166   9.439   5.645   0.240 -1.0644 -0.0797  0.3077
  176MOL0     N24167   9.311   5.693   0.207 -0.3674  0.0718  0.5328
  176MOL0     C24168   9.217   5.626   0.129  0.4609 -0.2914 -0.3840
  176MOL0     C24169   9.101   5.690   0.152  0.1358  0.4851  0.0106
  176MOL0     C24170   8.952   5.659   0.118 -0.5697  0.3662  0.3624
  176MOL0     C24171   8.856   5.770   0.141  1.1624  0.0803  0.9092
  176MOL0     C24172   8.863   5.881   0.041  0.1691  0.3573 -0.2966
  176MOL0     C24173   8.761   5.990   0.074  0.4190  0.1738 -0.5986
  176MOL0     O24174   8.639   5.925   0.084  0.0042  0.1263  0.0092
  176MOL0     C24175   8.524   5.987   0.113 -0.1388 -0.5741 -0.1042
  176MOL0     C24176   8.506   6.118   0.065 -0.9024 -0.7109 -0.5078
  176MOL0     C24177   8.390   6.196   0.091 -0.0269  0.8470 -0.4124
  176MOL0     C24178   8.390   6.318   0.014  0.8545 -0.0683  0.4464
  176MOL0     C24179   8.288   6.138   0.164 -0.1377  0.3422  0.1354
  176MOL0     C24180   8.161   6.206   0.187  0.3602  0.4386 -0.6225
  176MOL0     O24181   8.108   6.205   0.316  0.1054  0.6575  0.0711
  176MOL0     C24182   7.973   6.203   0.331  0.1609 -0.2841  0.1540
  176MOL0     C24183   7.904   6.317   0.373  1.2370 -0.1393  0.1226
  176MOL0     C24184   7.767   6.304   0.402 -0.0432  0.2965 -0.7017
  176MOL0     C24185   7.705   6.169   0.406 -0.2524  0.0741  0.0638
  176MOL0     O24186   7.587   6.139   0.464  0.1470  0.5563 -0.3565
  176MOL0     C24187   7.508   6.244   0.521 -0.1132  1.4199 -0.3692
  176MOL0     C24188   7.386   6.164   0.575  0.3842 -0.2681 -0.2354
  176MOL0     C24189   7.279   6.125   0.478 -0.1003  0.0835 -0.4589
  176MOL0     C24190   7.314   6.011   0.380  0.4945 -0.4931 -0.0190
  176MOL0     C24191   7.363   5.879   0.448  0.2206  1.1302  0.0305
  176MOL0     C24192   7.420   5.799   0.338 -0.1858 -0.3170 -0.9558
  176MOL0     C24193   7.495   5.674   0.379  0.2986 -0.4934  0.4793
  176MOL0     C24194   7.536   5.598   0.251 -0.4161  1.2801 -0.7835
  176MOL0    Cl24195   7.676   5.671   0.169 -0.2023  0.5823  0.1902
  176MOL0     C24196   7.777   6.056   0.365 -0.6777 -0.2636 -0.8518
  176MOL0     C24197   7.915   6.071   0.324 -0.2671  1.6874  0.3923
  176MOL0     O24198   8.099   6.250   0.090  0.1300 -0.1638  0.5422
  176MOL0     C24199   8.314   6.014   0.230 -0.3209  0.3546  0.1814
  176MOL0     C24200   8.433   5.949   0.209 -0.1340  0.9409 -0.0547
  176MOL0     N24201   9.130   5.803   0.233  0.0002  0.1033  0.3204
  176MOL0     N24202   9.255   5.798   0.264  0.0884  0.1145  0.6751
  176MOL0     C24203   9.507   6.596   0.288 -0.7379  0.1128 -0.7954
  176MOL0     C24204   9.408   6.701   0.279 -0.9172  0.4464 -0.6136
  176MOL0     C24205   9.122   7.015   0.485  1.1137 -0.1640  0.7231
  176MOL0     C24206   9.003   6.949   0.456 -0.1079 -0.9743 -0.6053
  176MOL0     C24207   8.879   7.017   0.468  0.4625  0.8563  0.4624
  176MOL0     C24208   8.872   7.155   0.499 -0.6965  0.5330 -0.7734
  176MOL0     O24209   8.755   7.224   0.498  0.3002  0.3174 -0.4560
  176MOL0     C24210   8.735   7.327   0.402  0.3835  0.1068  0.0867
  176MOL0     C24211   8.732   7.473   0.466  0.7671  0.1563  0.2291
  176MOL0     C24212   8.645   7.484   0.595  0.4366 -0.8206  1.3604
  176MOL0     C24213   8.709   7.443   0.728  0.2902  0.2378 -0.3893
  176MOL0     C24214   8.630   7.509   0.840 -0.1282 -0.2269 -0.2470
  176MOL0     C24215   8.555   7.557   0.922  0.3086 -0.0983 -0.6476
  176MOL0     C24216   9.000   7.225   0.529  0.4716  0.1291  1.1396
  176MOL0     C24217   9.117   7.161   0.511 -0.0771 -0.9351  0.0697
  176MOL0     C24218   9.238   7.251   0.537  1.0148  0.8392  0.6866
  176MOL0     H24219   9.341   6.704   0.617 -1.5282  1.8091 -1.3308
  176MOL0     H24220   9.508   6.527   0.617 -2.0340 -0.1847  0.7201
  176MOL0     H24221   9.740   6.290   0.325  2.5656  2.4558 -0.4297
  176MOL0     H24222   9.718   6.444   0.232  1.5232 -0.0589  0.4125
  176MOL0     H24223   9.460   6.349   0.198  0.4002  1.8930  0.4145
  176MOL0     H24224   9.589   6.277   0.117 -1.1745  0.6730 -0.0419
  176MOL0     H24225   9.454   6.139   0.347 -2.7345 -0.4977 -1.5686
  176MOL0     H24226   9.440   6.138   0.170 -0.5952  0.4231  0.5753
  176MOL0     H24227   9.702   6.078   0.179  1.8531 -1.0967  1.4317
  176MOL0     H24228   9.675   6.087   0.361  1.0759 -0.1649 -0.6334
  176MOL0     H24229   9.521   5.891   0.337  1.7633 -1.1935  0.8205
  176MOL0     H24230   9.693   5.860   0.297 -0.6574 -0.8180 -0.6020
  176MOL0     H24231   9.450   5.911   0.117  1.6384  1.4429 -1.5013
  176MOL0     H24232   9.609   5.892   0.053  0.1358  1.3693  0.6551
  176MOL0     H24233   9.632   5.658   0.150  0.4620  0.5902  0.4740
  176MOL0     H24234   9.517   5.668   0.024 -0.6402  2.5313 -0.8087
  176MOL0     H24235   9.444   5.536   0.241 -0.6116 -0.1799 -2.7667
  176MOL0     H24236   9.468   5.677   0.340  2.0360  0.6455 -0.7068
  176MOL0     H24237   9.229   5.535   0.071 -0.4146  0.8094 -2.4251
  176MOL0     H24238   8.919   5.581   0.187  0.0957 -0.0832  0.1883
  176MOL0     H24239   8.961   5.628   0.013  1.9902 -0.1541  0.6516
  176MOL0     H24240   8.759   5.723   0.125  0.8485 -0.1532  3.1733
  176MOL0     H24241   8.883   5.805   0.241 -1.7045 -0.4571  1.9477
  176MOL0     H24242   8.963   5.924   0.044  0.2305  0.1770  0.3042
  176MOL0     H24243   8.847   5.836  -0.058  1.9209 -3.6312  1.0199
  176MOL0     H24244   8.791   6.047   0.163 -1.2676  1.6190 -0.8984
  176MOL0     H24245   8.769   6.055  -0.014 -2.0408  1.7701  0.2422
  176MOL0     H24246   8.575   6.156  -0.010 -1.2180  0.9246 -0.0169
  176MOL0     H24247   8.493   6.347  -0.008  2.1077 -2.5971  2.4175
  176MOL0     H24248   8.343   6.389   0.083 -1.8016 -2.2179  1.0082
  176MOL0     H24249   8.332   6.304  -0.078  3.3936 -4.0818 -0.7946
  176MOL0     H24250   7.974   6.400   0.380 -1.0510  1.8409  0.8063
  176MOL0     H24251   7.716   6.388   0.448 -0.6062 -1.4870  2.1413
  176MOL0     H24252   7.551   6.290   0.610 -0.1155  0.2324  0.2621
  176MOL0     H24253   7.472   6.318   0.449 -2.9711  2.5528  2.0054
  176MOL0     H24254   7.426   6.078   0.630 -2.2951 -0.9238  0.8335
  176MOL0     H24255   7.342   6.221   0.658  1.1666 -0.8372  0.5918
  176MOL0     H24256   7.244   6.207   0.415 -2.1637 -0.5278 -0.1849
  176MOL0     H24257   7.190   6.094   0.534  0.2216 -1.5176 -0.7741
  176MOL0     H24258   7.379   6.052   0.302  1.3748  0.0349  0.9677
  176MOL0     H24259   7.218   5.989   0.332  0.9590 -0.8216 -0.8257
  176MOL0     H24260   7.447   5.904   0.514  2.1244 -0.2730 -1.7292
  176MOL0     H24261   7.291   5.826   0.511 -1.1856 -0.7026 -2.9072
  176MOL0     H24262   7.489   5.866   0.286  1.7165  0.1841  1.9702
  176MOL0     H24263   7.331   5.784   0.276 -0.7515  0.8048 -0.4550
  176MOL0     H24264   7.426   5.613   0.437 -1.0369  1.6093  1.2106
  176MOL0     H24265   7.584   5.705   0.436  0.7424  0.2644 -0.5935
  176MOL0     H24266   7.440   5.579   0.202 -0.7548 -1.7623  0.8131
  176MOL0     H24267   7.551   5.492   0.274 -1.4068  0.9305 -1.6550
  176MOL0     H24268   7.733   5.957   0.367  1.1173 -1.1310 -1.8422
  176MOL0     H24269   7.970   5.984   0.288 -2.6709 -0.8957  2.4750
  176MOL0     H24270   8.238   5.977   0.298  0.3922 -0.8421  0.3565
  176MOL0     H24271   8.441   5.865   0.277  0.5197  0.1555 -1.0668
  176MOL0     H24272   9.561   6.576   0.196  3.1185 -0.9371  1.4712
  176MOL0     H24273   9.378   6.747   0.185  0.5112  3.2171  0.1793
  176MOL0     H24274   9.000   6.845   0.425 -2.6307 -0.7389 -1.4235
  176MOL0     H24275   8.783   6.969   0.452 -0.2075  1.4903  2.2924
  176MOL0     H24276   8.806   7.310   0.321 -0.1827  3.3321 -1.2467
  176MOL0     H24277   8.637   7.315   0.354  1.4999  1.5492 -2.7992
  176MOL0     H24278   8.686   7.538   0.392 -0.2402 -1.4797 -0.6340
  176MOL0     H24279   8.829   7.520   0.486 -0.0635  1.8233  0.4850
  176MOL0     H24280   8.628   7.592   0.606  0.4224 -0.4670 -1.4485
  176MOL0     H24281   8.547   7.436   0.589 -0.4106  0.8984  0.4323
  176MOL0     H24282   8.812   7.477   0.744  0.7644 -1.8097  1.4084
  176MOL0     H24283   8.719   7.335   0.738 -2.1757 -0.4437 -3.7271
  176MOL0     H24284   8.501   7.606   1.000  2.1502  0.0075  0.6264
  176MOL0     H24285   8.997   7.330   0.557  0.9786  0.8904 -1.4225
  176MOL0     H24286   9.332   7.212   0.497  0.7094 -0.3247  1.0449
  176MOL0     H24287   9.229   7.342   0.477  2.0388 -0.9304 -2.3540
  176MOL0     H24288   9.270   7.254   0.642 -0.0917 -0.8979  1.1217
  177MOL0     O24289   4.514   2.903   1.592 -0.5799 -0.4162  0.4153
  177MOL0     C24290   4.459   2.815   1.662 -1.0498 -0.5119  0.1645
  177MOL0     O24291   4.530   2.734   1.753  0.6446 -0.5431  0.3610
  177MOL0     C24292   4.661   2.773   1.768  0.1821 -0.7610  0.6930
  177MOL0     C24293   4.695   2.870   1.857 -0.3697  0.7969 -0.1500
  177MOL0     C24294   4.833   2.903   1.866 -0.5450 -0.0878 -0.4682
  177MOL0     C24295   4.929   2.841   1.784  0.5634  1.0140  0.2904
  177MOL0     O24296   5.063   2.864   1.785  0.2037 -1.5067 -0.5035
  177MOL0     C24297   5.130   2.807   1.897 -0.3299 -0.2629  0.0190
  177MOL0     C24298   5.274   2.861   1.892  0.2485 -0.9037  0.1119
  177MOL0     C24299   5.374   2.791   1.984  0.3608  0.7863 -0.1109
  177MOL0     C24300   5.501   2.873   2.019 -0.1692  0.1261 -1.3311
  177MOL0     C24301   5.622   2.787   2.079 -0.1015  0.9922  0.4726
  177MOL0     C24302   5.599   2.725   2.221 -0.4030  0.3889 -0.1073
  177MOL0     C24303   5.708   2.633   2.275 -0.1991  0.3989 -0.5208
  177MOL0     C24304   5.732   2.514   2.184  0.3944 -0.5991 -0.0818
  177MOL0     N24305   5.863   2.458   2.220 -0.1963 -0.1423  0.1920
  177MOL0     C24306   5.897   2.410   2.347  0.2635  0.0891 -1.1027
  177MOL0     C24307   6.029   2.379   2.343 -0.9137  0.4856  0.5321
  177MOL0     C24308   6.122   2.321   2.451  0.3936  0.0481 -0.0125
  177MOL0     C24309   6.111   2.387   2.585  0.4916  0.4191  0.2442
  177MOL0     C24310   6.185   2.289   2.687  1.1626  0.5851  0.1876
  177MOL0     C24311   6.229   2.369   2.813 -0.2969 -0.0516  0.4474
  177MOL0     O24312   6.286   2.280   2.906  0.0166 -0.2425 -0.1635
  177MOL0     C24313   6.339   2.336   3.020 -0.2148 -0.3642  0.8195
  177MOL0     C24314   6.316   2.278   3.148 -0.3559  0.1153  0.6761
  177MOL0     C24315   6.386   2.337   3.253  0.4907 -0.2634  0.5467
  177MOL0     C24316   6.381   2.274   3.390  0.2552  0.0297  0.9880
  177MOL0     C24317   6.458   2.457   3.231 -0.1552 -0.3197 -0.3344
  177MOL0     C24318   6.502   2.551   3.337  0.4604 -0.1849 -0.0975
  177MOL0     O24319   6.454   2.522   3.465 -0.2696 -0.2132  0.4873
  177MOL0     C24320   6.533   2.584   3.564  0.0108  1.3959  0.3544
  177MOL0     C24321   6.585   2.492   3.661  0.3437 -0.5654  0.4413
  177MOL0     C24322   6.654   2.547   3.772  0.3381 -0.5887  0.4126
  177MOL0     C24323   6.650   2.684   3.804 -0.5676 -0.2943  1.1246
  177MOL0     O24324   6.716   2.736   3.910 -0.8488  0.2960 -0.2572
  177MOL0     C24325   6.657   2.722   4.044  0.5826  0.0160 -0.0231
  177MOL0     C24326   6.495   2.721   4.045 -0.1122  1.3056 -0.2548
  177MOL0     C24327   6.438   2.726   4.188  0.6948  0.2115 -0.6854
  177MOL0     C24328   6.298   2.788   4.183  0.0320  0.3894 -0.2134
  177MOL0     C24329   6.294   2.935   4.145 -0.0190 -0.5168 -0.1726
  177MOL0     C24330   6.149   2.988   4.178  0.0421  0.1505  0.1647
  177MOL0     C24331   6.125   3.118   4.090 -0.2080  0.0540 -0.7647
  177MOL0     C24332   5.984   3.188   4.106  1.0310  0.0945  1.5921
  177MOL0    Cl24333   5.862   3.066   4.134  0.0204  0.1839  0.0018
  177MOL0     C24334   6.593   2.773   3.706 -0.5533  0.1743  0.3327
  177MOL0     C24335   6.543   2.722   3.585  0.3744  0.8184 -0.2499
  177MOL0     O24336   6.561   2.652   3.306 -0.3546 -0.6017 -0.7332
  177MOL0     C24337   6.485   2.497   3.103 -1.2453 -0.3263  0.4848
  177MOL0     C24338   6.435   2.436   2.997  0.9078 -1.2582  0.8162
  177MOL0     N24339   6.068   2.410   2.215 -0.1604  0.3921  0.1469
  177MOL0     N24340   5.972   2.458   2.134  0.1407 -0.3434 -0.2857
  177MOL0     C24341   4.891   2.744   1.698  0.3915  1.2005  0.2012
  177MOL0     C24342   4.760   2.704   1.689  0.4197 -0.4044  0.1041
  177MOL0     C24343   4.316   2.793   1.661  1.4708  0.7842 -0.2890
  177MOL0     C24344   4.258   2.665   1.705 -0.8510 -0.4897 -0.9487
  177MOL0     C24345   4.123   2.650   1.710 -0.0975  0.2858 -0.0731
  177MOL0     C24346   4.030   2.735   1.666 -0.2841 -1.1044  0.0620
  177MOL0     O24347   3.890   2.716   1.676 -0.7562 -0.4032 -0.2162
  177MOL0     C24348   3.832   2.596   1.737  0.2112 -0.4807  0.5444
  177MOL0     C24349   3.681   2.596   1.715  1.2043  0.1507  0.8189
  177MOL0     C24350   3.627   2.657   1.575 -0.4121  0.5251 -1.1244
  177MOL0     C24351   3.697   2.589   1.459 -0.0182  0.1823 -0.2741
  177MOL0     C24352   3.700   2.435   1.459 -0.8887 -0.5223 -0.3782
  177MOL0     C24353   3.709   2.318   1.444 -0.0735 -0.0526  0.9266
  177MOL0     C24354   4.084   2.859   1.630 -1.1040  0.1221 -0.1550
  177MOL0     C24355   4.227   2.892   1.622  0.8817 -0.2772 -0.2722
  177MOL0     C24356   4.255   3.029   1.585 -0.3724  0.0670 -0.0055
  177MOL0     H24357   4.623   2.913   1.926 -1.1977 -0.0026 -0.4887
  177MOL0     H24358   4.867   2.978   1.937  1.2357 -2.1520  0.9534
  177MOL0     H24359   5.126   2.698   1.903  2.0078 -0.3585  0.9857
  177MOL0     H24360   5.103   2.839   1.999 -0.4537 -1.7775  0.4882
  177MOL0     H24361   5.305   2.849   1.788 -1.1907  0.0253 -0.4548
  177MOL0     H24362   5.282   2.963   1.929  2.3853 -1.2831  0.8497
  177MOL0     H24363   5.322   2.765   2.077  0.6951 -0.0615 -0.1462
  177MOL0     H24364   5.408   2.697   1.939 -2.8864 -0.4338 -0.3420
  177MOL0     H24365   5.536   2.931   1.933 -0.1441  2.0422 -0.1063
  177MOL0     H24366   5.471   2.959   2.080  1.8899  0.9386 -1.4033
  177MOL0     H24367   5.709   2.852   2.088 -0.8090  1.6874  3.3538
  177MOL0     H24368   5.656   2.718   2.001 -1.7465 -0.9442  1.3586
  177MOL0     H24369   5.571   2.798   2.297  0.4453 -1.4652  2.1186
  177MOL0     H24370   5.506   2.669   2.210 -1.0841  1.4787 -0.0415
  177MOL0     H24371   5.676   2.607   2.377  1.4466 -0.0982 -0.0941
  177MOL0     H24372   5.800   2.692   2.283  1.4240 -1.3633 -4.0274
  177MOL0     H24373   5.657   2.436   2.201 -0.1691  0.4582  2.7487
  177MOL0     H24374   5.722   2.540   2.078  0.7804 -1.3434 -0.3069
  177MOL0     H24375   5.837   2.393   2.436  5.1297  3.0568  3.3088
  177MOL0     H24376   6.225   2.336   2.419  0.2907  0.4121 -0.1869
  177MOL0     H24377   6.107   2.213   2.448 -1.5386  0.2944 -1.5757
  177MOL0     H24378   6.151   2.489   2.585 -0.1351  0.6777  1.3736
  177MOL0     H24379   6.007   2.399   2.617 -1.6974 -3.3399 -4.2506
  177MOL0     H24380   6.123   2.204   2.718  2.5726 -1.0083 -1.1352
  177MOL0     H24381   6.268   2.243   2.633  0.4773  0.9766 -1.2659
  177MOL0     H24382   6.294   2.444   2.767 -0.0792  0.3482  1.3744
  177MOL0     H24383   6.141   2.417   2.857 -1.7168 -0.0357 -2.2144
  177MOL0     H24384   6.251   2.192   3.159 -2.9855  2.0601  1.6730
  177MOL0     H24385   6.478   2.283   3.440  0.0670 -3.4043  2.2102
  177MOL0     H24386   6.361   2.167   3.379 -1.1274  0.4739 -2.1264
  177MOL0     H24387   6.310   2.315   3.461 -1.0134 -3.4976  1.9497
  177MOL0     H24388   6.577   2.386   3.642  0.0447 -0.4881  0.1210
  177MOL0     H24389   6.691   2.478   3.848 -0.5758  1.3574  2.7429
  177MOL0     H24390   6.702   2.639   4.100  0.6952 -1.5231 -2.2818
  177MOL0     H24391   6.678   2.814   4.100 -2.0246  0.2577  0.6820
  177MOL0     H24392   6.469   2.792   3.966 -0.1934  0.5066 -0.9619
  177MOL0     H24393   6.470   2.620   4.011  2.9858  0.6484 -0.9572
  177MOL0     H24394   6.497   2.777   4.265 -2.4825  0.9598  1.4762
  177MOL0     H24395   6.440   2.622   4.223  3.3409 -0.2346 -1.9468
  177MOL0     H24396   6.254   2.787   4.283 -1.0685  3.1248 -0.5587
  177MOL0     H24397   6.236   2.731   4.113  2.6690 -1.9009 -0.8742
  177MOL0     H24398   6.371   2.995   4.194  1.5796 -2.6581  0.0665
  177MOL0     H24399   6.321   2.946   4.039 -1.5815  0.2284 -0.5286
  177MOL0     H24400   6.136   3.013   4.284 -0.4130 -0.0556  0.1598
  177MOL0     H24401   6.078   2.907   4.159 -2.4397  2.3481 -0.4811
  177MOL0     H24402   6.141   3.099   3.984  1.7880 -0.9272 -0.3424
  177MOL0     H24403   6.196   3.193   4.127  1.7656 -2.1039  0.0918
  177MOL0     H24404   5.978   3.249   4.016  2.6363 -0.9862  0.6860
  177MOL0     H24405   5.995   3.259   4.188 -2.9878  1.8297  0.8671
  177MOL0     H24406   6.582   2.879   3.727  2.1575  0.1319  2.5945
  177MOL0     H24407   6.491   2.791   3.520  0.2461  0.8242 -0.1414
  177MOL0     H24408   6.537   2.589   3.079 -1.8158 -0.6972 -2.4925
  177MOL0     H24409   6.472   2.470   2.901 -0.4258 -0.2451  0.6343
  177MOL0     H24410   4.964   2.707   1.626 -2.9765  2.5841 -4.4200
  177MOL0     H24411   4.741   2.620   1.624  0.7306 -1.4837  1.3558
  177MOL0     H24412   4.330   2.588   1.731 -0.0898  0.9767  1.6803
  177MOL0     H24413   4.093   2.546   1.715 -1.4332  0.6735  0.1928
  177MOL0     H24414   3.876   2.505   1.696 -0.9322 -2.1472  2.7723
  177MOL0     H24415   3.838   2.603   1.846 -1.6530  1.9474  0.5895
  177MOL0     H24416   3.632   2.663   1.787  0.6204 -1.0366  1.5620
  177MOL0     H24417   3.634   2.501   1.740  0.6278  0.4747  1.0044
  177MOL0     H24418   3.518   2.658   1.567 -0.8036  0.3463  2.4858
  177MOL0     H24419   3.669   2.758   1.562 -1.0580  0.5542 -3.5931
  177MOL0     H24420   3.800   2.626   1.451 -0.3490  1.0412 -0.7480
  177MOL0     H24421   3.649   2.632   1.370 -1.7585  3.9729  2.2583
  177MOL0     H24422   3.704   2.216   1.411 -2.2614  0.6753 -1.2748
  177MOL0     H24423   4.006   2.934   1.635 -1.6830 -0.5098  3.4033
  177MOL0     H24424   4.317   3.033   1.494 -1.8416  2.1922 -1.0044
  177MOL0     H24425   4.160   3.074   1.554 -0.6341 -1.0094 -0.8446
  177MOL0     H24426   4.297   3.084   1.670 -1.1622 -1.4516  1.4040
  178MOL0     O24427   9.859   4.042   2.082  0.0739 -0.1232  0.0812
  178MOL0     C24428   9.825   4.045   1.961  0.3084  0.1186  0.3596
  178MOL0     O24429   9.914   4.057   1.850  0.6406 -0.1977  0.2994
  178MOL0     C24430  10.046   4.080   1.872  0.3706  0.4892 -0.6182
  178MOL0     C24431  10.101   4.191   1.829 -0.3588 -0.6533 -0.1573
  178MOL0     C24432  10.237   4.216   1.847 -0.3286  0.3881  0.6754
  178MOL0     C24433  10.319   4.120   1.912 -0.4199  1.0744 -0.2714
  178MOL0     O24434  10.461   4.130   1.923  0.7862  0.3176  0.6799
  178MOL0     C24435  10.529   4.256   1.906 -0.5718  0.2270 -0.3336
  178MOL0     C24436  10.685   4.232   1.925  0.1863 -0.0210 -0.1324
  178MOL0     C24437  10.746   4.138   1.830 -1.1091 -0.7687  0.0936
  178MOL0     C24438  10.752   4.210   1.686 -0.4213 -0.4318 -0.8324
  178MOL0     C24439  10.779   4.126   1.568 -0.2113  0.0408  0.2572
  178MOL0     C24440  10.915   4.047   1.582  0.1975 -0.6270  0.3954
  178MOL0     C24441  10.926   3.938   1.467  0.4754 -0.6278  0.2386
  178MOL0     C24442  10.988   4.017   1.353 -0.3641  0.3333  0.2420
  178MOL0     N24443  10.970   3.924   1.235 -1.2492  0.4369  0.0710
  178MOL0     C24444  11.052   3.817   1.217 -0.0980  0.4400  0.0181
  178MOL0     C24445  10.998   3.751   1.106  0.1060 -0.8154  0.5471
  178MOL0     C24446  11.040   3.620   1.046 -0.6735  0.6890 -0.4872
  178MOL0     C24447  11.163   3.636   0.955 -0.2329 -0.5277  0.5250
  178MOL0     C24448  11.132   3.719   0.826 -0.2146 -1.0642  0.6500
  178MOL0     C24449  11.033   3.644   0.743  0.5025 -0.1199  0.5402
  178MOL0     O24450  11.085   3.515   0.701 -0.4236 -0.3586 -0.0252
  178MOL0     C24451  11.161   3.516   0.583  0.4549  0.7293 -0.6468
  178MOL0     C24452  11.198   3.629   0.506  0.6300  0.2965  0.8185
  178MOL0     C24453  11.291   3.617   0.404  0.6494 -0.2696 -0.1982
  178MOL0     C24454  11.340   3.752   0.354  0.1955  0.0894 -0.7491
  178MOL0     C24455  11.338   3.490   0.358  0.2687 -0.1021 -0.0454
  178MOL0     C24456  11.436   3.481   0.236 -0.4122 -0.4309 -0.2808
  178MOL0     O24457  11.477   3.359   0.221 -0.7437  0.0321  0.4516
  178MOL0     C24458  11.597   3.341   0.152 -0.4717 -0.7068 -0.5160
  178MOL0     C24459  11.721   3.404   0.186  0.0289  0.6904 -0.3756
  178MOL0     C24460  11.842   3.367   0.127 -0.5903  0.2516 -0.2637
  178MOL0     C24461  11.853   3.270   0.027  0.0923 -0.0528  0.5012
  178MOL0     O24462  11.957   3.232  -0.059  0.0115  0.0947 -0.0664
  178MOL0     C24463  12.075   3.309  -0.037 -0.2891 -0.2848  0.4405
  178MOL0     C24464  12.169   3.281  -0.151  0.7202  0.6704 -0.5414
  178MOL0     C24465  12.318   3.320  -0.112  0.7326  0.0475  0.7923
  178MOL0     C24466  12.395   3.380  -0.230  0.1283 -0.5250 -0.3555
  178MOL0     C24467  12.384   3.527  -0.269  0.3742 -0.2951 -1.1217
  178MOL0     C24468  12.504   3.617  -0.227  0.0406 -0.4965 -0.0859
  178MOL0     C24469  12.507   3.634  -0.075  0.2668  0.7027  0.0447
  178MOL0     C24470  12.623   3.702  -0.013 -0.4766  0.6982 -0.1542
  178MOL0    Cl24471  12.603   3.726   0.164 -0.5210 -0.4014  0.1948
  178MOL0     C24472  11.727   3.209  -0.001  0.8523 -0.7217  0.8392
  178MOL0     C24473  11.603   3.241   0.053  0.1050  0.1667  0.0009
  178MOL0     O24474  11.457   3.579   0.165  0.0153 -0.3370 -0.5771
  178MOL0     C24475  11.310   3.372   0.437 -0.9213 -0.4848  0.1188
  178MOL0     C24476  11.214   3.394   0.543 -1.6372 -0.5978  0.3145
  178MOL0     N24477  10.895   3.826   1.061  0.0741 -0.5724 -0.7188
  178MOL0     N24478  10.879   3.927   1.138 -0.3538 -1.2093  0.1581
  178MOL0     C24479  10.259   4.004   1.952  0.2754  1.0293 -1.0236
  178MOL0     C24480  10.127   3.984   1.937  0.4960  0.3051 -0.2980
  178MOL0     C24481   9.671   4.058   1.926 -1.0417  0.2287  0.5998
  178MOL0     C24482   9.646   4.114   1.800 -0.1450  0.4453 -0.5851
  178MOL0     C24483   9.518   4.135   1.750 -0.4377 -0.5948  0.3044
  178MOL0     C24484   9.414   4.092   1.824  0.1049  0.1912 -0.2338
  178MOL0     O24485   9.286   4.081   1.785  0.3570  0.3690  0.4558
  178MOL0     C24486   9.230   4.135   1.657 -0.3066 -0.3615 -0.1448
  178MOL0     C24487   9.232   4.026   1.547  0.1515  0.6755  0.0138
  178MOL0     C24488   9.187   3.888   1.593 -0.1559  0.3035 -0.1725
  178MOL0     C24489   9.043   3.888   1.661  0.5003  0.0363  0.0787
  178MOL0     C24490   8.985   3.755   1.667  0.3986 -0.0765 -0.1361
  178MOL0     C24491   8.942   3.643   1.675 -0.4500 -0.0967 -0.2384
  178MOL0     C24492   9.435   4.030   1.949 -0.0707  0.0075  0.1647
  178MOL0     C24493   9.569   4.008   2.000  0.5360 -0.1106 -0.0449
  178MOL0     C24494   9.587   3.923   2.114 -0.3020 -0.5042 -0.0180
  178MOL0     H24495  10.043   4.266   1.776  1.9164  1.0885 -0.3286
  178MOL0     H24496  10.287   4.301   1.803 -0.6731  0.8358  1.1375
  178MOL0     H24497  10.501   4.332   1.979  3.6884  1.9459 -0.2097
  178MOL0     H24498  10.498   4.292   1.808 -2.0363  1.9792  0.7238
  178MOL0     H24499  10.738   4.327   1.916  3.1313 -1.3281  1.7680
  178MOL0     H24500  10.701   4.192   2.026  0.7755  2.6780  0.9345
  178MOL0     H24501  10.845   4.111   1.867 -0.9972 -3.2640 -1.7112
  178MOL0     H24502  10.689   4.045   1.815 -1.3321 -0.9092  1.6675
  178MOL0     H24503  10.657   4.260   1.666 -0.8337 -0.7906  0.1285
  178MOL0     H24504  10.825   4.291   1.693 -1.0100 -0.0069  0.8766
  178MOL0     H24505  10.797   4.188   1.480  1.0483 -2.7748 -1.6217
  178MOL0     H24506  10.699   4.061   1.530 -0.1763  0.7386 -1.0864
  178MOL0     H24507  11.006   4.108   1.581  0.7917 -1.4988  0.2114
  178MOL0     H24508  10.904   3.991   1.675 -0.8623 -0.6539  0.2694
  178MOL0     H24509  10.825   3.903   1.449 -0.0245  0.2952  1.1413
  178MOL0     H24510  10.976   3.847   1.501 -2.7750 -2.4082  0.5814
  178MOL0     H24511  10.943   4.115   1.337  0.8741  1.3888  2.6583
  178MOL0     H24512  11.096   4.030   1.362  0.3057 -0.9039 -3.7654
  178MOL0     H24513  11.125   3.776   1.286 -2.2443 -2.1809  0.8837
  178MOL0     H24514  10.955   3.561   1.011 -0.3815 -0.9396  1.3210
  178MOL0     H24515  11.073   3.561   1.132 -3.3323  1.1807  0.9643
  178MOL0     H24516  11.245   3.680   1.012 -0.8795 -0.2158  1.2416
  178MOL0     H24517  11.209   3.543   0.921 -1.7658 -1.2698  0.3896
  178MOL0     H24518  11.090   3.811   0.866 -1.0742 -1.0177 -0.2942
  178MOL0     H24519  11.228   3.742   0.779  0.7082  2.3039  3.7614
  178MOL0     H24520  10.943   3.627   0.803 -0.3785 -0.3062 -0.8069
  178MOL0     H24521  11.010   3.703   0.654  3.4016 -1.9773 -1.5952
  178MOL0     H24522  11.157   3.728   0.526 -1.6545 -0.7335  1.6699
  178MOL0     H24523  11.306   3.837   0.413 -1.5133 -2.2478  1.8467
  178MOL0     H24524  11.309   3.763   0.249  0.8158  1.0171 -0.8550
  178MOL0     H24525  11.449   3.757   0.356  0.5481 -4.2920  1.4606
  178MOL0     H24526  11.723   3.487   0.255 -0.0214 -0.7294  1.4211
  178MOL0     H24527  11.929   3.413   0.171  0.1105  1.0241 -2.3203
  178MOL0     H24528  12.068   3.418  -0.033  0.3150 -0.1749 -0.8563
  178MOL0     H24529  12.123   3.276   0.056  1.2670 -1.7728 -0.8224
  178MOL0     H24530  12.156   3.181  -0.193 -2.3678  1.8779 -2.8149
  178MOL0     H24531  12.132   3.351  -0.227  0.2881  1.5261  0.4253
  178MOL0     H24532  12.365   3.226  -0.083  1.1113 -1.1153 -3.0423
  178MOL0     H24533  12.317   3.393  -0.030  2.5713  0.6921  0.3036
  178MOL0     H24534  12.364   3.322  -0.318 -2.6774  1.6512 -0.9434
  178MOL0     H24535  12.499   3.362  -0.202  0.8349  0.1875 -2.3548
  178MOL0     H24536  12.384   3.552  -0.376  1.0822 -1.7072 -1.4800
  178MOL0     H24537  12.291   3.566  -0.227 -1.0881  1.0143 -5.1027
  178MOL0     H24538  12.474   3.711  -0.274 -1.8325 -2.1919 -2.5717
  178MOL0     H24539  12.602   3.575  -0.249  1.1669  1.0815  1.6986
  178MOL0     H24540  12.507   3.535  -0.029 -2.6320 -0.3826 -2.0239
  178MOL0     H24541  12.410   3.674  -0.042 -0.4500 -1.2083  0.3865
  178MOL0     H24542  12.652   3.795  -0.063 -0.7587  1.7927  1.6311
  178MOL0     H24543  12.704   3.629  -0.021 -1.0962  0.0724 -0.8791
  178MOL0     H24544  11.716   3.126  -0.069  0.3662  0.1798 -0.2041
  178MOL0     H24545  11.513   3.189   0.021  0.7166  0.0514 -1.6410
  178MOL0     H24546  11.348   3.272   0.422 -1.2119 -0.2937 -2.1327
  178MOL0     H24547  11.183   3.310   0.605  1.4295  0.2981  3.3661
  178MOL0     H24548  10.317   3.922   1.995  0.4629  1.6953  0.0511
  178MOL0     H24549  10.074   3.890   1.953  0.1785  0.2051 -1.7819
  178MOL0     H24550   9.736   4.156   1.755  0.7921  1.6182  2.1926
  178MOL0     H24551   9.498   4.191   1.659 -4.3252  0.0043  1.3433
  178MOL0     H24552   9.130   4.173   1.679 -0.4450 -1.2404  0.7980
  178MOL0     H24553   9.286   4.218   1.611 -1.0361 -1.1133 -2.5206
  178MOL0     H24554   9.333   4.020   1.505  1.4067 -2.1968  3.0383
  178MOL0     H24555   9.165   4.051   1.464 -1.3386  0.6993  1.1905
  178MOL0     H24556   9.194   3.821   1.507  0.3024 -0.5092  0.4803
  178MOL0     H24557   9.253   3.839   1.665 -0.1151  1.7460  0.7950
  178MOL0     H24558   8.982   3.943   1.589 -0.5505 -0.1694  0.7878
  178MOL0     H24559   9.034   3.938   1.758  1.3160  1.2689 -0.4595
  178MOL0     H24560   8.901   3.545   1.692  2.3870 -0.6974  5.2854
  178MOL0     H24561   9.345   3.993   1.997 -0.3243  1.4792  0.8952
  178MOL0     H24562   9.489   3.907   2.159 -0.9119 -0.3711 -1.2452
  178MOL0     H24563   9.628   3.827   2.083 -0.7884 -0.1464 -1.9244
  178MOL0     H24564   9.649   3.989   2.176  1.3684 -0.7154 -1.3786
  179MOL0     O24565   8.640   8.934  10.685 -0.5257  0.1165 -0.1327
  179MOL0     C24566   8.563   8.967  10.593 -0.7625  0.2530  0.4619
  179MOL0     O24567   8.591   8.955  10.460  1.2546 -0.1860 -0.7504
  179MOL0     C24568   8.724   8.935  10.419 -0.6358  0.0125 -0.6441
  179MOL0     C24569   8.813   8.841  10.470 -0.3639 -0.9945  0.0011
  179MOL0     C24570   8.941   8.831  10.408  1.3634  0.1332  0.1441
  179MOL0     C24571   8.984   8.906  10.301  0.1355  0.8672  0.8522
  179MOL0     O24572   9.103   8.899  10.232 -0.1664  0.1443  0.6001
  179MOL0     C24573   9.214   8.836  10.302  0.2680 -0.9986  1.2855
  179MOL0     C24574   9.329   8.837  10.207 -0.3831 -0.1036  0.3408
  179MOL0     C24575   9.315   8.775  10.066 -0.6474 -0.8443 -0.9849
  179MOL0     C24576   9.452   8.769   9.995 -0.2722 -0.2813  0.3405
  179MOL0     C24577   9.415   8.764   9.842 -0.0971 -0.2913  0.1896
  179MOL0     C24578   9.335   8.643   9.791 -0.8016  0.9339 -0.0390
  179MOL0     C24579   9.379   8.603   9.640 -0.2406 -0.5868 -0.0835
  179MOL0     C24580   9.332   8.689   9.531 -0.1639  0.6424 -0.6315
  179MOL0     N24581   9.416   8.806   9.516 -0.0750 -0.0669  0.4403
  179MOL0     C24582   9.372   8.932   9.565  0.2081  0.4352 -0.3666
  179MOL0     C24583   9.471   9.019   9.542 -0.4440 -0.5570 -0.4499
  179MOL0     C24584   9.455   9.166   9.566  0.8431 -0.4667  0.0373
  179MOL0     C24585   9.550   9.242   9.470  0.6466  0.4703  1.3181
  179MOL0     C24586   9.494   9.243   9.316  0.3642 -0.1752 -0.4802
  179MOL0     C24587   9.605   9.293   9.221  0.2793  0.1824  0.2701
  179MOL0     O24588   9.561   9.284   9.084  0.1400  1.1495 -0.6420
  179MOL0     C24589   9.541   9.167   9.015 -0.6765  0.3534 -0.6735
  179MOL0     C24590   9.607   9.054   9.044  0.0881  0.0924  1.5532
  179MOL0     C24591   9.620   8.960   8.953  0.2854  0.1678 -0.2124
  179MOL0     C24592   9.717   8.849   8.985  0.0535 -1.1586 -0.2395
  179MOL0     C24593   9.556   8.965   8.829  0.5052  0.1598 -0.0616
  179MOL0     C24594   9.557   8.853   8.737  0.4691  0.3955  0.3766
  179MOL0     O24595   9.585   8.885   8.607  0.5098 -0.0503  0.0940
  179MOL0     C24596   9.606   8.781   8.518 -0.2167  0.2426 -0.9792
  179MOL0     C24597   9.732   8.719   8.525  0.7757  0.8567  0.6552
  179MOL0     C24598   9.763   8.624   8.428  0.2533  0.5245 -0.5055
  179MOL0     C24599   9.675   8.574   8.338  0.4889 -0.0192 -0.6384
  179MOL0     O24600   9.713   8.478   8.252  0.3329  1.2154 -0.0766
  179MOL0     C24601   9.856   8.470   8.210  0.8354  0.5373 -0.6657
  179MOL0     C24602   9.863   8.362   8.110 -0.0980 -0.6381 -0.2701
  179MOL0     C24603  10.015   8.342   8.080 -0.3430  0.9393  1.1410
  179MOL0     C24604  10.042   8.279   7.941 -0.4937 -0.1711  0.0021
  179MOL0     C24605  10.047   8.123   7.944 -0.8159  0.4961  0.0559
  179MOL0     C24606   9.951   8.043   8.036  0.2669 -0.2312  1.1167
  179MOL0     C24607   9.905   7.904   7.984  0.5887  0.0157  0.0200
  179MOL0     C24608   9.821   7.824   8.087 -0.8046 -0.5412  0.2756
  179MOL0    Cl24609   9.683   7.920   8.159 -0.3694 -0.3249 -0.1088
  179MOL0     C24610   9.547   8.627   8.349  0.2696 -0.4846  0.2336
  179MOL0     C24611   9.511   8.736   8.428  0.4164 -0.7408  0.4585
  179MOL0     O24612   9.543   8.739   8.781 -0.1227  0.2854  0.0966
  179MOL0     C24613   9.482   9.079   8.799 -0.3258  0.1520  1.0182
  179MOL0     C24614   9.477   9.183   8.893 -0.6024  1.0216 -0.2931
  179MOL0     N24615   9.582   8.948   9.489  0.0320 -0.4932  0.5094
  179MOL0     N24616   9.545   8.820   9.479 -0.1499  0.2455 -0.2430
  179MOL0     C24617   8.895   9.006  10.256  0.0225  1.0007 -0.1680
  179MOL0     C24618   8.769   9.014  10.301  0.8873  0.6047  0.1237
  179MOL0     C24619   8.435   9.035  10.634  0.6249 -0.0520 -0.3500
  179MOL0     C24620   8.400   9.139  10.543 -0.1353  0.7922  0.3997
  179MOL0     C24621   8.292   9.219  10.576 -1.1721 -0.4882 -0.1274
  179MOL0     C24622   8.217   9.211  10.692 -0.1231  0.5680  0.2296
  179MOL0     O24623   8.126   9.303  10.723  0.5659  0.4124 -0.5254
  179MOL0     C24624   8.020   9.276  10.820  0.4106 -0.3491 -0.2224
  179MOL0     C24625   8.045   9.341  10.956 -0.5857  0.9168  0.4439
  179MOL0     C24626   8.082   9.487  10.946 -0.3519  0.1087  0.4373
  179MOL0     C24627   8.116   9.552  11.085 -0.3596 -0.1643 -0.5617
  179MOL0     C24628   8.163   9.699  11.078  0.4615 -0.0849  0.1179
  179MOL0     C24629   8.187   9.819  11.073 -0.1135 -0.5355 -0.1212
  179MOL0     C24630   8.257   9.109  10.789 -1.0388  0.1644 -0.8554
  179MOL0     C24631   8.363   9.028  10.761 -0.1083 -0.1738  0.4405
  179MOL0     C24632   8.389   8.924  10.866  0.4145  1.2235 -0.1545
  179MOL0     H24633   8.782   8.780  10.554  0.3504 -1.1022  0.1904
  179MOL0     H24634   9.005   8.758  10.457 -1.7598 -1.8989  1.5469
  179MOL0     H24635   9.184   8.736  10.335 -0.0798 -1.1200  0.6223
  179MOL0     H24636   9.236   8.896  10.391  1.6946  1.0624 -0.3411
  179MOL0     H24637   9.374   8.937  10.207  2.4893 -1.2851 -0.8395
  179MOL0     H24638   9.407   8.780  10.259  1.2329  2.0019  0.3354
  179MOL0     H24639   9.271   8.676  10.081 -1.0263 -0.4594  0.7967
  179MOL0     H24640   9.249   8.845  10.015  1.2927  0.8999 -1.2339
  179MOL0     H24641   9.517   8.854  10.021  1.4363 -1.6582  0.7060
  179MOL0     H24642   9.503   8.677  10.024 -1.0634 -0.9825 -0.4427
  179MOL0     H24643   9.510   8.759   9.788 -0.0124  1.0848  0.1897
  179MOL0     H24644   9.363   8.857   9.817 -1.0897 -0.7341  0.5649
  179MOL0     H24645   9.355   8.563   9.863  1.6205  0.6040 -0.9870
  179MOL0     H24646   9.227   8.660   9.796 -1.1242 -0.7230 -0.5531
  179MOL0     H24647   9.327   8.511   9.610 -0.4062 -0.5593  0.1152
  179MOL0     H24648   9.486   8.582   9.651 -0.6066 -2.3926  0.4490
  179MOL0     H24649   9.336   8.627   9.441  0.0972  0.6325 -0.6145
  179MOL0     H24650   9.227   8.709   9.555  0.1459 -1.5922  3.5275
  179MOL0     H24651   9.277   8.955   9.612  0.5968  2.3585 -0.4192
  179MOL0     H24652   9.497   9.202   9.661 -0.8288  2.2030 -0.1186
  179MOL0     H24653   9.350   9.197   9.563  1.4836  1.9276 -0.2685
  179MOL0     H24654   9.558   9.349   9.493  2.2822  0.9778 -1.2313
  179MOL0     H24655   9.649   9.196   9.475  0.0605 -0.7102  3.9919
  179MOL0     H24656   9.462   9.143   9.286  1.3287 -0.3812 -0.8489
  179MOL0     H24657   9.406   9.308   9.319  0.4046 -0.0695 -1.3829
  179MOL0     H24658   9.608   9.399   9.248 -0.5152  0.5854 -1.0816
  179MOL0     H24659   9.701   9.243   9.230  1.7199  1.7653 -3.8212
  179MOL0     H24660   9.657   9.035   9.139  2.2617 -2.6030  0.0446
  179MOL0     H24661   9.793   8.848   8.907  2.8228  1.2212  2.1929
  179MOL0     H24662   9.677   8.748   9.000  0.4363 -1.2296  0.3362
  179MOL0     H24663   9.770   8.871   9.078  1.5542  0.1656 -1.3645
  179MOL0     H24664   9.812   8.758   8.587  2.0904  2.9056 -2.1020
  179MOL0     H24665   9.868   8.595   8.423  0.1217 -0.4019  1.2662
  179MOL0     H24666   9.895   8.568   8.180  0.3363  1.1970  0.7628
  179MOL0     H24667   9.914   8.451   8.301  0.0247  2.7292  0.3773
  179MOL0     H24668   9.815   8.272   8.151 -0.5584 -0.3846 -0.2510
  179MOL0     H24669   9.819   8.397   8.016 -1.5390  1.0955  0.9824
  179MOL0     H24670  10.067   8.276   8.149 -1.2559  0.2698  1.2019
  179MOL0     H24671  10.062   8.439   8.098  0.0451  1.2313 -1.1724
  179MOL0     H24672  10.143   8.309   7.910 -0.5580  2.2749  1.9274
  179MOL0     H24673   9.967   8.312   7.869 -0.5581  1.9058  0.9441
  179MOL0     H24674  10.033   8.096   7.839 -2.5562 -1.5746  0.7678
  179MOL0     H24675  10.150   8.098   7.971  0.5931  2.7360 -2.6271
  179MOL0     H24676   9.852   8.088   8.028 -0.8748 -2.8043 -0.7124
  179MOL0     H24677   9.987   8.057   8.139 -2.5399  0.7482  2.0450
  179MOL0     H24678   9.998   7.857   7.951 -0.3993  0.0340 -3.0431
  179MOL0     H24679   9.839   7.910   7.897 -1.1773 -1.8240  1.1339
  179MOL0     H24680   9.879   7.796   8.175  0.6454 -0.8250 -0.7316
  179MOL0     H24681   9.784   7.740   8.028 -0.4556  2.5480 -5.0187
  179MOL0     H24682   9.481   8.599   8.268  0.2119  0.4577 -0.0534
  179MOL0     H24683   9.412   8.780   8.422  0.1754 -1.2155  0.9361
  179MOL0     H24684   9.452   9.085   8.694 -1.5359 -2.4699  1.1264
  179MOL0     H24685   9.433   9.278   8.867  0.7121  2.1141  1.2541
  179MOL0     H24686   8.922   9.065  10.169 -1.4522  1.6713 -0.1993
  179MOL0     H24687   8.701   9.084  10.254  0.0629 -1.9489 -2.7434
  179MOL0     H24688   8.434   9.150  10.440 -4.3532 -0.0894 -1.3028
  179MOL0     H24689   8.251   9.291  10.505  0.9257  0.8213 -0.0962
  179MOL0     H24690   7.928   9.322  10.783  0.1368  1.3959  2.3525
  179MOL0     H24691   7.999   9.169  10.834 -1.2766 -0.3056 -1.9480
  179MOL0     H24692   8.125   9.288  11.008 -3.2191 -1.2771  2.5805
  179MOL0     H24693   7.953   9.333  11.015 -2.0245  0.3121 -1.7172
  179MOL0     H24694   8.169   9.499  10.881 -2.2635 -2.6070 -2.9573
  179MOL0     H24695   7.994   9.539  10.907 -0.1429  0.0043 -0.1749
  179MOL0     H24696   8.201   9.504  11.134 -0.0432  1.4703  0.6033
  179MOL0     H24697   8.036   9.549  11.160  0.0477  1.2721 -0.0288
  179MOL0     H24698   8.220   9.921  11.078 -2.4181  0.2321  0.8953
  179MOL0     H24699   8.196   9.094  10.877 -0.7656 -0.1199 -0.7107
  179MOL0     H24700   8.297   8.890  10.915  1.0278 -0.0793  0.1244
  179MOL0     H24701   8.427   8.831  10.822 -1.1951 -1.0394  2.8856
  179MOL0     H24702   8.457   8.963  10.942  1.9971 -0.3334 -0.7095
  180MOL0     O24703   9.265   2.661   9.476 -0.4869 -0.3574 -0.1069
  180MOL0     C24704   9.328   2.769   9.481  0.9145 -0.2081  0.6194
  180MOL0     O24705   9.265   2.884   9.535 -0.3525 -0.2487  0.7930
  180MOL0     C24706   9.133   2.873   9.557 -0.5463 -0.2995  0.2319
  180MOL0     C24707   9.041   2.931   9.466 -0.4285 -0.8588  0.1198
  180MOL0     C24708   8.904   2.937   9.495  0.7573  0.0095 -0.5881
  180MOL0     C24709   8.862   2.874   9.614 -0.5692 -0.0998 -0.2390
  180MOL0     O24710   8.728   2.906   9.641 -0.2739 -0.2215  0.0911
  180MOL0     C24711   8.656   2.832   9.742 -0.0756 -0.9158  0.4577
  180MOL0     C24712   8.507   2.876   9.724  0.6885 -0.0544  0.3199
  180MOL0     C24713   8.444   2.861   9.588  0.6720  0.4365 -0.7980
  180MOL0     C24714   8.295   2.918   9.583 -0.0280 -0.9475  0.0378
  180MOL0     C24715   8.238   2.896   9.445  0.4858  0.5942 -0.4822
  180MOL0     C24716   8.102   2.949   9.424  0.4930 -0.5431  0.4603
  180MOL0     C24717   8.098   3.097   9.393  0.7277  0.0735  0.2347
  180MOL0     C24718   7.956   3.156   9.424  0.0735  1.2057 -0.0070
  180MOL0     N24719   7.856   3.140   9.313 -0.1624 -0.7124  0.0616
  180MOL0     C24720   7.799   3.244   9.243 -0.0844  0.4551 -0.0413
  180MOL0     C24721   7.726   3.171   9.146  0.0558 -0.8497 -0.8432
  180MOL0     C24722   7.617   3.232   9.064  0.3331 -1.4624 -0.1209
  180MOL0     C24723   7.516   3.325   9.137  0.4024  0.1585 -0.5183
  180MOL0     C24724   7.392   3.362   9.054  0.0218  0.4924  0.9459
  180MOL0     C24725   7.278   3.445   9.116 -0.7960 -0.3441  0.5876
  180MOL0     O24726   7.155   3.366   9.127 -0.4870 -0.4670 -0.3161
  180MOL0     C24727   7.140   3.263   9.215 -0.0751  0.1965 -0.4194
  180MOL0     C24728   7.056   3.154   9.182 -0.8105 -0.7447  0.2318
  180MOL0     C24729   7.054   3.045   9.257 -1.3687 -0.1838 -0.0720
  180MOL0     C24730   6.954   2.939   9.213 -0.3068  0.0245 -0.2860
  180MOL0     C24731   7.128   3.048   9.381  0.5510 -0.1334 -0.8627
  180MOL0     C24732   7.125   2.939   9.477  0.3845  0.9084 -0.1593
  180MOL0     O24733   7.119   2.970   9.602  0.1985 -0.2014 -0.1222
  180MOL0     C24734   7.096   2.880   9.694 -0.1464  0.0120 -0.8332
  180MOL0     C24735   7.158   2.759   9.696  0.3159 -0.4502  0.0516
  180MOL0     C24736   7.116   2.658   9.782 -1.2576  0.2728  0.0378
  180MOL0     C24737   7.023   2.682   9.880 -0.0338 -0.7284 -0.0959
  180MOL0     O24738   7.005   2.580   9.971 -0.0786  0.3237  0.0826
  180MOL0     C24739   6.992   2.611  10.109 -0.5202  0.6054  0.8006
  180MOL0     C24740   6.844   2.627  10.153 -0.1725 -0.2011 -0.9303
  180MOL0     C24741   6.819   2.623  10.303  0.5765 -0.3700 -0.5091
  180MOL0     C24742   6.696   2.713  10.355  0.2095 -0.2553 -0.3843
  180MOL0     C24743   6.737   2.866  10.340  0.1565  0.6246 -0.2067
  180MOL0     C24744   6.641   2.969  10.392 -1.6261  0.3014 -0.3004
  180MOL0     C24745   6.672   3.114  10.350 -0.1445 -0.6171  0.0297
  180MOL0     C24746   6.561   3.202  10.408 -0.2363  0.0658 -0.6939
  180MOL0    Cl24747   6.400   3.156  10.349  0.5349 -0.2121  0.4808
  180MOL0     C24748   6.964   2.798   9.878  0.1602 -0.9186  0.1568
  180MOL0     C24749   6.998   2.904   9.784 -0.6767  0.2458 -0.4414
  180MOL0     O24750   7.124   2.826   9.424 -0.6564 -0.7069 -0.1485
  180MOL0     C24751   7.202   3.160   9.422 -0.5420  0.6206  0.2893
  180MOL0     C24752   7.200   3.274   9.336  0.0725  0.0761 -0.7326
  180MOL0     N24753   7.750   3.035   9.163  1.0025 -0.2347  0.2516
  180MOL0     N24754   7.835   3.017   9.261  0.0776 -0.0948  0.6726
  180MOL0     C24755   8.954   2.822   9.706 -0.1890 -1.0792 -0.3138
  180MOL0     C24756   9.089   2.817   9.675 -0.0311  0.7199  0.7191
  180MOL0     C24757   9.470   2.793   9.435 -0.0739 -0.4043 -0.9152
  180MOL0     C24758   9.523   2.926   9.468  0.0570 -0.5391  0.1126
  180MOL0     C24759   9.651   2.962   9.420 -0.0422  0.0862  0.2348
  180MOL0     C24760   9.715   2.876   9.332 -0.4154 -0.8806 -0.0212
  180MOL0     O24761   9.829   2.910   9.267  0.5059 -1.2442  0.5042
  180MOL0     C24762   9.866   3.054   9.243  0.7146  0.4998 -0.9952
  180MOL0     C24763   9.983   3.059   9.142 -0.2872 -0.7059  0.3926
  180MOL0     C24764   9.937   3.040   8.997  0.0242 -0.3309 -0.0462
  180MOL0     C24765  10.062   3.024   8.903  0.5710 -0.2176  0.5366
  180MOL0     C24766  10.003   3.048   8.772 -0.9651  0.5610  0.0752
  180MOL0     C24767   9.961   3.058   8.656 -0.8828 -0.2178  0.0761
  180MOL0     C24768   9.671   2.741   9.313 -0.2369  0.5021  0.3433
  180MOL0     C24769   9.542   2.695   9.354 -0.1907 -1.2042 -0.8563
  180MOL0     C24770   9.497   2.564   9.321  0.3231  0.1095 -0.8051
  180MOL0     H24771   9.076   2.996   9.387 -1.2510 -0.6807 -0.1127
  180MOL0     H24772   8.828   2.999   9.446 -0.6313 -1.0603  0.1349
  180MOL0     H24773   8.692   2.854   9.843  0.5505 -1.7539  0.4268
  180MOL0     H24774   8.666   2.726   9.719  1.0413 -0.4514 -1.3953
  180MOL0     H24775   8.456   2.819   9.803  0.4343  1.5299  1.3411
  180MOL0     H24776   8.500   2.978   9.762 -0.2877 -0.5354  1.4954
  180MOL0     H24777   8.506   2.912   9.513  2.6973 -0.3417  0.2566
  180MOL0     H24778   8.450   2.756   9.558 -1.0226  0.4896 -1.4025
  180MOL0     H24779   8.232   2.876   9.662 -1.6675  0.6505 -0.3339
  180MOL0     H24780   8.309   3.026   9.599  1.0555 -0.9697 -0.6693
  180MOL0     H24781   8.212   2.790   9.443  2.7868 -0.0245 -0.4423
  180MOL0     H24782   8.305   2.918   9.361  1.9658 -2.0903 -0.1193
  180MOL0     H24783   8.056   2.890   9.345 -0.6027 -2.5979  2.5046
  180MOL0     H24784   8.045   2.940   9.517  2.4199  3.2532  2.2672
  180MOL0     H24785   8.137   3.118   9.293  2.0485 -5.2300 -0.7132
  180MOL0     H24786   8.177   3.144   9.452  2.5557  1.2934 -2.9081
  180MOL0     H24787   7.903   3.106   9.505 -3.8873  2.0915 -1.7865
  180MOL0     H24788   7.971   3.262   9.449  1.3844  1.6007 -2.1526
  180MOL0     H24789   7.803   3.350   9.265 -0.5937  0.2920  0.8861
  180MOL0     H24790   7.563   3.147   9.022  1.3072 -2.6403  0.9645
  180MOL0     H24791   7.655   3.295   8.982 -1.5136 -0.2109 -0.0816
  180MOL0     H24792   7.490   3.265   9.225  1.7765 -0.2382 -0.3655
  180MOL0     H24793   7.559   3.421   9.168  0.0088  0.2629 -0.2858
  180MOL0     H24794   7.432   3.408   8.963 -0.5977 -2.1151 -0.7291
  180MOL0     H24795   7.343   3.270   9.023 -2.4777  1.8329  0.6468
  180MOL0     H24796   7.313   3.496   9.206  2.0823 -0.5438 -0.3196
  180MOL0     H24797   7.258   3.527   9.047  2.9339  0.4113  0.1873
  180MOL0     H24798   6.999   3.160   9.090  1.0780  0.1354 -0.9572
  180MOL0     H24799   6.907   2.888   9.298 -3.3059  2.8310 -0.0631
  180MOL0     H24800   7.006   2.870   9.146  3.0438  1.0828  0.9768
  180MOL0     H24801   6.872   2.985   9.159  0.6489 -1.3816 -3.1566
  180MOL0     H24802   7.238   2.739   9.625  1.4748  0.2184  1.1440
  180MOL0     H24803   7.171   2.566   9.766  1.7433  1.8316  0.5949
  180MOL0     H24804   7.032   2.524  10.162 -2.1492 -0.0554  1.0160
  180MOL0     H24805   7.051   2.698  10.140  0.8081 -0.5518  1.6912
  180MOL0     H24806   6.813   2.726  10.117 -0.5723  0.4951  1.1750
  180MOL0     H24807   6.795   2.545  10.101 -0.1824 -0.4471 -0.5403
  180MOL0     H24808   6.912   2.663  10.344  1.4388 -0.8807 -1.8779
  180MOL0     H24809   6.802   2.518  10.328  0.0069 -0.1471  0.0759
  180MOL0     H24810   6.672   2.678  10.457  0.8896 -2.7592 -1.0135
  180MOL0     H24811   6.605   2.693  10.299  0.2101  1.1483 -0.9070
  180MOL0     H24812   6.842   2.886  10.364  0.5457  1.5728 -2.5226
  180MOL0     H24813   6.734   2.884  10.233  0.5823 -4.1229 -1.2620
  180MOL0     H24814   6.653   2.964  10.501 -0.6248  2.3819 -0.2593
  180MOL0     H24815   6.543   2.935  10.357 -1.5240  0.1184 -0.4041
  180MOL0     H24816   6.668   3.127  10.242  0.8653 -0.5402 -0.0056
  180MOL0     H24817   6.769   3.159  10.372 -0.5674  1.6479 -2.2410
  180MOL0     H24818   6.588   3.307  10.392 -1.3506  0.5559  0.5104
  180MOL0     H24819   6.553   3.187  10.516 -0.3222  1.9086 -0.4093
  180MOL0     H24820   6.884   2.839   9.939 -2.2771  1.6445 -4.2279
  180MOL0     H24821   6.936   2.993   9.782 -0.7904  0.1974  0.4232
  180MOL0     H24822   7.256   3.166   9.516 -0.1825 -2.0948  0.3458
  180MOL0     H24823   7.261   3.362   9.358  1.1061 -1.2795  2.5547
  180MOL0     H24824   8.913   2.786   9.800 -2.6307  1.8887 -0.0783
  180MOL0     H24825   9.153   2.781   9.755  0.3279 -0.0584  0.0922
  180MOL0     H24826   9.454   2.997   9.513 -1.7627 -2.0427 -0.1984
  180MOL0     H24827   9.691   3.060   9.443  2.7820 -0.9690  0.3309
  180MOL0     H24828   9.782   3.101   9.192 -0.0366 -0.0562 -0.2910
  180MOL0     H24829   9.895   3.101   9.338  1.1691 -0.6131 -0.5634
  180MOL0     H24830  10.052   2.975   9.156  1.4204  0.3327 -1.3842
  180MOL0     H24831  10.046   3.146   9.161 -0.2543 -0.7524  0.4975
  180MOL0     H24832   9.877   2.948   8.997  2.4805 -2.0501 -1.6434
  180MOL0     H24833   9.876   3.124   8.961 -3.1117 -1.7760  1.5295
  180MOL0     H24834  10.095   2.922   8.923 -0.6730 -0.4473  1.5973
  180MOL0     H24835  10.138   3.101   8.921  1.5635 -1.7570  3.5441
  180MOL0     H24836   9.917   3.054   8.559 -0.3825 -2.1828 -0.1023
  180MOL0     H24837   9.738   2.676   9.259  0.3376  1.3791 -0.0099
  180MOL0     H24838   9.574   2.525   9.254  5.3180  3.4057  2.3162
  180MOL0     H24839   9.475   2.507   9.412 -0.4445 -1.8839 -2.1763
  180MOL0     H24840   9.400   2.570   9.272  0.5798  0.7126 -1.2631
  181MOL0     O24841   0.234   0.049   7.251 -0.4495  0.4325  0.3469
  181MOL0     C24842   0.181   0.155   7.284  0.6099  1.1556  0.0494
  181MOL0     O24843   0.223   0.223   7.393 -0.1824 -0.2310  0.8936
  181MOL0     C24844   0.344   0.198   7.457  0.6207 -0.7947  0.9684
  181MOL0     C24845   0.348   0.163   7.595  0.1466  0.5342  1.1332
  181MOL0     C24846   0.464   0.135   7.655 -0.6649  0.8634  0.1114
  181MOL0     C24847   0.590   0.138   7.584  0.6252 -0.0331 -0.4270
  181MOL0     O24848   0.703   0.119   7.666 -0.6979  0.0671  0.8428
  181MOL0     C24849   0.827   0.072   7.604  0.3059 -0.2611  0.5387
  181MOL0     C24850   0.953   0.122   7.680 -0.9573 -0.1054  0.9556
  181MOL0     C24851   0.954   0.089   7.826  0.0846  0.9886 -0.0441
  181MOL0     C24852   1.086   0.119   7.889  0.4837 -0.0217 -0.8093
  181MOL0     C24853   1.136   0.257   7.858  0.9418  0.7200  0.1176
  181MOL0     C24854   1.038   0.363   7.916  0.2286  0.6156  0.6509
  181MOL0     C24855   1.099   0.497   7.868  0.9876 -0.0837  0.1863
  181MOL0     C24856   1.200   0.555   7.973 -0.1110  0.5190  0.1675
  181MOL0     N24857   1.285   0.668   7.931  1.1076  0.7472 -0.5990
  181MOL0     C24858   1.422   0.668   7.920  0.4602 -0.3677 -0.5116
  181MOL0     C24859   1.447   0.791   7.873  0.6526  0.1670  0.4376
  181MOL0     C24860   1.580   0.840   7.834  0.1469  0.0350  0.5235
  181MOL0     C24861   1.605   0.821   7.681 -0.2031  0.2281  0.0121
  181MOL0     C24862   1.734   0.903   7.628  0.1533  0.0801 -0.3848
  181MOL0     C24863   1.761   0.895   7.477  0.3992 -0.0240  0.0889
  181MOL0     O24864   1.880   0.960   7.438  0.1530 -0.1184  0.6264
  181MOL0     C24865   1.902   0.965   7.302 -0.7435 -0.7793 -0.0649
  181MOL0     C24866   1.823   0.908   7.201 -0.7348  0.4729 -0.1914
  181MOL0     C24867   1.858   0.932   7.060 -0.2026  0.2024 -0.3834
  181MOL0     C24868   1.766   0.864   6.960 -0.1102  1.2118  0.4193
  181MOL0     C24869   1.965   1.010   7.028 -0.1729 -0.3989  0.1524
  181MOL0     C24870   2.019   1.046   6.896 -0.3883  0.5172 -0.0171
  181MOL0     O24871   2.161   1.047   6.879 -0.2847  0.3249  0.1241
  181MOL0     C24872   2.216   1.084   6.755  0.3413 -0.6194  0.4100
  181MOL0     C24873   2.308   0.999   6.699 -0.0339  1.1657 -0.1173
  181MOL0     C24874   2.359   1.020   6.573 -0.4098  0.2694 -0.7428
  181MOL0     C24875   2.334   1.142   6.509 -0.0345  0.8223 -1.4988
  181MOL0     O24876   2.390   1.137   6.381  0.1896 -0.4154  0.2510
  181MOL0     C24877   2.400   1.259   6.312  0.2045  0.4380  0.0869
  181MOL0     C24878   2.492   1.245   6.185  0.7603  0.6799 -0.0184
  181MOL0     C24879   2.518   1.370   6.106 -0.0742  0.4080  0.5374
  181MOL0     C24880   2.635   1.347   6.014 -0.6697 -0.6418 -0.0563
  181MOL0     C24881   2.687   1.452   5.905 -0.4677 -0.2960  0.6327
  181MOL0     C24882   2.729   1.598   5.949 -0.4367 -0.2907  0.3804
  181MOL0     C24883   2.636   1.702   5.908  0.7221  0.1214  0.2742
  181MOL0     C24884   2.649   1.845   5.970  0.3600 -0.1251  0.4990
  181MOL0    Cl24885   2.819   1.898   5.976 -0.3966 -0.5644 -0.0973
  181MOL0     C24886   2.256   1.236   6.568  0.8968 -0.5761 -0.0465
  181MOL0     C24887   2.186   1.204   6.689 -0.1002  0.1834 -0.9538
  181MOL0     O24888   1.943   1.069   6.801  0.2352  0.1378  0.2609
  181MOL0     C24889   2.050   1.056   7.129  1.0717 -0.2094 -0.4346
  181MOL0     C24890   2.011   1.042   7.269 -0.8953  0.8305  0.1551
  181MOL0     N24891   1.330   0.868   7.882 -0.1121  0.0806 -0.2791
  181MOL0     N24892   1.236   0.788   7.902  0.1603 -0.3558 -0.0970
  181MOL0     C24893   0.582   0.156   7.438 -0.3708 -0.2740 -0.3118
  181MOL0     C24894   0.460   0.192   7.382  0.6797  0.5103  0.4089
  181MOL0     C24895   0.050   0.199   7.223 -0.0135 -0.0012  0.4499
  181MOL0     C24896   0.005   0.324   7.270  0.0141 -0.2905 -0.5133
  181MOL0     C24897  -0.119   0.366   7.236  0.4439 -0.1946  0.1077
  181MOL0     C24898  -0.202   0.308   7.144  0.0288 -0.1585  0.0384
  181MOL0     O24899  -0.320   0.367   7.114 -0.0733 -0.3594 -0.3140
  181MOL0     C24900  -0.419   0.319   7.022  0.4232 -0.2776 -0.1488
  181MOL0     C24901  -0.551   0.412   7.030 -0.7817  0.3748  0.3818
  181MOL0     C24902  -0.628   0.420   7.156 -1.1536 -0.5548 -0.7111
  181MOL0     C24903  -0.752   0.492   7.150 -0.0706  0.3944  0.1175
  181MOL0     C24904  -0.870   0.423   7.089  0.1521  0.4691 -0.2439
  181MOL0     C24905  -0.976   0.393   7.034  0.2890  1.1313  1.0233
  181MOL0     C24906  -0.154   0.182   7.095 -0.1068 -0.6010  0.4014
  181MOL0     C24907  -0.025   0.118   7.125  1.2371 -0.1030 -0.7264
  181MOL0     C24908   0.002  -0.022   7.079 -0.7008 -0.9500 -0.0601
  181MOL0     H24909   0.253   0.179   7.645 -0.3329  1.1865  0.0408
  181MOL0     H24910   0.450   0.140   7.763 -1.6692  3.2081 -0.0746
  181MOL0     H24911   0.818   0.107   7.501  0.6503 -2.4464 -0.2744
  181MOL0     H24912   0.834  -0.036   7.592  1.2781 -0.2521  0.8991
  181MOL0     H24913   1.042   0.079   7.634 -0.9811  3.5244 -3.0810
  181MOL0     H24914   0.956   0.227   7.652 -0.6702 -0.7780 -1.7963
  181MOL0     H24915   0.871   0.138   7.878  0.8500  3.0155 -0.6268
  181MOL0     H24916   0.932  -0.018   7.832 -0.9197  1.0457 -2.0175
  181MOL0     H24917   1.072   0.116   7.997  2.5408 -1.1870 -0.5165
  181MOL0     H24918   1.157   0.040   7.865 -1.6050 -2.0711 -0.5910
  181MOL0     H24919   1.162   0.261   7.751 -4.1763 -0.9726 -1.5003
  181MOL0     H24920   1.232   0.286   7.902  3.0625  2.0246 -4.6725
  181MOL0     H24921   0.940   0.344   7.872 -0.2833  2.3475  0.9616
  181MOL0     H24922   1.028   0.365   8.025  2.7703 -5.2119  1.3473
  181MOL0     H24923   1.014   0.566   7.867  0.9560 -0.1120  0.7090
  181MOL0     H24924   1.140   0.486   7.767 -3.2053  2.1481 -2.0416
  181MOL0     H24925   1.150   0.588   8.064  1.6503  1.0551  0.9859
  181MOL0     H24926   1.275   0.483   8.008  2.8136  2.1555 -2.2521
  181MOL0     H24927   1.500   0.596   7.942  0.2291 -1.4647 -3.0222
  181MOL0     H24928   1.659   0.782   7.883 -0.8481 -0.3792  1.6693
  181MOL0     H24929   1.592   0.940   7.878  0.3098 -0.7263  2.2825
  181MOL0     H24930   1.622   0.714   7.667  0.0788  0.3594 -0.6711
  181MOL0     H24931   1.523   0.860   7.620  0.1191  0.8493 -0.0362
  181MOL0     H24932   1.718   1.009   7.648 -0.0369 -0.5019  3.2203
  181MOL0     H24933   1.816   0.867   7.691 -2.7106 -1.9667  2.5094
  181MOL0     H24934   1.762   0.790   7.444  0.8053  0.4765 -1.5575
  181MOL0     H24935   1.678   0.948   7.430  0.0036 -1.1595 -0.5574
  181MOL0     H24936   1.744   0.836   7.220 -0.2432 -0.4528 -1.5172
  181MOL0     H24937   1.730   0.935   6.885  0.3587 -2.5539 -3.7817
  181MOL0     H24938   1.684   0.811   7.010  0.7297  0.5320  1.1050
  181MOL0     H24939   1.826   0.792   6.904  2.8629  2.8151  1.3176
  181MOL0     H24940   2.328   0.905   6.749  1.8056  0.4990 -1.9505
  181MOL0     H24941   2.431   0.946   6.538  0.3405 -0.4500  2.0187
  181MOL0     H24942   2.299   1.285   6.281 -0.1244 -0.3446  0.4846
  181MOL0     H24943   2.446   1.339   6.371  1.6119  0.4544 -0.9679
  181MOL0     H24944   2.592   1.215   6.217  0.7760  1.8489  1.0935
  181MOL0     H24945   2.458   1.164   6.119  4.4157  0.0273 -1.3327
  181MOL0     H24946   2.546   1.443   6.183  0.3388 -1.6253  2.4239
  181MOL0     H24947   2.433   1.401   6.044 -0.0790 -2.2691 -0.9245
  181MOL0     H24948   2.608   1.255   5.961  0.8169 -1.0025 -0.2306
  181MOL0     H24949   2.721   1.326   6.079  0.7057  1.6230 -1.0426
  181MOL0     H24950   2.773   1.406   5.855  0.9716  1.6871  1.1561
  181MOL0     H24951   2.615   1.461   5.823  1.6767 -0.7830 -1.4169
  181MOL0     H24952   2.830   1.619   5.910 -0.4968 -0.4033  0.1648
  181MOL0     H24953   2.762   1.598   6.053  0.4794  0.2879  0.1099
  181MOL0     H24954   2.533   1.671   5.929 -0.4639  1.2404 -3.1313
  181MOL0     H24955   2.646   1.702   5.799  0.6946  2.0212  0.2398
  181MOL0     H24956   2.613   1.852   6.073  1.5302  0.0535  0.9076
  181MOL0     H24957   2.587   1.914   5.912 -0.7642 -2.2441 -0.9936
  181MOL0     H24958   2.248   1.331   6.516  0.4380 -0.9968 -0.7759
  181MOL0     H24959   2.106   1.263   6.733  0.4926 -1.0027  1.9813
  181MOL0     H24960   2.139   1.118   7.121  0.6394  0.6117  0.7135
  181MOL0     H24961   2.069   1.099   7.341  0.1401  2.4104 -1.8196
  181MOL0     H24962   0.667   0.134   7.375  0.8409 -0.7778  1.4067
  181MOL0     H24963   0.445   0.206   7.276 -1.9600  3.9196  1.0494
  181MOL0     H24964   0.061   0.391   7.336  0.1011 -0.0969 -0.7815
  181MOL0     H24965  -0.166   0.459   7.265 -0.6316 -0.4944 -0.6154
  181MOL0     H24966  -0.371   0.338   6.926  0.9710 -0.9771 -0.0254
  181MOL0     H24967  -0.452   0.216   7.043 -0.0437 -0.3604 -1.2572
  181MOL0     H24968  -0.626   0.370   6.961  0.0552 -1.9415  0.8124
  181MOL0     H24969  -0.521   0.514   7.003 -2.7424  0.3883 -2.1699
  181MOL0     H24970  -0.650   0.317   7.188  1.2311 -0.9971 -0.2987
  181MOL0     H24971  -0.570   0.460   7.240 -3.9112 -0.6003  1.3362
  181MOL0     H24972  -0.748   0.582   7.089 -0.2837 -0.1363 -0.6975
  181MOL0     H24973  -0.760   0.526   7.253  2.7243  2.0292 -0.0909
  181MOL0     H24974  -1.073   0.381   6.992  1.5587 -1.0126 -1.6609
  181MOL0     H24975  -0.225   0.127   7.035 -0.8611  0.5121  0.2431
  181MOL0     H24976  -0.058  -0.037   6.989  1.7755  0.4274 -2.0871
  181MOL0     H24977   0.104  -0.039   7.044 -1.0141 -0.0168 -1.5037
  181MOL0     H24978  -0.027  -0.091   7.158 -2.3699 -0.3757 -0.1132
  182MOL0     O24979   2.553   7.238   5.952 -0.2580  0.3571  0.5212
  182MOL0     C24980   2.670   7.243   5.995 -0.4710 -0.5877  0.2802
  182MOL0     O24981   2.768   7.148   5.977  0.9478 -0.2560  0.3553
  182MOL0     C24982   2.759   7.054   5.876 -0.1203  0.3694 -0.5132
  182MOL0     C24983   2.697   7.074   5.761 -0.3140  0.4942 -0.0049
  182MOL0     C24984   2.690   6.982   5.664  0.1413  0.4116  0.2160
  182MOL0     C24985   2.768   6.865   5.681  0.3199 -0.1582 -0.5492
  182MOL0     O24986   2.754   6.749   5.601 -0.6500  0.5748  0.0730
  182MOL0     C24987   2.628   6.724   5.541 -0.7159  0.1380  0.4803
  182MOL0     C24988   2.639   6.770   5.386 -0.4175 -0.3667 -1.4525
  182MOL0     C24989   2.506   6.752   5.319 -0.1337  1.2188  1.0081
  182MOL0     C24990   2.390   6.829   5.378  1.0038 -0.7611  0.2798
  182MOL0     C24991   2.254   6.798   5.314  1.1237 -0.6463 -0.8015
  182MOL0     C24992   2.141   6.872   5.386  0.4881 -0.5855 -0.0553
  182MOL0     C24993   2.001   6.824   5.355 -1.1023 -1.3607  0.9310
  182MOL0     C24994   1.903   6.921   5.415 -0.4513 -0.5859  0.3897
  182MOL0     N24995   1.893   7.044   5.331 -0.1061  0.2476 -0.3702
  182MOL0     C24996   1.810   7.065   5.230  0.8944 -0.7414 -0.1136
  182MOL0     C24997   1.823   7.194   5.200  0.4637  0.5770  0.0223
  182MOL0     C24998   1.768   7.269   5.088 -0.0201  0.4177  0.1838
  182MOL0     C24999   1.612   7.238   5.064  0.0158  0.5338  0.6346
  182MOL0     C25000   1.542   7.363   4.980  0.2372  0.2549  0.3907
  182MOL0     C25001   1.390   7.361   4.995  0.1303  0.6786  0.5980
  182MOL0     O25002   1.359   7.222   4.987  0.2920 -0.0910  0.6447
  182MOL0     C25003   1.231   7.182   5.018 -0.1877  0.7962 -0.1231
  182MOL0     C25004   1.199   7.044   5.031 -0.6109 -0.6109 -0.0789
  182MOL0     C25005   1.070   7.006   5.054  0.7128  0.2827 -0.5456
  182MOL0     C25006   1.038   6.853   5.040  0.6636 -0.7253  0.1752
  182MOL0     C25007   0.959   7.099   5.070 -0.6941  0.0676 -0.0031
  182MOL0     C25008   0.825   7.080   5.106 -0.3500 -0.0813  0.3951
  182MOL0     O25009   0.725   7.164   5.066 -0.4164 -0.2561  0.4716
  182MOL0     C25010   0.606   7.164   5.139  0.0679  0.6728  0.0015
  182MOL0     C25011   0.510   7.062   5.123  1.6722 -0.0373 -0.5666
  182MOL0     C25012   0.382   7.073   5.185  0.1120  0.1430 -0.5979
  182MOL0     C25013   0.360   7.172   5.284 -0.9064 -0.7136 -1.1027
  182MOL0     O25014   0.244   7.184   5.358 -0.0691  0.1943 -0.4424
  182MOL0     C25015   0.121   7.168   5.284  0.6829  0.2068  0.3367
  182MOL0     C25016   0.031   7.277   5.345  0.1613  1.3020  0.1820
  182MOL0     C25017   0.080   7.417   5.347 -0.6586 -0.5499  0.0022
  182MOL0     C25018   0.124   7.474   5.485  0.0298  0.8736  0.3480
  182MOL0     C25019   0.204   7.613   5.479 -0.0797  0.1383 -0.8256
  182MOL0     C25020   0.279   7.616   5.596 -0.0610  0.2915  0.1415
  182MOL0     C25021   0.383   7.728   5.604  0.1239  0.5994 -0.3762
  182MOL0     C25022   0.440   7.739   5.749  0.3009 -0.6320  0.4938
  182MOL0    Cl25023   0.565   7.615   5.774 -0.2213  0.1822 -0.2595
  182MOL0     C25024   0.469   7.268   5.311 -0.7801 -0.6998 -0.1123
  182MOL0     C25025   0.578   7.268   5.227 -0.2853  0.2951  0.4216
  182MOL0     O25026   0.809   6.986   5.186  0.0043 -0.3060  0.4224
  182MOL0     C25027   0.999   7.234   5.051  0.0826 -0.5896 -0.6632
  182MOL0     C25028   1.128   7.278   5.016  0.2540  0.2779 -0.7084
  182MOL0     N25029   1.906   7.255   5.288  0.0384  0.3822  1.0258
  182MOL0     N25030   1.947   7.162   5.374 -0.7593 -0.1922  0.8441
  182MOL0     C25031   2.838   6.853   5.800 -0.6487 -0.0311 -0.0801
  182MOL0     C25032   2.829   6.943   5.901  0.0728 -0.0596 -0.1801
  182MOL0     C25033   2.701   7.364   6.070 -0.6625 -0.2396 -1.0850
  182MOL0     C25034   2.583   7.430   6.130  0.1898 -0.1987 -0.6796
  182MOL0     C25035   2.607   7.551   6.197  0.3738 -0.0550 -0.0134
  182MOL0     C25036   2.730   7.606   6.219  0.8668 -0.6923  0.8037
  182MOL0     O25037   2.764   7.713   6.285 -0.5784 -0.0195 -0.4977
  182MOL0     C25038   2.665   7.796   6.346  0.0969 -1.1201  0.1451
  182MOL0     C25039   2.713   7.949   6.354 -0.5757  0.6864  0.6481
  182MOL0     C25040   2.706   8.007   6.216  0.9465  0.5069  0.1371
  182MOL0     C25041   2.791   8.125   6.202  0.3063 -0.1610 -0.5398
  182MOL0     C25042   2.757   8.235   6.114 -0.0589 -1.0622 -0.3145
  182MOL0     C25043   2.722   8.323   6.030  0.2287 -0.8247 -0.6580
  182MOL0     C25044   2.836   7.542   6.162  0.1337  0.8284 -0.3010
  182MOL0     C25045   2.828   7.423   6.082  0.3212 -0.7189 -0.5964
  182MOL0     C25046   2.950   7.358   6.025 -0.1520  0.8144  0.2983
  182MOL0     H25047   2.623   7.153   5.747 -0.6129 -0.1793 -3.1554
  182MOL0     H25048   2.628   6.980   5.575  3.6769 -0.3246 -2.4553
  182MOL0     H25049   2.542   6.759   5.598 -1.3022 -0.5220  0.0219
  182MOL0     H25050   2.609   6.616   5.532 -1.7132  0.4408 -1.9823
  182MOL0     H25051   2.660   6.876   5.400  0.5341 -0.8231  1.4434
  182MOL0     H25052   2.728   6.724   5.341  1.5605 -1.2261  2.8023
  182MOL0     H25053   2.518   6.781   5.214 -3.2200 -0.5955  0.0259
  182MOL0     H25054   2.477   6.649   5.343  0.6256  1.1483  1.6464
  182MOL0     H25055   2.371   6.823   5.486 -5.6100  2.9413 -0.1299
  182MOL0     H25056   2.413   6.931   5.347  2.3723 -0.9638  0.5683
  182MOL0     H25057   2.237   6.690   5.308  1.3069 -0.7192 -0.0198
  182MOL0     H25058   2.260   6.830   5.209 -0.5005 -1.8785 -1.3066
  182MOL0     H25059   2.147   6.857   5.494  0.1210 -0.2513  0.0180
  182MOL0     H25060   2.141   6.980   5.365 -1.2184 -0.4014  0.6867
  182MOL0     H25061   1.987   6.722   5.392  5.1035 -1.5252  4.1478
  182MOL0     H25062   1.979   6.822   5.248  1.1552 -2.4065  0.4265
  182MOL0     H25063   1.804   6.875   5.418  0.0235 -1.5665  2.3092
  182MOL0     H25064   1.930   6.935   5.520  2.9146 -4.0737  0.1829
  182MOL0     H25065   1.751   6.991   5.177 -0.8923  0.5452 -0.0196
  182MOL0     H25066   1.828   7.244   5.000 -1.7536  0.1619 -0.9698
  182MOL0     H25067   1.788   7.375   5.107  1.2196  0.2725 -0.2198
  182MOL0     H25068   1.605   7.163   4.985  0.8093  1.7377 -0.6381
  182MOL0     H25069   1.560   7.210   5.155 -0.0797  0.4906  0.5666
  182MOL0     H25070   1.571   7.456   5.030  0.3121 -0.6476  2.1014
  182MOL0     H25071   1.571   7.368   4.875 -0.5909  2.9714  0.2337
  182MOL0     H25072   1.360   7.406   5.090  0.2287  0.1143  0.8993
  182MOL0     H25073   1.351   7.431   4.920  0.6312  0.7234  0.3774
  182MOL0     H25074   1.282   6.974   5.027  1.4695  1.1897  4.6523
  182MOL0     H25075   0.966   6.826   5.118  1.1261 -0.3506  0.7403
  182MOL0     H25076   1.129   6.793   5.052  2.4041  1.8580  0.7156
  182MOL0     H25077   0.986   6.842   4.945 -1.1520  2.1871  0.7185
  182MOL0     H25078   0.514   6.982   5.049 -0.3762  1.9982 -3.0482
  182MOL0     H25079   0.311   6.996   5.156 -1.3840  1.1646  0.2092
  182MOL0     H25080   0.132   7.185   5.177 -0.1297 -2.0737 -0.1524
  182MOL0     H25081   0.074   7.070   5.295  2.2074 -0.8304 -1.8383
  182MOL0     H25082  -0.067   7.270   5.296  0.1604 -0.9708  0.4017
  182MOL0     H25083   0.020   7.252   5.451  1.4308 -1.2900 -0.2128
  182MOL0     H25084   0.005   7.484   5.304 -1.4739 -0.4884  1.4719
  182MOL0     H25085   0.175   7.423   5.293 -0.1551  0.4010  0.9602
  182MOL0     H25086   0.175   7.394   5.538  0.9233  0.1719 -1.5063
  182MOL0     H25087   0.031   7.501   5.537 -0.3296 -1.1924  0.8630
  182MOL0     H25088   0.280   7.612   5.400  1.2155  0.5966  0.3805
  182MOL0     H25089   0.131   7.693   5.464  0.9855  0.6307 -4.1882
  182MOL0     H25090   0.347   7.532   5.577 -0.2045  0.2213 -0.0684
  182MOL0     H25091   0.220   7.597   5.686  0.0092  1.8918  0.5524
  182MOL0     H25092   0.346   7.825   5.570 -1.0904  0.4163  0.3350
  182MOL0     H25093   0.462   7.700   5.534  4.1091  0.6999  3.6454
  182MOL0     H25094   0.362   7.719   5.823 -0.9374 -1.0098 -0.8579
  182MOL0     H25095   0.482   7.839   5.760  2.0740 -1.2334 -0.3157
  182MOL0     H25096   0.459   7.340   5.391  0.3825 -0.1783 -0.4087
  182MOL0     H25097   0.643   7.354   5.244  0.9168 -0.4881 -0.1082
  182MOL0     H25098   0.933   7.319   5.059  0.3672 -0.1959 -2.2029
  182MOL0     H25099   1.140   7.382   4.988  2.3558  2.0227  5.1869
  182MOL0     H25100   2.901   6.765   5.815 -0.7116  0.1334  1.3144
  182MOL0     H25101   2.873   6.918   5.997  0.1109 -4.2928 -1.1140
  182MOL0     H25102   2.483   7.391   6.114 -0.4563  1.3187 -0.5597
  182MOL0     H25103   2.513   7.586   6.240 -1.2942 -1.4446 -2.3362
  182MOL0     H25104   2.575   7.788   6.285 -0.7962 -0.0348  1.2755
  182MOL0     H25105   2.621   7.755   6.437 -0.7927  2.8829  1.7273
  182MOL0     H25106   2.806   7.958   6.409  0.4301 -0.6661 -0.7478
  182MOL0     H25107   2.638   8.013   6.403 -2.1743  0.6803 -1.6016
  182MOL0     H25108   2.723   7.941   6.131 -1.6069  0.3491 -0.3118
  182MOL0     H25109   2.610   8.057   6.199  0.2878  0.1850  2.5025
  182MOL0     H25110   2.890   8.086   6.179  1.1277 -1.3721  4.0632
  182MOL0     H25111   2.798   8.177   6.298  3.0223 -0.6398 -0.4160
  182MOL0     H25112   2.679   8.400   5.969  0.1466 -1.9061 -2.0232
  182MOL0     H25113   2.931   7.580   6.199  1.1762  0.8664 -2.8303
  182MOL0     H25114   2.938   7.301   5.933  0.8919  0.8344  0.1428
  182MOL0     H25115   3.024   7.435   6.004  0.7629  0.5016  2.1136
  182MOL0     H25116   3.003   7.291   6.095  0.4472 -2.8809 -3.3248
  183MOL0     O25117   8.119  10.960  10.478  0.2110  0.6145 -0.0442
  183MOL0     C25118   8.025  11.038  10.489 -0.3184 -0.6893  0.6074
  183MOL0     O25119   7.897  11.003  10.512  0.2448  0.7530  0.7987
  183MOL0     C25120   7.859  10.876  10.501 -0.5477  0.6382 -0.3069
  183MOL0     C25121   7.772  10.831  10.599  0.1206  1.0412  0.0664
  183MOL0     C25122   7.737  10.693  10.604 -0.2114 -0.4543 -0.0053
  183MOL0     C25123   7.790  10.599  10.505 -1.3804 -0.8262 -0.8015
  183MOL0     O25124   7.766  10.470  10.530  0.2535 -0.1400 -0.3286
  183MOL0     C25125   7.789  10.360  10.436 -0.5687 -0.1140  0.0377
  183MOL0     C25126   7.689  10.345  10.321 -0.1735 -0.2633  0.1652
  183MOL0     C25127   7.553  10.287  10.364  1.4535  0.7268  0.2945
  183MOL0     C25128   7.454  10.299  10.244 -0.3031  0.4384  0.7499
  183MOL0     C25129   7.325  10.219  10.263 -1.0294 -0.4186 -0.8114
  183MOL0     C25130   7.334  10.065  10.245  0.1645 -0.8308  0.5080
  183MOL0     C25131   7.190  10.005  10.212 -0.7577  0.7270 -0.3592
  183MOL0     C25132   7.167   9.868  10.269 -0.5873 -0.0503 -0.1649
  183MOL0     N25133   7.186   9.879  10.418 -0.2434 -0.5079  0.2727
  183MOL0     C25134   7.096   9.925  10.504  0.2495 -0.3714  0.2987
  183MOL0     C25135   7.152   9.927  10.625 -0.1181 -0.7894 -0.5271
  183MOL0     C25136   7.103   9.975  10.768  0.5828  0.3971  0.5988
  183MOL0     C25137   7.123   9.859  10.873 -0.6126  0.1248 -0.0487
  183MOL0     C25138   7.094   9.919  11.012 -0.5995 -0.8916  0.4363
  183MOL0     C25139   7.128   9.835  11.135 -0.5044  0.4983  0.1392
  183MOL0     O25140   7.092   9.693  11.118 -0.1005 -0.9935  0.6411
  183MOL0     C25141   7.083   9.628  11.238  0.2482 -0.9758 -0.7833
  183MOL0     C25142   7.132   9.679  11.362  0.9948 -0.2486 -0.3068
  183MOL0     C25143   7.113   9.607  11.482  0.8852 -0.4128 -0.0155
  183MOL0     C25144   7.161   9.672  11.618  0.0578 -0.1860  0.1020
  183MOL0     C25145   7.049   9.477  11.486  0.3284  0.5404  0.0969
  183MOL0     C25146   7.021   9.398  11.606  0.3028  0.6270  0.9187
  183MOL0     O25147   6.949   9.290  11.578  0.0184  0.2179 -0.5544
  183MOL0     C25148   6.877   9.241  11.681  0.0936 -0.0177  1.0783
  183MOL0     C25149   6.921   9.163  11.787 -0.6728 -0.5227 -0.4297
  183MOL0     C25150   6.835   9.116  11.886 -0.3730 -0.5621  0.0300
  183MOL0     C25151   6.707   9.167  11.890  1.1385  0.4922 -0.4661
  183MOL0     O25152   6.626   9.120  11.995  0.0328 -0.1353 -1.1693
  183MOL0     C25153   6.524   9.038  11.934 -0.4037  0.0802  0.1627
  183MOL0     C25154   6.591   8.902  11.930 -1.4329  0.1177  0.2168
  183MOL0     C25155   6.665   8.844  12.045 -0.0165 -0.5400 -0.4225
  183MOL0     C25156   6.576   8.832  12.173 -0.5625  0.5006  0.8760
  183MOL0     C25157   6.647   8.756  12.286  0.3553  0.0095 -1.0801
  183MOL0     C25158   6.624   8.603  12.266 -1.3265 -0.3381 -0.4785
  183MOL0     C25159   6.678   8.540  12.392  0.2284  0.1821  0.0850
  183MOL0     C25160   6.683   8.388  12.371  0.0399 -0.7039  0.2056
  183MOL0    Cl25161   6.772   8.308  12.511  0.0543 -0.1459 -0.0370
  183MOL0     C25162   6.656   9.253  11.790 -0.6083  0.1061  1.1014
  183MOL0     C25163   6.746   9.299  11.685  1.1784  0.2133 -0.3383
  183MOL0     O25164   7.063   9.429  11.718 -0.1795  0.2394  0.4775
  183MOL0     C25165   7.019   9.424  11.352  0.0660 -0.5427  0.9301
  183MOL0     C25166   7.033   9.492  11.230  0.8420 -0.3304  0.0617
  183MOL0     N25167   7.284   9.887  10.610  0.3406  0.0246  0.3820
  183MOL0     N25168   7.296   9.833  10.492 -0.0477 -0.7571 -0.0726
  183MOL0     C25169   7.866  10.656  10.397 -0.3563 -0.7875  0.1559
  183MOL0     C25170   7.907  10.792  10.404  0.1269 -0.1760 -0.8546
  183MOL0     C25171   8.044  11.178  10.494  0.2689  1.1268 -0.2612
  183MOL0     C25172   7.980  11.249  10.598 -0.2603 -0.1658 -0.0244
  183MOL0     C25173   7.977  11.393  10.605  0.3668  0.6218  0.2599
  183MOL0     C25174   8.047  11.454  10.505  0.8242  0.0160  0.8312
  183MOL0     O25175   8.053  11.589  10.523  0.6974 -0.9063 -1.3786
  183MOL0     C25176   8.085  11.679  10.418 -0.7572 -0.3988 -0.0673
  183MOL0     C25177   7.960  11.694  10.313 -0.2263 -0.5290 -0.8382
  183MOL0     C25178   8.011  11.740  10.178  0.8287 -0.8035 -0.6529
  183MOL0     C25179   8.004  11.893  10.149 -0.4084  0.6343  0.8541
  183MOL0     C25180   8.017  11.917  10.005  0.3388 -0.0772 -0.8540
  183MOL0     C25181   8.038  11.936   9.889  0.2995 -0.3437  1.3183
  183MOL0     C25182   8.105  11.383  10.383  0.2409 -0.1653 -1.1288
  183MOL0     C25183   8.104  11.248  10.386 -1.4248  0.3009 -0.0888
  183MOL0     C25184   8.171  11.173  10.273 -0.4406 -1.4890  0.2300
  183MOL0     H25185   7.743  10.900  10.678 -1.6273 -0.5930  0.9485
  183MOL0     H25186   7.670  10.663  10.685  1.0536  0.6111  1.4984
  183MOL0     H25187   7.801  10.265  10.490 -0.8998  0.9589  2.1152
  183MOL0     H25188   7.884  10.386  10.389 -0.4832  1.2796  0.9107
  183MOL0     H25189   7.678  10.445  10.278  0.9464 -0.6541 -1.1033
  183MOL0     H25190   7.734  10.282  10.244 -1.7874 -3.3174  1.5230
  183MOL0     H25191   7.571  10.185  10.399 -1.4885  0.6186  1.7615
  183MOL0     H25192   7.513  10.342  10.450  1.2833  2.6921 -0.9739
  183MOL0     H25193   7.432  10.405  10.231 -1.1214  0.1409 -0.5091
  183MOL0     H25194   7.516  10.278  10.155  0.4630  0.5343  1.2516
  183MOL0     H25195   7.263  10.261  10.183  1.6176  1.5821 -1.9541
  183MOL0     H25196   7.270  10.240  10.354  0.7702  2.7761 -0.3189
  183MOL0     H25197   7.395  10.045  10.156  0.9254 -2.9562  1.4461
  183MOL0     H25198   7.388  10.034  10.334 -1.1149  0.5103  1.8055
  183MOL0     H25199   7.181  10.003  10.103  0.6376 -0.7761 -0.4852
  183MOL0     H25200   7.116  10.073  10.255 -0.6052  1.0257 -0.5664
  183MOL0     H25201   7.069   9.826  10.241 -1.9529  1.4325  2.0942
  183MOL0     H25202   7.253   9.802  10.258  1.2027  1.4453  3.3828
  183MOL0     H25203   6.994   9.947  10.474 -0.0399 -3.7086 -1.6850
  183MOL0     H25204   6.996   9.997  10.757  0.1679 -1.7373 -0.0998
  183MOL0     H25205   7.158  10.065  10.797 -0.2283  1.4359 -0.9070
  183MOL0     H25206   7.061   9.769  10.862 -0.1579  0.0232 -2.1230
  183MOL0     H25207   7.223   9.819  10.855 -1.1682 -0.7664 -1.2813
  183MOL0     H25208   7.144  10.015  10.996  0.2007 -1.6557 -2.2223
  183MOL0     H25209   6.986   9.936  11.017 -0.8775 -2.7953  4.0133
  183MOL0     H25210   7.233   9.843  11.163 -0.7718  1.7926  0.8269
  183MOL0     H25211   7.058   9.870  11.211 -2.0094 -0.4087 -0.7713
  183MOL0     H25212   7.186   9.773  11.368 -1.3462  1.2041 -0.8818
  183MOL0     H25213   7.207   9.601  11.688  1.3503 -0.7973 -1.2995
  183MOL0     H25214   7.076   9.726  11.661  0.1127  0.6298 -0.7755
  183MOL0     H25215   7.233   9.753  11.607 -0.1430 -0.2108 -1.7921
  183MOL0     H25216   7.022   9.122  11.781 -0.2346  0.3750  0.6154
  183MOL0     H25217   6.869   9.048  11.964 -1.9847  0.0699  1.3378
  183MOL0     H25218   6.441   9.029  12.004 -2.0253  2.1552 -1.3371
  183MOL0     H25219   6.490   9.079  11.839  1.0470  0.9985  0.0071
  183MOL0     H25220   6.522   8.819  11.911 -2.1382  0.0108  2.8192
  183MOL0     H25221   6.649   8.899  11.837  0.5023  1.5387  1.2835
  183MOL0     H25222   6.756   8.901  12.064  0.9762 -1.8666 -0.9905
  183MOL0     H25223   6.705   8.747  12.014 -2.5954 -2.3372  1.5010
  183MOL0     H25224   6.483   8.779  12.151 -0.7363 -1.7491  5.6619
  183MOL0     H25225   6.565   8.936  12.206  0.5074  1.2643 -1.0290
  183MOL0     H25226   6.754   8.773  12.297  0.8184 -2.5760 -0.9550
  183MOL0     H25227   6.615   8.790  12.385  3.3901 -2.2685  0.8726
  183MOL0     H25228   6.684   8.572  12.180 -0.0896 -0.5095  0.4131
  183MOL0     H25229   6.519   8.575  12.255 -1.4047  0.2358 -1.2956
  183MOL0     H25230   6.606   8.557  12.472 -0.7592 -3.3604  0.0856
  183MOL0     H25231   6.775   8.578  12.425  0.0173  0.0974  0.8043
  183MOL0     H25232   6.736   8.373  12.277 -0.0941  1.9962 -0.3961
  183MOL0     H25233   6.581   8.349  12.357  0.6417 -1.9997 -0.7038
  183MOL0     H25234   6.557   9.297  11.796 -1.1338 -0.9165  0.3020
  183MOL0     H25235   6.716   9.371  11.610  0.9077  1.5516  0.9942
  183MOL0     H25236   6.964   9.332  11.336  2.8066 -2.4146  1.5922
  183MOL0     H25237   6.991   9.451  11.138  1.7654  1.2488 -1.1214
  183MOL0     H25238   7.912  10.601  10.315 -0.6042 -2.7055  1.2406
  183MOL0     H25239   7.985  10.831  10.340 -1.2930  2.6665 -1.0309
  183MOL0     H25240   7.930  11.186  10.672  1.2220 -0.1645  1.0327
  183MOL0     H25241   7.936  11.456  10.684 -1.0431  0.6104 -0.4258
  183MOL0     H25242   8.112  11.771  10.472 -0.3373  0.5283 -1.7877
  183MOL0     H25243   8.175  11.647  10.364  0.4284 -0.5698  1.9067
  183MOL0     H25244   7.883  11.759  10.354  0.8891 -0.2674  0.9498
  183MOL0     H25245   7.907  11.600  10.296  0.7904 -1.2546 -0.1610
  183MOL0     H25246   8.111  11.701  10.159  1.6677  1.7242 -1.8743
  183MOL0     H25247   7.950  11.678  10.111  1.0633 -1.4089 -0.3213
  183MOL0     H25248   8.098  11.934  10.189 -0.4160 -1.6945  3.5472
  183MOL0     H25249   7.911  11.938  10.182 -1.6201  1.3403 -2.9656
  183MOL0     H25250   8.081  11.960   9.794 -0.2257 -0.0895  1.1399
  183MOL0     H25251   8.153  11.438  10.303 -2.6835  3.6007 -0.5949
  183MOL0     H25252   8.205  11.250  10.203 -4.4045 -0.1904 -0.5511
  183MOL0     H25253   8.262  11.117  10.297  0.9011  0.4198 -0.1908
  183MOL0     H25254   8.103  11.105  10.220 -0.4921 -1.1781 -0.1015
  184MOL0     O25255   6.481   3.226   4.328  0.0789 -0.0410 -0.3359
  184MOL0     C25256   6.552   3.301   4.393 -0.4882 -0.6661  0.0547
  184MOL0     O25257   6.693   3.288   4.407 -0.3840  0.1373  0.7712
  184MOL0     C25258   6.774   3.174   4.395 -0.0145  0.3860  0.6585
  184MOL0     C25259   6.902   3.172   4.451  1.1036 -0.9642 -0.5090
  184MOL0     C25260   6.988   3.063   4.429 -0.5452 -1.1434  0.7688
  184MOL0     C25261   6.949   2.949   4.355  0.7889  0.2296  0.3583
  184MOL0     O25262   7.024   2.832   4.359  0.4834  0.2465  0.2951
  184MOL0     C25263   6.959   2.710   4.323  0.3666 -0.1742  0.2852
  184MOL0     C25264   7.055   2.595   4.316 -0.2314 -0.1794  0.3959
  184MOL0     C25265   7.000   2.470   4.242  0.5193  0.8291 -0.5805
  184MOL0     C25266   7.118   2.378   4.216  0.8479  0.1162  0.9699
  184MOL0     C25267   7.088   2.256   4.133 -0.3765 -0.1952 -0.0334
  184MOL0     C25268   7.222   2.171   4.116 -0.4734  0.2210 -0.1904
  184MOL0     C25269   7.193   2.024   4.072 -0.5915 -0.2946 -0.2498
  184MOL0     C25270   7.172   2.012   3.916  0.6987  0.6924 -0.2463
  184MOL0     N25271   7.117   1.879   3.890 -0.1096 -0.4460 -0.6121
  184MOL0     C25272   6.984   1.863   3.906 -1.1634 -0.2151  0.1420
  184MOL0     C25273   6.967   1.725   3.911  0.5552 -0.1812 -0.0516
  184MOL0     C25274   6.837   1.653   3.939 -0.0843  0.6686  0.6504
  184MOL0     C25275   6.823   1.638   4.088  0.2965 -0.3827  0.4321
  184MOL0     C25276   6.675   1.647   4.145  0.1115  0.6898 -0.8178
  184MOL0     C25277   6.676   1.625   4.302 -0.0198 -0.2222  0.8831
  184MOL0     O25278   6.758   1.725   4.370  0.6270 -0.6440 -0.1560
  184MOL0     C25279   6.710   1.845   4.411 -1.1737 -0.5277 -0.4578
  184MOL0     C25280   6.573   1.869   4.422  0.8651 -0.0755 -0.4012
  184MOL0     C25281   6.529   1.991   4.475  0.1538 -0.1665  0.4357
  184MOL0     C25282   6.381   2.028   4.458 -0.2109  0.1407 -0.8368
  184MOL0     C25283   6.622   2.088   4.512 -0.5197  0.3726  0.2390
  184MOL0     C25284   6.595   2.230   4.554  0.1281  0.5556 -0.7067
  184MOL0     O25285   6.682   2.332   4.510  0.6058 -0.1657 -0.1034
  184MOL0     C25286   6.659   2.467   4.543 -0.0891  0.0085  0.2816
  184MOL0     C25287   6.748   2.534   4.630 -0.1304 -0.6344 -0.2169
  184MOL0     C25288   6.715   2.665   4.659 -0.6105  0.1617  0.7368
  184MOL0     C25289   6.606   2.737   4.611  0.3969 -0.3175  0.8123
  184MOL0     O25290   6.593   2.868   4.655  0.4090  0.4828 -0.4969
  184MOL0     C25291   6.478   2.941   4.598 -0.1650 -1.2535  0.3408
  184MOL0     C25292   6.450   3.072   4.674 -1.1257  0.4681 -0.1767
  184MOL0     C25293   6.314   3.141   4.675 -0.0052  1.0517  0.1126
  184MOL0     C25294   6.198   3.051   4.722  0.3156 -0.5137 -0.3697
  184MOL0     C25295   6.058   3.129   4.731  0.3885 -0.0854  0.0921
  184MOL0     C25296   6.014   3.168   4.588 -0.4724  1.0831 -0.2317
  184MOL0     C25297   5.891   3.259   4.602  0.3489 -0.5443 -0.2588
  184MOL0     C25298   5.845   3.316   4.465  0.3357 -0.4244 -0.0715
  184MOL0    Cl25299   5.963   3.436   4.404 -0.5637  0.1852 -0.3463
  184MOL0     C25300   6.513   2.660   4.537 -0.3713 -0.2204 -0.7199
  184MOL0     C25301   6.535   2.532   4.502 -0.4603 -0.6182 -0.4511
  184MOL0     O25302   6.507   2.238   4.637  0.6712 -0.1502  0.0878
  184MOL0     C25303   6.755   2.054   4.505 -0.0499  0.0622 -0.2736
  184MOL0     C25304   6.800   1.938   4.456  0.1088 -0.6480 -0.3569
  184MOL0     N25305   7.091   1.665   3.883 -0.6476 -0.1711 -0.2102
  184MOL0     N25306   7.185   1.755   3.881  0.0735  0.1135  0.7255
  184MOL0     C25307   6.807   2.951   4.316 -0.7937 -0.3045  0.0760
  184MOL0     C25308   6.723   3.057   4.330  0.0171 -0.0230 -0.4167
  184MOL0     C25309   6.488   3.391   4.487  0.0905 -0.0307 -0.5530
  184MOL0     C25310   6.520   3.399   4.621  1.5527  0.8924 -0.9190
  184MOL0     C25311   6.453   3.481   4.710 -1.1293 -0.6453  0.6002
  184MOL0     C25312   6.349   3.565   4.676  0.3419  1.8324  0.3162
  184MOL0     O25313   6.291   3.661   4.751 -0.0941 -0.3231  0.7454
  184MOL0     C25314   6.300   3.653   4.892  0.5132  0.4101 -0.3875
  184MOL0     C25315   6.223   3.539   4.958  0.4490  0.3715 -0.2605
  184MOL0     C25316   6.074   3.525   4.917  0.3125 -0.2694  0.3009
  184MOL0     C25317   5.989   3.650   4.950 -0.0001 -0.6045 -0.8884
  184MOL0     C25318   5.981   3.666   5.099  0.0638  0.7201  0.5554
  184MOL0     C25319   5.959   3.690   5.218 -0.1990  0.2132  0.0530
  184MOL0     C25320   6.316   3.555   4.541 -0.1580 -0.4555  0.4718
  184MOL0     C25321   6.373   3.465   4.446 -0.6931 -0.2351 -0.1000
  184MOL0     C25322   6.319   3.457   4.309  0.4135 -0.3578  1.0149
  184MOL0     H25323   6.941   3.261   4.500  2.1629 -2.2269  1.0676
  184MOL0     H25324   7.085   3.088   4.471 -0.1425  1.1729 -1.2920
  184MOL0     H25325   6.920   2.723   4.222 -1.1622 -3.8937  0.2082
  184MOL0     H25326   6.874   2.688   4.389 -0.2632  0.0439 -0.4402
  184MOL0     H25327   7.146   2.621   4.262 -2.7169  0.5202 -3.9295
  184MOL0     H25328   7.079   2.571   4.420 -1.2289  1.1892  0.9806
  184MOL0     H25329   6.925   2.436   4.314  0.2822  1.7691 -0.3653
  184MOL0     H25330   6.951   2.497   4.148 -1.6004 -0.4330  0.0955
  184MOL0     H25331   7.193   2.434   4.160  0.1908  1.6659  1.5737
  184MOL0     H25332   7.159   2.341   4.310  1.0760 -0.4593  0.6480
  184MOL0     H25333   7.044   2.290   4.039 -2.8582 -0.2302  1.0348
  184MOL0     H25334   7.019   2.190   4.185  1.9336 -2.0989  0.7995
  184MOL0     H25335   7.293   2.216   4.046 -0.4990  2.4929  1.1188
  184MOL0     H25336   7.277   2.180   4.210 -0.2921  0.7451 -0.3423
  184MOL0     H25337   7.110   1.987   4.133 -1.4555 -0.6485 -1.6096
  184MOL0     H25338   7.272   1.949   4.086 -0.1141 -0.3764 -2.9024
  184MOL0     H25339   7.099   2.089   3.891  0.5423 -0.0604 -2.3072
  184MOL0     H25340   7.269   2.027   3.867  1.5094  0.4040  1.2340
  184MOL0     H25341   6.907   1.936   3.929 -0.8405  1.3084 -3.0171
  184MOL0     H25342   6.843   1.553   3.895 -1.6156 -0.2614  2.4054
  184MOL0     H25343   6.766   1.719   3.887  1.0371  0.2643 -1.5194
  184MOL0     H25344   6.870   1.544   4.119  1.8623 -0.0146 -0.7284
  184MOL0     H25345   6.889   1.712   4.135  2.3796 -2.4727  0.9931
  184MOL0     H25346   6.628   1.746   4.146 -2.3204 -0.3889 -1.2031
  184MOL0     H25347   6.623   1.571   4.085 -0.8672  0.1213  0.7004
  184MOL0     H25348   6.577   1.615   4.347  0.1306 -1.3513  0.9893
  184MOL0     H25349   6.726   1.533   4.332 -1.3108 -0.6834  1.6877
  184MOL0     H25350   6.497   1.800   4.388  0.0738 -0.0354  1.1912
  184MOL0     H25351   6.326   1.975   4.536 -1.1992  0.0459 -1.5630
  184MOL0     H25352   6.344   1.977   4.368 -1.5290 -4.1534  1.8447
  184MOL0     H25353   6.358   2.135   4.467  1.4848  0.4149  0.8298
  184MOL0     H25354   6.834   2.493   4.681  1.0109  1.7194 -0.1213
  184MOL0     H25355   6.785   2.700   4.735 -0.6977  1.3895  0.2675
  184MOL0     H25356   6.503   2.963   4.494 -1.7118 -0.3957  0.1205
  184MOL0     H25357   6.390   2.877   4.601 -0.5672 -0.7220  0.0828
  184MOL0     H25358   6.463   3.051   4.781  3.2948  2.7804 -0.0292
  184MOL0     H25359   6.537   3.127   4.636  1.0969 -0.9933  2.4394
  184MOL0     H25360   6.294   3.175   4.573 -1.9163 -0.5171 -0.1042
  184MOL0     H25361   6.315   3.221   4.749  1.4521  1.0808  0.0814
  184MOL0     H25362   6.219   3.006   4.819  1.2966  1.3472  0.3268
  184MOL0     H25363   6.187   2.966   4.653 -2.4175 -1.9479  1.6556
  184MOL0     H25364   5.981   3.088   4.796  0.1037  3.3940  2.2204
  184MOL0     H25365   6.079   3.226   4.776 -4.1617 -0.6961  4.3123
  184MOL0     H25366   5.992   3.087   4.517 -0.1778 -0.2852  1.1826
  184MOL0     H25367   6.094   3.225   4.539 -0.1186  1.0452  0.2899
  184MOL0     H25368   5.916   3.337   4.673  2.9632 -0.6393 -0.9619
  184MOL0     H25369   5.812   3.204   4.653  0.8692 -0.9644  0.1148
  184MOL0     H25370   5.749   3.369   4.458  1.1444  0.9201 -1.6485
  184MOL0     H25371   5.835   3.227   4.401  2.7664 -3.8845  3.8999
  184MOL0     H25372   6.424   2.709   4.499  2.1064  3.7472 -2.1604
  184MOL0     H25373   6.471   2.468   4.442  0.1878 -0.1198 -1.7131
  184MOL0     H25374   6.829   2.123   4.544 -0.5843  2.2170 -2.7394
  184MOL0     H25375   6.903   1.907   4.468  0.1846  0.0375  1.0035
  184MOL0     H25376   6.772   2.857   4.275  0.3266 -0.0438 -1.5917
  184MOL0     H25377   6.627   3.052   4.281 -0.3609  0.8761  0.2074
  184MOL0     H25378   6.598   3.338   4.664  2.4285  1.9369 -0.9875
  184MOL0     H25379   6.496   3.489   4.809  0.0543 -0.1968  0.0582
  184MOL0     H25380   6.405   3.662   4.922  0.4533  0.1157 -0.0784
  184MOL0     H25381   6.261   3.742   4.942  0.5485  0.8381 -1.1244
  184MOL0     H25382   6.236   3.545   5.066 -0.4199  2.4157 -0.2253
  184MOL0     H25383   6.270   3.441   4.942 -1.9945 -0.8232 -0.4865
  184MOL0     H25384   6.071   3.503   4.810 -2.9055 -1.9971  0.6309
  184MOL0     H25385   6.020   3.439   4.958  0.4355  0.9222  3.2035
  184MOL0     H25386   5.887   3.640   4.911 -0.6723 -1.1075  0.8749
  184MOL0     H25387   6.044   3.732   4.903 -0.0187 -0.4783 -0.6943
  184MOL0     H25388   5.937   3.717   5.320  1.6992  1.7121  0.1224
  184MOL0     H25389   6.233   3.620   4.518 -2.5992 -2.4292  3.1124
  184MOL0     H25390   6.299   3.556   4.268  1.5323 -0.6074 -0.2155
  184MOL0     H25391   6.379   3.407   4.233 -0.4116  0.0000  0.0962
  184MOL0     H25392   6.232   3.390   4.303  3.2414 -4.2497 -1.1283
  185MOL0     O25393   9.116   8.361   8.736 -0.2116 -1.1514  0.7886
  185MOL0     C25394   9.041   8.436   8.796  0.3479 -0.1746 -0.1270
  185MOL0     O25395   9.076   8.532   8.881 -0.3702 -0.8468 -1.2505
  185MOL0     C25396   9.190   8.510   8.960  0.3947  0.3002  0.2109
  185MOL0     C25397   9.199   8.400   9.042  0.1522  0.4300 -0.0875
  185MOL0     C25398   9.306   8.402   9.136 -0.6322 -0.3034  0.6115
  185MOL0     C25399   9.402   8.503   9.134  0.5251 -0.7249  0.0166
  185MOL0     O25400   9.498   8.509   9.230  0.7554  0.0544  0.0562
  185MOL0     C25401   9.637   8.517   9.188  0.0497  0.1545  0.3388
  185MOL0     C25402   9.732   8.505   9.311 -0.9783 -0.0343 -0.1228
  185MOL0     C25403   9.886   8.487   9.277 -0.5694 -0.1336 -0.4615
  185MOL0     C25404   9.947   8.605   9.216  1.6501  0.2696  0.0056
  185MOL0     C25405  10.099   8.614   9.196  0.0266 -0.9801 -0.3753
  185MOL0     C25406  10.139   8.530   9.082 -0.5387 -0.5095  0.1546
  185MOL0     C25407  10.261   8.578   9.001  1.0168 -0.5962  0.1596
  185MOL0     C25408  10.400   8.549   9.043 -0.8627 -0.1390  0.8811
  185MOL0     N25409  10.422   8.610   9.171  0.3863  0.1697 -0.0085
  185MOL0     C25410  10.436   8.741   9.190  0.5691  0.2446 -0.0076
  185MOL0     C25411  10.451   8.751   9.317 -0.1282 -0.3924 -0.9030
  185MOL0     C25412  10.465   8.876   9.403 -0.2154  0.7674 -0.2562
  185MOL0     C25413  10.439   9.014   9.342 -0.6615  0.8073  0.1393
  185MOL0     C25414  10.404   9.129   9.440 -0.5884 -0.9389 -0.4967
  185MOL0     C25415  10.402   9.265   9.389 -0.4293  0.7899  0.5352
  185MOL0     O25416  10.317   9.295   9.277 -0.0778 -0.1059 -0.6443
  185MOL0     C25417  10.326   9.417   9.218 -0.3836  0.3822 -0.1392
  185MOL0     C25418  10.429   9.517   9.234 -0.2257  0.0082 -0.0591
  185MOL0     C25419  10.438   9.628   9.151  0.5549 -0.3444 -0.4992
  185MOL0     C25420  10.569   9.711   9.164  0.6811  0.5516  0.1772
  185MOL0     C25421  10.344   9.653   9.046 -0.8270  0.4059  0.0178
  185MOL0     C25422  10.355   9.758   8.951 -0.6600 -0.2429  0.5206
  185MOL0     O25423  10.308   9.742   8.821 -0.8424 -0.0258  0.8278
  185MOL0     C25424  10.313   9.853   8.731 -0.3004 -0.5520 -0.2589
  185MOL0     C25425  10.412   9.858   8.634 -0.6569  0.0927  0.8704
  185MOL0     C25426  10.430   9.953   8.538  0.8620 -0.2198  0.6123
  185MOL0     C25427  10.340  10.061   8.544 -0.1502  0.4580  0.3142
  185MOL0     O25428  10.340  10.181   8.473  0.1559  0.3113  0.3298
  185MOL0     C25429  10.434  10.198   8.369  0.3810  0.4179 -0.2885
  185MOL0     C25430  10.468  10.338   8.364 -0.0225 -1.3085 -0.6170
  185MOL0     C25431  10.531  10.399   8.504 -0.0840 -0.1319  0.7626
  185MOL0     C25432  10.558  10.541   8.497 -0.3835 -0.2802 -0.5403
  185MOL0     C25433  10.676  10.582   8.416 -0.1749  0.0815  1.0277
  185MOL0     C25434  10.801  10.581   8.498  0.1900  0.9578 -0.2536
  185MOL0     C25435  10.926  10.631   8.414 -0.0977 -1.3686  0.0241
  185MOL0     C25436  11.027  10.718   8.498 -1.5667 -0.3227 -0.1816
  185MOL0    Cl25437  10.950  10.880   8.530 -0.1141  0.1524  0.2994
  185MOL0     C25438  10.242  10.067   8.640 -0.2862  0.4397 -0.7409
  185MOL0     C25439  10.228   9.963   8.735 -0.5008  0.3028 -0.7301
  185MOL0     O25440  10.394   9.869   8.993 -0.3978  0.2602  0.8745
  185MOL0     C25441  10.244   9.556   9.036 -0.4441 -0.1990  0.8386
  185MOL0     C25442  10.226   9.444   9.121  0.1710 -0.5285 -0.1562
  185MOL0     N25443  10.446   8.625   9.374  0.2956  0.2173  0.0821
  185MOL0     N25444  10.432   8.537   9.285  0.3182  0.0105 -0.3093
  185MOL0     C25445   9.388   8.617   9.050 -1.2803  0.5071  0.4915
  185MOL0     C25446   9.284   8.612   8.959 -0.1389 -0.6415  0.1718
  185MOL0     C25447   8.900   8.425   8.756  0.9289 -1.1284  0.2162
  185MOL0     C25448   8.808   8.531   8.807  0.2119 -0.3881  0.3965
  185MOL0     C25449   8.680   8.535   8.771 -0.0907 -0.5464  0.2605
  185MOL0     C25450   8.641   8.462   8.664  0.2189 -0.6376  0.0228
  185MOL0     O25451   8.509   8.475   8.629  0.1627 -0.1503  0.0283
  185MOL0     C25452   8.449   8.417   8.509 -0.6877 -0.6381 -0.1982
  185MOL0     C25453   8.307   8.456   8.519 -0.2331 -0.7801  0.3416
  185MOL0     C25454   8.232   8.418   8.405  0.0691 -0.0419 -0.3781
  185MOL0     C25455   8.202   8.271   8.402 -1.4627 -0.3107 -0.3269
  185MOL0     C25456   8.093   8.252   8.295 -0.3407 -0.7745 -0.3391
  185MOL0     C25457   8.009   8.255   8.208  0.1378 -0.4347 -0.7790
  185MOL0     C25458   8.715   8.361   8.610 -0.5346 -0.3548  0.2887
  185MOL0     C25459   8.847   8.333   8.651 -0.0269 -1.0593 -0.3602
  185MOL0     C25460   8.924   8.235   8.579 -1.0666 -0.4348  0.1956
  185MOL0     H25461   9.110   8.337   9.040 -0.5903  1.4292 -3.1560
  185MOL0     H25462   9.314   8.325   9.212 -0.7846  0.4968  1.4611
  185MOL0     H25463   9.657   8.613   9.139 -2.5243 -1.7456 -5.2819
  185MOL0     H25464   9.665   8.438   9.118  0.7568  3.9930 -4.3218
  185MOL0     H25465   9.717   8.589   9.379 -1.9413 -1.8246  2.0023
  185MOL0     H25466   9.690   8.419   9.364 -2.4261  0.6883 -0.0409
  185MOL0     H25467   9.936   8.473   9.374 -1.4270  2.8690  0.5181
  185MOL0     H25468   9.904   8.399   9.215  2.5521 -0.3265  0.5731
  185MOL0     H25469   9.894   8.625   9.123 -0.8397 -2.4784  0.6925
  185MOL0     H25470   9.921   8.691   9.278  3.1901 -0.6759  2.0924
  185MOL0     H25471  10.151   8.576   9.285  0.0492 -2.1588 -0.8722
  185MOL0     H25472  10.141   8.712   9.173  1.2075 -0.9732  1.5729
  185MOL0     H25473  10.154   8.429   9.121  2.6164  0.8143  2.8587
  185MOL0     H25474  10.055   8.536   9.012 -1.3036 -2.2651  0.8574
  185MOL0     H25475  10.247   8.686   8.991 -0.3980 -0.8361 -0.6093
  185MOL0     H25476  10.249   8.543   8.898  3.4855 -1.9539  0.2452
  185MOL0     H25477  10.426   8.443   9.048  2.1042  0.4658 -0.0009
  185MOL0     H25478  10.469   8.601   8.977 -0.8017  0.3888  1.3561
  185MOL0     H25479  10.441   8.817   9.113 -1.9064  1.1420  0.6340
  185MOL0     H25480  10.549   8.864   9.472 -1.4749  4.6358  2.2696
  185MOL0     H25481  10.393   8.861   9.485  2.9029 -4.2696  2.0995
  185MOL0     H25482  10.530   9.047   9.290 -1.0045  1.9699  0.2445
  185MOL0     H25483  10.358   9.011   9.268  1.6686  0.9386 -2.5969
  185MOL0     H25484  10.309   9.110   9.490  0.3570 -2.3182  0.8279
  185MOL0     H25485  10.482   9.123   9.517 -0.7758  0.2536 -0.1838
  185MOL0     H25486  10.360   9.331   9.466 -0.6812  0.0705  1.0216
  185MOL0     H25487  10.507   9.281   9.360 -0.4711  0.5420  0.2475
  185MOL0     H25488  10.508   9.502   9.307 -1.4982  0.2391  1.4195
  185MOL0     H25489  10.550   9.806   9.214 -2.2561 -2.0060  4.6688
  185MOL0     H25490  10.622   9.725   9.070  0.0353  1.2024 -0.1021
  185MOL0     H25491  10.639   9.659   9.230  0.3497 -4.7353 -3.0813
  185MOL0     H25492  10.486   9.779   8.639 -0.2353  0.4841  0.9897
  185MOL0     H25493  10.505   9.931   8.463  1.5827 -0.3884  1.3697
  185MOL0     H25494  10.529  10.146   8.382  0.5453  0.7697 -0.0889
  185MOL0     H25495  10.391  10.174   8.271  2.3168  1.6899 -1.5030
  185MOL0     H25496  10.531  10.368   8.280 -0.7889  2.3182 -0.0660
  185MOL0     H25497  10.389  10.411   8.344 -0.4351 -1.0450  1.6321
  185MOL0     H25498  10.628  10.351   8.524  0.4833  0.2364 -0.8930
  185MOL0     H25499  10.467  10.382   8.591  3.2361 -1.1256  3.2358
  185MOL0     H25500  10.575  10.572   8.600 -1.4179 -0.0069 -0.4446
  185MOL0     H25501  10.468  10.597   8.470 -2.4398 -1.3111  3.4630
  185MOL0     H25502  10.690  10.512   8.334 -0.8278  0.1321  0.8665
  185MOL0     H25503  10.656  10.683   8.380 -1.5507 -0.6701 -0.4219
  185MOL0     H25504  10.822  10.479   8.533  2.9403  0.5488 -2.6892
  185MOL0     H25505  10.784  10.642   8.587  0.0423  1.3491 -0.5502
  185MOL0     H25506  10.892  10.699   8.336  0.6267 -2.3930 -1.2175
  185MOL0     H25507  10.980  10.540   8.386  0.5309 -0.4728 -1.8518
  185MOL0     H25508  11.117  10.725   8.435 -3.1319 -1.1904 -2.6626
  185MOL0     H25509  11.044  10.672   8.595 -0.2650  1.0244  0.2759
  185MOL0     H25510  10.191  10.162   8.654  0.7344  0.4855  4.7800
  185MOL0     H25511  10.169   9.980   8.825 -1.1882 -2.3828 -0.5912
  185MOL0     H25512  10.171   9.563   8.956 -0.6251 -2.1860  0.7702
  185MOL0     H25513  10.144   9.375   9.102 -0.7619  0.7588 -0.9955
  185MOL0     H25514   9.458   8.700   9.054 -1.0169  0.2439  1.8809
  185MOL0     H25515   9.280   8.697   8.891  2.6223  0.5755  1.4037
  185MOL0     H25516   8.834   8.604   8.883 -1.4129  0.5458  0.0983
  185MOL0     H25517   8.626   8.611   8.827 -1.5973 -2.5930  1.7479
  185MOL0     H25518   8.507   8.439   8.419 -0.8166  0.7323  0.0213
  185MOL0     H25519   8.453   8.309   8.519  0.1709 -0.9000 -2.5873
  185MOL0     H25520   8.287   8.563   8.533 -0.7837 -0.1516 -4.0650
  185MOL0     H25521   8.261   8.411   8.608 -0.1163 -2.2934 -0.3411
  185MOL0     H25522   8.135   8.466   8.423  0.2921  0.5893 -0.8230
  185MOL0     H25523   8.271   8.453   8.309 -0.7656  1.6943 -0.1199
  185MOL0     H25524   8.164   8.250   8.502 -2.9529  3.4874  0.0697
  185MOL0     H25525   8.293   8.215   8.377  0.4202  2.7738 -0.9331
  185MOL0     H25526   7.926   8.269   8.142 -3.2226 -0.4531  3.0306
  185MOL0     H25527   8.666   8.298   8.536 -0.8857 -0.7221  0.8241
  185MOL0     H25528   9.003   8.291   8.528 -0.4203  0.7530  2.3917
  185MOL0     H25529   8.951   8.159   8.653  1.0323 -1.8730 -1.8802
  185MOL0     H25530   8.864   8.183   8.503  0.6238  1.7738 -2.8614
  186MOL0     O25531   3.330   5.594   6.517  0.7524  0.4187 -0.5701
  186MOL0     C25532   3.391   5.696   6.484 -0.1273  0.6293 -0.7172
  186MOL0     O25533   3.346   5.795   6.395 -0.0784 -0.0967 -0.3121
  186MOL0     C25534   3.223   5.773   6.344  0.0624  1.0694  0.6127
  186MOL0     C25535   3.105   5.728   6.407 -0.7088  1.4606  0.3334
  186MOL0     C25536   2.986   5.735   6.342 -0.4909 -0.0580  0.8228
  186MOL0     C25537   2.986   5.763   6.207 -0.0971  0.3378  0.2905
  186MOL0     O25538   2.861   5.761   6.138  0.2119  0.1772 -0.1035
  186MOL0     C25539   2.842   5.855   6.027 -0.2765  0.0490 -0.5530
  186MOL0     C25540   2.810   6.001   6.071 -0.3943  0.3413 -1.0073
  186MOL0     C25541   2.686   5.997   6.165 -0.4052 -0.9200 -1.1924
  186MOL0     C25542   2.618   6.136   6.179 -0.0665  0.2783  0.4015
  186MOL0     C25543   2.515   6.128   6.300  0.7745 -1.0024  0.4170
  186MOL0     C25544   2.421   6.250   6.304  0.3486 -0.0188  0.1420
  186MOL0     C25545   2.284   6.229   6.376  0.6451  0.6046 -0.9153
  186MOL0     C25546   2.302   6.156   6.513 -0.3702  0.3073 -0.1946
  186MOL0     N25547   2.376   6.243   6.615  0.7471  0.3462  0.0272
  186MOL0     C25548   2.508   6.272   6.618  0.1402  0.5518  0.5037
  186MOL0     C25549   2.519   6.353   6.729  0.0074 -1.0010  0.1357
  186MOL0     C25550   2.645   6.395   6.791 -0.4830 -0.6319 -0.8502
  186MOL0     C25551   2.709   6.514   6.708  0.6542  0.2645 -0.1293
  186MOL0     C25552   2.762   6.472   6.571 -0.4601 -0.2082  0.3106
  186MOL0     C25553   2.830   6.596   6.504  1.0707  0.5199 -0.8420
  186MOL0     O25554   2.897   6.557   6.392  0.1087 -0.3844  0.1967
  186MOL0     C25555   2.956   6.640   6.304  0.5176  0.1809  0.5722
  186MOL0     C25556   2.976   6.770   6.320 -0.7495 -0.9348 -1.6694
  186MOL0     C25557   3.045   6.848   6.231  0.7396  0.5261  1.0313
  186MOL0     C25558   3.063   6.996   6.270 -0.6734  0.4756  0.4585
  186MOL0     C25559   3.088   6.805   6.107  0.3928  0.2596  0.5551
  186MOL0     C25560   3.153   6.891   5.994  0.3733  0.6150 -0.3358
  186MOL0     O25561   3.178   7.019   6.014  0.4874  0.2940  0.0818
  186MOL0     C25562   3.201   7.113   5.917  0.5980 -0.5956 -0.8521
  186MOL0     C25563   3.124   7.112   5.791  0.2154 -0.4718  0.1068
  186MOL0     C25564   3.143   7.226   5.710  1.1088 -0.6253 -0.8415
  186MOL0     C25565   3.246   7.316   5.728  0.0502  0.0556 -1.2472
  186MOL0     O25566   3.245   7.430   5.644 -0.0202 -0.2435 -0.3738
  186MOL0     C25567   3.362   7.501   5.626  0.8389 -0.2853  0.2823
  186MOL0     C25568   3.352   7.620   5.518 -0.3153  0.0573 -0.5069
  186MOL0     C25569   3.229   7.709   5.541 -0.5217  0.9316 -0.6417
  186MOL0     C25570   3.250   7.824   5.444 -0.7078 -0.3834  0.1224
  186MOL0     C25571   3.129   7.916   5.436 -0.0607 -0.3636 -0.0213
  186MOL0     C25572   3.115   7.999   5.558 -0.7255  0.1821  1.0717
  186MOL0     C25573   2.997   8.087   5.528 -0.1084 -0.1899 -0.2918
  186MOL0     C25574   2.989   8.195   5.631  0.0853  0.0497 -0.8037
  186MOL0    Cl25575   2.940   8.116   5.787 -0.0644 -0.4533  0.0618
  186MOL0     C25576   3.326   7.312   5.841 -0.1767  0.7312  0.1875
  186MOL0     C25577   3.307   7.209   5.932 -0.3823  0.5518 -0.4054
  186MOL0     O25578   3.174   6.837   5.896 -0.0926  0.0813  0.2347
  186MOL0     C25579   3.064   6.666   6.085 -0.7819 -0.2719  0.5327
  186MOL0     C25580   3.008   6.587   6.187 -0.2168  0.6344 -0.0653
  186MOL0     N25581   2.395   6.400   6.768 -0.5250 -0.3071  0.6734
  186MOL0     N25582   2.315   6.324   6.702  1.4265 -0.4790 -0.0212
  186MOL0     C25583   3.103   5.785   6.140 -0.1872 -0.2957  0.3603
  186MOL0     C25584   3.220   5.805   6.207 -0.0246 -0.7279 -0.5892
  186MOL0     C25585   3.529   5.708   6.539 -0.4792  0.6036 -0.3389
  186MOL0     C25586   3.550   5.647   6.667 -0.3898  0.3917  1.2105
  186MOL0     C25587   3.674   5.651   6.728  0.0734 -0.7585 -0.0345
  186MOL0     C25588   3.781   5.729   6.670 -0.4238  0.1950 -1.1507
  186MOL0     O25589   3.904   5.760   6.733 -0.2000  0.5294 -0.3152
  186MOL0     C25590   3.920   5.709   6.865 -0.0060  0.1945 -0.2049
  186MOL0     C25591   4.041   5.760   6.931  0.2362 -0.0600 -0.3331
  186MOL0     C25592   4.043   5.918   6.924 -0.8296 -0.2745 -1.1448
  186MOL0     C25593   4.149   5.977   7.016 -0.1915  0.2825 -0.8169
  186MOL0     C25594   4.277   5.958   6.956 -0.1549  0.4634  0.6175
  186MOL0     C25595   4.380   5.934   6.890  0.7088  0.3135 -0.2540
  186MOL0     C25596   3.760   5.791   6.554  0.0297  0.9070  0.1236
  186MOL0     C25597   3.631   5.777   6.487 -0.6349 -1.0758  0.6499
  186MOL0     C25598   3.624   5.837   6.349  0.0556  0.3301 -0.2250
  186MOL0     H25599   3.119   5.700   6.511  3.0502  1.8098  0.0391
  186MOL0     H25600   2.890   5.716   6.390  0.2834 -2.4098  1.5430
  186MOL0     H25601   2.762   5.830   5.957 -1.2678  2.2190 -0.2794
  186MOL0     H25602   2.929   5.854   5.961 -0.2014 -1.5735 -0.4778
  186MOL0     H25603   2.891   6.044   6.132 -0.4626 -0.4486 -0.3365
  186MOL0     H25604   2.789   6.067   5.986 -4.8608  1.9945  1.0404
  186MOL0     H25605   2.611   5.926   6.128 -0.8651 -1.3573  0.5226
  186MOL0     H25606   2.718   5.968   6.265 -0.1689 -2.8432 -1.7876
  186MOL0     H25607   2.697   6.210   6.193  2.8117 -1.6523 -3.8102
  186MOL0     H25608   2.567   6.163   6.086 -0.9404 -1.7185  0.2473
  186MOL0     H25609   2.579   6.107   6.386  1.8093  0.2819  0.0076
  186MOL0     H25610   2.447   6.042   6.293 -0.7322  0.3048 -3.3609
  186MOL0     H25611   2.463   6.334   6.360  1.6147 -1.9614  2.3015
  186MOL0     H25612   2.392   6.285   6.204 -0.0689 -1.8948 -0.4419
  186MOL0     H25613   2.213   6.174   6.313 -1.6969 -0.8991  2.7001
  186MOL0     H25614   2.246   6.329   6.400  1.3310  0.5480  0.5013
  186MOL0     H25615   2.216   6.108   6.561  1.2461 -0.6342  1.9273
  186MOL0     H25616   2.372   6.072   6.507 -1.8074 -1.0378  0.8271
  186MOL0     H25617   2.584   6.217   6.563 -2.3863 -2.1214 -0.5757
  186MOL0     H25618   2.721   6.317   6.795 -0.5522 -0.6611  0.0700
  186MOL0     H25619   2.641   6.425   6.896  5.2665  2.3816 -1.1007
  186MOL0     H25620   2.636   6.595   6.698  0.8192  0.7346  2.0090
  186MOL0     H25621   2.795   6.551   6.766 -0.1936  1.4459  0.4235
  186MOL0     H25622   2.832   6.389   6.586 -2.2266 -1.2563  3.6824
  186MOL0     H25623   2.680   6.435   6.508 -1.6337  1.4006  0.8253
  186MOL0     H25624   2.753   6.667   6.474 -0.0074 -0.0395  0.5153
  186MOL0     H25625   2.900   6.649   6.569 -1.5795  4.1199 -0.6323
  186MOL0     H25626   2.949   6.821   6.411 -2.7505 -3.1763 -0.9186
  186MOL0     H25627   3.018   7.033   6.362  1.8189  1.6167  1.2848
  186MOL0     H25628   3.028   7.060   6.188  0.8326  1.8520  0.8445
  186MOL0     H25629   3.169   7.020   6.276 -0.7032  0.5835  0.5566
  186MOL0     H25630   3.051   7.045   5.748  2.7115 -1.3188 -3.2079
  186MOL0     H25631   3.084   7.251   5.623 -1.6058 -1.3176  0.6905
  186MOL0     H25632   3.395   7.539   5.723 -0.6480  3.5792 -0.5290
  186MOL0     H25633   3.435   7.437   5.576 -1.2719 -0.8589 -2.2863
  186MOL0     H25634   3.446   7.675   5.517  1.5817 -2.9299 -2.1204
  186MOL0     H25635   3.331   7.574   5.421 -1.1477  2.1339 -1.3661
  186MOL0     H25636   3.219   7.737   5.646 -1.2391 -1.6510  0.0468
  186MOL0     H25637   3.135   7.660   5.514 -0.4447  1.0724 -1.1755
  186MOL0     H25638   3.283   7.786   5.347 -2.3214  1.8853 -1.4283
  186MOL0     H25639   3.335   7.887   5.472 -0.6177  0.7027 -2.3866
  186MOL0     H25640   3.146   7.981   5.349  1.3824 -3.0139 -1.8548
  186MOL0     H25641   3.040   7.854   5.424  0.6869 -1.3688 -0.4821
  186MOL0     H25642   3.203   8.062   5.572  0.8452 -1.5264 -0.5684
  186MOL0     H25643   3.111   7.931   5.644  0.4989  2.0569  2.7284
  186MOL0     H25644   2.900   8.038   5.532  0.0902 -0.5490  2.8844
  186MOL0     H25645   3.013   8.129   5.428  2.4583 -0.4642 -0.0831
  186MOL0     H25646   2.912   8.267   5.601  0.1065  0.3126 -0.2468
  186MOL0     H25647   3.089   8.237   5.644 -0.0280  0.5443 -1.4471
  186MOL0     H25648   3.411   7.376   5.864  0.7482  0.7252 -2.7723
  186MOL0     H25649   3.351   7.213   6.031 -2.0689  2.8147  0.3468
  186MOL0     H25650   3.098   6.604   6.002  2.2157 -0.3400  1.7030
  186MOL0     H25651   3.008   6.480   6.166  3.8485  0.6893 -1.2434
  186MOL0     H25652   3.115   5.787   6.032 -2.8545 -0.5174 -0.0169
  186MOL0     H25653   3.304   5.843   6.149 -0.0170 -0.1110 -0.1930
  186MOL0     H25654   3.475   5.578   6.704  0.8708 -0.7412  1.6845
  186MOL0     H25655   3.686   5.612   6.828  0.6197 -0.9215 -0.1567
  186MOL0     H25656   3.828   5.725   6.922 -0.1431  0.7866 -0.5836
  186MOL0     H25657   3.930   5.601   6.865  1.1913  0.2743  0.7946
  186MOL0     H25658   4.127   5.723   6.875  2.7099  4.9097 -0.3905
  186MOL0     H25659   4.038   5.715   7.031  2.8716 -2.4562 -1.2096
  186MOL0     H25660   4.065   5.948   6.821  3.1244  0.4413 -0.2612
  186MOL0     H25661   3.942   5.942   6.957 -0.1712  0.8976  0.1263
  186MOL0     H25662   4.137   5.912   7.103 -1.4021  0.3564 -0.9048
  186MOL0     H25663   4.124   6.081   7.039 -0.0641 -0.2745  2.3189
  186MOL0     H25664   4.469   5.937   6.831  1.6242  2.1125  1.1337
  186MOL0     H25665   3.838   5.842   6.498 -0.5179  0.7653 -0.7873
  186MOL0     H25666   3.594   5.759   6.278 -1.5106  0.7827 -0.0994
  186MOL0     H25667   3.542   5.910   6.355  1.5712  2.5737 -3.8523
  186MOL0     H25668   3.715   5.882   6.309  0.7849 -2.0024 -1.3820
  187MOL0     O25669   5.199   1.920   1.411  0.4028 -0.3549  0.3367
  187MOL0     C25670   5.303   1.920   1.463 -0.7227 -0.1871  0.1525
  187MOL0     O25671   5.426   1.926   1.391  0.6546  0.4152 -0.2911
  187MOL0     C25672   5.416   1.909   1.256  0.0146  0.6761 -0.1528
  187MOL0     C25673   5.490   1.786   1.215  0.6103 -0.0004  0.2034
  187MOL0     C25674   5.484   1.748   1.086 -0.4694 -0.2313  0.8070
  187MOL0     C25675   5.435   1.834   0.986  0.8355  0.0792  0.4493
  187MOL0     O25676   5.421   1.804   0.848 -0.3377 -0.4048  0.2528
  187MOL0     C25677   5.516   1.725   0.782  0.2081  0.0620 -0.4712
  187MOL0     C25678   5.664   1.751   0.816  0.4564  0.1721 -0.2999
  187MOL0     C25679   5.708   1.892   0.786 -0.0367 -0.0687 -0.1156
  187MOL0     C25680   5.669   1.955   0.651  0.3106  0.4794  0.0571
  187MOL0     C25681   5.709   2.105   0.627  0.2271 -0.8907 -0.0966
  187MOL0     C25682   5.632   2.205   0.710 -0.6015  0.4729 -0.8389
  187MOL0     C25683   5.703   2.342   0.715  0.4323 -0.0490 -0.6106
  187MOL0     C25684   5.632   2.436   0.808  0.0005 -0.4857 -0.2559
  187MOL0     N25685   5.664   2.575   0.793 -0.4269  0.3872 -0.0486
  187MOL0     C25686   5.742   2.657   0.872  0.7033 -0.2370  0.3675
  187MOL0     C25687   5.751   2.776   0.794  0.7184  0.9232  0.4703
  187MOL0     C25688   5.824   2.901   0.845  0.4417  0.0747  1.0572
  187MOL0     C25689   5.759   3.000   0.947  0.6457  0.7630 -0.0408
  187MOL0     C25690   5.871   3.090   1.009 -1.0142 -0.1015  0.0941
  187MOL0     C25691   5.812   3.220   1.077 -0.0441  0.9186 -0.6389
  187MOL0     O25692   5.701   3.189   1.156 -0.7789 -0.2378 -0.7575
  187MOL0     C25693   5.711   3.191   1.289 -0.1138  0.0290 -1.2481
  187MOL0     C25694   5.600   3.239   1.359  0.0803  0.4889 -0.0585
  187MOL0     C25695   5.621   3.259   1.500  0.4161  0.0535 -0.0819
  187MOL0     C25696   5.509   3.328   1.577 -0.9301  0.0603  0.9035
  187MOL0     C25697   5.742   3.223   1.562 -0.0112 -0.5345  0.6208
  187MOL0     C25698   5.779   3.248   1.697 -0.3749  0.2685  0.3630
  187MOL0     O25699   5.835   3.136   1.751  0.2631 -0.6569 -1.0601
  187MOL0     C25700   5.908   3.154   1.872  0.1822  0.0066  0.3210
  187MOL0     C25701   6.047   3.152   1.842  0.3490 -0.2638 -0.3194
  187MOL0     C25702   6.130   3.158   1.958  0.2503  0.3569 -0.5578
  187MOL0     C25703   6.080   3.154   2.096  0.4092 -1.0694  0.4312
  187MOL0     O25704   6.170   3.157   2.199  0.2122  0.4455  0.3765
  187MOL0     C25705   6.220   3.288   2.222  0.6648  0.5131  0.3743
  187MOL0     C25706   6.305   3.295   2.343  0.2028 -0.3605  0.1980
  187MOL0     C25707   6.395   3.418   2.345 -0.4075 -0.0235 -0.1465
  187MOL0     C25708   6.311   3.551   2.322 -0.7070  0.3898  0.5080
  187MOL0     C25709   6.416   3.661   2.335  1.0517 -0.3596 -1.1067
  187MOL0     C25710   6.516   3.665   2.215 -0.7548  0.5751 -0.5176
  187MOL0     C25711   6.583   3.812   2.196  0.6089 -0.4946 -0.0984
  187MOL0     C25712   6.679   3.808   2.080  0.3223  0.6019  0.3210
  187MOL0    Cl25713   6.820   3.707   2.089  0.3038 -0.4318 -0.2780
  187MOL0     C25714   5.945   3.139   2.111 -0.5045 -0.0705  0.0623
  187MOL0     C25715   5.859   3.157   2.001 -0.7341 -0.0952  0.1730
  187MOL0     O25716   5.788   3.357   1.742 -0.0234 -0.0378 -0.0475
  187MOL0     C25717   5.836   3.153   1.481 -0.5724 -0.2623 -0.0050
  187MOL0     C25718   5.827   3.144   1.344  0.0056 -0.3127 -0.3566
  187MOL0     N25719   5.688   2.760   0.682  1.2186  0.2220 -0.2742
  187MOL0     N25720   5.627   2.646   0.680  0.2271  0.1432  0.0732
  187MOL0     C25721   5.385   1.959   1.027  0.2737  0.2045 -0.2113
  187MOL0     C25722   5.368   2.004   1.166  0.1058 -0.9151  0.1239
  187MOL0     C25723   5.313   1.899   1.613  0.5482 -0.1238 -0.7917
  187MOL0     C25724   5.423   1.839   1.665 -0.7458  0.0711  0.1253
  187MOL0     C25725   5.424   1.808   1.794 -0.2274 -0.0228  0.1896
  187MOL0     C25726   5.319   1.850   1.891  0.2865  0.7503  0.2322
  187MOL0     O25727   5.334   1.817   2.022  0.2319  0.2511 -0.4980
  187MOL0     C25728   5.252   1.877   2.126  0.2157  0.3559 -0.1792
  187MOL0     C25729   5.328   1.900   2.257  0.2125 -0.2077 -0.0872
  187MOL0     C25730   5.325   1.774   2.344 -0.1626  1.1166 -0.4172
  187MOL0     C25731   5.427   1.776   2.457 -0.3795 -0.3936 -0.7508
  187MOL0     C25732   5.481   1.651   2.511 -0.0548 -0.0941 -0.5907
  187MOL0     C25733   5.516   1.537   2.538  0.5759  0.5443  0.1139
  187MOL0     C25734   5.207   1.912   1.840  0.3990 -0.7460 -0.1163
  187MOL0     C25735   5.203   1.933   1.698 -0.3248 -0.3319  0.0087
  187MOL0     C25736   5.074   2.000   1.669  0.4567  0.5880 -0.2218
  187MOL0     H25737   5.549   1.725   1.283  1.3019 -0.2642 -0.6230
  187MOL0     H25738   5.520   1.650   1.055 -1.9692  0.0217 -2.1107
  187MOL0     H25739   5.503   1.748   0.676 -0.7624  0.5743 -0.2538
  187MOL0     H25740   5.497   1.618   0.797  2.0009 -0.1500  0.4937
  187MOL0     H25741   5.676   1.717   0.920 -1.4195  1.1923  0.2930
  187MOL0     H25742   5.722   1.690   0.746 -2.1857 -3.1236  0.1226
  187MOL0     H25743   5.675   1.962   0.863 -0.1547  1.8180 -1.7836
  187MOL0     H25744   5.818   1.893   0.792 -0.0734 -1.5604  2.6173
  187MOL0     H25745   5.721   1.912   0.565 -0.5384  2.3739 -1.4770
  187MOL0     H25746   5.563   1.937   0.630 -0.5699  2.5082  2.2971
  187MOL0     H25747   5.697   2.118   0.519  2.3763  1.9458 -0.1327
  187MOL0     H25748   5.809   2.133   0.661  0.4437 -2.8836  0.9960
  187MOL0     H25749   5.531   2.207   0.668  1.2637  1.8953 -6.0565
  187MOL0     H25750   5.621   2.162   0.810  0.1002  0.6552 -0.6814
  187MOL0     H25751   5.690   2.383   0.615 -0.4902 -0.3669 -0.6297
  187MOL0     H25752   5.811   2.342   0.732  0.2150  1.4378  1.1084
  187MOL0     H25753   5.523   2.437   0.800 -0.1802  2.8114  1.0315
  187MOL0     H25754   5.657   2.408   0.911 -3.6539 -0.0672  0.8919
  187MOL0     H25755   5.786   2.644   0.971  0.6678  1.8222  0.7012
  187MOL0     H25756   5.835   2.969   0.760 -3.1319  1.9160  1.8841
  187MOL0     H25757   5.925   2.865   0.869  0.3702 -0.6343  0.3774
  187MOL0     H25758   5.683   3.054   0.890 -1.3588 -1.1364  0.6545
  187MOL0     H25759   5.708   2.948   1.029  2.0648 -0.1216  0.3192
  187MOL0     H25760   5.913   3.023   1.085 -3.2893 -1.6782  0.0616
  187MOL0     H25761   5.949   3.117   0.937 -0.4747  1.0366  1.0720
  187MOL0     H25762   5.894   3.276   1.123  0.5722  1.5907 -2.4610
  187MOL0     H25763   5.784   3.285   0.993 -2.7825  0.3824 -0.2359
  187MOL0     H25764   5.511   3.272   1.307  1.1760  1.0104 -1.6737
  187MOL0     H25765   5.417   3.291   1.530  0.7165 -3.1426 -0.1244
  187MOL0     H25766   5.521   3.437   1.578 -2.2831  0.2704 -0.5957
  187MOL0     H25767   5.512   3.309   1.684 -0.6069  2.4718  1.3776
  187MOL0     H25768   6.074   3.143   1.737 -0.1318 -3.9162 -0.2731
  187MOL0     H25769   6.236   3.148   1.939  0.2582  0.6713 -0.6864
  187MOL0     H25770   6.278   3.308   2.131  0.3694  1.3528  0.3671
  187MOL0     H25771   6.142   3.364   2.225  0.6045  0.4278  1.7051
  187MOL0     H25772   6.234   3.286   2.426  1.3766 -0.5485  1.2188
  187MOL0     H25773   6.378   3.214   2.341  0.7052  0.0157  1.9641
  187MOL0     H25774   6.461   3.407   2.259 -2.4480 -0.2001 -1.7702
  187MOL0     H25775   6.459   3.431   2.433  1.0272  1.0192 -1.3028
  187MOL0     H25776   6.221   3.574   2.380 -0.6990  0.2416  0.5793
  187MOL0     H25777   6.280   3.560   2.218  1.3219  2.2527 -0.0326
  187MOL0     H25778   6.357   3.752   2.335 -1.7243 -1.8667  2.8582
  187MOL0     H25779   6.475   3.672   2.427 -0.4569 -0.1741 -0.1327
  187MOL0     H25780   6.462   3.650   2.122 -1.0121  0.1161 -0.2960
  187MOL0     H25781   6.595   3.589   2.225 -1.2091  0.0478 -0.9111
  187MOL0     H25782   6.632   3.847   2.287 -0.3235  1.2964 -0.2428
  187MOL0     H25783   6.505   3.887   2.180  1.6813  0.0898 -3.3452
  187MOL0     H25784   6.714   3.908   2.051  2.6555 -0.4241 -0.6244
  187MOL0     H25785   6.628   3.767   1.993 -0.1913 -0.8860  1.2956
  187MOL0     H25786   5.927   3.126   2.217  0.6776  0.4632  0.3494
  187MOL0     H25787   5.752   3.149   2.017 -0.6535 -1.0269  0.3105
  187MOL0     H25788   5.927   3.121   1.532  0.6468  0.8977 -1.3433
  187MOL0     H25789   5.913   3.101   1.295 -1.6926 -0.3368 -3.6367
  187MOL0     H25790   5.348   2.010   0.939 -2.9209 -0.8789  0.3706
  187MOL0     H25791   5.317   2.093   1.199 -0.0341 -2.1280  3.5516
  187MOL0     H25792   5.493   1.807   1.589  0.3839  0.7855  0.8397
  187MOL0     H25793   5.503   1.750   1.840 -0.9101 -2.8618 -1.8656
  187MOL0     H25794   5.229   1.980   2.098  0.7429 -0.1136 -2.5807
  187MOL0     H25795   5.164   1.816   2.148 -1.1726  2.1799 -0.4253
  187MOL0     H25796   5.287   1.988   2.307  2.1901  1.6110 -1.4747
  187MOL0     H25797   5.430   1.936   2.239  2.0999 -4.2913  1.3372
  187MOL0     H25798   5.226   1.740   2.374  0.6080 -0.4279  0.4886
  187MOL0     H25799   5.362   1.700   2.272 -1.6858  1.8780 -2.0667
  187MOL0     H25800   5.394   1.834   2.543 -2.2174 -1.5556 -0.6124
  187MOL0     H25801   5.523   1.824   2.435  1.6340 -4.0731 -0.6832
  187MOL0     H25802   5.543   1.433   2.540  0.5427  0.3868 -2.8301
  187MOL0     H25803   5.121   1.934   1.901 -1.5500 -2.8188 -1.8939
  187MOL0     H25804   5.000   1.922   1.647  0.3288  0.7495 -0.3626
  187MOL0     H25805   5.047   2.061   1.755  2.9426  0.0562  1.0650
  187MOL0     H25806   5.067   2.079   1.594 -2.1753 -0.0299 -0.7149
  188MOL0     O25807   5.930   8.601   3.145 -0.6548  0.4886 -0.4142
  188MOL0     C25808   5.950   8.708   3.204  0.0031  0.7335  0.3837
  188MOL0     O25809   5.865   8.781   3.275 -0.6042 -0.0425 -0.4595
  188MOL0     C25810   5.738   8.726   3.289  0.4979  0.3477  0.0869
  188MOL0     C25811   5.646   8.751   3.180 -0.3798  0.8609  0.2484
  188MOL0     C25812   5.515   8.710   3.184  0.1777 -0.3834 -0.2750
  188MOL0     C25813   5.461   8.643   3.300 -0.0173 -0.4571  0.0859
  188MOL0     O25814   5.345   8.592   3.305 -0.8414  0.1005  0.1946
  188MOL0     C25815   5.271   8.552   3.184  0.3890  0.6607  0.6428
  188MOL0     C25816   5.156   8.457   3.219  0.5036 -0.9222  0.8453
  188MOL0     C25817   5.039   8.517   3.288 -0.1688 -0.9479  0.2459
  188MOL0     C25818   4.933   8.574   3.191 -0.2028  0.2708  0.9044
  188MOL0     C25819   4.818   8.634   3.265 -0.2752 -0.9523  0.4875
  188MOL0     C25820   4.705   8.693   3.175 -0.4432 -0.8333 -0.3337
  188MOL0     C25821   4.579   8.716   3.269 -0.3352  0.0843 -0.5187
  188MOL0     C25822   4.471   8.775   3.188  0.0040  0.5611  0.3515
  188MOL0     N25823   4.411   8.677   3.104 -0.6222  0.0649 -0.5877
  188MOL0     C25824   4.349   8.706   2.983 -0.8513 -0.4624 -0.1637
  188MOL0     C25825   4.295   8.593   2.938 -0.0752  1.2783 -0.8118
  188MOL0     C25826   4.230   8.566   2.808  0.6399  0.0992  0.8091
  188MOL0     C25827   4.176   8.423   2.786  0.9436  0.0239 -0.3184
  188MOL0     C25828   4.122   8.415   2.639  0.4549  0.6219 -0.3062
  188MOL0     C25829   4.011   8.299   2.624 -0.1883  0.7247  0.3573
  188MOL0     O25830   3.891   8.314   2.695 -0.0698  0.0403 -0.8278
  188MOL0     C25831   3.793   8.218   2.673 -0.0304 -0.9495  0.7396
  188MOL0     C25832   3.671   8.250   2.742  0.3755  0.4187  0.4956
  188MOL0     C25833   3.565   8.159   2.738 -0.0726  0.6051 -0.4150
  188MOL0     C25834   3.456   8.196   2.845  0.4782 -0.4282 -0.3762
  188MOL0     C25835   3.575   8.048   2.638 -0.8580 -0.1092 -0.0290
  188MOL0     C25836   3.481   7.935   2.612 -0.6210 -0.0799  0.2332
  188MOL0     O25837   3.530   7.826   2.546  0.5246 -0.0803 -0.5482
  188MOL0     C25838   3.441   7.728   2.492 -0.2596 -0.1946 -0.8743
  188MOL0     C25839   3.309   7.767   2.442 -0.3036  0.2236 -0.7172
  188MOL0     C25840   3.212   7.666   2.430 -0.4121  0.6320 -0.4131
  188MOL0     C25841   3.246   7.527   2.444  0.7659  0.2670  0.7302
  188MOL0     O25842   3.151   7.425   2.423 -0.1745  0.1301 -0.0865
  188MOL0     C25843   3.011   7.452   2.420 -0.4336 -0.1456  0.6363
  188MOL0     C25844   2.959   7.450   2.272  0.2956 -1.0960 -0.7251
  188MOL0     C25845   2.813   7.493   2.261  0.4611  0.6544 -1.2395
  188MOL0     C25846   2.768   7.460   2.124  1.0482  0.6740  0.9631
  188MOL0     C25847   2.617   7.487   2.092 -0.8057 -0.2970 -0.3389
  188MOL0     C25848   2.514   7.438   2.198  1.1576 -0.2867  0.9645
  188MOL0     C25849   2.483   7.285   2.221  0.1301  0.3247 -0.8305
  188MOL0     C25850   2.342   7.264   2.273 -0.0840  0.7422  0.3491
  188MOL0    Cl25851   2.338   7.359   2.413 -0.1997 -0.3558 -0.3789
  188MOL0     C25852   3.373   7.495   2.465  0.0026  0.0157  0.0368
  188MOL0     C25853   3.477   7.591   2.491 -0.1498  0.8821  0.2930
  188MOL0     O25854   3.368   7.948   2.659 -0.4843  0.3602 -0.7005
  188MOL0     C25855   3.695   8.030   2.571 -0.4646  0.1471 -0.2020
  188MOL0     C25856   3.809   8.114   2.593 -0.7888 -0.1605  0.0502
  188MOL0     N25857   4.319   8.489   3.038  0.7594 -0.1706 -0.0710
  188MOL0     N25858   4.396   8.546   3.128  0.5830 -0.3855  0.0867
  188MOL0     C25859   5.557   8.620   3.397  0.0386  0.0782 -0.5511
  188MOL0     C25860   5.694   8.648   3.397  0.7188 -0.2723  0.2084
  188MOL0     C25861   6.090   8.768   3.192 -0.0238  0.3922  0.1031
  188MOL0     C25862   6.159   8.791   3.314 -0.7474 -0.2094  0.1228
  188MOL0     C25863   6.291   8.844   3.306  0.3031  0.1510  0.3189
  188MOL0     C25864   6.347   8.892   3.180  0.1879 -0.5181  0.3173
  188MOL0     O25865   6.467   8.953   3.163  0.0551 -0.4066 -0.2023
  188MOL0     C25866   6.515   9.020   3.277 -0.0582  0.1849 -0.0707
  188MOL0     C25867   6.636   9.115   3.232 -0.0230 -0.6334 -0.7996
  188MOL0     C25868   6.770   9.041   3.252 -0.1619 -0.0634 -0.7440
  188MOL0     C25869   6.900   9.113   3.215  0.3960  0.0055 -0.0032
  188MOL0     C25870   6.924   9.246   3.276  0.6205  0.1490  0.0925
  188MOL0     C25871   6.948   9.356   3.325 -1.1474  0.0286 -0.0061
  188MOL0     C25872   6.273   8.862   3.072 -0.2575  0.6354 -1.3652
  188MOL0     C25873   6.149   8.804   3.069 -0.1308  0.5729  0.3776
  188MOL0     C25874   6.076   8.801   2.938 -0.0423  0.5322  0.5627
  188MOL0     H25875   5.685   8.814   3.101  1.3690  2.2164  2.1061
  188MOL0     H25876   5.445   8.747   3.111 -2.9548 -0.8097  2.2983
  188MOL0     H25877   5.346   8.497   3.126  1.0752  0.1093  2.0095
  188MOL0     H25878   5.231   8.638   3.131  0.5558  1.2074  1.3942
  188MOL0     H25879   5.117   8.405   3.131  0.2405 -1.3764  1.2282
  188MOL0     H25880   5.181   8.371   3.281  0.1444 -2.4119 -0.9895
  188MOL0     H25881   4.991   8.437   3.344 -2.0029  1.1843  1.8798
  188MOL0     H25882   5.079   8.600   3.347  0.0973  0.8978 -2.3540
  188MOL0     H25883   4.971   8.660   3.135  2.0490  0.2859  2.3429
  188MOL0     H25884   4.900   8.509   3.109 -1.4337  2.5708 -0.5035
  188MOL0     H25885   4.854   8.723   3.317 -1.0989  0.4990 -1.2942
  188MOL0     H25886   4.777   8.567   3.341 -0.0300 -1.0554  0.5307
  188MOL0     H25887   4.735   8.785   3.123 -0.4667 -0.5881  0.0785
  188MOL0     H25888   4.678   8.618   3.101  2.9498 -0.8927 -1.6833
  188MOL0     H25889   4.605   8.784   3.351 -1.0921 -0.2122 -0.0320
  188MOL0     H25890   4.549   8.624   3.320 -1.3148  1.4518  1.5236
  188MOL0     H25891   4.403   8.828   3.255  0.8186  3.2237 -0.8115
  188MOL0     H25892   4.520   8.851   3.126  0.7080 -1.9097 -2.3879
  188MOL0     H25893   4.359   8.804   2.938 -0.7985  0.1534  1.1445
  188MOL0     H25894   4.303   8.588   2.730 -1.2112  1.4360 -0.6501
  188MOL0     H25895   4.150   8.639   2.795  2.0308  1.8030  1.3809
  188MOL0     H25896   4.255   8.353   2.815 -1.4216 -2.2212  1.1696
  188MOL0     H25897   4.098   8.418   2.862 -0.9555  1.4536 -2.0625
  188MOL0     H25898   4.080   8.510   2.605 -0.6029 -0.4033 -1.9776
  188MOL0     H25899   4.205   8.389   2.573  1.0796  1.8350 -0.0178
  188MOL0     H25900   3.991   8.271   2.520  2.2232  0.3591 -0.0725
  188MOL0     H25901   4.062   8.215   2.673  1.6549  1.5780 -0.0316
  188MOL0     H25902   3.656   8.337   2.805  0.9005 -0.3079  1.6638
  188MOL0     H25903   3.435   8.301   2.823  2.1945  0.2335  0.8357
  188MOL0     H25904   3.475   8.188   2.953  0.7120  1.8651 -0.1914
  188MOL0     H25905   3.371   8.132   2.825  0.2619  0.2995 -1.8708
  188MOL0     H25906   3.280   7.867   2.414  0.1472  0.9435  1.2480
  188MOL0     H25907   3.123   7.689   2.372 -0.5105  1.1619 -0.0547
  188MOL0     H25908   2.968   7.366   2.473 -2.4516  1.6162  2.0316
  188MOL0     H25909   2.985   7.547   2.467 -0.2322  1.7774 -2.8075
  188MOL0     H25910   3.019   7.526   2.220  2.9901 -2.9395 -0.5599
  188MOL0     H25911   2.967   7.353   2.221 -0.6319 -1.5201 -0.0828
  188MOL0     H25912   2.807   7.602   2.272 -1.9662  0.4031  0.8989
  188MOL0     H25913   2.740   7.441   2.324  0.1716  0.0799 -2.0331
  188MOL0     H25914   2.785   7.356   2.094 -1.3594  0.6852 -0.8158
  188MOL0     H25915   2.822   7.520   2.050 -1.4389  0.3282 -1.3051
  188MOL0     H25916   2.607   7.595   2.082  1.7020  0.1229  1.1705
  188MOL0     H25917   2.593   7.455   1.990  0.7292 -0.5062 -0.6476
  188MOL0     H25918   2.422   7.473   2.151  1.5998 -0.2306  0.1171
  188MOL0     H25919   2.513   7.497   2.290 -1.7278 -2.9800  2.8781
  188MOL0     H25920   2.564   7.255   2.288 -0.2498  2.3994  0.6265
  188MOL0     H25921   2.489   7.220   2.132 -0.6796 -2.0756  0.7747
  188MOL0     H25922   2.314   7.164   2.306 -4.1521  1.1623 -1.1725
  188MOL0     H25923   2.270   7.293   2.196  1.0127  3.6336  0.2818
  188MOL0     H25924   3.409   7.393   2.451  0.4728 -0.1923  2.4215
  188MOL0     H25925   3.578   7.557   2.514 -0.9360 -0.0476  2.7390
  188MOL0     H25926   3.695   7.955   2.491 -1.2433  1.9613 -1.9867
  188MOL0     H25927   3.901   8.077   2.548 -0.2032 -0.7711  1.6527
  188MOL0     H25928   5.516   8.567   3.483  0.0389 -1.3494 -1.4061
  188MOL0     H25929   5.758   8.615   3.477 -1.5065 -3.9225  0.7211
  188MOL0     H25930   6.128   8.772   3.416 -0.9970  1.2584  0.3483
  188MOL0     H25931   6.335   8.871   3.401 -0.6477  2.4255  0.1903
  188MOL0     H25932   6.432   9.085   3.306 -1.9272 -0.9915 -2.4620
  188MOL0     H25933   6.547   8.951   3.355 -4.1969 -0.5396  1.1895
  188MOL0     H25934   6.619   9.205   3.291 -1.9681 -0.7012 -1.1972
  188MOL0     H25935   6.627   9.138   3.125 -0.1268 -1.2135 -0.9192
  188MOL0     H25936   6.780   9.010   3.357 -1.5426 -0.2152 -0.6322
  188MOL0     H25937   6.767   8.951   3.189 -1.5027  0.2556 -1.1752
  188MOL0     H25938   6.898   9.140   3.109 -3.4168  0.7426  0.0974
  188MOL0     H25939   6.980   9.042   3.237  1.0007  1.4674  3.0039
  188MOL0     H25940   6.948   9.453   3.369 -2.5297  0.5688 -1.1282
  188MOL0     H25941   6.312   8.879   2.972  0.2959 -3.5908 -2.0370
  188MOL0     H25942   6.125   8.735   2.866 -3.5357 -0.3017 -1.2844
  188MOL0     H25943   5.971   8.773   2.950  0.4725 -0.7538  2.8454
  188MOL0     H25944   6.091   8.898   2.892 -0.9873  0.1490 -0.5783
  189MOL0     O25945   8.937   0.922   9.506 -0.1767 -0.4336  0.1951
  189MOL0     C25946   8.890   1.004   9.427  0.5236  0.6539 -0.5151
  189MOL0     O25947   8.847   0.973   9.297  0.2612 -0.3393 -0.5700
  189MOL0     C25948   8.854   0.842   9.256  0.3086  0.4414 -0.2641
  189MOL0     C25949   8.970   0.785   9.203  0.3757 -0.1860  0.1421
  189MOL0     C25950   8.970   0.652   9.159  0.2373  0.3653  0.5690
  189MOL0     C25951   8.854   0.573   9.175 -0.2655  0.1472  0.5928
  189MOL0     O25952   8.860   0.442   9.144  0.1406  0.1535  0.5735
  189MOL0     C25953   8.876   0.353   9.261  0.8114 -0.2935  0.3787
  189MOL0     C25954   9.028   0.344   9.285 -0.8028 -0.1900  0.1432
  189MOL0     C25955   9.069   0.224   9.376  0.1194 -0.4697  0.3133
  189MOL0     C25956   9.210   0.238   9.433 -0.1633  0.2580  0.6755
  189MOL0     C25957   9.235   0.155   9.569  0.6232  1.0319  0.5584
  189MOL0     C25958   9.238   0.004   9.550 -0.9229 -0.2038  0.4918
  189MOL0     C25959   9.344  -0.039   9.450 -0.7324  0.3460 -0.3096
  189MOL0     C25960   9.352  -0.190   9.460  0.2561 -0.4972 -0.4506
  189MOL0     N25961   9.415  -0.263   9.347 -0.4522  0.4661 -1.0434
  189MOL0     C25962   9.547  -0.262   9.314 -0.4904  0.3306 -0.2583
  189MOL0     C25963   9.567  -0.360   9.234  0.0772  0.1898  0.5817
  189MOL0     C25964   9.702  -0.403   9.187  0.0761  0.1599  0.1152
  189MOL0     C25965   9.693  -0.549   9.126 -0.1909  0.1385  0.0632
  189MOL0     C25966   9.816  -0.592   9.051  0.5020  0.4657 -0.5565
  189MOL0     C25967   9.831  -0.527   8.913 -0.3690  0.3255  0.0919
  189MOL0     O25968   9.756  -0.603   8.812 -0.1700 -0.0096  0.7290
  189MOL0     C25969   9.627  -0.565   8.776 -0.6175  0.5410  0.6145
  189MOL0     C25970   9.551  -0.463   8.838 -1.1184 -0.5299 -0.1777
  189MOL0     C25971   9.438  -0.406   8.775  0.1513  0.4121 -0.1713
  189MOL0     C25972   9.377  -0.298   8.858 -0.1785  0.3096 -0.4341
  189MOL0     C25973   9.367  -0.495   8.681  0.2662 -0.0345 -0.8767
  189MOL0     C25974   9.231  -0.470   8.624  0.1239 -0.9293 -0.7394
  189MOL0     O25975   9.190  -0.560   8.530 -0.2294 -0.6092 -0.1367
  189MOL0     C25976   9.056  -0.536   8.489 -0.3171  0.3750 -0.0151
  189MOL0     C25977   8.968  -0.626   8.542  0.2420 -0.8571  0.2886
  189MOL0     C25978   8.831  -0.628   8.498 -0.4251  0.1782 -0.3887
  189MOL0     C25979   8.791  -0.537   8.394  0.0762 -0.1417 -0.7762
  189MOL0     O25980   8.654  -0.537   8.370 -0.2999  0.2130 -0.3810
  189MOL0     C25981   8.595  -0.438   8.281 -0.1021 -0.0498  1.3145
  189MOL0     C25982   8.576  -0.305   8.353  0.9218 -0.4571  0.1148
  189MOL0     C25983   8.534  -0.193   8.258 -0.1349 -0.7754  0.3963
  189MOL0     C25984   8.545  -0.054   8.314 -0.1019 -0.3300 -0.4766
  189MOL0     C25985   8.428  -0.029   8.409  0.1419  0.6106 -0.0299
  189MOL0     C25986   8.426   0.119   8.460  0.8083 -0.0622 -0.1969
  189MOL0     C25987   8.291   0.165   8.511  0.3891  0.3307  0.0485
  189MOL0     C25988   8.308   0.295   8.590 -1.6485  0.0354  0.2823
  189MOL0    Cl25989   8.156   0.365   8.662  0.1830 -0.2403  0.3050
  189MOL0     C25990   8.893  -0.448   8.333  0.0262 -1.0223 -0.1060
  189MOL0     C25991   9.021  -0.448   8.388 -0.6520 -0.3976  0.2122
  189MOL0     O25992   9.176  -0.361   8.640  0.3879 -0.5187  0.1288
  189MOL0     C25993   9.445  -0.601   8.624  0.3308 -1.1518 -0.0041
  189MOL0     C25994   9.571  -0.632   8.670 -0.7302 -0.2992  0.4739
  189MOL0     N25995   9.445  -0.406   9.194  0.1057 -0.1915  0.2104
  189MOL0     N25996   9.353  -0.356   9.267  0.0359 -0.0071  0.2896
  189MOL0     C25997   8.745   0.638   9.223  0.0595  0.2356 -0.1505
  189MOL0     C25998   8.740   0.760   9.273  0.2314 -1.1879  0.6219
  189MOL0     C25999   8.879   1.145   9.474  1.2864 -0.2125  0.7248
  189MOL0     C26000   8.801   1.232   9.386 -0.1501 -0.3399 -0.0999
  189MOL0     C26001   8.770   1.367   9.425 -0.3573 -0.1810  0.3274
  189MOL0     C26002   8.827   1.425   9.541 -0.0397 -0.3897  0.1984
  189MOL0     O26003   8.815   1.560   9.574  0.0899 -0.2829 -0.6559
  189MOL0     C26004   8.794   1.646   9.468 -0.8519 -0.5181  0.4781
  189MOL0     C26005   8.835   1.787   9.498 -0.0354  0.2121  0.2998
  189MOL0     C26006   8.757   1.895   9.428  0.3950 -0.0361 -0.1698
  189MOL0     C26007   8.801   2.040   9.452  0.4932  0.4636  0.2297
  189MOL0     C26008   8.950   2.054   9.429  0.4913 -0.2734  0.0127
  189MOL0     C26009   9.068   2.070   9.413  0.3816 -1.3839  0.0820
  189MOL0     C26010   8.911   1.342   9.614 -0.9001  0.0063 -0.6049
  189MOL0     C26011   8.939   1.210   9.590 -0.4258  1.4931 -0.1400
  189MOL0     C26012   9.031   1.127   9.677  1.0010 -0.1258 -0.1103
  189MOL0     H26013   9.064   0.839   9.190  1.3667 -1.7813  0.3880
  189MOL0     H26014   9.052   0.600   9.111  0.5967 -0.2096  1.7639
  189MOL0     H26015   8.834   0.260   9.220  1.3113  0.7560 -2.7605
  189MOL0     H26016   8.818   0.385   9.348 -0.2391 -1.3798  0.1120
  189MOL0     H26017   9.073   0.334   9.186 -1.2825 -1.8869  0.0730
  189MOL0     H26018   9.058   0.442   9.325 -0.0674 -0.3619  0.0271
  189MOL0     H26019   9.005   0.217   9.465 -1.1969  2.7163 -0.2525
  189MOL0     H26020   9.055   0.123   9.335  2.6395 -1.3941  1.4942
  189MOL0     H26021   9.281   0.208   9.355 -1.1141 -0.8453  0.2026
  189MOL0     H26022   9.229   0.341   9.464  0.5470  0.2957  0.1599
  189MOL0     H26023   9.164   0.177   9.650  3.9697 -0.3140  4.1806
  189MOL0     H26024   9.336   0.193   9.588  0.5400  2.2140 -1.1430
  189MOL0     H26025   9.245  -0.042   9.649 -1.9096  1.1609  1.2386
  189MOL0     H26026   9.145  -0.042   9.513  0.2596 -1.5979 -0.8769
  189MOL0     H26027   9.445   0.000   9.466 -0.4593 -0.5095  0.1263
  189MOL0     H26028   9.307  -0.005   9.353  0.9923  1.0367 -0.7631
  189MOL0     H26029   9.395  -0.230   9.553 -1.8980  0.0037  0.8308
  189MOL0     H26030   9.251  -0.230   9.458 -0.5909  1.5657 -1.6438
  189MOL0     H26031   9.627  -0.200   9.352  0.5857  0.3108 -2.3483
  189MOL0     H26032   9.775  -0.403   9.269  0.6461  0.8818 -0.3809
  189MOL0     H26033   9.735  -0.335   9.109  2.4379  1.5132  2.1392
  189MOL0     H26034   9.684  -0.625   9.205  3.7189 -1.5959 -0.9329
  189MOL0     H26035   9.605  -0.563   9.062  1.2075 -0.1044 -1.9114
  189MOL0     H26036   9.903  -0.565   9.113  0.3973 -1.8292  0.7081
  189MOL0     H26037   9.819  -0.700   9.035  1.8764  0.5827 -1.2396
  189MOL0     H26038   9.794  -0.424   8.912  0.6016  0.6825 -0.2693
  189MOL0     H26039   9.935  -0.512   8.882 -0.0402  0.6438  1.3032
  189MOL0     H26040   9.596  -0.412   8.923  0.9888 -0.5957 -1.1852
  189MOL0     H26041   9.343  -0.216   8.793  2.2506  1.8640  0.1056
  189MOL0     H26042   9.445  -0.263   8.936 -0.5359  0.4837 -0.1959
  189MOL0     H26043   9.294  -0.337   8.918  0.7569  1.1203  1.4662
  189MOL0     H26044   9.011  -0.704   8.605 -1.1184 -3.6203 -1.9496
  189MOL0     H26045   8.756  -0.694   8.541 -2.3223  0.6682 -2.6918
  189MOL0     H26046   8.654  -0.431   8.189 -3.1522  1.0294 -0.7029
  189MOL0     H26047   8.500  -0.473   8.239 -0.8731  2.2292  0.9970
  189MOL0     H26048   8.501  -0.323   8.430 -1.3130 -0.6483 -1.9711
  189MOL0     H26049   8.671  -0.276   8.399 -0.3711  1.2353  1.8974
  189MOL0     H26050   8.433  -0.211   8.218  0.6123  0.1059 -2.0687
  189MOL0     H26051   8.598  -0.218   8.173  1.4523 -0.4859  1.4780
  189MOL0     H26052   8.534   0.009   8.225  2.2357 -1.5618 -1.7278
  189MOL0     H26053   8.643  -0.048   8.362  0.3567 -0.7443 -1.3408
  189MOL0     H26054   8.331  -0.053   8.366 -0.9659 -0.2242  2.7060
  189MOL0     H26055   8.438  -0.088   8.501  0.2731  2.4497  1.2124
  189MOL0     H26056   8.457   0.182   8.376  2.2283 -1.2758 -0.6270
  189MOL0     H26057   8.496   0.111   8.544 -2.0848 -4.3963  2.1395
  189MOL0     H26058   8.260   0.083   8.576 -1.2102 -0.3760 -1.5214
  189MOL0     H26059   8.220   0.175   8.429  1.3357  1.0993 -0.7089
  189MOL0     H26060   8.350   0.365   8.517 -0.7335 -2.9995 -2.3294
  189MOL0     H26061   8.368   0.282   8.681  0.0410 -0.4849 -0.8561
  189MOL0     H26062   8.871  -0.383   8.249 -0.9194 -3.3264 -1.7538
  189MOL0     H26063   9.101  -0.389   8.345 -0.5560  0.9252  2.0972
  189MOL0     H26064   9.410  -0.666   8.545 -2.6978  1.9550 -1.4947
  189MOL0     H26065   9.631  -0.709   8.623 -0.2961  0.0553  0.4499
  189MOL0     H26066   8.666   0.564   9.223  2.4825 -2.5303 -1.2345
  189MOL0     H26067   8.647   0.812   9.292  0.6502  0.4365 -1.4816
  189MOL0     H26068   8.760   1.197   9.292  0.6322  0.5019 -0.7643
  189MOL0     H26069   8.713   1.433   9.360  3.8668  4.9337  1.0870
  189MOL0     H26070   8.841   1.611   9.376 -2.4635 -0.6626 -0.3156
  189MOL0     H26071   8.686   1.648   9.454 -0.7820 -0.4107 -0.0618
  189MOL0     H26072   8.941   1.789   9.471 -0.4552  1.0979 -1.4706
  189MOL0     H26073   8.840   1.799   9.607 -3.9243  1.6536  0.4867
  189MOL0     H26074   8.770   1.873   9.322 -0.1826  0.4246 -0.3391
  189MOL0     H26075   8.649   1.892   9.448  0.4937 -0.2440  0.3656
  189MOL0     H26076   8.781   2.072   9.555 -1.0546 -0.9430  0.4025
  189MOL0     H26077   8.740   2.099   9.384 -0.9924 -2.5119 -1.2005
  189MOL0     H26078   9.171   2.082   9.386  1.1680 -1.0617  2.9583
  189MOL0     H26079   8.965   1.393   9.693 -1.6661  0.6739 -0.5009
  189MOL0     H26080   9.108   1.075   9.618  1.7625  0.3263  0.4598
  189MOL0     H26081   9.069   1.193   9.756 -3.1061 -1.9658  3.8268
  189MOL0     H26082   8.977   1.051   9.733 -2.6022  2.5515  0.3528
  190MOL0     O26083   9.256   7.064   1.584 -0.2357  0.4054 -0.4114
  190MOL0     C26084   9.194   6.954   1.565 -1.0625 -1.1615  0.0774
  190MOL0     O26085   9.251   6.838   1.511  0.2644 -0.3620 -0.4510
  190MOL0     C26086   9.382   6.838   1.457  0.7199 -0.0327 -1.5788
  190MOL0     C26087   9.481   6.749   1.508 -0.0661  0.1326  0.3345
  190MOL0     C26088   9.602   6.761   1.440  0.4763 -0.0476 -0.2220
  190MOL0     C26089   9.632   6.858   1.335  0.4436  0.3067 -0.7116
  190MOL0     O26090   9.759   6.835   1.277 -0.5857 -0.1546 -1.0245
  190MOL0     C26091   9.816   6.952   1.217 -0.2060  0.9604 -0.5134
  190MOL0     C26092   9.966   6.951   1.179  0.2342 -0.2960 -0.4309
  190MOL0     C26093  10.049   6.927   1.307  0.3511  0.1259 -0.2793
  190MOL0     C26094  10.200   6.911   1.262 -0.2603  0.0661 -1.0984
  190MOL0     C26095  10.269   7.046   1.248  0.2926 -0.0009  0.0951
  190MOL0     C26096  10.385   7.034   1.151  0.2090  0.2004 -0.1158
  190MOL0     C26097  10.502   6.950   1.212  0.3393 -0.7378 -0.3806
  190MOL0     C26098  10.636   6.970   1.137 -0.7213 -0.0963  0.6726
  190MOL0     N26099  10.729   6.889   1.206  0.3544 -0.0604 -0.7137
  190MOL0     C26100  10.758   6.754   1.190  0.1196  0.1054  0.5271
  190MOL0     C26101  10.882   6.726   1.239 -0.4831 -1.9402 -0.0550
  190MOL0     C26102  10.970   6.606   1.241  0.1970  0.3871  0.1389
  190MOL0     C26103  11.065   6.614   1.127 -0.3327  0.3268  0.5381
  190MOL0     C26104  11.201   6.667   1.178 -0.4585 -0.7122 -0.0119
  190MOL0     C26105  11.308   6.700   1.075  0.7363 -0.1822  0.0097
  190MOL0     O26106  11.374   6.577   1.024 -0.6564  0.0520 -0.0153
  190MOL0     C26107  11.376   6.549   0.888 -0.4802 -0.0399  0.0401
  190MOL0     C26108  11.310   6.614   0.787 -0.0659  0.8215  0.2202
  190MOL0     C26109  11.334   6.589   0.651  0.1920  0.0800  0.1104
  190MOL0     C26110  11.271   6.675   0.547 -0.3444  1.0252 -0.1434
  190MOL0     C26111  11.424   6.492   0.610  0.8550 -0.2062  0.0199
  190MOL0     C26112  11.481   6.477   0.477 -0.7766 -0.3843 -0.1309
  190MOL0     O26113  11.618   6.494   0.472 -0.3430  0.3014 -0.2711
  190MOL0     C26114  11.687   6.480   0.354 -0.2329 -0.1546  0.7676
  190MOL0     C26115  11.682   6.368   0.273 -0.0978  0.5519  1.3620
  190MOL0     C26116  11.739   6.381   0.151  0.0026 -0.1352 -0.8963
  190MOL0     C26117  11.829   6.482   0.111 -0.4974 -0.4349  0.6326
  190MOL0     O26118  11.889   6.484  -0.016 -0.1647  0.7187 -0.2893
  190MOL0     C26119  11.904   6.605  -0.087 -0.1856  0.3950 -0.3269
  190MOL0     C26120  11.789   6.609  -0.184  0.1703 -0.0336  0.2076
  190MOL0     C26121  11.667   6.676  -0.123  0.0218 -0.3411 -0.3484
  190MOL0     C26122  11.558   6.705  -0.228  0.0043  0.4398 -0.3281
  190MOL0     C26123  11.496   6.571  -0.280  0.6953 -0.4981  0.0408
  190MOL0     C26124  11.363   6.605  -0.358 -0.2263  0.0116 -0.5385
  190MOL0     C26125  11.330   6.469  -0.422 -0.6080  0.7210 -0.4927
  190MOL0     C26126  11.189   6.465  -0.484  1.1919 -0.2393 -0.7071
  190MOL0    Cl26127  11.177   6.597  -0.592 -0.3668 -0.0637  0.6256
  190MOL0     C26128  11.855   6.579   0.218 -0.7726  0.2832  0.2809
  190MOL0     C26129  11.778   6.578   0.334  0.2722 -0.2527  0.2882
  190MOL0     O26130  11.412   6.439   0.383 -0.2089  0.5949 -0.5283
  190MOL0     C26131  11.489   6.410   0.716  0.5081  0.0493  0.6322
  190MOL0     C26132  11.463   6.446   0.847 -1.8335 -0.1405  0.4074
  190MOL0     N26133  10.918   6.841   1.305 -0.4887 -0.1374  0.3747
  190MOL0     N26134  10.829   6.935   1.281 -1.3108  0.6022 -0.1236
  190MOL0     C26135   9.530   6.938   1.282  0.0309  0.6089 -0.5302
  190MOL0     C26136   9.405   6.924   1.342  0.2132  0.5612 -0.8759
  190MOL0     C26137   9.060   6.933   1.613 -1.0806  0.3487 -0.3370
  190MOL0     C26138   9.042   6.853   1.726  0.2291  0.5495 -0.0605
  190MOL0     C26139   8.914   6.843   1.784  0.3706 -0.3563 -0.6154
  190MOL0     C26140   8.805   6.896   1.719 -0.1415  0.3119  1.2277
  190MOL0     O26141   8.674   6.868   1.759  0.0063 -0.0181 -0.0610
  190MOL0     C26142   8.565   6.965   1.749  0.6390  0.1104 -0.5737
  190MOL0     C26143   8.459   6.931   1.856 -0.8776  0.4727  0.5718
  190MOL0     C26144   8.525   6.912   1.993  0.1027  0.0878  0.3527
  190MOL0     C26145   8.435   6.886   2.121  0.1404  0.4140 -0.0917
  190MOL0     C26146   8.292   6.907   2.090  0.0690 -0.6440 -0.0755
  190MOL0     C26147   8.173   6.932   2.070  0.2619 -0.2345  0.6103
  190MOL0     C26148   8.825   6.965   1.595  0.2582  0.3437 -0.6659
  190MOL0     C26149   8.942   6.986   1.546 -0.3752  1.0900  0.8716
  190MOL0     C26150   8.952   7.070   1.419  0.1589  1.3934  0.6093
  190MOL0     H26151   9.477   6.677   1.589  1.7197  0.3389  0.6653
  190MOL0     H26152   9.680   6.692   1.469  1.2996  0.7386 -0.5040
  190MOL0     H26153   9.803   7.024   1.297 -0.6176 -0.4390  0.7262
  190MOL0     H26154   9.749   6.964   1.131  0.0361 -1.2816 -1.0915
  190MOL0     H26155   9.993   6.869   1.112  2.0359 -0.9414  0.9939
  190MOL0     H26156   9.987   7.050   1.137  1.1143 -0.0427  0.5352
  190MOL0     H26157  10.036   7.003   1.384  0.8815  1.3385 -1.3457
  190MOL0     H26158  10.015   6.835   1.356  0.2193  0.5598  0.4598
  190MOL0     H26159  10.242   6.848   1.341 -2.1460 -0.6729 -0.6458
  190MOL0     H26160  10.207   6.863   1.164  0.1678  0.0023 -1.0411
  190MOL0     H26161  10.300   7.083   1.346  4.4260 -1.2548 -0.5573
  190MOL0     H26162  10.195   7.115   1.207  1.1203  0.5309 -0.5258
  190MOL0     H26163  10.354   7.006   1.050  0.7291 -0.6994 -0.0353
  190MOL0     H26164  10.417   7.138   1.145 -2.5157  1.0687 -1.2944
  190MOL0     H26165  10.465   6.847   1.221 -2.6471  0.4252  2.7285
  190MOL0     H26166  10.505   6.990   1.313  0.1280  2.3458 -1.4934
  190MOL0     H26167  10.629   6.947   1.030  1.8767  2.4792 -0.1961
  190MOL0     H26168  10.670   7.074   1.137 -0.7809 -0.0772  1.1009
  190MOL0     H26169  10.708   6.681   1.128  2.1793  0.1821 -1.3328
  190MOL0     H26170  10.906   6.518   1.242  1.4883 -0.5959 -0.3565
  190MOL0     H26171  11.022   6.591   1.336 -0.4102  2.5857  0.8795
  190MOL0     H26172  11.087   6.514   1.089 -0.1250  1.2575 -1.9590
  190MOL0     H26173  11.026   6.673   1.043 -1.3532  0.1033  0.8380
  190MOL0     H26174  11.194   6.747   1.253  1.4815  0.1753 -0.7136
  190MOL0     H26175  11.240   6.583   1.236  0.5311 -0.0828  0.2593
  190MOL0     H26176  11.262   6.763   0.999  2.5962  2.6737  1.1207
  190MOL0     H26177  11.383   6.759   1.128  1.8942 -3.3371  2.2101
  190MOL0     H26178  11.253   6.701   0.818  0.1638  1.2152 -0.4344
  190MOL0     H26179  11.214   6.606   0.484  0.4158  0.7250 -0.5136
  190MOL0     H26180  11.335   6.745   0.492 -0.6803  1.3735 -0.0978
  190MOL0     H26181  11.201   6.741   0.598 -0.3720 -0.2685  1.5923
  190MOL0     H26182  11.605   6.293   0.289 -1.7127  1.3206 -1.9446
  190MOL0     H26183  11.720   6.312   0.069 -1.4088  0.5908 -1.2007
  190MOL0     H26184  11.899   6.699  -0.031 -4.3555  0.1408  0.0583
  190MOL0     H26185  11.994   6.601  -0.148  0.7371  0.2102  1.0176
  190MOL0     H26186  11.816   6.673  -0.267  0.3149 -0.8702 -0.4019
  190MOL0     H26187  11.767   6.506  -0.216 -0.1962  0.2997 -0.6203
  190MOL0     H26188  11.691   6.767  -0.068 -1.4320 -1.3404  2.0820
  190MOL0     H26189  11.615   6.621  -0.044 -2.6104  2.5900  0.1645
  190MOL0     H26190  11.612   6.764  -0.302 -0.8529  3.7103  1.4688
  190MOL0     H26191  11.482   6.773  -0.188  2.2201  3.5754 -1.0538
  190MOL0     H26192  11.564   6.522  -0.350 -0.4976  0.4653 -1.8570
  190MOL0     H26193  11.485   6.495  -0.202 -0.6797 -0.7455 -0.3641
  190MOL0     H26194  11.384   6.686  -0.428 -1.4364  2.7438  2.0281
  190MOL0     H26195  11.290   6.644  -0.286 -0.4213  1.0360 -1.2709
  190MOL0     H26196  11.329   6.396  -0.341  1.2320 -1.7741 -2.5345
  190MOL0     H26197  11.407   6.432  -0.491 -0.3841 -0.3910  0.3296
  190MOL0     H26198  11.113   6.481  -0.407  0.1840 -1.4054 -1.4121
  190MOL0     H26199  11.157   6.367  -0.522 -2.0764  0.8090 -0.9351
  190MOL0     H26200  11.931   6.657   0.206  1.4303 -1.3071  2.8728
  190MOL0     H26201  11.781   6.653   0.412  1.6335  2.1405 -1.9188
  190MOL0     H26202  11.565   6.337   0.687  0.6466 -0.0749  1.2843
  190MOL0     H26203  11.521   6.396   0.924  0.6838  0.7248 -0.8050
  190MOL0     H26204   9.557   7.012   1.206  3.4281 -1.4482 -1.5830
  190MOL0     H26205   9.310   6.969   1.317 -0.6138 -0.3700  0.4812
  190MOL0     H26206   9.111   6.794   1.786 -1.6778 -0.0204  1.7029
  190MOL0     H26207   8.903   6.782   1.872  2.1665 -2.2529 -1.6159
  190MOL0     H26208   8.610   7.064   1.759 -0.7335  0.8241 -1.1646
  190MOL0     H26209   8.523   6.959   1.648 -0.2200 -0.7011 -0.1859
  190MOL0     H26210   8.396   6.846   1.828  0.0278  0.0099 -0.1135
  190MOL0     H26211   8.391   7.016   1.872  0.1409  1.2896  0.6817
  190MOL0     H26212   8.609   6.843   1.987  0.0303  0.0277 -0.0383
  190MOL0     H26213   8.590   6.998   2.013  0.8729 -1.1090  3.7130
  190MOL0     H26214   8.478   6.937   2.208 -0.0447 -1.0787  0.9096
  190MOL0     H26215   8.448   6.781   2.148  2.0212  0.6193 -0.0508
  190MOL0     H26216   8.070   6.943   2.044  0.1366 -0.3720  1.0385
  190MOL0     H26217   8.738   6.995   1.538 -0.4297  0.3479  0.3494
  190MOL0     H26218   8.995   7.007   1.341 -4.6054  0.9677 -2.0318
  190MOL0     H26219   8.857   7.093   1.372 -0.1081  2.0484  1.4380
  190MOL0     H26220   9.016   7.158   1.431  0.8142  1.3035 -1.7624
  191MOL0     O26221  11.186   1.985   4.799  0.0904 -0.4633  0.1050
  191MOL0     C26222  11.248   1.980   4.693  0.1317 -0.1847 -0.2785
  191MOL0     O26223  11.381   1.958   4.684 -0.4465  0.0123 -0.0649
  191MOL0     C26224  11.479   2.025   4.758 -0.5877  1.1733 -0.5076
  191MOL0     C26225  11.458   2.121   4.855 -0.7459  0.0970  0.5917
  191MOL0     C26226  11.567   2.176   4.920  0.1142  0.1064  0.0224
  191MOL0     C26227  11.701   2.129   4.905  0.0618 -0.5853  1.6315
  191MOL0     O26228  11.802   2.203   4.972 -0.4521  0.2191 -0.3978
  191MOL0     C26229  11.943   2.186   4.957 -0.2294 -0.4406  0.2134
  191MOL0     C26230  11.994   2.075   5.051 -0.4578  0.0496 -0.9373
  191MOL0     C26231  12.034   2.130   5.195 -0.7436  0.1488  0.6035
  191MOL0     C26232  11.919   2.173   5.284 -0.0267 -0.5649 -0.4298
  191MOL0     C26233  11.780   2.100   5.277  0.3885 -0.5989 -0.1527
  191MOL0     C26234  11.713   2.111   5.415 -0.7567  0.2380  0.4367
  191MOL0     C26235  11.581   2.033   5.430 -0.1805 -0.6542  1.2779
  191MOL0     C26236  11.550   2.010   5.579  0.2546 -0.9520  0.2371
  191MOL0     N26237  11.452   1.906   5.606 -0.0233 -0.6589 -0.6417
  191MOL0     C26238  11.319   1.900   5.589 -0.3661  0.3046 -0.5839
  191MOL0     C26239  11.275   1.772   5.627 -0.6437  0.1126  0.7636
  191MOL0     C26240  11.130   1.730   5.615 -0.5418  0.0850 -0.4242
  191MOL0     C26241  11.105   1.600   5.536 -0.2884 -0.2994  1.2670
  191MOL0     C26242  10.948   1.580   5.518  0.3361  0.5454  0.0137
  191MOL0     C26243  10.875   1.572   5.651 -0.0065 -0.4645  0.3130
  191MOL0     O26244  10.732   1.571   5.629  0.6919 -0.1896 -0.5737
  191MOL0     C26245  10.660   1.653   5.706 -0.7307 -0.2360 -0.2503
  191MOL0     C26246  10.555   1.730   5.654 -0.1077 -0.7167 -0.0738
  191MOL0     C26247  10.485   1.828   5.726 -0.5597 -0.3059 -0.7572
  191MOL0     C26248  10.363   1.895   5.663  0.0432  0.8072  0.5101
  191MOL0     C26249  10.523   1.854   5.861  0.8763 -0.0920  0.6478
  191MOL0     C26250  10.461   1.964   5.940 -0.2963 -0.1668 -0.4965
  191MOL0     O26251  10.341   1.950   5.998 -0.2280 -0.6108  0.9604
  191MOL0     C26252  10.289   2.070   6.037 -0.4622  0.0969 -0.4617
  191MOL0     C26253  10.253   2.161   5.943 -0.1238 -0.2690  0.3209
  191MOL0     C26254  10.196   2.285   5.978 -0.4141  0.2454  0.4032
  191MOL0     C26255  10.146   2.300   6.107 -0.1052  0.5893  0.1204
  191MOL0     O26256  10.082   2.404   6.155  0.3136 -0.2724 -0.6255
  191MOL0     C26257  10.031   2.519   6.081 -0.6814 -0.2064  0.0567
  191MOL0     C26258   9.930   2.590   6.169  0.1944  1.3687 -0.0934
  191MOL0     C26259   9.994   2.660   6.295 -0.3009  0.1638 -0.7394
  191MOL0     C26260  10.110   2.591   6.362 -1.3238  0.4972 -0.0922
  191MOL0     C26261  10.182   2.661   6.485  0.6595 -0.2111  0.9399
  191MOL0     C26262  10.078   2.652   6.611 -0.3210  0.2728  0.8991
  191MOL0     C26263  10.126   2.754   6.721 -0.2719 -0.0017  0.3470
  191MOL0     C26264  10.018   2.862   6.739 -0.6318  1.1244  0.1461
  191MOL0    Cl26265  10.100   2.979   6.842 -0.1947  0.1057 -1.1687
  191MOL0     C26266  10.176   2.199   6.205  0.0136 -0.0089  0.3679
  191MOL0     C26267  10.254   2.091   6.169  0.5914 -0.0436  0.1599
  191MOL0     O26268  10.540   2.056   5.943 -0.1273  1.1961 -0.7310
  191MOL0     C26269  10.624   1.770   5.913  0.5826  0.6494 -0.7974
  191MOL0     C26270  10.692   1.675   5.839 -0.6187  0.2005  0.6187
  191MOL0     N26271  11.387   1.709   5.679 -0.0798  0.8378  0.4447
  191MOL0     N26272  11.493   1.791   5.668  0.1847  0.3365 -0.1360
  191MOL0     C26273  11.721   2.031   4.814 -0.5847 -0.1328 -0.3982
  191MOL0     C26274  11.621   1.980   4.738  1.0508  0.3238  0.7818
  191MOL0     C26275  11.181   2.020   4.569  0.9428 -0.4957 -0.4613
  191MOL0     C26276  11.244   2.004   4.441  0.5445 -0.6375 -0.1057
  191MOL0     C26277  11.186   2.029   4.324 -0.0156 -0.7287  0.1441
  191MOL0     C26278  11.056   2.076   4.323 -0.0694 -0.5990  0.7938
  191MOL0     O26279  10.994   2.109   4.205 -0.1406  0.3251  0.5446
  191MOL0     C26280  10.927   2.242   4.187 -0.3806 -0.3833 -0.2699
  191MOL0     C26281  11.045   2.342   4.182 -0.4876 -0.5807 -1.3132
  191MOL0     C26282  10.981   2.483   4.178  0.4415 -0.3409  0.4687
  191MOL0     C26283  11.064   2.581   4.262 -0.3077  0.3693 -0.7554
  191MOL0     C26284  11.027   2.715   4.227  0.0253 -0.5855 -0.3119
  191MOL0     C26285  10.994   2.833   4.220  0.5863 -0.3034 -0.3004
  191MOL0     C26286  10.989   2.096   4.442 -0.2253 -0.0750  0.2079
  191MOL0     C26287  11.047   2.075   4.564  0.5560  0.3705  0.1215
  191MOL0     C26288  10.960   2.119   4.693  0.4096 -0.1683 -0.2386
  191MOL0     H26289  11.353   2.144   4.873 -1.3095 -2.0413  0.4009
  191MOL0     H26290  11.569   2.258   4.992  2.5212  4.4131 -4.2829
  191MOL0     H26291  11.995   2.278   4.985  1.7389 -0.9394 -1.5562
  191MOL0     H26292  11.974   2.171   4.853 -0.3190 -0.5583  0.2033
  191MOL0     H26293  11.918   1.998   5.067 -0.0920  0.0356  0.9399
  191MOL0     H26294  12.073   2.007   5.019  0.4930  0.7574 -0.1630
  191MOL0     H26295  12.081   2.043   5.242 -0.6370 -0.0393  0.1642
  191MOL0     H26296  12.109   2.208   5.185 -0.7418  0.0439 -0.3041
  191MOL0     H26297  11.959   2.161   5.385 -0.5560  3.4528  0.4322
  191MOL0     H26298  11.904   2.281   5.279  1.1072 -0.3071  0.9010
  191MOL0     H26299  11.811   1.998   5.249  1.2154 -0.1593 -0.8778
  191MOL0     H26300  11.715   2.132   5.195  0.9768  0.3495 -0.2555
  191MOL0     H26301  11.780   2.073   5.493 -0.3566  0.2745  0.1091
  191MOL0     H26302  11.690   2.215   5.443  1.2966  1.0320 -0.6054
  191MOL0     H26303  11.582   1.941   5.370  1.7375  0.8165 -1.1613
  191MOL0     H26304  11.498   2.092   5.390 -0.6698 -1.7221  0.6873
  191MOL0     H26305  11.643   1.991   5.634  1.2832  2.5909 -0.0389
  191MOL0     H26306  11.515   2.104   5.622  0.0905  0.2319 -2.3158
  191MOL0     H26307  11.256   1.973   5.541 -2.4746 -0.2637  1.1471
  191MOL0     H26308  11.060   1.804   5.576 -2.4074  0.5389  3.3204
  191MOL0     H26309  11.094   1.728   5.719 -0.9305  0.8920 -0.5363
  191MOL0     H26310  11.150   1.607   5.437  2.0595  0.5324  2.3158
  191MOL0     H26311  11.152   1.519   5.593  0.7086  0.5732  1.7312
  191MOL0     H26312  10.917   1.664   5.454 -0.3579  1.6324  1.7193
  191MOL0     H26313  10.934   1.483   5.470 -1.6007  1.9512 -2.5415
  191MOL0     H26314  10.895   1.476   5.699  0.2162 -0.0839  0.9839
  191MOL0     H26315  10.900   1.652   5.722 -0.4555 -0.1385  0.1155
  191MOL0     H26316  10.515   1.688   5.562  0.4456  0.2639 -0.7692
  191MOL0     H26317  10.339   1.841   5.571 -0.3767  1.8516 -0.0106
  191MOL0     H26318  10.380   2.003   5.653  0.1890  0.6001 -6.9255
  191MOL0     H26319  10.275   1.890   5.727 -0.6706  1.1057 -0.4182
  191MOL0     H26320  10.272   2.139   5.838 -0.2416 -5.4684  1.1191
  191MOL0     H26321  10.161   2.365   5.913  1.1114  0.7420  0.1606
  191MOL0     H26322  10.116   2.585   6.066 -1.3205  1.4714  3.0707
  191MOL0     H26323   9.984   2.483   5.988  1.5150 -0.4149 -1.0342
  191MOL0     H26324   9.873   2.662   6.111 -0.6118  0.2722 -0.7058
  191MOL0     H26325   9.856   2.516   6.201 -1.5928  3.0395 -0.1899
  191MOL0     H26326   9.912   2.661   6.368  0.7838 -4.3281  0.8552
  191MOL0     H26327  10.022   2.765   6.280 -2.0314  0.9254  0.8298
  191MOL0     H26328  10.191   2.575   6.291 -0.7770  0.1076  0.6099
  191MOL0     H26329  10.068   2.499   6.404 -1.1455  2.2768  4.5890
  191MOL0     H26330  10.275   2.608   6.508  0.1494 -1.9168 -0.6909
  191MOL0     H26331  10.208   2.767   6.479 -0.0892 -0.0408  0.5792
  191MOL0     H26332  10.086   2.548   6.647  2.6381 -0.3283 -1.1429
  191MOL0     H26333   9.975   2.671   6.582  0.1629  2.3183  0.3700
  191MOL0     H26334  10.220   2.804   6.696  0.2431 -1.0731  0.0557
  191MOL0     H26335  10.143   2.709   6.819  2.9688 -3.5997 -1.5853
  191MOL0     H26336   9.928   2.819   6.787 -1.7747 -1.3263 -3.7193
  191MOL0     H26337   9.994   2.914   6.646  0.6392  1.3726 -0.0520
  191MOL0     H26338  10.141   2.212   6.306 -1.7073  0.4617 -0.2657
  191MOL0     H26339  10.288   2.022   6.245  2.9480  1.8042  0.9246
  191MOL0     H26340  10.655   1.781   6.017  1.2305 -1.3535 -0.7290
  191MOL0     H26341  10.777   1.632   5.892 -0.9418 -1.2263  0.0187
  191MOL0     H26342  11.820   1.998   4.785 -0.7336  0.2345 -1.3913
  191MOL0     H26343  11.645   1.899   4.669  2.6046 -0.7754  2.5161
  191MOL0     H26344  11.342   1.960   4.422 -0.6272 -3.0327 -0.9872
  191MOL0     H26345  11.238   2.025   4.229 -2.4066  0.4748 -1.3288
  191MOL0     H26346  10.887   2.248   4.086 -1.5925  1.0057  0.2618
  191MOL0     H26347  10.852   2.270   4.261 -1.3571  0.4962 -1.5434
  191MOL0     H26348  11.114   2.307   4.104  1.1644 -3.8945  1.3442
  191MOL0     H26349  11.101   2.334   4.276  0.9050 -1.6659 -2.1845
  191MOL0     H26350  10.991   2.519   4.075  2.1502 -3.2800 -0.5464
  191MOL0     H26351  10.876   2.481   4.206  0.0374 -1.9431 -0.9954
  191MOL0     H26352  11.170   2.569   4.236  0.2474  3.3411 -0.2119
  191MOL0     H26353  11.053   2.567   4.370  0.3607  1.7115 -0.4888
  191MOL0     H26354  10.958   2.928   4.185  1.0313 -0.7441 -2.0855
  191MOL0     H26355  10.888   2.136   4.432  0.8051  2.2155 -2.3527
  191MOL0     H26356  10.879   2.189   4.668 -0.0663 -0.2186  1.0655
  191MOL0     H26357  10.917   2.041   4.756 -2.4021  2.0376  0.8426
  191MOL0     H26358  11.019   2.180   4.763 -0.6141  0.0102  0.4983
  192MOL0     O26359   7.644   4.138   4.895  1.0345 -0.1141 -0.7255
  192MOL0     C26360   7.676   4.025   4.852  0.1626 -0.2743  0.7792
  192MOL0     O26361   7.746   3.938   4.929  0.0559 -0.1067 -0.1266
  192MOL0     C26362   7.744   3.951   5.062  0.1097  0.0392 -0.6488
  192MOL0     C26363   7.816   4.049   5.129  0.1198 -0.1798  0.0458
  192MOL0     C26364   7.812   4.049   5.269 -1.1915  0.5503 -0.1878
  192MOL0     C26365   7.738   3.955   5.343 -0.9220  0.6402  0.3154
  192MOL0     O26366   7.743   3.929   5.478 -0.4636 -0.2726 -0.2253
  192MOL0     C26367   7.834   4.000   5.562  0.4947  0.1836 -0.4225
  192MOL0     C26368   7.797   3.959   5.710 -0.5861 -0.7799 -0.5724
  192MOL0     C26369   7.655   3.997   5.747 -0.0373 -0.1684 -0.8597
  192MOL0     C26370   7.627   3.969   5.904 -0.4354  1.0900  0.7724
  192MOL0     C26371   7.493   4.040   5.939 -0.3052  0.7636 -0.5919
  192MOL0     C26372   7.479   4.025   6.086 -0.0035  0.1721  0.2425
  192MOL0     C26373   7.350   4.097   6.131 -0.1994 -0.0495 -0.5898
  192MOL0     C26374   7.348   4.090   6.281 -0.2315  0.9409 -0.1520
  192MOL0     N26375   7.244   4.175   6.326  0.1058 -0.2843 -0.7901
  192MOL0     C26376   7.114   4.139   6.326  0.5006 -1.0037  0.9675
  192MOL0     C26377   7.053   4.250   6.378 -0.5505  0.0607  0.0230
  192MOL0     C26378   6.901   4.258   6.407 -1.0599 -0.6233  0.0483
  192MOL0     C26379   6.815   4.217   6.282  0.4067 -0.6524 -0.5163
  192MOL0     C26380   6.674   4.257   6.295  1.0414 -0.8620 -0.8160
  192MOL0     C26381   6.615   4.212   6.433  0.0850  0.2234 -0.1027
  192MOL0     O26382   6.471   4.244   6.432 -0.3228 -0.3301  0.3268
  192MOL0     C26383   6.411   4.256   6.561 -0.2152  0.8794 -0.4053
  192MOL0     C26384   6.473   4.212   6.685  0.3284  0.0658  0.0998
  192MOL0     C26385   6.418   4.254   6.808 -0.5769  0.1213 -0.4555
  192MOL0     C26386   6.485   4.212   6.936  0.0992 -0.2195 -0.7939
  192MOL0     C26387   6.297   4.331   6.812 -0.3754 -1.0445  0.0238
  192MOL0     C26388   6.234   4.395   6.935 -0.3396 -0.4588  0.8536
  192MOL0     O26389   6.102   4.404   6.953  0.2746  0.4608 -0.3366
  192MOL0     C26390   6.043   4.452   7.068  0.0700  0.2458  0.0708
  192MOL0     C26391   5.911   4.490   7.051  0.6377  0.2690  1.1628
  192MOL0     C26392   5.836   4.547   7.153  0.2505 -0.1145  0.5360
  192MOL0     C26393   5.892   4.541   7.281 -0.1734 -0.9182  0.0954
  192MOL0     O26394   5.827   4.594   7.394 -0.1249  0.1731 -0.6190
  192MOL0     C26395   5.762   4.723   7.374  0.5777 -0.4883  0.0708
  192MOL0     C26396   5.731   4.792   7.502 -0.3265 -0.3381 -0.1138
  192MOL0     C26397   5.868   4.823   7.566  0.0688 -1.6764  0.9232
  192MOL0     C26398   5.843   4.907   7.689  0.0308 -0.0182  0.3032
  192MOL0     C26399   5.970   4.956   7.754 -0.4359  0.3466  0.3324
  192MOL0     C26400   6.009   5.095   7.709 -0.9319 -0.4608  0.4357
  192MOL0     C26401   6.137   5.154   7.766 -0.6978  0.6778  1.0364
  192MOL0     C26402   6.120   5.263   7.868 -0.0283 -0.6885  0.7152
  192MOL0    Cl26403   6.289   5.328   7.906  0.8066  0.8178  0.9623
  192MOL0     C26404   6.024   4.498   7.301 -0.7150  1.0995 -0.9251
  192MOL0     C26405   6.102   4.453   7.197 -0.7927  0.5324  0.2835
  192MOL0     O26406   6.311   4.455   7.002 -0.5532  0.4613  0.0198
  192MOL0     C26407   6.234   4.363   6.691 -0.1898 -0.3030 -0.5370
  192MOL0     C26408   6.289   4.320   6.569 -0.2862  0.3357 -0.7589
  192MOL0     N26409   7.146   4.337   6.424 -0.1769  0.2130  0.4677
  192MOL0     N26410   7.256   4.302   6.380 -0.0120  1.0888  1.2464
  192MOL0     C26411   7.657   3.860   5.269 -1.2748  0.3592 -0.4867
  192MOL0     C26412   7.663   3.854   5.129 -0.0205  0.2825  0.3672
  192MOL0     C26413   7.661   3.984   4.711  0.4744 -0.2342  0.1388
  192MOL0     C26414   7.708   3.853   4.672 -0.4845 -0.5363 -1.2874
  192MOL0     C26415   7.709   3.811   4.537  0.0643  0.0338  0.7009
  192MOL0     C26416   7.670   3.890   4.437 -0.4232 -0.0220 -0.8469
  192MOL0     O26417   7.690   3.846   4.304 -0.4639 -0.5718 -0.8997
  192MOL0     C26418   7.669   3.938   4.194  0.4256 -0.2728 -0.0117
  192MOL0     C26419   7.780   4.041   4.181  0.3581  0.3031 -0.2357
  192MOL0     C26420   7.715   4.169   4.118 -0.5771 -0.1037  1.4623
  192MOL0     C26421   7.809   4.287   4.127 -0.6409  0.0971 -0.2667
  192MOL0     C26422   7.790   4.343   4.263 -0.1403 -0.9237 -0.8177
  192MOL0     C26423   7.773   4.385   4.378 -0.6316 -0.7673 -0.3705
  192MOL0     C26424   7.627   4.021   4.471  0.9191 -0.0290 -0.0561
  192MOL0     C26425   7.613   4.071   4.604  0.4626  0.5166  0.0363
  192MOL0     C26426   7.564   4.223   4.622  0.3655  0.8007  0.2868
  192MOL0     H26427   7.871   4.127   5.078  0.5740  1.5627  2.9683
  192MOL0     H26428   7.868   4.128   5.318  0.0747  0.1292 -0.8860
  192MOL0     H26429   7.820   4.109   5.556 -1.8476  0.0555  1.3844
  192MOL0     H26430   7.938   3.971   5.541  0.3425 -1.5489  1.0222
  192MOL0     H26431   7.816   3.851   5.720  1.2876 -0.2805  2.3239
  192MOL0     H26432   7.872   4.013   5.767 -1.5950  1.6469 -1.4141
  192MOL0     H26433   7.638   4.104   5.740  0.9694  0.2749  2.1252
  192MOL0     H26434   7.576   3.947   5.691 -1.4447  1.9229 -0.8237
  192MOL0     H26435   7.611   3.861   5.908 -4.2395  1.5420  2.6657
  192MOL0     H26436   7.712   4.005   5.962 -2.1991  2.7474  2.4557
  192MOL0     H26437   7.408   3.997   5.886  0.9605 -3.4891  0.3937
  192MOL0     H26438   7.504   4.142   5.902  0.5662  1.0417  0.3827
  192MOL0     H26439   7.485   3.921   6.118  1.0202  0.2656  0.3630
  192MOL0     H26440   7.565   4.074   6.132 -3.1311  3.6503  3.1150
  192MOL0     H26441   7.256   4.061   6.087 -1.1058 -0.2517  1.4050
  192MOL0     H26442   7.364   4.198   6.091 -3.6773  0.8902  0.2200
  192MOL0     H26443   7.336   3.988   6.316  1.4030  0.6006 -0.4903
  192MOL0     H26444   7.440   4.126   6.328  1.0705 -0.7573 -1.3021
  192MOL0     H26445   7.076   4.048   6.282 -2.2266  1.0609 -1.3403
  192MOL0     H26446   6.878   4.363   6.428 -3.0823 -0.5371 -2.1812
  192MOL0     H26447   6.876   4.203   6.499 -2.6448  0.0547  0.0601
  192MOL0     H26448   6.869   4.246   6.192  0.8447 -2.1069 -0.7538
  192MOL0     H26449   6.819   4.107   6.282  0.2411 -0.6672  0.6476
  192MOL0     H26450   6.669   4.366   6.284  0.9290 -0.7584  0.1470
  192MOL0     H26451   6.612   4.214   6.216 -1.0008 -1.5062  1.0184
  192MOL0     H26452   6.639   4.113   6.472 -2.6914 -1.1221 -1.4603
  192MOL0     H26453   6.664   4.285   6.497 -0.6116  1.3533 -0.8086
  192MOL0     H26454   6.561   4.149   6.691  1.2242  1.2956  0.3234
  192MOL0     H26455   6.591   4.232   6.921 -0.0517  1.1528 -0.2371
  192MOL0     H26456   6.453   4.109   6.956 -1.7198 -0.3355 -3.6304
  192MOL0     H26457   6.460   4.276   7.022  1.4577  1.8533 -1.8687
  192MOL0     H26458   5.870   4.492   6.950  2.9890  4.1350  0.0633
  192MOL0     H26459   5.732   4.578   7.146  0.8164  1.5336 -1.6804
  192MOL0     H26460   5.824   4.789   7.314  1.1497 -2.1787 -1.2769
  192MOL0     H26461   5.669   4.708   7.318  0.4400  3.4522 -1.0513
  192MOL0     H26462   5.661   4.876   7.495  1.6126  1.2447 -2.4149
  192MOL0     H26463   5.685   4.723   7.572 -1.8422  2.6330  2.0649
  192MOL0     H26464   5.930   4.877   7.494 -1.7832 -1.7317 -0.8115
  192MOL0     H26465   5.924   4.733   7.594  0.1633 -2.6358 -1.9583
  192MOL0     H26466   5.789   4.841   7.758 -0.7283 -2.7624 -2.6885
  192MOL0     H26467   5.788   5.000   7.670 -0.4331 -0.2108  0.6829
  192MOL0     H26468   5.954   4.955   7.862 -2.4257 -0.9168  0.0738
  192MOL0     H26469   6.056   4.896   7.723 -0.3522  1.7170 -2.3758
  192MOL0     H26470   5.922   5.158   7.729  0.1077  2.5232 -3.2419
  192MOL0     H26471   6.020   5.081   7.601  0.0578  2.7765  0.0168
  192MOL0     H26472   6.194   5.203   7.687  1.1011  2.7071  3.4241
  192MOL0     H26473   6.197   5.076   7.815 -1.7292 -0.5180  0.4590
  192MOL0     H26474   6.072   5.218   7.956 -0.9282 -0.8453  0.1561
  192MOL0     H26475   6.066   5.344   7.818  1.5675 -0.1939 -0.2480
  192MOL0     H26476   6.066   4.492   7.401 -0.9284 -1.5095 -0.9213
  192MOL0     H26477   6.204   4.424   7.221 -0.8287  1.5766  1.8343
  192MOL0     H26478   6.146   4.425   6.701  0.4068  0.1443  3.7429
  192MOL0     H26479   6.248   4.355   6.475 -0.8165 -1.4127 -1.2177
  192MOL0     H26480   7.620   3.777   5.328 -0.7514 -0.5102 -1.3635
  192MOL0     H26481   7.610   3.773   5.081 -1.9645  1.4636  0.4013
  192MOL0     H26482   7.739   3.773   4.738  2.3000  0.5445 -1.1356
  192MOL0     H26483   7.765   3.728   4.496  1.7895  1.8557 -0.8750
  192MOL0     H26484   7.678   3.879   4.102  0.0062  0.1055 -0.2965
  192MOL0     H26485   7.569   3.982   4.203  0.1275 -1.3162  2.7367
  192MOL0     H26486   7.860   4.007   4.114  0.1471  0.8648 -0.7876
  192MOL0     H26487   7.820   4.058   4.281 -1.6082 -0.1390  0.6685
  192MOL0     H26488   7.713   4.139   4.012  1.5898  3.0922  0.3951
  192MOL0     H26489   7.614   4.197   4.148 -0.1840  3.1782  0.1549
  192MOL0     H26490   7.794   4.366   4.053 -0.5712 -0.2676 -0.6737
  192MOL0     H26491   7.910   4.245   4.116 -0.8906 -0.3764 -0.8123
  192MOL0     H26492   7.760   4.438   4.470  3.6789  4.3128 -2.1792
  192MOL0     H26493   7.604   4.099   4.399  0.3242  1.1742  1.3826
  192MOL0     H26494   7.620   4.280   4.697 -1.4221  2.2389  0.5790
  192MOL0     H26495   7.549   4.274   4.527  0.2698  2.5862  1.2241
  192MOL0     H26496   7.466   4.204   4.667 -0.8548  0.6600 -2.2543
  193MOL0     O26497   7.441   3.927   1.098  0.1512  0.2203  0.0494
  193MOL0     C26498   7.496   3.977   1.193  0.7798  0.3704 -0.4731
  193MOL0     O26499   7.538   3.910   1.303  0.4882 -0.3335 -0.0201
  193MOL0     C26500   7.504   3.787   1.339 -0.2066  0.6975 -0.8211
  193MOL0     C26501   7.606   3.711   1.412  0.8823 -1.2538  0.7421
  193MOL0     C26502   7.584   3.570   1.438  0.1650  0.4714  0.8029
  193MOL0     C26503   7.462   3.510   1.401 -0.2073  0.0211 -0.0124
  193MOL0     O26504   7.455   3.377   1.433  0.3168 -0.0608 -0.0841
  193MOL0     C26505   7.377   3.296   1.349 -0.3682  0.6860  0.4823
  193MOL0     C26506   7.260   3.246   1.437  0.6474  0.2185  0.6780
  193MOL0     C26507   7.309   3.135   1.536  0.2351 -1.0229 -0.1218
  193MOL0     C26508   7.203   3.103   1.633  1.0315  0.7131 -0.3469
  193MOL0     C26509   7.250   3.057   1.772 -0.4890  0.3017  0.0551
  193MOL0     C26510   7.297   2.915   1.765  0.6385 -1.5308  0.1137
  193MOL0     C26511   7.433   2.899   1.834 -0.4078 -0.6049 -0.4837
  193MOL0     C26512   7.475   2.750   1.835  0.4462 -0.2505 -0.1165
  193MOL0     N26513   7.611   2.743   1.892  0.4289 -0.3525 -0.5907
  193MOL0     C26514   7.718   2.712   1.806 -1.3729 -0.3129 -0.5781
  193MOL0     C26515   7.825   2.743   1.875  0.3543 -1.3034  0.0278
  193MOL0     C26516   7.968   2.742   1.830 -0.7670 -1.0032 -0.3819
  193MOL0     C26517   8.049   2.643   1.922  0.1220  0.5082  0.3027
  193MOL0     C26518   8.169   2.575   1.847 -1.2031  0.0912  0.5991
  193MOL0     C26519   8.232   2.473   1.943 -0.0722  0.5157 -0.3670
  193MOL0     O26520   8.215   2.344   1.877 -0.1233 -0.2641 -0.6129
  193MOL0     C26521   8.231   2.232   1.962  0.3746  0.3359  1.0387
  193MOL0     C26522   8.300   2.224   2.082 -0.2794 -0.0975 -0.4417
  193MOL0     C26523   8.309   2.097   2.150 -0.7821  0.1797  0.2450
  193MOL0     C26524   8.381   2.097   2.284 -0.4428  0.1056  0.3720
  193MOL0     C26525   8.291   1.975   2.076  0.3231  0.3262 -0.2478
  193MOL0     C26526   8.341   1.838   2.117  0.2960  0.9667 -0.0914
  193MOL0     O26527   8.418   1.811   2.228  0.2291 -0.3016 -0.6937
  193MOL0     C26528   8.449   1.681   2.244 -0.3702  1.1443 -1.3369
  193MOL0     C26529   8.360   1.588   2.312 -1.3596 -0.4924  0.1407
  193MOL0     C26530   8.396   1.455   2.340 -0.6407 -1.1744  0.3177
  193MOL0     C26531   8.521   1.404   2.309  0.8407 -1.1812 -0.3839
  193MOL0     O26532   8.545   1.274   2.353 -0.6660 -0.2385 -0.0611
  193MOL0     C26533   8.677   1.228   2.366  0.6091 -0.5278  0.4261
  193MOL0     C26534   8.678   1.142   2.492  0.6669  0.0319  0.5756
  193MOL0     C26535   8.653   1.213   2.625 -0.6690  0.0811 -0.3629
  193MOL0     C26536   8.722   1.161   2.751 -1.2944 -0.5853  0.1489
  193MOL0     C26537   8.685   1.252   2.872 -0.7650  0.3451  0.0169
  193MOL0     C26538   8.734   1.179   2.994  0.4809 -0.2976  0.1285
  193MOL0     C26539   8.728   1.268   3.122 -0.4537  0.1537  0.4728
  193MOL0     C26540   8.599   1.313   3.180 -0.0642 -0.7453  0.2144
  193MOL0    Cl26541   8.625   1.392   3.344 -0.2247 -0.0928  0.1119
  193MOL0     C26542   8.603   1.487   2.233  0.3962  0.3281  0.0279
  193MOL0     C26543   8.575   1.616   2.212  1.5644  0.2801 -0.2220
  193MOL0     O26544   8.324   1.750   2.027  0.0446 -0.1508  0.3502
  193MOL0     C26545   8.225   1.983   1.956  1.0380 -0.1782 -1.0332
  193MOL0     C26546   8.190   2.111   1.901 -1.2627  0.2418 -0.2040
  193MOL0     N26547   7.784   2.790   2.000  0.2912 -1.2409  0.2909
  193MOL0     N26548   7.660   2.789   2.008 -0.1314  0.3423  0.3698
  193MOL0     C26549   7.350   3.590   1.352 -0.8019 -0.2024 -0.0150
  193MOL0     C26550   7.379   3.732   1.321 -0.2121  0.6992  0.7731
  193MOL0     C26551   7.499   4.128   1.190 -0.5281  0.2904  0.6515
  193MOL0     C26552   7.444   4.204   1.288  0.8796 -0.3179 -0.1620
  193MOL0     C26553   7.462   4.344   1.283 -0.7486  0.0353 -0.4889
  193MOL0     C26554   7.511   4.417   1.172  0.1569 -0.1510  0.2279
  193MOL0     O26555   7.513   4.550   1.186 -0.0897 -0.0316 -0.6289
  193MOL0     C26556   7.536   4.626   1.071 -0.0175  0.2635  0.2347
  193MOL0     C26557   7.559   4.768   1.105  0.0499 -0.5395 -0.9645
  193MOL0     C26558   7.440   4.818   1.196 -0.1481  0.6689 -0.1306
  193MOL0     C26559   7.416   4.977   1.172 -0.3170  0.0341 -0.3073
  193MOL0     C26560   7.526   5.033   1.243 -0.8456 -0.0397 -0.0973
  193MOL0     C26561   7.613   5.086   1.309  1.1305  0.0089 -0.5346
  193MOL0     C26562   7.557   4.338   1.067  1.1092  0.3935  0.6566
  193MOL0     C26563   7.558   4.197   1.071  0.6781 -0.7664 -0.9420
  193MOL0     C26564   7.612   4.112   0.964  1.6618 -0.3016  0.4519
  193MOL0     H26565   7.699   3.765   1.425  0.2434  0.0604  0.0373
  193MOL0     H26566   7.666   3.504   1.466 -0.9512  0.2056  3.8369
  193MOL0     H26567   7.421   3.210   1.299 -2.6643  1.2258 -2.8146
  193MOL0     H26568   7.337   3.351   1.263 -0.3412 -1.5419 -1.0435
  193MOL0     H26569   7.233   3.334   1.496  0.1813  2.8514 -3.1565
  193MOL0     H26570   7.176   3.209   1.378  0.2707  2.1702 -0.0645
  193MOL0     H26571   7.359   3.050   1.488  1.1162  0.3767 -1.8324
  193MOL0     H26572   7.394   3.175   1.592 -0.8010 -0.7482  1.3081
  193MOL0     H26573   7.137   3.187   1.656 -1.3283 -1.4150  1.2030
  193MOL0     H26574   7.133   3.032   1.587  2.0681 -1.5835  1.4225
  193MOL0     H26575   7.184   3.075   1.857  1.7684 -1.1341  2.2419
  193MOL0     H26576   7.329   3.125   1.805 -0.9825  0.6018  0.6425
  193MOL0     H26577   7.225   2.847   1.812 -1.4405  0.7730  0.4340
  193MOL0     H26578   7.307   2.873   1.665  0.1955 -3.1750  0.7293
  193MOL0     H26579   7.433   2.933   1.938 -2.6596 -0.1814 -0.5673
  193MOL0     H26580   7.519   2.950   1.790 -0.7185 -1.6134 -2.3603
  193MOL0     H26581   7.397   2.698   1.892 -1.7405  0.9718 -1.8212
  193MOL0     H26582   7.485   2.699   1.739 -0.2885 -0.9591  0.1757
  193MOL0     H26583   7.712   2.670   1.706 -4.3845  1.5074 -1.3146
  193MOL0     H26584   8.018   2.839   1.831 -1.6136 -0.4769  2.9365
  193MOL0     H26585   7.970   2.704   1.727 -0.1346 -0.4856 -0.5643
  193MOL0     H26586   8.084   2.690   2.015 -3.2567  0.0715  1.9761
  193MOL0     H26587   7.980   2.565   1.957  2.1891  0.6925  5.8002
  193MOL0     H26588   8.133   2.535   1.752 -2.7238  1.2521  0.6417
  193MOL0     H26589   8.241   2.655   1.824 -1.5892 -0.0392 -1.1956
  193MOL0     H26590   8.339   2.484   1.963 -0.0214 -0.1527 -0.2532
  193MOL0     H26591   8.182   2.475   2.040  1.2144 -2.7869  0.4775
  193MOL0     H26592   8.326   2.313   2.139  0.9838 -1.8412  1.8977
  193MOL0     H26593   8.483   2.059   2.268  0.5205  1.5874  2.4799
  193MOL0     H26594   8.338   2.038   2.366  2.4584 -1.0932  1.1941
  193MOL0     H26595   8.395   2.198   2.324 -0.2340  0.9440 -1.7067
  193MOL0     H26596   8.258   1.623   2.331 -1.5866 -1.1298  0.1249
  193MOL0     H26597   8.310   1.402   2.379 -2.9306  1.2397 -1.0873
  193MOL0     H26598   8.715   1.170   2.281 -0.8189 -2.8498  1.2759
  193MOL0     H26599   8.743   1.313   2.380  1.6877 -1.5613  1.9216
  193MOL0     H26600   8.607   1.060   2.481  1.4688 -0.8796  1.9431
  193MOL0     H26601   8.772   1.087   2.490  0.1206 -0.9295  0.4861
  193MOL0     H26602   8.546   1.202   2.641 -0.7818  1.2910 -0.2693
  193MOL0     H26603   8.675   1.319   2.614 -0.0898 -0.2525 -3.1639
  193MOL0     H26604   8.831   1.175   2.745 -1.0342 -0.3550  3.5681
  193MOL0     H26605   8.706   1.054   2.765 -0.6032 -0.8270 -0.7791
  193MOL0     H26606   8.736   1.348   2.873  2.3246 -1.1684  0.5500
  193MOL0     H26607   8.577   1.271   2.875 -0.3593  2.8425  2.1713
  193MOL0     H26608   8.842   1.169   2.986  1.0241  2.7613  2.0266
  193MOL0     H26609   8.674   1.088   3.003  0.3285 -0.5206 -2.3587
  193MOL0     H26610   8.790   1.357   3.107  1.2016 -1.0046  0.1671
  193MOL0     H26611   8.778   1.207   3.198 -1.8003 -2.1579 -0.4016
  193MOL0     H26612   8.531   1.229   3.193  0.5384 -1.1504  0.8558
  193MOL0     H26613   8.572   1.398   3.117 -1.2147 -1.9587 -0.9812
  193MOL0     H26614   8.702   1.453   2.202 -0.1581 -1.7624  0.3825
  193MOL0     H26615   8.646   1.683   2.165  1.8189  0.4702  0.4273
  193MOL0     H26616   8.209   1.891   1.900  3.8330 -1.8314  0.6143
  193MOL0     H26617   8.130   2.123   1.811 -0.0716 -0.9902 -1.2187
  193MOL0     H26618   7.253   3.545   1.336 -0.1788 -1.7833  0.4039
  193MOL0     H26619   7.299   3.779   1.264  0.4243 -1.0647 -1.7600
  193MOL0     H26620   7.385   4.163   1.370  2.7167  1.2148  2.0571
  193MOL0     H26621   7.428   4.399   1.370 -3.6182 -0.1480 -1.3935
  193MOL0     H26622   7.624   4.586   1.019  0.3269 -1.2991  1.8934
  193MOL0     H26623   7.440   4.618   1.020 -1.0564  2.6493  1.6670
  193MOL0     H26624   7.556   4.825   1.012 -2.0423 -0.0841 -0.6679
  193MOL0     H26625   7.653   4.794   1.154 -0.8874  1.9050 -0.2788
  193MOL0     H26626   7.352   4.763   1.161 -0.7585  1.6085 -0.1242
  193MOL0     H26627   7.441   4.799   1.304 -1.7167  1.1275 -0.0053
  193MOL0     H26628   7.320   5.007   1.213 -0.3221  1.3760 -1.2215
  193MOL0     H26629   7.418   5.005   1.066 -3.9265  1.0654 -0.2148
  193MOL0     H26630   7.688   5.143   1.361 -0.2074 -0.5606  2.2454
  193MOL0     H26631   7.600   4.393   0.984  1.0519  0.0853  0.4245
  193MOL0     H26632   7.663   4.175   0.890  0.8320 -0.2674 -0.1037
  193MOL0     H26633   7.672   4.035   1.014 -0.9284 -3.2775 -0.7217
  193MOL0     H26634   7.538   4.060   0.903  3.1016  0.8476 -2.4921
  194MOL0     O26635   6.734  10.797   0.027  0.0663 -0.1355 -0.3419
  194MOL0     C26636   6.763  10.890   0.111  0.1202  0.1318  0.2779
  194MOL0     O26637   6.890  10.935   0.117 -0.5344  0.2269  0.4649
  194MOL0     C26638   6.994  10.861   0.072 -0.3469  1.0037  0.2743
  194MOL0     C26639   7.087  10.933   0.003  0.4950 -0.2462 -0.1745
  194MOL0     C26640   7.218  10.879  -0.008  0.5530 -0.2708 -0.0050
  194MOL0     C26641   7.257  10.753   0.049  0.6499  0.5244  0.5769
  194MOL0     O26642   7.383  10.709   0.036  0.4964 -0.1242 -0.0799
  194MOL0     C26643   7.421  10.583   0.070 -0.5655 -0.3303  0.6232
  194MOL0     C26644   7.572  10.614   0.102  0.6919  0.2106  0.6628
  194MOL0     C26645   7.654  10.643  -0.023 -0.0547 -0.1816  1.0098
  194MOL0     C26646   7.812  10.637   0.007  0.0091  0.0010  1.1593
  194MOL0     C26647   7.893  10.705  -0.108 -0.1020  0.1676 -0.3665
  194MOL0     C26648   7.933  10.588  -0.209 -0.6886 -0.5487 -0.0288
  194MOL0     C26649   8.070  10.607  -0.277 -0.0956  0.2504  0.0790
  194MOL0     C26650   8.103  10.495  -0.375  0.2332 -0.1217 -0.5453
  194MOL0     N26651   8.076  10.359  -0.321  0.1409  0.4604  0.4820
  194MOL0     C26652   8.090  10.318  -0.189  0.9552 -0.2530 -0.2208
  194MOL0     C26653   8.037  10.194  -0.177 -0.3041  0.5328 -1.0736
  194MOL0     C26654   8.036  10.116  -0.051 -0.6658  0.7118 -0.3108
  194MOL0     C26655   7.969   9.982  -0.075  0.3863 -0.1161 -0.0570
  194MOL0     C26656   7.953   9.896   0.062  0.7056  0.2420 -0.2664
  194MOL0     C26657   7.806   9.857   0.090 -0.7035  0.2279  0.0398
  194MOL0     O26658   7.803   9.819   0.228  0.6305  0.1910 -0.2795
  194MOL0     C26659   7.679   9.790   0.284  1.1173 -0.7470 -0.6883
  194MOL0     C26660   7.680   9.719   0.411  0.3669 -0.7501 -0.7899
  194MOL0     C26661   7.565   9.674   0.481 -0.0792  0.1609  0.2719
  194MOL0     C26662   7.581   9.610   0.618 -0.1863 -0.7906 -0.2967
  194MOL0     C26663   7.441   9.714   0.430  0.2197  0.5974  0.9982
  194MOL0     C26664   7.312   9.659   0.494 -0.7721 -0.3892  1.0120
  194MOL0     O26665   7.304   9.532   0.537  0.3026 -0.1463 -0.1147
  194MOL0     C26666   7.191   9.493   0.594 -0.0932  1.6330  0.0684
  194MOL0     C26667   7.106   9.400   0.529  0.4308 -0.3080  0.1123
  194MOL0     C26668   6.983   9.363   0.597  0.2365 -0.4511 -0.2482
  194MOL0     C26669   6.956   9.402   0.729 -0.4750 -0.7589 -0.6588
  194MOL0     O26670   6.845   9.366   0.797  0.3938  0.3459  0.1557
  194MOL0     C26671   6.770   9.248   0.753 -0.3782 -0.0524  0.3502
  194MOL0     C26672   6.658   9.214   0.859 -0.4781 -0.4026  0.4242
  194MOL0     C26673   6.701   9.249   1.002  0.2207 -0.3745  0.2166
  194MOL0     C26674   6.816   9.176   1.061 -0.4703  0.5131  0.8488
  194MOL0     C26675   6.937   9.271   1.089  0.9428  0.4611  0.3120
  194MOL0     C26676   7.040   9.199   1.181 -0.2207  0.0979 -0.4465
  194MOL0     C26677   7.157   9.287   1.223  0.4791 -0.1116  0.2886
  194MOL0     C26678   7.256   9.238   1.325 -0.3788  0.1908 -0.2201
  194MOL0    Cl26679   7.298   9.072   1.283  0.2595  0.1927 -0.5354
  194MOL0     C26680   7.054   9.482   0.796 -0.5283  0.1163  0.4716
  194MOL0     C26681   7.167   9.529   0.730  0.4427  0.7903 -0.4145
  194MOL0     O26682   7.229   9.752   0.509 -0.9118  0.0462 -0.3705
  194MOL0     C26683   7.437   9.789   0.312 -0.5218  1.4811  0.3160
  194MOL0     C26684   7.553   9.818   0.241 -0.2407  0.0156 -1.0668
  194MOL0     N26685   7.996  10.154  -0.301 -0.1268 -0.2395  0.0117
  194MOL0     N26686   8.008  10.260  -0.383  0.3044 -0.0300  0.0935
  194MOL0     C26687   7.149  10.679   0.111  0.0346  0.9591 -0.2047
  194MOL0     C26688   7.016  10.735   0.126 -0.6403  0.8261 -0.5241
  194MOL0     C26689   6.664  10.943   0.208 -0.0846  0.4252 -0.5465
  194MOL0     C26690   6.704  11.040   0.303  0.8161  0.4206 -0.0205
  194MOL0     C26691   6.613  11.122   0.379  0.1069  1.0141  0.5005
  194MOL0     C26692   6.474  11.097   0.355 -0.5059 -0.0190  0.4602
  194MOL0     O26693   6.377  11.160   0.424 -0.3345  0.0685 -0.5064
  194MOL0     C26694   6.374  11.300   0.435 -0.2374 -0.1078  0.2715
  194MOL0     C26695   6.230  11.344   0.459  0.1562 -0.3412 -0.3413
  194MOL0     C26696   6.114  11.260   0.393  0.0150  0.2594 -0.2376
  194MOL0     C26697   5.979  11.274   0.466  0.5037  1.1727  0.4780
  194MOL0     C26698   5.881  11.168   0.434  0.4001  0.4253  0.3334
  194MOL0     C26699   5.784  11.093   0.405  0.8597 -0.9323  0.3396
  194MOL0     C26700   6.437  10.982   0.288  0.1272 -0.1131 -0.2109
  194MOL0     C26701   6.524  10.909   0.209  0.5516  0.1932  0.2522
  194MOL0     C26702   6.457  10.818   0.109 -0.3812 -0.9502 -1.5248
  194MOL0     H26703   7.055  11.030  -0.034 -0.2612 -0.1222  0.7701
  194MOL0     H26704   7.282  10.955  -0.053 -0.3303  1.8873  2.1157
  194MOL0     H26705   7.398  10.502   0.001 -0.3666  0.1852 -0.0543
  194MOL0     H26706   7.376  10.566   0.168 -1.0358 -0.3115  0.4097
  194MOL0     H26707   7.589  10.681   0.187  1.0325 -1.6574  2.1372
  194MOL0     H26708   7.632  10.536   0.149  3.3272  1.7571  0.0829
  194MOL0     H26709   7.641  10.570  -0.103 -1.1350  1.4902 -0.4194
  194MOL0     H26710   7.641  10.742  -0.066  2.3481  0.1432  0.8852
  194MOL0     H26711   7.829  10.697   0.097 -0.2441  5.2352 -1.8595
  194MOL0     H26712   7.848  10.536   0.028  0.8639  0.2069  0.7219
  194MOL0     H26713   7.986  10.744  -0.064  1.0172 -2.1814 -0.4846
  194MOL0     H26714   7.850  10.792  -0.158  2.4059  0.3684 -2.4485
  194MOL0     H26715   7.920  10.492  -0.158 -3.1572 -0.6709 -0.7333
  194MOL0     H26716   7.866  10.575  -0.294  1.0907 -1.4876 -1.3402
  194MOL0     H26717   8.145  10.626  -0.200  1.1206 -1.2990 -0.6678
  194MOL0     H26718   8.069  10.698  -0.337  0.1552 -0.5438 -1.1761
  194MOL0     H26719   8.044  10.510  -0.466  1.1972 -2.0360 -1.5417
  194MOL0     H26720   8.211  10.501  -0.395  0.7591 -1.2897  1.6401
  194MOL0     H26721   8.125  10.377  -0.105 -0.6685  3.2452 -1.8082
  194MOL0     H26722   7.985  10.184   0.018 -0.2730  0.6729  0.0225
  194MOL0     H26723   8.136  10.107  -0.007 -1.2137  2.7094  1.5104
  194MOL0     H26724   7.869  10.005  -0.111 -0.5771 -0.9123  1.9666
  194MOL0     H26725   8.022   9.924  -0.151  0.5070  0.4479 -0.4073
  194MOL0     H26726   8.014   9.805   0.057 -1.5581 -1.4121  0.4077
  194MOL0     H26727   7.992   9.948   0.149  1.5457 -4.4595  2.5283
  194MOL0     H26728   7.743   9.945   0.073 -1.9761 -0.1973  2.1349
  194MOL0     H26729   7.787   9.768   0.029  0.7294  1.0612 -1.7022
  194MOL0     H26730   7.777   9.701   0.457  0.6298 -0.9403 -1.4178
  194MOL0     H26731   7.639   9.518   0.609  0.3852 -0.9293  3.3296
  194MOL0     H26732   7.488   9.583   0.670 -0.1202 -0.9128 -0.2420
  194MOL0     H26733   7.635   9.674   0.689 -0.3846 -0.5376 -0.3690
  194MOL0     H26734   7.136   9.371   0.428 -2.0386 -0.2333 -0.7071
  194MOL0     H26735   6.910   9.304   0.541 -3.3497  1.8561  1.5822
  194MOL0     H26736   6.732   9.284   0.657  1.7839  2.5105  0.3210
  194MOL0     H26737   6.828   9.159   0.726  2.8852  1.6012  1.3633
  194MOL0     H26738   6.573   9.275   0.826 -0.4941 -0.1874  0.8555
  194MOL0     H26739   6.625   9.110   0.848 -4.1660  0.7183 -0.7583
  194MOL0     H26740   6.615   9.231   1.068 -1.0614 -2.1292 -1.8101
  194MOL0     H26741   6.722   9.357   0.999  5.0065 -1.1248 -0.3142
  194MOL0     H26742   6.841   9.088   1.002  3.8677  1.1223  1.4157
  194MOL0     H26743   6.789   9.136   1.159  0.3470 -1.7461  0.2036
  194MOL0     H26744   7.004   9.291   1.004  1.3332 -3.0603 -0.3688
  194MOL0     H26745   6.897   9.361   1.138 -2.3271  0.5124 -2.0838
  194MOL0     H26746   7.061   9.101   1.137 -3.6771  0.8452 -4.3635
  194MOL0     H26747   6.981   9.187   1.273  1.6591  2.0184  1.1102
  194MOL0     H26748   7.125   9.387   1.253 -0.8913 -0.9647  1.7691
  194MOL0     H26749   7.226   9.302   1.138  1.8747  0.4379  1.4772
  194MOL0     H26750   7.205   9.244   1.422 -1.2102  0.6807 -0.6735
  194MOL0     H26751   7.349   9.294   1.338 -0.8324  0.7878  0.5898
  194MOL0     H26752   7.027   9.524   0.893  1.5002 -0.7069  1.4507
  194MOL0     H26753   7.232   9.600   0.780 -0.2671  0.6864  0.6749
  194MOL0     H26754   7.343   9.818   0.267 -1.7867 -3.4127 -0.7356
  194MOL0     H26755   7.525   9.869   0.149 -1.6577 -0.6947 -1.0555
  194MOL0     H26756   7.173  10.584   0.156  2.2850  1.3732 -0.4069
  194MOL0     H26757   6.946  10.677   0.184  3.9592 -0.6662  4.3812
  194MOL0     H26758   6.812  11.051   0.314  1.1464  0.8978 -2.8474
  194MOL0     H26759   6.651  11.193   0.453  0.3986  0.3353  1.0105
  194MOL0     H26760   6.436  11.331   0.519  0.0388 -0.7002  0.2913
  194MOL0     H26761   6.414  11.358   0.351 -1.3582 -0.4322 -0.5113
  194MOL0     H26762   6.218  11.448   0.428  1.3536  0.4825  1.7338
  194MOL0     H26763   6.217  11.342   0.568  1.1441 -1.2572 -0.2188
  194MOL0     H26764   6.107  11.291   0.288 -0.6392 -4.1569 -1.6922
  194MOL0     H26765   6.136  11.154   0.383 -1.8946 -0.0414 -1.8533
  194MOL0     H26766   5.930  11.366   0.432 -1.0470  0.5700  0.9888
  194MOL0     H26767   5.992  11.284   0.574 -0.8216  0.1127  0.7567
  194MOL0     H26768   5.716  11.015   0.379 -2.6541  2.6857 -2.6994
  194MOL0     H26769   6.331  10.959   0.282  0.5396 -1.9320 -1.3336
  194MOL0     H26770   6.479  10.820   0.002  0.6153 -1.7939 -1.3502
  194MOL0     H26771   6.471  10.714   0.141  3.6405 -0.2106 -0.2792
  194MOL0     H26772   6.349  10.817   0.128 -0.2449 -2.4369 -0.6481
  195MOL0     O26773   4.926   8.835   5.908  0.3759 -0.1806  0.4428
  195MOL0     C26774   4.817   8.849   5.964 -0.3069 -0.5786 -0.6388
  195MOL0     O26775   4.798   8.816   6.098 -0.1560 -0.6480  0.2223
  195MOL0     C26776   4.663   8.833   6.135 -0.3917 -0.4955  1.0685
  195MOL0     C26777   4.566   8.727   6.121 -0.4986 -0.4306  0.7673
  195MOL0     C26778   4.442   8.745   6.182  0.3870 -0.5470  0.6430
  195MOL0     C26779   4.401   8.865   6.243  0.4923 -0.3200 -0.9560
  195MOL0     O26780   4.281   8.879   6.307  0.2133 -0.7511 -1.1915
  195MOL0     C26781   4.211   8.763   6.338  0.3433 -0.9045  0.0053
  195MOL0     C26782   4.082   8.801   6.414 -0.9925  0.7751  0.4688
  195MOL0     C26783   4.116   8.843   6.553 -0.8375 -0.1362 -0.0518
  195MOL0     C26784   4.007   8.806   6.658  0.1372  0.1991 -0.8705
  195MOL0     C26785   4.053   8.840   6.796 -0.1362 -0.0556  0.0677
  195MOL0     C26786   4.186   8.788   6.849  0.2140  0.9362 -0.4975
  195MOL0     C26787   4.168   8.692   6.967  0.1805  0.9938 -0.7275
  195MOL0     C26788   4.297   8.620   7.025  0.5143 -0.5308  0.2714
  195MOL0     N26789   4.388   8.705   7.109 -0.5339  0.0085  0.6560
  195MOL0     C26790   4.361   8.769   7.226  0.3123 -0.2000  0.4722
  195MOL0     C26791   4.480   8.832   7.252  0.1052 -0.0385 -0.3155
  195MOL0     C26792   4.486   8.926   7.369  0.3713  0.4238 -0.0193
  195MOL0     C26793   4.584   8.874   7.478 -0.2251 -0.3061  0.6723
  195MOL0     C26794   4.695   8.978   7.521 -0.3100 -0.1414  0.3019
  195MOL0     C26795   4.796   8.996   7.400 -0.3067 -0.5959  0.4735
  195MOL0     O26796   4.882   9.103   7.434 -0.1531 -0.0443 -0.2580
  195MOL0     C26797   4.987   9.079   7.517  0.3475  1.0013 -0.0948
  195MOL0     C26798   5.049   9.191   7.573  0.3284  0.8139 -0.3572
  195MOL0     C26799   5.175   9.186   7.647  0.2503  0.0782 -0.5700
  195MOL0     C26800   5.226   9.319   7.688  0.2767  0.7872 -0.0194
  195MOL0     C26801   5.228   9.062   7.682 -0.1875 -0.2741  0.5940
  195MOL0     C26802   5.361   9.037   7.759 -0.4452  0.6076  0.3649
  195MOL0     O26803   5.365   8.915   7.820 -0.3859  0.5938 -0.2440
  195MOL0     C26804   5.479   8.883   7.888  0.4517 -0.2155  0.3110
  195MOL0     C26805   5.590   8.840   7.823 -0.8439  0.4964 -0.8723
  195MOL0     C26806   5.705   8.796   7.907  0.1129  0.4735  0.3876
  195MOL0     C26807   5.722   8.817   8.041 -1.2027 -0.6382  0.1944
  195MOL0     O26808   5.846   8.798   8.094 -0.2229 -0.7315 -0.2302
  195MOL0     C26809   5.861   8.793   8.233 -1.0090 -0.4397 -1.4703
  195MOL0     C26810   5.838   8.662   8.296 -0.2098  0.5718 -0.3652
  195MOL0     C26811   5.958   8.570   8.280 -0.1521 -0.8200 -0.2951
  195MOL0     C26812   5.950   8.447   8.369 -0.6670 -0.0612 -0.1826
  195MOL0     C26813   5.853   8.341   8.314  0.7879  0.4247 -0.8170
  195MOL0     C26814   5.877   8.210   8.391  0.5780 -0.1965 -0.3953
  195MOL0     C26815   5.987   8.119   8.345 -0.4351 -0.0265 -0.0082
  195MOL0     C26816   6.011   8.001   8.431  0.4289  0.2982  0.0067
  195MOL0    Cl26817   5.868   7.889   8.446  0.0166  0.1429 -0.2080
  195MOL0     C26818   5.613   8.869   8.107  0.3465 -0.0587 -0.1088
  195MOL0     C26819   5.489   8.891   8.036  0.6256  0.2384  0.3988
  195MOL0     O26820   5.450   9.123   7.753 -0.1361 -0.0479  0.5818
  195MOL0     C26821   5.162   8.953   7.621  0.4173  0.1471 -0.8919
  195MOL0     C26822   5.049   8.954   7.541  0.1327 -0.3871  0.7304
  195MOL0     N26823   4.572   8.817   7.159  0.0196  0.7029 -0.4004
  195MOL0     N26824   4.516   8.731   7.072  0.6577  0.4920 -0.5471
  195MOL0     C26825   4.489   8.965   6.258 -0.8869 -0.6252 -0.1538
  195MOL0     C26826   4.628   8.952   6.212  0.0474  0.6228  0.1682
  195MOL0     C26827   4.718   8.903   5.875 -1.3503  0.1870 -0.2001
  195MOL0     C26828   4.659   9.032   5.899 -0.5787  0.6883  0.7866
  195MOL0     C26829   4.570   9.087   5.817  1.0634  0.3385  0.3915
  195MOL0     C26830   4.517   9.006   5.709  0.3491  0.2960  0.0996
  195MOL0     O26831   4.413   9.031   5.622  0.2578 -0.5696 -0.0882
  195MOL0     C26832   4.326   9.142   5.650  0.2311  0.7766 -0.0371
  195MOL0     C26833   4.359   9.272   5.597 -0.2437 -0.2280 -0.1303
  195MOL0     C26834   4.431   9.260   5.465 -0.2451 -0.4532  0.5350
  195MOL0     C26835   4.459   9.397   5.400 -0.1570 -0.0183 -0.2753
  195MOL0     C26836   4.349   9.483   5.362  0.7611  0.4741  0.0536
  195MOL0     C26837   4.281   9.581   5.334 -0.3870 -0.6702  0.7136
  195MOL0     C26838   4.572   8.879   5.693  0.4197 -0.5769  0.3772
  195MOL0     C26839   4.670   8.827   5.768  0.4183  0.6143  0.0111
  195MOL0     C26840   4.711   8.678   5.739  0.2559 -0.3264 -0.0033
  195MOL0     H26841   4.602   8.638   6.071  1.0611  0.1903  0.7263
  195MOL0     H26842   4.379   8.659   6.162 -0.0390 -0.0476 -0.2104
  195MOL0     H26843   4.276   8.696   6.395  1.7561  0.7351  0.4318
  195MOL0     H26844   4.182   8.716   6.243 -0.2934 -2.0246  0.7355
  195MOL0     H26845   4.028   8.887   6.371  1.8381  0.8219 -3.4656
  195MOL0     H26846   4.003   8.725   6.417 -3.2452  2.9708  1.2019
  195MOL0     H26847   4.213   8.803   6.586 -0.4650  0.9069  0.1657
  195MOL0     H26848   4.137   8.950   6.548  2.2969 -0.5430  1.6398
  195MOL0     H26849   3.929   8.879   6.636 -1.6484 -0.3637  2.8075
  195MOL0     H26850   3.973   8.702   6.656  1.3649 -0.2799  0.8369
  195MOL0     H26851   3.975   8.828   6.871  1.8838  0.7984  2.4942
  195MOL0     H26852   4.076   8.947   6.787  1.7710 -0.4998 -0.9218
  195MOL0     H26853   4.247   8.733   6.776  0.2145  0.2607  0.0017
  195MOL0     H26854   4.248   8.868   6.891  1.9117 -0.8697  0.6231
  195MOL0     H26855   4.104   8.609   6.936 -0.1273  0.3766  1.4029
  195MOL0     H26856   4.114   8.739   7.050  1.6569  2.3310 -0.4710
  195MOL0     H26857   4.265   8.544   7.097 -1.5376  0.7612  0.7730
  195MOL0     H26858   4.372   8.579   6.955  1.3750 -0.6735  1.2451
  195MOL0     H26859   4.268   8.783   7.282  0.6687  4.3432  0.2852
  195MOL0     H26860   4.394   8.949   7.422  0.2343  2.8676 -1.1725
  195MOL0     H26861   4.520   9.024   7.333 -0.6186  1.7367  2.3932
  195MOL0     H26862   4.530   8.849   7.569 -5.0054 -2.0953 -2.2639
  195MOL0     H26863   4.638   8.786   7.440 -0.5501 -0.1102 -0.2822
  195MOL0     H26864   4.641   9.069   7.546 -0.0241  0.9187 -2.5014
  195MOL0     H26865   4.740   8.943   7.614 -0.6866 -1.8176 -0.1093
  195MOL0     H26866   4.843   8.902   7.372  1.5906  1.3927 -3.9743
  195MOL0     H26867   4.748   9.033   7.310  3.4526  1.2575 -0.9970
  195MOL0     H26868   5.014   9.289   7.543  0.9937  1.5211  1.0641
  195MOL0     H26869   5.205   9.390   7.607  1.0776 -2.6771 -3.5657
  195MOL0     H26870   5.334   9.321   7.704  0.3068  0.7155 -0.2193
  195MOL0     H26871   5.181   9.356   7.781  0.4065 -4.4050  2.4614
  195MOL0     H26872   5.580   8.827   7.716 -0.5282  0.9013 -0.9524
  195MOL0     H26873   5.788   8.757   7.850 -0.9328  3.5304 -3.6901
  195MOL0     H26874   5.958   8.819   8.275 -1.6598 -2.8565  2.0160
  195MOL0     H26875   5.790   8.861   8.279  0.5922 -0.7433  1.6938
  195MOL0     H26876   5.815   8.685   8.400  1.1544  0.7867 -0.0983
  195MOL0     H26877   5.755   8.607   8.250  0.8605 -1.1732 -0.2551
  195MOL0     H26878   6.046   8.629   8.307 -1.0954  1.1056 -1.1836
  195MOL0     H26879   5.971   8.543   8.174 -0.7068  0.7380 -0.7784
  195MOL0     H26880   5.932   8.486   8.469  0.0819  0.4406 -0.2381
  195MOL0     H26881   6.046   8.395   8.368 -0.6712 -0.0952  0.5940
  195MOL0     H26882   5.745   8.356   8.312  0.9460  1.6149 -1.9797
  195MOL0     H26883   5.890   8.324   8.212  0.0464 -0.7004 -0.9128
  195MOL0     H26884   5.782   8.155   8.388  0.3337 -0.1068  2.3716
  195MOL0     H26885   5.887   8.222   8.500  1.2404  1.9457 -0.6367
  195MOL0     H26886   6.073   8.185   8.352 -1.3898  1.0242  3.0496
  195MOL0     H26887   5.961   8.097   8.241  2.3251  2.8070 -1.4676
  195MOL0     H26888   6.041   8.033   8.531 -1.9447  1.3124  0.4721
  195MOL0     H26889   6.089   7.946   8.378 -1.5644 -0.0406 -2.7572
  195MOL0     H26890   5.603   8.900   8.211 -1.0932  4.0267 -1.2798
  195MOL0     H26891   5.410   8.919   8.105 -1.5555 -2.3858 -0.8499
  195MOL0     H26892   5.202   8.856   7.650  1.7028  0.8796 -0.1189
  195MOL0     H26893   5.013   8.861   7.500  0.3420  1.1135 -3.3169
  195MOL0     H26894   4.460   9.043   6.326  2.1863 -0.4873  1.1457
  195MOL0     H26895   4.703   9.026   6.239  0.4593  1.2406 -2.4474
  195MOL0     H26896   4.698   9.099   5.975 -2.7881  0.0838  2.5640
  195MOL0     H26897   4.550   9.190   5.844 -0.3098 -0.0926  1.1038
  195MOL0     H26898   4.230   9.112   5.609  0.1435  0.6016  0.2906
  195MOL0     H26899   4.333   9.165   5.757 -0.7523  0.9436 -0.0057
  195MOL0     H26900   4.430   9.326   5.660 -0.2809 -1.6139  1.1383
  195MOL0     H26901   4.275   9.339   5.580 -1.2550 -1.1782  0.9507
  195MOL0     H26902   4.525   9.211   5.495 -0.2819 -1.7047 -1.2100
  195MOL0     H26903   4.392   9.189   5.391 -1.6215  2.1490 -1.4175
  195MOL0     H26904   4.525   9.399   5.313  1.1563  0.5986  0.7068
  195MOL0     H26905   4.516   9.456   5.473  1.1141 -1.2477 -0.2204
  195MOL0     H26906   4.225   9.671   5.316  2.6921  1.0592 -1.1431
  195MOL0     H26907   4.527   8.820   5.613  1.9733  2.0463 -2.6629
  195MOL0     H26908   4.716   8.654   5.633 -2.4514 -0.2516 -0.2167
  195MOL0     H26909   4.809   8.663   5.784 -0.7728 -0.1077  2.4882
  195MOL0     H26910   4.647   8.610   5.797  0.7233  0.8644  2.0152
  196MOL0     O26911   3.424   1.344  10.342  0.1023  1.1477  0.1630
  196MOL0     C26912   3.487   1.329  10.243 -0.2100 -0.3635  0.0709
  196MOL0     O26913   3.595   1.408  10.213  0.0124  0.5703  0.2202
  196MOL0     C26914   3.615   1.516  10.291  1.0084  0.0775 -0.1743
  196MOL0     C26915   3.704   1.506  10.391  0.7240  0.9427 -0.2983
  196MOL0     C26916   3.743   1.619  10.469  0.6713 -0.3597 -0.3129
  196MOL0     C26917   3.667   1.733  10.456 -0.2341  0.0646  0.0577
  196MOL0     O26918   3.671   1.841  10.543 -0.7020  0.1969 -0.0349
  196MOL0     C26919   3.797   1.906  10.570  0.0277 -0.3918 -0.2107
  196MOL0     C26920   3.853   1.904  10.715  0.8958 -0.2620 -0.7975
  196MOL0     C26921   3.978   1.820  10.717 -0.0428  0.1586 -0.6132
  196MOL0     C26922   3.960   1.715  10.839  0.4759  0.4536  0.3459
  196MOL0     C26923   4.086   1.631  10.852 -0.1575  0.1440 -0.2853
  196MOL0     C26924   4.071   1.515  10.962 -0.4366  0.6711  0.4675
  196MOL0     C26925   4.197   1.422  10.987  0.5794  0.6404  0.1917
  196MOL0     C26926   4.204   1.296  10.889 -0.0365 -0.3524  0.1763
  196MOL0     N26927   4.206   1.330  10.743 -0.0264  0.1557 -0.6567
  196MOL0     C26928   4.323   1.312  10.672  0.3859 -0.0472  0.4723
  196MOL0     C26929   4.270   1.295  10.549  0.9786 -1.7333  0.5204
  196MOL0     C26930   4.365   1.281  10.433 -0.0363  0.0401 -0.4657
  196MOL0     C26931   4.295   1.244  10.303 -0.6737 -0.0497 -0.1683
  196MOL0     C26932   4.398   1.248  10.189  1.1992 -0.0404  0.2369
  196MOL0     C26933   4.380   1.142  10.086  0.2516 -0.4486 -0.1052
  196MOL0     O26934   4.450   1.024  10.123 -0.9140  0.1102 -0.7761
  196MOL0     C26935   4.567   0.991  10.063  0.1599 -0.7203  0.1359
  196MOL0     C26936   4.652   1.075   9.983  0.2822 -1.3894 -0.3282
  196MOL0     C26937   4.769   1.028   9.909 -0.9130 -0.2262 -0.0541
  196MOL0     C26938   4.841   1.132   9.826 -0.5677 -0.3931 -0.2296
  196MOL0     C26939   4.798   0.889   9.921  0.4923  0.0439  0.1672
  196MOL0     C26940   4.908   0.817   9.850 -1.2820  0.2378  0.8410
  196MOL0     O26941   4.912   0.687   9.844 -0.6825 -0.3253  0.2858
  196MOL0     C26942   5.004   0.620   9.759 -0.0606 -0.2741 -0.2158
  196MOL0     C26943   4.972   0.582   9.633  0.3789  0.4099 -0.4097
  196MOL0     C26944   5.069   0.528   9.552 -0.5061  0.3889 -0.3751
  196MOL0     C26945   5.195   0.490   9.597 -0.2784 -0.2081 -0.2312
  196MOL0     O26946   5.305   0.447   9.521 -0.2699  0.1865 -0.2506
  196MOL0     C26947   5.278   0.358   9.405 -0.0337  0.2699 -1.2442
  196MOL0     C26948   5.280   0.444   9.280 -0.3659  0.2017 -0.3103
  196MOL0     C26949   5.426   0.469   9.234 -0.2033 -0.6044 -0.0212
  196MOL0     C26950   5.430   0.532   9.094 -0.0399  0.5650 -0.0286
  196MOL0     C26951   5.471   0.433   8.983  0.2748 -0.0650 -0.3932
  196MOL0     C26952   5.490   0.512   8.858 -0.5086  0.2172  0.2335
  196MOL0     C26953   5.625   0.590   8.840  0.1832  0.1231 -0.4357
  196MOL0     C26954   5.631   0.628   8.686 -0.0470  0.1088  0.3167
  196MOL0    Cl26955   5.805   0.655   8.649 -0.3500 -0.1236 -0.0639
  196MOL0     C26956   5.215   0.515   9.729  0.7937 -0.7434 -0.6353
  196MOL0     C26957   5.129   0.596   9.809 -0.2472  0.0510 -0.0508
  196MOL0     O26958   4.987   0.889   9.785  0.1238 -0.7210  0.2357
  196MOL0     C26959   4.706   0.809   9.987 -0.1723 -0.4127 -0.1792
  196MOL0     C26960   4.594   0.860  10.061 -0.3121 -0.8812 -0.4583
  196MOL0     N26961   4.130   1.291  10.545 -1.0448  0.1041  0.9900
  196MOL0     N26962   4.097   1.311  10.666  0.1171 -0.4024  0.6802
  196MOL0     C26963   3.565   1.735  10.370 -0.0024  1.1829  0.6787
  196MOL0     C26964   3.532   1.625  10.286 -0.2515 -0.4553  0.2201
  196MOL0     C26965   3.447   1.228  10.137  0.2968 -0.7368  0.0479
  196MOL0     C26966   3.512   1.225  10.014 -0.4529  0.2046 -0.1705
  196MOL0     C26967   3.476   1.131   9.915  0.3544 -0.4855 -0.6623
  196MOL0     C26968   3.377   1.039   9.933  0.2579 -0.1367 -0.7837
  196MOL0     O26969   3.361   0.951   9.835 -0.4286  0.2797 -0.2460
  196MOL0     C26970   3.259   0.868   9.846  0.5577  1.0228  0.9486
  196MOL0     C26971   3.274   0.753   9.747 -0.5847 -1.0627  0.4265
  196MOL0     C26972   3.167   0.652   9.732  0.2443  0.5964 -0.3756
  196MOL0     C26973   3.198   0.549   9.619  0.4679  0.0323 -0.2887
  196MOL0     C26974   3.124   0.427   9.623  0.6366  0.1716 -0.8043
  196MOL0     C26975   3.053   0.333   9.612  0.3383  0.3687  0.4221
  196MOL0     C26976   3.305   1.043  10.056  1.0288  0.6883 -0.1694
  196MOL0     C26977   3.348   1.133  10.163 -0.4561  0.5488  0.7390
  196MOL0     C26978   3.281   1.107  10.292 -0.7072 -0.3805 -0.3554
  196MOL0     H26979   3.747   1.406  10.392 -2.4717 -0.5715 -0.7820
  196MOL0     H26980   3.824   1.618  10.541 -1.0709 -0.7256  1.7396
  196MOL0     H26981   3.767   2.006  10.537 -0.7453 -0.8763 -1.0118
  196MOL0     H26982   3.878   1.867  10.507  3.1287  0.4612  2.8919
  196MOL0     H26983   3.886   2.008  10.710  1.0852 -0.3417 -1.3927
  196MOL0     H26984   3.775   1.894  10.790  0.5139 -1.2191 -1.3008
  196MOL0     H26985   3.986   1.748  10.634 -0.0953 -0.8256  0.2153
  196MOL0     H26986   4.066   1.884  10.710 -0.8979  1.2038 -2.6294
  196MOL0     H26987   3.948   1.774  10.930 -2.9152  0.4612  0.0079
  196MOL0     H26988   3.874   1.650  10.822  2.4421 -1.3484 -4.2663
  196MOL0     H26989   4.177   1.689  10.868 -0.7896  0.5041  2.3649
  196MOL0     H26990   4.109   1.587  10.754  3.3420 -2.8332  1.6239
  196MOL0     H26991   4.048   1.550  11.063 -1.6649  1.9072 -0.2133
  196MOL0     H26992   3.993   1.448  10.923 -0.5142  0.3461  1.1578
  196MOL0     H26993   4.198   1.383  11.089  4.6782 -2.3760 -0.7382
  196MOL0     H26994   4.285   1.487  10.978  2.3978 -1.8336 -1.2018
  196MOL0     H26995   4.283   1.237  10.936  1.5634  0.6597 -1.1142
  196MOL0     H26996   4.110   1.240  10.893  1.8222 -3.7512  0.1410
  196MOL0     H26997   4.429   1.308  10.696  0.4877 -4.1229 -0.0069
  196MOL0     H26998   4.445   1.209  10.457  0.3383  0.2947 -0.9382
  196MOL0     H26999   4.414   1.379  10.428  0.9798 -0.4935 -1.3542
  196MOL0     H27000   4.247   1.145  10.308 -0.2067 -0.2685  0.1154
  196MOL0     H27001   4.220   1.322  10.289  0.5321  1.3342  0.8528
  196MOL0     H27002   4.383   1.343  10.138 -3.5893 -0.6761 -0.0558
  196MOL0     H27003   4.499   1.227  10.224  1.3046 -3.4264 -1.6256
  196MOL0     H27004   4.274   1.123  10.066  0.4547 -3.0990  0.9516
  196MOL0     H27005   4.417   1.177   9.989 -0.3915  2.6413  0.6714
  196MOL0     H27006   4.630   1.180   9.967  0.7737 -1.1937  0.2410
  196MOL0     H27007   4.820   1.234   9.858  0.7394  0.5365 -2.0889
  196MOL0     H27008   4.801   1.113   9.725 -4.3588  1.8696  0.6364
  196MOL0     H27009   4.949   1.124   9.836 -0.7523 -0.5441  2.1408
  196MOL0     H27010   4.875   0.600   9.589  0.3808  1.4309 -0.0170
  196MOL0     H27011   5.053   0.501   9.448  0.5319  0.3950 -0.5468
  196MOL0     H27012   5.356   0.281   9.405 -1.1276 -0.8878 -0.6487
  196MOL0     H27013   5.185   0.306   9.430 -1.2074  2.9906  0.5954
  196MOL0     H27014   5.243   0.382   9.197  0.5403  3.5535 -3.4682
  196MOL0     H27015   5.222   0.535   9.292 -2.3100 -0.9278 -0.6805
  196MOL0     H27016   5.493   0.383   9.241  0.7724  0.1875  0.6300
  196MOL0     H27017   5.471   0.534   9.310 -0.2288 -2.0369  1.2625
  196MOL0     H27018   5.514   0.602   9.093  2.2899 -2.0339 -1.2458
  196MOL0     H27019   5.336   0.583   9.070 -0.7430 -0.8856 -0.4884
  196MOL0     H27020   5.565   0.383   9.007  0.2636 -0.5150 -1.2468
  196MOL0     H27021   5.389   0.360   8.978 -0.3727  0.4614  1.6780
  196MOL0     H27022   5.415   0.590   8.844  1.6106  2.6231  1.5910
  196MOL0     H27023   5.486   0.440   8.775  1.8210  1.3983 -1.0033
  196MOL0     H27024   5.716   0.540   8.873 -0.6512 -0.9149  0.3920
  196MOL0     H27025   5.612   0.680   8.901 -3.8649 -1.4854  1.4931
  196MOL0     H27026   5.575   0.721   8.673 -2.6195 -1.1265  1.7776
  196MOL0     H27027   5.599   0.544   8.624 -2.1141  0.7515  0.4339
  196MOL0     H27028   5.307   0.472   9.767  0.8937 -0.7179 -0.8450
  196MOL0     H27029   5.142   0.654   9.900 -0.5897  1.8528 -1.1133
  196MOL0     H27030   4.712   0.700   9.991 -2.9947 -0.6314 -0.1944
  196MOL0     H27031   4.539   0.802  10.134  2.0447 -0.2250  1.9773
  196MOL0     H27032   3.500   1.822  10.367 -2.2343 -0.4046  1.0656
  196MOL0     H27033   3.448   1.619  10.218 -1.3977 -1.9180  1.6865
  196MOL0     H27034   3.596   1.293  10.003 -0.9820  0.9793  0.4679
  196MOL0     H27035   3.516   1.133   9.814  0.5114 -1.8517 -0.6431
  196MOL0     H27036   3.245   0.818   9.943 -1.9819 -0.8306 -0.2288
  196MOL0     H27037   3.159   0.906   9.824 -1.2622 -1.9690  3.1966
  196MOL0     H27038   3.364   0.695   9.772 -0.5498 -0.2275  2.4975
  196MOL0     H27039   3.298   0.797   9.650 -2.0325 -0.4359  0.3222
  196MOL0     H27040   3.142   0.601   9.826  1.0413  0.9932  0.0610
  196MOL0     H27041   3.073   0.696   9.698 -0.0784 -0.8992 -1.5573
  196MOL0     H27042   3.303   0.519   9.623  1.1009  2.2361  1.7205
  196MOL0     H27043   3.179   0.594   9.521  0.5950 -1.7548 -1.1744
  196MOL0     H27044   3.001   0.250   9.570  0.7588  1.5906 -2.8207
  196MOL0     H27045   3.229   0.969  10.080 -1.7546  2.5389 -2.5231
  196MOL0     H27046   3.357   1.086  10.368 -0.8175  2.0563  0.4939
  196MOL0     H27047   3.224   1.189  10.335 -2.2871 -2.4168  1.7082
  196MOL0     H27048   3.204   1.030  10.299 -0.9738  0.0221  2.2904
  197MOL0     O27049   0.705   6.188   0.618  0.2725 -0.0264 -0.4073
  197MOL0     C27050   0.634   6.091   0.613  0.3991 -0.3350  0.2267
  197MOL0     O27051   0.497   6.100   0.614  0.1547  0.5634 -0.3431
  197MOL0     C27052   0.451   6.226   0.638 -0.2580  0.9954  0.6233
  197MOL0     C27053   0.369   6.231   0.755  0.0662 -1.4517 -0.6971
  197MOL0     C27054   0.308   6.354   0.785 -0.7611  0.4122  0.4887
  197MOL0     C27055   0.322   6.468   0.706 -0.4345  0.5479 -0.6359
  197MOL0     O27056   0.261   6.578   0.745 -0.0795 -0.0845 -0.5977
  197MOL0     C27057   0.270   6.628   0.881  0.3164 -0.2610  0.6323
  197MOL0     C27058   0.240   6.774   0.869  0.7660  0.5264 -0.3232
  197MOL0     C27059   0.094   6.809   0.853  0.2831  0.1253 -0.0198
  197MOL0     C27060   0.074   6.937   0.776  1.1661  0.7603 -0.0087
  197MOL0     C27061   0.059   6.911   0.621 -0.1588 -0.5783 -0.1924
  197MOL0     C27062   0.039   7.038   0.558  0.1149 -0.1385 -0.6847
  197MOL0     C27063   0.013   7.012   0.407 -1.0749 -0.0046 -0.6379
  197MOL0     C27064   0.033   7.141   0.332  0.3633  0.2751  1.0512
  197MOL0     N27065   0.055   7.111   0.192  0.5721  0.7103  0.8742
  197MOL0     C27066   0.104   7.197   0.098 -0.8798  0.4341 -0.0055
  197MOL0     C27067   0.103   7.135  -0.016  0.1382  0.5784  0.0018
  197MOL0     C27068   0.151   7.194  -0.145 -0.1281  0.9255 -0.0698
  197MOL0     C27069   0.036   7.229  -0.248  0.0404 -0.1991 -0.2435
  197MOL0     C27070  -0.009   7.113  -0.331  0.1394  0.1460 -0.2688
  197MOL0     C27071  -0.083   7.148  -0.461  0.8601  0.3016  0.8842
  197MOL0     O27072  -0.104   7.016  -0.524  0.0938 -0.1745 -0.1775
  197MOL0     C27073  -0.218   7.008  -0.592 -0.2653  0.8216 -0.7595
  197MOL0     C27074  -0.224   7.070  -0.720  1.0163  0.1017 -0.1088
  197MOL0     C27075  -0.343   7.077  -0.797 -0.0130 -0.0908  0.3256
  197MOL0     C27076  -0.347   7.162  -0.930  0.5342  0.3143  0.5823
  197MOL0     C27077  -0.459   7.012  -0.753  1.0562  0.3141  0.0650
  197MOL0     C27078  -0.586   7.001  -0.834  0.4389  0.1926  0.0223
  197MOL0     O27079  -0.676   6.905  -0.780 -0.4370  0.3126  0.8936
  197MOL0     C27080  -0.771   6.857  -0.864 -0.2708  0.2697  0.0425
  197MOL0     C27081  -0.871   6.926  -0.937 -0.1777  0.4883  0.4642
  197MOL0     C27082  -0.973   6.864  -1.013 -0.5237 -0.0517 -0.0169
  197MOL0     C27083  -0.975   6.727  -1.017 -0.0584 -0.4103 -0.4753
  197MOL0     O27084  -1.074   6.671  -1.082 -0.2968  0.4895  0.8504
  197MOL0     C27085  -1.021   6.609  -1.195 -0.2405 -0.0432  0.1566
  197MOL0     C27086  -1.062   6.693  -1.320 -0.2716 -0.5566 -1.1739
  197MOL0     C27087  -0.938   6.746  -1.395 -0.7596  0.5921 -0.3178
  197MOL0     C27088  -0.962   6.785  -1.534  0.8373  0.3286  0.1384
  197MOL0     C27089  -1.015   6.929  -1.550 -0.7952 -0.3082  0.1498
  197MOL0     C27090  -1.038   6.952  -1.695  0.0037  0.5367  0.0088
  197MOL0     C27091  -1.081   7.094  -1.738 -0.3097 -1.0085  0.1843
  197MOL0     C27092  -1.216   7.139  -1.686  0.1462  0.1359  0.2633
  197MOL0    Cl27093  -1.332   7.046  -1.781  0.4767  0.1232 -0.1353
  197MOL0     C27094  -0.886   6.652  -0.944  0.1745 -1.4059 -0.6275
  197MOL0     C27095  -0.774   6.715  -0.874  0.7159 -0.4334 -0.1351
  197MOL0     O27096  -0.595   7.058  -0.944  0.8291  0.1862 -0.1122
  197MOL0     C27097  -0.453   6.935  -0.629 -0.4130 -0.5259  1.0499
  197MOL0     C27098  -0.332   6.940  -0.550  0.4508 -0.2099  0.5860
  197MOL0     N27099   0.059   7.007   0.007  1.4042 -0.6312 -0.6170
  197MOL0     N27100   0.014   6.995   0.126  0.6516  0.1173  0.3649
  197MOL0     C27101   0.397   6.468   0.591 -0.1811 -0.2026 -0.1877
  197MOL0     C27102   0.464   6.342   0.554 -0.9327 -0.2875 -0.5389
  197MOL0     C27103   0.696   5.964   0.606  0.2639 -1.1413  0.1953
  197MOL0     C27104   0.614   5.847   0.587 -0.2831 -0.7784  0.4334
  197MOL0     C27105   0.673   5.720   0.565  0.8661  0.2161 -0.1367
  197MOL0     C27106   0.812   5.713   0.575  0.0935 -0.7419 -0.1829
  197MOL0     O27107   0.868   5.591   0.566 -0.4927  0.6254  0.0211
  197MOL0     C27108   0.923   5.549   0.438  0.2135 -0.9303 -0.7858
  197MOL0     C27109   0.809   5.534   0.342 -0.5583  0.5277 -0.5472
  197MOL0     C27110   0.844   5.442   0.225 -0.4523 -0.0279  0.6683
  197MOL0     C27111   0.743   5.472   0.105  0.8174  0.1400  1.1305
  197MOL0     C27112   0.776   5.597   0.040 -0.2014  1.2435  0.3852
  197MOL0     C27113   0.794   5.684  -0.041  0.2848 -0.6860  0.0465
  197MOL0     C27114   0.890   5.821   0.602 -0.5338 -0.0306  0.3922
  197MOL0     C27115   0.840   5.945   0.619 -0.1996  0.1119 -0.9367
  197MOL0     C27116   0.944   6.045   0.656 -0.0545 -0.7860  0.1270
  197MOL0     H27117   0.328   6.147   0.811 -2.7892  0.5916  0.4833
  197MOL0     H27118   0.249   6.371   0.874 -2.8003  4.2359 -1.3551
  197MOL0     H27119   0.370   6.616   0.923 -0.2490 -1.2990  1.7639
  197MOL0     H27120   0.207   6.587   0.960  1.1679 -0.5456  1.1805
  197MOL0     H27121   0.302   6.833   0.937 -1.2238  2.9876 -0.5105
  197MOL0     H27122   0.282   6.813   0.776 -1.2870  0.5454 -1.3046
  197MOL0     H27123   0.042   6.728   0.802  0.3371 -0.6129  1.0542
  197MOL0     H27124   0.054   6.825   0.954  0.0926 -1.8274  0.2408
  197MOL0     H27125  -0.023   6.979   0.806  1.7757  1.9093  0.4272
  197MOL0     H27126   0.147   7.015   0.796  0.9759  1.0678 -0.4848
  197MOL0     H27127  -0.025   6.844   0.604  1.1838 -2.0559 -1.3088
  197MOL0     H27128   0.152   6.870   0.579  0.0987  3.0316 -3.7613
  197MOL0     H27129  -0.038   7.095   0.610  2.2167 -0.7440  3.5491
  197MOL0     H27130   0.133   7.095   0.566 -0.0388 -0.1987  3.2107
  197MOL0     H27131  -0.083   6.967   0.382 -1.5918  0.0089  1.2302
  197MOL0     H27132   0.093   6.947   0.368 -1.9556 -0.4700 -1.7190
  197MOL0     H27133  -0.053   7.203   0.357 -1.0905 -1.7996  1.4779
  197MOL0     H27134   0.120   7.195   0.369 -0.1974  1.0293  1.2909
  197MOL0     H27135   0.125   7.303   0.102 -2.0865  0.7906 -1.7373
  197MOL0     H27136   0.235   7.134  -0.180  1.6047  1.2213  3.1275
  197MOL0     H27137   0.185   7.296  -0.125  0.2911  0.6890  0.4433
  197MOL0     H27138  -0.047   7.259  -0.185 -1.8265  0.6030 -2.9097
  197MOL0     H27139   0.059   7.311  -0.317  0.2895 -1.0003 -1.1490
  197MOL0     H27140   0.083   7.065  -0.362  1.0964  2.1440 -0.7050
  197MOL0     H27141  -0.067   7.050  -0.263  0.5738  1.4341  1.3514
  197MOL0     H27142  -0.182   7.192  -0.444  1.7818  2.4876  0.8478
  197MOL0     H27143  -0.024   7.212  -0.526  0.0454 -0.2831 -0.4696
  197MOL0     H27144  -0.137   7.124  -0.756 -0.6741  1.5767 -2.2553
  197MOL0     H27145  -0.344   7.099  -1.019  0.1300  0.8731  0.1640
  197MOL0     H27146  -0.268   7.235  -0.912 -1.0603  2.3892 -0.2954
  197MOL0     H27147  -0.426   7.237  -0.941  2.3150  1.9834 -1.8781
  197MOL0     H27148  -0.866   7.034  -0.924 -0.8949  0.7232 -1.0075
  197MOL0     H27149  -1.040   6.923  -1.076  0.5548 -0.6913 -1.8484
  197MOL0     H27150  -0.918   6.574  -1.196 -0.3917 -0.5045 -1.0274
  197MOL0     H27151  -1.069   6.510  -1.194 -1.4174  0.4788  2.7595
  197MOL0     H27152  -1.129   6.639  -1.388 -2.5855  3.8151 -2.7636
  197MOL0     H27153  -1.122   6.780  -1.290  0.2886  0.1826 -2.1138
  197MOL0     H27154  -0.853   6.677  -1.397  0.3414  1.9213 -0.9871
  197MOL0     H27155  -0.901   6.830  -1.337 -0.6182  1.4891 -1.6631
  197MOL0     H27156  -1.031   6.714  -1.580  1.3786  0.1778 -0.4691
  197MOL0     H27157  -0.870   6.782  -1.593  0.3752  1.9627 -0.7366
  197MOL0     H27158  -1.107   6.956  -1.498 -0.4093  1.3701  0.0271
  197MOL0     H27159  -0.934   6.991  -1.509  2.2855 -5.8999  3.8830
  197MOL0     H27160  -1.115   6.883  -1.732 -0.2173  0.1630  1.1213
  197MOL0     H27161  -0.951   6.931  -1.758  0.4743 -2.2597  1.4165
  197MOL0     H27162  -1.070   7.102  -1.847 -2.7400  1.5438  0.0132
  197MOL0     H27163  -1.019   7.168  -1.686 -0.0457 -0.4524 -0.8841
  197MOL0     H27164  -1.235   7.245  -1.701 -0.5864  0.2365  1.7901
  197MOL0     H27165  -1.239   7.114  -1.582  3.1834 -0.2024  0.9480
  197MOL0     H27166  -0.895   6.544  -0.938 -0.3476 -1.2889  3.0223
  197MOL0     H27167  -0.696   6.644  -0.848  1.0203 -2.9621 -6.2381
  197MOL0     H27168  -0.534   6.876  -0.588 -1.2622 -0.4579 -0.4745
  197MOL0     H27169  -0.315   6.881  -0.461  0.5281  0.8808  1.3112
  197MOL0     H27170   0.420   6.561   0.538  3.4235 -0.2282  1.0386
  197MOL0     H27171   0.523   6.335   0.463  2.2711  2.3122  1.0948
  197MOL0     H27172   0.507   5.856   0.600 -0.7122  0.0662 -2.8315
  197MOL0     H27173   0.618   5.627   0.549 -1.9345  1.6136  0.7870
  197MOL0     H27174   0.999   5.620   0.403 -1.6707  2.0231  0.6738
  197MOL0     H27175   0.963   5.449   0.459 -0.0581 -0.7148  0.9174
  197MOL0     H27176   0.785   5.632   0.301 -0.2693  0.2872 -1.3147
  197MOL0     H27177   0.717   5.495   0.387 -1.4461  2.3865 -0.6705
  197MOL0     H27178   0.944   5.465   0.187 -1.1644 -0.6141 -1.6650
  197MOL0     H27179   0.840   5.338   0.259 -1.0189 -1.2316 -2.7721
  197MOL0     H27180   0.647   5.481   0.156 -0.6814  0.5210 -1.6097
  197MOL0     H27181   0.745   5.389   0.035 -0.0715 -0.5707  1.9283
  197MOL0     H27182   0.823   5.746  -0.123 -0.8829  1.0807  0.9089
  197MOL0     H27183   0.996   5.801   0.591 -1.1850 -3.1244 -1.7200
  197MOL0     H27184   1.044   6.001   0.649  0.2174 -0.0579 -0.6558
  197MOL0     H27185   0.950   6.129   0.586  4.8582 -0.6552  0.3573
  197MOL0     H27186   0.917   6.085   0.753 -0.7188  0.8171 -0.6814
  198MOL0     O27187  11.231   9.071   8.237 -0.5517  0.1539 -0.6261
  198MOL0     C27188  11.317   9.004   8.290  0.4037  0.4645  0.5606
  198MOL0     O27189  11.434   8.963   8.232  0.3165  0.4281 -0.9504
  198MOL0     C27190  11.453   8.993   8.100 -0.4012  0.6972  0.1729
  198MOL0     C27191  11.350   8.964   7.996 -0.0792 -0.2016 -0.0740
  198MOL0     C27192  11.374   9.007   7.863 -0.0370 -0.4087 -0.2041
  198MOL0     C27193  11.488   9.074   7.834 -0.6542  1.5888  0.0133
  198MOL0     O27194  11.502   9.114   7.702 -0.1717  0.6567 -0.2002
  198MOL0     C27195  11.617   9.211   7.669  0.3190  0.0882 -0.1713
  198MOL0     C27196  11.627   9.261   7.529 -0.1159  0.1765  0.7050
  198MOL0     C27197  11.729   9.375   7.509  0.3201 -0.2879 -0.2241
  198MOL0     C27198  11.866   9.309   7.499 -0.3109 -0.3681 -0.9495
  198MOL0     C27199  11.974   9.415   7.457 -0.0916 -0.1325  0.2064
  198MOL0     C27200  12.106   9.351   7.435  0.0748 -0.1108 -0.6608
  198MOL0     C27201  12.210   9.456   7.392 -0.8452  0.1635 -0.2134
  198MOL0     C27202  12.356   9.403   7.352 -0.1338  0.2352 -1.2604
  198MOL0     N27203  12.363   9.326   7.232  0.8319  0.4518  0.7355
  198MOL0     C27204  12.321   9.357   7.107 -1.5131 -0.0576  0.1512
  198MOL0     C27205  12.334   9.250   7.027 -0.2518  0.1385 -0.5619
  198MOL0     C27206  12.323   9.250   6.875 -0.2548 -0.7560  0.3966
  198MOL0     C27207  12.446   9.211   6.788 -0.0546  0.0566  0.3354
  198MOL0     C27208  12.404   9.234   6.644 -0.3067 -0.7278  0.8014
  198MOL0     C27209  12.508   9.218   6.538  0.5412  0.0708  0.2709
  198MOL0     O27210  12.556   9.081   6.533 -0.1507  0.5168  0.1332
  198MOL0     C27211  12.595   9.037   6.401  0.1430  0.1526 -0.0747
  198MOL0     C27212  12.511   9.056   6.285 -0.5776 -0.2253  0.1759
  198MOL0     C27213  12.547   9.022   6.155  0.7044  0.4840 -0.5675
  198MOL0     C27214  12.435   9.047   6.050 -0.4585 -0.6407 -0.0549
  198MOL0     C27215  12.675   8.973   6.131  0.7522  0.6749 -0.2690
  198MOL0     C27216  12.735   8.939   5.996  0.7786 -0.3634 -0.8873
  198MOL0     O27217  12.864   8.902   6.003 -0.8420  0.2735  0.0145
  198MOL0     C27218  12.925   8.845   5.888 -1.4162 -0.4623  0.0801
  198MOL0     C27219  13.065   8.849   5.876  0.7747  0.9339  0.3373
  198MOL0     C27220  13.122   8.785   5.763  0.3124 -0.2250 -0.4538
  198MOL0     C27221  13.047   8.734   5.657  0.2101 -0.2554 -0.1921
  198MOL0     O27222  13.126   8.700   5.551 -0.4136  0.4068 -0.2921
  198MOL0     C27223  13.063   8.605   5.462 -0.5987  0.5673 -0.7864
  198MOL0     C27224  13.161   8.584   5.341 -0.0517  0.4470  0.3645
  198MOL0     C27225  13.154   8.700   5.236 -0.2161  0.4655 -0.3556
  198MOL0     C27226  13.246   8.677   5.112  0.0697  0.8497  0.4557
  198MOL0     C27227  13.260   8.811   5.031  0.7420  0.2621 -0.5165
  198MOL0     C27228  13.357   8.801   4.919 -0.2264 -0.6271  0.3566
  198MOL0     C27229  13.377   8.938   4.859 -0.3333 -0.0326  0.0314
  198MOL0     C27230  13.266   8.983   4.766 -0.0313 -0.4236  0.1150
  198MOL0    Cl27231  13.293   9.158   4.737 -0.4034  0.2845  0.1623
  198MOL0     C27232  12.910   8.748   5.666 -0.7938  0.4845  0.5965
  198MOL0     C27233  12.855   8.781   5.783 -0.1686 -0.3832 -0.4486
  198MOL0     O27234  12.666   8.955   5.891  0.0466  0.5490  0.1950
  198MOL0     C27235  12.754   8.948   6.244  0.6164 -0.1213  1.0420
  198MOL0     C27236  12.718   8.966   6.377 -0.2971 -0.0900 -0.3200
  198MOL0     N27237  12.378   9.143   7.106 -0.6709  0.4752  0.6843
  198MOL0     N27238  12.400   9.192   7.226  0.0033 -0.7983 -0.0534
  198MOL0     C27239  11.583   9.110   7.939 -0.9860 -0.2097  0.0567
  198MOL0     C27240  11.567   9.082   8.078  0.3291  0.2333  0.9862
  198MOL0     C27241  11.287   8.937   8.417  0.1321  0.6289  1.0316
  198MOL0     C27242  11.299   8.802   8.420  0.1999  0.5617 -1.0051
  198MOL0     C27243  11.262   8.721   8.533 -0.1193  0.4675  0.3979
  198MOL0     C27244  11.206   8.792   8.649 -0.3845 -0.6381 -1.0668
  198MOL0     O27245  11.166   8.738   8.770 -0.4337 -0.2620  1.0092
  198MOL0     C27246  11.247   8.633   8.804 -0.6137  0.7027 -0.3285
  198MOL0     C27247  11.314   8.661   8.936  0.2245  1.3448 -0.1315
  198MOL0     C27248  11.391   8.794   8.950  0.6386 -0.4593  0.9924
  198MOL0     C27249  11.462   8.789   9.080  0.2801  0.0438  0.3812
  198MOL0     C27250  11.365   8.787   9.191 -1.2509 -0.7825  0.8560
  198MOL0     C27251  11.301   8.778   9.291 -0.2272 -0.0377 -0.0190
  198MOL0     C27252  11.195   8.925   8.647 -0.7402 -0.8960  0.6803
  198MOL0     C27253  11.224   9.002   8.527  1.2183  0.3112 -0.3969
  198MOL0     C27254  11.173   9.151   8.533  0.2887 -0.2006  0.7417
  198MOL0     H27255  11.267   8.902   8.028 -0.4410  0.4482  0.2547
  198MOL0     H27256  11.310   8.988   7.777 -3.1968  2.7489  1.1794
  198MOL0     H27257  11.705   9.150   7.691  2.5182  2.6603 -1.1727
  198MOL0     H27258  11.604   9.296   7.735 -4.1870  1.8280 -2.8480
  198MOL0     H27259  11.643   9.181   7.456 -1.6580 -0.6249  1.2099
  198MOL0     H27260  11.528   9.299   7.501  0.5431  2.7595  1.6124
  198MOL0     H27261  11.715   9.430   7.415 -0.1960 -0.8791 -0.4982
  198MOL0     H27262  11.730   9.453   7.586  1.3166 -0.5859  0.0688
  198MOL0     H27263  11.874   9.267   7.600 -0.1887 -1.0142 -1.2225
  198MOL0     H27264  11.858   9.226   7.428  0.5274  0.8000 -2.4806
  198MOL0     H27265  11.982   9.480   7.544  1.9057 -1.0261  0.7554
  198MOL0     H27266  11.957   9.462   7.360  0.9169 -2.2492 -1.0742
  198MOL0     H27267  12.135   9.311   7.533 -1.3124  1.7312  0.5778
  198MOL0     H27268  12.099   9.261   7.373 -0.7376 -1.5655  1.4209
  198MOL0     H27269  12.227   9.525   7.475  1.4150  1.5771 -1.7645
  198MOL0     H27270  12.170   9.514   7.309 -3.2236 -0.7166  0.2410
  198MOL0     H27271  12.431   9.483   7.350 -0.7315  0.9395  0.8867
  198MOL0     H27272  12.397   9.353   7.441 -0.2427  2.2283 -0.0280
  198MOL0     H27273  12.299   9.460   7.077 -0.8880 -0.3041 -1.2455
  198MOL0     H27274  12.291   9.351   6.849 -1.0179 -0.6182  1.7356
  198MOL0     H27275  12.245   9.185   6.836  1.5335 -1.0083 -3.1235
  198MOL0     H27276  12.528   9.277   6.820 -0.2777 -0.7106  2.6159
  198MOL0     H27277  12.469   9.107   6.812 -1.1388 -0.7169 -1.7362
  198MOL0     H27278  12.317   9.170   6.623 -1.4180  0.7612  0.6563
  198MOL0     H27279  12.377   9.340   6.649 -0.7032 -0.8425  1.1388
  198MOL0     H27280  12.477   9.258   6.441  0.6998 -2.7175 -1.0191
  198MOL0     H27281  12.594   9.279   6.570 -0.4186  0.3150  2.6158
  198MOL0     H27282  12.412   9.097   6.303 -1.2890 -2.6847  2.5741
  198MOL0     H27283  12.428   9.151   6.016  2.7297 -0.0010  0.8550
  198MOL0     H27284  12.340   9.019   6.096  0.6622 -1.5680  1.8232
  198MOL0     H27285  12.444   8.987   5.959  1.1662 -0.4545 -0.0501
  198MOL0     H27286  13.118   8.894   5.959  2.1435 -2.0476  1.2345
  198MOL0     H27287  13.230   8.794   5.748  0.3836  3.0614  1.1651
  198MOL0     H27288  13.055   8.508   5.512 -2.8663  0.9779 -0.2822
  198MOL0     H27289  12.969   8.641   5.421 -0.0257  1.0618 -1.7091
  198MOL0     H27290  13.259   8.570   5.389 -0.8986 -1.9384  1.5252
  198MOL0     H27291  13.124   8.496   5.289  2.5524 -0.1530 -0.6684
  198MOL0     H27292  13.176   8.792   5.290  1.0356 -1.3552  2.5121
  198MOL0     H27293  13.051   8.713   5.202 -1.1497  0.5074  2.2214
  198MOL0     H27294  13.202   8.604   5.043  0.7704  2.3428 -1.6617
  198MOL0     H27295  13.342   8.636   5.147  0.3107  0.1135 -0.9982
  198MOL0     H27296  13.161   8.844   4.997  1.1802  3.6642  1.0981
  198MOL0     H27297  13.287   8.890   5.101  3.7944 -1.7893  0.7984
  198MOL0     H27298  13.331   8.738   4.834 -1.1235  0.1749  0.0225
  198MOL0     H27299  13.449   8.759   4.961 -1.9101 -1.8895  3.0667
  198MOL0     H27300  13.469   8.935   4.800 -2.5136 -1.5022 -3.6522
  198MOL0     H27301  13.391   9.009   4.940 -0.3365 -0.7860  0.7114
  198MOL0     H27302  13.163   8.973   4.800 -1.2749  2.1679 -2.4586
  198MOL0     H27303  13.276   8.928   4.672 -0.2173  0.2074 -0.2789
  198MOL0     H27304  12.849   8.706   5.586  1.3308 -2.2891  0.2716
  198MOL0     H27305  12.747   8.768   5.782  0.0204 -2.3089  0.3727
  198MOL0     H27306  12.860   8.926   6.230  0.6215  0.8680 -0.6977
  198MOL0     H27307  12.782   8.956   6.464  0.5435 -1.2351 -1.0512
  198MOL0     H27308  11.667   9.175   7.915 -1.1939 -0.0981 -0.3667
  198MOL0     H27309  11.639   9.120   8.149  3.8490 -0.5978 -1.8267
  198MOL0     H27310  11.319   8.753   8.326  1.4179 -4.5756  1.5751
  198MOL0     H27311  11.283   8.614   8.529  2.3235  0.9003  0.0020
  198MOL0     H27312  11.186   8.544   8.822 -0.0369  0.8208  2.6258
  198MOL0     H27313  11.323   8.594   8.737  1.6372  4.5295 -0.2983
  198MOL0     H27314  11.378   8.575   8.957 -2.1991 -0.5554 -0.0178
  198MOL0     H27315  11.236   8.668   9.011  1.7715  0.5937  1.6180
  198MOL0     H27316  11.468   8.800   8.872  0.5266 -0.1981  0.8992
  198MOL0     H27317  11.337   8.889   8.943 -0.7055 -1.2734 -0.8249
  198MOL0     H27318  11.518   8.883   9.087 -1.5659  1.3109 -0.8921
  198MOL0     H27319  11.538   8.712   9.093 -0.3891 -0.1439  5.1502
  198MOL0     H27320  11.242   8.787   9.380 -1.9533  1.2310 -1.2058
  198MOL0     H27321  11.165   8.979   8.736  0.7026  0.3409  0.4641
  198MOL0     H27322  11.079   9.142   8.478  0.6805 -2.5481  0.3032
  198MOL0     H27323  11.160   9.186   8.635 -1.9660  2.7609 -0.4264
  198MOL0     H27324  11.240   9.217   8.477 -1.9813 -0.1452 -2.1625
  199MOL0     O27325   8.759   9.973   1.767  0.1505  0.3893 -0.2195
  199MOL0     C27326   8.825   9.950   1.663  0.1478  0.9983 -0.3015
  199MOL0     O27327   8.817   9.840   1.582  0.3628  0.6355  0.1575
  199MOL0     C27328   8.754   9.729   1.624  0.8458  0.4691 -0.7470
  199MOL0     C27329   8.835   9.618   1.654  0.2436  0.3307  0.0765
  199MOL0     C27330   8.774   9.491   1.679  0.3536  0.2867  0.9380
  199MOL0     C27331   8.631   9.484   1.667  0.3228 -0.3877 -0.8618
  199MOL0     O27332   8.554   9.365   1.684  0.4823 -0.2826  0.4581
  199MOL0     C27333   8.615   9.245   1.739  0.5105  1.2591 -0.1290
  199MOL0     C27334   8.501   9.153   1.754  1.3853 -0.8175  0.6432
  199MOL0     C27335   8.546   9.013   1.798  0.2501  0.7578  0.2417
  199MOL0     C27336   8.433   8.916   1.781 -1.1911 -0.2923 -0.5476
  199MOL0     C27337   8.465   8.772   1.808 -0.5493  0.3691 -0.5619
  199MOL0     C27338   8.484   8.742   1.960  0.2005  0.3763  0.5070
  199MOL0     C27339   8.451   8.600   1.992  0.0930 -0.3355 -0.2700
  199MOL0     C27340   8.291   8.573   2.004  0.5321  0.2260 -1.3600
  199MOL0     N27341   8.240   8.627   2.122  0.7869 -0.4673  0.0886
  199MOL0     C27342   8.128   8.708   2.128  0.3872  0.6349 -0.7121
  199MOL0     C27343   8.107   8.720   2.267  0.0473 -0.1821 -0.0652
  199MOL0     C27344   8.007   8.815   2.343  0.6042 -0.2326  0.3741
  199MOL0     C27345   7.952   8.773   2.483 -0.6157  0.3224  0.2850
  199MOL0     C27346   8.067   8.752   2.583  0.5297 -0.0558  0.9768
  199MOL0     C27347   8.009   8.771   2.722 -0.0349  0.1917  0.6763
  199MOL0     O27348   7.942   8.901   2.741 -0.0424  0.0599 -0.2730
  199MOL0     C27349   7.925   8.951   2.868  0.2527  0.4188 -0.0773
  199MOL0     C27350   7.803   8.923   2.941 -0.7848 -0.5802  0.1685
  199MOL0     C27351   7.782   8.983   3.061  0.6836  0.1301 -1.1280
  199MOL0     C27352   7.657   8.941   3.128  0.0854 -0.9451  0.5431
  199MOL0     C27353   7.892   9.057   3.117 -0.3110 -0.4996 -0.1892
  199MOL0     C27354   7.893   9.113   3.257 -0.6485 -0.1215  0.9888
  199MOL0     O27355   7.993   9.060   3.340 -0.4819 -1.0545  0.1547
  199MOL0     C27356   8.026   9.121   3.454 -0.1060  0.0448  0.1342
  199MOL0     C27357   7.932   9.190   3.533  1.0727 -0.0110 -0.0523
  199MOL0     C27358   7.968   9.229   3.664  0.0021  0.1871  0.9936
  199MOL0     C27359   8.104   9.220   3.701  0.3259 -0.3879  0.1033
  199MOL0     O27360   8.149   9.263   3.823  0.4723  0.6261  0.1267
  199MOL0     C27361   8.053   9.293   3.927  0.3159 -0.5617 -0.4591
  199MOL0     C27362   8.012   9.167   4.005 -0.2827  0.5678  0.2321
  199MOL0     C27363   8.139   9.093   4.047 -0.7448  0.3721  0.4343
  199MOL0     C27364   8.112   8.964   4.129 -0.2142  0.0511  0.3320
  199MOL0     C27365   8.229   8.872   4.146  0.2030  0.6927 -0.4770
  199MOL0     C27366   8.366   8.917   4.204 -0.4836  0.1381  0.2691
  199MOL0     C27367   8.479   8.825   4.142  0.8700 -0.1727 -0.1922
  199MOL0     C27368   8.607   8.827   4.226 -0.3412 -0.2879 -0.9206
  199MOL0    Cl27369   8.701   8.684   4.175 -0.0371 -0.1057  0.1321
  199MOL0     C27370   8.190   9.159   3.622 -0.4159 -1.1253  0.6391
  199MOL0     C27371   8.155   9.115   3.494  0.1322  0.5280 -0.2113
  199MOL0     O27372   7.795   9.184   3.289 -0.4917 -0.0418 -0.2232
  199MOL0     C27373   8.004   9.083   3.040 -0.4122 -0.0197  0.0135
  199MOL0     C27374   8.022   9.034   2.908 -0.9673  0.7115 -1.0433
  199MOL0     N27375   8.209   8.641   2.327 -0.2685  0.3443 -0.0689
  199MOL0     N27376   8.280   8.580   2.237  0.4588  0.4102 -0.2322
  199MOL0     C27377   8.562   9.595   1.639 -0.3788  0.0195  0.1254
  199MOL0     C27378   8.615   9.723   1.615 -0.1684 -0.1795  0.3414
  199MOL0     C27379   8.895  10.057   1.597  0.8630  0.1091  0.2163
  199MOL0     C27380   8.815  10.175   1.575 -0.1805  0.4291  0.5137
  199MOL0     C27381   8.866  10.280   1.500 -0.2100 -0.3230 -0.5878
  199MOL0     C27382   8.991  10.261   1.436  0.3246 -0.0276 -0.8209
  199MOL0     O27383   9.032  10.358   1.349 -0.0377  0.6039 -0.4935
  199MOL0     C27384   9.162  10.367   1.291  0.1075  0.2495 -0.1524
  199MOL0     C27385   9.161  10.505   1.219 -0.5948  0.5508 -1.0051
  199MOL0     C27386   9.197  10.624   1.310  0.0480  0.4293 -0.0267
  199MOL0     C27387   9.199  10.750   1.225 -0.3907  0.0554 -0.4201
  199MOL0     C27388   9.223  10.874   1.310 -0.6399  0.2371 -0.4954
  199MOL0     C27389   9.264  10.969   1.372 -0.0938  0.1989  0.5246
  199MOL0     C27390   9.066  10.145   1.457 -0.8138 -0.3820 -0.2934
  199MOL0     C27391   9.022  10.039   1.539  0.1729 -0.1390  0.4320
  199MOL0     C27392   9.104   9.916   1.570 -0.2022  0.0791 -0.2254
  199MOL0     H27393   8.939   9.646   1.642 -0.2326  4.8060  3.4209
  199MOL0     H27394   8.844   9.413   1.707  3.2677  3.3223  2.8893
  199MOL0     H27395   8.658   9.259   1.839  0.8501  2.8077 -0.4554
  199MOL0     H27396   8.701   9.211   1.681  2.2152 -0.2409  3.0406
  199MOL0     H27397   8.418   9.188   1.816  2.3443  4.0942 -0.4980
  199MOL0     H27398   8.441   9.153   1.663  2.4196 -1.5156 -0.0672
  199MOL0     H27399   8.623   8.975   1.730 -1.6051 -0.0311 -1.5319
  199MOL0     H27400   8.594   9.015   1.897  1.5607  0.7245 -0.3637
  199MOL0     H27401   8.360   8.942   1.858 -0.5309 -1.8456  0.6616
  199MOL0     H27402   8.391   8.927   1.681 -0.2798  2.0090 -0.7294
  199MOL0     H27403   8.549   8.737   1.748 -0.3063 -1.9127  0.9909
  199MOL0     H27404   8.374   8.720   1.779  0.1465  0.2063 -2.6151
  199MOL0     H27405   8.586   8.773   1.985 -0.3360  2.5348  0.2761
  199MOL0     H27406   8.414   8.800   2.020 -0.1878 -0.8766  1.2827
  199MOL0     H27407   8.490   8.584   2.093  0.8990 -1.3418 -0.7290
  199MOL0     H27408   8.503   8.535   1.921  1.9194 -1.1763  1.7353
  199MOL0     H27409   8.260   8.619   1.910  2.8166 -1.1809 -2.9031
  199MOL0     H27410   8.292   8.464   1.994  1.5401  0.1451 -0.5619
  199MOL0     H27411   8.058   8.754   2.059 -0.4065  1.3689  0.5435
  199MOL0     H27412   7.919   8.831   2.280 -0.2934 -1.7416  1.1990
  199MOL0     H27413   8.062   8.908   2.359  1.2057 -0.1595 -1.7912
  199MOL0     H27414   7.880   8.848   2.517 -2.7901  0.1818 -3.5021
  199MOL0     H27415   7.883   8.687   2.483  1.6556 -1.5978 -0.4703
  199MOL0     H27416   8.099   8.648   2.577  2.8908  0.6805 -3.4635
  199MOL0     H27417   8.151   8.821   2.568  1.6757 -2.1287 -4.7292
  199MOL0     H27418   7.939   8.688   2.741 -0.5907  0.2694 -0.8635
  199MOL0     H27419   8.089   8.771   2.796  0.9192  1.8732 -0.2901
  199MOL0     H27420   7.734   8.855   2.892  2.2460 -0.5702 -4.7027
  199MOL0     H27421   7.629   8.843   3.088  1.8783 -1.0952 -0.4814
  199MOL0     H27422   7.578   9.012   3.102  0.5233  0.3411  2.5551
  199MOL0     H27423   7.676   8.939   3.236  1.7606 -2.2620  0.2631
  199MOL0     H27424   7.828   9.206   3.505  1.3207  3.8177  0.6661
  199MOL0     H27425   7.894   9.278   3.726  0.4803  1.1400  0.8309
  199MOL0     H27426   8.091   9.371   3.994  0.3927 -2.4912  1.8574
  199MOL0     H27427   7.965   9.340   3.883 -0.1102 -0.4569  0.4794
  199MOL0     H27428   7.955   9.200   4.093 -1.5428  2.2818 -1.1676
  199MOL0     H27429   7.946   9.098   3.951  1.3644 -0.2607 -0.7942
  199MOL0     H27430   8.200   9.148   4.120 -4.0963  4.1619  0.6989
  199MOL0     H27431   8.192   9.059   3.958 -0.2615 -1.3792  1.3426
  199MOL0     H27432   8.028   8.913   4.081  0.6619  0.5076 -1.8184
  199MOL0     H27433   8.079   8.990   4.230 -1.7937 -3.6502  0.9079
  199MOL0     H27434   8.184   8.802   4.217  2.6649  1.6464  2.1945
  199MOL0     H27435   8.240   8.808   4.058 -0.9406 -0.3125  0.0901
  199MOL0     H27436   8.373   8.902   4.312  3.4417 -4.1136 -0.2838
  199MOL0     H27437   8.395   9.022   4.187 -1.6391  0.3923 -0.2414
  199MOL0     H27438   8.505   8.856   4.040 -1.6338 -1.2106 -1.2120
  199MOL0     H27439   8.437   8.724   4.144 -0.4760  0.3579  2.3377
  199MOL0     H27440   8.588   8.839   4.333  0.6478 -0.8509 -0.6702
  199MOL0     H27441   8.661   8.911   4.182  0.9031 -0.3483  0.4357
  199MOL0     H27442   8.294   9.163   3.654 -0.9996  3.0900  2.7483
  199MOL0     H27443   8.236   9.075   3.433  0.3772  0.4020  0.1876
  199MOL0     H27444   8.083   9.146   3.079 -0.9148 -0.6727  2.2150
  199MOL0     H27445   8.115   9.049   2.855 -0.4781 -0.7716 -0.6522
  199MOL0     H27446   8.459   9.568   1.619 -1.0539  0.1950  2.9339
  199MOL0     H27447   8.562   9.814   1.588  1.9185  0.7241 -0.9728
  199MOL0     H27448   8.723  10.183   1.634 -0.3611  1.6370  0.1039
  199MOL0     H27449   8.819  10.377   1.492  0.8746  0.5084  2.1682
  199MOL0     H27450   9.243  10.363   1.366 -0.9567  2.6082  1.2494
  199MOL0     H27451   9.170  10.291   1.213 -1.4728  1.0510 -1.1382
  199MOL0     H27452   9.065  10.519   1.169 -1.4538  0.1229  0.4579
  199MOL0     H27453   9.230  10.492   1.135  2.7350 -2.8678  1.8976
  199MOL0     H27454   9.110  10.625   1.376  0.0249  1.8050 -0.0365
  199MOL0     H27455   9.292  10.615   1.363 -0.3581  0.9017  0.7999
  199MOL0     H27456   9.108  10.762   1.165  0.4562  1.3827 -1.5126
  199MOL0     H27457   9.290  10.759   1.165 -0.3503  1.4668 -0.1861
  199MOL0     H27458   9.285  11.056   1.431 -2.6541  2.6333 -1.8048
  199MOL0     H27459   9.165  10.128   1.416 -0.0714 -0.3024  1.3838
  199MOL0     H27460   9.212   9.919   1.553 -0.2085  1.9679 -0.1699
  199MOL0     H27461   9.091   9.885   1.674 -2.1598  2.6049  0.3678
  199MOL0     H27462   9.055   9.832   1.520 -0.9246  0.0133  0.5859
  200MOL0     O27463   7.311   9.688   7.531  0.0663 -0.4305 -0.6421
  200MOL0     C27464   7.432   9.654   7.503  0.4461 -0.2609  0.2594
  200MOL0     O27465   7.507   9.572   7.575 -0.2080  0.1768 -0.7203
  200MOL0     C27466   7.461   9.551   7.699  1.1514 -0.4238  0.2368
  200MOL0     C27467   7.478   9.659   7.787  0.6180 -0.1734 -0.1044
  200MOL0     C27468   7.447   9.640   7.925 -0.1843  0.3997  0.3478
  200MOL0     C27469   7.376   9.524   7.969 -1.2633  0.1593 -0.4036
  200MOL0     O27470   7.326   9.528   8.094 -0.1430  0.7148  0.8100
  200MOL0     C27471   7.419   9.454   8.173  0.4258  0.9496 -1.0378
  200MOL0     C27472   7.351   9.406   8.299 -0.4356 -0.2872 -0.5880
  200MOL0     C27473   7.227   9.315   8.260 -0.3259 -0.2158  0.6179
  200MOL0     C27474   7.267   9.174   8.213 -0.4180  0.1590  0.1498
  200MOL0     C27475   7.156   9.108   8.149  0.8709  0.2473 -0.9059
  200MOL0     C27476   7.209   8.994   8.067 -1.3035 -0.3828 -0.6564
  200MOL0     C27477   7.261   8.886   8.155 -0.2006  0.0335  0.0773
  200MOL0     C27478   7.297   8.768   8.064 -0.3410 -0.1200 -0.5959
  200MOL0     N27479   7.387   8.796   7.950  0.3805  0.7563  0.0536
  200MOL0     C27480   7.506   8.856   7.954 -0.2140 -0.4363 -0.0331
  200MOL0     C27481   7.551   8.869   7.824 -0.1577 -0.7354 -0.3419
  200MOL0     C27482   7.677   8.942   7.791 -0.3986 -0.0050  0.5020
  200MOL0     C27483   7.661   9.086   7.824  1.0696 -0.0215  0.6593
  200MOL0     C27484   7.769   9.160   7.750  0.5082  0.3114  0.3185
  200MOL0     C27485   7.769   9.312   7.775 -0.1205 -0.7392 -0.3403
  200MOL0     O27486   7.853   9.337   7.886  0.1267 -0.8364 -0.3348
  200MOL0     C27487   7.985   9.289   7.886  0.3296  0.7162  0.2751
  200MOL0     C27488   8.059   9.262   7.762 -0.8105 -0.0513  0.1164
  200MOL0     C27489   8.202   9.226   7.770  0.6039  0.7217  0.5821
  200MOL0     C27490   8.269   9.201   7.633  0.6486 -0.3306 -0.1281
  200MOL0     C27491   8.271   9.230   7.896 -0.0275 -0.4846 -0.3965
  200MOL0     C27492   8.412   9.207   7.906  0.3253 -0.3148  0.3006
  200MOL0     O27493   8.474   9.285   8.003 -0.8758  1.0303 -1.0791
  200MOL0     C27494   8.609   9.269   8.021 -1.0443 -0.6822  0.5671
  200MOL0     C27495   8.674   9.146   8.029 -1.0301 -0.0755 -0.5254
  200MOL0     C27496   8.812   9.141   8.043  0.4719  0.6464  0.0061
  200MOL0     C27497   8.891   9.253   8.077 -0.1852  0.6402 -0.2127
  200MOL0     O27498   9.023   9.242   8.122 -0.9715 -0.1312 -0.8989
  200MOL0     C27499   9.106   9.366   8.124 -0.5004  0.1858  1.2557
  200MOL0     C27500   9.244   9.331   8.175  1.2230 -0.2963  0.5032
  200MOL0     C27501   9.306   9.207   8.100  0.4590 -0.1838 -0.7131
  200MOL0     C27502   9.442   9.178   8.169 -0.9914 -0.9157 -0.1754
  200MOL0     C27503   9.496   9.045   8.107 -0.6674  0.0376 -0.2698
  200MOL0     C27504   9.638   9.013   8.154  0.7527  0.3866 -0.0981
  200MOL0     C27505   9.728   8.944   8.053 -0.2627  1.0395 -0.3683
  200MOL0     C27506   9.665   8.812   7.991  0.2530 -0.3799 -0.7116
  200MOL0    Cl27507   9.791   8.718   7.918 -0.0518  0.1264 -0.4266
  200MOL0     C27508   8.820   9.376   8.073  0.3068 -0.7309  0.8077
  200MOL0     C27509   8.686   9.383   8.044  0.2674  0.3277 -0.7028
  200MOL0     O27510   8.465   9.114   7.840  0.3680 -0.0841  0.5433
  200MOL0     C27511   8.196   9.275   8.003 -0.7851  0.1438 -1.1004
  200MOL0     C27512   8.053   9.296   8.002 -0.3566  1.0388 -0.5449
  200MOL0     N27513   7.462   8.791   7.752  0.2030  0.3573 -0.6241
  200MOL0     N27514   7.365   8.754   7.828 -0.5546  0.1283  0.0654
  200MOL0     C27515   7.349   9.420   7.876 -0.8954  0.5092 -1.3075
  200MOL0     C27516   7.400   9.430   7.745  0.0840  0.0452  1.1165
  200MOL0     C27517   7.504   9.736   7.401 -0.6853  0.5232  0.1160
  200MOL0     C27518   7.467   9.867   7.377 -0.5178  0.2231  0.1660
  200MOL0     C27519   7.535   9.938   7.277  0.4824  0.0276  0.0733
  200MOL0     C27520   7.625   9.878   7.194  0.3147 -0.3432 -0.1322
  200MOL0     O27521   7.684   9.948   7.094 -0.1701 -0.1714  0.4243
  200MOL0     C27522   7.762   9.872   6.989  0.0901 -0.2745  0.1853
  200MOL0     C27523   7.798   9.979   6.885 -0.8188  0.3281  0.4002
  200MOL0     C27524   7.845   9.902   6.756 -0.2739 -0.4331 -0.7662
  200MOL0     C27525   7.904  10.007   6.653  0.3119  0.1218  0.8122
  200MOL0     C27526   7.989   9.927   6.563 -1.0352  0.3668  0.4994
  200MOL0     C27527   8.062   9.858   6.493  0.0767 -0.6297 -0.1689
  200MOL0     C27528   7.662   9.740   7.218  0.2705 -0.4786 -0.6018
  200MOL0     C27529   7.608   9.664   7.323  0.0016  0.3881 -0.4187
  200MOL0     C27530   7.653   9.516   7.319 -0.2710  0.3185  0.3996
  200MOL0     H27531   7.513   9.753   7.744 -1.6618  2.1198  2.6484
  200MOL0     H27532   7.460   9.726   7.988 -1.6896  1.6532 -0.9375
  200MOL0     H27533   7.509   9.514   8.191  0.7871  0.2403 -0.3960
  200MOL0     H27534   7.454   9.360   8.130  1.4322  0.3550  0.9351
  200MOL0     H27535   7.425   9.344   8.349 -1.0855 -2.5601 -2.2761
  200MOL0     H27536   7.304   9.483   8.361 -0.3545 -1.0215  0.3934
  200MOL0     H27537   7.164   9.312   8.349  1.9809 -2.7851  2.3404
  200MOL0     H27538   7.161   9.350   8.180 -1.5193  1.1990  2.1439
  200MOL0     H27539   7.362   9.174   8.159  0.9884  1.0474  2.4806
  200MOL0     H27540   7.305   9.117   8.299  3.7749  0.8200 -1.0559
  200MOL0     H27541   7.098   9.174   8.084 -1.3620  1.6139  2.2225
  200MOL0     H27542   7.086   9.071   8.224 -0.2537  0.7149 -1.6861
  200MOL0     H27543   7.133   8.967   7.993 -2.8569  0.6920  0.4922
  200MOL0     H27544   7.294   9.034   8.011 -1.7418  2.7186  0.6767
  200MOL0     H27545   7.175   8.859   8.217  1.1726 -2.5457  1.0535
  200MOL0     H27546   7.350   8.915   8.212 -1.6884  1.1178  1.9546
  200MOL0     H27547   7.344   8.694   8.129 -2.4706  0.7023  2.0537
  200MOL0     H27548   7.204   8.732   8.020 -1.7670  1.6494  0.7918
  200MOL0     H27549   7.553   8.894   8.044 -1.7122  1.1438  0.1317
  200MOL0     H27550   7.693   8.933   7.683 -0.4602 -0.2453  0.5126
  200MOL0     H27551   7.758   8.894   7.847 -1.2641  0.3481  2.1162
  200MOL0     H27552   7.567   9.128   7.788 -0.1345 -0.7491  2.8108
  200MOL0     H27553   7.668   9.101   7.932 -0.7840 -2.0436  1.1498
  200MOL0     H27554   7.863   9.109   7.774  1.3560  1.1330 -1.0554
  200MOL0     H27555   7.755   9.135   7.644  0.0510  0.2775  0.3888
  200MOL0     H27556   7.809   9.364   7.688 -0.1673  2.0727  1.1832
  200MOL0     H27557   7.669   9.354   7.791  0.2735  0.7917 -1.6911
  200MOL0     H27558   7.997   9.272   7.674 -1.9133 -1.4135  0.7130
  200MOL0     H27559   8.379   9.203   7.635  0.7705 -2.9994  1.3347
  200MOL0     H27560   8.234   9.270   7.556  0.0709 -2.0172 -1.4305
  200MOL0     H27561   8.250   9.104   7.586 -0.9401  0.1359 -0.4990
  200MOL0     H27562   8.616   9.055   8.039 -3.3107  1.2966 -0.4423
  200MOL0     H27563   8.860   9.043   8.042 -2.2788 -0.7899 -0.2467
  200MOL0     H27564   9.119   9.402   8.021 -1.5423 -1.9336  0.3219
  200MOL0     H27565   9.059   9.444   8.185 -1.6060  2.2651 -1.9854
  200MOL0     H27566   9.310   9.417   8.164  1.3232 -0.3597  0.5964
  200MOL0     H27567   9.242   9.312   8.283 -0.7744 -0.6745  0.4439
  200MOL0     H27568   9.333   9.210   7.994  1.7796 -1.5090 -0.4533
  200MOL0     H27569   9.241   9.120   8.114 -0.1048  0.3072 -0.2357
  200MOL0     H27570   9.431   9.161   8.277 -1.4786 -2.8017 -0.4903
  200MOL0     H27571   9.514   9.260   8.165 -1.3453 -0.6585 -1.7362
  200MOL0     H27572   9.422   8.974   8.145 -0.9755  1.1802  1.3426
  200MOL0     H27573   9.495   9.048   7.997  0.6570  1.2968 -0.2740
  200MOL0     H27574   9.641   8.967   8.253 -1.3871 -0.8180 -0.5289
  200MOL0     H27575   9.682   9.113   8.157 -1.1220  1.6144 -4.5808
  200MOL0     H27576   9.820   8.921   8.109 -0.3599  2.1732  0.2892
  200MOL0     H27577   9.758   9.014   7.975  0.9059  1.3740  0.3515
  200MOL0     H27578   9.592   8.844   7.915  0.5644  1.7453 -0.1808
  200MOL0     H27579   9.605   8.759   8.066  1.7233  0.8334  1.4193
  200MOL0     H27580   8.871   9.470   8.092  1.4365 -1.5551  2.0315
  200MOL0     H27581   8.639   9.480   8.031  3.3829  1.8056 -1.7774
  200MOL0     H27582   8.254   9.282   8.095  1.7558 -0.9294 -2.5351
  200MOL0     H27583   7.997   9.328   8.088 -0.6681  2.8845 -1.3996
  200MOL0     H27584   7.300   9.332   7.917 -1.2640  1.1620 -0.3368
  200MOL0     H27585   7.384   9.343   7.681 -3.6827 -1.4352  3.7239
  200MOL0     H27586   7.385   9.911   7.434 -0.6551 -2.3562  2.1173
  200MOL0     H27587   7.505  10.042   7.275 -0.6990 -0.2631  1.2750
  200MOL0     H27588   7.857   9.831   7.026  0.3441  1.7602  1.9956
  200MOL0     H27589   7.691   9.804   6.942 -1.0211 -0.7617  2.4580
  200MOL0     H27590   7.881  10.043   6.917  0.9891 -1.6747 -0.0988
  200MOL0     H27591   7.708  10.040   6.868 -0.3356  0.8282 -0.4386
  200MOL0     H27592   7.930   9.839   6.786  3.2028  2.3722 -3.7189
  200MOL0     H27593   7.773   9.843   6.699  0.3642 -1.4940 -0.5030
  200MOL0     H27594   7.968  10.085   6.696 -1.6178  1.2318  1.8531
  200MOL0     H27595   7.822  10.063   6.607  0.1599 -0.9276 -0.2435
  200MOL0     H27596   8.138   9.817   6.430 -2.6400 -2.8874 -2.2533
  200MOL0     H27597   7.738   9.686   7.162  1.2300 -1.9718  1.9702
  200MOL0     H27598   7.762   9.514   7.321 -0.2178  0.8426  4.1634
  200MOL0     H27599   7.620   9.452   7.401  2.2353 -2.2890 -0.4790
  200MOL0     H27600   7.629   9.481   7.218  0.3982  0.6921  0.1089
  201MOL0     O27601   4.535   7.071   9.295  0.5289 -0.4124  0.4880
  201MOL0     C27602   4.581   7.100   9.188 -0.2919 -0.3063  0.4185
  201MOL0     O27603   4.618   7.016   9.091 -1.2296  0.5769 -0.5773
  201MOL0     C27604   4.597   6.881   9.078 -0.3841  0.0998  0.4692
  201MOL0     C27605   4.680   6.815   8.989 -1.5158  0.4306 -0.3524
  201MOL0     C27606   4.682   6.673   8.981  0.5110  0.1367  0.3555
  201MOL0     C27607   4.596   6.597   9.064  0.0890 -0.1813  0.1453
  201MOL0     O27608   4.608   6.464   9.064 -0.6178 -0.0015 -0.0227
  201MOL0     C27609   4.509   6.381   9.116  0.3237  0.4638 -0.6598
  201MOL0     C27610   4.539   6.238   9.105  0.3811 -0.0420  0.2872
  201MOL0     C27611   4.416   6.158   9.141  0.1376  0.1552  0.3729
  201MOL0     C27612   4.377   6.154   9.282  0.0788  0.1631 -0.1158
  201MOL0     C27613   4.486   6.113   9.384  0.6535 -0.2512  0.2446
  201MOL0     C27614   4.433   6.086   9.523  1.1898  0.8954 -0.6393
  201MOL0     C27615   4.543   6.064   9.622 -0.7581 -0.4418 -0.0016
  201MOL0     C27616   4.499   6.078   9.760  0.8032 -0.3598  0.4065
  201MOL0     N27617   4.476   5.947   9.821 -1.2238  0.0916 -0.4862
  201MOL0     C27618   4.368   5.867   9.821 -0.2345  0.3559 -0.0724
  201MOL0     C27619   4.400   5.763   9.904 -0.0470  0.4583 -0.1181
  201MOL0     C27620   4.332   5.630   9.930  0.0636 -1.6275 -0.2494
  201MOL0     C27621   4.319   5.602  10.080 -0.0909 -0.1241 -1.0577
  201MOL0     C27622   4.251   5.470  10.099  0.1600  0.7020  0.4095
  201MOL0     C27623   4.352   5.357  10.087 -0.3424 -0.0401  0.8698
  201MOL0     O27624   4.288   5.230  10.104  0.2538 -0.5708  0.4149
  201MOL0     C27625   4.331   5.169  10.214 -0.3112 -0.6094 -0.9160
  201MOL0     C27626   4.446   5.086  10.224  0.4586 -0.1728  0.1601
  201MOL0     C27627   4.491   5.026  10.343 -0.4311  0.2937  0.5041
  201MOL0     C27628   4.602   4.928  10.318  0.7728 -0.0978 -0.4040
  201MOL0     C27629   4.415   5.045  10.463  0.3032  0.6296 -0.3404
  201MOL0     C27630   4.458   4.976  10.591 -0.2805  0.5545 -0.8299
  201MOL0     O27631   4.371   4.883  10.652  0.1613 -0.1495  0.6757
  201MOL0     C27632   4.426   4.775  10.717  0.3811  0.4721  0.0133
  201MOL0     C27633   4.462   4.779  10.852  0.0844  0.1599 -0.8466
  201MOL0     C27634   4.512   4.665  10.913  0.6522 -0.1587 -0.6331
  201MOL0     C27635   4.537   4.552  10.840  0.2860 -0.1569  0.2325
  201MOL0     O27636   4.592   4.436  10.893 -0.5842 -1.2343  0.2354
  201MOL0     C27637   4.568   4.407  11.028  0.5964  0.0662 -0.6546
  201MOL0     C27638   4.427   4.385  11.064  0.1116 -0.6236 -1.1473
  201MOL0     C27639   4.420   4.372  11.217  0.3924 -0.3287  0.4813
  201MOL0     C27640   4.283   4.344  11.272  0.3793  0.1096  0.5369
  201MOL0     C27641   4.263   4.194  11.308  0.9053 -0.4256  1.0685
  201MOL0     C27642   4.114   4.163  11.364 -0.6145  0.0603 -0.0392
  201MOL0     C27643   4.116   4.031  11.434  0.6435  0.2159 -0.6659
  201MOL0     C27644   3.990   4.011  11.518 -0.6508  0.4548 -0.7683
  201MOL0    Cl27645   4.006   3.867  11.633 -0.1440 -0.3095 -0.6394
  201MOL0     C27646   4.507   4.555  10.703  0.5728  0.0912  0.3341
  201MOL0     C27647   4.447   4.660  10.644 -0.5363  0.0094 -0.1831
  201MOL0     O27648   4.575   4.991  10.629  0.3666 -0.6569 -0.3649
  201MOL0     C27649   4.304   5.135  10.456 -0.7836  0.0102  0.1175
  201MOL0     C27650   4.274   5.196  10.333  1.0634  0.2101 -0.2089
  201MOL0     N27651   4.531   5.774   9.943  0.7646 -0.2502  0.8118
  201MOL0     N27652   4.574   5.881   9.889  0.3091 -0.2261  0.0252
  201MOL0     C27653   4.509   6.668   9.142  1.6625 -0.9876  0.0064
  201MOL0     C27654   4.506   6.809   9.149  0.0125  0.3109 -0.1086
  201MOL0     C27655   4.595   7.240   9.157  1.3311 -0.8095  0.6465
  201MOL0     C27656   4.576   7.328   9.270 -0.6138  0.7779  0.9307
  201MOL0     C27657   4.577   7.463   9.263  1.0308 -0.2049  0.4383
  201MOL0     C27658   4.609   7.530   9.139 -0.6003 -0.6274  0.4972
  201MOL0     O27659   4.608   7.663   9.106 -0.1059  0.1264 -0.4642
  201MOL0     C27660   4.543   7.745   9.211 -0.6933 -0.6520 -0.0696
  201MOL0     C27661   4.644   7.798   9.313 -0.2162  0.5278  0.0217
  201MOL0     C27662   4.765   7.871   9.255 -0.0435  0.7507  0.0398
  201MOL0     C27663   4.862   7.928   9.352 -0.1870 -0.4065  0.4927
  201MOL0     C27664   4.814   8.042   9.423  0.0462  0.4401  0.0378
  201MOL0     C27665   4.779   8.120   9.501  1.2135 -0.8008 -0.5442
  201MOL0     C27666   4.635   7.446   9.031  0.1905 -0.9150 -0.2238
  201MOL0     C27667   4.616   7.308   9.034  0.2674 -0.2584  0.8162
  201MOL0     C27668   4.607   7.235   8.910  0.2753 -0.7873  0.1337
  201MOL0     H27669   4.753   6.871   8.931 -1.2947 -0.0193 -0.5160
  201MOL0     H27670   4.734   6.615   8.906  1.2845  2.9264 -1.3948
  201MOL0     H27671   4.408   6.393   9.077 -0.4862 -2.2024  0.3566
  201MOL0     H27672   4.510   6.412   9.221  0.2951  0.2824 -0.6064
  201MOL0     H27673   4.554   6.211   9.000 -3.2356  0.0984 -0.3998
  201MOL0     H27674   4.625   6.217   9.170 -0.2319  0.3221  1.2248
  201MOL0     H27675   4.338   6.195   9.074  2.4502  0.2467 -2.5112
  201MOL0     H27676   4.435   6.053   9.114 -1.3818 -0.0283 -0.1097
  201MOL0     H27677   4.331   6.248   9.316 -0.9858 -1.3378  2.9180
  201MOL0     H27678   4.295   6.083   9.296  1.1945 -0.7966  2.2354
  201MOL0     H27679   4.551   6.199   9.402  0.3515  0.5465 -2.0724
  201MOL0     H27680   4.543   6.026   9.349  0.2505 -1.1214  1.6641
  201MOL0     H27681   4.371   6.170   9.555  1.5717  0.5399  1.1595
  201MOL0     H27682   4.369   5.997   9.515  2.4912 -0.0642 -0.7689
  201MOL0     H27683   4.617   6.143   9.601  0.1823 -1.6391 -1.4286
  201MOL0     H27684   4.596   5.971   9.602 -0.0965 -0.0227 -0.2443
  201MOL0     H27685   4.573   6.141   9.811  1.7723  1.2738 -2.7900
  201MOL0     H27686   4.398   6.118   9.776  0.7195  1.3050 -3.2736
  201MOL0     H27687   4.284   5.875   9.753 -0.2974 -1.4206 -0.2725
  201MOL0     H27688   4.386   5.547   9.885  2.0803 -0.6518  0.2568
  201MOL0     H27689   4.236   5.623   9.878  0.5885  0.4537 -1.6503
  201MOL0     H27690   4.420   5.598  10.121  0.4666 -1.6858 -2.4608
  201MOL0     H27691   4.267   5.692  10.114  1.4092  0.1043  0.7555
  201MOL0     H27692   4.201   5.471  10.196 -1.7313  0.5087 -0.5286
  201MOL0     H27693   4.166   5.458  10.031 -0.5653  4.2558  0.5136
  201MOL0     H27694   4.404   5.365   9.991 -0.0155 -0.5401  0.9958
  201MOL0     H27695   4.426   5.371  10.167  0.0580  0.1581  0.4686
  201MOL0     H27696   4.497   5.054  10.134 -4.0308 -3.2507 -1.6221
  201MOL0     H27697   4.698   4.971  10.349  0.0982 -0.1526  1.9657
  201MOL0     H27698   4.624   4.903  10.214  3.0838  1.1761 -0.2947
  201MOL0     H27699   4.569   4.833  10.360 -2.1532 -0.6179 -3.4676
  201MOL0     H27700   4.434   4.865  10.912 -1.2879 -0.0940 -1.1015
  201MOL0     H27701   4.539   4.666  11.018 -2.0196 -1.4071  0.1447
  201MOL0     H27702   4.624   4.323  11.069 -1.8008 -0.2532  2.3602
  201MOL0     H27703   4.612   4.493  11.080 -1.4222  0.5224  0.3858
  201MOL0     H27704   4.359   4.464  11.033 -0.9477 -1.7901 -1.9195
  201MOL0     H27705   4.397   4.292  11.014 -3.1271 -1.0764  1.2353
  201MOL0     H27706   4.450   4.469  11.258  2.7036 -1.1932  0.9610
  201MOL0     H27707   4.491   4.297  11.251 -1.3575 -2.4702 -0.3208
  201MOL0     H27708   4.206   4.382  11.204  0.9892 -0.2857 -0.4013
  201MOL0     H27709   4.264   4.392  11.368  1.2939 -2.2582  2.0005
  201MOL0     H27710   4.283   4.135  11.218  0.0807  0.3837  0.3252
  201MOL0     H27711   4.328   4.170  11.392 -1.0409  0.1376  2.8259
  201MOL0     H27712   4.048   4.162  11.277  1.8146  1.5037 -2.0081
  201MOL0     H27713   4.078   4.239  11.433 -0.4706  0.1465 -0.0585
  201MOL0     H27714   4.200   4.025  11.503  1.6507 -0.0741 -1.8921
  201MOL0     H27715   4.133   3.951  11.362  0.1368  0.2225 -0.7977
  201MOL0     H27716   3.894   4.016  11.465 -0.6723 -0.3238 -0.8069
  201MOL0     H27717   3.990   4.102  11.580  4.8125  0.9508 -1.0027
  201MOL0     H27718   4.524   4.464  10.647 -0.6038 -0.1659  0.3736
  201MOL0     H27719   4.435   4.672  10.536 -0.7949 -2.5896 -0.4928
  201MOL0     H27720   4.243   5.160  10.543 -0.7956  1.1692 -0.2150
  201MOL0     H27721   4.191   5.265  10.343  0.4060 -0.7967  1.9020
  201MOL0     H27722   4.438   6.608   9.198  0.5164 -0.3065 -0.6815
  201MOL0     H27723   4.432   6.857   9.211  2.0870 -0.4432  3.2346
  201MOL0     H27724   4.569   7.283   9.368 -0.6468  1.2351  1.1386
  201MOL0     H27725   4.572   7.517   9.356  1.9839  1.8806 -0.6427
  201MOL0     H27726   4.507   7.832   9.157  0.1675 -1.4340 -1.9827
  201MOL0     H27727   4.452   7.700   9.251 -0.5855 -3.5201 -2.7064
  201MOL0     H27728   4.680   7.715   9.374  0.3213 -1.0402 -2.3378
  201MOL0     H27729   4.582   7.863   9.376 -2.2861  1.5280 -2.8518
  201MOL0     H27730   4.819   7.796   9.197 -0.9600  0.6685 -0.7328
  201MOL0     H27731   4.733   7.945   9.181 -2.9883 -1.3111 -0.9146
  201MOL0     H27732   4.950   7.956   9.294  1.7386 -1.3949  2.7753
  201MOL0     H27733   4.887   7.848   9.421 -0.3240 -2.2726 -1.5237
  201MOL0     H27734   4.754   8.190   9.578  0.4586 -3.4148  1.7459
  201MOL0     H27735   4.665   7.500   8.942 -1.4194  0.6272  0.1100
  201MOL0     H27736   4.702   7.189   8.881  0.8130  0.0386  0.5395
  201MOL0     H27737   4.533   7.155   8.910 -0.4369 -0.1668 -1.3725
  201MOL0     H27738   4.573   7.303   8.831  1.6020  1.2653  1.2206
  202MOL0     O27739  10.697   3.430   0.343 -0.3714  0.1271  0.5402
  202MOL0     C27740  10.807   3.385   0.370 -0.3379 -0.0065  0.2020
  202MOL0     O27741  10.863   3.385   0.492 -0.4719  0.3096  0.5601
  202MOL0     C27742  10.773   3.361   0.594  0.0070  0.1636  0.7926
  202MOL0     C27743  10.707   3.463   0.651  1.1239 -0.4858 -0.0619
  202MOL0     C27744  10.633   3.450   0.774  0.4871  0.3974 -0.7531
  202MOL0     C27745  10.626   3.324   0.829 -0.0056 -0.4319  0.3115
  202MOL0     O27746  10.553   3.312   0.950 -0.1770 -0.0170 -0.0463
  202MOL0     C27747  10.479   3.193   0.984  1.0904 -0.2203 -0.5038
  202MOL0     C27748  10.401   3.226   1.114  0.2211  0.1277 -0.6554
  202MOL0     C27749  10.331   3.104   1.177 -0.0774  0.1465 -0.6308
  202MOL0     C27750  10.309   3.139   1.329  1.1499  0.6860  0.4721
  202MOL0     C27751  10.229   3.267   1.354  0.0457  0.2475 -0.2169
  202MOL0     C27752  10.216   3.303   1.496  0.0263  0.3871 -0.4563
  202MOL0     C27753  10.103   3.220   1.570  0.0561 -0.3663  0.5435
  202MOL0     C27754   9.979   3.310   1.585 -0.3768  0.0577  0.4298
  202MOL0     N27755   9.918   3.326   1.450  0.3466 -0.4585 -0.2615
  202MOL0     C27756   9.937   3.427   1.361 -0.0751 -0.9954 -0.4616
  202MOL0     C27757   9.826   3.425   1.272 -1.1797 -0.4111 -0.0320
  202MOL0     C27758   9.785   3.523   1.163  0.4748 -0.2524  0.1794
  202MOL0     C27759   9.651   3.600   1.205 -0.7667  0.7734  0.3143
  202MOL0     C27760   9.519   3.520   1.176 -0.4853 -0.9129 -0.3950
  202MOL0     C27761   9.398   3.602   1.199 -0.3296 -0.1237  0.4061
  202MOL0     O27762   9.379   3.680   1.081  0.2783  0.7127 -0.7570
  202MOL0     C27763   9.322   3.794   1.121 -0.2714 -0.1844  0.2716
  202MOL0     C27764   9.186   3.801   1.163  0.7599  0.7777 -0.1927
  202MOL0     C27765   9.131   3.922   1.204  0.7276  0.5365  0.0741
  202MOL0     C27766   8.979   3.914   1.243 -0.0935 -0.4204  0.6958
  202MOL0     C27767   9.207   4.043   1.193 -0.7439 -0.5440  0.3030
  202MOL0     C27768   9.162   4.175   1.235 -0.2229  0.0588  0.5433
  202MOL0     O27769   9.246   4.286   1.218  0.1628  0.3596 -0.4733
  202MOL0     C27770   9.195   4.405   1.245 -0.1626 -0.2404  0.0735
  202MOL0     C27771   9.190   4.512   1.160  0.3677  0.7417  0.0972
  202MOL0     C27772   9.128   4.637   1.195  0.4953  1.5243  0.8977
  202MOL0     C27773   9.077   4.660   1.323 -0.1957  0.4745 -1.0044
  202MOL0     O27774   8.999   4.781   1.330 -0.2212  0.5107  0.0893
  202MOL0     C27775   8.901   4.796   1.436 -0.0891 -0.6404 -0.1749
  202MOL0     C27776   8.870   4.941   1.453  0.7577 -0.0879  0.7752
  202MOL0     C27777   8.867   5.036   1.324 -1.1176  0.8037 -1.2834
  202MOL0     C27778   8.798   5.168   1.343 -0.2508  0.1120 -0.2307
  202MOL0     C27779   8.653   5.171   1.392 -0.0740 -0.6003  0.8203
  202MOL0     C27780   8.600   5.316   1.359  0.5324  0.0759 -0.9334
  202MOL0     C27781   8.470   5.326   1.448  0.0031  0.4856 -0.0563
  202MOL0     C27782   8.403   5.457   1.424  0.4524 -0.5563  0.7796
  202MOL0    Cl27783   8.498   5.586   1.504  0.0027  0.7701 -0.0699
  202MOL0     C27784   9.104   4.569   1.421 -0.1776 -0.0062  1.0570
  202MOL0     C27785   9.161   4.445   1.387 -1.2599 -0.1092 -0.2494
  202MOL0     O27786   9.053   4.174   1.286 -0.1008 -0.1358 -0.5472
  202MOL0     C27787   9.342   4.040   1.146  0.0514 -0.9591 -0.2821
  202MOL0     C27788   9.396   3.912   1.117 -0.0326  0.0003  0.1676
  202MOL0     N27789   9.754   3.312   1.305  0.3197  0.7936 -0.5486
  202MOL0     N27790   9.807   3.257   1.410 -0.2848  0.9400  0.1405
  202MOL0     C27791  10.689   3.215   0.768  0.1361 -0.2861  0.5241
  202MOL0     C27792  10.776   3.242   0.663 -0.6748  0.1443  0.6404
  202MOL0     C27793  10.892   3.345   0.260  0.2320  0.3698 -0.2036
  202MOL0     C27794  10.888   3.432   0.145  0.8120 -0.0358  0.0871
  202MOL0     C27795  10.955   3.401   0.032  0.1452  0.8533 -0.9067
  202MOL0     C27796  11.047   3.291   0.040  0.9131 -0.2107  0.5859
  202MOL0     O27797  11.118   3.251  -0.066 -0.1126 -0.0222 -0.1264
  202MOL0     C27798  11.237   3.320  -0.092 -0.2092 -0.5360  0.2244
  202MOL0     C27799  11.215   3.394  -0.229 -0.6558  0.0553  0.8048
  202MOL0     C27800  11.322   3.502  -0.249 -0.2292  1.3229 -0.3238
  202MOL0     C27801  11.397   3.462  -0.377  0.6189 -1.2164  0.4903
  202MOL0     C27802  11.475   3.350  -0.359  0.0830 -0.0181  0.4931
  202MOL0     C27803  11.551   3.258  -0.335 -0.5739 -0.2452  0.0352
  202MOL0     C27804  11.050   3.205   0.148 -0.0080  0.0223 -0.2950
  202MOL0     C27805  10.972   3.234   0.260 -0.1599  0.3724 -0.3601
  202MOL0     C27806  10.962   3.133   0.373  0.1511  0.1354 -0.0455
  202MOL0     H27807  10.711   3.558   0.600 -1.3283 -2.0022 -3.4624
  202MOL0     H27808  10.566   3.524   0.816  0.1980  0.6533 -1.6282
  202MOL0     H27809  10.544   3.106   0.997  0.2270 -0.7000  0.9360
  202MOL0     H27810  10.409   3.165   0.905  0.5542 -2.0481  0.5480
  202MOL0     H27811  10.465   3.262   1.196  1.9917 -4.2776  0.2055
  202MOL0     H27812  10.328   3.304   1.095  0.6987  0.6731 -0.2771
  202MOL0     H27813  10.243   3.075   1.118 -0.0572  2.5101 -1.9514
  202MOL0     H27814  10.394   3.015   1.177 -0.9025 -0.4508 -0.4791
  202MOL0     H27815  10.265   3.048   1.371  2.1640 -2.1220 -3.9202
  202MOL0     H27816  10.404   3.145   1.382  2.3375  1.2700 -1.6180
  202MOL0     H27817  10.134   3.249   1.303  0.6489 -0.7266 -1.0173
  202MOL0     H27818  10.279   3.349   1.301  2.5920  0.0044  1.6349
  202MOL0     H27819  10.315   3.279   1.536  0.3271 -1.4744 -2.1690
  202MOL0     H27820  10.195   3.410   1.507 -0.7029  0.0822  1.6518
  202MOL0     H27821  10.137   3.204   1.672  1.5305 -2.2175 -0.1828
  202MOL0     H27822  10.087   3.124   1.519 -1.9305  1.2812 -2.2176
  202MOL0     H27823   9.909   3.249   1.643 -2.3042  1.6268 -0.1238
  202MOL0     H27824   9.987   3.403   1.641 -1.3199  0.9424 -0.8524
  202MOL0     H27825  10.001   3.514   1.355 -1.2668 -0.1322 -0.9580
  202MOL0     H27826   9.768   3.456   1.078  3.4824  0.4930 -1.1204
  202MOL0     H27827   9.857   3.603   1.144 -0.9307  1.2330  0.8752
  202MOL0     H27828   9.649   3.629   1.310 -0.5898 -0.5944  0.7116
  202MOL0     H27829   9.647   3.688   1.140 -2.6756  1.3517  1.1328
  202MOL0     H27830   9.512   3.485   1.072 -1.2525  1.5863 -1.2626
  202MOL0     H27831   9.520   3.432   1.241 -0.6025  1.3318  2.8670
  202MOL0     H27832   9.312   3.537   1.215  0.3788 -0.5792  2.9539
  202MOL0     H27833   9.419   3.663   1.288  2.5153 -1.8334  1.0718
  202MOL0     H27834   9.131   3.707   1.171  1.7586 -0.0778 -2.4962
  202MOL0     H27835   8.962   3.926   1.350  1.8210  0.1830  0.9780
  202MOL0     H27836   8.928   3.822   1.213 -0.7867 -0.6311  2.4242
  202MOL0     H27837   8.927   3.997   1.195 -0.5202 -0.1005  1.6865
  202MOL0     H27838   9.207   4.491   1.055  1.9911  0.4433  0.4047
  202MOL0     H27839   9.145   4.712   1.118  2.0059 -1.6817 -2.1761
  202MOL0     H27840   8.811   4.736   1.417 -0.8697  0.3112  0.4211
  202MOL0     H27841   8.942   4.761   1.531 -0.1785  2.3405  1.0567
  202MOL0     H27842   8.773   4.951   1.502  0.4948 -1.2595  0.5328
  202MOL0     H27843   8.949   4.979   1.519  1.5114  1.1059 -0.7402
  202MOL0     H27844   8.813   4.981   1.246  1.3624 -2.4344 -0.9193
  202MOL0     H27845   8.967   5.067   1.292 -0.2876 -0.5315 -0.1089
  202MOL0     H27846   8.809   5.232   1.255 -3.2285  0.2737 -0.5903
  202MOL0     H27847   8.858   5.224   1.416  1.7745 -1.1481 -0.8606
  202MOL0     H27848   8.602   5.096   1.332  0.7187 -0.8868  0.4893
  202MOL0     H27849   8.647   5.146   1.498 -0.3848 -0.4014  0.8511
  202MOL0     H27850   8.585   5.328   1.252  5.0808  0.4478 -1.7203
  202MOL0     H27851   8.669   5.395   1.390  1.7244 -0.7259 -1.4724
  202MOL0     H27852   8.477   5.313   1.557 -1.7268 -1.4264 -0.1113
  202MOL0     H27853   8.398   5.249   1.418 -1.0426  0.1658  2.8746
  202MOL0     H27854   8.301   5.467   1.462 -0.5989 -2.4669 -1.3128
  202MOL0     H27855   8.397   5.480   1.318 -0.5220 -0.1339  0.9139
  202MOL0     H27856   9.078   4.602   1.521 -3.0443  1.0091  0.1034
  202MOL0     H27857   9.155   4.372   1.467 -3.3197  0.3376  0.0719
  202MOL0     H27858   9.409   4.125   1.158  1.9022 -2.0479 -2.1964
  202MOL0     H27859   9.503   3.905   1.102  0.4715 -0.9197  3.3854
  202MOL0     H27860  10.691   3.115   0.810  1.6616 -0.3483  0.3421
  202MOL0     H27861  10.842   3.165   0.623  0.9705  1.0835  1.4586
  202MOL0     H27862  10.813   3.509   0.160  0.9458 -0.2229  1.9013
  202MOL0     H27863  10.946   3.467  -0.054 -0.2879  2.3857  0.2518
  202MOL0     H27864  11.269   3.379  -0.006  0.7185 -0.3523 -0.2331
  202MOL0     H27865  11.323   3.254  -0.104 -0.3455 -0.6177 -0.3848
  202MOL0     H27866  11.124   3.454  -0.232 -0.4001  0.4365 -2.6942
  202MOL0     H27867  11.228   3.325  -0.313  2.5665  1.7488 -0.2798
  202MOL0     H27868  11.280   3.603  -0.255 -1.1351  0.8816 -1.7157
  202MOL0     H27869  11.387   3.501  -0.161  0.7823  2.3246 -1.0273
  202MOL0     H27870  11.458   3.549  -0.407 -2.5840  0.7737 -0.8104
  202MOL0     H27871  11.334   3.435  -0.462  0.1524 -2.3510  1.1894
  202MOL0     H27872  11.622   3.186  -0.300 -1.1527 -0.9326 -0.1758
  202MOL0     H27873  11.118   3.121   0.153  1.6501  1.3165  0.0541
  202MOL0     H27874  11.017   3.176   0.458 -2.8072 -0.5038  2.3403
  202MOL0     H27875  10.857   3.116   0.395  0.7790 -3.7551  0.6760
  202MOL0     H27876  10.999   3.035   0.342 -1.7257 -0.3587 -0.8323
  203MOL0     O27877   7.420   5.844  11.299  0.4610 -0.0610  0.1140
  203MOL0     C27878   7.371   5.727  11.302  0.7178 -0.3865 -0.1567
  203MOL0     O27879   7.375   5.639  11.195 -0.1821  0.0989 -0.1203
  203MOL0     C27880   7.474   5.663  11.105 -0.1115 -0.5380 -0.0287
  203MOL0     C27881   7.605   5.705  11.123 -0.4531 -0.0001  0.6140
  203MOL0     C27882   7.701   5.734  11.015  0.4900  0.3952 -0.1066
  203MOL0     C27883   7.661   5.710  10.884  0.0854 -0.1201  0.2673
  203MOL0     O27884   7.732   5.742  10.766 -0.1347 -0.0476  0.1225
  203MOL0     C27885   7.841   5.836  10.784 -0.8724  0.2559 -0.2548
  203MOL0     C27886   7.812   5.979  10.829 -0.4280  0.4096  0.1820
  203MOL0     C27887   7.720   6.053  10.732  0.3067 -0.5787  0.2909
  203MOL0     C27888   7.644   6.165  10.805 -0.2362  0.4489  0.3255
  203MOL0     C27889   7.544   6.129  10.913  0.9983  0.7362 -0.3143
  203MOL0     C27890   7.425   6.036  10.855 -0.7286 -0.2790  0.2566
  203MOL0     C27891   7.342   5.991  10.978 -0.1356 -0.5677 -0.4748
  203MOL0     C27892   7.232   5.893  10.922  0.6887 -0.6560 -0.5337
  203MOL0     N27893   7.100   5.948  10.899 -0.2856  0.3284  0.6329
  203MOL0     C27894   6.999   5.935  10.989 -0.6162 -0.1115  0.1211
  203MOL0     C27895   6.891   5.997  10.914 -0.4399  1.0117  0.1956
  203MOL0     C27896   6.748   6.022  10.967 -0.1681 -0.1177  0.2823
  203MOL0     C27897   6.739   6.148  11.057 -0.3014 -0.1191  0.6401
  203MOL0     C27898   6.599   6.155  11.122 -1.2733  0.4622  0.7216
  203MOL0     C27899   6.570   6.305  11.158  0.7456 -0.3660  0.1022
  203MOL0     O27900   6.614   6.333  11.290  0.2094  0.4244 -0.4255
  203MOL0     C27901   6.664   6.452  11.329 -0.5019 -0.5378 -0.7346
  203MOL0     C27902   6.685   6.568  11.250  0.1639 -0.3014 -0.0581
  203MOL0     C27903   6.763   6.677  11.286 -0.2356  0.3982  0.9251
  203MOL0     C27904   6.773   6.787  11.178  0.3300 -0.0407 -0.6374
  203MOL0     C27905   6.822   6.677  11.414 -0.5370  0.3536 -1.4296
  203MOL0     C27906   6.911   6.790  11.468 -0.3462 -0.0374  0.0253
  203MOL0     O27907   6.925   6.811  11.600  0.2749  0.3863 -0.1578
  203MOL0     C27908   7.015   6.895  11.663 -0.0262 -0.3898 -0.9228
  203MOL0     C27909   6.971   6.919  11.798 -0.4895  0.5084  0.0519
  203MOL0     C27910   7.048   7.014  11.871 -0.9918  0.0639 -0.0899
  203MOL0     C27911   7.163   7.081  11.825  0.1213 -0.3300 -0.6886
  203MOL0     O27912   7.242   7.176  11.885  0.5671  0.0061  0.4771
  203MOL0     C27913   7.179   7.272  11.981 -0.4214 -0.2905  0.0651
  203MOL0     C27914   7.301   7.351  12.037  0.9919 -0.2772  0.9238
  203MOL0     C27915   7.407   7.271  12.117 -0.0520  0.7981 -0.5910
  203MOL0     C27916   7.493   7.376  12.199 -0.4220 -0.0801  0.3481
  203MOL0     C27917   7.576   7.307  12.313 -0.0539 -0.2330 -0.6477
  203MOL0     C27918   7.676   7.424  12.342 -0.2998  0.4743 -0.3948
  203MOL0     C27919   7.625   7.551  12.410 -0.2254 -0.4884 -0.5625
  203MOL0     C27920   7.527   7.535  12.526  0.6366  0.0080 -0.2969
  203MOL0    Cl27921   7.616   7.428  12.657 -0.5154 -0.3380  0.2313
  203MOL0     C27922   7.200   7.043  11.688  0.2714 -0.4003 -0.3148
  203MOL0     C27923   7.120   6.972  11.609  0.0366  0.5890  0.5079
  203MOL0     O27924   6.977   6.847  11.383 -0.0982 -0.6356 -0.3250
  203MOL0     C27925   6.790   6.566  11.498 -0.2199 -0.0958  0.3336
  203MOL0     C27926   6.715   6.464  11.457  0.0086 -0.1918 -0.2276
  203MOL0     N27927   6.932   6.043  10.790  0.4898 -0.0368  0.1430
  203MOL0     N27928   7.065   6.029  10.791  0.0384  0.1638  0.7982
  203MOL0     C27929   7.534   5.663  10.860  0.6877  0.4153  0.5557
  203MOL0     C27930   7.445   5.637  10.969 -0.0195  0.4696 -0.0879
  203MOL0     C27931   7.297   5.694  11.431 -0.1771 -0.2775  0.1286
  203MOL0     C27932   7.269   5.804  11.522  0.2583 -0.0120  0.5778
  203MOL0     C27933   7.189   5.783  11.633  0.5996 -0.3274  0.2427
  203MOL0     C27934   7.178   5.654  11.688  0.8204  0.0862  0.1707
  203MOL0     O27935   7.128   5.632  11.819  0.0138  0.0894  0.1809
  203MOL0     C27936   6.991   5.664  11.828 -0.0186  0.4916 -0.0747
  203MOL0     C27937   6.964   5.809  11.859 -0.5041  0.7008 -0.2723
  203MOL0     C27938   6.818   5.818  11.909  0.5937  0.1354  0.3306
  203MOL0     C27939   6.770   5.959  11.935 -0.3932 -0.1879  0.1342
  203MOL0     C27940   6.834   6.033  12.052 -0.1168  0.7945  0.1025
  203MOL0     C27941   6.895   6.078  12.154  0.1584 -0.5595  0.0270
  203MOL0     C27942   7.222   5.547  11.611  0.1980  0.3275  0.1243
  203MOL0     C27943   7.278   5.567  11.481 -0.0304  0.5364  0.9622
  203MOL0     C27944   7.335   5.448  11.410 -0.0793 -0.1959  0.4277
  203MOL0     H27945   7.632   5.721  11.227  0.9160  0.9529  0.1371
  203MOL0     H27946   7.798   5.776  11.036 -0.6815  1.8665  3.0860
  203MOL0     H27947   7.885   5.834  10.684 -3.6205  0.1486 -1.5725
  203MOL0     H27948   7.912   5.782  10.847  0.2124  1.9371  0.0232
  203MOL0     H27949   7.770   5.980  10.930  3.2009  2.4099  1.9037
  203MOL0     H27950   7.905   6.037  10.825  1.6738 -2.6862  0.7560
  203MOL0     H27951   7.789   6.097  10.659  0.3358  3.6973  2.5601
  203MOL0     H27952   7.641   5.991  10.689  0.0594 -0.3098  0.3497
  203MOL0     H27953   7.726   6.225  10.845  0.5649 -1.1747  1.2592
  203MOL0     H27954   7.591   6.222  10.729  0.8586  0.6982 -0.2714
  203MOL0     H27955   7.502   6.219  10.959  0.3776 -0.1285  0.8586
  203MOL0     H27956   7.589   6.060  10.984 -0.2941  2.0765  1.9152
  203MOL0     H27957   7.367   6.096  10.784 -0.5673  2.9280  2.6253
  203MOL0     H27958   7.473   5.949  10.809 -0.2483 -1.1577  2.3195
  203MOL0     H27959   7.301   6.074  11.038  0.9892  0.5385 -1.1950
  203MOL0     H27960   7.410   5.944  11.050 -0.8141  0.6709  1.0547
  203MOL0     H27961   7.278   5.854  10.831  3.0270  1.0482 -0.1806
  203MOL0     H27962   7.221   5.810  10.992  0.7865  0.3325  0.6918
  203MOL0     H27963   7.020   5.895  11.087  3.5086  1.9249  0.2722
  203MOL0     H27964   6.733   5.926  11.018  2.0792 -2.9652 -3.7600
  203MOL0     H27965   6.678   6.034  10.883 -0.4813  1.6822  0.7678
  203MOL0     H27966   6.807   6.150  11.142 -1.2255  1.0716  1.3868
  203MOL0     H27967   6.764   6.229  10.988  2.2676 -0.3705  1.2002
  203MOL0     H27968   6.523   6.139  11.046 -0.1609  2.6228 -0.9751
  203MOL0     H27969   6.584   6.087  11.206 -0.9065  1.1733  1.3836
  203MOL0     H27970   6.627   6.358  11.081  0.3893 -3.3266 -2.3555
  203MOL0     H27971   6.468   6.341  11.139  1.2630  0.8344 -0.5211
  203MOL0     H27972   6.646   6.570  11.148 -1.1226 -2.5436  0.3070
  203MOL0     H27973   6.873   6.794  11.134  1.1472 -0.8520  0.9610
  203MOL0     H27974   6.747   6.885  11.219  1.3850  0.3439 -0.8493
  203MOL0     H27975   6.703   6.783  11.094 -0.1609  3.1883 -0.5040
  203MOL0     H27976   6.888   6.861  11.838 -1.9574  0.4159 -2.8523
  203MOL0     H27977   7.013   7.027  11.972  0.5825 -0.1272  0.5096
  203MOL0     H27978   7.120   7.344  11.924 -0.5805 -0.8856 -0.5246
  203MOL0     H27979   7.121   7.236  12.067  2.0918 -4.0884  0.4383
  203MOL0     H27980   7.356   7.397  11.955  1.0033 -4.0238 -1.4244
  203MOL0     H27981   7.259   7.433  12.096 -0.4278  0.4072 -0.9286
  203MOL0     H27982   7.467   7.203  12.057  0.0025  2.1889 -2.1803
  203MOL0     H27983   7.351   7.207  12.185 -1.6052  0.9709 -1.6606
  203MOL0     H27984   7.431   7.453  12.246 -5.2915 -2.7201 -1.0748
  203MOL0     H27985   7.568   7.421  12.133 -0.6448 -0.3091 -0.0652
  203MOL0     H27986   7.505   7.289  12.394 -1.5957  2.5042 -1.2243
  203MOL0     H27987   7.624   7.211  12.293  0.6670 -0.7612  2.9633
  203MOL0     H27988   7.746   7.429  12.258 -0.7746  0.1971 -0.8053
  203MOL0     H27989   7.739   7.384  12.422  1.0018  0.5627 -1.3368
  203MOL0     H27990   7.565   7.606  12.337  0.3163  1.3860  0.3388
  203MOL0     H27991   7.705   7.615  12.446 -0.6977 -0.2917  0.1613
  203MOL0     H27992   7.437   7.484  12.489  2.5243 -1.0629 -3.8426
  203MOL0     H27993   7.505   7.636  12.564  3.3508  0.1277  1.1794
  203MOL0     H27994   7.286   7.100  11.653 -0.5165  3.9674  3.8071
  203MOL0     H27995   7.147   6.961  11.505  0.6884 -2.1627  0.9028
  203MOL0     H27996   6.838   6.556  11.595 -0.7960  0.6569  0.7067
  203MOL0     H27997   6.690   6.385  11.528 -3.4854  1.1813  0.2631
  203MOL0     H27998   7.503   5.635  10.759 -1.6911  2.9518  0.4454
  203MOL0     H27999   7.349   5.587  10.960  0.2428  0.0567 -0.7148
  203MOL0     H28000   7.304   5.904  11.499  3.1473 -0.6437  1.8187
  203MOL0     H28001   7.158   5.871  11.689  2.5036  1.2988 -1.1202
  203MOL0     H28002   6.929   5.651  11.739  0.9858 -0.4275 -0.6687
  203MOL0     H28003   6.958   5.601  11.911  0.2332  1.3891  0.7264
  203MOL0     H28004   6.973   5.869  11.768  0.5756  0.2910 -0.4512
  203MOL0     H28005   7.042   5.844  11.927  2.0721  1.6482 -3.4497
  203MOL0     H28006   6.756   5.770  11.833  0.1871  1.8122 -0.4485
  203MOL0     H28007   6.794   5.751  11.992  2.5088  0.3524  1.1131
  203MOL0     H28008   6.663   5.948  11.954 -1.1745  0.5135 -3.2887
  203MOL0     H28009   6.783   6.017  11.843 -1.0701 -0.4058 -0.1058
  203MOL0     H28010   6.920   6.141  12.236  0.3915 -2.8035  1.7670
  203MOL0     H28011   7.230   5.449  11.657 -0.6424 -0.2822 -0.9931
  203MOL0     H28012   7.263   5.417  11.334  1.6655 -3.4818 -0.0258
  203MOL0     H28013   7.437   5.469  11.376 -0.9883  1.5129 -1.4648
  203MOL0     H28014   7.343   5.359  11.473 -0.7548  0.4463  1.4762
  204MOL0     O28015   5.361   8.897   1.717 -0.6981 -0.4316  0.0431
  204MOL0     C28016   5.438   8.999   1.745 -0.7539  0.3189  0.6071
  204MOL0     O28017   5.551   8.983   1.818 -0.3775  0.6472  0.3356
  204MOL0     C28018   5.566   8.865   1.898 -0.5806  1.3758  0.2933
  204MOL0     C28019   5.669   8.791   1.851  0.5218 -0.0063  0.9671
  204MOL0     C28020   5.699   8.666   1.900  0.1355 -0.2539 -0.4381
  204MOL0     C28021   5.625   8.611   2.009 -0.3362 -1.0218  0.5147
  204MOL0     O28022   5.662   8.490   2.060 -0.0443 -0.5306 -0.3430
  204MOL0     C28023   5.641   8.459   2.195  0.4428 -0.8044  0.0446
  204MOL0     C28024   5.718   8.338   2.242  0.3990  0.0191 -0.0104
  204MOL0     C28025   5.712   8.331   2.389  0.0691 -0.8867  0.2735
  204MOL0     C28026   5.784   8.199   2.437 -0.6242 -0.1050  0.5637
  204MOL0     C28027   5.778   8.202   2.592 -0.1651  0.0446 -0.0327
  204MOL0     C28028   5.887   8.102   2.633  0.2479  0.1686 -0.5311
  204MOL0     C28029   5.911   8.091   2.787  0.1120 -0.7423  0.8618
  204MOL0     C28030   6.021   8.184   2.819  0.5039  0.3337 -0.0438
  204MOL0     N28031   6.054   8.177   2.961 -0.0338  0.1309  0.1760
  204MOL0     C28032   6.016   8.259   3.064  0.1849  0.4091 -0.2863
  204MOL0     C28033   6.089   8.219   3.171  0.6595  0.5790  0.0633
  204MOL0     C28034   6.087   8.257   3.315  0.5200  0.2457  0.6498
  204MOL0     C28035   6.165   8.377   3.353  0.1147 -0.2598  0.2947
  204MOL0     C28036   6.142   8.420   3.493  0.0073 -0.5911 -0.4165
  204MOL0     C28037   6.201   8.313   3.605 -0.5548  0.6452  0.2463
  204MOL0     O28038   6.224   8.378   3.737  0.2686  0.0250  0.0846
  204MOL0     C28039   6.136   8.485   3.762  0.6695  0.0282  0.4812
  204MOL0     C28040   6.002   8.476   3.776 -0.7033 -0.0688  0.8131
  204MOL0     C28041   5.916   8.589   3.767 -0.2918  0.7366 -0.1010
  204MOL0     C28042   5.770   8.559   3.800  0.7485  0.3451 -0.1390
  204MOL0     C28043   5.971   8.724   3.751  0.3315  0.1456 -0.8308
  204MOL0     C28044   5.892   8.843   3.743 -0.4010  0.1099 -0.3381
  204MOL0     O28045   5.759   8.835   3.688 -0.3901 -0.3659  0.2140
  204MOL0     C28046   5.679   8.944   3.669 -0.5284 -0.4853  1.0410
  204MOL0     C28047   5.722   9.074   3.639  0.4166 -1.1425 -0.1229
  204MOL0     C28048   5.620   9.174   3.625  0.0445  0.5069 -0.9137
  204MOL0     C28049   5.480   9.144   3.620 -0.4637 -1.0169 -0.4161
  204MOL0     O28050   5.376   9.228   3.607  0.0951 -0.2138  0.0755
  204MOL0     C28051   5.393   9.366   3.628  0.4522 -0.3232 -0.1072
  204MOL0     C28052   5.291   9.436   3.543 -0.3007 -0.0945 -0.1607
  204MOL0     C28053   5.286   9.587   3.585 -0.3240  0.6800  0.6692
  204MOL0     C28054   5.284   9.668   3.453  0.5297 -0.3397 -0.1551
  204MOL0     C28055   5.271   9.819   3.503  0.6862 -0.8531  0.1076
  204MOL0     C28056   5.229   9.923   3.389 -0.8483  0.0167 -0.0386
  204MOL0     C28057   5.089   9.896   3.311 -0.3574  0.6772 -0.9287
  204MOL0     C28058   4.970   9.900   3.409 -0.3501  0.4107 -0.3529
  204MOL0    Cl28059   4.806   9.899   3.310  0.0234 -0.4020  0.1809
  204MOL0     C28060   5.451   9.009   3.652  0.8233 -0.5442  0.4309
  204MOL0     C28061   5.543   8.918   3.678 -0.9651  0.6662  0.7140
  204MOL0     O28062   5.939   8.941   3.787 -0.3843 -0.0713 -0.5496
  204MOL0     C28063   6.114   8.736   3.769 -0.0138  0.2272  0.8758
  204MOL0     C28064   6.189   8.614   3.776 -0.5027 -0.7037  0.1220
  204MOL0     N28065   6.169   8.118   3.127 -0.0266 -0.2160 -0.0366
  204MOL0     N28066   6.141   8.083   2.999 -0.1327  0.3130 -0.6705
  204MOL0     C28067   5.522   8.689   2.065 -0.8307 -0.3029 -0.1679
  204MOL0     C28068   5.498   8.816   2.006  0.5516 -0.4225  0.0046
  204MOL0     C28069   5.419   9.136   1.673  0.2366  0.6721  0.4804
  204MOL0     C28070   5.494   9.246   1.720 -0.1683 -0.5268 -0.2927
  204MOL0     C28071   5.477   9.382   1.673  0.0625  0.0419 -0.3550
  204MOL0     C28072   5.404   9.407   1.569 -1.1124 -0.9770 -0.1466
  204MOL0     O28073   5.393   9.542   1.533  0.4002  0.4393  0.0497
  204MOL0     C28074   5.339   9.569   1.395  0.8900  0.0838 -0.4939
  204MOL0     C28075   5.352   9.711   1.367  0.5552 -0.3503  0.3326
  204MOL0     C28076   5.278   9.799   1.462  0.6319 -0.1724 -0.3637
  204MOL0     C28077   5.126   9.761   1.479 -0.7551  1.0099  0.6620
  204MOL0     C28078   5.046   9.872   1.542  0.2116  0.0670  0.7524
  204MOL0     C28079   4.982   9.957   1.605  0.6871  0.4790  0.0393
  204MOL0     C28080   5.330   9.306   1.519  0.2797  0.7708 -0.2780
  204MOL0     C28081   5.338   9.165   1.566  0.0721 -0.3655  0.1849
  204MOL0     C28082   5.239   9.067   1.516  0.3368 -0.8716  1.3890
  204MOL0     H28083   5.717   8.830   1.761 -1.4521 -0.7072 -0.4648
  204MOL0     H28084   5.773   8.610   1.844  0.2178 -1.3202  0.7064
  204MOL0     H28085   5.534   8.440   2.206  0.9162 -2.0496  3.7059
  204MOL0     H28086   5.663   8.542   2.262 -3.1324 -0.6599  1.2427
  204MOL0     H28087   5.679   8.247   2.196  2.4209 -0.4947 -0.8159
  204MOL0     H28088   5.815   8.331   2.193  0.4326  1.2136 -0.1299
  204MOL0     H28089   5.750   8.422   2.437  1.5019 -1.7884  0.9152
  204MOL0     H28090   5.605   8.333   2.413  0.3189 -1.4104  1.4618
  204MOL0     H28091   5.742   8.107   2.396 -3.1435  1.6233 -0.9782
  204MOL0     H28092   5.888   8.204   2.402 -0.5423  2.5001  1.0041
  204MOL0     H28093   5.678   8.174   2.626 -0.3899  0.2867 -0.4957
  204MOL0     H28094   5.808   8.303   2.623 -0.5885  1.2632 -3.2381
  204MOL0     H28095   5.871   8.003   2.589  2.5019  0.6809 -2.7087
  204MOL0     H28096   5.980   8.143   2.592  0.2843 -0.2320 -0.8590
  204MOL0     H28097   5.945   7.993   2.822  0.9753 -0.1647  1.6831
  204MOL0     H28098   5.817   8.115   2.837 -2.8573 -0.2713 -4.2673
  204MOL0     H28099   6.112   8.181   2.759  0.2467  3.1980 -0.7255
  204MOL0     H28100   5.976   8.282   2.796 -0.3435 -0.3076 -1.2513
  204MOL0     H28101   5.934   8.330   3.060 -0.6270 -0.5300 -1.1051
  204MOL0     H28102   6.114   8.164   3.368 -0.0146  1.4989  3.2866
  204MOL0     H28103   5.982   8.271   3.340  0.0617 -1.5708 -0.0855
  204MOL0     H28104   6.271   8.358   3.333 -0.1313  0.5152 -2.0944
  204MOL0     H28105   6.139   8.455   3.280 -1.0981 -0.6137  0.3243
  204MOL0     H28106   6.187   8.519   3.501  0.4495 -0.9032  1.3027
  204MOL0     H28107   6.035   8.431   3.514 -0.2143 -0.3381 -1.5601
  204MOL0     H28108   6.122   8.238   3.616  0.0350 -0.7207 -3.4094
  204MOL0     H28109   6.297   8.275   3.570  0.2693  1.6873  1.2633
  204MOL0     H28110   5.954   8.379   3.779 -1.8186  0.4676  1.1044
  204MOL0     H28111   5.706   8.593   3.718 -0.1462  2.0496  1.2039
  204MOL0     H28112   5.747   8.599   3.899  3.0782  0.7032  0.3196
  204MOL0     H28113   5.741   8.454   3.794  2.7097 -0.2429  0.0298
  204MOL0     H28114   5.825   9.104   3.651  0.3344 -1.1801  0.7099
  204MOL0     H28115   5.657   9.276   3.621 -1.6610  1.3950  2.4001
  204MOL0     H28116   5.375   9.390   3.734 -0.2182 -0.6671 -0.1390
  204MOL0     H28117   5.493   9.391   3.591  0.5780 -0.0543  0.3928
  204MOL0     H28118   5.325   9.419   3.441  0.9407 -4.8905  0.8224
  204MOL0     H28119   5.190   9.396   3.559  0.4819 -2.2648 -0.3469
  204MOL0     H28120   5.372   9.614   3.647 -0.4191  0.0898  1.0714
  204MOL0     H28121   5.198   9.603   3.648 -0.0971 -0.8080  1.4026
  204MOL0     H28122   5.193   9.650   3.395 -0.8861 -1.3261  2.2124
  204MOL0     H28123   5.372   9.652   3.390  0.7011  3.1141 -1.0393
  204MOL0     H28124   5.194   9.826   3.580 -0.4926  0.6302 -1.1510
  204MOL0     H28125   5.366   9.847   3.548  0.8190  0.6517 -1.0223
  204MOL0     H28126   5.311   9.935   3.318 -0.1091 -1.7232  0.4618
  204MOL0     H28127   5.228  10.022   3.435  2.3227  1.1005 -1.9191
  204MOL0     H28128   5.103   9.808   3.248  1.7483  0.6673 -0.5064
  204MOL0     H28129   5.090   9.970   3.230  1.7580 -0.4796 -2.0472
  204MOL0     H28130   4.990   9.996   3.458  0.1342 -0.3590  1.0137
  204MOL0     H28131   4.965   9.810   3.472 -0.2344  1.4681  1.2260
  204MOL0     H28132   5.347   8.980   3.666  0.8991 -2.6088 -2.3866
  204MOL0     H28133   5.508   8.822   3.714  0.8270 -0.5097 -0.4869
  204MOL0     H28134   6.171   8.828   3.773  0.9726 -0.1454 -2.0756
  204MOL0     H28135   6.295   8.620   3.796 -0.6051  3.8837  0.2123
  204MOL0     H28136   5.457   8.654   2.145 -2.0874  0.8608 -0.6433
  204MOL0     H28137   5.411   8.867   2.047 -0.2876  0.4380 -2.6466
  204MOL0     H28138   5.542   9.240   1.818 -1.1740  1.8672  0.4166
  204MOL0     H28139   5.528   9.463   1.725  0.5628  0.2063 -1.0904
  204MOL0     H28140   5.390   9.502   1.325 -0.6040 -1.9595  0.2629
  204MOL0     H28141   5.233   9.544   1.385  0.6546  1.3638 -1.5153
  204MOL0     H28142   5.302   9.726   1.271  1.3551 -2.1565 -0.4189
  204MOL0     H28143   5.455   9.746   1.351 -0.4910  3.4401  0.9896
  204MOL0     H28144   5.328   9.811   1.558 -1.8166  0.6370  0.8929
  204MOL0     H28145   5.283   9.899   1.418  1.1127 -0.9040 -2.0756
  204MOL0     H28146   5.128   9.668   1.535 -0.7491 -0.1888 -1.2420
  204MOL0     H28147   5.085   9.734   1.381 -0.6690  2.0943  0.3130
  204MOL0     H28148   4.913  10.017   1.660  0.6211 -2.1032  3.0509
  204MOL0     H28149   5.256   9.325   1.443 -1.9644  0.7469  1.7743
  204MOL0     H28150   5.166   9.112   1.448 -0.1647 -4.0915 -0.4167
  204MOL0     H28151   5.280   8.980   1.464 -0.0115  0.3321 -1.0770
  204MOL0     H28152   5.173   9.037   1.598 -0.7284  2.5456  1.9530
  205MOL0     O28153   0.880   1.191  10.401  0.0394 -0.4937  0.1929
  205MOL0     C28154   0.985   1.229  10.454 -0.2835  0.2629 -0.9338
  205MOL0     O28155   1.098   1.274  10.388  0.2503 -1.0035  0.0663
  205MOL0     C28156   1.119   1.224  10.263  0.4877  0.1309 -0.1480
  205MOL0     C28157   1.153   1.316  10.158  0.0706 -0.0752 -1.1335
  205MOL0     C28158   1.186   1.281  10.032 -0.2642  0.1433 -0.1555
  205MOL0     C28159   1.182   1.140  10.015 -0.6336  0.7694  0.1298
  205MOL0     O28160   1.217   1.080   9.896 -0.1651 -0.4207  1.0235
  205MOL0     C28161   1.280   1.162   9.796  0.0654  0.5275 -1.4100
  205MOL0     C28162   1.423   1.166   9.825 -0.0531 -0.5003 -0.2006
  205MOL0     C28163   1.507   1.233   9.711 -0.0193  0.6310 -0.0315
  205MOL0     C28164   1.651   1.258   9.762 -0.1238  0.0383  0.4613
  205MOL0     C28165   1.734   1.345   9.670 -0.1713 -0.0146  0.8915
  205MOL0     C28166   1.886   1.334   9.721  0.6438 -0.3126  0.8135
  205MOL0     C28167   1.917   1.372   9.872 -0.3546  0.1498  0.1569
  205MOL0     C28168   1.997   1.508   9.894  0.1117 -0.2008  0.5755
  205MOL0     N28169   2.067   1.491  10.024 -0.8743 -0.5660  1.4291
  205MOL0     C28170   2.196   1.462  10.039 -0.7056  1.7601 -0.6958
  205MOL0     C28171   2.218   1.452  10.172 -0.3636  0.0058  0.5621
  205MOL0     C28172   2.350   1.396  10.229 -0.5470  0.5925 -0.0529
  205MOL0     C28173   2.388   1.453  10.369  0.0836  1.2090 -0.4791
  205MOL0     C28174   2.394   1.609  10.371  0.4185 -0.0658 -0.0181
  205MOL0     C28175   2.475   1.679  10.270 -0.4744  1.3842 -0.4670
  205MOL0     O28176   2.601   1.607  10.250  0.6725 -0.0154  0.3724
  205MOL0     C28177   2.704   1.641  10.338 -0.5413 -0.3662  0.3904
  205MOL0     C28178   2.828   1.584  10.311  0.1219  0.4254 -0.1114
  205MOL0     C28179   2.941   1.599  10.391  1.0523  0.1296 -0.4648
  205MOL0     C28180   3.072   1.545  10.363 -0.9640 -0.3277  0.6624
  205MOL0     C28181   2.927   1.687  10.501 -0.1916  0.2582  0.0283
  205MOL0     C28182   3.035   1.712  10.589 -0.4585  0.7758 -0.8393
  205MOL0     O28183   3.100   1.607  10.643 -0.8217  0.3642 -0.4221
  205MOL0     C28184   3.216   1.631  10.712 -1.0419 -0.2854 -0.1388
  205MOL0     C28185   3.211   1.673  10.845 -0.2196 -0.4591  0.0671
  205MOL0     C28186   3.328   1.694  10.916  0.6247 -0.3557 -0.2849
  205MOL0     C28187   3.450   1.689  10.857  0.2556 -0.9335  0.4878
  205MOL0     O28188   3.568   1.708  10.923 -0.1385 -0.3964  0.0832
  205MOL0     C28189   3.576   1.769  11.060  0.1794 -0.0492 -0.5206
  205MOL0     C28190   3.721   1.790  11.098 -0.4566  0.6340  0.2042
  205MOL0     C28191   3.725   1.827  11.246 -0.0303  0.3950  0.6229
  205MOL0     C28192   3.863   1.866  11.295  1.2751  0.5482  0.6378
  205MOL0     C28193   3.970   1.763  11.264 -0.7650  0.4899 -0.7824
  205MOL0     C28194   4.104   1.784  11.343  0.0905  0.1827 -0.5130
  205MOL0     C28195   4.224   1.687  11.307 -0.0272 -0.5610  0.3956
  205MOL0     C28196   4.210   1.551  11.377 -0.5683 -0.3018 -0.2219
  205MOL0    Cl28197   4.342   1.451  11.318  0.0181 -0.0247 -0.3267
  205MOL0     C28198   3.457   1.653  10.730  0.5862 -0.0491  0.6012
  205MOL0     C28199   3.340   1.621  10.657  0.0069  0.1365 -0.2675
  205MOL0     O28200   3.054   1.829  10.615 -0.3784 -0.0023 -0.1580
  205MOL0     C28201   2.802   1.749  10.528  0.4573  1.0739  0.6606
  205MOL0     C28202   2.683   1.720  10.450 -0.7170  0.1570 -0.1801
  205MOL0     N28203   2.099   1.486  10.235 -0.0224 -0.9340 -0.0232
  205MOL0     N28204   2.005   1.493  10.149  0.7287  1.2543 -0.1843
  205MOL0     C28205   1.154   1.049  10.115 -1.0514  0.3424  0.0255
  205MOL0     C28206   1.119   1.093  10.241 -0.5026  1.2402 -0.9607
  205MOL0     C28207   0.991   1.226  10.601  0.8963  0.0015 -1.0790
  205MOL0     C28208   1.116   1.252  10.667  1.2178  0.1411  0.5441
  205MOL0     C28209   1.139   1.240  10.802  0.2042 -1.1485  0.5766
  205MOL0     C28210   1.025   1.225  10.880 -0.9304 -0.4373 -0.4986
  205MOL0     O28211   1.028   1.229  11.017  0.6033  0.6283  0.8379
  205MOL0     C28212   1.152   1.262  11.081  0.2229  0.1268 -0.0273
  205MOL0     C28213   1.120   1.314  11.221  0.4474  0.7174 -0.7150
  205MOL0     C28214   1.246   1.370  11.287 -0.0468  0.2786  1.2703
  205MOL0     C28215   1.228   1.394  11.441 -0.8346 -0.9853 -0.5867
  205MOL0     C28216   1.121   1.498  11.459 -0.4645  0.7364 -0.2617
  205MOL0     C28217   1.020   1.562  11.473 -0.0600  0.8025  0.0761
  205MOL0     C28218   0.899   1.224  10.828  0.3220 -1.2402  0.2914
  205MOL0     C28219   0.875   1.211  10.691  1.0219 -0.5369 -0.7748
  205MOL0     C28220   0.730   1.175  10.650  0.1805 -0.5490 -0.4171
  205MOL0     H28221   1.158   1.422  10.181  0.9982 -0.2329 -0.5340
  205MOL0     H28222   1.216   1.356   9.960 -2.4056 -2.3331 -3.9950
  205MOL0     H28223   1.242   1.264   9.782 -0.4243  0.5842  0.1462
  205MOL0     H28224   1.268   1.115   9.697 -1.5053 -0.1407 -0.9254
  205MOL0     H28225   1.445   1.210   9.923 -1.3474 -0.0890 -0.0671
  205MOL0     H28226   1.468   1.067   9.833  1.3073  0.0092 -1.1461
  205MOL0     H28227   1.509   1.175   9.618  0.6667 -1.4503  1.2330
  205MOL0     H28228   1.457   1.328   9.688  1.1435  0.6666 -2.7395
  205MOL0     H28229   1.644   1.305   9.861 -2.4800  0.4781  0.1527
  205MOL0     H28230   1.703   1.162   9.763  0.3459  0.2654 -0.9015
  205MOL0     H28231   1.693   1.446   9.678 -3.0150 -0.9004 -1.0993
  205MOL0     H28232   1.732   1.308   9.567  0.9514 -2.4822  1.6769
  205MOL0     H28233   1.902   1.226   9.714 -0.3445 -0.3691 -1.4425
  205MOL0     H28234   1.945   1.395   9.653 -1.2413 -1.0601 -1.6232
  205MOL0     H28235   1.982   1.290   9.906 -0.5585  0.0385  0.2795
  205MOL0     H28236   1.831   1.370   9.939 -3.1145  1.7995 -3.0541
  205MOL0     H28237   2.059   1.526   9.806 -0.8197  0.2376 -0.0005
  205MOL0     H28238   1.923   1.588   9.899  0.8241  0.7039 -1.8298
  205MOL0     H28239   2.273   1.429   9.969  0.6910  2.7249  0.3230
  205MOL0     H28240   2.430   1.408  10.155  0.6797 -2.1943  0.6792
  205MOL0     H28241   2.333   1.288  10.234 -3.2124  0.8714 -1.4149
  205MOL0     H28242   2.323   1.416  10.449  0.0267 -0.4947 -1.2503
  205MOL0     H28243   2.487   1.409  10.385 -1.2760 -1.6972  0.6727
  205MOL0     H28244   2.288   1.637  10.362  0.6599  0.6833 -0.6428
  205MOL0     H28245   2.419   1.644  10.471  0.3550 -0.1180  0.0164
  205MOL0     H28246   2.425   1.678  10.173  1.0283  1.2391 -1.2623
  205MOL0     H28247   2.486   1.784  10.299 -2.3369  0.8759  2.5538
  205MOL0     H28248   2.829   1.504  10.239 -3.1209 -1.3076  1.5406
  205MOL0     H28249   3.066   1.514  10.258  0.5369  1.9937 -0.1817
  205MOL0     H28250   3.089   1.460  10.430 -1.9721 -0.1242  1.1921
  205MOL0     H28251   3.138   1.631  10.376 -0.1162 -0.5465 -1.6732
  205MOL0     H28252   3.112   1.689  10.887 -0.8960 -1.5368 -1.0154
  205MOL0     H28253   3.311   1.726  11.018  0.9040  0.9680 -0.6447
  205MOL0     H28254   3.516   1.861  11.059 -0.7861 -0.6391 -2.2023
  205MOL0     H28255   3.530   1.695  11.126  0.8253 -0.1712 -0.1979
  205MOL0     H28256   3.779   1.700  11.075 -3.2299 -1.0551 -0.6808
  205MOL0     H28257   3.764   1.868  11.035  1.1137 -0.8862 -0.6946
  205MOL0     H28258   3.665   1.754  11.303 -1.5216 -1.3975 -2.9105
  205MOL0     H28259   3.670   1.921  11.252 -0.5142  0.1127  0.7284
  205MOL0     H28260   3.849   1.882  11.403  1.1477 -0.2027  0.7406
  205MOL0     H28261   3.879   1.966  11.254 -0.2303 -0.3664 -2.4700
  205MOL0     H28262   3.938   1.659  11.279  3.0932 -0.5091  2.2563
  205MOL0     H28263   3.989   1.779  11.158  1.8414  3.0157 -0.0600
  205MOL0     H28264   4.078   1.776  11.449  0.7613 -0.7933 -0.4043
  205MOL0     H28265   4.129   1.887  11.315  0.5695 -0.5277 -2.9245
  205MOL0     H28266   4.315   1.734  11.347 -0.2319  1.5938 -1.4717
  205MOL0     H28267   4.226   1.677  11.198 -3.4133 -2.2210  0.3566
  205MOL0     H28268   4.114   1.514  11.339  0.1055 -4.5715  1.6975
  205MOL0     H28269   4.198   1.562  11.485  0.1832  1.9712 -0.2975
  205MOL0     H28270   3.557   1.650  10.687 -0.5174 -1.6347 -2.1149
  205MOL0     H28271   3.348   1.608  10.550  0.1788 -0.2971 -0.2042
  205MOL0     H28272   2.802   1.820  10.610  1.0328 -0.0003  1.6181
  205MOL0     H28273   2.596   1.777  10.477  0.0292  0.6659  1.2381
  205MOL0     H28274   1.138   0.944  10.089  0.4470  0.5382 -1.9214
  205MOL0     H28275   1.087   1.019  10.314  0.5879  1.8461  0.1636
  205MOL0     H28276   1.207   1.263  10.609  1.8700 -0.4009  1.4325
  205MOL0     H28277   1.242   1.248  10.834 -0.2055  0.2761  1.6838
  205MOL0     H28278   1.210   1.169  11.074 -0.3908 -0.3495  0.9251
  205MOL0     H28279   1.207   1.345  11.038  0.1672  1.2755  1.9840
  205MOL0     H28280   1.082   1.231  11.281 -0.4494  0.8499 -1.0808
  205MOL0     H28281   1.035   1.382  11.209 -1.2096 -1.6441 -4.0230
  205MOL0     H28282   1.318   1.289  11.275  0.7496  1.3083 -1.7272
  205MOL0     H28283   1.278   1.461  11.236  1.3131 -0.4180  0.8415
  205MOL0     H28284   1.322   1.427  11.486 -1.5973  0.2397  0.1600
  205MOL0     H28285   1.183   1.302  11.478 -2.9265  0.0256 -0.4954
  205MOL0     H28286   0.929   1.613  11.498 -0.5023 -1.2085  3.0255
  205MOL0     H28287   0.816   1.211  10.898 -1.1667 -0.8372 -1.3308
  205MOL0     H28288   0.695   1.242  10.572  0.7595  1.2712  0.8243
  205MOL0     H28289   0.730   1.069  10.622  2.8716 -0.4088 -1.3022
  205MOL0     H28290   0.661   1.203  10.730  0.7599  1.8319 -0.6747
  206MOL0     O28291   1.733   7.595   6.878 -0.1458 -0.2055 -0.4105
  206MOL0     C28292   1.777   7.524   6.786 -0.5043 -0.0280 -0.4593
  206MOL0     O28293   1.859   7.420   6.804 -0.3204 -0.8765  0.1385
  206MOL0     C28294   1.939   7.410   6.919 -0.4181  0.2578  0.3308
  206MOL0     C28295   2.059   7.483   6.916  0.1892 -0.4164 -0.7517
  206MOL0     C28296   2.134   7.500   7.038 -0.4109  0.3921  0.2822
  206MOL0     C28297   2.088   7.449   7.160 -1.2312  0.3538  0.0853
  206MOL0     O28298   2.156   7.453   7.280 -0.6825 -0.0662  0.0346
  206MOL0     C28299   2.274   7.532   7.283 -0.0557 -0.1854  0.2793
  206MOL0     C28300   2.342   7.520   7.418 -0.0873  0.1421 -0.2447
  206MOL0     C28301   2.377   7.377   7.439 -1.1679 -0.1736 -0.3581
  206MOL0     C28302   2.528   7.358   7.497  0.1003 -0.4886  1.3014
  206MOL0     C28303   2.553   7.212   7.532 -0.0648  0.0583 -0.4127
  206MOL0     C28304   2.707   7.173   7.535  0.9151 -0.1567  0.3267
  206MOL0     C28305   2.743   7.028   7.579 -0.2330 -0.8424 -0.5391
  206MOL0     C28306   2.687   6.920   7.483  0.2638 -0.2153  0.0767
  206MOL0     N28307   2.764   6.906   7.352  0.6857  0.5473 -1.1444
  206MOL0     C28308   2.851   6.805   7.318 -0.2732  1.3928  0.0726
  206MOL0     C28309   2.880   6.831   7.190 -0.7296  0.3796  0.6180
  206MOL0     C28310   2.970   6.744   7.100  0.0701 -0.1177  0.6463
  206MOL0     C28311   2.914   6.608   7.057 -0.0752 -0.1771  0.4762
  206MOL0     C28312   2.953   6.497   7.159  0.3114 -0.8226  0.2031
  206MOL0     C28313   2.933   6.361   7.112  1.2063 -0.1210 -1.1158
  206MOL0     O28314   2.785   6.319   7.120 -1.1198 -0.3618  0.5723
  206MOL0     C28315   2.739   6.257   7.238  0.3987 -0.3149 -0.5291
  206MOL0     C28316   2.812   6.246   7.359 -0.5345  0.0535 -0.4960
  206MOL0     C28317   2.754   6.182   7.469  0.4767 -0.0699 -0.0582
  206MOL0     C28318   2.838   6.172   7.588 -0.2220 -0.2049 -0.0272
  206MOL0     C28319   2.623   6.134   7.462  0.1476 -0.3674 -0.3112
  206MOL0     C28320   2.551   6.081   7.583  0.0488 -0.5332 -0.3521
  206MOL0     O28321   2.468   5.975   7.561 -0.3830 -0.3376 -0.5792
  206MOL0     C28322   2.395   5.931   7.660 -0.6477  0.2439 -1.4242
  206MOL0     C28323   2.436   5.803   7.717  0.1209 -0.4005  0.9824
  206MOL0     C28324   2.362   5.737   7.809 -0.2985 -0.2497 -0.2189
  206MOL0     C28325   2.247   5.798   7.849  0.7377 -0.1706  0.0047
  206MOL0     O28326   2.187   5.717   7.944  0.2607 -0.2345 -0.0024
  206MOL0     C28327   2.048   5.701   7.979  0.1436  0.6612  0.0934
  206MOL0     C28328   1.967   5.636   7.866  0.1400  0.3389 -0.4018
  206MOL0     C28329   1.819   5.605   7.912 -0.7583  0.1320  0.6060
  206MOL0     C28330   1.726   5.568   7.799 -0.4574 -0.4163  0.0450
  206MOL0     C28331   1.764   5.434   7.735  0.5361 -0.8159  0.3729
  206MOL0     C28332   1.682   5.393   7.607  0.5947 -0.4972  0.2449
  206MOL0     C28333   1.699   5.482   7.485  0.9409  0.4947  0.4712
  206MOL0     C28334   1.590   5.588   7.470 -0.1130  0.2956  0.5056
  206MOL0    Cl28335   1.466   5.535   7.345 -0.0221  0.0628 -0.0663
  206MOL0     C28336   2.193   5.908   7.785 -0.0282  0.4745  0.3356
  206MOL0     C28337   2.262   5.972   7.685  0.0692 -0.2466  0.5163
  206MOL0     O28338   2.569   6.146   7.682  0.4826 -0.3484  0.1507
  206MOL0     C28339   2.555   6.135   7.337  1.6347 -0.5987  0.0339
  206MOL0     C28340   2.613   6.203   7.233  0.2917  0.1523  0.0932
  206MOL0     N28341   2.800   6.932   7.143  0.4936  0.0204 -0.4610
  206MOL0     N28342   2.733   6.964   7.239 -0.2754 -0.5471  0.6237
  206MOL0     C28343   1.968   7.373   7.151 -1.5672  0.5675 -0.3746
  206MOL0     C28344   1.892   7.366   7.040 -0.4692  1.1639  0.9706
  206MOL0     C28345   1.745   7.558   6.648  0.5132  0.4723 -0.3494
  206MOL0     C28346   1.613   7.616   6.633  0.9423  0.0534 -0.1162
  206MOL0     C28347   1.567   7.643   6.500  0.0419  0.1859  0.0762
  206MOL0     C28348   1.636   7.605   6.389  0.5326  0.5282 -0.6400
  206MOL0     O28349   1.604   7.636   6.258 -0.7502  0.2828 -0.0467
  206MOL0     C28350   1.493   7.726   6.221 -1.3478  0.3082 -1.2216
  206MOL0     C28351   1.523   7.794   6.089  0.4167 -1.1467  0.1309
  206MOL0     C28352   1.520   7.707   5.966 -0.7179 -0.4363 -0.8209
  206MOL0     C28353   1.379   7.658   5.933 -0.5513  0.0995  0.2513
  206MOL0     C28354   1.380   7.610   5.796 -0.1761  0.1703 -0.9099
  206MOL0     C28355   1.390   7.558   5.685 -0.5920  1.0518 -0.7372
  206MOL0     C28356   1.764   7.543   6.404  0.1872 -0.2282 -0.5326
  206MOL0     C28357   1.818   7.526   6.530 -0.2711 -0.0235 -0.2966
  206MOL0     C28358   1.964   7.479   6.523 -0.4074 -0.7310 -0.1734
  206MOL0     H28359   2.105   7.523   6.826  2.7644 -2.3104 -0.3849
  206MOL0     H28360   2.230   7.551   7.037  1.8682 -3.5025 -1.1814
  206MOL0     H28361   2.246   7.638   7.278  0.4621 -0.0130  1.0010
  206MOL0     H28362   2.346   7.503   7.207  0.9979 -2.9075  2.1751
  206MOL0     H28363   2.428   7.587   7.410  1.4504 -1.7057  0.1547
  206MOL0     H28364   2.266   7.559   7.488  0.6731 -1.2504  1.4349
  206MOL0     H28365   2.306   7.321   7.500  0.0059 -0.6446  0.6058
  206MOL0     H28366   2.383   7.335   7.338 -0.1012 -0.7589 -0.0713
  206MOL0     H28367   2.591   7.390   7.413 -2.1061 -0.3456 -0.4021
  206MOL0     H28368   2.541   7.411   7.592 -2.2988  0.0383  1.3921
  206MOL0     H28369   2.496   7.151   7.461 -1.6521 -0.3483  1.1391
  206MOL0     H28370   2.532   7.182   7.635 -1.0232 -2.5520 -1.2789
  206MOL0     H28371   2.757   7.181   7.438  2.2335 -1.3354  0.8795
  206MOL0     H28372   2.758   7.242   7.603 -0.2625  0.7393  0.3258
  206MOL0     H28373   2.722   7.027   7.687  1.1320  0.5054 -0.2186
  206MOL0     H28374   2.852   7.022   7.568 -0.1836  2.4862 -4.0860
  206MOL0     H28375   2.688   6.824   7.534 -0.1259  0.3427  1.1637
  206MOL0     H28376   2.579   6.936   7.472  0.2091 -0.7803 -0.2169
  206MOL0     H28377   2.881   6.724   7.383  0.2918  1.7096  0.2130
  206MOL0     H28378   3.068   6.730   7.146  2.2145  0.4577 -3.2830
  206MOL0     H28379   2.980   6.816   7.018 -1.4855 -0.3029  0.2563
  206MOL0     H28380   2.804   6.607   7.051 -0.2955  1.2597  3.0719
  206MOL0     H28381   2.963   6.574   6.965  0.4447 -5.0059  2.2581
  206MOL0     H28382   3.062   6.488   7.170  0.2200 -3.4363 -0.4212
  206MOL0     H28383   2.908   6.529   7.254 -2.3445  1.3378 -1.6242
  206MOL0     H28384   2.965   6.345   7.008 -1.5341  0.2270 -2.1162
  206MOL0     H28385   2.985   6.294   7.181 -1.4208  2.4631  3.8741
  206MOL0     H28386   2.911   6.282   7.382  0.4051 -2.9142  0.5199
  206MOL0     H28387   2.832   6.266   7.643 -0.5525  0.0195 -0.4448
  206MOL0     H28388   2.944   6.160   7.564  0.0934  0.5524  0.9348
  206MOL0     H28389   2.800   6.093   7.654 -4.8282  0.4403 -1.5949
  206MOL0     H28390   2.529   5.758   7.685  0.5442 -0.6663  2.4984
  206MOL0     H28391   2.412   5.656   7.862  1.7990  1.2545  0.2409
  206MOL0     H28392   2.053   5.629   8.061  1.9905  1.6821  0.9492
  206MOL0     H28393   2.010   5.798   8.013  1.0496  0.0297  3.1775
  206MOL0     H28394   1.949   5.713   7.791 -1.6720  1.5561  1.1924
  206MOL0     H28395   2.013   5.545   7.825  1.0245  0.8571 -0.5922
  206MOL0     H28396   1.790   5.700   7.959  3.1890  1.7020  0.2216
  206MOL0     H28397   1.817   5.517   7.978  0.8797 -0.9135 -0.6699
  206MOL0     H28398   1.727   5.645   7.722  0.2117  0.9570  1.3879
  206MOL0     H28399   1.624   5.556   7.839 -1.3255 -0.2891 -2.0239
  206MOL0     H28400   1.864   5.454   7.696 -0.8256 -0.0659 -3.1746
  206MOL0     H28401   1.759   5.351   7.806 -0.0188 -0.8050  0.3498
  206MOL0     H28402   1.574   5.393   7.626  0.0074  1.8641 -2.4053
  206MOL0     H28403   1.711   5.290   7.584 -0.9258 -0.3700 -2.7831
  206MOL0     H28404   1.705   5.421   7.395 -1.2342 -0.1154  0.6865
  206MOL0     H28405   1.795   5.534   7.496  0.3019  1.4346  2.0578
  206MOL0     H28406   1.641   5.670   7.418 -0.2858 -0.6417 -1.2265
  206MOL0     H28407   1.544   5.635   7.558 -0.2137  3.1394 -0.9250
  206MOL0     H28408   2.094   5.946   7.810 -1.1856 -1.0472 -1.6293
  206MOL0     H28409   2.222   6.036   7.607 -0.9560 -4.1428 -2.4746
  206MOL0     H28410   2.452   6.102   7.331  1.4568 -0.0703  0.1923
  206MOL0     H28411   2.561   6.224   7.140  1.9818  0.3431 -0.8533
  206MOL0     H28412   1.936   7.315   7.237  4.0979  2.4222  3.5724
  206MOL0     H28413   1.786   7.351   7.052 -1.1214  2.7037 -1.9142
  206MOL0     H28414   1.554   7.639   6.721  1.2369 -2.4257  0.8077
  206MOL0     H28415   1.469   7.688   6.488  0.8578  1.2170 -4.1082
  206MOL0     H28416   1.401   7.667   6.219 -0.9700 -0.3196 -0.4453
  206MOL0     H28417   1.487   7.800   6.301  0.8301 -1.7484  0.9805
  206MOL0     H28418   1.621   7.843   6.093 -0.7400  1.2844  0.6926
  206MOL0     H28419   1.453   7.878   6.089 -0.6907 -1.9427  3.2300
  206MOL0     H28420   1.562   7.767   5.885 -1.6385  0.1954 -0.8417
  206MOL0     H28421   1.578   7.618   5.993 -0.5502  0.5054  2.3322
  206MOL0     H28422   1.311   7.744   5.929  0.8681  1.3542 -5.4914
  206MOL0     H28423   1.343   7.580   6.000 -0.1853  1.6189  2.3270
  206MOL0     H28424   1.399   7.510   5.590  0.2557  0.7185 -0.5059
  206MOL0     H28425   1.815   7.520   6.311  0.4211  1.9490 -0.9950
  206MOL0     H28426   1.970   7.376   6.487  2.2106 -0.7985  0.2235
  206MOL0     H28427   2.011   7.536   6.443  1.9409 -1.7812  0.3629
  206MOL0     H28428   2.029   7.493   6.610 -1.2192 -2.5855  0.7942
  207MOL0     O28429   6.861   9.773   3.335  0.1988 -0.2738 -0.4859
  207MOL0     C28430   6.914   9.765   3.227  0.5732 -0.5214 -0.6885
  207MOL0     O28431   6.858   9.700   3.120  0.4611 -0.6416  0.2020
  207MOL0     C28432   6.732   9.651   3.129 -1.5468 -0.1879 -0.2638
  207MOL0     C28433   6.628   9.737   3.154 -0.0463 -0.2580  0.6659
  207MOL0     C28434   6.499   9.693   3.162 -0.3403 -0.7734 -0.5556
  207MOL0     C28435   6.471   9.566   3.151 -1.0008  0.2092  0.7778
  207MOL0     O28436   6.339   9.518   3.150 -0.7565  0.0619  0.0129
  207MOL0     C28437   6.307   9.373   3.140 -0.9977 -1.0899  0.5032
  207MOL0     C28438   6.173   9.373   3.074 -0.3005 -0.0525  0.2608
  207MOL0     C28439   6.135   9.229   3.021  0.2479  0.5132  0.1229
  207MOL0     C28440   5.987   9.210   2.972 -0.2438  0.0910 -0.1422
  207MOL0     C28441   5.943   9.294   2.846  0.6649  0.3006  0.1101
  207MOL0     C28442   5.791   9.278   2.834 -0.1596 -0.0819  0.8583
  207MOL0     C28443   5.746   9.325   2.689  0.6003 -0.0266  0.2173
  207MOL0     C28444   5.719   9.480   2.676  0.0043  0.0982  0.6895
  207MOL0     N28445   5.667   9.510   2.536 -0.2294 -0.2934  0.2660
  207MOL0     C28446   5.608   9.419   2.442  0.3985  0.3896  0.4378
  207MOL0     C28447   5.609   9.494   2.329  0.3403  1.3159  0.2351
  207MOL0     C28448   5.524   9.466   2.205 -0.1812  0.9195  0.9976
  207MOL0     C28449   5.587   9.338   2.118  0.5439 -0.3349 -0.3694
  207MOL0     C28450   5.508   9.207   2.141 -0.7336 -0.4366  0.0036
  207MOL0     C28451   5.604   9.126   2.223  0.6215 -0.0844 -0.2008
  207MOL0     O28452   5.536   9.007   2.265  0.8962 -0.0812  0.1423
  207MOL0     C28453   5.580   8.929   2.361  1.1501  0.4909 -0.2883
  207MOL0     C28454   5.695   8.937   2.437  0.2961 -0.4339 -0.2286
  207MOL0     C28455   5.743   8.833   2.524 -0.0898  0.3399  0.1159
  207MOL0     C28456   5.862   8.862   2.613  0.1649  1.0118  0.4653
  207MOL0     C28457   5.675   8.718   2.534  1.1312  0.9607  0.1345
  207MOL0     C28458   5.712   8.604   2.626  0.7390  0.6073 -0.1255
  207MOL0     O28459   5.607   8.524   2.659 -0.2983  0.4840  0.6356
  207MOL0     C28460   5.611   8.449   2.777  0.6335 -0.0485  0.0128
  207MOL0     C28461   5.684   8.477   2.888  0.3977 -0.4425  0.7062
  207MOL0     C28462   5.661   8.398   3.009  0.0568 -0.1117 -0.3852
  207MOL0     C28463   5.559   8.306   3.011  0.4039 -0.8170  0.5573
  207MOL0     O28464   5.552   8.207   3.105  1.2026  0.4336  0.4098
  207MOL0     C28465   5.481   8.246   3.230  0.5717  0.2890  0.4008
  207MOL0     C28466   5.525   8.158   3.334 -0.0172 -0.4953 -0.5091
  207MOL0     C28467   5.673   8.176   3.364 -0.8013 -0.0998  0.4332
  207MOL0     C28468   5.748   8.090   3.464 -0.0253  1.5103 -0.3850
  207MOL0     C28469   5.732   8.141   3.604 -0.5734 -0.2181  0.1655
  207MOL0     C28470   5.828   8.071   3.706 -0.3981 -0.3276 -0.1510
  207MOL0     C28471   5.782   8.091   3.851 -0.4495 -0.0893  0.6284
  207MOL0     C28472   5.826   7.967   3.938 -0.1324  0.2441 -1.0451
  207MOL0    Cl28473   5.809   8.009   4.110  0.1636 -0.9697  0.1117
  207MOL0     C28474   5.478   8.286   2.898  0.9226  0.9935 -0.8345
  207MOL0     C28475   5.500   8.363   2.782  0.6295 -0.6292 -0.5573
  207MOL0     O28476   5.827   8.584   2.660 -0.1866  0.5835  0.4637
  207MOL0     C28477   5.557   8.706   2.453 -0.3292  0.1348 -0.4447
  207MOL0     C28478   5.515   8.811   2.370  0.0279  0.3311  0.1713
  207MOL0     N28479   5.652   9.617   2.357  0.2401 -0.6889  0.8897
  207MOL0     N28480   5.691   9.629   2.481 -0.3013  0.0791  0.6091
  207MOL0     C28481   6.585   9.477   3.136  0.1261 -0.2140  0.3240
  207MOL0     C28482   6.719   9.516   3.121  0.0327  0.0786  0.1546
  207MOL0     C28483   7.049   9.819   3.223 -0.2844  0.1302  0.1761
  207MOL0     C28484   7.133   9.766   3.322 -0.0219 -0.9779 -0.8498
  207MOL0     C28485   7.262   9.791   3.328  0.3347  1.0266 -0.7611
  207MOL0     C28486   7.316   9.865   3.228  0.0324 -0.0865 -0.0030
  207MOL0     O28487   7.455   9.892   3.244  0.6237 -0.1845  0.2894
  207MOL0     C28488   7.525   9.946   3.134 -0.1390 -0.0783  0.1991
  207MOL0     C28489   7.666   9.983   3.164 -0.0962 -0.3221 -0.2293
  207MOL0     C28490   7.754   9.865   3.208 -0.9530 -0.2388 -0.0458
  207MOL0     C28491   7.909   9.908   3.208  0.5015 -0.0212 -0.3015
  207MOL0     C28492   7.978   9.794   3.263 -0.2407 -0.0442 -0.8809
  207MOL0     C28493   8.033   9.696   3.314 -0.1830 -0.4544 -0.1769
  207MOL0     C28494   7.243   9.940   3.134  0.2446 -0.0176  0.4857
  207MOL0     C28495   7.106   9.905   3.123  0.1261 -0.0328 -0.4078
  207MOL0     C28496   7.031   9.972   3.013  0.0453 -0.7301 -0.7576
  207MOL0     H28497   6.630   9.844   3.172 -3.8200 -0.2827  2.0990
  207MOL0     H28498   6.414   9.760   3.172  0.9460  0.9646 -0.9776
  207MOL0     H28499   6.296   9.317   3.233  0.6941 -0.8487  0.8786
  207MOL0     H28500   6.369   9.316   3.070 -0.5691 -1.5990  1.2859
  207MOL0     H28501   6.099   9.404   3.149 -0.3256 -3.0319  1.6219
  207MOL0     H28502   6.183   9.427   2.980  2.3773 -3.2948 -1.5206
  207MOL0     H28503   6.209   9.222   2.940  0.8558  3.7747  0.2645
  207MOL0     H28504   6.142   9.148   3.094 -3.0060  0.2822  0.3119
  207MOL0     H28505   5.981   9.103   2.955 -2.3454 -0.2422  2.1786
  207MOL0     H28506   5.921   9.240   3.054 -0.7260  1.7189 -1.0748
  207MOL0     H28507   5.998   9.256   2.760 -1.2986 -0.7936 -0.7212
  207MOL0     H28508   5.972   9.399   2.861  1.3005 -0.2082  3.2896
  207MOL0     H28509   5.776   9.170   2.839  1.6848 -0.3074  2.9448
  207MOL0     H28510   5.733   9.328   2.913  1.0053  2.2653  0.3236
  207MOL0     H28511   5.647   9.283   2.667 -1.3636  4.0589  0.1457
  207MOL0     H28512   5.813   9.280   2.615 -0.7606  0.1273 -1.1790
  207MOL0     H28513   5.656   9.531   2.749 -3.5070  0.5774 -2.4143
  207MOL0     H28514   5.816   9.530   2.681 -0.9700  2.6280 -2.3356
  207MOL0     H28515   5.552   9.331   2.473 -0.8444  0.5636 -1.1953
  207MOL0     H28516   5.527   9.553   2.139 -0.1308 -0.0749 -0.3561
  207MOL0     H28517   5.421   9.435   2.224  0.4446  0.7261  5.1556
  207MOL0     H28518   5.586   9.360   2.011 -0.3654 -4.9176 -1.5199
  207MOL0     H28519   5.692   9.328   2.145  0.4088  0.0322  0.3095
  207MOL0     H28520   5.419   9.224   2.202 -1.5856 -0.7595 -1.1095
  207MOL0     H28521   5.469   9.169   2.046  2.4366  2.8124 -2.8647
  207MOL0     H28522   5.697   9.110   2.167  3.0416 -0.0187  3.4450
  207MOL0     H28523   5.657   9.182   2.301  1.6316 -0.0437 -0.8914
  207MOL0     H28524   5.775   9.006   2.412  0.5594  0.0762  1.8345
  207MOL0     H28525   5.940   8.812   2.555 -1.5598  0.4805 -1.5159
  207MOL0     H28526   5.845   8.812   2.709  4.4632 -1.1387  0.3475
  207MOL0     H28527   5.878   8.970   2.618 -0.9811  1.1659  1.1903
  207MOL0     H28528   5.747   8.565   2.889 -0.5993  0.3484 -1.1965
  207MOL0     H28529   5.719   8.424   3.097  0.8194  0.2567 -0.9875
  207MOL0     H28530   5.510   8.350   3.250  4.5745 -0.2893 -1.2606
  207MOL0     H28531   5.374   8.236   3.214  0.5932  1.3106 -0.5054
  207MOL0     H28532   5.475   8.181   3.429 -0.6595  1.2185 -1.2247
  207MOL0     H28533   5.506   8.054   3.307 -0.4633 -1.1434  1.9931
  207MOL0     H28534   5.681   8.283   3.387 -2.2878 -0.0985  1.0351
  207MOL0     H28535   5.725   8.156   3.269 -2.6398  0.4958 -0.7421
  207MOL0     H28536   5.854   8.083   3.437 -0.4135 -1.5497 -1.4802
  207MOL0     H28537   5.710   7.988   3.471 -2.3092  2.1810 -1.8647
  207MOL0     H28538   5.748   8.250   3.603 -0.6234 -0.2097  0.2539
  207MOL0     H28539   5.627   8.135   3.631 -0.8598  2.7960  0.0295
  207MOL0     H28540   5.928   8.104   3.678 -1.4130  0.0674 -3.8830
  207MOL0     H28541   5.819   7.968   3.669  4.3328 -0.3593 -1.8191
  207MOL0     H28542   5.673   8.095   3.853 -0.6690 -0.7062 -3.4633
  207MOL0     H28543   5.824   8.186   3.886  1.9633 -0.6016 -0.6702
  207MOL0     H28544   5.930   7.944   3.912  0.0566  0.6326 -0.6398
  207MOL0     H28545   5.765   7.879   3.914 -0.8651  0.1119  1.1019
  207MOL0     H28546   5.399   8.214   2.915  0.6924  1.2610 -0.7668
  207MOL0     H28547   5.434   8.346   2.697 -2.2824  1.4303  1.1053
  207MOL0     H28548   5.500   8.616   2.473  0.8871 -0.6662 -0.5057
  207MOL0     H28549   5.431   8.794   2.303  1.1211  0.8825 -1.4046
  207MOL0     H28550   6.585   9.368   3.139 -1.7584 -0.2269  1.4382
  207MOL0     H28551   6.806   9.452   3.103  2.0263  1.8584  2.6949
  207MOL0     H28552   7.079   9.692   3.381 -2.9412  0.2231 -1.8244
  207MOL0     H28553   7.316   9.736   3.404  0.3507  2.7934  0.5741
  207MOL0     H28554   7.507   9.885   3.044 -2.9908  0.0039  0.6422
  207MOL0     H28555   7.480  10.041   3.104 -2.8468 -1.3662 -0.0892
  207MOL0     H28556   7.657  10.055   3.246 -1.4985 -0.1020 -0.5420
  207MOL0     H28557   7.713  10.021   3.073  3.6243 -1.2071  1.1516
  207MOL0     H28558   7.728   9.839   3.312 -0.6103 -1.6889 -0.2992
  207MOL0     H28559   7.738   9.781   3.140  0.0817 -2.7641  2.6295
  207MOL0     H28560   7.946   9.992   3.267  1.6223 -2.0495  2.0814
  207MOL0     H28561   7.933   9.937   3.105 -3.2575  2.0896 -0.7354
  207MOL0     H28562   8.087   9.618   3.362  1.2407  1.2145  1.0945
  207MOL0     H28563   7.282  10.003   3.055 -1.6343  1.8600  0.9612
  207MOL0     H28564   7.089   9.978   2.920 -1.0759 -3.4991 -1.7361
  207MOL0     H28565   6.940   9.914   2.997 -0.8429  0.3157  0.3233
  207MOL0     H28566   6.986  10.061   3.057  1.8154 -0.7984  1.3834
  208MOL0     O28567  10.700   7.525   1.931  0.5483  0.1351  0.5926
  208MOL0     C28568  10.704   7.399   1.938  0.5923 -0.3090  0.4607
  208MOL0     O28569  10.760   7.320   1.840 -0.0724  0.3216 -0.2546
  208MOL0     C28570  10.750   7.341   1.708 -0.7276  0.0808  0.5353
  208MOL0     C28571  10.795   7.240   1.631 -0.2798 -0.8196  0.2577
  208MOL0     C28572  10.773   7.235   1.489 -1.1406 -0.5485 -0.7374
  208MOL0     C28573  10.693   7.341   1.428  0.8533  0.5192 -0.3204
  208MOL0     O28574  10.686   7.338   1.293 -0.0210 -0.0340  0.4877
  208MOL0     C28575  10.593   7.409   1.212  0.2993  0.1804 -0.3805
  208MOL0     C28576  10.629   7.399   1.065 -0.2592  0.4330  0.0885
  208MOL0     C28577  10.780   7.420   1.042  0.1474 -0.1576  0.2452
  208MOL0     C28578  10.817   7.465   0.904 -0.5665 -0.5388  0.0035
  208MOL0     C28579  10.972   7.499   0.893  0.1699  1.6647 -0.1576
  208MOL0     C28580  11.018   7.537   0.752 -0.1688 -0.8870  0.3969
  208MOL0     C28581  11.010   7.412   0.659  0.2131 -0.3357  0.9156
  208MOL0     C28582  11.079   7.414   0.515  0.7277 -0.0782 -0.7231
  208MOL0     N28583  11.078   7.277   0.474  0.8404  0.5462 -0.1148
  208MOL0     C28584  10.978   7.186   0.462  0.4655 -0.2062 -0.5063
  208MOL0     C28585  11.036   7.073   0.420  0.0267 -0.5482  0.1128
  208MOL0     C28586  10.972   6.937   0.388  0.0888  0.4465 -0.3897
  208MOL0     C28587  10.946   6.909   0.247  0.7341  0.3987  0.9048
  208MOL0     C28588  10.828   6.989   0.185 -0.0039  0.3945 -0.2926
  208MOL0     C28589  10.697   6.934   0.238 -0.3536 -0.1105 -0.5421
  208MOL0     O28590  10.596   7.031   0.208 -0.4962  0.3798  0.1100
  208MOL0     C28591  10.546   7.041   0.081  0.3472  0.9060  0.5995
  208MOL0     C28592  10.442   7.132   0.068  0.9715  0.3003  0.1957
  208MOL0     C28593  10.373   7.166  -0.054  0.6964 -0.6538  0.7707
  208MOL0     C28594  10.276   7.290  -0.059  0.1807 -0.5844 -0.9411
  208MOL0     C28595  10.430   7.118  -0.170 -0.7965 -0.3453 -0.2541
  208MOL0     C28596  10.396   7.160  -0.297  0.0259 -0.3401  0.3051
  208MOL0     O28597  10.487   7.228  -0.364 -0.3085 -0.0208  0.6038
  208MOL0     C28598  10.472   7.236  -0.504 -0.7102  0.6095 -1.2148
  208MOL0     C28599  10.493   7.117  -0.578 -0.4584 -0.0081 -0.4567
  208MOL0     C28600  10.483   7.121  -0.717  0.4240  0.2081  0.1492
  208MOL0     C28601  10.485   7.239  -0.784 -0.4100 -0.9487  0.0120
  208MOL0     O28602  10.500   7.236  -0.923  0.4377 -0.3771  0.2837
  208MOL0     C28603  10.425   7.330  -1.006  1.3341  0.2504  0.2424
  208MOL0     C28604  10.411   7.250  -1.142  0.2302 -0.3704 -0.3420
  208MOL0     C28605  10.311   7.128  -1.143 -0.3863  0.0882 -0.0407
  208MOL0     C28606  10.294   7.060  -1.282 -0.6823  0.0134 -0.6465
  208MOL0     C28607  10.185   6.952  -1.285  0.0957  0.0924  0.0289
  208MOL0     C28608  10.170   6.866  -1.412 -0.3708  0.2851  0.1074
  208MOL0     C28609  10.058   6.760  -1.407  0.3322  1.0911  0.0301
  208MOL0     C28610  10.003   6.710  -1.539  0.1473 -0.5869  0.4264
  208MOL0    Cl28611  10.135   6.690  -1.663 -0.3665  0.4649  0.0969
  208MOL0     C28612  10.494   7.359  -0.709  0.2016 -0.3835 -0.3657
  208MOL0     C28613  10.473   7.358  -0.572  0.0939 -0.8659 -0.9294
  208MOL0     O28614  10.291   7.115  -0.349 -0.6035  0.3011 -0.1575
  208MOL0     C28615  10.531   7.022  -0.161 -0.2469  0.1498  0.6466
  208MOL0     C28616  10.593   6.984  -0.035  0.5585 -0.9413 -0.5130
  208MOL0     N28617  11.175   7.101   0.403 -0.1722 -0.6110 -0.0187
  208MOL0     N28618  11.192   7.220   0.439 -0.1562  0.6038  0.3155
  208MOL0     C28619  10.632   7.435   1.513  0.5470  0.1380  0.9446
  208MOL0     C28620  10.678   7.440   1.639 -0.4589 -1.1293  1.1240
  208MOL0     C28621  10.625   7.333   2.045  0.6636  0.0800  0.3363
  208MOL0     C28622  10.511   7.245   2.017 -0.1643  0.5523  0.2607
  208MOL0     C28623  10.449   7.174   2.121 -1.2319 -0.3709  0.8499
  208MOL0     C28624  10.505   7.186   2.252 -0.0250  0.8748  0.7490
  208MOL0     O28625  10.475   7.096   2.360  0.2266  0.5446  1.0042
  208MOL0     C28626  10.352   7.018   2.354 -1.2226  0.4367  0.2605
  208MOL0     C28627  10.229   7.100   2.379  0.1045 -0.4827 -0.0227
  208MOL0     C28628  10.105   7.021   2.348 -0.1756  0.4321 -0.2076
  208MOL0     C28629   9.999   7.095   2.293  0.0059 -0.4730  0.3930
  208MOL0     C28630   9.872   7.027   2.285 -0.9638 -0.0915 -0.7155
  208MOL0     C28631   9.767   6.980   2.258  0.7069  0.5847  0.0552
  208MOL0     C28632  10.596   7.283   2.275  0.2024 -0.8448 -0.6687
  208MOL0     C28633  10.660   7.363   2.176  1.4455  0.9292 -0.4136
  208MOL0     C28634  10.766   7.472   2.210 -0.1897  0.2737  0.6198
  208MOL0     H28635  10.832   7.157   1.690  2.2212  0.9199  1.3410
  208MOL0     H28636  10.815   7.151   1.434  2.9999  0.8811 -0.1616
  208MOL0     H28637  10.594   7.517   1.227  0.3425  0.2416 -0.7999
  208MOL0     H28638  10.490   7.375   1.222  0.9355 -2.4225 -1.7207
  208MOL0     H28639  10.611   7.295   1.037  2.2151 -1.3510  4.0769
  208MOL0     H28640  10.564   7.465   1.006  2.6746  1.9093 -1.7581
  208MOL0     H28641  10.815   7.488   1.120  2.1232 -1.2390  0.3576
  208MOL0     H28642  10.837   7.329   1.060  2.7465  1.2271 -0.5717
  208MOL0     H28643  10.778   7.407   0.820  0.7226 -0.9468 -0.3266
  208MOL0     H28644  10.779   7.567   0.893  0.8198  0.0209  0.2539
  208MOL0     H28645  11.029   7.410   0.919  1.1447  2.7330  1.6265
  208MOL0     H28646  11.003   7.562   0.977 -0.5173  1.8622 -0.0443
  208MOL0     H28647  10.953   7.613   0.708 -0.4523 -0.7646  1.0293
  208MOL0     H28648  11.121   7.574   0.754 -0.9396  1.8778 -2.7847
  208MOL0     H28649  10.907   7.377   0.645 -0.6105  1.5353  1.8306
  208MOL0     H28650  11.066   7.339   0.718  0.6882  0.3829  1.3763
  208MOL0     H28651  11.031   7.486   0.448 -1.4745 -0.5995  0.1883
  208MOL0     H28652  11.178   7.451   0.543  0.0500  1.4175 -0.2051
  208MOL0     H28653  10.873   7.199   0.487  1.2436  4.0614  1.3414
  208MOL0     H28654  10.882   6.903   0.440 -0.8694 -0.3005 -2.4347
  208MOL0     H28655  11.044   6.861   0.421 -2.6829 -2.4554 -0.5579
  208MOL0     H28656  11.034   6.938   0.190  1.9748  0.1844  2.6304
  208MOL0     H28657  10.943   6.800   0.234  1.0933  0.6251 -1.4890
  208MOL0     H28658  10.833   7.092   0.221 -1.1084 -0.2049  1.6999
  208MOL0     H28659  10.833   6.988   0.075  1.4433  1.4425 -0.2663
  208MOL0     H28660  10.666   6.839   0.193 -0.8323 -0.2238  0.0120
  208MOL0     H28661  10.697   6.913   0.345 -0.6473 -2.9241 -1.0255
  208MOL0     H28662  10.426   7.183   0.162  2.3093  0.5480  0.3043
  208MOL0     H28663  10.218   7.287   0.033  1.7303 -0.5498  0.0634
  208MOL0     H28664  10.201   7.290  -0.139 -0.8701  1.5915 -0.0483
  208MOL0     H28665  10.321   7.389  -0.073 -1.9986  0.7214  0.6820
  208MOL0     H28666  10.513   7.023  -0.527  0.0277  0.0887 -0.4640
  208MOL0     H28667  10.491   7.033  -0.780  0.0918 -0.8454  1.5407
  208MOL0     H28668  10.325   7.360  -0.976  0.3079  0.5411 -3.0419
  208MOL0     H28669  10.481   7.424  -1.010  1.0598  0.4338  0.7305
  208MOL0     H28670  10.382   7.331  -1.210 -4.3330 -0.4239  1.1581
  208MOL0     H28671  10.503   7.201  -1.175 -0.1330  0.3502 -2.5954
  208MOL0     H28672  10.221   7.172  -1.097 -0.5577 -2.6095  2.5640
  208MOL0     H28673  10.353   7.055  -1.073  3.7026  1.3676 -0.9056
  208MOL0     H28674  10.388   7.011  -1.307  0.1922  2.0523 -1.6098
  208MOL0     H28675  10.273   7.140  -1.354 -0.7367 -0.6431 -1.3760
  208MOL0     H28676  10.197   6.880  -1.204  1.7270  1.1348  0.7666
  208MOL0     H28677  10.094   7.012  -1.269  0.9868  1.0071  2.0903
  208MOL0     H28678  10.267   6.831  -1.449  0.0649  0.2649  1.2266
  208MOL0     H28679  10.142   6.937  -1.490  0.8287  1.2408  0.5142
  208MOL0     H28680   9.973   6.808  -1.358 -1.0242 -2.0123  0.9632
  208MOL0     H28681  10.077   6.682  -1.332 -3.2546  0.5378  0.5190
  208MOL0     H28682   9.925   6.776  -1.580  1.9031  1.4865  0.2480
  208MOL0     H28683   9.953   6.615  -1.515 -3.1464  0.5016 -1.3989
  208MOL0     H28684  10.492   7.456  -0.756  2.7819 -0.6127 -1.0730
  208MOL0     H28685  10.468   7.455  -0.523  2.2769 -1.1377 -0.0813
  208MOL0     H28686  10.575   6.966  -0.243 -0.1910  1.0200  0.0616
  208MOL0     H28687  10.675   6.914  -0.030 -0.5927 -2.3692 -0.9407
  208MOL0     H28688  10.567   7.512   1.473  1.7126  0.6862  0.0221
  208MOL0     H28689  10.619   7.521   1.681 -0.9991  0.6976 -2.7043
  208MOL0     H28690  10.483   7.222   1.915  1.8498 -3.2060  0.3524
  208MOL0     H28691  10.355   7.122   2.101 -1.5722  1.7694 -5.5370
  208MOL0     H28692  10.352   6.961   2.260 -0.5029 -5.9836  3.5743
  208MOL0     H28693  10.362   6.944   2.434  0.4014  1.3109  0.9134
  208MOL0     H28694  10.224   7.187   2.313  1.6376 -1.9070 -2.1470
  208MOL0     H28695  10.218   7.143   2.479 -2.3599  3.5293 -1.7661
  208MOL0     H28696  10.141   6.966   2.260 -1.0189  1.7612 -1.4234
  208MOL0     H28697  10.082   6.949   2.428  2.2429 -0.3180 -0.0975
  208MOL0     H28698  10.026   7.136   2.196  1.4884 -0.7087  0.6849
  208MOL0     H28699   9.981   7.181   2.359  2.7532 -0.4869  1.2925
  208MOL0     H28700   9.679   6.927   2.225  0.6331  1.2161 -0.8001
  208MOL0     H28701  10.637   7.306   2.373  1.2124 -2.0236 -0.7947
  208MOL0     H28702  10.832   7.499   2.127  0.5763 -1.6963  0.5244
  208MOL0     H28703  10.718   7.569   2.222  2.2216  1.9995 -2.3554
  208MOL0     H28704  10.839   7.440   2.285 -0.3773 -2.7594 -0.3236
  209MOL0     O28705   8.465  10.778   0.572 -0.1757  0.0741  0.1985
  209MOL0     C28706   8.575  10.834   0.597  0.4845  0.9546 -1.7398
  209MOL0     O28707   8.688  10.773   0.600 -0.0914  0.2526 -0.6658
  209MOL0     C28708   8.700  10.642   0.560 -0.4775 -0.2706 -0.5317
  209MOL0     C28709   8.777  10.542   0.633 -0.1448 -0.2094  1.3148
  209MOL0     C28710   8.817  10.423   0.567 -0.3976 -0.4298 -0.2807
  209MOL0     C28711   8.785  10.405   0.437 -0.0450  0.0152  0.0503
  209MOL0     O28712   8.830  10.293   0.369 -0.0958  0.3966 -0.3516
  209MOL0     C28713   8.950  10.231   0.393 -0.2702 -0.6985 -0.1735
  209MOL0     C28714   8.968  10.099   0.314 -0.4813 -0.4358 -0.3464
  209MOL0     C28715   9.106  10.089   0.235 -0.0825 -0.7808 -0.5193
  209MOL0     C28716   9.117  10.182   0.113 -0.4120  0.4276 -0.0823
  209MOL0     C28717   9.228  10.140   0.016 -0.1634  0.0565  0.2232
  209MOL0     C28718   9.369  10.103   0.079  0.9111 -1.1649  0.3494
  209MOL0     C28719   9.485  10.085  -0.027 -0.3298 -0.1377 -0.7401
  209MOL0     C28720   9.463   9.965  -0.123  0.1819  0.1245  0.0364
  209MOL0     N28721   9.449   9.835  -0.060  0.0814  0.6123 -0.6171
  209MOL0     C28722   9.332   9.771  -0.018  0.4503 -0.6280 -0.8566
  209MOL0     C28723   9.369   9.649   0.035 -0.4424 -0.2983  0.3943
  209MOL0     C28724   9.268   9.546   0.071  0.8500  0.0925  0.2093
  209MOL0     C28725   9.190   9.482  -0.043  0.1772 -0.3109  0.2667
  209MOL0     C28726   9.238   9.348  -0.102  0.0906  0.4980  0.2571
  209MOL0     C28727   9.365   9.336  -0.182 -0.7381  0.1156  0.2105
  209MOL0     O28728   9.340   9.388  -0.317 -0.5862  0.1176  0.6036
  209MOL0     C28729   9.385   9.516  -0.337  0.4582  0.1671  0.0229
  209MOL0     C28730   9.296   9.604  -0.385  0.1419 -0.0741 -1.0380
  209MOL0     C28731   9.324   9.744  -0.419  0.4297  1.0217 -0.6970
  209MOL0     C28732   9.208   9.834  -0.453  0.1694  0.8810 -1.0470
  209MOL0     C28733   9.454   9.789  -0.417 -0.8745  0.7856  0.5817
  209MOL0     C28734   9.500   9.903  -0.499  0.6889 -0.7549  0.4613
  209MOL0     O28735   9.438   9.933  -0.618 -0.0967  0.4011 -0.0291
  209MOL0     C28736   9.428  10.068  -0.660  0.4208  0.7712 -0.9700
  209MOL0     C28737   9.306  10.112  -0.696  0.2354  0.0917  1.2453
  209MOL0     C28738   9.291  10.236  -0.756  1.2635  0.7381  0.9985
  209MOL0     C28739   9.412  10.309  -0.798 -0.5258  0.2219 -0.4258
  209MOL0     O28740   9.395  10.444  -0.848  0.2785  1.3515  0.3248
  209MOL0     C28741   9.433  10.464  -0.985  0.2698 -0.0442 -0.3036
  209MOL0     C28742   9.411  10.612  -1.035 -0.8233 -0.2421 -0.1942
  209MOL0     C28743   9.479  10.653  -1.168  0.4891 -0.1644  0.2577
  209MOL0     C28744   9.422  10.572  -1.293  0.2605 -0.1804 -0.6129
  209MOL0     C28745   9.487  10.636  -1.415 -0.7864 -0.1593  1.3303
  209MOL0     C28746   9.523  10.529  -1.514  0.1928  0.7440  0.7159
  209MOL0     C28747   9.621  10.418  -1.477  0.1899  0.0222 -0.3157
  209MOL0     C28748   9.761  10.466  -1.447 -0.6700 -0.5190 -1.1374
  209MOL0    Cl28749   9.803  10.626  -1.526 -0.1669  0.0174 -0.0048
  209MOL0     C28750   9.536  10.267  -0.753  0.4000 -0.2695 -0.9074
  209MOL0     C28751   9.546  10.139  -0.692 -0.3498 -0.2593 -0.7956
  209MOL0     O28752   9.597   9.967  -0.457 -0.4310  0.3869 -0.2366
  209MOL0     C28753   9.548   9.701  -0.357 -0.3213  1.0748 -0.0455
  209MOL0     C28754   9.517   9.563  -0.325 -1.2066 -0.3861  0.2762
  209MOL0     N28755   9.505   9.642   0.014 -0.2871 -0.3723 -0.3825
  209MOL0     N28756   9.557   9.753  -0.032 -0.1277  0.3675 -0.2730
  209MOL0     C28757   8.710  10.501   0.364  0.2693  0.6080 -0.3320
  209MOL0     C28758   8.660  10.615   0.429  0.2962 -0.1959  0.0426
  209MOL0     C28759   8.556  10.973   0.640 -0.2329  0.7343 -0.1281
  209MOL0     C28760   8.457  10.997   0.733  0.2277 -0.3314 -0.9485
  209MOL0     C28761   8.433  11.128   0.779  0.6635  0.3312 -0.1348
  209MOL0     C28762   8.512  11.231   0.731  0.5180 -0.6175  0.1516
  209MOL0     O28763   8.487  11.367   0.759  0.5397  0.6382  0.3795
  209MOL0     C28764   8.543  11.405   0.882  1.0597  0.5716 -0.9345
  209MOL0     C28765   8.431  11.417   0.984  0.1187 -0.1831 -0.6763
  209MOL0     C28766   8.334  11.527   0.962  0.0881 -0.2130 -0.1464
  209MOL0     C28767   8.222  11.505   1.062  0.0549  0.1039  0.3283
  209MOL0     C28768   8.112  11.608   1.050 -0.3270  1.1929  0.6020
  209MOL0     C28769   8.042  11.708   1.024 -0.3674  0.2052  0.1719
  209MOL0     C28770   8.624  11.196   0.655 -0.1755 -0.3167 -0.4554
  209MOL0     C28771   8.650  11.068   0.608  0.2130  0.3892  0.9237
  209MOL0     C28772   8.776  11.052   0.520 -0.5081  0.4349 -0.2601
  209MOL0     H28773   8.809  10.564   0.734 -1.9729 -0.1668  1.9231
  209MOL0     H28774   8.883  10.365   0.630 -0.9309 -0.9729 -0.2186
  209MOL0     H28775   8.961  10.205   0.499  0.7139  0.1646 -0.0574
  209MOL0     H28776   9.034  10.295   0.366 -1.8153  0.7100 -1.9196
  209MOL0     H28777   8.966  10.018   0.387 -0.9166  0.2435  0.4128
  209MOL0     H28778   8.884  10.089   0.245 -0.7326  0.0943 -0.1239
  209MOL0     H28779   9.189  10.115   0.302  1.5117 -1.3733 -2.1736
  209MOL0     H28780   9.141   9.990   0.204  4.0252  0.2810  0.1024
  209MOL0     H28781   9.021  10.200   0.064  0.3306  2.5040 -0.8838
  209MOL0     H28782   9.143  10.286   0.136 -0.7657  0.5067 -0.0388
  209MOL0     H28783   9.244  10.218  -0.059 -0.0488  0.2402  0.4380
  209MOL0     H28784   9.196  10.052  -0.041  0.6790  0.0911 -0.3166
  209MOL0     H28785   9.400  10.178   0.152 -0.3089 -1.4795  1.2215
  209MOL0     H28786   9.356  10.015   0.143 -0.4221 -1.6510 -0.5394
  209MOL0     H28787   9.572  10.071   0.037 -1.6021  0.0544  1.1077
  209MOL0     H28788   9.500  10.179  -0.081  1.8189  0.5675  0.9370
  209MOL0     H28789   9.378   9.991  -0.187 -0.2464 -1.8062 -0.2440
  209MOL0     H28790   9.555   9.942  -0.177  1.0385 -1.9138  2.1785
  209MOL0     H28791   9.232   9.806  -0.045  0.9066  1.8076  0.3149
  209MOL0     H28792   9.192   9.583   0.140  2.1096 -1.7577  2.7715
  209MOL0     H28793   9.322   9.468   0.127  1.6340  1.2185  1.0637
  209MOL0     H28794   9.092   9.471   0.003 -0.8136 -0.3334 -1.7555
  209MOL0     H28795   9.184   9.549  -0.129  0.0568  0.4674  0.8684
  209MOL0     H28796   9.253   9.298  -0.007  0.2475  2.0983  1.1186
  209MOL0     H28797   9.156   9.308  -0.162  0.2683  1.7388 -0.8793
  209MOL0     H28798   9.449   9.392  -0.141  0.8033 -0.8000 -1.5590
  209MOL0     H28799   9.383   9.228  -0.194  1.1668  0.5179 -1.0500
  209MOL0     H28800   9.194   9.568  -0.378 -0.7831  2.5081  0.1185
  209MOL0     H28801   9.170   9.809  -0.552 -1.7412 -3.9144  0.6131
  209MOL0     H28802   9.239   9.938  -0.441  1.1488  0.5888 -0.9398
  209MOL0     H28803   9.133   9.814  -0.376  1.1248 -0.1847 -0.3612
  209MOL0     H28804   9.217  10.058  -0.666  2.2066 -1.8378  4.1272
  209MOL0     H28805   9.194  10.278  -0.781  1.3499  0.2787 -0.2089
  209MOL0     H28806   9.540  10.445  -0.988  1.2979  4.4886 -0.3371
  209MOL0     H28807   9.379  10.391  -1.047  1.1712 -2.4461  1.5866
  209MOL0     H28808   9.304  10.631  -1.046 -0.5465  1.3396 -0.4259
  209MOL0     H28809   9.453  10.681  -0.962  0.0938 -0.1034 -0.8477
  209MOL0     H28810   9.588  10.651  -1.161  0.8885  5.3398  0.0043
  209MOL0     H28811   9.450  10.755  -1.195  0.1537 -0.7439 -1.7479
  209MOL0     H28812   9.314  10.579  -1.307 -0.1603  2.0130  2.6787
  209MOL0     H28813   9.442  10.465  -1.283 -2.2557 -0.6418  0.0948
  209MOL0     H28814   9.408  10.685  -1.472 -2.6619 -4.8937 -0.6764
  209MOL0     H28815   9.577  10.692  -1.388  0.4733 -2.0493  1.2779
  209MOL0     H28816   9.565  10.587  -1.597  2.0634  3.1756  3.1470
  209MOL0     H28817   9.433  10.479  -1.547  1.1707 -2.2644  2.2454
  209MOL0     H28818   9.642  10.357  -1.565  2.3950  1.6567 -1.0286
  209MOL0     H28819   9.580  10.358  -1.396 -0.5029  0.8097 -0.0717
  209MOL0     H28820   9.833  10.395  -1.489  1.7875  1.6971 -0.8783
  209MOL0     H28821   9.765  10.483  -1.339 -2.1999  1.0783 -1.2780
  209MOL0     H28822   9.623  10.330  -0.770  1.1454 -1.6404 -2.5872
  209MOL0     H28823   9.639  10.088  -0.667 -0.4434  0.0915  0.3417
  209MOL0     H28824   9.649   9.738  -0.341 -0.0540  1.5046 -2.3649
  209MOL0     H28825   9.601   9.505  -0.290 -0.4551  0.5532  0.0813
  209MOL0     H28826   8.666  10.482   0.266 -6.5174 -0.7207  2.4192
  209MOL0     H28827   8.596  10.681   0.372 -1.5335 -1.3580  0.6842
  209MOL0     H28828   8.381  10.926   0.763 -0.4353  1.5341  2.2524
  209MOL0     H28829   8.351  11.153   0.846  0.3697  0.5739 -0.5765
  209MOL0     H28830   8.618  11.338   0.923  0.6013  1.2226  1.0617
  209MOL0     H28831   8.591  11.503   0.879  0.5208  1.1481  3.2822
  209MOL0     H28832   8.477  11.439   1.080 -1.6476 -2.2070  0.7128
  209MOL0     H28833   8.391  11.316   0.993  3.3635 -1.3903  2.6553
  209MOL0     H28834   8.393  11.615   0.989 -0.1797 -0.1041  0.0872
  209MOL0     H28835   8.311  11.530   0.855  1.0192  2.7094 -0.3385
  209MOL0     H28836   8.260  11.517   1.164  0.9075 -0.0291  0.0351
  209MOL0     H28837   8.190  11.402   1.045  1.5038  0.0119 -2.2952
  209MOL0     H28838   7.995  11.799   0.993 -1.9818 -0.4529  0.5440
  209MOL0     H28839   8.689  11.273   0.613 -1.8584 -0.4281 -3.5535
  209MOL0     H28840   8.795  10.953   0.477 -1.8016  0.7824 -1.7099
  209MOL0     H28841   8.771  11.126   0.440  1.0752  0.0475 -0.7663
  209MOL0     H28842   8.859  11.093   0.578  0.1000  2.8308 -2.6632
  210MOL0     O28843   5.404   9.901   8.755 -0.4189 -0.6205  0.3747
  210MOL0     C28844   5.457  10.014   8.752  0.1456  0.3677 -0.2455
  210MOL0     O28845   5.592  10.040   8.742 -0.0230 -0.3488 -0.2337
  210MOL0     C28846   5.689   9.947   8.772  1.1684  0.4195  0.8482
  210MOL0     C28847   5.705   9.898   8.900 -0.8620  0.1963 -0.6398
  210MOL0     C28848   5.812   9.804   8.920  0.2314 -0.5937 -0.0833
  210MOL0     C28849   5.890   9.757   8.817 -0.1290 -0.4661 -0.7537
  210MOL0     O28850   5.982   9.655   8.840 -0.1360  0.1040 -0.0254
  210MOL0     C28851   6.047   9.650   8.974 -0.9477 -0.1892 -0.0176
  210MOL0     C28852   6.183   9.572   8.975  0.4427 -0.0019 -0.2335
  210MOL0     C28853   6.163   9.420   8.985  0.4103  0.3659 -0.2730
  210MOL0     C28854   6.281   9.358   9.057 -0.1582 -0.5658  0.4648
  210MOL0     C28855   6.253   9.222   9.134 -0.1149  0.3636  0.0303
  210MOL0     C28856   6.218   9.109   9.036  0.1334 -0.0944 -0.5151
  210MOL0     C28857   6.207   8.974   9.106 -0.5737 -0.1279 -0.3615
  210MOL0     C28858   6.072   8.941   9.167 -0.4914 -0.3434 -0.0261
  210MOL0     N28859   5.955   8.938   9.071 -0.3274 -0.2054  0.5231
  210MOL0     C28860   5.950   8.881   8.950  0.4650  0.6957  0.4928
  210MOL0     C28861   5.838   8.931   8.889  0.2627 -0.0563 -1.1399
  210MOL0     C28862   5.778   8.912   8.750 -1.2047  0.3223 -0.9663
  210MOL0     C28863   5.876   8.862   8.631  1.2814  0.8954 -1.0504
  210MOL0     C28864   6.004   8.946   8.619  0.6925 -0.1705 -0.0621
  210MOL0     C28865   5.972   9.094   8.585 -0.0979 -0.2579 -0.1041
  210MOL0     O28866   5.907   9.099   8.456 -0.0040 -0.1188  0.8761
  210MOL0     C28867   5.979   9.117   8.343 -1.0870 -0.0052 -0.0904
  210MOL0     C28868   5.912   9.141   8.227 -0.0923 -0.2997 -0.4730
  210MOL0     C28869   5.965   9.146   8.095 -0.5723 -0.0960  0.1797
  210MOL0     C28870   5.870   9.148   7.973 -0.2962 -0.0036 -0.6181
  210MOL0     C28871   6.106   9.151   8.087 -0.4492  0.3214  0.4640
  210MOL0     C28872   6.185   9.174   7.963  0.2895 -0.0807  0.7750
  210MOL0     O28873   6.309   9.224   7.978  0.1863  0.6110 -0.4667
  210MOL0     C28874   6.389   9.250   7.869 -0.5544  0.4886 -0.3222
  210MOL0     C28875   6.362   9.356   7.779 -0.1810  1.0755  0.1923
  210MOL0     C28876   6.447   9.367   7.666 -0.0396 -1.0770 -0.1542
  210MOL0     C28877   6.562   9.288   7.653 -0.7132  0.3185 -0.4596
  210MOL0     O28878   6.644   9.293   7.540  0.0082  0.1439 -0.0502
  210MOL0     C28879   6.606   9.384   7.436  0.1842  0.7192  0.2165
  210MOL0     C28880   6.725   9.382   7.342  0.6840  0.0198 -1.0041
  210MOL0     C28881   6.695   9.386   7.195 -0.0246  0.2903  0.1049
  210MOL0     C28882   6.836   9.370   7.122 -0.2842  0.2636 -0.3235
  210MOL0     C28883   6.928   9.497   7.122 -0.6601  0.0428  1.4692
  210MOL0     C28884   7.032   9.487   7.012  0.2742 -0.3854  1.5679
  210MOL0     C28885   7.118   9.615   7.009 -0.1992  0.1657 -0.0581
  210MOL0     C28886   7.051   9.726   6.925  0.6296  0.1029  0.3573
  210MOL0    Cl28887   7.179   9.855   6.904  0.5250  0.4664 -0.0527
  210MOL0     C28888   6.594   9.193   7.743  0.4299 -0.2594 -0.0967
  210MOL0     C28889   6.504   9.170   7.848 -1.1980 -0.5798 -0.0872
  210MOL0     O28890   6.125   9.163   7.854  0.5730 -0.0783  0.3019
  210MOL0     C28891   6.186   9.149   8.209 -0.7131 -0.7859  0.9411
  210MOL0     C28892   6.126   9.130   8.330 -0.2298 -0.4505 -0.4344
  210MOL0     N28893   5.781   9.025   8.980 -0.2125  0.4284 -0.5437
  210MOL0     N28894   5.846   9.024   9.090 -0.5696  0.2849  0.6230
  210MOL0     C28895   5.869   9.810   8.689 -0.0080 -0.0933  0.0078
  210MOL0     C28896   5.763   9.903   8.664  0.4232  0.1429 -0.3336
  210MOL0     C28897   5.362  10.119   8.729 -0.9791  0.0546 -1.1060
  210MOL0     C28898   5.245  10.096   8.659 -0.1436 -0.4096  0.3552
  210MOL0     C28899   5.159  10.198   8.619 -0.3142  1.4160  0.5784
  210MOL0     C28900   5.173  10.323   8.667  1.2769  0.4818 -0.0964
  210MOL0     O28901   5.090  10.421   8.617 -0.0140 -0.5805  0.8967
  210MOL0     C28902   5.066  10.540   8.693  0.4828  0.4386 -0.5864
  210MOL0     C28903   5.159  10.648   8.636 -0.7704  0.3977  0.1535
  210MOL0     C28904   5.112  10.770   8.722 -0.5717 -0.0810 -0.9792
  210MOL0     C28905   5.193  10.895   8.699 -0.6689 -0.2445  0.2513
  210MOL0     C28906   5.159  10.946   8.571  0.5307 -0.3277  0.9708
  210MOL0     C28907   5.123  11.002   8.465 -0.4665 -0.9434 -0.9845
  210MOL0     C28908   5.288  10.348   8.748  0.4165  0.0025 -0.0570
  210MOL0     C28909   5.388  10.249   8.773 -0.2940 -0.4578  0.1834
  210MOL0     C28910   5.498  10.299   8.850  0.7037  0.4315 -0.4991
  210MOL0     H28911   5.641   9.927   8.983 -0.0473  1.2713 -0.3678
  210MOL0     H28912   5.826   9.779   9.025  1.5199  0.6418  0.0777
  210MOL0     H28913   5.979   9.596   9.041 -0.6844 -2.4780 -1.4763
  210MOL0     H28914   6.069   9.750   9.012  1.1725 -0.4021 -0.5731
  210MOL0     H28915   6.249   9.601   8.893  3.0220 -2.5851  0.7832
  210MOL0     H28916   6.239   9.607   9.062  0.4085 -0.8317  0.1229
  210MOL0     H28917   6.074   9.399   9.046  0.5657 -1.7925 -0.7105
  210MOL0     H28918   6.139   9.377   8.888 -2.3201  2.3013 -0.5769
  210MOL0     H28919   6.363   9.345   8.986 -3.3372 -0.8342 -3.4918
  210MOL0     H28920   6.319   9.430   9.130 -1.4824  1.4115 -0.6975
  210MOL0     H28921   6.174   9.230   9.209  1.6110 -1.0424  2.1108
  210MOL0     H28922   6.349   9.201   9.182 -0.6395  0.0840  0.9783
  210MOL0     H28923   6.118   9.129   8.995 -0.0013 -0.4843 -0.3768
  210MOL0     H28924   6.296   9.104   8.959 -2.4602  1.6758 -3.5282
  210MOL0     H28925   6.283   8.966   9.184 -0.2382  1.8111 -0.4471
  210MOL0     H28926   6.220   8.888   9.040 -0.5973  2.3294 -3.8029
  210MOL0     H28927   6.077   8.843   9.214 -2.2226  0.3557  1.7511
  210MOL0     H28928   6.045   9.019   9.239 -1.5427  0.6822 -1.4670
  210MOL0     H28929   6.016   8.799   8.923  1.7205  1.6542  0.5371
  210MOL0     H28930   5.725   9.006   8.733 -1.4754  0.5834  1.1016
  210MOL0     H28931   5.710   8.829   8.770  2.3202 -2.4548  0.6776
  210MOL0     H28932   5.907   8.759   8.649 -0.2316  0.7273  0.8724
  210MOL0     H28933   5.824   8.867   8.535 -0.3731 -1.8930 -0.4066
  210MOL0     H28934   6.048   8.959   8.718 -1.3566  3.3267  0.5566
  210MOL0     H28935   6.067   8.909   8.537 -0.2769  2.5539 -2.2179
  210MOL0     H28936   5.896   9.124   8.658  2.6891 -1.0661  3.4090
  210MOL0     H28937   6.052   9.166   8.600 -2.0216  1.7871  0.9868
  210MOL0     H28938   5.808   9.147   8.256  0.6680 -1.4367  2.9250
  210MOL0     H28939   5.862   9.246   7.925  0.8162  1.3944  1.8509
  210MOL0     H28940   5.766   9.138   8.006  0.0507 -2.4825 -0.1195
  210MOL0     H28941   5.888   9.068   7.901  1.8032 -1.3651  1.3141
  210MOL0     H28942   6.275   9.419   7.792 -0.9707  0.5847 -2.1532
  210MOL0     H28943   6.429   9.453   7.603  1.4713  1.8000  3.0618
  210MOL0     H28944   6.512   9.353   7.389  0.0194  0.7482  0.5173
  210MOL0     H28945   6.593   9.487   7.473 -1.4245  1.3953 -2.0222
  210MOL0     H28946   6.781   9.474   7.365 -0.1291 -0.0599  1.5412
  210MOL0     H28947   6.792   9.299   7.364 -0.6319 -0.0735  3.8295
  210MOL0     H28948   6.650   9.479   7.159  1.1947  0.7106 -0.3847
  210MOL0     H28949   6.634   9.298   7.174  3.0483 -2.0702  0.3067
  210MOL0     H28950   6.808   9.345   7.019 -2.0613 -4.6751  1.0942
  210MOL0     H28951   6.885   9.284   7.168  1.6319  2.0654  1.1996
  210MOL0     H28952   6.868   9.584   7.096  0.7770  0.5954 -0.2172
  210MOL0     H28953   6.979   9.511   7.218  1.0983 -1.2830  0.7882
  210MOL0     H28954   6.983   9.483   6.915  1.7667  0.9198  0.7002
  210MOL0     H28955   7.104   9.404   7.018  3.9846  2.3093 -0.8983
  210MOL0     H28956   7.208   9.580   6.958 -0.1948  0.0915  0.0000
  210MOL0     H28957   7.158   9.648   7.105  0.6520  0.9918 -0.6687
  210MOL0     H28958   6.957   9.761   6.969  0.7961  0.0412  0.7714
  210MOL0     H28959   7.026   9.676   6.831  0.2789  2.0288 -0.6235
  210MOL0     H28960   6.680   9.129   7.729 -1.2240 -2.6817  0.1854
  210MOL0     H28961   6.520   9.088   7.917 -2.6149 -1.3527 -0.6342
  210MOL0     H28962   6.295   9.151   8.204 -0.6892  2.8767 -3.8469
  210MOL0     H28963   6.177   9.115   8.425 -0.0655  1.2860 -0.2211
  210MOL0     H28964   5.928   9.775   8.605  2.4938 -0.2100  1.7103
  210MOL0     H28965   5.762   9.930   8.559  1.5951 -1.5071 -0.8141
  210MOL0     H28966   5.217   9.999   8.619  0.7751 -0.1105 -1.0759
  210MOL0     H28967   5.080  10.186   8.545  0.7912  0.3749 -0.4769
  210MOL0     H28968   4.960  10.567   8.691  0.5238  0.9883  1.6408
  210MOL0     H28969   5.080  10.522   8.800  1.0602  1.6801 -0.4371
  210MOL0     H28970   5.151  10.668   8.529  0.0493  0.5684  0.1139
  210MOL0     H28971   5.264  10.626   8.655 -1.0062 -2.3561 -1.2686
  210MOL0     H28972   5.010  10.803   8.698 -0.5455  1.8053  1.2014
  210MOL0     H28973   5.117  10.751   8.830 -1.9351  0.5039 -0.7898
  210MOL0     H28974   5.295  10.859   8.687  0.1919  1.5804  1.6282
  210MOL0     H28975   5.179  10.975   8.773 -2.6218  1.8912 -2.2216
  210MOL0     H28976   5.102  11.052   8.373  1.7997  0.8384 -0.6186
  210MOL0     H28977   5.312  10.450   8.775 -1.5513 -0.4493  4.2869
  210MOL0     H28978   5.511  10.407   8.839  1.8967  0.1976 -1.5167
  210MOL0     H28979   5.481  10.273   8.955 -1.0731 -2.0140 -1.3012
  210MOL0     H28980   5.596  10.262   8.819  0.8103  0.3641 -0.0973
  211MOL0     O28981   2.030   8.236   8.580  0.8538  0.2628 -0.5381
  211MOL0     C28982   2.037   8.163   8.680 -1.3631 -0.1246  0.2510
  211MOL0     O28983   2.098   8.193   8.789 -0.6691  0.1286 -0.2970
  211MOL0     C28984   2.196   8.291   8.799  1.0877 -0.0119  0.0715
  211MOL0     C28985   2.272   8.343   8.685  0.5628 -0.4763 -1.2257
  211MOL0     C28986   2.368   8.440   8.706 -0.5700  1.0738 -0.4423
  211MOL0     C28987   2.377   8.505   8.837 -0.3831  0.0766 -0.4543
  211MOL0     O28988   2.463   8.605   8.862  0.1926 -0.6465 -0.0111
  211MOL0     C28989   2.573   8.597   8.950 -0.6633  1.0404 -0.6159
  211MOL0     C28990   2.640   8.736   8.940 -0.4104  0.5142 -0.4745
  211MOL0     C28991   2.783   8.741   9.003 -0.6049  0.1089  0.2661
  211MOL0     C28992   2.902   8.774   8.887  0.3671  0.3937  0.2160
  211MOL0     C28993   3.018   8.835   8.959  0.6960  0.0586  0.5721
  211MOL0     C28994   3.114   8.899   8.850 -0.3278  0.9741 -0.0027
  211MOL0     C28995   3.160   8.787   8.754  0.0379  0.5793  0.0077
  211MOL0     C28996   3.280   8.832   8.668 -1.6590  0.5245  0.3278
  211MOL0     N28997   3.281   8.754   8.546  0.1796  0.7977 -0.0835
  211MOL0     C28998   3.291   8.805   8.417  0.0634 -0.0504 -0.8018
  211MOL0     C28999   3.293   8.692   8.349  0.3302  1.3063  1.1469
  211MOL0     C29000   3.299   8.691   8.198 -0.0010  0.2773  0.4511
  211MOL0     C29001   3.183   8.612   8.148 -0.0272  0.0803 -0.2930
  211MOL0     C29002   3.149   8.639   8.000  0.9955 -0.8203 -0.5252
  211MOL0     C29003   3.056   8.546   7.928 -0.2344  0.9521 -0.0575
  211MOL0     O29004   3.000   8.604   7.812 -0.2794  0.0819  0.4193
  211MOL0     C29005   2.868   8.630   7.806 -0.8699 -0.0701  0.6555
  211MOL0     C29006   2.803   8.720   7.887  0.1577 -0.3401  0.0498
  211MOL0     C29007   2.663   8.732   7.908  0.2854 -0.3980  0.2118
  211MOL0     C29008   2.612   8.828   7.998  0.3918 -0.4416 -0.1479
  211MOL0     C29009   2.576   8.656   7.829 -0.1714 -0.4410 -0.1961
  211MOL0     C29010   2.435   8.643   7.835  0.8370 -0.9403 -1.1460
  211MOL0     O29011   2.380   8.632   7.708 -0.1102 -0.0185  0.0918
  211MOL0     C29012   2.237   8.628   7.690 -0.0630  0.4771  0.2071
  211MOL0     C29013   2.172   8.503   7.682 -0.3593  0.6520  0.6225
  211MOL0     C29014   2.032   8.510   7.667 -0.1523 -0.7291 -0.3966
  211MOL0     C29015   1.953   8.624   7.656 -0.3365 -0.5490  0.1984
  211MOL0     O29016   1.817   8.606   7.637 -0.4547  0.1019 -0.2992
  211MOL0     C29017   1.746   8.701   7.560  0.3186 -0.1724  1.0984
  211MOL0     C29018   1.590   8.673   7.559 -0.6335 -0.1068  0.7123
  211MOL0     C29019   1.505   8.734   7.437 -0.4098  0.1653 -0.1303
  211MOL0     C29020   1.355   8.724   7.440 -0.6853 -0.0109  0.7560
  211MOL0     C29021   1.287   8.825   7.339 -0.0186 -0.5050 -0.7698
  211MOL0     C29022   1.161   8.753   7.295  0.2127  0.9694  0.5158
  211MOL0     C29023   1.073   8.842   7.200  0.1359  0.2673 -0.1186
  211MOL0     C29024   0.943   8.770   7.157 -0.6657  0.7717 -0.9965
  211MOL0    Cl29025   0.974   8.656   7.025 -0.0831  0.2703 -0.1703
  211MOL0     C29026   2.021   8.749   7.663 -0.2149  0.3286  1.0859
  211MOL0     C29027   2.159   8.746   7.676 -0.7082  0.1980  0.4745
  211MOL0     O29028   2.373   8.633   7.939 -0.5951  0.5853  0.0125
  211MOL0     C29029   2.645   8.589   7.723  0.3348 -1.1082 -1.3661
  211MOL0     C29030   2.784   8.571   7.710  0.2692 -0.0803 -0.6756
  211MOL0     N29031   3.278   8.578   8.421  0.6123 -0.3163  0.2500
  211MOL0     N29032   3.277   8.618   8.541 -0.4503  0.9999 -1.1109
  211MOL0     C29033   2.311   8.452   8.948  0.2722 -0.6659  0.0123
  211MOL0     C29034   2.212   8.351   8.931  0.1193 -1.0942  0.3664
  211MOL0     C29035   1.980   8.039   8.675  0.8637  0.0885  0.8091
  211MOL0     C29036   1.885   7.995   8.776 -0.4901 -0.9799  0.6459
  211MOL0     C29037   1.832   7.875   8.790 -0.7381  0.6235  0.4385
  211MOL0     C29038   1.882   7.774   8.704 -0.0970 -0.5054  0.1912
  211MOL0     O29039   1.848   7.643   8.700  0.8048 -0.1286 -0.8436
  211MOL0     C29040   1.745   7.595   8.790 -0.2344  0.1041  1.0127
  211MOL0     C29041   1.601   7.632   8.743  0.0803 -0.6168 -0.6067
  211MOL0     C29042   1.571   7.645   8.585 -0.9556 -0.0678 -0.1385
  211MOL0     C29043   1.546   7.512   8.505 -0.1162 -0.7008  0.1794
  211MOL0     C29044   1.438   7.439   8.566  0.4300 -0.0190  0.1495
  211MOL0     C29045   1.355   7.394   8.637  0.0830 -0.2295 -0.3864
  211MOL0     C29046   1.985   7.807   8.608  1.1328  0.2474  0.2214
  211MOL0     C29047   2.027   7.937   8.592 -0.3964  0.0717 -0.2186
  211MOL0     C29048   2.138   7.974   8.502  0.4727  0.9013 -0.2098
  211MOL0     H29049   2.252   8.313   8.582 -3.0868  1.6424 -1.2950
  211MOL0     H29050   2.416   8.489   8.622 -1.5356 -1.9508 -2.9708
  211MOL0     H29051   2.638   8.513   8.925  0.5430  0.6053  3.2870
  211MOL0     H29052   2.555   8.595   9.058 -0.9948  5.8248 -0.3713
  211MOL0     H29053   2.660   8.753   8.834 -2.5654  0.8445 -0.8798
  211MOL0     H29054   2.591   8.827   8.976  0.0933 -0.4575  3.0387
  211MOL0     H29055   2.794   8.811   9.086 -0.6696 -0.4836  0.7855
  211MOL0     H29056   2.812   8.644   9.045  1.2619 -0.6286 -2.5201
  211MOL0     H29057   2.943   8.685   8.838  1.5416  0.4917  0.9851
  211MOL0     H29058   2.867   8.844   8.810  2.0548 -1.9602 -2.9145
  211MOL0     H29059   3.066   8.753   9.015 -1.5462 -0.1953  2.2530
  211MOL0     H29060   2.989   8.907   9.036 -3.0927  0.0036 -0.6336
  211MOL0     H29061   3.076   8.990   8.803  2.6595  1.7238 -1.1976
  211MOL0     H29062   3.197   8.937   8.911  1.0204 -1.8722  0.0701
  211MOL0     H29063   3.082   8.768   8.680  0.9892  0.6231 -1.0188
  211MOL0     H29064   3.188   8.695   8.807 -2.7236 -0.4250 -0.0765
  211MOL0     H29065   3.274   8.937   8.639  2.1589  1.0004  0.7611
  211MOL0     H29066   3.375   8.826   8.721  0.9543  0.6300 -3.9051
  211MOL0     H29067   3.292   8.909   8.386 -2.3227 -0.4448 -2.5101
  211MOL0     H29068   3.400   8.685   8.159  0.1703 -0.4181  0.9842
  211MOL0     H29069   3.276   8.794   8.168  1.0639 -0.2939 -2.7145
  211MOL0     H29070   3.220   8.509   8.151  3.6559  1.2376 -0.1005
  211MOL0     H29071   3.095   8.619   8.211  0.5570 -0.3762  0.5967
  211MOL0     H29072   3.091   8.730   8.014  0.2393 -1.5974  2.0002
  211MOL0     H29073   3.236   8.659   7.936  0.9039  0.7375 -0.2065
  211MOL0     H29074   3.109   8.459   7.889 -0.9240  1.2935 -1.8342
  211MOL0     H29075   2.975   8.524   7.998 -1.7957  2.8655 -1.1751
  211MOL0     H29076   2.866   8.787   7.945  0.8558 -2.3838  1.7817
  211MOL0     H29077   2.535   8.788   8.065 -0.5736  1.2459 -0.1735
  211MOL0     H29078   2.574   8.911   7.936 -0.7704 -0.9858 -0.1991
  211MOL0     H29079   2.696   8.865   8.057  0.0965  1.0683 -0.6212
  211MOL0     H29080   2.225   8.407   7.683  0.0724  0.8553 -0.7523
  211MOL0     H29081   1.993   8.409   7.665 -1.3282 -0.3441  1.0760
  211MOL0     H29082   1.771   8.795   7.610  2.8216 -0.4807  0.5229
  211MOL0     H29083   1.792   8.690   7.462 -0.0176 -2.0008  1.0987
  211MOL0     H29084   1.572   8.566   7.548  0.9957 -0.1499 -3.1599
  211MOL0     H29085   1.557   8.706   7.658 -2.2823  1.6343 -0.3264
  211MOL0     H29086   1.544   8.699   7.340  0.5238  1.6504 -0.3255
  211MOL0     H29087   1.523   8.841   7.432 -2.8280  0.5684 -2.1180
  211MOL0     H29088   1.325   8.747   7.542 -5.0392  2.1316 -0.7798
  211MOL0     H29089   1.328   8.619   7.429  3.5662 -1.3166  0.7735
  211MOL0     H29090   1.276   8.923   7.386 -0.7334 -1.1613  0.4741
  211MOL0     H29091   1.349   8.832   7.249  0.8607 -0.1550 -0.1484
  211MOL0     H29092   1.108   8.716   7.383  1.5514  0.8680  1.3122
  211MOL0     H29093   1.190   8.661   7.243 -0.5695 -0.1271  1.9438
  211MOL0     H29094   1.128   8.866   7.108 -0.8779  0.1421 -0.7732
  211MOL0     H29095   1.043   8.932   7.255 -2.7088 -0.6631 -0.0119
  211MOL0     H29096   0.864   8.836   7.120 -2.4244 -2.6199 -3.8305
  211MOL0     H29097   0.915   8.716   7.247 -0.2437  0.7700 -0.8643
  211MOL0     H29098   1.975   8.848   7.665 -2.6580 -0.6398 -0.8838
  211MOL0     H29099   2.212   8.841   7.679  1.4377 -0.5809 -4.0222
  211MOL0     H29100   2.590   8.526   7.653  1.8434  0.4532 -4.1667
  211MOL0     H29101   2.834   8.522   7.628  3.6138 -3.8161  3.1486
  211MOL0     H29102   2.311   8.508   9.041 -2.2336 -2.7772  1.4203
  211MOL0     H29103   2.157   8.308   9.015 -1.7877  0.2564 -0.1393
  211MOL0     H29104   1.860   8.069   8.851 -1.2196  1.7610 -2.1074
  211MOL0     H29105   1.757   7.860   8.867 -1.0015  2.2674  0.5480
  211MOL0     H29106   1.742   7.487   8.774  3.5676  0.4015 -4.8727
  211MOL0     H29107   1.772   7.620   8.893  3.7859  1.4813 -0.1837
  211MOL0     H29108   1.597   7.733   8.786  2.8279 -0.0134 -1.5453
  211MOL0     H29109   1.526   7.570   8.793 -0.1918 -1.8241 -2.4422
  211MOL0     H29110   1.485   7.710   8.564 -0.5335  0.1551 -1.2606
  211MOL0     H29111   1.657   7.695   8.539  1.5952 -1.6178  2.6034
  211MOL0     H29112   1.647   7.470   8.498 -0.0443 -0.4852 -0.0568
  211MOL0     H29113   1.517   7.535   8.403  1.0225  1.7772  0.3430
  211MOL0     H29114   1.296   7.349   8.714  0.6633  1.4634  1.1331
  211MOL0     H29115   2.027   7.720   8.557 -1.5090 -0.3324 -1.1269
  211MOL0     H29116   2.086   8.015   8.414 -2.0094  0.5053  0.9796
  211MOL0     H29117   2.218   8.038   8.539  1.2778 -0.9523  1.4402
  211MOL0     H29118   2.184   7.877   8.483  1.1619  1.0505  0.6168
  212MOL0     O29119   2.888   4.453   7.629 -0.2068  0.0041  0.2920
  212MOL0     C29120   2.859   4.569   7.591  0.5028  0.1905 -0.4757
  212MOL0     O29121   2.924   4.680   7.629  0.3547 -0.4264 -0.3994
  212MOL0     C29122   3.049   4.673   7.676  0.1530  0.3635 -0.1893
  212MOL0     C29123   3.092   4.739   7.785 -0.0833  0.1128 -0.1102
  212MOL0     C29124   3.221   4.724   7.828 -0.1283 -0.9107 -0.5600
  212MOL0     C29125   3.322   4.655   7.759  0.2448  0.4160  0.0149
  212MOL0     O29126   3.452   4.651   7.805 -0.1563  0.4814 -0.3308
  212MOL0     C29127   3.504   4.769   7.874 -0.1478  0.3857  0.1546
  212MOL0     C29128   3.632   4.819   7.800 -1.0527  0.6301 -0.2560
  212MOL0     C29129   3.756   4.824   7.887 -0.5743 -0.6533 -0.5752
  212MOL0     C29130   3.796   4.680   7.924  0.2405  0.3853 -0.7344
  212MOL0     C29131   3.926   4.659   8.005  0.2166 -0.1311  0.3554
  212MOL0     C29132   4.041   4.691   7.910  0.0013  0.4266 -0.4527
  212MOL0     C29133   4.177   4.666   7.961 -0.1187 -0.2803 -0.0336
  212MOL0     C29134   4.234   4.771   8.065 -0.7858  0.6180  0.3375
  212MOL0     N29135   4.355   4.709   8.129 -0.0330  0.3293 -0.6198
  212MOL0     C29136   4.368   4.586   8.190  0.2276  0.1757 -0.0672
  212MOL0     C29137   4.492   4.604   8.247  0.1309 -0.2425  0.4199
  212MOL0     C29138   4.559   4.508   8.335 -0.8206 -0.6267 -0.1182
  212MOL0     C29139   4.584   4.367   8.280 -1.3805 -0.2050  1.0172
  212MOL0     C29140   4.650   4.266   8.375 -0.0362 -0.0512  0.5024
  212MOL0     C29141   4.799   4.275   8.388 -1.0714 -0.4353 -0.1321
  212MOL0     O29142   4.843   4.143   8.427  0.8918  0.1688 -0.0514
  212MOL0     C29143   4.806   4.084   8.549 -0.8752  0.3502  0.1165
  212MOL0     C29144   4.819   3.942   8.553 -0.7878 -0.0344 -0.6208
  212MOL0     C29145   4.780   3.866   8.660 -0.1517 -0.0699 -0.2112
  212MOL0     C29146   4.814   3.713   8.660 -0.0958 -0.4020  0.5162
  212MOL0     C29147   4.707   3.931   8.768 -0.9889  0.4414  1.0341
  212MOL0     C29148   4.664   3.867   8.886  0.6195 -0.2920  0.3329
  212MOL0     O29149   4.558   3.921   8.951 -0.1756  0.0543 -0.0581
  212MOL0     C29150   4.478   3.835   9.035 -0.7862 -0.0309 -0.5290
  212MOL0     C29151   4.451   3.892   9.157  0.2351  0.0154 -0.5421
  212MOL0     C29152   4.360   3.821   9.240  0.4459 -0.5518 -0.3078
  212MOL0     C29153   4.306   3.694   9.205 -0.7605 -0.1370 -0.6493
  212MOL0     O29154   4.187   3.668   9.279  0.3537  0.6866 -0.2003
  212MOL0     C29155   4.110   3.548   9.274 -0.7344  1.2970 -0.0356
  212MOL0     C29156   4.029   3.510   9.401  0.0429  0.5178  0.2363
  212MOL0     C29157   3.920   3.609   9.437  0.0073  0.4085 -0.5957
  212MOL0     C29158   3.823   3.585   9.563 -0.3729  0.2084  0.9081
  212MOL0     C29159   3.743   3.712   9.593 -0.0011  0.0222 -0.0563
  212MOL0     C29160   3.612   3.674   9.654  0.6555 -0.4669 -0.1042
  212MOL0     C29161   3.645   3.638   9.802  0.5388  1.0085 -0.5384
  212MOL0     C29162   3.541   3.526   9.846 -0.0251  0.2306  0.0148
  212MOL0    Cl29163   3.552   3.486  10.016 -0.3683 -0.0010  0.2479
  212MOL0     C29164   4.345   3.637   9.082 -0.5108  0.5730  1.0887
  212MOL0     C29165   4.431   3.707   9.000 -1.0609  0.2979  0.4762
  212MOL0     O29166   4.729   3.766   8.925 -0.5791 -0.6161  0.2399
  212MOL0     C29167   4.704   4.069   8.768  0.3222  0.0696  0.5257
  212MOL0     C29168   4.749   4.149   8.664  0.1619 -0.1228  0.6047
  212MOL0     N29169   4.542   4.718   8.209 -0.8372 -0.1870  0.1631
  212MOL0     N29170   4.463   4.791   8.145 -0.0199 -0.2949 -0.2172
  212MOL0     C29171   3.284   4.592   7.643 -0.3099  0.6755 -0.1187
  212MOL0     C29172   3.146   4.600   7.602 -0.5251  0.2206 -1.4121
  212MOL0     C29173   2.729   4.584   7.518  0.1910  1.2104  0.3908
  212MOL0     C29174   2.623   4.619   7.595  0.2208 -0.8911  0.3607
  212MOL0     C29175   2.495   4.622   7.534  0.6418 -0.2678  0.8578
  212MOL0     C29176   2.483   4.586   7.403  0.6213 -0.3361 -0.1910
  212MOL0     O29177   2.368   4.586   7.333  0.7430  0.7807 -0.8921
  212MOL0     C29178   2.244   4.636   7.382  0.4333 -0.0464  0.2399
  212MOL0     C29179   2.127   4.594   7.290 -0.2067 -0.3272 -0.0666
  212MOL0     C29180   1.993   4.584   7.371 -0.7172  0.2234 -0.3959
  212MOL0     C29181   1.876   4.564   7.281 -0.8628 -0.0033  0.4666
  212MOL0     C29182   1.898   4.454   7.183  0.4782  0.4158 -0.7365
  212MOL0     C29183   1.924   4.348   7.122 -0.0987  0.3481 -0.5414
  212MOL0     C29184   2.591   4.560   7.327  0.4073  0.6579 -0.3467
  212MOL0     C29185   2.721   4.545   7.385 -0.5742  0.6236  0.7161
  212MOL0     C29186   2.846   4.502   7.308  0.1550 -0.1738 -0.1984
  212MOL0     H29187   3.008   4.782   7.839 -0.8669  0.2952 -1.4308
  212MOL0     H29188   3.242   4.766   7.926 -1.5569  1.3151 -1.1306
  212MOL0     H29189   3.524   4.738   7.977  1.4083  0.1097 -0.2051
  212MOL0     H29190   3.435   4.854   7.871 -1.8081 -0.9345 -1.4739
  212MOL0     H29191   3.650   4.770   7.703 -1.6570 -0.2597  0.0635
  212MOL0     H29192   3.620   4.926   7.780  0.2226  1.2867  2.1172
  212MOL0     H29193   3.843   4.872   7.842  1.2978 -1.7672  1.6742
  212MOL0     H29194   3.724   4.875   7.978 -0.0544 -2.7614  0.8584
  212MOL0     H29195   3.711   4.640   7.979  0.1377  1.6433  0.0534
  212MOL0     H29196   3.810   4.631   7.827  0.7553  0.8984 -0.9281
  212MOL0     H29197   3.940   4.555   8.034  0.1486  0.1755  1.5648
  212MOL0     H29198   3.927   4.712   8.101 -2.4476  2.9703 -1.1421
  212MOL0     H29199   4.024   4.627   7.822 -2.0090  0.8109 -0.4018
  212MOL0     H29200   4.038   4.798   7.887 -0.6463  0.6717  0.6949
  212MOL0     H29201   4.260   4.652   7.891  0.9857 -0.3756  1.2690
  212MOL0     H29202   4.160   4.577   8.021 -1.3480 -0.0030  0.0636
  212MOL0     H29203   4.270   4.860   8.013  0.0961 -0.9498 -1.8854
  212MOL0     H29204   4.167   4.795   8.148 -1.1063 -4.8239  2.0373
  212MOL0     H29205   4.305   4.505   8.224  1.7398 -0.4327  1.4397
  212MOL0     H29206   4.494   4.494   8.422 -0.4045 -3.2174 -0.1284
  212MOL0     H29207   4.653   4.547   8.376 -1.4934 -0.5290  1.4031
  212MOL0     H29208   4.492   4.320   8.244 -0.5804 -0.1302 -1.3174
  212MOL0     H29209   4.646   4.376   8.190 -2.0495  1.2513  0.6787
  212MOL0     H29210   4.612   4.251   8.476 -0.1002 -1.9187  0.2333
  212MOL0     H29211   4.631   4.172   8.323  1.5789  0.8396 -1.9183
  212MOL0     H29212   4.861   4.295   8.300  1.8745 -1.5217  1.5472
  212MOL0     H29213   4.817   4.354   8.462 -4.0113 -1.3151  1.7010
  212MOL0     H29214   4.887   3.899   8.480  0.6008 -3.4598  2.4135
  212MOL0     H29215   4.829   3.685   8.555  0.2023 -1.2502  0.7740
  212MOL0     H29216   4.737   3.646   8.699  0.5151 -1.3493  0.1447
  212MOL0     H29217   4.904   3.684   8.716  1.2163  0.0528 -1.2478
  212MOL0     H29218   4.498   3.982   9.195  5.2613 -3.6418  3.3016
  212MOL0     H29219   4.331   3.865   9.335  0.4782 -0.9471 -0.1133
  212MOL0     H29220   4.055   3.544   9.179  2.6461 -0.5267 -2.1467
  212MOL0     H29221   4.177   3.461   9.268 -2.4297 -0.1615  1.2186
  212MOL0     H29222   3.984   3.412   9.383  2.2443 -0.8440  1.7347
  212MOL0     H29223   4.098   3.512   9.485  0.6508  0.9055 -0.2654
  212MOL0     H29224   3.860   3.618   9.346 -1.9565  0.2025  0.6233
  212MOL0     H29225   3.976   3.702   9.449  2.1737 -1.0903  1.8292
  212MOL0     H29226   3.865   3.552   9.659  1.2334  2.6899  1.1535
  212MOL0     H29227   3.760   3.502   9.531  0.4530  0.2675 -0.9919
  212MOL0     H29228   3.795   3.776   9.665 -1.1994  0.2165  0.6829
  212MOL0     H29229   3.724   3.757   9.495 -0.9477 -1.0563 -0.3974
  212MOL0     H29230   3.544   3.601   9.609  1.7423 -0.2975 -2.1662
  212MOL0     H29231   3.563   3.771   9.661  2.0192  0.2044  0.5294
  212MOL0     H29232   3.623   3.728   9.860  2.2183  1.2545 -0.2410
  212MOL0     H29233   3.750   3.613   9.818 -0.1923 -0.5285  2.4897
  212MOL0     H29234   3.564   3.437   9.786 -3.9477  0.6446 -2.4268
  212MOL0     H29235   3.442   3.561   9.817  1.1568  2.3728 -1.8039
  212MOL0     H29236   4.311   3.541   9.043  2.1779 -0.6802  1.6228
  212MOL0     H29237   4.460   3.673   8.901  0.7114  1.2453  0.6296
  212MOL0     H29238   4.665   4.122   8.854 -0.5450 -0.7451  0.6517
  212MOL0     H29239   4.748   4.258   8.668  0.5510 -0.1621  2.2278
  212MOL0     H29240   3.358   4.553   7.574 -3.3114 -1.7341 -2.2998
  212MOL0     H29241   3.105   4.565   7.508 -1.1579  0.0611 -1.0871
  212MOL0     H29242   2.627   4.641   7.701 -2.9524  0.6574  0.2680
  212MOL0     H29243   2.408   4.655   7.589  0.5671  1.6480 -0.3052
  212MOL0     H29244   2.234   4.593   7.482  4.7165 -1.2101  0.3695
  212MOL0     H29245   2.255   4.744   7.398  2.5875 -0.1958 -0.0055
  212MOL0     H29246   2.150   4.492   7.259  0.4953 -0.5170  1.0193
  212MOL0     H29247   2.131   4.661   7.204  0.4808 -1.8749 -1.2954
  212MOL0     H29248   2.003   4.501   7.442  3.2708 -1.5076 -2.6726
  212MOL0     H29249   1.974   4.672   7.434  2.0826 -0.4105  1.4895
  212MOL0     H29250   1.854   4.654   7.224 -4.5886 -1.4862 -0.7007
  212MOL0     H29251   1.785   4.538   7.335 -0.9784  1.7490  1.1589
  212MOL0     H29252   1.935   4.265   7.056  3.2476 -1.1785  1.6574
  212MOL0     H29253   2.586   4.543   7.220  0.7964  4.3289 -1.0741
  212MOL0     H29254   2.902   4.427   7.363 -0.3390 -2.1177 -2.2061
  212MOL0     H29255   2.804   4.450   7.221  0.0644  0.5784 -0.6189
  212MOL0     H29256   2.898   4.595   7.283 -1.5367  0.8092 -0.2082
  213MOL0     O29257   4.468  10.243  10.528 -0.1854 -0.1616 -0.1720
  213MOL0     C29258   4.391  10.207  10.619 -1.0941 -0.3862 -0.4143
  213MOL0     O29259   4.297  10.292  10.678 -0.4455 -0.1219  0.4757
  213MOL0     C29260   4.277  10.415  10.615  0.0190 -0.5334 -0.2325
  213MOL0     C29261   4.333  10.534  10.665 -0.5735 -0.2006  0.2968
  213MOL0     C29262   4.273  10.658  10.630 -0.4827 -0.1869  0.0178
  213MOL0     C29263   4.147  10.662  10.569 -0.0221  1.5144  0.2077
  213MOL0     O29264   4.078  10.779  10.556 -0.1451  0.3843  0.1071
  213MOL0     C29265   4.053  10.860  10.667 -0.6752  0.1618  0.5424
  213MOL0     C29266   3.982  10.986  10.637  0.5117  0.6216  0.6728
  213MOL0     C29267   4.065  11.103  10.563  0.2806  0.0530 -0.0308
  213MOL0     C29268   4.179  11.154  10.646  0.3696  0.4405  0.7553
  213MOL0     C29269   4.241  11.291  10.605 -0.4759  0.4411  0.2117
  213MOL0     C29270   4.383  11.288  10.648  0.3637 -1.2901  0.5799
  213MOL0     C29271   4.429  11.442  10.649 -0.2355 -0.4303  0.1863
  213MOL0     C29272   4.429  11.513  10.783 -0.4631 -0.0280  0.0491
  213MOL0     N29273   4.514  11.444  10.885  0.2735  0.1405  1.2939
  213MOL0     C29274   4.653  11.427  10.879  0.3393  0.2829 -0.2671
  213MOL0     C29275   4.679  11.333  10.964  0.3987 -0.2628  0.7041
  213MOL0     C29276   4.821  11.273  10.966 -0.0758 -0.1507  0.6599
  213MOL0     C29277   4.922  11.352  11.056 -0.3152  0.5202  0.3315
  213MOL0     C29278   5.046  11.264  11.100  0.1070  0.1463  1.3814
  213MOL0     C29279   5.154  11.343  11.178 -0.4491  0.2669  0.7001
  213MOL0     O29280   5.191  11.453  11.095 -0.7417 -0.3772 -0.1249
  213MOL0     C29281   5.285  11.529  11.159  0.0894  0.4510  0.7888
  213MOL0     C29282   5.420  11.544  11.105  0.1604 -0.0865  0.6944
  213MOL0     C29283   5.528  11.601  11.166  0.0980 -0.4616 -0.0427
  213MOL0     C29284   5.665  11.587  11.111 -0.4620  0.2877  0.4573
  213MOL0     C29285   5.505  11.664  11.286 -0.0303  1.0449  0.0735
  213MOL0     C29286   5.615  11.720  11.367  0.3086  0.2058 -0.6903
  213MOL0     O29287   5.707  11.797  11.306 -0.2757  0.5881  0.5462
  213MOL0     C29288   5.805  11.873  11.370  1.0110 -0.9440  0.5156
  213MOL0     C29289   5.923  11.908  11.316 -0.2797 -0.0475  0.2850
  213MOL0     C29290   6.015  11.996  11.369  0.5480  0.6241  0.2145
  213MOL0     C29291   6.000  12.043  11.492  0.6169  0.5276 -0.5771
  213MOL0     O29292   6.105  12.133  11.526 -0.7616  0.3526  0.1562
  213MOL0     C29293   6.096  12.193  11.662 -1.0469  0.6826  0.3128
  213MOL0     C29294   6.238  12.239  11.702 -0.3860 -0.7816  0.0290
  213MOL0     C29295   6.246  12.334  11.822  0.3420 -0.0917  0.7919
  213MOL0     C29296   6.386  12.397  11.839 -0.0887 -0.0462 -0.4938
  213MOL0     C29297   6.396  12.495  11.956 -0.0329 -0.0862 -0.0667
  213MOL0     C29298   6.537  12.553  11.976 -0.8281  0.5992 -0.0389
  213MOL0     C29299   6.551  12.609  12.119 -0.5695 -0.2849 -0.0128
  213MOL0     C29300   6.690  12.649  12.147 -0.4062  0.3356  0.0761
  213MOL0    Cl29301   6.714  12.763  12.282 -0.0456  0.3021 -0.6211
  213MOL0     C29302   5.881  12.011  11.560  0.2622 -0.1766  0.4396
  213MOL0     C29303   5.781  11.929  11.501  0.0601 -0.4346 -0.5382
  213MOL0     O29304   5.613  11.705  11.489  0.5051 -0.4342 -1.2328
  213MOL0     C29305   5.365  11.676  11.339 -0.9641 -0.0764  0.5318
  213MOL0     C29306   5.262  11.607  11.273  0.6363  0.4629  0.7966
  213MOL0     N29307   4.563  11.304  11.030 -0.0633  0.0819  0.4015
  213MOL0     N29308   4.458  11.365  10.985 -0.4098 -0.1482  0.0149
  213MOL0     C29309   4.103  10.543  10.504 -0.1784  0.3260  0.5163
  213MOL0     C29310   4.171  10.419  10.523  0.4497 -0.8192  0.9372
  213MOL0     C29311   4.398  10.072  10.662 -0.8859 -0.3071 -0.0306
  213MOL0     C29312   4.317  10.041  10.780 -0.0757  0.4247 -0.2811
  213MOL0     C29313   4.334   9.914  10.846  0.4752 -1.1699  0.9424
  213MOL0     C29314   4.420   9.818  10.793 -0.1706  0.0902  0.4714
  213MOL0     O29315   4.441   9.699  10.862 -0.3636  0.1740 -0.2992
  213MOL0     C29316   4.337   9.624  10.914 -0.3416  0.1723  0.1470
  213MOL0     C29317   4.295   9.519  10.805  0.0999 -0.0095  0.0162
  213MOL0     C29318   4.172   9.439  10.850 -0.1101 -0.1281 -0.5755
  213MOL0     C29319   4.175   9.293  10.825 -0.7901  0.4026 -0.3754
  213MOL0     C29320   4.193   9.212  10.952  0.3210 -0.0670  0.6536
  213MOL0     C29321   4.204   9.146  11.050  0.0051 -0.5105 -0.3556
  213MOL0     C29322   4.511   9.853  10.688 -0.0208 -0.5819  0.2552
  213MOL0     C29323   4.493   9.972  10.622 -0.4929  1.4061  0.4626
  213MOL0     C29324   4.594   9.986  10.510  0.0111 -0.4603  0.0894
  213MOL0     H29325   4.417  10.523  10.734 -0.9852 -5.7411  0.4139
  213MOL0     H29326   4.324  10.750  10.658  0.4456 -1.7731  4.5080
  213MOL0     H29327   4.145  10.890  10.717  0.2359 -2.4801  0.6298
  213MOL0     H29328   3.996  10.794  10.733 -1.9274  1.0651  0.3974
  213MOL0     H29329   3.895  10.955  10.578  2.1677 -2.8372 -0.2449
  213MOL0     H29330   3.950  11.021  10.735  0.1696  0.2297  0.7046
  213MOL0     H29331   4.094  11.070  10.463  0.6364  0.3906 -0.0428
  213MOL0     H29332   4.004  11.192  10.547  2.2318  1.3617 -0.4866
  213MOL0     H29333   4.148  11.152  10.751 -1.8259 -1.7771  0.1649
  213MOL0     H29334   4.251  11.073  10.633 -0.4431 -0.4682  1.7434
  213MOL0     H29335   4.193  11.369  10.665  0.5890  0.9189  0.4634
  213MOL0     H29336   4.240  11.313  10.498 -2.2962  1.2294  0.3405
  213MOL0     H29337   4.396  11.235  10.742 -0.1883  0.2189  1.5377
  213MOL0     H29338   4.436  11.240  10.565  0.7301  1.6778 -1.0856
  213MOL0     H29339   4.350  11.493  10.594 -3.1956 -1.8976  2.7734
  213MOL0     H29340   4.527  11.455  10.601 -0.5674 -1.1591 -0.7122
  213MOL0     H29341   4.465  11.616  10.778 -0.8736  0.0493 -2.6494
  213MOL0     H29342   4.327  11.509  10.821 -0.2152 -1.0429  0.6687
  213MOL0     H29343   4.724  11.453  10.801 -0.4030  0.2305 -0.9852
  213MOL0     H29344   4.864  11.256  10.867 -0.6575 -2.8967  0.7888
  213MOL0     H29345   4.806  11.179  11.021  1.3563  0.7755  2.7749
  213MOL0     H29346   4.959  11.442  11.006 -0.2473  0.0756 -0.4334
  213MOL0     H29347   4.876  11.383  11.150 -0.2175  3.9834 -0.6276
  213MOL0     H29348   5.001  11.180  11.154 -0.5346  1.5539  3.1501
  213MOL0     H29349   5.086  11.228  11.005 -2.2992  2.8681 -0.8460
  213MOL0     H29350   5.125  11.381  11.276 -1.6903 -1.9059  1.2384
  213MOL0     H29351   5.235  11.275  11.204  1.2393  2.2355  0.8390
  213MOL0     H29352   5.441  11.482  11.018 -0.1748 -1.1053  1.3206
  213MOL0     H29353   5.656  11.540  11.012  0.9072  0.8863  0.0213
  213MOL0     H29354   5.720  11.515  11.171 -1.3853 -0.4122  0.4938
  213MOL0     H29355   5.719  11.682  11.097  1.7566 -1.3476 -4.0014
  213MOL0     H29356   5.939  11.869  11.216  2.1043 -0.0245  0.6149
  213MOL0     H29357   6.093  12.043  11.309  0.2671  2.7362  1.4143
  213MOL0     H29358   6.027  12.278  11.651 -2.4510 -0.4375  0.2175
  213MOL0     H29359   6.052  12.128  11.738 -1.1635  1.4225  0.8918
  213MOL0     H29360   6.291  12.149  11.736 -1.9483 -1.2663  1.2998
  213MOL0     H29361   6.292  12.276  11.615 -3.3398  0.1108 -1.5418
  213MOL0     H29362   6.221  12.281  11.914 -2.4029 -2.7139 -1.2479
  213MOL0     H29363   6.184  12.422  11.805  0.7661  0.1419  0.4174
  213MOL0     H29364   6.403  12.463  11.753 -0.6050  1.9834  0.8663
  213MOL0     H29365   6.457  12.315  11.855 -0.1787 -0.5149 -2.3483
  213MOL0     H29366   6.337  12.584  11.937 -0.0030 -0.2812 -1.1199
  213MOL0     H29367   6.359  12.433  12.038 -0.0333 -1.3653 -0.9889
  213MOL0     H29368   6.560  12.628  11.899 -1.5090 -0.2790 -1.1257
  213MOL0     H29369   6.612  12.474  11.967 -1.2684  0.2084 -0.3084
  213MOL0     H29370   6.511  12.537  12.192 -0.8353  1.2390  1.4086
  213MOL0     H29371   6.479  12.691  12.123 -2.5377 -1.9661  1.5264
  213MOL0     H29372   6.730  12.693  12.055 -0.7707  2.8455  1.0485
  213MOL0     H29373   6.745  12.560  12.180  0.0951  0.7836  0.4619
  213MOL0     H29374   5.852  12.061  11.652 -3.0704  2.0209 -1.5568
  213MOL0     H29375   5.690  11.916  11.558  0.5769 -1.1170  0.1558
  213MOL0     H29376   5.351  11.735  11.429  2.6554  1.5612  0.2043
  213MOL0     H29377   5.165  11.585  11.316 -0.0230 -0.1483 -0.8776
  213MOL0     H29378   4.005  10.534  10.458  0.6378 -0.7234 -1.1209
  213MOL0     H29379   4.129  10.331  10.475 -1.9984  1.5536 -1.6430
  213MOL0     H29380   4.243  10.106  10.825 -0.0119 -0.0381  0.5179
  213MOL0     H29381   4.282   9.893  10.939 -3.3258  1.7375 -0.2505
  213MOL0     H29382   4.379   9.582  11.005  1.0083 -0.2815 -0.6523
  213MOL0     H29383   4.246   9.680  10.936  0.0148  0.6077  0.5068
  213MOL0     H29384   4.380   9.454  10.781  0.0818  0.3925 -1.2012
  213MOL0     H29385   4.275   9.583  10.719 -0.5250  1.3289  1.1132
  213MOL0     H29386   4.155   9.463  10.955 -2.9612 -0.4497 -0.8990
  213MOL0     H29387   4.088   9.489  10.801 -2.9058 -2.4061  1.5722
  213MOL0     H29388   4.255   9.275  10.752 -1.7954  2.9126 -2.2107
  213MOL0     H29389   4.081   9.268  10.777 -0.6487  0.8755 -0.9154
  213MOL0     H29390   4.199   9.088  11.141 -3.1183 -3.2245 -2.0587
  213MOL0     H29391   4.598   9.795  10.661 -0.8049 -2.3509  1.3474
  213MOL0     H29392   4.627   9.899  10.453 -1.9891  1.7681 -5.1077
  213MOL0     H29393   4.557  10.048  10.428 -1.8669  0.2090  1.3701
  213MOL0     H29394   4.674  10.031  10.571 -0.9763  0.7925  0.5010
  214MOL0     O29395   8.476   4.814   6.879 -0.4443  0.3416  0.0295
  214MOL0     C29396   8.553   4.892   6.943  0.1568  0.3366  0.4325
  214MOL0     O29397   8.512   5.000   7.008  0.4613 -0.2459  0.3948
  214MOL0     C29398   8.385   5.025   7.035  0.8107  0.2051  1.1315
  214MOL0     C29399   8.292   5.076   6.935 -0.6067  0.6075 -0.3254
  214MOL0     C29400   8.161   5.088   6.973 -0.8672 -0.1407 -0.2397
  214MOL0     C29401   8.111   5.057   7.100  0.6586  0.2954 -0.2817
  214MOL0     O29402   7.975   5.072   7.125  0.3879 -0.4705 -0.0280
  214MOL0     C29403   7.918   5.114   7.248 -0.4595 -0.9847  0.1569
  214MOL0     C29404   7.948   5.257   7.293 -0.0300 -0.5346  0.1149
  214MOL0     C29405   7.930   5.347   7.171 -0.4008  0.0499  0.0926
  214MOL0     C29406   7.972   5.493   7.204  0.6226 -0.6294 -1.0193
  214MOL0     C29407   7.968   5.584   7.081 -0.4619  1.6835 -0.2142
  214MOL0     C29408   8.078   5.546   6.976 -0.4358 -0.4516  0.5524
  214MOL0     C29409   8.211   5.515   7.025  0.5386 -0.3186 -0.2373
  214MOL0     C29410   8.310   5.463   6.915 -0.7465 -0.3942 -0.2754
  214MOL0     N29411   8.340   5.569   6.809 -0.5758 -0.1047  0.2631
  214MOL0     C29412   8.275   5.577   6.693  0.4171 -0.5391  0.9792
  214MOL0     C29413   8.348   5.658   6.620  0.5826 -0.2834  0.7194
  214MOL0     C29414   8.309   5.708   6.486  0.8269 -0.2455  0.1746
  214MOL0     C29415   8.375   5.619   6.377 -0.5146  0.1652  0.0163
  214MOL0     C29416   8.270   5.514   6.331  0.0059  0.0990 -0.7081
  214MOL0     C29417   8.331   5.398   6.252  0.1029  0.8601  0.1454
  214MOL0     O29418   8.299   5.270   6.303  0.0414 -0.1599  0.2765
  214MOL0     C29419   8.310   5.174   6.208  0.2749  0.5230 -0.0323
  214MOL0     C29420   8.439   5.119   6.178 -0.9755  0.1067 -1.6574
  214MOL0     C29421   8.457   5.015   6.083  0.2611  0.0944 -0.4854
  214MOL0     C29422   8.599   4.970   6.066  0.3401  1.0548  0.3228
  214MOL0     C29423   8.339   4.956   6.032  0.5667 -0.1511  0.4127
  214MOL0     C29424   8.336   4.843   5.937  0.0422 -0.6728  0.3758
  214MOL0     O29425   8.233   4.752   5.937  0.6038  0.5848 -0.7544
  214MOL0     C29426   8.216   4.655   5.837  0.2380 -0.3157 -0.1958
  214MOL0     C29427   8.312   4.547   5.846 -0.4767  0.8778  1.3149
  214MOL0     C29428   8.321   4.449   5.744 -0.4316 -0.6634 -0.4167
  214MOL0     C29429   8.236   4.451   5.637 -0.1077 -0.0130  0.1508
  214MOL0     O29430   8.221   4.362   5.530 -0.7315  0.3930 -0.9124
  214MOL0     C29431   8.296   4.240   5.538 -0.0157 -1.0718  0.1944
  214MOL0     C29432   8.242   4.143   5.436  0.2315 -0.1882 -0.1916
  214MOL0     C29433   8.299   4.175   5.301 -0.1804  0.2450  0.2528
  214MOL0     C29434   8.251   4.063   5.204  0.4011  0.0275 -0.3251
  214MOL0     C29435   8.355   3.944   5.185  0.8360 -0.6728  0.2180
  214MOL0     C29436   8.491   3.993   5.133 -0.6333 -0.5837  0.2083
  214MOL0     C29437   8.558   3.878   5.048 -0.2797 -0.2943  0.5717
  214MOL0     C29438   8.491   3.844   4.916 -0.7939  0.3652  0.3087
  214MOL0    Cl29439   8.601   3.741   4.816 -0.6307  0.0262 -0.0695
  214MOL0     C29440   8.140   4.556   5.636 -0.6149 -0.2763 -0.0145
  214MOL0     C29441   8.128   4.658   5.731  0.0316  0.7201  0.2785
  214MOL0     O29442   8.436   4.838   5.867  0.3145 -0.7666 -0.9652
  214MOL0     C29443   8.213   5.021   6.059  0.5640  0.7747  0.3164
  214MOL0     C29444   8.196   5.125   6.146  0.2043  0.7363  0.0271
  214MOL0     N29445   8.452   5.704   6.698 -0.2184  0.2660  0.6761
  214MOL0     N29446   8.448   5.651   6.814  0.0196 -0.1062 -0.4341
  214MOL0     C29447   8.197   5.015   7.189 -0.7375 -0.0942  0.1270
  214MOL0     C29448   8.331   4.991   7.156 -0.4197 -0.1310 -0.1391
  214MOL0     C29449   8.699   4.845   6.943  0.0983  0.1516  0.3228
  214MOL0     C29450   8.723   4.708   6.931 -0.7695 -0.3756  0.6041
  214MOL0     C29451   8.853   4.663   6.950  0.9903 -0.1351  0.1937
  214MOL0     C29452   8.954   4.748   6.983 -1.2798  1.5939  0.0974
  214MOL0     O29453   9.093   4.720   6.999  0.0017 -0.1716 -0.0190
  214MOL0     C29454   9.124   4.582   7.025  0.1161  0.2455  0.3455
  214MOL0     C29455   9.066   4.533   7.162 -0.3702  0.4972 -0.6205
  214MOL0     C29456   9.104   4.630   7.279 -0.1420 -0.5511 -0.5909
  214MOL0     C29457   9.026   4.595   7.411  0.0217  0.7858 -0.6827
  214MOL0     C29458   9.058   4.453   7.449 -0.2028  0.3256  0.5377
  214MOL0     C29459   9.092   4.343   7.492 -0.5022  0.2810 -0.0558
  214MOL0     C29460   8.942   4.885   6.983  0.6198 -0.0363 -0.1636
  214MOL0     C29461   8.809   4.934   6.976  0.1301  1.1178  0.8337
  214MOL0     C29462   8.803   5.081   6.950  0.6518 -0.4887 -0.2965
  214MOL0     H29463   8.330   5.115   6.841 -2.5092  0.2018 -1.3122
  214MOL0     H29464   8.093   5.125   6.897  1.6617  1.8693 -1.6892
  214MOL0     H29465   7.959   5.045   7.323 -5.9640 -2.2838  2.4945
  214MOL0     H29466   7.809   5.112   7.260 -0.2444  0.8495  7.1895
  214MOL0     H29467   7.879   5.293   7.370  2.0181  2.4376  0.7445
  214MOL0     H29468   8.042   5.272   7.347 -0.9145  0.0353  1.5425
  214MOL0     H29469   7.999   5.306   7.097 -1.3285  1.5633 -1.6779
  214MOL0     H29470   7.829   5.340   7.132  0.1578  0.2519 -1.4649
  214MOL0     H29471   7.896   5.528   7.274 -2.5542 -4.5583 -2.0495
  214MOL0     H29472   8.066   5.499   7.258 -1.5150 -2.2917  3.3414
  214MOL0     H29473   7.974   5.689   7.111 -3.7592  2.6761 -2.5057
  214MOL0     H29474   7.868   5.564   7.043 -1.0010 -1.4229  2.4155
  214MOL0     H29475   8.053   5.452   6.926  0.4509  1.0396 -2.9723
  214MOL0     H29476   8.069   5.610   6.887  0.0404 -2.3473 -0.9319
  214MOL0     H29477   8.208   5.433   7.097  0.8514  1.0121  1.3358
  214MOL0     H29478   8.238   5.612   7.067 -1.9359  0.3577 -0.0519
  214MOL0     H29479   8.413   5.448   6.948  0.2011  1.0265 -2.3311
  214MOL0     H29480   8.269   5.371   6.872  1.6348 -0.9806 -1.4558
  214MOL0     H29481   8.178   5.536   6.666 -0.1737  0.2613  1.8206
  214MOL0     H29482   8.342   5.812   6.472 -0.7912  0.8940  3.6772
  214MOL0     H29483   8.201   5.700   6.476  0.8936  0.4637 -1.4701
  214MOL0     H29484   8.410   5.679   6.293 -1.0330 -1.1576 -1.1800
  214MOL0     H29485   8.467   5.578   6.419 -0.3868  2.4523  2.2396
  214MOL0     H29486   8.227   5.466   6.419  0.8259 -0.5717 -0.6620
  214MOL0     H29487   8.195   5.569   6.274 -2.0970 -1.4147  0.4682
  214MOL0     H29488   8.307   5.401   6.145  0.5137 -1.2022 -0.0460
  214MOL0     H29489   8.440   5.409   6.257 -0.1285  3.1519  1.0768
  214MOL0     H29490   8.523   5.157   6.234 -1.8536  1.3042 -1.1029
  214MOL0     H29491   8.612   4.884   6.134 -0.5139  0.6575 -0.0057
  214MOL0     H29492   8.675   5.044   6.093  0.3966  1.7726 -1.7002
  214MOL0     H29493   8.624   4.933   5.966 -0.2113  0.0504  0.5367
  214MOL0     H29494   8.378   4.545   5.932  1.9111 -1.9402 -0.4281
  214MOL0     H29495   8.399   4.374   5.751 -0.4898 -0.5758  2.7916
  214MOL0     H29496   8.397   4.267   5.508 -0.4485 -1.3582 -1.6078
  214MOL0     H29497   8.299   4.194   5.637 -1.5454 -2.8064 -0.4976
  214MOL0     H29498   8.285   4.047   5.464 -1.4993 -0.2159  2.8144
  214MOL0     H29499   8.135   4.125   5.425  0.1116  1.8162 -4.9332
  214MOL0     H29500   8.407   4.165   5.311 -0.4001 -2.1213  1.0918
  214MOL0     H29501   8.250   4.266   5.268  0.2355  1.3368  2.4662
  214MOL0     H29502   8.235   4.109   5.106 -0.1365 -1.4184 -0.9574
  214MOL0     H29503   8.161   4.012   5.240 -2.6460  3.5682 -2.1616
  214MOL0     H29504   8.375   3.891   5.279  2.4496 -0.7742 -0.1491
  214MOL0     H29505   8.318   3.884   5.101  4.5598 -2.6537 -0.2307
  214MOL0     H29506   8.555   4.013   5.219  0.3312 -0.1336 -0.5920
  214MOL0     H29507   8.480   4.085   5.075  0.1847 -1.1686 -0.9196
  214MOL0     H29508   8.545   3.781   5.097 -4.3294 -0.3074 -0.2106
  214MOL0     H29509   8.664   3.903   5.034 -0.5594  0.5719 -0.0305
  214MOL0     H29510   8.463   3.937   4.865 -2.0577  1.3651  2.6654
  214MOL0     H29511   8.397   3.790   4.930 -1.3846  1.4860  0.7962
  214MOL0     H29512   8.065   4.559   5.557 -3.2368 -0.3590  2.3295
  214MOL0     H29513   8.047   4.730   5.727 -3.1909 -2.6624 -1.1881
  214MOL0     H29514   8.122   4.984   6.013  2.6177 -0.7744 -2.8623
  214MOL0     H29515   8.098   5.164   6.171 -0.5106 -1.6393  1.2042
  214MOL0     H29516   8.168   4.988   7.290  0.7579  1.7592  1.1369
  214MOL0     H29517   8.405   4.955   7.227  0.4810  1.9380  0.0453
  214MOL0     H29518   8.644   4.637   6.906 -0.0533 -0.4768 -1.5758
  214MOL0     H29519   8.881   4.559   6.936 -0.7809 -1.1488  3.2069
  214MOL0     H29520   9.101   4.522   6.937  5.4459  1.9867 -2.6360
  214MOL0     H29521   9.231   4.559   7.033  0.4228  1.6228  0.3735
  214MOL0     H29522   9.115   4.437   7.182  3.0100  2.0031 -0.8519
  214MOL0     H29523   8.958   4.519   7.151 -0.3586  1.4332 -2.4263
  214MOL0     H29524   9.209   4.644   7.305 -0.9765  5.6029  1.1674
  214MOL0     H29525   9.080   4.733   7.251 -1.9837 -1.4593 -2.6267
  214MOL0     H29526   8.917   4.603   7.399  0.1856  0.6203 -2.5417
  214MOL0     H29527   9.043   4.658   7.499 -0.2374 -1.8424  1.3549
  214MOL0     H29528   9.126   4.249   7.531 -1.9084  0.1242  0.8620
  214MOL0     H29529   9.027   4.949   7.002 -0.7961  2.0704 -0.6014
  214MOL0     H29530   8.745   5.095   6.859 -1.3978 -0.8817  0.8651
  214MOL0     H29531   8.754   5.133   7.033  1.3504  0.7888 -0.6506
  214MOL0     H29532   8.905   5.118   6.943 -0.2297  1.8856 -1.7605
  215MOL0     O29533   5.411   5.277   0.820  0.0510  0.7794 -0.1018
  215MOL0     C29534   5.373   5.167   0.862  0.2706  0.2403  0.4735
  215MOL0     O29535   5.299   5.075   0.787  0.3594 -0.6203  0.3127
  215MOL0     C29536   5.289   5.084   0.647  0.4899 -0.1149 -0.5989
  215MOL0     C29537   5.175   5.020   0.596  0.2785 -0.1810  0.3961
  215MOL0     C29538   5.163   5.002   0.452  1.0126 -0.4980 -1.6246
  215MOL0     C29539   5.263   5.042   0.364 -0.4571 -0.6091 -0.1740
  215MOL0     O29540   5.222   5.004   0.239  0.8441 -0.1684  0.2509
  215MOL0     C29541   5.311   5.046   0.135  0.2579  0.4412  1.0159
  215MOL0     C29542   5.273   4.990   0.001  0.3316 -0.4845 -0.3216
  215MOL0     C29543   5.182   5.091  -0.073 -0.1592  0.0125 -0.1860
  215MOL0     C29544   5.199   5.105  -0.228 -0.3831 -0.2573 -0.0882
  215MOL0     C29545   5.341   5.141  -0.269  0.1082 -0.1442 -0.6192
  215MOL0     C29546   5.395   5.266  -0.193  0.2906  0.8567 -0.0465
  215MOL0     C29547   5.542   5.284  -0.222 -0.6079 -1.1653  0.2780
  215MOL0     C29548   5.647   5.185  -0.171  0.3646 -0.5100  0.7349
  215MOL0     N29549   5.670   5.201  -0.029 -0.1443  0.7047 -0.2462
  215MOL0     C29550   5.749   5.298   0.030  0.5677 -0.3293 -0.5191
  215MOL0     C29551   5.739   5.278   0.166  0.0697  0.4256 -0.3743
  215MOL0     C29552   5.786   5.375   0.275  0.0477  0.8823  0.2331
  215MOL0     C29553   5.720   5.350   0.407 -0.0307 -0.7487  0.0980
  215MOL0     C29554   5.764   5.456   0.500  0.2978 -0.1901 -0.2121
  215MOL0     C29555   5.714   5.432   0.639  0.6117 -0.2728 -1.1223
  215MOL0     O29556   5.768   5.529   0.739  0.8307 -0.2953 -0.5203
  215MOL0     C29557   5.695   5.646   0.738 -0.5258  0.4892 -0.9540
  215MOL0     C29558   5.561   5.666   0.697 -0.4595  0.6988  0.6944
  215MOL0     C29559   5.498   5.795   0.696  1.1993 -0.3090  0.2573
  215MOL0     C29560   5.361   5.789   0.646  0.0841 -0.2439 -0.5031
  215MOL0     C29561   5.568   5.911   0.725  0.5699 -0.4800 -0.4202
  215MOL0     C29562   5.516   6.051   0.699 -0.5901 -0.5720 -0.0318
  215MOL0     O29563   5.412   6.073   0.609 -0.0544 -0.2671 -0.3454
  215MOL0     C29564   5.389   6.204   0.561 -1.1666  0.8527 -0.3462
  215MOL0     C29565   5.262   6.247   0.538 -0.2059  0.6422  0.5456
  215MOL0     C29566   5.233   6.362   0.475 -0.7203  0.0892  0.6593
  215MOL0     C29567   5.345   6.445   0.434  0.3492  0.7847  0.3036
  215MOL0     O29568   5.329   6.565   0.378 -0.3513 -0.6878  0.1663
  215MOL0     C29569   5.235   6.657   0.429  0.1230  0.1706  0.2737
  215MOL0     C29570   5.283   6.803   0.429  0.5051  0.4952 -0.3513
  215MOL0     C29571   5.221   6.906   0.526  0.2300 -0.7848 -0.2276
  215MOL0     C29572   5.237   7.045   0.469 -0.6714  0.5772  0.7858
  215MOL0     C29573   5.177   7.147   0.558 -0.3469  0.2558  0.5365
  215MOL0     C29574   5.197   7.295   0.499  0.1301 -0.2916 -0.7817
  215MOL0     C29575   5.343   7.343   0.484 -0.4593  0.0733  0.2736
  215MOL0     C29576   5.405   7.356   0.615  0.5078  0.6282 -0.0111
  215MOL0    Cl29577   5.577   7.417   0.606  0.1577 -0.2867 -0.3656
  215MOL0     C29578   5.477   6.402   0.444  0.2641 -0.1908 -0.3605
  215MOL0     C29579   5.500   6.280   0.510  0.0721 -0.0973 -0.2262
  215MOL0     O29580   5.574   6.135   0.773 -0.3967 -0.1214  0.4883
  215MOL0     C29581   5.701   5.892   0.780 -0.0275  0.2690 -0.5838
  215MOL0     C29582   5.769   5.764   0.783  0.0876 -0.0102  0.2370
  215MOL0     N29583   5.657   5.164   0.171  0.6303  0.4031  0.6962
  215MOL0     N29584   5.624   5.112   0.059  0.1863 -0.0540  0.5524
  215MOL0     C29585   5.387   5.103   0.416 -0.6310  0.1403  1.1952
  215MOL0     C29586   5.389   5.129   0.556  0.4218 -0.7803  0.0657
  215MOL0     C29587   5.411   5.118   0.995 -0.0455 -0.0100  0.5511
  215MOL0     C29588   5.356   4.994   1.040  0.5367  0.3175  0.6223
  215MOL0     C29589   5.392   4.940   1.163  0.2500 -0.7274 -0.3393
  215MOL0     C29590   5.470   5.005   1.248 -0.5229  0.2455  0.6241
  215MOL0     O29591   5.514   4.933   1.364  0.2442 -0.9342 -0.0300
  215MOL0     C29592   5.574   5.012   1.467 -0.7555  0.1371 -0.3602
  215MOL0     C29593   5.536   4.950   1.603 -0.7233 -0.1722  0.6325
  215MOL0     C29594   5.575   4.799   1.598 -0.5627 -0.0672 -0.2462
  215MOL0     C29595   5.573   4.743   1.741 -0.2637  0.6221  0.1746
  215MOL0     C29596   5.671   4.803   1.839  0.0578 -0.5452  1.1083
  215MOL0     C29597   5.742   4.867   1.912  1.1767  0.3784  0.6701
  215MOL0     C29598   5.505   5.143   1.220 -0.1418  0.3165  0.0547
  215MOL0     C29599   5.480   5.202   1.091 -0.2140 -0.3701 -0.8952
  215MOL0     C29600   5.536   5.338   1.063 -0.4493 -1.1255 -0.4771
  215MOL0     H29601   5.098   4.984   0.664 -0.4842  0.5938 -0.0320
  215MOL0     H29602   5.071   4.964   0.408  2.4451 -1.2567 -4.1795
  215MOL0     H29603   5.406   5.011   0.176 -0.6935 -1.9843  1.3202
  215MOL0     H29604   5.312   5.155   0.127 -4.3858  0.7857  1.8515
  215MOL0     H29605   5.368   4.962  -0.044  0.6892  0.5730 -0.2302
  215MOL0     H29606   5.215   4.898   0.020 -0.6614  0.6523  2.8693
  215MOL0     H29607   5.077   5.061  -0.060 -0.2594  0.4345 -0.0074
  215MOL0     H29608   5.186   5.197  -0.048  0.8862 -0.4030  1.6153
  215MOL0     H29609   5.164   5.014  -0.276  3.4790 -1.3381 -1.1658
  215MOL0     H29610   5.142   5.193  -0.260  1.2003  1.5766  1.8204
  215MOL0     H29611   5.326   5.148  -0.377  1.1509 -3.5198 -1.0875
  215MOL0     H29612   5.408   5.056  -0.255  0.7844  0.5060  0.1916
  215MOL0     H29613   5.341   5.354  -0.229 -1.9520 -0.4069  0.0501
  215MOL0     H29614   5.384   5.260  -0.084 -4.0131  2.8897 -0.1733
  215MOL0     H29615   5.571   5.380  -0.178 -1.8962 -0.8253  0.4213
  215MOL0     H29616   5.551   5.295  -0.330  1.6550  3.5907  0.6658
  215MOL0     H29617   5.628   5.084  -0.208 -0.5978 -0.0589 -0.0540
  215MOL0     H29618   5.737   5.218  -0.224 -0.8761  0.6648 -0.7547
  215MOL0     H29619   5.786   5.389  -0.016  3.5010 -2.0043 -1.7749
  215MOL0     H29620   5.755   5.472   0.233  0.9001  0.0547 -2.5605
  215MOL0     H29621   5.893   5.361   0.288  0.0472 -1.9255 -1.9625
  215MOL0     H29622   5.611   5.359   0.412  0.0014 -0.7592  1.0945
  215MOL0     H29623   5.742   5.250   0.444 -1.5155 -1.2470 -0.2951
  215MOL0     H29624   5.874   5.460   0.502  0.3325 -0.7694 -0.5501
  215MOL0     H29625   5.745   5.557   0.463  1.0076  0.1668  0.3712
  215MOL0     H29626   5.608   5.409   0.646  0.3806  0.9772 -0.0481
  215MOL0     H29627   5.746   5.336   0.680 -3.9115 -1.9512 -0.9741
  215MOL0     H29628   5.494   5.587   0.664  1.5519 -0.3526 -1.1877
  215MOL0     H29629   5.300   5.702   0.671 -5.3644  3.2686  0.2916
  215MOL0     H29630   5.366   5.789   0.536 -0.7984  0.6477 -0.5573
  215MOL0     H29631   5.300   5.874   0.679 -0.9370 -0.4979 -1.6443
  215MOL0     H29632   5.190   6.177   0.579 -2.3320  0.0394 -3.6690
  215MOL0     H29633   5.132   6.392   0.449 -0.0853  0.4112 -1.7054
  215MOL0     H29634   5.135   6.641   0.387  0.2319 -3.1097  1.0140
  215MOL0     H29635   5.227   6.631   0.535 -0.1722 -0.7984  0.0283
  215MOL0     H29636   5.392   6.811   0.430  0.4631  1.1616 -0.5729
  215MOL0     H29637   5.263   6.839   0.328 -1.2958  1.5929  0.3480
  215MOL0     H29638   5.264   6.907   0.627 -2.9175  3.6900  1.3956
  215MOL0     H29639   5.114   6.885   0.536  0.6154 -3.4175 -0.9732
  215MOL0     H29640   5.190   7.050   0.371 -0.7630  2.6818  0.8800
  215MOL0     H29641   5.340   7.073   0.446 -0.4811  2.2612  3.2499
  215MOL0     H29642   5.074   7.132   0.590 -0.1725  0.5806  1.2933
  215MOL0     H29643   5.221   7.133   0.657  1.7163  0.1286 -0.3494
  215MOL0     H29644   5.151   7.362   0.573  5.3856  0.6954  2.1229
  215MOL0     H29645   5.145   7.310   0.404 -1.1413 -2.7074 -0.5540
  215MOL0     H29646   5.346   7.443   0.441  0.2403  1.8974  4.1006
  215MOL0     H29647   5.389   7.269   0.418 -0.7121  0.3456 -0.2085
  215MOL0     H29648   5.392   7.269   0.679  0.4939  0.6956  0.0791
  215MOL0     H29649   5.350   7.437   0.665 -2.5515 -2.1239  1.4488
  215MOL0     H29650   5.552   6.468   0.403  0.0690 -1.8441 -3.7063
  215MOL0     H29651   5.601   6.241   0.516 -0.6957 -2.6836 -2.2019
  215MOL0     H29652   5.738   5.980   0.832 -0.9347 -0.0429  0.6239
  215MOL0     H29653   5.873   5.750   0.811 -0.0606  0.5821  1.0977
  215MOL0     H29654   5.467   5.134   0.350 -1.2916  3.2371  1.6732
  215MOL0     H29655   5.483   5.171   0.589 -0.9550  1.4704  1.3359
  215MOL0     H29656   5.296   4.943   0.965  1.3616  0.4399 -0.1377
  215MOL0     H29657   5.374   4.837   1.191  0.6230 -0.5309  0.6734
  215MOL0     H29658   5.682   5.005   1.454 -0.5843  0.6135  0.7365
  215MOL0     H29659   5.545   5.117   1.469 -1.4954 -0.0596  1.3588
  215MOL0     H29660   5.430   4.955   1.629 -1.8459 -3.1473 -2.6404
  215MOL0     H29661   5.592   4.994   1.686  1.0569 -1.8438  0.3845
  215MOL0     H29662   5.502   4.741   1.540  0.1959 -0.9578 -0.3195
  215MOL0     H29663   5.670   4.793   1.546 -1.1719  0.0926 -1.4191
  215MOL0     H29664   5.584   4.634   1.734 -0.8105  0.5802 -0.0248
  215MOL0     H29665   5.473   4.757   1.783  0.0827 -2.3778  2.3473
  215MOL0     H29666   5.781   4.926   1.993  1.2865 -1.0570  1.7104
  215MOL0     H29667   5.546   5.217   1.288 -0.0455  1.0194 -0.7579
  215MOL0     H29668   5.599   5.367   1.148  0.1502 -1.7767 -0.6877
  215MOL0     H29669   5.594   5.323   0.972 -3.0587 -1.6838 -2.1513
  215MOL0     H29670   5.457   5.409   1.039  1.2089  0.7809 -0.5275
  216MOL0     O29671   4.341   9.715   3.284 -0.3614 -0.2417  0.7685
  216MOL0     C29672   4.250   9.657   3.226  0.7058  0.4817  0.5333
  216MOL0     O29673   4.199   9.536   3.262 -0.1784  0.0866  1.0465
  216MOL0     C29674   4.220   9.489   3.388  1.3059 -0.4306  0.1519
  216MOL0     C29675   4.132   9.504   3.497 -0.3755 -0.4776  0.4583
  216MOL0     C29676   4.172   9.474   3.628 -1.3229 -0.0578 -0.4288
  216MOL0     C29677   4.295   9.403   3.646 -0.1403 -0.3564  0.2611
  216MOL0     O29678   4.322   9.358   3.772  0.1047 -0.2258  0.7184
  216MOL0     C29679   4.445   9.393   3.844 -0.5704 -0.3915  1.3860
  216MOL0     C29680   4.454   9.319   3.976 -0.5716  0.0211 -1.1980
  216MOL0     C29681   4.598   9.345   4.024 -0.0832  0.6346 -0.3373
  216MOL0     C29682   4.615   9.274   4.165  0.3838 -0.4251  0.1124
  216MOL0     C29683   4.756   9.302   4.216  0.8416  0.4439 -0.0520
  216MOL0     C29684   4.780   9.460   4.243 -0.7131 -0.2498  0.6828
  216MOL0     C29685   4.898   9.472   4.339  0.8395  1.1288 -0.2057
  216MOL0     C29686   4.919   9.626   4.361 -1.0527 -0.0364  0.5301
  216MOL0     N29687   4.817   9.699   4.426  1.0014 -0.1110  0.5636
  216MOL0     C29688   4.712   9.768   4.356  0.1656 -0.0936 -0.4477
  216MOL0     C29689   4.650   9.834   4.458 -0.4969 -0.5772 -0.5930
  216MOL0     C29690   4.540   9.932   4.443  0.1365 -0.0975  0.5145
  216MOL0     C29691   4.421   9.910   4.546  0.1357  0.2088  0.3019
  216MOL0     C29692   4.309  10.008   4.520 -1.0225 -0.1567 -0.1560
  216MOL0     C29693   4.228  10.021   4.642  0.1893 -0.9511  0.4282
  216MOL0     O29694   4.101  10.073   4.600 -0.5431  0.1788  0.3012
  216MOL0     C29695   3.982  10.020   4.642 -0.4491 -0.4882 -0.9076
  216MOL0     C29696   3.878  10.013   4.556  0.1584 -0.2331  0.7894
  216MOL0     C29697   3.754   9.964   4.588  1.1575  0.3916  0.3270
  216MOL0     C29698   3.655   9.935   4.476  0.1930  1.0553  0.7817
  216MOL0     C29699   3.732   9.919   4.721 -0.8753  0.2914 -0.2864
  216MOL0     C29700   3.602   9.883   4.778  0.9246  1.0074  0.7249
  216MOL0     O29701   3.584   9.897   4.911 -0.0521  0.4025  0.2738
  216MOL0     C29702   3.468   9.843   4.964  0.0946  0.5246 -0.1177
  216MOL0     C29703   3.355   9.921   4.993 -0.9349 -1.1813  0.2230
  216MOL0     C29704   3.250   9.876   5.071 -0.1362  0.3789 -0.4997
  216MOL0     C29705   3.237   9.734   5.096  1.6852 -0.1623 -1.1519
  216MOL0     O29706   3.136   9.693   5.186 -0.1075  0.4297 -0.7821
  216MOL0     C29707   3.009   9.756   5.194 -1.2628 -0.2684 -0.0607
  216MOL0     C29708   2.971   9.780   5.341 -0.6797  0.6218  0.3095
  216MOL0     C29709   3.052   9.875   5.435  0.5676  1.2033  0.3568
  216MOL0     C29710   3.197   9.832   5.446  0.1182 -0.3576 -0.1628
  216MOL0     C29711   3.287   9.930   5.533  0.1488  0.0929 -0.5867
  216MOL0     C29712   3.434   9.882   5.521  0.4300  0.3789  0.5378
  216MOL0     C29713   3.459   9.741   5.586  0.4895  0.2152  0.0231
  216MOL0     C29714   3.600   9.756   5.627 -0.2419  0.5528  0.0525
  216MOL0    Cl29715   3.653   9.609   5.720  0.1140  0.1133  0.1392
  216MOL0     C29716   3.335   9.653   5.046  0.0030  0.0034 -0.2579
  216MOL0     C29717   3.449   9.706   4.986 -0.4167  0.0982 -0.8024
  216MOL0     O29718   3.517   9.830   4.702 -0.1713  0.0285  0.1590
  216MOL0     C29719   3.841   9.941   4.811  0.0564 -0.3502 -0.3976
  216MOL0     C29720   3.967   9.982   4.772  0.6898 -0.7265  0.4305
  216MOL0     N29721   4.709   9.802   4.581 -0.2315  0.0050  0.2986
  216MOL0     N29722   4.810   9.719   4.566 -0.4507  1.4350  0.1162
  216MOL0     C29723   4.384   9.378   3.542 -0.2748 -0.5335 -0.6831
  216MOL0     C29724   4.347   9.430   3.415 -1.3225 -0.2583 -0.9740
  216MOL0     C29725   4.166   9.741   3.120 -0.0824 -0.1320 -0.1433
  216MOL0     C29726   4.037   9.697   3.070  0.7340  0.2788  0.1990
  216MOL0     C29727   3.973   9.756   2.957 -0.0166 -0.0843 -0.4150
  216MOL0     C29728   4.032   9.872   2.901 -1.1573 -0.4227  0.3037
  216MOL0     O29729   3.990   9.938   2.786 -1.2176  0.0154 -0.1755
  216MOL0     C29730   3.864   9.900   2.730  0.1140  0.1641  0.2859
  216MOL0     C29731   3.797  10.007   2.655  0.4409  0.1892  0.5764
  216MOL0     C29732   3.797  10.138   2.727 -0.8641  0.1344 -0.1996
  216MOL0     C29733   3.703  10.239   2.674  0.8109  1.0452  0.2108
  216MOL0     C29734   3.714  10.271   2.533  0.0246  0.7399  0.7453
  216MOL0     C29735   3.703  10.304   2.421 -0.0436 -0.7865  0.8347
  216MOL0     C29736   4.142   9.933   2.963 -0.4022 -0.4113  0.2429
  216MOL0     C29737   4.206   9.868   3.071 -0.7482  0.3253  0.0121
  216MOL0     C29738   4.334   9.935   3.130 -0.4202  0.0812  0.5199
  216MOL0     H29739   4.040   9.557   3.478  1.3443  3.1215  1.3340
  216MOL0     H29740   4.111   9.486   3.716  0.6908 -2.4358  1.4678
  216MOL0     H29741   4.438   9.502   3.853 -0.3381 -0.3299  0.8855
  216MOL0     H29742   4.534   9.370   3.785 -0.4036  1.8869  0.6633
  216MOL0     H29743   4.398   9.361   4.059  0.7712 -2.9661  1.4308
  216MOL0     H29744   4.438   9.212   3.958 -1.1925  0.2518 -2.1013
  216MOL0     H29745   4.671   9.311   3.950  2.1473  1.2516  1.4806
  216MOL0     H29746   4.599   9.453   4.041 -1.1164  0.2319  2.8354
  216MOL0     H29747   4.545   9.296   4.246  2.9438  1.5460  1.9427
  216MOL0     H29748   4.600   9.167   4.149 -1.1567 -0.7431  2.9662
  216MOL0     H29749   4.833   9.253   4.157  1.8738  1.4659  0.4033
  216MOL0     H29750   4.769   9.263   4.318  2.5790  3.4397  1.0200
  216MOL0     H29751   4.797   9.517   4.151  0.9402 -3.9933 -1.6091
  216MOL0     H29752   4.694   9.511   4.285 -2.4828 -1.1248 -1.6627
  216MOL0     H29753   4.995   9.436   4.302  0.7430  2.1115 -1.4665
  216MOL0     H29754   4.872   9.419   4.431 -1.4521 -0.3622 -1.6198
  216MOL0     H29755   5.017   9.646   4.406 -0.9596  0.8053 -0.0253
  216MOL0     H29756   4.933   9.674   4.264  2.3573  0.8314  1.3308
  216MOL0     H29757   4.689   9.777   4.250 -0.9539  0.9987 -0.1343
  216MOL0     H29758   4.512   9.917   4.338 -1.8941 -6.5189  1.5222
  216MOL0     H29759   4.574  10.033   4.465 -1.3545  0.8714 -1.3311
  216MOL0     H29760   4.385   9.807   4.544  1.0099 -0.2445  3.0638
  216MOL0     H29761   4.477   9.924   4.639  3.8995  2.9883 -2.0547
  216MOL0     H29762   4.351  10.108   4.504  2.0111 -1.4791 -1.1942
  216MOL0     H29763   4.249   9.982   4.432 -1.1660  2.4521 -0.9113
  216MOL0     H29764   4.215   9.923   4.690 -0.4837 -1.3285 -0.5127
  216MOL0     H29765   4.268  10.098   4.709  2.2621 -1.8710  0.3308
  216MOL0     H29766   3.908  10.053   4.460  0.2960  2.7508  1.9802
  216MOL0     H29767   3.558   9.986   4.482 -2.0573 -2.5890 -1.1283
  216MOL0     H29768   3.640   9.827   4.473  0.3290  1.0551 -0.0862
  216MOL0     H29769   3.682   9.971   4.377 -0.6722  0.5938  0.3652
  216MOL0     H29770   3.358  10.029   4.982  1.7777 -1.2773 -0.8669
  216MOL0     H29771   3.176   9.954   5.087  0.7803  2.2957 -4.3893
  216MOL0     H29772   3.012   9.855   5.146  0.6537 -1.8026 -3.4703
  216MOL0     H29773   2.927   9.699   5.149 -1.3630  0.3410 -0.6788
  216MOL0     H29774   2.867   9.807   5.361 -0.0077 -0.0192  6.8930
  216MOL0     H29775   2.974   9.678   5.382  3.1415  0.2536 -0.5641
  216MOL0     H29776   2.998   9.874   5.530  1.6796 -4.0813  1.2536
  216MOL0     H29777   3.046   9.975   5.392 -2.7836  1.2899  0.7628
  216MOL0     H29778   3.246   9.846   5.350  1.1551  2.8614  0.7057
  216MOL0     H29779   3.211   9.733   5.491  1.7739  0.5159  1.3679
  216MOL0     H29780   3.272  10.032   5.496 -0.0644  0.5218  0.6576
  216MOL0     H29781   3.262   9.923   5.639  0.1296 -1.1218 -0.6590
  216MOL0     H29782   3.495   9.962   5.563 -0.0235  1.7270 -1.2626
  216MOL0     H29783   3.473   9.873   5.419  0.8200  4.1628  0.2055
  216MOL0     H29784   3.436   9.656   5.522  0.9995 -2.1602  2.7791
  216MOL0     H29785   3.396   9.724   5.674 -1.0687  0.5409 -0.9934
  216MOL0     H29786   3.603   9.842   5.695 -0.1712 -1.2790  2.5167
  216MOL0     H29787   3.664   9.768   5.539  1.3180 -3.2727  0.4378
  216MOL0     H29788   3.331   9.545   5.047  1.3695 -0.1374 -2.5302
  216MOL0     H29789   3.526   9.634   4.960  1.5829  1.3815  1.1810
  216MOL0     H29790   3.834   9.940   4.919  0.7289  0.5532 -0.3352
  216MOL0     H29791   4.043   9.980   4.848  1.1690 -0.6092 -0.0413
  216MOL0     H29792   4.479   9.327   3.559  1.5276  1.4709 -3.6890
  216MOL0     H29793   4.402   9.419   3.322  0.4557  0.8552 -0.1069
  216MOL0     H29794   3.976   9.625   3.122 -0.4564  0.5116 -0.8147
  216MOL0     H29795   3.882   9.710   2.921 -2.7686  2.0116  3.1739
  216MOL0     H29796   3.880   9.813   2.665  0.7362  3.0395 -3.7966
  216MOL0     H29797   3.790   9.870   2.805 -2.4590  0.3242 -2.0307
  216MOL0     H29798   3.695   9.969   2.644  0.5135  0.4305 -1.2495
  216MOL0     H29799   3.839  10.017   2.554  2.9431  1.0591  1.6327
  216MOL0     H29800   3.769  10.108   2.829  1.5537 -0.3427  0.3835
  216MOL0     H29801   3.895  10.185   2.737 -0.0591 -0.9249 -2.4975
  216MOL0     H29802   3.710  10.333   2.729 -1.6381  2.5925 -1.8916
  216MOL0     H29803   3.602  10.201   2.691  1.6822 -0.4598  2.4455
  216MOL0     H29804   3.691  10.346   2.323  2.5744  2.2771  1.6291
  216MOL0     H29805   4.181  10.027   2.925 -2.3405 -0.1734 -1.3622
  216MOL0     H29806   4.336  10.039   3.097 -0.2403  0.4415  1.6213
  216MOL0     H29807   4.357   9.940   3.237  1.5997  1.1260  0.0889
  216MOL0     H29808   4.422   9.892   3.080 -0.3679  0.7432  0.0221
  217MOL0     O29809  11.037   0.112  10.860 -0.0839  0.8392  0.9214
  217MOL0     C29810  11.051   0.062  10.978  0.2151 -0.1295  0.0914
  217MOL0     O29811  11.114   0.125  11.077 -0.0766  0.2095  0.6073
  217MOL0     C29812  11.232   0.191  11.037 -0.0009 -0.4696 -0.2759
  217MOL0     C29813  11.330   0.148  10.939  0.8896  0.1979  0.1464
  217MOL0     C29814  11.421   0.241  10.890 -0.7662  0.6430 -0.2375
  217MOL0     C29815  11.448   0.360  10.947  0.3828 -0.1395 -0.3222
  217MOL0     O29816  11.521   0.452  10.886 -0.3204  0.1635  0.3530
  217MOL0     C29817  11.657   0.452  10.922 -0.0575  0.3892 -0.4078
  217MOL0     C29818  11.728   0.550  10.832  0.1321 -0.1111 -0.2985
  217MOL0     C29819  11.873   0.549  10.871  0.2160 -0.3412 -0.0627
  217MOL0     C29820  11.959   0.618  10.766 -0.3543  0.0755  0.1495
  217MOL0     C29821  12.111   0.619  10.806 -0.9734 -0.7100  0.2510
  217MOL0     C29822  12.144   0.750  10.891 -0.5901 -0.2544  0.9648
  217MOL0     C29823  12.290   0.763  10.921 -0.7375  0.3170 -0.3921
  217MOL0     C29824  12.363   0.805  10.796 -0.3232 -0.3414  0.6741
  217MOL0     N29825  12.509   0.780  10.817  0.4149 -0.6330  0.2875
  217MOL0     C29826  12.594   0.842  10.904  0.3013 -0.2394 -0.1015
  217MOL0     C29827  12.694   0.753  10.913  0.4124 -0.2875 -0.1277
  217MOL0     C29828  12.822   0.784  10.991 -0.8078 -0.0172  0.5680
  217MOL0     C29829  12.897   0.657  11.027 -0.5470  0.2606  0.3766
  217MOL0     C29830  12.977   0.678  11.153  1.0590 -0.1634 -0.3591
  217MOL0     C29831  13.070   0.554  11.181  0.3218 -0.3503  1.2175
  217MOL0     O29832  13.178   0.582  11.271  0.3934  0.0613 -0.4324
  217MOL0     C29833  13.137   0.612  11.394  0.8419  0.0495 -0.7264
  217MOL0     C29834  13.018   0.571  11.456 -0.8936  0.3530  0.4471
  217MOL0     C29835  12.980   0.611  11.582  0.6791  0.3253 -0.4809
  217MOL0     C29836  12.861   0.529  11.648  0.0698  0.2613  0.3166
  217MOL0     C29837  13.052   0.710  11.658  0.9970  0.1627 -0.1050
  217MOL0     C29838  13.015   0.780  11.782 -0.3922  0.6410  0.1844
  217MOL0     O29839  13.124   0.810  11.873  0.4160  0.5037 -0.4099
  217MOL0     C29840  13.116   0.748  11.997  0.0445 -0.0418 -0.1318
  217MOL0     C29841  13.010   0.654  12.034  0.0529  0.2886 -0.2160
  217MOL0     C29842  13.007   0.604  12.162 -1.2668  0.2105 -0.4932
  217MOL0     C29843  13.118   0.616  12.243  1.1731  0.4749  0.0676
  217MOL0     O29844  13.119   0.560  12.370  0.4219 -0.7670 -0.4610
  217MOL0     C29845  13.140   0.417  12.365  0.3561  0.4134 -0.3726
  217MOL0     C29846  13.162   0.368  12.505  0.0436  1.2169  0.2687
  217MOL0     C29847  13.043   0.383  12.595 -0.5600  0.7429 -0.8750
  217MOL0     C29848  13.089   0.324  12.735  0.3609  1.0380  0.1826
  217MOL0     C29849  12.972   0.342  12.832 -0.0931  0.7022 -0.6440
  217MOL0     C29850  12.866   0.230  12.828 -0.0778 -0.4110 -0.9660
  217MOL0     C29851  12.762   0.216  12.942  0.3581 -0.3122 -0.0346
  217MOL0     C29852  12.683   0.094  12.960  0.4292  1.1447  0.2215
  217MOL0    Cl29853  12.560   0.108  13.096 -0.3362 -0.1463 -0.4929
  217MOL0     C29854  13.225   0.702  12.205  0.2455 -0.5182 -0.6125
  217MOL0     C29855  13.221   0.779  12.086  0.7044  0.4841 -0.7506
  217MOL0     O29856  12.893   0.802  11.799  0.7096 -0.3774 -0.1890
  217MOL0     C29857  13.177   0.748  11.600  0.3454 -0.6180  0.6946
  217MOL0     C29858  13.223   0.696  11.475  0.6083 -0.2229  0.2621
  217MOL0     N29859  12.676   0.649  10.833 -1.1383 -0.1694  0.1550
  217MOL0     N29860  12.564   0.667  10.776  0.5119  1.1207 -0.1071
  217MOL0     C29861  11.360   0.402  11.051  0.6355 -0.3551  0.8091
  217MOL0     C29862  11.253   0.319  11.094 -0.0064 -0.1234 -0.5252
  217MOL0     C29863  10.980  -0.064  11.010 -0.3410 -0.7906 -0.6256
  217MOL0     C29864  10.947  -0.094  11.146 -0.1327 -0.4120 -0.0190
  217MOL0     C29865  10.904  -0.224  11.175  0.4582 -0.2756 -0.6298
  217MOL0     C29866  10.896  -0.321  11.077 -0.0343  0.0341  0.6463
  217MOL0     O29867  10.864  -0.458  11.109  0.2224 -0.0563 -0.6527
  217MOL0     C29868  10.725  -0.483  11.158 -0.1797  0.5305 -0.4570
  217MOL0     C29869  10.686  -0.631  11.188 -0.2515  0.1270 -0.1487
  217MOL0     C29870  10.721  -0.707  11.057 -0.4481 -0.6208  1.2495
  217MOL0     C29871  10.602  -0.690  10.957 -0.5605 -0.2737 -0.2305
  217MOL0     C29872  10.620  -0.789  10.847  0.6578 -0.0931 -0.6230
  217MOL0     C29873  10.645  -0.862  10.751 -0.2609  1.2502 -0.9945
  217MOL0     C29874  10.943  -0.299  10.952 -0.1340 -0.2169  0.0214
  217MOL0     C29875  10.986  -0.175  10.912  0.0425 -0.4521  0.5496
  217MOL0     C29876  11.031  -0.161  10.765  0.7128 -0.1583 -0.3960
  217MOL0     H29877  11.331   0.043  10.909 -2.6839  0.0521  0.0761
  217MOL0     H29878  11.481   0.201  10.808  0.3846  2.6556 -0.4465
  217MOL0     H29879  11.689   0.353  10.886  0.8922  0.1741  0.9349
  217MOL0     H29880  11.665   0.458  11.031 -6.0530 -1.8871  0.5159
  217MOL0     H29881  11.714   0.535  10.724  0.9490  2.8667 -0.9241
  217MOL0     H29882  11.681   0.647  10.848 -0.3905 -0.0634 -1.8694
  217MOL0     H29883  11.882   0.597  10.969  1.6248 -1.4533  0.3867
  217MOL0     H29884  11.909   0.448  10.894  3.1309  0.8600  1.1418
  217MOL0     H29885  11.952   0.571  10.667  3.5996  0.4627 -0.4762
  217MOL0     H29886  11.921   0.719  10.748  0.8327  0.5146 -0.0161
  217MOL0     H29887  12.173   0.616  10.716  1.6122  1.2997  1.7990
  217MOL0     H29888  12.139   0.537  10.873  0.7646 -1.1347 -0.9272
  217MOL0     H29889  12.100   0.840  10.848 -1.5740  0.1464  2.7301
  217MOL0     H29890  12.079   0.740  10.979  0.8288 -1.1446  1.9476
  217MOL0     H29891  12.319   0.666  10.961 -1.6665  0.5955  1.0586
  217MOL0     H29892  12.316   0.829  11.004  0.6316 -2.9595  1.9727
  217MOL0     H29893  12.326   0.748  10.711  0.1489 -1.0265  0.9167
  217MOL0     H29894  12.338   0.907  10.767 -2.0189 -0.9402 -0.0665
  217MOL0     H29895  12.583   0.926  10.973  0.0843 -0.9355  0.7222
  217MOL0     H29896  12.800   0.821  11.092  0.5914 -3.8585  2.5328
  217MOL0     H29897  12.886   0.847  10.930 -1.1514  0.6782  0.9130
  217MOL0     H29898  12.830   0.575  11.056  2.7786 -1.2756  4.9192
  217MOL0     H29899  12.953   0.608  10.946  0.8625  0.2274  1.3388
  217MOL0     H29900  13.035   0.769  11.135 -0.3125  0.4134 -2.1815
  217MOL0     H29901  12.908   0.697  11.235  0.5772  3.6217 -1.4375
  217MOL0     H29902  13.023   0.461  11.212 -2.0685  0.6175  0.7784
  217MOL0     H29903  13.114   0.535  11.082  0.6701 -2.3629  1.7175
  217MOL0     H29904  12.951   0.501  11.407 -0.4178 -2.3672  3.4081
  217MOL0     H29905  12.825   0.575  11.740  0.9194  1.8562 -0.1018
  217MOL0     H29906  12.887   0.424  11.658 -1.0931  0.1306  2.5689
  217MOL0     H29907  12.789   0.533  11.565  0.5127 -2.9554 -0.3498
  217MOL0     H29908  12.925   0.626  11.973 -0.1647 -0.4193  0.4049
  217MOL0     H29909  12.925   0.546  12.205 -1.1572  1.0900  0.9624
  217MOL0     H29910  13.072   0.355  12.306 -2.9612  1.7772  1.7108
  217MOL0     H29911  13.241   0.395  12.328  0.1822 -0.6222 -0.2658
  217MOL0     H29912  13.186   0.262  12.492  1.1281  1.2039  2.0646
  217MOL0     H29913  13.245   0.418  12.555  1.6711 -1.0718  0.0344
  217MOL0     H29914  12.968   0.309  12.563 -0.2972  0.5944 -1.1580
  217MOL0     H29915  13.005   0.485  12.604 -0.3174  0.7243  0.4393
  217MOL0     H29916  13.178   0.369  12.778  1.2054  1.4043 -1.8448
  217MOL0     H29917  13.114   0.220  12.713 -0.4257  0.0991  3.2175
  217MOL0     H29918  13.021   0.355  12.929  0.0261  1.8115 -0.8426
  217MOL0     H29919  12.922   0.437  12.811  4.9077  4.1141  1.0909
  217MOL0     H29920  12.920   0.136  12.814 -1.2458 -1.0186 -1.5283
  217MOL0     H29921  12.799   0.231  12.741 -1.3074 -0.1258 -0.0449
  217MOL0     H29922  12.684   0.290  12.923 -0.2741 -0.4066  1.9217
  217MOL0     H29923  12.820   0.235  13.034 -1.4354 -1.4060  1.3840
  217MOL0     H29924  12.750   0.010  12.979 -0.4731  0.7252  1.7720
  217MOL0     H29925  12.623   0.078  12.870 -0.8733  1.3321  1.0161
  217MOL0     H29926  13.299   0.712  12.284 -0.8829  1.7518  0.2585
  217MOL0     H29927  13.303   0.847  12.066  2.2636 -1.1418 -0.1504
  217MOL0     H29928  13.225   0.830  11.654 -3.1690  1.1058  1.5335
  217MOL0     H29929  13.315   0.739  11.436  2.4010 -4.0741 -0.1922
  217MOL0     H29930  11.378   0.506  11.077  2.4455 -0.0744 -1.3133
  217MOL0     H29931  11.180   0.351  11.167  1.6223 -2.6623  2.4495
  217MOL0     H29932  10.970  -0.029  11.229  2.1733 -2.6038  1.1835
  217MOL0     H29933  10.867  -0.234  11.276 -2.9935  1.4433 -1.5714
  217MOL0     H29934  10.706  -0.424  11.248  1.6927 -0.5149  0.6917
  217MOL0     H29935  10.662  -0.434  11.084  2.1287  0.3443 -2.6895
  217MOL0     H29936  10.582  -0.651  11.214 -0.6521 -0.4448 -2.0390
  217MOL0     H29937  10.754  -0.669  11.265  1.8311  0.4506 -1.7306
  217MOL0     H29938  10.796  -0.654  10.997 -1.8855  0.9610  0.7631
  217MOL0     H29939  10.759  -0.809  11.064 -0.0602 -0.7485 -1.5331
  217MOL0     H29940  10.607  -0.591  10.912  1.7987  1.6099  3.6935
  217MOL0     H29941  10.506  -0.705  11.008  1.4794 -0.7998  3.8549
  217MOL0     H29942  10.644  -0.934  10.672 -0.8780  0.5222 -0.3464
  217MOL0     H29943  10.934  -0.371  10.871 -0.0517 -1.6168  1.2074
  217MOL0     H29944  10.975  -0.085  10.708  1.1794 -0.0383 -0.7032
  217MOL0     H29945  11.136  -0.134  10.750  0.2205  1.4141 -1.2698
  217MOL0     H29946  11.029  -0.264  10.727  0.1707 -0.9888  1.7859
  218MOL0     O29947   8.706   9.186   0.801  0.6210 -0.0349 -0.2698
  218MOL0     C29948   8.676   9.115   0.703  0.1442 -0.8876 -0.7231
  218MOL0     O29949   8.550   9.106   0.651 -0.3555 -0.5624 -0.1162
  218MOL0     C29950   8.443   9.158   0.731 -0.3125  0.2356  0.2586
  218MOL0     C29951   8.435   9.178   0.876 -0.0494 -0.6168 -0.6070
  218MOL0     C29952   8.327   9.248   0.922  0.4939 -0.4017 -0.6978
  218MOL0     C29953   8.210   9.266   0.843 -0.0738 -0.0798 -0.2084
  218MOL0     O29954   8.112   9.328   0.908  1.0564 -0.7228 -0.1313
  218MOL0     C29955   7.989   9.358   0.843  0.1868  0.1084  0.2574
  218MOL0     C29956   7.894   9.409   0.956  0.0138 -0.4253 -0.1764
  218MOL0     C29957   7.754   9.419   0.895 -0.6963  0.2327  0.3022
  218MOL0     C29958   7.672   9.284   0.890 -0.7133 -0.1822  0.8809
  218MOL0     C29959   7.559   9.297   0.794 -0.5696  0.0280  0.0843
  218MOL0     C29960   7.478   9.161   0.803 -0.1943 -0.1616  0.0827
  218MOL0     C29961   7.330   9.196   0.758 -0.2899  0.5036 -0.3654
  218MOL0     C29962   7.247   9.072   0.737 -0.9115  0.8641  0.3880
  218MOL0     N29963   7.290   8.989   0.630 -0.3860 -0.0749 -0.0087
  218MOL0     C29964   7.221   8.965   0.512  0.3549 -0.0548 -0.5572
  218MOL0     C29965   7.285   8.855   0.457 -0.2014  0.3939  0.8446
  218MOL0     C29966   7.257   8.777   0.329  0.1452  0.2235  0.6111
  218MOL0     C29967   7.143   8.833   0.239  0.9317  0.4387 -0.0523
  218MOL0     C29968   7.006   8.778   0.294 -0.2190  0.3131  0.4875
  218MOL0     C29969   6.904   8.749   0.185 -0.2772  0.6468 -1.1568
  218MOL0     O29970   6.862   8.867   0.112 -0.3976 -0.1482  1.6869
  218MOL0     C29971   6.761   8.856   0.017  1.8154  0.6254 -0.4208
  218MOL0     C29972   6.694   8.973  -0.023 -0.9304  0.1758 -0.6407
  218MOL0     C29973   6.577   8.979  -0.096 -0.1480 -0.3773 -1.0048
  218MOL0     C29974   6.531   9.119  -0.124  0.1702  0.1471 -1.3071
  218MOL0     C29975   6.514   8.857  -0.139 -0.3959  0.0027  0.0306
  218MOL0     C29976   6.388   8.849  -0.220 -0.5936  0.0679 -0.1065
  218MOL0     O29977   6.321   8.729  -0.196 -0.4765  0.7609 -0.2983
  218MOL0     C29978   6.209   8.696  -0.266  0.0351  0.5285 -0.1474
  218MOL0     C29979   6.165   8.744  -0.384  0.3318  0.4144 -0.2868
  218MOL0     C29980   6.034   8.713  -0.433  0.2863 -0.4486  0.1234
  218MOL0     C29981   5.951   8.633  -0.352  0.8927  1.0434 -0.0256
  218MOL0     O29982   5.825   8.599  -0.389 -0.3764  0.2715 -0.2604
  218MOL0     C29983   5.734   8.701  -0.420  0.5135 -0.6773 -0.2851
  218MOL0     C29984   5.673   8.761  -0.294  0.8596 -0.3410  0.5255
  218MOL0     C29985   5.635   8.914  -0.310  0.1221  0.4291  0.4878
  218MOL0     C29986   5.533   8.965  -0.214 -1.5471  0.0620  0.2270
  218MOL0     C29987   5.486   9.110  -0.241  0.1489 -1.5052  0.1836
  218MOL0     C29988   5.375   9.131  -0.146  0.1005  0.4034 -0.3830
  218MOL0     C29989   5.334   9.270  -0.138 -0.1784 -0.2594 -0.6832
  218MOL0     C29990   5.294   9.348  -0.256  0.9916 -0.2954 -0.4675
  218MOL0    Cl29991   5.159   9.272  -0.339  0.0305 -0.3284 -0.0571
  218MOL0     C29992   5.998   8.590  -0.229 -0.7183 -0.3531  0.0537
  218MOL0     C29993   6.129   8.616  -0.189 -0.0060 -0.2951 -0.4204
  218MOL0     O29994   6.359   8.937  -0.298  0.5440 -0.5304  0.3158
  218MOL0     C29995   6.578   8.733  -0.089  0.8570 -0.2531  0.2707
  218MOL0     C29996   6.696   8.729  -0.015 -0.0912  0.0444  0.5460
  218MOL0     N29997   7.382   8.814   0.546 -0.1201  0.1531  0.9295
  218MOL0     N29998   7.397   8.906   0.634  0.6679 -0.5335  0.3303
  218MOL0     C29999   8.217   9.240   0.710  0.0865  0.2163  0.7506
  218MOL0     C30000   8.331   9.182   0.650  0.4509 -0.5131 -0.6769
  218MOL0     C30001   8.782   9.036   0.628 -0.2464 -0.3840  0.3437
  218MOL0     C30002   8.743   8.978   0.505 -1.0156  0.1552 -0.4385
  218MOL0     C30003   8.826   8.890   0.434 -1.2479  0.4653 -0.7768
  218MOL0     C30004   8.950   8.854   0.492  0.4736  0.0863 -0.4806
  218MOL0     O30005   9.029   8.756   0.434  0.1289 -0.2353 -0.1711
  218MOL0     C30006   8.968   8.637   0.383  0.5048  0.0623  1.2422
  218MOL0     C30007   8.999   8.620   0.234  1.4361 -0.6741  0.2555
  218MOL0     C30008   9.148   8.606   0.221 -0.2410 -0.4135 -0.2462
  218MOL0     C30009   9.219   8.736   0.190  0.2343  0.4684 -0.4597
  218MOL0     C30010   9.363   8.709   0.190 -0.0223 -0.1129  0.3732
  218MOL0     C30011   9.488   8.703   0.176  0.6680 -1.4066  0.6414
  218MOL0     C30012   8.996   8.914   0.615  0.6547  0.1955 -0.5313
  218MOL0     C30013   8.909   9.014   0.676 -1.1152  0.1466 -1.2593
  218MOL0     C30014   8.963   9.080   0.791  0.1766  0.0198 -0.2043
  218MOL0     H30015   8.523   9.161   0.938  0.9390 -1.5172 -2.1965
  218MOL0     H30016   8.317   9.279   1.025 -1.9446 -1.2755 -0.6193
  218MOL0     H30017   7.959   9.265   0.794  2.3303 -1.5696  1.9338
  218MOL0     H30018   8.009   9.437   0.770  1.6425 -1.4086 -1.0805
  218MOL0     H30019   7.899   9.338   1.039  1.1980 -0.5155 -0.3078
  218MOL0     H30020   7.933   9.506   0.988 -1.0831 -0.2976  0.8420
  218MOL0     H30021   7.695   9.490   0.954 -0.9860  0.2460  0.0039
  218MOL0     H30022   7.767   9.460   0.795 -3.8626 -0.8223 -0.6803
  218MOL0     H30023   7.734   9.199   0.859  2.6383  2.2085  0.4681
  218MOL0     H30024   7.638   9.266   0.993  1.9811 -4.1427  1.2906
  218MOL0     H30025   7.586   9.318   0.690 -0.9160  1.5381  0.2733
  218MOL0     H30026   7.497   9.384   0.818 -0.7311  1.6102 -5.0100
  218MOL0     H30027   7.538   9.096   0.739  0.7983  1.5056 -0.7579
  218MOL0     H30028   7.479   9.126   0.907  1.1671  1.3665  0.6239
  218MOL0     H30029   7.333   9.268   0.676  0.9045  1.7870  0.7625
  218MOL0     H30030   7.275   9.250   0.836  0.3782 -0.4587  0.8073
  218MOL0     H30031   7.242   9.012   0.828  0.7606  0.8854  0.5269
  218MOL0     H30032   7.146   9.108   0.717 -0.9109  0.7470  0.1617
  218MOL0     H30033   7.133   9.019   0.476  0.2097  0.7537  0.9310
  218MOL0     H30034   7.230   8.675   0.354 -0.3443  0.0213 -0.6458
  218MOL0     H30035   7.357   8.776   0.283 -0.6233 -2.5986 -1.2090
  218MOL0     H30036   7.139   8.942   0.224 -0.0512  0.0299 -3.6751
  218MOL0     H30037   7.156   8.776   0.147  1.5464  0.3300  0.1008
  218MOL0     H30038   7.038   8.688   0.347 -3.2646 -0.1170  1.8685
  218MOL0     H30039   6.963   8.847   0.367 -0.1213 -0.9482  1.7804
  218MOL0     H30040   6.933   8.671   0.114 -1.0025 -1.1062  0.3876
  218MOL0     H30041   6.817   8.695   0.225 -0.2249  0.3067 -1.4835
  218MOL0     H30042   6.750   9.060   0.007 -0.7589  0.6123 -2.1252
  218MOL0     H30043   6.498   9.124  -0.229  0.8969 -0.1263 -1.5579
  218MOL0     H30044   6.609   9.193  -0.106  2.1558 -2.1904  0.2492
  218MOL0     H30045   6.451   9.147  -0.055  0.4696  1.4564 -1.4650
  218MOL0     H30046   6.223   8.804  -0.453  0.0737 -0.8551 -1.6417
  218MOL0     H30047   5.992   8.749  -0.527  0.8999  0.1598  0.0736
  218MOL0     H30048   5.779   8.778  -0.482 -1.5711  1.1574  0.3372
  218MOL0     H30049   5.655   8.646  -0.472 -2.0538  0.2393  2.3298
  218MOL0     H30050   5.584   8.703  -0.266 -0.0486 -0.4440 -2.3037
  218MOL0     H30051   5.741   8.751  -0.209 -1.0612 -1.8190  2.0132
  218MOL0     H30052   5.594   8.941  -0.408  1.0470 -2.0247 -0.6475
  218MOL0     H30053   5.735   8.959  -0.298  0.5911 -0.4965  0.1417
  218MOL0     H30054   5.579   8.944  -0.117  0.5102 -1.7214 -1.0451
  218MOL0     H30055   5.447   8.898  -0.216  0.4818 -2.7198 -1.1371
  218MOL0     H30056   5.564   9.184  -0.217 -1.3634  0.4106 -0.5141
  218MOL0     H30057   5.449   9.129  -0.342  0.5156  3.1475  0.6847
  218MOL0     H30058   5.405   9.103  -0.045 -3.1351  3.0918  1.5386
  218MOL0     H30059   5.291   9.072  -0.183 -0.2391  1.0779 -0.7222
  218MOL0     H30060   5.431   9.310  -0.108 -1.0820 -0.9839  4.0584
  218MOL0     H30061   5.268   9.283  -0.052 -0.0030  0.6338 -0.6671
  218MOL0     H30062   5.384   9.348  -0.318  1.1008 -0.7370 -0.3165
  218MOL0     H30063   5.257   9.448  -0.232 -0.4685 -1.3399  2.1264
  218MOL0     H30064   5.930   8.537  -0.163 -2.0893 -0.4079 -1.3544
  218MOL0     H30065   6.171   8.589  -0.093  1.9578  0.1552 -1.0854
  218MOL0     H30066   6.534   8.641  -0.125 -0.6836  0.7280 -0.4726
  218MOL0     H30067   6.740   8.637   0.020  4.9777  1.9180 -0.0804
  218MOL0     H30068   8.129   9.269   0.653  0.1703  0.5489  0.7851
  218MOL0     H30069   8.329   9.155   0.544  2.0605 -1.3079 -0.5325
  218MOL0     H30070   8.648   9.001   0.458 -1.0239  0.1658 -0.4152
  218MOL0     H30071   8.788   8.847   0.341 -2.6119  2.8570 -1.4308
  218MOL0     H30072   8.988   8.543   0.436 -1.6779  0.5735  3.1695
  218MOL0     H30073   8.860   8.630   0.403  0.4674 -0.0395  1.0036
  218MOL0     H30074   8.965   8.703   0.171  1.5368 -2.9169 -2.9809
  218MOL0     H30075   8.946   8.539   0.184  0.5628  1.7960 -3.2141
  218MOL0     H30076   9.197   8.563   0.309 -1.7744  1.4537  1.6123
  218MOL0     H30077   9.166   8.548   0.130 -0.6539 -1.7671  0.5056
  218MOL0     H30078   9.195   8.797   0.277  2.5642  0.1494  0.4989
  218MOL0     H30079   9.195   8.782   0.093  3.6138  1.5199 -0.9569
  218MOL0     H30080   9.595   8.699   0.178  0.9174  2.2004  0.4282
  218MOL0     H30081   9.079   8.874   0.672  0.2885 -2.3129 -1.6437
  218MOL0     H30082   9.066   9.047   0.809  0.3903  1.4166  1.3232
  218MOL0     H30083   8.968   9.188   0.775 -2.7217  0.0973 -1.1444
  218MOL0     H30084   8.895   9.064   0.875 -1.1155  1.1823 -0.9813
  219MOL0     O30085   8.229   0.014   9.206  0.0497  0.0730 -0.8345
  219MOL0     C30086   8.294  -0.054   9.127 -0.7655 -0.1258  0.3788
  219MOL0     O30087   8.387   0.005   9.029  1.3059 -0.0119  0.1378
  219MOL0     C30088   8.404   0.131   9.030  0.2825  0.2798 -0.7499
  219MOL0     C30089   8.516   0.179   9.101 -0.0403  0.2628  0.2840
  219MOL0     C30090   8.521   0.319   9.130  0.1159  0.0941 -0.4899
  219MOL0     C30091   8.424   0.412   9.085  0.8790  0.6075  0.0432
  219MOL0     O30092   8.437   0.547   9.111 -0.0314  0.0938  0.7605
  219MOL0     C30093   8.340   0.634   9.070  0.5018  0.3285  0.0496
  219MOL0     C30094   8.399   0.773   9.098  0.8437  0.1279 -0.4286
  219MOL0     C30095   8.296   0.865   9.045 -0.1920 -0.1559  0.4594
  219MOL0     C30096   8.328   1.012   9.081 -0.3305 -0.3114  0.9334
  219MOL0     C30097   8.351   1.045   9.227 -0.0856 -0.4363  0.1082
  219MOL0     C30098   8.383   1.187   9.267 -0.8353  0.4146  0.1489
  219MOL0     C30099   8.284   1.289   9.202  0.2404 -0.5939  0.4724
  219MOL0     C30100   8.136   1.275   9.243  0.5515  0.2983 -0.3241
  219MOL0     N30101   8.120   1.288   9.390  0.3998  0.1174  0.4059
  219MOL0     C30102   8.136   1.188   9.477  0.4829  0.0038 -0.4031
  219MOL0     C30103   8.084   1.236   9.590 -0.4249 -1.1108  0.1766
  219MOL0     C30104   8.070   1.147   9.708 -0.0714  1.1651 -0.1470
  219MOL0     C30105   8.203   1.129   9.778 -0.0448  0.2940 -0.0486
  219MOL0     C30106   8.187   1.064   9.905  0.4939 -0.3577 -0.5482
  219MOL0     C30107   8.320   1.051   9.988  0.5505 -0.6701  0.6861
  219MOL0     O30108   8.366   1.187  10.027  0.4243 -0.0494  0.8410
  219MOL0     C30109   8.319   1.239  10.144  0.5301  0.6419 -0.2489
  219MOL0     C30110   8.237   1.176  10.235 -0.0907  0.4570 -1.4342
  219MOL0     C30111   8.223   1.236  10.360  0.5874  0.3111  0.4564
  219MOL0     C30112   8.122   1.152  10.455 -0.5391 -0.0409  0.3818
  219MOL0     C30113   8.287   1.354  10.402  0.4395  0.6329  0.0966
  219MOL0     C30114   8.268   1.408  10.533 -0.2091 -0.0643  0.3563
  219MOL0     O30115   8.396   1.451  10.593  0.1501 -0.2009  0.2647
  219MOL0     C30116   8.407   1.512  10.718 -1.0541 -0.6701 -0.1770
  219MOL0     C30117   8.302   1.584  10.781 -0.1809 -0.0013  0.7038
  219MOL0     C30118   8.315   1.651  10.901 -0.8051  0.9064  0.2453
  219MOL0     C30119   8.432   1.629  10.981  0.3153 -0.5834 -0.8006
  219MOL0     O30120   8.450   1.689  11.099 -0.2295  0.2868 -0.1526
  219MOL0     C30121   8.437   1.835  11.097 -0.0273  0.7947  0.4094
  219MOL0     C30122   8.303   1.873  11.159  0.8066 -0.3014 -0.0661
  219MOL0     C30123   8.290   1.809  11.286  0.1011  0.3735 -0.5491
  219MOL0     C30124   8.162   1.849  11.359  0.4926  0.0523  0.2799
  219MOL0     C30125   8.107   1.753  11.459 -0.6846 -0.0555  0.0764
  219MOL0     C30126   8.007   1.824  11.550 -0.1025  0.7752 -0.0650
  219MOL0     C30127   7.983   1.739  11.676 -0.0478 -0.8943  0.4318
  219MOL0     C30128   7.845   1.774  11.736  0.8795 -0.2533  0.2637
  219MOL0    Cl30129   7.815   1.667  11.870 -0.1048  0.2025  0.0866
  219MOL0     C30130   8.535   1.560  10.924 -0.2986  0.3351  0.3255
  219MOL0     C30131   8.527   1.505  10.796 -0.7451 -0.5945 -0.2124
  219MOL0     O30132   8.159   1.440  10.576 -0.5648 -0.0773  0.0657
  219MOL0     C30133   8.367   1.414  10.303 -0.3559  0.9337 -0.6719
  219MOL0     C30134   8.380   1.356  10.181 -0.1063  0.2752 -0.1279
  219MOL0     N30135   8.035   1.359   9.571  0.0718  0.7397 -0.3847
  219MOL0     N30136   8.057   1.394   9.447  0.2314  0.1827  0.1706
  219MOL0     C30137   8.314   0.358   9.004 -0.4156  0.6198 -0.4650
  219MOL0     C30138   8.299   0.221   8.991 -0.3052  0.0094 -0.2791
  219MOL0     C30139   8.277  -0.201   9.124  0.5734 -1.3778 -0.2844
  219MOL0     C30140   8.146  -0.250   9.129  0.3770 -0.3737  0.6095
  219MOL0     C30141   8.115  -0.382   9.116 -0.5977  0.4780 -0.3007
  219MOL0     C30142   8.218  -0.480   9.103  0.4453 -0.3716  0.2339
  219MOL0     O30143   8.198  -0.617   9.084 -0.4420 -0.0601 -0.2274
  219MOL0     C30144   8.068  -0.669   9.069 -0.3245  0.1984 -0.7198
  219MOL0     C30145   8.091  -0.814   9.038  0.0305 -0.1580  0.1544
  219MOL0     C30146   7.970  -0.893   8.998  0.9766 -0.2060  0.0169
  219MOL0     C30147   7.852  -0.892   9.083  1.3955 -0.1675  0.6636
  219MOL0     C30148   7.771  -0.769   9.083 -0.3902 -0.1461 -0.1941
  219MOL0     C30149   7.709  -0.672   9.106  0.2064 -0.3875  0.0730
  219MOL0     C30150   8.352  -0.437   9.108 -0.2733  0.1950 -0.5986
  219MOL0     C30151   8.378  -0.288   9.120 -0.6389 -0.9317  0.8021
  219MOL0     C30152   8.523  -0.248   9.131  0.3419 -0.9861 -0.4981
  219MOL0     H30153   8.582   0.108   9.151  0.1750  1.3255  1.5699
  219MOL0     H30154   8.605   0.367   9.181  0.3666  1.0315 -1.7443
  219MOL0     H30155   8.253   0.610   9.132 -0.1671 -2.2110 -1.7125
  219MOL0     H30156   8.333   0.634   8.961  0.0022  1.7594  0.0567
  219MOL0     H30157   8.409   0.786   9.206 -1.5703  2.2189 -0.3750
  219MOL0     H30158   8.493   0.794   9.047  0.5507  1.5585 -0.4146
  219MOL0     H30159   8.281   0.861   8.937  0.1143  0.0823  0.4080
  219MOL0     H30160   8.201   0.843   9.096 -1.0325 -1.4217 -1.5475
  219MOL0     H30161   8.414   1.047   9.024  1.5046 -3.1066  1.7802
  219MOL0     H30162   8.248   1.072   9.035  0.0989 -0.7090 -0.3636
  219MOL0     H30163   8.441   0.989   9.254  0.7870  0.1541 -1.4340
  219MOL0     H30164   8.260   0.997   9.266  1.2746 -2.6204  0.7836
  219MOL0     H30165   8.384   1.207   9.375  0.4833 -1.7690  0.6120
  219MOL0     H30166   8.484   1.211   9.235 -0.8094  0.3810  0.2044
  219MOL0     H30167   8.287   1.268   9.095 -2.8638  0.0820  0.1575
  219MOL0     H30168   8.314   1.390   9.232 -0.4367 -0.1240 -0.3970
  219MOL0     H30169   8.097   1.363   9.190 -2.2325  0.0700  1.1954
  219MOL0     H30170   8.074   1.195   9.201 -0.2549  0.8081 -0.1275
  219MOL0     H30171   8.165   1.086   9.453 -3.1849 -1.8135  1.9503
  219MOL0     H30172   8.032   1.050   9.675 -1.3899  1.8270 -0.6573
  219MOL0     H30173   8.001   1.189   9.782 -3.0280 -0.9990 -1.4696
  219MOL0     H30174   8.270   1.071   9.714  2.6930  1.4286  1.6024
  219MOL0     H30175   8.244   1.230   9.786  0.1115  0.3939 -1.7124
  219MOL0     H30176   8.119   1.121   9.969  1.4179 -1.4922  1.5336
  219MOL0     H30177   8.123   0.975   9.901 -2.9244  1.8678  0.5186
  219MOL0     H30178   8.316   0.985  10.075  1.3040 -0.7289  0.6852
  219MOL0     H30179   8.397   1.003   9.927  2.0865 -0.3649  2.2855
  219MOL0     H30180   8.183   1.085  10.209  1.8761 -1.1356 -0.2347
  219MOL0     H30181   8.171   1.113  10.544  0.2841  0.6228  0.2286
  219MOL0     H30182   8.078   1.074  10.392 -0.1066 -0.7677  0.9675
  219MOL0     H30183   8.041   1.220  10.485 -3.1623 -2.0085 -1.6756
  219MOL0     H30184   8.209   1.581  10.726  0.7989 -1.9379 -0.9610
  219MOL0     H30185   8.237   1.718  10.934  0.6514  2.3345  0.8974
  219MOL0     H30186   8.524   1.860  11.159  0.9501  0.1335 -0.6673
  219MOL0     H30187   8.456   1.883  11.000 -0.1641 -1.6870 -0.9198
  219MOL0     H30188   8.303   1.982  11.174  1.5848 -0.5843  2.3680
  219MOL0     H30189   8.217   1.844  11.098 -0.3446 -0.6717  1.6790
  219MOL0     H30190   8.373   1.836  11.351  0.5122 -1.3423 -0.3190
  219MOL0     H30191   8.275   1.701  11.276 -2.2291  0.3642  1.7951
  219MOL0     H30192   8.084   1.860  11.283  0.3436 -0.2996  0.3816
  219MOL0     H30193   8.182   1.944  11.409 -2.5866  2.0711 -1.9293
  219MOL0     H30194   8.076   1.663  11.407 -1.4741 -1.1879  2.3505
  219MOL0     H30195   8.187   1.722  11.527  1.3552  2.2268 -1.1247
  219MOL0     H30196   7.913   1.832  11.493  1.3945  1.3733 -2.6244
  219MOL0     H30197   8.039   1.927  11.566  4.1712 -0.0531 -1.8526
  219MOL0     H30198   8.067   1.760  11.743 -0.3821 -2.3365  1.3441
  219MOL0     H30199   7.987   1.635  11.645  3.2349 -0.5267 -0.7580
  219MOL0     H30200   7.757   1.763  11.673 -0.1643  1.2538  1.3792
  219MOL0     H30201   7.845   1.880  11.764 -2.1758 -0.2738  0.6719
  219MOL0     H30202   8.620   1.534  10.986 -1.0125  1.2854  1.7604
  219MOL0     H30203   8.604   1.444  10.749  1.3311  1.4935  0.2935
  219MOL0     H30204   8.423   1.504  10.324  0.0900  0.7686 -1.1532
  219MOL0     H30205   8.454   1.387  10.108 -0.2684 -1.6221 -1.1623
  219MOL0     H30206   8.247   0.424   8.950  1.3583  2.5625 -0.4153
  219MOL0     H30207   8.220   0.178   8.932 -0.1208 -0.3278 -0.2844
  219MOL0     H30208   8.071  -0.175   9.150  0.2055 -0.3905  0.0766
  219MOL0     H30209   8.014  -0.413   9.093 -0.2039  0.2134 -1.8035
  219MOL0     H30210   8.011  -0.666   9.163 -0.9716 -1.7088 -1.0196
  219MOL0     H30211   8.017  -0.614   8.989  0.3160  0.6207 -0.8435
  219MOL0     H30212   8.131  -0.873   9.121 -4.3469 -2.0171  1.2256
  219MOL0     H30213   8.157  -0.823   8.951  2.0136  1.8067  1.3443
  219MOL0     H30214   7.928  -0.855   8.904  0.8609 -0.4744 -0.0434
  219MOL0     H30215   8.008  -0.996   8.992  0.8191 -0.2043 -1.3809
  219MOL0     H30216   7.878  -0.920   9.185  0.2873  0.1796  1.0562
  219MOL0     H30217   7.777  -0.965   9.051 -0.7468  1.3727  1.9098
  219MOL0     H30218   7.649  -0.587   9.131  1.5896  0.1427  1.7701
  219MOL0     H30219   8.425  -0.516   9.088 -0.3822  0.1650 -0.8722
  219MOL0     H30220   8.576  -0.264   9.037 -0.2311 -0.1183 -0.9815
  219MOL0     H30221   8.534  -0.140   9.148  2.5356 -1.2968  0.4115
  219MOL0     H30222   8.562  -0.296   9.222 -1.8802 -3.4064 -0.7037
  220MOL0     O30223   1.749   6.305   0.924 -0.6214 -0.1445  0.4369
  220MOL0     C30224   1.870   6.274   0.899  0.0544 -0.6367 -0.0793
  220MOL0     O30225   1.961   6.374   0.884 -0.4152  0.7137  0.8250
  220MOL0     C30226   1.925   6.498   0.852  0.8850 -1.0640  0.0179
  220MOL0     C30227   1.839   6.528   0.753 -0.4320 -1.5743  0.5634
  220MOL0     C30228   1.812   6.669   0.728 -0.2686 -0.6998  0.6687
  220MOL0     C30229   1.884   6.766   0.795  1.1578 -0.7912 -1.1706
  220MOL0     O30230   1.877   6.901   0.781 -0.4368 -0.2384  0.8146
  220MOL0     C30231   1.747   6.956   0.790 -0.4123 -0.2310 -0.0679
  220MOL0     C30232   1.721   7.029   0.914  0.1878  0.2150 -0.1156
  220MOL0     C30233   1.825   7.139   0.943  0.5986  1.0288 -0.0029
  220MOL0     C30234   1.796   7.265   0.865 -0.0867 -0.0386 -0.1600
  220MOL0     C30235   1.849   7.389   0.930  0.0933 -0.5383 -0.2660
  220MOL0     C30236   1.805   7.500   0.845 -0.8727 -0.7391  0.0328
  220MOL0     C30237   1.860   7.637   0.889  0.3772  0.0044 -0.4701
  220MOL0     C30238   1.794   7.708   1.009  0.6423 -0.3120  0.0751
  220MOL0     N30239   1.848   7.838   1.043  0.0308 -0.7703  0.7807
  220MOL0     C30240   1.774   7.936   1.107  0.6332  0.4121 -1.0312
  220MOL0     C30241   1.869   8.027   1.136  0.0685  0.3685 -0.6833
  220MOL0     C30242   1.852   8.154   1.216  0.0229 -1.3597 -0.0141
  220MOL0     C30243   1.920   8.131   1.350  1.0681 -0.5000 -0.4252
  220MOL0     C30244   2.059   8.208   1.367 -0.2332  0.9338 -0.3909
  220MOL0     C30245   2.137   8.128   1.484  1.4922 -0.5143  0.5498
  220MOL0     O30246   2.272   8.191   1.502  0.7346 -0.0870 -0.3994
  220MOL0     C30247   2.347   8.166   1.617  0.4061  0.2439  0.6250
  220MOL0     C30248   2.308   8.075   1.710  0.4358 -0.0946 -0.5759
  220MOL0     C30249   2.391   8.050   1.825 -0.8146 -0.7353 -0.5266
  220MOL0     C30250   2.325   7.949   1.922 -0.0480 -0.4130 -0.8230
  220MOL0     C30251   2.515   8.112   1.850 -0.1264 -0.3535  0.2102
  220MOL0     C30252   2.615   8.067   1.953  0.4631  0.1993  0.1954
  220MOL0     O30253   2.720   8.149   1.970 -0.3993  0.6038  0.2429
  220MOL0     C30254   2.821   8.120   2.061  0.1006 -1.0044 -0.1792
  220MOL0     C30255   2.941   8.191   2.047 -0.4832  0.1527  0.5976
  220MOL0     C30256   3.042   8.190   2.146  0.2308 -0.7189 -0.8662
  220MOL0     C30257   3.030   8.121   2.261  0.0002 -0.4691  0.0867
  220MOL0     O30258   3.132   8.100   2.345 -1.1110 -0.0629  0.3040
  220MOL0     C30259   3.127   8.149   2.475 -0.8273  0.0396  0.3402
  220MOL0     C30260   3.138   8.304   2.474 -0.0188 -0.8487  0.3827
  220MOL0     C30261   3.216   8.358   2.594  0.6413  0.4788 -0.9664
  220MOL0     C30262   3.154   8.492   2.639 -0.6856  0.0829 -0.1714
  220MOL0     C30263   3.235   8.561   2.749  0.1922  0.4412 -0.4824
  220MOL0     C30264   3.176   8.698   2.753 -0.4125 -0.6038 -0.4354
  220MOL0     C30265   3.239   8.806   2.665  0.2393  0.5689 -0.0286
  220MOL0     C30266   3.203   8.948   2.693  0.4441 -0.5391 -0.9200
  220MOL0    Cl30267   3.230   8.977   2.867 -0.1090 -0.0713  0.3237
  220MOL0     C30268   2.898   8.071   2.288 -0.2149 -0.5772 -0.0707
  220MOL0     C30269   2.794   8.073   2.195 -0.0256  0.6478 -0.0736
  220MOL0     O30270   2.585   7.971   2.021 -0.3318  0.9246  0.5083
  220MOL0     C30271   2.561   8.204   1.759 -0.6535 -0.1436 -1.2053
  220MOL0     C30272   2.468   8.228   1.650 -0.7953 -1.1397 -0.6054
  220MOL0     N30273   1.992   7.984   1.086  0.1752  0.0232  0.0249
  220MOL0     N30274   1.980   7.870   1.020 -0.7850  0.0915  0.1207
  220MOL0     C30275   1.969   6.729   0.897  0.3829  0.2285  0.4461
  220MOL0     C30276   1.999   6.590   0.919  0.0627  0.0283  0.8561
  220MOL0     C30277   1.915   6.130   0.888  0.1177 -0.3836 -0.2211
  220MOL0     C30278   2.013   6.085   0.982 -0.4838  0.8649  0.4792
  220MOL0     C30279   2.070   5.958   0.976 -0.6195  0.7145  0.6846
  220MOL0     C30280   2.020   5.869   0.875 -0.5524 -0.2646 -0.4132
  220MOL0     O30281   2.077   5.748   0.847  0.3889 -0.4086 -1.0621
  220MOL0     C30282   2.206   5.719   0.901 -0.4829 -0.0177  0.0644
  220MOL0     C30283   2.235   5.573   0.879 -0.7706 -0.4629  0.5337
  220MOL0     C30284   2.120   5.482   0.937 -0.7205  0.7479  0.1254
  220MOL0     C30285   2.149   5.334   0.906  0.3194  0.4023  0.4604
  220MOL0     C30286   2.096   5.293   0.783 -0.8746 -0.8730 -0.4070
  220MOL0     C30287   2.036   5.265   0.683 -0.0245  0.0675  0.5889
  220MOL0     C30288   1.921   5.913   0.782 -0.3169 -0.1435 -0.6480
  220MOL0     C30289   1.873   6.041   0.791  0.3546 -0.1648 -1.9299
  220MOL0     C30290   1.765   6.087   0.695  0.1541 -0.6722  0.1904
  220MOL0     H30291   1.796   6.453   0.688 -1.1193 -1.5217  0.9415
  220MOL0     H30292   1.730   6.687   0.659  1.4737 -1.3621 -1.7237
  220MOL0     H30293   1.668   6.885   0.763 -2.8052  1.3148  2.3072
  220MOL0     H30294   1.741   7.029   0.709  1.5378 -2.5805 -2.5419
  220MOL0     H30295   1.622   7.074   0.920 -0.6877 -1.4830 -0.9765
  220MOL0     H30296   1.735   6.945   0.983  1.7351 -1.7918 -2.7014
  220MOL0     H30297   1.790   7.166   1.043  0.1916 -1.6049  0.6504
  220MOL0     H30298   1.927   7.099   0.937 -0.5881 -2.1385 -1.9525
  220MOL0     H30299   1.835   7.250   0.764  3.2060 -0.1107  1.0136
  220MOL0     H30300   1.687   7.274   0.853 -0.2763 -2.0748 -0.3065
  220MOL0     H30301   1.958   7.380   0.926  0.1222  0.0976 -1.4777
  220MOL0     H30302   1.806   7.402   1.029 -1.2666  2.1700 -1.0980
  220MOL0     H30303   1.832   7.489   0.739  2.9654 -1.7025  0.9302
  220MOL0     H30304   1.701   7.530   0.856 -1.4574 -2.0038 -1.6504
  220MOL0     H30305   1.857   7.709   0.807  0.1122  1.1113  0.4902
  220MOL0     H30306   1.967   7.640   0.909  0.3548 -3.9049  1.0857
  220MOL0     H30307   1.688   7.722   0.986  0.6677  0.3344  0.3371
  220MOL0     H30308   1.794   7.644   1.099  1.5591  1.2195  1.2099
  220MOL0     H30309   1.670   7.938   1.138  1.3818  4.8449  2.1940
  220MOL0     H30310   1.744   8.169   1.226 -0.2207 -2.6826 -0.3626
  220MOL0     H30311   1.891   8.237   1.156 -1.5054 -1.7525 -1.6429
  220MOL0     H30312   1.858   8.165   1.434  2.1212 -2.7321  1.3832
  220MOL0     H30313   1.923   8.024   1.370  0.3615 -0.6620 -1.1429
  220MOL0     H30314   2.123   8.202   1.278  0.5084 -2.4626  0.2443
  220MOL0     H30315   2.024   8.306   1.400  0.5326  0.8029  0.8614
  220MOL0     H30316   2.064   8.142   1.564  2.1765  1.3313  0.8990
  220MOL0     H30317   2.153   8.024   1.455  0.7791 -0.6678  0.6943
  220MOL0     H30318   2.212   8.026   1.701 -0.0453 -0.1696  3.3475
  220MOL0     H30319   2.380   7.856   1.932 -0.5279 -0.7445 -1.2239
  220MOL0     H30320   2.228   7.920   1.881  0.1531  0.4456 -1.9612
  220MOL0     H30321   2.304   8.004   2.014  4.3092  2.1000 -1.0606
  220MOL0     H30322   2.964   8.250   1.960 -1.6903  1.6705  1.2507
  220MOL0     H30323   3.136   8.245   2.141 -0.1019  0.2032  1.5207
  220MOL0     H30324   3.040   8.115   2.533 -1.4126 -3.7331 -2.4137
  220MOL0     H30325   3.214   8.112   2.529  0.2820  4.0846  1.7182
  220MOL0     H30326   3.194   8.327   2.382  1.0555  0.5348  1.3454
  220MOL0     H30327   3.035   8.338   2.460  0.6097 -0.3086 -6.2285
  220MOL0     H30328   3.323   8.366   2.575  1.2523  0.7690  2.1570
  220MOL0     H30329   3.196   8.285   2.673 -1.8430 -0.9541 -2.7543
  220MOL0     H30330   3.048   8.478   2.664 -0.8501  0.4879 -0.6310
  220MOL0     H30331   3.167   8.557   2.552  1.6402 -1.2861 -0.9529
  220MOL0     H30332   3.232   8.519   2.850  0.2160 -0.1191 -0.7075
  220MOL0     H30333   3.343   8.573   2.739  1.0464 -2.8684  2.6791
  220MOL0     H30334   3.185   8.730   2.857 -2.8487  1.8997 -0.8947
  220MOL0     H30335   3.072   8.704   2.720 -0.3180  0.6497 -0.5434
  220MOL0     H30336   3.218   8.778   2.561 -1.5220  0.0477  0.4314
  220MOL0     H30337   3.348   8.800   2.657  0.3041 -1.9905  1.7071
  220MOL0     H30338   3.101   8.964   2.658  0.6386 -0.8097 -1.6419
  220MOL0     H30339   3.259   9.019   2.630 -0.3003  0.4579 -0.4826
  220MOL0     H30340   2.857   8.031   2.380 -0.0207 -1.1532 -0.2284
  220MOL0     H30341   2.700   8.033   2.229  0.6199  1.1399  2.4457
  220MOL0     H30342   2.654   8.258   1.771  0.2063 -1.1960 -2.8255
  220MOL0     H30343   2.496   8.311   1.587  0.3989 -1.5958 -0.7121
  220MOL0     H30344   2.031   6.795   0.956  0.4520  0.9168 -0.3812
  220MOL0     H30345   2.065   6.557   0.999  0.1716  0.5795  0.9993
  220MOL0     H30346   2.062   6.151   1.053  0.9564 -2.1987  2.5365
  220MOL0     H30347   2.156   5.943   1.041  1.5971  1.0304 -2.0185
  220MOL0     H30348   2.284   5.770   0.843 -0.0410 -2.1025 -1.2886
  220MOL0     H30349   2.222   5.736   1.008  0.8102 -0.1947 -0.0814
  220MOL0     H30350   2.329   5.544   0.926  0.8873  0.7342 -1.9038
  220MOL0     H30351   2.225   5.551   0.773 -0.4382  0.5417  0.2883
  220MOL0     H30352   2.113   5.504   1.043 -1.6293 -0.9582  0.4596
  220MOL0     H30353   2.026   5.505   0.885  1.1834  2.8614 -2.7127
  220MOL0     H30354   2.107   5.265   0.980 -1.6781 -0.5161 -1.3992
  220MOL0     H30355   2.257   5.317   0.898  0.2593  0.8606 -2.4922
  220MOL0     H30356   1.990   5.240   0.589  3.0845 -0.1957 -0.9698
  220MOL0     H30357   1.884   5.858   0.696  2.5776 -0.4569 -1.8012
  220MOL0     H30358   1.809   6.139   0.610 -0.6519 -0.6874 -0.2544
  220MOL0     H30359   1.725   6.003   0.638  0.0323  0.6163 -1.6911
  220MOL0     H30360   1.679   6.137   0.742 -0.5004 -1.3015 -0.3104
  221MOL0     O30361   1.841   5.258  11.538 -0.6995  0.6301 -0.2166
  221MOL0     C30362   1.755   5.260  11.625 -0.1004  0.1193  0.8434
  221MOL0     O30363   1.754   5.171  11.730  0.5248  0.4834 -0.6736
  221MOL0     C30364   1.863   5.132  11.802 -0.9574  0.2718  0.3576
  221MOL0     C30365   1.987   5.197  11.785 -1.3383  0.0345  0.6770
  221MOL0     C30366   2.093   5.156  11.864  0.3120  0.0381 -0.4464
  221MOL0     C30367   2.074   5.075  11.973 -0.0438 -0.2000 -0.5811
  221MOL0     O30368   2.172   5.022  12.055 -0.3146  0.0893 -0.2452
  221MOL0     C30369   2.299   4.984  11.989 -0.0325 -0.4112 -0.2078
  221MOL0     C30370   2.277   4.867  11.898  0.6081  0.3834 -0.5646
  221MOL0     C30371   2.402   4.803  11.850  0.0889 -0.3372  0.4660
  221MOL0     C30372   2.445   4.684  11.947  0.1523 -0.3389 -0.2585
  221MOL0     C30373   2.562   4.601  11.893 -0.3835 -0.1609 -0.1418
  221MOL0     C30374   2.591   4.470  11.960  0.2464 -0.0818  0.7382
  221MOL0     C30375   2.733   4.414  11.902 -0.1797  0.2885 -0.4591
  221MOL0     C30376   2.780   4.313  12.005  0.0628  0.4936  0.9008
  221MOL0     N30377   2.871   4.219  11.943  0.2684 -0.3408  0.9212
  221MOL0     C30378   2.837   4.126  11.836  0.2770 -0.4784  0.0290
  221MOL0     C30379   2.959   4.064  11.822  0.4634 -0.1339  0.8025
  221MOL0     C30380   3.004   3.964  11.717  0.2082 -0.3604 -0.1665
  221MOL0     C30381   3.132   3.877  11.751 -0.1533 -0.9440 -0.1964
  221MOL0     C30382   3.100   3.781  11.867  1.1622 -0.6393  0.3205
  221MOL0     C30383   3.222   3.735  11.947  0.0690 -1.2325 -0.0316
  221MOL0     O30384   3.176   3.663  12.059  0.3131  0.9813 -0.6730
  221MOL0     C30385   3.253   3.552  12.079  0.7220  0.4133 -1.1610
  221MOL0     C30386   3.391   3.528  12.063  0.3866 -0.2791  0.2100
  221MOL0     C30387   3.451   3.400  12.082  0.4110  0.2647  0.4853
  221MOL0     C30388   3.592   3.396  12.028 -0.5410 -0.3267 -0.5671
  221MOL0     C30389   3.373   3.293  12.131  0.6192  0.9165 -0.8835
  221MOL0     C30390   3.439   3.151  12.141  0.1655  0.9500 -0.7812
  221MOL0     O30391   3.357   3.042  12.141 -0.3337 -0.0045 -0.0590
  221MOL0     C30392   3.404   2.913  12.118  0.2114 -0.2191 -0.2629
  221MOL0     C30393   3.318   2.829  12.041  0.1881  0.4570  0.4121
  221MOL0     C30394   3.367   2.713  12.002  0.1516  0.2955 -0.6269
  221MOL0     C30395   3.487   2.650  12.047 -0.0985  0.0211 -0.5416
  221MOL0     O30396   3.510   2.522  12.002  0.3435 -0.1185  0.0483
  221MOL0     C30397   3.631   2.448  12.018 -0.1524  1.3147  0.4116
  221MOL0     C30398   3.610   2.320  11.943  0.5807  1.0627 -0.0402
  221MOL0     C30399   3.524   2.223  12.015  0.5116  0.3504 -0.3827
  221MOL0     C30400   3.492   2.103  11.923  0.0979  0.4182 -0.2593
  221MOL0     C30401   3.389   2.009  11.977  0.1659  0.6305 -0.4694
  221MOL0     C30402   3.344   1.903  11.878 -0.3195  0.1170 -0.0681
  221MOL0     C30403   3.248   1.818  11.949 -1.0584 -0.3248  1.0153
  221MOL0     C30404   3.243   1.679  11.881 -0.6769 -0.3521 -0.4175
  221MOL0    Cl30405   3.152   1.666  11.723  0.2800 -0.2754 -0.2062
  221MOL0     C30406   3.565   2.731  12.138  0.1727  0.2815 -0.1745
  221MOL0     C30407   3.525   2.864  12.164 -0.0820 -0.0843  0.5790
  221MOL0     O30408   3.552   3.146  12.186 -0.0682  0.8374  0.1804
  221MOL0     C30409   3.235   3.324  12.155  0.4603 -0.5361 -0.1938
  221MOL0     C30410   3.182   3.454  12.139  0.1910  0.7607  0.5503
  221MOL0     N30411   3.048   4.112  11.918  0.1246  0.5062 -0.1668
  221MOL0     N30412   2.996   4.208  11.991  0.0751 -0.1604  0.3458
  221MOL0     C30413   1.947   5.022  11.999  0.0255  0.7289  1.0440
  221MOL0     C30414   1.847   5.039  11.903  0.0188 -0.3556 -0.9675
  221MOL0     C30415   1.650   5.370  11.615 -1.2661 -0.0997 -0.5639
  221MOL0     C30416   1.524   5.348  11.669  0.3558 -0.1030  0.1581
  221MOL0     C30417   1.415   5.442  11.678 -1.0592 -0.3175 -0.8768
  221MOL0     C30418   1.450   5.570  11.638  0.0563 -0.2571  0.0289
  221MOL0     O30419   1.352   5.672  11.651 -0.0231  0.0603 -0.1851
  221MOL0     C30420   1.211   5.633  11.625 -0.7977 -0.0493  0.1074
  221MOL0     C30421   1.177   5.633  11.472  0.0453 -1.1775 -0.4223
  221MOL0     C30422   1.215   5.771  11.411  1.0490  0.4506  0.6523
  221MOL0     C30423   1.200   5.803  11.256 -0.0325 -0.2322  0.6559
  221MOL0     C30424   1.060   5.804  11.214 -0.5418 -0.0725 -0.1403
  221MOL0     C30425   0.955   5.833  11.158  0.1719  0.4366  0.5575
  221MOL0     C30426   1.582   5.599  11.601 -1.4424 -0.2066 -0.1513
  221MOL0     C30427   1.681   5.501  11.582 -0.1659 -0.2147  0.1642
  221MOL0     C30428   1.815   5.551  11.542 -0.5101  0.0773 -0.6901
  221MOL0     H30429   2.021   5.269  11.712  1.2445  2.0882  3.6248
  221MOL0     H30430   2.192   5.195  11.842  1.5232 -3.4864 -1.9532
  221MOL0     H30431   2.369   4.965  12.070 -0.7258  2.1613  1.0931
  221MOL0     H30432   2.339   5.060  11.921  1.3201 -0.8862  0.0403
  221MOL0     H30433   2.216   4.786  11.938  2.0422 -0.9199 -0.9418
  221MOL0     H30434   2.214   4.901  11.815  1.5709 -0.4601 -1.6776
  221MOL0     H30435   2.378   4.769  11.748 -1.5107  0.6850  0.4545
  221MOL0     H30436   2.485   4.873  11.841  0.6885 -1.2901 -2.5231
  221MOL0     H30437   2.464   4.714  12.051 -2.1509  1.3249 -0.2456
  221MOL0     H30438   2.373   4.603  11.938  1.0213 -0.9650 -1.8587
  221MOL0     H30439   2.640   4.677  11.904 -1.2991  0.7703  0.0315
  221MOL0     H30440   2.545   4.583  11.786  1.2529 -1.9381 -0.1526
  221MOL0     H30441   2.603   4.477  12.069 -1.8664 -1.7319  1.1457
  221MOL0     H30442   2.513   4.400  11.929  2.2303 -2.4431  0.7296
  221MOL0     H30443   2.805   4.495  11.891  1.2575 -0.9371 -0.3797
  221MOL0     H30444   2.709   4.373  11.804  0.6117 -2.3469  0.3464
  221MOL0     H30445   2.826   4.353  12.095  1.1224 -1.6262  1.3617
  221MOL0     H30446   2.694   4.253  12.035 -1.1883  1.7677  0.0584
  221MOL0     H30447   2.745   4.130  11.779  1.2439  0.5822 -1.5247
  221MOL0     H30448   3.020   4.021  11.625 -1.0740 -1.2824 -0.9836
  221MOL0     H30449   2.918   3.907  11.680 -0.1349  1.3467 -2.1885
  221MOL0     H30450   3.187   3.830  11.669  1.5156  0.2834  0.1653
  221MOL0     H30451   3.197   3.959  11.785 -0.6640  0.7634 -2.9630
  221MOL0     H30452   3.042   3.836  11.941  0.0060  1.1516 -1.7959
  221MOL0     H30453   3.045   3.692  11.833  2.4679 -1.3242 -0.0833
  221MOL0     H30454   3.284   3.681  11.875  1.0190  2.1379 -1.9580
  221MOL0     H30455   3.275   3.820  11.992  0.1385  1.3350 -4.3810
  221MOL0     H30456   3.456   3.610  12.036 -1.5132  1.5832  1.0056
  221MOL0     H30457   3.642   3.468  12.094 -0.6990  0.6988 -1.5321
  221MOL0     H30458   3.602   3.432  11.925 -0.1387  1.0962 -0.0517
  221MOL0     H30459   3.636   3.297  12.041  1.3551  0.3546 -1.3525
  221MOL0     H30460   3.221   2.856  12.001  0.9101 -1.2065 -2.8118
  221MOL0     H30461   3.314   2.644  11.938 -0.3019  0.8811 -0.8934
  221MOL0     H30462   3.727   2.493  11.989  0.6036  0.3703  1.3347
  221MOL0     H30463   3.634   2.426  12.125 -3.3696 -1.1373  0.1477
  221MOL0     H30464   3.578   2.352  11.843 -1.5753 -0.7358 -0.0126
  221MOL0     H30465   3.710   2.277  11.929  1.3366  2.7792 -0.2106
  221MOL0     H30466   3.430   2.274  12.034  0.6911  0.1247  1.2951
  221MOL0     H30467   3.572   2.200  12.111  0.6699  1.5745 -0.1526
  221MOL0     H30468   3.578   2.037  11.909 -0.8972 -0.7712 -0.9222
  221MOL0     H30469   3.451   2.148  11.832 -1.4108  0.8598  0.6091
  221MOL0     H30470   3.423   1.967  12.072 -0.9059 -0.1172 -0.3976
  221MOL0     H30471   3.302   2.067  12.009  2.3248  2.2339  2.9605
  221MOL0     H30472   3.428   1.834  11.859  1.1390  1.7181  0.2973
  221MOL0     H30473   3.319   1.948  11.782  3.4898  3.0175  0.0430
  221MOL0     H30474   3.149   1.864  11.941 -1.2747 -0.9629 -0.5541
  221MOL0     H30475   3.287   1.811  12.051 -0.5891  1.9326  1.0255
  221MOL0     H30476   3.193   1.617  11.956 -1.1065  0.7385  0.2164
  221MOL0     H30477   3.348   1.650  11.869  0.3714  3.4579 -1.9442
  221MOL0     H30478   3.664   2.705  12.174 -0.3171 -0.9092  0.3526
  221MOL0     H30479   3.594   2.935  12.208  1.7479 -0.7784 -0.9987
  221MOL0     H30480   3.170   3.248  12.198  1.6593 -0.9828  0.8919
  221MOL0     H30481   3.087   3.472  12.188 -0.2559  1.6596 -0.6027
  221MOL0     H30482   1.932   4.956  12.084 -0.9041 -0.7379 -0.2091
  221MOL0     H30483   1.751   4.988  11.906 -0.9658  1.3870 -1.4499
  221MOL0     H30484   1.490   5.250  11.702  0.3784 -0.8511 -1.9151
  221MOL0     H30485   1.327   5.421  11.737  0.9617 -0.3016  2.3923
  221MOL0     H30486   1.169   5.548  11.679 -1.0448  1.2028  2.0020
  221MOL0     H30487   1.153   5.717  11.663 -0.1941  0.2463  0.3979
  221MOL0     H30488   1.069   5.619  11.463 -0.0392 -2.2470  1.7041
  221MOL0     H30489   1.238   5.551  11.432 -0.3223 -2.9848  2.4283
  221MOL0     H30490   1.155   5.839  11.473 -1.3551 -1.2184  0.3068
  221MOL0     H30491   1.316   5.796  11.445  0.3818 -1.0485  4.1415
  221MOL0     H30492   1.261   5.736  11.193  2.6736  1.6521  1.1214
  221MOL0     H30493   1.232   5.906  11.245 -1.2670  0.1104  0.1071
  221MOL0     H30494   0.872   5.870  11.101 -1.5323 -1.5942  1.5974
  221MOL0     H30495   1.600   5.704  11.577 -1.7664  0.0519  0.6845
  221MOL0     H30496   1.892   5.542  11.620 -1.7152 -0.3385  0.4832
  221MOL0     H30497   1.848   5.496  11.454 -0.9636 -1.2252 -0.0761
  221MOL0     H30498   1.815   5.658  11.519 -4.8781  0.5217  0.4708
  222MOL0     O30499   4.207   0.660   1.584 -0.2438 -0.1767  0.0181
  222MOL0     C30500   4.289   0.744   1.622  0.3641 -0.1850 -0.6216
  222MOL0     O30501   4.385   0.785   1.547 -0.6277  0.4624  0.3352
  222MOL0     C30502   4.407   0.697   1.440 -0.4602 -0.1227  0.8392
  222MOL0     C30503   4.360   0.724   1.303 -0.3317  0.7078 -1.0710
  222MOL0     C30504   4.385   0.625   1.198  0.0800 -0.7153 -0.5890
  222MOL0     C30505   4.451   0.507   1.226  0.5693 -0.0210 -0.1009
  222MOL0     O30506   4.471   0.427   1.118  0.5509  0.0899 -0.3384
  222MOL0     C30507   4.560   0.322   1.124  0.8638  0.0797  0.2985
  222MOL0     C30508   4.560   0.244   0.993 -0.1792  0.5917  0.7307
  222MOL0     C30509   4.621   0.104   1.000 -1.0269 -1.2230  0.7270
  222MOL0     C30510   4.573   0.020   0.880  0.5952  0.1209 -0.1983
  222MOL0     C30511   4.685  -0.091   0.873  0.2471  0.1410  0.2394
  222MOL0     C30512   4.632  -0.184   0.765 -0.1411 -0.2970 -0.5142
  222MOL0     C30513   4.686  -0.322   0.779 -0.0089  0.1563  0.8045
  222MOL0     C30514   4.653  -0.398   0.649 -0.8401 -0.7130 -0.4269
  222MOL0     N30515   4.716  -0.341   0.531 -0.3108  0.7036 -0.4592
  222MOL0     C30516   4.845  -0.324   0.504  0.1857  0.6616  0.0931
  222MOL0     C30517   4.849  -0.273   0.383  0.3095  1.0612  0.2981
  222MOL0     C30518   4.973  -0.224   0.321  0.4337  1.1326  0.0337
  222MOL0     C30519   5.013  -0.095   0.396  0.2934  0.4199 -0.2896
  222MOL0     C30520   4.937   0.026   0.346 -0.3505  0.1795 -0.5242
  222MOL0     C30521   4.798   0.032   0.415 -0.2311 -0.1699  0.4454
  222MOL0     O30522   4.748   0.171   0.423 -0.2388  0.4107 -0.4731
  222MOL0     C30523   4.788   0.242   0.535 -0.5268  1.0872  0.4554
  222MOL0     C30524   4.737   0.372   0.550  0.0923 -0.9338 -0.4250
  222MOL0     C30525   4.756   0.450   0.658  0.1788 -0.3538 -0.5746
  222MOL0     C30526   4.690   0.587   0.658  0.9192  0.0086  0.5444
  222MOL0     C30527   4.827   0.403   0.768 -0.3777  0.5088  0.1252
  222MOL0     C30528   4.848   0.472   0.901 -0.5406  0.4654 -0.3890
  222MOL0     O30529   4.755   0.568   0.929 -0.2057  0.4854 -0.3027
  222MOL0     C30530   4.766   0.660   1.039  0.2631  0.0858 -0.3317
  222MOL0     C30531   4.851   0.647   1.160  0.1256  0.4760  0.8395
  222MOL0     C30532   4.838   0.751   1.249 -0.3822  0.4204  0.0274
  222MOL0     C30533   4.765   0.865   1.229  0.4660 -0.7471  0.8527
  222MOL0     O30534   4.782   0.957   1.337 -0.2004 -0.3911  0.1229
  222MOL0     C30535   4.776   1.094   1.291 -0.1952 -0.2238 -0.1577
  222MOL0     C30536   4.842   1.183   1.395  0.0635  0.2377  0.8957
  222MOL0     C30537   4.791   1.330   1.399 -0.4682 -0.0994  0.2581
  222MOL0     C30538   4.798   1.373   1.548  0.3014  0.3278  0.0430
  222MOL0     C30539   4.669   1.326   1.623 -0.3370  0.5294 -0.2419
  222MOL0     C30540   4.678   1.359   1.771  0.0630 -0.4585  0.2048
  222MOL0     C30541   4.539   1.384   1.836  0.2305 -0.8957  0.6019
  222MOL0     C30542   4.546   1.376   1.992 -0.5512  0.9426  0.6517
  222MOL0    Cl30543   4.400   1.458   2.062 -0.5985 -0.4932  0.5971
  222MOL0     C30544   4.681   0.879   1.121  0.5968  1.4344  0.6314
  222MOL0     C30545   4.687   0.776   1.019 -0.6975 -0.0330  0.1658
  222MOL0     O30546   4.941   0.440   0.976 -0.2084  0.2667  0.0674
  222MOL0     C30547   4.887   0.276   0.755 -0.1737 -0.1784 -0.7073
  222MOL0     C30548   4.874   0.199   0.639 -0.2329  1.1525  0.3326
  222MOL0     N30549   4.725  -0.255   0.331 -0.0262  0.1277 -0.0081
  222MOL0     N30550   4.647  -0.305   0.427  0.5016 -0.3275  0.1655
  222MOL0     C30551   4.488   0.474   1.352 -0.6687 -0.0000 -1.0471
  222MOL0     C30552   4.473   0.573   1.455  0.0323  0.7880  0.4046
  222MOL0     C30553   4.257   0.815   1.751  0.5585  0.2954  0.1916
  222MOL0     C30554   4.137   0.782   1.815  0.2903 -0.1485 -0.0172
  222MOL0     C30555   4.110   0.862   1.925  0.1456  0.4925  0.2636
  222MOL0     C30556   4.191   0.964   1.976  0.0423 -0.8341  0.6612
  222MOL0     O30557   4.133   1.050   2.065  0.4757 -0.1012  0.0036
  222MOL0     C30558   4.212   1.146   2.125 -0.2747  0.1244  0.0478
  222MOL0     C30559   4.118   1.263   2.162 -0.3943 -0.1430  0.6327
  222MOL0     C30560   4.031   1.220   2.276 -0.8305  0.0541  0.0805
  222MOL0     C30561   3.931   1.324   2.311  0.1570 -0.3244  0.4712
  222MOL0     C30562   3.864   1.267   2.431  0.7609 -0.5173 -0.5534
  222MOL0     C30563   3.821   1.213   2.527  0.3974 -0.6888 -0.3007
  222MOL0     C30564   4.311   0.977   1.922 -0.4365  0.2970  0.2072
  222MOL0     C30565   4.353   0.908   1.810  0.2250  0.0628  0.2728
  222MOL0     C30566   4.490   0.946   1.757 -0.4036 -0.2240 -0.9998
  222MOL0     H30567   4.316   0.820   1.278  2.3157  2.1494 -0.6249
  222MOL0     H30568   4.356   0.647   1.096  0.7520  0.6538 -0.4983
  222MOL0     H30569   4.521   0.250   1.196 -3.0767 -0.6582 -2.2887
  222MOL0     H30570   4.659   0.365   1.143  0.2812  1.0167  1.3366
  222MOL0     H30571   4.456   0.234   0.963  0.8055 -1.9639 -2.4627
  222MOL0     H30572   4.588   0.289   0.898 -1.4483  1.0139  0.5399
  222MOL0     H30573   4.730   0.098   0.992 -1.0969 -2.9123  0.6147
  222MOL0     H30574   4.590   0.048   1.088 -1.0584 -0.3842  1.2586
  222MOL0     H30575   4.476  -0.021   0.909  0.4921  0.3360 -0.2403
  222MOL0     H30576   4.571   0.079   0.787 -1.7188 -0.9485 -0.9246
  222MOL0     H30577   4.702  -0.136   0.971 -0.4038  1.0678  0.8007
  222MOL0     H30578   4.780  -0.045   0.844  1.0352  0.1290  2.6190
  222MOL0     H30579   4.522  -0.186   0.771 -0.1237 -3.6702  3.0708
  222MOL0     H30580   4.662  -0.143   0.668 -0.0785  2.8051  0.7332
  222MOL0     H30581   4.649  -0.372   0.869  2.3234 -1.4874  0.9398
  222MOL0     H30582   4.793  -0.317   0.799  0.1314  1.8208 -0.1543
  222MOL0     H30583   4.683  -0.503   0.659 -1.5857 -0.9356 -0.5047
  222MOL0     H30584   4.546  -0.406   0.630 -0.5059  2.4731 -5.7041
  222MOL0     H30585   4.931  -0.342   0.568  0.7249  2.4609 -0.0704
  222MOL0     H30586   4.948  -0.212   0.215 -1.2073  0.6880  0.3318
  222MOL0     H30587   5.044  -0.306   0.337 -2.7503 -2.0967 -1.0078
  222MOL0     H30588   5.004  -0.113   0.503  2.1976 -0.9327 -0.3220
  222MOL0     H30589   5.116  -0.068   0.372  0.1261  1.7523  0.3706
  222MOL0     H30590   5.005   0.111   0.351  1.4198 -1.0911 -1.7808
  222MOL0     H30591   4.915   0.009   0.240  0.4388  0.0278 -0.6692
  222MOL0     H30592   4.722  -0.012   0.350 -2.1550  2.8788  0.4219
  222MOL0     H30593   4.796  -0.023   0.510 -0.3294  0.2973  0.7227
  222MOL0     H30594   4.664   0.404   0.476 -0.2832 -0.9092 -0.0500
  222MOL0     H30595   4.755   0.656   0.713  0.5966  0.3537  0.4986
  222MOL0     H30596   4.591   0.578   0.704 -0.0548  1.3413 -1.1507
  222MOL0     H30597   4.678   0.619   0.554  0.1331  0.6108  0.8134
  222MOL0     H30598   4.913   0.559   1.173 -1.0686 -0.8853 -1.9354
  222MOL0     H30599   4.910   0.741   1.329 -0.2847  3.7709  0.4780
  222MOL0     H30600   4.833   1.117   1.200 -0.9632  3.2911  0.1015
  222MOL0     H30601   4.675   1.133   1.277  0.5046  2.1984  0.9751
  222MOL0     H30602   4.820   1.134   1.490  0.6862 -2.7260 -0.3565
  222MOL0     H30603   4.948   1.170   1.372 -0.9124 -2.8570 -3.2949
  222MOL0     H30604   4.685   1.336   1.373 -0.1794  1.1682 -0.6959
  222MOL0     H30605   4.847   1.399   1.336 -2.5429  1.3381 -0.0987
  222MOL0     H30606   4.809   1.480   1.570  2.6059 -0.4095  3.3255
  222MOL0     H30607   4.892   1.332   1.588 -0.2195 -2.9668 -1.7270
  222MOL0     H30608   4.580   1.373   1.579  0.7635  1.9427 -1.0598
  222MOL0     H30609   4.661   1.218   1.608  1.1251  0.3371  0.2209
  222MOL0     H30610   4.715   1.459   1.793 -1.2247  0.1102 -0.1415
  222MOL0     H30611   4.734   1.286   1.830  0.4145  0.3930  0.9262
  222MOL0     H30612   4.465   1.310   1.803  0.9972 -0.7784 -1.5447
  222MOL0     H30613   4.500   1.483   1.812  2.1764 -0.2853 -0.2765
  222MOL0     H30614   4.628   1.445   2.011  0.3910  0.3947 -1.1829
  222MOL0     H30615   4.561   1.272   2.022 -3.4342 -0.5452 -2.4016
  222MOL0     H30616   4.607   0.957   1.104 -1.6505 -0.6202  0.5495
  222MOL0     H30617   4.625   0.774   0.929 -0.3252  2.9512 -0.2650
  222MOL0     H30618   4.938   0.230   0.838  0.0804 -0.2181 -0.8837
  222MOL0     H30619   4.919   0.100   0.643 -3.4241 -0.3992  3.1591
  222MOL0     H30620   4.545   0.386   1.379  0.8045  1.0110 -0.7676
  222MOL0     H30621   4.515   0.552   1.552  0.6057 -0.0902 -0.0183
  222MOL0     H30622   4.071   0.701   1.786 -1.6796  2.3273 -3.0302
  222MOL0     H30623   4.009   0.847   1.960 -0.2178  2.9171  0.4138
  222MOL0     H30624   4.262   1.093   2.207 -1.3557 -2.2986 -0.7767
  222MOL0     H30625   4.291   1.190   2.064  0.3651  2.9153  2.6150
  222MOL0     H30626   4.051   1.295   2.082  0.3813 -0.0065  0.0234
  222MOL0     H30627   4.178   1.348   2.195 -0.0239  1.9512 -4.4805
  222MOL0     H30628   3.981   1.124   2.260 -0.8570  0.5339 -3.4389
  222MOL0     H30629   4.099   1.218   2.361 -0.7662  1.5861  0.0945
  222MOL0     H30630   3.859   1.333   2.229 -0.8196 -0.4397  1.2932
  222MOL0     H30631   3.972   1.423   2.334  0.5516 -0.0234 -1.3717
  222MOL0     H30632   3.772   1.171   2.613 -2.2261  0.3450 -1.1735
  222MOL0     H30633   4.388   1.039   1.966 -0.2794  1.3918 -1.5312
  222MOL0     H30634   4.481   1.019   1.677  0.3116  0.7169 -0.2539
  222MOL0     H30635   4.539   1.000   1.839 -1.3962 -1.0723  0.1894
  222MOL0     H30636   4.552   0.859   1.731 -1.0371 -1.5676  1.5763
  223MOL0     O30637   8.491  11.014  10.098 -0.5781  0.0367  0.0744
  223MOL0     C30638   8.549  10.912  10.081 -0.0640 -0.0080  0.5891
  223MOL0     O30639   8.613  10.847  10.176  0.7142  1.2914 -0.4473
  223MOL0     C30640   8.622  10.905  10.295  0.4280 -0.2987 -0.0548
  223MOL0     C30641   8.513  10.948  10.381 -0.9282  0.5178  0.0480
  223MOL0     C30642   8.522  10.988  10.512  0.1706 -0.3377  0.3367
  223MOL0     C30643   8.651  10.980  10.577  0.5435 -0.5467 -0.3663
  223MOL0     O30644   8.679  11.004  10.713 -0.2622  0.2902 -0.2331
  223MOL0     C30645   8.569  11.029  10.797  0.0881  0.1524 -0.0686
  223MOL0     C30646   8.637  11.088  10.910 -0.5961  0.7330 -0.4842
  223MOL0     C30647   8.678  11.229  10.900 -0.4877  0.3356  0.5024
  223MOL0     C30648   8.694  11.313  11.018  0.0300 -0.2438 -0.6239
  223MOL0     C30649   8.716  11.459  10.983  0.1567  0.3355 -0.0657
  223MOL0     C30650   8.824  11.472  10.885 -0.5999  0.1319  0.1684
  223MOL0     C30651   8.897  11.607  10.896 -0.0849  0.1053 -0.4614
  223MOL0     C30652   9.008  11.621  10.792  0.5613 -0.4511  0.0962
  223MOL0     N30653   9.118  11.547  10.832 -0.3278 -0.4506 -0.8427
  223MOL0     C30654   9.223  11.582  10.914  0.3841  0.0234 -0.1343
  223MOL0     C30655   9.323  11.495  10.900  0.0252 -0.3610 -0.2170
  223MOL0     C30656   9.452  11.479  10.963 -0.4908 -0.2051 -0.0992
  223MOL0     C30657   9.472  11.334  10.994  0.1020  0.4940  0.1590
  223MOL0     C30658   9.394  11.291  11.119 -0.1986 -0.0731 -0.2758
  223MOL0     C30659   9.461  11.172  11.187  0.5550  0.4724  1.1816
  223MOL0     O30660   9.583  11.217  11.245 -0.0433  0.3450  0.4216
  223MOL0     C30661   9.662  11.127  11.313  0.7348 -0.4663  0.1170
  223MOL0     C30662   9.680  10.990  11.278  0.4306  0.7997 -0.7438
  223MOL0     C30663   9.753  10.902  11.360 -0.0147 -0.0607 -0.0530
  223MOL0     C30664   9.765  10.757  11.296  0.0708 -0.3700 -0.7398
  223MOL0     C30665   9.801  10.946  11.491  0.9072 -0.3981  1.0966
  223MOL0     C30666   9.837  10.850  11.605  0.0409 -0.9491 -0.1016
  223MOL0     O30667   9.910  10.913  11.708 -0.1669 -1.0123  0.0324
  223MOL0     C30668   9.987  10.839  11.792 -1.0597  0.5511 -0.6193
  223MOL0     C30669  10.012  10.879  11.926  0.2803  0.3196 -0.5513
  223MOL0     C30670  10.088  10.803  12.013  0.4347  0.0468 -1.1399
  223MOL0     C30671  10.144  10.687  11.980 -0.0366  0.3091 -0.0994
  223MOL0     O30672  10.220  10.633  12.077 -0.7341 -0.5588  0.1202
  223MOL0     C30673  10.305  10.511  12.055  0.7569 -0.0851  0.2290
  223MOL0     C30674  10.327  10.468  12.203  0.4373  0.1204 -0.3733
  223MOL0     C30675  10.458  10.387  12.223  0.5453 -0.5668  0.5834
  223MOL0     C30676  10.470  10.270  12.132 -0.5449  1.1948 -0.4559
  223MOL0     C30677  10.589  10.176  12.175  0.3946 -0.1933 -0.7663
  223MOL0     C30678  10.720  10.255  12.146  0.0879  0.5377 -0.0641
  223MOL0     C30679  10.843  10.165  12.169 -0.7019 -0.0016 -0.1556
  223MOL0     C30680  10.884  10.106  12.029 -0.2078 -0.4934 -0.6723
  223MOL0    Cl30681  11.014   9.989  12.070  0.4293 -0.2534 -0.0421
  223MOL0     C30682  10.131  10.645  11.846 -0.0084 -0.2110  0.8595
  223MOL0     C30683  10.048  10.716  11.754 -1.1235 -1.6268  0.3958
  223MOL0     O30684   9.790  10.735  11.609  0.4527  0.1608 -0.0750
  223MOL0     C30685   9.775  11.084  11.521 -0.3494  0.2893  0.3769
  223MOL0     C30686   9.722  11.178  11.430 -1.1221 -0.2040  0.8142
  223MOL0     N30687   9.271  11.404  10.802 -0.4041  0.4649 -0.2638
  223MOL0     N30688   9.151  11.433  10.769  0.7907 -0.4942 -0.5086
  223MOL0     C30689   8.760  10.937  10.502  0.1553 -0.1549  0.2034
  223MOL0     C30690   8.747  10.896  10.369 -0.7165  0.3780  0.7122
  223MOL0     C30691   8.560  10.863   9.942 -0.2788  0.2881 -0.0410
  223MOL0     C30692   8.596  10.726   9.918  0.1017 -0.1299 -0.0487
  223MOL0     C30693   8.641  10.683   9.793  0.1648 -0.4575  0.6421
  223MOL0     C30694   8.644  10.771   9.683  0.5310  0.5075  0.4345
  223MOL0     O30695   8.665  10.740   9.543 -0.2081 -0.6211  0.5526
  223MOL0     C30696   8.726  10.610   9.521 -0.2168  0.0078 -0.2208
  223MOL0     C30697   8.794  10.598   9.382 -0.0374 -0.5221 -0.1321
  223MOL0     C30698   8.927  10.536   9.389 -0.9087  0.8148 -0.2713
  223MOL0     C30699   8.968  10.495   9.248 -0.3920 -0.6361  0.0950
  223MOL0     C30700   9.107  10.462   9.218  0.6160 -0.7153  1.0675
  223MOL0     C30701   9.223  10.448   9.201 -0.3410  0.1709 -0.6830
  223MOL0     C30702   8.605  10.903   9.704  0.3774 -1.4365  0.0089
  223MOL0     C30703   8.564  10.948   9.831  1.1762 -0.2571 -0.0558
  223MOL0     C30704   8.527  11.098   9.823  0.1843 -0.5320 -0.6597
  223MOL0     H30705   8.414  10.959  10.338 -0.4270 -0.9913 -1.6324
  223MOL0     H30706   8.434  11.023  10.566 -0.6095 -1.5582 -0.1079
  223MOL0     H30707   8.527  10.934  10.830 -1.0731  0.9181  0.7342
  223MOL0     H30708   8.495  11.096  10.752 -0.4887 -1.0921 -1.0433
  223MOL0     H30709   8.566  11.071  10.991 -1.0506 -1.3681 -1.2495
  223MOL0     H30710   8.711  11.018  10.949 -3.1577 -2.2889 -0.6158
  223MOL0     H30711   8.774  11.223  10.848 -0.5899 -0.7183  0.4004
  223MOL0     H30712   8.602  11.272  10.835  1.4703  2.1265 -0.7146
  223MOL0     H30713   8.614  11.314  11.092  0.4330  3.1701 -0.1123
  223MOL0     H30714   8.781  11.278  11.075  0.8096  2.0162 -0.3449
  223MOL0     H30715   8.741  11.517  11.073 -0.5374 -0.1896  0.4815
  223MOL0     H30716   8.626  11.497  10.934 -0.0613 -0.6316 -0.4474
  223MOL0     H30717   8.898  11.396  10.914 -1.1488 -0.9611 -1.1947
  223MOL0     H30718   8.788  11.446  10.785  0.7336  0.6495 -0.4662
  223MOL0     H30719   8.943  11.606  10.995 -3.1707  1.7883  1.1467
  223MOL0     H30720   8.839  11.700  10.890  3.1918  2.2781 -5.6003
  223MOL0     H30721   8.967  11.596  10.693 -0.5464 -0.3023  0.5052
  223MOL0     H30722   9.031  11.728  10.790 -2.7299  0.3686 -0.1945
  223MOL0     H30723   9.216  11.673  10.971 -3.5268 -0.0579 -0.1986
  223MOL0     H30724   9.456  11.540  11.053  2.5264 -2.1416  1.2281
  223MOL0     H30725   9.532  11.517  10.899 -1.2349  0.7243 -0.5131
  223MOL0     H30726   9.462  11.273  10.903 -2.2433  0.6233  0.2585
  223MOL0     H30727   9.577  11.316  11.014 -0.3351 -1.3213  1.0386
  223MOL0     H30728   9.402  11.375  11.188 -3.9364 -1.2050  1.7755
  223MOL0     H30729   9.288  11.271  11.103 -0.1911 -0.1903 -0.1804
  223MOL0     H30730   9.403  11.133  11.271  1.0930 -1.4096  0.7149
  223MOL0     H30731   9.467  11.091  11.114 -3.4700 -0.5511  1.7993
  223MOL0     H30732   9.635  10.941  11.192  3.9578 -2.1504 -1.1212
  223MOL0     H30733   9.695  10.695  11.353 -4.4917  0.4437 -4.7438
  223MOL0     H30734   9.871  10.739  11.310  0.3159  0.9230 -0.8353
  223MOL0     H30735   9.726  10.753  11.193  0.2589 -0.0045 -0.8263
  223MOL0     H30736   9.955  10.967  11.954 -0.7411  0.4535 -2.8433
  223MOL0     H30737  10.086  10.849  12.112  0.7045  0.9569 -1.5503
  223MOL0     H30738  10.272  10.442  11.977  0.6619  2.8403 -2.5435
  223MOL0     H30739  10.399  10.551  12.017 -0.7194  1.5572 -1.9901
  223MOL0     H30740  10.334  10.554  12.271 -2.5748 -0.8025  1.2294
  223MOL0     H30741  10.239  10.409  12.227  0.5202 -1.2631 -3.1130
  223MOL0     H30742  10.472  10.360  12.328 -0.2817  3.4450  1.9226
  223MOL0     H30743  10.540  10.452  12.190  0.3204 -1.6039 -2.3080
  223MOL0     H30744  10.482  10.296  12.026 -3.3232  0.6073 -0.9735
  223MOL0     H30745  10.384  10.203  12.133  0.3782 -0.0414 -0.1562
  223MOL0     H30746  10.577  10.161  12.283 -1.2458  1.5665 -0.6451
  223MOL0     H30747  10.587  10.084  12.117  2.4621 -2.9084  3.0582
  223MOL0     H30748  10.733  10.337  12.216  1.5846 -1.2615  1.9150
  223MOL0     H30749  10.725  10.293  12.043 -1.3497  0.4410 -0.1926
  223MOL0     H30750  10.833  10.087  12.246 -2.7380  1.3685  1.0576
  223MOL0     H30751  10.928  10.227  12.198 -0.0423 -1.2621  0.7205
  223MOL0     H30752  10.936  10.187  11.977  0.1951  0.0396  0.5037
  223MOL0     H30753  10.804  10.071  11.964 -0.4575 -1.6311  0.2104
  223MOL0     H30754  10.186  10.559  11.808 -0.8099  1.1762 -4.1240
  223MOL0     H30755  10.044  10.673  11.654 -0.5163 -1.3920  0.2640
  223MOL0     H30756   9.801  11.127  11.617  2.4738  1.8919 -1.0026
  223MOL0     H30757   9.721  11.284  11.453 -0.3369 -0.3303  1.4771
  223MOL0     H30758   8.854  10.942  10.556  0.3814  1.0831 -0.2545
  223MOL0     H30759   8.841  10.860  10.329 -0.5773  0.3689  1.0408
  223MOL0     H30760   8.617  10.655   9.997  2.5115 -1.3638 -1.6730
  223MOL0     H30761   8.668  10.580   9.773 -1.6448 -0.8437 -0.0146
  223MOL0     H30762   8.802  10.603   9.600  0.9656 -3.5315 -1.4790
  223MOL0     H30763   8.648  10.533   9.521  0.5397 -0.7820 -1.3797
  223MOL0     H30764   8.803  10.697   9.336 -0.4884 -1.0665 -1.4361
  223MOL0     H30765   8.738  10.534   9.313  2.0790 -0.7386 -1.7237
  223MOL0     H30766   8.989  10.622   9.417 -1.4223  0.8077  0.9618
  223MOL0     H30767   8.932  10.458   9.466 -1.0441  0.4538 -0.6247
  223MOL0     H30768   8.936  10.568   9.172 -0.4245 -0.6453  0.1009
  223MOL0     H30769   8.912  10.403   9.229 -0.8448 -0.6909  1.5825
  223MOL0     H30770   9.327  10.432   9.182 -0.5004 -0.6807 -0.9111
  223MOL0     H30771   8.624  10.972   9.622  2.6566  0.8848  2.3172
  223MOL0     H30772   8.607  11.165   9.856 -1.3012  2.1114 -2.0578
  223MOL0     H30773   8.478  11.127   9.729 -0.2342 -0.7784 -0.5188
  223MOL0     H30774   8.448  11.134   9.890  0.3437  1.3315 -1.4048
  224MOL0     O30775   7.520   3.642   7.241 -0.2991  0.0338 -0.8766
  224MOL0     C30776   7.442   3.618   7.151 -0.0787  0.0393 -0.1692
  224MOL0     O30777   7.312   3.571   7.178 -0.7303 -0.4629 -0.1931
  224MOL0     C30778   7.258   3.594   7.304  0.1507 -0.1690 -0.5796
  224MOL0     C30779   7.218   3.728   7.342  0.6378 -0.3808 -0.1909
  224MOL0     C30780   7.155   3.761   7.470  0.0773  1.4549  0.4138
  224MOL0     C30781   7.127   3.653   7.558 -0.1737 -0.0312 -1.0100
  224MOL0     O30782   7.061   3.681   7.673 -0.0544 -0.0403  0.3703
  224MOL0     C30783   7.114   3.632   7.801  0.2959 -0.2302  0.7836
  224MOL0     C30784   7.255   3.670   7.833  0.3457  0.0165  0.2434
  224MOL0     C30785   7.310   3.602   7.962 -0.1042  0.1980  0.0588
  224MOL0     C30786   7.433   3.670   8.019 -1.2492  0.2848  0.1855
  224MOL0     C30787   7.458   3.621   8.165  0.2297 -0.5892  0.5032
  224MOL0     C30788   7.555   3.508   8.174 -0.9372 -0.9565 -0.0751
  224MOL0     C30789   7.530   3.442   8.306 -0.6126 -0.0367  1.0119
  224MOL0     C30790   7.639   3.335   8.355 -0.5943  0.1065  0.2764
  224MOL0     N30791   7.594   3.264   8.476  0.2224 -0.2619 -0.2996
  224MOL0     C30792   7.477   3.299   8.542 -0.0119  0.0385 -1.3517
  224MOL0     C30793   7.466   3.197   8.633  0.0768 -0.4473 -0.0921
  224MOL0     C30794   7.355   3.174   8.736 -1.0138  0.0205  1.0438
  224MOL0     C30795   7.224   3.137   8.676  0.2218 -1.2648  1.0879
  224MOL0     C30796   7.238   3.004   8.598 -0.3109  0.1873  0.3631
  224MOL0     C30797   7.107   2.939   8.546  0.1981  0.4012 -0.0175
  224MOL0     O30798   7.022   3.034   8.472  0.2955 -0.4809 -0.3198
  224MOL0     C30799   6.927   3.097   8.545 -0.8981 -0.1368  0.0062
  224MOL0     C30800   6.865   3.042   8.661  0.9767 -0.0366 -1.4841
  224MOL0     C30801   6.757   3.116   8.719  0.7255 -1.3899 -0.2949
  224MOL0     C30802   6.717   3.071   8.862 -0.3233 -0.2419  0.0036
  224MOL0     C30803   6.694   3.241   8.669 -0.7875  0.4871  1.0927
  224MOL0     C30804   6.567   3.302   8.716 -0.3196  0.7083 -1.1609
  224MOL0     O30805   6.541   3.418   8.670  0.1918 -0.0928  0.9439
  224MOL0     C30806   6.434   3.492   8.728 -0.3594 -0.2304  0.4525
  224MOL0     C30807   6.314   3.496   8.659 -0.1409  0.0873 -0.4304
  224MOL0     C30808   6.212   3.573   8.713  0.4199 -0.5549  0.6655
  224MOL0     C30809   6.223   3.647   8.836 -0.0803 -0.1781 -0.5438
  224MOL0     O30810   6.127   3.723   8.886  0.2822 -0.8706  0.7553
  224MOL0     C30811   6.109   3.717   9.029  0.4742 -0.5886  0.4831
  224MOL0     C30812   5.960   3.740   9.026  0.1806  0.4706 -0.1075
  224MOL0     C30813   5.901   3.774   9.167  1.0800 -0.5776  0.6567
  224MOL0     C30814   5.939   3.908   9.219  0.3693  0.9918 -1.8694
  224MOL0     C30815   5.883   3.905   9.367  0.6498 -0.9388  0.1605
  224MOL0     C30816   5.874   4.044   9.421 -0.0595 -0.2422 -0.5955
  224MOL0     C30817   5.752   4.124   9.376  0.3475  0.0859  0.5874
  224MOL0     C30818   5.766   4.269   9.436 -0.1347 -0.3185 -0.5410
  224MOL0    Cl30819   5.614   4.376   9.439 -0.3549 -0.3044  0.3721
  224MOL0     C30820   6.349   3.636   8.897 -0.1432 -0.5787 -0.8257
  224MOL0     C30821   6.458   3.557   8.848 -0.1161  0.6861 -0.0923
  224MOL0     O30822   6.499   3.254   8.807 -0.4745 -0.2484 -0.0798
  224MOL0     C30823   6.766   3.282   8.550  0.9731  0.0079 -0.7552
  224MOL0     C30824   6.874   3.216   8.494  0.4593 -0.0717 -0.9390
  224MOL0     N30825   7.569   3.108   8.616 -0.1861  0.2101  0.1624
  224MOL0     N30826   7.634   3.144   8.515  0.4949  0.4367 -0.9308
  224MOL0     C30827   7.169   3.531   7.517  0.0280  0.0473  0.2491
  224MOL0     C30828   7.237   3.499   7.398  0.3176  0.3186  0.1402
  224MOL0     C30829   7.491   3.584   7.020 -0.7345 -0.6747  0.4048
  224MOL0     C30830   7.413   3.520   6.937  0.3972 -0.6542 -0.0797
  224MOL0     C30831   7.437   3.473   6.810 -1.0049  0.0250 -0.2864
  224MOL0     C30832   7.568   3.494   6.758 -0.1900 -0.0954  0.2757
  224MOL0     O30833   7.606   3.457   6.627 -0.1491 -0.2086  0.5849
  224MOL0     C30834   7.524   3.368   6.552  0.4578 -0.4863  0.5065
  224MOL0     C30835   7.432   3.464   6.470  1.0522  0.0550  0.3648
  224MOL0     C30836   7.495   3.513   6.340  0.6250  0.2953 -0.0890
  224MOL0     C30837   7.602   3.619   6.375  0.4004  0.5916  0.5698
  224MOL0     C30838   7.659   3.680   6.252  0.0084  0.4706 -0.2764
  224MOL0     C30839   7.700   3.725   6.148 -0.5595 -0.5325  0.4516
  224MOL0     C30840   7.656   3.579   6.831  1.5217  0.4831 -0.7227
  224MOL0     C30841   7.618   3.617   6.960 -1.3499 -0.0444  0.3219
  224MOL0     C30842   7.715   3.714   7.032 -0.9536 -0.1290  0.3618
  224MOL0     H30843   7.230   3.811   7.273 -1.0980  1.1389  1.2366
  224MOL0     H30844   7.126   3.859   7.507 -1.6796 -0.0872  3.5927
  224MOL0     H30845   7.109   3.523   7.796 -3.0027 -0.1121 -2.3999
  224MOL0     H30846   7.048   3.671   7.880  0.0350  1.1960 -0.1066
  224MOL0     H30847   7.320   3.640   7.751 -1.1051 -1.2114 -0.4908
  224MOL0     H30848   7.248   3.779   7.842  0.5082  0.1629 -1.2187
  224MOL0     H30849   7.230   3.609   8.036  0.1791 -2.0101  0.6396
  224MOL0     H30850   7.329   3.497   7.938  0.5282  0.1765  0.6288
  224MOL0     H30851   7.521   3.652   7.957  0.1878  2.3802  1.5130
  224MOL0     H30852   7.419   3.778   8.015  0.1458  0.4623 -0.1182
  224MOL0     H30853   7.363   3.575   8.195  0.3209 -2.1655 -1.4549
  224MOL0     H30854   7.487   3.704   8.229  1.7316 -1.5895  1.1955
  224MOL0     H30855   7.551   3.452   8.080  0.0900  0.8433 -1.2345
  224MOL0     H30856   7.660   3.541   8.176 -1.7460  1.9428 -0.8921
  224MOL0     H30857   7.435   3.388   8.296 -0.1165 -0.5966 -1.3646
  224MOL0     H30858   7.533   3.523   8.379  0.8524  1.8963 -1.0382
  224MOL0     H30859   7.664   3.268   8.273  2.0247 -0.7525  1.6766
  224MOL0     H30860   7.728   3.390   8.387  0.3777 -0.1091 -1.8889
  224MOL0     H30861   7.399   3.372   8.521 -0.1467 -0.4909 -2.7779
  224MOL0     H30862   7.339   3.266   8.793  1.7491  0.2102  1.6812
  224MOL0     H30863   7.389   3.106   8.814  1.6267  0.5995  0.5102
  224MOL0     H30864   7.158   3.128   8.762  2.7522 -0.3590  3.2426
  224MOL0     H30865   7.182   3.213   8.608 -1.4883 -0.9597  2.4126
  224MOL0     H30866   7.300   3.018   8.509 -1.2539 -0.5482 -0.4329
  224MOL0     H30867   7.296   2.932   8.655  1.0509 -0.1513 -1.3929
  224MOL0     H30868   7.142   2.860   8.479  1.7441  0.5690  0.5517
  224MOL0     H30869   7.048   2.881   8.618  0.3205  0.5360  0.1930
  224MOL0     H30870   6.895   2.947   8.705 -0.7014 -0.9880 -2.3135
  224MOL0     H30871   6.785   3.000   8.911  0.8349  1.3609  0.8274
  224MOL0     H30872   6.621   3.020   8.850 -1.8360  2.7503 -1.6597
  224MOL0     H30873   6.726   3.158   8.926  5.7906  0.9692 -1.8194
  224MOL0     H30874   6.295   3.431   8.574  1.6001  2.1208 -2.5136
  224MOL0     H30875   6.114   3.577   8.666  0.8624  1.3927 -0.1835
  224MOL0     H30876   6.128   3.615   9.063  6.9427  0.1111  0.2779
  224MOL0     H30877   6.160   3.792   9.090 -0.5586 -1.0403  1.9485
  224MOL0     H30878   5.937   3.825   8.962  2.9947  5.4046  4.6164
  224MOL0     H30879   5.911   3.652   8.982  1.0224  0.7522 -1.6758
  224MOL0     H30880   5.915   3.692   9.239 -0.6552  1.9837  4.2181
  224MOL0     H30881   5.794   3.782   9.145  1.4825  0.9978 -0.9108
  224MOL0     H30882   5.890   3.998   9.179 -0.6337  1.2249 -0.2201
  224MOL0     H30883   6.047   3.927   9.224  0.4907  0.1693 -1.0032
  224MOL0     H30884   5.786   3.853   9.370 -0.5060  1.0680 -0.7670
  224MOL0     H30885   5.952   3.849   9.431  0.9320 -1.1188 -0.2954
  224MOL0     H30886   5.964   4.098   9.391 -0.7487 -0.1537 -2.6869
  224MOL0     H30887   5.871   4.032   9.530  1.8429 -3.0438 -0.7484
  224MOL0     H30888   5.660   4.071   9.404  1.3241 -2.1160 -0.1879
  224MOL0     H30889   5.748   4.127   9.267  1.8268 -3.7940  0.2788
  224MOL0     H30890   5.839   4.322   9.374  1.4898 -1.9114 -0.0870
  224MOL0     H30891   5.807   4.257   9.536  1.7536  0.2051 -1.2058
  224MOL0     H30892   6.376   3.692   8.986 -1.2622 -4.2649  2.0606
  224MOL0     H30893   6.554   3.546   8.898 -0.8351 -0.7114  1.0668
  224MOL0     H30894   6.726   3.361   8.488 -0.1463  0.1521  0.1043
  224MOL0     H30895   6.926   3.258   8.408 -0.1323  3.3081  0.1819
  224MOL0     H30896   7.156   3.445   7.581  2.8837 -0.9148 -0.3061
  224MOL0     H30897   7.256   3.395   7.372  0.2181  0.6133 -1.1361
  224MOL0     H30898   7.311   3.499   6.965  0.3404 -1.4927 -0.8442
  224MOL0     H30899   7.359   3.419   6.756 -1.5501 -0.4977  1.0035
  224MOL0     H30900   7.573   3.315   6.470 -0.2334  2.2563 -1.8680
  224MOL0     H30901   7.457   3.302   6.609 -0.7704  1.1247  1.0286
  224MOL0     H30902   7.398   3.555   6.521  2.2403  0.5937  0.2109
  224MOL0     H30903   7.340   3.406   6.452  0.9046  1.0235 -2.4486
  224MOL0     H30904   7.543   3.432   6.285 -3.1594 -2.9043  0.8954
  224MOL0     H30905   7.419   3.559   6.276  0.7814 -0.1407 -0.5901
  224MOL0     H30906   7.683   3.562   6.422 -2.1396 -3.0875  0.9678
  224MOL0     H30907   7.569   3.696   6.445  2.4047 -1.2129  3.7735
  224MOL0     H30908   7.739   3.756   6.053  2.0799  1.4654  2.0740
  224MOL0     H30909   7.752   3.598   6.785  1.8556 -1.2229 -0.7944
  224MOL0     H30910   7.750   3.650   7.114  1.0502 -0.6242 -0.8139
  224MOL0     H30911   7.805   3.735   6.974 -1.7041 -1.1810 -1.2467
  224MOL0     H30912   7.676   3.808   7.072  1.4411  0.2813  1.9696
  225MOL0     O30913  11.378   2.548   8.681 -0.3688 -0.8622  0.2393
  225MOL0     C30914  11.429   2.598   8.785 -0.4753 -0.4690  0.6932
  225MOL0     O30915  11.456   2.738   8.803  0.3792  0.3018  0.1710
  225MOL0     C30916  11.437   2.802   8.681  0.3473  0.3799 -0.2828
  225MOL0     C30917  11.548   2.836   8.595  0.8172  0.5326 -0.5611
  225MOL0     C30918  11.527   2.888   8.474  0.4390 -0.3763 -0.2487
  225MOL0     C30919  11.395   2.908   8.429 -0.1203 -0.6240  0.4482
  225MOL0     O30920  11.382   2.957   8.304 -0.2118 -0.2358 -0.0503
  225MOL0     C30921  11.443   3.085   8.290  0.7410 -0.1611  0.6863
  225MOL0     C30922  11.406   3.171   8.176  0.8051 -0.6719  0.6638
  225MOL0     C30923  11.268   3.245   8.197 -0.0961  0.2951  0.3817
  225MOL0     C30924  11.276   3.385   8.138 -0.3014  0.8882  0.0813
  225MOL0     C30925  11.150   3.457   8.104 -1.1131  0.4415  0.2875
  225MOL0     C30926  11.142   3.568   8.211 -0.1262  0.5479 -0.7187
  225MOL0     C30927  11.011   3.658   8.196 -0.2373  0.0423  0.3583
  225MOL0     C30928  11.026   3.776   8.297  0.1192 -1.1931  0.1472
  225MOL0     N30929  10.906   3.863   8.291  0.0425  0.1958  0.5256
  225MOL0     C30930  10.838   3.920   8.394  0.3540  0.1808  0.0270
  225MOL0     C30931  10.755   4.006   8.334  0.2237 -0.1465  0.0265
  225MOL0     C30932  10.669   4.108   8.403 -0.6240 -0.4749 -0.2408
  225MOL0     C30933  10.701   4.138   8.546 -0.3123 -0.7782 -0.3893
  225MOL0     C30934  10.850   4.193   8.571  0.2945  0.1930  0.2254
  225MOL0     C30935  10.881   4.238   8.713 -0.8319 -0.1185 -0.4003
  225MOL0     O30936  11.011   4.287   8.719 -0.0102 -0.3660 -0.3864
  225MOL0     C30937  11.050   4.327   8.849  0.0015  0.2492 -0.7127
  225MOL0     C30938  11.165   4.401   8.867  0.5004 -0.1604  0.6129
  225MOL0     C30939  11.210   4.455   8.989 -0.3664 -0.4192 -0.2474
  225MOL0     C30940  11.327   4.550   8.973  0.2896  0.2005  0.0034
  225MOL0     C30941  11.135   4.430   9.109 -0.1868 -0.4425 -1.2587
  225MOL0     C30942  11.188   4.458   9.243 -0.0046 -0.6224  0.1293
  225MOL0     O30943  11.107   4.432   9.345 -0.0270  0.1010 -0.4139
  225MOL0     C30944  11.139   4.487   9.471  0.8503 -0.0239  0.3244
  225MOL0     C30945  11.247   4.441   9.552 -0.1741 -0.3031 -0.6236
  225MOL0     C30946  11.269   4.503   9.680 -0.0532  0.1954  0.3859
  225MOL0     C30947  11.185   4.603   9.731  0.9536 -0.8967 -0.4338
  225MOL0     O30948  11.209   4.679   9.850 -0.7132 -0.5669  0.2801
  225MOL0     C30949  11.257   4.609   9.966 -0.6615  0.9529 -0.6040
  225MOL0     C30950  11.260   4.699  10.090 -0.2147 -0.8361 -0.2489
  225MOL0     C30951  11.288   4.620  10.217 -0.6192  0.0129 -0.2760
  225MOL0     C30952  11.316   4.713  10.343  0.6059 -0.0532  0.4737
  225MOL0     C30953  11.434   4.803  10.341 -0.5350  0.5618  0.2800
  225MOL0     C30954  11.494   4.834  10.481  0.2150  0.7091 -0.4963
  225MOL0     C30955  11.626   4.910  10.457  0.3274 -0.3594 -1.2177
  225MOL0     C30956  11.717   4.922  10.577 -0.4334  0.0539 -0.5666
  225MOL0    Cl30957  11.634   4.901  10.741 -0.7527  0.2123  0.0476
  225MOL0     C30958  11.087   4.649   9.646  0.2340  1.1704  0.2411
  225MOL0     C30959  11.062   4.592   9.516  1.5079  0.2984  0.1374
  225MOL0     O30960  11.300   4.504   9.253  0.6888  0.6719 -0.1853
  225MOL0     C30961  11.022   4.355   9.092 -0.2635  0.9033  0.1089
  225MOL0     C30962  10.978   4.309   8.971 -0.8335  0.0719  0.2930
  225MOL0     N30963  10.761   3.997   8.195 -0.0885  0.6687 -0.1362
  225MOL0     N30964  10.861   3.917   8.169  1.4203  0.0891 -0.2874
  225MOL0     C30965  11.286   2.891   8.514 -0.9478 -0.3956  0.4804
  225MOL0     C30966  11.315   2.842   8.639 -0.0488  0.3844 -0.3421
  225MOL0     C30967  11.447   2.513   8.907  0.1133  0.4679 -0.2917
  225MOL0     C30968  11.482   2.586   9.029 -0.2392  0.1069  0.0761
  225MOL0     C30969  11.490   2.523   9.152 -0.5424 -0.4099 -1.0579
  225MOL0     C30970  11.459   2.391   9.156 -0.1393 -0.1954  0.6819
  225MOL0     O30971  11.457   2.338   9.282  0.6948  0.1624  0.6439
  225MOL0     C30972  11.352   2.244   9.302  0.4548  0.3116  0.5738
  225MOL0     C30973  11.334   2.222   9.454  0.7340 -0.5311  0.2803
  225MOL0     C30974  11.238   2.114   9.501 -0.2176  0.4890 -1.1745
  225MOL0     C30975  11.212   2.122   9.645 -0.9919  0.9819  0.0609
  225MOL0     C30976  11.118   2.028   9.692  1.0899  0.3906  0.0596
  225MOL0     C30977  11.033   1.955   9.736 -0.4184  0.2246 -0.1545
  225MOL0     C30978  11.442   2.315   9.045  0.8234  0.5070 -0.2512
  225MOL0     C30979  11.416   2.371   8.919  0.3273 -0.6009 -0.0663
  225MOL0     C30980  11.391   2.275   8.803 -0.3720 -0.3026  0.0019
  225MOL0     H30981  11.645   2.795   8.622  0.1136  0.2419  1.7631
  225MOL0     H30982  11.611   2.908   8.408 -0.5695 -1.2173 -1.8380
  225MOL0     H30983  11.552   3.075   8.280  0.8790  0.0529  1.7848
  225MOL0     H30984  11.419   3.151   8.374 -0.4720  2.2824 -1.4678
  225MOL0     H30985  11.484   3.243   8.147 -0.8705  1.0227  0.1412
  225MOL0     H30986  11.390   3.110   8.087 -3.5952  1.4501 -0.2749
  225MOL0     H30987  11.188   3.186   8.152  0.0161  0.7802 -0.4652
  225MOL0     H30988  11.243   3.252   8.303  0.5660 -1.3483  0.6882
  225MOL0     H30989  11.338   3.442   8.208  1.7967 -1.2005  0.0550
  225MOL0     H30990  11.338   3.391   8.048 -1.6520 -0.4012 -0.9810
  225MOL0     H30991  11.064   3.393   8.127  0.6354 -1.5898  1.5921
  225MOL0     H30992  11.149   3.498   8.003  2.3198  2.0188  0.7777
  225MOL0     H30993  11.149   3.522   8.311 -3.3206 -3.6564 -2.1013
  225MOL0     H30994  11.231   3.628   8.194  1.2880 -1.4704 -0.7586
  225MOL0     H30995  10.927   3.593   8.221  0.3346 -0.3475  1.3480
  225MOL0     H30996  11.007   3.691   8.092  1.4061  1.4128  0.6796
  225MOL0     H30997  11.042   3.732   8.396 -1.7676 -1.5605  0.3249
  225MOL0     H30998  11.113   3.836   8.268  0.7671 -1.5620  1.2436
  225MOL0     H30999  10.859   3.906   8.500 -1.3370 -3.2953  0.0268
  225MOL0     H31000  10.565   4.073   8.399 -0.0126 -2.4675  0.0978
  225MOL0     H31001  10.672   4.210   8.365 -2.5128 -0.2649  0.0526
  225MOL0     H31002  10.636   4.221   8.575  2.4708  1.6407 -0.6162
  225MOL0     H31003  10.669   4.048   8.599 -0.1507 -0.1212  0.8649
  225MOL0     H31004  10.913   4.116   8.526 -1.1121 -0.2293 -1.1250
  225MOL0     H31005  10.866   4.281   8.508  0.7559 -1.5982 -2.3541
  225MOL0     H31006  10.811   4.316   8.745 -0.3041  0.4275 -0.5500
  225MOL0     H31007  10.869   4.147   8.772 -0.6404 -0.8005 -1.3837
  225MOL0     H31008  11.219   4.422   8.775  2.4570  0.1184  1.7705
  225MOL0     H31009  11.424   4.508   9.000 -0.6560 -1.2413  1.4254
  225MOL0     H31010  11.308   4.647   9.020  1.0663  1.5649 -2.3556
  225MOL0     H31011  11.336   4.574   8.867  0.2031  1.2154  0.2196
  225MOL0     H31012  11.320   4.365   9.523  2.4375  1.4819  0.8358
  225MOL0     H31013  11.353   4.477   9.742 -0.7490 -1.5891  0.6241
  225MOL0     H31014  11.193   4.521   9.979 -3.4647  2.7468 -1.3714
  225MOL0     H31015  11.363   4.585   9.954 -0.2374  1.3894  1.7199
  225MOL0     H31016  11.327   4.785  10.084  2.1283 -2.5097  0.6418
  225MOL0     H31017  11.161   4.745  10.103  1.1231  1.7192  1.9959
  225MOL0     H31018  11.380   4.565  10.194 -0.3031  0.6562 -0.5736
  225MOL0     H31019  11.204   4.553  10.238 -0.0908 -0.6418 -0.2237
  225MOL0     H31020  11.311   4.648  10.431 -1.0178  1.9387  1.9385
  225MOL0     H31021  11.221   4.766  10.355 -1.5084 -3.5693  0.6744
  225MOL0     H31022  11.510   4.752  10.281 -2.0710 -2.1707  0.5411
  225MOL0     H31023  11.405   4.892  10.284  2.0957 -0.1744 -2.4750
  225MOL0     H31024  11.512   4.730  10.512  0.4822  0.2966 -1.9925
  225MOL0     H31025  11.428   4.889  10.549  1.5757  1.1540  0.5215
  225MOL0     H31026  11.602   5.012  10.425 -1.4408 -0.6098 -0.7837
  225MOL0     H31027  11.688   4.858  10.383  2.6773 -0.4464  0.6750
  225MOL0     H31028  11.771   5.017  10.584 -1.3974  0.5103  3.5243
  225MOL0     H31029  11.786   4.837  10.585 -2.9398 -2.0353  0.3679
  225MOL0     H31030  11.020   4.726   9.684  1.5725  1.7425  1.4944
  225MOL0     H31031  10.995   4.640   9.446 -0.0156 -2.0513 -0.1294
  225MOL0     H31032  10.954   4.344   9.176 -0.0226  0.4297  0.2412
  225MOL0     H31033  10.882   4.259   8.962 -1.2022  0.2046  2.9203
  225MOL0     H31034  11.186   2.912   8.477 -1.5464  1.3776  2.8726
  225MOL0     H31035  11.226   2.815   8.695 -0.5335 -0.5105 -1.4987
  225MOL0     H31036  11.516   2.687   9.047  0.8641  0.2265 -2.3155
  225MOL0     H31037  11.525   2.570   9.244  0.8720  1.4260 -2.4413
  225MOL0     H31038  11.255   2.281   9.267  0.4274  1.4769  1.7913
  225MOL0     H31039  11.374   2.145   9.260 -1.0944  1.3525 -3.1086
  225MOL0     H31040  11.298   2.321   9.485  0.2040 -0.3723 -0.7875
  225MOL0     H31041  11.432   2.211   9.501  1.3704  1.0098 -0.6007
  225MOL0     H31042  11.142   2.122   9.450  0.4924  1.3209 -2.4391
  225MOL0     H31043  11.279   2.017   9.472  2.8225  2.0709 -2.7009
  225MOL0     H31044  11.172   2.219   9.676  0.7951  1.2485  1.7489
  225MOL0     H31045  11.309   2.108   9.693 -1.2012 -0.0048  0.2176
  225MOL0     H31046  10.969   1.878   9.773 -1.0606  1.8198  2.3192
  225MOL0     H31047  11.439   2.206   9.048  0.3537  0.4950 -0.8769
  225MOL0     H31048  11.431   2.174   8.819  0.6298  0.2930  1.4276
  225MOL0     H31049  11.285   2.258   8.785 -0.3724  1.8667 -2.7187
  225MOL0     H31050  11.446   2.313   8.716 -1.1810  0.3815 -0.2242
  226MOL0     O31051   1.284   5.575   0.589 -0.0722 -0.1010 -0.0602
  226MOL0     C31052   1.367   5.560   0.496 -0.0155  0.0143 -0.1151
  226MOL0     O31053   1.418   5.659   0.425  0.4442  0.4608  0.1903
  226MOL0     C31054   1.408   5.795   0.457  0.2440 -0.1683 -0.5191
  226MOL0     C31055   1.368   5.888   0.362 -0.1187 -0.9432 -1.1393
  226MOL0     C31056   1.359   6.025   0.401 -1.3099 -0.5386 -0.4718
  226MOL0     C31057   1.416   6.070   0.516 -0.6321 -1.3584 -0.3754
  226MOL0     O31058   1.432   6.201   0.547 -0.1055 -0.0967  0.7898
  226MOL0     C31059   1.434   6.296   0.438 -0.3885  0.4685 -0.0166
  226MOL0     C31060   1.476   6.431   0.485  0.5919  0.2065 -0.1867
  226MOL0     C31061   1.476   6.529   0.358  0.5397  0.2555 -0.6919
  226MOL0     C31062   1.342   6.588   0.344  0.5802 -0.3169  0.2645
  226MOL0     C31063   1.335   6.644   0.198 -0.2414 -0.4455  0.6460
  226MOL0     C31064   1.310   6.536   0.096  0.2798 -0.2986 -0.7951
  226MOL0     C31065   1.274   6.600  -0.040 -0.2001 -0.4580 -0.2951
  226MOL0     C31066   1.387   6.685  -0.099 -0.0590 -1.1481 -0.0250
  226MOL0     N31067   1.521   6.614  -0.093 -0.6129  0.7738  0.1176
  226MOL0     C31068   1.556   6.501  -0.167 -0.1005 -0.9895 -0.5610
  226MOL0     C31069   1.691   6.492  -0.131  0.9710 -0.2363  0.7458
  226MOL0     C31070   1.766   6.366  -0.150  0.3299  0.4071 -0.2221
  226MOL0     C31071   1.903   6.383  -0.203 -0.1655  0.1732 -0.4760
  226MOL0     C31072   1.931   6.364  -0.348 -0.7618  0.4279  0.6470
  226MOL0     C31073   2.083   6.363  -0.374  1.3949 -0.6160 -0.7809
  226MOL0     O31074   2.132   6.230  -0.345 -0.2485 -0.1111  0.2546
  226MOL0     C31075   2.093   6.132  -0.435  0.2076 -0.1729 -0.3335
  226MOL0     C31076   2.045   6.016  -0.375 -0.0865  0.5568  0.4172
  226MOL0     C31077   2.030   5.899  -0.462 -0.5779  0.3607 -0.1769
  226MOL0     C31078   1.959   5.788  -0.401 -1.0013 -0.1681 -0.5778
  226MOL0     C31079   2.049   5.914  -0.603 -0.3016 -0.3575  0.6225
  226MOL0     C31080   2.016   5.798  -0.692  0.1051 -0.7150  0.3104
  226MOL0     O31081   1.955   5.832  -0.809 -0.4031 -0.4489  0.4018
  226MOL0     C31082   1.944   5.752  -0.915  0.0844  0.4965 -0.4788
  226MOL0     C31083   1.818   5.751  -0.985  0.2651  0.5610  0.2442
  226MOL0     C31084   1.794   5.675  -1.098  0.4530  0.1298 -0.7723
  226MOL0     C31085   1.886   5.588  -1.150  0.2725  0.1610  0.3194
  226MOL0     O31086   1.856   5.521  -1.264 -0.7949  0.7188  0.9417
  226MOL0     C31087   1.966   5.470  -1.337  0.1918  0.1937  0.8023
  226MOL0     C31088   1.921   5.410  -1.470  0.6743  0.5211 -1.4713
  226MOL0     C31089   1.810   5.303  -1.447 -0.3860  0.6185  0.3950
  226MOL0     C31090   1.820   5.203  -1.566  0.2206  1.1371  0.2718
  226MOL0     C31091   1.699   5.111  -1.554  0.0708  0.7499 -0.4001
  226MOL0     C31092   1.688   5.034  -1.414 -0.1604 -1.1821  0.1985
  226MOL0     C31093   1.553   4.960  -1.407  0.1571 -0.6900 -0.3299
  226MOL0     C31094   1.560   4.825  -1.339 -1.1088 -0.5221  0.4638
  226MOL0    Cl31095   1.405   4.778  -1.271  0.2011 -0.0355 -0.5442
  226MOL0     C31096   2.004   5.591  -1.086 -0.7962 -0.2376  0.1514
  226MOL0     C31097   2.033   5.668  -0.969 -0.5428  0.5803  0.4339
  226MOL0     O31098   2.070   5.687  -0.675  0.6882 -0.0639  0.3711
  226MOL0     C31099   2.096   6.038  -0.658  0.6734  0.0161 -0.9662
  226MOL0     C31100   2.117   6.143  -0.571  0.5543  0.0376  0.1479
  226MOL0     N31101   1.729   6.591  -0.050 -0.1712 -0.0781  0.4184
  226MOL0     N31102   1.629   6.661  -0.026 -0.2737 -0.1196  0.1200
  226MOL0     C31103   1.448   5.979   0.616 -0.6503  0.2136  0.4119
  226MOL0     C31104   1.436   5.838   0.588  0.4753 -0.9843  0.3365
  226MOL0     C31105   1.406   5.416   0.476  0.4703  0.2455 -0.2084
  226MOL0     C31106   1.304   5.320   0.470  0.6023 -0.7125  0.6406
  226MOL0     C31107   1.344   5.187   0.442 -0.1738 -0.6835 -0.2447
  226MOL0     C31108   1.474   5.146   0.422  0.4193 -0.1451  0.0380
  226MOL0     O31109   1.509   5.017   0.385 -0.1166 -0.6412 -0.0115
  226MOL0     C31110   1.441   4.963   0.271  0.5349  0.3265  0.0722
  226MOL0     C31111   1.525   4.842   0.206 -0.3314 -0.6579  0.0058
  226MOL0     C31112   1.443   4.768   0.102  0.4217 -0.0727 -0.0835
  226MOL0     C31113   1.522   4.674   0.015  0.0656  0.3360  0.2648
  226MOL0     C31114   1.615   4.749  -0.067  0.0203  0.0708 -0.4898
  226MOL0     C31115   1.686   4.809  -0.148 -0.2598  0.6246 -0.1941
  226MOL0     C31116   1.569   5.248   0.427  0.2491 -0.1968 -0.1765
  226MOL0     C31117   1.537   5.382   0.457  0.0515  0.6877 -0.0638
  226MOL0     C31118   1.652   5.478   0.480 -0.1619  0.8136 -0.0973
  226MOL0     H31119   1.333   5.853   0.265 -2.7406 -0.7794 -0.3464
  226MOL0     H31120   1.326   6.091   0.321  2.4393 -0.1543 -1.8810
  226MOL0     H31121   1.334   6.305   0.396 -0.0430  1.5802 -0.6383
  226MOL0     H31122   1.503   6.253   0.366  1.0703  0.3944  1.3760
  226MOL0     H31123   1.415   6.467   0.568  1.4021 -0.4680  0.7411
  226MOL0     H31124   1.580   6.434   0.519  0.3469  4.3016  0.6918
  226MOL0     H31125   1.541   6.615   0.379 -2.0130  1.4738  3.3392
  226MOL0     H31126   1.516   6.480   0.268  0.0290 -0.2770 -0.6316
  226MOL0     H31127   1.270   6.506   0.349  1.6036 -1.4850 -2.2937
  226MOL0     H31128   1.317   6.669   0.413 -0.5080 -0.7981  0.4557
  226MOL0     H31129   1.427   6.699   0.177 -0.7781  0.9657  1.8181
  226MOL0     H31130   1.243   6.703   0.189  0.5901  0.6769 -0.8782
  226MOL0     H31131   1.398   6.474   0.074  0.0982 -0.5341 -0.8559
  226MOL0     H31132   1.228   6.481   0.143 -0.0488  0.0025 -1.0110
  226MOL0     H31133   1.181   6.655  -0.022 -1.0059 -0.9676 -2.5233
  226MOL0     H31134   1.250   6.516  -0.105  0.7074 -1.4543  0.6296
  226MOL0     H31135   1.369   6.715  -0.203  2.1407  2.1930  0.4105
  226MOL0     H31136   1.404   6.775  -0.040 -1.5721 -2.7341  3.0812
  226MOL0     H31137   1.483   6.443  -0.222  3.2525 -1.0233 -5.5971
  226MOL0     H31138   1.721   6.284  -0.206 -2.2527 -0.0088  2.2643
  226MOL0     H31139   1.777   6.325  -0.049 -0.1404 -1.1235 -0.7772
  226MOL0     H31140   1.938   6.484  -0.179  3.2798 -0.6586 -1.4186
  226MOL0     H31141   1.958   6.307  -0.147 -0.4775 -1.4326 -2.2657
  226MOL0     H31142   1.898   6.262  -0.371  1.0079 -0.4088  1.6333
  226MOL0     H31143   1.888   6.439  -0.415  2.4714  1.4191 -0.5079
  226MOL0     H31144   2.102   6.389  -0.479  2.0123 -0.9728 -0.7607
  226MOL0     H31145   2.116   6.449  -0.316  1.6816  0.4366 -2.4190
  226MOL0     H31146   2.023   6.035  -0.270  3.9185  5.0044  0.8468
  226MOL0     H31147   1.970   5.782  -0.292 -2.8638 -0.8106 -0.3983
  226MOL0     H31148   2.000   5.693  -0.438  1.7760  0.0551  1.5808
  226MOL0     H31149   1.851   5.790  -0.416 -0.9855  0.3646 -0.6261
  226MOL0     H31150   1.742   5.820  -0.949  0.5931  0.9994  0.1027
  226MOL0     H31151   1.690   5.679  -1.129 -0.7644  0.3470  2.8622
  226MOL0     H31152   2.036   5.548  -1.368  0.5663 -1.5204 -3.2559
  226MOL0     H31153   2.013   5.393  -1.275  0.1923 -0.1267  0.4053
  226MOL0     H31154   1.886   5.490  -1.536 -3.3565  0.6536  0.5578
  226MOL0     H31155   2.011   5.361  -1.510 -0.0297 -2.6614  0.5413
  226MOL0     H31156   1.710   5.340  -1.423 -0.0229  2.4458 -0.7251
  226MOL0     H31157   1.841   5.253  -1.354  0.9836  1.8057  0.6114
  226MOL0     H31158   1.916   5.151  -1.560  0.6041  1.5189 -1.7905
  226MOL0     H31159   1.835   5.258  -1.660 -2.4738 -0.7675 -1.3961
  226MOL0     H31160   1.609   5.171  -1.571  0.7395  1.5062 -1.3269
  226MOL0     H31161   1.704   5.048  -1.643  1.0984 -2.0762  1.5038
  226MOL0     H31162   1.705   5.111  -1.338  0.4947 -0.9603 -0.1579
  226MOL0     H31163   1.765   4.957  -1.425  1.6193  0.5632 -0.2958
  226MOL0     H31164   1.511   4.946  -1.508 -0.3912 -2.2366  0.0752
  226MOL0     H31165   1.481   5.014  -1.346 -0.1393  0.3229 -1.5388
  226MOL0     H31166   1.641   4.831  -1.265  1.7364  5.1586 -2.4489
  226MOL0     H31167   1.598   4.744  -1.402  3.1663 -0.1625  2.2177
  226MOL0     H31168   2.087   5.526  -1.113 -1.0875 -0.2209 -0.8255
  226MOL0     H31169   2.123   5.640  -0.916 -0.1371  0.5099 -0.2876
  226MOL0     H31170   2.130   6.022  -0.760  1.4589 -1.6573 -0.4758
  226MOL0     H31171   2.176   6.224  -0.613 -0.7453  1.3209  0.7104
  226MOL0     H31172   1.490   6.006   0.713 -2.0426  0.7014  0.9037
  226MOL0     H31173   1.465   5.764   0.662  0.5768 -2.2414 -0.9042
  226MOL0     H31174   1.201   5.352   0.478 -0.0114 -2.8780  2.1692
  226MOL0     H31175   1.263   5.116   0.439 -0.9517  0.2054 -0.8238
  226MOL0     H31176   1.336   4.946   0.299 -0.3146  1.7590 -1.9637
  226MOL0     H31177   1.427   5.044   0.200 -0.6907  2.7645  2.8730
  226MOL0     H31178   1.572   4.775   0.278  2.1791 -0.5924 -1.4496
  226MOL0     H31179   1.613   4.885   0.156  0.0179  0.3501  1.4430
  226MOL0     H31180   1.366   4.706   0.148 -0.0041  0.6652  0.2076
  226MOL0     H31181   1.388   4.831   0.031 -0.4898  1.1383  1.6414
  226MOL0     H31182   1.459   4.621  -0.056 -0.6090  0.7865  0.5214
  226MOL0     H31183   1.578   4.603   0.076  0.3933  2.8481  3.1654
  226MOL0     H31184   1.738   4.855  -0.230 -1.4094  1.9906 -0.2081
  226MOL0     H31185   1.671   5.213   0.413  0.5447  0.7144 -0.3731
  226MOL0     H31186   1.677   5.540   0.393  1.1783  0.6781  0.1662
  226MOL0     H31187   1.636   5.541   0.568 -0.8258  1.9137 -0.9847
  226MOL0     H31188   1.741   5.417   0.502 -1.7981 -2.3299 -1.4967
  227MOL0     O31189   7.206  11.546   9.323 -0.8438  0.3666 -0.0753
  227MOL0     C31190   7.114  11.622   9.302 -0.1032  0.5181 -0.7002
  227MOL0     O31191   7.022  11.674   9.399 -0.9585 -0.2010  0.2942
  227MOL0     C31192   7.042  11.654   9.535 -0.0861 -0.2199 -0.7417
  227MOL0     C31193   7.135  11.569   9.601  0.1674 -0.8966  0.3962
  227MOL0     C31194   7.148  11.564   9.737  0.8606 -0.6034 -0.7118
  227MOL0     C31195   7.058  11.637   9.816 -0.1383  0.6657 -0.5994
  227MOL0     O31196   7.077  11.615   9.949  1.5757  0.0423  1.1984
  227MOL0     C31197   6.992  11.671  10.049  0.4422 -0.2791 -0.7790
  227MOL0     C31198   6.975  11.574  10.171 -1.6369 -0.9560  0.2890
  227MOL0     C31199   7.107  11.565  10.241  0.4495  0.5474 -0.1805
  227MOL0     C31200   7.104  11.480  10.370  0.8852 -0.3712  0.0352
  227MOL0     C31201   7.246  11.500  10.432  0.3201  0.0661  0.6678
  227MOL0     C31202   7.267  11.386  10.536 -0.0180 -0.4942  0.5462
  227MOL0     C31203   7.367  11.431  10.640 -0.3043  0.2791 -0.3324
  227MOL0     C31204   7.318  11.503  10.769  0.6417  0.5138  0.3866
  227MOL0     N31205   7.213  11.426  10.848  0.2428 -0.8259  0.2640
  227MOL0     C31206   7.184  11.294  10.847  0.4277 -0.3524 -0.3519
  227MOL0     C31207   7.070  11.277  10.914 -0.0881  0.0899 -0.4977
  227MOL0     C31208   6.982  11.148  10.924  0.1321 -0.4498 -0.2733
  227MOL0     C31209   6.905  11.117  10.789  0.1147  0.0768 -0.9098
  227MOL0     C31210   6.997  11.026  10.700  0.2046 -0.5034 -1.0867
  227MOL0     C31211   6.947  11.026  10.556  0.5255  0.1546  0.2270
  227MOL0     O31212   6.915  11.156  10.515 -0.0528 -0.1644 -0.5009
  227MOL0     C31213   6.861  11.169  10.389  0.7322 -0.1123  0.5180
  227MOL0     C31214   6.788  11.283  10.368  0.4258 -0.3931  0.5536
  227MOL0     C31215   6.726  11.318  10.243  0.4390  0.1018  0.4045
  227MOL0     C31216   6.659  11.451  10.215 -0.4788 -0.3091 -0.0524
  227MOL0     C31217   6.721  11.221  10.141 -0.0622  0.2589 -0.1490
  227MOL0     C31218   6.678  11.248  10.007  0.8050  0.0553  1.1615
  227MOL0     O31219   6.728  11.348   9.936 -0.5168 -0.7810  0.0836
  227MOL0     C31220   6.698  11.360   9.802 -0.5333  1.0339 -0.2808
  227MOL0     C31221   6.561  11.363   9.759 -0.1839 -0.2371  0.4741
  227MOL0     C31222   6.530  11.410   9.626 -0.4994  0.4248 -0.5856
  227MOL0     C31223   6.630  11.445   9.537 -0.9678 -0.0860 -0.4885
  227MOL0     O31224   6.607  11.475   9.404 -0.1008  0.1834  0.3685
  227MOL0     C31225   6.568  11.357   9.332  0.3697  0.5668 -0.4234
  227MOL0     C31226   6.424  11.373   9.295 -0.2021  1.5097  0.3215
  227MOL0     C31227   6.371  11.235   9.246  0.0573 -0.2368  0.6467
  227MOL0     C31228   6.392  11.212   9.098  0.1375 -0.0003  0.5503
  227MOL0     C31229   6.315  11.088   9.045 -0.5900 -0.5996 -0.1122
  227MOL0     C31230   6.289  11.100   8.889  0.0482 -0.4003 -1.0078
  227MOL0     C31231   6.205  11.000   8.822  0.8062 -0.6769 -0.8369
  227MOL0     C31232   6.285  10.889   8.756 -0.1935 -1.2029 -0.1259
  227MOL0    Cl31233   6.362  10.778   8.876  0.0664  0.4943 -0.3491
  227MOL0     C31234   6.766  11.431   9.579  0.4562 -0.9258  0.1777
  227MOL0     C31235   6.799  11.402   9.712  0.5872  0.2050  0.2937
  227MOL0     O31236   6.597  11.169   9.968 -0.6259  0.7635  0.2384
  227MOL0     C31237   6.791  11.095  10.165  0.2606 -0.3123  0.2640
  227MOL0     C31238   6.859  11.075  10.291 -0.0855  0.2349 -0.1520
  227MOL0     N31239   7.026  11.400  10.957 -0.3878  0.1817 -0.3723
  227MOL0     N31240   7.112  11.489  10.907  0.9398 -0.2442 -0.2961
  227MOL0     C31241   6.972  11.732   9.755  0.1400 -0.2236  0.8589
  227MOL0     C31242   6.967  11.743   9.611  0.1520 -0.0247 -0.5183
  227MOL0     C31243   7.086  11.659   9.161 -0.2630  0.0237  1.0180
  227MOL0     C31244   6.955  11.700   9.115 -0.5605  1.1771 -0.7663
  227MOL0     C31245   6.921  11.735   8.984 -1.1645  0.4979 -0.2503
  227MOL0     C31246   7.024  11.744   8.895  0.0200  0.4730 -1.1623
  227MOL0     O31247   7.003  11.769   8.761 -0.0686  0.0040 -0.1154
  227MOL0     C31248   6.882  11.833   8.714  0.5316 -0.1509 -0.3666
  227MOL0     C31249   6.887  11.881   8.571  0.6965 -0.5490  0.0051
  227MOL0     C31250   6.770  11.981   8.534 -0.1150  0.3938  0.3177
  227MOL0     C31251   6.782  12.008   8.379  0.9063  0.2500 -0.5268
  227MOL0     C31252   6.812  11.902   8.280 -0.1008 -0.0145 -0.0810
  227MOL0     C31253   6.846  11.832   8.188  0.8595  0.1100 -0.1116
  227MOL0     C31254   7.152  11.701   8.930  0.2562 -0.6092 -0.0409
  227MOL0     C31255   7.189  11.656   9.056 -0.5438  0.4871 -1.2147
  227MOL0     C31256   7.330  11.613   9.069 -0.3599 -0.5660  0.3594
  227MOL0     H31257   7.200  11.507   9.541  0.3620  1.0680 -1.5797
  227MOL0     H31258   7.230  11.512   9.786  0.1541  0.2748  1.5165
  227MOL0     H31259   6.893  11.695  10.010 -1.1733 -0.1229  2.9543
  227MOL0     H31260   7.040  11.757  10.097 -0.1384 -1.7061  2.6933
  227MOL0     H31261   6.901  11.616  10.239 -0.4773  0.7465  0.5643
  227MOL0     H31262   6.937  11.479  10.131  1.7106 -2.2974  0.0017
  227MOL0     H31263   7.190  11.540  10.175  0.8225 -0.8173  0.7654
  227MOL0     H31264   7.123  11.669  10.273 -2.0072  1.5125 -1.7351
  227MOL0     H31265   7.030  11.520  10.440  1.0846 -4.1309  2.6919
  227MOL0     H31266   7.083  11.374  10.353 -0.4974  0.1657 -2.0206
  227MOL0     H31267   7.250  11.603  10.471  4.3382  2.3392 -4.5113
  227MOL0     H31268   7.318  11.498  10.350  0.6659  4.0611  0.6454
  227MOL0     H31269   7.169  11.365  10.579 -0.3964 -1.7490 -0.8429
  227MOL0     H31270   7.305  11.294  10.490  1.6908 -1.7946  4.1266
  227MOL0     H31271   7.440  11.505  10.606  0.6298  0.6299  2.2402
  227MOL0     H31272   7.422  11.342  10.673 -0.3516  1.4272  3.2837
  227MOL0     H31273   7.404  11.511  10.835  0.9996 -0.4432  0.0577
  227MOL0     H31274   7.265  11.593  10.735 -0.9785  0.8862  3.5316
  227MOL0     H31275   7.241  11.217  10.796 -1.9027 -2.1443 -0.3716
  227MOL0     H31276   6.907  11.168  11.001  1.7631  1.1888  0.9827
  227MOL0     H31277   7.039  11.063  10.960 -0.7541 -1.9032 -2.1528
  227MOL0     H31278   6.818  11.061  10.824  0.9700 -0.3753  0.5604
  227MOL0     H31279   6.879  11.208  10.735 -0.4490 -0.1385 -1.0078
  227MOL0     H31280   7.100  11.058  10.681  0.0889  1.3421  0.9649
  227MOL0     H31281   6.990  10.924  10.738  0.4916 -0.9558 -2.2071
  227MOL0     H31282   7.030  10.984  10.499  1.6027  0.9198  1.1739
  227MOL0     H31283   6.857  10.965  10.548 -1.1554  2.4900  0.2660
  227MOL0     H31284   6.793  11.355  10.449  1.0599  1.8514 -1.3721
  227MOL0     H31285   6.551  11.449  10.201 -0.4329  0.9128 -0.6719
  227MOL0     H31286   6.690  11.495  10.120 -1.4313  1.5732  0.4800
  227MOL0     H31287   6.678  11.524  10.294 -1.7874 -1.0560  0.9865
  227MOL0     H31288   6.471  11.346   9.817 -0.5430  0.7606  0.2244
  227MOL0     H31289   6.426  11.434   9.611 -0.2607  2.6130  0.8078
  227MOL0     H31290   6.625  11.340   9.240  0.5772 -2.8182  0.1825
  227MOL0     H31291   6.582  11.263   9.386 -0.8752 -1.2800 -3.0901
  227MOL0     H31292   6.368  11.392   9.387  1.3107 -1.0326  1.9061
  227MOL0     H31293   6.405  11.461   9.233  0.5221  2.7389  1.7751
  227MOL0     H31294   6.262  11.238   9.259  0.1254 -0.2013  1.2400
  227MOL0     H31295   6.409  11.153   9.307  0.2276 -0.4970  0.1980
  227MOL0     H31296   6.498  11.191   9.079 -0.5106 -2.5446 -0.6793
  227MOL0     H31297   6.354  11.297   9.040 -1.9598 -1.8223 -0.9312
  227MOL0     H31298   6.372  11.001   9.078 -0.3734 -0.3311  0.2319
  227MOL0     H31299   6.216  11.097   9.091 -0.8497  1.5009 -0.9669
  227MOL0     H31300   6.387  11.098   8.839  0.2994 -0.2028 -0.5308
  227MOL0     H31301   6.246  11.198   8.869 -0.3759 -0.5161 -0.6748
  227MOL0     H31302   6.148  11.055   8.747  0.9801  0.2229 -0.3227
  227MOL0     H31303   6.131  10.948   8.884  0.0153 -1.7933 -2.6132
  227MOL0     H31304   6.360  10.927   8.687 -1.0273  0.1715 -0.3035
  227MOL0     H31305   6.216  10.819   8.708 -0.9211  0.6503 -1.9313
  227MOL0     H31306   6.841  11.438   9.501  0.1708  1.7215  0.0327
  227MOL0     H31307   6.903  11.414   9.741  0.2802  0.6210  1.2558
  227MOL0     H31308   6.785  11.011  10.097 -0.2888  0.2223 -0.3677
  227MOL0     H31309   6.930  10.995  10.308  0.7826  0.8621 -0.7253
  227MOL0     H31310   6.911  11.809   9.802 -1.6050  0.7115 -2.5706
  227MOL0     H31311   6.901  11.813   9.560  0.2864  0.9139  0.5621
  227MOL0     H31312   6.884  11.714   9.195 -1.3354  0.9106 -1.3968
  227MOL0     H31313   6.818  11.761   8.961 -0.1809  4.3204 -0.9565
  227MOL0     H31314   6.810  11.750   8.716  1.6915 -1.1830  2.4098
  227MOL0     H31315   6.857  11.917   8.779 -0.0635  0.2742 -1.1291
  227MOL0     H31316   6.891  11.784   8.520 -1.1064 -1.0566  0.7794
  227MOL0     H31317   6.987  11.925   8.575  0.2459  0.4296  1.0634
  227MOL0     H31318   6.673  11.938   8.560 -1.5039  1.0302 -3.2553
  227MOL0     H31319   6.783  12.072   8.594 -0.8119 -0.9720  2.6878
  227MOL0     H31320   6.844  12.093   8.350 -1.8213  1.6281 -2.9663
  227MOL0     H31321   6.684  12.038   8.340  1.5248  2.4855 -0.5419
  227MOL0     H31322   6.877  11.757   8.118  2.7329  2.2143 -1.6961
  227MOL0     H31323   7.216  11.716   8.843  0.2547  1.7262  0.2999
  227MOL0     H31324   7.323  11.516   9.119  3.5560 -0.5169  1.3525
  227MOL0     H31325   7.382  11.620   8.973  0.9844  5.0985  1.1339
  227MOL0     H31326   7.381  11.678   9.141 -1.8953  0.0207  0.9694
  228MOL0     O31327   4.314   2.995   3.401 -0.6893 -0.3461  0.4272
  228MOL0     C31328   4.393   3.019   3.307 -0.8101 -0.6396  0.3059
  228MOL0     O31329   4.376   2.983   3.182  0.3366 -0.1932  0.1659
  228MOL0     C31330   4.277   2.891   3.149 -0.2917  0.1760 -1.2987
  228MOL0     C31331   4.219   2.784   3.224  0.5174 -0.0906  0.6320
  228MOL0     C31332   4.135   2.689   3.156 -0.2183 -0.4701  0.1206
  228MOL0     C31333   4.086   2.714   3.030 -0.8021  0.3789 -0.9350
  228MOL0     O31334   3.994   2.640   2.963 -0.6175 -0.6546 -0.0811
  228MOL0     C31335   3.967   2.502   3.007 -0.2392 -1.0563 -1.1154
  228MOL0     C31336   3.843   2.446   2.949  0.5295  0.1403  0.1077
  228MOL0     C31337   3.833   2.295   2.942 -0.1958 -0.7447  0.2236
  228MOL0     C31338   3.690   2.242   2.963 -0.6069 -0.9305 -0.3129
  228MOL0     C31339   3.681   2.099   3.013  1.2238  0.7828  0.0703
  228MOL0     C31340   3.748   2.005   2.907 -0.4247 -0.2812  0.4373
  228MOL0     C31341   3.764   1.854   2.933  0.2820  0.1544 -0.7537
  228MOL0     C31342   3.863   1.813   3.050  0.8293 -0.6666  0.5355
  228MOL0     N31343   3.849   1.680   3.104 -0.0535 -0.1216 -0.2875
  228MOL0     C31344   3.854   1.553   3.043  0.3503  0.1109 -0.8751
  228MOL0     C31345   3.823   1.470   3.144  0.0443 -0.0724 -0.1864
  228MOL0     C31346   3.801   1.323   3.148  1.0963  0.5563 -0.3992
  228MOL0     C31347   3.884   1.256   3.256 -0.7322  0.0121 -0.8604
  228MOL0     C31348   3.882   1.097   3.251 -0.5249  0.2893  1.1928
  228MOL0     C31349   3.988   1.043   3.345  0.7257  0.2558 -0.4103
  228MOL0     O31350   4.109   1.071   3.277 -0.8141  0.1720 -0.1913
  228MOL0     C31351   4.234   1.075   3.341  1.2573  0.2913  0.0724
  228MOL0     C31352   4.243   1.078   3.474 -0.7243  0.3798 -0.3924
  228MOL0     C31353   4.368   1.087   3.542  0.1801  0.7402 -0.8567
  228MOL0     C31354   4.380   1.071   3.694  0.1554 -0.0555 -0.2871
  228MOL0     C31355   4.484   1.092   3.461 -0.0106 -0.3437 -0.1884
  228MOL0     C31356   4.624   1.129   3.509 -0.8083  0.9614  0.5370
  228MOL0     O31357   4.630   1.190   3.621  0.3590  0.2175 -0.1203
  228MOL0     C31358   4.747   1.241   3.672 -0.6089 -0.6907 -0.3734
  228MOL0     C31359   4.760   1.254   3.819 -0.4739  0.2189  0.5482
  228MOL0     C31360   4.878   1.316   3.880  0.7863  0.2374  0.4950
  228MOL0     C31361   4.983   1.352   3.814  0.2598  0.0487  0.8850
  228MOL0     O31362   5.094   1.400   3.877  0.3977 -0.9433 -0.1457
  228MOL0     C31363   5.225   1.366   3.827 -0.6352  0.4485 -0.1147
  228MOL0     C31364   5.325   1.389   3.942 -0.0512  0.3613 -0.9845
  228MOL0     C31365   5.450   1.300   3.923  0.1887  0.2044 -0.7584
  228MOL0     C31366   5.552   1.312   4.035  0.5382 -0.0801  1.2859
  228MOL0     C31367   5.660   1.203   4.005 -0.1527 -0.9674 -0.4266
  228MOL0     C31368   5.777   1.206   4.102 -0.4640 -0.5413  0.0540
  228MOL0     C31369   5.917   1.151   4.058  0.1657  0.4792  0.0952
  228MOL0     C31370   5.984   1.189   3.923  0.2176  0.4762  0.2770
  228MOL0    Cl31371   5.990   1.368   3.923  0.2583 -0.0492  0.3949
  228MOL0     C31372   4.971   1.349   3.672 -0.2422 -0.0134  1.3753
  228MOL0     C31373   4.866   1.283   3.596  1.0707 -0.0302 -0.2570
  228MOL0     O31374   4.718   1.085   3.444 -0.7976 -0.2815 -0.0354
  228MOL0     C31375   4.466   1.090   3.321 -0.8043  0.6417 -0.1623
  228MOL0     C31376   4.344   1.086   3.259 -0.1073  0.0983  0.0361
  228MOL0     N31377   3.791   1.542   3.251  0.3308  0.2955 -0.4876
  228MOL0     N31378   3.797   1.672   3.231  0.3227  0.0679 -0.3642
  228MOL0     C31379   4.157   2.809   2.956  0.5129 -0.2902 -1.0330
  228MOL0     C31380   4.244   2.903   3.013  1.2278  0.3336  0.0183
  228MOL0     C31381   4.526   3.080   3.343  0.0815 -0.0380  0.5375
  228MOL0     C31382   4.525   3.175   3.459 -0.2891  0.2348 -0.2153
  228MOL0     C31383   4.648   3.228   3.498 -0.3133 -1.1526  1.4556
  228MOL0     C31384   4.772   3.199   3.430  1.3808 -0.0415  0.2148
  228MOL0     O31385   4.885   3.268   3.460  0.3675  0.2062 -0.3220
  228MOL0     C31386   4.897   3.329   3.589  0.6330 -0.7361 -0.6994
  228MOL0     C31387   5.042   3.319   3.639  0.0138  0.4096 -0.4550
  228MOL0     C31388   5.144   3.389   3.551 -1.3265 -0.8563 -0.1410
  228MOL0     C31389   5.160   3.546   3.580 -0.9977 -0.0887  0.5211
  228MOL0     C31390   5.251   3.582   3.688 -0.1165  0.4353  0.3553
  228MOL0     C31391   5.324   3.626   3.779 -0.4084  0.2661  0.5601
  228MOL0     C31392   4.765   3.110   3.319  0.0380 -0.0784 -0.6417
  228MOL0     C31393   4.650   3.055   3.269  0.4921  0.6216  0.7099
  228MOL0     C31394   4.663   2.974   3.138  0.3170  0.0184  0.3166
  228MOL0     H31395   4.244   2.772   3.329  0.0412 -1.7111  0.5952
  228MOL0     H31396   4.104   2.601   3.212 -1.1753 -0.7253 -0.7720
  228MOL0     H31397   3.943   2.505   3.113  1.2108  0.1487 -0.7942
  228MOL0     H31398   4.048   2.432   2.985 -1.1869 -3.0376  1.2570
  228MOL0     H31399   3.763   2.476   3.017  0.6824 -2.1542  1.4417
  228MOL0     H31400   3.810   2.489   2.854  2.5639  0.7683 -0.3596
  228MOL0     H31401   3.865   2.252   2.847 -0.1790 -1.6003  0.6046
  228MOL0     H31402   3.901   2.252   3.016  0.8474  0.8436  0.2362
  228MOL0     H31403   3.636   2.316   3.023  0.5103 -0.4900  0.1741
  228MOL0     H31404   3.632   2.247   2.871  0.0087 -1.2224 -0.7252
  228MOL0     H31405   3.577   2.070   3.027  1.7786 -0.9871  0.8210
  228MOL0     H31406   3.735   2.095   3.108  2.7507  0.8768 -0.7458
  228MOL0     H31407   3.687   2.023   2.818 -2.9741  0.1800  2.1572
  228MOL0     H31408   3.849   2.045   2.895 -0.8025  0.9462  1.0750
  228MOL0     H31409   3.787   1.807   2.837  2.2824  0.7710 -0.6203
  228MOL0     H31410   3.667   1.827   2.977  2.6904  0.5799  5.9267
  228MOL0     H31411   3.958   1.836   2.999 -0.2667  0.4552 -1.0972
  228MOL0     H31412   3.853   1.888   3.129  2.1976  1.3944 -1.1034
  228MOL0     H31413   3.874   1.538   2.938  1.1184  1.3734 -0.9330
  228MOL0     H31414   3.825   1.284   3.049 -1.1667  0.1371 -0.8300
  228MOL0     H31415   3.696   1.303   3.170  1.9876 -1.2023  2.9576
  228MOL0     H31416   3.986   1.294   3.240 -0.4708 -0.6090 -0.7108
  228MOL0     H31417   3.861   1.296   3.355  0.3123 -1.4745  0.0205
  228MOL0     H31418   3.787   1.065   3.295 -0.7407  1.6922  1.7946
  228MOL0     H31419   3.896   1.065   3.148  1.0913  2.4704  0.6694
  228MOL0     H31420   3.976   1.089   3.444  1.9481  0.6911 -0.4443
  228MOL0     H31421   3.980   0.934   3.349  0.6516  0.2134 -1.4550
  228MOL0     H31422   4.155   1.065   3.535 -2.1229  1.5516 -2.0700
  228MOL0     H31423   4.289   1.024   3.732  0.6746 -0.7097  0.1621
  228MOL0     H31424   4.399   1.164   3.748  0.7418 -0.3405 -0.0006
  228MOL0     H31425   4.451   0.994   3.724 -0.8818  0.2247  3.3439
  228MOL0     H31426   4.675   1.238   3.885 -1.3033 -0.8678 -0.7479
  228MOL0     H31427   4.880   1.336   3.987  0.1608  1.4406  0.2912
  228MOL0     H31428   5.233   1.268   3.779  0.6866 -0.2982  1.5302
  228MOL0     H31429   5.248   1.445   3.755 -0.9608  3.9267  3.3105
  228MOL0     H31430   5.361   1.492   3.948 -1.3567  1.0000 -3.2272
  228MOL0     H31431   5.276   1.376   4.040 -1.4036 -1.3842 -1.8238
  228MOL0     H31432   5.492   1.335   3.828  1.3053  2.8552  0.6133
  228MOL0     H31433   5.414   1.197   3.915  4.3254 -1.6746  1.5564
  228MOL0     H31434   5.499   1.295   4.130  2.7408 -0.7109  2.4591
  228MOL0     H31435   5.589   1.415   4.035 -0.4938  0.3499  3.3364
  228MOL0     H31436   5.609   1.106   4.007  1.7603 -2.1680  3.7906
  228MOL0     H31437   5.697   1.219   3.903 -1.1384 -1.6470 -0.9018
  228MOL0     H31438   5.742   1.146   4.186  1.5988 -3.1489 -0.7787
  228MOL0     H31439   5.779   1.302   4.154 -1.6605  0.1340 -1.0774
  228MOL0     H31440   5.910   1.042   4.051 -3.3617  0.7144 -3.2829
  228MOL0     H31441   5.990   1.173   4.137 -1.1098 -1.6322  1.9771
  228MOL0     H31442   5.933   1.148   3.835  3.8190 -4.3346  0.0461
  228MOL0     H31443   6.077   1.133   3.920 -0.8822 -1.3831 -2.2913
  228MOL0     H31444   5.051   1.385   3.607 -0.8707 -3.8701 -1.9178
  228MOL0     H31445   4.868   1.267   3.489  2.3725  1.1574 -0.4421
  228MOL0     H31446   4.541   1.103   3.244  0.0917  1.2093  0.7904
  228MOL0     H31447   4.341   1.078   3.150  3.3759  1.9805 -0.3647
  228MOL0     H31448   4.135   2.812   2.850  0.1361  1.6194 -0.9473
  228MOL0     H31449   4.285   2.983   2.951  1.0622 -0.0097 -0.5448
  228MOL0     H31450   4.443   3.191   3.528 -0.4241 -1.8782  0.2007
  228MOL0     H31451   4.649   3.304   3.576  0.3617 -1.2304  1.5349
  228MOL0     H31452   4.853   3.428   3.596 -3.3114 -2.3978  1.6337
  228MOL0     H31453   4.840   3.269   3.661  1.8585  0.1220  1.0456
  228MOL0     H31454   5.063   3.212   3.648 -2.7032 -0.1119  0.7563
  228MOL0     H31455   5.051   3.364   3.738 -0.0538  0.4015 -0.4451
  228MOL0     H31456   5.239   3.340   3.575 -0.8058  0.1698 -0.0676
  228MOL0     H31457   5.117   3.375   3.446  0.4557 -1.5537 -0.5435
  228MOL0     H31458   5.059   3.584   3.603  0.3019  1.0435  5.4732
  228MOL0     H31459   5.200   3.586   3.487 -1.1504 -0.7431  0.1698
  228MOL0     H31460   5.388   3.656   3.859  0.2522 -1.4886  0.7355
  228MOL0     H31461   4.861   3.099   3.269  1.6727 -2.8565  2.7130
  228MOL0     H31462   4.597   2.997   3.054 -1.0892  0.0443  1.4048
  228MOL0     H31463   4.759   2.992   3.089  1.6349  3.5880  3.6874
  228MOL0     H31464   4.644   2.869   3.162  3.9357 -0.0532  4.0153
  229MOL0     O31465  11.521  11.326   0.106 -0.0222 -0.2691 -0.3027
  229MOL0     C31466  11.533  11.405   0.201 -0.0315  0.7368 -0.3150
  229MOL0     O31467  11.636  11.485   0.225 -0.3118 -0.3921 -0.0734
  229MOL0     C31468  11.758  11.464   0.163  0.3075 -0.1209 -0.3483
  229MOL0     C31469  11.847  11.350   0.176 -0.1506  0.1320  0.5714
  229MOL0     C31470  11.969  11.353   0.101  0.2457  0.7418  0.4407
  229MOL0     C31471  11.990  11.452  -0.002 -0.0401 -0.0062  0.0867
  229MOL0     O31472  12.109  11.451  -0.076 -0.9185 -0.3746  0.3455
  229MOL0     C31473  12.114  11.479  -0.211 -0.3498 -0.5495  0.3258
  229MOL0     C31474  12.243  11.474  -0.272 -0.0298  0.0241  0.5484
  229MOL0     C31475  12.236  11.449  -0.423  0.2440 -0.0086  0.5184
  229MOL0     C31476  12.377  11.442  -0.490  0.3353 -0.2487 -0.0486
  229MOL0     C31477  12.380  11.389  -0.636  1.0638  0.5025  0.8255
  229MOL0     C31478  12.276  11.450  -0.736  0.5786 -1.7273 -0.1773
  229MOL0     C31479  12.264  11.373  -0.862  0.2230  0.6828  0.2713
  229MOL0     C31480  12.395  11.384  -0.936  1.1056 -1.1860 -0.8776
  229MOL0     N31481  12.497  11.280  -0.906 -0.0113 -0.9155  0.7248
  229MOL0     C31482  12.635  11.296  -0.914 -0.4371 -0.2299  0.8126
  229MOL0     C31483  12.688  11.172  -0.894 -0.0553 -0.1384  0.3654
  229MOL0     C31484  12.833  11.130  -0.910 -0.7208  0.1389  0.3708
  229MOL0     C31485  12.856  11.017  -1.018 -0.5940  0.1731 -0.2634
  229MOL0     C31486  13.003  10.968  -1.031  0.6375  0.6492 -0.1417
  229MOL0     C31487  13.011  10.856  -1.142  0.8693 -0.2329  0.6548
  229MOL0     O31488  12.926  10.751  -1.126  0.1784  0.2551 -0.4896
  229MOL0     C31489  12.941  10.664  -1.019  0.5921  0.8305  1.1209
  229MOL0     C31490  12.828  10.586  -1.006 -0.1795 -0.3311 -0.3437
  229MOL0     C31491  12.822  10.478  -0.909 -0.1703 -0.3764  0.6610
  229MOL0     C31492  12.691  10.406  -0.901  0.5425  0.0589 -0.2945
  229MOL0     C31493  12.937  10.443  -0.834 -0.6065 -0.2791 -0.0086
  229MOL0     C31494  12.954  10.339  -0.726  0.1608  0.9403 -0.0239
  229MOL0     O31495  12.841  10.259  -0.710  0.2945  0.3960  0.2192
  229MOL0     C31496  12.851  10.159  -0.615  0.7123 -0.2224  1.0958
  229MOL0     C31497  12.779  10.175  -0.499 -0.4153 -0.4643 -0.5482
  229MOL0     C31498  12.797  10.083  -0.384  0.9654 -0.1103  0.4973
  229MOL0     C31499  12.868   9.967  -0.393  0.1635  0.1468  0.6285
  229MOL0     O31500  12.844   9.857  -0.314 -0.6441 -1.0455  0.5114
  229MOL0     C31501  12.898   9.868  -0.179  0.8371 -0.2994  0.1229
  229MOL0     C31502  12.888   9.742  -0.088  0.1962  0.6801 -0.1595
  229MOL0     C31503  12.962   9.754   0.040  0.9011  0.0306 -0.1830
  229MOL0     C31504  12.943   9.631   0.119 -0.0835 -0.2035 -0.3222
  229MOL0     C31505  13.046   9.653   0.233 -0.2625 -0.6790  0.3563
  229MOL0     C31506  13.051   9.524   0.315 -0.4619 -0.1793  0.0837
  229MOL0     C31507  13.198   9.483   0.336 -0.4350  0.1136 -0.3352
  229MOL0     C31508  13.264   9.421   0.215  0.1593 -0.1330  0.2203
  229MOL0    Cl31509  13.153   9.294   0.142 -0.3430 -0.0535  0.2305
  229MOL0     C31510  12.940   9.953  -0.509 -0.2921 -0.2538 -0.3017
  229MOL0     C31511  12.941  10.052  -0.612 -0.3171  0.5664 -0.0466
  229MOL0     O31512  13.053  10.323  -0.656  0.4230 -0.3493  0.2112
  229MOL0     C31513  13.048  10.526  -0.860 -0.1539  0.4303 -0.4130
  229MOL0     C31514  13.053  10.634  -0.946  0.8343  0.0052 -0.0859
  229MOL0     N31515  12.581  11.086  -0.871 -0.5911  0.4613  0.1330
  229MOL0     N31516  12.474  11.152  -0.877  0.8451 -0.5602 -0.4914
  229MOL0     C31517  11.891  11.552  -0.020  0.6582  1.3705  0.5451
  229MOL0     C31518  11.788  11.558   0.069  0.3636  0.0845  0.3496
  229MOL0     C31519  11.419  11.402   0.304 -0.3126 -0.2883 -0.4401
  229MOL0     C31520  11.382  11.531   0.347  0.1911 -0.1676 -1.1502
  229MOL0     C31521  11.271  11.554   0.421 -0.4708  1.0930 -0.3343
  229MOL0     C31522  11.188  11.445   0.452 -0.7508  0.6064  0.8708
  229MOL0     O31523  11.074  11.463   0.519 -1.0391 -0.7405  0.7297
  229MOL0     C31524  11.099  11.477   0.661 -0.6558  0.5165 -0.2880
  229MOL0     C31525  11.081  11.329   0.726  0.5292  0.0235 -0.1074
  229MOL0     C31526  11.068  11.338   0.882 -0.1128  1.0345  0.1668
  229MOL0     C31527  11.083  11.188   0.937  0.0841  0.4137 -0.5654
  229MOL0     C31528  11.164  11.200   1.063 -0.2857  0.5451 -0.4483
  229MOL0     C31529  11.214  11.224   1.169 -0.0029  1.1057  0.7561
  229MOL0     C31530  11.220  11.313   0.410  0.8076  0.1311  0.2292
  229MOL0     C31531  11.341  11.294   0.347 -0.8639  0.1693  0.4073
  229MOL0     C31532  11.372  11.148   0.345  0.2071 -0.0699 -0.3752
  229MOL0     H31533  11.830  11.269   0.246 -2.1038  0.6564  0.7599
  229MOL0     H31534  12.033  11.265   0.107 -0.7200 -0.4878 -3.8843
  229MOL0     H31535  12.072  11.576  -0.239  2.6877  0.4517 -1.2684
  229MOL0     H31536  12.049  11.403  -0.255 -0.8482  0.6939 -1.1862
  229MOL0     H31537  12.282  11.574  -0.253 -0.5206 -0.1213  2.5834
  229MOL0     H31538  12.312  11.404  -0.224  2.3722  3.3299  2.3391
  229MOL0     H31539  12.195  11.352  -0.450  2.4736 -0.5966 -1.0315
  229MOL0     H31540  12.174  11.521  -0.477 -0.7559 -2.5742 -2.0219
  229MOL0     H31541  12.409  11.546  -0.495 -0.1402 -0.1284 -4.3743
  229MOL0     H31542  12.443  11.390  -0.420 -1.4952 -1.4582  0.8624
  229MOL0     H31543  12.346  11.285  -0.632 -2.0167  1.4482  2.4672
  229MOL0     H31544  12.481  11.400  -0.676  0.7268  1.5913  0.2311
  229MOL0     H31545  12.182  11.455  -0.680 -0.2904 -0.8945 -1.6470
  229MOL0     H31546  12.295  11.550  -0.776 -0.8357 -0.3641  2.2863
  229MOL0     H31547  12.183  11.421  -0.918  0.4240  3.3925  2.1169
  229MOL0     H31548  12.235  11.268  -0.856  1.0871  0.2481 -1.9377
  229MOL0     H31549  12.368  11.381  -1.042  0.3554 -5.5843 -0.7173
  229MOL0     H31550  12.443  11.475  -0.898  0.2229 -0.6947 -0.8921
  229MOL0     H31551  12.695  11.378  -0.953 -1.6002  0.2975  0.0693
  229MOL0     H31552  12.872  11.098  -0.813  0.8021 -1.6003 -0.7392
  229MOL0     H31553  12.885  11.222  -0.937 -3.9312  1.9218 -0.2375
  229MOL0     H31554  12.788  10.940  -0.983 -0.9158  0.6823  0.2370
  229MOL0     H31555  12.824  11.055  -1.116  2.0682  3.7600  0.0392
  229MOL0     H31556  13.075  11.050  -1.038 -1.0524  2.7964  4.3384
  229MOL0     H31557  13.034  10.919  -0.938  0.1545  1.3645  0.3995
  229MOL0     H31558  12.981  10.903  -1.236 -2.8197  2.8591  3.1137
  229MOL0     H31559  13.111  10.814  -1.154  0.3484 -1.0649 -1.2031
  229MOL0     H31560  12.739  10.615  -1.060 -0.3783  1.8490  1.0222
  229MOL0     H31561  12.699  10.303  -0.936 -1.2316  0.4279 -1.9460
  229MOL0     H31562  12.617  10.462  -0.959  0.9282  0.6870 -0.1888
  229MOL0     H31563  12.643  10.405  -0.802 -0.1951  2.1463 -0.5669
  229MOL0     H31564  12.719  10.263  -0.476 -0.4310 -0.6314  0.0837
  229MOL0     H31565  12.726  10.083  -0.302 -0.1939  3.9387 -0.2456
  229MOL0     H31566  12.995   9.915  -0.163  0.9817 -1.3941  3.2393
  229MOL0     H31567  12.827   9.936  -0.131  0.7724 -0.3080  0.0404
  229MOL0     H31568  12.780   9.725  -0.081  0.6895 -2.9375  0.9310
  229MOL0     H31569  12.937   9.660  -0.141  2.0044  3.0447 -2.4137
  229MOL0     H31570  12.932   9.837   0.105 -1.8267 -0.5125 -0.6322
  229MOL0     H31571  13.065   9.760   0.006  0.5302 -0.7250 -1.5044
  229MOL0     H31572  12.978   9.540   0.070  2.3315 -0.2946  1.4214
  229MOL0     H31573  12.840   9.619   0.153  0.0683  1.4951  0.8631
  229MOL0     H31574  13.148   9.674   0.199 -1.1257 -1.3646 -3.0868
  229MOL0     H31575  13.004   9.730   0.298  0.2769 -1.4094  1.5967
  229MOL0     H31576  12.986   9.446   0.275  2.4618 -3.6809  1.5842
  229MOL0     H31577  13.006   9.556   0.409  0.4129 -0.4756  0.6143
  229MOL0     H31578  13.194   9.412   0.420 -0.9876  2.0517  1.3603
  229MOL0     H31579  13.260   9.565   0.374  0.4464 -0.4383 -0.5395
  229MOL0     H31580  13.361   9.373   0.230  0.7592  0.0014 -2.6649
  229MOL0     H31581  13.286   9.493   0.136 -3.1068 -1.2540 -1.9611
  229MOL0     H31582  13.006   9.867  -0.521 -1.3419 -2.1239  4.7922
  229MOL0     H31583  12.995  10.036  -0.705  1.5966  0.2991  1.0462
  229MOL0     H31584  13.134  10.490  -0.806 -1.7584 -1.8952  0.7639
  229MOL0     H31585  13.150  10.675  -0.972  0.3378 -1.7297 -6.4789
  229MOL0     H31586  11.907  11.635  -0.088  2.7065  2.2683  1.9930
  229MOL0     H31587  11.729  11.649   0.063 -0.5588 -0.4934  0.5098
  229MOL0     H31588  11.437  11.620   0.317 -1.5706  1.0051 -1.0811
  229MOL0     H31589  11.254  11.653   0.461  3.0502  2.5329 -1.9851
  229MOL0     H31590  11.195  11.520   0.693  0.6075 -3.8262  2.5980
  229MOL0     H31591  11.018  11.540   0.699 -1.1147 -0.9567  1.2908
  229MOL0     H31592  11.168  11.269   0.695  0.7932 -1.8047  3.6838
  229MOL0     H31593  10.993  11.270   0.698  0.7896 -0.4716  0.0978
  229MOL0     H31594  11.161  11.391   0.907  1.3735 -1.8630  1.2306
  229MOL0     H31595  10.978  11.389   0.918  0.2129 -0.5536  3.6799
  229MOL0     H31596  11.140  11.134   0.861  0.3171  1.2484 -0.9919
  229MOL0     H31597  10.987  11.140   0.956  0.5163 -0.0942  0.4337
  229MOL0     H31598  11.258  11.229   1.267  1.1139  0.3101  0.3105
  229MOL0     H31599  11.146  11.234   0.419  0.6349  0.3113  0.3904
  229MOL0     H31600  11.480  11.129   0.334  0.2253  0.7869 -1.9715
  229MOL0     H31601  11.337  11.102   0.438 -0.0584  1.2605  0.1991
  229MOL0     H31602  11.313  11.109   0.262  2.0566 -0.1230 -1.7359
  230MOL0     O31603   0.496   4.542   2.642 -0.0566  0.2199 -0.5988
  230MOL0     C31604   0.395   4.481   2.677  0.6504 -0.0048 -1.3202
  230MOL0     O31605   0.386   4.411   2.800 -0.5041 -0.0304  0.1711
  230MOL0     C31606   0.497   4.405   2.885 -0.5024 -0.7974  0.9866
  230MOL0     C31607   0.587   4.301   2.867 -0.6930  0.0403 -0.2957
  230MOL0     C31608   0.708   4.302   2.946 -0.5712 -1.3266  0.2349
  230MOL0     C31609   0.731   4.400   3.037  0.7849 -0.4674  0.6687
  230MOL0     O31610   0.849   4.403   3.107  0.0971  0.2067  0.4815
  230MOL0     C31611   0.870   4.302   3.207 -0.6858 -0.1020  0.5769
  230MOL0     C31612   0.755   4.289   3.311 -0.0266  0.8810  0.2262
  230MOL0     C31613   0.753   4.417   3.399 -0.6529  0.7115  0.8885
  230MOL0     C31614   0.635   4.429   3.481 -0.7185  0.5752  1.0675
  230MOL0     C31615   0.647   4.534   3.591  0.6561  0.0812  0.8253
  230MOL0     C31616   0.522   4.539   3.674  0.4079 -0.6436  0.6360
  230MOL0     C31617   0.520   4.665   3.764  1.0157  0.0354 -0.0220
  230MOL0     C31618   0.617   4.685   3.876 -0.2972 -0.4274  0.1813
  230MOL0     N31619   0.586   4.598   3.989 -0.4548  0.0777 -0.2843
  230MOL0     C31620   0.473   4.620   4.054 -0.3268  0.5317  0.5625
  230MOL0     C31621   0.454   4.505   4.129 -0.7377  0.6640 -0.6913
  230MOL0     C31622   0.350   4.468   4.226 -0.2911  0.6873 -0.4690
  230MOL0     C31623   0.215   4.435   4.169 -0.2302 -0.2739  0.3650
  230MOL0     C31624   0.195   4.298   4.100 -0.6225 -0.0866 -0.0968
  230MOL0     C31625   0.072   4.288   4.009  0.1686  0.9498 -0.2629
  230MOL0     O31626   0.066   4.393   3.910 -0.2661  0.0291 -0.1281
  230MOL0     C31627  -0.035   4.400   3.818  0.3275 -1.0257  0.1646
  230MOL0     C31628  -0.160   4.328   3.828 -0.7662  0.4536  1.0671
  230MOL0     C31629  -0.272   4.357   3.736 -0.4720  0.1252 -1.4497
  230MOL0     C31630  -0.395   4.277   3.751 -0.8054 -0.5320 -0.7025
  230MOL0     C31631  -0.252   4.455   3.637  0.6475  0.7497 -0.6354
  230MOL0     C31632  -0.355   4.499   3.537  0.2325  0.3482  0.3396
  230MOL0     O31633  -0.364   4.632   3.513  0.8942  0.2073  0.2433
  230MOL0     C31634  -0.464   4.680   3.431 -0.0251  0.7422 -0.3143
  230MOL0     C31635  -0.419   4.717   3.307  0.5774  1.2687  0.4372
  230MOL0     C31636  -0.504   4.785   3.212  0.6335  0.2916 -0.4811
  230MOL0     C31637  -0.640   4.803   3.253  0.4610  0.4913  0.3188
  230MOL0     O31638  -0.704   4.894   3.181 -0.2340 -0.4141 -0.1232
  230MOL0     C31639  -0.803   4.978   3.249  0.1700 -0.2541  0.3922
  230MOL0     C31640  -0.841   5.097   3.156  0.2658 -0.3684 -0.2144
  230MOL0     C31641  -0.947   5.193   3.212  0.2439  0.1198  0.0872
  230MOL0     C31642  -1.087   5.134   3.216  0.8441  0.3935 -1.0594
  230MOL0     C31643  -1.196   5.228   3.256  0.3300 -0.3446  1.0323
  230MOL0     C31644  -1.169   5.266   3.403 -0.2875  0.1281 -0.0509
  230MOL0     C31645  -1.269   5.354   3.472  0.1345  0.1993 -0.8299
  230MOL0     C31646  -1.385   5.269   3.531 -0.7988  0.4373 -0.1780
  230MOL0    Cl31647  -1.493   5.373   3.606 -0.3514 -0.2229 -0.3576
  230MOL0     C31648  -0.688   4.739   3.369 -0.1117  0.3135  0.5963
  230MOL0     C31649  -0.597   4.687   3.457 -0.0231 -0.3346 -1.1675
  230MOL0     O31650  -0.418   4.414   3.479  0.0798  0.3053 -0.1167
  230MOL0     C31651  -0.135   4.531   3.648 -0.6142  0.5016 -0.3696
  230MOL0     C31652  -0.030   4.510   3.736 -0.9098  0.1323 -0.0421
  230MOL0     N31653   0.562   4.421   4.105 -0.2746  0.1362 -0.0857
  230MOL0     N31654   0.648   4.477   4.021  0.3021 -0.1993  0.5950
  230MOL0     C31655   0.634   4.496   3.057  0.0751 -0.3183  0.2084
  230MOL0     C31656   0.513   4.492   2.986 -0.0950 -1.0578 -0.2463
  230MOL0     C31657   0.280   4.479   2.591 -0.1518 -0.3077  0.3267
  230MOL0     C31658   0.268   4.600   2.520  0.9579  0.1151 -0.4542
  230MOL0     C31659   0.166   4.607   2.426  0.3452  1.5912 -0.5186
  230MOL0     C31660   0.082   4.503   2.394 -0.2214  0.9751 -0.3558
  230MOL0     O31661  -0.013   4.516   2.307 -0.2491  0.2258 -0.1036
  230MOL0     C31662  -0.012   4.423   2.191 -0.2591 -0.2915 -0.1869
  230MOL0     C31663   0.123   4.436   2.117  0.4804 -0.4576  0.3486
  230MOL0     C31664   0.125   4.380   1.972 -0.4486  0.0642 -1.3315
  230MOL0     C31665   0.262   4.401   1.907  0.1333 -0.7454  0.6259
  230MOL0     C31666   0.236   4.394   1.770 -0.7831 -1.2852 -0.3302
  230MOL0     C31667   0.204   4.408   1.656 -0.4781  0.2027 -0.3390
  230MOL0     C31668   0.092   4.391   2.469 -0.1513  0.0639  0.9054
  230MOL0     C31669   0.193   4.368   2.562  0.1388  0.7756 -0.5685
  230MOL0     C31670   0.199   4.233   2.637  0.1714  0.1417  0.9561
  230MOL0     H31671   0.568   4.222   2.795  0.7110  2.2037 -3.2360
  230MOL0     H31672   0.778   4.220   2.927  0.2736  0.0823 -3.7370
  230MOL0     H31673   0.969   4.317   3.249 -0.5753  1.8779 -0.2843
  230MOL0     H31674   0.879   4.205   3.158 -3.7494 -1.1134  1.7716
  230MOL0     H31675   0.663   4.254   3.264  1.0980 -0.5361 -1.0347
  230MOL0     H31676   0.791   4.213   3.380  1.4000 -0.3711 -1.7683
  230MOL0     H31677   0.843   4.421   3.461 -0.7208  0.4732  1.0063
  230MOL0     H31678   0.752   4.506   3.336  2.2840  0.6750  0.6905
  230MOL0     H31679   0.555   4.459   3.413 -0.4367 -0.5969  0.1730
  230MOL0     H31680   0.620   4.331   3.526 -2.1724 -0.8805 -2.2055
  230MOL0     H31681   0.667   4.627   3.536  1.2638  0.5313  1.7768
  230MOL0     H31682   0.743   4.504   3.634  1.4083 -0.2965 -1.0278
  230MOL0     H31683   0.435   4.551   3.610 -0.1101  0.0901  1.4612
  230MOL0     H31684   0.528   4.454   3.742 -3.2759 -0.4689  1.3806
  230MOL0     H31685   0.425   4.658   3.818  0.5914  1.4026 -0.5522
  230MOL0     H31686   0.519   4.755   3.703  1.5694  0.2733  0.3032
  230MOL0     H31687   0.722   4.668   3.849 -0.0338 -1.4300  1.6904
  230MOL0     H31688   0.607   4.788   3.911  1.4102 -0.2709  0.3162
  230MOL0     H31689   0.422   4.716   4.048 -0.3860  0.5493  1.2937
  230MOL0     H31690   0.338   4.542   4.306 -0.1681 -2.8614  3.1490
  230MOL0     H31691   0.376   4.382   4.288  2.2118  2.6009  1.3208
  230MOL0     H31692   0.153   4.431   4.259 -0.0323 -1.2590  0.4702
  230MOL0     H31693   0.185   4.516   4.101 -0.6461 -0.8744 -0.1821
  230MOL0     H31694   0.277   4.286   4.028  0.1058  1.3987  0.4364
  230MOL0     H31695   0.196   4.216   4.172  0.1941 -1.2312 -1.3476
  230MOL0     H31696   0.065   4.194   3.953 -2.1162 -0.0999  1.5739
  230MOL0     H31697  -0.024   4.290   4.063  0.6118  1.1105  0.5447
  230MOL0     H31698  -0.159   4.251   3.904  5.2536 -0.5530  0.4975
  230MOL0     H31699  -0.473   4.352   3.772  2.2916  1.9770  3.3408
  230MOL0     H31700  -0.391   4.203   3.831 -0.0891  1.6072  1.3484
  230MOL0     H31701  -0.399   4.212   3.663  2.6298  1.0308 -2.2002
  230MOL0     H31702  -0.314   4.708   3.279 -0.0270  3.6739 -3.2281
  230MOL0     H31703  -0.454   4.841   3.134  0.4147  2.7568  1.0329
  230MOL0     H31704  -0.892   4.917   3.265  0.4021 -0.8834 -0.6333
  230MOL0     H31705  -0.773   5.013   3.349 -0.0794  2.5003 -0.4025
  230MOL0     H31706  -0.754   5.158   3.131 -1.0483  0.5149 -3.1553
  230MOL0     H31707  -0.858   5.059   3.055  5.1062  2.1138 -2.3206
  230MOL0     H31708  -0.950   5.278   3.144 -2.1916  1.3210  1.5879
  230MOL0     H31709  -0.921   5.227   3.313 -0.8405  1.6278 -0.1140
  230MOL0     H31710  -1.077   5.039   3.269 -2.4174  0.3937 -0.1936
  230MOL0     H31711  -1.119   5.100   3.117 -2.9043 -2.2465  0.8143
  230MOL0     H31712  -1.196   5.315   3.189 -0.7876  0.6660  2.2669
  230MOL0     H31713  -1.298   5.189   3.248  0.0286  0.4583  0.8291
  230MOL0     H31714  -1.073   5.318   3.397  0.0301 -0.4940 -0.4853
  230MOL0     H31715  -1.161   5.173   3.460  0.8096 -0.2457 -0.7884
  230MOL0     H31716  -1.315   5.426   3.404  1.2143 -1.0192 -2.9564
  230MOL0     H31717  -1.211   5.400   3.553  0.0504 -0.7580 -0.1993
  230MOL0     H31718  -1.347   5.190   3.597  0.9621  1.3942  0.0161
  230MOL0     H31719  -1.437   5.216   3.452  1.1463 -2.3954  0.2810
  230MOL0     H31720  -0.797   4.740   3.378 -0.0353  0.4133  1.6508
  230MOL0     H31721  -0.609   4.644   3.556  1.4989  0.4796 -0.5963
  230MOL0     H31722  -0.126   4.618   3.584  2.8566  0.5974  0.0571
  230MOL0     H31723   0.055   4.577   3.748  0.8636 -2.2975  1.8086
  230MOL0     H31724   0.659   4.575   3.127  1.2487 -1.5671  1.2482
  230MOL0     H31725   0.436   4.569   2.995 -2.0727 -2.7504 -1.6896
  230MOL0     H31726   0.328   4.690   2.517 -2.0862  2.2995 -1.7453
  230MOL0     H31727   0.142   4.701   2.377 -2.4362  1.1854 -0.0811
  230MOL0     H31728  -0.013   4.323   2.234  0.5977 -0.3213 -0.2162
  230MOL0     H31729  -0.104   4.444   2.136  0.6676 -1.3079 -2.2146
  230MOL0     H31730   0.207   4.403   2.179 -0.5468  3.1087  4.0080
  230MOL0     H31731   0.130   4.544   2.109  3.2468 -0.5393  0.5854
  230MOL0     H31732   0.103   4.273   1.973 -0.4232  0.0605 -1.0532
  230MOL0     H31733   0.052   4.444   1.921  1.7935  0.7144 -4.0060
  230MOL0     H31734   0.332   4.325   1.943 -0.4848 -1.5749  0.0958
  230MOL0     H31735   0.309   4.496   1.938  0.0432 -0.2715 -0.6339
  230MOL0     H31736   0.189   4.396   1.551  2.2966 -0.8272 -0.6996
  230MOL0     H31737   0.014   4.317   2.452 -2.3893  2.2692  0.9848
  230MOL0     H31738   0.169   4.166   2.556  0.3034  1.9830 -0.7182
  230MOL0     H31739   0.294   4.200   2.680  0.2388 -0.5569  0.2914
  230MOL0     H31740   0.117   4.227   2.709 -0.5535 -1.1284  0.0600
  231MOL0     O31741   6.621   3.197   2.597 -0.2051 -0.1265 -0.2311
  231MOL0     C31742   6.718   3.241   2.530 -0.1018 -0.4982 -0.2917
  231MOL0     O31743   6.805   3.169   2.461  1.3305  0.1154  0.5027
  231MOL0     C31744   6.783   3.039   2.447  0.5651  0.1877  0.5845
  231MOL0     C31745   6.701   2.987   2.348  0.7006  0.0982  0.7404
  231MOL0     C31746   6.700   2.846   2.334 -0.0789 -0.0834  0.5023
  231MOL0     C31747   6.772   2.756   2.419 -0.1532  0.2611  0.8274
  231MOL0     O31748   6.749   2.618   2.406 -0.1905 -0.0050 -0.0695
  231MOL0     C31749   6.828   2.526   2.482 -0.3664  0.1311  0.6577
  231MOL0     C31750   6.746   2.402   2.491  0.8281  0.0355 -0.2918
  231MOL0     C31751   6.618   2.426   2.565  0.1023  0.3530 -0.6458
  231MOL0     C31752   6.603   2.304   2.660 -0.6617 -0.3167 -0.4249
  231MOL0     C31753   6.582   2.165   2.588  1.1492  0.3638  0.5732
  231MOL0     C31754   6.507   2.061   2.673 -0.7656 -1.1353 -0.3332
  231MOL0     C31755   6.582   2.037   2.804  0.4494  0.1502  0.2918
  231MOL0     C31756   6.508   1.921   2.876 -0.6645 -0.9429  0.3469
  231MOL0     N31757   6.545   1.905   3.018 -0.1898 -0.3285  0.3268
  231MOL0     C31758   6.661   1.869   3.067  0.0861 -0.0661  1.4872
  231MOL0     C31759   6.640   1.853   3.200  0.4209 -0.1247  0.4744
  231MOL0     C31760   6.734   1.796   3.301  1.4777 -0.9044  0.2556
  231MOL0     C31761   6.701   1.651   3.343 -0.0883  0.0737  0.0034
  231MOL0     C31762   6.740   1.619   3.484 -1.3348 -0.0752  0.2961
  231MOL0     C31763   6.694   1.482   3.534 -0.5453 -0.0269 -0.5163
  231MOL0     O31764   6.797   1.439   3.634 -0.6337 -0.3702 -0.4225
  231MOL0     C31765   6.762   1.333   3.718 -0.6774 -0.3668  1.0894
  231MOL0     C31766   6.854   1.304   3.822  1.0642 -0.9693 -1.4064
  231MOL0     C31767   6.830   1.205   3.910 -0.4319  0.0684 -0.3660
  231MOL0     C31768   6.940   1.179   4.013  0.4851  0.0140 -0.1041
  231MOL0     C31769   6.720   1.118   3.888  0.2748  0.2698 -0.8289
  231MOL0     C31770   6.702   0.997   3.969  0.5139 -0.2433  1.0018
  231MOL0     O31771   6.651   1.000   4.092  0.4839 -0.2689  0.5130
  231MOL0     C31772   6.570   1.111   4.125  0.9369 -0.0891 -0.2321
  231MOL0     C31773   6.622   1.209   4.214 -0.5833  0.0024 -0.1813
  231MOL0     C31774   6.542   1.311   4.264  0.2687  0.5693  0.6966
  231MOL0     C31775   6.419   1.326   4.213  0.7017  0.0087 -0.8473
  231MOL0     O31776   6.343   1.436   4.251  0.0687 -0.4844 -0.5394
  231MOL0     C31777   6.254   1.415   4.365  0.2792 -1.0044  0.6046
  231MOL0     C31778   6.303   1.483   4.491 -0.9123  0.2561 -0.9155
  231MOL0     C31779   6.195   1.472   4.595  0.5682  0.6199  0.2272
  231MOL0     C31780   6.242   1.516   4.729 -0.2755 -0.1151 -0.6570
  231MOL0     C31781   6.130   1.505   4.847 -0.4118 -0.0038 -0.0522
  231MOL0     C31782   6.022   1.611   4.830  0.3465  0.2344 -0.7888
  231MOL0     C31783   5.918   1.600   4.937 -0.2478 -0.3389  0.2805
  231MOL0     C31784   5.804   1.696   4.921  0.0431  0.3823  0.1403
  231MOL0    Cl31785   5.868   1.860   4.868  0.2594  0.1351 -0.1239
  231MOL0     C31786   6.368   1.235   4.125 -0.4421  1.3341  0.5401
  231MOL0     C31787   6.434   1.120   4.085  0.1138 -1.0530 -0.4647
  231MOL0     O31788   6.736   0.890   3.917  0.7775  0.2050 -0.1529
  231MOL0     C31789   6.633   1.137   3.788  0.3665  0.0623 -0.5919
  231MOL0     C31790   6.650   1.252   3.707 -0.1359  1.2506  0.6800
  231MOL0     N31791   6.509   1.873   3.224  0.8860 -0.0785  0.0828
  231MOL0     N31792   6.451   1.911   3.121  0.3859 -0.3709  0.8001
  231MOL0     C31793   6.865   2.815   2.507  1.1445 -0.4846 -0.1154
  231MOL0     C31794   6.869   2.950   2.509 -0.2415 -0.5806 -0.2459
  231MOL0     C31795   6.737   3.382   2.525 -0.3793 -0.6902 -0.6773
  231MOL0     C31796   6.727   3.443   2.654 -0.1936  0.4401  0.5002
  231MOL0     C31797   6.775   3.569   2.676 -0.2345 -0.6319 -0.1238
  231MOL0     C31798   6.831   3.645   2.577 -0.3047 -0.5678 -0.5319
  231MOL0     O31799   6.850   3.775   2.621  0.4123  1.4464  0.5099
  231MOL0     C31800   6.890   3.859   2.507 -0.0698  0.3292  0.1056
  231MOL0     C31801   6.934   4.006   2.550  0.0137 -0.0575  0.2053
  231MOL0     C31802   6.820   4.081   2.622 -0.5669  0.1249 -0.4082
  231MOL0     C31803   6.843   4.234   2.602  0.0572 -0.9252 -0.3022
  231MOL0     C31804   6.727   4.302   2.680  0.4816  0.2449  0.6527
  231MOL0     C31805   6.651   4.361   2.758 -0.3699  0.4692  0.2605
  231MOL0     C31806   6.846   3.579   2.453 -0.7016 -0.7603  0.5576
  231MOL0     C31807   6.798   3.450   2.417  1.1316 -0.2106 -0.0577
  231MOL0     C31808   6.824   3.407   2.274  0.4647 -0.0075 -0.1899
  231MOL0     H31809   6.638   3.048   2.283 -2.1675 -1.9389  1.3733
  231MOL0     H31810   6.637   2.798   2.260 -0.2999  0.5803  0.2607
  231MOL0     H31811   6.844   2.565   2.583  1.2595 -0.9974  0.8789
  231MOL0     H31812   6.929   2.504   2.444  0.5792  0.0123  3.0744
  231MOL0     H31813   6.723   2.362   2.392 -0.4597 -0.7177  0.2954
  231MOL0     H31814   6.806   2.332   2.550 -1.1578  1.1346  3.3137
  231MOL0     H31815   6.627   2.517   2.624 -0.3665 -0.9663  1.5824
  231MOL0     H31816   6.532   2.427   2.498 -0.2772  2.3033 -0.1751
  231MOL0     H31817   6.693   2.294   2.721 -0.0166 -3.7444 -1.6929
  231MOL0     H31818   6.521   2.330   2.728 -1.1146  0.2028 -1.1568
  231MOL0     H31819   6.674   2.127   2.542 -0.5505  0.5693 -3.3482
  231MOL0     H31820   6.525   2.178   2.496 -0.0131 -0.2186  1.1898
  231MOL0     H31821   6.401   2.084   2.685 -1.1227 -2.3916 -0.8532
  231MOL0     H31822   6.503   1.971   2.610  0.5289 -2.7080  1.7052
  231MOL0     H31823   6.576   2.123   2.872  0.2996 -0.4775  1.0964
  231MOL0     H31824   6.686   2.009   2.784 -0.3715 -2.4022 -0.9596
  231MOL0     H31825   6.400   1.928   2.860 -0.4458 -0.3023 -0.9832
  231MOL0     H31826   6.539   1.830   2.825  0.5677 -0.3943  0.0935
  231MOL0     H31827   6.750   1.862   3.006 -0.7504 -0.0018  0.2331
  231MOL0     H31828   6.737   1.866   3.385  2.6660  1.6739 -1.8007
  231MOL0     H31829   6.838   1.783   3.267  1.2185 -2.3868 -0.0679
  231MOL0     H31830   6.596   1.623   3.327  0.0796 -0.4161 -0.2761
  231MOL0     H31831   6.763   1.589   3.277 -3.6677 -1.7020 -2.0067
  231MOL0     H31832   6.848   1.637   3.484 -1.7076  2.4710 -0.7297
  231MOL0     H31833   6.699   1.696   3.549 -1.4439  0.8022 -0.7841
  231MOL0     H31834   6.593   1.488   3.575 -0.5801  0.4750 -0.6637
  231MOL0     H31835   6.700   1.411   3.452  3.1431  3.5154 -3.7832
  231MOL0     H31836   6.949   1.357   3.820  1.0537 -0.8099  0.7242
  231MOL0     H31837   7.010   1.116   3.957  0.8404  1.7836 -1.7723
  231MOL0     H31838   6.902   1.131   4.103 -1.7242 -0.6034 -1.3058
  231MOL0     H31839   6.993   1.271   4.040 -0.7234  0.9979 -1.0107
  231MOL0     H31840   6.727   1.204   4.243 -1.1508 -0.8789  1.8994
  231MOL0     H31841   6.572   1.384   4.339 -1.4361 -0.5821  2.5998
  231MOL0     H31842   6.167   1.470   4.332  1.6022 -0.7584 -2.8717
  231MOL0     H31843   6.227   1.309   4.367  1.6451 -1.5279 -2.4487
  231MOL0     H31844   6.392   1.433   4.531  0.9301  2.9372 -1.4384
  231MOL0     H31845   6.318   1.591   4.484 -1.6515  0.5316  1.0388
  231MOL0     H31846   6.186   1.363   4.603  0.9282  0.6155  0.6428
  231MOL0     H31847   6.098   1.516   4.572 -0.3005 -0.5036  1.5656
  231MOL0     H31848   6.270   1.622   4.722 -2.0261  0.3256 -1.4039
  231MOL0     H31849   6.330   1.454   4.749 -0.1327  0.1427 -0.4844
  231MOL0     H31850   6.080   1.408   4.841 -1.3738  0.4304  0.5492
  231MOL0     H31851   6.181   1.516   4.943  1.7702 -1.0332 -1.0447
  231MOL0     H31852   5.969   1.600   4.735  1.2576 -1.6276 -1.1213
  231MOL0     H31853   6.073   1.708   4.841  0.6704  0.1477 -1.5392
  231MOL0     H31854   5.956   1.625   5.037 -1.2987 -1.3377  0.9489
  231MOL0     H31855   5.879   1.499   4.933 -1.2051  0.0135 -3.5210
  231MOL0     H31856   5.749   1.708   5.015 -0.1212  0.2870  0.0585
  231MOL0     H31857   5.742   1.652   4.842 -0.4303  1.4852 -0.1268
  231MOL0     H31858   6.269   1.250   4.084 -0.7018  0.0229  0.6167
  231MOL0     H31859   6.391   1.067   4.002 -4.6105  2.2935 -0.5450
  231MOL0     H31860   6.549   1.069   3.771  0.8471 -1.4428  2.3461
  231MOL0     H31861   6.583   1.267   3.623 -1.4272 -2.5081  0.8413
  231MOL0     H31862   6.932   2.763   2.575 -0.3296  0.3745  2.1194
  231MOL0     H31863   6.929   3.006   2.580 -1.2033 -0.6881  0.6686
  231MOL0     H31864   6.688   3.383   2.735  0.5938 -2.0982 -0.9168
  231MOL0     H31865   6.759   3.602   2.778 -0.0979 -5.3670  1.6449
  231MOL0     H31866   6.975   3.834   2.444 -0.1782 -0.8952  0.4233
  231MOL0     H31867   6.809   3.875   2.435  0.0499 -0.7753 -0.2869
  231MOL0     H31868   6.965   4.061   2.461 -1.0346  2.1083  1.1004
  231MOL0     H31869   7.021   4.004   2.616 -0.3387 -1.4338  0.6613
  231MOL0     H31870   6.726   4.040   2.584 -0.9534  0.6864 -0.0722
  231MOL0     H31871   6.830   4.060   2.729 -0.6806  0.5688 -0.3095
  231MOL0     H31872   6.845   4.258   2.496  4.4006  1.5981  0.0856
  231MOL0     H31873   6.939   4.268   2.642 -0.9343  2.6967 -0.6267
  231MOL0     H31874   6.581   4.408   2.824 -1.6960  0.1405 -0.8581
  231MOL0     H31875   6.888   3.638   2.372 -1.1990 -1.7831 -0.4829
  231MOL0     H31876   6.895   3.471   2.220  0.0902 -0.4479 -1.2279
  231MOL0     H31877   6.862   3.305   2.258 -3.5152 -1.4625 -1.6240
  231MOL0     H31878   6.723   3.405   2.233 -0.3878  0.5788  1.8134
  232MOL0     O31879   3.777   9.501   0.698  0.3847 -0.3043 -0.8920
  232MOL0     C31880   3.695   9.458   0.776 -0.2833 -0.0132 -0.5638
  232MOL0     O31881   3.564   9.505   0.784 -0.3083  0.2537 -0.3281
  232MOL0     C31882   3.535   9.621   0.716 -0.4093  0.9630 -0.2147
  232MOL0     C31883   3.506   9.729   0.795 -0.6898  0.1191 -0.3702
  232MOL0     C31884   3.481   9.848   0.745  0.3398  0.2473 -0.0934
  232MOL0     C31885   3.457   9.867   0.609 -0.9473  0.0613 -0.2906
  232MOL0     O31886   3.416   9.979   0.547  0.4479 -0.3587 -0.4950
  232MOL0     C31887   3.282   9.981   0.504 -0.1598  0.1850  0.5285
  232MOL0     C31888   3.196  10.075   0.578 -0.3998  0.4230 -0.4297
  232MOL0     C31889   3.179  10.021   0.720 -0.1031  0.9474 -0.2360
  232MOL0     C31890   3.078  10.105   0.796 -0.9744  0.8558 -0.2904
  232MOL0     C31891   3.101  10.257   0.818  0.4533  0.2434  0.6262
  232MOL0     C31892   3.252  10.297   0.849 -0.2517  0.5513  0.4917
  232MOL0     C31893   3.294  10.261   0.996  0.5155 -0.7077 -0.4717
  232MOL0     C31894   3.420  10.177   1.001 -0.3801  0.4084 -0.3437
  232MOL0     N31895   3.442  10.127   1.141 -0.2803 -0.2910  0.4587
  232MOL0     C31896   3.440   9.998   1.172 -0.3103 -1.0336  0.2191
  232MOL0     C31897   3.468  10.002   1.306 -0.0805 -0.6127  0.6717
  232MOL0     C31898   3.502   9.888   1.400  1.0450 -0.3218 -0.5908
  232MOL0     C31899   3.653   9.882   1.426  0.6772 -1.4571  0.1955
  232MOL0     C31900   3.747   9.820   1.319  1.0043  0.5352  0.2859
  232MOL0     C31901   3.728   9.666   1.316  0.2488 -0.7546 -0.2673
  232MOL0     O31902   3.829   9.622   1.238 -0.4227 -0.0209 -0.5128
  232MOL0     C31903   3.946   9.577   1.293  0.1567  0.1471  0.5572
  232MOL0     C31904   3.950   9.483   1.405 -0.1701 -1.0826 -0.5203
  232MOL0     C31905   4.071   9.446   1.458 -0.5101 -0.0185 -0.3259
  232MOL0     C31906   4.066   9.344   1.576 -0.4981 -0.1899 -0.0572
  232MOL0     C31907   4.193   9.502   1.404 -0.3879  0.3808  0.2515
  232MOL0     C31908   4.321   9.456   1.472  1.0019 -0.1349  0.3609
  232MOL0     O31909   4.348   9.502   1.600  0.2497 -0.5556 -0.3317
  232MOL0     C31910   4.480   9.516   1.627  0.4960 -0.1191 -0.0135
  232MOL0     C31911   4.554   9.607   1.552 -0.3941  0.4820 -0.2704
  232MOL0     C31912   4.697   9.615   1.568  0.5183 -0.2249 -0.2216
  232MOL0     C31913   4.762   9.551   1.673 -0.1553 -0.0775 -0.7580
  232MOL0     O31914   4.902   9.576   1.687  0.3512 -0.7266 -0.1746
  232MOL0     C31915   4.984   9.513   1.781  0.1538  0.9996 -0.5481
  232MOL0     C31916   5.041   9.378   1.734  0.3852 -0.5385 -0.8642
  232MOL0     C31917   5.117   9.290   1.836 -0.4876  0.7623 -0.2238
  232MOL0     C31918   5.077   9.296   1.987  0.1648 -0.1672 -0.5770
  232MOL0     C31919   5.130   9.171   2.058 -0.3878 -1.0684  0.0046
  232MOL0     C31920   5.046   9.042   2.015 -0.8197 -0.1214  0.1419
  232MOL0     C31921   5.065   8.916   2.109 -0.0310  0.4385  0.1166
  232MOL0     C31922   4.973   8.802   2.055  0.1170  0.4650 -0.1493
  232MOL0    Cl31923   4.809   8.851   2.117  0.2344  0.6165 -0.6626
  232MOL0     C31924   4.683   9.470   1.760  0.4897  1.0254 -0.5994
  232MOL0     C31925   4.549   9.451   1.736 -0.9709 -0.5279 -0.0952
  232MOL0     O31926   4.400   9.408   1.397 -0.4829  0.1061  0.1632
  232MOL0     C31927   4.191   9.591   1.293  0.3931  0.9093  0.4165
  232MOL0     C31928   4.067   9.626   1.239  0.5593  0.2912 -0.2020
  232MOL0     N31929   3.479  10.141   1.346 -0.2683  1.4053 -0.4780
  232MOL0     N31930   3.479  10.207   1.246 -0.2004 -0.2268  0.1675
  232MOL0     C31931   3.487   9.752   0.533 -0.4845  0.4742  0.7066
  232MOL0     C31932   3.519   9.620   0.585 -0.3946  0.2711 -0.3823
  232MOL0     C31933   3.747   9.368   0.883  0.2224  0.0745  0.2699
  232MOL0     C31934   3.702   9.375   1.020 -0.4753 -0.9996 -0.5146
  232MOL0     C31935   3.748   9.289   1.124 -0.6541  0.3172  0.9254
  232MOL0     C31936   3.840   9.185   1.095 -1.0889 -0.1013 -0.0185
  232MOL0     O31937   3.881   9.089   1.184  0.2719 -0.7573 -0.3181
  232MOL0     C31938   3.802   9.085   1.303  0.7114  0.0775 -0.6080
  232MOL0     C31939   3.850   8.959   1.378 -0.1678 -0.4727 -1.1368
  232MOL0     C31940   3.827   8.828   1.294 -0.2006 -0.6281 -0.5268
  232MOL0     C31941   3.855   8.703   1.382  0.1398 -0.3137 -0.0953
  232MOL0     C31942   3.872   8.577   1.304  0.1367 -0.6320  0.0216
  232MOL0     C31943   3.899   8.482   1.242  0.3549  0.2307  0.4152
  232MOL0     C31944   3.888   9.169   0.960  0.5944 -0.5794  0.7884
  232MOL0     C31945   3.839   9.260   0.851  0.1469  0.2399 -0.8104
  232MOL0     C31946   3.877   9.218   0.715  0.6022 -0.0469  0.0388
  232MOL0     H31947   3.500   9.722   0.903  1.3028  3.0542  0.0693
  232MOL0     H31948   3.476   9.936   0.808  3.4746 -1.6922  3.2459
  232MOL0     H31949   3.236   9.882   0.513 -0.1058  0.2169  1.2526
  232MOL0     H31950   3.274   9.997   0.396 -1.0756  0.4996  0.6430
  232MOL0     H31951   3.229  10.179   0.571  0.2252  0.1628 -1.6241
  232MOL0     H31952   3.106  10.055   0.519  0.2449 -1.6336 -0.8213
  232MOL0     H31953   3.153   9.915   0.723 -1.5752  1.2926  0.0572
  232MOL0     H31954   3.276  10.029   0.768 -0.6829  0.3741  1.0873
  232MOL0     H31955   2.985  10.097   0.740  0.4093  2.8395 -3.1052
  232MOL0     H31956   3.066  10.051   0.890 -0.2372 -1.4814 -1.4854
  232MOL0     H31957   3.049  10.289   0.909 -1.9924 -1.4486 -0.0689
  232MOL0     H31958   3.069  10.319   0.734 -0.5266  2.7136  2.6877
  232MOL0     H31959   3.324  10.271   0.770 -2.5947 -2.1059 -0.9164
  232MOL0     H31960   3.245  10.406   0.840  2.4048  0.6505 -4.1348
  232MOL0     H31961   3.199  10.222   1.033 -1.0180  3.5369  0.6350
  232MOL0     H31962   3.305  10.352   1.056 -3.4514  0.6875 -1.5472
  232MOL0     H31963   3.408  10.086   0.941  0.0659  0.5552 -0.6555
  232MOL0     H31964   3.508  10.233   0.967 -1.0437 -0.6053 -4.2262
  232MOL0     H31965   3.441   9.902   1.121 -3.1319 -0.1950 -1.6108
  232MOL0     H31966   3.459   9.799   1.354 -1.9908  0.4020  0.6190
  232MOL0     H31967   3.448   9.891   1.495  0.9033 -0.3488 -0.6697
  232MOL0     H31968   3.695   9.982   1.443  0.8421 -1.7908  2.0209
  232MOL0     H31969   3.660   9.849   1.530  1.4828  1.9059  1.3497
  232MOL0     H31970   3.719   9.850   1.217 -0.4304 -1.0209  0.1795
  232MOL0     H31971   3.849   9.854   1.335  0.2102  2.7824  0.9554
  232MOL0     H31972   3.727   9.631   1.420 -1.6174 -0.4549 -0.1561
  232MOL0     H31973   3.630   9.635   1.278 -1.0082  3.1807 -0.7423
  232MOL0     H31974   3.860   9.443   1.450  0.0851  0.8339  1.8524
  232MOL0     H31975   3.981   9.278   1.556 -3.3308  2.5163  2.1270
  232MOL0     H31976   4.059   9.404   1.667  1.7930 -2.4867  1.7876
  232MOL0     H31977   4.156   9.282   1.578  0.8542  1.6857  2.0531
  232MOL0     H31978   4.507   9.659   1.470  0.7379  2.5223  0.3083
  232MOL0     H31979   4.742   9.689   1.503 -0.2226 -0.3578 -0.9090
  232MOL0     H31980   5.073   9.571   1.808  0.2240 -0.5979  3.3653
  232MOL0     H31981   4.928   9.500   1.875  0.5760  1.3196 -0.2495
  232MOL0     H31982   4.956   9.315   1.706 -1.3963  1.4045 -0.1243
  232MOL0     H31983   5.106   9.405   1.650 -1.0259  1.0603 -1.5092
  232MOL0     H31984   5.218   9.331   1.842 -1.3165  2.7731  1.1912
  232MOL0     H31985   5.124   9.188   1.799 -1.7604  0.6854 -0.3240
  232MOL0     H31986   4.972   9.322   1.999 -0.6228 -2.6133 -1.4258
  232MOL0     H31987   5.127   9.383   2.030 -1.6697  0.3360  0.6104
  232MOL0     H31988   5.237   9.161   2.036 -0.1272  2.8603 -1.2505
  232MOL0     H31989   5.124   9.188   2.166  1.7315 -0.2653  0.0464
  232MOL0     H31990   5.064   9.019   1.910  1.1450 -3.4222  1.0430
  232MOL0     H31991   4.938   9.054   2.019 -1.4225 -3.0597 -3.2341
  232MOL0     H31992   5.040   8.935   2.214 -2.1180  1.9691 -0.5952
  232MOL0     H31993   5.172   8.889   2.105 -0.1376  0.1674 -1.1595
  232MOL0     H31994   5.012   8.708   2.094 -2.4877 -1.2605 -1.4206
  232MOL0     H31995   4.985   8.796   1.947 -3.3615  0.1952 -0.6271
  232MOL0     H31996   4.717   9.436   1.857 -5.8227 -0.6745  1.4802
  232MOL0     H31997   4.489   9.388   1.800 -3.1212 -0.4055 -1.8869
  232MOL0     H31998   4.282   9.633   1.252  1.4073  0.8847  2.5131
  232MOL0     H31999   4.038   9.696   1.162 -1.7615 -1.2616 -0.8491
  232MOL0     H32000   3.479   9.769   0.426  2.2626  0.8904  0.4922
  232MOL0     H32001   3.532   9.541   0.511 -1.1448 -0.4467  0.2334
  232MOL0     H32002   3.644   9.462   1.050 -0.8805 -1.8975  1.4935
  232MOL0     H32003   3.714   9.302   1.226  1.6629  1.6399  1.6050
  232MOL0     H32004   3.830   9.163   1.374 -1.1739 -3.7752  5.0583
  232MOL0     H32005   3.696   9.076   1.281  0.3446  1.0156  0.6829
  232MOL0     H32006   3.789   8.952   1.469  0.8168 -3.1336 -0.5955
  232MOL0     H32007   3.953   8.960   1.414 -1.3835 -1.5592  3.0248
  232MOL0     H32008   3.724   8.824   1.255 -0.6416  0.9910  0.3712
  232MOL0     H32009   3.895   8.832   1.208 -2.0856 -0.0602 -2.0754
  232MOL0     H32010   3.768   8.692   1.447  0.4693 -1.2865  0.1838
  232MOL0     H32011   3.943   8.722   1.443 -1.0612  1.2859  1.2230
  232MOL0     H32012   3.928   8.401   1.178  1.0445  0.0888  0.8973
  232MOL0     H32013   3.955   9.084   0.958 -0.3198 -1.2985 -0.2542
  232MOL0     H32014   3.899   9.111   0.714  0.5925 -0.0653  1.0691
  232MOL0     H32015   3.805   9.231   0.634  2.4508  2.1086 -1.3877
  232MOL0     H32016   3.965   9.267   0.671  1.3815 -2.9937 -2.0362
  233MOL0     O32017   8.447   8.341   2.175 -0.1583 -0.2283 -0.3277
  233MOL0     C32018   8.523   8.254   2.216  0.0264  0.1059 -0.8448
  233MOL0     O32019   8.650   8.243   2.190 -0.5444 -0.0131  0.2539
  233MOL0     C32020   8.706   8.357   2.144  0.1352  0.0448  0.2837
  233MOL0     C32021   8.756   8.457   2.230  0.5512 -0.0487 -0.0209
  233MOL0     C32022   8.813   8.576   2.179  1.0050 -0.3967  0.7548
  233MOL0     C32023   8.820   8.600   2.043 -0.3404 -0.8260  0.0624
  233MOL0     O32024   8.890   8.717   1.997 -0.3052  0.3428  0.0093
  233MOL0     C32025   8.921   8.729   1.857  0.7378  0.7310 -0.8786
  233MOL0     C32026   8.999   8.850   1.833 -1.0271 -0.2582 -0.0805
  233MOL0     C32027   9.137   8.846   1.906  0.1829 -0.3393  0.5476
  233MOL0     C32028   9.205   8.985   1.890  0.2810  0.0445  0.3270
  233MOL0     C32029   9.348   8.998   1.956 -0.4980  0.5495  0.1383
  233MOL0     C32030   9.443   8.868   1.932  0.2219  0.3628 -0.1558
  233MOL0     C32031   9.595   8.884   1.947 -0.5711  0.4118  0.3390
  233MOL0     C32032   9.665   8.957   1.824 -0.9372  0.0792 -0.5608
  233MOL0     N32033   9.808   8.939   1.814  0.9301 -0.7278  0.3848
  233MOL0     C32034   9.882   8.838   1.855 -0.3053  0.5123 -0.5745
  233MOL0     C32035  10.010   8.879   1.853 -0.5356 -0.2891  0.3361
  233MOL0     C32036  10.136   8.810   1.901  0.3932 -0.3886  0.2900
  233MOL0     C32037  10.229   8.770   1.782  0.7434 -0.1353 -0.6187
  233MOL0     C32038  10.357   8.690   1.815 -0.2661  1.0501  0.7156
  233MOL0     C32039  10.344   8.552   1.876 -0.3946 -0.3711 -0.1242
  233MOL0     O32040  10.292   8.456   1.775  0.3568  0.3051  0.3978
  233MOL0     C32041  10.151   8.437   1.790 -0.2726 -0.6809  0.8753
  233MOL0     C32042  10.088   8.413   1.911  0.2817 -1.3124  0.2207
  233MOL0     C32043   9.949   8.402   1.918  0.2519  1.0495 -0.0313
  233MOL0     C32044   9.887   8.389   2.057 -0.8481 -0.0301  0.7013
  233MOL0     C32045   9.867   8.414   1.795 -0.6331 -0.0231 -1.2652
  233MOL0     C32046   9.721   8.420   1.786 -0.3718  1.2653 -0.3864
  233MOL0     O32047   9.667   8.540   1.752 -0.5931 -0.4148  0.4883
  233MOL0     C32048   9.547   8.565   1.705 -0.0244  0.7275  0.4228
  233MOL0     C32049   9.533   8.677   1.618  0.3108 -0.3548 -0.2777
  233MOL0     C32050   9.404   8.715   1.576  0.6657 -0.1849 -0.1431
  233MOL0     C32051   9.283   8.636   1.606 -0.8725 -0.7414 -0.1515
  233MOL0     O32052   9.154   8.675   1.570  0.6036  0.1727  0.1151
  233MOL0     C32053   9.126   8.720   1.432 -0.0109  0.6785 -0.3678
  233MOL0     C32054   8.977   8.723   1.404  0.5568  0.3023 -0.5781
  233MOL0     C32055   8.904   8.588   1.444  0.5893 -0.1596  0.1754
  233MOL0     C32056   8.766   8.585   1.360 -0.7113  0.1650 -0.3377
  233MOL0     C32057   8.723   8.449   1.332 -0.3050  0.4892 -0.4744
  233MOL0     C32058   8.680   8.368   1.453  0.6645 -0.1447  0.1684
  233MOL0     C32059   8.569   8.439   1.532 -0.4070  0.3562 -0.2546
  233MOL0     C32060   8.473   8.340   1.607  0.1296 -0.9207  0.6370
  233MOL0    Cl32061   8.561   8.245   1.722 -0.6139 -0.0971 -0.1820
  233MOL0     C32062   9.309   8.532   1.694 -0.3932  0.1523 -0.8651
  233MOL0     C32063   9.438   8.489   1.738 -0.1652  0.4256  0.3850
  233MOL0     O32064   9.666   8.309   1.800  0.2326 -0.6245 -0.2828
  233MOL0     C32065   9.933   8.428   1.670 -0.2557 -0.2190  0.0915
  233MOL0     C32066  10.075   8.444   1.666 -0.2101  1.4701 -0.8345
  233MOL0     N32067  10.006   9.015   1.809  0.7148  0.3783 -0.3504
  233MOL0     N32068   9.887   9.043   1.782 -0.0373  0.1732  0.2622
  233MOL0     C32069   8.784   8.491   1.958  0.3104 -0.5358 -0.4260
  233MOL0     C32070   8.728   8.376   2.005 -0.2207  0.5281  0.8239
  233MOL0     C32071   8.470   8.129   2.276  0.4608  0.6139 -0.0365
  233MOL0     C32072   8.440   8.008   2.206 -0.6638 -0.1418 -0.3107
  233MOL0     C32073   8.382   7.892   2.261  0.8348 -0.4979  0.2999
  233MOL0     C32074   8.350   7.896   2.393 -0.3310  0.0420 -0.4478
  233MOL0     O32075   8.315   7.777   2.451 -0.3824 -0.1176  0.4722
  233MOL0     C32076   8.206   7.764   2.551 -0.5578 -0.4392 -0.3912
  233MOL0     C32077   8.195   7.624   2.595  0.5634 -0.2241  0.3412
  233MOL0     C32078   8.187   7.526   2.476 -0.2221 -0.5361  0.0073
  233MOL0     C32079   8.130   7.382   2.516  0.3188  0.3115  1.0297
  233MOL0     C32080   8.184   7.288   2.415  0.7562  0.2446  0.7526
  233MOL0     C32081   8.230   7.210   2.332 -0.2375  0.1464  0.1153
  233MOL0     C32082   8.369   8.012   2.465  0.2609 -0.2404 -0.0869
  233MOL0     C32083   8.427   8.121   2.411 -0.8847  0.0562  0.6129
  233MOL0     C32084   8.458   8.232   2.515  0.2866  0.1784 -0.1608
  233MOL0     H32085   8.766   8.441   2.336  0.9899  2.7922  0.4435
  233MOL0     H32086   8.849   8.653   2.246 -1.8096  2.3945 -0.6303
  233MOL0     H32087   8.831   8.722   1.794 -0.6814 -3.1221  1.2572
  233MOL0     H32088   8.981   8.642   1.831  1.3896  1.3444 -1.4584
  233MOL0     H32089   9.015   8.854   1.724  2.8160 -1.1465  0.2943
  233MOL0     H32090   8.951   8.943   1.865 -3.3491 -1.6772  0.7803
  233MOL0     H32091   9.128   8.804   2.007 -2.0365 -0.2645  0.4279
  233MOL0     H32092   9.198   8.768   1.859  1.2166  1.8947 -2.1013
  233MOL0     H32093   9.223   8.995   1.783 -2.5881  0.8568 -0.1658
  233MOL0     H32094   9.161   9.074   1.935  0.3767  0.4835 -0.4331
  233MOL0     H32095   9.346   9.030   2.061 -0.0316  4.0631 -0.8043
  233MOL0     H32096   9.382   9.095   1.918 -0.1290  0.2924 -0.1963
  233MOL0     H32097   9.418   8.794   2.008 -1.4284  0.2494 -0.7668
  233MOL0     H32098   9.430   8.808   1.841 -1.5153  0.1197  0.2145
  233MOL0     H32099   9.640   8.785   1.939  2.6897  1.6199  1.7892
  233MOL0     H32100   9.627   8.925   2.043 -0.5768 -1.8291  1.3535
  233MOL0     H32101   9.617   8.925   1.731 -0.3983 -2.5745 -0.0067
  233MOL0     H32102   9.651   9.063   1.847  4.4676  0.4955  2.4499
  233MOL0     H32103   9.850   8.748   1.905  1.5937  0.3886  0.5215
  233MOL0     H32104  10.106   8.732   1.972  0.8004 -1.3347 -0.5351
  233MOL0     H32105  10.199   8.881   1.955  0.0501 -0.3609  0.6546
  233MOL0     H32106  10.182   8.722   1.695 -0.7139  2.1709 -1.1864
  233MOL0     H32107  10.245   8.868   1.736 -1.0745  0.6552  0.3249
  233MOL0     H32108  10.420   8.673   1.728  1.5275  1.9096  1.7707
  233MOL0     H32109  10.421   8.744   1.886 -1.2129  1.5231  1.2330
  233MOL0     H32110  10.441   8.524   1.918  0.5434  0.3344 -1.7084
  233MOL0     H32111  10.285   8.567   1.967  1.0503  3.5268  0.3525
  233MOL0     H32112  10.140   8.425   2.006  0.9086  1.7953 -0.4059
  233MOL0     H32113   9.820   8.474   2.070 -0.4594  0.0556  2.3677
  233MOL0     H32114   9.969   8.392   2.129 -1.4151 -1.3722  1.4376
  233MOL0     H32115   9.827   8.298   2.065 -2.3748  0.7522 -1.1386
  233MOL0     H32116   9.621   8.737   1.594  2.1330 -2.7991 -0.0678
  233MOL0     H32117   9.395   8.799   1.508  0.2634  0.5950  0.8524
  233MOL0     H32118   9.172   8.817   1.411  2.2515 -0.3743 -0.5863
  233MOL0     H32119   9.173   8.644   1.369 -0.8848 -0.8639  0.7706
  233MOL0     H32120   8.929   8.796   1.469 -1.5596 -2.0948  0.7595
  233MOL0     H32121   8.961   8.747   1.298  2.4158  0.9154 -0.7581
  233MOL0     H32122   8.872   8.577   1.548 -1.6438 -2.5016 -0.6682
  233MOL0     H32123   8.966   8.501   1.421  1.5877  0.6958 -0.4722
  233MOL0     H32124   8.782   8.631   1.261 -1.8951  3.8507  0.9992
  233MOL0     H32125   8.691   8.649   1.407 -2.4905 -1.9188 -0.2063
  233MOL0     H32126   8.634   8.464   1.270 -1.8043 -0.7655  1.2699
  233MOL0     H32127   8.803   8.396   1.281  0.3992  0.4828  0.6081
  233MOL0     H32128   8.774   8.352   1.507 -0.2472 -1.0272  1.5434
  233MOL0     H32129   8.647   8.268   1.423  0.4615  0.6012 -2.2362
  233MOL0     H32130   8.508   8.505   1.470  1.3573  1.0795 -1.2933
  233MOL0     H32131   8.614   8.495   1.614 -0.8022 -1.4008  1.2349
  233MOL0     H32132   8.428   8.273   1.533  0.7686 -0.7492  0.0921
  233MOL0     H32133   8.412   8.396   1.679  2.4605  0.1011  1.9096
  233MOL0     H32134   9.223   8.480   1.735 -0.2684 -0.2832 -1.1374
  233MOL0     H32135   9.444   8.415   1.817 -0.7570 -0.3172 -0.2443
  233MOL0     H32136   9.880   8.449   1.578  0.1150  0.2271 -0.0267
  233MOL0     H32137  10.122   8.470   1.572 -1.0062  0.1269 -1.6285
  233MOL0     H32138   8.786   8.499   1.850 -3.2511  0.7890 -0.5215
  233MOL0     H32139   8.693   8.301   1.936 -1.1425 -0.1902  2.0292
  233MOL0     H32140   8.469   8.005   2.101 -1.7938  1.6588 -0.7080
  233MOL0     H32141   8.366   7.800   2.204 -1.3651  1.6265 -2.8847
  233MOL0     H32142   8.225   7.821   2.642 -0.3946 -1.5621  0.2942
  233MOL0     H32143   8.110   7.789   2.506  0.0207 -2.6159 -3.2202
  233MOL0     H32144   8.112   7.612   2.665  1.5480  0.2377  1.6256
  233MOL0     H32145   8.275   7.588   2.658 -0.5240  0.6665  2.3262
  233MOL0     H32146   8.119   7.572   2.403 -1.5112 -3.7212 -0.9478
  233MOL0     H32147   8.282   7.515   2.424  0.8466 -1.6291  2.0981
  233MOL0     H32148   8.021   7.381   2.513  0.2051 -1.9850 -3.5930
  233MOL0     H32149   8.159   7.340   2.613 -1.8168 -0.8901  1.2174
  233MOL0     H32150   8.263   7.131   2.267 -2.9966 -2.4230  1.5524
  233MOL0     H32151   8.339   8.005   2.569  2.2076  3.1333  0.8566
  233MOL0     H32152   8.364   8.256   2.565 -0.4147 -0.7505 -0.9863
  233MOL0     H32153   8.522   8.190   2.593  0.2834  1.9453  0.8289
  233MOL0     H32154   8.510   8.319   2.474  0.2504 -0.6368 -2.0350
  234MOL0     O32155  11.200   2.228   5.442  0.1880  0.4647 -0.2866
  234MOL0     C32156  11.189   2.316   5.525 -0.1713  0.0017 -0.8117
  234MOL0     O32157  11.077   2.331   5.602  0.3836  0.4178  0.0315
  234MOL0     C32158  10.958   2.278   5.561  0.4068 -1.4568 -0.1041
  234MOL0     C32159  10.927   2.148   5.618  0.5911  0.3771  0.5339
  234MOL0     C32160  10.806   2.077   5.589 -0.2424  0.8338  0.5928
  234MOL0     C32161  10.719   2.140   5.505  0.0142  0.3274  0.0880
  234MOL0     O32162  10.610   2.074   5.461  0.2606  0.1512 -0.2471
  234MOL0     C32163  10.634   1.954   5.392 -0.1409 -0.1207 -0.4755
  234MOL0     C32164  10.550   1.976   5.266 -0.5416 -0.0253  0.6895
  234MOL0     C32165  10.609   2.089   5.172  0.0001 -0.3926 -0.2586
  234MOL0     C32166  10.736   2.040   5.103  0.4819  0.9336 -0.8699
  234MOL0     C32167  10.813   2.160   5.050 -0.0987 -0.2431 -0.2454
  234MOL0     C32168  10.895   2.230   5.166 -0.4733  0.2332 -0.5591
  234MOL0     C32169  11.025   2.300   5.113 -0.7929  0.5091  1.0480
  234MOL0     C32170  10.987   2.440   5.063  0.0061  0.4838  0.0654
  234MOL0     N32171  10.940   2.461   4.921 -0.4145 -0.3286  1.0550
  234MOL0     C32172  10.822   2.495   4.867  0.3129  1.3228 -0.5162
  234MOL0     C32173  10.843   2.482   4.729 -0.2317  0.3427 -0.0879
  234MOL0     C32174  10.735   2.461   4.621  0.7020 -1.8335  0.1679
  234MOL0     C32175  10.620   2.565   4.616 -0.9557 -1.1471 -0.2402
  234MOL0     C32176  10.685   2.703   4.636 -0.1371  0.3178  0.1001
  234MOL0     C32177  10.575   2.812   4.632 -0.4285  0.0075 -0.0802
  234MOL0     O32178  10.618   2.933   4.697  0.3403 -0.5219  0.7114
  234MOL0     C32179  10.711   3.021   4.656  0.4232  0.0237  1.0199
  234MOL0     C32180  10.744   3.115   4.750  0.9851 -0.2481  1.0821
  234MOL0     C32181  10.837   3.219   4.722 -0.4954 -0.6940 -0.2499
  234MOL0     C32182  10.858   3.307   4.838  0.4599 -0.2106 -0.1316
  234MOL0     C32183  10.904   3.227   4.593  0.8153 -0.2240 -1.7479
  234MOL0     C32184  11.001   3.336   4.548  0.4339 -0.0659 -0.6501
  234MOL0     O32185  11.068   3.331   4.433 -0.3874 -0.7995 -0.3674
  234MOL0     C32186  11.138   3.433   4.385 -0.0774  0.2652  0.6216
  234MOL0     C32187  11.237   3.394   4.287 -0.4283 -0.6407 -0.3188
  234MOL0     C32188  11.289   3.494   4.197  0.0487 -0.5810  0.1376
  234MOL0     C32189  11.267   3.629   4.228 -0.4183  0.1427  0.9859
  234MOL0     O32190  11.344   3.727   4.159  0.2583 -0.1532 -0.2518
  234MOL0     C32191  11.303   3.852   4.144  0.7710  0.1190  0.1959
  234MOL0     C32192  11.407   3.935   4.074  0.1729  0.9158 -0.1314
  234MOL0     C32193  11.372   3.963   3.932 -0.1891 -0.0656 -0.7497
  234MOL0     C32194  11.369   3.842   3.828 -1.4274 -0.1952  0.5628
  234MOL0     C32195  11.325   3.882   3.693 -0.1899  0.4498  0.2230
  234MOL0     C32196  11.300   3.773   3.597  0.5164  0.6278 -0.1979
  234MOL0     C32197  11.231   3.803   3.461 -0.7324  0.0454  0.7726
  234MOL0     C32198  11.109   3.885   3.470  0.6405 -0.3567  0.4288
  234MOL0    Cl32199  10.977   3.774   3.548 -0.0767 -0.2527 -0.2731
  234MOL0     C32200  11.177   3.663   4.319 -0.6165 -0.7428 -0.7022
  234MOL0     C32201  11.110   3.573   4.402  0.6215  0.2904 -0.1417
  234MOL0     O32202  11.022   3.424   4.639  0.1215 -0.8214  1.4517
  234MOL0     C32203  10.871   3.122   4.501 -0.1010  0.2862 -0.6735
  234MOL0     C32204  10.778   3.021   4.532 -1.2102 -0.4281 -0.1841
  234MOL0     N32205  10.970   2.444   4.708 -0.3304 -0.2520  0.0237
  234MOL0     N32206  11.036   2.461   4.823 -0.9136 -0.0303  0.5771
  234MOL0     C32207  10.741   2.275   5.460 -0.1158  0.3858 -0.2523
  234MOL0     C32208  10.864   2.336   5.477  0.2209  0.4530  0.9129
  234MOL0     C32209  11.324   2.382   5.567  0.5008 -0.6157  0.5890
  234MOL0     C32210  11.338   2.429   5.704 -1.1135 -0.2815  0.0060
  234MOL0     C32211  11.446   2.510   5.749  0.6812  0.3164  0.8562
  234MOL0     C32212  11.547   2.541   5.658 -0.1669 -0.5826 -0.5395
  234MOL0     O32213  11.649   2.620   5.711 -0.3727 -0.6034  0.7366
  234MOL0     C32214  11.755   2.677   5.627  0.1956 -0.3506 -0.1915
  234MOL0     C32215  11.866   2.590   5.583 -0.4328  0.0300  1.1164
  234MOL0     C32216  11.946   2.554   5.698  0.5743 -0.6652  0.4044
  234MOL0     C32217  12.009   2.418   5.700  0.2904 -0.4270  0.0244
  234MOL0     C32218  12.120   2.405   5.598  0.4166 -0.0937 -0.9439
  234MOL0     C32219  12.181   2.406   5.497 -0.0966  0.2255  0.3413
  234MOL0     C32220  11.537   2.497   5.525 -0.2403 -0.8002 -0.0876
  234MOL0     C32221  11.431   2.420   5.476  0.8734 -0.1461 -0.5904
  234MOL0     C32222  11.435   2.392   5.334 -0.1742  0.3462  0.1988
  234MOL0     H32223  11.001   2.103   5.683 -1.7088 -1.0896  2.2781
  234MOL0     H32224  10.794   1.977   5.629 -1.6719  0.3644 -0.9046
  234MOL0     H32225  10.595   1.868   5.447 -1.7358  0.2997 -0.8965
  234MOL0     H32226  10.738   1.929   5.367 -0.8571 -2.7849 -1.1818
  234MOL0     H32227  10.557   1.880   5.215 -0.8306 -0.3522  1.2564
  234MOL0     H32228  10.450   2.001   5.304  0.6724  4.1566  1.6056
  234MOL0     H32229  10.540   2.124   5.095  0.6988  0.8029 -0.3684
  234MOL0     H32230  10.609   2.180   5.233 -1.4682 -0.8743  0.4924
  234MOL0     H32231  10.799   1.976   5.165  0.1105 -0.2140 -1.6359
  234MOL0     H32232  10.702   1.973   5.023 -1.0831 -1.3128  1.5136
  234MOL0     H32233  10.752   2.235   4.998  1.1988  1.2320  0.2671
  234MOL0     H32234  10.885   2.127   4.975 -0.2296  3.5514 -2.2839
  234MOL0     H32235  10.827   2.299   5.217 -0.5085  0.3098 -0.7095
  234MOL0     H32236  10.925   2.159   5.244  0.1004  0.9251 -0.1373
  234MOL0     H32237  11.057   2.230   5.035 -1.1191  0.1297  1.2508
  234MOL0     H32238  11.112   2.315   5.178  0.3316 -0.2547 -0.2228
  234MOL0     H32239  10.907   2.479   5.126  0.5032  0.6253  0.6125
  234MOL0     H32240  11.068   2.509   5.088 -1.4944  2.2482  0.2682
  234MOL0     H32241  10.718   2.499   4.898 -0.0387  1.4661 -1.6501
  234MOL0     H32242  10.694   2.360   4.631  0.2018 -1.4185  3.5552
  234MOL0     H32243  10.785   2.462   4.524 -1.1773 -0.2498 -0.8882
  234MOL0     H32244  10.581   2.562   4.514  0.7701 -4.2632 -0.9300
  234MOL0     H32245  10.550   2.529   4.691  0.0463  0.4637  1.5685
  234MOL0     H32246  10.734   2.705   4.734 -3.1810 -2.5181  1.8927
  234MOL0     H32247  10.764   2.715   4.561 -0.0399  1.8004  0.4074
  234MOL0     H32248  10.567   2.833   4.525  0.9194 -1.3753 -0.4856
  234MOL0     H32249  10.475   2.784   4.667 -0.5995  2.4741  1.6695
  234MOL0     H32250  10.690   3.111   4.844  0.5200 -2.6955  0.7811
  234MOL0     H32251  10.804   3.272   4.926 -0.4445 -0.1773 -0.6631
  234MOL0     H32252  10.817   3.405   4.811 -1.6563  0.3054  4.1632
  234MOL0     H32253  10.966   3.298   4.853  0.7211  0.9037 -1.1350
  234MOL0     H32254  11.252   3.291   4.255 -0.6815 -0.9838  0.6359
  234MOL0     H32255  11.355   3.494   4.111 -1.3036 -0.0293 -0.9338
  234MOL0     H32256  11.213   3.850   4.082  0.8427  3.9597 -0.2970
  234MOL0     H32257  11.279   3.905   4.237 -2.0777 -0.0033 -0.3701
  234MOL0     H32258  11.413   4.035   4.119 -0.0302  0.6304  0.5333
  234MOL0     H32259  11.497   3.873   4.078 -0.3887 -0.2924 -3.3198
  234MOL0     H32260  11.450   4.030   3.894  1.6082 -2.2502 -1.1730
  234MOL0     H32261  11.281   4.024   3.934  0.0031  0.2246 -0.7409
  234MOL0     H32262  11.301   3.766   3.867 -1.4490  0.7765  2.4991
  234MOL0     H32263  11.470   3.800   3.829 -0.5584  1.7902  1.4727
  234MOL0     H32264  11.223   3.918   3.712 -0.3566  0.1482 -0.1047
  234MOL0     H32265  11.374   3.974   3.659 -1.4308  1.0500 -0.0120
  234MOL0     H32266  11.243   3.696   3.649  2.5845  0.6482  2.2854
  234MOL0     H32267  11.396   3.729   3.573  0.2766 -1.7260  2.5835
  234MOL0     H32268  11.207   3.710   3.408 -3.9260  1.6791 -0.8929
  234MOL0     H32269  11.305   3.860   3.404 -0.3213 -0.2222  1.0291
  234MOL0     H32270  11.064   3.915   3.375 -3.5605 -5.9225  0.1077
  234MOL0     H32271  11.134   3.974   3.528  0.3570  0.5613 -0.8217
  234MOL0     H32272  11.159   3.768   4.340 -0.5413 -0.7649 -0.5270
  234MOL0     H32273  11.035   3.608   4.473  1.6442  0.0155  1.1134
  234MOL0     H32274  10.908   3.116   4.399  1.3244 -1.9873 -0.0967
  234MOL0     H32275  10.770   2.937   4.465  2.4236 -2.1256  1.2675
  234MOL0     H32276  10.668   2.334   5.406  1.9898  0.3569 -3.3954
  234MOL0     H32277  10.890   2.432   5.432  0.6150 -0.1248 -0.1122
  234MOL0     H32278  11.268   2.398   5.781 -0.3859 -0.4970  0.6009
  234MOL0     H32279  11.448   2.546   5.851  0.9518 -2.5858  1.9703
  234MOL0     H32280  11.716   2.718   5.534 -0.5301  0.0791  0.2891
  234MOL0     H32281  11.795   2.755   5.693  0.5149 -0.5865 -0.1017
  234MOL0     H32282  11.934   2.640   5.515  1.4510 -0.5083  2.5206
  234MOL0     H32283  11.830   2.498   5.535  0.1755  0.9980 -1.3384
  234MOL0     H32284  12.020   2.634   5.704  1.0695 -1.1724  1.1525
  234MOL0     H32285  11.894   2.565   5.794  2.2874 -2.9934  1.6969
  234MOL0     H32286  11.923   2.354   5.676  0.1160  0.5023 -1.9984
  234MOL0     H32287  12.059   2.397   5.795  0.4942 -3.6001 -0.6677
  234MOL0     H32288  12.228   2.399   5.401 -0.0975 -0.7259  0.3935
  234MOL0     H32289  11.612   2.536   5.457 -1.2689 -1.8361 -1.8946
  234MOL0     H32290  11.373   2.314   5.289 -1.3902  1.3926 -0.0331
  234MOL0     H32291  11.404   2.482   5.280 -2.6739 -2.2728 -3.1650
  234MOL0     H32292  11.535   2.355   5.311 -0.1264 -1.0001  2.4029
  235MOL0     O32293   4.701   0.221   3.348 -0.4624 -0.3067  0.7440
  235MOL0     C32294   4.814   0.222   3.289  0.2699 -0.0615  0.9148
  235MOL0     O32295   4.934   0.169   3.345  0.4396 -0.1509  0.1209
  235MOL0     C32296   4.910   0.101   3.464  0.1552 -0.3124 -0.7490
  235MOL0     C32297   4.854  -0.027   3.469 -0.6912 -0.1495 -0.1093
  235MOL0     C32298   4.840  -0.096   3.593  0.0121  0.3047  0.1085
  235MOL0     C32299   4.889  -0.038   3.711 -1.1170 -0.1707 -0.0027
  235MOL0     O32300   4.884  -0.119   3.819  0.3097 -0.5065 -0.2576
  235MOL0     C32301   4.756  -0.137   3.865  0.2567  0.0587  0.2249
  235MOL0     C32302   4.738  -0.236   3.985  0.9609  0.8433 -0.8918
  235MOL0     C32303   4.593  -0.253   4.007 -0.7059  0.4619 -1.1130
  235MOL0     C32304   4.549  -0.370   4.110 -0.2972  0.1979 -0.3772
  235MOL0     C32305   4.391  -0.354   4.126  0.0563  0.0083  0.1550
  235MOL0     C32306   4.342  -0.462   4.224  0.1904  0.3227 -0.8821
  235MOL0     C32307   4.200  -0.434   4.271  0.8958  0.8264  0.2652
  235MOL0     C32308   4.147  -0.527   4.371 -0.5892 -0.0278  0.3288
  235MOL0     N32309   4.017  -0.481   4.437 -1.0766 -0.1924  0.0362
  235MOL0     C32310   4.024  -0.431   4.571  0.7804 -0.2528  0.1206
  235MOL0     C32311   3.911  -0.473   4.631 -0.8486 -0.3183  0.1961
  235MOL0     C32312   3.880  -0.443   4.771  0.0056 -0.4418 -0.5436
  235MOL0     C32313   3.933  -0.567   4.845 -0.0767  0.2191  0.6408
  235MOL0     C32314   3.922  -0.565   5.002  0.1480 -0.4357  0.2837
  235MOL0     C32315   3.774  -0.560   5.043 -0.5812  0.1144 -0.3928
  235MOL0     O32316   3.734  -0.424   5.055  1.0028  0.0821  0.8639
  235MOL0     C32317   3.603  -0.405   5.063  1.0812 -0.4805 -0.0223
  235MOL0     C32318   3.554  -0.293   5.001 -0.2398  0.8020  0.0549
  235MOL0     C32319   3.423  -0.262   4.991  0.9672  0.3671 -0.2495
  235MOL0     C32320   3.403  -0.124   4.924  0.2621  0.3788  0.0799
  235MOL0     C32321   3.326  -0.354   5.046  0.2732 -0.3545 -0.4130
  235MOL0     C32322   3.184  -0.331   5.031  0.6371  0.9274 -1.0749
  235MOL0     O32323   3.107  -0.416   5.097  0.6036  0.6366  0.3088
  235MOL0     C32324   2.974  -0.404   5.148 -0.6885  0.6453  0.8742
  235MOL0     C32325   2.903  -0.289   5.151  0.6766  0.8274  0.1010
  235MOL0     C32326   2.793  -0.286   5.228  0.0989 -1.2373 -0.0786
  235MOL0     C32327   2.727  -0.397   5.283  0.9732 -1.1728  0.0522
  235MOL0     O32328   2.612  -0.366   5.351  0.1873  0.3713 -0.7736
  235MOL0     C32329   2.512  -0.472   5.344 -0.2911 -0.6137 -1.0269
  235MOL0     C32330   2.463  -0.492   5.199  0.7981 -0.3559  0.3228
  235MOL0     C32331   2.312  -0.536   5.218 -0.3124  0.7820 -0.6451
  235MOL0     C32332   2.240  -0.535   5.085  0.1397 -0.2921 -0.5371
  235MOL0     C32333   2.212  -0.391   5.037 -0.3196 -0.1444 -0.3385
  235MOL0     C32334   2.136  -0.382   4.909  0.0106 -0.3482 -0.5432
  235MOL0     C32335   2.205  -0.437   4.782 -0.3692  0.1495 -0.5353
  235MOL0     C32336   2.338  -0.374   4.747  0.3794 -0.1902 -0.4605
  235MOL0    Cl32337   2.312  -0.199   4.710  0.1130  0.5378  0.5050
  235MOL0     C32338   2.790  -0.518   5.257 -0.5583 -0.2627  0.8260
  235MOL0     C32339   2.911  -0.515   5.196 -0.3285 -0.4574 -0.6381
  235MOL0     O32340   3.136  -0.240   4.959  0.6769  0.1770 -0.6583
  235MOL0     C32341   3.368  -0.469   5.109  0.6790 -0.8706 -0.8793
  235MOL0     C32342   3.508  -0.488   5.125 -0.6579  0.0926 -0.0117
  235MOL0     N32343   3.835  -0.554   4.548  0.1651  0.1916  0.6845
  235MOL0     N32344   3.903  -0.560   4.433  0.4946 -0.3958 -0.9313
  235MOL0     C32345   4.928   0.102   3.706 -0.4494  1.1644  0.3814
  235MOL0     C32346   4.954   0.166   3.581  0.3746  0.7356 -0.2944
  235MOL0     C32347   4.820   0.280   3.149  0.4871 -0.0274 -0.6025
  235MOL0     C32348   4.695   0.292   3.079  0.5356  0.4149  0.2624
  235MOL0     C32349   4.688   0.349   2.955 -0.3902  0.2356  0.2494
  235MOL0     C32350   4.807   0.400   2.887 -0.7045  0.4349 -0.0909
  235MOL0     O32351   4.791   0.446   2.758  0.4902 -0.0678  0.7075
  235MOL0     C32352   4.881   0.394   2.660  1.8929 -0.5536 -0.8945
  235MOL0     C32353   4.827   0.418   2.517 -0.0463 -0.4745 -0.1917
  235MOL0     C32354   4.925   0.368   2.401 -0.0632  0.1111 -0.0353
  235MOL0     C32355   4.865   0.268   2.301  0.8544 -0.9513 -0.0241
  235MOL0     C32356   4.977   0.224   2.212 -0.3035 -0.2552  1.1560
  235MOL0     C32357   5.052   0.176   2.129 -0.4452 -0.4839 -0.6133
  235MOL0     C32358   4.929   0.379   2.953  0.7118  0.5726  0.4841
  235MOL0     C32359   4.936   0.318   3.080 -0.1639  0.5912  0.1167
  235MOL0     C32360   5.078   0.303   3.135  0.0266  0.6662  0.3912
  235MOL0     H32361   4.820  -0.079   3.380  0.9082 -1.6510  0.0931
  235MOL0     H32362   4.817  -0.201   3.580 -1.1563  0.7625 -2.1760
  235MOL0     H32363   4.703  -0.195   3.789 -2.0387  0.0917  1.6897
  235MOL0     H32364   4.716  -0.040   3.897 -1.3444 -1.1545  2.1544
  235MOL0     H32365   4.779  -0.333   3.956 -0.6771 -0.4587  0.8815
  235MOL0     H32366   4.776  -0.202   4.082  4.4118  0.4291 -1.9669
  235MOL0     H32367   4.546  -0.167   4.055 -1.2650  0.4148 -1.5637
  235MOL0     H32368   4.547  -0.289   3.915 -1.6428  1.1875 -0.9371
  235MOL0     H32369   4.572  -0.468   4.066 -0.3543 -0.6812  1.4541
  235MOL0     H32370   4.604  -0.367   4.205  1.4921  0.6872 -1.3770
  235MOL0     H32371   4.337  -0.368   4.032 -0.4163  1.6986  0.1489
  235MOL0     H32372   4.382  -0.254   4.170 -1.4220  0.2972 -0.7597
  235MOL0     H32373   4.341  -0.562   4.180 -0.0826 -0.4945  0.8975
  235MOL0     H32374   4.404  -0.463   4.314 -0.5080  0.6817 -0.3819
  235MOL0     H32375   4.129  -0.444   4.189 -0.5790  1.7060  1.3850
  235MOL0     H32376   4.199  -0.336   4.320 -0.6768  0.4872  0.9880
  235MOL0     H32377   4.127  -0.623   4.322 -2.1569  0.3423  0.1972
  235MOL0     H32378   4.227  -0.534   4.446 -0.6438 -1.7376  0.2717
  235MOL0     H32379   4.086  -0.357   4.621 -2.5840  1.3509  2.1913
  235MOL0     H32380   3.778  -0.414   4.796  1.0169  1.0945  2.3269
  235MOL0     H32381   3.938  -0.357   4.808 -2.4125  0.1851  2.1599
  235MOL0     H32382   3.882  -0.656   4.808 -0.7919 -0.5335  3.2293
  235MOL0     H32383   4.040  -0.562   4.824 -0.3083  2.8888 -0.3852
  235MOL0     H32384   3.963  -0.661   5.036  0.8465 -0.4230 -0.4655
  235MOL0     H32385   3.992  -0.489   5.040 -0.6442  0.2305  0.4368
  235MOL0     H32386   3.721  -0.609   4.960 -0.6010 -1.5167  0.5511
  235MOL0     H32387   3.748  -0.606   5.138 -3.9709  1.0101 -0.7489
  235MOL0     H32388   3.622  -0.225   4.951  0.1170 -0.5153 -1.3298
  235MOL0     H32389   3.493  -0.063   4.933 -0.6803  1.8335 -0.0448
  235MOL0     H32390   3.317  -0.071   4.966  0.3539 -0.6671  1.6816
  235MOL0     H32391   3.383  -0.124   4.816  4.7258  1.6733 -0.9920
  235MOL0     H32392   2.936  -0.197   5.104  1.0448  1.6639  1.8977
  235MOL0     H32393   2.743  -0.189   5.220  0.1343 -1.3378 -1.8499
  235MOL0     H32394   2.555  -0.567   5.376 -2.0508 -0.4777  2.1488
  235MOL0     H32395   2.427  -0.452   5.410 -1.0435  0.6416 -2.3117
  235MOL0     H32396   2.476  -0.395   5.151 -2.0494  0.5617  1.1940
  235MOL0     H32397   2.529  -0.565   5.151  4.5826 -0.2329  4.6107
  235MOL0     H32398   2.256  -0.482   5.295 -2.3265 -2.8217  0.7047
  235MOL0     H32399   2.312  -0.642   5.248  3.0701 -0.1779 -3.4222
  235MOL0     H32400   2.141  -0.580   5.098  0.3030 -0.7487 -0.8727
  235MOL0     H32401   2.296  -0.593   5.012  3.2585 -2.9834  3.5129
  235MOL0     H32402   2.152  -0.331   5.105  0.3894  0.5435 -0.3148
  235MOL0     H32403   2.300  -0.327   5.027 -0.6859  0.1748 -1.7329
  235MOL0     H32404   2.116  -0.275   4.897  1.3653  0.4753  3.1435
  235MOL0     H32405   2.040  -0.433   4.927  0.6380 -0.4690  3.4056
  235MOL0     H32406   2.136  -0.422   4.699 -0.2253 -1.6998 -1.0195
  235MOL0     H32407   2.218  -0.545   4.793 -1.2715  0.1728  1.0056
  235MOL0     H32408   2.383  -0.427   4.662  0.9842  0.2698 -0.4355
  235MOL0     H32409   2.411  -0.389   4.827 -0.0709 -0.0096 -0.0109
  235MOL0     H32410   2.744  -0.607   5.298 -1.3307 -0.5799 -0.6505
  235MOL0     H32411   2.970  -0.606   5.185 -0.3302 -0.4768 -0.4874
  235MOL0     H32412   3.303  -0.537   5.163  4.2357 -1.7387  2.8873
  235MOL0     H32413   3.532  -0.581   5.177 -3.5135 -1.0230 -0.4754
  235MOL0     H32414   4.964   0.136   3.803  1.3961 -2.3308  1.0893
  235MOL0     H32415   4.989   0.268   3.570  3.3590 -0.2121 -0.3273
  235MOL0     H32416   4.596   0.270   3.119  0.6238 -1.7511 -0.5514
  235MOL0     H32417   4.592   0.367   2.908 -0.4885  3.4397  1.4173
  235MOL0     H32418   4.977   0.446   2.671  1.8187  0.7431 -4.6944
  235MOL0     H32419   4.888   0.285   2.661 -1.3938 -0.9887 -3.9204
  235MOL0     H32420   4.820   0.528   2.515  3.7728 -0.0639  0.5226
  235MOL0     H32421   4.728   0.378   2.500  0.1312 -1.2966  0.6354
  235MOL0     H32422   4.969   0.451   2.345  0.6264 -1.3551 -1.7521
  235MOL0     H32423   5.007   0.313   2.447 -0.8164 -1.0549 -0.0523
  235MOL0     H32424   4.782   0.315   2.247  0.6665 -2.5286 -1.1857
  235MOL0     H32425   4.836   0.178   2.354 -1.0137  0.9402  2.3571
  235MOL0     H32426   5.113   0.150   2.045 -0.6244  3.5076 -2.1941
  235MOL0     H32427   5.017   0.430   2.916  0.9635 -0.3256 -0.2198
  235MOL0     H32428   5.084   0.330   3.241  0.3887  0.9036  0.3111
  235MOL0     H32429   5.115   0.201   3.129 -1.8004 -0.3799  4.0783
  235MOL0     H32430   5.151   0.356   3.072 -0.1698 -1.1869 -1.5111
  236MOL0     O32431   3.141   5.548   3.238  0.4606  0.6758  0.1607
  236MOL0     C32432   3.108   5.654   3.287 -0.7039  0.0988  0.2422
  236MOL0     O32433   2.990   5.714   3.266 -0.2282 -0.5988  0.1441
  236MOL0     C32434   2.886   5.636   3.245 -0.0880  0.6159  0.0788
  236MOL0     C32435   2.855   5.573   3.123 -0.8229  0.0427 -0.5839
  236MOL0     C32436   2.745   5.490   3.100 -0.0521  0.0698  0.4329
  236MOL0     C32437   2.670   5.461   3.210 -1.3688  0.4876  0.0112
  236MOL0     O32438   2.565   5.377   3.180 -0.4878 -0.8006 -0.5076
  236MOL0     C32439   2.582   5.237   3.207  0.0413  0.6261  0.7452
  236MOL0     C32440   2.511   5.220   3.346  0.3408 -0.1390  0.5077
  236MOL0     C32441   2.494   5.076   3.387 -0.4234 -0.7615 -0.4145
  236MOL0     C32442   2.623   5.001   3.404 -0.0514  0.0199 -0.4381
  236MOL0     C32443   2.622   4.872   3.326 -0.4884 -0.9991  0.3084
  236MOL0     C32444   2.732   4.773   3.364 -0.1157  0.1402  0.5450
  236MOL0     C32445   2.730   4.658   3.268  0.1906  1.4771  0.5975
  236MOL0     C32446   2.590   4.576   3.279 -0.5804 -0.9464 -0.6863
  236MOL0     N32447   2.595   4.439   3.217 -1.1639  0.0514 -0.6572
  236MOL0     C32448   2.587   4.415   3.080  0.8812  0.0592 -0.1408
  236MOL0     C32449   2.616   4.283   3.073  0.3722  1.1018  0.2226
  236MOL0     C32450   2.616   4.202   2.950  0.2533  0.1480  0.4082
  236MOL0     C32451   2.527   4.263   2.844 -0.3880  0.4253  0.9005
  236MOL0     C32452   2.372   4.241   2.857  0.3545 -0.7792  0.6483
  236MOL0     C32453   2.288   4.294   2.748  0.0646 -0.9424  0.8437
  236MOL0     O32454   2.309   4.440   2.737 -0.2433  0.0710 -0.5497
  236MOL0     C32455   2.239   4.497   2.630 -0.8955 -0.2969 -0.0430
  236MOL0     C32456   2.153   4.444   2.537  0.0487 -0.3133 -0.4803
  236MOL0     C32457   2.089   4.527   2.447  0.1165  0.3759  0.6131
  236MOL0     C32458   1.971   4.461   2.372  0.4897 -0.1762  0.0881
  236MOL0     C32459   2.110   4.667   2.451 -0.9966 -0.4470  0.7682
  236MOL0     C32460   2.052   4.756   2.347 -0.1489  0.2849 -0.3454
  236MOL0     O32461   2.060   4.884   2.388 -0.7271 -0.2371 -0.9261
  236MOL0     C32462   2.000   4.991   2.322 -0.2035  0.9988  0.7343
  236MOL0     C32463   1.943   4.998   2.190 -0.0680 -0.0622  0.6717
  236MOL0     C32464   1.887   5.115   2.141  0.6504  0.1062 -1.5077
  236MOL0     C32465   1.892   5.235   2.228  0.7993 -0.6400 -1.1227
  236MOL0     O32466   1.830   5.356   2.213  0.1016 -0.1761 -0.4728
  236MOL0     C32467   1.773   5.405   2.085 -0.2759 -0.1684  0.3426
  236MOL0     C32468   1.717   5.546   2.106  0.2265 -0.3270  0.4241
  236MOL0     C32469   1.589   5.540   2.201 -0.1438  0.0276 -0.1321
  236MOL0     C32470   1.510   5.672   2.201 -0.5081  0.5229  0.0451
  236MOL0     C32471   1.374   5.669   2.265  0.5404  1.0696 -0.6068
  236MOL0     C32472   1.328   5.806   2.307 -0.0927 -0.6250  0.1360
  236MOL0     C32473   1.241   5.883   2.203 -0.7263  0.9919 -0.3319
  236MOL0     C32474   1.319   5.956   2.094  0.5037 -0.0047 -0.0818
  236MOL0    Cl32475   1.226   6.073   2.002  0.0850  0.5607  0.3220
  236MOL0     C32476   1.931   5.221   2.364  0.8322 -0.9511 -0.1459
  236MOL0     C32477   1.989   5.103   2.397  0.6112  0.9882 -0.5246
  236MOL0     O32478   2.002   4.709   2.243 -0.3534 -0.0907 -1.1557
  236MOL0     C32479   2.190   4.723   2.549 -0.1782  0.8274 -0.7173
  236MOL0     C32480   2.256   4.640   2.639 -0.5991 -0.5420  0.2247
  236MOL0     N32481   2.620   4.228   3.208  1.0334 -0.1517  0.6923
  236MOL0     N32482   2.595   4.323   3.290 -1.3396  0.5236 -0.2174
  236MOL0     C32483   2.682   5.528   3.335 -1.2711 -0.6541 -0.8583
  236MOL0     C32484   2.801   5.615   3.351  0.9301 -0.1153  0.9345
  236MOL0     C32485   3.208   5.716   3.380 -0.3595 -0.3819  0.4124
  236MOL0     C32486   3.232   5.655   3.500  0.6772 -1.2573  0.0232
  236MOL0     C32487   3.327   5.711   3.583 -0.0088  0.3148 -0.8360
  236MOL0     C32488   3.381   5.842   3.563  0.4889 -0.1863  1.1131
  236MOL0     O32489   3.466   5.890   3.651 -0.3416 -0.2497  0.4369
  236MOL0     C32490   3.518   6.022   3.645  0.5529 -0.1440 -1.0509
  236MOL0     C32491   3.606   6.054   3.761 -0.7043 -0.2182 -0.5390
  236MOL0     C32492   3.703   6.183   3.726  0.7626  1.4562  0.5507
  236MOL0     C32493   3.719   6.261   3.853  0.4683  0.0795  0.4800
  236MOL0     C32494   3.762   6.177   3.961 -0.1177 -0.8146 -0.2904
  236MOL0     C32495   3.796   6.106   4.048  0.0184  0.1387 -0.2473
  236MOL0     C32496   3.346   5.904   3.443 -0.0127 -0.1023 -0.0583
  236MOL0     C32497   3.269   5.839   3.354 -0.1854 -0.4576  1.2285
  236MOL0     C32498   3.227   5.929   3.224  0.1190 -0.4298  0.0700
  236MOL0     H32499   2.930   5.570   3.045 -2.3982 -0.7366 -2.1325
  236MOL0     H32500   2.722   5.454   3.000 -1.9180  0.2151  0.7680
  236MOL0     H32501   2.683   5.196   3.210 -0.1879 -0.9024 -3.8012
  236MOL0     H32502   2.525   5.183   3.130  1.7971  0.2183 -0.3260
  236MOL0     H32503   2.587   5.265   3.410  1.0296 -1.5382  0.7088
  236MOL0     H32504   2.417   5.276   3.348  0.1910 -0.3218 -0.5120
  236MOL0     H32505   2.424   5.076   3.471 -0.0900  0.1773 -0.1245
  236MOL0     H32506   2.446   5.036   3.297  1.2720  0.8836 -2.1480
  236MOL0     H32507   2.702   5.067   3.367  0.8306 -1.5082 -1.4067
  236MOL0     H32508   2.643   4.983   3.510  1.4428 -1.8343 -0.9922
  236MOL0     H32509   2.639   4.907   3.224  3.2763 -0.0830  1.0959
  236MOL0     H32510   2.525   4.834   3.357 -1.2526  1.2624  0.9247
  236MOL0     H32511   2.828   4.826   3.365 -1.1075  2.1820 -1.3642
  236MOL0     H32512   2.721   4.728   3.462  1.1514  0.5977  0.9195
  236MOL0     H32513   2.812   4.589   3.288 -2.0893 -2.1849 -1.5085
  236MOL0     H32514   2.743   4.685   3.163 -1.1465  0.9515  0.2699
  236MOL0     H32515   2.583   4.554   3.386 -2.1086 -3.1628 -1.1535
  236MOL0     H32516   2.501   4.627   3.242  0.7900  0.5272 -2.1246
  236MOL0     H32517   2.562   4.478   2.995  1.0999 -0.1711 -0.3763
  236MOL0     H32518   2.579   4.101   2.970 -0.2733 -0.1730 -1.8431
  236MOL0     H32519   2.719   4.201   2.913  0.0977 -0.9262 -0.0352
  236MOL0     H32520   2.552   4.368   2.824 -4.8433  1.3264 -1.0912
  236MOL0     H32521   2.556   4.217   2.749 -4.3697 -1.7260  0.5350
  236MOL0     H32522   2.350   4.134   2.858 -2.9636 -0.2092  1.1808
  236MOL0     H32523   2.350   4.296   2.949  2.6471  0.1038  0.7190
  236MOL0     H32524   2.302   4.246   2.651 -2.5218 -5.0111  2.1934
  236MOL0     H32525   2.184   4.274   2.775 -1.0851  2.8277 -0.1214
  236MOL0     H32526   2.131   4.338   2.535 -1.4691 -0.0160 -0.4099
  236MOL0     H32527   1.995   4.464   2.265 -3.2578 -3.0752 -1.0641
  236MOL0     H32528   1.875   4.511   2.383 -0.6108 -1.6806 -1.8727
  236MOL0     H32529   1.950   4.360   2.409 -0.6841  0.4651  1.2164
  236MOL0     H32530   1.961   4.920   2.117  0.2579  3.5855 -3.6164
  236MOL0     H32531   1.849   5.108   2.039  1.3017  1.3650 -1.8603
  236MOL0     H32532   1.857   5.424   2.017 -1.8321  2.5229 -1.0102
  236MOL0     H32533   1.697   5.343   2.036 -1.4194  2.6728 -1.7395
  236MOL0     H32534   1.801   5.600   2.150 -0.5252 -0.0760  1.6247
  236MOL0     H32535   1.704   5.582   2.004  1.8824 -0.5136  0.1260
  236MOL0     H32536   1.623   5.516   2.303  0.8773 -1.7017 -0.8295
  236MOL0     H32537   1.525   5.466   2.154 -1.7837  0.7123  0.9208
  236MOL0     H32538   1.498   5.699   2.096  1.1438  0.0937 -0.2814
  236MOL0     H32539   1.578   5.747   2.243 -0.7496  2.3229 -2.5733
  236MOL0     H32540   1.309   5.611   2.197 -1.6227  0.0947  2.0992
  236MOL0     H32541   1.396   5.615   2.357  0.6855  0.4277 -1.0075
  236MOL0     H32542   1.416   5.860   2.342  1.4175 -0.3459 -3.6307
  236MOL0     H32543   1.261   5.785   2.391 -0.9794 -1.3394 -0.7356
  236MOL0     H32544   1.195   5.960   2.265 -0.9199  0.4742  0.1716
  236MOL0     H32545   1.161   5.821   2.161 -0.5812 -0.6223  1.6516
  236MOL0     H32546   1.377   5.895   2.025  1.2176  0.8648 -0.2658
  236MOL0     H32547   1.397   6.014   2.143  0.0897  0.9644 -0.5427
  236MOL0     H32548   1.933   5.300   2.438  1.1488 -0.8054 -0.3081
  236MOL0     H32549   2.034   5.104   2.495 -0.5368  0.0593  0.0478
  236MOL0     H32550   2.207   4.828   2.571  1.6286  0.1316  1.6077
  236MOL0     H32551   2.298   4.686   2.728 -4.6210 -0.7231  2.4589
  236MOL0     H32552   2.602   5.518   3.408 -0.5357 -0.8775 -0.0825
  236MOL0     H32553   2.798   5.660   3.450 -0.5088  0.1741  0.7873
  236MOL0     H32554   3.182   5.565   3.533 -1.5393 -0.4508 -0.9473
  236MOL0     H32555   3.354   5.667   3.679  0.7981 -1.1067 -1.6817
  236MOL0     H32556   3.576   6.022   3.552  0.1619  0.8470 -1.3162
  236MOL0     H32557   3.441   6.099   3.642  0.4319  0.0199  2.4554
  236MOL0     H32558   3.673   5.969   3.778 -1.3922 -0.2577  2.3655
  236MOL0     H32559   3.552   6.063   3.855 -0.9329 -0.0430 -0.6847
  236MOL0     H32560   3.798   6.152   3.683 -0.3501 -2.6052  0.6132
  236MOL0     H32561   3.650   6.241   3.650  0.2334 -1.5723 -1.5905
  236MOL0     H32562   3.621   6.308   3.867 -0.8204 -2.4161  0.3679
  236MOL0     H32563   3.791   6.343   3.838 -0.1938  1.9479  5.6092
  236MOL0     H32564   3.830   6.034   4.119  0.0920 -0.5460 -0.9716
  236MOL0     H32565   3.378   6.005   3.421 -2.2956  0.7938  0.4682
  236MOL0     H32566   3.308   6.002   3.213 -0.4264 -0.0400 -1.7566
  236MOL0     H32567   3.209   5.857   3.144 -4.3119 -0.3818  0.7803
  236MOL0     H32568   3.134   5.986   3.231  1.0556  1.1994 -0.2559
  237MOL0     O32569   6.566   6.065   6.259  0.2646 -0.1992  0.2164
  237MOL0     C32570   6.687   6.046   6.271  0.2000 -0.1594  0.6927
  237MOL0     O32571   6.779   6.068   6.170 -0.5104 -0.2922  0.7196
  237MOL0     C32572   6.738   6.090   6.044  0.4371 -0.8209 -0.4532
  237MOL0     C32573   6.788   6.006   5.942 -0.3577 -1.0069  0.1593
  237MOL0     C32574   6.752   6.041   5.806  0.3017  0.3033 -0.5247
  237MOL0     C32575   6.651   6.133   5.776  0.0843  1.1315  0.7517
  237MOL0     O32576   6.611   6.150   5.647  0.0993  0.0184  0.2196
  237MOL0     C32577   6.645   6.277   5.596  0.1072  0.7349 -0.4934
  237MOL0     C32578   6.554   6.288   5.481  0.1478  0.0742 -0.2050
  237MOL0     C32579   6.405   6.317   5.520  1.3269  0.5809  0.2866
  237MOL0     C32580   6.325   6.277   5.401  0.2322 -0.3548 -0.1425
  237MOL0     C32581   6.180   6.318   5.420 -0.0553 -0.5830 -0.5083
  237MOL0     C32582   6.103   6.257   5.309  0.2034 -0.5396 -0.4336
  237MOL0     C32583   5.959   6.295   5.332  0.8873  0.2589  0.2630
  237MOL0     C32584   5.852   6.220   5.238 -0.5884 -0.3363 -0.2850
  237MOL0     N32585   5.732   6.295   5.207 -0.5621  0.0127 -0.1316
  237MOL0     C32586   5.668   6.318   5.090 -0.9423 -0.7530 -0.1477
  237MOL0     C32587   5.583   6.416   5.119  0.3648 -0.6482  0.0402
  237MOL0     C32588   5.481   6.481   5.025  0.1815  0.3653  0.1070
  237MOL0     C32589   5.379   6.380   4.976 -0.2651  0.2627  0.5614
  237MOL0     C32590   5.255   6.360   5.071 -0.0510 -0.0162  0.0998
  237MOL0     C32591   5.295   6.351   5.215 -0.0330 -1.0503 -0.0080
  237MOL0     O32592   5.174   6.359   5.287  0.0857 -0.6024  0.6758
  237MOL0     C32593   5.093   6.252   5.312 -0.2494 -0.1444  0.5729
  237MOL0     C32594   5.122   6.123   5.264 -0.2776 -0.2605 -0.6724
  237MOL0     C32595   5.041   6.011   5.296 -0.1267 -0.7544 -0.1212
  237MOL0     C32596   5.092   5.872   5.268 -0.2508 -0.0484  1.3239
  237MOL0     C32597   4.917   6.031   5.367  0.2297 -0.3049  0.8248
  237MOL0     C32598   4.813   5.933   5.398 -0.1662  0.7059 -0.3143
  237MOL0     O32599   4.720   5.966   5.498  0.6220 -0.4277  0.6572
  237MOL0     C32600   4.611   5.886   5.519  0.1398 -0.1398 -0.0665
  237MOL0     C32601   4.576   5.868   5.650  1.1137 -0.2539 -0.5404
  237MOL0     C32602   4.462   5.795   5.687 -0.0413  1.5773 -1.3867
  237MOL0     C32603   4.384   5.729   5.590 -0.5115  0.2067 -0.0984
  237MOL0     O32604   4.275   5.657   5.630  0.0175  0.1061  0.6933
  237MOL0     C32605   4.168   5.625   5.531  0.3882 -0.3195 -2.0146
  237MOL0     C32606   4.049   5.552   5.588 -0.0080  0.0998 -0.1683
  237MOL0     C32607   4.075   5.405   5.608 -0.0808 -0.2892 -0.1465
  237MOL0     C32608   3.957   5.352   5.688 -0.1333  0.9732  0.0822
  237MOL0     C32609   3.983   5.196   5.723 -1.1894  0.7974  0.2806
  237MOL0     C32610   4.098   5.175   5.819 -0.1134 -1.0710 -0.4423
  237MOL0     C32611   4.088   5.245   5.963  1.7408  0.2963 -0.4256
  237MOL0     C32612   3.967   5.187   6.042  0.4994 -0.6742 -0.5557
  237MOL0    Cl32613   3.804   5.265   6.004 -0.0673  0.0769  0.1011
  237MOL0     C32614   4.425   5.739   5.455  0.1081 -0.1127 -1.0772
  237MOL0     C32615   4.536   5.816   5.424 -0.6479  0.0749  1.1460
  237MOL0     O32616   4.821   5.822   5.347 -0.2715 -0.7902 -0.5585
  237MOL0     C32617   4.890   6.162   5.415  0.1738 -0.2233  1.0760
  237MOL0     C32618   4.975   6.273   5.385  0.6036 -0.6091  0.0704
  237MOL0     N32619   5.595   6.437   5.258 -0.4362 -0.4444 -0.2197
  237MOL0     N32620   5.666   6.354   5.307 -0.6898 -0.6842  0.3063
  237MOL0     C32621   6.597   6.205   5.889 -0.1179 -0.3592 -0.2995
  237MOL0     C32622   6.646   6.196   6.019 -0.5835 -0.2957  0.7081
  237MOL0     C32623   6.740   6.018   6.406 -0.7229 -0.5281  0.2564
  237MOL0     C32624   6.859   6.082   6.441 -0.3029  0.4468  0.7297
  237MOL0     C32625   6.906   6.070   6.570  0.3229 -0.5334 -0.5445
  237MOL0     C32626   6.847   5.993   6.665  0.2658 -1.5719 -0.9185
  237MOL0     O32627   6.888   5.983   6.797  0.0659 -0.1150 -0.1357
  237MOL0     C32628   6.998   6.060   6.850 -0.1859 -0.2428 -0.0825
  237MOL0     C32629   7.015   6.049   7.004 -0.1193  0.0133 -0.5053
  237MOL0     C32630   7.043   5.908   7.063  0.7062 -0.4327  0.6414
  237MOL0     C32631   7.154   5.831   6.992 -0.4518  0.6887 -0.7710
  237MOL0     C32632   7.278   5.898   6.994 -0.5794  0.2993  0.6889
  237MOL0     C32633   7.387   5.952   7.009  1.1571 -0.0597  0.7154
  237MOL0     C32634   6.725   5.924   6.630  0.2243  0.0720  0.2959
  237MOL0     C32635   6.675   5.935   6.500 -0.0873  0.6654  0.2881
  237MOL0     C32636   6.550   5.846   6.470 -0.0491 -0.1893  0.3988
  237MOL0     H32637   6.851   5.920   5.961 -1.5869 -1.7293  1.1490
  237MOL0     H32638   6.787   5.982   5.722 -2.3024 -3.0106  0.5168
  237MOL0     H32639   6.749   6.274   5.561  0.7116 -1.4134  1.2401
  237MOL0     H32640   6.634   6.352   5.675 -3.6456 -0.3637  0.2581
  237MOL0     H32641   6.586   6.371   5.417  1.2416 -0.8510 -0.8814
  237MOL0     H32642   6.573   6.198   5.423  0.4633  0.2286 -0.3398
  237MOL0     H32643   6.377   6.264   5.612  0.6385 -0.3718 -0.4544
  237MOL0     H32644   6.393   6.425   5.537 -2.5575  0.2950  0.1832
  237MOL0     H32645   6.366   6.336   5.319  0.1904  1.4974  1.1021
  237MOL0     H32646   6.332   6.168   5.393 -0.1004 -0.4550  0.7515
  237MOL0     H32647   6.178   6.427   5.413  0.6137 -0.3894  1.7598
  237MOL0     H32648   6.137   6.290   5.517 -4.0239  0.5664 -1.7396
  237MOL0     H32649   6.137   6.306   5.218  1.8152  2.2072  1.4623
  237MOL0     H32650   6.099   6.148   5.310 -2.1395 -0.5461  1.5594
  237MOL0     H32651   5.927   6.399   5.323 -2.8414 -0.7857 -0.3943
  237MOL0     H32652   5.927   6.259   5.431 -1.3342 -0.9589 -0.8199
  237MOL0     H32653   5.901   6.189   5.146  1.2565 -2.9760  1.4328
  237MOL0     H32654   5.836   6.127   5.294  6.5821 -0.2374  3.0629
  237MOL0     H32655   5.689   6.269   4.995  4.2044  1.1311 -0.3210
  237MOL0     H32656   5.524   6.528   4.936 -0.5854 -0.4581 -0.7224
  237MOL0     H32657   5.429   6.567   5.070 -1.1112  0.7157 -1.9342
  237MOL0     H32658   5.344   6.398   4.874 -0.4187  1.0068  0.7407
  237MOL0     H32659   5.431   6.284   4.970  0.9438  0.7813  2.1253
  237MOL0     H32660   5.182   6.440   5.055 -2.1809 -1.8527  0.1793
  237MOL0     H32661   5.209   6.269   5.033  2.1684 -1.1436 -0.0545
  237MOL0     H32662   5.351   6.262   5.245 -0.2358 -0.5354  2.0446
  237MOL0     H32663   5.357   6.437   5.243 -0.5487 -1.4297  2.5609
  237MOL0     H32664   5.206   6.104   5.197  0.4166 -0.8903  0.3514
  237MOL0     H32665   5.040   5.804   5.200  2.1329  0.5129 -1.2334
  237MOL0     H32666   5.118   5.811   5.356  0.4417 -0.8935  0.5583
  237MOL0     H32667   5.183   5.886   5.210 -1.0053 -0.1445  0.0791
  237MOL0     H32668   4.624   5.919   5.734 -0.4976  1.8915 -0.8343
  237MOL0     H32669   4.423   5.762   5.783 -3.2924 -2.1476 -3.6771
  237MOL0     H32670   4.131   5.721   5.492  0.7312  0.9763  0.6331
  237MOL0     H32671   4.194   5.564   5.444 -1.4516 -1.9417 -1.5074
  237MOL0     H32672   4.019   5.593   5.685  2.0524  1.9685 -0.2406
  237MOL0     H32673   3.980   5.568   5.505  2.7446 -1.3300 -2.9344
  237MOL0     H32674   4.168   5.388   5.663 -0.6618 -1.0087  0.6526
  237MOL0     H32675   4.069   5.349   5.515  0.1308 -1.2442  0.4086
  237MOL0     H32676   3.856   5.368   5.649 -1.2255 -2.2147  1.3084
  237MOL0     H32677   3.957   5.395   5.788  2.6818 -4.2410  2.6891
  237MOL0     H32678   3.888   5.156   5.759 -2.0503  0.2122 -2.3515
  237MOL0     H32679   4.013   5.138   5.635  0.7034 -2.5522  2.8742
  237MOL0     H32680   4.189   5.208   5.769  0.6195 -2.4513 -0.0890
  237MOL0     H32681   4.120   5.069   5.837  1.5527 -0.5184  1.0664
  237MOL0     H32682   4.060   5.349   5.946 -3.1077 -0.5578  1.0918
  237MOL0     H32683   4.182   5.235   6.018  1.2713 -1.4597  0.1424
  237MOL0     H32684   3.989   5.203   6.147 -1.5604 -1.9568  0.1400
  237MOL0     H32685   3.970   5.079   6.024 -1.3819 -0.8884  0.2001
  237MOL0     H32686   4.368   5.688   5.379  0.6646 -0.8448 -1.0143
  237MOL0     H32687   4.574   5.829   5.324  1.0528  2.5295  2.0147
  237MOL0     H32688   4.794   6.177   5.464 -0.9638 -0.7785 -0.8768
  237MOL0     H32689   4.954   6.371   5.427  0.0552 -1.4590  1.9055
  237MOL0     H32690   6.522   6.282   5.872 -1.0194 -0.5380  2.3809
  237MOL0     H32691   6.613   6.258   6.102 -0.6498  0.8430 -0.1400
  237MOL0     H32692   6.916   6.149   6.378  1.3187  0.9969  2.6766
  237MOL0     H32693   7.003   6.114   6.590 -0.6220  1.8687 -0.9504
  237MOL0     H32694   7.088   6.027   6.798 -0.7663  0.7920 -1.8326
  237MOL0     H32695   6.996   6.167   6.824  1.4396 -0.5419 -1.6209
  237MOL0     H32696   6.918   6.080   7.046  1.2963  2.7001  1.0636
  237MOL0     H32697   7.093   6.119   7.036 -0.3043  0.8411 -1.7792
  237MOL0     H32698   7.068   5.897   7.169 -0.7011  0.8930  1.1479
  237MOL0     H32699   6.956   5.842   7.057 -0.9629  1.6977  0.1725
  237MOL0     H32700   7.126   5.826   6.886 -1.1572  1.1240 -0.6127
  237MOL0     H32701   7.170   5.730   7.029  6.3391  1.4057 -0.5845
  237MOL0     H32702   7.488   5.988   7.003  0.7219  0.9767 -1.0033
  237MOL0     H32703   6.667   5.876   6.708 -0.4400 -0.4433 -0.4964
  237MOL0     H32704   6.464   5.895   6.423 -0.0918 -2.8913 -2.7424
  237MOL0     H32705   6.588   5.768   6.403  0.0126  2.5069 -3.0533
  237MOL0     H32706   6.516   5.792   6.558  0.6976 -0.0545  0.7788
  238MOL0     O32707  11.350   5.944   1.310 -0.3963 -0.0577  0.4509
  238MOL0     C32708  11.398   5.888   1.208  0.2425  0.3260  0.2573
  238MOL0     O32709  11.359   5.916   1.086 -0.2988 -0.8689 -0.4976
  238MOL0     C32710  11.251   5.997   1.073 -0.0439  0.0149  0.6451
  238MOL0     C32711  11.251   6.132   1.052  0.0807  0.4847  0.5030
  238MOL0     C32712  11.133   6.211   1.031 -0.3694 -0.4096 -0.0973
  238MOL0     C32713  11.013   6.146   1.028  1.3957  0.0629 -0.6740
  238MOL0     O32714  10.900   6.226   1.037 -0.5728  0.5859  0.2813
  238MOL0     C32715  10.772   6.159   1.007 -0.5074  0.0112 -0.0340
  238MOL0     C32716  10.666   6.268   0.977  0.0994  0.3307 -0.6236
  238MOL0     C32717  10.619   6.274   0.834  0.3815 -0.8135 -0.3191
  238MOL0     C32718  10.535   6.149   0.802 -0.7509  0.0909 -0.0464
  238MOL0     C32719  10.481   6.160   0.656 -0.3945  1.6253 -0.8423
  238MOL0     C32720  10.348   6.230   0.648  0.0613  0.6790  0.5772
  238MOL0     C32721  10.300   6.241   0.502 -0.8070  0.3806  0.1358
  238MOL0     C32722  10.173   6.326   0.487  0.3531 -0.5405 -0.4415
  238MOL0     N32723  10.114   6.317   0.352  0.0745  0.1166  0.3501
  238MOL0     C32724  10.182   6.322   0.228 -0.1316 -1.0653  0.3058
  238MOL0     C32725  10.094   6.336   0.133  0.0426  0.9486 -0.1718
  238MOL0     C32726  10.118   6.366  -0.006  0.7033  0.0945 -0.6166
  238MOL0     C32727   9.999   6.443  -0.067  0.3098 -0.4178 -0.4138
  238MOL0     C32728   9.996   6.591  -0.039  0.0130  1.1402  0.2248
  238MOL0     C32729   9.872   6.667  -0.098  0.3847  0.1867  0.1127
  238MOL0     O32730   9.753   6.584  -0.084 -0.8401  0.5351 -1.0239
  238MOL0     C32731   9.637   6.640  -0.093 -0.1188 -0.3541  0.2865
  238MOL0     C32732   9.611   6.776  -0.136  0.3482 -0.0858  0.3394
  238MOL0     C32733   9.482   6.840  -0.133 -0.0555  0.8141  0.0147
  238MOL0     C32734   9.462   6.978  -0.180  0.3745  0.0014  1.1606
  238MOL0     C32735   9.376   6.761  -0.092 -1.0759  0.2993  0.3042
  238MOL0     C32736   9.238   6.811  -0.067  0.0067  0.3839  0.3576
  238MOL0     O32737   9.133   6.737  -0.107 -0.0422  0.6663  0.6670
  238MOL0     C32738   9.012   6.763  -0.052  0.3838  0.9279 -0.2621
  238MOL0     C32739   8.898   6.774  -0.131 -0.1324  0.3237  0.0335
  238MOL0     C32740   8.774   6.798  -0.078  0.0374 -0.1669 -0.4269
  238MOL0     C32741   8.754   6.812   0.062  0.4945  0.0119 -0.6840
  238MOL0     O32742   8.630   6.854   0.111 -0.2716 -0.2342 -0.0540
  238MOL0     C32743   8.647   6.991   0.116  0.3340 -0.3253  0.2968
  238MOL0     C32744   8.504   7.049   0.150 -0.3602  0.1141 -0.0799
  238MOL0     C32745   8.474   7.020   0.297 -0.5199 -0.0961  0.8278
  238MOL0     C32746   8.329   7.039   0.320 -0.0589 -0.0475  1.1144
  238MOL0     C32747   8.314   7.035   0.484 -0.9836 -0.1651  0.1241
  238MOL0     C32748   8.369   7.153   0.560 -0.5025 -0.5284  0.9046
  238MOL0     C32749   8.329   7.154   0.711  0.3929  0.6566  0.0836
  238MOL0     C32750   8.433   7.230   0.799  0.4868  0.0243 -0.7717
  238MOL0    Cl32751   8.382   7.239   0.969 -0.2970 -0.3777  0.1907
  238MOL0     C32752   8.862   6.793   0.147 -0.7230  0.2065  0.8112
  238MOL0     C32753   8.991   6.772   0.087  0.3027 -0.5927 -0.5467
  238MOL0     O32754   9.225   6.916  -0.012 -0.1188 -0.3333 -0.5019
  238MOL0     C32755   9.395   6.622  -0.069  1.4316  0.0196  0.5468
  238MOL0     C32756   9.523   6.563  -0.079  0.5945 -0.0208  0.5879
  238MOL0     N32757   9.962   6.324   0.186  0.8326  0.4441 -0.5756
  238MOL0     N32758   9.975   6.314   0.318 -0.0128 -0.1098 -0.1489
  238MOL0     C32759  11.009   6.003   1.033  1.2300 -0.2340 -0.1864
  238MOL0     C32760  11.128   5.932   1.060  0.2275  0.3138  0.0441
  238MOL0     C32761  11.511   5.795   1.226  0.2150 -0.3255  0.4756
  238MOL0     C32762  11.600   5.837   1.326  0.0255 -0.1004 -0.0793
  238MOL0     C32763  11.714   5.757   1.351  0.3463  0.5689  0.0891
  238MOL0     C32764  11.743   5.648   1.268 -0.7106  0.1179 -0.6953
  238MOL0     O32765  11.853   5.567   1.288  0.1049  0.8869 -0.8623
  238MOL0     C32766  11.861   5.510   1.418 -0.3416  1.2833 -0.4058
  238MOL0     C32767  11.987   5.410   1.426 -0.2998  0.6989 -0.6695
  238MOL0     C32768  12.001   5.289   1.339  0.7392  1.9769  0.6291
  238MOL0     C32769  11.877   5.206   1.328  0.8234  0.1532  0.4957
  238MOL0     C32770  11.820   5.135   1.442  0.5304  0.6340 -0.2432
  238MOL0     C32771  11.770   5.079   1.539  0.2166 -0.5045 -0.3356
  238MOL0     C32772  11.668   5.618   1.156 -0.6437  0.3616 -0.6651
  238MOL0     C32773  11.546   5.691   1.137 -0.3049  0.3928 -0.2766
  238MOL0     C32774  11.453   5.635   1.025 -0.5389 -0.4683 -1.1930
  238MOL0     H32775  11.351   6.173   1.042  0.1923 -0.2120 -2.0421
  238MOL0     H32776  11.132   6.319   1.017  1.0225 -0.3296  0.2192
  238MOL0     H32777  10.743   6.103   1.097  0.2940  0.3389  0.4408
  238MOL0     H32778  10.785   6.086   0.926 -0.8603 -1.7955  1.4731
  238MOL0     H32779  10.590   6.225   1.043  2.1374 -2.5032  0.0662
  238MOL0     H32780  10.685   6.372   1.007  0.1325 -0.1113  0.9763
  238MOL0     H32781  10.562   6.367   0.825  1.4623 -0.3037 -2.7794
  238MOL0     H32782  10.699   6.273   0.759 -0.3283 -1.0965 -1.0884
  238MOL0     H32783  10.608   6.068   0.796  0.1889  0.9378 -0.3006
  238MOL0     H32784  10.472   6.124   0.889  0.2574  3.0711  1.7015
  238MOL0     H32785  10.482   6.058   0.616  1.8561  1.9384 -1.7354
  238MOL0     H32786  10.557   6.203   0.589  1.0689 -1.9264 -1.6981
  238MOL0     H32787  10.273   6.171   0.701  1.7934 -0.8322  1.4444
  238MOL0     H32788  10.359   6.331   0.688  0.9869  1.0793 -0.6185
  238MOL0     H32789  10.286   6.141   0.462  2.0131  0.6701 -1.8851
  238MOL0     H32790  10.375   6.285   0.436 -1.4474  1.2025 -0.0628
  238MOL0     H32791  10.096   6.300   0.560 -0.1055  0.4704 -0.5542
  238MOL0     H32792  10.186   6.432   0.509  3.9057 -0.4235 -2.2971
  238MOL0     H32793  10.291   6.326   0.224 -0.1383 -1.8232 -1.3519
  238MOL0     H32794  10.123   6.269  -0.057 -0.8467 -0.0153 -0.6164
  238MOL0     H32795  10.214   6.418  -0.008 -0.0369  1.6665  1.2867
  238MOL0     H32796   9.990   6.438  -0.176 -0.6949 -0.8612 -0.3254
  238MOL0     H32797   9.903   6.408  -0.028 -0.8803  2.2401 -0.7286
  238MOL0     H32798   9.991   6.609   0.069 -0.3682 -2.0797  0.8492
  238MOL0     H32799  10.090   6.627  -0.079  0.8023 -0.3524  0.6467
  238MOL0     H32800   9.879   6.764  -0.048  0.3692 -0.7028  1.9376
  238MOL0     H32801   9.891   6.681  -0.205  0.9726  1.2608  0.3404
  238MOL0     H32802   9.695   6.835  -0.171 -1.4901  1.5726 -1.6574
  238MOL0     H32803   9.545   7.025  -0.233 -0.6308  1.1466  0.5538
  238MOL0     H32804   9.448   7.033  -0.087  0.0613 -1.5179  2.0471
  238MOL0     H32805   9.376   6.976  -0.248  3.3930 -1.9264 -3.1140
  238MOL0     H32806   8.921   6.756  -0.236 -0.6018 -2.6638  0.3768
  238MOL0     H32807   8.677   6.800  -0.126 -0.6865  0.0866  0.9842
  238MOL0     H32808   8.719   7.030   0.190  0.0816  0.3652  0.1926
  238MOL0     H32809   8.675   7.035   0.020 -1.6140 -0.7812 -0.5197
  238MOL0     H32810   8.512   7.158   0.142  0.3686 -0.0737 -3.6122
  238MOL0     H32811   8.435   6.997   0.083  1.7627 -2.1065 -0.6885
  238MOL0     H32812   8.541   7.080   0.360  1.4227 -2.1814  0.8635
  238MOL0     H32813   8.497   6.917   0.326 -2.5293 -1.1003 -0.9052
  238MOL0     H32814   8.266   6.961   0.275 -1.3091  1.3505  0.3473
  238MOL0     H32815   8.294   7.134   0.278  0.6091  2.1180  4.9976
  238MOL0     H32816   8.208   7.019   0.508 -1.5755  3.9323  0.8474
  238MOL0     H32817   8.372   6.947   0.514 -0.3817  0.2564  0.1990
  238MOL0     H32818   8.339   7.249   0.516  1.7133  1.6059  3.6945
  238MOL0     H32819   8.478   7.153   0.566 -0.1549  2.7377 -1.8550
  238MOL0     H32820   8.333   7.052   0.751 -1.8188  1.2421  2.0080
  238MOL0     H32821   8.234   7.203   0.734 -0.5075 -0.6104 -0.8357
  238MOL0     H32822   8.449   7.332   0.764 -0.9414  2.3011  4.3215
  238MOL0     H32823   8.534   7.192   0.782  0.4694 -0.0644 -0.6822
  238MOL0     H32824   8.851   6.803   0.254 -0.9026 -1.1126  0.9386
  238MOL0     H32825   9.067   6.753   0.162 -2.2860 -2.7730  1.7249
  238MOL0     H32826   9.304   6.567  -0.045  0.1269  0.8749 -2.0298
  238MOL0     H32827   9.535   6.457  -0.060  0.7361 -0.1598 -0.2483
  238MOL0     H32828  10.913   5.952   1.032 -1.5909  4.3657  2.0532
  238MOL0     H32829  11.126   5.824   1.067  1.4652  0.1629 -1.4071
  238MOL0     H32830  11.590   5.920   1.395 -1.9829 -1.3068  1.1862
  238MOL0     H32831  11.770   5.770   1.443  0.2933  1.6109 -0.0121
  238MOL0     H32832  11.851   5.582   1.501  0.0026  0.4480  0.3780
  238MOL0     H32833  11.774   5.446   1.434  0.8803 -0.2687  0.4093
  238MOL0     H32834  11.999   5.366   1.525  3.3197  2.0147 -0.3986
  238MOL0     H32835  12.079   5.470   1.424 -1.0725  1.9037 -1.9519
  238MOL0     H32836  12.048   5.313   1.243  1.4605 -1.4309  0.0063
  238MOL0     H32837  12.078   5.221   1.377  0.9574 -0.4244 -3.5148
  238MOL0     H32838  11.906   5.133   1.253  1.6054 -1.3158  2.1472
  238MOL0     H32839  11.792   5.268   1.298  0.5507 -0.1945  0.5492
  238MOL0     H32840  11.715   5.045   1.625 -1.0775 -1.1012 -1.3635
  238MOL0     H32841  11.691   5.528   1.101  2.4514  1.1539 -0.8562
  238MOL0     H32842  11.349   5.667   1.034 -0.9890 -1.3435 -2.7885
  238MOL0     H32843  11.495   5.647   0.924  1.7555 -3.9796 -0.8149
  238MOL0     H32844  11.443   5.527   1.038 -0.0667 -0.6226 -2.0067
  239MOL0     O32845   7.400   7.135   6.823  0.6108 -0.4557 -0.3462
  239MOL0     C32846   7.350   7.156   6.930 -0.0733  0.6170 -1.1575
  239MOL0     O32847   7.410   7.221   7.042  0.0847 -0.4475  0.3943
  239MOL0     C32848   7.539   7.272   7.038 -1.3003  0.5739  0.4368
  239MOL0     C32849   7.597   7.343   6.931 -0.4000 -0.3171 -0.1528
  239MOL0     C32850   7.711   7.421   6.958  1.1957  0.7487  0.6566
  239MOL0     C32851   7.784   7.401   7.080  0.7495  0.0205 -0.3238
  239MOL0     O32852   7.908   7.456   7.105  0.1151  0.3929  0.0270
  239MOL0     C32853   8.014   7.387   7.045  0.1457  0.1039  0.1469
  239MOL0     C32854   8.139   7.427   7.118  0.3713  0.3066  0.0016
  239MOL0     C32855   8.153   7.380   7.259 -0.0732 -1.1714 -1.0354
  239MOL0     C32856   8.294   7.394   7.315 -0.0594  0.2097  0.4153
  239MOL0     C32857   8.315   7.348   7.467  0.4658  0.2604 -0.1830
  239MOL0     C32858   8.464   7.371   7.518  0.9034 -0.2086  1.1484
  239MOL0     C32859   8.473   7.308   7.662 -0.6938  0.9025 -0.3173
  239MOL0     C32860   8.563   7.390   7.751  0.4124 -0.0156 -0.5921
  239MOL0     N32861   8.555   7.345   7.892  0.5232  0.3122 -0.1468
  239MOL0     C32862   8.658   7.270   7.949 -0.0324  0.3637 -0.8137
  239MOL0     C32863   8.614   7.256   8.079 -0.2802 -0.9652 -0.1302
  239MOL0     C32864   8.660   7.163   8.189 -0.3615  0.1893 -0.3095
  239MOL0     C32865   8.761   7.261   8.264 -0.1186 -0.2507 -0.1320
  239MOL0     C32866   8.815   7.201   8.395  1.0679 -0.0498  0.2633
  239MOL0     C32867   8.931   7.279   8.458  0.6623  0.6527  0.3956
  239MOL0     O32868   9.014   7.305   8.341  0.0028 -0.1237 -0.5729
  239MOL0     C32869   9.135   7.248   8.327  1.0165 -0.6914 -0.4129
  239MOL0     C32870   9.200   7.277   8.204  0.1159  0.3603 -1.0813
  239MOL0     C32871   9.314   7.206   8.161  0.6078  0.1666  0.9858
  239MOL0     C32872   9.357   7.229   8.019 -0.0100 -0.5823  0.8260
  239MOL0     C32873   9.368   7.110   8.245 -0.4517  0.1770 -0.7562
  239MOL0     C32874   9.497   7.024   8.212  0.0624 -1.3438 -0.4480
  239MOL0     O32875   9.571   7.054   8.096  0.0683  0.2652  0.8319
  239MOL0     C32876   9.676   6.976   8.053  0.4538 -0.2159  0.8263
  239MOL0     C32877   9.796   6.983   8.122 -0.0017  0.7584 -0.6405
  239MOL0     C32878   9.895   6.889   8.109 -0.2538  0.6842  0.8146
  239MOL0     C32879   9.890   6.794   8.001  0.5214 -0.0881 -0.3028
  239MOL0     O32880   9.978   6.688   7.982  0.5112  0.6032 -0.0970
  239MOL0     C32881   9.927   6.559   8.003 -0.5085 -0.4193  0.4609
  239MOL0     C32882   9.977   6.459   7.905  1.1895  0.7182  0.4268
  239MOL0     C32883  10.125   6.452   7.886  0.2895 -0.3310 -0.9774
  239MOL0     C32884  10.169   6.376   7.756  0.8415  0.0901  1.0337
  239MOL0     C32885  10.313   6.404   7.703 -1.1030  0.4116  0.5133
  239MOL0     C32886  10.350   6.345   7.561  0.1141  0.6644 -1.0298
  239MOL0     C32887  10.333   6.187   7.565 -0.5092  0.3440 -0.6037
  239MOL0     C32888  10.448   6.124   7.500  1.2115 -0.2819  0.7718
  239MOL0    Cl32889  10.598   6.140   7.596  0.3346  0.1420 -0.1007
  239MOL0     C32890   9.777   6.808   7.913  0.3557  0.4364 -0.4315
  239MOL0     C32891   9.666   6.883   7.947  0.4827  0.1702 -0.2528
  239MOL0     O32892   9.525   6.934   8.291 -0.6895  0.1397 -0.7281
  239MOL0     C32893   9.297   7.076   8.362 -0.0418 -0.4069 -0.1626
  239MOL0     C32894   9.188   7.145   8.405  0.3038  0.1561 -0.0389
  239MOL0     N32895   8.497   7.327   8.096  0.0386 -0.1724  0.9417
  239MOL0     N32896   8.463   7.378   7.979 -0.4869  0.2478 -0.2523
  239MOL0     C32897   7.738   7.317   7.175  0.2798 -0.4557  0.1553
  239MOL0     C32898   7.610   7.262   7.165 -0.1309  0.1144  0.3530
  239MOL0     C32899   7.218   7.098   6.948  0.2810 -0.0128 -0.1057
  239MOL0     C32900   7.119   7.135   6.842 -0.6043 -0.0624 -0.2709
  239MOL0     C32901   6.998   7.067   6.828 -0.0524 -0.0274  0.2670
  239MOL0     C32902   6.972   6.956   6.900 -0.0708 -0.2361 -1.0069
  239MOL0     O32903   6.851   6.889   6.871 -0.4527  0.5290  0.4270
  239MOL0     C32904   6.867   6.763   6.812  0.2139 -0.2230  0.3027
  239MOL0     C32905   6.723   6.698   6.820  0.5566 -0.2197  0.7594
  239MOL0     C32906   6.601   6.781   6.764  0.1618  0.5124  0.3035
  239MOL0     C32907   6.474   6.704   6.742  0.4938 -0.2590  0.1688
  239MOL0     C32908   6.463   6.601   6.849 -0.0534  0.2128  0.2697
  239MOL0     C32909   6.458   6.531   6.941 -0.1102 -0.3193  0.7382
  239MOL0     C32910   7.069   6.909   6.990  0.0308 -0.5526  0.2057
  239MOL0     C32911   7.190   6.982   7.020 -0.2137 -0.3516  0.3031
  239MOL0     C32912   7.295   6.909   7.099 -0.8284  0.5283  0.1502
  239MOL0     H32913   7.544   7.345   6.836  0.6154 -1.4118 -0.7656
  239MOL0     H32914   7.761   7.489   6.889  0.5136 -2.5829 -3.5943
  239MOL0     H32915   8.014   7.404   6.937  0.4243  1.1885  0.3104
  239MOL0     H32916   8.017   7.278   7.060 -2.3431 -0.3847 -2.0735
  239MOL0     H32917   8.216   7.392   7.050 -0.6263  0.5022 -1.2787
  239MOL0     H32918   8.144   7.536   7.119  1.9192  0.3029 -1.7997
  239MOL0     H32919   8.075   7.430   7.317 -0.9310 -0.0018 -3.0821
  239MOL0     H32920   8.132   7.273   7.254 -1.9336 -0.8950  0.0219
  239MOL0     H32921   8.356   7.337   7.245 -0.9093  2.3021 -2.2196
  239MOL0     H32922   8.334   7.495   7.300  0.3094  0.2129  1.3707
  239MOL0     H32923   8.300   7.240   7.477  1.7605 -0.2728 -3.0208
  239MOL0     H32924   8.255   7.401   7.541 -1.5727  0.7260 -2.0715
  239MOL0     H32925   8.547   7.317   7.471  0.2918 -2.9073  2.9811
  239MOL0     H32926   8.493   7.475   7.498 -2.2124  0.5178 -0.0755
  239MOL0     H32927   8.503   7.203   7.657  1.7896  1.6071 -2.6687
  239MOL0     H32928   8.376   7.311   7.712  0.1404 -0.4106  1.4716
  239MOL0     H32929   8.665   7.377   7.716  0.1757 -0.9383 -0.9450
  239MOL0     H32930   8.547   7.498   7.748  1.5352  0.2731  1.4454
  239MOL0     H32931   8.752   7.239   7.904  0.5699  0.5332  0.3066
  239MOL0     H32932   8.703   7.076   8.138  1.5608  0.6270  0.4629
  239MOL0     H32933   8.568   7.137   8.242  0.5810 -0.6928  0.9870
  239MOL0     H32934   8.847   7.255   8.196  1.7910  0.0782  2.1378
  239MOL0     H32935   8.719   7.359   8.287  2.7635  0.3263  3.6849
  239MOL0     H32936   8.722   7.210   8.452  1.3153 -2.3001  1.0979
  239MOL0     H32937   8.841   7.095   8.393  0.8340 -0.1308 -2.1203
  239MOL0     H32938   8.897   7.375   8.498 -1.0616 -0.0248  0.6691
  239MOL0     H32939   8.970   7.215   8.538 -0.4584 -0.2191  0.2691
  239MOL0     H32940   9.151   7.349   8.139  0.2140  0.7425 -0.7367
  239MOL0     H32941   9.357   7.136   7.962 -0.9431 -0.2246  0.2015
  239MOL0     H32942   9.450   7.287   8.015  0.4493 -1.1462  2.3564
  239MOL0     H32943   9.284   7.283   7.958  2.5891  0.6992 -1.3543
  239MOL0     H32944   9.806   7.067   8.189 -0.2834  1.3002 -1.2709
  239MOL0     H32945   9.985   6.894   8.170  0.9686  2.4456 -1.0246
  239MOL0     H32946   9.947   6.532   8.107 -1.5330  1.7622  1.2850
  239MOL0     H32947   9.818   6.565   7.996 -0.6192 -0.3724  1.9424
  239MOL0     H32948   9.944   6.358   7.929  2.4312 -0.1895 -1.4971
  239MOL0     H32949   9.923   6.478   7.812 -2.3829  0.5309  2.2855
  239MOL0     H32950  10.172   6.399   7.969  0.9123  1.5217 -0.0814
  239MOL0     H32951  10.171   6.550   7.870  0.4088 -0.6069 -2.4723
  239MOL0     H32952  10.098   6.398   7.676  1.6503  1.0022  0.5486
  239MOL0     H32953  10.172   6.268   7.774  0.2350 -0.6414 -2.4467
  239MOL0     H32954  10.321   6.513   7.705 -0.4953  0.3632  1.7608
  239MOL0     H32955  10.385   6.365   7.775  0.1906 -0.6836 -1.3117
  239MOL0     H32956  10.454   6.366   7.536  1.2536 -1.2285  1.6768
  239MOL0     H32957  10.288   6.392   7.484  1.2325  0.0922 -2.3035
  239MOL0     H32958  10.243   6.149   7.516 -0.4348 -0.0879 -0.4061
  239MOL0     H32959  10.339   6.143   7.665  1.0230  0.4605 -0.6116
  239MOL0     H32960  10.465   6.168   7.402 -1.0100  0.3769  0.6253
  239MOL0     H32961  10.418   6.019   7.492 -2.4692  0.7627 -1.2835
  239MOL0     H32962   9.773   6.741   7.827  0.7637 -1.0938  0.7165
  239MOL0     H32963   9.580   6.872   7.881  0.6296 -1.6572 -0.1867
  239MOL0     H32964   9.336   6.989   8.414  0.8686 -0.2546 -0.5618
  239MOL0     H32965   9.146   7.109   8.497 -1.5355  0.0448 -0.8870
  239MOL0     H32966   7.786   7.297   7.271 -2.4633 -4.2617  0.9787
  239MOL0     H32967   7.554   7.208   7.241  0.4517  2.6190  2.7105
  239MOL0     H32968   7.149   7.210   6.769 -1.8222  1.2506  0.5180
  239MOL0     H32969   6.921   7.100   6.759  2.8380  1.4334 -2.5219
  239MOL0     H32970   6.896   6.759   6.707 -0.5270 -1.0979  0.1238
  239MOL0     H32971   6.936   6.692   6.858 -0.1885 -1.3940 -0.8627
  239MOL0     H32972   6.715   6.674   6.927  0.4540 -1.2781  0.5188
  239MOL0     H32973   6.725   6.600   6.772 -1.6366  0.3744 -0.6778
  239MOL0     H32974   6.577   6.860   6.835  2.5289  1.7371 -0.1260
  239MOL0     H32975   6.633   6.840   6.677  0.1242  0.0015 -0.0620
  239MOL0     H32976   6.481   6.660   6.642  2.5193  1.1076 -0.3488
  239MOL0     H32977   6.388   6.770   6.753  0.6238  0.1815 -1.2574
  239MOL0     H32978   6.450   6.476   7.032  0.3951  0.8886  1.5341
  239MOL0     H32979   7.055   6.812   7.037  0.3588 -1.9900 -2.4935
  239MOL0     H32980   7.289   6.947   7.201 -2.2441 -2.3213  1.2492
  239MOL0     H32981   7.262   6.805   7.105 -2.1601  0.7392 -2.1015
  239MOL0     H32982   7.393   6.923   7.052 -0.4577 -0.6987  0.5269
  240MOL0     O32983   2.757   4.953   0.173 -0.0628 -0.5174 -0.6178
  240MOL0     C32984   2.821   4.998   0.078  0.2347 -0.3434 -0.2046
  240MOL0     O32985   2.780   5.110  -0.003  0.2947  0.6856 -0.5091
  240MOL0     C32986   2.658   5.152   0.029 -0.3261  0.4264 -0.2846
  240MOL0     C32987   2.552   5.103  -0.051 -0.0202  0.1654 -1.8037
  240MOL0     C32988   2.418   5.149  -0.029 -0.7008  0.5388  0.0539
  240MOL0     C32989   2.392   5.238   0.069  1.9334 -0.1186  0.4443
  240MOL0     O32990   2.272   5.303   0.079  0.4343 -0.4558  0.0926
  240MOL0     C32991   2.301   5.429   0.006  0.6423 -0.0251  0.2429
  240MOL0     C32992   2.164   5.495  -0.007 -0.2022  0.6290 -0.1956
  240MOL0     C32993   2.186   5.633  -0.084 -0.7369 -0.7976 -0.3398
  240MOL0     C32994   2.226   5.751  -0.004  0.1586 -0.4653  0.2444
  240MOL0     C32995   2.261   5.868  -0.085  0.0280 -0.5381 -0.2555
  240MOL0     C32996   2.246   5.995  -0.009 -0.2369 -0.9871  0.1989
  240MOL0     C32997   2.290   6.115  -0.098  0.8970  0.6754 -0.5797
  240MOL0     C32998   2.347   6.228  -0.012  0.0827 -0.9124  0.4156
  240MOL0     N32999   2.246   6.275   0.091 -0.0766  0.5753 -0.0897
  240MOL0     C33000   2.137   6.355   0.067  1.0788  0.4079  0.1021
  240MOL0     C33001   2.067   6.336   0.183  0.3172  0.7146  0.4998
  240MOL0     C33002   1.942   6.397   0.221  0.4740  0.4147 -0.0942
  240MOL0     C33003   1.957   6.544   0.248  0.7170  0.2543 -0.8048
  240MOL0     C33004   1.813   6.597   0.305  0.7491  0.0001 -0.2155
  240MOL0     C33005   1.826   6.743   0.336  0.7326  0.0610  0.4456
  240MOL0     O33006   1.728   6.792   0.429  0.2868 -0.9657 -0.1558
  240MOL0     C33007   1.694   6.929   0.432  1.4829 -0.8938  0.0517
  240MOL0     C33008   1.579   6.969   0.503  0.2829  0.5223 -0.8250
  240MOL0     C33009   1.548   7.104   0.519  0.6324 -0.4207  1.6038
  240MOL0     C33010   1.415   7.120   0.572  0.0711  0.0884  0.2805
  240MOL0     C33011   1.622   7.206   0.467 -0.6077 -1.2646  0.9737
  240MOL0     C33012   1.612   7.355   0.496  0.3041  0.2894  0.0826
  240MOL0     O33013   1.699   7.451   0.429 -0.7048 -0.0802  0.3051
  240MOL0     C33014   1.664   7.585   0.445 -0.0726  0.8436 -0.0444
  240MOL0     C33015   1.747   7.691   0.490 -0.2929  0.4295  1.0537
  240MOL0     C33016   1.713   7.823   0.479  0.2298 -0.4197  0.2411
  240MOL0     C33017   1.576   7.857   0.452 -0.0552  0.2940 -0.1305
  240MOL0     O33018   1.522   7.977   0.439 -0.3348  0.8705  0.2622
  240MOL0     C33019   1.597   8.065   0.357 -0.5814  0.0994 -0.3073
  240MOL0     C33020   1.549   8.207   0.350  0.0184  1.5992  0.4932
  240MOL0     C33021   1.404   8.217   0.342  0.3003 -0.0486 -0.0213
  240MOL0     C33022   1.364   8.371   0.331  0.5429  0.4200 -0.2531
  240MOL0     C33023   1.213   8.384   0.343 -0.0814  0.6631 -0.5225
  240MOL0     C33024   1.160   8.517   0.313 -0.1423 -0.3113 -0.2165
  240MOL0     C33025   1.009   8.519   0.347 -0.6350 -0.2702 -0.1265
  240MOL0     C33026   0.933   8.642   0.290  0.7808  0.4387 -0.7108
  240MOL0    Cl33027   0.913   8.640   0.109  0.2884 -0.2773  0.4961
  240MOL0     C33028   1.500   7.754   0.399 -0.4706 -0.3332  0.0025
  240MOL0     C33029   1.539   7.626   0.399  0.2102  0.6951  0.4566
  240MOL0     O33030   1.525   7.383   0.577  0.1313 -0.5693 -0.5042
  240MOL0     C33031   1.741   7.166   0.404 -1.0140  0.4134 -0.0934
  240MOL0     C33032   1.774   7.034   0.375  0.0079  1.1316 -0.4875
  240MOL0     N33033   2.137   6.257   0.270 -0.3359 -0.4836  0.6368
  240MOL0     N33034   2.248   6.228   0.220 -0.7504  0.3176  0.1767
  240MOL0     C33035   2.498   5.281   0.146 -0.5564  0.7181 -0.4259
  240MOL0     C33036   2.629   5.239   0.126 -1.1188 -0.5349 -0.3080
  240MOL0     C33037   2.944   4.929   0.031  0.5297  0.2215 -0.1030
  240MOL0     C33038   3.027   5.006  -0.055 -0.3150 -0.6022 -0.7817
  240MOL0     C33039   3.150   4.959  -0.109  0.5662 -0.5098  0.2690
  240MOL0     C33040   3.194   4.833  -0.084  0.1039  1.4671 -0.1042
  240MOL0     O33041   3.305   4.778  -0.144 -0.6144  0.0810  0.4082
  240MOL0     C33042   3.418   4.729  -0.070 -0.2754  0.8072  0.5521
  240MOL0     C33043   3.474   4.812   0.037  0.4574 -0.3487 -0.5992
  240MOL0     C33044   3.630   4.817   0.034 -0.6079 -0.3225 -0.6145
  240MOL0     C33045   3.685   4.891  -0.087  0.1304 -0.5518  0.8954
  240MOL0     C33046   3.827   4.921  -0.069 -0.0460 -0.4707  0.0210
  240MOL0     C33047   3.939   4.955  -0.052  0.0349  0.3247  0.0150
  240MOL0     C33048   3.116   4.759   0.001 -0.4526 -0.1067  0.0454
  240MOL0     C33049   2.996   4.805   0.070 -0.2702 -0.3719  0.3610
  240MOL0     C33050   2.952   4.714   0.178 -0.1117 -0.0757 -0.4088
  240MOL0     H33051   2.582   5.031  -0.126  0.6478 -1.9681  0.3751
  240MOL0     H33052   2.348   5.118  -0.106 -0.4866  4.1441 -1.8126
  240MOL0     H33053   2.366   5.409  -0.080  1.4576 -4.3474  1.6249
  240MOL0     H33054   2.351   5.501   0.071 -2.6136  1.0855  1.7110
  240MOL0     H33055   2.088   5.435  -0.059 -1.8425  3.6884 -1.6256
  240MOL0     H33056   2.128   5.523   0.092 -0.6054 -1.5904  0.3450
  240MOL0     H33057   2.254   5.617  -0.168 -1.1908 -1.6595 -0.5556
  240MOL0     H33058   2.088   5.666  -0.120 -0.1769  0.8849 -0.3784
  240MOL0     H33059   2.140   5.769   0.062 -0.1152 -0.6464 -0.0593
  240MOL0     H33060   2.313   5.731   0.059  0.8706 -0.5179 -0.7449
  240MOL0     H33061   2.208   5.878  -0.180  0.2896  1.6086 -0.2295
  240MOL0     H33062   2.368   5.855  -0.102 -0.2835 -1.4965 -1.5962
  240MOL0     H33063   2.147   6.018   0.030 -0.0217 -2.7103  1.9122
  240MOL0     H33064   2.308   5.982   0.081 -2.6378 -1.0362  1.9375
  240MOL0     H33065   2.196   6.152  -0.139  0.7988 -0.0694 -1.0421
  240MOL0     H33066   2.352   6.081  -0.182 -2.1458 -4.3830 -1.1753
  240MOL0     H33067   2.439   6.204   0.042  3.2445  3.4872 -2.3698
  240MOL0     H33068   2.361   6.314  -0.078 -3.1246 -1.8673 -1.7150
  240MOL0     H33069   2.121   6.426  -0.013  2.3277  0.4332 -0.1458
  240MOL0     H33070   1.903   6.345   0.308  0.9620 -0.6896 -0.5259
  240MOL0     H33071   1.877   6.382   0.134 -1.4129  0.5339  1.2317
  240MOL0     H33072   2.035   6.554   0.324 -1.0068  2.1537  0.8022
  240MOL0     H33073   1.996   6.586   0.154  1.8731 -3.4773 -2.2134
  240MOL0     H33074   1.723   6.575   0.246  0.7357 -1.4720  0.3004
  240MOL0     H33075   1.797   6.549   0.402 -0.5785  0.5796 -0.1280
  240MOL0     H33076   1.924   6.773   0.374  0.3968  2.1973 -0.2069
  240MOL0     H33077   1.803   6.785   0.237 -1.1514 -3.7911 -0.9327
  240MOL0     H33078   1.512   6.891   0.536  0.2475  1.7630  2.3301
  240MOL0     H33079   1.401   7.170   0.668 -1.3025 -2.6379  1.5945
  240MOL0     H33080   1.358   7.027   0.573  1.5669 -0.8925 -1.0180
  240MOL0     H33081   1.361   7.182   0.500  1.4146 -1.1968 -1.9488
  240MOL0     H33082   1.849   7.667   0.517 -0.6114  2.7698  5.2422
  240MOL0     H33083   1.790   7.896   0.498 -0.3685  0.8281 -1.8479
  240MOL0     H33084   1.698   8.062   0.399 -1.0763 -2.9733  0.9019
  240MOL0     H33085   1.585   8.042   0.251 -1.3147  1.6846 -0.6049
  240MOL0     H33086   1.581   8.252   0.444  2.6115 -1.2262  1.1088
  240MOL0     H33087   1.599   8.260   0.269  4.4379 -0.4197  1.6386
  240MOL0     H33088   1.345   8.171   0.421 -0.5695 -3.9296 -2.6226
  240MOL0     H33089   1.366   8.184   0.245 -2.2723 -0.9330  1.2066
  240MOL0     H33090   1.397   8.418   0.238  0.6142 -3.4484 -2.4343
  240MOL0     H33091   1.406   8.438   0.406 -1.9870 -1.0592  2.7183
  240MOL0     H33092   1.176   8.307   0.274  0.2920  0.9520 -1.0518
  240MOL0     H33093   1.185   8.340   0.440  1.9897 -0.7449 -0.4910
  240MOL0     H33094   1.180   8.548   0.210  0.6510  0.1031  0.0543
  240MOL0     H33095   1.217   8.581   0.381  0.4978 -0.8590 -0.2358
  240MOL0     H33096   1.001   8.509   0.456 -0.5831 -3.1945 -0.3039
  240MOL0     H33097   0.963   8.426   0.311  0.9944 -1.2216  0.1384
  240MOL0     H33098   0.981   8.735   0.320  0.2918  0.9727 -1.5605
  240MOL0     H33099   0.834   8.642   0.336 -0.1595  1.2685 -2.6203
  240MOL0     H33100   1.398   7.773   0.365  0.7558  1.1554 -3.2272
  240MOL0     H33101   1.475   7.549   0.356  1.2757 -0.1889  0.4276
  240MOL0     H33102   1.805   7.248   0.374 -0.5781  0.2011  0.2471
  240MOL0     H33103   1.870   7.017   0.328 -0.4245  0.5447 -1.1854
  240MOL0     H33104   2.491   5.356   0.224  1.0099 -2.4982  3.1191
  240MOL0     H33105   2.708   5.285   0.185 -1.8916  2.9661 -1.7357
  240MOL0     H33106   2.979   5.093  -0.100 -1.9520 -1.5346 -0.9290
  240MOL0     H33107   3.206   5.024  -0.176  0.3416  0.7705  1.2816
  240MOL0     H33108   3.396   4.628  -0.034  2.6649 -0.4376 -0.7658
  240MOL0     H33109   3.495   4.688  -0.137 -0.8298 -4.6669  2.7151
  240MOL0     H33110   3.455   4.750   0.125  1.9020 -3.2962 -2.2094
  240MOL0     H33111   3.436   4.915   0.047  3.0372  0.7725 -1.4991
  240MOL0     H33112   3.661   4.860   0.130 -3.3499  2.0370 -0.6687
  240MOL0     H33113   3.669   4.714   0.037 -2.3011 -0.9825 -0.2887
  240MOL0     H33114   3.627   4.980  -0.113  1.0436 -0.1898  0.0152
  240MOL0     H33115   3.682   4.823  -0.173  0.9789  1.4975 -0.8465
  240MOL0     H33116   4.042   4.979  -0.036 -0.4727  3.0735 -0.3589
  240MOL0     H33117   3.149   4.659   0.027 -1.4243 -0.1762  1.0904
  240MOL0     H33118   3.034   4.672   0.237 -0.2612  1.9610  1.3960
  240MOL0     H33119   2.883   4.751   0.255  2.1872  1.0499  1.2304
  240MOL0     H33120   2.910   4.625   0.130  2.3260 -0.6720 -1.5739
  241MOL0     O33121   6.787   4.748  10.814  0.1498  0.6239 -0.5834
  241MOL0     C33122   6.819   4.768  10.699 -0.3377  0.1058  0.5760
  241MOL0     O33123   6.741   4.743  10.593  0.4869 -0.5844 -0.1157
  241MOL0     C33124   6.611   4.715  10.630 -0.0416  0.0058 -0.0645
  241MOL0     C33125   6.516   4.814  10.666  0.0962  0.7036  1.0231
  241MOL0     C33126   6.387   4.781  10.693  0.2576  0.0656  1.5774
  241MOL0     C33127   6.348   4.646  10.707  0.4263  0.1139  1.0400
  241MOL0     O33128   6.221   4.620  10.751 -0.2695  0.6541 -0.1257
  241MOL0     C33129   6.131   4.531  10.674  0.5677 -0.4452  0.4113
  241MOL0     C33130   5.987   4.592  10.693 -0.5301  0.3522 -0.0490
  241MOL0     C33131   5.879   4.513  10.616 -0.0661 -0.4659 -0.4634
  241MOL0     C33132   5.894   4.364  10.649  0.7023  0.0751 -0.1010
  241MOL0     C33133   5.759   4.296  10.615 -0.1448 -0.4097 -0.2338
  241MOL0     C33134   5.657   4.267  10.731  0.1173  0.5739  0.1777
  241MOL0     C33135   5.519   4.220  10.691  1.0296 -0.0123 -0.4929
  241MOL0     C33136   5.422   4.189  10.809 -1.0554  0.1924  0.2261
  241MOL0     N33137   5.290   4.131  10.769 -0.0893 -0.3494  0.4271
  241MOL0     C33138   5.223   4.139  10.651  0.0633 -0.4514  0.2768
  241MOL0     C33139   5.111   4.069  10.679  0.4048  0.3475  0.2451
  241MOL0     C33140   4.994   4.054  10.586 -0.4162  0.6740 -0.1879
  241MOL0     C33141   4.848   4.052  10.624  0.1933  0.1529  0.1065
  241MOL0     C33142   4.804   4.184  10.696  0.7167 -0.0282 -0.1290
  241MOL0     C33143   4.812   4.330  10.632 -0.2505  0.0143 -0.5437
  241MOL0     O33144   4.739   4.325  10.503 -0.4113  0.1728  0.4882
  241MOL0     C33145   4.763   4.422  10.407 -0.3341 -0.6003 -0.5261
  241MOL0     C33146   4.847   4.537  10.430  0.7793  0.5752  0.4812
  241MOL0     C33147   4.862   4.638  10.330  0.4920  0.9029  0.7875
  241MOL0     C33148   4.954   4.756  10.355 -0.4576 -0.2089  0.0802
  241MOL0     C33149   4.795   4.616  10.203  0.6018 -0.5466 -1.5602
  241MOL0     C33150   4.807   4.713  10.088 -0.5889  0.2340 -0.5894
  241MOL0     O33151   4.743   4.665   9.969 -0.2067  0.4350  0.2954
  241MOL0     C33152   4.777   4.712   9.839 -0.3446 -0.1225  0.2345
  241MOL0     C33153   4.818   4.844   9.807  0.2150 -0.6237 -0.0277
  241MOL0     C33154   4.843   4.878   9.672  0.8255 -0.3352  0.4632
  241MOL0     C33155   4.819   4.785   9.567 -0.2858 -0.1799 -0.4225
  241MOL0     O33156   4.831   4.825   9.438  0.0443  0.0033  0.0957
  241MOL0     C33157   4.772   4.741   9.331  0.3345  0.6713 -0.3334
  241MOL0     C33158   4.765   4.817   9.197  0.5466  0.2843  0.5177
  241MOL0     C33159   4.898   4.841   9.144  0.5509 -0.2350  0.9304
  241MOL0     C33160   4.882   4.883   8.997 -0.6612  0.9499  0.1530
  241MOL0     C33161   5.012   4.853   8.908 -0.2143 -0.5256 -0.1840
  241MOL0     C33162   5.133   4.929   8.950 -0.3091  0.4092 -0.0899
  241MOL0     C33163   5.247   4.892   8.847 -0.1864 -0.1051  0.4467
  241MOL0     C33164   5.392   4.917   8.897 -0.1842  0.1774  0.1725
  241MOL0    Cl33165   5.495   4.870   8.759  0.0664 -0.0544 -0.4515
  241MOL0     C33166   4.778   4.657   9.602 -0.5917 -0.9236 -0.5582
  241MOL0     C33167   4.757   4.621   9.734  0.0035 -0.1589  0.0023
  241MOL0     O33168   4.880   4.810  10.099 -0.3297 -0.1094 -0.0538
  241MOL0     C33169   4.702   4.511  10.190 -0.3080  0.4325 -0.1988
  241MOL0     C33170   4.688   4.416  10.290 -0.7848  0.9215 -0.1678
  241MOL0     N33171   5.116   4.030  10.810  0.0156  0.0425 -0.0054
  241MOL0     N33172   5.230   4.062  10.867  0.1606  0.2890  0.4908
  241MOL0     C33173   6.441   4.546  10.670  0.4360  0.1184 -0.0319
  241MOL0     C33174   6.574   4.579  10.643 -0.4450 -0.8582  0.5175
  241MOL0     C33175   6.951   4.826  10.675  0.1905 -0.6877  0.6359
  241MOL0     C33176   7.026   4.781  10.561  1.2197 -0.0072  0.0042
  241MOL0     C33177   7.159   4.816  10.543 -1.2026 -0.6349 -0.3161
  241MOL0     C33178   7.223   4.890  10.638 -0.2200  0.9315  0.2590
  241MOL0     O33179   7.358   4.917  10.619 -0.5534 -0.1370 -0.1189
  241MOL0     C33180   7.434   4.952  10.739  0.1713 -0.7113  0.1355
  241MOL0     C33181   7.580   4.931  10.711 -0.4480 -0.0133  0.0575
  241MOL0     C33182   7.654   5.050  10.625  0.2085 -0.1294  0.0033
  241MOL0     C33183   7.770   4.998  10.543 -0.1728  0.2419 -0.2098
  241MOL0     C33184   7.885   4.954  10.623 -0.7366 -0.1942  0.5803
  241MOL0     C33185   7.984   4.918  10.682 -0.4313 -0.3934  0.1386
  241MOL0     C33186   7.151   4.939  10.751  0.1251  0.2725 -0.3242
  241MOL0     C33187   7.021   4.902  10.773 -0.2261  0.8348 -1.0655
  241MOL0     C33188   6.963   4.946  10.910 -0.3456  0.2437 -0.4007
  241MOL0     H33189   6.534   4.921  10.671 -1.5408  1.1106 -0.6958
  241MOL0     H33190   6.317   4.847  10.741  1.8632  0.3942  3.5849
  241MOL0     H33191   6.140   4.436  10.727 -0.3351 -0.8854 -0.2155
  241MOL0     H33192   6.158   4.518  10.569 -1.8781  1.8425 -0.6179
  241MOL0     H33193   5.977   4.593  10.802  2.0137  1.4597  0.2618
  241MOL0     H33194   5.986   4.694  10.653 -1.7088 -0.4479 -2.2285
  241MOL0     H33195   5.783   4.549  10.654  0.7020 -0.3598  1.5060
  241MOL0     H33196   5.881   4.520  10.507  1.2027  0.9218 -0.3978
  241MOL0     H33197   5.958   4.309  10.579 -1.8481 -2.8748 -0.3167
  241MOL0     H33198   5.915   4.339  10.754  0.0836 -1.6824 -0.3583
  241MOL0     H33199   5.781   4.199  10.570  0.7321 -0.3144 -0.0176
  241MOL0     H33200   5.693   4.355  10.551 -3.1513 -1.9637  1.1657
  241MOL0     H33201   5.709   4.203  10.802  0.2304  0.9251  0.4165
  241MOL0     H33202   5.645   4.361  10.785  0.4219  0.6889  0.0482
  241MOL0     H33203   5.518   4.128  10.632  0.7951  0.3887 -1.1288
  241MOL0     H33204   5.479   4.299  10.626  0.4885 -0.1660 -0.3485
  241MOL0     H33205   5.471   4.124  10.881  0.2455  0.3484 -0.4901
  241MOL0     H33206   5.392   4.288  10.846 -2.1372  0.6319 -1.6338
  241MOL0     H33207   5.232   4.193  10.557  3.0853  1.1916  1.3688
  241MOL0     H33208   5.001   3.949  10.557  0.3681 -0.8913  4.7228
  241MOL0     H33209   5.016   4.138  10.519 -0.2089  1.9039  1.3474
  241MOL0     H33210   4.790   4.038  10.532 -2.0957 -0.1035  1.5138
  241MOL0     H33211   4.820   3.971  10.691  0.0558  1.7346  2.0676
  241MOL0     H33212   4.696   4.171  10.713  1.1441 -5.7005 -0.0154
  241MOL0     H33213   4.857   4.186  10.791  1.9911  0.2882 -0.8308
  241MOL0     H33214   4.748   4.402  10.684  0.1128  1.3482 -1.8480
  241MOL0     H33215   4.912   4.375  10.638 -1.1221  2.0025 -0.0307
  241MOL0     H33216   4.911   4.562  10.514 -2.7291 -0.4531  3.7104
  241MOL0     H33217   4.897   4.847  10.332 -0.2911  0.2839  1.5109
  241MOL0     H33218   5.043   4.749  10.292 -1.7598 -3.6393 -1.6078
  241MOL0     H33219   4.994   4.760  10.456  0.8208  5.5439 -0.2957
  241MOL0     H33220   4.831   4.911   9.892 -1.2066  1.0642 -1.0630
  241MOL0     H33221   4.884   4.976   9.649  1.1408  0.3163  3.4228
  241MOL0     H33222   4.831   4.650   9.321 -2.3312 -1.7875  3.3096
  241MOL0     H33223   4.674   4.709   9.369  0.3293  1.2825  0.1794
  241MOL0     H33224   4.715   4.754   9.124  0.5430  0.7847  0.0859
  241MOL0     H33225   4.708   4.910   9.210 -0.5659 -0.3091  0.0229
  241MOL0     H33226   4.956   4.748   9.149  1.0642  0.0442  0.3259
  241MOL0     H33227   4.947   4.921   9.199  0.3144  0.0117  0.7809
  241MOL0     H33228   4.855   4.989   8.997 -0.2362  1.0813 -1.3567
  241MOL0     H33229   4.807   4.819   8.950 -0.1850 -1.1143  2.0290
  241MOL0     H33230   5.041   4.749   8.920 -0.3844 -0.6530 -0.8409
  241MOL0     H33231   4.979   4.876   8.806 -2.6376  0.2968  0.7140
  241MOL0     H33232   5.173   4.892   9.045 -0.5896 -0.5878 -0.3493
  241MOL0     H33233   5.113   5.036   8.958  0.0745  0.4421  0.5017
  241MOL0     H33234   5.233   4.951   8.756 -0.5728 -0.3720  0.3284
  241MOL0     H33235   5.237   4.786   8.822 -1.2935  0.3038 -0.9687
  241MOL0     H33236   5.426   4.858   8.983  3.2935  0.7802 -0.6413
  241MOL0     H33237   5.417   5.018   8.930  1.5495  0.1447 -0.9264
  241MOL0     H33238   4.759   4.573   9.536  0.0602 -1.2169 -0.3767
  241MOL0     H33239   4.719   4.524   9.763  0.5928  0.2735  2.4020
  241MOL0     H33240   4.627   4.516  10.111  0.8283 -2.5580 -1.6294
  241MOL0     H33241   4.632   4.324  10.273  1.3552 -0.1300 -2.2573
  241MOL0     H33242   6.421   4.446  10.706  0.4694 -0.3672 -1.3201
  241MOL0     H33243   6.657   4.510  10.634 -0.1800 -0.5013  0.1935
  241MOL0     H33244   6.975   4.720  10.486  1.4116  0.9277 -0.9106
  241MOL0     H33245   7.216   4.773  10.462  1.5624 -1.2512  1.7882
  241MOL0     H33246   7.411   5.055  10.767  2.8723  0.1640 -0.6102
  241MOL0     H33247   7.396   4.890  10.820 -1.5631 -1.0751 -0.9002
  241MOL0     H33248   7.589   4.830  10.672 -0.9500 -0.3080  0.6792
  241MOL0     H33249   7.644   4.926  10.800  0.8794  0.2633 -0.8473
  241MOL0     H33250   7.575   5.094  10.563  0.3821  0.0581 -0.0898
  241MOL0     H33251   7.684   5.131  10.692  0.5419 -0.9348  0.8516
  241MOL0     H33252   7.804   5.074  10.471 -1.8207 -0.2003 -1.5037
  241MOL0     H33253   7.727   4.918  10.483 -1.1172  0.3022  0.3606
  241MOL0     H33254   8.067   4.894  10.745 -0.1787  1.1711  0.4449
  241MOL0     H33255   7.212   4.993  10.824  1.2186  0.7320 -1.5416
  241MOL0     H33256   6.854   4.936  10.915 -0.2277 -0.6256  0.7003
  241MOL0     H33257   7.012   4.899  10.996 -0.0955 -0.0405 -0.6958
  241MOL0     H33258   6.988   5.052  10.917 -0.0856  0.3237 -2.0703
  242MOL0     O33259  10.340   9.208   0.866  0.2870 -0.2015  0.6126
  242MOL0     C33260  10.264   9.245   0.778 -0.8896 -0.1883  0.8383
  242MOL0     O33261  10.147   9.316   0.800 -0.9740  0.2098 -0.3504
  242MOL0     C33262  10.098   9.305   0.928  0.3347  0.2064 -0.2233
  242MOL0     C33263  10.060   9.177   0.970  0.7624 -0.5983 -0.3754
  242MOL0     C33264  10.008   9.159   1.101  0.6668  0.2538 -0.7834
  242MOL0     C33265   9.977   9.272   1.187  0.5247 -0.0399  0.4582
  242MOL0     O33266   9.920   9.247   1.314 -0.6340  0.4389  0.3409
  242MOL0     C33267   9.922   9.340   1.424  0.3786 -0.7197  0.5820
  242MOL0     C33268   9.994   9.266   1.535  0.0253 -0.1531  0.3272
  242MOL0     C33269  10.136   9.321   1.544  1.3929  1.3160  0.0875
  242MOL0     C33270  10.248   9.223   1.604  0.7171 -0.6440 -0.3729
  242MOL0     C33271  10.276   9.102   1.517 -0.6674  0.6952 -0.2494
  242MOL0     C33272  10.284   9.126   1.364  0.4757  0.6727  0.2009
  242MOL0     C33273  10.395   9.232   1.323 -0.0037  0.6826 -0.6086
  242MOL0     C33274  10.536   9.189   1.369  0.9334  0.0812  0.8369
  242MOL0     N33275  10.572   9.071   1.286  0.0104  0.2604 -0.6960
  242MOL0     C33276  10.574   9.065   1.151 -0.3941 -0.0538 -0.1587
  242MOL0     C33277  10.569   8.935   1.121  0.4524 -0.6815 -0.0477
  242MOL0     C33278  10.554   8.872   0.991  0.2253 -0.0938  0.7142
  242MOL0     C33279  10.433   8.773   0.987  0.0789 -0.3779  0.6034
  242MOL0     C33280  10.368   8.759   0.852  0.0238  0.0219 -0.4373
  242MOL0     C33281  10.240   8.678   0.862  0.1534  0.2868 -0.0695
  242MOL0     O33282  10.250   8.538   0.895  0.1123  0.3521 -0.7646
  242MOL0     C33283  10.283   8.451   0.785 -0.0123  0.5128  0.0929
  242MOL0     C33284  10.307   8.492   0.654  0.5254 -0.0473  0.1891
  242MOL0     C33285  10.322   8.402   0.554  1.2348  0.0648  0.0783
  242MOL0     C33286  10.341   8.453   0.412  0.8813 -0.3992 -0.0652
  242MOL0     C33287  10.325   8.260   0.588 -0.8993  0.6883 -0.3115
  242MOL0     C33288  10.363   8.149   0.493  0.8052 -0.9551  0.4607
  242MOL0     O33289  10.433   8.169   0.380 -0.6852 -0.4863 -0.0496
  242MOL0     C33290  10.480   8.089   0.278  0.8406  0.6239  0.2369
  242MOL0     C33291  10.573   8.143   0.182  0.4302 -0.5809  0.2166
  242MOL0     C33292  10.650   8.063   0.104 -0.0098  0.0993 -0.4163
  242MOL0     C33293  10.614   7.936   0.066  0.1122 -0.0070  0.7258
  242MOL0     O33294  10.667   7.872  -0.042  0.0590  0.2893 -0.0132
  242MOL0     C33295  10.577   7.796  -0.125 -0.2137 -0.4960  0.9842
  242MOL0     C33296  10.638   7.657  -0.167 -0.3954 -0.3574 -0.4552
  242MOL0     C33297  10.673   7.564  -0.045 -0.3636 -0.1305 -0.6818
  242MOL0     C33298  10.677   7.423  -0.093 -0.2506 -0.1071 -0.2782
  242MOL0     C33299  10.786   7.409  -0.201  0.2733 -0.4056 -0.9354
  242MOL0     C33300  10.796   7.259  -0.219  0.1350  0.5213  0.4796
  242MOL0     C33301  10.889   7.202  -0.324  0.4318 -0.1960 -0.2103
  242MOL0     C33302  10.826   7.145  -0.455 -0.1678 -0.1017  0.6792
  242MOL0    Cl33303  10.756   6.988  -0.416  0.4712  0.0025  0.2073
  242MOL0     C33304  10.520   7.880   0.156 -0.9776  0.1286  0.7751
  242MOL0     C33305  10.466   7.950   0.263  0.6552  0.2671 -0.2006
  242MOL0     O33306  10.322   8.040   0.527 -0.5647  0.5402 -0.4338
  242MOL0     C33307  10.310   8.217   0.721  0.0558  0.0864 -0.7144
  242MOL0     C33308  10.278   8.313   0.818  0.6680  0.0841  0.0681
  242MOL0     N33309  10.578   8.866   1.238  0.1224  0.1749 -0.4975
  242MOL0     N33310  10.567   8.942   1.338 -0.2946 -0.6101 -0.6073
  242MOL0     C33311  10.018   9.397   1.138  0.7239  0.3227 -0.3149
  242MOL0     C33312  10.056   9.411   1.006  0.5279  0.4192  0.4065
  242MOL0     C33313  10.319   9.221   0.644  0.8937 -0.1458  0.4681
  242MOL0     C33314  10.431   9.295   0.592  0.3525 -0.3170 -1.1541
  242MOL0     C33315  10.481   9.278   0.466  0.8651 -0.2631  1.4120
  242MOL0     C33316  10.420   9.185   0.377  0.1860  0.0973  0.5562
  242MOL0     O33317  10.450   9.162   0.245 -0.1102  0.1717  0.9598
  242MOL0     C33318  10.563   9.217   0.173 -0.9858  0.3161 -0.3050
  242MOL0     C33319  10.681   9.114   0.179 -0.2542 -0.1422  0.2780
  242MOL0     C33320  10.647   9.017   0.064  0.5945 -0.0135  0.2368
  242MOL0     C33321  10.752   8.907   0.058 -0.4442 -0.6348  0.1338
  242MOL0     C33322  10.771   8.859  -0.080 -0.0347 -0.2479 -0.1131
  242MOL0     C33323  10.792   8.825  -0.194 -0.1938  0.9481 -0.3231
  242MOL0     C33324  10.310   9.114   0.420 -0.1203 -0.4416 -0.3309
  242MOL0     C33325  10.257   9.132   0.552 -0.0140 -0.3356 -0.2152
  242MOL0     C33326  10.141   9.054   0.585  1.2774  0.4023  0.1602
  242MOL0     H33327  10.075   9.097   0.899 -2.8801 -0.6365 -1.3179
  242MOL0     H33328   9.955   9.069   1.133 -3.5635  3.2249  1.5656
  242MOL0     H33329   9.818   9.352   1.457  0.5946 -2.2784  1.9530
  242MOL0     H33330   9.968   9.438   1.407  0.9176 -1.3453 -1.9496
  242MOL0     H33331   9.941   9.280   1.629  1.1678 -2.1107  1.3243
  242MOL0     H33332   9.985   9.161   1.504  0.3434  0.2381 -1.1770
  242MOL0     H33333  10.169   9.359   1.447  0.5370  1.1246 -0.2934
  242MOL0     H33334  10.122   9.407   1.610 -2.9705  0.1058  1.0496
  242MOL0     H33335  10.341   9.277   1.621  0.9069 -1.5900  1.8320
  242MOL0     H33336  10.222   9.191   1.705 -2.9461 -1.5427 -1.4552
  242MOL0     H33337  10.207   9.018   1.532  0.3431  0.2438  2.2452
  242MOL0     H33338  10.371   9.060   1.550 -1.5853 -0.7720  0.6802
  242MOL0     H33339  10.299   9.035   1.306 -1.2852  1.4013 -1.4940
  242MOL0     H33340  10.185   9.160   1.335 -0.4803 -2.0172  0.0254
  242MOL0     H33341  10.377   9.325   1.377 -1.7978  0.2559 -0.4193
  242MOL0     H33342  10.390   9.245   1.215  0.1202  0.3605 -0.6551
  242MOL0     H33343  10.612   9.268   1.362  1.2081  0.4960  5.5520
  242MOL0     H33344  10.534   9.169   1.476  2.5935 -2.2182  0.5144
  242MOL0     H33345  10.584   9.152   1.087  0.4355 -0.4064 -0.5294
  242MOL0     H33346  10.645   8.819   0.962  0.0313 -0.8711  1.4863
  242MOL0     H33347  10.537   8.950   0.916  1.1347 -0.4081  0.1658
  242MOL0     H33348  10.453   8.676   1.035  0.9406 -0.3733  0.2717
  242MOL0     H33349  10.349   8.813   1.045 -0.6230  1.0782 -1.3169
  242MOL0     H33350  10.336   8.858   0.820 -3.0042  0.2180  2.6846
  242MOL0     H33351  10.448   8.727   0.785  2.0384 -2.0516  2.6855
  242MOL0     H33352  10.181   8.721   0.944  2.8638 -0.1780  2.3002
  242MOL0     H33353  10.189   8.694   0.767 -0.2512  0.3201  0.1467
  242MOL0     H33354  10.311   8.597   0.626  4.5411  0.3136  1.5029
  242MOL0     H33355  10.243   8.484   0.374 -0.2898 -3.6080  0.0439
  242MOL0     H33356  10.372   8.389   0.329 -1.3584 -0.3830 -0.9847
  242MOL0     H33357  10.403   8.543   0.417  0.4107 -0.1247  2.6433
  242MOL0     H33358  10.607   8.243   0.205  1.1687 -0.6783 -0.3971
  242MOL0     H33359  10.737   8.106   0.056 -0.5829  4.8067  2.1782
  242MOL0     H33360  10.487   7.777  -0.067  0.6135 -0.3390  2.3572
  242MOL0     H33361  10.551   7.857  -0.212  1.5374  1.9896  2.0824
  242MOL0     H33362  10.566   7.603  -0.229 -3.8981  4.0496 -0.7514
  242MOL0     H33363  10.723   7.683  -0.231  0.5899  1.2052  1.3994
  242MOL0     H33364  10.595   7.576   0.030  0.5184  0.3172  0.1810
  242MOL0     H33365  10.772   7.587  -0.005  1.0441 -3.6970 -1.6876
  242MOL0     H33366  10.578   7.396  -0.131 -0.9516  1.0867  0.6433
  242MOL0     H33367  10.700   7.355  -0.011  1.0769  3.0679  2.1615
  242MOL0     H33368  10.745   7.451  -0.293 -0.8903  2.5962  0.7887
  242MOL0     H33369  10.880   7.458  -0.172 -0.7693  1.1654 -0.0377
  242MOL0     H33370  10.697   7.217  -0.235  0.2551 -0.3567  1.8606
  242MOL0     H33371  10.827   7.227  -0.119  0.2751  0.1684  0.3279
  242MOL0     H33372  10.944   7.119  -0.280  1.1896  1.2363  1.6904
  242MOL0     H33373  10.960   7.282  -0.342  1.2517 -1.1080 -1.1537
  242MOL0     H33374  10.911   7.124  -0.521 -0.9337 -1.3404  0.0250
  242MOL0     H33375  10.754   7.209  -0.506  0.9898 -0.5034 -1.6094
  242MOL0     H33376  10.507   7.772   0.153 -3.0150  0.2975  1.6532
  242MOL0     H33377  10.415   7.890   0.338 -1.9344  2.0445 -0.4134
  242MOL0     H33378  10.315   8.109   0.735  1.7403 -0.4197 -4.1491
  242MOL0     H33379  10.268   8.294   0.924  2.0831 -2.1350 -0.1302
  242MOL0     H33380  10.002   9.469   1.217  2.3926 -0.5045  0.8340
  242MOL0     H33381  10.070   9.511   0.968  0.6975  0.6492  1.0615
  242MOL0     H33382  10.479   9.369   0.655  2.3112 -1.3121 -1.4118
  242MOL0     H33383  10.569   9.333   0.433  0.5609 -0.6101 -0.0479
  242MOL0     H33384  10.539   9.255   0.074 -0.0612  1.3315 -0.1619
  242MOL0     H33385  10.600   9.307   0.225  0.9653  0.3418 -1.6552
  242MOL0     H33386  10.690   9.068   0.278 -2.2310  0.2221  0.6663
  242MOL0     H33387  10.770   9.173   0.155 -0.8712  1.8196  2.4894
  242MOL0     H33388  10.550   8.969   0.082  1.2514 -0.9460  1.4822
  242MOL0     H33389  10.642   9.064  -0.034  0.0417 -0.3853  0.0857
  242MOL0     H33390  10.723   8.830   0.130  0.4934 -0.9021  0.2421
  242MOL0     H33391  10.849   8.946   0.091 -0.2236 -0.9182 -0.1750
  242MOL0     H33392  10.818   8.791  -0.292  1.1016  1.5461 -0.2100
  242MOL0     H33393  10.267   9.038   0.354 -0.9368 -1.5698  1.4227
  242MOL0     H33394  10.148   8.952   0.546 -0.4428  1.6299 -3.9928
  242MOL0     H33395  10.105   9.060   0.688 -3.5574  0.7640 -1.2963
  242MOL0     H33396  10.058   9.082   0.518  1.4720 -1.0621 -0.7350
  243MOL0     O33397   1.308   9.937   4.265  0.3183  0.5912 -0.4934
  243MOL0     C33398   1.228   9.838   4.280 -1.0367 -0.7886 -0.6180
  243MOL0     O33399   1.243   9.738   4.367 -0.2002  0.2621 -0.0907
  243MOL0     C33400   1.326   9.765   4.477  0.1808  0.0482  1.1880
  243MOL0     C33401   1.276   9.849   4.576  0.7874  0.6523 -0.2623
  243MOL0     C33402   1.365   9.900   4.673 -0.9489 -0.1129 -0.1853
  243MOL0     C33403   1.497   9.858   4.672  0.5327  0.2441  0.4091
  243MOL0     O33404   1.583   9.881   4.780 -0.8049 -0.9179 -1.1260
  243MOL0     C33405   1.568   9.983   4.879  0.1540  0.4937 -0.3918
  243MOL0     C33406   1.665  10.096   4.844 -0.3956  0.0430  0.7907
  243MOL0     C33407   1.631  10.154   4.703  0.7063 -0.3296  0.1396
  243MOL0     C33408   1.668  10.303   4.678 -0.0016  0.2929  0.9439
  243MOL0     C33409   1.640  10.342   4.534 -0.4847  0.5922 -0.0461
  243MOL0     C33410   1.623  10.494   4.525  0.3532 -1.1628 -0.4759
  243MOL0     C33411   1.614  10.543   4.387 -0.1617 -1.2944 -0.0649
  243MOL0     C33412   1.753  10.510   4.321  0.5512 -1.0117  0.1808
  243MOL0     N33413   1.765  10.617   4.217 -0.9461  0.0909  0.3632
  243MOL0     C33414   1.740  10.601   4.087  1.8234  0.4536  0.0432
  243MOL0     C33415   1.780  10.705   4.025 -0.2854 -0.1656 -0.0496
  243MOL0     C33416   1.778  10.733   3.873 -0.1668 -0.6105 -0.4613
  243MOL0     C33417   1.912  10.684   3.818 -1.1169 -0.3469  0.2240
  243MOL0     C33418   1.919  10.701   3.665  0.8256  0.4681 -0.3678
  243MOL0     C33419   1.834  10.599   3.584 -0.0533  0.2739 -0.1110
  243MOL0     O33420   1.725  10.671   3.531 -0.0220 -0.2336  0.2329
  243MOL0     C33421   1.623  10.605   3.469  0.3453 -0.2765  0.1706
  243MOL0     C33422   1.627  10.484   3.394 -0.4996 -0.2171  0.6684
  243MOL0     C33423   1.515  10.435   3.331 -0.1207  0.8688 -0.3386
  243MOL0     C33424   1.549  10.317   3.247 -0.5875  0.2502  0.1930
  243MOL0     C33425   1.389  10.498   3.339  0.3663 -1.0979  0.7439
  243MOL0     C33426   1.261  10.430   3.301  0.2495 -0.0507  0.6408
  243MOL0     O33427   1.259  10.331   3.208 -1.0348  0.1779  0.3452
  243MOL0     C33428   1.143  10.267   3.195  0.0975 -0.0274 -0.5870
  243MOL0     C33429   1.054  10.290   3.088  0.2538 -0.0974  0.2873
  243MOL0     C33430   0.927  10.225   3.078  0.4909  0.8012 -0.8901
  243MOL0     C33431   0.887  10.131   3.175  0.3736  0.8471  0.2553
  243MOL0     O33432   0.767  10.071   3.150 -0.1104 -0.7228  0.9277
  243MOL0     C33433   0.701  10.003   3.253  0.5433 -0.3375 -0.4935
  243MOL0     C33434   0.602   9.899   3.197  0.0985 -0.2796 -0.6465
  243MOL0     C33435   0.685   9.786   3.135  0.6325 -0.2154 -0.0926
  243MOL0     C33436   0.616   9.648   3.154  0.4740 -0.8182 -0.3923
  243MOL0     C33437   0.716   9.539   3.106  0.9430  0.2650  0.6650
  243MOL0     C33438   0.670   9.390   3.124  0.3779 -0.4448  0.9444
  243MOL0     C33439   0.792   9.296   3.140  1.0384 -0.3957 -0.3294
  243MOL0     C33440   0.893   9.325   3.032  0.9233 -0.7279 -0.3480
  243MOL0    Cl33441   0.819   9.333   2.876  0.0713 -0.5371  0.2027
  243MOL0     C33442   0.979  10.098   3.276  0.5952  0.8220  0.6552
  243MOL0     C33443   1.100  10.174   3.287  0.3960  0.1417  0.0167
  243MOL0     O33444   1.159  10.470   3.363 -0.9035 -0.0913 -0.3483
  243MOL0     C33445   1.388  10.621   3.411  0.7503  0.0041 -0.1677
  243MOL0     C33446   1.502  10.675   3.472 -0.8630  0.0288 -0.4505
  243MOL0     N33447   1.831  10.799   4.115  0.1909 -0.1619  0.0705
  243MOL0     N33448   1.823  10.740   4.232  0.7777  0.5839 -0.9421
  243MOL0     C33449   1.547   9.784   4.562  0.1538  0.0954 -0.7768
  243MOL0     C33450   1.459   9.731   4.470 -0.6645 -0.2002 -0.1882
  243MOL0     C33451   1.125   9.837   4.186 -0.5661  0.2081 -0.4446
  243MOL0     C33452   1.162   9.803   4.056  0.4709  0.0325 -0.4386
  243MOL0     C33453   1.069   9.816   3.941 -0.7121  1.0328  0.5343
  243MOL0     C33454   0.941   9.860   3.970 -0.1571  0.2149 -0.4950
  243MOL0     O33455   0.845   9.870   3.879 -0.8212 -0.5872  0.0005
  243MOL0     C33456   0.823  10.009   3.832  0.0171 -1.1471 -1.5528
  243MOL0     C33457   0.945  10.093   3.800  0.5382  1.1073 -1.4246
  243MOL0     C33458   1.043  10.027   3.693  0.5904 -0.3655 -0.7692
  243MOL0     C33459   1.180  10.086   3.716 -0.2132 -0.6148  0.0362
  243MOL0     C33460   1.273  10.049   3.607  0.2932  0.1818 -0.0201
  243MOL0     C33461   1.341  10.037   3.506  0.1331  0.0744  0.8350
  243MOL0     C33462   0.906   9.890   4.102  1.0129 -0.4200 -0.4252
  243MOL0     C33463   0.986   9.872   4.212  1.1865 -0.1259  0.0653
  243MOL0     C33464   0.929   9.898   4.350 -0.4301 -0.3272 -0.0356
  243MOL0     H33465   1.172   9.882   4.575  1.1157  1.7174 -1.8924
  243MOL0     H33466   1.338   9.963   4.758  1.7717  3.2908 -1.6033
  243MOL0     H33467   1.594   9.937   4.975 -0.2208  1.3430  0.1221
  243MOL0     H33468   1.463  10.012   4.891  0.4594  0.5034  3.6106
  243MOL0     H33469   1.639  10.171   4.919 -2.9521  0.0060  0.0545
  243MOL0     H33470   1.770  10.067   4.839 -0.6570 -0.6814 -1.8700
  243MOL0     H33471   1.664  10.090   4.620 -1.2739 -2.1394  0.6560
  243MOL0     H33472   1.523  10.153   4.686  0.5291 -2.0343  1.1159
  243MOL0     H33473   1.600  10.359   4.744 -0.2149  1.6631 -0.3874
  243MOL0     H33474   1.775  10.316   4.697 -0.0436 -0.4684  1.7652
  243MOL0     H33475   1.548  10.293   4.498 -0.2662 -1.6917  2.2129
  243MOL0     H33476   1.719  10.312   4.464  0.2316  4.6848 -1.2543
  243MOL0     H33477   1.530  10.525   4.573  0.7389  1.9345 -1.5360
  243MOL0     H33478   1.703  10.543   4.581  0.4320 -1.9367  0.1040
  243MOL0     H33479   1.594  10.650   4.379 -2.6840 -1.7743 -1.2453
  243MOL0     H33480   1.538  10.486   4.331  0.9179 -2.5453 -0.3182
  243MOL0     H33481   1.835  10.522   4.392  0.0577 -4.7851  1.6133
  243MOL0     H33482   1.758  10.411   4.275 -0.3693 -1.1509  0.3581
  243MOL0     H33483   1.702  10.511   4.039 -1.0757  0.6570  1.7076
  243MOL0     H33484   1.766  10.840   3.850  0.0725 -1.1085 -3.3809
  243MOL0     H33485   1.702  10.671   3.825 -0.2920 -1.5639  0.9355
  243MOL0     H33486   1.993  10.742   3.864 -0.0886 -2.0748  0.6735
  243MOL0     H33487   1.932  10.581   3.848  3.7469  0.6558  1.3858
  243MOL0     H33488   1.892  10.806   3.651  1.3319  1.0961  2.6520
  243MOL0     H33489   2.023  10.695   3.631  0.0606  0.3858 -2.9228
  243MOL0     H33490   1.895  10.560   3.502 -0.9251  0.5117 -0.8959
  243MOL0     H33491   1.803  10.512   3.643  0.4454  0.0099 -0.2325
  243MOL0     H33492   1.717  10.424   3.383 -1.4647 -1.4695 -0.7558
  243MOL0     H33493   1.496  10.232   3.291 -1.1537 -0.4118 -1.6744
  243MOL0     H33494   1.654  10.286   3.237  0.3032  3.4355 -1.4648
  243MOL0     H33495   1.490  10.321   3.155 -2.7892  1.3880  1.5579
  243MOL0     H33496   1.076  10.376   3.025 -0.4830 -0.5864 -0.6538
  243MOL0     H33497   0.864  10.251   2.993 -0.2309 -2.1521 -1.3736
  243MOL0     H33498   0.767   9.950   3.322 -1.4039  1.3248  2.8681
  243MOL0     H33499   0.641  10.065   3.320 -1.5272  1.5577 -3.8158
  243MOL0     H33500   0.545   9.868   3.285  3.0227  1.3825  2.0665
  243MOL0     H33501   0.540   9.952   3.125 -2.2943 -3.1099 -0.8595
  243MOL0     H33502   0.794   9.785   3.148  0.7964  1.4941 -0.9836
  243MOL0     H33503   0.665   9.815   3.031 -1.9367  1.3305  0.7485
  243MOL0     H33504   0.519   9.645   3.103  0.9991  0.8282 -1.5724
  243MOL0     H33505   0.595   9.644   3.261  2.1733  0.6512  0.0328
  243MOL0     H33506   0.748   9.574   3.008 -1.8357 -0.2563 -0.5416
  243MOL0     H33507   0.796   9.548   3.180  1.4906 -1.3329  0.3072
  243MOL0     H33508   0.612   9.363   3.035  1.6300 -4.0281  1.0387
  243MOL0     H33509   0.609   9.385   3.215 -0.3203 -0.9605  0.4586
  243MOL0     H33510   0.741   9.204   3.111 -0.0594 -0.6522  2.1820
  243MOL0     H33511   0.837   9.288   3.239 -3.4214 -1.1795  1.8858
  243MOL0     H33512   0.977   9.258   3.013  1.0156 -0.4157 -1.0583
  243MOL0     H33513   0.938   9.423   3.054 -1.3789 -0.3856  4.1043
  243MOL0     H33514   0.960  10.016   3.345  2.9101 -4.1717 -3.8850
  243MOL0     H33515   1.156  10.160   3.378 -1.2117  1.2759  1.2342
  243MOL0     H33516   1.300  10.684   3.417  0.4113 -0.5342  0.5825
  243MOL0     H33517   1.507  10.772   3.520 -2.8577  0.4455 -1.0091
  243MOL0     H33518   1.652   9.758   4.566  0.3117  0.8748  1.2535
  243MOL0     H33519   1.496   9.688   4.377 -0.4689 -0.7574  0.1448
  243MOL0     H33520   1.262   9.764   4.040 -1.4498 -5.8122 -0.8582
  243MOL0     H33521   1.112   9.774   3.850  0.8205 -1.9843  2.4799
  243MOL0     H33522   0.747  10.013   3.754 -2.3459 -1.4048  0.6064
  243MOL0     H33523   0.778  10.057   3.919  1.3173 -3.8465  0.7591
  243MOL0     H33524   1.001  10.115   3.891  2.4859  1.0876 -2.5638
  243MOL0     H33525   0.906  10.193   3.779 -0.0899  0.8084 -1.6921
  243MOL0     H33526   1.035   9.918   3.702 -2.3364 -0.0940  1.6244
  243MOL0     H33527   1.004  10.053   3.595 -0.2542 -0.4321 -0.4588
  243MOL0     H33528   1.229  10.045   3.805  2.1400 -1.4135 -1.5133
  243MOL0     H33529   1.174  10.195   3.722  0.3317 -0.6212  0.8876
  243MOL0     H33530   1.405  10.017   3.423 -0.6611 -0.2306  0.2892
  243MOL0     H33531   0.806   9.932   4.104  0.6225 -1.3228  1.4161
  243MOL0     H33532   0.951  10.000   4.385 -1.3408  0.0047 -0.4000
  243MOL0     H33533   0.820   9.894   4.343 -0.3644  0.2103 -2.2700
  243MOL0     H33534   0.949   9.817   4.420 -0.6267 -0.1603  0.2170
  244MOL0     O33535   3.904   5.010   1.327  0.6241 -0.7014  0.6306
  244MOL0     C33536   3.911   4.943   1.429 -0.8566  0.8082  0.8865
  244MOL0     O33537   3.852   4.982   1.552 -0.4728  0.1264  0.4657
  244MOL0     C33538   3.788   5.103   1.574  0.5276  0.6570  0.6973
  244MOL0     C33539   3.650   5.096   1.564  0.3907 -0.1232  0.5989
  244MOL0     C33540   3.574   5.209   1.597 -0.2995 -0.6075 -0.4834
  244MOL0     C33541   3.640   5.328   1.637 -0.5978 -0.2760  0.6084
  244MOL0     O33542   3.587   5.451   1.667  0.1096 -0.0559  0.2206
  244MOL0     C33543   3.475   5.442   1.755 -0.0856  0.6132  0.6243
  244MOL0     C33544   3.419   5.581   1.766 -0.1860 -1.2321  1.1852
  244MOL0     C33545   3.310   5.598   1.877 -0.6626 -0.0120  0.1034
  244MOL0     C33546   3.237   5.732   1.873 -0.4121 -0.0147 -0.3280
  244MOL0     C33547   3.123   5.736   1.988 -0.0723  0.4838  0.5150
  244MOL0     C33548   3.026   5.859   1.971 -1.0359 -0.0368  0.5937
  244MOL0     C33549   2.901   5.845   2.050  0.4400  0.0266  0.1413
  244MOL0     C33550   2.833   5.972   2.095  0.6061 -0.4757 -0.4152
  244MOL0     N33551   2.827   6.068   1.980  0.3517  0.2380 -0.1493
  244MOL0     C33552   2.917   6.172   1.958  0.3496 -0.4971  1.0720
  244MOL0     C33553   2.853   6.248   1.856 -0.1356 -0.1302  0.3137
  244MOL0     C33554   2.918   6.363   1.779 -0.8677  0.3977  0.3260
  244MOL0     C33555   2.998   6.321   1.661  0.1457  0.0380 -0.0903
  244MOL0     C33556   2.955   6.193   1.576 -0.2621 -0.3895  0.0557
  244MOL0     C33557   3.055   6.171   1.462  0.4076  0.3101  0.1192
  244MOL0     O33558   3.153   6.071   1.498 -0.5310  0.2193  0.0649
  244MOL0     C33559   3.234   6.008   1.403 -0.6598 -0.5307  0.7119
  244MOL0     C33560   3.347   5.941   1.445 -0.0697 -0.7799  0.4829
  244MOL0     C33561   3.432   5.859   1.360  0.4275 -0.5393  0.1979
  244MOL0     C33562   3.555   5.800   1.431  0.0650  0.0558  0.2577
  244MOL0     C33563   3.376   5.838   1.235 -0.7741 -0.0976  0.1615
  244MOL0     C33564   3.437   5.745   1.142 -0.0186  0.4771 -0.2045
  244MOL0     O33565   3.360   5.696   1.030 -0.5276 -0.5816 -0.7439
  244MOL0     C33566   3.425   5.597   0.951  0.6662 -0.5459  0.9443
  244MOL0     C33567   3.502   5.646   0.844  1.2912  0.2661 -0.2518
  244MOL0     C33568   3.570   5.550   0.763 -0.2423  0.0003 -0.2952
  244MOL0     C33569   3.549   5.407   0.782 -0.9290 -0.5894  0.1137
  244MOL0     O33570   3.592   5.310   0.677  0.7574 -0.0205 -0.5130
  244MOL0     C33571   3.600   5.358   0.541  0.3445 -0.5941 -0.0124
  244MOL0     C33572   3.626   5.242   0.453  0.2254 -0.0125  0.8858
  244MOL0     C33573   3.682   5.286   0.304 -0.8698 -0.5692 -0.5005
  244MOL0     C33574   3.837   5.265   0.276 -0.2663  0.3070  0.1503
  244MOL0     C33575   3.888   5.326   0.137 -0.3080  0.9360 -0.3503
  244MOL0     C33576   4.027   5.274   0.097  0.1607 -0.3390 -0.1979
  244MOL0     C33577   4.068   5.323  -0.040 -0.0015  0.0211  0.1669
  244MOL0     C33578   4.202   5.270  -0.094 -0.8685 -0.8190 -0.3372
  244MOL0    Cl33579   4.342   5.347  -0.015 -0.2621  0.0502  0.1904
  244MOL0     C33580   3.458   5.365   0.883  0.1100  0.6349  0.3743
  244MOL0     C33581   3.396   5.457   0.961  0.2951  1.2385 -0.0647
  244MOL0     O33582   3.551   5.700   1.174 -1.0007 -0.0678  0.5000
  244MOL0     C33583   3.257   5.904   1.189 -0.2298  0.3846 -0.4038
  244MOL0     C33584   3.187   5.992   1.276 -0.1380  0.2539 -0.3294
  244MOL0     N33585   2.733   6.189   1.814  0.6345  0.8024 -0.2151
  244MOL0     N33586   2.713   6.084   1.894 -0.2518 -0.2675 -0.2227
  244MOL0     C33587   3.788   5.339   1.633  0.7431  0.1026  0.3483
  244MOL0     C33588   3.857   5.216   1.604  0.2984 -0.6816 -0.4690
  244MOL0     C33589   3.959   4.800   1.412 -0.4533  0.0168 -0.7113
  244MOL0     C33590   3.856   4.712   1.449 -0.0918  0.8346  0.0953
  244MOL0     C33591   3.883   4.582   1.434  0.4397  0.4857  0.7247
  244MOL0     C33592   4.007   4.532   1.380  0.7961 -0.6698  0.4008
  244MOL0     O33593   4.040   4.396   1.378  0.0713  0.0990 -0.3335
  244MOL0     C33594   3.934   4.302   1.357 -0.5032  0.6247 -0.5289
  244MOL0     C33595   3.882   4.232   1.472  0.1382  0.6473 -0.8918
  244MOL0     C33596   3.772   4.153   1.407 -0.4130  0.4950 -0.1698
  244MOL0     C33597   3.715   4.042   1.505  1.1524 -0.5804 -0.1863
  244MOL0     C33598   3.631   4.112   1.597  0.0079 -0.6380  0.1709
  244MOL0     C33599   3.567   4.188   1.669  0.0693  0.3208  0.2209
  244MOL0     C33600   4.087   4.621   1.310 -0.7252  0.2378  0.2605
  244MOL0     C33601   4.069   4.760   1.339  0.5252  1.2300 -0.7555
  244MOL0     C33602   4.163   4.854   1.277 -0.6799 -0.8673  0.4072
  244MOL0     H33603   3.606   4.999   1.548  1.1791 -0.2484 -0.9614
  244MOL0     H33604   3.466   5.197   1.601 -0.6962  1.5975 -2.3739
  244MOL0     H33605   3.498   5.405   1.855  1.1578 -0.8259 -0.1462
  244MOL0     H33606   3.400   5.370   1.719  0.2817 -1.0656  2.9728
  244MOL0     H33607   3.505   5.637   1.804 -0.5310  0.0884  0.0937
  244MOL0     H33608   3.382   5.608   1.667 -0.5145  1.1334  1.8899
  244MOL0     H33609   3.237   5.516   1.884  0.2984 -1.0142 -1.1692
  244MOL0     H33610   3.366   5.596   1.971 -2.5518  3.0613  1.4416
  244MOL0     H33611   3.317   5.805   1.892  1.7880 -2.7003  1.4491
  244MOL0     H33612   3.191   5.755   1.776  1.2768  2.1960 -0.7029
  244MOL0     H33613   3.169   5.721   2.086  1.9548  0.4144 -0.3913
  244MOL0     H33614   3.070   5.644   1.962  0.5600 -0.2089  1.6189
  244MOL0     H33615   3.080   5.943   2.017  0.6006 -1.9099  2.3264
  244MOL0     H33616   3.001   5.874   1.866  2.8904 -0.7610 -0.5988
  244MOL0     H33617   2.920   5.789   2.142 -1.4594 -3.6509 -1.4582
  244MOL0     H33618   2.821   5.784   2.004  0.5078 -0.0753  0.1575
  244MOL0     H33619   2.740   5.937   2.140  0.5579 -0.3948 -0.4535
  244MOL0     H33620   2.897   6.021   2.170  2.4240  0.1643 -2.2800
  244MOL0     H33621   3.016   6.190   1.999  0.6681 -0.1796  0.1969
  244MOL0     H33622   2.992   6.412   1.844  0.7645  1.5199 -2.2184
  244MOL0     H33623   2.858   6.447   1.740  1.8632  1.7361 -1.2774
  244MOL0     H33624   3.003   6.396   1.581  1.8184 -0.3107 -0.3640
  244MOL0     H33625   3.095   6.295   1.706  0.1642 -0.4592 -0.4047
  244MOL0     H33626   2.958   6.099   1.631 -1.1013 -1.1015 -1.0793
  244MOL0     H33627   2.855   6.205   1.533 -1.3421  2.4010  2.9045
  244MOL0     H33628   2.999   6.169   1.368  0.0778  4.5429  0.0327
  244MOL0     H33629   3.111   6.265   1.458  1.0024 -0.0704 -0.6742
  244MOL0     H33630   3.367   5.956   1.551  1.9650  0.4304 -0.0332
  244MOL0     H33631   3.644   5.824   1.372  0.2338 -1.1404  0.0111
  244MOL0     H33632   3.544   5.692   1.445 -0.8065 -0.4573 -3.3110
  244MOL0     H33633   3.574   5.853   1.524 -2.1330  0.7800  0.3370
  244MOL0     H33634   3.516   5.753   0.835  3.8469  0.0954  0.6715
  244MOL0     H33635   3.638   5.588   0.687  0.8587 -0.2879  0.5221
  244MOL0     H33636   3.509   5.413   0.517  0.2560 -1.6903 -2.4833
  244MOL0     H33637   3.682   5.430   0.532 -0.2321 -0.1255 -1.8664
  244MOL0     H33638   3.716   5.194   0.493  2.1745  2.5632 -0.1820
  244MOL0     H33639   3.540   5.176   0.440  1.6256 -1.7185 -0.3860
  244MOL0     H33640   3.641   5.382   0.270  0.3502 -0.1083 -0.7093
  244MOL0     H33641   3.632   5.217   0.236  0.3289 -1.2743 -0.6888
  244MOL0     H33642   3.873   5.162   0.273  0.6634  0.6135  0.5213
  244MOL0     H33643   3.879   5.309   0.367  2.2730 -0.6257 -0.4856
  244MOL0     H33644   3.829   5.318   0.046  2.6976 -0.6442 -2.3526
  244MOL0     H33645   3.908   5.433   0.145 -1.3678  1.0357  1.4992
  244MOL0     H33646   4.033   5.165   0.105 -0.6842 -0.2629  2.7451
  244MOL0     H33647   4.096   5.311   0.173  0.0489  1.7574 -1.0430
  244MOL0     H33648   4.066   5.432  -0.039 -0.3730  0.0670 -1.8284
  244MOL0     H33649   3.990   5.291  -0.110  1.5935  1.4577 -2.4125
  244MOL0     H33650   4.191   5.267  -0.203  0.9003 -1.0633 -0.5259
  244MOL0     H33651   4.215   5.165  -0.066 -2.5294 -1.0468 -0.3037
  244MOL0     H33652   3.431   5.261   0.864 -0.7538  1.0178 -0.5863
  244MOL0     H33653   3.328   5.416   1.035  0.9286  0.2773  0.0135
  244MOL0     H33654   3.237   5.892   1.083  0.2269  2.6977 -0.8092
  244MOL0     H33655   3.092   6.039   1.252 -0.3288  3.1633  4.7789
  244MOL0     H33656   3.834   5.431   1.668  1.0446 -0.5220  1.6549
  244MOL0     H33657   3.965   5.208   1.609  0.2333 -1.5548 -0.3664
  244MOL0     H33658   3.756   4.724   1.488  1.1572 -0.4493  4.1776
  244MOL0     H33659   3.819   4.508   1.481  0.5895 -0.5065 -0.5637
  244MOL0     H33660   3.860   4.361   1.302 -1.3899  1.4540  1.4499
  244MOL0     H33661   3.975   4.234   1.282 -1.3032  0.2263 -0.6153
  244MOL0     H33662   3.836   4.310   1.533  1.4874  1.2036 -0.5471
  244MOL0     H33663   3.953   4.181   1.537  0.0006  1.5732  0.0126
  244MOL0     H33664   3.686   4.210   1.370  0.7762  1.2117 -1.9097
  244MOL0     H33665   3.814   4.099   1.322  0.5828 -0.5890  0.9752
  244MOL0     H33666   3.790   3.984   1.560  1.0599  1.6880  2.5723
  244MOL0     H33667   3.647   3.982   1.444 -0.4284  0.0031  0.9308
  244MOL0     H33668   3.489   4.241   1.721  0.2329  0.3796  0.4082
  244MOL0     H33669   4.170   4.596   1.244 -0.9867 -2.3778  0.8136
  244MOL0     H33670   4.125   4.922   1.201 -0.5725 -0.9006  0.3223
  244MOL0     H33671   4.199   4.921   1.355  0.9738 -0.3932 -0.7103
  244MOL0     H33672   4.250   4.800   1.239  0.0682  0.7519 -0.2836
  245MOL0     O33673  11.349   8.572  10.308 -0.2801  0.4042  0.1174
  245MOL0     C33674  11.370   8.675  10.375  0.4061  0.4545  0.1311
  245MOL0     O33675  11.475   8.687  10.464 -0.0477 -0.4032  0.6319
  245MOL0     C33676  11.580   8.596  10.470  0.6811  0.3632  0.1461
  245MOL0     C33677  11.554   8.457  10.458 -1.0203 -0.4850  0.1997
  245MOL0     C33678  11.666   8.369  10.461  0.3006 -0.0325 -0.4255
  245MOL0     C33679  11.792   8.414  10.456  0.4149 -0.0087  0.0618
  245MOL0     O33680  11.905   8.332  10.466  0.4283  0.5285 -0.3724
  245MOL0     C33681  11.889   8.217  10.548 -0.5814 -0.0389 -0.2664
  245MOL0     C33682  12.016   8.140  10.552 -0.2318 -0.2898 -0.0944
  245MOL0     C33683  12.051   8.101  10.405 -0.5984  0.1292  0.0392
  245MOL0     C33684  12.182   8.024  10.400  0.1715  0.0293  0.0395
  245MOL0     C33685  12.234   7.998  10.248  0.0377 -0.0054 -0.1877
  245MOL0     C33686  12.375   7.942  10.238 -0.0480  0.4961  0.3422
  245MOL0     C33687  12.379   7.816  10.325  0.3221 -0.0222  0.2715
  245MOL0     C33688  12.511   7.740  10.317  0.2578 -0.2404 -0.7658
  245MOL0     N33689  12.536   7.711  10.177 -0.4114 -0.3561  0.4434
  245MOL0     C33690  12.644   7.748  10.122  0.5937  0.0331  0.7176
  245MOL0     C33691  12.657   7.677  10.005  0.4011 -0.1849 -0.0917
  245MOL0     C33692  12.772   7.696   9.912  0.5241 -1.5040  0.3466
  245MOL0     C33693  12.817   7.851   9.899  0.3407 -0.0764  0.3434
  245MOL0     C33694  12.965   7.865   9.855  0.4046  0.3395 -0.7102
  245MOL0     C33695  12.982   7.844   9.710 -0.2761 -0.7450 -0.3119
  245MOL0     O33696  13.003   7.701   9.678  0.0468  0.0154  0.2435
  245MOL0     C33697  13.049   7.661   9.557  0.5337  0.0652 -0.1057
  245MOL0     C33698  13.076   7.743   9.447 -1.0326 -0.7116 -0.7059
  245MOL0     C33699  13.134   7.691   9.332  0.0090 -0.3452 -0.9390
  245MOL0     C33700  13.176   7.788   9.218 -0.6173  0.0380  0.0066
  245MOL0     C33701  13.147   7.551   9.319 -0.8005 -1.1300 -0.2364
  245MOL0     C33702  13.211   7.470   9.215 -0.8224 -1.2165 -0.0560
  245MOL0     O33703  13.167   7.340   9.194  0.6635 -0.2130 -0.0175
  245MOL0     C33704  13.236   7.267   9.102 -0.7093 -0.1609  0.8895
  245MOL0     C33705  13.170   7.247   8.974  0.8723 -0.1241  0.3063
  245MOL0     C33706  13.237   7.174   8.872  0.5204 -0.4797 -0.4706
  245MOL0     C33707  13.378   7.173   8.879 -0.6131  0.4922  0.3703
  245MOL0     O33708  13.445   7.151   8.757  1.0817  0.4963  0.8579
  245MOL0     C33709  13.585   7.175   8.757  1.0002  0.3183  0.8042
  245MOL0     C33710  13.644   7.174   8.621  0.2605  0.5722 -0.0312
  245MOL0     C33711  13.795   7.183   8.626 -0.0644 -0.8627 -0.7266
  245MOL0     C33712  13.853   7.185   8.496 -0.4204  0.1954  1.0519
  245MOL0     C33713  14.003   7.192   8.502  0.5681  0.2188 -0.3725
  245MOL0     C33714  14.070   7.140   8.372 -0.3718  0.2732 -1.0856
  245MOL0     C33715  14.217   7.104   8.403  0.9548 -0.4216 -0.1275
  245MOL0     C33716  14.307   7.084   8.283  0.2246 -0.2445 -0.6811
  245MOL0    Cl33717  14.468   7.050   8.353  0.5858  0.3735  0.3459
  245MOL0     C33718  13.440   7.198   9.003  0.3012  0.3398  0.9111
  245MOL0     C33719  13.371   7.237   9.109 -0.0903 -1.5713 -0.6565
  245MOL0     O33720  13.315   7.525   9.168 -0.5087 -0.4547  0.2792
  245MOL0     C33721  13.108   7.470   9.421  0.9233 -0.6555 -0.4268
  245MOL0     C33722  13.060   7.526   9.542  0.8985  0.1135 -0.0344
  245MOL0     N33723  12.554   7.591   9.998  0.4604 -0.3725 -0.0178
  245MOL0     N33724  12.479   7.616  10.101 -0.4857  0.1570 -0.2637
  245MOL0     C33725  11.813   8.551  10.456 -0.0453 -0.5028 -0.0828
  245MOL0     C33726  11.710   8.644  10.456  0.5715 -0.0745 -0.4490
  245MOL0     C33727  11.269   8.784  10.371 -0.4860 -0.1510 -0.1277
  245MOL0     C33728  11.261   8.867  10.493 -0.4802 -0.1073  1.1790
  245MOL0     C33729  11.169   8.966  10.495  0.1117  0.5061  0.0412
  245MOL0     C33730  11.077   8.988  10.398 -1.1573  1.3555 -0.6731
  245MOL0     O33731  10.996   9.094  10.400  0.4269 -0.4681 -0.6186
  245MOL0     C33732  11.040   9.218  10.455 -0.6759 -1.2065 -1.4230
  245MOL0     C33733  10.986   9.339  10.396  0.0039 -0.4258  0.6262
  245MOL0     C33734  11.030   9.468  10.475 -1.0396  0.4512 -0.0445
  245MOL0     C33735  10.907   9.564  10.505  0.0277  0.4146  0.2565
  245MOL0     C33736  10.940   9.653  10.621  0.0679 -0.4137  0.4474
  245MOL0     C33737  10.955   9.740  10.703 -0.4279 -0.8480  0.5114
  245MOL0     C33738  11.081   8.913  10.279 -0.0577  0.3632 -0.0968
  245MOL0     C33739  11.175   8.813  10.264 -0.0432  0.1175  0.1753
  245MOL0     C33740  11.184   8.738  10.133 -0.0602 -0.1482  0.3243
  245MOL0     H33741  11.456   8.410  10.458 -1.4396  0.3623  0.3034
  245MOL0     H33742  11.650   8.262  10.471 -0.0149  0.1805  1.8152
  245MOL0     H33743  11.808   8.153  10.512  0.9297 -1.2444 -1.6945
  245MOL0     H33744  11.860   8.242  10.651 -2.4819  1.6438 -1.1222
  245MOL0     H33745  12.103   8.190  10.598 -0.7837  3.4210 -2.6557
  245MOL0     H33746  12.009   8.050  10.614  1.8875  0.9375  2.1663
  245MOL0     H33747  11.963   8.058  10.356 -0.6491 -1.3632  1.3739
  245MOL0     H33748  12.081   8.195  10.357 -2.7874  1.0280  0.3352
  245MOL0     H33749  12.261   8.079  10.453 -1.0069  3.0927 -1.1495
  245MOL0     H33750  12.175   7.924  10.443  0.2269 -0.1844 -0.4375
  245MOL0     H33751  12.232   8.090  10.188 -0.1674  0.9443  1.2111
  245MOL0     H33752  12.172   7.917  10.210 -2.0969 -0.0282  2.9398
  245MOL0     H33753  12.404   7.919  10.135 -1.1096 -0.8652  0.3211
  245MOL0     H33754  12.454   8.014  10.265  2.9450 -1.8278 -1.5187
  245MOL0     H33755  12.305   7.749  10.282 -0.3822  1.0112 -0.1676
  245MOL0     H33756  12.366   7.823  10.434  0.2556 -1.3326  0.3589
  245MOL0     H33757  12.587   7.805  10.361 -1.6365  1.0183  0.7893
  245MOL0     H33758  12.488   7.653  10.379 -1.2202  1.3012  0.9847
  245MOL0     H33759  12.720   7.812  10.165 -0.4641 -0.5554  3.7029
  245MOL0     H33760  12.759   7.657   9.810  1.4657 -0.0336 -0.3666
  245MOL0     H33761  12.854   7.644   9.963  1.3337 -2.1972 -1.5420
  245MOL0     H33762  12.757   7.911   9.829 -0.1321  1.1778  1.7544
  245MOL0     H33763  12.816   7.900   9.997 -1.7073 -1.4197  1.0767
  245MOL0     H33764  12.995   7.967   9.880  1.6357 -0.2097  0.1373
  245MOL0     H33765  13.033   7.800   9.911  2.6890  2.0447 -1.3733
  245MOL0     H33766  12.898   7.884   9.652  1.3221 -0.5744 -2.6478
  245MOL0     H33767  13.062   7.904   9.666 -0.3887 -0.4864 -0.1665
  245MOL0     H33768  13.070   7.851   9.445 -0.7772 -0.7035 -2.0071
  245MOL0     H33769  13.138   7.754   9.121 -1.0608  1.8407 -0.4776
  245MOL0     H33770  13.281   7.818   9.220 -1.8674  5.8696 -2.1066
  245MOL0     H33771  13.127   7.886   9.218 -1.2537 -0.2099 -2.3851
  245MOL0     H33772  13.064   7.272   8.969  0.8805  0.5119  2.3926
  245MOL0     H33773  13.188   7.160   8.776  0.3998 -2.8782 -0.1147
  245MOL0     H33774  13.618   7.264   8.811  1.9060 -0.1664  1.0712
  245MOL0     H33775  13.626   7.083   8.801 -0.6350  0.5360  2.9368
  245MOL0     H33776  13.609   7.087   8.566  1.2556  1.0365 -1.4794
  245MOL0     H33777  13.607   7.266   8.573 -2.5720 -0.3763  0.1858
  245MOL0     H33778  13.839   7.112   8.696  3.7511  1.0271 -0.9378
  245MOL0     H33779  13.826   7.280   8.666  2.5005 -1.7754 -0.3395
  245MOL0     H33780  13.825   7.274   8.438 -0.2689 -0.0350  0.6245
  245MOL0     H33781  13.821   7.099   8.437 -1.0138  2.7353 -2.7148
  245MOL0     H33782  14.034   7.290   8.540 -1.7880  0.5116  0.9502
  245MOL0     H33783  14.037   7.121   8.577  0.9216  0.9714  0.1957
  245MOL0     H33784  14.073   7.205   8.284  0.9750 -2.3561 -3.1359
  245MOL0     H33785  14.033   7.039   8.352 -1.4447  0.6538 -1.0370
  245MOL0     H33786  14.223   7.027   8.481  4.2375 -0.5499 -0.3724
  245MOL0     H33787  14.259   7.199   8.437  0.7757 -0.2650 -0.3486
  245MOL0     H33788  14.318   7.175   8.223 -4.2514  0.4987 -0.6729
  245MOL0     H33789  14.260   7.010   8.217 -2.0356  0.3864  0.1413
  245MOL0     H33790  13.548   7.194   9.014  0.5449  1.1495 -0.8363
  245MOL0     H33791  13.431   7.264   9.196 -1.0748 -1.3033 -0.0473
  245MOL0     H33792  13.105   7.361   9.418 -4.0205 -0.7598 -0.0944
  245MOL0     H33793  13.015   7.461   9.616 -0.7685  1.1709 -0.0615
  245MOL0     H33794  11.916   8.581  10.441  0.2393 -2.4876 -2.6421
  245MOL0     H33795  11.723   8.751  10.471 -2.5804  0.2212  1.0608
  245MOL0     H33796  11.333   8.853  10.573 -1.2412 -2.0293  1.5945
  245MOL0     H33797  11.174   9.041  10.573 -1.7242  1.6990 -0.8895
  245MOL0     H33798  11.027   9.219  10.564  1.4738  0.3189 -1.1224
  245MOL0     H33799  11.148   9.229  10.441 -0.7969 -0.4980 -1.8571
  245MOL0     H33800  10.877   9.327  10.388  0.0428 -0.4854  0.1182
  245MOL0     H33801  11.023   9.357  10.294 -2.4372 -1.9372 -0.6224
  245MOL0     H33802  11.070   9.441  10.574  0.6746  0.6884 -0.6363
  245MOL0     H33803  11.114   9.525  10.434 -0.1871 -0.7863 -0.0942
  245MOL0     H33804  10.818   9.504  10.523  2.5282 -3.9184 -0.3003
  245MOL0     H33805  10.877   9.633  10.426  2.0859  2.0852  0.8382
  245MOL0     H33806  10.953   9.821  10.773 -1.1737  0.0507 -0.5103
  245MOL0     H33807  11.015   8.919  10.193 -0.7081  0.9196  0.4313
  245MOL0     H33808  11.152   8.804  10.051  2.9823 -0.1617 -0.9874
  245MOL0     H33809  11.287   8.717  10.104  0.6807  1.2108  1.8046
  245MOL0     H33810  11.126   8.645  10.133  2.9503 -2.1431 -0.4610
  246MOL0     O33811   7.311  10.969  10.604 -0.0785 -0.0702 -0.2412
  246MOL0     C33812   7.419  10.926  10.650  0.0032  0.6011  0.1247
  246MOL0     O33813   7.459  10.799  10.660  0.7696 -0.2970  0.6392
  246MOL0     C33814   7.359  10.705  10.668 -0.0347  0.2575  0.1239
  246MOL0     C33815   7.243  10.715  10.751  0.7545 -0.5529  0.1964
  246MOL0     C33816   7.139  10.606  10.747 -0.5717  0.3282  0.4319
  246MOL0     C33817   7.159  10.493  10.669 -0.3697  0.1916  0.0346
  246MOL0     O33818   7.075  10.382  10.668 -0.0860 -0.6590 -0.0240
  246MOL0     C33819   6.936  10.410  10.672  0.8130  0.6000  0.5862
  246MOL0     C33820   6.848  10.287  10.622 -0.9597  0.5025  0.8700
  246MOL0     C33821   6.878  10.228  10.477  0.8351 -1.0525 -0.4752
  246MOL0     C33822   6.818  10.324  10.373  0.2367  0.0042  0.4259
  246MOL0     C33823   6.857  10.289  10.226 -0.1953  0.4806  0.4604
  246MOL0     C33824   6.773  10.357  10.121  0.3377 -0.3254 -0.6682
  246MOL0     C33825   6.784  10.274   9.986  0.1056 -0.2492 -0.7123
  246MOL0     C33826   6.933  10.268   9.951 -0.0740  0.6912  0.2865
  246MOL0     N33827   6.940  10.162   9.840  0.7579  0.1106 -0.2456
  246MOL0     C33828   6.902  10.182   9.710  0.8188  0.7598  0.4688
  246MOL0     C33829   6.866  10.071   9.654 -1.3641  0.7333 -0.3135
  246MOL0     C33830   6.830  10.030   9.520  0.6756  0.4264  0.0880
  246MOL0     C33831   6.674  10.068   9.506 -0.3124  0.5266  0.9873
  246MOL0     C33832   6.590  10.005   9.607  0.4727 -1.1517  0.3381
  246MOL0     C33833   6.446   9.974   9.563 -0.2123  0.5524 -0.1927
  246MOL0     O33834   6.345   9.978   9.663  0.3827  0.1580 -0.2542
  246MOL0     C33835   6.267  10.084   9.682  0.2118 -0.2341 -0.6244
  246MOL0     C33836   6.270  10.213   9.622 -0.8265 -0.7508 -0.7247
  246MOL0     C33837   6.170  10.310   9.656 -0.7655  0.0871 -0.0142
  246MOL0     C33838   6.192  10.427   9.557  0.2054  0.3711  0.3841
  246MOL0     C33839   6.072  10.284   9.754  0.5569 -0.8893  0.1758
  246MOL0     C33840   5.969  10.390   9.789  0.5858 -0.6086 -0.4381
  246MOL0     O33841   5.983  10.527   9.770 -0.1411 -0.3968 -0.9734
  246MOL0     C33842   5.878  10.600   9.826 -0.0756  0.3844 -0.7354
  246MOL0     C33843   5.758  10.631   9.761 -0.3735 -0.6256 -0.9804
  246MOL0     C33844   5.645  10.701   9.824  0.1631  0.2207  0.9975
  246MOL0     C33845   5.659  10.745   9.955  0.4213 -0.8035  0.6408
  246MOL0     O33846   5.566  10.843   9.989 -0.6144 -0.8724 -0.2622
  246MOL0     C33847   5.481  10.795  10.091 -0.2055 -0.1184  0.1565
  246MOL0     C33848   5.340  10.841  10.074 -0.0182 -0.4389 -0.1148
  246MOL0     C33849   5.282  10.794   9.940  0.4696  0.1210  0.3252
  246MOL0     C33850   5.138  10.830   9.915  0.3536 -0.1214  0.5811
  246MOL0     C33851   5.108  10.847   9.768 -0.0571  0.1855 -0.3335
  246MOL0     C33852   4.978  10.902   9.745  0.1560 -0.3497 -0.3542
  246MOL0     C33853   4.941  10.907   9.597  0.4966  1.4228 -0.1663
  246MOL0     C33854   4.830  11.005   9.553 -0.8907 -0.0229  0.4611
  246MOL0    Cl33855   4.862  11.178   9.617 -0.1726 -0.5488  0.2030
  246MOL0     C33856   5.773  10.721  10.030 -0.1902  1.2540  0.4641
  246MOL0     C33857   5.874  10.638   9.972 -0.1452 -0.3856  0.8247
  246MOL0     O33858   5.860  10.336   9.832  0.2251 -0.4202  0.5509
  246MOL0     C33859   6.087  10.164   9.820  1.0071  0.5916 -0.0926
  246MOL0     C33860   6.179  10.066   9.795 -0.2968  0.4130  0.1351
  246MOL0     N33861   6.909   9.980   9.753  0.0383 -0.3120 -0.2723
  246MOL0     N33862   6.953  10.030   9.860 -0.4203 -0.1429 -0.4945
  246MOL0     C33863   7.287  10.481  10.611  1.1253  0.1477  0.4816
  246MOL0     C33864   7.382  10.583  10.590  0.6952  0.0992 -0.2756
  246MOL0     C33865   7.510  11.024  10.714 -0.3771 -0.2183  0.1435
  246MOL0     C33866   7.502  11.015  10.853  0.1207  0.2604  0.7158
  246MOL0     C33867   7.552  11.121  10.936  0.2583 -0.1299  1.1161
  246MOL0     C33868   7.635  11.210  10.880 -0.4310 -0.3580  0.3391
  246MOL0     O33869   7.686  11.298  10.970  0.2717 -0.3767  0.0271
  246MOL0     C33870   7.806  11.367  10.941 -0.1948 -0.0391  0.0008
  246MOL0     C33871   7.905  11.357  11.045  0.3221 -0.2737 -0.3071
  246MOL0     C33872   7.932  11.211  11.088  0.3306 -0.6796 -0.4490
  246MOL0     C33873   8.055  11.203  11.175 -1.0153 -0.0360  0.4140
  246MOL0     C33874   8.172  11.267  11.107 -0.1876  0.6143 -0.1441
  246MOL0     C33875   8.270  11.296  11.045  0.4717  0.0834  0.5513
  246MOL0     C33876   7.646  11.218  10.739 -0.1623  0.3114 -0.4814
  246MOL0     C33877   7.579  11.131  10.648  0.7780 -0.2781 -0.1905
  246MOL0     C33878   7.602  11.127  10.500 -0.4481  0.8434 -0.3880
  246MOL0     H33879   7.217  10.813  10.790 -1.6193  0.0578 -2.6040
  246MOL0     H33880   7.049  10.619  10.807  0.8260 -0.3926  2.7742
  246MOL0     H33881   6.911  10.504  10.623 -0.6018 -0.5185 -0.9635
  246MOL0     H33882   6.901  10.433  10.774 -0.7750  0.5027  0.0963
  246MOL0     H33883   6.864  10.203  10.691  1.5397 -0.6859 -0.9903
  246MOL0     H33884   6.743  10.318  10.619 -2.1095 -3.0613 -0.1718
  246MOL0     H33885   6.987  10.233  10.468  1.2316 -1.5804  2.7420
  246MOL0     H33886   6.829  10.130  10.466  0.0012 -0.4848 -2.0044
  246MOL0     H33887   6.708  10.318  10.378  0.1737  0.2352 -0.5179
  246MOL0     H33888   6.832  10.430  10.394  0.3121 -0.0586  0.6882
  246MOL0     H33889   6.849  10.181  10.213  2.0226  0.3655 -0.2433
  246MOL0     H33890   6.963  10.307  10.207  0.2963 -3.6248 -1.5152
  246MOL0     H33891   6.671  10.357  10.161 -0.4236  2.9875 -2.2642
  246MOL0     H33892   6.786  10.464  10.102 -3.0624  0.5247  0.9951
  246MOL0     H33893   6.723  10.329   9.914 -2.2418 -1.0162  0.5724
  246MOL0     H33894   6.747  10.172  10.003  0.6059 -0.2129  0.7213
  246MOL0     H33895   6.973  10.358   9.904  1.7825  0.5186  1.4621
  246MOL0     H33896   7.010  10.231  10.019  0.6735 -0.8150 -1.2751
  246MOL0     H33897   6.895  10.282   9.668 -0.1865  1.5570  2.4003
  246MOL0     H33898   6.851   9.923   9.525 -1.0778  0.0555  0.5448
  246MOL0     H33899   6.886  10.079   9.441 -2.2987  0.8044 -1.9505
  246MOL0     H33900   6.669  10.177   9.513 -0.7243  0.5749  0.0730
  246MOL0     H33901   6.635  10.039   9.407 -2.8533 -0.7475  2.2599
  246MOL0     H33902   6.633   9.912   9.644 -0.5432 -1.4350  0.8225
  246MOL0     H33903   6.596  10.074   9.692  1.2178  0.0801 -0.6698
  246MOL0     H33904   6.422  10.060   9.498 -0.7160  2.6705  2.6063
  246MOL0     H33905   6.449   9.890   9.493 -3.3431  0.0001  0.1791
  246MOL0     H33906   6.339  10.230   9.540  2.4774  0.3463  2.0323
  246MOL0     H33907   6.120  10.508   9.573 -2.1671 -1.5960  0.3157
  246MOL0     H33908   6.177  10.388   9.456 -1.4688 -2.0418  1.4561
  246MOL0     H33909   6.286  10.479   9.576  0.8099 -0.7062  0.4007
  246MOL0     H33910   5.758  10.608   9.655  0.4295  5.2283 -2.6201
  246MOL0     H33911   5.561  10.735   9.765  0.3423 -0.6448  0.2334
  246MOL0     H33912   5.492  10.686  10.096  1.0389 -0.1089 -1.5436
  246MOL0     H33913   5.536  10.817  10.183  0.1344 -0.0576 -0.0555
  246MOL0     H33914   5.274  10.808  10.155  1.0619  3.0059  2.4314
  246MOL0     H33915   5.342  10.950  10.076 -0.4093 -0.4310 -0.0685
  246MOL0     H33916   5.300  10.687   9.942  1.3946  0.2669  2.0144
  246MOL0     H33917   5.340  10.848   9.864  0.6202 -0.5663 -0.0530
  246MOL0     H33918   5.121  10.930   9.957 -0.2212  0.9176 -1.8964
  246MOL0     H33919   5.067  10.755   9.948 -1.3242  1.5684  0.9949
  246MOL0     H33920   5.185  10.914   9.728 -1.1510  0.9659 -1.1667
  246MOL0     H33921   5.117  10.753   9.712  1.0328  0.8719 -1.3617
  246MOL0     H33922   4.982  11.009   9.768  2.7479 -0.1373 -1.4827
  246MOL0     H33923   4.904  10.855   9.811 -0.7409  2.1615  0.5398
  246MOL0     H33924   4.903  10.808   9.569  2.4795  1.1927 -2.3697
  246MOL0     H33925   5.035  10.923   9.542  0.1055 -1.3557 -1.8194
  246MOL0     H33926   4.743  10.969   9.608 -1.6521 -0.6361 -1.0661
  246MOL0     H33927   4.816  10.997   9.444  3.3717  4.0993 -0.7337
  246MOL0     H33928   5.799  10.757  10.129 -1.3431  0.5880  1.0404
  246MOL0     H33929   5.958  10.602  10.032 -0.9369 -2.5431  0.7272
  246MOL0     H33930   6.009  10.141   9.892  2.0269 -1.2787  0.4787
  246MOL0     H33931   6.196   9.975   9.850  1.9409  0.0764 -1.0134
  246MOL0     H33932   7.306  10.388  10.557 -0.6530  0.3416 -0.5286
  246MOL0     H33933   7.474  10.581  10.533  0.2456  1.5854 -1.0924
  246MOL0     H33934   7.449  10.936  10.906  1.7477 -0.1369  1.8310
  246MOL0     H33935   7.543  11.118  11.044  2.7092 -1.3097  1.3726
  246MOL0     H33936   7.860  11.311  10.864 -2.9851 -2.3619 -0.4649
  246MOL0     H33937   7.794  11.471  10.909  2.7683  0.7648  1.1783
  246MOL0     H33938   7.881  11.414  11.135 -0.4699 -2.7349  1.1687
  246MOL0     H33939   7.987  11.407  10.994 -0.5571  2.3121  0.6325
  246MOL0     H33940   7.851  11.178  11.155  0.4687  0.4449  0.3136
  246MOL0     H33941   7.948  11.138  11.009  1.0608  0.0838 -1.0114
  246MOL0     H33942   8.074  11.097  11.195  0.3243  0.2707  0.9293
  246MOL0     H33943   8.029  11.242  11.274 -0.6691 -2.1697  1.4019
  246MOL0     H33944   8.367  11.322  11.008 -0.6140  2.4927 -0.8775
  246MOL0     H33945   7.708  11.299  10.702  0.9123 -1.5888 -3.1114
  246MOL0     H33946   7.515  11.174  10.453 -0.1109  1.3755 -0.4849
  246MOL0     H33947   7.698  11.174  10.478  0.4755 -0.8629 -0.1873
  246MOL0     H33948   7.621  11.026  10.463  1.3477  1.0656 -0.1687
  247MOL0     O33949   5.116   9.009   0.604  0.7197  0.0184 -0.0673
  247MOL0     C33950   5.237   9.040   0.588 -0.2353  0.0793 -0.0242
  247MOL0     O33951   5.279   9.150   0.531  0.1486 -0.6596  0.3947
  247MOL0     C33952   5.186   9.201   0.438  0.2531  0.0110 -0.2837
  247MOL0     C33953   5.143   9.133   0.331  0.5300  0.0074 -0.5408
  247MOL0     C33954   5.055   9.181   0.229 -0.1423 -0.4831 -0.0460
  247MOL0     C33955   5.005   9.313   0.242  0.0502  0.2250  0.0596
  247MOL0     O33956   4.908   9.372   0.158 -0.9599  0.1434 -0.1548
  247MOL0     C33957   4.833   9.298   0.058 -0.4011  0.0050 -0.8695
  247MOL0     C33958   4.792   9.369  -0.070 -0.0194  0.3607  0.7304
  247MOL0     C33959   4.741   9.511  -0.037  0.2870  0.3437  0.4687
  247MOL0     C33960   4.701   9.601  -0.161 -0.5228 -0.3594  0.4805
  247MOL0     C33961   4.664   9.747  -0.121  0.2658 -0.1720 -0.6292
  247MOL0     C33962   4.617   9.833  -0.239 -0.4021 -0.6039 -0.0773
  247MOL0     C33963   4.731   9.847  -0.348  0.2734  0.0985 -1.0041
  247MOL0     C33964   4.666   9.895  -0.480 -0.2260 -0.9629  0.4931
  247MOL0     N33965   4.764   9.915  -0.583  0.9869  0.2085  1.1451
  247MOL0     C33966   4.806   9.815  -0.670  0.1827 -0.7492 -0.6541
  247MOL0     C33967   4.873   9.882  -0.763 -0.7963 -0.4972  1.4605
  247MOL0     C33968   4.931   9.815  -0.885  0.2826  0.4678  0.1020
  247MOL0     C33969   5.039   9.701  -0.870 -1.1744 -0.3854 -0.2875
  247MOL0     C33970   5.167   9.760  -0.797  0.8642 -0.4906  0.8856
  247MOL0     C33971   5.268   9.648  -0.767  0.6549  0.1027  0.0755
  247MOL0     O33972   5.216   9.572  -0.659  0.1430  0.5671 -0.2695
  247MOL0     C33973   5.255   9.442  -0.653 -0.5065 -0.4124 -0.7348
  247MOL0     C33974   5.386   9.400  -0.619  0.5670 -0.1853 -0.4074
  247MOL0     C33975   5.423   9.270  -0.615 -0.4331 -0.2849  0.4316
  247MOL0     C33976   5.570   9.235  -0.603 -0.9194  0.8127  0.5058
  247MOL0     C33977   5.330   9.173  -0.644  0.3981 -0.1988  1.3333
  247MOL0     C33978   5.364   9.031  -0.653  0.4891  0.0078  0.7660
  247MOL0     O33979   5.286   8.945  -0.588  0.9400 -0.0577  0.7056
  247MOL0     C33980   5.307   8.813  -0.577 -0.1976  0.2799 -0.0767
  247MOL0     C33981   5.245   8.762  -0.457  0.3335 -0.5790 -0.3750
  247MOL0     C33982   5.238   8.619  -0.444 -0.4233 -0.2064  0.3162
  247MOL0     C33983   5.283   8.533  -0.543 -0.1296 -0.1426  0.5483
  247MOL0     O33984   5.252   8.400  -0.531 -0.8827  0.0323 -0.1695
  247MOL0     C33985   5.343   8.325  -0.442 -0.1025 -0.5273  0.5238
  247MOL0     C33986   5.452   8.254  -0.521 -0.1549  0.0081 -0.3398
  247MOL0     C33987   5.578   8.343  -0.554 -0.1166  0.3667  0.6142
  247MOL0     C33988   5.680   8.253  -0.630 -0.5602  0.6860 -0.2035
  247MOL0     C33989   5.799   8.330  -0.688  0.1077 -0.0875 -0.0243
  247MOL0     C33990   5.747   8.413  -0.806 -0.0937 -0.8713  0.8311
  247MOL0     C33991   5.660   8.344  -0.916 -0.1759 -0.3968 -1.1514
  247MOL0     C33992   5.649   8.434  -1.034  0.2553  0.6725 -0.8205
  247MOL0    Cl33993   5.522   8.552  -0.991  0.3850 -0.1379 -0.2116
  247MOL0     C33994   5.347   8.590  -0.660 -0.1737 -0.0312 -0.9800
  247MOL0     C33995   5.362   8.726  -0.673  0.4859 -0.9575 -0.8309
  247MOL0     O33996   5.462   9.002  -0.725  0.4959 -0.4655  0.4752
  247MOL0     C33997   5.194   9.212  -0.660  0.6071 -0.2324  0.1058
  247MOL0     C33998   5.154   9.349  -0.675 -0.0053  0.4943  0.7282
  247MOL0     N33999   4.866  10.021  -0.747 -0.0444  0.1490 -0.3131
  247MOL0     N34000   4.802  10.036  -0.636  0.0650  0.6259 -0.8718
  247MOL0     C34001   5.044   9.389   0.352  0.7234  0.1599  0.0842
  247MOL0     C34002   5.143   9.333   0.437 -0.7468 -0.7872 -0.1609
  247MOL0     C34003   5.340   8.954   0.652 -0.1835 -0.6280  0.0979
  247MOL0     C34004   5.470   9.001   0.663  0.6219 -1.0191  0.4865
  247MOL0     C34005   5.575   8.938   0.744 -0.6756  0.7261 -0.3692
  247MOL0     C34006   5.537   8.825   0.816 -0.9436 -0.6032  0.4194
  247MOL0     O34007   5.623   8.744   0.874  0.5723  0.4382  0.5607
  247MOL0     C34008   5.730   8.797   0.952  0.3828 -0.4807  0.5051
  247MOL0     C34009   5.872   8.792   0.889  0.0231 -0.6104  0.0200
  247MOL0     C34010   5.893   8.648   0.827 -0.2613  0.1123  0.5338
  247MOL0     C34011   6.002   8.641   0.714  0.4441  0.0624 -0.4162
  247MOL0     C34012   6.143   8.662   0.764  0.0887 -0.5634  0.5534
  247MOL0     C34013   6.259   8.686   0.798 -0.2134  0.3140  0.6542
  247MOL0     C34014   5.408   8.783   0.810 -0.4548 -0.4007 -0.3823
  247MOL0     C34015   5.315   8.829   0.714 -0.3651  0.3262 -1.2996
  247MOL0     C34016   5.185   8.758   0.711 -0.2748  0.4299  0.5427
  247MOL0     H34017   5.172   9.032   0.302  0.0822 -0.4334  0.5227
  247MOL0     H34018   5.039   9.126   0.137 -0.9999  1.3596 -1.0463
  247MOL0     H34019   4.750   9.268   0.122  0.0990  1.7340  0.6681
  247MOL0     H34020   4.871   9.201   0.022 -0.8972  0.1265 -1.7432
  247MOL0     H34021   4.867   9.372  -0.150 -0.3357  0.7422  0.4438
  247MOL0     H34022   4.707   9.315  -0.113 -1.7628  2.4682  1.3891
  247MOL0     H34023   4.647   9.504   0.019  0.6708 -2.0447  0.8898
  247MOL0     H34024   4.807   9.578   0.020 -1.5887  0.3650  2.7944
  247MOL0     H34025   4.784   9.584  -0.231 -1.8544  1.8278 -1.8141
  247MOL0     H34026   4.607   9.560  -0.200 -0.3308 -0.2915 -0.0646
  247MOL0     H34027   4.747   9.798  -0.072 -1.4197  1.0352  1.0946
  247MOL0     H34028   4.580   9.743  -0.051  1.5523  1.7523  1.1292
  247MOL0     H34029   4.538   9.772  -0.282 -0.5552  0.5851 -1.5669
  247MOL0     H34030   4.581   9.932  -0.210  0.3541 -0.7444  1.4724
  247MOL0     H34031   4.787   9.756  -0.374  0.3380  0.2981 -1.5814
  247MOL0     H34032   4.801   9.926  -0.320  0.7863 -0.3421 -1.0262
  247MOL0     H34033   4.592   9.821  -0.514  0.0437 -0.6445 -0.8554
  247MOL0     H34034   4.609   9.987  -0.477 -0.6657 -1.2560  1.6500
  247MOL0     H34035   4.781   9.709  -0.665  0.3353 -0.7699 -0.2711
  247MOL0     H34036   4.968   9.892  -0.953  0.6100 -0.2768 -0.5724
  247MOL0     H34037   4.844   9.768  -0.931  2.3894 -2.4435 -1.1700
  247MOL0     H34038   4.980   9.634  -0.807  0.5013  1.6872  3.8619
  247MOL0     H34039   5.063   9.658  -0.968  1.0480  1.5461 -0.6759
  247MOL0     H34040   5.218   9.830  -0.864  1.0608  2.8958  4.2414
  247MOL0     H34041   5.141   9.813  -0.705 -1.3144 -0.7969  0.5023
  247MOL0     H34042   5.284   9.586  -0.855 -4.5559  0.3932 -1.3789
  247MOL0     H34043   5.359   9.697  -0.730 -0.4795  1.7692  0.8300
  247MOL0     H34044   5.467   9.469  -0.594  1.0702 -1.4659  1.6911
  247MOL0     H34045   5.580   9.142  -0.546 -2.8760  0.1146 -0.1921
  247MOL0     H34046   5.619   9.303  -0.532 -2.6654 -0.6471  3.3175
  247MOL0     H34047   5.619   9.233  -0.700 -1.0107 -0.4613  0.4716
  247MOL0     H34048   5.204   8.836  -0.388 -0.4007  0.6005 -2.0040
  247MOL0     H34049   5.167   8.578  -0.373 -0.9945 -1.9464 -1.1610
  247MOL0     H34050   5.383   8.389  -0.362 -0.1341  4.0154 -2.6925
  247MOL0     H34051   5.275   8.261  -0.385 -2.4803  0.4041 -1.1114
  247MOL0     H34052   5.505   8.180  -0.460 -1.7585 -0.6140  0.3544
  247MOL0     H34053   5.411   8.226  -0.619  2.7615 -1.2153 -1.3126
  247MOL0     H34054   5.631   8.370  -0.463 -2.6731 -0.2869  2.3965
  247MOL0     H34055   5.543   8.426  -0.616 -2.0266  0.5197  1.8187
  247MOL0     H34056   5.644   8.197  -0.716  0.3393 -0.8327  0.3604
  247MOL0     H34057   5.708   8.175  -0.558 -1.8149  0.0618 -0.3729
  247MOL0     H34058   5.846   8.384  -0.605  0.1083  0.3294 -0.2916
  247MOL0     H34059   5.866   8.255  -0.731  0.0894  0.0926 -0.3716
  247MOL0     H34060   5.825   8.459  -0.867 -0.9388 -0.3534  0.1137
  247MOL0     H34061   5.705   8.506  -0.767 -1.2453  0.2822 -2.7418
  247MOL0     H34062   5.560   8.325  -0.875  0.0232  1.4511  0.3522
  247MOL0     H34063   5.715   8.252  -0.936 -0.9204 -0.7779 -1.5039
  247MOL0     H34064   5.628   8.378  -1.126  1.4413  3.2625 -2.8106
  247MOL0     H34065   5.747   8.472  -1.067  1.6137 -0.7550  1.2987
  247MOL0     H34066   5.401   8.523  -0.725  4.4623  2.8682 -0.5659
  247MOL0     H34067   5.406   8.771  -0.762 -0.6801  0.5045 -0.7148
  247MOL0     H34068   5.123   9.134  -0.686  0.7891 -1.0027  1.8325
  247MOL0     H34069   5.051   9.372  -0.699  0.1558 -1.5107 -2.5163
  247MOL0     H34070   5.030   9.495   0.368 -0.2107 -0.3247  3.2639
  247MOL0     H34071   5.178   9.397   0.518 -1.1863  1.8574 -1.9609
  247MOL0     H34072   5.487   9.098   0.617 -0.7652 -0.6920  0.6166
  247MOL0     H34073   5.678   8.973   0.752  0.3590 -2.2201  0.3561
  247MOL0     H34074   5.710   8.899   0.985 -0.2145 -1.2232  2.6412
  247MOL0     H34075   5.742   8.739   1.044  3.0480 -0.0344  0.5058
  247MOL0     H34076   5.950   8.812   0.963 -2.1576 -0.8714  2.4924
  247MOL0     H34077   5.884   8.868   0.811  1.5492 -1.0976 -0.2620
  247MOL0     H34078   5.938   8.586   0.905  3.5394 -0.1565 -1.6305
  247MOL0     H34079   5.802   8.601   0.787  1.9831 -3.0011 -1.3132
  247MOL0     H34080   5.982   8.721   0.642  0.4006  3.1247  2.7773
  247MOL0     H34081   6.000   8.547   0.658  1.6538  0.0520 -0.4713
  247MOL0     H34082   6.362   8.699   0.825  0.2891  1.5892 -1.6283
  247MOL0     H34083   5.379   8.705   0.878  2.6619  0.0149  1.6203
  247MOL0     H34084   5.202   8.662   0.762 -1.4496  0.5296  1.1563
  247MOL0     H34085   5.109   8.825   0.751  0.5031  0.8438  1.3686
  247MOL0     H34086   5.167   8.732   0.607  0.5836  2.4878 -0.1786
  248MOL0     O34087   5.569   5.617   2.285 -1.0943  0.6610 -0.5863
  248MOL0     C34088   5.457   5.595   2.223 -0.0857  0.7477 -0.0570
  248MOL0     O34089   5.441   5.613   2.082 -0.4224  0.1592 -0.7118
  248MOL0     C34090   5.523   5.697   2.017 -0.4167 -0.3418 -0.5018
  248MOL0     C34091   5.490   5.828   2.008 -0.2886 -0.5984 -0.9927
  248MOL0     C34092   5.564   5.909   1.916 -0.7086 -0.1959 -0.3771
  248MOL0     C34093   5.668   5.853   1.838 -0.4903 -0.5583 -0.4234
  248MOL0     O34094   5.738   5.932   1.753  0.1542  0.5932  0.2462
  248MOL0     C34095   5.665   5.967   1.630  0.0491 -0.6844  0.0556
  248MOL0     C34096   5.758   6.043   1.531  0.1949  0.5367  1.2340
  248MOL0     C34097   5.683   6.074   1.403  0.6502  0.1866  1.2655
  248MOL0     C34098   5.603   6.202   1.401 -0.3042 -0.3357 -0.0576
  248MOL0     C34099   5.494   6.197   1.294 -1.1097  0.4666  0.2986
  248MOL0     C34100   5.407   6.333   1.313  0.2231  0.1268 -0.7385
  248MOL0     C34101   5.320   6.351   1.194 -0.6670 -0.0447  0.1260
  248MOL0     C34102   5.206   6.257   1.175  1.1937 -1.0713  0.6429
  248MOL0     N34103   5.080   6.316   1.236  1.4990 -0.4264 -0.3439
  248MOL0     C34104   5.048   6.316   1.369 -0.1495  0.0733 -0.8263
  248MOL0     C34105   4.921   6.364   1.372  0.4144  0.3448  0.0437
  248MOL0     C34106   4.838   6.380   1.494 -0.5019  0.1259 -0.3392
  248MOL0     C34107   4.694   6.413   1.466  1.0464  0.3201 -0.0674
  248MOL0     C34108   4.665   6.561   1.425  0.7562  0.0073  0.9866
  248MOL0     C34109   4.510   6.596   1.420 -0.1137  0.2410 -0.3865
  248MOL0     O34110   4.446   6.603   1.552 -0.4180  0.2428  0.0624
  248MOL0     C34111   4.316   6.649   1.552  0.4712  0.2543  0.2986
  248MOL0     C34112   4.237   6.672   1.436 -0.3365  0.0136  0.5104
  248MOL0     C34113   4.111   6.728   1.429  0.0306 -0.4470 -0.7132
  248MOL0     C34114   4.059   6.774   1.294 -0.1838  1.0801 -0.2928
  248MOL0     C34115   4.053   6.762   1.556 -0.7316  0.4473 -0.2245
  248MOL0     C34116   3.924   6.835   1.569 -0.4546 -0.4833  0.2610
  248MOL0     O34117   3.898   6.906   1.676 -0.4062  0.0095 -0.9882
  248MOL0     C34118   3.765   6.927   1.695 -0.1877 -0.4790 -0.4750
  248MOL0     C34119   3.707   6.830   1.773  0.1502 -0.4072  0.1042
  248MOL0     C34120   3.576   6.839   1.818  0.5119 -0.7592 -0.2088
  248MOL0     C34121   3.501   6.953   1.787 -0.7211 -0.2854 -0.2128
  248MOL0     O34122   3.381   6.965   1.842 -0.8392 -0.2180  0.2529
  248MOL0     C34123   3.284   7.057   1.792  0.0633 -0.6293  0.6345
  248MOL0     C34124   3.158   7.030   1.866 -0.0449 -0.8611 -0.0663
  248MOL0     C34125   3.048   7.134   1.860  0.7730  0.4995 -0.1045
  248MOL0     C34126   2.908   7.075   1.908  0.8584  0.8672  0.3330
  248MOL0     C34127   2.787   7.164   1.876  0.2066  0.2121 -0.5546
  248MOL0     C34128   2.772   7.168   1.716 -0.2193 -0.0705 -0.7215
  248MOL0     C34129   2.634   7.177   1.663  0.3445 -0.8034  0.1730
  248MOL0     C34130   2.607   7.135   1.510  0.3698  0.0146  0.5021
  248MOL0    Cl34131   2.439   7.168   1.465 -0.3203  0.0238  0.5163
  248MOL0     C34132   3.562   7.054   1.704 -0.5245 -0.6331 -0.2854
  248MOL0     C34133   3.694   7.037   1.652  0.0848  0.3644 -0.1753
  248MOL0     O34134   3.839   6.818   1.475 -0.3781  0.0466 -0.9890
  248MOL0     C34135   4.122   6.735   1.675 -0.7796 -0.2336  0.3686
  248MOL0     C34136   4.248   6.673   1.668  0.1132  0.4771  0.0292
  248MOL0     N34137   4.879   6.387   1.241 -0.4715  0.1800  0.9959
  248MOL0     N34138   4.977   6.359   1.165 -0.0113 -0.7911 -0.3620
  248MOL0     C34139   5.707   5.723   1.852 -0.1436  0.5485  0.8382
  248MOL0     C34140   5.632   5.650   1.945 -0.5961  0.5686 -0.9968
  248MOL0     C34141   5.351   5.524   2.289 -0.2814 -0.2268  0.4334
  248MOL0     C34142   5.373   5.438   2.396  0.5605 -0.1122  0.3019
  248MOL0     C34143   5.271   5.359   2.441 -0.9459  0.0943  0.9012
  248MOL0     C34144   5.137   5.377   2.407  0.0623  0.3064 -0.5198
  248MOL0     O34145   5.044   5.303   2.476 -0.1086 -0.0309 -0.2902
  248MOL0     C34146   4.905   5.342   2.474  0.4048  0.1611 -0.5409
  248MOL0     C34147   4.815   5.223   2.507  0.5290 -0.1540 -0.7127
  248MOL0     C34148   4.659   5.250   2.511 -0.9213 -1.0029  0.3934
  248MOL0     C34149   4.602   5.112   2.529  0.2869  0.1469  0.0469
  248MOL0     C34150   4.458   5.116   2.536  0.5595  0.5603  0.0242
  248MOL0     C34151   4.342   5.106   2.513  1.0891  0.0650  0.1364
  248MOL0     C34152   5.114   5.465   2.308  0.9819  0.7343  0.4321
  248MOL0     C34153   5.219   5.538   2.237  1.4482 -0.3804  0.2214
  248MOL0     C34154   5.169   5.634   2.129  0.3081  0.2366 -0.0771
  248MOL0     H34155   5.407   5.871   2.063 -1.5226 -2.6401 -1.1692
  248MOL0     H34156   5.536   6.010   1.886  1.3243 -0.0843 -2.1608
  248MOL0     H34157   5.583   6.038   1.648  0.0794 -1.2281  2.7975
  248MOL0     H34158   5.631   5.874   1.584  0.5120 -0.6259 -0.4211
  248MOL0     H34159   5.801   6.132   1.576  1.5867  0.1642  0.6982
  248MOL0     H34160   5.843   5.988   1.488 -0.3976  0.8944 -0.4820
  248MOL0     H34161   5.760   6.081   1.325  1.4099  1.9013  2.1062
  248MOL0     H34162   5.611   5.993   1.387  0.5061  0.0952  2.3187
  248MOL0     H34163   5.563   6.221   1.501 -0.2838 -2.1684  0.3412
  248MOL0     H34164   5.670   6.287   1.387  1.6117 -1.7828 -0.0520
  248MOL0     H34165   5.445   6.100   1.286  3.4030 -1.9617 -2.4735
  248MOL0     H34166   5.553   6.200   1.202  1.3064 -0.7762  1.7059
  248MOL0     H34167   5.344   6.325   1.402 -0.5030 -0.7212 -1.3083
  248MOL0     H34168   5.480   6.413   1.325  1.7023 -0.8916 -2.4534
  248MOL0     H34169   5.379   6.357   1.102 -1.5912 -2.0029 -0.6447
  248MOL0     H34170   5.275   6.451   1.199  1.4299  1.1172 -2.1093
  248MOL0     H34171   5.183   6.238   1.070  3.3158 -2.9927  0.4341
  248MOL0     H34172   5.226   6.159   1.220  1.3584 -0.9797  0.7687
  248MOL0     H34173   5.117   6.281   1.446  1.0120 -0.3405 -2.0150
  248MOL0     H34174   4.873   6.461   1.558 -2.9529  0.1109  1.1437
  248MOL0     H34175   4.839   6.291   1.558 -0.3010  0.5957  0.3230
  248MOL0     H34176   4.651   6.356   1.384 -0.7685  3.0830 -1.1833
  248MOL0     H34177   4.638   6.399   1.559  1.5402  3.1554  0.7710
  248MOL0     H34178   4.721   6.633   1.486  0.2823  1.1992  0.0579
  248MOL0     H34179   4.695   6.570   1.320 -1.6408  1.9520  0.3932
  248MOL0     H34180   4.506   6.696   1.377  1.5490  0.6666  0.3465
  248MOL0     H34181   4.455   6.525   1.358 -0.3944  0.6660 -0.6273
  248MOL0     H34182   4.271   6.641   1.338  1.4396 -2.3076  1.7605
  248MOL0     H34183   4.002   6.865   1.313 -2.5705 -0.6914  1.6850
  248MOL0     H34184   3.988   6.701   1.253 -0.3346  0.5948  0.7972
  248MOL0     H34185   4.147   6.800   1.234  0.8437  2.2533  1.5933
  248MOL0     H34186   3.775   6.755   1.811  0.1963 -0.2208  0.3950
  248MOL0     H34187   3.531   6.753   1.867 -0.3649  0.6579  1.6215
  248MOL0     H34188   3.322   7.159   1.803  0.6772 -0.6510 -1.1308
  248MOL0     H34189   3.265   7.038   1.686 -0.7283 -0.3194  0.7062
  248MOL0     H34190   3.112   6.942   1.822  1.5357 -2.5049  1.4334
  248MOL0     H34191   3.182   7.022   1.973  1.6320 -1.4058 -0.4543
  248MOL0     H34192   3.044   7.165   1.756  2.3200  1.1440  0.0029
  248MOL0     H34193   3.076   7.223   1.916  2.5122 -1.0839  1.7094
  248MOL0     H34194   2.907   7.050   2.014 -1.6879 -1.8037 -0.2077
  248MOL0     H34195   2.904   6.973   1.870  6.4488 -1.1304  3.8159
  248MOL0     H34196   2.697   7.110   1.905 -0.5925  1.0884 -1.3253
  248MOL0     H34197   2.798   7.262   1.923 -0.7396  1.0177 -1.9316
  248MOL0     H34198   2.817   7.081   1.667  0.2476  1.4351 -3.1373
  248MOL0     H34199   2.822   7.257   1.678 -3.4937  1.9076 -0.7790
  248MOL0     H34200   2.592   7.276   1.682  0.0023 -0.6748 -1.1485
  248MOL0     H34201   2.577   7.123   1.739  1.0592  0.0600  1.3646
  248MOL0     H34202   2.609   7.028   1.491 -3.0611 -0.0786  0.1601
  248MOL0     H34203   2.684   7.182   1.447  0.8175  0.1155  1.1213
  248MOL0     H34204   3.511   7.144   1.673 -0.0311  1.2368  3.7112
  248MOL0     H34205   3.736   7.110   1.584 -1.9761 -0.2818 -2.2617
  248MOL0     H34206   4.072   6.760   1.768  1.0010  2.2988  0.7416
  248MOL0     H34207   4.292   6.642   1.761 -0.1874  0.7797  0.2790
  248MOL0     H34208   5.780   5.665   1.797  3.0424  3.0026  2.1652
  248MOL0     H34209   5.643   5.542   1.949  0.0143  0.6459 -0.3672
  248MOL0     H34210   5.475   5.420   2.430  1.8917  3.6313 -1.1231
  248MOL0     H34211   5.297   5.294   2.524  1.0692  2.1415  1.9948
  248MOL0     H34212   4.887   5.430   2.536  1.1885  0.4688 -0.7369
  248MOL0     H34213   4.878   5.366   2.371 -2.1848 -1.7818 -0.4317
  248MOL0     H34214   4.842   5.173   2.601 -3.7386  0.6171  1.1536
  248MOL0     H34215   4.828   5.144   2.432 -0.9966 -1.4244  0.2816
  248MOL0     H34216   4.643   5.321   2.593 -2.7213 -0.0318 -0.7603
  248MOL0     H34217   4.616   5.287   2.418 -0.8592 -2.7849 -0.3733
  248MOL0     H34218   4.641   5.060   2.617  0.1519 -1.8687 -1.0242
  248MOL0     H34219   4.636   5.049   2.447 -0.0817  0.5188 -0.3993
  248MOL0     H34220   4.245   5.079   2.475  0.7452  1.7577 -0.2655
  248MOL0     H34221   5.016   5.473   2.262  1.4356 -0.0119 -0.7007
  248MOL0     H34222   5.163   5.590   2.029  2.4297  2.5566 -1.3398
  248MOL0     H34223   5.075   5.679   2.164  0.7405 -1.0574  2.9974
  248MOL0     H34224   5.244   5.712   2.117  1.0148 -0.4693 -0.3172
  249MOL0     O34225   7.952   1.266   4.274  0.2543 -0.0378  0.4786
  249MOL0     C34226   8.005   1.164   4.237  0.0805 -0.0772  0.8216
  249MOL0     O34227   8.089   1.086   4.313 -0.6073  0.2375 -0.4307
  249MOL0     C34228   8.127   1.130   4.440 -0.4254  0.3743 -0.8900
  249MOL0     C34229   8.258   1.123   4.462 -0.6022 -1.1576 -0.3341
  249MOL0     C34230   8.309   1.188   4.584  0.2801 -0.2209  0.5457
  249MOL0     C34231   8.227   1.243   4.673 -0.1218 -0.1090 -0.1823
  249MOL0     O34232   8.293   1.278   4.786  0.2027  0.3955 -0.6655
  249MOL0     C34233   8.219   1.274   4.915 -0.3346 -0.0853 -0.2992
  249MOL0     C34234   8.228   1.134   4.965  0.7248 -0.1044 -0.9224
  249MOL0     C34235   8.365   1.083   5.010  0.2964 -0.8012  0.1384
  249MOL0     C34236   8.423   1.175   5.124  0.1403  0.1064 -0.2867
  249MOL0     C34237   8.554   1.120   5.195  0.9270 -0.2011 -0.9294
  249MOL0     C34238   8.679   1.113   5.109 -0.0282  0.5873 -1.1314
  249MOL0     C34239   8.724   1.250   5.057  0.7575 -0.7652  0.1827
  249MOL0     C34240   8.867   1.242   4.984  0.0667  0.2034  0.9222
  249MOL0     N34241   8.865   1.147   4.865  0.2301  0.3949 -0.2853
  249MOL0     C34242   8.760   1.121   4.772 -0.0539 -0.5612  0.3816
  249MOL0     C34243   8.795   1.017   4.703 -0.8651  0.1170 -0.9922
  249MOL0     C34244   8.728   0.982   4.575  0.0506 -0.3214  0.1482
  249MOL0     C34245   8.631   0.867   4.592  0.4521  0.0456  0.6502
  249MOL0     C34246   8.600   0.789   4.464 -0.6217 -0.3373  0.4341
  249MOL0     C34247   8.499   0.674   4.497 -0.6111  0.1170  0.0299
  249MOL0     O34248   8.544   0.574   4.583  0.4093  0.7002  0.3556
  249MOL0     C34249   8.625   0.480   4.522  0.6500  0.2157 -0.0274
  249MOL0     C34250   8.757   0.502   4.499 -0.4664 -0.1189  0.2160
  249MOL0     C34251   8.843   0.406   4.440 -0.1274 -0.0229  0.2448
  249MOL0     C34252   8.993   0.448   4.412  0.4470 -1.0415 -0.3059
  249MOL0     C34253   8.785   0.283   4.405  0.2341  0.2428  0.7068
  249MOL0     C34254   8.851   0.166   4.332  0.2621  0.5824 -0.9805
  249MOL0     O34255   8.959   0.182   4.259  0.1501 -0.7528 -0.6070
  249MOL0     C34256   9.036   0.078   4.203 -0.1317  0.6148 -0.7607
  249MOL0     C34257   9.061  -0.031   4.282  0.1677  0.0753  0.8406
  249MOL0     C34258   9.126  -0.139   4.224  1.1937  0.8325  0.3701
  249MOL0     C34259   9.159  -0.154   4.094  0.1367 -0.0148 -0.4040
  249MOL0     O34260   9.229  -0.260   4.042  0.4105 -0.6257  0.5483
  249MOL0     C34261   9.307  -0.343   4.129  0.5209  0.0176  0.2387
  249MOL0     C34262   9.366  -0.449   4.030 -0.8235  0.0085 -0.0298
  249MOL0     C34263   9.441  -0.390   3.906 -0.7007  0.0341  0.4415
  249MOL0     C34264   9.599  -0.394   3.921  0.2660 -1.1192 -0.9697
  249MOL0     C34265   9.678  -0.521   3.888  0.2231 -0.2098 -0.2729
  249MOL0     C34266   9.671  -0.564   3.748 -0.0153  0.0887  0.5584
  249MOL0     C34267   9.782  -0.672   3.718  0.7416 -0.3448  1.1546
  249MOL0     C34268   9.811  -0.664   3.566  0.1716 -0.2584 -0.8530
  249MOL0    Cl34269   9.698  -0.737   3.464 -0.0662 -0.1454  0.1777
  249MOL0     C34270   9.126  -0.042   4.009 -0.2143  0.2099  0.5737
  249MOL0     C34271   9.075   0.073   4.066  0.0478 -0.7719  0.3301
  249MOL0     O34272   8.801   0.054   4.348  0.1245 -0.3424  0.6705
  249MOL0     C34273   8.644   0.263   4.444  0.3503 -0.3833  0.0857
  249MOL0     C34274   8.565   0.357   4.499  0.4265  0.4575  0.7247
  249MOL0     N34275   8.910   0.961   4.767  0.8716 -0.6678 -0.1145
  249MOL0     N34276   8.946   1.036   4.875  0.0225 -0.6034 -0.5027
  249MOL0     C34277   8.085   1.260   4.645 -0.9053 -0.1045 -0.6161
  249MOL0     C34278   8.036   1.203   4.531  1.3961 -0.2680 -0.2725
  249MOL0     C34279   7.963   1.116   4.101 -0.1938  0.0750 -0.9921
  249MOL0     C34280   7.941   1.208   4.001  0.2600 -0.0384  0.3627
  249MOL0     C34281   7.922   1.166   3.868 -0.2258  0.2258 -0.0650
  249MOL0     C34282   7.901   1.031   3.826  0.3002 -0.4242  0.2501
  249MOL0     O34283   7.886   0.985   3.696  0.9209  0.0714 -0.3281
  249MOL0     C34284   7.850   1.078   3.591  0.6063 -0.4937  0.6462
  249MOL0     C34285   7.861   1.015   3.453  0.5215 -0.2317  0.5935
  249MOL0     C34286   7.742   0.905   3.433 -0.3517  0.5862 -0.2800
  249MOL0     C34287   7.615   0.932   3.347 -1.5277  0.6975 -1.6088
  249MOL0     C34288   7.655   0.980   3.211  0.2158 -0.1293  0.6177
  249MOL0     C34289   7.676   1.026   3.093 -0.0817  1.8029  0.5690
  249MOL0     C34290   7.913   0.941   3.931 -0.9007 -0.0405  0.1952
  249MOL0     C34291   7.952   0.973   4.063  0.0565 -0.5749  0.1898
  249MOL0     C34292   7.962   0.859   4.162  0.2739 -0.4298 -0.2390
  249MOL0     H34293   8.322   1.073   4.391  0.5896 -0.9263  0.5362
  249MOL0     H34294   8.414   1.173   4.606  0.1014  1.4720  2.9424
  249MOL0     H34295   8.114   1.300   4.902  0.4532  2.0509 -3.7439
  249MOL0     H34296   8.267   1.346   4.982 -0.1617  0.2074 -0.7286
  249MOL0     H34297   8.158   1.118   5.048  4.1538  1.1601  2.5634
  249MOL0     H34298   8.208   1.061   4.886  0.7659 -2.5539  1.1906
  249MOL0     H34299   8.347   0.976   5.024 -0.9725 -0.8197 -1.3903
  249MOL0     H34300   8.434   1.080   4.925  3.4430 -2.4314  2.5648
  249MOL0     H34301   8.444   1.274   5.083 -0.0876  0.6782  0.9463
  249MOL0     H34302   8.338   1.188   5.192  0.1380  1.2372 -0.4879
  249MOL0     H34303   8.538   1.023   5.244  3.8369 -0.2164  0.1876
  249MOL0     H34304   8.574   1.187   5.278  3.0821 -2.6273  0.6448
  249MOL0     H34305   8.748   1.057   5.172 -2.1299 -1.8610 -0.8131
  249MOL0     H34306   8.665   1.059   5.015  0.3394  2.8294 -2.5548
  249MOL0     H34307   8.714   1.325   5.136  0.3425 -0.8501  0.2138
  249MOL0     H34308   8.646   1.289   4.992 -2.9251 -0.1140  4.5366
  249MOL0     H34309   8.894   1.343   4.953  0.9010 -0.7536 -1.8080
  249MOL0     H34310   8.943   1.208   5.054 -0.2170 -2.2492  0.1382
  249MOL0     H34311   8.689   1.199   4.747 -0.1487 -1.2576 -1.7424
  249MOL0     H34312   8.799   0.945   4.500 -0.7665  0.8471 -1.2610
  249MOL0     H34313   8.668   1.064   4.536 -1.2645 -2.1762 -1.9730
  249MOL0     H34314   8.666   0.791   4.663 -0.1950  0.4751  1.4592
  249MOL0     H34315   8.536   0.911   4.624 -1.4017 -1.6461 -2.0860
  249MOL0     H34316   8.551   0.850   4.387 -0.7884 -1.0657 -0.0523
  249MOL0     H34317   8.694   0.748   4.425 -0.4262 -0.2444  0.8073
  249MOL0     H34318   8.407   0.726   4.525 -0.8239  2.5071 -4.2304
  249MOL0     H34319   8.492   0.631   4.397  1.9945  1.8099 -1.0008
  249MOL0     H34320   8.802   0.597   4.528 -3.2266  1.8809 -1.5700
  249MOL0     H34321   9.064   0.371   4.442 -0.1077 -1.5571 -0.2830
  249MOL0     H34322   9.007   0.543   4.465  1.4719 -2.9665  3.1819
  249MOL0     H34323   9.016   0.473   4.308  2.3751 -1.5828 -0.0471
  249MOL0     H34324   9.021  -0.042   4.382 -3.3478 -2.3697 -0.6241
  249MOL0     H34325   9.143  -0.226   4.288  0.6623 -1.2825 -2.1841
  249MOL0     H34326   9.373  -0.285   4.193  0.2838  1.2359 -0.5935
  249MOL0     H34327   9.239  -0.402   4.192 -0.2127  0.8685  0.2602
  249MOL0     H34328   9.429  -0.523   4.082 -2.0382  1.8289  4.5524
  249MOL0     H34329   9.273  -0.500   4.006  0.7855 -2.2410 -1.9119
  249MOL0     H34330   9.409  -0.288   3.885 -0.7284  0.0568  0.5930
  249MOL0     H34331   9.413  -0.443   3.814 -1.2304 -2.7118  2.0671
  249MOL0     H34332   9.626  -0.354   4.019 -1.7797  2.9624 -1.8451
  249MOL0     H34333   9.631  -0.312   3.856  0.1444  0.0348  0.4014
  249MOL0     H34334   9.783  -0.491   3.900 -0.0882  0.6850  0.2342
  249MOL0     H34335   9.667  -0.606   3.956  1.4386 -0.1763 -0.0104
  249MOL0     H34336   9.717  -0.476   3.700  0.9003 -0.0741  1.1165
  249MOL0     H34337   9.574  -0.597   3.709  1.0973 -3.0651  0.2077
  249MOL0     H34338   9.747  -0.774   3.733 -4.7026  0.4242 -3.1133
  249MOL0     H34339   9.881  -0.653   3.761  1.5217  1.5459 -1.2394
  249MOL0     H34340   9.912  -0.701   3.548 -0.1727 -1.4367 -0.4623
  249MOL0     H34341   9.822  -0.562   3.527 -1.0228  0.0441 -0.4708
  249MOL0     H34342   9.146  -0.043   3.902 -2.2965  2.1362  0.0853
  249MOL0     H34343   9.054   0.156   3.999 -3.8930  1.6605  4.1114
  249MOL0     H34344   8.605   0.163   4.429 -1.9969 -0.1643  3.4385
  249MOL0     H34345   8.458   0.358   4.515  0.1247  0.6233 -1.0472
  249MOL0     H34346   8.024   1.308   4.720 -0.5498  2.7937 -2.0487
  249MOL0     H34347   7.929   1.215   4.517  1.4021  0.1023 -0.0011
  249MOL0     H34348   7.951   1.315   4.016  0.9388  0.0837 -0.8382
  249MOL0     H34349   7.921   1.246   3.795  2.0995 -0.2881 -0.7767
  249MOL0     H34350   7.747   1.113   3.595  1.4260  2.5837 -1.2058
  249MOL0     H34351   7.917   1.165   3.583 -2.2505  1.7072 -2.0253
  249MOL0     H34352   7.955   0.967   3.425 -1.2259 -3.6591 -0.0134
  249MOL0     H34353   7.862   1.084   3.368  0.1855  0.9543  1.5257
  249MOL0     H34354   7.785   0.823   3.374  2.0252  3.0592 -2.2755
  249MOL0     H34355   7.714   0.875   3.534  0.6161 -0.2185 -0.2362
  249MOL0     H34356   7.575   1.018   3.401  1.5707  1.1918  0.1435
  249MOL0     H34357   7.548   0.846   3.346  0.6161 -1.0851 -0.4979
  249MOL0     H34358   7.698   1.038   2.989 -0.7013  1.2216  0.3631
  249MOL0     H34359   7.910   0.837   3.900  1.4401  0.7951 -3.5764
  249MOL0     H34360   7.882   0.877   4.235  2.2699 -1.1844  2.2636
  249MOL0     H34361   7.952   0.762   4.113 -1.4555 -0.8690  0.8816
  249MOL0     H34362   8.065   0.858   4.197  1.8278  0.7447 -4.3165
  250MOL0     O34363   8.633   6.180   2.187  0.1784 -0.2838 -0.0364
  250MOL0     C34364   8.559   6.158   2.289 -0.8669  0.9182 -0.0479
  250MOL0     O34365   8.600   6.081   2.400  0.7102 -0.3544 -0.5774
  250MOL0     C34366   8.716   6.004   2.405  0.4791 -0.6766 -0.0373
  250MOL0     C34367   8.778   5.954   2.291  0.1017  0.6534 -0.1008
  250MOL0     C34368   8.897   5.879   2.305  0.3547  0.2222 -0.1199
  250MOL0     C34369   8.967   5.861   2.420  0.9993 -0.1606 -0.4392
  250MOL0     O34370   9.076   5.791   2.444 -0.1034 -0.3231  0.3589
  250MOL0     C34371   9.190   5.808   2.356 -0.3590  0.4885  0.5329
  250MOL0     C34372   9.318   5.800   2.432 -1.5532  0.2412  0.1917
  250MOL0     C34373   9.411   5.938   2.440  0.1669  0.5136 -0.6750
  250MOL0     C34374   9.551   5.913   2.480 -0.7069  0.1677 -0.5293
  250MOL0     C34375   9.567   5.972   2.626  0.0619  0.7719 -0.1528
  250MOL0     C34376   9.705   5.932   2.683  0.7248 -0.4544  0.1827
  250MOL0     C34377   9.692   5.966   2.836  0.5903  0.1128  0.3306
  250MOL0     C34378   9.814   5.931   2.913  0.4726  0.4986  0.8996
  250MOL0     N34379   9.809   5.950   3.058  0.2897  0.7318 -0.1845
  250MOL0     C34380   9.916   5.963   3.137 -0.8987  0.0117 -0.7757
  250MOL0     C34381   9.861   5.967   3.266 -0.5597 -0.2835 -0.5666
  250MOL0     C34382   9.944   5.964   3.400 -0.0255  0.0852  0.3920
  250MOL0     C34383  10.006   6.094   3.452 -0.4480 -1.0034 -0.5706
  250MOL0     C34384  10.105   6.055   3.565 -0.5738  0.1399 -0.4667
  250MOL0     C34385  10.050   5.995   3.695 -0.0484  0.5955  0.0788
  250MOL0     O34386   9.948   6.083   3.753  0.2877 -0.5487  0.1415
  250MOL0     C34387   9.979   6.181   3.842  0.4623 -0.4927  0.3895
  250MOL0     C34388   9.867   6.225   3.911  0.0738  0.0106 -0.1503
  250MOL0     C34389   9.878   6.306   4.028 -0.0495 -0.3148  0.5449
  250MOL0     C34390   9.749   6.325   4.112 -1.0693 -0.6343 -0.3646
  250MOL0     C34391  10.004   6.357   4.056  0.1705  0.3598  0.5899
  250MOL0     C34392  10.023   6.423   4.181 -0.2100 -0.3935  0.9934
  250MOL0     O34393  10.128   6.380   4.254  0.3583 -0.3429 -0.1782
  250MOL0     C34394  10.138   6.419   4.382 -0.4174 -0.1489 -1.4355
  250MOL0     C34395  10.255   6.478   4.439 -0.7929  0.6068 -0.4612
  250MOL0     C34396  10.268   6.505   4.575  0.7634 -0.7046 -0.2999
  250MOL0     C34397  10.157   6.480   4.653 -0.0450 -0.2068  0.4609
  250MOL0     O34398  10.169   6.497   4.786  0.4963  0.1682 -0.3115
  250MOL0     C34399  10.111   6.617   4.851  0.5541 -0.4391  0.2363
  250MOL0     C34400   9.959   6.618   4.897 -0.6848 -0.6926 -0.5616
  250MOL0     C34401   9.942   6.493   4.987 -0.7753 -0.2224  0.9835
  250MOL0     C34402   9.793   6.453   4.986  0.6137 -0.1821  0.1785
  250MOL0     C34403   9.756   6.316   5.056 -0.1587 -0.5195  0.4012
  250MOL0     C34404   9.612   6.313   5.112 -0.9720  0.8891 -0.4427
  250MOL0     C34405   9.506   6.334   5.011 -0.1334  0.1770 -0.1227
  250MOL0     C34406   9.373   6.302   5.079 -0.4886 -0.4423 -0.3682
  250MOL0    Cl34407   9.248   6.302   4.959 -0.1269  0.0320 -0.4683
  250MOL0     C34408  10.037   6.421   4.606 -0.1345  0.0797  0.7988
  250MOL0     C34409  10.035   6.392   4.468  0.1090  0.8312  0.2301
  250MOL0     O34410   9.962   6.527   4.197 -1.2674 -0.0732  0.1867
  250MOL0     C34411  10.115   6.328   3.976 -0.2485  0.2482 -0.1320
  250MOL0     C34412  10.099   6.240   3.868  0.4880  0.6708  0.6330
  250MOL0     N34413   9.726   5.972   3.252  0.0236  0.1954  0.3586
  250MOL0     N34414   9.687   5.969   3.128  0.1705  0.1246 -0.3966
  250MOL0     C34415   8.911   5.926   2.532  0.0219  0.4386 -1.0909
  250MOL0     C34416   8.786   5.996   2.526  0.1906  0.9914 -0.0809
  250MOL0     C34417   8.429   6.238   2.297 -0.2337  1.4876  0.4465
  250MOL0     C34418   8.382   6.303   2.177  0.5714 -1.0233 -0.1415
  250MOL0     C34419   8.252   6.369   2.181 -0.5316  0.0826  0.1882
  250MOL0     C34420   8.177   6.374   2.296  0.4088  0.0168 -0.0582
  250MOL0     O34421   8.055   6.434   2.292  0.7465  0.8152 -0.5318
  250MOL0     C34422   8.063   6.579   2.289 -0.3438 -0.5170 -0.4994
  250MOL0     C34423   8.088   6.642   2.430  0.7316 -1.4321 -0.6320
  250MOL0     C34424   8.125   6.787   2.419 -1.1164 -0.0972  0.6717
  250MOL0     C34425   8.011   6.869   2.362  0.3136  0.3655  1.2517
  250MOL0     C34426   7.895   6.861   2.455 -1.0832  0.5599  0.9256
  250MOL0     C34427   7.786   6.832   2.506  0.4331 -0.7199  0.4539
  250MOL0     C34428   8.230   6.314   2.410 -0.3102 -0.3528  1.1745
  250MOL0     C34429   8.352   6.245   2.416 -0.2991  0.7070  0.2576
  250MOL0     C34430   8.396   6.198   2.553  0.5955  0.1330 -0.9249
  250MOL0     H34431   8.732   5.942   2.193 -0.9527  1.9882  0.2039
  250MOL0     H34432   8.932   5.823   2.219  1.7888 -2.8708  2.2938
  250MOL0     H34433   9.195   5.903   2.303 -0.2907  2.5076  3.8848
  250MOL0     H34434   9.192   5.722   2.288 -2.7215 -3.1758  4.5998
  250MOL0     H34435   9.293   5.779   2.537 -4.1090  1.5539 -0.0939
  250MOL0     H34436   9.377   5.715   2.398 -0.1612  1.0284  0.5617
  250MOL0     H34437   9.415   5.982   2.340 -0.7151  1.3826 -0.3411
  250MOL0     H34438   9.373   6.018   2.504  0.4176 -0.7088  1.0734
  250MOL0     H34439   9.578   5.807   2.473  1.6255  0.7939 -2.3757
  250MOL0     H34440   9.610   5.972   2.408 -0.2317  1.0283  0.5305
  250MOL0     H34441   9.480   5.940   2.684 -0.8753 -0.0660 -1.9526
  250MOL0     H34442   9.570   6.081   2.621 -0.4970  0.8990  1.5782
  250MOL0     H34443   9.732   5.827   2.666 -0.7321 -0.6793 -1.0163
  250MOL0     H34444   9.781   5.985   2.626 -2.0692  2.0407 -1.5401
  250MOL0     H34445   9.610   5.912   2.884  0.3844  0.7938  0.7613
  250MOL0     H34446   9.665   6.072   2.841  0.0739  0.2477 -2.9234
  250MOL0     H34447   9.827   5.824   2.897  1.1644  1.1474 -4.5939
  250MOL0     H34448   9.905   5.976   2.872 -0.3414 -2.0618 -4.5322
  250MOL0     H34449  10.021   5.956   3.113 -0.3753  2.6009  0.3146
  250MOL0     H34450  10.025   5.892   3.388  0.0469  0.2131  0.1215
  250MOL0     H34451   9.870   5.925   3.471  1.8511  0.0299  2.4227
  250MOL0     H34452  10.073   6.135   3.376  0.4723  0.9858  1.1954
  250MOL0     H34453   9.932   6.166   3.489 -0.2746 -1.2966  0.3661
  250MOL0     H34454  10.179   5.982   3.532  2.6129  2.6991  0.5286
  250MOL0     H34455  10.161   6.145   3.590  1.1571  0.3266 -4.3518
  250MOL0     H34456  10.001   5.898   3.684  0.1504  0.4135  0.7552
  250MOL0     H34457  10.141   5.974   3.751  0.2199 -1.1962 -0.9673
  250MOL0     H34458   9.768   6.187   3.889 -0.8622  0.6887  2.4426
  250MOL0     H34459   9.727   6.232   4.166  0.9735  0.0072  1.7155
  250MOL0     H34460   9.677   6.354   4.035  1.0718  2.3116 -1.4208
  250MOL0     H34461   9.759   6.415   4.173  0.0507  0.0036 -1.4543
  250MOL0     H34462  10.342   6.496   4.378  1.7875 -0.0914  2.7174
  250MOL0     H34463  10.352   6.559   4.617 -0.6914  2.9038 -1.5743
  250MOL0     H34464  10.175   6.626   4.939  0.7559  0.6799 -0.0051
  250MOL0     H34465  10.132   6.703   4.786 -0.6161  0.4331  0.9532
  250MOL0     H34466   9.928   6.709   4.949 -2.0159 -1.2811 -0.2814
  250MOL0     H34467   9.891   6.607   4.812 -1.0515  1.3962 -0.5879
  250MOL0     H34468   9.964   6.517   5.092  0.8030  0.9235  0.4310
  250MOL0     H34469  10.000   6.408   4.951 -1.7601 -2.0460  3.4131
  250MOL0     H34470   9.751   6.449   4.885 -0.9466 -1.4421  0.8242
  250MOL0     H34471   9.745   6.523   5.054 -2.8295  1.2315 -3.3076
  250MOL0     H34472   9.761   6.241   4.976  0.1421  4.1125 -4.5026
  250MOL0     H34473   9.832   6.295   5.131 -1.0675 -1.9864  0.9478
  250MOL0     H34474   9.612   6.398   5.181  0.0189  0.8059 -0.3151
  250MOL0     H34475   9.597   6.218   5.164 -1.0183  0.2786 -1.5497
  250MOL0     H34476   9.529   6.262   4.932 -2.0240 -0.9602  0.2890
  250MOL0     H34477   9.516   6.435   4.971 -3.4880  0.8974  0.5561
  250MOL0     H34478   9.348   6.373   5.158  2.4587  1.5671 -1.1018
  250MOL0     H34479   9.363   6.203   5.124 -1.0449  0.4339  1.5462
  250MOL0     H34480   9.962   6.397   4.680 -0.1226  1.8539  1.4508
  250MOL0     H34481   9.948   6.338   4.430  1.3522  1.2569 -3.6114
  250MOL0     H34482  10.213   6.373   3.994  1.6931 -2.6289 -2.6289
  250MOL0     H34483  10.189   6.218   3.812 -0.4236 -1.5714 -0.0352
  250MOL0     H34484   8.965   5.912   2.625 -0.6194 -1.8826 -1.0043
  250MOL0     H34485   8.745   6.038   2.617  0.2006  0.0018  0.3902
  250MOL0     H34486   8.437   6.317   2.084  2.2998 -1.2042  0.8138
  250MOL0     H34487   8.221   6.425   2.093  4.0747  1.6672 -0.7081
  250MOL0     H34488   8.135   6.621   2.219 -1.2996  1.2570 -0.4640
  250MOL0     H34489   7.969   6.622   2.256 -1.6753  1.1089  4.4615
  250MOL0     H34490   8.177   6.603   2.481 -0.3175 -1.7308  1.0462
  250MOL0     H34491   8.000   6.630   2.494  1.8301  0.7840  1.4080
  250MOL0     H34492   8.171   6.818   2.514  1.0265 -0.3977 -0.2077
  250MOL0     H34493   8.201   6.779   2.340 -0.4998 -2.1017  1.4164
  250MOL0     H34494   7.975   6.846   2.262 -0.6624  1.6285  1.2840
  250MOL0     H34495   8.047   6.970   2.338 -0.5918 -0.5990 -7.3197
  250MOL0     H34496   7.690   6.798   2.539  0.3633 -0.2268  0.7739
  250MOL0     H34497   8.168   6.325   2.499 -1.0675  1.8974  0.4499
  250MOL0     H34498   8.347   6.251   2.636 -0.4963  0.5114 -1.7892
  250MOL0     H34499   8.380   6.090   2.566  3.0076 -0.6174 -3.2498
  250MOL0     H34500   8.501   6.218   2.572  0.1186  0.8575  1.2406
  251MOL0     O34501   1.182   6.608   2.786 -0.1421  0.8545 -0.2894
  251MOL0     C34502   1.268   6.602   2.706  0.3334 -0.5477  0.1233
  251MOL0     O34503   1.360   6.495   2.694 -0.1594 -0.3738 -0.5685
  251MOL0     C34504   1.379   6.417   2.804  0.0805 -0.4239 -0.8074
  251MOL0     C34505   1.431   6.475   2.916  0.1652 -0.4995  0.3895
  251MOL0     C34506   1.451   6.397   3.043 -0.7082 -0.2818  0.3926
  251MOL0     C34507   1.417   6.262   3.041  0.3585 -0.3597 -0.1621
  251MOL0     O34508   1.439   6.200   3.163  0.4424  0.4865 -0.4061
  251MOL0     C34509   1.405   6.065   3.170  0.1367 -0.0970  0.8816
  251MOL0     C34510   1.255   6.040   3.184 -0.2761 -0.6270 -1.5120
  251MOL0     C34511   1.201   6.112   3.314  0.4302 -0.5616 -0.7587
  251MOL0     C34512   1.055   6.058   3.365 -0.1880 -0.8178  0.8800
  251MOL0     C34513   0.955   6.167   3.367  0.6141  0.5202  0.4955
  251MOL0     C34514   0.897   6.204   3.505  0.9724  0.2346  0.6674
  251MOL0     C34515   0.781   6.303   3.496  0.5569 -0.1576 -0.2090
  251MOL0     C34516   0.758   6.370   3.633  0.7389  0.6814 -0.3716
  251MOL0     N34517   0.631   6.432   3.626  0.7189 -1.0975  0.2931
  251MOL0     C34518   0.509   6.363   3.606 -0.0783 -0.7939 -0.2354
  251MOL0     C34519   0.415   6.453   3.643 -0.2947 -1.2444 -0.3353
  251MOL0     C34520   0.262   6.453   3.619  0.0455  0.9415  0.3636
  251MOL0     C34521   0.200   6.319   3.641 -0.2591 -0.3322 -0.2172
  251MOL0     C34522   0.224   6.262   3.782 -0.6779  0.3181 -0.5634
  251MOL0     C34523   0.132   6.316   3.888 -0.3387  0.3857 -0.5900
  251MOL0     O34524   0.147   6.241   4.007  0.5486  0.2669  0.3607
  251MOL0     C34525   0.062   6.272   4.112  0.4566  0.7865  0.2402
  251MOL0     C34526   0.059   6.173   4.209 -0.4703  0.1927 -1.1312
  251MOL0     C34527  -0.035   6.167   4.312 -0.7617  0.7073  0.1728
  251MOL0     C34528  -0.035   6.048   4.409  0.5760 -0.4085  0.5504
  251MOL0     C34529  -0.120   6.279   4.330 -0.0349 -0.5355 -0.1263
  251MOL0     C34530  -0.233   6.281   4.417  0.7095  0.0840 -0.2405
  251MOL0     O34531  -0.250   6.185   4.508 -0.1249  0.3005  0.0135
  251MOL0     C34532  -0.371   6.160   4.566 -1.3381 -0.6621  0.2858
  251MOL0     C34533  -0.394   6.027   4.589 -0.7227  0.9447 -0.3058
  251MOL0     C34534  -0.518   5.992   4.642 -0.0427  0.0167  0.9570
  251MOL0     C34535  -0.624   6.093   4.659 -0.1711 -0.6722  0.2806
  251MOL0     O34536  -0.747   6.077   4.707  0.2499 -0.6335  0.1011
  251MOL0     C34537  -0.764   5.978   4.812  0.3719 -0.1641 -0.4307
  251MOL0     C34538  -0.915   5.934   4.819  0.6355  0.0304 -0.0855
  251MOL0     C34539  -1.022   6.041   4.797  0.1000 -0.2654 -0.0434
  251MOL0     C34540  -1.159   5.960   4.787  0.3281  0.0169 -0.1915
  251MOL0     C34541  -1.275   6.050   4.741  0.3526 -0.0427 -0.3309
  251MOL0     C34542  -1.390   5.965   4.690  0.2747  0.5882  0.5235
  251MOL0     C34543  -1.512   6.050   4.675 -0.0173  0.0028 -0.4113
  251MOL0     C34544  -1.641   5.974   4.624 -0.1610  0.7921  0.0360
  251MOL0    Cl34545  -1.764   6.106   4.579 -0.3938  0.0115  0.2386
  251MOL0     C34546  -0.588   6.224   4.635 -0.1619 -0.7976  1.2911
  251MOL0     C34547  -0.460   6.257   4.594  0.2551  0.2944  0.1887
  251MOL0     O34548  -0.319   6.368   4.395  0.2715  0.6314 -0.1140
  251MOL0     C34549  -0.101   6.391   4.251  0.0434 -0.3958  1.0821
  251MOL0     C34550  -0.010   6.383   4.144 -0.8562 -0.2346 -0.1886
  251MOL0     N34551   0.478   6.566   3.681  0.2088 -0.8530  0.6514
  251MOL0     N34552   0.605   6.553   3.676  0.0997  0.4829  0.6580
  251MOL0     C34553   1.366   6.207   2.920  0.2077 -0.7983  0.3165
  251MOL0     C34554   1.352   6.279   2.799  0.2070 -0.9190  0.5780
  251MOL0     C34555   1.279   6.703   2.596 -0.1181  0.1542 -0.6979
  251MOL0     C34556   1.410   6.751   2.579  1.4862  0.4120 -0.2335
  251MOL0     C34557   1.440   6.833   2.471  0.1308  0.5258  1.0996
  251MOL0     C34558   1.329   6.902   2.403  0.0770  0.0680  0.9623
  251MOL0     O34559   1.354   6.975   2.287  0.6649 -0.3841  0.3391
  251MOL0     C34560   1.476   7.060   2.291  0.0216  0.2035 -0.8285
  251MOL0     C34561   1.453   7.187   2.209  0.6389  0.3881  0.2622
  251MOL0     C34562   1.378   7.301   2.285 -0.2822 -0.2683 -0.5445
  251MOL0     C34563   1.494   7.406   2.326 -0.4507 -0.7476 -0.1359
  251MOL0     C34564   1.419   7.497   2.403 -0.1378  0.0755  0.3872
  251MOL0     C34565   1.341   7.563   2.468  0.5071  0.2465 -0.1626
  251MOL0     C34566   1.196   6.861   2.425 -0.1495  0.1828  0.1006
  251MOL0     C34567   1.173   6.764   2.522 -0.7186  0.4276 -0.4083
  251MOL0     C34568   1.034   6.728   2.558  0.1755  0.2330 -0.5337
  251MOL0     H34569   1.444   6.582   2.901  1.3732 -0.8172 -1.0734
  251MOL0     H34570   1.487   6.451   3.131 -0.0223 -2.0717  1.2673
  251MOL0     H34571   1.446   6.008   3.254 -1.0309 -2.0414  0.1914
  251MOL0     H34572   1.444   6.017   3.080  4.7262  1.3927  1.7796
  251MOL0     H34573   1.201   6.081   3.098 -1.1837 -0.0617 -0.6924
  251MOL0     H34574   1.241   5.932   3.187 -0.6930 -0.5882 -1.8667
  251MOL0     H34575   1.275   6.100   3.394  0.0964 -0.5122 -0.4386
  251MOL0     H34576   1.197   6.218   3.287  0.1466 -0.3903 -0.0656
  251MOL0     H34577   1.030   5.977   3.296 -0.3787  0.0890 -0.1548
  251MOL0     H34578   1.067   6.008   3.461  0.3553 -0.3484  1.0676
  251MOL0     H34579   0.873   6.134   3.301  0.3546 -1.2807  1.6507
  251MOL0     H34580   0.993   6.257   3.319 -2.1222  1.9082  0.7334
  251MOL0     H34581   0.865   6.123   3.572 -2.6962 -0.2029 -1.3390
  251MOL0     H34582   0.975   6.258   3.559  2.9017 -0.9553 -0.8070
  251MOL0     H34583   0.693   6.248   3.460  3.0559 -2.9921 -2.4915
  251MOL0     H34584   0.797   6.380   3.420 -0.5568 -0.0081 -0.3129
  251MOL0     H34585   0.743   6.287   3.703  0.0952 -1.2216 -2.6495
  251MOL0     H34586   0.840   6.441   3.648  1.1537  1.4063 -4.8549
  251MOL0     H34587   0.491   6.265   3.563 -0.6880  0.0875 -2.0988
  251MOL0     H34588   0.244   6.479   3.515  0.7539  0.0822  0.0143
  251MOL0     H34589   0.213   6.514   3.696 -1.6241 -1.3525  1.2402
  251MOL0     H34590   0.093   6.314   3.617 -0.5642  1.6217  0.5408
  251MOL0     H34591   0.256   6.247   3.581 -1.6112  0.3779 -2.4488
  251MOL0     H34592   0.203   6.155   3.778 -0.5508  0.3441 -2.5194
  251MOL0     H34593   0.327   6.267   3.817 -1.0855 -0.4311  0.8274
  251MOL0     H34594   0.157   6.419   3.914 -0.4562  0.1548  0.4826
  251MOL0     H34595   0.027   6.309   3.859 -0.4191  0.4484 -0.3174
  251MOL0     H34596   0.109   6.077   4.200 -0.6306 -0.4024  2.7734
  251MOL0     H34597  -0.131   5.999   4.392 -0.0069  0.6238  0.7889
  251MOL0     H34598  -0.016   6.075   4.513  0.5959  1.6276  0.0616
  251MOL0     H34599   0.033   5.967   4.381 -2.6369 -2.8090 -0.9980
  251MOL0     H34600  -0.314   5.960   4.558  0.4990  1.3385  1.8210
  251MOL0     H34601  -0.522   5.884   4.657  1.5464 -0.1959  0.0721
  251MOL0     H34602  -0.703   5.891   4.785  1.1476  0.2050  0.0768
  251MOL0     H34603  -0.732   6.017   4.909 -0.7424  0.6819 -0.3788
  251MOL0     H34604  -0.917   5.861   4.737  1.2678 -1.1713  0.9411
  251MOL0     H34605  -0.935   5.883   4.913 -0.2032 -2.4134 -1.4877
  251MOL0     H34606  -1.006   6.086   4.698  1.6486  0.4977  0.5229
  251MOL0     H34607  -0.998   6.118   4.871 -2.7038  1.6044 -0.9355
  251MOL0     H34608  -1.182   5.922   4.887  1.6422 -0.2538  0.0210
  251MOL0     H34609  -1.157   5.869   4.725  0.8903  0.7222 -1.2514
  251MOL0     H34610  -1.300   6.125   4.817 -0.3937 -0.8641  0.2369
  251MOL0     H34611  -1.248   6.116   4.658  1.1604  0.1099  0.0366
  251MOL0     H34612  -1.417   5.887   4.761 -0.8540  0.5709  0.0908
  251MOL0     H34613  -1.370   5.911   4.596 -1.1107  1.8970 -0.5715
  251MOL0     H34614  -1.496   6.138   4.613  1.3592  0.1315  0.0992
  251MOL0     H34615  -1.531   6.099   4.771  0.3785 -3.3670  1.5456
  251MOL0     H34616  -1.678   5.906   4.702 -1.8329  0.9374 -0.5892
  251MOL0     H34617  -1.627   5.911   4.536 -1.3870  2.0031 -1.0560
  251MOL0     H34618  -0.662   6.303   4.636 -0.7739 -1.3250 -0.0418
  251MOL0     H34619  -0.448   6.364   4.585 -0.1765  0.1739 -2.4892
  251MOL0     H34620  -0.164   6.479   4.252  3.2397  2.1407 -1.0584
  251MOL0     H34621  -0.001   6.472   4.083  1.4905 -0.9540 -0.9861
  251MOL0     H34622   1.351   6.099   2.922  0.4115 -0.8095  1.4994
  251MOL0     H34623   1.331   6.232   2.704  0.6915  1.5975 -0.8508
  251MOL0     H34624   1.491   6.696   2.627  2.1682 -1.0434 -2.8595
  251MOL0     H34625   1.546   6.844   2.447 -0.3462  0.3250 -1.2990
  251MOL0     H34626   1.501   7.074   2.396  0.3095 -1.0149 -0.7186
  251MOL0     H34627   1.562   7.007   2.249  1.5445  1.2037  0.9114
  251MOL0     H34628   1.394   7.165   2.120  0.0274  1.9024  0.2585
  251MOL0     H34629   1.546   7.223   2.164 -1.4756  4.1065 -1.6446
  251MOL0     H34630   1.301   7.346   2.222 -0.5609 -0.2732 -0.2067
  251MOL0     H34631   1.339   7.256   2.377 -0.2547 -1.4525 -1.0975
  251MOL0     H34632   1.535   7.454   2.238 -0.4041  1.3790  0.9921
  251MOL0     H34633   1.573   7.352   2.379  3.6498  4.1952 -0.5477
  251MOL0     H34634   1.287   7.646   2.509  3.1957  1.1423  1.8529
  251MOL0     H34635   1.119   6.899   2.358  0.3056 -0.9901 -1.1403
  251MOL0     H34636   0.961   6.777   2.494  1.0850  0.7266 -1.2204
  251MOL0     H34637   1.012   6.621   2.552  1.7766 -0.2949  1.4808
  251MOL0     H34638   1.027   6.759   2.663 -0.4974  4.1456 -1.5813
  252MOL0     O34639   0.487  11.470   2.714  0.1325 -0.2773  0.0804
  252MOL0     C34640   0.609  11.464   2.730 -0.1465  1.9301  0.0038
  252MOL0     O34641   0.673  11.346   2.744 -0.1919  0.7789 -0.5195
  252MOL0     C34642   0.606  11.224   2.755 -0.4380 -0.4551 -0.5749
  252MOL0     C34643   0.517  11.184   2.654 -1.0168  0.0024  0.2115
  252MOL0     C34644   0.437  11.070   2.670 -0.3234  0.2624 -0.2621
  252MOL0     C34645   0.447  10.990   2.780 -0.4132  0.4123 -1.1352
  252MOL0     O34646   0.348  10.891   2.790 -0.0683 -0.8869  0.2485
  252MOL0     C34647   0.387  10.759   2.809 -0.1381  0.0603 -0.6712
  252MOL0     C34648   0.271  10.667   2.840  0.6948  0.2663 -0.5506
  252MOL0     C34649   0.214  10.673   2.983 -0.1236  0.3888 -0.0061
  252MOL0     C34650   0.141  10.544   3.029 -0.8175 -0.6900 -0.3864
  252MOL0     C34651   0.092  10.548   3.187 -0.5770  0.0912  0.3224
  252MOL0     C34652  -0.007  10.435   3.205 -0.8311  0.1087 -0.4784
  252MOL0     C34653  -0.031  10.416   3.349  0.5945 -1.3125  0.3978
  252MOL0     C34654  -0.114  10.523   3.409 -0.4041 -0.2532  0.7892
  252MOL0     N34655  -0.149  10.476   3.541  0.3207 -0.1848  0.2571
  252MOL0     C34656  -0.271  10.484   3.599  0.2512  0.5971 -1.5427
  252MOL0     C34657  -0.262  10.419   3.724 -0.4294  0.0643 -0.5939
  252MOL0     C34658  -0.367  10.401   3.823  0.0582  0.2674  1.0013
  252MOL0     C34659  -0.339  10.502   3.941 -0.0416  0.1125 -0.3029
  252MOL0     C34660  -0.444  10.604   3.954  0.5429 -0.3387  0.0957
  252MOL0     C34661  -0.412  10.695   4.068  0.2739 -0.1021 -0.3232
  252MOL0     O34662  -0.356  10.815   4.026 -0.0290 -0.4775  0.2342
  252MOL0     C34663  -0.357  10.925   4.114  0.9399  1.3377 -0.2488
  252MOL0     C34664  -0.384  10.917   4.257 -0.4565  0.2766  0.2245
  252MOL0     C34665  -0.384  11.029   4.341 -0.7393 -0.3232  0.6824
  252MOL0     C34666  -0.435  11.014   4.476 -0.0375  0.6479 -0.3335
  252MOL0     C34667  -0.326  11.146   4.290 -0.7059 -0.0297  0.5575
  252MOL0     C34668  -0.274  11.262   4.382  1.4835 -0.2327 -0.1247
  252MOL0     O34669  -0.163  11.328   4.340 -0.6753  0.7303 -0.2104
  252MOL0     C34670  -0.111  11.420   4.427 -0.4338 -0.7278 -0.2107
  252MOL0     C34671  -0.029  11.391   4.538 -0.0791  0.1065  0.0563
  252MOL0     C34672   0.004  11.496   4.634  1.0242  0.5282 -0.1200
  252MOL0     C34673  -0.032  11.628   4.607  0.1784  0.1851  0.8742
  252MOL0     O34674   0.023  11.718   4.685  0.1212  0.6372  0.4591
  252MOL0     C34675  -0.030  11.848   4.685 -0.0633 -1.3178  0.4894
  252MOL0     C34676   0.047  11.934   4.788 -0.7727  0.3605  0.6851
  252MOL0     C34677   0.195  11.934   4.765  0.2809  0.0485 -0.3052
  252MOL0     C34678   0.245  12.009   4.642  0.6022  0.3108 -0.4203
  252MOL0     C34679   0.402  12.012   4.635  0.4229 -0.1619 -0.4381
  252MOL0     C34680   0.466  12.079   4.754  0.0201 -0.8593 -0.9174
  252MOL0     C34681   0.616  12.104   4.738 -0.0112 -0.3443 -0.1789
  252MOL0     C34682   0.676  12.216   4.828 -1.0826  0.5696 -0.5391
  252MOL0    Cl34683   0.630  12.376   4.774 -0.2797  0.2765 -0.0480
  252MOL0     C34684  -0.114  11.664   4.491  0.8175  0.2087  0.7901
  252MOL0     C34685  -0.152  11.551   4.412 -0.2341 -0.3426  0.6010
  252MOL0     O34686  -0.326  11.271   4.492 -0.5660  0.0608 -0.0644
  252MOL0     C34687  -0.281  11.149   4.155  0.0669  1.3163 -0.0713
  252MOL0     C34688  -0.307  11.044   4.067 -0.0240 -0.2373 -0.4141
  252MOL0     N34689  -0.131  10.373   3.744  0.5873  0.4905  0.1000
  252MOL0     N34690  -0.062  10.417   3.628  0.0529  0.4184 -1.0098
  252MOL0     C34691   0.535  11.025   2.881 -0.4983 -0.0773 -0.2819
  252MOL0     C34692   0.628  11.134   2.859  0.6636 -0.1999  0.2875
  252MOL0     C34693   0.694  11.587   2.720  0.2063 -0.7543 -0.2782
  252MOL0     C34694   0.834  11.576   2.715 -0.5947  0.2841  0.4169
  252MOL0     C34695   0.927  11.681   2.713 -0.3175  0.0093 -1.1527
  252MOL0     C34696   0.884  11.808   2.715 -0.3045  0.2686  0.1342
  252MOL0     O34697   0.950  11.929   2.690 -0.0569 -0.4885  0.2456
  252MOL0     C34698   1.078  11.909   2.637 -0.8500  0.1113 -0.5511
  252MOL0     C34699   1.140  12.051   2.638  0.3960  0.1577 -0.4310
  252MOL0     C34700   1.287  12.032   2.616 -0.5155 -0.0268 -0.3984
  252MOL0     C34701   1.357  12.168   2.656 -0.9358  0.7760 -0.0199
  252MOL0     C34702   1.491  12.161   2.592 -0.2132  0.1679 -0.0155
  252MOL0     C34703   1.583  12.156   2.525  0.6069 -0.4109 -0.2812
  252MOL0     C34704   0.740  11.826   2.725  0.3299 -0.8547  0.9293
  252MOL0     C34705   0.649  11.722   2.724  0.0716  0.5580  0.6210
  252MOL0     C34706   0.505  11.762   2.732  0.1551 -0.1809  0.3112
  252MOL0     H34707   0.503  11.255   2.574  0.9272  2.0240  1.5261
  252MOL0     H34708   0.355  11.044   2.604  0.0408 -1.4036 -0.0955
  252MOL0     H34709   0.465  10.745   2.884 -2.2914 -3.2548  1.1878
  252MOL0     H34710   0.429  10.724   2.715  1.4370 -1.6743  0.6131
  252MOL0     H34711   0.193  10.697   2.769  5.5929  1.9836 -5.9913
  252MOL0     H34712   0.297  10.562   2.823  0.9496 -0.3048  2.6931
  252MOL0     H34713   0.293  10.692   3.056  0.0885  2.6399 -0.7647
  252MOL0     H34714   0.146  10.756   3.004 -0.1116  0.2419  0.6503
  252MOL0     H34715   0.054  10.536   2.963 -1.5087 -0.4216  0.4664
  252MOL0     H34716   0.202  10.455   3.015 -1.6418 -1.5868  1.4506
  252MOL0     H34717   0.040  10.644   3.200 -1.3171 -0.1623 -0.6372
  252MOL0     H34718   0.180  10.544   3.251 -1.7353 -0.2660  1.9614
  252MOL0     H34719  -0.099  10.432   3.146 -1.3882 -0.6006  0.3963
  252MOL0     H34720   0.053  10.346   3.185  1.6056  1.5369  0.0691
  252MOL0     H34721   0.061  10.422   3.409  1.3592  1.9572 -0.8804
  252MOL0     H34722  -0.069  10.316   3.373 -0.3027 -0.5306  2.5917
  252MOL0     H34723  -0.066  10.621   3.419 -1.4504  0.9813 -3.7876
  252MOL0     H34724  -0.204  10.536   3.348 -0.2313 -0.1804  0.5492
  252MOL0     H34725  -0.364  10.532   3.571 -0.7967  0.9499  2.0065
  252MOL0     H34726  -0.379  10.296   3.852  0.7023  0.4477  1.9433
  252MOL0     H34727  -0.461  10.411   3.767  1.1029 -1.2384 -1.1936
  252MOL0     H34728  -0.334  10.443   4.034 -2.8493 -1.4482 -1.0124
  252MOL0     H34729  -0.246  10.557   3.927 -0.8128  1.2260 -1.1858
  252MOL0     H34730  -0.454  10.661   3.862 -1.7004  0.4982  0.7951
  252MOL0     H34731  -0.541  10.555   3.969 -0.5428  0.7162 -2.8053
  252MOL0     H34732  -0.506  10.718   4.119  1.3598  0.2237  1.6535
  252MOL0     H34733  -0.348  10.649   4.144  1.2418  2.2209  0.3502
  252MOL0     H34734  -0.398  10.820   4.304  1.1716  0.6593  1.5673
  252MOL0     H34735  -0.349  11.019   4.544  0.3154  0.9943 -0.7983
  252MOL0     H34736  -0.479  10.914   4.481  1.2320  0.1011  0.4637
  252MOL0     H34737  -0.504  11.094   4.506 -0.5157  0.0724  0.1236
  252MOL0     H34738  -0.002  11.287   4.546  3.0986  0.8905  0.7715
  252MOL0     H34739   0.058  11.458   4.721  3.1204 -2.2128 -2.4145
  252MOL0     H34740  -0.032  11.903   4.590  1.6558 -0.6981  0.7854
  252MOL0     H34741  -0.133  11.844   4.723 -0.4924  1.2614 -0.2344
  252MOL0     H34742   0.019  12.039   4.772 -0.1791  0.1285 -2.4411
  252MOL0     H34743   0.028  11.883   4.883  3.5571 -0.7755  1.1116
  252MOL0     H34744   0.233  11.831   4.766  0.9645  0.2967  0.4450
  252MOL0     H34745   0.236  11.982   4.855  0.1759 -0.9946  0.3275
  252MOL0     H34746   0.211  12.113   4.648  6.3894  2.5559  0.1975
  252MOL0     H34747   0.208  11.967   4.549  1.2390 -0.7913 -0.1909
  252MOL0     H34748   0.432  11.908   4.618  0.1141 -0.2394 -0.5171
  252MOL0     H34749   0.424  12.064   4.541 -4.0722  1.1834 -0.9870
  252MOL0     H34750   0.452  12.012   4.840 -1.8092 -0.9208 -1.2198
  252MOL0     H34751   0.420  12.174   4.784  3.2724  0.7416 -0.5714
  252MOL0     H34752   0.624  12.144   4.636 -3.3453 -0.7813 -0.7436
  252MOL0     H34753   0.670  12.013   4.765 -1.6320 -1.3002 -0.0296
  252MOL0     H34754   0.785  12.209   4.816 -1.1371  0.9290 -1.3046
  252MOL0     H34755   0.645  12.211   4.933 -0.6724 -0.2934 -0.4511
  252MOL0     H34756  -0.146  11.763   4.459  1.4391 -0.2677 -1.4466
  252MOL0     H34757  -0.227  11.560   4.335  2.5211 -0.6483 -2.3038
  252MOL0     H34758  -0.234  11.238   4.115  1.4991 -0.1222 -1.7666
  252MOL0     H34759  -0.285  11.039   3.961 -0.3238  4.1242 -0.8899
  252MOL0     H34760   0.532  10.967   2.972 -0.8048  2.0570  1.1513
  252MOL0     H34761   0.703  11.173   2.927 -0.1703 -0.9125  1.6873
  252MOL0     H34762   0.870  11.475   2.734 -4.3628 -0.5978  4.3413
  252MOL0     H34763   1.030  11.647   2.703  0.2578  0.2856  2.4815
  252MOL0     H34764   1.135  11.846   2.705 -0.6603  1.3418  0.4551
  252MOL0     H34765   1.081  11.874   2.533  1.0119  0.6789 -0.7263
  252MOL0     H34766   1.134  12.097   2.737  1.2614 -2.3667  0.8765
  252MOL0     H34767   1.095  12.119   2.564 -3.4011  0.5469  1.9787
  252MOL0     H34768   1.339  11.955   2.673  1.8633 -0.7902 -3.3029
  252MOL0     H34769   1.302  12.008   2.510 -2.0795  0.8012 -0.8381
  252MOL0     H34770   1.358  12.173   2.766 -1.5641  1.0700 -0.0220
  252MOL0     H34771   1.305  12.259   2.624 -2.1724 -0.9734 -3.3491
  252MOL0     H34772   1.674  12.166   2.469  1.9249 -0.4434  1.7744
  252MOL0     H34773   0.719  11.932   2.736 -1.4308 -0.9080 -1.3191
  252MOL0     H34774   0.486  11.862   2.692 -2.9516 -1.5511 -2.0765
  252MOL0     H34775   0.436  11.701   2.674  0.2341  0.9443 -1.0269
  252MOL0     H34776   0.471  11.759   2.836 -5.7128 -3.2521 -1.2715
  253MOL0     O34777  10.035   1.615   6.259 -0.2459  0.2208  0.3155
  253MOL0     C34778   9.944   1.596   6.177 -0.5403  0.0580 -0.5500
  253MOL0     O34779   9.840   1.688   6.175 -0.0680  0.4507  0.1841
  253MOL0     C34780   9.845   1.799   6.251  0.1839 -0.0761  0.1233
  253MOL0     C34781   9.790   1.793   6.379 -0.1359  0.7106 -0.1141
  253MOL0     C34782   9.792   1.913   6.454  0.3951  0.3514 -0.0487
  253MOL0     C34783   9.838   2.035   6.402  0.1237  0.2692  0.0805
  253MOL0     O34784   9.840   2.154   6.464 -0.2442 -0.5701 -0.4908
  253MOL0     C34785   9.804   2.175   6.596 -0.5549 -0.6731  0.2917
  253MOL0     C34786   9.828   2.319   6.621 -0.3320 -0.0600 -0.2994
  253MOL0     C34787   9.713   2.400   6.556  0.5274 -0.4870 -0.1368
  253MOL0     C34788   9.687   2.541   6.621  0.1269  0.0313 -0.2941
  253MOL0     C34789   9.563   2.625   6.600  0.9351 -0.4254 -0.2825
  253MOL0     C34790   9.588   2.773   6.635 -0.0931  0.1948  1.4980
  253MOL0     C34791   9.670   2.850   6.530 -0.0660  0.3700 -0.3666
  253MOL0     C34792   9.611   2.876   6.400 -0.3236  0.6561 -0.4397
  253MOL0     N34793   9.484   2.955   6.419  0.7436  0.2469  0.0809
  253MOL0     C34794   9.360   2.902   6.377  0.0663 -0.3194 -1.1518
  253MOL0     C34795   9.270   3.009   6.382 -0.2098  0.1920  0.7795
  253MOL0     C34796   9.130   3.015   6.328  0.8307  0.1830  0.0009
  253MOL0     C34797   9.020   3.050   6.430  0.1222 -0.3845 -0.3671
  253MOL0     C34798   8.881   3.031   6.367  0.0235  0.2025 -0.1873
  253MOL0     C34799   8.832   2.888   6.358 -0.0169 -0.6083 -0.1143
  253MOL0     O34800   8.850   2.795   6.465 -0.1528 -0.2816  0.0066
  253MOL0     C34801   8.772   2.831   6.570 -0.5648  0.4003 -0.5570
  253MOL0     C34802   8.651   2.897   6.561 -0.2932 -0.9776  0.5414
  253MOL0     C34803   8.576   2.915   6.681 -0.6034  0.1648  0.5043
  253MOL0     C34804   8.443   2.979   6.670  0.1871  0.8979  0.2718
  253MOL0     C34805   8.639   2.885   6.804  0.2759 -0.3550 -0.2140
  253MOL0     C34806   8.567   2.929   6.931  0.0432 -0.9209  0.2673
  253MOL0     O34807   8.499   3.046   6.949 -0.4067 -1.3485  0.3486
  253MOL0     C34808   8.479   3.094   7.076 -0.0571  1.2696 -0.5523
  253MOL0     C34809   8.386   3.194   7.100  0.5983 -0.8061 -0.1422
  253MOL0     C34810   8.358   3.252   7.218 -0.1999  0.2087  0.1048
  253MOL0     C34811   8.420   3.209   7.337 -0.1939  1.0155  0.1556
  253MOL0     O34812   8.366   3.258   7.453  0.4191 -0.8015  0.0653
  253MOL0     C34813   8.315   3.155   7.547  0.2099 -0.1516 -0.1454
  253MOL0     C34814   8.283   3.238   7.679  0.1281 -0.0448 -0.7389
  253MOL0     C34815   8.147   3.320   7.672  0.5438 -0.2877 -0.7080
  253MOL0     C34816   8.122   3.396   7.805  0.2448  0.3765 -0.4852
  253MOL0     C34817   7.995   3.473   7.806 -0.9708  0.1591 -0.0394
  253MOL0     C34818   7.972   3.557   7.931  0.5955 -0.4857  0.5621
  253MOL0     C34819   8.010   3.476   8.053 -0.2732  0.2943 -0.7993
  253MOL0     C34820   7.986   3.566   8.173 -0.2557  0.0155  0.1355
  253MOL0    Cl34821   7.981   3.501   8.339  0.0555  0.1404  0.5271
  253MOL0     C34822   8.517   3.109   7.322  0.4230  0.7259 -0.3867
  253MOL0     C34823   8.545   3.043   7.200 -0.1191  1.1077  0.1009
  253MOL0     O34824   8.578   2.841   7.017 -0.1738  0.3187 -0.6857
  253MOL0     C34825   8.763   2.819   6.810 -0.9610  0.4910 -0.6242
  253MOL0     C34826   8.827   2.794   6.694 -0.6156 -0.2153  0.4916
  253MOL0     N34827   9.344   3.113   6.431 -0.7052 -0.0096  0.3250
  253MOL0     N34828   9.472   3.086   6.449  0.0965 -0.1340 -0.5523
  253MOL0     C34829   9.875   2.037   6.267  0.9425  0.2515  0.1402
  253MOL0     C34830   9.890   1.916   6.194  1.0348  0.3300 -0.5387
  253MOL0     C34831   9.962   1.476   6.082 -0.6546 -0.0456  0.4987
  253MOL0     C34832  10.087   1.406   6.071 -0.1042  0.2691 -0.2070
  253MOL0     C34833  10.100   1.289   5.994  0.2585  1.0893 -0.9621
  253MOL0     C34834   9.993   1.237   5.925  0.2639 -0.0424 -1.3522
  253MOL0     O34835  10.019   1.129   5.849 -0.5079 -0.1220 -0.2733
  253MOL0     C34836   9.924   1.077   5.760 -0.3861  0.8716  0.0192
  253MOL0     C34837   9.988   0.949   5.699 -0.4847 -0.5109  0.9603
  253MOL0     C34838  10.066   0.865   5.800 -0.2330  0.8119  0.7564
  253MOL0     C34839  10.145   0.737   5.743  1.4480 -0.0329 -0.2170
  253MOL0     C34840  10.058   0.622   5.716  0.5370 -0.7075 -0.0055
  253MOL0     C34841   9.992   0.529   5.689 -0.1332  0.2393 -0.2341
  253MOL0     C34842   9.867   1.307   5.924 -0.2709  0.1104  0.1326
  253MOL0     C34843   9.851   1.420   6.004  0.5081 -0.6511 -0.5662
  253MOL0     C34844   9.709   1.477   6.004  0.1357  0.8421  0.7236
  253MOL0     H34845   9.738   1.704   6.413  0.6309 -2.2154 -5.4326
  253MOL0     H34846   9.753   1.900   6.555 -0.5200  1.3184 -0.2529
  253MOL0     H34847   9.859   2.111   6.666  2.2158 -0.2815 -1.3744
  253MOL0     H34848   9.697   2.152   6.598 -0.4078 -1.3314  1.0465
  253MOL0     H34849   9.828   2.327   6.730  0.9783 -0.3819 -0.2531
  253MOL0     H34850   9.928   2.347   6.585  1.7323 -5.7140 -0.0099
  253MOL0     H34851   9.712   2.407   6.447 -1.1429 -1.0590 -0.1794
  253MOL0     H34852   9.618   2.354   6.585 -2.0243  2.1216 -3.4757
  253MOL0     H34853   9.708   2.547   6.728 -0.1379 -1.4237 -0.1401
  253MOL0     H34854   9.767   2.600   6.574 -1.0035  0.3577 -1.8959
  253MOL0     H34855   9.490   2.585   6.670  1.8209 -1.9928 -0.2122
  253MOL0     H34856   9.519   2.632   6.500 -0.9863  0.3407  0.5646
  253MOL0     H34857   9.495   2.830   6.643 -0.9718 -0.4212 -2.1435
  253MOL0     H34858   9.635   2.781   6.733  6.5882 -0.8639 -1.1388
  253MOL0     H34859   9.763   2.796   6.507  0.0049  0.5831 -0.5872
  253MOL0     H34860   9.692   2.949   6.573  2.2956 -0.1348 -0.2687
  253MOL0     H34861   9.680   2.937   6.341 -1.5408  1.3649 -1.1832
  253MOL0     H34862   9.587   2.789   6.338  0.8376 -2.6789  3.3453
  253MOL0     H34863   9.339   2.802   6.341 -3.3551 -1.4198  3.0713
  253MOL0     H34864   9.098   2.925   6.274  1.6353  0.4782 -1.0007
  253MOL0     H34865   9.137   3.089   6.248  0.6493 -1.3197 -1.4840
  253MOL0     H34866   9.029   2.985   6.518  1.2852  0.7476  0.3816
  253MOL0     H34867   9.036   3.151   6.468  0.1704 -0.6349  0.3071
  253MOL0     H34868   8.809   3.079   6.434  2.8194  0.1416  3.1357
  253MOL0     H34869   8.888   3.075   6.267 -2.3297  2.0877  0.3938
  253MOL0     H34870   8.731   2.876   6.317 -0.7418  0.0756  1.3642
  253MOL0     H34871   8.883   2.826   6.285  0.7017 -0.3865  0.1862
  253MOL0     H34872   8.613   2.944   6.471 -2.9643 -0.3487  1.9020
  253MOL0     H34873   8.430   3.071   6.728 -1.7074 -0.3277  1.9142
  253MOL0     H34874   8.364   2.909   6.695 -0.5909  1.2038 -1.2180
  253MOL0     H34875   8.424   3.004   6.565 -2.6979  0.8514  0.7045
  253MOL0     H34876   8.323   3.236   7.022 -2.4184 -1.0351  1.9651
  253MOL0     H34877   8.274   3.320   7.226 -1.9013 -1.8438  0.6124
  253MOL0     H34878   8.226   3.101   7.514 -0.4096  1.3250 -0.9737
  253MOL0     H34879   8.392   3.081   7.571 -3.6892 -4.4057  0.5802
  253MOL0     H34880   8.271   3.164   7.758  1.9127 -1.2804 -1.5440
  253MOL0     H34881   8.364   3.305   7.710  0.3989 -0.7362  0.0606
  253MOL0     H34882   8.069   3.243   7.666 -0.2930  0.5472 -0.8302
  253MOL0     H34883   8.135   3.394   7.593 -2.2705  2.6943  2.2051
  253MOL0     H34884   8.206   3.459   7.835  0.0619 -0.3910  1.8621
  253MOL0     H34885   8.104   3.312   7.873 -2.8529 -3.4469 -5.3122
  253MOL0     H34886   7.997   3.545   7.724 -1.9540 -0.6060 -0.7650
  253MOL0     H34887   7.909   3.407   7.794 -0.1905 -0.8369 -0.3136
  253MOL0     H34888   7.868   3.588   7.940  1.0844  1.0930  1.1675
  253MOL0     H34889   8.031   3.649   7.925 -1.2263  0.6652 -0.7980
  253MOL0     H34890   8.115   3.445   8.054 -0.7516 -1.5465 -1.9510
  253MOL0     H34891   7.959   3.379   8.056  1.9688 -0.9446  0.0113
  253MOL0     H34892   7.889   3.616   8.164  0.9194  2.8246  1.6756
  253MOL0     H34893   8.056   3.650   8.177 -2.1803  1.7541 -0.6314
  253MOL0     H34894   8.580   3.068   7.401  1.8524 -0.1268 -1.8928
  253MOL0     H34895   8.616   2.962   7.208  1.7868  2.5896 -0.8845
  253MOL0     H34896   8.814   2.793   6.902  1.8069 -1.9506 -2.6846
  253MOL0     H34897   8.922   2.743   6.708  0.9334  0.9980 -3.8988
  253MOL0     H34898   9.902   2.133   6.225  0.4243  0.3623  0.0641
  253MOL0     H34899   9.927   1.902   6.092 -1.2973 -0.3042 -1.3547
  253MOL0     H34900  10.176   1.452   6.113  0.4701 -1.1363  0.1831
  253MOL0     H34901  10.199   1.247   5.978 -0.0766  0.6119 -1.8585
  253MOL0     H34902   9.833   1.047   5.812  1.0281 -3.3187  0.4430
  253MOL0     H34903   9.913   1.148   5.677  1.2542 -0.9018 -1.8061
  253MOL0     H34904  10.056   0.977   5.618 -1.3882  2.1851  1.0509
  253MOL0     H34905   9.919   0.891   5.637 -0.2357  1.4153 -1.2431
  253MOL0     H34906  10.151   0.926   5.828  1.6018  0.9429 -4.1042
  253MOL0     H34907  10.002   0.837   5.885 -2.6908  3.1592 -0.1747
  253MOL0     H34908  10.212   0.707   5.824  2.9219  2.7017 -0.3028
  253MOL0     H34909  10.213   0.763   5.661  1.6574  0.3799  0.0877
  253MOL0     H34910   9.943   0.435   5.671 -1.2848  1.1756 -2.3961
  253MOL0     H34911   9.790   1.269   5.858  1.6297 -2.8193 -0.5858
  253MOL0     H34912   9.656   1.410   5.936 -0.0743  1.7268 -0.0003
  253MOL0     H34913   9.651   1.481   6.097 -2.7442 -0.7965 -0.8564
  253MOL0     H34914   9.704   1.577   5.961 -1.0126  0.8306  0.8109
  254MOL0     O34915   5.377   5.410  10.786  0.8779  0.5684  0.5008
  254MOL0     C34916   5.449   5.465  10.866  0.2243  0.4709  0.0028
  254MOL0     O34917   5.576   5.508  10.845  0.1312 -0.3353 -0.1504
  254MOL0     C34918   5.651   5.463  10.741  0.6973  0.4696  0.8666
  254MOL0     C34919   5.674   5.549  10.637 -0.1587 -0.7403  0.7434
  254MOL0     C34920   5.747   5.491  10.527 -0.8457  0.5543 -1.1697
  254MOL0     C34921   5.799   5.360  10.534  0.6074 -0.3463 -0.6117
  254MOL0     O34922   5.881   5.317  10.427  0.6556  0.4501 -0.0741
  254MOL0     C34923   5.874   5.177  10.393  0.0146 -0.6481 -0.6221
  254MOL0     C34924   5.959   5.172  10.258  0.8192 -0.0875 -0.2665
  254MOL0     C34925   5.953   5.040  10.180 -0.3651  0.1449  0.1371
  254MOL0     C34926   5.970   4.913  10.276  0.1416  0.1814  0.2795
  254MOL0     C34927   5.973   4.797  10.180  0.6148 -0.7767  0.1378
  254MOL0     C34928   6.018   4.671  10.266 -0.3059  0.4964 -0.1870
  254MOL0     C34929   5.992   4.541  10.184 -0.5109  0.3438 -0.0644
  254MOL0     C34930   5.844   4.502  10.187  0.0374 -0.2044 -0.5531
  254MOL0     N34931   5.830   4.364  10.164  0.0620  0.2779 -0.1619
  254MOL0     C34932   5.881   4.288  10.068  0.3362 -0.1257  0.3308
  254MOL0     C34933   5.831   4.162  10.080 -0.9016 -0.2842 -0.0365
  254MOL0     C34934   5.855   4.047   9.984 -0.3218 -0.1686 -0.4710
  254MOL0     C34935   5.740   4.050   9.880  0.4072 -0.0179  0.3819
  254MOL0     C34936   5.735   3.931   9.789  0.7512 -0.3916 -0.4183
  254MOL0     C34937   5.613   3.937   9.692 -0.0071 -0.2925 -0.4744
  254MOL0     O34938   5.624   3.844   9.587  0.3923  0.2261  0.2571
  254MOL0     C34939   5.545   3.733   9.560 -1.2552  0.3997 -0.1229
  254MOL0     C34940   5.599   3.636   9.493  0.5670 -0.4636  0.1681
  254MOL0     C34941   5.538   3.513   9.472 -0.6375  0.0543  0.6037
  254MOL0     C34942   5.611   3.406   9.389  0.0108 -1.1091  0.0178
  254MOL0     C34943   5.412   3.499   9.517 -0.2985  0.2491 -0.8159
  254MOL0     C34944   5.337   3.370   9.491 -0.8435  0.5318  0.2703
  254MOL0     O34945   5.226   3.381   9.409  0.1248 -0.2241 -0.0172
  254MOL0     C34946   5.178   3.273   9.346  0.2184 -0.8162  0.2268
  254MOL0     C34947   5.035   3.250   9.362 -0.9614  0.1606  0.3789
  254MOL0     C34948   4.977   3.152   9.286 -0.4993 -0.5880  0.0192
  254MOL0     C34949   5.046   3.067   9.208  0.4102 -0.5276 -0.3757
  254MOL0     O34950   4.977   2.970   9.146 -0.3256  0.1528 -0.7000
  254MOL0     C34951   5.007   2.916   9.029  1.1832  0.7479  0.6812
  254MOL0     C34952   4.908   2.798   9.011 -0.4269 -0.2320 -0.7144
  254MOL0     C34953   4.763   2.810   9.051 -0.2434  0.6008 -0.6291
  254MOL0     C34954   4.720   2.747   9.174  0.2378 -0.0624 -0.6827
  254MOL0     C34955   4.569   2.745   9.198  0.3476  1.0699  0.7908
  254MOL0     C34956   4.527   2.651   9.314 -0.6142  0.7429 -0.3332
  254MOL0     C34957   4.376   2.663   9.349  0.1596 -1.8029 -0.3257
  254MOL0     C34958   4.348   2.592   9.484  0.3536 -0.3315 -0.2918
  254MOL0    Cl34959   4.371   2.417   9.493  0.2859 -0.4105 -0.1989
  254MOL0     C34960   5.184   3.086   9.191 -0.6462  0.5922  0.2539
  254MOL0     C34961   5.256   3.195   9.256  0.4580 -0.2620  0.4822
  254MOL0     O34962   5.379   3.268   9.532 -0.7853 -0.2322  0.4586
  254MOL0     C34963   5.346   3.598   9.588 -0.0103 -0.1691  0.7126
  254MOL0     C34964   5.426   3.709   9.616 -0.3117  0.0034 -0.8781
  254MOL0     N34965   5.754   4.160  10.189  0.7436 -0.0944  0.6053
  254MOL0     N34966   5.745   4.285  10.234 -0.2346 -0.4142 -0.0853
  254MOL0     C34967   5.770   5.279  10.654 -0.0571  0.4520  0.0814
  254MOL0     C34968   5.694   5.332  10.752 -0.0463  0.1175 -1.3031
  254MOL0     C34969   5.381   5.520  10.995  0.1810 -1.0711 -0.1478
  254MOL0     C34970   5.435   5.632  11.061 -0.2448 -0.1211 -0.2980
  254MOL0     C34971   5.359   5.694  11.168 -0.5609 -0.0673  0.9402
  254MOL0     C34972   5.240   5.641  11.214  0.0469 -0.6311  0.1057
  254MOL0     O34973   5.162   5.690  11.312  0.8923  0.1054  0.1138
  254MOL0     C34974   5.227   5.764  11.423  0.5591 -1.1346 -0.0188
  254MOL0     C34975   5.336   5.681  11.494 -0.4485  0.5180 -0.4976
  254MOL0     C34976   5.286   5.553  11.566  0.3700 -0.0872 -0.0857
  254MOL0     C34977   5.388   5.476  11.638  0.3942  0.7808  0.1783
  254MOL0     C34978   5.442   5.549  11.754 -0.4278 -0.5317  0.5456
  254MOL0     C34979   5.502   5.614  11.839  0.3361 -0.3474  0.1126
  254MOL0     C34980   5.195   5.527  11.160 -0.2400  0.0599 -0.2232
  254MOL0     C34981   5.261   5.460  11.053 -0.1718 -1.0368 -0.8667
  254MOL0     C34982   5.201   5.330  11.006 -0.0348 -0.8565 -0.0628
  254MOL0     H34983   5.621   5.643  10.632  0.5766 -0.3440  0.1102
  254MOL0     H34984   5.762   5.548  10.435  0.9109 -0.3056 -1.4488
  254MOL0     H34985   5.770   5.153  10.372 -0.8122 -0.2360  2.4357
  254MOL0     H34986   5.916   5.109  10.468  3.6492  0.3615 -1.5340
  254MOL0     H34987   5.908   5.249  10.200 -1.9994 -1.1740  0.5907
  254MOL0     H34988   6.065   5.194  10.275  0.4378 -0.3916  3.1803
  254MOL0     H34989   5.856   5.040  10.130  0.0386 -2.1793 -0.7499
  254MOL0     H34990   6.029   5.039  10.101 -1.8889  0.7532 -1.3881
  254MOL0     H34991   6.067   4.914  10.327  0.7001 -1.7415 -0.6574
  254MOL0     H34992   5.895   4.901  10.354 -1.2865 -1.3171 -1.2275
  254MOL0     H34993   6.054   4.808  10.108 -0.0091  0.5652 -0.3913
  254MOL0     H34994   5.881   4.779  10.123  1.8727 -1.1190 -1.8676
  254MOL0     H34995   6.126   4.677  10.281 -0.2737 -0.3911 -0.0231
  254MOL0     H34996   5.978   4.647  10.365 -0.6992 -2.0340 -0.8981
  254MOL0     H34997   6.051   4.474  10.248 -2.5865 -0.6167  0.9771
  254MOL0     H34998   6.033   4.560  10.085  0.3324  0.8879  0.3777
  254MOL0     H34999   5.798   4.530  10.282  0.4866  2.1837 -0.9938
  254MOL0     H35000   5.781   4.554  10.114  0.2413  1.5608  0.4800
  254MOL0     H35001   5.970   4.311  10.011  0.5387 -2.3658 -0.3376
  254MOL0     H35002   5.845   3.963  10.053  2.6181  1.8355  2.7434
  254MOL0     H35003   5.953   4.045   9.936  0.3338  0.4898  0.7888
  254MOL0     H35004   5.648   4.054   9.939  1.7044 -0.1426  2.4850
  254MOL0     H35005   5.755   4.139   9.819  0.1280  0.4473  0.9830
  254MOL0     H35006   5.829   3.922   9.734  0.3921 -0.3210 -1.0495
  254MOL0     H35007   5.724   3.847   9.859 -1.4017  1.0686  1.1414
  254MOL0     H35008   5.514   3.932   9.737 -0.3446 -1.8867 -1.3277
  254MOL0     H35009   5.622   4.035   9.644  1.4307 -0.4414 -0.5496
  254MOL0     H35010   5.693   3.652   9.441  0.2957 -1.4576 -0.6720
  254MOL0     H35011   5.688   3.451   9.325  1.4766  1.4688  3.2393
  254MOL0     H35012   5.543   3.342   9.334 -0.9301 -2.5656  2.6827
  254MOL0     H35013   5.662   3.333   9.453  3.4991  0.7113 -0.4019
  254MOL0     H35014   4.969   3.305   9.429 -0.3328  1.8171 -0.2953
  254MOL0     H35015   4.868   3.153   9.285 -0.5500  0.8010  1.8856
  254MOL0     H35016   4.983   2.994   8.957 -0.8010 -1.0884 -0.7887
  254MOL0     H35017   5.104   2.867   9.017 -1.0894 -4.9902  2.1429
  254MOL0     H35018   4.921   2.747   8.915  1.9188 -0.2054 -0.4683
  254MOL0     H35019   4.952   2.724   9.078  3.4438  2.4133 -0.0271
  254MOL0     H35020   4.698   2.772   8.972 -1.5523  2.9565 -0.7908
  254MOL0     H35021   4.746   2.918   9.060 -2.8058  0.1445  1.2329
  254MOL0     H35022   4.767   2.801   9.257 -0.3545  1.8794 -1.5602
  254MOL0     H35023   4.750   2.642   9.173 -0.6406 -0.3369  0.1068
  254MOL0     H35024   4.531   2.847   9.197 -1.6699  0.3837 -1.1745
  254MOL0     H35025   4.528   2.700   9.107  1.4806 -1.7754  1.5668
  254MOL0     H35026   4.595   2.689   9.391 -0.7296  0.2616  0.0142
  254MOL0     H35027   4.572   2.553   9.296 -0.0904  1.2920 -2.2137
  254MOL0     H35028   4.307   2.641   9.267  0.7733  0.4085 -1.5258
  254MOL0     H35029   4.360   2.767   9.380  0.8951 -1.2301 -1.8287
  254MOL0     H35030   4.245   2.613   9.514  0.7630  2.4860 -0.5620
  254MOL0     H35031   4.415   2.634   9.560 -1.4333  1.0877  0.5685
  254MOL0     H35032   5.232   3.008   9.132  4.7511  1.3527  3.0641
  254MOL0     H35033   5.365   3.205   9.256  0.3471  2.7061  2.8299
  254MOL0     H35034   5.250   3.583   9.636  0.1799 -1.8312  0.6289
  254MOL0     H35035   5.382   3.778   9.687 -0.3817 -2.6306  1.8570
  254MOL0     H35036   5.819   5.182  10.653 -0.6273  0.0430 -4.2038
  254MOL0     H35037   5.662   5.270  10.835 -0.6232 -0.7540 -2.1520
  254MOL0     H35038   5.520   5.687  11.023  1.9742 -2.2577  1.2714
  254MOL0     H35039   5.389   5.790  11.208 -3.7959  2.3269 -1.7595
  254MOL0     H35040   5.267   5.859  11.388  0.2308 -1.3772 -1.0832
  254MOL0     H35041   5.155   5.795  11.500  1.4223 -0.2445  0.4435
  254MOL0     H35042   5.375   5.751  11.569  0.5182  0.3232 -0.8028
  254MOL0     H35043   5.417   5.658  11.424  1.7551 -1.0887  2.3492
  254MOL0     H35044   5.212   5.590  11.638  2.2717  1.5926  1.1296
  254MOL0     H35045   5.235   5.488  11.495 -0.4422 -0.8408  1.1492
  254MOL0     H35046   5.468   5.444  11.570  0.7463  0.3058  0.7986
  254MOL0     H35047   5.345   5.383  11.677  2.0810  1.3308  3.7697
  254MOL0     H35048   5.532   5.667  11.927  0.8166 -1.3781  0.5921
  254MOL0     H35049   5.102   5.484  11.197 -0.4418 -1.4996 -2.3592
  254MOL0     H35050   5.267   5.268  10.945 -0.1604  0.7505 -1.9275
  254MOL0     H35051   5.167   5.278  11.096  1.2065 -0.4171  0.6828
  254MOL0     H35052   5.117   5.358  10.941 -1.6275  1.5714  2.7700
  255MOL0     O35053   6.882   2.376   7.550  0.0081 -0.8614  0.2092
  255MOL0     C35054   6.860   2.475   7.618 -0.0739 -1.1751  0.3321
  255MOL0     O35055   6.913   2.603   7.601 -0.2150 -0.3087  0.1439
  255MOL0     C35056   6.969   2.637   7.473  0.0842  0.5834 -0.8922
  255MOL0     C35057   6.893   2.638   7.356 -0.1558 -0.5255 -0.3756
  255MOL0     C35058   6.947   2.703   7.239  0.0192  0.5201  1.0992
  255MOL0     C35059   7.077   2.741   7.231  0.6010  0.2381 -0.0342
  255MOL0     O35060   7.113   2.779   7.109  0.3081 -0.3590  0.3096
  255MOL0     C35061   7.244   2.841   7.095  0.0799 -0.7196 -1.7656
  255MOL0     C35062   7.356   2.729   7.078 -0.3969  0.2090  0.2476
  255MOL0     C35063   7.503   2.780   7.096  0.3587  0.6497  0.7315
  255MOL0     C35064   7.521   2.815   7.246  0.6823 -0.3072 -0.4461
  255MOL0     C35065   7.672   2.811   7.272 -0.4909 -0.3422  0.0088
  255MOL0     C35066   7.704   2.866   7.413  0.0920  0.8079 -0.2656
  255MOL0     C35067   7.853   2.878   7.437 -1.4943  0.3799  0.3612
  255MOL0     C35068   7.885   2.914   7.584  0.0254  0.0690  0.1908
  255MOL0     N35069   7.855   2.806   7.686  0.6679 -0.0810  0.5960
  255MOL0     C35070   7.949   2.708   7.712 -1.0740  0.7227 -0.1947
  255MOL0     C35071   7.884   2.644   7.815  0.5818 -0.1441  0.5521
  255MOL0     C35072   7.945   2.559   7.922  1.1734  0.3670  1.4173
  255MOL0     C35073   7.840   2.516   8.035  0.6046  1.2071  0.6228
  255MOL0     C35074   7.904   2.424   8.133 -0.3870 -1.1676 -0.5899
  255MOL0     C35075   7.900   2.472   8.286  0.1309  0.2525  0.2032
  255MOL0     O35076   7.959   2.376   8.366  1.1892  0.4895 -0.1305
  255MOL0     C35077   8.087   2.385   8.410 -0.4666 -1.1897  0.3870
  255MOL0     C35078   8.131   2.310   8.521 -0.1749  0.5183  0.7048
  255MOL0     C35079   8.262   2.310   8.573 -0.5075  0.4272 -1.2123
  255MOL0     C35080   8.287   2.215   8.685  0.4643 -0.3301 -0.7932
  255MOL0     C35081   8.351   2.398   8.525 -1.3702 -0.7789 -0.3127
  255MOL0     C35082   8.495   2.413   8.575  0.3070  0.1475  0.2794
  255MOL0     O35083   8.576   2.488   8.500 -0.5241  0.1756 -0.1929
  255MOL0     C35084   8.714   2.496   8.525 -0.8844  0.1512 -0.2638
  255MOL0     C35085   8.779   2.598   8.466 -0.1129  0.4559  0.0531
  255MOL0     C35086   8.920   2.598   8.460  0.4226 -0.0147  0.6241
  255MOL0     C35087   8.996   2.497   8.530 -0.1313  0.2904  0.4753
  255MOL0     O35088   9.134   2.496   8.532 -0.2903 -0.5845 -0.4056
  255MOL0     C35089   9.207   2.418   8.633  1.1607  0.2739 -0.1789
  255MOL0     C35090   9.342   2.475   8.654 -1.0766  0.4965 -0.2104
  255MOL0     C35091   9.347   2.622   8.719 -0.2555  1.1713  0.3274
  255MOL0     C35092   9.483   2.683   8.668 -0.0849 -0.5597 -0.3264
  255MOL0     C35093   9.504   2.801   8.755 -0.3250 -0.2619  0.6260
  255MOL0     C35094   9.612   2.899   8.706  0.0046  0.8271 -0.1698
  255MOL0     C35095   9.595   3.027   8.793 -0.4218  0.4078 -0.3320
  255MOL0     C35096   9.538   3.145   8.717  0.0781  0.1221 -0.5452
  255MOL0    Cl35097   9.486   3.272   8.835  0.1096  0.1821 -0.2554
  255MOL0     C35098   8.929   2.388   8.588 -0.3207  0.6581 -0.9220
  255MOL0     C35099   8.791   2.391   8.584  0.5367  0.2147 -0.2306
  255MOL0     O35100   8.517   2.373   8.689 -0.2119  0.0199  0.1020
  255MOL0     C35101   8.314   2.485   8.417  0.3983 -0.2511 -0.1430
  255MOL0     C35102   8.186   2.471   8.357  0.6222 -0.3098  0.5992
  255MOL0     N35103   7.759   2.700   7.839  0.3984 -0.3676  0.4443
  255MOL0     N35104   7.743   2.802   7.763 -0.3670 -0.1480  0.2526
  255MOL0     C35105   7.151   2.734   7.355  0.2020  0.6484  0.1237
  255MOL0     C35106   7.095   2.684   7.468 -0.2808 -0.6286  0.4116
  255MOL0     C35107   6.776   2.467   7.741  0.1878 -0.2123 -0.9838
  255MOL0     C35108   6.750   2.339   7.785  0.8670  0.4509 -0.8029
  255MOL0     C35109   6.681   2.321   7.907  0.3097 -0.8095  0.1363
  255MOL0     C35110   6.632   2.429   7.976 -1.5684 -0.8643 -1.0576
  255MOL0     O35111   6.565   2.394   8.090  0.2605  0.1477  0.5036
  255MOL0     C35112   6.522   2.496   8.174 -0.5853 -0.2766 -0.1600
  255MOL0     C35113   6.481   2.452   8.305 -0.3825 -0.6283 -0.4611
  255MOL0     C35114   6.383   2.329   8.306 -0.5848 -0.3524  1.1982
  255MOL0     C35115   6.389   2.254   8.443 -0.2311  0.4288 -0.2880
  255MOL0     C35116   6.402   2.336   8.565  0.5651  0.6635 -0.1184
  255MOL0     C35117   6.404   2.393   8.670 -1.1276  0.0604  0.3603
  255MOL0     C35118   6.650   2.564   7.932 -0.3753  0.2414 -0.0461
  255MOL0     C35119   6.715   2.575   7.811  0.0413  0.7104 -0.3741
  255MOL0     C35120   6.727   2.707   7.774 -0.3849 -0.2595  0.1796
  255MOL0     H35121   6.788   2.610   7.368 -0.7535  2.0033  1.2849
  255MOL0     H35122   6.888   2.709   7.148 -0.2151  2.6879  1.3381
  255MOL0     H35123   7.268   2.894   7.187 -2.3623  1.0389 -2.0370
  255MOL0     H35124   7.252   2.906   7.007 -0.4806 -3.3419 -3.8698
  255MOL0     H35125   7.342   2.642   7.142  4.7741 -1.1518 -0.0521
  255MOL0     H35126   7.345   2.693   6.975 -3.8228 -0.6248  0.7812
  255MOL0     H35127   7.560   2.692   7.064 -1.1223  1.0940 -3.7309
  255MOL0     H35128   7.531   2.860   7.027  0.5778 -0.1632 -0.1374
  255MOL0     H35129   7.498   2.917   7.277  2.2293  0.0019 -0.2217
  255MOL0     H35130   7.467   2.745   7.311 -0.2729 -0.2480 -1.1552
  255MOL0     H35131   7.740   2.872   7.211  1.5066  1.0683  3.3638
  255MOL0     H35132   7.708   2.709   7.261  0.8764  0.1544 -0.2991
  255MOL0     H35133   7.664   2.966   7.431  0.3459  0.9176 -0.2997
  255MOL0     H35134   7.651   2.802   7.484  0.9553  2.3007  1.8722
  255MOL0     H35135   7.885   2.955   7.366 -1.8235 -1.2217 -1.6320
  255MOL0     H35136   7.900   2.786   7.403 -3.8920 -0.1853 -1.7387
  255MOL0     H35137   7.983   2.961   7.588 -0.3217  0.7206  2.8969
  255MOL0     H35138   7.814   2.992   7.615  1.4091  0.3753  2.8131
  255MOL0     H35139   8.047   2.700   7.666 -1.2441  1.5301 -0.7170
  255MOL0     H35140   8.019   2.624   7.969 -0.0248  0.1463  3.7720
  255MOL0     H35141   7.987   2.468   7.880 -1.2788 -0.0042 -0.4550
  255MOL0     H35142   7.799   2.605   8.084 -0.3686  1.4744 -0.6231
  255MOL0     H35143   7.750   2.466   7.998 -1.7306  4.0437  2.0624
  255MOL0     H35144   7.854   2.327   8.124  1.0251 -1.8387 -1.4352
  255MOL0     H35145   8.008   2.409   8.106  0.0543  0.1481  0.2559
  255MOL0     H35146   7.949   2.569   8.290  2.3197 -0.5571 -3.0196
  255MOL0     H35147   7.794   2.480   8.312 -0.2084  1.4233 -1.4123
  255MOL0     H35148   8.057   2.239   8.554 -1.0822  0.3008 -1.6236
  255MOL0     H35149   8.269   2.264   8.781 -0.5619 -2.0264 -0.0854
  255MOL0     H35150   8.388   2.173   8.675  0.3193 -1.4465  1.6931
  255MOL0     H35151   8.226   2.125   8.690  1.9599 -1.3076  2.5599
  255MOL0     H35152   8.746   2.673   8.395  1.0922  1.3630  0.3954
  255MOL0     H35153   8.972   2.676   8.405  2.6710  0.9145  3.7663
  255MOL0     H35154   9.161   2.410   8.732  0.3191  0.1412 -0.5745
  255MOL0     H35155   9.209   2.320   8.586 -0.9174 -0.5309  1.2764
  255MOL0     H35156   9.396   2.405   8.718  1.2036  2.3694  0.0659
  255MOL0     H35157   9.392   2.480   8.556  2.3674 -1.3908  1.2812
  255MOL0     H35158   9.337   2.611   8.827  2.0382 -1.2502  0.4135
  255MOL0     H35159   9.256   2.674   8.688 -0.1308  0.8686 -0.5963
  255MOL0     H35160   9.466   2.697   8.561 -1.2902  1.4574  0.0734
  255MOL0     H35161   9.575   2.624   8.672 -0.4221 -1.4655 -3.4805
  255MOL0     H35162   9.408   2.851   8.735 -0.3856 -1.7416 -4.2115
  255MOL0     H35163   9.516   2.763   8.857  0.0705  0.3790  0.8220
  255MOL0     H35164   9.599   2.918   8.599 -0.1837 -4.8021 -1.4579
  255MOL0     H35165   9.710   2.852   8.720 -0.6292 -0.2183  1.0403
  255MOL0     H35166   9.699   3.045   8.823 -0.4323 -1.4660  0.9735
  255MOL0     H35167   9.533   3.011   8.882  0.8470  2.1828  0.9487
  255MOL0     H35168   9.442   3.110   8.678 -1.7050  2.5325  1.4088
  255MOL0     H35169   9.602   3.176   8.634 -1.6057 -0.4761 -2.1316
  255MOL0     H35170   8.982   2.305   8.635 -0.9074  1.6812  1.7455
  255MOL0     H35171   8.750   2.307   8.640 -3.8982  1.3157 -1.4635
  255MOL0     H35172   8.380   2.557   8.371 -0.1349 -0.2301 -0.8940
  255MOL0     H35173   8.152   2.539   8.279 -0.7853 -1.5949  0.0508
  255MOL0     H35174   7.255   2.763   7.368  0.1339  1.1481 -0.4184
  255MOL0     H35175   7.152   2.688   7.561 -0.1271  0.6851  0.2690
  255MOL0     H35176   6.786   2.254   7.729 -1.0507 -0.7080 -0.3785
  255MOL0     H35177   6.661   2.230   7.962  0.3300 -1.4512 -0.8979
  255MOL0     H35178   6.607   2.562   8.195  0.1791 -0.7972 -1.5157
  255MOL0     H35179   6.430   2.552   8.156 -0.5014  2.1579  5.0112
  255MOL0     H35180   6.446   2.535   8.366  1.3239 -2.1146  2.8559
  255MOL0     H35181   6.567   2.419   8.364 -2.2531 -0.1418  2.7540
  255MOL0     H35182   6.281   2.349   8.271  0.4618  0.9743 -1.3308
  255MOL0     H35183   6.423   2.259   8.233 -0.8589  0.1976  0.5145
  255MOL0     H35184   6.468   2.179   8.448  0.5813  1.3285  1.7993
  255MOL0     H35185   6.296   2.195   8.447 -0.3067  0.5817  3.2128
  255MOL0     H35186   6.393   2.434   8.768  0.1014 -0.6681  0.8286
  255MOL0     H35187   6.608   2.656   7.970 -3.8176  0.0719 -2.8490
  255MOL0     H35188   6.667   2.786   7.821 -0.1410  1.9231 -2.8127
  255MOL0     H35189   6.830   2.739   7.790 -0.1552 -0.4515 -0.8132
  255MOL0     H35190   6.693   2.725   7.671 -1.2575  0.7428  0.6262
  256MOL0     O35191   6.039   3.203   0.601 -0.6631  0.2657 -0.4113
  256MOL0     C35192   6.136   3.210   0.682  0.2716 -0.9509 -0.8424
  256MOL0     O35193   6.161   3.306   0.769  0.5351  0.2485  0.0876
  256MOL0     C35194   6.111   3.431   0.755  0.4935  0.9271 -0.0309
  256MOL0     C35195   6.126   3.518   0.643 -0.4460 -0.1451 -0.0993
  256MOL0     C35196   6.060   3.649   0.630 -0.4452 -0.1147 -0.8082
  256MOL0     C35197   5.985   3.688   0.736  0.6220  0.0574  0.0948
  256MOL0     O35198   5.901   3.796   0.739  0.8201 -0.0170 -0.1069
  256MOL0     C35199   5.915   3.879   0.624  1.2590  0.2137 -0.5649
  256MOL0     C35200   5.814   3.996   0.644  0.3590 -0.4352  0.0982
  256MOL0     C35201   5.760   4.033   0.508  0.6767 -0.4037 -0.8327
  256MOL0     C35202   5.645   4.134   0.521 -0.5082  0.0904  0.8384
  256MOL0     C35203   5.518   4.078   0.583  0.5453 -0.1183 -0.1041
  256MOL0     C35204   5.396   4.183   0.585 -0.5237  0.4361  0.4669
  256MOL0     C35205   5.416   4.299   0.677 -0.1230  0.1908 -0.7484
  256MOL0     C35206   5.433   4.264   0.831 -0.3352 -0.9579 -0.1459
  256MOL0     N35207   5.543   4.346   0.884  0.4869  0.1783 -0.1034
  256MOL0     C35208   5.672   4.300   0.912  0.8923 -0.1397 -0.6851
  256MOL0     C35209   5.725   4.412   0.982 -0.5963  0.7509 -0.5129
  256MOL0     C35210   5.871   4.441   1.024  0.4753 -0.2541  0.1311
  256MOL0     C35211   5.916   4.554   0.931  0.2231 -0.2942 -0.2590
  256MOL0     C35212   6.054   4.593   0.955  0.6516  0.9715  0.5087
  256MOL0     C35213   6.069   4.682   1.078 -0.4301  0.4310  0.1616
  256MOL0     O35214   6.205   4.678   1.137  0.1102 -0.0584 -0.2488
  256MOL0     C35215   6.269   4.794   1.108  0.1695 -0.8753  0.4229
  256MOL0     C35216   6.352   4.807   0.994 -0.3139  0.3528 -0.0730
  256MOL0     C35217   6.407   4.928   0.955  0.2879  0.2288  0.9176
  256MOL0     C35218   6.489   4.924   0.828 -1.1280  0.4318 -0.3547
  256MOL0     C35219   6.385   5.033   1.044 -0.6660 -0.4583  0.7386
  256MOL0     C35220   6.462   5.159   1.026  0.4032  0.2552 -0.1205
  256MOL0     O35221   6.523   5.173   0.909  0.2468  0.4498 -0.3937
  256MOL0     C35222   6.580   5.285   0.875  0.1781  0.9789 -0.0153
  256MOL0     C35223   6.530   5.413   0.908  0.9406  0.1651 -0.8625
  256MOL0     C35224   6.596   5.528   0.886  0.3109  0.5968 -0.5735
  256MOL0     C35225   6.722   5.515   0.823  0.6563 -0.1282 -0.3752
  256MOL0     O35226   6.793   5.627   0.790  0.0174  0.5403  0.1255
  256MOL0     C35227   6.916   5.619   0.714 -0.2124 -0.5058  0.2910
  256MOL0     C35228   6.988   5.760   0.704 -0.5527  0.3376 -0.0895
  256MOL0     C35229   7.023   5.806   0.850 -0.3268  0.0077 -0.3050
  256MOL0     C35230   7.101   5.927   0.869  0.0920  0.2996  0.0615
  256MOL0     C35231   7.116   5.942   1.018 -0.1902 -0.0584 -0.0194
  256MOL0     C35232   7.181   6.076   1.045  0.8063  0.6701  0.1891
  256MOL0     C35233   7.063   6.175   1.075  0.0411  0.1121  0.4305
  256MOL0     C35234   7.107   6.318   1.076  0.1869 -0.7406  0.0583
  256MOL0    Cl35235   7.124   6.356   0.905  0.0500  0.1684 -0.3410
  256MOL0     C35236   6.774   5.393   0.792  0.3696 -0.3116  0.1154
  256MOL0     C35237   6.697   5.278   0.811 -0.2661 -0.2305 -0.5548
  256MOL0     O35238   6.465   5.242   1.121  0.8123  0.0889  0.1162
  256MOL0     C35239   6.314   5.020   1.161  0.3698 -0.4204  0.2439
  256MOL0     C35240   6.245   4.906   1.192 -0.1429  0.7946 -0.0809
  256MOL0     N35241   5.626   4.500   1.006  0.4135 -0.0624 -0.0327
  256MOL0     N35242   5.525   4.468   0.940 -0.1502 -0.3736  0.6755
  256MOL0     C35243   5.978   3.604   0.845  0.3049 -0.8918  0.0004
  256MOL0     C35244   6.031   3.471   0.858 -0.8582  0.0721  0.2526
  256MOL0     C35245   6.231   3.098   0.694  0.7607 -0.7237 -0.4991
  256MOL0     C35246   6.172   2.971   0.677  0.1407 -0.3477 -0.3070
  256MOL0     C35247   6.244   2.857   0.680 -0.5690  0.4620  0.4851
  256MOL0     C35248   6.383   2.860   0.712  0.1020 -0.6683 -0.3976
  256MOL0     O35249   6.462   2.750   0.726  0.2759 -0.9696  0.2262
  256MOL0     C35250   6.410   2.615   0.693  0.6387  0.7080 -0.2432
  256MOL0     C35251   6.538   2.538   0.647 -0.4504 -0.1513 -0.9461
  256MOL0     C35252   6.622   2.490   0.764 -0.4848  0.0868  0.2892
  256MOL0     C35253   6.758   2.447   0.708 -0.0797  0.1588 -0.0530
  256MOL0     C35254   6.757   2.316   0.632  0.3318  1.0372  0.3687
  256MOL0     C35255   6.759   2.210   0.567  1.2657 -0.0998  0.2940
  256MOL0     C35256   6.438   2.983   0.739 -0.2350 -0.2309 -0.1676
  256MOL0     C35257   6.367   3.102   0.732 -0.0586 -0.0616 -0.3164
  256MOL0     C35258   6.458   3.224   0.747 -0.7630 -0.7400  0.0378
  256MOL0     H35259   6.186   3.490   0.557 -2.1220  0.1412 -1.4107
  256MOL0     H35260   6.075   3.706   0.539 -1.4242  1.1522 -0.2180
  256MOL0     H35261   5.891   3.821   0.534 -0.2921 -3.0634  1.7401
  256MOL0     H35262   6.019   3.911   0.614  1.5391 -0.8778 -1.3322
  256MOL0     H35263   5.731   3.961   0.706 -0.1939  1.3390  0.4182
  256MOL0     H35264   5.855   4.086   0.690 -1.2108  0.5334 -0.3022
  256MOL0     H35265   5.832   4.087   0.446 -1.9462 -0.4631 -4.2205
  256MOL0     H35266   5.738   3.943   0.450  0.1027  0.1052 -1.4238
  256MOL0     H35267   5.680   4.209   0.592 -0.0136  1.1566 -0.5128
  256MOL0     H35268   5.623   4.178   0.424  3.4311  1.2391  0.3079
  256MOL0     H35269   5.538   4.048   0.687 -2.8280  0.2696  0.7919
  256MOL0     H35270   5.495   3.983   0.532 -3.3899  1.4940 -1.7739
  256MOL0     H35271   5.386   4.224   0.484 -0.1618  0.1038  0.2908
  256MOL0     H35272   5.307   4.123   0.608  0.7323 -0.8674  2.2042
  256MOL0     H35273   5.328   4.364   0.671 -0.2721 -0.0007 -0.6229
  256MOL0     H35274   5.506   4.339   0.630  0.2821  0.3313  0.1387
  256MOL0     H35275   5.344   4.272   0.895 -1.9303 -2.0555 -2.0963
  256MOL0     H35276   5.465   4.159   0.833  2.8842 -0.0567  0.6900
  256MOL0     H35277   5.726   4.208   0.892 -0.2316 -1.0262  0.2050
  256MOL0     H35278   5.926   4.349   1.000 -0.8837 -1.1383  0.3133
  256MOL0     H35279   5.881   4.473   1.128  1.6449 -0.1588  0.0008
  256MOL0     H35280   5.924   4.511   0.831 -0.8491  0.2819 -0.6080
  256MOL0     H35281   5.856   4.645   0.927  0.2606 -0.2812 -0.5545
  256MOL0     H35282   6.122   4.508   0.963  2.6912  2.7546  4.6653
  256MOL0     H35283   6.077   4.662   0.873  1.9593 -0.7788 -0.6921
  256MOL0     H35284   6.033   4.781   1.051 -0.9600  0.5093  1.1503
  256MOL0     H35285   6.003   4.646   1.157  0.8476 -2.2106  0.1397
  256MOL0     H35286   6.373   4.719   0.933 -3.3110 -1.3647  1.1378
  256MOL0     H35287   6.481   4.825   0.781  1.5333 -0.2197  0.3829
  256MOL0     H35288   6.592   4.938   0.862 -0.3511 -1.6529 -1.6585
  256MOL0     H35289   6.468   4.995   0.749  0.3814 -0.5057 -1.6669
  256MOL0     H35290   6.427   5.417   0.942  1.0490 -2.9351  0.1088
  256MOL0     H35291   6.555   5.621   0.924 -0.0970  1.2372 -2.5022
  256MOL0     H35292   6.986   5.556   0.769 -0.0492  0.7853  1.6202
  256MOL0     H35293   6.911   5.584   0.610 -1.3068 -1.3221  0.5940
  256MOL0     H35294   7.067   5.757   0.628 -0.8774  3.2875 -0.6512
  256MOL0     H35295   6.912   5.822   0.657 -1.3444  0.3221  1.1263
  256MOL0     H35296   7.080   5.722   0.890  1.5502  0.7313 -1.3717
  256MOL0     H35297   6.925   5.813   0.899  0.5950  1.0584  1.5020
  256MOL0     H35298   7.054   6.018   0.830  0.9681  0.8351  0.2334
  256MOL0     H35299   7.198   5.905   0.824 -0.2692 -1.5128  0.1197
  256MOL0     H35300   7.020   5.922   1.066 -0.2695  0.1110 -0.1034
  256MOL0     H35301   7.173   5.865   1.069 -1.2120 -1.2905 -0.6752
  256MOL0     H35302   7.246   6.116   0.966  2.1337  2.0595  1.9107
  256MOL0     H35303   7.233   6.058   1.140  0.8873 -3.2746 -0.4300
  256MOL0     H35304   7.030   6.148   1.176  0.3021  0.0562  0.5003
  256MOL0     H35305   6.980   6.171   1.003  0.6041  4.4723 -0.7723
  256MOL0     H35306   7.205   6.338   1.121 -0.7613 -2.8852  3.3619
  256MOL0     H35307   7.032   6.386   1.117 -2.8527 -0.8046 -4.6438
  256MOL0     H35308   6.866   5.377   0.736  0.6443  1.0988  0.1176
  256MOL0     H35309   6.732   5.180   0.781  0.2610 -0.0215 -0.6377
  256MOL0     H35310   6.315   5.100   1.235  1.4763 -1.2454  1.1637
  256MOL0     H35311   6.181   4.893   1.279 -2.5823  1.5272 -1.6420
  256MOL0     H35312   5.924   3.649   0.928 -1.1079 -1.2383 -0.7038
  256MOL0     H35313   6.021   3.412   0.948 -1.6555 -1.3991 -0.7561
  256MOL0     H35314   6.069   2.970   0.643  0.3354 -1.3186 -0.9105
  256MOL0     H35315   6.186   2.766   0.675  0.1018 -0.0925  2.0593
  256MOL0     H35316   6.379   2.557   0.780 -1.0415  2.2557  0.2516
  256MOL0     H35317   6.329   2.603   0.620 -1.4364  1.1411  1.8656
  256MOL0     H35318   6.599   2.611   0.593  4.6588 -1.3654  2.4472
  256MOL0     H35319   6.529   2.452   0.580  4.2704 -0.5475 -1.3665
  256MOL0     H35320   6.631   2.571   0.836 -0.0140 -0.6431  1.0723
  256MOL0     H35321   6.570   2.406   0.811  0.6048 -0.1371  1.1383
  256MOL0     H35322   6.832   2.454   0.788  0.8426  0.3340 -0.9094
  256MOL0     H35323   6.795   2.529   0.645  1.3356  1.2944  2.1035
  256MOL0     H35324   6.775   2.115   0.520  1.9385 -0.9082  2.0588
  256MOL0     H35325   6.537   2.995   0.782 -0.7853  1.5077  0.7143
  256MOL0     H35326   6.553   3.212   0.694  0.1289  2.0917  0.8422
  256MOL0     H35327   6.396   3.308   0.716 -0.0932 -0.3432 -0.2521
  256MOL0     H35328   6.490   3.244   0.850 -1.9071 -1.5888  0.5784
  257MOL0     O35329   3.884  10.811   6.470  0.1336 -0.1671  0.3197
  257MOL0     C35330   3.786  10.810   6.548  0.1757 -1.0858  0.0556
  257MOL0     O35331   3.727  10.703   6.605 -0.3079  0.2231 -0.4161
  257MOL0     C35332   3.782  10.576   6.595  0.6486  0.0507  0.4940
  257MOL0     C35333   3.706  10.455   6.594 -0.5263  0.2049  0.0865
  257MOL0     C35334   3.757  10.331   6.573 -0.6942  0.4438  1.0616
  257MOL0     C35335   3.892  10.312   6.560 -0.6769  0.6556  0.6749
  257MOL0     O35336   3.952  10.189   6.539 -0.3196  0.1226 -0.2522
  257MOL0     C35337   3.889  10.067   6.582  0.7834  1.0892  0.3308
  257MOL0     C35338   3.977   9.944   6.536 -0.2971  0.5504  0.2004
  257MOL0     C35339   4.128   9.981   6.512 -0.9388  0.1536  0.0696
  257MOL0     C35340   4.210   9.864   6.458  0.6309  1.1126 -0.0388
  257MOL0     C35341   4.247   9.749   6.558  0.1184  0.2492  0.5735
  257MOL0     C35342   4.365   9.789   6.644  0.3093 -0.1987 -0.9616
  257MOL0     C35343   4.416   9.658   6.713 -0.9075 -0.0461 -0.0304
  257MOL0     C35344   4.333   9.585   6.814 -0.0474 -0.5138  0.6093
  257MOL0     N35345   4.280   9.687   6.903  0.2132 -0.1485  0.3154
  257MOL0     C35346   4.355   9.791   6.962  0.2131  0.9456 -0.3719
  257MOL0     C35347   4.256   9.879   7.003 -0.7984  1.2377 -0.0430
  257MOL0     C35348   4.292  10.016   7.064  0.1623  0.0226 -0.8623
  257MOL0     C35349   4.319  10.131   6.959 -0.4211 -0.6459 -0.2666
  257MOL0     C35350   4.183  10.194   6.932 -0.7725 -0.7362 -0.0016
  257MOL0     C35351   4.169  10.301   6.826 -0.2378  0.3003 -0.3980
  257MOL0     O35352   4.052  10.377   6.851 -0.8037  0.5623  0.0289
  257MOL0     C35353   4.054  10.484   6.941  0.9031  0.2473  0.0251
  257MOL0     C35354   4.161  10.524   7.024  0.1854  0.7025 -0.1639
  257MOL0     C35355   4.145  10.633   7.108 -0.0637  0.3999 -0.7464
  257MOL0     C35356   4.266  10.688   7.188  0.3755 -1.2126  0.0733
  257MOL0     C35357   4.018  10.703   7.115  0.1782  0.1766  0.2248
  257MOL0     C35358   3.987  10.831   7.190 -0.3573 -1.0763 -0.5942
  257MOL0     O35359   3.857  10.866   7.222  0.3489 -0.1199  0.2446
  257MOL0     C35360   3.816  10.991   7.203 -0.0172  1.0370 -0.5082
  257MOL0     C35361   3.903  11.102   7.172 -0.3404  0.0139 -0.4118
  257MOL0     C35362   3.846  11.233   7.158  0.2448  0.1816  0.0425
  257MOL0     C35363   3.709  11.252   7.191 -0.8542 -1.1026  0.2528
  257MOL0     O35364   3.644  11.369   7.197 -0.1080  0.0780  0.2709
  257MOL0     C35365   3.718  11.477   7.253 -1.2269  0.2829  0.3370
  257MOL0     C35366   3.750  11.594   7.152  0.4104  0.3602  0.6580
  257MOL0     C35367   3.864  11.682   7.221 -0.1716 -0.5770  0.3021
  257MOL0     C35368   3.913  11.800   7.123  0.3320 -0.2547  0.7511
  257MOL0     C35369   3.981  11.746   6.994  0.5623 -0.3200  1.1678
  257MOL0     C35370   4.000  11.843   6.873  0.1706 -0.3781 -0.5200
  257MOL0     C35371   4.032  11.763   6.744  0.8660  0.1219  0.3384
  257MOL0     C35372   3.953  11.627   6.724  0.3027  0.6380 -0.4128
  257MOL0    Cl35373   3.779  11.659   6.714 -0.1754 -0.6554  0.2489
  257MOL0     C35374   3.638  11.141   7.226  0.1754  0.7171 -1.0041
  257MOL0     C35375   3.690  11.014   7.243  0.0165  0.0025  0.0807
  257MOL0     O35376   4.091  10.892   7.212 -0.0979  0.0300  0.6327
  257MOL0     C35377   3.912  10.657   7.034 -0.2848 -0.5059  0.8875
  257MOL0     C35378   3.932  10.558   6.949  0.1597 -0.9001 -0.0874
  257MOL0     N35379   4.144   9.825   6.976  0.1389  0.3754  1.0251
  257MOL0     N35380   4.149   9.710   6.916  0.5108 -1.0882  0.0541
  257MOL0     C35381   3.977  10.426   6.571  0.3431 -0.1521 -0.0658
  257MOL0     C35382   3.927  10.554   6.594  0.3419 -0.1183  0.0084
  257MOL0     C35383   3.728  10.944   6.588  0.0316  1.0136  1.0286
  257MOL0     C35384   3.666  10.957   6.716 -0.1548  0.5981  0.9289
  257MOL0     C35385   3.619  11.081   6.765  0.0124 -0.0121 -0.1941
  257MOL0     C35386   3.611  11.192   6.687 -0.6981 -0.6866  0.6294
  257MOL0     O35387   3.567  11.311   6.748 -0.0077 -0.6602  0.2562
  257MOL0     C35388   3.512  11.414   6.662 -0.1876  0.9520 -0.5279
  257MOL0     C35389   3.451  11.525   6.757  0.3515  0.9303  0.0711
  257MOL0     C35390   3.417  11.655   6.685  0.4114 -0.5007 -0.1295
  257MOL0     C35391   3.335  11.766   6.760  0.0750  0.3779 -0.7193
  257MOL0     C35392   3.268  11.869   6.683 -0.1854  0.0816  1.5407
  257MOL0     C35393   3.223  11.972   6.639  0.1030  0.6251 -0.2380
  257MOL0     C35394   3.673  11.181   6.559  0.4975  0.0369  0.9174
  257MOL0     C35395   3.710  11.057   6.512 -0.3333  0.4051 -0.1379
  257MOL0     C35396   3.758  11.069   6.375 -0.9552  0.1283  0.6292
  257MOL0     H35397   3.598  10.451   6.597 -0.4843 -2.5525 -0.3342
  257MOL0     H35398   3.682  10.253   6.560  0.8896 -0.6965 -2.5070
  257MOL0     H35399   3.786  10.043   6.552  1.3294 -0.2738 -0.5263
  257MOL0     H35400   3.883  10.077   6.691  0.6516  4.9044  0.1284
  257MOL0     H35401   3.984   9.864   6.611  0.5753 -0.2427 -0.6997
  257MOL0     H35402   3.930   9.899   6.449  2.1667  0.7373 -1.3342
  257MOL0     H35403   4.134  10.051   6.428 -1.4353 -0.1582 -0.2282
  257MOL0     H35404   4.177  10.032   6.595 -1.1003 -2.2206  1.7119
  257MOL0     H35405   4.147   9.822   6.379 -0.3000 -0.7466  1.6116
  257MOL0     H35406   4.301   9.893   6.405  0.6367  1.3468  0.0972
  257MOL0     H35407   4.275   9.665   6.493 -0.1014  0.3719  0.3141
  257MOL0     H35408   4.166   9.709   6.620 -2.7605  0.9333 -2.4143
  257MOL0     H35409   4.442   9.842   6.589  0.3655  1.0999  0.3089
  257MOL0     H35410   4.336   9.862   6.720  1.2198  0.4267 -1.2024
  257MOL0     H35411   4.511   9.681   6.764 -0.4513 -2.7511  0.4930
  257MOL0     H35412   4.449   9.595   6.630  2.4195 -0.9306  1.7573
  257MOL0     H35413   4.253   9.533   6.761  0.2067 -1.6355  1.2929
  257MOL0     H35414   4.402   9.512   6.858  2.4611  0.5581 -1.2893
  257MOL0     H35415   4.462   9.800   6.975  0.8420 -4.8284  1.1908
  257MOL0     H35416   4.385   9.997   7.119 -2.5216 -1.5847  3.6534
  257MOL0     H35417   4.224  10.030   7.149  2.3661  0.3237  0.9501
  257MOL0     H35418   4.375  10.212   7.006 -1.4157 -0.6499  0.9778
  257MOL0     H35419   4.369  10.096   6.869  1.1972  0.8888 -0.0140
  257MOL0     H35420   4.107  10.117   6.911 -1.3767 -0.5502  1.3958
  257MOL0     H35421   4.148  10.234   7.027 -1.9254  1.2808 -1.2096
  257MOL0     H35422   4.264  10.354   6.820  0.3656 -0.7174 -0.1957
  257MOL0     H35423   4.155  10.251   6.729  0.3558 -0.1778 -0.2431
  257MOL0     H35424   4.251  10.466   7.010 -0.1070  0.3350 -0.5519
  257MOL0     H35425   4.300  10.778   7.136 -0.4955 -1.0270 -0.1956
  257MOL0     H35426   4.349  10.617   7.180  0.1975 -1.5049  0.7634
  257MOL0     H35427   4.243  10.704   7.294  2.4921  1.0171  0.2759
  257MOL0     H35428   4.008  11.101   7.147  0.8558  2.5370  3.6666
  257MOL0     H35429   3.900  11.321   7.126 -1.3898  1.7535  1.3398
  257MOL0     H35430   3.662  11.510   7.341 -0.3256  3.2937 -0.1114
  257MOL0     H35431   3.813  11.448   7.300 -1.6360  1.4930  1.9794
  257MOL0     H35432   3.797  11.551   7.063  1.1829  2.1449  0.1615
  257MOL0     H35433   3.657  11.646   7.130 -3.0430 -3.8728  3.5872
  257MOL0     H35434   3.948  11.617   7.246  0.2530  0.4622  1.6691
  257MOL0     H35435   3.825  11.724   7.313 -2.3251 -2.0479  0.1324
  257MOL0     H35436   3.972  11.878   7.171 -0.1690  0.8104 -0.3316
  257MOL0     H35437   3.822  11.846   7.083  1.8337  1.2253 -1.1510
  257MOL0     H35438   4.083  11.711   7.013  1.9682  1.5715 -2.0595
  257MOL0     H35439   3.917  11.664   6.960  0.7867 -0.4287  1.0034
  257MOL0     H35440   4.079  11.916   6.893 -2.6158  2.1474  2.2623
  257MOL0     H35441   3.905  11.890   6.849  0.6319  0.1417 -1.3630
  257MOL0     H35442   4.135  11.728   6.745  1.2851  1.2132  2.5675
  257MOL0     H35443   4.000  11.822   6.658  0.0626 -1.4529 -0.4844
  257MOL0     H35444   3.972  11.549   6.797  0.1080 -0.1917 -1.2245
  257MOL0     H35445   3.987  11.578   6.632  1.5877  1.0320 -0.1661
  257MOL0     H35446   3.535  11.163   7.252  1.2239  1.8829  2.7102
  257MOL0     H35447   3.627  10.932   7.277 -1.7098 -0.5710 -3.9226
  257MOL0     H35448   3.815  10.705   7.027  1.2952  2.8661  0.1089
  257MOL0     H35449   3.847  10.521   6.893 -1.2865 -0.8471  1.9594
  257MOL0     H35450   4.085  10.422   6.565  0.6511 -2.0396  3.6638
  257MOL0     H35451   3.999  10.634   6.610 -2.2443  2.2976  0.3483
  257MOL0     H35452   3.681  10.875   6.785  1.3466 -1.1907 -1.3609
  257MOL0     H35453   3.601  11.106   6.869  0.8910  0.5570 -0.1659
  257MOL0     H35454   3.595  11.458   6.606  1.4349 -0.2705  0.8023
  257MOL0     H35455   3.429  11.370   6.606 -0.2538 -0.3869  0.5957
  257MOL0     H35456   3.509  11.540   6.848  0.8743  0.2630 -0.1404
  257MOL0     H35457   3.358  11.483   6.796  0.5659 -2.2569 -2.3796
  257MOL0     H35458   3.495  11.706   6.629 -1.4178 -0.8412 -3.2370
  257MOL0     H35459   3.339  11.631   6.612 -1.4747  1.3777  1.1529
  257MOL0     H35460   3.389  11.804   6.848 -1.9833 -0.5263  1.0372
  257MOL0     H35461   3.259  11.708   6.813  2.4127 -1.9354  0.3445
  257MOL0     H35462   3.198  12.064   6.591  2.8801  2.0188  0.7385
  257MOL0     H35463   3.676  11.275   6.505  1.1696  0.1935  1.2172
  257MOL0     H35464   3.866  11.075   6.393 -1.1711  1.8650  1.5620
  257MOL0     H35465   3.734  10.985   6.309 -4.2359 -0.1275  1.9531
  257MOL0     H35466   3.725  11.157   6.320 -0.1699  2.0914  3.1068
  258MOL0     O35467   3.219   1.471   8.970 -0.2364 -0.0102 -0.4766
  258MOL0     C35468   3.289   1.494   8.873 -0.0733 -0.0832 -0.3268
  258MOL0     O35469   3.422   1.491   8.876  0.0366  0.0983  0.8231
  258MOL0     C35470   3.478   1.423   8.977 -0.3699  0.1786 -0.7432
  258MOL0     C35471   3.475   1.284   8.976 -0.7591  0.0202 -0.5160
  258MOL0     C35472   3.545   1.220   9.074 -0.4476  1.1211  0.4330
  258MOL0     C35473   3.619   1.283   9.176 -0.6827  0.0207  0.7289
  258MOL0     O35474   3.705   1.223   9.265  0.4750 -0.7605 -0.0585
  258MOL0     C35475   3.693   1.081   9.296  0.1561 -0.8396  0.7953
  258MOL0     C35476   3.632   1.078   9.431  0.9230 -0.0083  0.0711
  258MOL0     C35477   3.647   0.944   9.499  0.1533 -0.5310  1.1193
  258MOL0     C35478   3.782   0.924   9.552  0.4574 -0.7235  0.3434
  258MOL0     C35479   3.801   0.786   9.617  0.3427 -1.0940  0.2771
  258MOL0     C35480   3.683   0.734   9.693 -0.5514 -0.2042 -1.3897
  258MOL0     C35481   3.658   0.804   9.828  0.3155 -0.1071 -0.2503
  258MOL0     C35482   3.747   0.745   9.938  1.4106  0.3248  0.2010
  258MOL0     N35483   3.693   0.752  10.077 -0.1273  0.9056  0.4284
  258MOL0     C35484   3.656   0.876  10.134  0.4174  1.2861 -0.2182
  258MOL0     C35485   3.632   0.846  10.261  0.1790  0.1467  0.3302
  258MOL0     C35486   3.611   0.937  10.384  0.0625 -0.1064  0.4787
  258MOL0     C35487   3.747   0.997  10.420  0.1272  0.2058  0.0522
  258MOL0     C35488   3.820   0.904  10.506 -0.4354  0.1063 -0.5366
  258MOL0     C35489   3.954   0.963  10.566  0.2331 -0.3629  0.4935
  258MOL0     O35490   4.002   0.875  10.671  0.1427  0.0241 -0.3891
  258MOL0     C35491   4.129   0.905  10.707 -0.3529 -0.3538  0.7363
  258MOL0     C35492   4.144   0.914  10.836  0.0275 -0.2820 -0.1250
  258MOL0     C35493   4.267   0.943  10.893 -1.0087  0.7841 -0.0713
  258MOL0     C35494   4.288   0.949  11.043 -0.6030 -0.1041 -0.4603
  258MOL0     C35495   4.377   0.972  10.805  0.4423  0.3895  0.4109
  258MOL0     C35496   4.517   1.012  10.849 -0.1958 -0.4264  0.2874
  258MOL0     O35497   4.517   1.109  10.952 -0.5500  0.5122 -0.3545
  258MOL0     C35498   4.633   1.141  11.023 -0.3139 -0.2893 -0.6244
  258MOL0     C35499   4.746   1.057  11.049 -0.5372  0.2387  0.1256
  258MOL0     C35500   4.857   1.106  11.121 -0.3268  0.5603 -0.6673
  258MOL0     C35501   4.851   1.238  11.172 -0.1481  0.1024 -0.4650
  258MOL0     O35502   4.958   1.288  11.250  0.0454 -0.6309  0.4523
  258MOL0     C35503   4.995   1.429  11.223 -1.2864 -0.3556 -0.2474
  258MOL0     C35504   5.151   1.461  11.255  0.6466  0.0163 -0.2597
  258MOL0     C35505   5.188   1.420  11.398  1.4130 -0.0104 -0.4652
  258MOL0     C35506   5.275   1.527  11.462 -0.5113  0.5379 -0.4236
  258MOL0     C35507   5.277   1.508  11.618 -0.3496  0.4184  0.3725
  258MOL0     C35508   5.407   1.560  11.682  0.3506  0.1123 -0.1467
  258MOL0     C35509   5.424   1.706  11.699  0.2501 -0.0659  0.3568
  258MOL0     C35510   5.553   1.749  11.747  0.2646 -0.5200 -0.3319
  258MOL0    Cl35511   5.541   1.796  11.921  0.0359  0.0591 -0.1881
  258MOL0     C35512   4.740   1.318  11.144 -0.1729 -0.4828 -0.0252
  258MOL0     C35513   4.641   1.275  11.059  0.4216  1.0661  0.4146
  258MOL0     O35514   4.616   0.956  10.801  0.0040  0.1694 -0.1505
  258MOL0     C35515   4.358   0.957  10.670  0.1787 -0.2530 -1.0104
  258MOL0     C35516   4.233   0.938  10.612  0.0715  1.3964 -0.8798
  258MOL0     N35517   3.644   0.712  10.284 -0.9782 -0.7715  0.4989
  258MOL0     N35518   3.686   0.659  10.176 -0.7637  0.2232  0.3765
  258MOL0     C35519   3.604   1.419   9.178  0.1368 -0.0775 -0.0610
  258MOL0     C35520   3.533   1.492   9.084 -0.1855 -0.5942  0.0164
  258MOL0     C35521   3.228   1.540   8.751 -0.1810 -0.0706 -0.6005
  258MOL0     C35522   3.096   1.581   8.757  0.3342 -0.2619 -0.1668
  258MOL0     C35523   3.025   1.611   8.638  0.0484  0.2715  0.5128
  258MOL0     C35524   3.074   1.588   8.510 -0.9987  0.5538 -0.4726
  258MOL0     O35525   2.982   1.604   8.406 -0.2635  0.3983 -0.0892
  258MOL0     C35526   3.024   1.671   8.288 -0.0692  0.4313 -0.5588
  258MOL0     C35527   3.066   1.583   8.173  0.3951  0.7231 -0.1927
  258MOL0     C35528   3.081   1.667   8.048  1.3116  0.6955  0.0320
  258MOL0     C35529   3.139   1.580   7.936  0.1164 -0.3661 -1.3409
  258MOL0     C35530   3.172   1.659   7.815  0.7012 -0.7980 -0.0672
  258MOL0     C35531   3.212   1.716   7.713  0.9435 -0.5441  0.1913
  258MOL0     C35532   3.204   1.545   8.500  0.0823  0.0239 -0.0785
  258MOL0     C35533   3.279   1.517   8.615  0.2476 -0.7833  0.4871
  258MOL0     C35534   3.412   1.460   8.581  1.0118  0.2928  0.1484
  258MOL0     H35535   3.442   1.236   8.884  1.1816 -0.2363 -1.1242
  258MOL0     H35536   3.559   1.113   9.058  0.4700  1.1922  0.7235
  258MOL0     H35537   3.797   1.049   9.294  0.2864 -0.7683 -3.6707
  258MOL0     H35538   3.626   1.031   9.226 -2.5830  0.1163  2.5273
  258MOL0     H35539   3.680   1.149   9.498 -2.4093 -1.0756  3.9443
  258MOL0     H35540   3.525   1.098   9.416  0.5612  0.6679  2.9843
  258MOL0     H35541   3.568   0.954   9.574 -2.4387  1.9187 -1.6633
  258MOL0     H35542   3.636   0.862   9.427  2.4970  0.5537 -0.6059
  258MOL0     H35543   3.865   0.951   9.485 -1.4447  0.1370 -1.7847
  258MOL0     H35544   3.786   1.000   9.631 -0.3432 -1.8499  1.5042
  258MOL0     H35545   3.884   0.791   9.688 -1.8163  1.4974  2.9115
  258MOL0     H35546   3.823   0.717   9.534  1.0397 -0.1643 -0.3321
  258MOL0     H35547   3.588   0.734   9.638 -0.1839  1.4436 -2.0960
  258MOL0     H35548   3.700   0.628   9.714  1.4774  0.3392 -0.0697
  258MOL0     H35549   3.556   0.772   9.852  0.3701 -0.1754 -0.1065
  258MOL0     H35550   3.650   0.913   9.832 -1.4163 -0.1798 -0.8507
  258MOL0     H35551   3.756   0.636   9.933  1.0280  0.0782  2.9589
  258MOL0     H35552   3.841   0.801   9.942  0.9573  1.1127 -0.0349
  258MOL0     H35553   3.653   0.964  10.071 -1.4115  2.3663  1.2820
  258MOL0     H35554   3.566   0.894  10.474 -2.6148  4.0124  1.3787
  258MOL0     H35555   3.539   1.014  10.358 -0.4748 -2.0388 -5.2672
  258MOL0     H35556   3.798   1.030  10.329 -0.1852  0.3455 -0.0726
  258MOL0     H35557   3.716   1.085  10.476  0.9964  0.6480 -0.1423
  258MOL0     H35558   3.755   0.855  10.579 -1.2955 -3.2716 -3.2883
  258MOL0     H35559   3.849   0.812  10.455  0.2833 -1.0149  1.7543
  258MOL0     H35560   4.027   0.973  10.485  4.2110  1.2863  3.9319
  258MOL0     H35561   3.952   1.063  10.611  1.9533  1.6878 -3.4237
  258MOL0     H35562   4.068   0.876  10.904 -1.6064  1.2650 -1.0005
  258MOL0     H35563   4.319   1.051  11.068  1.1431 -0.7251  0.0586
  258MOL0     H35564   4.363   0.875  11.072  0.6766  1.3551  0.0549
  258MOL0     H35565   4.193   0.915  11.086 -1.5318  2.3838 -0.3682
  258MOL0     H35566   4.751   0.956  11.011 -0.3064  0.2793  0.0425
  258MOL0     H35567   4.938   1.038  11.146 -2.6926 -2.2236 -0.0041
  258MOL0     H35568   4.996   1.455  11.117  3.1316 -2.6970 -1.0132
  258MOL0     H35569   4.936   1.497  11.285 -0.7408 -0.6151  0.5666
  258MOL0     H35570   5.207   1.398  11.186 -2.4070 -2.1103 -1.0124
  258MOL0     H35571   5.177   1.562  11.223  2.3597 -0.1524  0.4679
  258MOL0     H35572   5.230   1.319  11.400  0.0031 -0.6583 -1.7452
  258MOL0     H35573   5.102   1.418  11.466  0.8137  0.9345 -1.1660
  258MOL0     H35574   5.233   1.626  11.444  2.7436  2.2796  0.6971
  258MOL0     H35575   5.372   1.502  11.417 -0.1103 -1.6478  1.4713
  258MOL0     H35576   5.196   1.557  11.673  1.0236  3.6385 -0.2423
  258MOL0     H35577   5.268   1.400  11.635  0.0465 -0.4887 -4.0231
  258MOL0     H35578   5.489   1.527  11.618 -0.6536 -1.4487 -0.6851
  258MOL0     H35579   5.428   1.510  11.777  1.2448  2.2835  0.8770
  258MOL0     H35580   5.336   1.740  11.754 -3.5161 -2.3615 -3.6491
  258MOL0     H35581   5.419   1.741  11.596  0.7412 -1.5265 -0.1958
  258MOL0     H35582   5.602   1.829  11.690  2.9730 -0.2884  2.0252
  258MOL0     H35583   5.619   1.662  11.742 -0.4740 -0.9915 -2.1054
  258MOL0     H35584   4.727   1.405  11.207  0.0003  1.1758 -2.1559
  258MOL0     H35585   4.558   1.334  11.021 -0.4607 -0.3045  0.1339
  258MOL0     H35586   4.450   0.970  10.614  0.5951 -0.8432 -0.4744
  258MOL0     H35587   4.219   0.922  10.506  0.3827 -1.1974 -0.6054
  258MOL0     H35588   3.648   1.471   9.262  1.6225 -1.8663  0.3424
  258MOL0     H35589   3.536   1.600   9.094  0.5236 -0.8044  3.9941
  258MOL0     H35590   3.049   1.584   8.854  1.6093 -2.1454  0.5592
  258MOL0     H35591   2.924   1.651   8.639  0.2639  0.8586  2.0865
  258MOL0     H35592   2.944   1.729   8.242 -0.2092 -0.5318 -1.5806
  258MOL0     H35593   3.089   1.752   8.322 -1.5964  0.7668  1.8184
  258MOL0     H35594   3.006   1.493   8.160  1.7152  0.0009 -1.6404
  258MOL0     H35595   3.167   1.551   8.202 -0.4705 -0.5844  1.5516
  258MOL0     H35596   2.981   1.704   8.023  1.7230  0.4522 -2.1762
  258MOL0     H35597   3.145   1.752   8.069  0.9105  0.6227  1.7445
  258MOL0     H35598   3.082   1.495   7.898  1.4567 -1.4208 -1.0791
  258MOL0     H35599   3.233   1.542   7.976 -0.6511  0.1810  1.1682
  258MOL0     H35600   3.226   1.759   7.616 -0.0568 -1.9684 -0.6254
  258MOL0     H35601   3.231   1.524   8.397  0.3591  0.8992 -0.1853
  258MOL0     H35602   3.427   1.368   8.639  1.4609  0.7751  0.8128
  258MOL0     H35603   3.414   1.439   8.474 -2.1676  3.1205 -0.6187
  258MOL0     H35604   3.496   1.529   8.595  1.6544 -0.0005 -2.0048
  259MOL0     O35605   6.439   7.871   2.731  0.1248  0.3602  0.2886
  259MOL0     C35606   6.555   7.833   2.757 -0.4727  0.2266  0.6605
  259MOL0     O35607   6.671   7.859   2.667 -0.4168  0.7489  0.4185
  259MOL0     C35608   6.659   7.937   2.552  0.0119  0.0077 -0.8314
  259MOL0     C35609   6.698   8.069   2.552  0.7892  0.1791 -0.3383
  259MOL0     C35610   6.682   8.142   2.427  0.3055 -0.6448 -0.5766
  259MOL0     C35611   6.611   8.092   2.316  0.7787 -0.6823  0.2934
  259MOL0     O35612   6.603   8.181   2.209  0.2152  0.0694  0.6137
  259MOL0     C35613   6.551   8.121   2.089 -0.2504 -1.1878 -0.6300
  259MOL0     C35614   6.657   8.095   1.979  0.3376 -0.7944  0.0617
  259MOL0     C35615   6.680   8.229   1.897  0.4455 -0.0287 -0.1679
  259MOL0     C35616   6.801   8.211   1.810  0.3146 -0.0557 -0.4863
  259MOL0     C35617   6.785   8.116   1.696 -0.5190  0.6535  0.3958
  259MOL0     C35618   6.864   8.155   1.566  0.1915 -0.2815 -0.1239
  259MOL0     C35619   6.834   8.051   1.457 -0.3410 -0.3239 -0.5148
  259MOL0     C35620   6.850   8.107   1.325 -0.8164  0.1980  0.4608
  259MOL0     N35621   6.787   8.043   1.216 -0.4497 -0.2134 -0.9595
  259MOL0     C35622   6.853   7.958   1.135  0.3279 -0.2544  0.5337
  259MOL0     C35623   6.761   7.903   1.050  0.3083  0.0852  0.9385
  259MOL0     C35624   6.789   7.823   0.930  1.0222 -0.6238 -0.4918
  259MOL0     C35625   6.766   7.909   0.796  0.7207 -0.0060 -0.5468
  259MOL0     C35626   6.745   7.827   0.672 -0.2123  0.3584  0.1429
  259MOL0     C35627   6.677   7.901   0.555  0.3615  0.8143  0.3033
  259MOL0     O35628   6.763   8.014   0.528  1.0919 -0.7955  0.2845
  259MOL0     C35629   6.702   8.125   0.467 -0.3718 -0.5302 -0.4108
  259MOL0     C35630   6.569   8.136   0.437 -0.5100 -0.2341 -0.2097
  259MOL0     C35631   6.507   8.246   0.392  0.0108  0.1104  0.4657
  259MOL0     C35632   6.356   8.241   0.392 -1.0037 -0.5281  0.5186
  259MOL0     C35633   6.578   8.357   0.353  0.0997  0.2274  0.5112
  259MOL0     C35634   6.528   8.479   0.279  0.5917 -0.8382  0.4023
  259MOL0     O35635   6.395   8.495   0.263 -0.2966 -0.1615  0.0268
  259MOL0     C35636   6.352   8.625   0.251  0.0845  0.0441  1.1730
  259MOL0     C35637   6.338   8.703   0.132  0.4119  1.1700 -1.0332
  259MOL0     C35638   6.283   8.820   0.140  0.3155  1.3063 -0.8640
  259MOL0     C35639   6.228   8.878   0.258 -0.3085  0.6267  0.2978
  259MOL0     O35640   6.170   9.007   0.265 -0.4678 -0.4316  0.0317
  259MOL0     C35641   6.185   9.109   0.168 -0.2601 -0.6578  0.9583
  259MOL0     C35642   6.195   9.251   0.232  0.4037  0.7238 -0.9377
  259MOL0     C35643   6.259   9.359   0.140  0.3101  0.1876 -0.1483
  259MOL0     C35644   6.137   9.396   0.051  0.1922 -0.0709 -0.4843
  259MOL0     C35645   6.158   9.528  -0.029  0.6726  0.8966  0.1830
  259MOL0     C35646   6.297   9.554  -0.082 -0.6364 -0.0730 -0.2582
  259MOL0     C35647   6.339   9.443  -0.178  0.1678  0.2702  0.2047
  259MOL0     C35648   6.486   9.474  -0.197  0.3011  0.7096  0.2287
  259MOL0    Cl35649   6.559   9.386  -0.331  0.3298  0.0589  0.2035
  259MOL0     C35650   6.234   8.796   0.370 -0.6070  0.0336  1.0552
  259MOL0     C35651   6.286   8.664   0.363  0.2422 -0.2132 -0.6441
  259MOL0     O35652   6.608   8.563   0.231  0.1106  0.0633 -0.4452
  259MOL0     C35653   6.716   8.346   0.380  0.8029 -0.7972  0.3693
  259MOL0     C35654   6.785   8.236   0.433  0.4224 -0.5521 -0.2799
  259MOL0     N35655   6.638   7.959   1.091  0.4744  0.5734 -0.4995
  259MOL0     N35656   6.654   8.035   1.193 -0.2527 -0.4155 -0.1919
  259MOL0     C35657   6.579   7.955   2.325  0.6443  0.0665 -0.5625
  259MOL0     C35658   6.597   7.874   2.442  0.3174  0.5266  1.2587
  259MOL0     C35659   6.591   7.756   2.874  0.1451 -0.4906  0.2639
  259MOL0     C35660   6.697   7.673   2.870 -0.0931  0.1765 -0.9927
  259MOL0     C35661   6.726   7.596   2.986 -0.1748  0.6648  0.1986
  259MOL0     C35662   6.640   7.596   3.094  0.7207  0.8467  0.1353
  259MOL0     O35663   6.651   7.516   3.203  0.9053  0.1984  0.2466
  259MOL0     C35664   6.757   7.429   3.221  0.2209 -0.8398 -0.4164
  259MOL0     C35665   6.749   7.366   3.356 -0.2394 -0.4858 -0.0077
  259MOL0     C35666   6.869   7.274   3.372 -0.7236 -0.0417  0.0929
  259MOL0     C35667   6.882   7.197   3.504  0.3893 -0.3438  0.1857
  259MOL0     C35668   6.996   7.099   3.490 -0.7776 -0.0538  1.1577
  259MOL0     C35669   7.103   7.037   3.469  0.1113  1.3625 -0.0479
  259MOL0     C35670   6.532   7.690   3.099 -0.4253  0.1555  0.5091
  259MOL0     C35671   6.507   7.764   2.989 -0.8221 -0.2980 -0.2844
  259MOL0     C35672   6.384   7.845   3.010 -0.3958  0.3437  0.0611
  259MOL0     H35673   6.738   8.108   2.644 -1.3486  0.8589  0.3629
  259MOL0     H35674   6.692   8.250   2.418 -2.2207 -0.4695 -2.4114
  259MOL0     H35675   6.494   8.205   2.048  1.5996  0.0863 -0.6821
  259MOL0     H35676   6.476   8.042   2.101 -1.4799 -0.0794 -0.7645
  259MOL0     H35677   6.744   8.044   2.022  0.4065 -2.6835 -2.0748
  259MOL0     H35678   6.612   8.027   1.905  1.1172 -0.3541 -0.8488
  259MOL0     H35679   6.591   8.243   1.835  1.1613 -0.0816 -1.2199
  259MOL0     H35680   6.691   8.309   1.970 -0.7626  2.1442 -2.2453
  259MOL0     H35681   6.809   8.308   1.760 -2.1824 -0.9058 -2.7282
  259MOL0     H35682   6.891   8.177   1.862  1.0020  0.5019 -1.2722
  259MOL0     H35683   6.679   8.106   1.669  0.5247 -3.7339 -3.4621
  259MOL0     H35684   6.810   8.019   1.741  1.2010  0.3450 -1.0884
  259MOL0     H35685   6.814   8.244   1.525 -0.5897 -1.0892 -0.9623
  259MOL0     H35686   6.971   8.176   1.576  0.1335 -0.3408  0.6938
  259MOL0     H35687   6.733   8.011   1.468  0.3275 -1.4896  2.7122
  259MOL0     H35688   6.892   7.959   1.471 -2.2178 -1.4035  0.5206
  259MOL0     H35689   6.800   8.204   1.313 -1.4083 -0.3389 -2.2774
  259MOL0     H35690   6.954   8.124   1.297 -1.0573 -3.1367 -3.4240
  259MOL0     H35691   6.959   7.934   1.132 -0.2093 -2.9292  0.1189
  259MOL0     H35692   6.726   7.734   0.933  3.0794 -2.1845  2.8187
  259MOL0     H35693   6.895   7.796   0.942  1.7240  0.1728 -3.8066
  259MOL0     H35694   6.668   7.952   0.816  1.3126  1.3546 -0.3972
  259MOL0     H35695   6.841   7.988   0.787  0.5176  0.2134 -0.3381
  259MOL0     H35696   6.840   7.791   0.633 -0.9843 -0.3872 -1.1186
  259MOL0     H35697   6.685   7.737   0.686 -0.6745  0.2780 -1.9923
  259MOL0     H35698   6.666   7.849   0.460 -1.7182  0.1696  0.8323
  259MOL0     H35699   6.579   7.931   0.595 -0.2404 -0.9780  0.2276
  259MOL0     H35700   6.501   8.053   0.447  2.9380 -3.4814 -1.2053
  259MOL0     H35701   6.321   8.154   0.449  4.3235 -1.5157  2.8578
  259MOL0     H35702   6.327   8.223   0.288  3.0273  1.7929 -1.2197
  259MOL0     H35703   6.307   8.328   0.437 -0.2583  0.7356 -1.0140
  259MOL0     H35704   6.385   8.658   0.046  1.0166  0.4984 -0.3719
  259MOL0     H35705   6.281   8.885   0.054 -1.2615  1.6529 -0.5957
  259MOL0     H35706   6.280   9.108   0.115  0.0351  0.7900  1.4359
  259MOL0     H35707   6.099   9.094   0.102 -1.6123  0.1563  2.4710
  259MOL0     H35708   6.097   9.261   0.280  1.1520 -2.8101  1.8197
  259MOL0     H35709   6.257   9.243   0.322 -3.7181 -0.5863  2.1384
  259MOL0     H35710   6.345   9.324   0.082 -0.3914 -4.2629  1.1172
  259MOL0     H35711   6.285   9.450   0.196 -3.4349  1.2704  0.1090
  259MOL0     H35712   6.042   9.408   0.104 -0.3587  0.4137 -1.5261
  259MOL0     H35713   6.124   9.317  -0.024  1.4786  0.5765 -1.4277
  259MOL0     H35714   6.077   9.534  -0.102 -3.1981 -0.6191  3.8846
  259MOL0     H35715   6.138   9.616   0.033 -1.3879  0.5928  0.0209
  259MOL0     H35716   6.377   9.560  -0.008  0.6902  1.4589 -1.7420
  259MOL0     H35717   6.303   9.655  -0.123  0.3777 -0.3296 -0.7598
  259MOL0     H35718   6.288   9.457  -0.273  2.3195 -0.0112 -1.0513
  259MOL0     H35719   6.318   9.344  -0.137  1.7997  0.4346  1.5311
  259MOL0     H35720   6.532   9.456  -0.099 -0.4527  1.6062  0.7554
  259MOL0     H35721   6.509   9.579  -0.215  2.7087  0.0565 -1.0159
  259MOL0     H35722   6.182   8.831   0.459 -0.0537 -0.3487  1.5429
  259MOL0     H35723   6.280   8.603   0.452 -0.7952  3.6966  2.2234
  259MOL0     H35724   6.776   8.432   0.350  0.7500 -0.2705  1.6883
  259MOL0     H35725   6.891   8.254   0.449  0.0283  3.4577 -1.1010
  259MOL0     H35726   6.534   7.903   2.241 -2.4766 -2.3806  2.3639
  259MOL0     H35727   6.575   7.768   2.438 -0.2781  0.6778 -0.7402
  259MOL0     H35728   6.768   7.668   2.788  0.8782  3.3044 -0.4744
  259MOL0     H35729   6.812   7.531   2.987  0.1564  0.9733 -2.2231
  259MOL0     H35730   6.732   7.346   3.153 -4.4771 -0.9897  1.1146
  259MOL0     H35731   6.852   7.483   3.211  1.1930 -2.1285  1.2545
  259MOL0     H35732   6.655   7.309   3.359 -1.2855  1.1529 -0.0630
  259MOL0     H35733   6.740   7.452   3.424 -3.0884 -1.0314  0.4522
  259MOL0     H35734   6.874   7.203   3.289 -0.6180  3.1063 -2.8001
  259MOL0     H35735   6.963   7.329   3.359  1.3138 -3.4231 -0.6997
  259MOL0     H35736   6.792   7.139   3.527  0.9864 -0.3170  2.9242
  259MOL0     H35737   6.881   7.272   3.583 -3.5622 -0.8584  0.8443
  259MOL0     H35738   7.196   6.985   3.461 -0.1557  1.2062 -4.4978
  259MOL0     H35739   6.477   7.696   3.192  0.8250 -3.2434  1.6390
  259MOL0     H35740   6.377   7.878   3.114  0.2607 -0.2890  0.3082
  259MOL0     H35741   6.368   7.931   2.944 -2.2244 -0.8965 -1.2182
  259MOL0     H35742   6.309   7.770   2.984  2.0544 -2.0086 -0.7119
  260MOL0     O35743   4.232   0.509   7.479 -0.5208  0.8244  0.8614
  260MOL0     C35744   4.161   0.472   7.385 -0.1744 -0.5862 -0.7247
  260MOL0     O35745   4.140   0.342   7.351 -0.4583  0.4383 -0.7025
  260MOL0     C35746   4.168   0.249   7.445 -0.5531 -0.0341 -0.4223
  260MOL0     C35747   4.264   0.150   7.414 -0.1764 -0.1104 -0.7798
  260MOL0     C35748   4.291   0.055   7.503 -1.1917  0.5266  0.1735
  260MOL0     C35749   4.230   0.044   7.629 -1.2720 -0.0156 -0.1547
  260MOL0     O35750   4.274  -0.058   7.708 -0.4470 -0.2013  0.2346
  260MOL0     C35751   4.191  -0.108   7.811  0.0320  0.9351  0.4149
  260MOL0     C35752   4.281  -0.222   7.855 -0.1369 -0.3849 -1.0006
  260MOL0     C35753   4.192  -0.339   7.919  0.3023 -0.7809 -0.6591
  260MOL0     C35754   4.295  -0.439   7.973  0.9185  0.3546 -0.2871
  260MOL0     C35755   4.223  -0.560   8.032 -0.6153 -0.6949 -0.1114
  260MOL0     C35756   4.316  -0.668   8.084 -0.2773  0.6775 -0.6318
  260MOL0     C35757   4.228  -0.781   8.153 -0.0926  1.0072  0.4700
  260MOL0     C35758   4.202  -0.758   8.303 -1.2652 -0.1679  1.2309
  260MOL0     N35759   4.116  -0.857   8.365  0.6208 -0.0979 -1.0403
  260MOL0     C35760   4.023  -0.934   8.301 -0.3035 -0.4514 -0.2512
  260MOL0     C35761   3.995  -1.029   8.390 -0.5393 -0.4239 -0.2462
  260MOL0     C35762   3.904  -1.138   8.362 -0.1857  0.0137  0.2219
  260MOL0     C35763   3.754  -1.120   8.386 -0.0383  0.0238  0.3442
  260MOL0     C35764   3.669  -1.083   8.264  0.6773 -0.1748 -0.1295
  260MOL0     C35765   3.671  -0.933   8.235  0.1445 -0.0764 -0.8752
  260MOL0     O35766   3.760  -0.893   8.142 -0.4283 -0.5045  0.6980
  260MOL0     C35767   3.774  -0.751   8.111  0.3828  0.3849 -0.3769
  260MOL0     C35768   3.703  -0.649   8.169 -0.2004  0.5461 -0.4657
  260MOL0     C35769   3.737  -0.507   8.152  1.0687  0.7492 -0.6755
  260MOL0     C35770   3.640  -0.405   8.216 -1.0235 -0.4814  0.6729
  260MOL0     C35771   3.829  -0.473   8.052 -0.4473 -0.0100  0.5755
  260MOL0     C35772   3.868  -0.327   8.015  1.2112  0.5108  0.3874
  260MOL0     O35773   3.849  -0.244   8.124 -0.2722 -0.2267  0.3528
  260MOL0     C35774   3.864  -0.106   8.102  0.1250  0.6357 -0.2014
  260MOL0     C35775   3.771  -0.038   8.022 -0.1784  0.7345 -0.1600
  260MOL0     C35776   3.772   0.101   8.025 -0.5125 -0.1910 -0.0316
  260MOL0     C35777   3.867   0.170   8.108  0.2726 -0.6650 -0.2581
  260MOL0     O35778   3.846   0.310   8.101 -0.3836  0.0033  0.0938
  260MOL0     C35779   3.785   0.357   8.225 -1.2722  0.7573  0.4414
  260MOL0     C35780   3.848   0.491   8.257 -0.2556 -0.6062 -0.4369
  260MOL0     C35781   3.793   0.580   8.372 -0.6143  0.2332  0.4559
  260MOL0     C35782   3.898   0.683   8.419  0.2373  0.4165 -1.1364
  260MOL0     C35783   4.027   0.618   8.466 -0.0906  1.0728 -0.4589
  260MOL0     C35784   4.101   0.714   8.561  0.8932 -0.3658  0.2877
  260MOL0     C35785   4.215   0.643   8.625 -0.1284  0.5637  0.4354
  260MOL0     C35786   4.174   0.550   8.744  0.3444  0.0529  0.1841
  260MOL0    Cl35787   4.075   0.633   8.866  0.0991 -0.2859  0.2804
  260MOL0     C35788   3.965   0.110   8.191  0.4299 -0.2508  0.4837
  260MOL0     C35789   3.956  -0.029   8.187  0.1783 -0.5452 -0.5815
  260MOL0     O35790   3.881  -0.301   7.894 -0.2634 -0.5332 -0.5244
  260MOL0     C35791   3.880  -0.577   7.979  0.1721  0.2448 -0.3204
  260MOL0     C35792   3.858  -0.712   8.012  0.2580  0.0059  0.1701
  260MOL0     N35793   4.060  -1.000   8.514  0.5417  0.5350  0.6329
  260MOL0     N35794   4.151  -0.908   8.491  0.5948 -0.2383  0.2653
  260MOL0     C35795   4.144   0.142   7.662 -0.3997 -1.9304  0.5086
  260MOL0     C35796   4.098   0.240   7.564 -0.9726  0.0343  0.2093
  260MOL0     C35797   4.084   0.572   7.302  0.3738 -0.5348  0.0226
  260MOL0     C35798   3.964   0.629   7.352 -0.8321  0.5344  0.2935
  260MOL0     C35799   3.892   0.721   7.271  0.6552 -0.1025 -0.1428
  260MOL0     C35800   3.937   0.751   7.139  0.1988 -0.0826  0.3074
  260MOL0     O35801   3.881   0.835   7.052  0.1999  0.7766  0.4133
  260MOL0     C35802   3.776   0.930   7.078  0.5352 -0.1554 -1.3452
  260MOL0     C35803   3.794   1.055   7.000  0.6399  0.2954  0.2911
  260MOL0     C35804   3.736   1.037   6.863 -0.2460 -0.5318 -0.1266
  260MOL0     C35805   3.586   1.057   6.868 -0.4971 -0.1854 -0.2032
  260MOL0     C35806   3.500   0.974   6.786  0.1161  0.0005 -0.9935
  260MOL0     C35807   3.447   0.890   6.714  0.3485  0.1613 -0.4484
  260MOL0     C35808   4.050   0.687   7.092  0.1567  0.2599  0.7519
  260MOL0     C35809   4.125   0.602   7.169  0.5900  0.4777 -0.2632
  260MOL0     C35810   4.229   0.518   7.104  0.2383  0.4641  0.5441
  260MOL0     H35811   4.314   0.144   7.318  2.5978  1.9393  0.4141
  260MOL0     H35812   4.373  -0.012   7.480  0.8897  3.0662 -0.3038
  260MOL0     H35813   4.092  -0.146   7.786  0.7934 -2.5707  2.0905
  260MOL0     H35814   4.190  -0.028   7.887  0.6459 -0.3606  1.8446
  260MOL0     H35815   4.338  -0.270   7.774  2.7310 -1.6871  1.5752
  260MOL0     H35816   4.355  -0.197   7.931 -1.1320 -1.4997  0.3934
  260MOL0     H35817   4.124  -0.295   7.992  1.4993  0.7877 -0.4372
  260MOL0     H35818   4.139  -0.390   7.839 -4.6434  2.2053  0.3239
  260MOL0     H35819   4.364  -0.469   7.894  2.8460  0.2621  1.3439
  260MOL0     H35820   4.356  -0.398   8.055  1.0129 -0.9324  0.3173
  260MOL0     H35821   4.159  -0.602   7.953  0.5608  0.2096 -1.5896
  260MOL0     H35822   4.163  -0.528   8.118  1.4940  2.6391  0.2586
  260MOL0     H35823   4.380  -0.704   8.003 -0.6060 -3.0725  0.5625
  260MOL0     H35824   4.379  -0.622   8.161 -0.8626  0.5101 -0.0379
  260MOL0     H35825   4.283  -0.875   8.140  2.0103  2.0787  1.1899
  260MOL0     H35826   4.131  -0.800   8.106 -1.0046  1.5537  2.0774
  260MOL0     H35827   4.297  -0.757   8.357 -2.3317  0.3441  3.2123
  260MOL0     H35828   4.166  -0.656   8.322  1.1720  1.8703 -3.4836
  260MOL0     H35829   3.993  -0.941   8.197 -2.1686  1.2807  0.0993
  260MOL0     H35830   3.936  -1.223   8.424 -0.5230 -1.9360 -2.1173
  260MOL0     H35831   3.916  -1.164   8.256  0.0267  0.2831  0.1808
  260MOL0     H35832   3.728  -1.223   8.415 -0.2358  0.1394  0.5823
  260MOL0     H35833   3.758  -1.047   8.468 -0.1215 -0.1529  0.5072
  260MOL0     H35834   3.706  -1.146   8.182  0.5547 -2.7380  1.6745
  260MOL0     H35835   3.565  -1.107   8.286  0.2060  1.3421 -0.5549
  260MOL0     H35836   3.574  -0.911   8.189  1.5289  0.8985 -3.5146
  260MOL0     H35837   3.685  -0.875   8.327 -0.5550  1.9192 -1.9844
  260MOL0     H35838   3.627  -0.680   8.240  0.4461  2.1137  1.0012
  260MOL0     H35839   3.537  -0.442   8.226 -0.6628 -1.3658  1.2262
  260MOL0     H35840   3.628  -0.316   8.153  2.5276  0.4808  1.1659
  260MOL0     H35841   3.667  -0.383   8.320 -3.8667  0.0439  1.3957
  260MOL0     H35842   3.684  -0.086   7.979  0.0768 -3.4797  3.4218
  260MOL0     H35843   3.699   0.162   7.973 -0.7647 -0.3016  0.1906
  260MOL0     H35844   3.678   0.362   8.204 -0.2838  1.5274 -7.1160
  260MOL0     H35845   3.805   0.302   8.318  0.6330 -1.0417 -0.9401
  260MOL0     H35846   3.956   0.482   8.274 -0.2622 -1.2453 -0.7104
  260MOL0     H35847   3.843   0.551   8.166  2.9198  0.5092  0.0010
  260MOL0     H35848   3.745   0.525   8.453 -0.3039  2.5125  2.2952
  260MOL0     H35849   3.706   0.632   8.330 -0.0513  0.7026 -0.1640
  260MOL0     H35850   3.861   0.744   8.502  2.4566 -1.0148  1.0628
  260MOL0     H35851   3.921   0.750   8.337 -2.7158  1.2074 -1.4281
  260MOL0     H35852   4.007   0.527   8.523 -0.6454  0.6424 -1.3354
  260MOL0     H35853   4.089   0.603   8.377  0.2010 -0.0182 -0.0839
  260MOL0     H35854   4.033   0.752   8.638  0.3377 -3.7901  1.6797
  260MOL0     H35855   4.133   0.791   8.490 -2.5656 -0.0765 -1.1685
  260MOL0     H35856   4.284   0.717   8.667  1.9901 -0.2081 -1.4426
  260MOL0     H35857   4.271   0.593   8.545 -1.8400 -0.6769 -0.0317
  260MOL0     H35858   4.257   0.504   8.798  0.1244 -1.4567 -0.7185
  260MOL0     H35859   4.121   0.463   8.704  0.3753  0.1737 -0.1306
  260MOL0     H35860   4.034   0.162   8.256  0.0141  0.3022  0.4874
  260MOL0     H35861   4.016  -0.079   8.263 -2.0329  0.9553  2.3358
  260MOL0     H35862   3.938  -0.560   7.889  4.1092 -0.6089  1.8075
  260MOL0     H35863   3.922  -0.785   7.962  2.5592  1.6126  0.5928
  260MOL0     H35864   4.100   0.139   7.761 -2.1842  1.7012 -0.0302
  260MOL0     H35865   4.014   0.303   7.590 -2.1888 -1.2706 -0.4181
  260MOL0     H35866   3.926   0.600   7.449  2.6839 -0.3336  1.5840
  260MOL0     H35867   3.800   0.772   7.295 -0.0294  1.2100 -4.7192
  260MOL0     H35868   3.674   0.893   7.063  0.6333  0.2859 -3.3485
  260MOL0     H35869   3.773   0.954   7.185  0.5067 -1.2744 -1.0901
  260MOL0     H35870   3.902   1.072   6.999  0.6536  0.5146  2.0182
  260MOL0     H35871   3.736   1.135   7.046 -0.6196  1.1651 -2.6186
  260MOL0     H35872   3.774   1.125   6.810 -0.6836  1.7775  3.0731
  260MOL0     H35873   3.770   0.946   6.813  0.9688  0.1037 -0.4870
  260MOL0     H35874   3.567   1.160   6.836 -1.1303  0.4101  1.9062
  260MOL0     H35875   3.545   1.056   6.970 -0.3237  0.0843 -0.1303
  260MOL0     H35876   3.389   0.821   6.655  0.6614  1.7396 -2.7599
  260MOL0     H35877   4.087   0.695   6.990  0.4292 -3.7839  0.3885
  260MOL0     H35878   4.253   0.543   7.000  2.6090 -2.0157  0.3945
  260MOL0     H35879   4.321   0.541   7.158  0.9763  3.6543 -1.7700
  260MOL0     H35880   4.212   0.410   7.109 -1.9937  0.5531 -2.1058
  261MOL0     O35881   9.558   7.053   6.126  0.6244 -0.4090 -0.2775
  261MOL0     C35882   9.638   6.992   6.066 -0.4290  0.4054 -0.6118
  261MOL0     O35883   9.603   6.893   5.982  0.0802  0.3037 -1.0670
  261MOL0     C35884   9.485   6.905   5.922  0.2844  0.0848  0.0824
  261MOL0     C35885   9.387   6.797   5.949 -0.3105 -1.0567  0.3912
  261MOL0     C35886   9.261   6.803   5.890  0.4284 -0.6232 -0.0320
  261MOL0     C35887   9.223   6.915   5.811 -0.7288 -0.4950  1.0105
  261MOL0     O35888   9.093   6.923   5.760 -0.3006 -0.3761 -0.4506
  261MOL0     C35889   9.024   6.808   5.706 -0.2692 -0.3283 -0.4939
  261MOL0     C35890   8.896   6.843   5.628  0.5943 -0.4536 -0.6446
  261MOL0     C35891   8.861   6.744   5.513 -0.0039  0.3040  0.3530
  261MOL0     C35892   8.708   6.745   5.487  0.1321 -0.4800 -0.4469
  261MOL0     C35893   8.656   6.633   5.403 -0.1244  0.8583  0.1546
  261MOL0     C35894   8.515   6.658   5.338  0.4698 -0.2062  0.4814
  261MOL0     C35895   8.485   6.538   5.246 -0.1547  0.6013  0.5255
  261MOL0     C35896   8.346   6.532   5.174 -0.8006  0.2078 -0.1165
  261MOL0     N35897   8.339   6.424   5.071  0.3522 -0.3424  0.2764
  261MOL0     C35898   8.352   6.294   5.102  0.0704 -0.2813 -0.5249
  261MOL0     C35899   8.324   6.234   4.985 -0.5063 -0.4315  0.4387
  261MOL0     C35900   8.303   6.085   4.969  0.1085 -0.1112 -0.3250
  261MOL0     C35901   8.373   6.022   4.847  0.4799 -0.8688 -0.0451
  261MOL0     C35902   8.293   6.031   4.722  0.5803  0.5464 -0.6015
  261MOL0     C35903   8.148   6.003   4.730 -0.2722 -1.0514 -0.8713
  261MOL0     O35904   8.130   5.869   4.784  1.0829 -0.3043  0.3544
  261MOL0     C35905   8.142   5.776   4.687 -0.8560  0.5540 -0.5127
  261MOL0     C35906   8.067   5.768   4.577 -0.3864  0.7819 -0.0061
  261MOL0     C35907   8.093   5.674   4.480 -0.2389  0.6353  0.4223
  261MOL0     C35908   7.991   5.677   4.374  0.4295 -0.3903  0.3987
  261MOL0     C35909   8.189   5.568   4.495  0.0808 -0.1586  0.3132
  261MOL0     C35910   8.232   5.462   4.391  0.4966 -1.6877 -0.7235
  261MOL0     O35911   8.167   5.465   4.276  0.4017  0.3023 -0.3234
  261MOL0     C35912   8.245   5.447   4.168 -0.2889  0.3627 -0.2523
  261MOL0     C35913   8.174   5.418   4.048  0.0447  0.0647  0.9658
  261MOL0     C35914   8.243   5.364   3.933  0.3286 -0.6083 -0.2444
  261MOL0     C35915   8.384   5.374   3.928  0.4672 -0.0290 -0.2914
  261MOL0     O35916   8.432   5.333   3.807  0.2760 -0.2905 -0.2375
  261MOL0     C35917   8.566   5.371   3.774  0.0969 -0.6350  0.4479
  261MOL0     C35918   8.614   5.304   3.637 -0.2171  0.6874 -0.2956
  261MOL0     C35919   8.545   5.384   3.520 -0.0493  0.6548  0.7959
  261MOL0     C35920   8.543   5.305   3.391 -0.4010 -0.4681  0.3352
  261MOL0     C35921   8.685   5.284   3.324  0.2856  0.0066 -1.0819
  261MOL0     C35922   8.682   5.215   3.182 -0.4009  0.1683 -0.6360
  261MOL0     C35923   8.814   5.141   3.159 -0.3963  0.8667  0.1250
  261MOL0     C35924   8.942   5.205   3.207  0.7488 -0.0904  0.1998
  261MOL0    Cl35925   8.943   5.374   3.137 -0.0490  0.2562  0.0442
  261MOL0     C35926   8.454   5.424   4.034  1.2527  0.2256 -0.0575
  261MOL0     C35927   8.389   5.459   4.155  0.1782  0.3415  0.8660
  261MOL0     O35928   8.326   5.391   4.426  0.1661  0.1914  0.1882
  261MOL0     C35929   8.263   5.576   4.608  0.1477  0.1877  0.4004
  261MOL0     C35930   8.240   5.677   4.705  0.2825  0.0650  0.8531
  261MOL0     N35931   8.306   6.335   4.888 -0.8745 -0.4946 -0.2778
  261MOL0     N35932   8.305   6.447   4.938  0.3516  1.2153 -0.0916
  261MOL0     C35933   9.316   7.018   5.776  0.2357  0.6257 -0.5974
  261MOL0     C35934   9.443   7.014   5.839 -0.2349  0.0854  0.1535
  261MOL0     C35935   9.782   7.021   6.078  0.3343  0.3789 -0.6466
  261MOL0     C35936   9.863   6.950   5.988  0.0004 -0.0144 -0.5312
  261MOL0     C35937   9.999   6.979   5.981  0.6011 -0.2765 -0.7314
  261MOL0     C35938  10.065   7.057   6.072  0.0296  0.5164 -1.0531
  261MOL0     O35939  10.196   7.081   6.069 -0.8555  0.2656 -0.2431
  261MOL0     C35940  10.293   6.981   6.109 -0.4627 -0.4013 -0.7754
  261MOL0     C35941  10.440   7.029   6.063  0.6986 -0.7122 -1.2221
  261MOL0     C35942  10.451   6.994   5.915  0.5229 -1.0129  0.4728
  261MOL0     C35943  10.608   6.996   5.880  0.6887  0.0648  0.0753
  261MOL0     C35944  10.670   7.127   5.874  0.0188 -0.7104 -0.2532
  261MOL0     C35945  10.707   7.243   5.864  0.4271  0.0310 -0.3283
  261MOL0     C35946   9.988   7.118   6.168 -0.0058  0.1376  0.1446
  261MOL0     C35947   9.848   7.099   6.171  0.1882 -0.5855 -0.5970
  261MOL0     C35948   9.769   7.170   6.284 -0.4027  0.1635  0.3928
  261MOL0     H35949   9.407   6.713   6.015 -0.9960  0.3670  2.5498
  261MOL0     H35950   9.182   6.731   5.911  1.3256 -2.5150 -2.6701
  261MOL0     H35951   9.007   6.726   5.776  2.7693  1.0640  2.1673
  261MOL0     H35952   9.092   6.766   5.632 -0.0076  0.4148 -0.6933
  261MOL0     H35953   8.818   6.852   5.705  0.6013  0.7522 -0.7713
  261MOL0     H35954   8.921   6.944   5.597  2.3633 -0.3163  1.0234
  261MOL0     H35955   8.913   6.773   5.421  1.5414 -0.7097  0.8807
  261MOL0     H35956   8.882   6.641   5.544 -1.1256  0.4673  1.7634
  261MOL0     H35957   8.643   6.751   5.575  2.1349 -1.7414  1.2178
  261MOL0     H35958   8.691   6.845   5.446 -1.1650 -0.6222 -0.2954
  261MOL0     H35959   8.651   6.545   5.467 -0.0485  0.4730 -0.3635
  261MOL0     H35960   8.737   6.607   5.334  1.5141 -0.0712  2.3148
  261MOL0     H35961   8.439   6.661   5.417 -0.6872  3.5191 -0.5650
  261MOL0     H35962   8.520   6.754   5.286  1.3036  1.2390  3.0431
  261MOL0     H35963   8.491   6.452   5.314 -0.7022 -0.0731 -0.2580
  261MOL0     H35964   8.564   6.522   5.172  0.2797 -1.5100  1.3695
  261MOL0     H35965   8.269   6.508   5.248 -2.5510  0.9671 -1.6236
  261MOL0     H35966   8.330   6.631   5.130  0.8825  0.0316 -1.1823
  261MOL0     H35967   8.371   6.247   5.198  0.6790 -1.0492 -1.0100
  261MOL0     H35968   8.198   6.058   4.982  0.2469 -1.1042 -1.1416
  261MOL0     H35969   8.358   6.041   5.053  1.8062  3.6229  0.7225
  261MOL0     H35970   8.469   6.070   4.827  0.2022 -0.0861  0.4394
  261MOL0     H35971   8.376   5.914   4.866  0.5069 -0.8673 -0.0388
  261MOL0     H35972   8.307   6.135   4.692 -0.9308  0.8868 -0.1991
  261MOL0     H35973   8.342   5.958   4.657  2.3192  1.7786 -0.7566
  261MOL0     H35974   8.110   6.083   4.794  1.2956 -1.0105  0.0648
  261MOL0     H35975   8.099   6.016   4.633 -0.0165  1.4104 -0.7501
  261MOL0     H35976   7.994   5.848   4.570 -1.2826 -0.1174 -1.3485
  261MOL0     H35977   8.046   5.726   4.293  3.1633 -2.3355  0.9616
  261MOL0     H35978   7.899   5.723   4.411 -0.4160  1.1748 -3.1820
  261MOL0     H35979   7.975   5.577   4.332  0.9933 -0.5839  0.6458
  261MOL0     H35980   8.065   5.417   4.054  0.0542  0.8240  1.4983
  261MOL0     H35981   8.170   5.336   3.857  0.0360 -0.3215 -0.0726
  261MOL0     H35982   8.574   5.479   3.758 -0.2788 -1.0185 -3.0713
  261MOL0     H35983   8.622   5.349   3.865 -5.1804 -0.2890  4.3114
  261MOL0     H35984   8.724   5.305   3.640 -0.2474  1.1917  1.3273
  261MOL0     H35985   8.580   5.200   3.639 -2.8813  1.4284  3.5939
  261MOL0     H35986   8.595   5.477   3.492  0.7337  0.2757  0.8968
  261MOL0     H35987   8.443   5.411   3.547 -0.1472 -2.4619  4.2637
  261MOL0     H35988   8.491   5.364   3.315  3.1303  1.1902 -0.9699
  261MOL0     H35989   8.493   5.215   3.428 -2.7919  1.8753  3.2495
  261MOL0     H35990   8.726   5.384   3.306 -1.1343  0.3259 -2.9324
  261MOL0     H35991   8.738   5.232   3.404  1.2260  2.3501 -0.0900
  261MOL0     H35992   8.657   5.283   3.100 -1.7908 -0.6231 -0.9111
  261MOL0     H35993   8.600   5.143   3.182 -1.6692  1.1302 -6.6389
  261MOL0     H35994   8.818   5.131   3.050 -0.9169  1.8477  0.0137
  261MOL0     H35995   8.810   5.044   3.210 -3.7160  0.3963 -0.7977
  261MOL0     H35996   9.028   5.157   3.159  0.2774  0.5367 -1.3482
  261MOL0     H35997   8.950   5.208   3.316  2.9854  1.1630  0.0675
  261MOL0     H35998   8.562   5.435   4.041  1.1286  0.8588  1.2606
  261MOL0     H35999   8.448   5.503   4.235  1.9955  0.2799 -0.3640
  261MOL0     H36000   8.332   5.498   4.637 -0.7421 -0.3788  1.0717
  261MOL0     H36001   8.299   5.669   4.796 -1.0516  0.2279  1.7643
  261MOL0     H36002   9.292   7.092   5.701  2.0261 -0.8422 -2.7809
  261MOL0     H36003   9.515   7.095   5.844 -1.9941  1.6473  4.5257
  261MOL0     H36004   9.816   6.883   5.917 -2.4777  0.3062  0.6805
  261MOL0     H36005  10.053   6.940   5.895  1.9997  0.3009 -0.1422
  261MOL0     H36006  10.285   6.968   6.218  1.0429 -0.1074 -0.6081
  261MOL0     H36007  10.265   6.884   6.068 -0.0821 -0.2323 -1.4425
  261MOL0     H36008  10.525   6.986   6.116  2.5857  1.3737 -2.3366
  261MOL0     H36009  10.453   7.137   6.079 -2.6858  0.0205 -2.5069
  261MOL0     H36010  10.415   6.893   5.890 -0.9497  0.0181 -1.9834
  261MOL0     H36011  10.405   7.062   5.843  1.3776  2.2755  2.8062
  261MOL0     H36012  10.612   6.949   5.782 -1.8011 -1.5114  0.6514
  261MOL0     H36013  10.671   6.937   5.948  1.7286  0.4847 -0.4953
  261MOL0     H36014  10.720   7.350   5.868  3.1403 -0.2498  1.4775
  261MOL0     H36015  10.026   7.188   6.241  2.1068 -1.6032  0.8170
  261MOL0     H36016   9.832   7.244   6.334  1.5129 -0.6173 -0.7244
  261MOL0     H36017   9.679   7.213   6.240  0.6354  1.2489 -0.7249
  261MOL0     H36018   9.724   7.093   6.347 -1.2970  0.8226  0.5687
  262MOL0     O36019   9.551   8.470   7.512  0.0043 -1.2199  0.2776
  262MOL0     C36020   9.538   8.362   7.458  0.2093  0.2791 -1.0900
  262MOL0     O36021   9.425   8.308   7.395  0.1754 -0.1415  0.0913
  262MOL0     C36022   9.319   8.387   7.358  0.1218 -0.2943 -1.0765
  262MOL0     C36023   9.216   8.387   7.443  0.3133 -1.2813  0.3951
  262MOL0     C36024   9.095   8.444   7.407  0.1140  0.0394  0.0475
  262MOL0     C36025   9.073   8.504   7.281  0.2940 -0.2906  0.1009
  262MOL0     O36026   8.949   8.552   7.244 -0.0390  0.3021  0.2249
  262MOL0     C36027   8.838   8.460   7.238  0.4495  0.7169 -0.2552
  262MOL0     C36028   8.858   8.316   7.172 -0.4696 -0.4279 -0.6080
  262MOL0     C36029   8.901   8.352   7.035  1.4050  0.0325  0.2647
  262MOL0     C36030   8.945   8.221   6.971 -0.1627 -0.4917  0.2232
  262MOL0     C36031   8.992   8.214   6.818  0.1466  0.0406 -0.2446
  262MOL0     C36032   9.113   8.307   6.797 -0.0101 -0.6790  0.1190
  262MOL0     C36033   9.142   8.325   6.648  0.1834 -0.8027 -0.6957
  262MOL0     C36034   9.262   8.425   6.620  0.5218  0.0322 -0.6820
  262MOL0     N36035   9.374   8.415   6.725 -0.4736  0.2894  0.4315
  262MOL0     C36036   9.462   8.313   6.732 -0.0263  0.4416 -0.4178
  262MOL0     C36037   9.539   8.327   6.834  0.0517  0.9705 -0.9433
  262MOL0     C36038   9.632   8.223   6.893 -1.0491  0.2837  0.7121
  262MOL0     C36039   9.745   8.300   6.961 -0.3713 -0.1623  0.5614
  262MOL0     C36040   9.839   8.194   7.018 -0.2408 -0.0075  0.1135
  262MOL0     C36041   9.945   8.241   7.123  0.4218  0.5507 -1.1286
  262MOL0     O36042  10.068   8.265   7.054 -0.1185  0.3418  0.2943
  262MOL0     C36043  10.179   8.284   7.129 -0.3990 -0.9927  0.4110
  262MOL0     C36044  10.180   8.316   7.268 -0.3305  0.4460  0.5011
  262MOL0     C36045  10.297   8.368   7.322 -0.5171 -0.5195  0.1597
  262MOL0     C36046  10.304   8.383   7.474  0.0477  0.3389  0.1982
  262MOL0     C36047  10.416   8.395   7.235  0.7446 -0.4497  0.6362
  262MOL0     C36048  10.552   8.426   7.294  0.2409 -0.1480 -0.0698
  262MOL0     O36049  10.555   8.550   7.364  0.1227 -0.3065  0.4895
  262MOL0     C36050  10.670   8.588   7.426  0.8817  0.0625 -0.4039
  262MOL0     C36051  10.704   8.723   7.412  0.4570  1.2818 -0.1577
  262MOL0     C36052  10.821   8.769   7.474 -0.6426 -0.3156 -1.1837
  262MOL0     C36053  10.889   8.679   7.564 -0.1043 -0.7695 -0.6276
  262MOL0     O36054  11.006   8.727   7.613 -0.0853  0.4390  0.2755
  262MOL0     C36055  11.026   8.707   7.747 -0.3158 -0.2728 -0.7850
  262MOL0     C36056  11.155   8.618   7.773  0.2020  0.0086 -1.5602
  262MOL0     C36057  11.171   8.548   7.910 -0.2149  0.4378  0.0494
  262MOL0     C36058  11.072   8.431   7.934 -0.2240 -0.0933 -0.8140
  262MOL0     C36059  11.071   8.380   8.079 -0.2898  0.1718  0.4815
  262MOL0     C36060  11.192   8.286   8.105  0.1746 -0.8010  1.0432
  262MOL0     C36061  11.177   8.224   8.246 -0.4843 -0.0322 -0.5055
  262MOL0     C36062  11.178   8.319   8.366 -0.5743 -0.7153  0.6679
  262MOL0    Cl36063  11.177   8.219   8.512 -0.2309  0.0333 -0.1937
  262MOL0     C36064  10.849   8.544   7.583 -0.1224  1.1470  0.2307
  262MOL0     C36065  10.742   8.492   7.510  0.3951 -0.7808 -0.7691
  262MOL0     O36066  10.648   8.348   7.279 -0.0798  0.0366  0.2889
  262MOL0     C36067  10.416   8.350   7.108 -0.1502  0.3418  0.5577
  262MOL0     C36068  10.302   8.291   7.054  0.2749  0.1270 -0.2501
  262MOL0     N36069   9.506   8.448   6.891 -0.5010  0.2319  0.4864
  262MOL0     N36070   9.407   8.501   6.827  0.4497  0.4967 -0.1147
  262MOL0     C36071   9.186   8.499   7.189 -0.1692 -1.2546 -0.3337
  262MOL0     C36072   9.308   8.444   7.236  0.5190  0.9339  0.2490
  262MOL0     C36073   9.661   8.280   7.469  1.2230  0.6472  0.9384
  262MOL0     C36074   9.770   8.320   7.551  0.8344 -0.2862 -0.1734
  262MOL0     C36075   9.888   8.254   7.560 -0.1787 -0.3418  0.7928
  262MOL0     C36076   9.910   8.135   7.506  0.9307 -0.2883 -0.0066
  262MOL0     O36077  10.034   8.088   7.498  0.2664 -0.5163  0.0547
  262MOL0     C36078  10.040   7.956   7.451 -0.4166  1.1546  0.6538
  262MOL0     C36079  10.179   7.900   7.466 -0.1005  0.3660 -0.1866
  262MOL0     C36080  10.190   7.772   7.555 -0.0687 -0.1499  1.2668
  262MOL0     C36081  10.167   7.795   7.699 -0.4605 -0.0825 -0.4431
  262MOL0     C36082  10.294   7.845   7.760  0.4769  0.1677  0.7998
  262MOL0     C36083  10.395   7.895   7.796 -0.7805 -0.2311  0.2082
  262MOL0     C36084   9.805   8.087   7.427  0.8019  0.5615  1.1087
  262MOL0     C36085   9.678   8.152   7.404  0.6931  0.6172 -0.9390
  262MOL0     C36086   9.593   8.088   7.304  0.9594 -0.0147  0.6666
  262MOL0     H36087   9.205   8.330   7.534 -0.1347 -2.2161 -0.2320
  262MOL0     H36088   9.006   8.429   7.466 -1.8506  2.0590 -2.1779
  262MOL0     H36089   8.749   8.512   7.200  0.6285  2.2638  1.3729
  262MOL0     H36090   8.803   8.443   7.340  0.4581 -2.9489 -0.7285
  262MOL0     H36091   8.935   8.254   7.218 -3.0305 -2.6944  0.9339
  262MOL0     H36092   8.765   8.258   7.175  0.1439 -1.5718 -2.3001
  262MOL0     H36093   8.813   8.390   6.981  0.6194 -1.1933  0.6610
  262MOL0     H36094   8.978   8.430   7.029 -0.4056  1.9216  0.3122
  262MOL0     H36095   9.035   8.193   7.025  0.9113  1.0804 -0.6782
  262MOL0     H36096   8.865   8.148   6.986  0.8904 -1.9286 -0.8589
  262MOL0     H36097   8.909   8.261   6.764  0.4367  5.5172  3.2824
  262MOL0     H36098   9.021   8.112   6.790 -0.3675 -0.2169  0.1310
  262MOL0     H36099   9.112   8.396   6.860  0.5883 -1.4105  1.1968
  262MOL0     H36100   9.206   8.262   6.832 -0.8324 -2.3317  0.2840
  262MOL0     H36101   9.050   8.360   6.601 -0.2693  0.8321  1.2889
  262MOL0     H36102   9.165   8.223   6.616 -2.5035 -2.3594  1.8440
  262MOL0     H36103   9.299   8.399   6.521  4.4786  0.7568  0.4204
  262MOL0     H36104   9.223   8.527   6.610  0.5192  0.1171  0.1224
  262MOL0     H36105   9.452   8.227   6.667  0.7062 -0.6087  0.8263
  262MOL0     H36106   9.672   8.164   6.810 -2.5484  0.9422 -0.5358
  262MOL0     H36107   9.597   8.148   6.964  1.7825 -0.6555  1.2144
  262MOL0     H36108   9.802   8.370   6.899  1.5197 -0.2496  2.0982
  262MOL0     H36109   9.721   8.367   7.044  3.9834  1.0205  1.1046
  262MOL0     H36110   9.782   8.129   7.084 -0.4734  1.4130  1.3745
  262MOL0     H36111   9.889   8.129   6.946 -1.8461  0.2098 -1.2513
  262MOL0     H36112   9.926   8.335   7.176  4.0547  0.0235  1.4998
  262MOL0     H36113   9.957   8.163   7.198 -1.9037  1.4652  0.3173
  262MOL0     H36114  10.095   8.302   7.333  1.2704 -3.5313  2.0497
  262MOL0     H36115  10.236   8.311   7.522 -0.3865  0.9310  0.4870
  262MOL0     H36116  10.291   8.479   7.525 -0.9995  0.2978  0.0313
  262MOL0     H36117  10.405   8.355   7.504  0.3931  0.4198 -0.8370
  262MOL0     H36118  10.642   8.783   7.345 -1.9872 -0.9669 -0.0615
  262MOL0     H36119  10.855   8.870   7.450 -1.5843  1.3268  3.4048
  262MOL0     H36120  11.042   8.806   7.790 -2.9811  0.2799 -0.9527
  262MOL0     H36121  10.941   8.656   7.793  0.1052  0.0922  0.4483
  262MOL0     H36122  11.155   8.548   7.689 -2.9049 -0.6433 -1.1414
  262MOL0     H36123  11.242   8.684   7.772 -0.0425  0.4002 -0.0889
  262MOL0     H36124  11.155   8.616   7.994 -2.5130 -0.6257  0.5493
  262MOL0     H36125  11.273   8.516   7.930 -0.1544  0.3195 -0.4276
  262MOL0     H36126  11.085   8.349   7.863 -0.4390  0.3737 -1.4094
  262MOL0     H36127  10.973   8.478   7.930 -0.8545 -1.3488 -0.3598
  262MOL0     H36128  11.082   8.465   8.147 -1.4716 -1.3928  2.7502
  262MOL0     H36129  10.974   8.332   8.098 -0.7741  1.7680  2.4079
  262MOL0     H36130  11.288   8.334   8.083  0.9967 -4.4230 -6.5215
  262MOL0     H36131  11.179   8.199   8.040 -0.2351 -0.5649  0.8107
  262MOL0     H36132  11.263   8.156   8.246 -0.8120 -0.4533 -0.0157
  262MOL0     H36133  11.080   8.173   8.244 -0.9330  0.8388 -1.1692
  262MOL0     H36134  11.106   8.400   8.348  0.7013 -0.0283 -1.6689
  262MOL0     H36135  11.272   8.373   8.380 -1.6741  1.3207  0.6775
  262MOL0     H36136  10.909   8.481   7.647  0.2018  0.6541 -0.5366
  262MOL0     H36137  10.706   8.390   7.517 -1.1020 -0.1905  1.0344
  262MOL0     H36138  10.507   8.339   7.050 -0.1899 -1.1342  0.7213
  262MOL0     H36139  10.306   8.241   6.958  1.9399  0.0896 -0.1787
  262MOL0     H36140   9.192   8.539   7.088  1.7084 -2.7936 -0.8835
  262MOL0     H36141   9.399   8.440   7.176  0.8569 -0.0818  0.8131
  262MOL0     H36142   9.789   8.412   7.605  1.7105 -0.7026  0.2501
  262MOL0     H36143   9.973   8.300   7.608  0.1222  0.8174 -0.7574
  262MOL0     H36144   9.968   7.890   7.500  0.8003  0.0781  1.0483
  262MOL0     H36145  10.020   7.959   7.344  3.3032  2.4190 -0.1749
  262MOL0     H36146  10.234   7.979   7.519  2.0268 -1.3748  0.3435
  262MOL0     H36147  10.208   7.886   7.361  0.6817 -1.2764  0.2197
  262MOL0     H36148  10.127   7.690   7.518 -1.5178 -0.2508  3.6806
  262MOL0     H36149  10.290   7.729   7.547 -0.3159 -0.3803 -2.6568
  262MOL0     H36150  10.155   7.696   7.745  1.0322 -0.8347 -1.6127
  262MOL0     H36151  10.078   7.854   7.725 -1.4064 -1.6513  0.0408
  262MOL0     H36152  10.496   7.916   7.825 -0.8158 -1.7972  1.6186
  262MOL0     H36153   9.823   7.998   7.368 -1.4230  1.0900 -0.5277
  262MOL0     H36154   9.642   8.026   7.229 -0.3631 -1.2940  0.8255
  262MOL0     H36155   9.529   8.015   7.355  0.0052  0.1390 -0.3008
  262MOL0     H36156   9.531   8.162   7.253 -0.7652  0.4615  3.2318
  263MOL0     O36157   8.689   3.224   2.368  0.2955 -0.6119 -0.1812
  263MOL0     C36158   8.739   3.241   2.480  1.0260 -0.2049  0.8633
  263MOL0     O36159   8.766   3.366   2.530 -0.0490  0.4359  0.8449
  263MOL0     C36160   8.778   3.467   2.436 -0.2436  0.5578 -0.2224
  263MOL0     C36161   8.708   3.581   2.454  0.5127 -1.1652  0.0767
  263MOL0     C36162   8.741   3.697   2.381 -1.2311  0.0281 -0.4731
  263MOL0     C36163   8.840   3.694   2.290  1.2279 -0.5188  0.6691
  263MOL0     O36164   8.855   3.804   2.211 -0.1140 -0.5938 -0.0724
  263MOL0     C36165   8.991   3.861   2.227  0.2837 -0.8715  0.4727
  263MOL0     C36166   9.061   3.888   2.094 -0.1741 -0.2037 -0.6852
  263MOL0     C36167   9.123   3.771   2.009 -0.6007 -0.1453 -0.1550
  263MOL0     C36168   9.247   3.710   2.089  0.1753 -0.4478  0.0154
  263MOL0     C36169   9.319   3.619   1.987  0.7538 -0.4721  0.4218
  263MOL0     C36170   9.412   3.542   2.066 -0.1632  0.3432 -0.1702
  263MOL0     C36171   9.481   3.441   1.972  0.2362  0.5428 -1.2087
  263MOL0     C36172   9.578   3.343   2.052  0.8188 -1.0495  0.0533
  263MOL0     N36173   9.681   3.427   2.099 -0.0712 -0.2427  0.3346
  263MOL0     C36174   9.772   3.504   2.021 -0.3688  0.0076  0.6826
  263MOL0     C36175   9.840   3.577   2.114 -0.0305 -0.0690 -0.0976
  263MOL0     C36176   9.944   3.683   2.079 -0.6666 -0.5141 -0.2774
  263MOL0     C36177  10.063   3.699   2.184  0.7416 -0.7100 -0.1922
  263MOL0     C36178  10.188   3.623   2.145  0.1116 -0.1881  0.0249
  263MOL0     C36179  10.289   3.619   2.251 -0.4588  0.3948 -0.1799
  263MOL0     O36180  10.344   3.750   2.266  0.1952 -0.2408 -0.2349
  263MOL0     C36181  10.453   3.759   2.340 -1.0548  0.4987 -0.8220
  263MOL0     C36182  10.526   3.879   2.329  0.6598 -0.1285  0.2966
  263MOL0     C36183  10.659   3.889   2.372  0.6758  0.4105  0.3910
  263MOL0     C36184  10.732   4.006   2.313  0.0439 -0.2596 -0.0634
  263MOL0     C36185  10.712   3.784   2.452 -0.0994 -0.0250 -0.3742
  263MOL0     C36186  10.854   3.789   2.509 -0.3394  0.1646 -1.2327
  263MOL0     O36187  10.892   3.693   2.593 -1.0537 -0.0430  0.4299
  263MOL0     C36188  11.004   3.694   2.670 -0.2361 -0.8637  0.5250
  263MOL0     C36189  11.068   3.805   2.731  0.5952 -0.1093  0.5244
  263MOL0     C36190  11.171   3.783   2.825 -0.0831  0.4894 -1.2416
  263MOL0     C36191  11.210   3.656   2.871  0.1638  0.3769 -0.3225
  263MOL0     O36192  11.332   3.632   2.929 -0.6580 -0.0140  0.6426
  263MOL0     C36193  11.381   3.724   3.024 -0.6941  0.6111  0.4445
  263MOL0     C36194  11.512   3.676   3.090  0.1877 -0.0850  0.6589
  263MOL0     C36195  11.551   3.777   3.197 -0.1758 -0.7642 -1.4491
  263MOL0     C36196  11.678   3.743   3.279  0.1018  0.7345  0.3401
  263MOL0     C36197  11.674   3.618   3.361  0.1120  0.0071  0.1781
  263MOL0     C36198  11.799   3.622   3.440  0.1117 -0.3300  1.0846
  263MOL0     C36199  11.808   3.497   3.517 -0.0688  0.3177  0.0457
  263MOL0     C36200  11.926   3.475   3.615 -0.2959 -0.4650  0.0329
  263MOL0    Cl36201  11.879   3.336   3.720 -0.5770 -0.2957 -0.2211
  263MOL0     C36202  11.137   3.549   2.809  0.6206 -0.2111 -0.6624
  263MOL0     C36203  11.035   3.569   2.720 -0.0741  0.7075  0.1793
  263MOL0     O36204  10.929   3.884   2.483  0.6283  0.8201  0.4648
  263MOL0     C36205  10.639   3.662   2.470  0.5259  0.6499 -1.1195
  263MOL0     C36206  10.509   3.658   2.421  0.5470 -0.0479  0.8998
  263MOL0     N36207   9.793   3.543   2.240 -0.0676  0.6554  0.3906
  263MOL0     N36208   9.709   3.454   2.230 -0.5250  0.2380  0.2437
  263MOL0     C36209   8.915   3.584   2.264 -1.2164 -0.8419  0.4107
  263MOL0     C36210   8.897   3.471   2.349  0.4574 -0.0611 -0.3537
  263MOL0     C36211   8.733   3.134   2.582  0.5511 -0.2853 -0.2843
  263MOL0     C36212   8.725   3.177   2.715  0.6748  1.1754 -0.1301
  263MOL0     C36213   8.711   3.082   2.823 -0.2394 -0.5394  0.1525
  263MOL0     C36214   8.703   2.950   2.789 -0.2244  0.8927  0.3404
  263MOL0     O36215   8.697   2.850   2.882 -0.0573 -0.5795  0.6224
  263MOL0     C36216   8.823   2.791   2.924  0.1932 -0.5321 -0.3701
  263MOL0     C36217   8.840   2.643   2.923 -0.0389  1.3695  0.3998
  263MOL0     C36218   8.734   2.578   3.014  0.2156  0.0806 -0.4200
  263MOL0     C36219   8.738   2.607   3.166  0.5803  1.0547 -0.5484
  263MOL0     C36220   8.637   2.707   3.194 -0.0019  0.0547  0.0432
  263MOL0     C36221   8.544   2.780   3.225  0.5640 -0.7022  0.6045
  263MOL0     C36222   8.718   2.910   2.654  0.7534  0.4747 -1.3605
  263MOL0     C36223   8.734   3.001   2.550 -0.4544  0.4782 -0.6140
  263MOL0     C36224   8.758   2.950   2.408 -0.0923  0.3937 -0.3638
  263MOL0     H36225   8.628   3.588   2.528 -0.7956 -2.4274 -1.1413
  263MOL0     H36226   8.679   3.787   2.385 -1.1355  0.0625  0.3977
  263MOL0     H36227   9.054   3.795   2.287 -0.6173 -1.7568  0.4780
  263MOL0     H36228   8.987   3.964   2.264  2.1554 -0.1413 -1.1097
  263MOL0     H36229   8.986   3.940   2.033 -1.9965  0.7272  2.1615
  263MOL0     H36230   9.139   3.964   2.109 -0.7803 -0.0350  2.0693
  263MOL0     H36231   9.042   3.697   2.005  0.1272 -1.0474  1.0484
  263MOL0     H36232   9.149   3.818   1.913 -1.9773  1.3596  0.1676
  263MOL0     H36233   9.307   3.797   2.118  0.7328 -1.2876  1.5319
  263MOL0     H36234   9.223   3.655   2.181  1.3541 -0.9956  0.0180
  263MOL0     H36235   9.376   3.683   1.919 -1.3059 -0.8088 -1.7697
  263MOL0     H36236   9.235   3.563   1.945 -0.3398  0.8849  0.7374
  263MOL0     H36237   9.480   3.611   2.117 -0.4592  1.3822 -1.1485
  263MOL0     H36238   9.362   3.490   2.148  0.1783  0.3492  0.0466
  263MOL0     H36239   9.535   3.498   1.895  0.3356  0.0864 -1.4821
  263MOL0     H36240   9.401   3.377   1.933 -0.3691  0.0119  0.8014
  263MOL0     H36241   9.532   3.288   2.135  1.3387 -0.3819  0.8012
  263MOL0     H36242   9.620   3.269   1.984  0.6854 -1.3350  0.2770
  263MOL0     H36243   9.781   3.498   1.913  2.2560 -1.3651  0.8756
  263MOL0     H36244   9.888   3.777   2.077  3.8201  2.7391  3.2436
  263MOL0     H36245   9.998   3.668   1.985  1.3160 -0.3909  0.7878
  263MOL0     H36246  10.099   3.801   2.165  0.5635 -0.3549  1.2723
  263MOL0     H36247  10.028   3.680   2.286 -0.1700 -1.7957 -0.6862
  263MOL0     H36248  10.173   3.518   2.119  3.2904 -1.4750  2.7554
  263MOL0     H36249  10.238   3.667   2.058  1.0441 -0.8696  0.1957
  263MOL0     H36250  10.234   3.587   2.340 -0.1348  2.6972  0.9422
  263MOL0     H36251  10.370   3.552   2.220 -0.1569  0.7937 -0.2684
  263MOL0     H36252  10.463   3.947   2.273  0.4567 -1.3702 -1.0476
  263MOL0     H36253  10.817   3.969   2.255 -1.3021 -0.5681 -1.9491
  263MOL0     H36254  10.771   4.074   2.389 -0.0110  0.6870 -0.8449
  263MOL0     H36255  10.669   4.065   2.246 -1.3687  0.2676  1.6413
  263MOL0     H36256  11.049   3.904   2.692 -1.9008  0.1167  2.0573
  263MOL0     H36257  11.228   3.870   2.857  0.6009 -0.5339  0.4391
  263MOL0     H36258  11.416   3.812   2.968  1.1925 -1.0675 -1.1574
  263MOL0     H36259  11.311   3.764   3.098 -0.4465 -0.1004  1.0689
  263MOL0     H36260  11.493   3.577   3.131 -0.0862 -1.5612 -2.6615
  263MOL0     H36261  11.594   3.656   3.019  1.9702  0.3194  2.5047
  263MOL0     H36262  11.466   3.798   3.263  1.6067  0.7272  0.5146
  263MOL0     H36263  11.582   3.863   3.138 -0.9176 -0.5085 -1.4799
  263MOL0     H36264  11.701   3.825   3.348 -2.8668 -0.2049  2.6907
  263MOL0     H36265  11.760   3.740   3.206  1.6764 -0.7924  2.0506
  263MOL0     H36266  11.586   3.619   3.426 -0.1751 -2.6842 -0.0748
  263MOL0     H36267  11.672   3.527   3.301 -2.4888  0.8068 -1.1244
  263MOL0     H36268  11.798   3.696   3.520  0.8315  2.8485 -1.6086
  263MOL0     H36269  11.879   3.645   3.368 -2.1217 -0.6856 -1.6788
  263MOL0     H36270  11.804   3.418   3.441  2.2894  3.0063 -3.2124
  263MOL0     H36271  11.710   3.483   3.563 -0.2837 -2.5742 -1.0552
  263MOL0     H36272  11.944   3.568   3.669 -1.0872 -1.3868  1.9738
  263MOL0     H36273  12.021   3.461   3.563 -0.1794 -1.2118  0.4292
  263MOL0     H36274  11.156   3.446   2.838  5.2488  1.2633  2.7832
  263MOL0     H36275  10.978   3.488   2.675 -1.1316  0.3135  2.1295
  263MOL0     H36276  10.674   3.583   2.536  2.6125  3.3155  1.1813
  263MOL0     H36277  10.453   3.565   2.432  1.7066 -0.6619  1.8763
  263MOL0     H36278   8.995   3.581   2.191 -1.7756 -1.1797 -0.1985
  263MOL0     H36279   8.961   3.384   2.353  1.6045  0.8053  2.2914
  263MOL0     H36280   8.750   3.279   2.745  1.0329  2.0788 -3.1981
  263MOL0     H36281   8.710   3.132   2.919  3.2598 -0.7251  0.4031
  263MOL0     H36282   8.912   2.833   2.874  0.3223 -0.9159 -0.4641
  263MOL0     H36283   8.847   2.824   3.025  3.1086 -0.9503 -0.8282
  263MOL0     H36284   8.940   2.607   2.948 -0.5368 -1.5088 -1.2963
  263MOL0     H36285   8.817   2.609   2.821  0.7618 -0.0711  0.6663
  263MOL0     H36286   8.640   2.614   2.970  0.4507  2.4672  0.8765
  263MOL0     H36287   8.736   2.470   3.000  2.9742  0.0130  0.0427
  263MOL0     H36288   8.835   2.636   3.209  1.8748 -2.9046 -0.3894
  263MOL0     H36289   8.709   2.511   3.210  4.3762 -0.5408 -1.1172
  263MOL0     H36290   8.450   2.827   3.247 -0.1704 -2.9711  2.7210
  263MOL0     H36291   8.717   2.804   2.632 -1.3427  0.4408 -1.2761
  263MOL0     H36292   8.667   2.950   2.348 -1.0404 -0.8320  1.0138
  263MOL0     H36293   8.817   3.030   2.362 -0.1304  0.0924 -0.9446
  263MOL0     H36294   8.799   2.849   2.406 -0.1957  0.3256  0.4311
  264MOL0     O36295   1.247   4.202   5.101  0.6013  0.5106  0.5893
  264MOL0     C36296   1.164   4.109   5.082  0.3033  0.9650 -0.3302
  264MOL0     O36297   1.055   4.086   5.152 -0.6074  0.8162 -0.5915
  264MOL0     C36298   1.021   3.960   5.205  0.3570  0.4075  0.4321
  264MOL0     C36299   0.917   3.889   5.139  0.1002  0.0096  0.5731
  264MOL0     C36300   0.861   3.776   5.195 -0.6336  0.5872  0.5183
  264MOL0     C36301   0.921   3.707   5.308  0.6721  1.1083  1.0251
  264MOL0     O36302   0.879   3.579   5.344  0.6659 -0.0996  0.1727
  264MOL0     C36303   0.758   3.521   5.292  0.4424  0.0866 -0.4979
  264MOL0     C36304   0.643   3.568   5.379 -0.1548  0.2035 -0.3320
  264MOL0     C36305   0.510   3.491   5.357  0.6409 -0.6714 -0.2009
  264MOL0     C36306   0.451   3.528   5.221  0.5157  0.4508  0.3457
  264MOL0     C36307   0.311   3.445   5.198 -0.7313  0.0566 -0.2375
  264MOL0     C36308   0.263   3.478   5.053 -0.1762 -0.3132 -0.7701
  264MOL0     C36309   0.155   3.387   5.006  0.2946  0.1320  1.0058
  264MOL0     C36310   0.050   3.377   5.117  1.3376 -0.3260  0.8890
  264MOL0     N36311  -0.047   3.280   5.064  0.3150 -0.5957 -0.7166
  264MOL0     C36312  -0.139   3.314   4.972  0.1173  0.4119 -0.3611
  264MOL0     C36313  -0.186   3.191   4.920  1.0674 -0.1946 -0.2159
  264MOL0     C36314  -0.300   3.162   4.822  0.4632 -0.9863  0.1236
  264MOL0     C36315  -0.299   3.019   4.772  0.2580 -0.2448  0.4047
  264MOL0     C36316  -0.410   2.999   4.674 -0.4268  0.2704 -0.7425
  264MOL0     C36317  -0.386   2.860   4.613  0.0031  0.5211 -1.1213
  264MOL0     O36318  -0.273   2.862   4.530 -0.9525  0.0398  0.0484
  264MOL0     C36319  -0.195   2.748   4.515 -0.3377 -0.4641  0.6330
  264MOL0     C36320  -0.232   2.616   4.537  1.2142  0.6696 -0.1241
  264MOL0     C36321  -0.143   2.503   4.561  1.0417 -0.6145  1.0733
  264MOL0     C36322  -0.194   2.387   4.626  0.1050  0.5188 -0.0104
  264MOL0     C36323  -0.005   2.524   4.532 -0.0005  0.4531 -0.0450
  264MOL0     C36324   0.110   2.425   4.565 -0.3642  0.4217 -0.4955
  264MOL0     O36325   0.244   2.478   4.548  0.4054  0.0478  0.8083
  264MOL0     C36326   0.349   2.405   4.598  0.2320  0.4024 -0.7956
  264MOL0     C36327   0.418   2.454   4.712 -0.2766 -0.2264  0.2446
  264MOL0     C36328   0.536   2.386   4.751  0.2785  0.0531 -0.3269
  264MOL0     C36329   0.580   2.273   4.689 -0.5572  0.3643  0.4568
  264MOL0     O36330   0.664   2.185   4.752 -0.0210  0.8297  0.0369
  264MOL0     C36331   0.746   2.219   4.865 -0.8594 -0.6432  0.7664
  264MOL0     C36332   0.821   2.100   4.913 -0.0567 -0.2175 -0.3736
  264MOL0     C36333   0.852   2.098   5.064 -0.2860 -0.6945  0.0849
  264MOL0     C36334   0.895   2.231   5.119  0.6131  0.0353 -0.0490
  264MOL0     C36335   0.960   2.227   5.246  0.2401 -0.7832 -0.1932
  264MOL0     C36336   0.970   2.359   5.312  0.1435  0.3567 -0.0179
  264MOL0     C36337   1.030   2.340   5.456  0.8389  0.6607  0.9218
  264MOL0     C36338   1.110   2.471   5.493  0.1737 -0.0350 -0.8463
  264MOL0    Cl36339   1.139   2.485   5.659  0.2277 -0.1041  0.1633
  264MOL0     C36340   0.509   2.225   4.583 -0.8646  0.3941  0.3709
  264MOL0     C36341   0.389   2.285   4.548 -0.2704 -0.5122  1.1159
  264MOL0     O36342   0.085   2.310   4.594 -0.4767  0.5919  0.3883
  264MOL0     C36343   0.034   2.655   4.492 -0.2221 -0.2730  0.4179
  264MOL0     C36344  -0.058   2.767   4.486 -0.5188 -0.3231 -0.6113
  264MOL0     N36345  -0.110   3.101   4.983  0.8526  0.1551 -0.5517
  264MOL0     N36346  -0.035   3.150   5.077 -0.9401  0.3455  0.3622
  264MOL0     C36347   1.030   3.774   5.372 -0.1085  0.1214  0.9854
  264MOL0     C36348   1.073   3.896   5.325 -0.4395  0.0982 -0.3585
  264MOL0     C36349   1.196   4.030   4.954 -0.9790  0.1579 -1.3309
  264MOL0     C36350   1.089   4.004   4.872  0.1082  0.1843  0.1080
  264MOL0     C36351   1.100   3.914   4.761 -0.8399 -0.6727  0.2342
  264MOL0     C36352   1.225   3.849   4.737  0.5593  1.3271  0.1495
  264MOL0     O36353   1.243   3.779   4.622  0.1845 -0.4148 -0.4445
  264MOL0     C36354   1.365   3.730   4.564 -0.6412  0.6330  0.2839
  264MOL0     C36355   1.427   3.602   4.620  0.0622  0.1215 -0.4364
  264MOL0     C36356   1.327   3.480   4.631  0.1731  0.0807  0.5580
  264MOL0     C36357   1.282   3.405   4.505 -0.0503  0.2651  0.7937
  264MOL0     C36358   1.197   3.492   4.423 -0.3020  0.2481  0.4126
  264MOL0     C36359   1.126   3.576   4.361 -0.5012  0.6146 -0.2061
  264MOL0     C36360   1.324   3.869   4.831 -0.3157  0.1008  0.7067
  264MOL0     C36361   1.313   3.958   4.936  0.7899 -0.4806 -0.1439
  264MOL0     C36362   1.429   3.972   5.040  0.2707  1.4332 -0.8221
  264MOL0     H36363   0.865   3.925   5.052  3.0486  0.5172 -1.1281
  264MOL0     H36364   0.768   3.744   5.148 -0.2645 -0.6363  0.5863
  264MOL0     H36365   0.758   3.412   5.304  0.1818  0.2607  1.4407
  264MOL0     H36366   0.728   3.551   5.191 -0.8280  1.3882  0.2318
  264MOL0     H36367   0.669   3.545   5.483 -1.2498  1.2269  0.1839
  264MOL0     H36368   0.627   3.675   5.369 -0.7883  0.2124  0.6719
  264MOL0     H36369   0.512   3.381   5.365 -2.0286 -0.9591 -2.0545
  264MOL0     H36370   0.442   3.524   5.437 -0.0242 -2.1251 -0.1278
  264MOL0     H36371   0.436   3.636   5.211 -2.4731 -0.0766 -2.5970
  264MOL0     H36372   0.513   3.501   5.135 -0.6343  0.1263 -0.4026
  264MOL0     H36373   0.236   3.465   5.275 -0.9033 -2.2115  0.2412
  264MOL0     H36374   0.326   3.337   5.204  0.4019  0.1631 -0.7976
  264MOL0     H36375   0.234   3.583   5.046  0.6001  0.1732  2.0729
  264MOL0     H36376   0.340   3.475   4.975 -0.9168 -0.3423 -1.5087
  264MOL0     H36377   0.194   3.290   4.976 -0.1570 -0.4459  2.2218
  264MOL0     H36378   0.116   3.433   4.915  2.7312  0.1737 -0.0820
  264MOL0     H36379   0.092   3.344   5.213  2.5953  5.4535  2.6702
  264MOL0     H36380   0.002   3.473   5.137 -2.4437 -2.1808  1.6626
  264MOL0     H36381  -0.172   3.411   4.935  3.6505  1.2170 -1.8393
  264MOL0     H36382  -0.293   3.229   4.736  2.0615  0.6641  1.4725
  264MOL0     H36383  -0.393   3.190   4.872  0.5026 -1.6050  0.5571
  264MOL0     H36384  -0.198   3.012   4.730 -1.0262  1.4275 -3.3769
  264MOL0     H36385  -0.323   2.957   4.859 -2.8392  1.1530  0.6415
  264MOL0     H36386  -0.506   2.997   4.727 -0.6448 -1.1815 -1.1502
  264MOL0     H36387  -0.412   3.072   4.592 -4.4591 -1.4905 -2.5130
  264MOL0     H36388  -0.387   2.783   4.690 -1.9742 -1.0421 -2.5970
  264MOL0     H36389  -0.468   2.849   4.541 -0.8906  3.0197 -0.6192
  264MOL0     H36390  -0.340   2.609   4.552  0.9309  1.5712 -1.4654
  264MOL0     H36391  -0.276   2.410   4.695  1.0761  0.5821  1.1414
  264MOL0     H36392  -0.125   2.331   4.689  0.1794  1.2755  0.5896
  264MOL0     H36393  -0.233   2.324   4.545 -1.6677  1.7896 -0.2071
  264MOL0     H36394   0.399   2.548   4.764  3.4580  0.7929  0.0405
  264MOL0     H36395   0.593   2.433   4.831 -0.0853 -1.7475  1.0548
  264MOL0     H36396   0.808   2.307   4.845  1.2002 -2.1192  0.3343
  264MOL0     H36397   0.678   2.237   4.949  1.8475  2.1916  2.5856
  264MOL0     H36398   0.765   2.009   4.888  0.0236  0.2681 -2.4489
  264MOL0     H36399   0.910   2.069   4.857 -0.8668 -2.6900 -0.4370
  264MOL0     H36400   0.932   2.028   5.090  0.0205  0.1814  1.5687
  264MOL0     H36401   0.753   2.071   5.103  0.0111  1.1282  2.2977
  264MOL0     H36402   0.809   2.298   5.127 -2.2418 -3.5755  3.0214
  264MOL0     H36403   0.968   2.266   5.045  2.5002  1.6174  2.4304
  264MOL0     H36404   0.907   2.156   5.310  0.8201 -1.4737 -0.4742
  264MOL0     H36405   1.062   2.191   5.237 -0.8732 -3.9460 -1.3141
  264MOL0     H36406   0.872   2.407   5.321 -1.1166 -2.2803  1.2363
  264MOL0     H36407   1.041   2.421   5.256 -0.8466  1.2545 -0.3259
  264MOL0     H36408   1.087   2.247   5.459 -2.2183 -1.3606  1.3425
  264MOL0     H36409   0.946   2.353   5.526 -0.9379 -1.2128 -0.7514
  264MOL0     H36410   1.051   2.558   5.462 -1.0027  0.6066  2.7117
  264MOL0     H36411   1.210   2.461   5.449 -0.0390 -2.6447 -0.8755
  264MOL0     H36412   0.546   2.131   4.542  1.0351  1.2831 -0.0455
  264MOL0     H36413   0.324   2.235   4.478  1.5707 -2.3800  0.6320
  264MOL0     H36414   0.137   2.676   4.463 -0.4108  0.1745  0.0666
  264MOL0     H36415  -0.010   2.861   4.459  3.0667 -1.2136  1.9230
  264MOL0     H36416   1.057   3.734   5.469 -3.0593 -2.1363  1.0183
  264MOL0     H36417   1.149   3.953   5.377 -1.6544  1.5967 -0.1321
  264MOL0     H36418   0.997   4.061   4.887 -0.2160 -0.0933 -0.7593
  264MOL0     H36419   1.018   3.918   4.690 -1.1287  4.2520  0.5102
  264MOL0     H36420   1.344   3.708   4.459  2.4983  0.7835 -0.4510
  264MOL0     H36421   1.438   3.808   4.587 -1.9372  1.0739  3.5771
  264MOL0     H36422   1.448   3.623   4.725  0.1866  0.8340 -0.5999
  264MOL0     H36423   1.514   3.575   4.559  1.1964  3.4608 -0.5091
  264MOL0     H36424   1.363   3.400   4.696  2.1884  0.1529 -0.3962
  264MOL0     H36425   1.234   3.517   4.677 -0.4294 -2.4480  1.5231
  264MOL0     H36426   1.237   3.310   4.534  1.0784 -0.2348  0.9663
  264MOL0     H36427   1.377   3.378   4.457  0.5705 -2.4693  3.3236
  264MOL0     H36428   1.065   3.645   4.307  1.6840  2.2254 -0.7187
  264MOL0     H36429   1.422   3.822   4.824 -0.3338 -0.1522  1.8164
  264MOL0     H36430   1.507   3.898   5.020 -1.3438 -0.1421 -1.5754
  264MOL0     H36431   1.470   4.074   5.038  0.9466  1.4794  4.1526
  264MOL0     H36432   1.393   3.948   5.140 -2.9908  2.2929 -1.6724
  265MOL0     O36433   7.704   8.446   1.880 -0.3909  0.1702  0.3790
  265MOL0     C36434   7.790   8.455   1.963 -0.4361  0.2059 -0.5670
  265MOL0     O36435   7.927   8.449   1.935 -0.1005  0.8737  0.1432
  265MOL0     C36436   7.969   8.432   1.807 -0.2913 -0.8112 -0.7526
  265MOL0     C36437   8.066   8.339   1.805  0.0219  0.3506  0.1302
  265MOL0     C36438   8.125   8.306   1.684  0.0437  0.4194 -0.2357
  265MOL0     C36439   8.079   8.341   1.559 -0.1637 -0.0109  0.1871
  265MOL0     O36440   8.155   8.308   1.448 -1.1914 -0.4646 -0.4179
  265MOL0     C36441   8.105   8.358   1.321 -0.5444 -0.2152 -0.2993
  265MOL0     C36442   8.177   8.501   1.309  0.5672 -0.2834  0.0372
  265MOL0     C36443   8.306   8.486   1.237 -0.2595 -0.1949 -0.0507
  265MOL0     C36444   8.283   8.461   1.086 -0.1261 -0.2507 -0.6852
  265MOL0     C36445   8.413   8.438   1.004  0.9292  0.6311  1.3264
  265MOL0     C36446   8.369   8.374   0.873  0.2054  0.0553 -0.3787
  265MOL0     C36447   8.488   8.380   0.777  0.2057 -0.1642  0.8226
  265MOL0     C36448   8.623   8.322   0.822 -0.1343 -0.1969  1.0491
  265MOL0     N36449   8.716   8.331   0.713  0.3130  0.3579 -0.3553
  265MOL0     C36450   8.716   8.263   0.591 -0.2808  0.2611  0.2452
  265MOL0     C36451   8.830   8.295   0.520 -0.2950  0.7731 -0.6091
  265MOL0     C36452   8.871   8.249   0.381  0.7844 -0.1337 -1.2288
  265MOL0     C36453   8.758   8.227   0.287  0.6943 -0.2400  0.2694
  265MOL0     C36454   8.739   8.329   0.169 -1.4360  1.0562 -0.6722
  265MOL0     C36455   8.669   8.260   0.046 -0.8725 -0.0669 -0.3427
  265MOL0     O36456   8.635   8.369  -0.042  0.3127 -0.5980  0.3524
  265MOL0     C36457   8.570   8.349  -0.162  0.7637 -0.5092  0.4016
  265MOL0     C36458   8.477   8.447  -0.206  0.1407  0.1937 -0.4846
  265MOL0     C36459   8.434   8.438  -0.336  0.6688  0.9412  0.1541
  265MOL0     C36460   8.339   8.550  -0.378 -0.4934  1.0285  0.0682
  265MOL0     C36461   8.474   8.337  -0.419 -0.1237 -0.2206  0.0623
  265MOL0     C36462   8.424   8.312  -0.563 -0.3983  0.0938  0.5322
  265MOL0     O36463   8.432   8.181  -0.605  0.4163 -0.1852 -0.5324
  265MOL0     C36464   8.374   8.138  -0.728  0.3038  0.8232 -0.5452
  265MOL0     C36465   8.438   8.184  -0.845 -0.2056  0.8569  1.2192
  265MOL0     C36466   8.391   8.124  -0.964 -0.4087 -0.4582  0.1314
  265MOL0     C36467   8.275   8.047  -0.974  0.4158  0.3114 -1.3125
  265MOL0     O36468   8.254   7.968  -1.082  0.0332  0.8572  0.2179
  265MOL0     C36469   8.182   8.041  -1.190 -1.0897  0.1751 -0.5328
  265MOL0     C36470   8.038   8.029  -1.166  0.1902  0.0894 -0.1346
  265MOL0     C36471   7.945   8.066  -1.275  0.9772 -0.0181  0.3823
  265MOL0     C36472   7.795   8.079  -1.219  0.9177 -1.0600  1.3800
  265MOL0     C36473   7.690   8.130  -1.318  0.1925 -0.1457  1.3145
  265MOL0     C36474   7.634   8.024  -1.414 -1.2330 -0.1166 -0.2565
  265MOL0     C36475   7.528   7.928  -1.371  0.7576  0.1444 -0.3974
  265MOL0     C36476   7.572   7.826  -1.273  0.4341  1.0833  0.7241
  265MOL0    Cl36477   7.715   7.744  -1.341  0.6860 -0.4788  0.1970
  265MOL0     C36478   8.217   8.006  -0.858 -0.2743  0.7968  0.8043
  265MOL0     C36479   8.265   8.040  -0.740 -0.1838 -0.1248 -0.7533
  265MOL0     O36480   8.394   8.402  -0.639 -0.3356  0.6503 -0.0167
  265MOL0     C36481   8.572   8.251  -0.375 -0.0820  0.8270  0.2485
  265MOL0     C36482   8.620   8.260  -0.250 -0.2083 -0.2998  0.5207
  265MOL0     N36483   8.901   8.376   0.609  0.1108  1.1899  0.5895
  265MOL0     N36484   8.842   8.397   0.722  0.4464 -0.3847 -0.9566
  265MOL0     C36485   7.977   8.440   1.558 -0.3102 -0.3756  0.2443
  265MOL0     C36486   7.930   8.482   1.685  1.1902 -0.6317 -0.5496
  265MOL0     C36487   7.755   8.459   2.108  0.6390 -0.5857 -0.5030
  265MOL0     C36488   7.858   8.483   2.199  0.2165 -0.5252 -0.2542
  265MOL0     C36489   7.839   8.487   2.340 -0.7970 -0.5033 -0.2497
  265MOL0     C36490   7.710   8.465   2.389 -0.2856 -0.9971  0.3889
  265MOL0     O36491   7.698   8.472   2.528  0.6739  0.7062 -0.0071
  265MOL0     C36492   7.571   8.472   2.594  0.0907 -0.7677 -0.6777
  265MOL0     C36493   7.506   8.613   2.601 -0.4062  1.0239  0.1870
  265MOL0     C36494   7.573   8.695   2.705  0.0092 -1.6293 -0.5035
  265MOL0     C36495   7.486   8.817   2.746  0.5563 -0.0174  0.0729
  265MOL0     C36496   7.388   8.756   2.836  0.9092  0.8143 -0.0421
  265MOL0     C36497   7.324   8.681   2.910  0.5984  0.4517 -0.7769
  265MOL0     C36498   7.600   8.456   2.301 -0.0315 -0.6790 -0.1151
  265MOL0     C36499   7.630   8.461   2.166  0.0773  0.3433 -0.1209
  265MOL0     C36500   7.502   8.469   2.088 -0.3134 -0.5705  1.3793
  265MOL0     H36501   8.107   8.293   1.895  0.4478 -1.6770 -1.0403
  265MOL0     H36502   8.214   8.244   1.692 -1.4141 -1.5521  1.9929
  265MOL0     H36503   7.997   8.367   1.308 -0.6714  2.4431  1.7914
  265MOL0     H36504   8.140   8.283   1.248  2.1711 -0.8788  1.5210
  265MOL0     H36505   8.104   8.555   1.247 -1.6796 -3.5656 -0.3964
  265MOL0     H36506   8.180   8.562   1.400 -0.7199  0.7422 -0.5638
  265MOL0     H36507   8.367   8.576   1.244  0.2926 -0.6718  2.3663
  265MOL0     H36508   8.368   8.418   1.297  1.2305  1.2197  0.0969
  265MOL0     H36509   8.214   8.377   1.073 -1.1165 -0.4903  4.2976
  265MOL0     H36510   8.242   8.553   1.045  0.2410 -0.3456 -1.2787
  265MOL0     H36511   8.477   8.371   1.061  0.0797 -2.2467 -0.8456
  265MOL0     H36512   8.458   8.535   0.985 -2.1797  2.2407  1.3972
  265MOL0     H36513   8.341   8.270   0.892 -0.6370  0.3616  0.1133
  265MOL0     H36514   8.285   8.422   0.822 -1.1453 -0.7714  0.9802
  265MOL0     H36515   8.503   8.484   0.745 -0.8378  0.0561  1.0181
  265MOL0     H36516   8.450   8.318   0.695  1.8977  0.1987 -0.2789
  265MOL0     H36517   8.658   8.384   0.904 -0.8202 -0.2853  1.4193
  265MOL0     H36518   8.618   8.220   0.862  2.0016 -0.4770  0.7230
  265MOL0     H36519   8.643   8.187   0.565  0.0755 -1.6524  4.1239
  265MOL0     H36520   8.918   8.150   0.375  1.0085 -0.0141 -1.4466
  265MOL0     H36521   8.947   8.315   0.338  4.1959 -2.5332  0.6515
  265MOL0     H36522   8.768   8.130   0.239  1.3489  1.5625 -3.5630
  265MOL0     H36523   8.658   8.236   0.331 -1.6593 -0.4292 -4.4283
  265MOL0     H36524   8.675   8.415   0.191 -1.9970  0.1644  1.4664
  265MOL0     H36525   8.833   8.364   0.126 -0.1764 -0.2944  0.8722
  265MOL0     H36526   8.747   8.205  -0.007 -1.1521 -0.0760 -0.7461
  265MOL0     H36527   8.579   8.205   0.075 -0.6245  0.6854  2.1061
  265MOL0     H36528   8.443   8.527  -0.140 -0.4770 -0.2912 -0.2041
  265MOL0     H36529   8.339   8.624  -0.298 -1.6231  0.0891  0.9704
  265MOL0     H36530   8.237   8.514  -0.393 -0.5812  1.0940  0.5118
  265MOL0     H36531   8.383   8.587  -0.471  0.7385 -3.8102 -1.5945
  265MOL0     H36532   8.511   8.262  -0.862  1.4431 -0.6461  1.2016
  265MOL0     H36533   8.450   8.151  -1.051  1.0420 -0.6154  1.0338
  265MOL0     H36534   8.209   8.147  -1.191 -0.5508  0.0471 -1.3828
  265MOL0     H36535   8.208   7.998  -1.287 -1.5136  1.2619 -1.1477
  265MOL0     H36536   8.028   7.922  -1.149 -0.3897  0.2147  0.3653
  265MOL0     H36537   8.014   8.081  -1.073  1.9541 -0.6207  0.7710
  265MOL0     H36538   7.949   7.986  -1.349  1.3040 -1.2808  1.7038
  265MOL0     H36539   7.984   8.162  -1.312  3.4673 -0.7773  0.8398
  265MOL0     H36540   7.800   8.157  -1.143  0.4120 -0.0734  0.4162
  265MOL0     H36541   7.758   7.986  -1.174 -5.1595  0.3397  0.1973
  265MOL0     H36542   7.602   8.172  -1.268 -0.9903  0.2362 -0.9253
  265MOL0     H36543   7.736   8.213  -1.373  2.3591 -0.5050  2.4719
  265MOL0     H36544   7.716   7.964  -1.454 -0.1438  0.4832  1.0285
  265MOL0     H36545   7.592   8.082  -1.496  0.3659 -0.2922 -1.2389
  265MOL0     H36546   7.484   7.869  -1.452 -0.6107  2.4082 -1.4202
  265MOL0     H36547   7.444   7.988  -1.337  1.3269  2.5820 -2.9037
  265MOL0     H36548   7.485   7.762  -1.257  0.0802  2.0952  3.5024
  265MOL0     H36549   7.597   7.873  -1.177 -1.0514 -1.9932  2.7581
  265MOL0     H36550   8.136   7.935  -0.865  1.0533 -0.6278 -0.9055
  265MOL0     H36551   8.213   8.008  -0.650 -0.9837  1.3703 -0.6522
  265MOL0     H36552   8.608   8.168  -0.435 -1.5267  0.4652 -0.1601
  265MOL0     H36553   8.681   8.179  -0.213  0.0932  0.3308  1.4201
  265MOL0     H36554   7.928   8.473   1.467  1.3012  0.0618 -0.4906
  265MOL0     H36555   7.844   8.546   1.669 -0.4149 -1.8511  2.3575
  265MOL0     H36556   7.961   8.473   2.167  0.9758 -0.1833  1.9282
  265MOL0     H36557   7.927   8.492   2.405 -2.0364  1.3002  1.4200
  265MOL0     H36558   7.494   8.411   2.545  1.1691 -1.8609 -1.0655
  265MOL0     H36559   7.575   8.445   2.700  0.4228 -0.2080 -0.5481
  265MOL0     H36560   7.402   8.602   2.633 -0.5274 -0.5726 -0.6454
  265MOL0     H36561   7.492   8.666   2.507 -1.0357 -2.2642 -1.7288
  265MOL0     H36562   7.609   8.638   2.790 -0.0379  1.1932  1.5336
  265MOL0     H36563   7.665   8.738   2.664  0.1824  2.5845  3.4870
  265MOL0     H36564   7.442   8.880   2.669  0.5622 -1.0199 -0.7817
  265MOL0     H36565   7.544   8.887   2.808  0.0641  0.0183  0.5032
  265MOL0     H36566   7.263   8.614   2.967 -0.9251  1.3613 -1.2654
  265MOL0     H36567   7.499   8.467   2.340 -0.4575 -2.0061 -0.8116
  265MOL0     H36568   7.490   8.367   2.050  2.8587 -1.2132  1.8173
  265MOL0     H36569   7.415   8.501   2.147 -1.7942 -0.8658 -0.5442
  265MOL0     H36570   7.513   8.544   2.010 -0.1867 -0.8835  1.0951
  266MOL0     O36571   1.736   3.864   9.898  0.9852  0.5227  0.1749
  266MOL0     C36572   1.784   3.968   9.926 -0.1570 -0.6912 -0.7837
  266MOL0     O36573   1.850   3.999  10.043  0.2440  0.7078 -0.7959
  266MOL0     C36574   1.891   3.896  10.132 -1.1691  1.1522  0.6229
  266MOL0     C36575   1.868   3.913  10.271  0.0154  0.1398  0.7115
  266MOL0     C36576   1.924   3.832  10.367 -0.4564  0.3416 -0.7282
  266MOL0     C36577   2.025   3.732  10.330 -0.4818 -0.2308  0.3274
  266MOL0     O36578   2.091   3.661  10.423  0.0754 -0.0267  0.2229
  266MOL0     C36579   2.005   3.561  10.477  0.9338  0.1421 -0.9912
  266MOL0     C36580   2.057   3.485  10.591 -0.1401  0.4025 -1.0023
  266MOL0     C36581   2.053   3.571  10.721 -0.8295 -0.1624 -0.0827
  266MOL0     C36582   1.930   3.566  10.813  0.1502  0.8271 -0.1288
  266MOL0     C36583   1.962   3.635  10.942  0.4146  0.2251  0.3080
  266MOL0     C36584   1.837   3.646  11.027  0.1967  0.7204  0.4409
  266MOL0     C36585   1.851   3.720  11.155 -0.1674  0.7017  0.0500
  266MOL0     C36586   1.865   3.874  11.134 -0.2811  0.1268  0.5165
  266MOL0     N36587   1.903   3.925  11.259 -0.2987 -0.3922 -0.0280
  266MOL0     C36588   2.018   4.003  11.282  0.8080 -0.4520  0.8140
  266MOL0     C36589   2.028   4.023  11.419 -1.3447  0.4858 -0.0436
  266MOL0     C36590   2.137   4.098  11.490  0.4335 -0.0778 -0.4876
  266MOL0     C36591   2.271   4.081  11.432 -0.3194 -0.6214 -1.2401
  266MOL0     C36592   2.365   4.161  11.524  1.3114 -0.0202 -0.3955
  266MOL0     C36593   2.516   4.164  11.484  0.6014  0.4767  0.3615
  266MOL0     O36594   2.582   4.050  11.537 -0.1428  0.1328  1.0465
  266MOL0     C36595   2.653   3.975  11.444 -0.2167  0.4187 -0.2250
  266MOL0     C36596   2.792   3.980  11.429  0.1815 -1.0783  0.2501
  266MOL0     C36597   2.855   3.901  11.336  0.3610  0.1118  0.4724
  266MOL0     C36598   3.002   3.936  11.319  0.2769 -0.7031 -0.9289
  266MOL0     C36599   2.787   3.800  11.258  1.0795  0.0927 -0.1015
  266MOL0     C36600   2.852   3.710  11.157  0.2922 -0.0447 -0.1567
  266MOL0     O36601   2.771   3.656  11.054  0.6922 -0.8558 -0.4590
  266MOL0     C36602   2.814   3.559  10.966 -0.7726 -0.1846  0.3322
  266MOL0     C36603   2.842   3.590  10.829  0.0163 -0.3414 -0.2827
  266MOL0     C36604   2.893   3.489  10.742 -0.6383  0.6697  0.0823
  266MOL0     C36605   2.910   3.351  10.792  0.7815  0.2510  0.1951
  266MOL0     O36606   2.954   3.255  10.699 -0.1228  0.2931 -0.4322
  266MOL0     C36607   2.976   3.116  10.726  0.1069  0.4826  0.0788
  266MOL0     C36608   3.013   3.057  10.593 -0.0604  0.1103  0.3301
  266MOL0     C36609   3.011   2.906  10.598  0.1427 -0.6008 -0.8536
  266MOL0     C36610   3.114   2.837  10.686  0.0374 -0.0540 -0.3094
  266MOL0     C36611   3.255   2.856  10.653 -0.6214  0.4183 -0.3561
  266MOL0     C36612   3.361   2.773  10.743 -0.2630  0.3767  0.5381
  266MOL0     C36613   3.336   2.626  10.744 -0.0842 -0.5230  0.0703
  266MOL0     C36614   3.291   2.577  10.879 -0.0250  0.0082  0.3770
  266MOL0    Cl36615   3.404   2.627  11.022  0.4284  0.3517 -0.1619
  266MOL0     C36616   2.881   3.329  10.932 -0.4291 -0.3252  0.1062
  266MOL0     C36617   2.831   3.428  11.014  0.7444 -1.2715  0.5113
  266MOL0     O36618   2.972   3.683  11.170 -0.2119  0.1305  0.2828
  266MOL0     C36619   2.653   3.792  11.275  0.5671 -0.2938 -1.1501
  266MOL0     C36620   2.585   3.870  11.369 -0.1932  0.3378 -0.2850
  266MOL0     N36621   1.919   3.959  11.477  1.0988  0.0444 -1.5191
  266MOL0     N36622   1.847   3.908  11.385 -0.4314  0.2457 -0.9325
  266MOL0     C36623   2.048   3.706  10.191  0.4390 -0.5359  0.5128
  266MOL0     C36624   1.987   3.791  10.097  0.3367  0.2731  0.7451
  266MOL0     C36625   1.753   4.082   9.842 -0.0784 -0.7720 -0.1881
  266MOL0     C36626   1.749   4.206   9.901 -0.7939  0.4000  0.7481
  266MOL0     C36627   1.697   4.310   9.833  0.8303 -1.1775  0.7422
  266MOL0     C36628   1.659   4.310   9.702 -0.2037 -0.3539 -0.3473
  266MOL0     O36629   1.627   4.430   9.647 -0.9776  0.0407 -0.1959
  266MOL0     C36630   1.677   4.450   9.509 -0.5922 -0.3040  0.5299
  266MOL0     C36631   1.604   4.569   9.447  0.1953 -0.6405  0.0653
  266MOL0     C36632   1.450   4.553   9.445  0.1389 -0.2386 -0.5650
  266MOL0     C36633   1.389   4.465   9.343 -0.3383  0.7791 -0.0277
  266MOL0     C36634   1.422   4.496   9.206 -1.5079 -0.2921 -0.2976
  266MOL0     C36635   1.448   4.506   9.084 -0.1605  0.2154 -0.7780
  266MOL0     C36636   1.677   4.193   9.629  0.5286  0.5106 -1.3152
  266MOL0     C36637   1.716   4.072   9.698  0.2250  0.2353 -0.3850
  266MOL0     C36638   1.707   3.939   9.633  0.5479  0.2127  0.3681
  266MOL0     H36639   1.822   4.009  10.292 -0.4981  0.6464 -2.2531
  266MOL0     H36640   1.907   3.855  10.472 -2.5803 -0.3314 -0.8787
  266MOL0     H36641   1.984   3.489  10.397 -2.3023 -0.3461  0.1444
  266MOL0     H36642   1.908   3.604  10.507  0.9909  0.8652 -1.8007
  266MOL0     H36643   2.006   3.390  10.608  0.5668 -0.2453 -2.3122
  266MOL0     H36644   2.163   3.458  10.591 -0.0431  0.2868  2.7079
  266MOL0     H36645   2.126   3.531  10.792 -1.0719 -0.2369  0.1267
  266MOL0     H36646   2.087   3.674  10.708  3.8094 -1.4629 -0.1119
  266MOL0     H36647   1.845   3.608  10.758  0.0150 -0.9766 -1.4191
  266MOL0     H36648   1.912   3.459  10.824  0.8427  0.8126  0.9164
  266MOL0     H36649   2.002   3.733  10.914  1.6702 -0.2622  0.3670
  266MOL0     H36650   2.037   3.578  10.997 -0.7582  2.2228  4.3879
  266MOL0     H36651   1.762   3.691  10.961  1.7028 -1.5833 -3.1355
  266MOL0     H36652   1.791   3.548  11.040  1.4491  0.3263  2.4136
  266MOL0     H36653   1.937   3.677  11.206 -1.4508 -4.6797 -1.6471
  266MOL0     H36654   1.758   3.699  11.209 -1.5573  1.1627 -2.0293
  266MOL0     H36655   1.930   3.887  11.048 -2.1275  1.0184 -0.8217
  266MOL0     H36656   1.768   3.916  11.104  1.0246  3.0247  0.0500
  266MOL0     H36657   2.076   4.052  11.203 -1.3751  2.2750  0.7657
  266MOL0     H36658   2.128   4.072  11.596 -1.3545  0.2451 -0.5247
  266MOL0     H36659   2.107   4.203  11.484 -3.0042 -0.9324 -0.8460
  266MOL0     H36660   2.305   3.977  11.420  2.6928 -0.1497  1.9129
  266MOL0     H36661   2.283   4.123  11.331  1.8792  0.1707 -0.6913
  266MOL0     H36662   2.334   4.266  11.521  1.0196 -0.1187 -1.9885
  266MOL0     H36663   2.358   4.121  11.625  0.4010 -2.6430 -1.3978
  266MOL0     H36664   2.531   4.175  11.376 -2.4332 -2.1737 -0.4874
  266MOL0     H36665   2.555   4.253  11.535 -0.4652  0.6462  0.9013
  266MOL0     H36666   2.845   4.058  11.483 -0.5788 -0.0773 -0.4189
  266MOL0     H36667   3.026   4.042  11.330 -3.7747  0.1359  2.7674
  266MOL0     H36668   3.043   3.900  11.224 -1.9382 -0.6370 -2.0006
  266MOL0     H36669   3.053   3.884  11.400 -0.2799 -1.0216 -0.7748
  266MOL0     H36670   2.818   3.688  10.789  2.4577  0.9422  1.1699
  266MOL0     H36671   2.940   3.519  10.649  0.4846  2.8579  1.2600
  266MOL0     H36672   3.053   3.103  10.803 -0.1690  0.6421  0.3838
  266MOL0     H36673   2.888   3.075  10.777 -0.3462  1.6373  0.2550
  266MOL0     H36674   2.935   3.072  10.518  1.0675 -3.5898 -1.8763
  266MOL0     H36675   3.114   3.094  10.575 -0.3876  0.6662 -0.3836
  266MOL0     H36676   3.024   2.861  10.500 -0.9020 -0.1885 -1.1962
  266MOL0     H36677   2.912   2.879  10.635  0.7958 -2.9008 -0.6173
  266MOL0     H36678   3.092   2.730  10.682 -1.3645  0.2756 -2.2104
  266MOL0     H36679   3.103   2.874  10.789  0.3570 -0.6606 -0.0512
  266MOL0     H36680   3.261   2.832  10.546 -3.9858 -1.9925 -0.1344
  266MOL0     H36681   3.280   2.962  10.650 -0.4911  0.3681 -1.3421
  266MOL0     H36682   3.353   2.809  10.846 -1.7051  2.5435 -0.2577
  266MOL0     H36683   3.466   2.775  10.713  0.3979 -2.0197  2.3685
  266MOL0     H36684   3.429   2.575  10.716 -0.7837 -0.7756 -1.9311
  266MOL0     H36685   3.261   2.587  10.674 -1.6971 -1.3298  2.1419
  266MOL0     H36686   3.294   2.468  10.875 -0.2415 -0.0212  0.8828
  266MOL0     H36687   3.190   2.615  10.899  0.7727  3.1481 -0.9712
  266MOL0     H36688   2.892   3.228  10.972  1.6624 -1.7642 -3.6146
  266MOL0     H36689   2.785   3.401  11.109  0.2162  0.2573  0.7178
  266MOL0     H36690   2.603   3.712  11.221  4.0636 -3.7992  0.3357
  266MOL0     H36691   2.478   3.856  11.387 -0.1362  0.9298  0.5764
  266MOL0     H36692   2.129   3.638  10.165  1.9465  1.5642 -0.5265
  266MOL0     H36693   2.025   3.786   9.996  0.2829 -4.1068  0.7384
  266MOL0     H36694   1.763   4.225  10.007  0.4853  0.3637  0.5951
  266MOL0     H36695   1.680   4.410   9.872 -1.0164 -0.4863 -1.5805
  266MOL0     H36696   1.781   4.482   9.517 -0.0592 -1.8194 -0.0007
  266MOL0     H36697   1.681   4.368   9.436  2.0007 -0.7752  1.1198
  266MOL0     H36698   1.637   4.603   9.348 -0.5445  1.0674  0.3653
  266MOL0     H36699   1.616   4.653   9.516 -1.6276  1.2223 -1.7295
  266MOL0     H36700   1.411   4.527   9.544  2.5116  0.0486  0.5123
  266MOL0     H36701   1.412   4.656   9.437  1.7311  0.9603  3.9798
  266MOL0     H36702   1.281   4.458   9.356 -0.1155  0.6549  1.9981
  266MOL0     H36703   1.427   4.364   9.359  1.4907  1.4574  0.2230
  266MOL0     H36704   1.451   4.518   8.977 -0.5542  1.3076 -0.6717
  266MOL0     H36705   1.633   4.187   9.530 -0.2460 -0.1336 -0.9383
  266MOL0     H36706   1.784   3.869   9.665  2.8637  3.5726  2.9182
  266MOL0     H36707   1.613   3.885   9.648 -0.0938  0.4566 -2.3340
  266MOL0     H36708   1.715   3.939   9.524  2.7032 -0.6590  0.4933
  267MOL0     O36709   8.043   8.962   9.248 -0.0515 -0.7921  0.1407
  267MOL0     C36710   8.045   8.855   9.308 -0.2210  0.5331 -0.0088
  267MOL0     O36711   8.128   8.759   9.274  0.0173 -0.2366  0.0644
  267MOL0     C36712   8.248   8.796   9.216 -0.3018  0.1614  0.2099
  267MOL0     C36713   8.354   8.837   9.297  0.3771  0.6688  0.1684
  267MOL0     C36714   8.484   8.854   9.238 -0.4208  0.4711  0.1233
  267MOL0     C36715   8.504   8.834   9.102  0.7940  0.6347  0.1430
  267MOL0     O36716   8.627   8.867   9.061  0.0264 -0.0583  0.8625
  267MOL0     C36717   8.638   8.926   8.928 -0.0752  0.5230  0.2315
  267MOL0     C36718   8.779   8.953   8.881 -0.7882  0.0633  0.5491
  267MOL0     C36719   8.872   9.026   8.989 -0.4069  0.2918 -1.4832
  267MOL0     C36720   9.002   9.077   8.927 -0.2206 -0.1265 -0.5029
  267MOL0     C36721   9.081   9.177   9.023  0.0856  0.4582  0.2887
  267MOL0     C36722   9.117   9.103   9.151  1.1066  0.2804  1.1399
  267MOL0     C36723   9.211   8.980   9.135 -0.4420  0.5323 -0.5112
  267MOL0     C36724   9.243   8.906   9.265  0.4137  0.2954  0.5228
  267MOL0     N36725   9.135   8.836   9.326  0.0868  0.9555  0.0679
  267MOL0     C36726   9.058   8.734   9.272  0.0532 -0.3326 -0.2833
  267MOL0     C36727   8.937   8.739   9.323  0.3019 -0.2924 -0.4362
  267MOL0     C36728   8.821   8.651   9.299  0.3268 -0.0360  0.2141
  267MOL0     C36729   8.845   8.510   9.330 -0.9690  0.2778 -0.3699
  267MOL0     C36730   8.872   8.433   9.211  0.0931 -0.5768  0.0013
  267MOL0     C36731   8.869   8.280   9.242 -0.3732 -0.5208  1.2763
  267MOL0     O36732   8.980   8.245   9.312 -0.4558  0.5355 -0.3599
  267MOL0     C36733   8.984   8.235   9.450  0.0509  0.7195  0.8492
  267MOL0     C36734   8.891   8.159   9.531 -0.9286  1.7534 -0.1674
  267MOL0     C36735   8.891   8.174   9.667 -0.5911 -0.8592  0.2407
  267MOL0     C36736   8.794   8.087   9.741 -0.0702  0.3883 -0.4690
  267MOL0     C36737   8.991   8.254   9.731 -0.1323 -0.6456  0.0084
  267MOL0     C36738   9.004   8.281   9.878 -0.0860 -0.8950 -0.8759
  267MOL0     O36739   9.107   8.352   9.921 -0.5089  0.0992 -0.9748
  267MOL0     C36740   9.126   8.378  10.061  0.9960 -1.1168  0.6642
  267MOL0     C36741   9.259   8.358  10.109 -0.3123 -0.2319 -0.4046
  267MOL0     C36742   9.288   8.397  10.242  0.4846 -0.3250 -0.2008
  267MOL0     C36743   9.187   8.444  10.326 -0.2736 -0.1994  0.5794
  267MOL0     O36744   9.220   8.490  10.452  0.0664  1.0714 -0.5781
  267MOL0     C36745   9.134   8.449  10.557 -0.1328 -0.6176 -0.5899
  267MOL0     C36746   9.201   8.440  10.695  0.0116  0.0628 -0.2447
  267MOL0     C36747   9.282   8.310  10.693  0.1242 -0.0944 -1.1300
  267MOL0     C36748   9.312   8.270  10.839  0.5401  0.6041 -0.0855
  267MOL0     C36749   9.355   8.120  10.841 -0.0932  0.1365  0.3987
  267MOL0     C36750   9.430   8.088  10.972 -0.3071 -0.2068  0.7778
  267MOL0     C36751   9.515   7.954  10.968 -0.7270 -0.7617  0.0815
  267MOL0     C36752   9.662   7.985  10.972 -0.4557  1.5744 -0.5005
  267MOL0    Cl36753   9.758   7.841  10.928 -0.2557 -0.1576 -0.4140
  267MOL0     C36754   9.059   8.455  10.282  0.5527 -0.4812  0.4209
  267MOL0     C36755   9.029   8.424  10.150 -0.2579 -0.2428  0.1558
  267MOL0     O36756   8.925   8.223   9.955  0.8091 -0.2956 -0.1363
  267MOL0     C36757   9.082   8.321   9.646 -1.1677  0.4517 -0.5367
  267MOL0     C36758   9.086   8.303   9.510  1.0592  0.6803 -0.5524
  267MOL0     N36759   8.938   8.833   9.423 -0.1499 -0.6437 -0.1527
  267MOL0     N36760   9.051   8.896   9.417 -0.2972  0.3486  0.8189
  267MOL0     C36761   8.395   8.786   9.024  0.4782 -0.3668  0.3741
  267MOL0     C36762   8.271   8.769   9.082 -0.7087 -0.1082 -0.7965
  267MOL0     C36763   7.918   8.813   9.377 -0.5742 -0.2035 -0.8249
  267MOL0     C36764   7.864   8.684   9.347 -0.2123 -0.5018 -0.2087
  267MOL0     C36765   7.753   8.634   9.421  0.0163  0.3928  0.6467
  267MOL0     C36766   7.685   8.721   9.510 -0.5208  0.3944  0.5160
  267MOL0     O36767   7.566   8.672   9.558 -0.3530  0.1236  0.5295
  267MOL0     C36768   7.512   8.740   9.666 -0.1801 -0.5218 -0.5741
  267MOL0     C36769   7.415   8.641   9.735  0.1319 -0.0644  0.7047
  267MOL0     C36770   7.298   8.603   9.643  0.6605 -0.5563 -0.0403
  267MOL0     C36771   7.197   8.527   9.711  0.5563 -0.8693 -0.8230
  267MOL0     C36772   7.069   8.534   9.641 -0.1456 -1.2762 -0.2535
  267MOL0     C36773   6.966   8.513   9.579  0.8935 -0.1217 -0.2074
  267MOL0     C36774   7.745   8.842   9.538 -0.5537 -0.2841  0.1027
  267MOL0     C36775   7.861   8.888   9.478 -0.4493 -0.2075  0.3404
  267MOL0     C36776   7.926   9.013   9.539  0.1560  0.0481  0.2736
  267MOL0     H36777   8.340   8.855   9.403 -1.1174 -0.0707  0.1223
  267MOL0     H36778   8.563   8.909   9.288 -1.3989  4.9953 -2.6441
  267MOL0     H36779   8.581   9.020   8.923  0.9161  1.0764 -1.5657
  267MOL0     H36780   8.592   8.871   8.847  3.9643 -0.5119 -1.6232
  267MOL0     H36781   8.825   8.857   8.856  0.3998  0.2128  1.9706
  267MOL0     H36782   8.770   9.022   8.797  3.1106  0.2528  0.1020
  267MOL0     H36783   8.822   9.109   9.040 -1.9573 -0.8862 -1.0218
  267MOL0     H36784   8.893   8.954   9.069  3.0665  3.4441  0.7996
  267MOL0     H36785   9.060   8.986   8.907  0.7645  0.9360 -3.0027
  267MOL0     H36786   8.987   9.124   8.829  3.3807  0.6973 -0.8075
  267MOL0     H36787   9.014   9.259   9.048  0.3873  0.6300  0.5424
  267MOL0     H36788   9.155   9.230   8.962 -2.3316  0.0401 -3.3102
  267MOL0     H36789   9.167   9.181   9.210  0.5516 -0.2630  2.3495
  267MOL0     H36790   9.021   9.071   9.191 -0.8616 -0.2249 -3.3818
  267MOL0     H36791   9.305   9.020   9.096 -2.3091  3.9681 -1.9458
  267MOL0     H36792   9.177   8.902   9.066  0.7762 -3.4489  2.9449
  267MOL0     H36793   9.324   8.832   9.253  1.2523  0.6764  3.1658
  267MOL0     H36794   9.275   8.982   9.337  1.6616  0.2287  0.0551
  267MOL0     H36795   9.087   8.662   9.195 -1.0974 -0.7007 -0.3960
  267MOL0     H36796   8.772   8.673   9.204 -0.4583  1.6992  0.9875
  267MOL0     H36797   8.743   8.691   9.365 -0.1535 -1.1346  0.3323
  267MOL0     H36798   8.932   8.511   9.396 -1.9443  0.8919  0.9353
  267MOL0     H36799   8.771   8.460   9.393  0.5886 -1.1656  0.3912
  267MOL0     H36800   8.789   8.442   9.140  1.0326  0.6465 -0.9900
  267MOL0     H36801   8.962   8.461   9.154  1.9295  0.4176  3.1444
  267MOL0     H36802   8.776   8.253   9.295 -2.2512  3.1820  0.1810
  267MOL0     H36803   8.857   8.217   9.153  0.8196 -0.3472  0.9816
  267MOL0     H36804   8.823   8.085   9.489 -0.3879  1.3479 -0.3447
  267MOL0     H36805   8.720   8.149   9.793  0.7096  0.1609  0.9698
  267MOL0     H36806   8.845   8.030   9.820 -0.4039 -2.8441 -2.4169
  267MOL0     H36807   8.740   8.021   9.673  1.9616  0.7203 -2.5169
  267MOL0     H36808   9.338   8.321  10.044  0.1598 -0.1185  0.0913
  267MOL0     H36809   9.384   8.386  10.291 -1.1524 -1.7223  2.9167
  267MOL0     H36810   9.060   8.527  10.574  0.3983 -0.0003 -1.0713
  267MOL0     H36811   9.091   8.351  10.536  1.2882 -1.4169  0.0519
  267MOL0     H36812   9.261   8.527  10.724  0.9905 -0.1976 -1.4281
  267MOL0     H36813   9.119   8.428  10.767  0.3277  0.7310  0.2340
  267MOL0     H36814   9.373   8.339  10.639  2.0443  0.5813  2.2257
  267MOL0     H36815   9.233   8.226  10.642 -1.4260  0.6337 -0.8975
  267MOL0     H36816   9.217   8.274  10.893  0.8748  2.4809  0.4348
  267MOL0     H36817   9.385   8.335  10.887  1.5622  0.3983 -1.3140
  267MOL0     H36818   9.275   8.051  10.813 -1.3650  1.5290  0.4828
  267MOL0     H36819   9.428   8.106  10.761  0.4809  0.6091  0.8240
  267MOL0     H36820   9.357   8.076  11.052 -1.0063 -2.1421 -0.0961
  267MOL0     H36821   9.492   8.175  10.993  0.6365 -0.5845 -0.3388
  267MOL0     H36822   9.486   7.895  10.881 -0.0995 -0.1123 -0.5859
  267MOL0     H36823   9.493   7.889  11.053 -2.6666 -1.3719 -0.8220
  267MOL0     H36824   9.682   8.017  11.075 -2.5016 -0.8031  0.7412
  267MOL0     H36825   9.676   8.064  10.898 -1.3147  0.8433 -1.4563
  267MOL0     H36826   8.984   8.499  10.347 -0.0309  1.5793 -1.4934
  267MOL0     H36827   8.928   8.434  10.112  0.3815  2.8151 -1.0937
  267MOL0     H36828   9.154   8.393   9.684  0.5117 -2.8699  3.2223
  267MOL0     H36829   9.162   8.354   9.451  1.2408  2.1524  0.8820
  267MOL0     H36830   8.392   8.766   8.917 -2.1120  2.8540 -0.3159
  267MOL0     H36831   8.187   8.741   9.021 -1.1275 -1.2843  0.2769
  267MOL0     H36832   7.908   8.615   9.276  1.5695 -0.8675  1.1761
  267MOL0     H36833   7.730   8.530   9.397  2.3252 -0.6615  2.5842
  267MOL0     H36834   7.589   8.761   9.740 -1.5465  1.2304  0.4403
  267MOL0     H36835   7.457   8.827   9.627 -0.9861 -2.1672 -3.3902
  267MOL0     H36836   7.371   8.670   9.831 -2.5852  0.9270 -0.7052
  267MOL0     H36837   7.477   8.554   9.758  1.5835  1.0481  1.1415
  267MOL0     H36838   7.253   8.696   9.606 -1.0193 -0.6762  1.5056
  267MOL0     H36839   7.335   8.555   9.552 -1.5462 -1.3597 -0.5755
  267MOL0     H36840   7.174   8.570   9.809 -1.9674  1.5230 -2.3051
  267MOL0     H36841   7.232   8.425   9.727  1.0973 -0.2752  2.7886
  267MOL0     H36842   6.873   8.518   9.527  0.5008 -0.1147  0.4803
  267MOL0     H36843   7.697   8.914   9.605 -1.6175  0.1750 -1.1039
  267MOL0     H36844   7.859   9.088   9.582  1.9423  1.1747  1.2096
  267MOL0     H36845   7.982   8.978   9.626 -1.9431 -2.0956  0.8784
  267MOL0     H36846   7.993   9.062   9.468 -0.5233  0.6989  0.0699
  268MOL0     O36847   8.216   6.336   1.869 -0.7516 -0.3552  0.5750
  268MOL0     C36848   8.301   6.265   1.821  0.5378  0.1845 -1.2117
  268MOL0     O36849   8.281   6.132   1.802 -0.3593 -0.5074 -0.7458
  268MOL0     C36850   8.157   6.088   1.780 -0.0204 -0.0118  0.2887
  268MOL0     C36851   8.074   6.128   1.674 -0.2413  0.2483 -0.4215
  268MOL0     C36852   7.948   6.076   1.651 -0.1121 -0.5086 -0.1668
  268MOL0     C36853   7.902   5.973   1.738  0.4525  0.5444  0.0102
  268MOL0     O36854   7.777   5.908   1.718 -0.0942 -0.4828  0.4891
  268MOL0     C36855   7.674   5.987   1.667  0.3818 -0.0950 -0.5928
  268MOL0     C36856   7.542   5.911   1.651  0.4892 -0.4929  0.8568
  268MOL0     C36857   7.477   5.836   1.765  0.1751  0.3235  0.0461
  268MOL0     C36858   7.478   5.920   1.886  0.1298 -0.1562 -0.4084
  268MOL0     C36859   7.390   5.872   1.996 -0.0622  0.2983  1.1251
  268MOL0     C36860   7.246   5.902   1.969 -0.0271 -0.9575 -0.1366
  268MOL0     C36861   7.143   5.848   2.065  0.4070 -0.9645 -0.4439
  268MOL0     C36862   7.003   5.898   2.045 -0.6633 -0.1239 -0.6313
  268MOL0     N36863   6.936   5.860   1.926  0.0763 -0.1000  0.6142
  268MOL0     C36864   6.863   5.739   1.915 -0.6411  0.3982  0.3757
  268MOL0     C36865   6.778   5.765   1.816  0.1836 -0.6287  0.2089
  268MOL0     C36866   6.662   5.671   1.786  0.0305 -0.7711 -0.4235
  268MOL0     C36867   6.537   5.750   1.787 -0.8577  0.2366  1.0112
  268MOL0     C36868   6.401   5.671   1.792  0.3233  0.2148 -0.8976
  268MOL0     C36869   6.392   5.549   1.697  0.0218 -0.8956  0.7238
  268MOL0     O36870   6.272   5.480   1.735 -0.5891  0.7653  0.0771
  268MOL0     C36871   6.205   5.407   1.635  0.3055 -1.2360 -0.1118
  268MOL0     C36872   6.070   5.387   1.651 -0.7418  1.0518 -1.0078
  268MOL0     C36873   5.985   5.333   1.563 -0.9920  0.5801 -0.3980
  268MOL0     C36874   5.839   5.316   1.610  0.7343 -0.2521 -0.1095
  268MOL0     C36875   6.037   5.282   1.443  0.0334 -0.5741  0.2996
  268MOL0     C36876   5.953   5.220   1.325 -0.7988  0.1714  0.8269
  268MOL0     O36877   6.014   5.187   1.203 -0.3689 -0.5791 -0.4603
  268MOL0     C36878   5.940   5.120   1.102 -0.2899  0.3931 -0.6549
  268MOL0     C36879   5.863   5.013   1.129 -0.3088  1.0751 -0.0926
  268MOL0     C36880   5.795   4.945   1.023  0.7067  0.3614  0.3101
  268MOL0     C36881   5.817   4.975   0.888 -1.1009  0.8292 -0.1431
  268MOL0     O36882   5.773   4.900   0.788  0.4815 -0.4321 -0.6330
  268MOL0     C36883   5.723   4.957   0.665  0.5615 -0.6707 -1.1629
  268MOL0     C36884   5.667   4.844   0.584  0.5968  0.3153 -0.8107
  268MOL0     C36885   5.782   4.756   0.530  0.9110  0.0117 -0.2359
  268MOL0     C36886   5.734   4.627   0.453  0.8661 -0.7533  0.1250
  268MOL0     C36887   5.804   4.502   0.500  0.2748  0.6273  0.1231
  268MOL0     C36888   5.923   4.470   0.420 -0.7997  1.4845  0.2160
  268MOL0     C36889   5.997   4.356   0.499  0.2037  0.5037 -0.2957
  268MOL0     C36890   6.066   4.282   0.390 -0.2000  0.2640  0.4089
  268MOL0    Cl36891   6.142   4.147   0.472  0.0213  0.2841  0.3837
  268MOL0     C36892   5.895   5.094   0.867 -0.3197  0.3002 -0.6906
  268MOL0     C36893   5.957   5.158   0.970  0.3983 -0.8165  0.4165
  268MOL0     O36894   5.838   5.191   1.354 -0.9372 -0.1559 -0.3848
  268MOL0     C36895   6.171   5.313   1.408 -0.3513 -0.4803  1.0971
  268MOL0     C36896   6.258   5.369   1.511  0.3122  0.4130 -0.1391
  268MOL0     N36897   6.799   5.891   1.769 -0.2748 -1.4564  0.3610
  268MOL0     N36898   6.896   5.945   1.827 -0.5587  0.1003 -0.4275
  268MOL0     C36899   7.982   5.934   1.851 -0.5379  0.1272  0.1033
  268MOL0     C36900   8.106   5.993   1.864  0.2411  0.4777 -0.2659
  268MOL0     C36901   8.435   6.315   1.778 -0.7410 -1.0659  0.1911
  268MOL0     C36902   8.510   6.229   1.697  0.4720  0.5945 -0.3609
  268MOL0     C36903   8.625   6.270   1.637 -0.8726 -0.4805 -0.4133
  268MOL0     C36904   8.668   6.399   1.642  0.1870  0.2279 -0.0793
  268MOL0     O36905   8.781   6.434   1.577 -0.0649  0.3915 -0.0964
  268MOL0     C36906   8.831   6.572   1.597 -0.8866  1.0775 -0.4519
  268MOL0     C36907   8.949   6.601   1.499 -0.3182 -0.2699  0.2945
  268MOL0     C36908   9.055   6.500   1.549 -0.4024  0.0552  0.0198
  268MOL0     C36909   9.163   6.472   1.441  0.2009  0.1766  0.3195
  268MOL0     C36910   9.291   6.405   1.474 -0.4813 -0.4653  0.1177
  268MOL0     C36911   9.394   6.342   1.498  0.2552 -0.6525  0.5155
  268MOL0     C36912   8.599   6.485   1.732  0.5375  0.8712 -0.0080
  268MOL0     C36913   8.485   6.449   1.804  0.2681  0.4805  0.3608
  268MOL0     C36914   8.418   6.547   1.891 -0.4133 -0.4587 -0.2480
  268MOL0     H36915   8.107   6.211   1.611 -1.5153  1.3394  0.3120
  268MOL0     H36916   7.894   6.113   1.564 -0.5495 -2.8228 -0.9491
  268MOL0     H36917   7.701   6.022   1.567  1.1932 -0.0085 -0.3502
  268MOL0     H36918   7.666   6.073   1.734 -1.2042 -0.5375 -0.1590
  268MOL0     H36919   7.462   5.970   1.603 -1.3365 -3.6578 -0.3055
  268MOL0     H36920   7.558   5.839   1.570 -0.1004 -0.5996  0.8250
  268MOL0     H36921   7.379   5.809   1.723 -0.0456 -2.1196  1.9013
  268MOL0     H36922   7.524   5.739   1.786  0.8747  0.1594 -2.0242
  268MOL0     H36923   7.578   5.928   1.931 -0.5010  3.3525  0.6720
  268MOL0     H36924   7.449   6.022   1.859 -0.3178  0.3788  1.9130
  268MOL0     H36925   7.412   5.918   2.092  2.6889 -1.2662  1.3661
  268MOL0     H36926   7.396   5.763   2.006 -0.9250  0.3522  2.3407
  268MOL0     H36927   7.234   6.008   1.945 -0.2279 -1.1623 -0.9598
  268MOL0     H36928   7.213   5.860   1.874  1.4443 -1.5548 -0.4023
  268MOL0     H36929   7.181   5.886   2.160 -0.6202  0.2094 -0.4680
  268MOL0     H36930   7.135   5.740   2.048 -0.9114 -0.9978  0.2765
  268MOL0     H36931   6.956   5.841   2.126  0.2958 -2.6893 -1.7788
  268MOL0     H36932   6.992   6.006   2.060 -0.5905 -0.3951  1.7455
  268MOL0     H36933   6.869   5.648   1.974  2.3246  1.1540  1.3668
  268MOL0     H36934   6.661   5.597   1.866 -2.2880 -1.0496 -0.6387
  268MOL0     H36935   6.673   5.613   1.693  4.0188 -0.9433  0.0076
  268MOL0     H36936   6.534   5.819   1.871 -1.8954 -0.3641  1.4859
  268MOL0     H36937   6.546   5.813   1.698  0.8314  1.0627  1.7166
  268MOL0     H36938   6.396   5.630   1.894 -0.5348  2.7385  0.1478
  268MOL0     H36939   6.316   5.740   1.792 -0.7028 -0.5525  4.4691
  268MOL0     H36940   6.384   5.594   1.597  0.2353  0.1596  1.1765
  268MOL0     H36941   6.481   5.486   1.693  1.0667  0.5621 -0.0922
  268MOL0     H36942   6.027   5.415   1.747 -1.1396  1.7655 -1.3792
  268MOL0     H36943   5.772   5.386   1.558 -2.6333 -3.4001 -0.4502
  268MOL0     H36944   5.819   5.320   1.717  1.0325 -4.2339  0.2276
  268MOL0     H36945   5.804   5.214   1.591 -0.6330 -0.1205  1.4213
  268MOL0     H36946   5.847   4.977   1.230 -3.9503 -0.5975 -1.0812
  268MOL0     H36947   5.720   4.871   1.050 -2.3808  1.9651 -2.9195
  268MOL0     H36948   5.639   5.019   0.695  0.5920 -0.1558 -2.1198
  268MOL0     H36949   5.807   5.009   0.619  3.5940 -2.8367  1.4499
  268MOL0     H36950   5.617   4.791   0.665 -1.9913  1.9211 -1.2399
  268MOL0     H36951   5.594   4.861   0.504 -1.5004 -0.5012  0.8466
  268MOL0     H36952   5.856   4.736   0.609 -0.1303  0.1793  0.7992
  268MOL0     H36953   5.832   4.823   0.459 -0.5374 -0.9537 -2.2239
  268MOL0     H36954   5.737   4.656   0.348 -1.7375  3.0484  0.8805
  268MOL0     H36955   5.626   4.614   0.464  0.8847  0.4722  2.7819
  268MOL0     H36956   5.837   4.518   0.603 -2.2892  2.0982  0.7978
  268MOL0     H36957   5.736   4.416   0.503 -2.4569  2.6298  3.9587
  268MOL0     H36958   5.975   4.564   0.400 -0.2935  1.2031  0.1985
  268MOL0     H36959   5.902   4.430   0.320  0.2640  0.0445  0.5359
  268MOL0     H36960   5.938   4.287   0.561  0.9284 -0.0502 -0.2030
  268MOL0     H36961   6.078   4.387   0.566  1.2500 -2.4718 -0.0342
  268MOL0     H36962   6.142   4.345   0.341 -3.0570  1.7178 -2.6195
  268MOL0     H36963   6.004   4.244   0.308 -0.5376  3.4063 -0.9622
  268MOL0     H36964   5.926   5.132   0.769 -0.3652 -1.5931 -1.4760
  268MOL0     H36965   6.021   5.242   0.945  1.5857 -1.8250  0.0323
  268MOL0     H36966   6.218   5.290   1.313 -1.3623 -2.7662  1.0835
  268MOL0     H36967   6.364   5.372   1.490  0.1508  0.4857 -0.9793
  268MOL0     H36968   7.942   5.868   1.928 -0.4473  0.1671  0.1844
  268MOL0     H36969   8.178   5.962   1.940  1.5620  1.3844 -1.0964
  268MOL0     H36970   8.489   6.124   1.683  2.8982  0.0003  0.0910
  268MOL0     H36971   8.688   6.207   1.574 -0.0852 -1.8646  1.6558
  268MOL0     H36972   8.771   6.663   1.585  1.1648  2.6855  0.7194
  268MOL0     H36973   8.862   6.552   1.700  0.6066 -1.3800 -1.2916
  268MOL0     H36974   8.977   6.707   1.505 -0.8264 -0.1973  1.6707
  268MOL0     H36975   8.929   6.582   1.393  2.4535  2.8855 -0.9987
  268MOL0     H36976   9.106   6.542   1.636 -0.2928  2.1009 -0.9640
  268MOL0     H36977   9.003   6.406   1.569 -1.1381  0.4825  0.1575
  268MOL0     H36978   9.175   6.564   1.384 -2.3236 -0.1326 -0.8317
  268MOL0     H36979   9.110   6.415   1.363  1.4466  2.3823 -2.3067
  268MOL0     H36980   9.489   6.297   1.516  0.1977 -1.8769 -1.8720
  268MOL0     H36981   8.635   6.587   1.734  0.5786  1.0741 -3.7590
  268MOL0     H36982   8.479   6.638   1.887 -2.2293  0.7846 -1.5635
  268MOL0     H36983   8.321   6.579   1.850 -0.9624  2.2887  2.7596
  268MOL0     H36984   8.401   6.502   1.989 -3.6813  0.0751 -0.4527
  269MOL0     O36985   7.979   1.188   7.263  0.4235 -0.1909  0.8677
  269MOL0     C36986   8.002   1.092   7.189  0.9881  0.5968 -0.1226
  269MOL0     O36987   8.038   0.970   7.237  0.5200 -0.0104  0.3229
  269MOL0     C36988   8.076   0.940   7.370  0.6342 -0.1859  0.2116
  269MOL0     C36989   8.016   0.841   7.431  0.1673 -0.2637  1.2912
  269MOL0     C36990   8.051   0.805   7.560  0.5887 -0.5713  0.3396
  269MOL0     C36991   8.137   0.882   7.646 -0.6028 -0.4522  0.7913
  269MOL0     O36992   8.183   0.842   7.768 -0.4134  0.0035  0.0638
  269MOL0     C36993   8.177   0.705   7.801 -0.1003  0.8408  0.5181
  269MOL0     C36994   8.200   0.673   7.949 -0.0644  0.0316  1.1178
  269MOL0     C36995   8.060   0.650   8.012  0.1713 -0.9515  0.8839
  269MOL0     C36996   7.957   0.764   8.000  0.5230  0.7807 -0.0443
  269MOL0     C36997   7.835   0.747   8.100 -0.2827  0.4154 -0.6404
  269MOL0     C36998   7.738   0.858   8.125  0.0103 -1.4821 -0.2043
  269MOL0     C36999   7.691   0.934   8.000  0.2268 -0.1300  0.6849
  269MOL0     C37000   7.571   0.866   7.918 -0.4213 -0.9536 -0.6697
  269MOL0     N37001   7.442   0.913   7.969  0.6531  0.8129  0.5424
  269MOL0     C37002   7.401   1.048   7.967  1.2784  0.6253 -0.0278
  269MOL0     C37003   7.280   1.044   8.025  0.7640 -0.9576 -0.7499
  269MOL0     C37004   7.178   1.159   8.025 -0.0273 -1.1138 -0.3492
  269MOL0     C37005   7.088   1.182   8.150 -0.0443 -0.5137  0.2770
  269MOL0     C37006   7.154   1.233   8.271  0.1291  0.4973  0.4076
  269MOL0     C37007   7.066   1.311   8.366 -0.1772 -0.2490  0.3373
  269MOL0     O37008   7.016   1.432   8.305 -0.2185  0.3762 -0.2896
  269MOL0     C37009   7.089   1.548   8.316 -0.1871 -0.0213  0.3172
  269MOL0     C37010   7.226   1.561   8.344  0.5759 -0.6629 -0.0046
  269MOL0     C37011   7.298   1.679   8.341 -0.5268  0.4100  0.4827
  269MOL0     C37012   7.441   1.676   8.392 -1.3189 -0.6570 -0.2574
  269MOL0     C37013   7.238   1.790   8.283 -1.0651  0.0129 -0.6250
  269MOL0     C37014   7.301   1.915   8.261 -0.3788  0.0615  0.3693
  269MOL0     O37015   7.333   1.989   8.376  1.4498 -0.3882 -0.4102
  269MOL0     C37016   7.351   2.128   8.359  0.0737 -0.1996 -0.1557
  269MOL0     C37017   7.266   2.220   8.293  0.2857 -0.4082  0.4250
  269MOL0     C37018   7.300   2.352   8.284  0.5171 -0.0230 -0.5638
  269MOL0     C37019   7.415   2.407   8.347  0.0237  0.0027 -0.4294
  269MOL0     O37020   7.461   2.532   8.336 -0.4180 -0.6745 -0.0649
  269MOL0     C37021   7.519   2.564   8.206  0.0404 -0.1041  0.1050
  269MOL0     C37022   7.552   2.712   8.203 -0.2594  0.1416 -0.1913
  269MOL0     C37023   7.424   2.792   8.185  0.4462  0.9397  0.0231
  269MOL0     C37024   7.450   2.935   8.137 -0.1809 -0.7821  0.9098
  269MOL0     C37025   7.329   2.995   8.067  0.4788 -0.4978  0.3326
  269MOL0     C37026   7.352   3.116   7.979 -0.2220 -0.5385 -0.3696
  269MOL0     C37027   7.406   3.076   7.836 -0.3819  0.0324 -0.5145
  269MOL0     C37028   7.409   3.193   7.735  0.1544  0.4655 -0.0332
  269MOL0    Cl37029   7.238   3.219   7.689 -0.7062  0.0679  0.2229
  269MOL0     C37030   7.494   2.322   8.428  0.1170 -0.2833  0.1289
  269MOL0     C37031   7.456   2.186   8.438  0.7680 -0.3019 -0.2440
  269MOL0     O37032   7.301   1.960   8.141  0.0764  1.0711 -0.4060
  269MOL0     C37033   7.099   1.777   8.246  0.4353 -0.5740  0.3252
  269MOL0     C37034   7.031   1.662   8.272  0.6716 -0.7590 -0.4873
  269MOL0     N37035   7.244   0.913   8.049  0.3239 -0.9442 -0.2770
  269MOL0     N37036   7.343   0.834   8.022 -0.0356  1.2134  0.1739
  269MOL0     C37037   8.195   0.998   7.579  1.5688 -0.2547 -0.6084
  269MOL0     C37038   8.167   1.027   7.441  0.1266  0.3575  0.7589
  269MOL0     C37039   7.986   1.116   7.046  0.4021  0.0161 -0.5795
  269MOL0     C37040   8.031   1.011   6.967  0.5449 -0.5575  0.7410
  269MOL0     C37041   8.011   1.004   6.824  0.6883 -0.3668 -0.2512
  269MOL0     C37042   7.965   1.113   6.759 -0.0677 -0.2513  0.8835
  269MOL0     O37043   7.957   1.117   6.624 -0.3776  0.0801 -0.1206
  269MOL0     C37044   7.976   1.235   6.553  0.2420 -0.3292  0.3417
  269MOL0     C37045   8.118   1.302   6.552 -0.4661 -0.0042  0.0720
  269MOL0     C37046   8.217   1.219   6.468  0.5573  0.4362  0.2448
  269MOL0     C37047   8.350   1.270   6.513 -0.0949 -0.2581 -0.4663
  269MOL0     C37048   8.444   1.220   6.410 -0.0823  0.1569  1.2777
  269MOL0     C37049   8.526   1.208   6.319  0.2775  0.3828  0.0315
  269MOL0     C37050   7.930   1.223   6.835  0.9716 -0.2484 -0.4337
  269MOL0     C37051   7.935   1.230   6.979  0.1972  1.3045  0.3741
  269MOL0     C37052   7.885   1.361   7.033 -0.3575 -0.7899 -0.5671
  269MOL0     H37053   7.945   0.788   7.369  1.1438 -1.8140  1.4523
  269MOL0     H37054   7.987   0.726   7.597  0.9898 -1.1101 -0.1113
  269MOL0     H37055   8.258   0.662   7.742  0.6132  2.3529  0.3285
  269MOL0     H37056   8.085   0.661   7.765 -0.7837  2.8724 -0.3679
  269MOL0     H37057   8.244   0.573   7.955 -0.2693 -0.0929  0.6175
  269MOL0     H37058   8.269   0.747   7.992  1.9056 -0.3854 -1.0963
  269MOL0     H37059   8.017   0.559   7.970  0.5228  0.5024 -2.9954
  269MOL0     H37060   8.078   0.635   8.119 -0.9357  2.2319  1.6408
  269MOL0     H37061   8.002   0.859   8.029 -2.0588  1.7791  0.9660
  269MOL0     H37062   7.919   0.770   7.897  1.8139 -0.0001 -0.5957
  269MOL0     H37063   7.878   0.717   8.196  0.5191  0.8984 -0.8364
  269MOL0     H37064   7.775   0.664   8.062  0.2770 -0.3834  0.1680
  269MOL0     H37065   7.665   0.812   8.193  0.3256 -2.0954 -0.2801
  269MOL0     H37066   7.793   0.933   8.182  0.5351 -1.5616 -0.6020
  269MOL0     H37067   7.777   0.956   7.936 -0.2313  2.9029  0.9728
  269MOL0     H37068   7.651   1.029   8.037  2.5919  0.9016  0.8135
  269MOL0     H37069   7.575   0.885   7.811  0.2809 -0.6671 -0.6008
  269MOL0     H37070   7.577   0.756   7.922  0.3084 -0.8965  0.8315
  269MOL0     H37071   7.446   1.141   7.934  0.7516  1.2715  1.0207
  269MOL0     H37072   7.112   1.146   7.938 -0.1358  2.7217 -0.9987
  269MOL0     H37073   7.226   1.256   8.010  0.1774 -1.0846  0.4897
  269MOL0     H37074   7.011   1.252   8.120  1.3421  0.2367 -1.7708
  269MOL0     H37075   7.036   1.088   8.170 -1.2421 -0.2273 -1.3209
  269MOL0     H37076   7.173   1.140   8.326 -0.4897  1.0175  1.5489
  269MOL0     H37077   7.247   1.287   8.253  0.0100  0.4602 -0.3221
  269MOL0     H37078   6.977   1.248   8.377  0.6126 -1.7639 -1.3913
  269MOL0     H37079   7.122   1.322   8.459  0.7293 -0.1930 -0.2056
  269MOL0     H37080   7.277   1.475   8.385 -1.3064 -1.3036  1.1468
  269MOL0     H37081   7.484   1.576   8.390 -0.2137 -0.2506  1.4418
  269MOL0     H37082   7.448   1.704   8.498 -1.5538 -3.2531  0.5188
  269MOL0     H37083   7.496   1.743   8.325  0.4842 -2.2229 -0.4207
  269MOL0     H37084   7.186   2.174   8.236 -1.1305  0.5897  1.5169
  269MOL0     H37085   7.236   2.422   8.232  0.7364  1.4004  0.9988
  269MOL0     H37086   7.616   2.514   8.210  1.3984  2.3490  0.0237
  269MOL0     H37087   7.448   2.527   8.131 -1.4227 -2.2015  2.3677
  269MOL0     H37088   7.602   2.743   8.295 -1.8150 -1.0533  1.1071
  269MOL0     H37089   7.624   2.738   8.125  2.9591 -1.4437  1.9858
  269MOL0     H37090   7.352   2.787   8.267 -4.7784 -2.0870 -4.1166
  269MOL0     H37091   7.363   2.741   8.110 -2.9321 -2.3381  4.4516
  269MOL0     H37092   7.522   2.927   8.055  2.2924  0.1334  2.8571
  269MOL0     H37093   7.481   3.011   8.210  0.6727  0.3351 -0.5638
  269MOL0     H37094   7.275   2.920   8.009  0.3336 -2.7951  3.1651
  269MOL0     H37095   7.256   3.018   8.146 -0.8372 -0.9104 -0.7193
  269MOL0     H37096   7.421   3.184   8.030 -2.6230  2.4857 -0.8045
  269MOL0     H37097   7.252   3.160   7.968 -0.7208 -1.7077 -0.6296
  269MOL0     H37098   7.347   3.001   7.782  0.8850 -0.7594 -0.8473
  269MOL0     H37099   7.503   3.028   7.848 -1.2670 -1.6688  0.3004
  269MOL0     H37100   7.463   3.155   7.648 -0.5021 -1.6433  0.4283
  269MOL0     H37101   7.450   3.285   7.777 -3.2491  2.0668  0.1274
  269MOL0     H37102   7.581   2.358   8.483  1.5584 -0.0305 -2.1522
  269MOL0     H37103   7.513   2.114   8.495 -0.3541 -2.8474 -2.1713
  269MOL0     H37104   7.040   1.863   8.216  0.4471  0.5341  3.1230
  269MOL0     H37105   6.926   1.663   8.246  0.5948 -0.3552 -0.1814
  269MOL0     H37106   8.263   1.054   7.643  1.0402 -1.8201  1.4411
  269MOL0     H37107   8.203   1.106   7.376 -2.5753  0.7249 -0.4294
  269MOL0     H37108   8.081   0.924   7.007 -2.2205 -1.2000  3.2247
  269MOL0     H37109   8.047   0.920   6.767  2.1843 -0.4467  0.7519
  269MOL0     H37110   7.936   1.211   6.454 -0.5421  1.9887  0.0390
  269MOL0     H37111   7.904   1.314   6.578 -2.3676 -1.5426 -2.6365
  269MOL0     H37112   8.159   1.314   6.653 -5.9528  3.5109  2.3560
  269MOL0     H37113   8.105   1.404   6.514 -1.0578  0.5123  1.5846
  269MOL0     H37114   8.200   1.112   6.482  2.0381  0.5107  3.7577
  269MOL0     H37115   8.192   1.252   6.367  1.6962  3.2742  0.7812
  269MOL0     H37116   8.381   1.225   6.608  0.0880  0.6503 -0.0844
  269MOL0     H37117   8.353   1.379   6.515 -0.6644 -0.1711 -2.4820
  269MOL0     H37118   8.599   1.215   6.241 -0.7549  1.5416 -0.8683
  269MOL0     H37119   7.891   1.310   6.783 -2.5190 -1.5421 -0.2020
  269MOL0     H37120   7.813   1.404   6.963 -2.3469 -1.7660  0.7750
  269MOL0     H37121   7.830   1.338   7.125  0.2312 -3.2691 -0.7658
  269MOL0     H37122   7.963   1.437   7.038 -0.4866 -0.7287  2.5847
  270MOL0     O37123   5.028   9.540   2.348 -0.3585  0.3756  0.0328
  270MOL0     C37124   4.988   9.537   2.463  0.4463 -0.0143 -0.7201
  270MOL0     O37125   4.882   9.465   2.518 -0.7844 -0.4957  0.2105
  270MOL0     C37126   4.812   9.389   2.424 -0.4567  0.2176 -0.9361
  270MOL0     C37127   4.715   9.464   2.357 -0.0139 -0.0015 -0.7869
  270MOL0     C37128   4.658   9.422   2.234  0.6588  0.0394  0.1461
  270MOL0     C37129   4.679   9.292   2.190 -0.0424 -0.0467  0.6305
  270MOL0     O37130   4.607   9.258   2.079 -0.1331 -0.6394  0.2290
  270MOL0     C37131   4.611   9.114   2.042  0.0054 -1.0232  0.2131
  270MOL0     C37132   4.507   9.071   1.932  0.0162 -0.5598  0.9450
  270MOL0     C37133   4.362   9.088   1.987 -0.1720  0.1584 -0.2894
  270MOL0     C37134   4.268   9.196   1.925  0.6300  0.0757 -0.5085
  270MOL0     C37135   4.122   9.158   1.951  0.3344  0.8180  0.3313
  270MOL0     C37136   4.088   9.195   2.102  0.6700  0.2316 -0.3890
  270MOL0     C37137   3.935   9.218   2.111 -0.6672 -1.1734 -0.1350
  270MOL0     C37138   3.881   9.265   2.245  0.1781  0.7135  0.2527
  270MOL0     N37139   3.747   9.211   2.256  0.2829 -0.0978  0.2423
  270MOL0     C37140   3.691   9.128   2.354 -0.3479 -0.4073 -0.1005
  270MOL0     C37141   3.566   9.107   2.305  0.3367 -1.1867 -0.3434
  270MOL0     C37142   3.463   9.049   2.397  0.4057  0.4434 -0.2132
  270MOL0     C37143   3.323   9.119   2.384  0.7177  0.4454  0.4974
  270MOL0     C37144   3.304   9.248   2.463  0.3408 -0.2585  0.0964
  270MOL0     C37145   3.406   9.362   2.428 -0.2147 -0.4529 -0.9958
  270MOL0     O37146   3.361   9.485   2.484  1.1807 -0.6930  0.7809
  270MOL0     C37147   3.404   9.506   2.609 -0.0003  0.4514  0.0269
  270MOL0     C37148   3.321   9.497   2.717  0.1288 -1.3837  0.3760
  270MOL0     C37149   3.366   9.503   2.852 -0.3719 -0.3745  0.6473
  270MOL0     C37150   3.258   9.501   2.951  0.7117 -0.2025  0.3796
  270MOL0     C37151   3.502   9.537   2.873  0.7335 -0.4180 -0.6903
  270MOL0     C37152   3.567   9.542   3.015 -0.2103 -0.3129 -0.4909
  270MOL0     O37153   3.495   9.481   3.122  0.2362 -0.3420 -1.0336
  270MOL0     C37154   3.561   9.503   3.243  1.0449 -0.2821 -1.0920
  270MOL0     C37155   3.649   9.402   3.288  0.2553 -0.2300  0.2448
  270MOL0     C37156   3.732   9.428   3.403 -0.1951 -0.6092  0.3459
  270MOL0     C37157   3.730   9.550   3.463 -0.1361 -0.0560  0.4901
  270MOL0     O37158   3.801   9.570   3.573  0.4611  0.5449  0.4607
  270MOL0     C37159   3.770   9.677   3.658  0.8702 -0.3707  0.5023
  270MOL0     C37160   3.868   9.660   3.770 -0.2409 -0.3340  0.4539
  270MOL0     C37161   3.843   9.760   3.877 -0.8906  0.2356 -0.1491
  270MOL0     C37162   3.925   9.743   4.002  0.0498 -0.5758 -0.9556
  270MOL0     C37163   4.053   9.823   3.982 -0.8582 -0.0718  0.3851
  270MOL0     C37164   4.156   9.799   4.097  0.6285  0.0597  0.7268
  270MOL0     C37165   4.201   9.654   4.132 -0.0616  0.8048 -0.3291
  270MOL0     C37166   4.327   9.643   4.219 -0.8569  0.4801 -0.2400
  270MOL0    Cl37167   4.474   9.707   4.138 -0.0060 -0.1722 -0.2630
  270MOL0     C37168   3.632   9.639   3.427 -0.0982  0.5014 -0.0141
  270MOL0     C37169   3.544   9.611   3.323 -0.4799 -0.0311  0.3986
  270MOL0     O37170   3.684   9.589   3.021  0.1048  0.0680 -0.4436
  270MOL0     C37171   3.584   9.558   2.766 -0.2524 -0.7821 -0.7432
  270MOL0     C37172   3.538   9.543   2.636  0.4039 -0.0903 -0.4583
  270MOL0     N37173   3.552   9.160   2.178  0.3346 -0.8740 -0.3683
  270MOL0     N37174   3.662   9.217   2.152  0.0327  0.6771 -0.6329
  270MOL0     C37175   4.768   9.216   2.263  0.2845  0.3831 -0.0221
  270MOL0     C37176   4.829   9.258   2.379 -0.8437 -0.3348 -0.2780
  270MOL0     C37177   5.038   9.652   2.537 -0.1371 -0.1656 -0.0454
  270MOL0     C37178   4.951   9.717   2.630  0.2284  0.0959  0.5392
  270MOL0     C37179   5.001   9.825   2.701 -0.5233  0.7881 -0.0354
  270MOL0     C37180   5.129   9.875   2.672  0.1706  0.5219  0.0043
  270MOL0     O37181   5.177   9.970   2.756  0.3316  0.2805 -0.1356
  270MOL0     C37182   5.314  10.013   2.752 -0.6700 -0.0308  0.2180
  270MOL0     C37183   5.412   9.899   2.806  0.1432 -0.6974 -1.3178
  270MOL0     C37184   5.417   9.925   2.969  0.0010  0.3198  0.5869
  270MOL0     C37185   5.464   9.792   3.036 -0.4493 -0.3664 -0.3790
  270MOL0     C37186   5.595   9.750   2.992 -0.0243  0.6186 -0.0063
  270MOL0     C37187   5.700   9.693   2.956 -0.4808 -0.4014 -0.1024
  270MOL0     C37188   5.205   9.815   2.577 -0.5232  1.2771 -0.3161
  270MOL0     C37189   5.170   9.690   2.522  0.1992 -1.2128  0.1086
  270MOL0     C37190   5.279   9.628   2.444 -0.1801  0.3010 -0.5141
  270MOL0     H37191   4.712   9.571   2.375 -1.0015 -0.2890  1.0107
  270MOL0     H37192   4.602   9.491   2.170  2.6355  1.0183 -0.6023
  270MOL0     H37193   4.590   9.044   2.123  1.2685 -1.6979 -0.0140
  270MOL0     H37194   4.712   9.100   2.002 -0.2820  0.6022 -1.2030
  270MOL0     H37195   4.535   9.129   1.844  1.5290  0.2504  1.9088
  270MOL0     H37196   4.525   8.966   1.907 -1.3913 -0.3610 -1.1729
  270MOL0     H37197   4.325   8.985   1.980  2.9203 -1.0925  0.0756
  270MOL0     H37198   4.369   9.117   2.092 -0.5585  0.6389 -0.3918
  270MOL0     H37199   4.286   9.302   1.947  0.4745 -0.0430  0.2066
  270MOL0     H37200   4.276   9.203   1.816  0.7635  3.4919 -0.3869
  270MOL0     H37201   4.101   9.052   1.937  4.6892 -0.4692  1.7048
  270MOL0     H37202   4.070   9.216   1.875  1.0654 -0.9098 -1.5859
  270MOL0     H37203   4.118   9.107   2.160  0.6045  1.9991  2.5624
  270MOL0     H37204   4.146   9.274   2.152  1.7376 -1.4066  1.0872
  270MOL0     H37205   3.891   9.125   2.074  2.2297 -2.4125 -0.7293
  270MOL0     H37206   3.911   9.297   2.039  4.4503  0.7869 -0.1116
  270MOL0     H37207   3.956   9.225   2.314  0.3207  0.1421 -0.2295
  270MOL0     H37208   3.877   9.374   2.259  0.0628  1.1272 -2.4436
  270MOL0     H37209   3.737   9.096   2.447  1.4821 -2.9441 -1.7475
  270MOL0     H37210   3.500   9.059   2.500 -1.9171  2.5603  0.5006
  270MOL0     H37211   3.455   8.944   2.366 -0.8810  0.6217 -0.5330
  270MOL0     H37212   3.293   9.133   2.280  0.0828 -1.5062  0.3866
  270MOL0     H37213   3.256   9.043   2.425 -0.4001  0.7199 -0.7459
  270MOL0     H37214   3.204   9.285   2.439  0.3602 -1.1041 -1.4105
  270MOL0     H37215   3.312   9.235   2.572 -1.6036  1.0658  0.4484
  270MOL0     H37216   3.502   9.331   2.471 -1.1091  0.6317  2.0344
  270MOL0     H37217   3.424   9.369   2.321 -0.7915 -0.5903 -1.1036
  270MOL0     H37218   3.216   9.476   2.699  0.5255 -2.7544 -0.5071
  270MOL0     H37219   3.249   9.397   2.984 -0.6047  0.4506  2.2539
  270MOL0     H37220   3.157   9.531   2.923 -0.0204 -1.8152  1.1495
  270MOL0     H37221   3.281   9.564   3.036  1.1757  0.8188 -0.4790
  270MOL0     H37222   3.643   9.306   3.237 -2.0637  0.1069 -0.2419
  270MOL0     H37223   3.810   9.354   3.417  0.5204 -0.6230 -2.8251
  270MOL0     H37224   3.786   9.774   3.611 -1.9096  0.5701  1.3319
  270MOL0     H37225   3.666   9.676   3.693  0.5756  1.1479 -0.2499
  270MOL0     H37226   3.853   9.559   3.808 -1.0281 -2.4679 -4.6696
  270MOL0     H37227   3.972   9.676   3.739 -0.7243  1.6650 -0.3509
  270MOL0     H37228   3.741   9.744   3.911 -1.0813  1.5951 -0.0445
  270MOL0     H37229   3.851   9.862   3.838  3.3714  1.9546  4.1847
  270MOL0     H37230   3.947   9.638   4.023  4.1571  0.2923  0.0170
  270MOL0     H37231   3.874   9.780   4.092  0.1843 -1.2252 -0.6084
  270MOL0     H37232   4.097   9.770   3.898 -3.1414  1.6654 -2.0874
  270MOL0     H37233   4.058   9.929   3.954  1.8404 -1.0454 -3.6937
  270MOL0     H37234   4.103   9.846   4.181 -0.9908  0.1224 -0.2968
  270MOL0     H37235   4.246   9.860   4.082  1.6233 -1.9502 -2.4470
  270MOL0     H37236   4.220   9.608   4.035 -0.7262 -0.9304  0.3183
  270MOL0     H37237   4.119   9.595   4.174 -0.0139 -0.6042 -2.1033
  270MOL0     H37238   4.360   9.544   4.251 -0.1541  0.7187 -0.1921
  270MOL0     H37239   4.308   9.711   4.303  1.8395  0.9646  0.0845
  270MOL0     H37240   3.607   9.730   3.480  0.5521  0.0202  1.1435
  270MOL0     H37241   3.471   9.688   3.299 -1.3119 -0.5946  1.0788
  270MOL0     H37242   3.691   9.572   2.773 -0.0219 -1.1773 -2.8069
  270MOL0     H37243   3.611   9.546   2.555  0.4368  0.5722 -0.4095
  270MOL0     H37244   4.803   9.118   2.235  3.3835  0.8442  1.7653
  270MOL0     H37245   4.907   9.207   2.435 -0.9913  0.2731  0.5022
  270MOL0     H37246   4.853   9.684   2.664  0.5354 -0.9603  0.4604
  270MOL0     H37247   4.935   9.876   2.770 -0.1630  0.3116  0.6794
  270MOL0     H37248   5.341  10.049   2.652  0.6562  1.4397  1.0645
  270MOL0     H37249   5.319  10.103   2.813 -1.2785 -1.0170  1.7754
  270MOL0     H37250   5.512   9.895   2.763 -0.8104 -2.1936 -3.6328
  270MOL0     H37251   5.369   9.803   2.776 -1.1076 -0.8358  0.7465
  270MOL0     H37252   5.493  10.001   2.990  0.0536  0.2920  0.5016
  270MOL0     H37253   5.324   9.970   3.004 -0.4629 -0.6095  0.5641
  270MOL0     H37254   5.396   9.705   3.039  0.8816 -1.4265  0.9614
  270MOL0     H37255   5.459   9.818   3.143  0.4711 -1.6535  0.0067
  270MOL0     H37256   5.785   9.635   2.926 -0.6414 -1.1796  0.9170
  270MOL0     H37257   5.300   9.861   2.552  0.6621 -0.6814  0.3292
  270MOL0     H37258   5.263   9.520   2.440 -1.1337  0.3816  0.5490
  270MOL0     H37259   5.279   9.659   2.339 -2.3186 -0.4342 -0.7919
  270MOL0     H37260   5.380   9.647   2.481  0.1463  2.1481 -2.1731
  271MOL0     O37261   8.468   9.447  11.001  0.5908 -0.0459  1.1159
  271MOL0     C37262   8.504   9.344  10.947  0.1708 -0.4289  0.2134
  271MOL0     O37263   8.513   9.218  11.005 -0.2798 -0.1123 -0.0300
  271MOL0     C37264   8.482   9.214  11.141  0.0569 -0.0982 -0.0478
  271MOL0     C37265   8.357   9.182  11.193 -0.8788 -0.2792 -0.8907
  271MOL0     C37266   8.352   9.179  11.336  1.2498  0.6953  0.8626
  271MOL0     C37267   8.445   9.232  11.425 -0.3509  0.2244  0.3998
  271MOL0     O37268   8.433   9.216  11.556 -0.9193 -0.5039 -0.5403
  271MOL0     C37269   8.499   9.310  11.641  0.6588  0.2342  0.6178
  271MOL0     C37270   8.446   9.310  11.788 -0.7822 -0.2086 -0.4907
  271MOL0     C37271   8.512   9.432  11.854 -0.3058  0.4621  0.6951
  271MOL0     C37272   8.458   9.452  11.996 -0.6115 -0.7189 -0.0324
  271MOL0     C37273   8.529   9.574  12.062  0.0279 -0.2802  0.3345
  271MOL0     C37274   8.467   9.644  12.181 -1.1491 -0.1035 -0.3235
  271MOL0     C37275   8.443   9.540  12.292 -0.1574 -0.3671 -0.7231
  271MOL0     C37276   8.570   9.506  12.383  0.1870  0.5964 -0.5935
  271MOL0     N37277   8.555   9.581  12.508 -0.3978  0.7607  0.5495
  271MOL0     C37278   8.584   9.713  12.517 -1.1385  0.8710  0.7786
  271MOL0     C37279   8.558   9.749  12.648  0.0207 -0.3070 -0.1595
  271MOL0     C37280   8.570   9.881  12.715 -0.9663  0.2912  0.9001
  271MOL0     C37281   8.436   9.916  12.775  1.2612  0.1923  0.6642
  271MOL0     C37282   8.325   9.981  12.682 -0.3719 -0.9317 -0.2527
  271MOL0     C37283   8.376  10.097  12.607 -0.0712  0.3966  0.1685
  271MOL0     O37284   8.251  10.148  12.559 -0.2373 -0.3625  0.3182
  271MOL0     C37285   8.257  10.280  12.523  0.1387  0.4609 -0.3794
  271MOL0     C37286   8.372  10.361  12.509  0.8139 -1.0340 -0.2538
  271MOL0     C37287   8.357  10.494  12.489  0.4804  0.0941 -0.1348
  271MOL0     C37288   8.487  10.566  12.467  0.2272 -0.0208  0.0607
  271MOL0     C37289   8.230  10.552  12.460  0.1288 -0.5007 -0.6166
  271MOL0     C37290   8.226  10.690  12.433  0.1519  0.4241 -0.6148
  271MOL0     O37291   8.156  10.733  12.333 -0.7781  0.1222 -0.5511
  271MOL0     C37292   8.113  10.861  12.317 -0.5922 -0.2915  0.2565
  271MOL0     C37293   8.135  10.927  12.190  0.6818  0.0845 -0.4707
  271MOL0     C37294   8.079  11.058  12.168  0.4405 -0.2491 -0.3046
  271MOL0     C37295   8.006  11.125  12.270 -0.9049  0.3741 -1.8231
  271MOL0     O37296   7.944  11.251  12.245 -0.6100  0.1697  0.1194
  271MOL0     C37297   7.911  11.335  12.355 -0.6104 -0.8821  0.3186
  271MOL0     C37298   7.931  11.478  12.302 -0.3948 -0.2216  0.2338
  271MOL0     C37299   7.845  11.524  12.182 -0.0622 -0.0780 -0.0011
  271MOL0     C37300   7.889  11.666  12.149 -0.5144 -0.4946 -0.4729
  271MOL0     C37301   7.826  11.708  12.013  0.2586 -0.0221  0.7070
  271MOL0     C37302   7.678  11.740  12.008  0.0430 -0.3105 -0.5054
  271MOL0     C37303   7.628  11.720  11.867  0.4867 -0.1478  0.5709
  271MOL0     C37304   7.708  11.805  11.772  0.3493 -0.2799  0.1397
  271MOL0    Cl37305   7.736  11.975  11.838 -0.4867 -0.1180 -0.2481
  271MOL0     C37306   7.986  11.064  12.396 -0.7832  0.2391 -0.0156
  271MOL0     C37307   8.045  10.933  12.421 -1.0063  0.3394  0.2441
  271MOL0     O37308   8.282  10.763  12.505 -0.5020 -0.1653 -0.5274
  271MOL0     C37309   8.118  10.467  12.466 -1.0306 -0.4981 -0.4284
  271MOL0     C37310   8.133  10.331  12.499 -0.6404 -0.6022  0.1200
  271MOL0     N37311   8.509   9.635  12.708  0.4805 -0.1934 -0.4494
  271MOL0     N37312   8.513   9.529  12.633 -0.8752 -0.3117 -0.5809
  271MOL0     C37313   8.562   9.287  11.363  0.4794 -0.1298  0.2015
  271MOL0     C37314   8.581   9.266  11.227 -0.3291 -0.4540  0.2499
  271MOL0     C37315   8.564   9.360  10.812  0.4721  0.1353 -0.3925
  271MOL0     C37316   8.669   9.271  10.778  0.5956  0.1932 -0.0700
  271MOL0     C37317   8.720   9.271  10.646  0.0796  1.3208 -0.0593
  271MOL0     C37318   8.663   9.350  10.550 -0.6958  0.0938  1.1600
  271MOL0     O37319   8.705   9.310  10.415 -0.0899 -0.0653 -0.6858
  271MOL0     C37320   8.682   9.395  10.301 -0.3400  0.0701 -0.9669
  271MOL0     C37321   8.777   9.515  10.293  1.0393 -0.2484  0.6847
  271MOL0     C37322   8.694   9.637  10.273 -0.2322 -0.5302  0.5668
  271MOL0     C37323   8.781   9.752  10.258 -0.4727 -0.4065 -0.0067
  271MOL0     C37324   8.689   9.876  10.277 -0.1438 -0.0158  0.5341
  271MOL0     C37325   8.611   9.969  10.303 -0.8431  0.4472  0.1712
  271MOL0     C37326   8.567   9.447  10.588 -0.7219  0.3131  0.7758
  271MOL0     C37327   8.526   9.456  10.717 -0.2537 -0.2062  0.9682
  271MOL0     C37328   8.432   9.577  10.744  0.1803  0.7743  0.5653
  271MOL0     H37329   8.285   9.159  11.116  0.1363  0.7806 -2.1982
  271MOL0     H37330   8.262   9.142  11.384  4.5139 -3.6437  4.5368
  271MOL0     H37331   8.486   9.413  11.606  2.8955  0.3477  0.0041
  271MOL0     H37332   8.604   9.284  11.655  0.6643  0.9472  2.1140
  271MOL0     H37333   8.339   9.331  11.780 -0.6446  2.2985  2.4053
  271MOL0     H37334   8.464   9.213  11.834  0.4345 -0.5582 -1.6367
  271MOL0     H37335   8.621   9.427  11.862 -0.3565 -0.1225  1.1488
  271MOL0     H37336   8.497   9.521  11.793  0.9652 -0.1314 -0.5214
  271MOL0     H37337   8.350   9.466  11.999 -0.3473  1.6826  0.1991
  271MOL0     H37338   8.491   9.359  12.043  0.3737 -1.1878 -1.6006
  271MOL0     H37339   8.530   9.651  11.985  1.2841  1.5389  2.0625
  271MOL0     H37340   8.633   9.546  12.082 -0.4383 -1.3617  1.3772
  271MOL0     H37341   8.528   9.724  12.222  0.0112 -0.2399 -1.6992
  271MOL0     H37342   8.369   9.686  12.157 -2.5726 -1.0881  3.0578
  271MOL0     H37343   8.399   9.448  12.253  0.5264 -2.3059  2.7009
  271MOL0     H37344   8.375   9.589  12.362  0.6309 -2.2798  1.5254
  271MOL0     H37345   8.574   9.401  12.414  0.7068  0.4122 -1.2630
  271MOL0     H37346   8.663   9.530  12.331  2.8296 -2.0053  2.5088
  271MOL0     H37347   8.627   9.771  12.437  1.5450  0.7235  2.0107
  271MOL0     H37348   8.598   9.958  12.643 -5.1770 -1.3537 -2.9887
  271MOL0     H37349   8.644   9.861  12.794 -0.7893 -1.1382  0.4029
  271MOL0     H37350   8.384   9.836  12.827  0.1456  1.1152  1.0041
  271MOL0     H37351   8.457   9.983  12.859  1.0626  1.2832 -0.1249
  271MOL0     H37352   8.280   9.910  12.612 -2.9204  0.0756  0.2673
  271MOL0     H37353   8.244  10.007  12.750  1.0423  0.8355  0.8484
  271MOL0     H37354   8.439  10.163  12.668 -1.1918  0.0254  1.8195
  271MOL0     H37355   8.441  10.056  12.530 -1.3110 -0.1432 -0.6260
  271MOL0     H37356   8.473  10.325  12.520  1.9606  0.9251 -3.2700
  271MOL0     H37357   8.477  10.653  12.402  0.2171  1.3084  1.7696
  271MOL0     H37358   8.558  10.502  12.413  0.1722 -1.2068  1.3287
  271MOL0     H37359   8.530  10.611  12.557  0.0487  0.8549 -0.2861
  271MOL0     H37360   8.195  10.874  12.116 -0.6652 -0.4969 -1.1841
  271MOL0     H37361   8.097  11.112  12.075  1.0621 -0.2530 -0.1936
  271MOL0     H37362   7.810  11.320  12.395 -1.1013 -1.8124 -1.1801
  271MOL0     H37363   7.986  11.326  12.434  1.6893  1.5544 -1.4097
  271MOL0     H37364   7.909  11.542  12.387 -2.2333 -1.9058  1.0893
  271MOL0     H37365   8.037  11.480  12.275 -1.0070  0.2529 -2.3712
  271MOL0     H37366   7.737  11.513  12.196 -0.0920  1.4881  1.4447
  271MOL0     H37367   7.872  11.463  12.095  3.8353  2.1896 -0.6474
  271MOL0     H37368   7.998  11.673  12.146 -0.3557 -1.5629  1.1994
  271MOL0     H37369   7.856  11.736  12.226 -1.1547 -1.1599 -0.1279
  271MOL0     H37370   7.882  11.797  11.982 -2.9147  1.5737 -0.9341
  271MOL0     H37371   7.848  11.615  11.959  0.5676  0.4924 -0.0739
  271MOL0     H37372   7.658  11.845  12.031 -3.7564 -1.1640  0.9269
  271MOL0     H37373   7.629  11.675  12.082  2.4231 -2.5607 -0.7773
  271MOL0     H37374   7.529  11.765  11.864  0.8520  0.6590 -1.9252
  271MOL0     H37375   7.628  11.616  11.832  0.7816 -0.8563  2.5662
  271MOL0     H37376   7.656  11.813  11.676  0.8946 -3.7033 -0.5727
  271MOL0     H37377   7.811  11.773  11.752  1.1063  1.8151  0.4107
  271MOL0     H37378   7.932  11.108  12.480  0.3493  0.4710  0.6231
  271MOL0     H37379   8.027  10.888  12.518  0.7615  0.8408  0.8538
  271MOL0     H37380   8.018  10.509  12.464  0.1523  3.3218  3.8255
  271MOL0     H37381   8.049  10.262  12.502  2.1318 -4.2322  3.6756
  271MOL0     H37382   8.636   9.338  11.423 -0.1583 -1.2834  2.0588
  271MOL0     H37383   8.676   9.299  11.186  0.4823  0.4179  2.6335
  271MOL0     H37384   8.713   9.191  10.836  2.4784  0.5977 -0.8719
  271MOL0     H37385   8.791   9.197  10.611 -1.1838  1.0451 -2.2410
  271MOL0     H37386   8.675   9.330  10.213 -0.3376 -0.6591 -0.4400
  271MOL0     H37387   8.581   9.435  10.312 -1.0235 -2.0909  1.6850
  271MOL0     H37388   8.852   9.499  10.216  1.1144  1.8192  0.2596
  271MOL0     H37389   8.816   9.531  10.393 -0.2556  0.9653  1.0301
  271MOL0     H37390   8.630   9.637  10.184 -1.5970 -0.4441  1.5143
  271MOL0     H37391   8.622   9.648  10.355 -3.5468  0.7770 -2.2410
  271MOL0     H37392   8.831   9.760  10.161  6.2456 -1.4455  2.8239
  271MOL0     H37393   8.866   9.745  10.326  1.7137  1.0835 -2.4134
  271MOL0     H37394   8.534  10.040  10.324 -2.1263 -0.6385 -0.7340
  271MOL0     H37395   8.524   9.519  10.520 -0.7746 -1.5279 -1.2663
  271MOL0     H37396   8.423   9.657  10.670 -1.3167 -1.1790 -1.4869
  271MOL0     H37397   8.342   9.529  10.783  0.8814  0.5273  1.9667
  271MOL0     H37398   8.472   9.630  10.831 -0.4183  2.3329 -0.0831
  272MOL0     O37399   7.395   4.712   0.612  0.1202 -0.3233 -0.1006
  272MOL0     C37400   7.378   4.729   0.726  0.3585 -0.2100 -0.9531
  272MOL0     O37401   7.427   4.836   0.791  0.7952 -0.8108 -0.0951
  272MOL0     C37402   7.540   4.899   0.749 -0.0357  0.4333  0.3429
  272MOL0     C37403   7.541   5.035   0.767  0.2505 -0.3084  1.0561
  272MOL0     C37404   7.630   5.117   0.694 -0.2329 -0.7113  0.0295
  272MOL0     C37405   7.741   5.052   0.630 -0.5272 -0.4020 -0.1617
  272MOL0     O37406   7.844   5.113   0.559 -0.2270  0.3642 -0.1790
  272MOL0     C37407   7.900   5.228   0.629  0.5595 -0.0222 -1.1399
  272MOL0     C37408   8.048   5.220   0.604 -0.5387 -0.0397 -0.7034
  272MOL0     C37409   8.104   5.105   0.692 -1.0692 -0.4527  0.1125
  272MOL0     C37410   8.254   5.134   0.720 -0.3225 -0.5843 -1.1302
  272MOL0     C37411   8.346   5.056   0.630 -0.4079 -0.4053  1.0895
  272MOL0     C37412   8.365   5.130   0.495 -0.7246 -0.3851 -0.3126
  272MOL0     C37413   8.460   5.050   0.411  0.1125  0.6209  0.4172
  272MOL0     C37414   8.500   5.114   0.277 -0.4677 -0.0925 -0.6748
  272MOL0     N37415   8.560   5.007   0.199 -0.6273 -0.3989  0.6241
  272MOL0     C37416   8.697   4.963   0.209  0.0667 -0.3926  0.5251
  272MOL0     C37417   8.699   4.862   0.118  1.5262 -0.8021 -0.2187
  272MOL0     C37418   8.810   4.768   0.089  0.5874 -0.4908 -0.5544
  272MOL0     C37419   8.795   4.650   0.184 -0.4723 -0.1589 -0.3572
  272MOL0     C37420   8.670   4.565   0.156  0.0736 -0.4814 -0.1587
  272MOL0     C37421   8.623   4.469   0.278 -0.2667  0.6357 -0.0545
  272MOL0     O37422   8.613   4.538   0.404  0.1214 -0.4111  0.2023
  272MOL0     C37423   8.607   4.442   0.510  0.0612 -0.5267 -0.5623
  272MOL0     C37424   8.717   4.377   0.568 -1.1231  0.8989 -0.9188
  272MOL0     C37425   8.694   4.291   0.674  0.3359  0.2613 -0.0070
  272MOL0     C37426   8.814   4.238   0.744  0.4958 -0.8574 -0.7089
  272MOL0     C37427   8.557   4.264   0.728 -0.6670 -0.1473  0.6385
  272MOL0     C37428   8.525   4.186   0.849  0.2232 -0.7668  0.6107
  272MOL0     O37429   8.619   4.145   0.942  0.6077  0.1502 -0.9312
  272MOL0     C37430   8.590   4.110   1.070 -0.5049 -0.2770 -0.4387
  272MOL0     C37431   8.639   3.990   1.113 -0.1576 -0.3231 -0.4682
  272MOL0     C37432   8.614   3.947   1.243 -0.2485 -0.2085  0.0453
  272MOL0     C37433   8.540   4.024   1.332 -0.1289 -0.6015  0.2914
  272MOL0     O37434   8.514   3.994   1.460  0.5970 -0.4819 -0.0699
  272MOL0     C37435   8.627   3.931   1.526  0.2208  0.6746  0.6862
  272MOL0     C37436   8.611   3.931   1.676 -0.3792  1.1320 -0.6169
  272MOL0     C37437   8.525   3.799   1.717  1.0128  0.7565  0.6412
  272MOL0     C37438   8.483   3.786   1.863  0.0097  0.1970 -0.4733
  272MOL0     C37439   8.363   3.866   1.899  0.0757 -0.0459  0.2184
  272MOL0     C37440   8.323   3.866   2.044 -0.2887  0.4649 -0.6518
  272MOL0     C37441   8.251   3.981   2.096 -0.1591  0.2425  0.1216
  272MOL0     C37442   8.170   3.967   2.234 -0.1920 -1.0579 -0.0553
  272MOL0    Cl37443   8.027   3.860   2.222  0.0996 -0.0981 -0.3822
  272MOL0     C37444   8.485   4.147   1.289 -0.2883 -0.0604  0.6902
  272MOL0     C37445   8.507   4.183   1.157 -0.7193  0.6458 -0.3644
  272MOL0     O37446   8.408   4.179   0.861  0.0240  0.5440  0.1246
  272MOL0     C37447   8.447   4.322   0.650  0.0454 -0.0960 -0.3288
  272MOL0     C37448   8.477   4.406   0.546 -0.6567  0.0602  0.0394
  272MOL0     N37449   8.583   4.875   0.038  1.0160  0.0984  0.5324
  272MOL0     N37450   8.505   4.963   0.087  0.1848 -0.7433  0.1809
  272MOL0     C37451   7.748   4.913   0.628 -0.0357 -0.4881  0.4414
  272MOL0     C37452   7.650   4.832   0.689 -0.1816  1.0068 -0.7349
  272MOL0     C37453   7.297   4.637   0.806  0.2590 -0.6962  0.7590
  272MOL0     C37454   7.212   4.693   0.908 -1.0575  0.6446 -0.5677
  272MOL0     C37455   7.134   4.604   0.979 -0.6697  0.5212  0.0414
  272MOL0     C37456   7.122   4.465   0.943 -0.0420  0.1701 -0.0379
  272MOL0     O37457   7.026   4.379   0.994  0.4432 -0.1724  0.2101
  272MOL0     C37458   6.940   4.419   1.108 -0.0452  0.1907 -0.3768
  272MOL0     C37459   6.822   4.320   1.108 -0.1274  1.0698 -0.5782
  272MOL0     C37460   6.730   4.326   1.235  0.6397  0.2548 -0.7975
  272MOL0     C37461   6.611   4.226   1.219  0.1501 -0.0244 -0.7152
  272MOL0     C37462   6.654   4.090   1.180  0.0718 -0.8180 -0.6194
  272MOL0     C37463   6.690   3.975   1.163  0.2735 -0.1852 -0.0973
  272MOL0     C37464   7.194   4.422   0.832 -0.4597  0.0389  0.0384
  272MOL0     C37465   7.295   4.495   0.778  0.5279 -0.1767  0.0043
  272MOL0     C37466   7.398   4.429   0.690 -0.5526  0.0605 -0.1195
  272MOL0     H37467   7.469   5.091   0.825 -1.2869  0.8911 -1.8072
  272MOL0     H37468   7.628   5.222   0.722 -1.7754 -0.6783 -0.1243
  272MOL0     H37469   7.878   5.230   0.736  1.1398  0.8025 -1.0292
  272MOL0     H37470   7.861   5.323   0.591  0.0677  0.1302 -0.2864
  272MOL0     H37471   8.077   5.201   0.500 -1.1246 -0.4429 -0.7947
  272MOL0     H37472   8.086   5.316   0.640  0.6258 -0.3155 -1.1348
  272MOL0     H37473   8.063   5.092   0.792 -0.9691 -2.7706 -0.0779
  272MOL0     H37474   8.082   5.008   0.645 -2.3375  0.2828 -0.8559
  272MOL0     H37475   8.273   5.242   0.713  0.7207 -0.7503 -0.9376
  272MOL0     H37476   8.275   5.110   0.824  2.1714  3.1264 -0.6099
  272MOL0     H37477   8.318   4.952   0.610  0.7179 -0.4364 -0.5554
  272MOL0     H37478   8.442   5.048   0.681 -0.4735  1.0506  1.4981
  272MOL0     H37479   8.272   5.124   0.438 -1.9951 -1.3822  1.7430
  272MOL0     H37480   8.412   5.228   0.492  2.2063 -1.7166 -1.3441
  272MOL0     H37481   8.420   4.949   0.401 -0.1771  0.9866 -3.1427
  272MOL0     H37482   8.554   5.043   0.468  0.3570 -0.3776 -0.0875
  272MOL0     H37483   8.417   5.148   0.213 -0.4501 -2.5923 -2.1546
  272MOL0     H37484   8.575   5.193   0.285 -0.2687  0.0404 -3.1449
  272MOL0     H37485   8.770   4.979   0.287 -0.1384  1.5611  0.3658
  272MOL0     H37486   8.910   4.808   0.108  2.8087 -5.1213 -1.2032
  272MOL0     H37487   8.811   4.734  -0.015  1.8466 -2.8329  0.1613
  272MOL0     H37488   8.886   4.589   0.177  0.3884  1.1799 -1.4340
  272MOL0     H37489   8.789   4.680   0.289 -0.4225 -0.1258 -0.3638
  272MOL0     H37490   8.592   4.641   0.142  1.2156  0.5660 -1.1524
  272MOL0     H37491   8.693   4.505   0.067 -0.2319  0.6655 -1.0347
  272MOL0     H37492   8.529   4.418   0.252  0.1851  0.8214 -2.2852
  272MOL0     H37493   8.686   4.380   0.281 -0.2378  0.6446 -0.3227
  272MOL0     H37494   8.817   4.388   0.528 -1.2722  2.5671 -0.8963
  272MOL0     H37495   8.808   4.131   0.765  2.0717 -0.5892  1.4868
  272MOL0     H37496   8.834   4.289   0.839  2.3959 -4.0907  0.8152
  272MOL0     H37497   8.900   4.239   0.676  2.0085 -0.3312  1.1095
  272MOL0     H37498   8.706   3.940   1.045 -0.3357 -0.4882 -0.5228
  272MOL0     H37499   8.671   3.860   1.274  1.1884  0.7524  0.1876
  272MOL0     H37500   8.639   3.826   1.497 -2.2597  0.9844 -1.8382
  272MOL0     H37501   8.723   3.981   1.507  1.6428 -1.8739  0.6620
  272MOL0     H37502   8.708   3.918   1.724 -0.3643 -2.3796 -1.3090
  272MOL0     H37503   8.556   4.019   1.709 -1.6537 -0.2537  1.2027
  272MOL0     H37504   8.575   3.703   1.703 -0.5903  0.1666 -1.5362
  272MOL0     H37505   8.432   3.803   1.660  2.2056 -0.7918 -1.5946
  272MOL0     H37506   8.569   3.804   1.928 -0.2331  0.8767 -0.3326
  272MOL0     H37507   8.451   3.682   1.868 -2.4213  0.9272  0.8984
  272MOL0     H37508   8.402   3.967   1.884 -0.3336  0.0438 -0.2584
  272MOL0     H37509   8.284   3.848   1.825  0.3478 -2.4343  0.4089
  272MOL0     H37510   8.414   3.858   2.106 -0.2552 -1.7233 -0.9050
  272MOL0     H37511   8.255   3.782   2.057 -1.7018  1.6886  0.1997
  272MOL0     H37512   8.170   4.011   2.028 -1.1515  0.4830  1.3658
  272MOL0     H37513   8.308   4.073   2.083 -4.6776  3.1672 -1.5697
  272MOL0     H37514   8.143   4.071   2.252  2.8497  0.3742 -2.7637
  272MOL0     H37515   8.237   3.926   2.311  1.4174  0.9896 -0.2853
  272MOL0     H37516   8.439   4.222   1.352  0.4908  2.4687 -1.5436
  272MOL0     H37517   8.465   4.279   1.130  0.9200  0.9215 -2.0795
  272MOL0     H37518   8.346   4.299   0.680  0.3396  0.3124  1.0060
  272MOL0     H37519   8.400   4.462   0.493 -0.7289 -1.4876 -1.5626
  272MOL0     H37520   7.823   4.865   0.566  0.1799  1.2690 -0.7499
  272MOL0     H37521   7.651   4.724   0.677 -0.1230  0.8431  0.6032
  272MOL0     H37522   7.222   4.792   0.952  2.6525 -0.3822  1.2904
  272MOL0     H37523   7.078   4.648   1.060 -2.1376 -3.3495  1.3910
  272MOL0     H37524   7.007   4.436   1.193 -0.1735  4.2933 -0.9242
  272MOL0     H37525   6.895   4.518   1.098 -1.4362 -0.3737  0.0445
  272MOL0     H37526   6.875   4.224   1.106  1.6064  1.9815 -1.1143
  272MOL0     H37527   6.774   4.334   1.010  0.6203 -1.7849 -1.4509
  272MOL0     H37528   6.775   4.311   1.333  2.1841  1.0297 -1.3589
  272MOL0     H37529   6.702   4.430   1.254  2.7585  0.1946  3.7421
  272MOL0     H37530   6.535   4.264   1.150 -2.5430  1.4070  2.7306
  272MOL0     H37531   6.547   4.222   1.307  1.6268 -0.5874  0.3809
  272MOL0     H37532   6.727   3.875   1.149  1.6408 -0.5713  4.5625
  272MOL0     H37533   7.186   4.318   0.801 -2.2000  0.7077 -2.0547
  272MOL0     H37534   7.485   4.493   0.673  1.1866 -2.5828 -2.1956
  272MOL0     H37535   7.432   4.328   0.717 -1.8918 -0.8214 -1.5318
  272MOL0     H37536   7.358   4.415   0.589 -0.3410 -0.8642 -0.0836
  273MOL0     O37537   3.703   6.369   8.361  0.4864 -0.0950 -0.7023
  273MOL0     C37538   3.790   6.423   8.424 -0.2413 -0.6539  0.5825
  273MOL0     O37539   3.821   6.386   8.555 -0.6246 -0.1450  0.5550
  273MOL0     C37540   3.742   6.285   8.615  0.9803 -0.6352 -0.1863
  273MOL0     C37541   3.662   6.325   8.726 -1.1124  0.1505 -0.0680
  273MOL0     C37542   3.586   6.230   8.787 -0.0193  0.4438  0.2047
  273MOL0     C37543   3.588   6.100   8.741  0.0527 -0.1446  0.7953
  273MOL0     O37544   3.489   6.018   8.781  0.1238  0.1488 -0.5225
  273MOL0     C37545   3.484   5.999   8.925  0.8474 -0.1824 -0.8832
  273MOL0     C37546   3.363   5.901   8.949  0.5015 -0.3801  0.5745
  273MOL0     C37547   3.361   5.790   8.849  1.0236  0.6312  0.0979
  273MOL0     C37548   3.266   5.680   8.899 -0.0609  0.1488  0.4951
  273MOL0     C37549   3.335   5.575   8.980  1.1111 -0.2916  0.0327
  273MOL0     C37550   3.406   5.471   8.884 -0.0503 -1.1911  0.3763
  273MOL0     C37551   3.303   5.374   8.826 -0.3591  0.1432  0.5581
  273MOL0     C37552   3.376   5.251   8.772 -0.0100 -0.0290  0.4575
  273MOL0     N37553   3.472   5.281   8.659  0.1352 -0.2998 -0.2944
  273MOL0     C37554   3.432   5.313   8.533 -0.3064 -0.3569  0.1859
  273MOL0     C37555   3.542   5.307   8.459 -0.3380 -0.5198  0.1850
  273MOL0     C37556   3.537   5.345   8.326  0.1861 -0.6610  0.3257
  273MOL0     C37557   3.585   5.231   8.233  0.1823 -0.1574  0.4008
  273MOL0     C37558   3.577   5.262   8.090 -0.0913 -1.0022  0.5158
  273MOL0     C37559   3.627   5.146   7.994  0.4957 -0.5809 -1.0413
  273MOL0     O37560   3.587   5.174   7.856  1.0085 -0.2761  0.6702
  273MOL0     C37561   3.457   5.150   7.811 -0.4043 -0.0397  0.4767
  273MOL0     C37562   3.352   5.105   7.892  0.3589 -0.2157  0.8344
  273MOL0     C37563   3.218   5.081   7.859 -0.5206  0.1223  0.9054
  273MOL0     C37564   3.126   5.058   7.974  0.2882 -0.1392  0.2579
  273MOL0     C37565   3.180   5.087   7.723 -0.0412  0.3237  0.1100
  273MOL0     C37566   3.047   5.064   7.672  1.2521 -0.3338  0.3434
  273MOL0     O37567   3.009   5.148   7.566 -0.1556 -0.2251  0.1483
  273MOL0     C37568   2.878   5.136   7.518  0.0510 -0.1098 -0.3348
  273MOL0     C37569   2.796   5.246   7.494 -0.5530 -0.0343  0.5137
  273MOL0     C37570   2.663   5.239   7.441 -0.8955  0.5208 -0.1225
  273MOL0     C37571   2.613   5.105   7.419  0.6268  0.1554  0.1090
  273MOL0     O37572   2.477   5.093   7.380  0.4174  0.0484 -1.1517
  273MOL0     C37573   2.390   5.201   7.337 -0.1444  0.8691  0.3724
  273MOL0     C37574   2.267   5.135   7.274  0.6784  0.2611  0.3237
  273MOL0     C37575   2.143   5.220   7.261 -0.8713 -0.7130  0.0235
  273MOL0     C37576   2.130   5.275   7.121  0.2071 -0.0282  0.1136
  273MOL0     C37577   2.011   5.367   7.121  0.9719 -0.3153 -0.0491
  273MOL0     C37578   1.877   5.298   7.143  0.9554 -0.4963 -0.2801
  273MOL0     C37579   1.853   5.196   7.029 -0.5448 -0.7423  0.3529
  273MOL0     C37580   1.723   5.139   7.015  0.8806 -0.6776  0.3462
  273MOL0    Cl37581   1.695   5.051   7.174  0.0526 -0.2431  0.0495
  273MOL0     C37582   2.703   4.995   7.420 -0.3937 -0.4812  1.5027
  273MOL0     C37583   2.834   5.006   7.470  0.7816 -0.3654  0.6655
  273MOL0     O37584   2.966   4.995   7.730  0.4902  0.8121 -0.1495
  273MOL0     C37585   3.282   5.136   7.636  0.1216  0.4752  0.2812
  273MOL0     C37586   3.415   5.160   7.684  0.2874  0.9490  0.3841
  273MOL0     N37587   3.652   5.289   8.544 -0.1555  0.2565  0.2918
  273MOL0     N37588   3.611   5.267   8.660  0.3680 -0.1855 -0.8019
  273MOL0     C37589   3.661   6.048   8.632 -0.5227 -0.0175  0.1292
  273MOL0     C37590   3.738   6.148   8.572  0.1673 -0.2377  0.3547
  273MOL0     C37591   3.859   6.548   8.377  0.3621 -0.1856 -0.8502
  273MOL0     C37592   3.958   6.607   8.466 -0.6799 -0.9549  0.7456
  273MOL0     C37593   4.035   6.716   8.412  0.6391 -0.9950  0.8923
  273MOL0     C37594   4.003   6.769   8.279  0.3608  0.4074 -0.7343
  273MOL0     O37595   4.082   6.852   8.204 -0.4331 -0.0738  0.4475
  273MOL0     C37596   4.225   6.853   8.223 -0.4800  0.1879 -1.1386
  273MOL0     C37597   4.304   6.915   8.104 -0.5979  0.4046 -0.7821
  273MOL0     C37598   4.244   7.042   8.035 -0.7416  0.5396 -0.4289
  273MOL0     C37599   4.366   7.135   8.007  0.4220 -0.1421  0.3291
  273MOL0     C37600   4.453   7.092   7.901 -0.6355 -0.3597 -0.4250
  273MOL0     C37601   4.529   7.043   7.822 -0.0712  0.3821  0.1823
  273MOL0     C37602   3.899   6.713   8.213  0.1895  0.1139  0.5548
  273MOL0     C37603   3.820   6.609   8.259 -0.1259  0.0992  0.2311
  273MOL0     C37604   3.700   6.570   8.160 -0.6267  1.2304 -0.4176
  273MOL0     H37605   3.675   6.432   8.738  2.0880 -0.4239  3.1365
  273MOL0     H37606   3.517   6.260   8.865 -0.1994  3.0415 -0.8735
  273MOL0     H37607   3.475   6.084   8.993 -0.3992 -2.6829  2.3292
  273MOL0     H37608   3.576   5.942   8.943  0.2459 -1.9190 -2.8853
  273MOL0     H37609   3.375   5.861   9.050 -3.2182 -0.0706  1.2828
  273MOL0     H37610   3.270   5.958   8.951  0.8255  0.2618 -1.0505
  273MOL0     H37611   3.321   5.827   8.754 -1.9253 -2.4204 -0.0541
  273MOL0     H37612   3.458   5.740   8.843 -0.4575 -2.6050  0.9160
  273MOL0     H37613   3.194   5.738   8.958  2.2915  2.1465  1.6092
  273MOL0     H37614   3.208   5.638   8.817 -1.0259 -0.4016  1.4284
  273MOL0     H37615   3.268   5.523   9.049  1.4830 -1.6580 -0.6055
  273MOL0     H37616   3.417   5.621   9.035  2.5274  1.6522 -3.3900
  273MOL0     H37617   3.460   5.522   8.803  2.0091 -2.2664  0.9946
  273MOL0     H37618   3.475   5.412   8.944  0.7186 -2.1096 -1.3313
  273MOL0     H37619   3.245   5.421   8.746  3.0968  0.7395 -1.8402
  273MOL0     H37620   3.225   5.337   8.893 -0.9189 -4.9235 -2.3345
  273MOL0     H37621   3.424   5.192   8.851  0.9329  2.3627  1.7749
  273MOL0     H37622   3.294   5.190   8.735 -1.4541  2.4159 -0.5920
  273MOL0     H37623   3.328   5.316   8.502 -0.4073 -0.1660  0.5350
  273MOL0     H37624   3.620   5.416   8.327  0.0569 -0.5098  0.2784
  273MOL0     H37625   3.443   5.387   8.290  3.0710  2.9488 -4.0471
  273MOL0     H37626   3.687   5.204   8.259  0.8937  0.8830 -1.1483
  273MOL0     H37627   3.526   5.142   8.257  1.9804 -1.3733  0.4454
  273MOL0     H37628   3.469   5.281   8.079  0.2552  0.8068 -0.1038
  273MOL0     H37629   3.631   5.356   8.074 -3.7246  1.2493  0.1106
  273MOL0     H37630   3.735   5.153   8.004  0.2831  0.3116  1.1168
  273MOL0     H37631   3.598   5.048   8.032 -1.9987  0.9777  1.5027
  273MOL0     H37632   3.370   5.095   7.999  2.4732  1.2159  0.6549
  273MOL0     H37633   3.100   4.953   7.963 -2.5255  0.6705 -2.2893
  273MOL0     H37634   3.036   5.119   7.965 -0.3229 -0.5046  3.0213
  273MOL0     H37635   3.168   5.067   8.075  0.7466 -2.4399  0.3147
  273MOL0     H37636   2.837   5.340   7.528  2.7246 -2.1494  3.1429
  273MOL0     H37637   2.602   5.329   7.443  2.0899  2.7820  3.3470
  273MOL0     H37638   2.364   5.257   7.427 -2.1860 -2.0049  1.7185
  273MOL0     H37639   2.444   5.266   7.266  3.1810  1.5416  3.2184
  273MOL0     H37640   2.296   5.087   7.179  2.8945  0.2995  0.9175
  273MOL0     H37641   2.236   5.043   7.325 -2.4782 -0.1667 -2.0372
  273MOL0     H37642   2.149   5.305   7.329 -2.6773 -1.2695  0.9714
  273MOL0     H37643   2.058   5.162   7.300  0.6618 -1.6218  2.2214
  273MOL0     H37644   2.123   5.196   7.046  3.0733  0.4294 -0.7429
  273MOL0     H37645   2.223   5.315   7.081  1.4697 -5.1267 -3.0234
  273MOL0     H37646   2.025   5.452   7.188 -0.3040  1.2226 -1.6407
  273MOL0     H37647   2.014   5.412   7.021  3.3772 -1.0306 -0.3542
  273MOL0     H37648   1.797   5.372   7.137  0.2182 -1.1859  0.6302
  273MOL0     H37649   1.863   5.243   7.237 -2.1858 -1.7667 -1.3394
  273MOL0     H37650   1.917   5.109   7.041  0.3526 -0.5104 -2.1903
  273MOL0     H37651   1.887   5.240   6.935 -2.5140  0.1660  0.0029
  273MOL0     H37652   1.711   5.061   6.939 -0.0139 -0.5627  0.3518
  273MOL0     H37653   1.639   5.205   6.991  0.4733 -1.5826 -0.8418
  273MOL0     H37654   2.655   4.901   7.397 -1.2310 -0.1590  1.8861
  273MOL0     H37655   2.892   4.916   7.485  1.6065 -0.4097 -2.1670
  273MOL0     H37656   3.245   5.173   7.541 -0.4762  1.1498  0.7697
  273MOL0     H37657   3.486   5.214   7.621  2.0208 -0.4827  1.0204
  273MOL0     H37658   3.638   5.950   8.591  3.3620 -1.0557  0.0533
  273MOL0     H37659   3.793   6.105   8.490 -0.9144  0.5144 -0.7985
  273MOL0     H37660   3.977   6.578   8.569 -4.2525  3.9626  3.1765
  273MOL0     H37661   4.115   6.768   8.465 -1.4671  3.7320 -0.0722
  273MOL0     H37662   4.250   6.910   8.313  1.3900 -2.4282  0.1265
  273MOL0     H37663   4.267   6.754   8.242  1.4508  1.3883  1.6101
  273MOL0     H37664   4.307   6.833   8.031  1.0641 -0.5847  0.3276
  273MOL0     H37665   4.406   6.942   8.132 -0.7041  1.4538 -1.3451
  273MOL0     H37666   4.209   7.017   7.935  0.1117 -1.0672 -0.3505
  273MOL0     H37667   4.171   7.101   8.090  0.5563  1.9026 -0.0894
  273MOL0     H37668   4.412   7.158   8.103 -0.6916 -1.4738  1.2244
  273MOL0     H37669   4.329   7.230   7.968 -1.5256 -1.7492 -2.0552
  273MOL0     H37670   4.582   6.982   7.753 -0.7486  1.3216 -1.2164
  273MOL0     H37671   3.883   6.753   8.114 -0.0148  1.4349  1.0985
  273MOL0     H37672   3.608   6.577   8.219  0.0588  2.7066  0.5324
  273MOL0     H37673   3.683   6.643   8.081  1.2136  0.5219 -1.5438
  273MOL0     H37674   3.708   6.468   8.122  1.5306 -0.6723  4.3003
  274MOL0     O37675   5.290   5.534   4.496 -0.0191 -0.2237 -0.5365
  274MOL0     C37676   5.308   5.655   4.517 -0.6360 -0.4471 -0.1048
  274MOL0     O37677   5.398   5.723   4.446  0.1339 -0.0626 -0.3143
  274MOL0     C37678   5.444   5.657   4.339 -0.3195  0.7398  0.4908
  274MOL0     C37679   5.583   5.632   4.338 -0.4045  0.7655  0.6644
  274MOL0     C37680   5.637   5.567   4.234  0.3032  0.0122  0.0693
  274MOL0     C37681   5.561   5.533   4.121  0.2452 -0.4549  0.8462
  274MOL0     O37682   5.600   5.484   4.003 -0.1011  1.0889 -0.6798
  274MOL0     C37683   5.692   5.375   4.018  0.4962 -0.2520  0.2345
  274MOL0     C37684   5.731   5.326   3.877 -0.0390 -0.4053  0.0594
  274MOL0     C37685   5.603   5.295   3.796  0.2104 -0.4766 -0.4876
  274MOL0     C37686   5.635   5.288   3.637 -0.1656  0.1412  0.1705
  274MOL0     C37687   5.517   5.255   3.554  0.4855  0.2466 -0.2175
  274MOL0     C37688   5.537   5.252   3.398  1.3700 -0.5564 -1.0723
  274MOL0     C37689   5.640   5.151   3.350  0.0819 -0.1963 -0.0750
  274MOL0     C37690   5.655   5.138   3.197 -0.0963  0.4993  0.8124
  274MOL0     N37691   5.756   5.038   3.177 -0.7252 -0.5689 -0.2869
  274MOL0     C37692   5.894   5.044   3.204  0.6663 -0.2394  0.2975
  274MOL0     C37693   5.927   4.917   3.176 -0.0614 -0.6608 -0.4974
  274MOL0     C37694   6.068   4.868   3.210 -0.6883 -0.3100  0.0752
  274MOL0     C37695   6.086   4.828   3.351  0.0128 -1.2618  0.6527
  274MOL0     C37696   5.997   4.718   3.400  0.0119 -0.8139  0.1290
  274MOL0     C37697   6.059   4.583   3.401 -0.8923  0.2906  0.0367
  274MOL0     O37698   5.976   4.473   3.461 -0.9107 -0.6949 -0.1037
  274MOL0     C37699   6.017   4.341   3.428  0.0160  0.1805  0.7373
  274MOL0     C37700   6.141   4.295   3.385 -0.2616  0.8593 -0.8025
  274MOL0     C37701   6.165   4.170   3.335 -0.4064 -0.6788 -0.4331
  274MOL0     C37702   6.308   4.143   3.306 -0.6686  0.6463  0.4831
  274MOL0     C37703   6.066   4.068   3.369 -0.5269 -0.5328  0.8455
  274MOL0     C37704   6.092   3.930   3.329 -0.2928 -0.1142  0.7741
  274MOL0     O37705   6.000   3.842   3.378  0.4933 -0.0127 -0.1450
  274MOL0     C37706   6.007   3.709   3.374 -0.4835  0.8606 -0.0856
  274MOL0     C37707   5.886   3.649   3.363  0.1815  0.9492 -0.2701
  274MOL0     C37708   5.884   3.505   3.359 -0.0002  0.1795  0.0354
  274MOL0     C37709   6.004   3.428   3.361  1.3167  0.7186 -0.2850
  274MOL0     O37710   5.990   3.290   3.348 -0.1737 -0.1893  0.0644
  274MOL0     C37711   6.106   3.211   3.306  0.0211 -0.3357 -0.6490
  274MOL0     C37712   6.086   3.063   3.322 -0.3657 -0.1496 -0.2394
  274MOL0     C37713   5.971   2.996   3.238 -0.3442 -0.8459 -0.0860
  274MOL0     C37714   5.987   2.841   3.270 -0.1505  0.4058  0.0614
  274MOL0     C37715   5.860   2.746   3.241 -0.1393 -0.5271 -0.0717
  274MOL0     C37716   5.914   2.605   3.237  0.0243  0.1951 -0.4912
  274MOL0     C37717   5.980   2.566   3.372  0.4350  0.1336 -0.3244
  274MOL0     C37718   5.986   2.425   3.395  1.1278  0.8988  0.4237
  274MOL0    Cl37719   6.005   2.390   3.571  0.0359 -0.2069 -0.5110
  274MOL0     C37720   6.120   3.499   3.368 -1.2038 -0.3524 -0.6018
  274MOL0     C37721   6.129   3.639   3.383 -1.0862 -0.0383  0.0778
  274MOL0     O37722   6.177   3.898   3.242 -0.3298 -0.6563  0.1593
  274MOL0     C37723   5.933   4.113   3.406  0.6534  0.9654 -0.6090
  274MOL0     C37724   5.910   4.249   3.429  0.5429  0.0499 -0.5418
  274MOL0     N37725   5.822   4.839   3.125  0.0433  0.5177  0.0615
  274MOL0     N37726   5.725   4.915   3.128  0.6468  0.1390  0.2414
  274MOL0     C37727   5.429   5.577   4.118 -0.1470 -0.3871  0.6123
  274MOL0     C37728   5.367   5.642   4.224 -0.0335 -0.8069  0.5348
  274MOL0     C37729   5.225   5.734   4.608  0.1817  0.7491  1.0612
  274MOL0     C37730   5.280   5.856   4.650  0.6664 -0.2335  0.5377
  274MOL0     C37731   5.218   5.915   4.760  0.6808  0.4606 -0.1705
  274MOL0     C37732   5.085   5.887   4.808  0.3390  0.7455 -0.2884
  274MOL0     O37733   5.021   5.965   4.908 -0.9561 -0.5231 -0.1094
  274MOL0     C37734   4.883   6.003   4.888  0.1005  0.7419 -0.3751
  274MOL0     C37735   4.791   5.929   4.984  0.1104 -0.1095  0.0856
  274MOL0     C37736   4.649   5.925   4.938 -0.8980  0.1371  0.5772
  274MOL0     C37737   4.608   5.801   4.870 -0.6539 -0.2278  0.4605
  274MOL0     C37738   4.665   5.776   4.736 -0.3898 -0.1848 -0.0016
  274MOL0     C37739   4.704   5.768   4.623 -0.1763  0.2734 -0.1253
  274MOL0     C37740   5.027   5.772   4.761  0.3617  0.6744 -0.7227
  274MOL0     C37741   5.098   5.694   4.659  0.4798  0.1199 -0.3312
  274MOL0     C37742   5.026   5.573   4.607  0.0842 -0.6863 -1.0047
  274MOL0     H37743   5.637   5.646   4.431  2.6482 -2.4749 -0.4138
  274MOL0     H37744   5.743   5.543   4.233  0.1127 -0.8385 -0.3358
  274MOL0     H37745   5.655   5.287   4.072  1.0838 -0.2365  0.6716
  274MOL0     H37746   5.784   5.406   4.068  0.8711  0.4443 -0.8599
  274MOL0     H37747   5.785   5.407   3.827 -0.7863 -0.2492 -0.5006
  274MOL0     H37748   5.790   5.234   3.890 -0.2861 -0.5781 -0.0395
  274MOL0     H37749   5.553   5.208   3.840 -0.3141 -0.2043 -0.5388
  274MOL0     H37750   5.535   5.379   3.810  2.0538  0.9225  0.4706
  274MOL0     H37751   5.682   5.380   3.603  2.0385 -0.8147  0.4147
  274MOL0     H37752   5.711   5.209   3.630 -0.6735 -0.4120  0.6916
  274MOL0     H37753   5.438   5.325   3.584  0.1404  0.2497 -1.1002
  274MOL0     H37754   5.492   5.152   3.579  0.7014  0.2889  0.1761
  274MOL0     H37755   5.440   5.229   3.352  0.7791  3.5413 -2.3423
  274MOL0     H37756   5.577   5.345   3.357  3.0075 -0.8118 -0.1289
  274MOL0     H37757   5.608   5.058   3.398  0.7833  1.1393  3.2653
  274MOL0     H37758   5.733   5.190   3.392  0.6630 -1.2596 -0.3559
  274MOL0     H37759   5.560   5.103   3.155  1.0811 -2.9457  0.6365
  274MOL0     H37760   5.689   5.236   3.163  0.4450  0.2569  0.6397
  274MOL0     H37761   5.954   5.129   3.234 -0.5024  0.5152  0.5438
  274MOL0     H37762   6.133   4.953   3.189  0.5735 -0.6647  2.2649
  274MOL0     H37763   6.092   4.796   3.131 -0.3891 -1.2917  1.0379
  274MOL0     H37764   6.185   4.783   3.364  0.2777 -0.5829  1.0220
  274MOL0     H37765   6.099   4.914   3.417  3.1445 -3.9476  3.9632
  274MOL0     H37766   5.962   4.744   3.500 -3.0430  0.4945 -1.1589
  274MOL0     H37767   5.906   4.713   3.340 -0.5595 -0.0464  0.9103
  274MOL0     H37768   6.092   4.559   3.299  2.7948  2.0890  0.6412
  274MOL0     H37769   6.155   4.585   3.454 -0.5133  0.4004 -0.6372
  274MOL0     H37770   6.227   4.361   3.394  1.2020 -1.0179 -0.5265
  274MOL0     H37771   6.342   4.066   3.376  0.8474 -1.1566 -2.0737
  274MOL0     H37772   6.379   4.225   3.318  2.5952 -1.5827 -1.8386
  274MOL0     H37773   6.328   4.105   3.205 -0.0295 -1.8306  1.4652
  274MOL0     H37774   5.793   3.700   3.386 -0.7630 -1.8404  2.9498
  274MOL0     H37775   5.795   3.443   3.356  1.0295 -1.3737  0.4213
  274MOL0     H37776   6.119   3.225   3.198  0.4569 -1.0026 -0.6876
  274MOL0     H37777   6.188   3.245   3.369 -1.3050 -1.2912  1.7449
  274MOL0     H37778   6.183   3.029   3.285  0.7499  0.6437  1.7444
  274MOL0     H37779   6.078   3.031   3.426 -0.7677 -0.6785 -0.4341
  274MOL0     H37780   5.991   3.009   3.131 -1.5252  0.6870 -0.1555
  274MOL0     H37781   5.869   3.026   3.262 -0.4428  0.2336 -1.6866
  274MOL0     H37782   6.005   2.831   3.377  1.0764 -0.5803 -0.2077
  274MOL0     H37783   6.075   2.807   3.215 -0.0314  1.3412 -0.3371
  274MOL0     H37784   5.793   2.750   3.327  2.6119 -0.7470  2.2286
  274MOL0     H37785   5.803   2.787   3.157 -1.1966  0.9588  1.3179
  274MOL0     H37786   5.996   2.600   3.165  1.8069 -1.3546  1.5242
  274MOL0     H37787   5.838   2.537   3.198 -1.0018  0.8515  0.2790
  274MOL0     H37788   5.917   2.610   3.450 -1.1811  1.1619 -2.1021
  274MOL0     H37789   6.081   2.609   3.379 -0.3120  2.2202 -1.3143
  274MOL0     H37790   6.060   2.375   3.331  0.5368 -1.3389  1.3681
  274MOL0     H37791   5.894   2.376   3.364  1.9017  1.0774 -2.3852
  274MOL0     H37792   6.217   3.455   3.350  0.1637  2.6234 -1.0532
  274MOL0     H37793   6.222   3.694   3.397 -0.5217 -0.3220 -2.1282
  274MOL0     H37794   5.854   4.039   3.412  0.9766  0.5441 -1.4508
  274MOL0     H37795   5.809   4.285   3.446  1.5663  1.6379  3.3233
  274MOL0     H37796   5.364   5.557   4.033  0.2699  0.4791  0.0773
  274MOL0     H37797   5.265   5.675   4.215  0.6909  0.8123 -3.6073
  274MOL0     H37798   5.369   5.899   4.605 -0.9199  0.2751 -2.3817
  274MOL0     H37799   5.274   5.999   4.802  0.0938  0.8091 -0.0668
  274MOL0     H37800   4.870   6.110   4.909 -2.4132  0.3802  0.1435
  274MOL0     H37801   4.847   5.978   4.788 -1.5616 -0.7264  0.5617
  274MOL0     H37802   4.801   5.973   5.083  0.6334  1.3827 -0.5926
  274MOL0     H37803   4.836   5.830   4.995 -0.0962 -0.8043 -3.8926
  274MOL0     H37804   4.585   5.951   5.023  0.5485  0.2627  1.6642
  274MOL0     H37805   4.622   6.014   4.880  0.7035  1.4359  1.7210
  274MOL0     H37806   4.501   5.821   4.853 -0.0415  2.5496 -0.7297
  274MOL0     H37807   4.621   5.712   4.931  0.0241 -1.4643 -1.3958
  274MOL0     H37808   4.742   5.782   4.524  0.9355 -2.1471 -0.1278
  274MOL0     H37809   4.926   5.748   4.792 -0.9628  4.7173 -1.3677
  274MOL0     H37810   4.994   5.577   4.502  0.1122 -1.1047 -1.0317
  274MOL0     H37811   5.078   5.478   4.622  0.2798 -0.2928  1.0835
  274MOL0     H37812   4.936   5.571   4.669  0.1044  2.1200 -0.7334
  275MOL0     O37813   8.254   7.438   5.896  0.0364  0.0610  0.5890
  275MOL0     C37814   8.301   7.517   5.811 -0.8887  0.0998  0.0465
  275MOL0     O37815   8.265   7.532   5.681 -0.2180 -0.2467  1.3167
  275MOL0     C37816   8.163   7.448   5.630  0.1658 -0.5687  0.1882
  275MOL0     C37817   8.036   7.446   5.686  0.6537 -0.1737 -0.2684
  275MOL0     C37818   7.923   7.387   5.618 -0.1854 -0.4375  1.0284
  275MOL0     C37819   7.933   7.308   5.511  0.3221  1.0382 -0.3832
  275MOL0     O37820   7.834   7.256   5.435 -0.0145  0.7574 -0.4151
  275MOL0     C37821   7.831   7.255   5.299 -0.6153  0.6944 -0.5723
  275MOL0     C37822   7.712   7.173   5.250 -0.1105  0.4425  0.3893
  275MOL0     C37823   7.708   7.150   5.099  0.1070 -0.2659  0.0094
  275MOL0     C37824   7.598   7.050   5.059  0.4535 -0.3650  0.1007
  275MOL0     C37825   7.548   7.067   4.911 -1.1328 -0.6993 -0.6777
  275MOL0     C37826   7.664   7.066   4.821  0.2858  0.1064  0.6857
  275MOL0     C37827   7.608   7.054   4.679 -0.4818  0.2464 -1.2012
  275MOL0     C37828   7.520   7.180   4.642  0.4038 -0.3571 -0.0036
  275MOL0     N37829   7.404   7.133   4.566  0.7225 -0.4702  0.4368
  275MOL0     C37830   7.379   7.164   4.433 -0.4096  0.4159  0.8987
  275MOL0     C37831   7.255   7.109   4.400  0.4644  0.7024 -0.4852
  275MOL0     C37832   7.171   7.090   4.272 -0.1456 -0.0019  0.0794
  275MOL0     C37833   7.197   6.959   4.195  0.5661  0.2400  0.0259
  275MOL0     C37834   7.164   6.842   4.276  0.0357  0.2673  0.2799
  275MOL0     C37835   7.011   6.842   4.314  0.0234  0.2088 -0.0377
  275MOL0     O37836   6.976   6.705   4.341  0.0731  0.2417 -0.4929
  275MOL0     C37837   6.942   6.614   4.240  0.5140  0.1788 -0.3789
  275MOL0     C37838   6.893   6.487   4.275 -1.2887  0.8283 -0.0777
  275MOL0     C37839   6.863   6.387   4.180 -0.4720 -0.6191  0.5946
  275MOL0     C37840   6.830   6.256   4.249  0.9855  0.3749 -0.5370
  275MOL0     C37841   6.876   6.416   4.045 -0.6312  0.8580 -0.2042
  275MOL0     C37842   6.823   6.336   3.930 -0.8129  0.4624 -0.0238
  275MOL0     O37843   6.835   6.378   3.799  0.1449  0.0756  0.4234
  275MOL0     C37844   6.781   6.291   3.707  0.0437  0.1726  0.3918
  275MOL0     C37845   6.854   6.231   3.603  0.7464 -0.5192 -0.9429
  275MOL0     C37846   6.796   6.130   3.527 -0.3841 -0.4216  0.1621
  275MOL0     C37847   6.662   6.090   3.535 -0.6761 -0.5556  0.3745
  275MOL0     O37848   6.625   5.991   3.443  0.6933 -0.3036 -0.3081
  275MOL0     C37849   6.488   5.955   3.453  0.5981  0.5867  0.1934
  275MOL0     C37850   6.460   5.835   3.355  0.1369  0.1961  0.2666
  275MOL0     C37851   6.501   5.697   3.417 -0.8974 -0.3817  0.4204
  275MOL0     C37852   6.400   5.667   3.534 -0.6101 -0.3194 -0.4410
  275MOL0     C37853   6.406   5.516   3.568 -0.3363  0.4575 -0.8950
  275MOL0     C37854   6.346   5.423   3.461 -0.0461 -0.5347  0.2166
  275MOL0     C37855   6.289   5.303   3.529 -0.8939 -0.3743  0.3508
  275MOL0     C37856   6.204   5.219   3.434  0.0033  1.2131  0.2156
  275MOL0    Cl37857   6.049   5.293   3.383  0.4609  0.2892 -0.0913
  275MOL0     C37858   6.586   6.161   3.633 -0.5177  0.2292  0.5214
  275MOL0     C37859   6.635   6.260   3.720 -0.7262 -0.6075 -0.5578
  275MOL0     O37860   6.777   6.219   3.972  0.1992 -0.5771 -0.1226
  275MOL0     C37861   6.936   6.541   4.010 -0.5985 -0.4012 -0.2358
  275MOL0     C37862   6.979   6.633   4.106 -0.4085  0.1207  0.2741
  275MOL0     N37863   7.213   7.045   4.521 -1.0131 -0.3940 -0.3336
  275MOL0     N37864   7.305   7.060   4.620  0.4374 -0.3402  0.8691
  275MOL0     C37865   8.070   7.278   5.484 -0.2944  1.2334 -1.1424
  275MOL0     C37866   8.180   7.347   5.530  0.3787 -0.6925  0.8609
  275MOL0     C37867   8.425   7.588   5.855  0.4850  0.7934 -0.0830
  275MOL0     C37868   8.524   7.615   5.758  0.3227 -0.2294  0.4632
  275MOL0     C37869   8.652   7.652   5.791 -0.3197 -0.2548 -0.0007
  275MOL0     C37870   8.679   7.676   5.916 -0.6003 -0.5237 -0.1830
  275MOL0     O37871   8.812   7.700   5.928  0.4134  0.3062  0.0876
  275MOL0     C37872   8.869   7.708   6.064  0.6110 -0.6992  0.1009
  275MOL0     C37873   8.879   7.867   6.099  0.3975  0.1956 -0.3067
  275MOL0     C37874   8.922   7.894   6.243 -0.1080 -0.0578 -0.2821
  275MOL0     C37875   9.080   7.909   6.267  0.3315 -0.0408 -0.6182
  275MOL0     C37876   9.164   7.825   6.191  0.5195 -0.0214  0.1285
  275MOL0     C37877   9.240   7.763   6.115  0.4664  0.7372 -0.0544
  275MOL0     C37878   8.582   7.687   6.014 -0.0271 -0.0391 -0.2817
  275MOL0     C37879   8.455   7.637   5.982  0.8007 -0.0448 -0.3469
  275MOL0     C37880   8.362   7.621   6.098  0.0529 -0.4294  0.1092
  275MOL0     H37881   8.015   7.514   5.767 -1.6424  0.4154 -1.2989
  275MOL0     H37882   7.824   7.419   5.652  0.3201  0.6533  1.5568
  275MOL0     H37883   7.923   7.220   5.253 -1.6228 -1.1597 -1.2735
  275MOL0     H37884   7.817   7.361   5.275  0.0920  1.6865  2.7842
  275MOL0     H37885   7.720   7.077   5.302  2.5260 -0.0608 -0.8154
  275MOL0     H37886   7.616   7.215   5.282 -1.1677 -0.4302 -1.4491
  275MOL0     H37887   7.688   7.247   5.053 -1.3404 -0.4522  0.2232
  275MOL0     H37888   7.807   7.115   5.068  0.0199  1.0197 -1.9138
  275MOL0     H37889   7.630   6.947   5.079  0.3581 -1.3827 -3.9539
  275MOL0     H37890   7.500   7.057   5.107  0.0611 -4.6839  0.3739
  275MOL0     H37891   7.507   7.168   4.908  1.4624  0.4573 -0.4909
  275MOL0     H37892   7.479   6.982   4.907  0.3435 -2.4704  4.0366
  275MOL0     H37893   7.728   7.155   4.822 -0.0998  0.4000  2.7190
  275MOL0     H37894   7.716   6.974   4.850 -5.0396 -3.3721  0.6157
  275MOL0     H37895   7.562   6.957   4.658 -0.4967 -0.1141  0.3733
  275MOL0     H37896   7.699   7.045   4.619  0.4772  2.3599 -0.1991
  275MOL0     H37897   7.483   7.239   4.726  1.1633 -0.3985  0.3659
  275MOL0     H37898   7.578   7.249   4.581  0.1870  1.1974  1.4854
  275MOL0     H37899   7.445   7.218   4.367 -2.1000  0.5100 -0.8104
  275MOL0     H37900   7.192   7.167   4.197  2.2550 -0.9955 -0.3574
  275MOL0     H37901   7.068   7.106   4.303  0.1417 -0.0558  1.0975
  275MOL0     H37902   7.137   6.955   4.103 -1.0058  0.1191  1.0092
  275MOL0     H37903   7.303   6.956   4.171  0.4639  0.1792 -0.4413
  275MOL0     H37904   7.185   6.753   4.216  1.9269  1.5138 -1.0057
  275MOL0     H37905   7.230   6.829   4.363  2.5509  0.4966 -1.4765
  275MOL0     H37906   7.004   6.905   4.403  0.5185 -2.0588  1.7219
  275MOL0     H37907   6.939   6.881   4.242 -0.3131  1.4210  0.9184
  275MOL0     H37908   6.876   6.454   4.377  1.4783  0.5632  0.3841
  275MOL0     H37909   6.723   6.240   4.265  1.1259  0.6576  0.7933
  275MOL0     H37910   6.882   6.238   4.344  0.4327 -0.6448 -0.4111
  275MOL0     H37911   6.864   6.166   4.196 -0.3775 -0.6068  0.2059
  275MOL0     H37912   6.960   6.256   3.594  0.9156 -0.4270  0.9102
  275MOL0     H37913   6.858   6.078   3.455 -0.4257 -1.9999  1.2249
  275MOL0     H37914   6.453   5.931   3.554 -0.0688  2.1493  0.3518
  275MOL0     H37915   6.431   6.044   3.426  1.4844  1.4573  1.1593
  275MOL0     H37916   6.351   5.835   3.341 -0.3485 -0.3649  3.2203
  275MOL0     H37917   6.507   5.857   3.259 -1.9318  1.2849 -0.5708
  275MOL0     H37918   6.604   5.707   3.452 -0.6863  1.8319 -0.6799
  275MOL0     H37919   6.496   5.612   3.349 -0.8179 -0.9422  1.1019
  275MOL0     H37920   6.300   5.698   3.501 -1.2758  0.5327  2.1118
  275MOL0     H37921   6.424   5.728   3.622  1.5334 -0.9150 -0.5619
  275MOL0     H37922   6.509   5.483   3.581 -0.3945 -0.8059 -3.0526
  275MOL0     H37923   6.364   5.495   3.667 -1.2504 -0.9605 -1.5454
  275MOL0     H37924   6.417   5.397   3.382 -2.3512  0.9586 -2.5289
  275MOL0     H37925   6.270   5.473   3.400  0.2683 -0.4990 -0.1506
  275MOL0     H37926   6.230   5.324   3.619  0.5351 -1.8789  1.6851
  275MOL0     H37927   6.372   5.244   3.567  0.0431 -0.1470 -1.2539
  275MOL0     H37928   6.176   5.131   3.492 -1.9866  1.9117  0.3781
  275MOL0     H37929   6.263   5.181   3.349  0.8293 -0.0577  1.3107
  275MOL0     H37930   6.484   6.125   3.640 -0.2280 -1.3641 -1.9879
  275MOL0     H37931   6.569   6.312   3.789  0.6942 -0.1116  0.4734
  275MOL0     H37932   6.963   6.575   3.911  3.4842  0.6481  1.0439
  275MOL0     H37933   7.014   6.721   4.052 -1.3217  1.4725  1.8017
  275MOL0     H37934   8.100   7.201   5.413  2.0471  0.3734  0.6213
  275MOL0     H37935   8.277   7.349   5.481 -0.2416  2.1077 -0.4642
  275MOL0     H37936   8.515   7.599   5.651  1.4742  2.5087 -0.1132
  275MOL0     H37937   8.720   7.648   5.706 -0.8096 -0.8856 -0.3714
  275MOL0     H37938   8.802   7.661   6.137 -0.2009  0.2182 -0.0396
  275MOL0     H37939   8.970   7.665   6.059  0.5790 -0.7043 -0.7247
  275MOL0     H37940   8.782   7.914   6.080  0.0913  0.4163  1.5613
  275MOL0     H37941   8.947   7.920   6.032  0.4058  2.1040  1.1200
  275MOL0     H37942   8.881   7.989   6.278 -3.4284 -1.5838  0.3602
  275MOL0     H37943   8.883   7.816   6.309  0.5811  0.6273  0.9656
  275MOL0     H37944   9.113   7.900   6.371  0.8425  2.3047 -0.5309
  275MOL0     H37945   9.097   8.009   6.225  0.8727 -0.7847 -2.2608
  275MOL0     H37946   9.307   7.717   6.046 -0.2556  1.4139 -1.2411
  275MOL0     H37947   8.602   7.702   6.119  0.1084 -2.4556  0.0986
  275MOL0     H37948   8.375   7.697   6.176 -2.7416 -0.8013  1.0412
  275MOL0     H37949   8.258   7.624   6.065 -0.7542  4.1567  2.2877
  275MOL0     H37950   8.378   7.529   6.155  2.8592  1.0020  1.8418
  276MOL0     O37951   3.272   8.382   3.215 -0.4344 -0.7218 -0.3665
  276MOL0     C37952   3.249   8.273   3.266  0.2745  0.1459  0.1143
  276MOL0     O37953   3.328   8.216   3.361  0.1530  0.3371 -0.1310
  276MOL0     C37954   3.435   8.299   3.394 -0.4582 -0.0906  0.1093
  276MOL0     C37955   3.571   8.263   3.392 -0.6823  0.3268 -0.3154
  276MOL0     C37956   3.672   8.358   3.418  0.6955 -0.2027 -0.3031
  276MOL0     C37957   3.626   8.486   3.463  0.8545 -0.9262  0.1352
  276MOL0     O37958   3.721   8.579   3.510  0.5410 -0.1408  0.5773
  276MOL0     C37959   3.831   8.531   3.592  0.1423 -0.1800  1.0257
  276MOL0     C37960   3.895   8.643   3.676 -0.5089  0.1350 -0.1418
  276MOL0     C37961   3.796   8.704   3.773  0.2860 -0.2025  0.8778
  276MOL0     C37962   3.867   8.742   3.902 -0.2496  0.1286 -0.0639
  276MOL0     C37963   3.771   8.824   3.992  0.2840  0.2079  0.5685
  276MOL0     C37964   3.629   8.765   4.026 -0.5802  0.1420 -0.0985
  276MOL0     C37965   3.542   8.891   4.059  0.0097 -0.6343 -0.3344
  276MOL0     C37966   3.402   8.849   4.099 -0.1306 -0.3866 -0.3091
  276MOL0     N37967   3.322   8.816   3.983 -0.3818 -0.3851 -0.0649
  276MOL0     C37968   3.262   8.906   3.901  0.0082  0.6353  0.2162
  276MOL0     C37969   3.162   8.838   3.836 -0.3293 -0.2988 -0.8453
  276MOL0     C37970   3.065   8.889   3.737  0.2797 -0.1494 -0.5222
  276MOL0     C37971   3.111   8.870   3.590 -0.0174 -0.2619 -0.6577
  276MOL0     C37972   3.209   8.975   3.553  0.8248  0.3054  0.3121
  276MOL0     C37973   3.152   9.102   3.509 -0.0850 -0.6033  0.0015
  276MOL0     O37974   3.257   9.202   3.494  0.0906 -0.7394 -0.4336
  276MOL0     C37975   3.314   9.249   3.613 -0.7193 -0.2312  0.6999
  276MOL0     C37976   3.253   9.250   3.744 -0.6239  0.4426 -0.1338
  276MOL0     C37977   3.321   9.300   3.861 -0.4821  0.0154 -0.6893
  276MOL0     C37978   3.248   9.296   3.996  0.9099  0.4869 -0.0529
  276MOL0     C37979   3.450   9.359   3.844 -0.0197  0.0907  0.3588
  276MOL0     C37980   3.541   9.405   3.955  0.6877  0.2017 -0.0058
  276MOL0     O37981   3.524   9.348   4.076  0.3463  0.5242  0.2901
  276MOL0     C37982   3.600   9.362   4.189 -0.6861  0.7121 -0.1401
  276MOL0     C37983   3.661   9.479   4.236  0.2028 -0.3096  0.0637
  276MOL0     C37984   3.719   9.483   4.363 -0.2238 -0.5583 -0.4806
  276MOL0     C37985   3.710   9.372   4.440 -0.1195  1.3572 -0.0551
  276MOL0     O37986   3.763   9.364   4.563 -0.7365 -0.7308  0.2813
  276MOL0     C37987   3.728   9.471   4.649 -0.0978  0.8788 -1.2448
  276MOL0     C37988   3.578   9.484   4.688 -0.7617  0.4812 -0.6465
  276MOL0     C37989   3.527   9.349   4.755  0.2960  0.8912 -0.4158
  276MOL0     C37990   3.569   9.331   4.909 -0.0319  0.1504  0.2887
  276MOL0     C37991   3.493   9.214   4.969  0.7603  0.1494 -0.0056
  276MOL0     C37992   3.541   9.183   5.111  0.6494 -0.1427  0.5114
  276MOL0     C37993   3.478   9.064   5.183  0.5913  0.0773 -0.6544
  276MOL0     C37994   3.322   9.077   5.216  0.3397  0.0834  0.0520
  276MOL0    Cl37995   3.257   8.913   5.236 -0.2483 -0.1049  0.5396
  276MOL0     C37996   3.646   9.256   4.388  0.0619  0.0248 -0.5413
  276MOL0     C37997   3.595   9.248   4.262 -0.7201 -0.1923 -0.1704
  276MOL0     O37998   3.623   9.497   3.934  0.2404  0.3329  0.2241
  276MOL0     C37999   3.503   9.358   3.710 -0.6689  1.0770 -0.0386
  276MOL0     C38000   3.432   9.317   3.598 -0.3473 -0.2162  0.2415
  276MOL0     N38001   3.173   8.709   3.877  0.1816  0.1717  0.0616
  276MOL0     N38002   3.271   8.696   3.959 -0.4928  0.4108 -0.5494
  276MOL0     C38003   3.489   8.515   3.485 -0.4497 -0.0266 -0.6116
  276MOL0     C38004   3.396   8.419   3.449 -0.0958 -0.5861  0.1957
  276MOL0     C38005   3.139   8.191   3.212 -0.9003  0.2433  0.4452
  276MOL0     C38006   3.146   8.130   3.082  0.2087 -0.5610 -0.5961
  276MOL0     C38007   3.040   8.051   3.038 -1.5477 -0.9448 -0.1575
  276MOL0     C38008   2.925   8.027   3.107  0.1313 -0.7278  1.1645
  276MOL0     O38009   2.843   7.927   3.064  0.4943 -0.2960  0.3676
  276MOL0     C38010   2.840   7.798   3.110 -0.6397 -0.5820  0.0044
  276MOL0     C38011   2.701   7.767   3.160 -0.5556  0.4321 -0.1027
  276MOL0     C38012   2.678   7.633   3.241 -0.9330 -0.4443 -0.1676
  276MOL0     C38013   2.541   7.628   3.304 -0.0944  0.0773  0.2373
  276MOL0     C38014   2.517   7.714   3.426  0.2329  0.7465  0.1057
  276MOL0     C38015   2.490   7.779   3.526 -0.7294 -0.5626  0.1576
  276MOL0     C38016   2.920   8.081   3.237 -0.5214  0.8038  0.0208
  276MOL0     C38017   3.023   8.162   3.296  0.7976  0.6014  0.0088
  276MOL0     C38018   3.010   8.210   3.436 -0.5207  0.1295  0.2724
  276MOL0     H38019   3.600   8.165   3.355  1.9638  0.3242  1.4779
  276MOL0     H38020   3.778   8.338   3.415  0.2485 -4.9358  3.0875
  276MOL0     H38021   3.905   8.497   3.519  1.2735 -0.5503  2.3054
  276MOL0     H38022   3.794   8.452   3.658 -0.5509 -1.5725 -0.9304
  276MOL0     H38023   3.969   8.597   3.741 -1.2746 -1.3951 -0.3212
  276MOL0     H38024   3.956   8.711   3.615  0.4138  0.2108  0.8411
  276MOL0     H38025   3.739   8.793   3.743 -3.0081 -2.6541 -0.7018
  276MOL0     H38026   3.717   8.631   3.794  0.2719  0.1204  1.9823
  276MOL0     H38027   3.901   8.658   3.963 -0.6782  0.5955  0.8372
  276MOL0     H38028   3.958   8.798   3.879 -0.6345  0.5778 -0.5000
  276MOL0     H38029   3.745   8.913   3.934 -0.6834 -1.8232 -2.3912
  276MOL0     H38030   3.812   8.858   4.087  0.5660  0.1991  0.4484
  276MOL0     H38031   3.580   8.707   3.947  1.8837 -0.2854 -1.4286
  276MOL0     H38032   3.641   8.693   4.108  0.3962 -1.4371 -1.5454
  276MOL0     H38033   3.541   8.948   3.965 -1.9031 -0.3132 -0.1701
  276MOL0     H38034   3.574   8.951   4.144  1.2025 -1.1744 -0.3848
  276MOL0     H38035   3.404   8.759   4.161 -0.5581 -1.7382 -2.1896
  276MOL0     H38036   3.342   8.918   4.160 -1.7105 -0.9477 -1.1779
  276MOL0     H38037   3.271   9.014   3.896  0.9851  0.6204  1.1704
  276MOL0     H38038   3.028   8.988   3.762 -1.3002 -0.9334  0.3843
  276MOL0     H38039   2.973   8.831   3.746  0.8860 -0.9687  0.8093
  276MOL0     H38040   3.147   8.767   3.584  0.5577 -0.2377  1.5121
  276MOL0     H38041   3.026   8.869   3.521  0.0475  0.8832 -0.7759
  276MOL0     H38042   3.266   8.997   3.643 -1.1575  6.3386  0.5501
  276MOL0     H38043   3.286   8.932   3.489 -0.9027 -2.7264  0.0877
  276MOL0     H38044   3.108   9.087   3.410 -2.9657  3.6211  0.4000
  276MOL0     H38045   3.070   9.142   3.569  0.6055  2.3576 -0.8463
  276MOL0     H38046   3.153   9.208   3.756 -0.9777  0.6170 -2.0759
  276MOL0     H38047   3.143   9.282   3.969  1.2676 -0.4707 -0.9969
  276MOL0     H38048   3.275   9.383   4.059  2.6299 -0.9168  1.2700
  276MOL0     H38049   3.289   9.211   4.051  3.2502  0.5940 -1.4781
  276MOL0     H38050   3.652   9.570   4.177  0.6727 -1.8660 -2.5878
  276MOL0     H38051   3.769   9.572   4.401 -0.9874 -1.0838  1.9357
  276MOL0     H38052   3.780   9.454   4.744 -1.1234 -0.0424 -0.8179
  276MOL0     H38053   3.769   9.568   4.619 -2.5550  2.5959  0.5388
  276MOL0     H38054   3.568   9.570   4.754 -0.2264  2.1567 -2.6684
  276MOL0     H38055   3.511   9.514   4.607 -0.0089 -2.0116 -2.3038
  276MOL0     H38056   3.560   9.260   4.699 -4.6648  0.3194 -2.9216
  276MOL0     H38057   3.418   9.349   4.752  0.2134 -2.1495 -1.6678
  276MOL0     H38058   3.541   9.409   4.980  0.2068 -0.1600  0.7253
  276MOL0     H38059   3.675   9.305   4.908  0.2507  1.0393 -2.8527
  276MOL0     H38060   3.392   9.254   4.979  1.5086  2.1554  0.0065
  276MOL0     H38061   3.498   9.125   4.905  0.0712  1.6276 -2.2391
  276MOL0     H38062   3.534   9.283   5.156  1.8223  1.1270 -1.9554
  276MOL0     H38063   3.646   9.152   5.106  1.2566  1.5580  1.6424
  276MOL0     H38064   3.530   9.052   5.279  2.7412  0.4004 -1.7095
  276MOL0     H38065   3.486   8.974   5.121 -0.4130  0.8207 -1.9032
  276MOL0     H38066   3.268   9.130   5.137 -0.7196 -2.7316 -1.2107
  276MOL0     H38067   3.311   9.126   5.314 -2.7210  0.8321 -0.5662
  276MOL0     H38068   3.638   9.168   4.452 -1.6514 -1.1374 -2.2298
  276MOL0     H38069   3.559   9.154   4.223 -0.0393  0.2040 -1.8156
  276MOL0     H38070   3.603   9.400   3.707 -0.6499  0.9730 -1.6307
  276MOL0     H38071   3.474   9.342   3.501 -2.2885  0.9610 -0.3506
  276MOL0     H38072   3.461   8.616   3.512  1.1677  0.4954 -0.7525
  276MOL0     H38073   3.292   8.451   3.450 -0.4218 -1.6058  0.0755
  276MOL0     H38074   3.235   8.154   3.025  0.6380  1.4621  0.8216
  276MOL0     H38075   3.040   8.014   2.936 -5.3210 -0.5361 -0.4193
  276MOL0     H38076   2.860   7.735   3.023 -1.1107  0.9755 -1.2769
  276MOL0     H38077   2.918   7.779   3.185  1.3140  1.2671 -1.4302
  276MOL0     H38078   2.631   7.756   3.076 -1.7138  1.0558  0.7589
  276MOL0     H38079   2.662   7.853   3.215 -2.0573  1.2138 -2.2233
  276MOL0     H38080   2.672   7.556   3.164  0.3341 -0.6177 -0.1045
  276MOL0     H38081   2.759   7.613   3.311  3.1680  3.8652 -3.1403
  276MOL0     H38082   2.527   7.522   3.327  0.3645 -0.5865 -2.2588
  276MOL0     H38083   2.465   7.644   3.226  1.2573  2.5624 -0.6957
  276MOL0     H38084   2.465   7.846   3.606 -0.8898  0.5288 -0.7806
  276MOL0     H38085   2.837   8.038   3.291  0.4066 -1.7044 -0.4376
  276MOL0     H38086   3.020   8.141   3.520 -1.6448  0.7754  0.9565
  276MOL0     H38087   3.077   8.296   3.449  2.6345 -2.0216 -0.5444
  276MOL0     H38088   2.919   8.270   3.442 -0.7341 -0.1292 -0.3347
  277MOL0     O38089  10.042   5.497   9.494  0.8911  0.2451  0.1503
  277MOL0     C38090  10.116   5.423   9.556 -0.7002  0.6060 -0.0389
  277MOL0     O38091  10.104   5.388   9.687 -0.1846 -0.0988 -0.2966
  277MOL0     C38092   9.982   5.410   9.752 -0.2717 -0.5798 -0.1782
  277MOL0     C38093   9.981   5.442   9.888  0.0313  0.2736  0.3015
  277MOL0     C38094   9.858   5.467   9.951  0.2277  0.6844  0.2729
  277MOL0     C38095   9.730   5.457   9.873  0.2292 -0.3544 -0.6534
  277MOL0     O38096   9.616   5.459   9.937  0.3232  0.3147  0.5455
  277MOL0     C38097   9.584   5.579  10.011 -0.5951 -0.0223  0.0690
  277MOL0     C38098   9.486   5.542  10.132 -0.3992 -0.5392  0.1532
  277MOL0     C38099   9.557   5.460  10.241  0.3229 -0.3900  0.4437
  277MOL0     C38100   9.465   5.424  10.354 -0.3132  0.2789  0.5727
  277MOL0     C38101   9.534   5.364  10.485  0.1555 -0.2292  0.0950
  277MOL0     C38102   9.628   5.251  10.450 -0.2650 -0.4586 -0.5324
  277MOL0     C38103   9.571   5.127  10.369  0.2626  0.1161 -0.0696
  277MOL0     C38104   9.669   5.002  10.365 -0.9172 -0.1536 -0.1964
  277MOL0     N38105   9.797   5.050  10.315 -0.0776 -0.3753  0.4768
  277MOL0     C38106   9.813   5.096  10.193 -0.9383 -0.6230 -0.0073
  277MOL0     C38107   9.954   5.093  10.171  1.0141 -0.9265 -0.1496
  277MOL0     C38108  10.021   5.140  10.045  0.0466 -0.3091 -0.1081
  277MOL0     C38109  10.143   5.048  10.018  1.2181 -0.3202 -0.1680
  277MOL0     C38110  10.098   4.909   9.984  0.5637 -0.1566 -0.3010
  277MOL0     C38111  10.203   4.793  10.008 -1.1060 -1.0396 -0.5599
  277MOL0     O38112  10.215   4.775  10.152 -0.2577  0.3988  0.0546
  277MOL0     C38113  10.273   4.653  10.191  0.0385  0.4105  0.3557
  277MOL0     C38114  10.288   4.633  10.326 -0.2043 -0.0738 -0.1395
  277MOL0     C38115  10.350   4.517  10.368 -0.2372  1.3465  1.0079
  277MOL0     C38116  10.362   4.500  10.520  0.9290  0.0425  0.8580
  277MOL0     C38117  10.385   4.414  10.280 -0.1051 -0.6181  0.3419
  277MOL0     C38118  10.433   4.278  10.322  0.5749  0.7012  0.7637
  277MOL0     O38119  10.401   4.167  10.242  0.5674  0.7598 -0.0183
  277MOL0     C38120  10.464   4.047  10.272 -0.2118 -0.2574  0.7997
  277MOL0     C38121  10.440   3.967  10.382 -0.8337 -0.6209  0.2252
  277MOL0     C38122  10.494   3.829  10.391  0.1191  0.8538  0.6283
  277MOL0     C38123  10.569   3.774  10.291  0.4326 -0.0654  0.2091
  277MOL0     O38124  10.625   3.650  10.309 -0.1239 -0.5717  0.0752
  277MOL0     C38125  10.727   3.611  10.205  0.0483 -0.6579  1.1286
  277MOL0     C38126  10.847   3.702  10.218  1.1885  0.2617 -0.0795
  277MOL0     C38127  10.957   3.681  10.109  0.8950  0.4511  0.3124
  277MOL0     C38128  11.033   3.547  10.106 -0.1441  0.1452  0.6585
  277MOL0     C38129  11.147   3.547  10.001  0.1893 -0.1246 -0.0833
  277MOL0     C38130  11.196   3.402   9.995 -0.2572  0.5187  0.6172
  277MOL0     C38131  11.342   3.376   9.950  0.0116  0.4947  0.5526
  277MOL0     C38132  11.449   3.430  10.047  0.0783  0.4404  0.0058
  277MOL0    Cl38133  11.533   3.285  10.106 -0.2833  0.3846  0.2568
  277MOL0     C38134  10.575   3.853  10.168 -0.2200  1.0635 -0.7950
  277MOL0     C38135  10.534   3.985  10.163 -0.1083 -0.0845 -0.5065
  277MOL0     O38136  10.499   4.269  10.424 -0.4716  0.9577 -0.4140
  277MOL0     C38137  10.386   4.441  10.142  0.7625  0.1701 -0.2925
  277MOL0     C38138  10.323   4.560  10.102  0.5177  0.3575 -0.8122
  277MOL0     N38139  10.016   5.059  10.284 -0.8232  0.2269 -0.5062
  277MOL0     N38140   9.918   5.033  10.371  0.2015 -0.1645 -0.6166
  277MOL0     C38141   9.736   5.423   9.743 -0.2371  1.1268  0.0151
  277MOL0     C38142   9.859   5.402   9.683 -0.5285  0.5705 -0.3526
  277MOL0     C38143  10.238   5.368   9.474  0.9566  0.1037 -1.5928
  277MOL0     C38144  10.261   5.415   9.345  1.0288 -0.6988 -1.0030
  277MOL0     C38145  10.356   5.373   9.271 -0.0121 -0.5368 -0.8397
  277MOL0     C38146  10.451   5.283   9.318 -0.0887  0.7892  0.3746
  277MOL0     O38147  10.547   5.232   9.237 -0.5806 -0.3414  0.1060
  277MOL0     C38148  10.603   5.326   9.144 -0.2851 -0.1081 -0.4953
  277MOL0     C38149  10.750   5.293   9.119 -0.4045 -1.2943 -0.0043
  277MOL0     C38150  10.824   5.285   9.250 -0.0973  0.0098  0.3333
  277MOL0     C38151  10.862   5.415   9.325  0.4147 -0.6114  0.2856
  277MOL0     C38152  10.740   5.484   9.374 -0.5351 -0.3167 -0.3371
  277MOL0     C38153  10.645   5.537   9.433  0.0610 -0.1854 -0.5026
  277MOL0     C38154  10.433   5.231   9.446 -0.5181 -0.5287  0.2986
  277MOL0     C38155  10.314   5.259   9.515 -0.6090  0.0587 -0.2438
  277MOL0     C38156  10.294   5.180   9.645  0.4126  0.0956 -0.2670
  277MOL0     H38157  10.066   5.448   9.956  0.9189 -0.7864 -0.6722
  277MOL0     H38158   9.867   5.492  10.057 -0.3817  2.5272 -0.0686
  277MOL0     H38159   9.532   5.647   9.943 -1.0102 -0.2643  0.1369
  277MOL0     H38160   9.677   5.626  10.045  0.1579  0.3225 -2.2650
  277MOL0     H38161   9.451   5.639  10.169 -0.2841  0.8989 -3.0939
  277MOL0     H38162   9.398   5.489  10.094 -1.7388 -1.4688  4.1121
  277MOL0     H38163   9.604   5.370  10.201  0.6752 -0.7616  1.6324
  277MOL0     H38164   9.625   5.520  10.303 -1.6253  0.5145  1.8176
  277MOL0     H38165   9.399   5.505  10.388  1.2419  2.5640 -1.5176
  277MOL0     H38166   9.402   5.346  10.311 -1.9241  1.8521 -0.0468
  277MOL0     H38167   9.452   5.324  10.544 -1.2634  0.6553 -1.1964
  277MOL0     H38168   9.572   5.446  10.547 -1.8638  1.0121 -0.2058
  277MOL0     H38169   9.711   5.306  10.406 -0.2487  1.7479  1.9610
  277MOL0     H38170   9.656   5.213  10.549  1.8271  1.4871 -0.2774
  277MOL0     H38171   9.532   5.151  10.269  1.7239 -2.8066 -1.4889
  277MOL0     H38172   9.488   5.096  10.432  0.1288  3.7376  1.7796
  277MOL0     H38173   9.695   4.961  10.463  4.1651 -2.2558 -2.1065
  277MOL0     H38174   9.627   4.921  10.303 -2.3673 -0.3745  1.0026
  277MOL0     H38175   9.730   5.119  10.128 -1.0079  0.4888  0.4523
  277MOL0     H38176  10.058   5.243  10.048  1.5620 -0.6010 -3.5480
  277MOL0     H38177   9.945   5.137   9.966 -0.3022  1.0392  0.1385
  277MOL0     H38178  10.192   5.089   9.929  2.3300 -1.6110 -0.1835
  277MOL0     H38179  10.219   5.050  10.096  3.4535  0.6503 -2.2136
  277MOL0     H38180  10.008   4.881  10.039 -0.0991  0.8047 -0.8659
  277MOL0     H38181  10.064   4.904   9.880 -1.3780 -2.9300  0.3402
  277MOL0     H38182  10.164   4.708   9.951  0.3070 -3.0133  1.2231
  277MOL0     H38183  10.299   4.830   9.972 -0.7067 -1.0071  0.4842
  277MOL0     H38184  10.256   4.710  10.395  0.3018 -0.1876  0.2236
  277MOL0     H38185  10.297   4.564  10.580  0.8954  0.6546  0.1860
  277MOL0     H38186  10.463   4.522  10.556  0.5318  1.4790  1.1828
  277MOL0     H38187  10.340   4.400  10.558 -0.7140  0.7928  2.0477
  277MOL0     H38188  10.385   3.991  10.473 -0.9364  2.7119 -0.6020
  277MOL0     H38189  10.486   3.780  10.487  0.5668 -0.9437 -0.2114
  277MOL0     H38190  10.750   3.506  10.224 -0.2805 -1.3055 -1.6263
  277MOL0     H38191  10.681   3.598  10.107  3.3802 -1.3633 -0.4590
  277MOL0     H38192  10.822   3.807  10.201 -0.1875  0.3529  2.1017
  277MOL0     H38193  10.888   3.675  10.316  0.8446 -0.8231 -0.2110
  277MOL0     H38194  11.028   3.765  10.106 -0.9325  2.0133 -1.3908
  277MOL0     H38195  10.906   3.700  10.014  0.8651 -0.8641  0.0504
  277MOL0     H38196  10.966   3.472  10.063  2.8371 -0.8124 -2.7762
  277MOL0     H38197  11.071   3.522  10.206  1.1733  0.4173  0.2368
  277MOL0     H38198  11.117   3.595   9.908  0.9736  1.6540  0.5271
  277MOL0     H38199  11.236   3.602  10.033  0.9163 -1.2583 -0.1047
  277MOL0     H38200  11.128   3.364   9.918  1.7464 -1.2630 -0.3799
  277MOL0     H38201  11.184   3.343  10.087  2.0089 -0.9021  0.1009
  277MOL0     H38202  11.367   3.421   9.854  0.2472 -3.8436 -1.6892
  277MOL0     H38203  11.364   3.271   9.926  4.6594  1.3279  0.2539
  277MOL0     H38204  11.414   3.477  10.139  0.8655 -2.4081  1.8869
  277MOL0     H38205  11.517   3.504  10.002  1.3113 -0.8200 -0.2673
  277MOL0     H38206  10.610   3.798  10.081 -0.3006 -1.4695  0.6827
  277MOL0     H38207  10.538   4.029  10.064  0.2860 -3.9508 -2.3657
  277MOL0     H38208  10.415   4.375  10.061 -0.8603 -1.9681  0.7824
  277MOL0     H38209  10.323   4.580   9.995 -1.3829 -1.5249 -1.2498
  277MOL0     H38210   9.643   5.417   9.688  1.3917 -0.6884 -2.8019
  277MOL0     H38211   9.860   5.360   9.583 -2.1213 -0.6632  0.1158
  277MOL0     H38212  10.202   5.491   9.295 -0.2044 -2.0476 -1.6565
  277MOL0     H38213  10.364   5.429   9.178 -0.1057 -0.7162 -0.9550
  277MOL0     H38214  10.557   5.316   9.045 -2.6377 -6.2199  0.7939
  277MOL0     H38215  10.592   5.424   9.193 -0.6531 -1.0067  1.2810
  277MOL0     H38216  10.802   5.363   9.053  0.7640  1.5461  3.6091
  277MOL0     H38217  10.753   5.204   9.055  0.9557 -0.2902 -1.3945
  277MOL0     H38218  10.766   5.219   9.315  0.7345 -0.7311  0.3478
  277MOL0     H38219  10.921   5.237   9.236  0.1794 -0.2509  2.6985
  277MOL0     H38220  10.911   5.475   9.249  0.6505  1.6108  2.0843
  277MOL0     H38221  10.930   5.393   9.408  2.3459  0.4025 -0.9759
  277MOL0     H38222  10.561   5.591   9.473  0.0508  0.5143 -1.4306
  277MOL0     H38223  10.498   5.147   9.466  2.3338  0.8685 -2.2913
  277MOL0     H38224  10.191   5.146   9.658 -1.1714  3.7627 -1.6584
  277MOL0     H38225  10.358   5.092   9.644 -0.2219 -0.3698 -0.4156
  277MOL0     H38226  10.325   5.242   9.730 -2.3414  0.7249  0.3907
  278MOL0     O38227   3.936   6.800   2.086  0.2579 -0.2977  0.2045
  278MOL0     C38228   4.043   6.864   2.078  1.0398 -0.5030 -0.5047
  278MOL0     O38229   4.058   6.999   2.067  0.1486  0.1990 -0.6276
  278MOL0     C38230   3.942   7.070   2.049  0.5176 -0.7839 -0.1963
  278MOL0     C38231   3.871   7.086   2.166  0.3685  0.5016 -0.6758
  278MOL0     C38232   3.768   7.176   2.178  0.5938 -0.6579  0.9452
  278MOL0     C38233   3.736   7.264   2.070  0.1267 -0.0194  0.5212
  278MOL0     O38234   3.625   7.341   2.083  0.6077  0.4996 -0.6129
  278MOL0     C38235   3.507   7.279   2.028  0.6704  0.1891 -1.2359
  278MOL0     C38236   3.385   7.362   2.064 -0.6252  0.5629  0.0413
  278MOL0     C38237   3.395   7.491   2.000  0.2396 -0.4543  0.3490
  278MOL0     C38238   3.269   7.578   2.031 -0.6307 -0.0871 -0.3553
  278MOL0     C38239   3.286   7.727   1.998  0.1414  0.1420  0.3080
  278MOL0     C38240   3.342   7.760   1.866 -0.8883 -0.0915  0.1348
  278MOL0     C38241   3.337   7.913   1.855  0.2026 -0.2446 -0.2892
  278MOL0     C38242   3.369   7.965   1.718 -0.7446 -0.2790 -0.4478
  278MOL0     N38243   3.496   7.919   1.656  0.7691 -0.2134 -0.1793
  278MOL0     C38244   3.623   7.936   1.705  0.6759 -0.4681  0.4188
  278MOL0     C38245   3.707   7.872   1.621 -0.1751  0.3984  0.0238
  278MOL0     C38246   3.853   7.864   1.631 -0.1597  0.6540  0.5463
  278MOL0     C38247   3.912   7.944   1.518 -0.0549 -0.2947 -1.0477
  278MOL0     C38248   3.921   7.873   1.383 -0.0634  0.2158  0.3040
  278MOL0     C38249   3.961   7.962   1.265 -0.1551 -0.0862 -0.1260
  278MOL0     O38250   4.077   8.028   1.282 -0.5383 -0.6540  0.3075
  278MOL0     C38251   4.126   8.106   1.176  0.8535 -0.0688  0.1582
  278MOL0     C38252   4.243   8.162   1.196 -0.8282  0.5240  1.3008
  278MOL0     C38253   4.281   8.268   1.118  0.0187 -1.2729  0.4462
  278MOL0     C38254   4.416   8.334   1.150  0.7781  0.5539  0.5848
  278MOL0     C38255   4.201   8.304   1.007 -0.3074  0.1002  0.1424
  278MOL0     C38256   4.225   8.416   0.918  0.0715  0.0027  0.0562
  278MOL0     O38257   4.223   8.537   0.977  0.9548  0.4856  0.1349
  278MOL0     C38258   4.240   8.644   0.887  0.2255  0.4786 -0.3005
  278MOL0     C38259   4.133   8.687   0.818  0.0688  0.2420  0.4574
  278MOL0     C38260   4.137   8.807   0.749 -0.0039  0.0171 -1.2182
  278MOL0     C38261   4.247   8.884   0.747 -0.5486 -0.3913  0.3454
  278MOL0     O38262   4.244   9.005   0.679 -0.2453 -0.7871 -0.6381
  278MOL0     C38263   4.367   9.069   0.647  0.2029  0.8741  0.2695
  278MOL0     C38264   4.351   9.153   0.519 -0.4079 -0.0430  0.7338
  278MOL0     C38265   4.269   9.285   0.543 -0.6502 -0.1761  0.6888
  278MOL0     C38266   4.270   9.366   0.423  0.0138  0.1919  0.2081
  278MOL0     C38267   4.203   9.507   0.437  0.4782 -0.5280 -0.2827
  278MOL0     C38268   4.280   9.593   0.545 -0.3492 -0.2623  0.2555
  278MOL0     C38269   4.240   9.740   0.538 -0.2977  0.6813  0.1717
  278MOL0     C38270   4.326   9.818   0.633 -0.6696 -0.4255  0.2771
  278MOL0    Cl38271   4.270   9.991   0.625 -0.0751  0.4999  0.3433
  278MOL0     C38272   4.362   8.845   0.829  0.0485 -0.7604 -0.8860
  278MOL0     C38273   4.356   8.726   0.900 -0.1920  0.2896 -0.4936
  278MOL0     O38274   4.249   8.391   0.802 -0.2783  0.3312  0.2607
  278MOL0     C38275   4.084   8.230   0.983  0.1043 -0.5247 -0.4056
  278MOL0     C38276   4.050   8.129   1.064  0.0344 -0.3027 -0.2481
  278MOL0     N38277   3.632   7.810   1.522 -0.6906  0.4567  0.0603
  278MOL0     N38278   3.510   7.831   1.549 -0.0329  0.3819  0.4762
  278MOL0     C38279   3.822   7.257   1.958  0.0486  0.2849  0.3192
  278MOL0     C38280   3.920   7.157   1.941 -0.4258 -0.3367 -0.4468
  278MOL0     C38281   4.170   6.783   2.068 -0.5740  0.4571  0.1837
  278MOL0     C38282   4.162   6.647   2.070  0.9822  0.7921 -0.0509
  278MOL0     C38283   4.257   6.552   2.041 -0.1734  0.5406 -1.2809
  278MOL0     C38284   4.380   6.601   2.015  0.6194 -0.1750 -0.6255
  278MOL0     O38285   4.477   6.504   2.003  0.5244  0.2901  0.4559
  278MOL0     C38286   4.606   6.544   1.951  0.2096 -0.5200 -0.1210
  278MOL0     C38287   4.690   6.433   1.889 -0.6985  0.0837 -0.6907
  278MOL0     C38288   4.702   6.301   1.969 -0.5882 -0.0129 -0.4754
  278MOL0     C38289   4.749   6.191   1.879 -0.8048 -0.4728 -0.2923
  278MOL0     C38290   4.629   6.120   1.831 -0.0326 -0.0783  0.4561
  278MOL0     C38291   4.536   6.046   1.792 -0.0403  0.5108  0.3615
  278MOL0     C38292   4.398   6.738   2.027 -0.2397 -0.6360 -0.5232
  278MOL0     C38293   4.298   6.827   2.046  0.1580 -0.4699  0.2047
  278MOL0     C38294   4.328   6.972   2.036 -0.1225  0.2738 -0.4529
  278MOL0     H38295   3.905   7.032   2.254 -1.4500 -2.7715 -1.8287
  278MOL0     H38296   3.713   7.168   2.271 -1.8568  1.5222 -0.1852
  278MOL0     H38297   3.494   7.187   2.085  3.1772 -0.6124 -1.8857
  278MOL0     H38298   3.509   7.248   1.924 -0.4460  3.3521 -2.3190
  278MOL0     H38299   3.290   7.310   2.052 -0.4016  0.2656 -0.5047
  278MOL0     H38300   3.379   7.398   2.167  0.3665  2.5418 -0.5277
  278MOL0     H38301   3.489   7.541   2.027  1.8934 -2.2354 -1.7792
  278MOL0     H38302   3.399   7.474   1.892 -4.3300 -2.3774  0.2548
  278MOL0     H38303   3.182   7.528   1.988 -0.9140  0.7673 -0.7873
  278MOL0     H38304   3.253   7.585   2.139 -1.4007 -1.8501 -0.3197
  278MOL0     H38305   3.346   7.769   2.079 -0.1040  1.5060 -0.1974
  278MOL0     H38306   3.188   7.768   2.024 -0.2159 -0.7926  0.5001
  278MOL0     H38307   3.448   7.734   1.869 -0.3716  1.7395  3.5967
  278MOL0     H38308   3.289   7.714   1.782  0.4142 -0.2658 -0.6064
  278MOL0     H38309   3.416   7.949   1.922  0.4929 -2.0588  0.3930
  278MOL0     H38310   3.241   7.954   1.890  1.4720  0.9623  2.0172
  278MOL0     H38311   3.280   7.938   1.659 -1.6901 -3.7113  2.2273
  278MOL0     H38312   3.375   8.075   1.722  2.6092 -0.4031  0.1644
  278MOL0     H38313   3.657   7.996   1.789  0.8632 -1.9004  1.4252
  278MOL0     H38314   3.881   7.759   1.629  0.2526  0.7404  1.1630
  278MOL0     H38315   3.866   7.909   1.730 -0.7338 -1.8698  1.8544
  278MOL0     H38316   3.853   8.032   1.491  0.1826  0.6665  1.3194
  278MOL0     H38317   4.005   7.987   1.558 -1.4203  0.6177  1.3653
  278MOL0     H38318   3.977   7.779   1.385 -1.8452 -0.9087 -0.6970
  278MOL0     H38319   3.818   7.854   1.353  0.8798 -0.7360 -2.7329
  278MOL0     H38320   3.969   7.911   1.169 -0.2573  2.3654 -1.5143
  278MOL0     H38321   3.878   8.033   1.255  0.3547  0.6727  0.9509
  278MOL0     H38322   4.306   8.130   1.278  3.3553  2.7842 -0.6637
  278MOL0     H38323   4.393   8.432   1.192 -1.0359  0.4100  0.0357
  278MOL0     H38324   4.470   8.345   1.055 -0.8030  3.0129 -0.1399
  278MOL0     H38325   4.481   8.281   1.219 -0.9287  0.8341  2.5231
  278MOL0     H38326   4.048   8.621   0.829  0.2255 -0.1560 -0.6533
  278MOL0     H38327   4.046   8.836   0.696 -0.0649  0.1040 -1.0678
  278MOL0     H38328   4.402   9.127   0.733 -0.6184 -0.6685  1.7070
  278MOL0     H38329   4.449   8.998   0.630 -0.0070  0.3145  1.4303
  278MOL0     H38330   4.451   9.175   0.478  0.9453 -1.7079  2.9379
  278MOL0     H38331   4.295   9.094   0.446 -0.2089 -0.8295  1.2177
  278MOL0     H38332   4.308   9.335   0.632  1.5049 -3.2467  1.6335
  278MOL0     H38333   4.163   9.261   0.555 -0.7468 -1.4543 -2.0933
  278MOL0     H38334   4.207   9.315   0.349 -1.7123  1.6942  0.5738
  278MOL0     H38335   4.371   9.370   0.381  0.7482  0.0063  1.9107
  278MOL0     H38336   4.212   9.560   0.342  0.5090 -0.5647 -0.3002
  278MOL0     H38337   4.098   9.494   0.465  1.2055 -1.8417  2.1314
  278MOL0     H38338   4.386   9.597   0.518 -0.8631 -0.8943 -2.1055
  278MOL0     H38339   4.266   9.565   0.650 -0.1762 -0.4926  0.2184
  278MOL0     H38340   4.135   9.746   0.567 -0.2227 -0.8549  0.8666
  278MOL0     H38341   4.240   9.787   0.440 -1.8631 -0.8669 -0.6224
  278MOL0     H38342   4.433   9.815   0.611 -0.0476  0.2906  2.8212
  278MOL0     H38343   4.317   9.766   0.729  2.8570  1.4408  1.8151
  278MOL0     H38344   4.443   8.916   0.846 -1.6493  1.4216 -1.3797
  278MOL0     H38345   4.433   8.689   0.967 -1.3206  0.2783  0.8510
  278MOL0     H38346   4.011   8.247   0.904  1.6026  0.3462 -1.6640
  278MOL0     H38347   3.959   8.073   1.047 -0.6318  1.3461 -2.6724
  278MOL0     H38348   3.800   7.321   1.873  2.0126  1.7245  0.8299
  278MOL0     H38349   3.986   7.155   1.855 -0.7815  1.1812 -0.7739
  278MOL0     H38350   4.078   6.585   2.099  3.5375 -4.6871 -2.8941
  278MOL0     H38351   4.247   6.444   2.055 -0.7469  1.0111  3.3404
  278MOL0     H38352   4.609   6.620   1.872  1.8819 -0.6120 -0.1842
  278MOL0     H38353   4.657   6.583   2.040 -1.0490 -2.1007  1.3414
  278MOL0     H38354   4.794   6.463   1.874  0.2353 -3.3407 -1.9758
  278MOL0     H38355   4.645   6.413   1.791  0.9508 -0.5608 -1.3544
  278MOL0     H38356   4.774   6.318   2.050 -0.0926  3.1659 -1.4277
  278MOL0     H38357   4.610   6.274   2.021  0.8364 -3.0021  0.7314
  278MOL0     H38358   4.809   6.117   1.933  2.4587  1.7283 -0.5964
  278MOL0     H38359   4.818   6.228   1.802 -1.0699 -2.9427 -1.8203
  278MOL0     H38360   4.464   5.969   1.771  0.3915 -0.7430  3.0300
  278MOL0     H38361   4.502   6.768   2.030 -0.5985  0.6825 -0.7123
  278MOL0     H38362   4.285   7.006   1.942  1.2325 -1.0940 -1.6166
  278MOL0     H38363   4.287   7.035   2.115 -1.6362 -0.6491 -0.4607
  278MOL0     H38364   4.436   6.988   2.025 -0.1632  0.1976 -0.9840
  279MOL0     O38365   3.468   2.390   3.250 -0.7451  0.0974  0.2211
  279MOL0     C38366   3.428   2.442   3.356 -0.5500  0.0388 -0.1013
  279MOL0     O38367   3.501   2.502   3.458 -0.5670  0.0109  0.3194
  279MOL0     C38368   3.631   2.487   3.446  0.1023 -0.0406  0.7853
  279MOL0     C38369   3.717   2.568   3.361 -0.3654 -0.1667 -1.2300
  279MOL0     C38370   3.857   2.548   3.357 -0.3946 -1.2296  0.4077
  279MOL0     C38371   3.908   2.449   3.441 -0.2270  0.7086 -0.8500
  279MOL0     O38372   4.044   2.459   3.448 -0.0862  0.4251  0.7456
  279MOL0     C38373   4.109   2.447   3.573  0.2622 -0.4183 -0.7379
  279MOL0     C38374   4.238   2.521   3.542  0.3676  0.0594 -0.4021
  279MOL0     C38375   4.315   2.550   3.673  0.0219 -0.4636  1.2823
  279MOL0     C38376   4.401   2.429   3.724  0.4732  1.1710  0.2508
  279MOL0     C38377   4.505   2.468   3.840 -0.3840 -0.9135  0.4244
  279MOL0     C38378   4.603   2.369   3.895 -0.0386 -0.4540  0.1622
  279MOL0     C38379   4.637   2.381   4.039  0.3074  0.3390  0.6016
  279MOL0     C38380   4.749   2.285   4.070 -1.0018  0.5259 -0.0743
  279MOL0     N38381   4.803   2.319   4.201 -1.0000 -0.8028  0.0635
  279MOL0     C38382   4.819   2.447   4.262  0.2846  0.5846 -0.3783
  279MOL0     C38383   4.893   2.420   4.374  0.4638 -0.0438 -0.4998
  279MOL0     C38384   4.911   2.536   4.473 -0.1207  0.0206 -0.4765
  279MOL0     C38385   5.046   2.595   4.471  0.3854  0.5803  0.4181
  279MOL0     C38386   5.149   2.503   4.530  1.1065  0.4341 -0.4217
  279MOL0     C38387   5.278   2.568   4.565  0.4178 -1.1079  0.7422
  279MOL0     O38388   5.282   2.577   4.704 -0.3292 -0.3703 -0.1770
  279MOL0     C38389   5.317   2.688   4.773 -0.1107 -0.1768  0.7705
  279MOL0     C38390   5.376   2.798   4.715  0.1649  0.2352 -0.4737
  279MOL0     C38391   5.391   2.914   4.791 -0.1911 -0.1746 -0.9531
  279MOL0     C38392   5.432   3.043   4.722  0.4261  0.3582  0.5302
  279MOL0     C38393   5.366   2.912   4.928 -0.2300  0.7099 -1.1146
  279MOL0     C38394   5.396   3.026   5.019 -0.3664  0.6051  0.6271
  279MOL0     O38395   5.488   3.118   4.980  0.2055 -0.8337 -0.4963
  279MOL0     C38396   5.550   3.191   5.077  0.1750 -0.3085  0.2135
  279MOL0     C38397   5.545   3.339   5.101 -0.7706 -0.0287  1.0760
  279MOL0     C38398   5.625   3.399   5.193 -0.0568  0.2785 -0.4292
  279MOL0     C38399   5.701   3.331   5.282  0.3750 -0.0373 -1.3401
  279MOL0     O38400   5.753   3.408   5.381 -0.6226  0.3127 -0.4592
  279MOL0     C38401   5.824   3.352   5.488 -0.9513 -0.1963 -0.5431
  279MOL0     C38402   5.967   3.368   5.447  0.7120 -0.5172  1.0092
  279MOL0     C38403   6.058   3.340   5.555  0.0728  0.1786 -0.8871
  279MOL0     C38404   6.113   3.471   5.617  0.2445 -0.1091  0.9322
  279MOL0     C38405   6.217   3.541   5.527  0.3430  0.7532  0.2712
  279MOL0     C38406   6.263   3.674   5.583 -0.3969  0.5782  0.7466
  279MOL0     C38407   6.397   3.712   5.520  0.3183 -0.2234  0.2066
  279MOL0     C38408   6.384   3.755   5.371  0.3387 -0.0447 -0.4143
  279MOL0    Cl38409   6.408   3.614   5.275  0.2017 -0.0478 -0.1206
  279MOL0     C38410   5.707   3.190   5.266 -0.1299 -0.3050 -0.4411
  279MOL0     C38411   5.632   3.123   5.169 -0.1065 -0.2535 -0.1086
  279MOL0     O38412   5.335   3.021   5.126  0.3287  0.4869 -0.6532
  279MOL0     C38413   5.306   2.804   4.982  0.5124  1.1520 -0.8566
  279MOL0     C38414   5.289   2.688   4.911 -1.2206 -0.1969  0.0907
  279MOL0     N38415   4.902   2.282   4.399  0.2139  0.3978  0.0550
  279MOL0     N38416   4.844   2.223   4.293  0.1386 -0.7728 -0.2900
  279MOL0     C38417   3.822   2.368   3.527  0.0965  0.2663 -0.1421
  279MOL0     C38418   3.684   2.389   3.523 -0.7699 -0.3798 -1.1928
  279MOL0     C38419   3.284   2.465   3.371 -0.4605 -0.8733  0.8037
  279MOL0     C38420   3.245   2.516   3.498 -0.0526  0.3025 -0.0848
  279MOL0     C38421   3.109   2.539   3.516 -0.2734  0.1800  0.0431
  279MOL0     C38422   3.009   2.529   3.416  0.0336  0.4122 -1.2655
  279MOL0     O38423   2.875   2.555   3.449 -0.6286 -0.3043 -0.1922
  279MOL0     C38424   2.787   2.473   3.390  0.2547  0.1158  0.7263
  279MOL0     C38425   2.656   2.473   3.486  0.6397 -0.1116  1.5557
  279MOL0     C38426   2.537   2.485   3.405  0.9662 -0.4152 -0.7814
  279MOL0     C38427   2.414   2.458   3.492 -0.2439  0.0553 -0.1884
  279MOL0     C38428   2.300   2.424   3.407 -0.6591 -0.2633  0.0346
  279MOL0     C38429   2.215   2.398   3.320 -0.4611  0.8984 -0.8797
  279MOL0     C38430   3.052   2.488   3.290 -0.1264 -0.0189 -0.1679
  279MOL0     C38431   3.183   2.459   3.264  0.2236 -0.1074  0.5574
  279MOL0     C38432   3.204   2.406   3.126 -0.0115 -0.0544 -0.2666
  279MOL0     H38433   3.663   2.642   3.303  1.3167  1.3700 -0.9526
  279MOL0     H38434   3.917   2.623   3.306  1.3795 -2.3115  0.8264
  279MOL0     H38435   4.123   2.340   3.593 -0.9306 -0.8733 -2.1360
  279MOL0     H38436   4.056   2.490   3.659  2.6045 -0.8826  1.0313
  279MOL0     H38437   4.295   2.462   3.470  0.9565 -2.1793  1.7701
  279MOL0     H38438   4.209   2.610   3.485  1.6952 -0.8896 -2.7177
  279MOL0     H38439   4.386   2.631   3.656 -1.3263  0.0406 -2.8566
  279MOL0     H38440   4.245   2.579   3.752  0.5077 -2.2994  2.4615
  279MOL0     H38441   4.332   2.351   3.758  0.5916  0.5559 -0.8731
  279MOL0     H38442   4.463   2.381   3.649  0.5333  1.2524  0.2489
  279MOL0     H38443   4.431   2.475   3.920 -2.2834 -0.3956 -1.2765
  279MOL0     H38444   4.557   2.560   3.812  1.2227 -0.9351  3.0596
  279MOL0     H38445   4.554   2.272   3.878  3.7141 -2.4010 -0.7775
  279MOL0     H38446   4.696   2.382   3.838  0.0409  2.7399  0.8540
  279MOL0     H38447   4.547   2.348   4.092  0.5248 -1.4896 -0.1005
  279MOL0     H38448   4.663   2.485   4.062 -0.8779  0.0843  3.5936
  279MOL0     H38449   4.700   2.187   4.075 -0.9768  0.4598 -1.0383
  279MOL0     H38450   4.816   2.280   3.985  0.3752 -0.3001  1.0219
  279MOL0     H38451   4.790   2.545   4.226  0.6097 -0.3997 -3.6294
  279MOL0     H38452   4.885   2.505   4.575  0.7744 -0.1740 -0.3008
  279MOL0     H38453   4.845   2.621   4.453  3.9493  3.4052 -0.8713
  279MOL0     H38454   5.074   2.618   4.368 -2.8668 -0.2252 -0.7511
  279MOL0     H38455   5.050   2.689   4.527  5.8740  0.4694  0.7878
  279MOL0     H38456   5.101   2.466   4.621  1.3803 -0.4833 -0.6349
  279MOL0     H38457   5.171   2.420   4.462 -3.2811  0.5697 -2.3329
  279MOL0     H38458   5.371   2.524   4.526  4.1356  4.6674  1.8870
  279MOL0     H38459   5.281   2.664   4.512  1.6875 -0.6132  1.6602
  279MOL0     H38460   5.393   2.794   4.608 -1.4783 -0.5692 -0.7400
  279MOL0     H38461   5.404   3.043   4.616  0.9617 -0.8392  0.3737
  279MOL0     H38462   5.540   3.061   4.725  0.5865 -0.0989 -1.2857
  279MOL0     H38463   5.383   3.132   4.763 -2.0693  1.4238 -4.1408
  279MOL0     H38464   5.485   3.399   5.034 -2.5184  1.2292  3.5852
  279MOL0     H38465   5.630   3.507   5.209  1.4835 -0.0232  1.6256
  279MOL0     H38466   5.801   3.416   5.574  0.5268 -1.4505  0.8750
  279MOL0     H38467   5.806   3.245   5.504 -0.3527 -0.6635 -2.6734
  279MOL0     H38468   5.985   3.291   5.371  1.5913  0.7131 -0.0590
  279MOL0     H38469   5.975   3.469   5.406 -0.2421  0.3396  2.7873
  279MOL0     H38470   6.138   3.275   5.520  1.6440  2.1879 -1.2543
  279MOL0     H38471   5.999   3.287   5.630  1.2658  0.3014  0.1820
  279MOL0     H38472   6.157   3.442   5.714 -2.5719 -1.5612  1.8777
  279MOL0     H38473   6.038   3.551   5.625  0.3857  0.4661 -2.3365
  279MOL0     H38474   6.307   3.480   5.537 -1.0263 -1.0362  3.5618
  279MOL0     H38475   6.193   3.547   5.421  3.8922  2.6779 -0.5585
  279MOL0     H38476   6.269   3.659   5.692 -2.7836  2.1878  1.1876
  279MOL0     H38477   6.199   3.762   5.580  1.6839  2.3403  3.3233
  279MOL0     H38478   6.467   3.630   5.534 -0.0236 -0.9414 -1.9662
  279MOL0     H38479   6.437   3.804   5.563  0.1620 -0.5703  1.1151
  279MOL0     H38480   6.466   3.825   5.352  0.8127 -0.0293  1.4787
  279MOL0     H38481   6.289   3.803   5.348 -0.8750 -1.7198  0.8902
  279MOL0     H38482   5.767   3.136   5.339 -1.7882 -0.6552  0.7139
  279MOL0     H38483   5.636   3.014   5.165  4.0899 -0.2764 -3.8768
  279MOL0     H38484   5.288   2.799   5.089 -1.3572 -0.1109 -1.1855
  279MOL0     H38485   5.251   2.593   4.948  1.2612 -1.2053  0.2656
  279MOL0     H38486   3.859   2.295   3.599 -1.7594  0.3598  0.9721
  279MOL0     H38487   3.627   2.335   3.598  0.8108 -0.0594  0.3193
  279MOL0     H38488   3.309   2.557   3.575 -1.2535  1.9294  0.1175
  279MOL0     H38489   3.069   2.591   3.602 -3.1629 -1.1893 -0.3471
  279MOL0     H38490   2.760   2.508   3.290  0.3200 -1.6626  0.0463
  279MOL0     H38491   2.820   2.370   3.372  2.7398  0.8373  0.8332
  279MOL0     H38492   2.646   2.544   3.568 -2.1501 -0.9940  2.0808
  279MOL0     H38493   2.658   2.371   3.526 -0.1649 -0.5047  0.6228
  279MOL0     H38494   2.526   2.583   3.356 -1.0245 -0.8753 -1.3155
  279MOL0     H38495   2.549   2.421   3.317  2.6655  0.1583 -1.0213
  279MOL0     H38496   2.389   2.553   3.539 -2.0574 -1.5606  2.3362
  279MOL0     H38497   2.434   2.381   3.567 -0.8438  3.0586  3.3508
  279MOL0     H38498   2.144   2.377   3.242 -1.1746 -2.0494  0.4028
  279MOL0     H38499   2.974   2.483   3.214 -1.4756  0.7604  1.1100
  279MOL0     H38500   3.229   2.300   3.136  1.6977  0.3834  0.4692
  279MOL0     H38501   3.117   2.427   3.063 -0.4258 -3.2934 -0.9156
  279MOL0     H38502   3.295   2.442   3.076  0.8706 -2.6341 -0.6521
  280MOL0     O38503   4.673   5.098  11.402  0.5062  0.0170  1.0802
  280MOL0     C38504   4.738   4.992  11.386  0.0847 -0.6527 -0.5451
  280MOL0     O38505   4.820   4.970  11.280  0.7651 -0.1728 -0.1533
  280MOL0     C38506   4.816   5.057  11.177  0.4935 -0.4712  0.1248
  280MOL0     C38507   4.888   5.172  11.184 -0.7857 -0.1296 -0.0169
  280MOL0     C38508   4.882   5.265  11.081  0.2011 -0.4016  0.9169
  280MOL0     C38509   4.819   5.233  10.966 -0.4311 -0.0719 -0.2596
  280MOL0     O38510   4.817   5.323  10.863 -0.1727  0.3299  0.4747
  280MOL0     C38511   4.681   5.375  10.850 -0.2490 -0.4387 -0.8219
  280MOL0     C38512   4.606   5.358  10.719  0.1040 -0.1833  0.1219
  280MOL0     C38513   4.695   5.390  10.599  0.2139 -0.0788  0.0251
  280MOL0     C38514   4.617   5.410  10.465  0.3011 -0.4837 -0.1600
  280MOL0     C38515   4.707   5.423  10.342 -0.1232  0.0076 -0.1245
  280MOL0     C38516   4.772   5.564  10.345  0.4748  0.0682 -0.1731
  280MOL0     C38517   4.680   5.693  10.312  0.3424  0.0951  0.6817
  280MOL0     C38518   4.747   5.787  10.220  1.0728 -0.4564  0.7171
  280MOL0     N38519   4.848   5.866  10.292  0.6742 -0.4731  0.4511
  280MOL0     C38520   4.978   5.883  10.245 -0.3747  0.9684  0.8767
  280MOL0     C38521   5.019   5.986  10.320 -0.6867  0.0512 -1.1022
  280MOL0     C38522   5.156   6.042  10.308 -0.9406 -0.5813 -0.6345
  280MOL0     C38523   5.248   5.941  10.361 -0.5297 -0.3091  0.8293
  280MOL0     C38524   5.393   5.988  10.388 -0.3647  0.0669  0.2911
  280MOL0     C38525   5.469   5.908  10.492  0.6478 -0.4243  0.3564
  280MOL0     O38526   5.405   5.899  10.615  0.3219  0.1671  0.0921
  280MOL0     C38527   5.422   6.002  10.708  0.1698  1.3253 -0.1463
  280MOL0     C38528   5.356   5.994  10.832 -0.0402 -0.8308 -1.0398
  280MOL0     C38529   5.371   6.083  10.941 -1.0542 -0.8171  0.5442
  280MOL0     C38530   5.281   6.089  11.056  0.4182 -0.0017 -0.2437
  280MOL0     C38531   5.457   6.186  10.921 -0.0774 -0.4362  0.4820
  280MOL0     C38532   5.487   6.297  11.025 -0.5293  0.6994  0.4267
  280MOL0     O38533   5.540   6.409  10.985 -0.4716  0.3487  0.4193
  280MOL0     C38534   5.561   6.520  11.073  0.1991  0.2542  0.1708
  280MOL0     C38535   5.680   6.586  11.067 -1.0345  0.6052 -0.5474
  280MOL0     C38536   5.704   6.704  11.126  0.4502  0.3526  0.3878
  280MOL0     C38537   5.605   6.765  11.209  0.0829 -0.5816 -0.8572
  280MOL0     O38538   5.647   6.882  11.278  0.1311 -0.2168  0.1455
  280MOL0     C38539   5.567   6.942  11.377  0.6589  0.4060 -0.6054
  280MOL0     C38540   5.587   6.854  11.508 -0.0874 -0.2910  0.1085
  280MOL0     C38541   5.722   6.884  11.575 -0.4284  0.0188 -0.7984
  280MOL0     C38542   5.749   6.823  11.717 -0.3417  0.4088 -0.1119
  280MOL0     C38543   5.873   6.882  11.791 -0.2989  0.4487 -0.5173
  280MOL0     C38544   5.940   6.780  11.883  0.3561 -0.2313  0.6089
  280MOL0     C38545   5.878   6.758  12.018  0.1683 -0.1501 -0.4750
  280MOL0     C38546   5.938   6.646  12.115 -0.2574 -0.2034  0.6454
  280MOL0    Cl38547   5.905   6.480  12.052  0.3469 -0.0313  0.2254
  280MOL0     C38548   5.476   6.701  11.217 -0.4672 -0.4174 -0.0829
  280MOL0     C38549   5.458   6.578  11.153 -0.2759 -1.0186  0.7235
  280MOL0     O38550   5.466   6.273  11.142 -0.8059  0.1112 -0.4863
  280MOL0     C38551   5.504   6.215  10.796 -0.3909  0.5264  0.3763
  280MOL0     C38552   5.481   6.124  10.686  0.1972  0.0672  0.3458
  280MOL0     N38553   4.926   6.022  10.417  1.2284 -0.3830 -1.0546
  280MOL0     N38554   4.822   5.942  10.401  0.2965  0.3057  0.6254
  280MOL0     C38555   4.756   5.113  10.951 -0.9237 -0.3872 -0.4681
  280MOL0     C38556   4.754   5.023  11.058  0.7051  0.2207  0.0076
  280MOL0     C38557   4.740   4.899  11.498  0.0926 -0.6142  0.7229
  280MOL0     C38558   4.773   4.765  11.458 -0.1197  0.1506  0.1235
  280MOL0     C38559   4.804   4.667  11.548  0.3546 -0.0723 -0.7617
  280MOL0     C38560   4.797   4.695  11.686  0.0187 -1.1730 -0.1454
  280MOL0     O38561   4.813   4.589  11.772 -0.4946 -0.4834  0.6287
  280MOL0     C38562   4.856   4.606  11.903  0.5248 -0.4548 -0.4425
  280MOL0     C38563   5.010   4.590  11.925 -0.7432 -0.6035  0.1045
  280MOL0     C38564   5.066   4.630  12.067  1.2215 -0.0490  0.3853
  280MOL0     C38565   5.214   4.643  12.052 -0.0176  0.6945 -0.4494
  280MOL0     C38566   5.275   4.639  12.186  1.2039  0.2611 -0.2875
  280MOL0     C38567   5.312   4.629  12.298 -0.3457 -1.3533  0.0515
  280MOL0     C38568   4.782   4.829  11.726 -0.1741  0.0943 -0.0572
  280MOL0     C38569   4.736   4.930  11.633 -0.1149  0.0543  0.4686
  280MOL0     C38570   4.708   5.068  11.698  0.6615 -0.5047  0.0478
  280MOL0     H38571   4.941   5.194  11.276  0.4201 -0.7410 -0.5474
  280MOL0     H38572   4.924   5.365  11.083 -1.5439  0.4102 -0.3667
  280MOL0     H38573   4.680   5.483  10.869  0.4656  0.3960 -4.7757
  280MOL0     H38574   4.629   5.331  10.936 -0.1171 -0.4881 -0.7684
  280MOL0     H38575   4.578   5.255  10.695 -2.2133  0.6386 -0.9830
  280MOL0     H38576   4.519   5.424  10.723 -0.3331 -0.7899  1.6033
  280MOL0     H38577   4.769   5.467  10.621  0.6735 -0.7719  0.9890
  280MOL0     H38578   4.755   5.301  10.575 -1.2774 -1.2742  0.5780
  280MOL0     H38579   4.553   5.322  10.454  2.8704 -2.4950  0.0724
  280MOL0     H38580   4.562   5.504  10.477 -1.3881 -1.4004 -0.4692
  280MOL0     H38581   4.633   5.416  10.261 -0.6862 -1.4167  0.4875
  280MOL0     H38582   4.789   5.352  10.336 -0.8914 -0.8826 -0.3012
  280MOL0     H38583   4.820   5.585  10.441 -0.7792 -1.0167  0.7444
  280MOL0     H38584   4.847   5.557  10.266  5.1453  1.2906  3.6718
  280MOL0     H38585   4.660   5.741  10.408  3.4770  1.7501  0.6347
  280MOL0     H38586   4.588   5.664  10.260  0.3099  0.3512  0.5970
  280MOL0     H38587   4.792   5.738  10.133  0.7205 -0.6259  0.6327
  280MOL0     H38588   4.668   5.851  10.179  2.7364  1.0234 -0.3527
  280MOL0     H38589   5.022   5.838  10.157 -2.8529  0.1365 -0.0372
  280MOL0     H38590   5.171   6.141  10.351  0.0972 -1.2929  0.7229
  280MOL0     H38591   5.183   6.050  10.202  1.7773  0.8664  0.0833
  280MOL0     H38592   5.201   5.902  10.451 -2.3321 -2.2133 -0.8182
  280MOL0     H38593   5.259   5.856  10.293  0.9616  0.6825 -0.2298
  280MOL0     H38594   5.453   5.986  10.297  0.4562  2.3541  0.7133
  280MOL0     H38595   5.392   6.095  10.413  1.6669  0.1348  0.2330
  280MOL0     H38596   5.491   5.809  10.452  3.4426  0.3297 -0.1407
  280MOL0     H38597   5.572   5.943  10.503  1.2189 -2.0606  0.4322
  280MOL0     H38598   5.291   5.911  10.858 -2.6096  1.5755  0.7588
  280MOL0     H38599   5.341   6.085  11.147  3.9488  0.2747 -2.3873
  280MOL0     H38600   5.225   5.995  11.059  0.9962 -0.4028 -1.4206
  280MOL0     H38601   5.211   6.172  11.045 -0.8022 -0.5579  2.4964
  280MOL0     H38602   5.762   6.529  11.023 -1.0889 -1.0338  1.3190
  280MOL0     H38603   5.799   6.756  11.117  0.1999  0.6342 -0.7596
  280MOL0     H38604   5.581   7.049  11.395  0.2176  0.3209  0.2797
  280MOL0     H38605   5.462   6.932  11.347  0.1480  0.2449  1.1631
  280MOL0     H38606   5.508   6.885  11.577  0.8670  3.9847 -0.4249
  280MOL0     H38607   5.590   6.747  11.486 -1.4525 -0.3796  0.2662
  280MOL0     H38608   5.739   6.992  11.581 -1.9737  0.2354  0.6490
  280MOL0     H38609   5.805   6.859  11.509  2.7527 -2.0971  3.5110
  280MOL0     H38610   5.761   6.714  11.714 -1.8292  0.1981  0.5380
  280MOL0     H38611   5.667   6.847  11.786 -0.2996 -0.0746  0.1103
  280MOL0     H38612   5.938   6.928  11.717  1.3243 -0.5949  0.2012
  280MOL0     H38613   5.837   6.970  11.845  1.3021  2.2940 -2.3242
  280MOL0     H38614   6.043   6.808  11.907  0.2520 -0.3182  1.1842
  280MOL0     H38615   5.937   6.682  11.835  1.9499 -1.5250  2.9306
  280MOL0     H38616   5.777   6.731  11.987  0.1564 -0.5132 -0.1192
  280MOL0     H38617   5.863   6.852  12.073  1.1556  0.8091 -1.7587
  280MOL0     H38618   5.873   6.642  12.202 -2.6018 -0.7447 -1.0305
  280MOL0     H38619   6.044   6.668  12.130  0.2478 -0.9192 -1.4920
  280MOL0     H38620   5.390   6.734  11.274 -1.3831 -1.9876 -0.4977
  280MOL0     H38621   5.357   6.538  11.149 -1.4917  1.8447  0.5520
  280MOL0     H38622   5.550   6.312  10.782 -1.1958  0.8647 -0.0166
  280MOL0     H38623   5.532   6.150  10.594  1.3649 -0.3718  0.8480
  280MOL0     H38624   4.696   5.083  10.866 -1.5233  1.5926 -0.7858
  280MOL0     H38625   4.704   4.929  11.040  0.2454  0.4625 -0.0048
  280MOL0     H38626   4.775   4.732  11.355  2.3219 -1.2136  0.5304
  280MOL0     H38627   4.824   4.563  11.523  0.3557 -0.1663 -0.3821
  280MOL0     H38628   4.825   4.699  11.953 -0.3267 -0.9723  0.0166
  280MOL0     H38629   4.806   4.524  11.954  1.0820 -0.7419 -0.3419
  280MOL0     H38630   5.059   4.658  11.855  1.8931  1.2621  3.4398
  280MOL0     H38631   5.040   4.490  11.893  1.0651  0.7079 -2.7027
  280MOL0     H38632   5.033   4.730  12.098  0.4308  0.0439 -0.7125
  280MOL0     H38633   5.039   4.551  12.136 -2.3802 -0.7189 -1.5731
  280MOL0     H38634   5.247   4.738  12.007 -0.0459  0.6866 -0.4879
  280MOL0     H38635   5.254   4.560  11.994 -0.1690 -1.2981  2.1413
  280MOL0     H38636   5.359   4.640  12.394  3.1021 -0.3651 -1.5647
  280MOL0     H38637   4.782   4.867  11.828 -2.7875  3.1799 -1.0065
  280MOL0     H38638   4.664   5.065  11.798  2.1038  1.4812  0.8197
  280MOL0     H38639   4.803   5.122  11.711 -0.6102  1.5395  1.4018
  280MOL0     H38640   4.639   5.125  11.635 -1.3228 -1.8702  0.8868
  281MOL0     O38641   1.656   1.778   0.925  0.1205 -0.1821  0.4610
  281MOL0     C38642   1.689   1.724   0.825  0.6314 -0.4166  0.2764
  281MOL0     O38643   1.616   1.631   0.753  0.7444 -0.3399  0.3290
  281MOL0     C38644   1.498   1.601   0.813  0.5424  0.4908  0.0834
  281MOL0     C38645   1.390   1.679   0.772  0.0598 -0.4710 -0.6833
  281MOL0     C38646   1.263   1.660   0.824  0.2218 -0.1029 -0.2106
  281MOL0     C38647   1.245   1.558   0.925  0.7780 -0.7138 -0.1971
  281MOL0     O38648   1.129   1.537   0.996 -0.4281  0.0306  1.0971
  281MOL0     C38649   1.005   1.597   0.942 -0.6599 -0.5234 -0.0078
  281MOL0     C38650   0.950   1.530   0.826 -1.0752 -0.3460  0.0875
  281MOL0     C38651   0.877   1.404   0.865 -0.5248  0.4404  0.0965
  281MOL0     C38652   0.772   1.382   0.752  0.1170 -0.2334 -0.0798
  281MOL0     C38653   0.738   1.234   0.747 -0.2121  0.4823 -0.5982
  281MOL0     C38654   0.627   1.204   0.640  0.5933  0.4886  1.0557
  281MOL0     C38655   0.554   1.081   0.684  0.3077 -0.2090 -0.1846
  281MOL0     C38656   0.637   0.959   0.664 -0.2107 -0.9417  0.3727
  281MOL0     N38657   0.570   0.834   0.713 -0.0684 -0.6455  0.2170
  281MOL0     C38658   0.431   0.817   0.716 -0.0496 -0.0006 -0.7997
  281MOL0     C38659   0.425   0.704   0.791  0.8613 -1.1353  0.5385
  281MOL0     C38660   0.312   0.640   0.865  0.0969  0.5815 -1.0410
  281MOL0     C38661   0.209   0.581   0.769  0.0990 -0.6748  0.3162
  281MOL0     C38662   0.263   0.457   0.709  0.7332 -0.1756 -0.2507
  281MOL0     C38663   0.149   0.388   0.624  0.2895  0.4795  0.3128
  281MOL0     O38664   0.202   0.271   0.558 -0.3055 -0.2220 -0.2012
  281MOL0     C38665   0.169   0.145   0.601 -0.2608  0.1250  0.4764
  281MOL0     C38666   0.078   0.103   0.703  0.4269  0.3646  0.9338
  281MOL0     C38667   0.054  -0.026   0.735  0.4501  0.7090  0.2684
  281MOL0     C38668  -0.052  -0.054   0.835  0.4760 -0.1479 -0.4600
  281MOL0     C38669   0.106  -0.124   0.651  0.0725  0.4940 -0.9446
  281MOL0     C38670   0.062  -0.269   0.656 -1.1566  0.0419  0.1610
  281MOL0     O38671   0.037  -0.325   0.779  0.0462  0.0632 -0.3025
  281MOL0     C38672  -0.028  -0.441   0.780 -0.1140  0.7434 -0.5053
  281MOL0     C38673   0.002  -0.538   0.874 -0.5107  0.6319  0.6942
  281MOL0     C38674  -0.057  -0.671   0.872  0.4273 -0.6651 -0.3710
  281MOL0     C38675  -0.176  -0.680   0.801 -0.3382 -0.0269  0.1799
  281MOL0     O38676  -0.242  -0.802   0.809 -0.2885 -0.5098  0.0542
  281MOL0     C38677  -0.387  -0.800   0.821  0.5461 -0.9214  0.1997
  281MOL0     C38678  -0.412  -0.747   0.968 -0.0293 -0.2931 -0.6129
  281MOL0     C38679  -0.332  -0.814   1.081 -0.4733  0.4591  0.0477
  281MOL0     C38680  -0.317  -0.970   1.069 -0.1194  0.0308 -0.3209
  281MOL0     C38681  -0.426  -1.047   1.134  0.6574 -0.2871 -0.2861
  281MOL0     C38682  -0.412  -1.200   1.126 -0.3391 -0.6255  0.7377
  281MOL0     C38683  -0.480  -1.244   0.989  0.4436 -0.2985 -0.3030
  281MOL0     C38684  -0.410  -1.368   0.930  0.3413 -0.1411 -0.9255
  281MOL0    Cl38685  -0.233  -1.348   0.886 -0.0150 -0.1512 -0.1576
  281MOL0     C38686  -0.217  -0.580   0.712 -0.2222  0.4979  0.4046
  281MOL0     C38687  -0.148  -0.465   0.707 -0.1470 -0.6900 -0.5134
  281MOL0     O38688   0.064  -0.332   0.550 -0.0476  0.0574 -0.2885
  281MOL0     C38689   0.203  -0.087   0.559 -0.6566 -0.2661 -0.0152
  281MOL0     C38690   0.240   0.045   0.537  0.0439  1.0971  0.8855
  281MOL0     N38691   0.545   0.639   0.799 -0.0921  0.1302 -0.0493
  281MOL0     N38692   0.633   0.726   0.758  0.4040  0.0905 -0.0990
  281MOL0     C38693   1.356   1.475   0.964  0.5506  0.0654 -0.5912
  281MOL0     C38694   1.483   1.493   0.897  0.2076  0.0719 -0.1968
  281MOL0     C38695   1.826   1.756   0.778  0.5565  1.2424  0.0650
  281MOL0     C38696   1.880   1.882   0.797  0.1412  0.3620 -0.0936
  281MOL0     C38697   2.012   1.921   0.762 -0.4049  0.3210  0.1223
  281MOL0     C38698   2.096   1.838   0.686  0.0617  0.0984 -0.3043
  281MOL0     O38699   2.222   1.889   0.650 -0.6268  0.7721  0.4938
  281MOL0     C38700   2.311   1.815   0.576  0.1967  0.4288  1.0671
  281MOL0     C38701   2.427   1.907   0.521  0.2733 -0.2429  0.1493
  281MOL0     C38702   2.533   1.935   0.624  0.1393  1.3683  1.3038
  281MOL0     C38703   2.639   2.034   0.570  0.1738  0.1732  0.7537
  281MOL0     C38704   2.707   1.984   0.452  0.1806 -0.4205  0.4517
  281MOL0     C38705   2.777   1.975   0.357  0.6057 -0.1074  0.2286
  281MOL0     C38706   2.042   1.705   0.667 -0.6900  0.2514  0.3635
  281MOL0     C38707   1.916   1.658   0.714 -0.0072 -0.5225 -0.2967
  281MOL0     C38708   1.877   1.516   0.687 -0.5103  0.2994  1.3367
  281MOL0     H38709   1.393   1.763   0.704 -1.3608  0.6010  0.5119
  281MOL0     H38710   1.192   1.731   0.784 -0.4383 -1.3637 -1.3642
  281MOL0     H38711   1.017   1.703   0.918  1.5918 -0.6500  0.3419
  281MOL0     H38712   0.947   1.602   1.034  2.3014 -0.5735  2.0015
  281MOL0     H38713   0.889   1.601   0.769  0.2992  2.2846  1.6683
  281MOL0     H38714   1.031   1.505   0.757  1.6266 -0.0853  2.9147
  281MOL0     H38715   0.947   1.321   0.872 -2.6831 -1.3847  1.2327
  281MOL0     H38716   0.828   1.410   0.963 -0.6963  1.5899 -0.0477
  281MOL0     H38717   0.683   1.443   0.772 -0.0200  0.2539 -1.9887
  281MOL0     H38718   0.810   1.425   0.659  3.0096  2.1313  1.9819
  281MOL0     H38719   0.708   1.203   0.847  1.7231 -0.4145 -0.2564
  281MOL0     H38720   0.822   1.174   0.711  0.1090 -0.9130  2.2362
  281MOL0     H38721   0.558   1.289   0.629 -2.3568 -1.9358 -0.8503
  281MOL0     H38722   0.668   1.194   0.539  0.2638  1.4375  0.8159
  281MOL0     H38723   0.467   1.074   0.618  0.7409  3.4503 -1.3799
  281MOL0     H38724   0.530   1.091   0.791 -0.7619 -0.2628 -0.4146
  281MOL0     H38725   0.645   0.936   0.558 -1.9422 -1.7794  0.3891
  281MOL0     H38726   0.734   0.973   0.712  0.3666  0.4599 -1.0993
  281MOL0     H38727   0.358   0.896   0.700 -0.0746  0.5938  1.8058
  281MOL0     H38728   0.260   0.701   0.940 -0.2876  0.2860 -1.0654
  281MOL0     H38729   0.344   0.554   0.925 -2.3657 -0.3103 -0.9097
  281MOL0     H38730   0.113   0.557   0.816 -0.8340  0.9343 -0.6695
  281MOL0     H38731   0.176   0.641   0.684  4.9958  0.3124 -1.1926
  281MOL0     H38732   0.346   0.469   0.639  2.6052 -0.6136  1.7865
  281MOL0     H38733   0.279   0.388   0.792 -2.0413 -0.6059  0.0145
  281MOL0     H38734   0.060   0.353   0.678 -2.3343  1.5738 -2.9940
  281MOL0     H38735   0.129   0.458   0.543 -0.0055  2.2134  1.8173
  281MOL0     H38736   0.032   0.171   0.774  0.3305  0.6614  0.5867
  281MOL0     H38737  -0.125  -0.123   0.790  0.5115 -1.3735  1.2813
  281MOL0     H38738  -0.098   0.036   0.877 -0.5588  1.1855 -4.0185
  281MOL0     H38739  -0.002  -0.114   0.911 -1.2310 -0.8887  0.1177
  281MOL0     H38740   0.097  -0.522   0.925 -0.5373  2.2732  0.2974
  281MOL0     H38741  -0.021  -0.748   0.940  0.3009 -1.2330 -0.9340
  281MOL0     H38742  -0.428  -0.726   0.752 -0.3271 -2.4165 -0.9690
  281MOL0     H38743  -0.432  -0.899   0.811  1.5808 -1.2222 -2.3137
  281MOL0     H38744  -0.399  -0.640   0.986  2.1468 -0.9014  2.1677
  281MOL0     H38745  -0.517  -0.770   0.985 -1.3943  0.8106 -5.7852
  281MOL0     H38746  -0.372  -0.783   1.178 -1.8064 -1.5000  0.1864
  281MOL0     H38747  -0.232  -0.770   1.086  1.5407 -3.7632  2.2276
  281MOL0     H38748  -0.219  -1.005   1.104 -0.5243 -0.8674 -0.0779
  281MOL0     H38749  -0.320  -1.002   0.964 -2.8979 -2.0326  0.2925
  281MOL0     H38750  -0.435  -1.023   1.240  0.1300 -0.0154 -0.3887
  281MOL0     H38751  -0.517  -1.015   1.082  2.0286  0.1619 -2.5580
  281MOL0     H38752  -0.454  -1.248   1.215  3.6640 -3.4881  1.3300
  281MOL0     H38753  -0.308  -1.231   1.124 -0.7577 -2.3050  2.1485
  281MOL0     H38754  -0.467  -1.177   0.903  0.0616  0.0039 -0.1237
  281MOL0     H38755  -0.588  -1.254   0.998  0.7206 -2.5687  1.0891
  281MOL0     H38756  -0.466  -1.395   0.840  1.7498 -3.7363 -0.8755
  281MOL0     H38757  -0.400  -1.448   1.004  3.5395  1.8659  1.0937
  281MOL0     H38758  -0.293  -0.602   0.639  0.6630  0.5245 -0.5421
  281MOL0     H38759  -0.185  -0.393   0.635 -2.3839  1.5556  2.6199
  281MOL0     H38760   0.253  -0.153   0.490  0.0653  0.5416 -0.2798
  281MOL0     H38761   0.291   0.065   0.444 -5.2055 -1.5217 -3.0430
  281MOL0     H38762   1.337   1.396   1.036 -3.4456  0.3090 -1.1963
  281MOL0     H38763   1.567   1.424   0.909  0.5903  0.6939  0.8337
  281MOL0     H38764   1.816   1.948   0.854 -1.1960 -1.0073  0.0657
  281MOL0     H38765   2.036   2.027   0.768  0.9349  0.1515 -1.4284
  281MOL0     H38766   2.361   1.734   0.631  3.2660  3.2087  2.7950
  281MOL0     H38767   2.256   1.779   0.489  1.1739 -0.9477  0.9765
  281MOL0     H38768   2.392   2.003   0.482  3.2889  0.9353  0.1044
  281MOL0     H38769   2.472   1.844   0.443 -0.4809 -2.5931  1.5228
  281MOL0     H38770   2.501   1.969   0.723 -0.0009  3.5732  0.5517
  281MOL0     H38771   2.582   1.839   0.646 -0.3694 -0.1584 -3.1229
  281MOL0     H38772   2.713   2.054   0.648  1.1437  1.3554 -0.4346
  281MOL0     H38773   2.594   2.128   0.538  1.6961  0.6315 -0.1514
  281MOL0     H38774   2.840   1.964   0.272  1.5139  0.3748  0.8257
  281MOL0     H38775   2.113   1.640   0.616  3.8393  3.4443  1.8743
  281MOL0     H38776   1.820   1.479   0.773 -0.5225 -0.3646  1.0435
  281MOL0     H38777   1.817   1.507   0.597 -0.3409 -0.2190  1.2698
  281MOL0     H38778   1.967   1.454   0.679 -0.4512  0.3719  1.4334
  282MOL0     O38779  11.168   2.578  11.090  0.8443 -0.4695 -0.6179
  282MOL0     C38780  11.079   2.648  11.141  1.2332 -0.5682  0.2807
  282MOL0     O38781  11.053   2.787  11.119 -0.0429  0.2515 -0.5590
  282MOL0     C38782  11.138   2.878  11.059 -0.6446  0.2669 -0.1731
  282MOL0     C38783  11.281   2.865  11.058  0.7372 -0.2798  0.4119
  282MOL0     C38784  11.353   2.961  10.979 -0.3636 -0.2867 -0.2343
  282MOL0     C38785  11.297   3.087  10.949  0.7258 -0.4069 -0.4622
  282MOL0     O38786  11.368   3.192  10.896  0.2094  0.3836 -0.3974
  282MOL0     C38787  11.496   3.164  10.829  0.1769  0.8465 -0.0999
  282MOL0     C38788  11.538   3.274  10.740 -0.9019  0.0637  0.6524
  282MOL0     C38789  11.446   3.314  10.627 -0.0615  0.2367  0.5853
  282MOL0     C38790  11.402   3.203  10.540 -0.1481 -0.0743 -0.6806
  282MOL0     C38791  11.327   3.250  10.416 -0.7797  0.0393 -1.1010
  282MOL0     C38792  11.182   3.311  10.460 -0.3754  0.4060 -0.0924
  282MOL0     C38793  11.099   3.217  10.556 -0.8147 -0.0507  0.7528
  282MOL0     C38794  10.958   3.269  10.559 -0.1026  0.9123 -0.3511
  282MOL0     N38795  10.858   3.215  10.657 -0.1298 -0.3288 -0.3277
  282MOL0     C38796  10.815   3.083  10.663  0.3821 -1.0346  0.1537
  282MOL0     C38797  10.731   3.086  10.775 -0.1100 -0.4961  0.2985
  282MOL0     C38798  10.645   2.968  10.814 -0.2707 -0.2167 -0.8400
  282MOL0     C38799  10.505   2.996  10.746  0.0744  0.1769  0.8450
  282MOL0     C38800  10.401   2.887  10.789 -0.0133 -0.0968  0.6183
  282MOL0     C38801  10.446   2.744  10.747 -0.2490 -0.7047  0.1579
  282MOL0     O38802  10.461   2.745  10.600 -0.4866  0.3000  0.1392
  282MOL0     C38803  10.525   2.636  10.543  0.9375  0.5340 -0.2411
  282MOL0     C38804  10.563   2.515  10.604  0.0337 -0.5120 -0.2153
  282MOL0     C38805  10.612   2.406  10.536 -0.1737 -0.5975  0.3657
  282MOL0     C38806  10.619   2.269  10.612  0.0813  0.1612 -0.6267
  282MOL0     C38807  10.639   2.415  10.396 -0.8374 -0.1714  0.5311
  282MOL0     C38808  10.699   2.298  10.322 -0.4975 -0.3895 -1.0480
  282MOL0     O38809  10.642   2.256  10.205 -0.1758 -0.7380  0.3543
  282MOL0     C38810  10.693   2.152  10.139  0.1629 -0.0664  0.5824
  282MOL0     C38811  10.823   2.144  10.094  0.3300 -0.3795  0.3849
  282MOL0     C38812  10.859   2.019  10.044 -0.0864  0.0448  0.0556
  282MOL0     C38813  10.770   1.910  10.011  0.2970 -0.0863  0.1979
  282MOL0     O38814  10.832   1.791   9.957 -0.0880 -0.5521 -0.1538
  282MOL0     C38815  10.769   1.676  10.018 -0.1401 -0.6066  0.6988
  282MOL0     C38816  10.875   1.571  10.014  0.5553  0.6520 -0.2960
  282MOL0     C38817  10.823   1.430  10.048  0.4339 -1.4090  0.0180
  282MOL0     C38818  10.923   1.317  10.029 -0.9053 -0.4228 -0.3899
  282MOL0     C38819  10.900   1.238   9.901 -0.0565  0.3237  0.4038
  282MOL0     C38820  11.017   1.141   9.892 -0.3794  0.4720 -0.2605
  282MOL0     C38821  11.021   1.019   9.990 -0.3710 -0.3088 -0.4815
  282MOL0     C38822  10.890   0.943   9.991 -0.8505 -0.3882  0.0266
  282MOL0    Cl38823  10.862   0.876   9.830  0.0383 -0.0638 -0.1106
  282MOL0     C38824  10.636   1.933  10.053  1.7936  0.2220  0.1280
  282MOL0     C38825  10.591   2.050  10.113  0.4883 -0.4963  0.3753
  282MOL0     O38826  10.793   2.239  10.367  0.0564  0.2077 -0.4414
  282MOL0     C38827  10.605   2.533  10.333  0.3927 -0.1433 -0.1743
  282MOL0     C38828  10.545   2.639  10.404 -0.9892  0.4900  0.7495
  282MOL0     N38829  10.760   3.203  10.843  0.1675  0.2463  0.2474
  282MOL0     N38830  10.825   3.281  10.776 -0.2492 -0.7107  0.1412
  282MOL0     C38831  11.159   3.101  10.972  0.3880  0.1636 -0.3402
  282MOL0     C38832  11.074   2.991  11.016  0.2938  0.1853 -0.1392
  282MOL0     C38833  11.000   2.586  11.252 -0.0379  0.6638  0.1583
  282MOL0     C38834  10.878   2.656  11.278  0.0873 -0.4842 -0.2376
  282MOL0     C38835  10.767   2.598  11.341 -0.6255  1.0829  0.1282
  282MOL0     C38836  10.782   2.476  11.404 -0.4060  0.0150  0.3584
  282MOL0     O38837  10.697   2.415  11.493  0.3095 -0.3204 -0.0021
  282MOL0     C38838  10.604   2.506  11.562  0.6962  0.7267 -0.2808
  282MOL0     C38839  10.527   2.421  11.674  0.0872 -0.6212 -0.1313
  282MOL0     C38840  10.613   2.421  11.804  1.1982 -0.3839 -0.0749
  282MOL0     C38841  10.630   2.557  11.876 -0.3879 -0.6914 -0.3304
  282MOL0     C38842  10.496   2.626  11.883 -0.1456  0.1856 -0.4875
  282MOL0     C38843  10.389   2.676  11.887  0.5272  0.3278  0.6713
  282MOL0     C38844  10.906   2.402  11.393 -0.2390 -0.2614 -0.0603
  282MOL0     C38845  11.016   2.459  11.317 -0.2995 -0.3848  0.0232
  282MOL0     C38846  11.143   2.390  11.307 -0.6834  0.0630 -0.3260
  282MOL0     H38847  11.337   2.776  11.087  2.3511  0.9223  1.1626
  282MOL0     H38848  11.458   2.938  10.964  0.1027  1.7294 -0.3448
  282MOL0     H38849  11.478   3.076  10.766  0.1317  2.6705 -2.7656
  282MOL0     H38850  11.574   3.142  10.902  2.3637  2.7601 -1.7253
  282MOL0     H38851  11.564   3.364  10.796  0.0327  0.2413 -0.0355
  282MOL0     H38852  11.630   3.246  10.688 -0.5833  1.7524  0.2493
  282MOL0     H38853  11.356   3.368  10.660 -1.6649 -2.4559  0.9152
  282MOL0     H38854  11.507   3.379  10.564 -0.6853 -0.5192 -0.8454
  282MOL0     H38855  11.493   3.156  10.501  0.2934  1.7897 -1.9983
  282MOL0     H38856  11.350   3.123  10.594 -2.5445  0.8461 -1.5391
  282MOL0     H38857  11.309   3.170  10.344  0.4397 -0.7579 -0.5608
  282MOL0     H38858  11.387   3.333  10.376 -2.0894  2.0648  0.8630
  282MOL0     H38859  11.184   3.408  10.512 -1.5752 -0.7752  2.3568
  282MOL0     H38860  11.122   3.332  10.371 -0.2825 -1.9975 -0.7911
  282MOL0     H38861  11.143   3.224  10.655  2.3307 -2.2370 -0.3339
  282MOL0     H38862  11.110   3.115  10.517  1.3218  1.5201 -3.4100
  282MOL0     H38863  10.975   3.374  10.584  1.9446  0.6992 -0.7143
  282MOL0     H38864  10.917   3.267  10.457  2.6671 -4.1950 -1.6891
  282MOL0     H38865  10.834   3.008  10.587  3.2757  0.3461 -0.6445
  282MOL0     H38866  10.640   2.969  10.923 -1.0851  0.6320 -0.8748
  282MOL0     H38867  10.695   2.878  10.777  1.8862  1.7950 -3.2204
  282MOL0     H38868  10.460   3.095  10.760 -2.1891 -0.7218  0.3435
  282MOL0     H38869  10.532   3.005  10.641  0.1555  1.7734  0.9661
  282MOL0     H38870  10.371   2.902  10.893 -0.9405  2.0319  0.1209
  282MOL0     H38871  10.313   2.906  10.726  0.2316 -1.7236 -0.2518
  282MOL0     H38872  10.542   2.715  10.791 -0.9045 -1.8417  0.8867
  282MOL0     H38873  10.371   2.671  10.777  0.4107 -1.9680 -1.1665
  282MOL0     H38874  10.537   2.500  10.708  0.6522 -0.7821 -0.0925
  282MOL0     H38875  10.569   2.278  10.709  1.5972  0.5978  0.1457
  282MOL0     H38876  10.725   2.263  10.638 -0.1553  2.1632  1.1266
  282MOL0     H38877  10.589   2.185  10.549  2.2148  0.7963 -2.6610
  282MOL0     H38878  10.900   2.221  10.093  0.7614 -0.7788 -1.2576
  282MOL0     H38879  10.964   2.004  10.020 -0.7766 -0.7101 -2.8809
  282MOL0     H38880  10.734   1.707  10.117 -0.1836  2.0438 -0.0610
  282MOL0     H38881  10.687   1.638   9.956  1.0173 -2.3883  0.1824
  282MOL0     H38882  10.908   1.568   9.909  3.0748  0.3412  0.4210
  282MOL0     H38883  10.958   1.603  10.079  0.5572  0.9248 -0.4271
  282MOL0     H38884  10.745   1.420   9.972 -0.8275  3.6713  0.2569
  282MOL0     H38885  10.788   1.437  10.152 -0.6854 -1.8456 -0.3180
  282MOL0     H38886  10.913   1.269  10.127 -0.5557  1.2794  0.5081
  282MOL0     H38887  11.023   1.361  10.034 -0.6513 -0.5162 -3.1353
  282MOL0     H38888  10.808   1.179   9.907  0.6453 -1.1187 -1.8128
  282MOL0     H38889  10.888   1.304   9.814  1.4210  1.1549  0.7859
  282MOL0     H38890  11.114   1.192   9.902  0.8879 -1.8020 -0.2339
  282MOL0     H38891  11.016   1.093   9.794  3.8371 -1.3764  0.3816
  282MOL0     H38892  11.055   1.027  10.094  0.6744 -2.8152 -0.5639
  282MOL0     H38893  11.100   0.951   9.956 -1.6396 -2.1793  0.1397
  282MOL0     H38894  10.804   0.992  10.036 -0.1829 -0.6061  1.6118
  282MOL0     H38895  10.902   0.865  10.067  2.1897  0.6851  0.8211
  282MOL0     H38896  10.567   1.854  10.025  1.8044  0.1100  0.4129
  282MOL0     H38897  10.491   2.071  10.150 -0.1396 -0.5604 -1.2152
  282MOL0     H38898  10.629   2.549  10.228 -1.0080  4.1206 -0.0446
  282MOL0     H38899  10.525   2.730  10.348 -0.9854 -1.3328 -2.4155
  282MOL0     H38900  11.121   3.202  10.962 -1.6358 -0.0097  3.5941
  282MOL0     H38901  10.966   2.994  11.023  0.3109 -1.3771  1.4149
  282MOL0     H38902  10.856   2.754  11.238  0.7186 -0.9528 -1.7903
  282MOL0     H38903  10.667   2.641  11.348 -0.2118  1.9806  0.8098
  282MOL0     H38904  10.659   2.591  11.603  0.1011  2.9745 -3.7625
  282MOL0     H38905  10.536   2.548  11.487  0.6809 -0.8195 -1.1778
  282MOL0     H38906  10.512   2.319  11.638 -0.1527  0.2341 -2.6681
  282MOL0     H38907  10.429   2.467  11.692  0.7176  0.6220  0.2815
  282MOL0     H38908  10.567   2.341  11.862  1.4247  1.8747  3.5237
  282MOL0     H38909  10.717   2.390  11.791  1.4895  0.6546 -0.3628
  282MOL0     H38910  10.693   2.629  11.822 -1.1599  0.6488  0.5153
  282MOL0     H38911  10.675   2.542  11.974  2.3440 -0.3196 -1.4309
  282MOL0     H38912  10.288   2.711  11.899  0.3729  0.1690 -0.1094
  282MOL0     H38913  10.920   2.313  11.453 -0.7172 -0.6035 -0.4416
  282MOL0     H38914  11.168   2.355  11.408  0.5713  1.4667 -0.1038
  282MOL0     H38915  11.135   2.305  11.239  2.1374 -1.4197  0.9987
  282MOL0     H38916  11.229   2.452  11.280 -1.1930  0.8145 -0.2672
  283MOL0     O38917   0.989   9.563   6.734  1.0889  0.2197 -0.0733
  283MOL0     C38918   1.007   9.686   6.754  0.1724 -0.1157  0.6807
  283MOL0     O38919   1.043   9.769   6.654 -0.1967 -0.2143 -1.0574
  283MOL0     C38920   1.076   9.700   6.539 -0.1194 -0.1037 -0.2055
  283MOL0     C38921   1.021   9.743   6.418 -0.3889 -0.0537 -0.0666
  283MOL0     C38922   1.071   9.694   6.294 -0.2137 -0.0798 -0.7398
  283MOL0     C38923   1.169   9.588   6.287  0.8963  0.3060 -1.2607
  283MOL0     O38924   1.201   9.535   6.172  0.1018  0.2399  0.2001
  283MOL0     C38925   1.232   9.398   6.163 -0.0155  0.0568  0.0521
  283MOL0     C38926   1.267   9.358   6.019  0.0536  0.2376  0.5438
  283MOL0     C38927   1.140   9.350   5.934 -0.1207 -0.4759  0.2826
  283MOL0     C38928   1.176   9.347   5.780 -0.8587  0.7070 -0.6502
  283MOL0     C38929   1.269   9.230   5.743  0.4471  0.3418  0.0433
  283MOL0     C38930   1.284   9.208   5.599  0.6734 -0.1205  0.1057
  283MOL0     C38931   1.325   9.063   5.570  0.4011  0.3673  0.0732
  283MOL0     C38932   1.376   9.045   5.424  0.3543 -0.9334 -0.3480
  283MOL0     N38933   1.258   9.048   5.339 -0.1106  0.6104 -0.2346
  283MOL0     C38934   1.253   9.108   5.219 -0.9115  0.7511  0.5168
  283MOL0     C38935   1.140   9.088   5.154  0.2816  0.4284 -0.1040
  283MOL0     C38936   1.101   9.121   5.007  0.4187 -0.7361 -0.2539
  283MOL0     C38937   0.957   9.156   4.997  0.8609  0.3631  0.3837
  283MOL0     C38938   0.908   9.225   4.857  0.2254 -0.1727 -1.0973
  283MOL0     C38939   0.769   9.278   4.859 -0.5543  0.0478  0.0014
  283MOL0     O38940   0.682   9.211   4.766 -0.2125  0.3958  0.3873
  283MOL0     C38941   0.597   9.116   4.818  0.0593 -0.2857  0.4748
  283MOL0     C38942   0.527   9.131   4.939 -0.6716  0.0903 -0.6142
  283MOL0     C38943   0.439   9.029   4.985 -0.4302  0.1264 -0.2708
  283MOL0     C38944   0.360   9.061   5.109 -0.1101  0.8905  1.4275
  283MOL0     C38945   0.421   8.911   4.909  0.0959  0.6396  0.3982
  283MOL0     C38946   0.326   8.792   4.938 -0.3657 -0.2899  0.2845
  283MOL0     O38947   0.337   8.685   4.855 -0.1426 -0.3774 -0.3992
  283MOL0     C38948   0.287   8.562   4.887  0.9850  0.1009  0.4200
  283MOL0     C38949   0.371   8.465   4.943  0.4763 -0.4772  0.0631
  283MOL0     C38950   0.323   8.340   4.981  0.1106  0.3710 -0.4192
  283MOL0     C38951   0.184   8.311   4.965  0.5996 -0.1467  0.0926
  283MOL0     O38952   0.129   8.186   4.977  0.0630 -0.3020 -0.3318
  283MOL0     C38953   0.200   8.073   5.037  0.1059 -0.0078  0.2930
  283MOL0     C38954   0.244   7.971   4.942  0.0097 -0.8191 -0.4852
  283MOL0     C38955   0.331   7.866   5.019 -0.0201  0.4847 -0.2174
  283MOL0     C38956   0.323   7.733   4.954 -0.1435  0.2994  0.0764
  283MOL0     C38957   0.438   7.647   5.017  0.2708  1.0809 -0.0347
  283MOL0     C38958   0.453   7.511   4.942 -0.2167 -0.9162  0.0540
  283MOL0     C38959   0.509   7.522   4.803  0.2798  0.7533  0.2833
  283MOL0     C38960   0.546   7.373   4.766  0.9319 -0.0478 -1.1023
  283MOL0    Cl38961   0.561   7.341   4.598 -0.5184  0.2999 -0.7682
  283MOL0     C38962   0.105   8.411   4.899 -1.8178  0.9616 -0.1864
  283MOL0     C38963   0.154   8.532   4.857 -0.4280  0.5684  0.5220
  283MOL0     O38964   0.262   8.806   5.040 -0.0220  0.4379 -0.0270
  283MOL0     C38965   0.495   8.903   4.791 -0.2046  0.2768 -0.4018
  283MOL0     C38966   0.587   8.998   4.747  0.2703  0.2829 -0.6175
  283MOL0     N38967   1.068   9.008   5.245  0.3481  0.2748 -0.6606
  283MOL0     N38968   1.141   8.977   5.348  0.6864 -0.1521 -0.3943
  283MOL0     C38969   1.215   9.547   6.417  0.0428  0.3105  0.4699
  283MOL0     C38970   1.178   9.606   6.538  0.7707  1.2854  0.3729
  283MOL0     C38971   0.979   9.737   6.890 -0.7105  0.3279  0.1464
  283MOL0     C38972   0.985   9.649   6.997  0.6805 -1.4439 -0.3111
  283MOL0     C38973   0.951   9.691   7.125 -0.0956  0.4569  0.1347
  283MOL0     C38974   0.902   9.815   7.149 -0.3025  0.8929  0.7786
  283MOL0     O38975   0.853   9.841   7.278 -0.5583  0.3424  0.1104
  283MOL0     C38976   0.817   9.974   7.321  0.6286 -1.3125 -0.2510
  283MOL0     C38977   0.764   9.981   7.463 -0.2822  0.1885  0.0775
  283MOL0     C38978   0.881   9.966   7.557 -0.2250  1.6376  0.0768
  283MOL0     C38979   0.821   9.945   7.696 -0.0724 -0.0486  0.1389
  283MOL0     C38980   0.925   9.959   7.797 -0.1364  0.7083 -0.4183
  283MOL0     C38981   1.012   9.967   7.886  0.1505 -0.3367  0.2424
  283MOL0     C38982   0.903   9.904   7.046  0.4637  0.0801  0.4769
  283MOL0     C38983   0.943   9.867   6.916  0.3194 -0.3779 -0.1735
  283MOL0     C38984   0.910   9.970   6.814 -0.2242  0.3126  0.9202
  283MOL0     H38985   0.954   9.829   6.419  0.3296  0.5091  0.7801
  283MOL0     H38986   1.032   9.743   6.205  2.9792  1.0284 -1.6683
  283MOL0     H38987   1.154   9.333   6.205  0.3190 -3.4936 -4.0875
  283MOL0     H38988   1.318   9.372   6.226  1.0698  0.4506 -1.2321
  283MOL0     H38989   1.335   9.429   5.971  1.6927 -0.8509  1.1826
  283MOL0     H38990   1.320   9.263   6.015 -1.6356 -0.9660  3.3843
  283MOL0     H38991   1.100   9.249   5.945  3.2650 -1.8574  1.1089
  283MOL0     H38992   1.062   9.426   5.948 -1.0646 -0.1706 -4.7672
  283MOL0     H38993   1.092   9.338   5.711 -0.8154  3.4556 -1.1489
  283MOL0     H38994   1.227   9.436   5.742 -0.3614 -0.0207 -1.7706
  283MOL0     H38995   1.230   9.138   5.787 -1.4137  0.5104 -1.1620
  283MOL0     H38996   1.369   9.235   5.787  0.2511  0.8771  0.4378
  283MOL0     H38997   1.185   9.222   5.553  1.7970  0.2221 -2.3750
  283MOL0     H38998   1.354   9.278   5.552  1.4458 -0.7236  0.3402
  283MOL0     H38999   1.249   8.988   5.591 -0.1300  1.1682  1.0826
  283MOL0     H39000   1.405   9.041   5.641 -0.2873  3.3925  1.9832
  283MOL0     H39001   1.449   9.117   5.384  0.8709 -0.5682  1.1493
  283MOL0     H39002   1.423   8.948   5.410  1.1494 -0.5687 -0.2628
  283MOL0     H39003   1.336   9.163   5.177 -2.2011  0.7882 -2.1441
  283MOL0     H39004   1.122   9.032   4.947  0.5811  0.1282 -1.5106
  283MOL0     H39005   1.155   9.212   4.978  1.2365  0.4445  4.1284
  283MOL0     H39006   0.898   9.068   5.027  0.6389  0.1459 -0.6391
  283MOL0     H39007   0.923   9.232   5.068  4.1430 -1.2013  3.9929
  283MOL0     H39008   0.984   9.304   4.848  2.7769 -2.0015  2.0383
  283MOL0     H39009   0.926   9.152   4.777 -0.1584 -0.9416 -0.5009
  283MOL0     H39010   0.740   9.278   4.964  0.6644  3.8074  0.5060
  283MOL0     H39011   0.758   9.384   4.833 -3.2962 -0.0633  0.4305
  283MOL0     H39012   0.522   9.221   4.998  1.0823 -0.8104  1.0133
  283MOL0     H39013   0.255   9.069   5.080 -0.3550 -3.5773  0.3485
  283MOL0     H39014   0.391   9.149   5.166  1.8652  0.4872  1.0569
  283MOL0     H39015   0.375   8.979   5.179  2.4474  0.0553  0.0337
  283MOL0     H39016   0.471   8.493   4.973  0.4772  0.5785 -0.8796
  283MOL0     H39017   0.395   8.276   5.031 -1.5301  0.2688  2.0003
  283MOL0     H39018   0.286   8.108   5.094 -0.9778 -0.0805  2.0590
  283MOL0     H39019   0.126   8.019   5.096 -0.0072 -1.9193 -1.4979
  283MOL0     H39020   0.161   7.914   4.899  2.0182 -3.3504 -1.3176
  283MOL0     H39021   0.304   8.010   4.859  1.8190 -2.8771 -0.2316
  283MOL0     H39022   0.293   7.854   5.121 -0.5385  2.2564 -0.1693
  283MOL0     H39023   0.432   7.908   5.025  0.3474 -0.5870  3.8331
  283MOL0     H39024   0.336   7.736   4.845  0.4794 -0.6008  0.1136
  283MOL0     H39025   0.227   7.690   4.983  0.1363  0.4673  1.3279
  283MOL0     H39026   0.532   7.703   5.018 -0.7733  2.9588  1.9674
  283MOL0     H39027   0.422   7.609   5.118  0.1901  0.4085 -0.2939
  283MOL0     H39028   0.355   7.464   4.926 -0.6469 -0.0488  0.0903
  283MOL0     H39029   0.518   7.449   5.004  0.6154 -1.3344 -1.2027
  283MOL0     H39030   0.600   7.583   4.804  1.2434 -0.5430  3.2372
  283MOL0     H39031   0.442   7.569   4.730 -1.4785 -1.9955 -0.0374
  283MOL0     H39032   0.470   7.305   4.804 -0.2483  1.7385 -0.1309
  283MOL0     H39033   0.638   7.346   4.818 -0.5688 -1.2463  1.1070
  283MOL0     H39034   0.008   8.382   4.860 -0.9943 -1.7379 -0.4465
  283MOL0     H39035   0.107   8.612   4.801 -0.6825  0.6155  0.8021
  283MOL0     H39036   0.474   8.823   4.720  0.7755  0.6720 -1.1561
  283MOL0     H39037   0.645   8.995   4.655  1.2310 -1.2273 -0.0184
  283MOL0     H39038   1.284   9.463   6.425 -0.1683  0.1413  0.5475
  283MOL0     H39039   1.231   9.590   6.631 -0.4506  2.2783  1.2757
  283MOL0     H39040   1.007   9.545   6.977 -0.6430 -1.2908 -2.8762
  283MOL0     H39041   0.952   9.622   7.209  3.6789 -0.5729 -0.5836
  283MOL0     H39042   0.916  10.021   7.318  0.6226 -1.2905 -0.0978
  283MOL0     H39043   0.745  10.018   7.251  0.0439 -2.5721 -0.4624
  283MOL0     H39044   0.686   9.907   7.480  0.2128 -1.2672 -3.3160
  283MOL0     H39045   0.731  10.084   7.479  0.8647  0.4438  0.9656
  283MOL0     H39046   0.940   9.877   7.534  2.9660  2.8951  2.6001
  283MOL0     H39047   0.951  10.051   7.552 -0.8660  2.1100 -1.8452
  283MOL0     H39048   0.760   9.856   7.682 -0.9687  0.0105  2.9567
  283MOL0     H39049   0.745  10.017   7.729  0.1924  0.3434 -0.0854
  283MOL0     H39050   1.087   9.987   7.960  0.0656  3.6313 -0.5258
  283MOL0     H39051   0.860  10.002   7.061  2.1071  0.5396  2.6022
  283MOL0     H39052   0.924  10.067   6.863  3.5731 -0.8051  2.4046
  283MOL0     H39053   0.987   9.980   6.736  0.1798 -0.8253  1.1551
  283MOL0     H39054   0.810   9.963   6.771  0.1959 -2.0548  0.2117
  284MOL0     O39055   7.081   2.291  11.505 -0.1583  0.1360 -1.0665
  284MOL0     C39056   7.147   2.258  11.606  0.2817 -0.3672 -0.0960
  284MOL0     O39057   7.156   2.135  11.662 -0.1911  0.2198 -0.5922
  284MOL0     C39058   7.116   2.024  11.592  0.3331  0.0156  0.4974
  284MOL0     C39059   7.030   1.931  11.646  0.2391 -0.0620 -0.5754
  284MOL0     C39060   6.991   1.811  11.578 -0.3750 -0.1346 -0.5642
  284MOL0     C39061   7.041   1.776  11.447  1.3949 -0.8496 -0.0510
  284MOL0     O39062   7.007   1.646  11.404  0.1340 -1.3179 -0.0324
  284MOL0     C39063   7.074   1.607  11.286 -0.2652 -0.4663  0.1028
  284MOL0     C39064   7.039   1.459  11.275 -0.1527 -0.3034 -0.7532
  284MOL0     C39065   7.097   1.394  11.153  0.8410  0.2147  0.4400
  284MOL0     C39066   7.062   1.247  11.157  0.0897  1.0283  0.1235
  284MOL0     C39067   7.084   1.182  11.015  0.0749 -0.3832  0.6162
  284MOL0     C39068   7.079   1.020  11.023  0.6199 -1.0261  0.4811
  284MOL0     C39069   7.104   0.957  10.884  0.5990 -0.1609  1.1276
  284MOL0     C39070   7.074   0.810  10.893 -0.2738  0.3988  1.3550
  284MOL0     N39071   7.192   0.729  10.883  0.4243  0.1761  0.2717
  284MOL0     C39072   7.204   0.606  10.818 -0.4602 -1.1692 -0.1686
  284MOL0     C39073   7.334   0.576  10.842 -0.3177  0.3434  0.6775
  284MOL0     C39074   7.415   0.446  10.824  0.3824 -0.6616 -0.8508
  284MOL0     C39075   7.382   0.357  10.697 -0.2629 -0.3275 -0.3846
  284MOL0     C39076   7.395   0.438  10.565 -1.1929  0.0812 -0.7283
  284MOL0     C39077   7.395   0.372  10.422  0.5116 -0.7446 -0.3456
  284MOL0     O39078   7.513   0.305  10.409  0.1858 -0.2741  0.3030
  284MOL0     C39079   7.509   0.178  10.348  0.7298  0.0829  0.0171
  284MOL0     C39080   7.461   0.167  10.221 -0.6272 -0.8249 -0.4133
  284MOL0     C39081   7.492   0.062  10.133  0.4952  0.4998  0.2556
  284MOL0     C39082   7.451   0.069   9.988  1.0717  0.2502  0.2713
  284MOL0     C39083   7.589  -0.032  10.184 -0.2281 -0.2847 -0.2227
  284MOL0     C39084   7.642  -0.154  10.107  0.5317  0.0182  0.1874
  284MOL0     O39085   7.757  -0.198  10.147 -0.2262 -0.3056 -0.2324
  284MOL0     C39086   7.823  -0.295  10.084  0.5437  0.0898  0.3806
  284MOL0     C39087   7.770  -0.427  10.083 -0.7446  0.4912  0.7641
  284MOL0     C39088   7.846  -0.529  10.026  0.5893  0.4360  0.1772
  284MOL0     C39089   7.959  -0.495   9.947 -0.0158 -0.1722 -1.7769
  284MOL0     O39090   8.029  -0.578   9.869 -0.0595 -0.6677  0.5419
  284MOL0     C39091   8.041  -0.712   9.917 -0.0158 -0.0790  0.0559
  284MOL0     C39092   8.179  -0.775   9.872  0.0674  0.6681 -0.6252
  284MOL0     C39093   8.182  -0.925   9.889 -0.5877  0.0944  0.1873
  284MOL0     C39094   8.156  -0.968  10.027  0.0310  0.2153 -0.5482
  284MOL0     C39095   8.213  -1.120  10.040  0.0478  0.4457  0.0273
  284MOL0     C39096   8.186  -1.157  10.181 -0.0367  0.1615  0.0175
  284MOL0     C39097   8.168  -1.312  10.197 -0.0707 -1.2316  0.4170
  284MOL0     C39098   8.164  -1.342  10.344 -0.1033  0.1292 -0.1494
  284MOL0    Cl39099   8.117  -1.508  10.362 -0.0103  0.0591 -0.0741
  284MOL0     C39100   8.003  -0.368   9.943  0.1215 -0.2531 -0.3982
  284MOL0     C39101   7.937  -0.269  10.009  0.3166  0.2284  0.4381
  284MOL0     O39102   7.580  -0.193  10.008  0.7724  0.3803 -0.0666
  284MOL0     C39103   7.632  -0.026  10.318  0.3147 -0.5387 -1.0139
  284MOL0     C39104   7.591   0.076  10.396  0.0841  0.8207 -0.3961
  284MOL0     N39105   7.392   0.675  10.921  0.5458 -0.2937  0.1638
  284MOL0     N39106   7.307   0.764  10.948  0.7266  0.5587 -0.4036
  284MOL0     C39107   7.137   1.869  11.399  1.0280  0.2304 -0.2391
  284MOL0     C39108   7.170   1.983  11.468  0.3601 -0.8910  0.5470
  284MOL0     C39109   7.209   2.361  11.692  0.3322 -0.4788  0.4034
  284MOL0     C39110   7.267   2.466  11.617 -0.6693  0.7023  0.2107
  284MOL0     C39111   7.331   2.568  11.686  0.2094 -0.6723  0.6585
  284MOL0     C39112   7.338   2.568  11.824  0.1528  0.1428  0.3907
  284MOL0     O39113   7.394   2.666  11.903 -0.0333 -0.4970  0.2995
  284MOL0     C39114   7.456   2.784  11.853 -0.3509 -0.0388  1.3198
  284MOL0     C39115   7.542   2.842  11.972  0.4624  1.3117 -0.7697
  284MOL0     C39116   7.678   2.898  11.944 -0.1011 -0.4141  0.4412
  284MOL0     C39117   7.658   3.030  11.862  0.0566  0.2255 -0.1573
  284MOL0     C39118   7.632   3.017  11.719  0.3921 -0.0313 -0.1709
  284MOL0     C39119   7.593   2.977  11.602 -0.7230 -0.0906 -0.2768
  284MOL0     C39120   7.266   2.473  11.899  0.0443  0.3762  0.6697
  284MOL0     C39121   7.218   2.359  11.837  1.1171  1.1714  0.7167
  284MOL0     C39122   7.155   2.256  11.928 -0.3711  0.3656  0.2048
  284MOL0     H39123   6.987   1.964  11.740 -0.0733  0.4578 -0.8943
  284MOL0     H39124   6.910   1.755  11.625  0.3710  0.6083  1.7793
  284MOL0     H39125   7.182   1.622  11.295 -0.3474  1.1608 -1.2165
  284MOL0     H39126   7.048   1.661  11.195  2.6710 -1.7435 -1.6322
  284MOL0     H39127   7.081   1.406  11.360  1.1768 -1.2017 -1.9188
  284MOL0     H39128   6.934   1.429  11.272  0.6328 -3.3186 -1.3405
  284MOL0     H39129   7.054   1.438  11.063 -0.6138 -0.0867  0.9536
  284MOL0     H39130   7.206   1.400  11.157  0.8726  6.4419  0.8624
  284MOL0     H39131   7.126   1.197  11.230  0.2826  2.0168  0.6578
  284MOL0     H39132   6.959   1.230  11.189 -0.6320 -0.9534 -2.8632
  284MOL0     H39133   7.182   1.209  10.974 -0.3545 -0.2944 -0.3740
  284MOL0     H39134   7.003   1.223  10.954 -0.2917 -0.4362  1.0659
  284MOL0     H39135   7.152   0.997  11.101  1.1837 -1.6130 -0.2078
  284MOL0     H39136   6.976   0.993  11.048 -0.4332  0.1422 -2.2188
  284MOL0     H39137   7.206   0.980  10.850  1.8563 -1.5807  3.6011
  284MOL0     H39138   7.032   1.002  10.815  4.8539  2.5778 -2.0292
  284MOL0     H39139   7.027   0.791  10.989  0.6711 -1.8963  1.4374
  284MOL0     H39140   7.010   0.771  10.813  2.9040  0.3892 -1.4747
  284MOL0     H39141   7.124   0.554  10.767 -1.0646 -2.0356  1.5743
  284MOL0     H39142   7.407   0.390  10.918 -1.3290  1.7966  0.6072
  284MOL0     H39143   7.515   0.489  10.809  0.5495  0.2669  2.2487
  284MOL0     H39144   7.447   0.269  10.702  0.9698  0.6177  1.3218
  284MOL0     H39145   7.281   0.326  10.725 -0.3729  0.4783  0.1331
  284MOL0     H39146   7.307   0.503  10.569 -1.5891 -0.4376 -0.9024
  284MOL0     H39147   7.488   0.495  10.570  0.7288 -2.8174 -0.8657
  284MOL0     H39148   7.308   0.306  10.421 -0.9218  1.0286  0.4910
  284MOL0     H39149   7.376   0.450  10.348  1.4663  0.2075  0.3862
  284MOL0     H39150   7.394   0.238  10.173  2.2775  1.0813 -1.9068
  284MOL0     H39151   7.380  -0.011   9.965 -2.3283  2.9103  0.7487
  284MOL0     H39152   7.539   0.081   9.923  1.1976 -2.6451 -0.2509
  284MOL0     H39153   7.375   0.147   9.977 -2.0821 -2.0205  3.6052
  284MOL0     H39154   7.675  -0.454  10.128 -2.0898 -1.4225 -2.8192
  284MOL0     H39155   7.805  -0.629  10.032 -2.6750  1.6518  0.2681
  284MOL0     H39156   8.029  -0.705  10.026 -1.4386  2.9873 -0.1837
  284MOL0     H39157   7.957  -0.773   9.884 -2.3738  1.6020  2.4823
  284MOL0     H39158   8.194  -0.749   9.767  1.4015  2.1393 -0.1102
  284MOL0     H39159   8.263  -0.726   9.922  0.3437  1.5201 -1.8831
  284MOL0     H39160   8.279  -0.964   9.858 -0.0756  0.0349  1.7912
  284MOL0     H39161   8.104  -0.966   9.824  0.4545 -0.9566 -0.4429
  284MOL0     H39162   8.054  -0.953  10.062  0.0785 -0.6037 -0.0311
  284MOL0     H39163   8.218  -0.897  10.084 -0.2743  1.4671 -1.7237
  284MOL0     H39164   8.154  -1.180   9.970 -0.1820  1.3072 -0.5246
  284MOL0     H39165   8.313  -1.144  10.005 -0.7490  0.1010 -2.1936
  284MOL0     H39166   8.091  -1.111  10.209 -0.3668  0.1066 -0.9779
  284MOL0     H39167   8.270  -1.123  10.242  1.0308 -1.0285 -0.7403
  284MOL0     H39168   8.252  -1.357  10.144 -0.0081  0.5185 -1.0574
  284MOL0     H39169   8.072  -1.329  10.147  0.8168 -0.3750 -1.6832
  284MOL0     H39170   8.095  -1.277  10.400  2.1781  2.5211  0.0578
  284MOL0     H39171   8.263  -1.324  10.386 -0.4867  1.3070  0.3077
  284MOL0     H39172   8.082  -0.345   9.872  0.1007 -1.3513 -0.7962
  284MOL0     H39173   7.971  -0.166  10.017 -5.6742  2.5639  1.6833
  284MOL0     H39174   7.703  -0.089  10.371 -0.4019 -0.6468 -0.1688
  284MOL0     H39175   7.642   0.078  10.492 -1.6830 -0.7378  0.6282
  284MOL0     H39176   7.196   1.862  11.308  1.2908 -0.3869 -0.0230
  284MOL0     H39177   7.246   2.051  11.430 -0.6218  1.3552  2.3192
  284MOL0     H39178   7.268   2.471  11.508  2.2631  2.2302  0.2045
  284MOL0     H39179   7.373   2.652  11.632 -0.7782 -1.3740 -1.2875
  284MOL0     H39180   7.516   2.758  11.766  0.3052  1.6667  1.2155
  284MOL0     H39181   7.388   2.867  11.831  1.0242  1.4375  2.3491
  284MOL0     H39182   7.558   2.757  12.040  1.6905  0.8804 -1.5550
  284MOL0     H39183   7.486   2.911  12.035  2.1932  0.7692  1.4823
  284MOL0     H39184   7.733   2.926  12.035 -1.1120 -0.7143  1.1595
  284MOL0     H39185   7.750   2.831  11.895  0.0342 -1.1862  1.6613
  284MOL0     H39186   7.749   3.091  11.865 -2.0593  3.6805  0.0610
  284MOL0     H39187   7.577   3.095  11.899  0.5725  3.0004 -3.4752
  284MOL0     H39188   7.554   2.959  11.504  2.6065  2.6638 -2.3469
  284MOL0     H39189   7.268   2.471  12.008  1.7819  1.7386  0.7022
  284MOL0     H39190   7.058   2.226  11.887  1.1540 -0.3505 -3.2853
  284MOL0     H39191   7.234   2.180  11.934  1.3814  2.0606 -0.0870
  284MOL0     H39192   7.133   2.295  12.027  0.0798  1.2432 -0.0307
  285MOL0     O39193   9.557   3.886   8.120  0.0242  0.2125  0.3990
  285MOL0     C39194   9.633   3.862   8.211  0.9287  0.4853  0.1026
  285MOL0     O39195   9.667   3.732   8.241 -0.3721  0.4908 -0.2746
  285MOL0     C39196   9.603   3.630   8.171  0.1955 -0.5562 -0.8288
  285MOL0     C39197   9.675   3.562   8.076 -0.1424 -0.3851 -0.2047
  285MOL0     C39198   9.620   3.446   8.016  0.2056 -0.0193 -0.1692
  285MOL0     C39199   9.482   3.418   8.034  0.1744 -0.6389 -1.3719
  285MOL0     O39200   9.418   3.315   7.987  0.1216  0.1169  0.5855
  285MOL0     C39201   9.471   3.228   7.884  0.9660  0.2350 -0.0164
  285MOL0     C39202   9.372   3.129   7.828  0.8753  0.0542  0.2536
  285MOL0     C39203   9.245   3.199   7.786 -0.3814 -0.5986  0.2797
  285MOL0     C39204   9.132   3.113   7.729  0.6010  0.4511  0.5710
  285MOL0     C39205   9.165   3.054   7.598  0.6609 -0.7370  0.9314
  285MOL0     C39206   9.046   2.977   7.528  0.7539  0.0148  0.1865
  285MOL0     C39207   9.123   2.922   7.405  0.2577  0.3783 -0.3270
  285MOL0     C39208   9.030   2.840   7.317 -0.0142 -0.3529  0.2165
  285MOL0     N39209   9.092   2.799   7.192  0.5295 -0.2330  0.3056
  285MOL0     C39210   9.162   2.887   7.112  0.0381 -0.9126 -0.9745
  285MOL0     C39211   9.193   2.817   7.001 -0.0028 -0.2399 -0.9542
  285MOL0     C39212   9.257   2.875   6.877 -0.6811  0.6457 -0.0875
  285MOL0     C39213   9.172   2.983   6.794  0.0422  0.3967  0.4382
  285MOL0     C39214   9.179   3.128   6.827  0.9708 -0.3450 -0.3571
  285MOL0     C39215   9.040   3.203   6.790  0.0747 -0.0748 -1.1257
  285MOL0     O39216   8.940   3.144   6.881  0.3872  0.4837  0.4346
  285MOL0     C39217   8.887   3.215   6.987 -0.2118 -0.1720  0.2151
  285MOL0     C39218   8.958   3.241   7.105  0.3108  0.3237 -0.1428
  285MOL0     C39219   8.902   3.308   7.221  0.9689  0.0756  0.1748
  285MOL0     C39220   8.977   3.317   7.351 -0.5683 -0.1227 -0.4111
  285MOL0     C39221   8.782   3.384   7.200 -0.3468  0.4942 -0.4402
  285MOL0     C39222   8.730   3.490   7.297 -0.6322  0.3472  0.4543
  285MOL0     O39223   8.613   3.558   7.255  0.1439  0.3828  0.7921
  285MOL0     C39224   8.536   3.623   7.340 -0.2829 -0.7509 -0.6943
  285MOL0     C39225   8.486   3.559   7.454  0.0841  1.3605  0.5271
  285MOL0     C39226   8.406   3.622   7.546 -0.4017  0.0794 -0.0578
  285MOL0     C39227   8.364   3.755   7.522  0.1241  0.7301 -1.3913
  285MOL0     O39228   8.307   3.826   7.633 -0.2095 -0.3937  0.3669
  285MOL0     C39229   8.208   3.925   7.596  0.6081  0.3823  0.0972
  285MOL0     C39230   8.156   3.998   7.725 -0.3591 -0.4279  1.1171
  285MOL0     C39231   8.036   3.919   7.781 -0.2529 -0.0563 -0.3996
  285MOL0     C39232   7.902   3.930   7.710 -0.4880 -0.2640 -0.2144
  285MOL0     C39233   7.795   3.842   7.766 -0.3846  0.2506 -0.9810
  285MOL0     C39234   7.651   3.862   7.709 -0.4365 -0.2462  0.2397
  285MOL0     C39235   7.605   4.015   7.711 -0.3201 -0.0755 -0.0248
  285MOL0     C39236   7.466   4.024   7.660 -0.7553 -0.5659 -0.1358
  285MOL0    Cl39237   7.453   3.997   7.481  0.1093  0.2454  0.0913
  285MOL0     C39238   8.401   3.817   7.402  1.3245  0.3976 -0.4680
  285MOL0     C39239   8.485   3.750   7.307 -0.3004  0.1197  0.0546
  285MOL0     O39240   8.799   3.524   7.394 -0.1176  0.4760  0.2138
  285MOL0     C39241   8.716   3.366   7.078  0.1409  1.3644  0.3569
  285MOL0     C39242   8.758   3.279   6.978  0.5468 -0.1731 -0.4477
  285MOL0     N39243   9.142   2.682   7.019  0.0064 -0.0269 -0.1849
  285MOL0     N39244   9.087   2.678   7.135 -0.6041 -0.3605 -0.0147
  285MOL0     C39245   9.410   3.496   8.133  0.0543 -0.2770 -0.5663
  285MOL0     C39246   9.479   3.600   8.200 -0.1413  0.1811 -0.2385
  285MOL0     C39247   9.680   3.972   8.286  0.7410  0.4740 -0.1490
  285MOL0     C39248   9.800   3.958   8.336 -0.0653  0.3102 -0.7577
  285MOL0     C39249   9.844   4.048   8.440  1.0241  0.2837  0.0502
  285MOL0     C39250   9.771   4.162   8.474 -0.1250  0.0740 -0.9447
  285MOL0     O39251   9.805   4.256   8.561 -0.1084 -0.7385 -0.4883
  285MOL0     C39252   9.941   4.245   8.602 -0.0873  0.5299 -0.5731
  285MOL0     C39253   9.983   4.382   8.668  0.1658  0.4543 -0.7196
  285MOL0     C39254   9.981   4.503   8.568 -0.3303  0.8405 -0.0984
  285MOL0     C39255  10.061   4.619   8.626  0.1760 -0.7038  0.0231
  285MOL0     C39256   9.973   4.678   8.730  0.1540 -0.1197  0.7519
  285MOL0     C39257   9.897   4.713   8.816  0.2753 -0.4909  0.7455
  285MOL0     C39258   9.660   4.186   8.398 -0.0859  0.8443  0.2765
  285MOL0     C39259   9.606   4.093   8.302 -0.0584  0.8909 -0.1897
  285MOL0     C39260   9.479   4.133   8.243  0.3174 -0.4672 -0.1939
  285MOL0     H39261   9.781   3.583   8.069  0.0099 -1.2411 -0.5131
  285MOL0     H39262   9.674   3.388   7.942 -0.1393  0.6025 -0.9259
  285MOL0     H39263   9.556   3.169   7.918  0.5039 -1.0987 -1.0723
  285MOL0     H39264   9.500   3.292   7.800  0.1849  0.9128  0.2239
  285MOL0     H39265   9.417   3.087   7.737  1.3924 -1.1933  1.0597
  285MOL0     H39266   9.356   3.042   7.893  1.1117  1.0306  1.6466
  285MOL0     H39267   9.213   3.232   7.885  0.1983 -2.1019  0.9929
  285MOL0     H39268   9.265   3.284   7.719 -3.6749 -0.3659 -0.5770
  285MOL0     H39269   9.117   3.035   7.804  1.0961  1.7287  2.0231
  285MOL0     H39270   9.035   3.165   7.729 -0.3183 -1.0358  3.4391
  285MOL0     H39271   9.243   2.981   7.619  1.5715 -0.6795 -1.8348
  285MOL0     H39272   9.203   3.134   7.533 -1.2096  1.1030  1.9642
  285MOL0     H39273   9.012   2.889   7.584  1.2517 -0.2647  0.0517
  285MOL0     H39274   8.966   3.046   7.501  0.7831  0.3490  0.9427
  285MOL0     H39275   9.211   2.865   7.435  1.2207  0.8937 -2.0085
  285MOL0     H39276   9.155   3.013   7.353  0.9725 -0.4000 -1.2908
  285MOL0     H39277   8.993   2.750   7.368 -0.6205 -1.6773 -2.3912
  285MOL0     H39278   8.951   2.905   7.280  2.7342  2.7418 -0.7055
  285MOL0     H39279   9.183   2.992   7.132 -0.1887 -0.9638 -0.4775
  285MOL0     H39280   9.276   2.794   6.806 -1.0382 -1.7898  2.4260
  285MOL0     H39281   9.344   2.939   6.891 -0.5533  1.3399 -3.2049
  285MOL0     H39282   9.208   2.973   6.691 -0.5617 -0.2328  0.2817
  285MOL0     H39283   9.069   2.947   6.800  0.1831 -0.0574  0.2346
  285MOL0     H39284   9.213   3.133   6.930  0.3147 -6.2869  0.4964
  285MOL0     H39285   9.257   3.179   6.769  1.4198  0.8988  1.2725
  285MOL0     H39286   9.067   3.307   6.807  0.3645 -0.0998 -1.4180
  285MOL0     H39287   9.020   3.180   6.685 -3.9706  1.2350 -0.7896
  285MOL0     H39288   9.062   3.217   7.124  0.3717  2.5870  3.2943
  285MOL0     H39289   9.060   3.246   7.350  0.1516  0.6716  0.9129
  285MOL0     H39290   8.904   3.303   7.431 -0.8786  0.4297 -0.5977
  285MOL0     H39291   9.023   3.416   7.363  1.3998 -0.8766 -1.2742
  285MOL0     H39292   8.523   3.457   7.462  1.1677  1.5621 -1.4859
  285MOL0     H39293   8.367   3.582   7.639 -0.3949  3.1531  1.3847
  285MOL0     H39294   8.267   3.989   7.529 -0.9477  2.3276  0.4902
  285MOL0     H39295   8.132   3.878   7.532  2.8776 -1.2714 -1.5607
  285MOL0     H39296   8.240   3.992   7.795  1.4612 -2.6820 -1.0384
  285MOL0     H39297   8.131   4.103   7.711 -0.3414 -0.3298  1.7836
  285MOL0     H39298   8.027   3.964   7.880  0.8032  2.1923 -1.2650
  285MOL0     H39299   8.073   3.817   7.794 -0.0136  0.1439  0.5602
  285MOL0     H39300   7.911   3.920   7.602  0.1496  3.7290 -0.6977
  285MOL0     H39301   7.869   4.033   7.729 -1.2497 -0.8729  2.1509
  285MOL0     H39302   7.812   3.737   7.743 -1.1906  0.1188 -0.9831
  285MOL0     H39303   7.791   3.871   7.872 -3.7925  1.2086 -1.2752
  285MOL0     H39304   7.583   3.789   7.754 -2.9808  0.2067 -2.5345
  285MOL0     H39305   7.657   3.826   7.605  1.1136 -3.3249  1.2569
  285MOL0     H39306   7.672   4.076   7.650 -0.6302  2.0372  1.6100
  285MOL0     H39307   7.610   4.050   7.815  0.5977  1.7061 -0.6163
  285MOL0     H39308   7.441   4.128   7.686  1.2824 -0.5294  1.9758
  285MOL0     H39309   7.392   3.958   7.706 -0.7101 -1.8355 -1.7744
  285MOL0     H39310   8.372   3.917   7.372  1.2315  0.4109 -0.3348
  285MOL0     H39311   8.518   3.796   7.215 -0.5642 -3.1447 -1.8193
  285MOL0     H39312   8.622   3.410   7.046  0.8920  1.8126 -1.3506
  285MOL0     H39313   8.694   3.264   6.891  0.5114 -0.3711 -0.3867
  285MOL0     H39314   9.302   3.491   8.133 -0.0887  1.7892 -2.0312
  285MOL0     H39315   9.436   3.658   8.281 -0.8618 -0.4540 -0.1536
  285MOL0     H39316   9.863   3.873   8.313 -0.2601  0.0517 -0.3479
  285MOL0     H39317   9.937   4.016   8.487  0.4148 -4.0016 -1.2271
  285MOL0     H39318   9.953   4.169   8.679  2.0453 -0.9715 -2.2470
  285MOL0     H39319  10.012   4.226   8.521 -0.1052  0.8392 -0.6638
  285MOL0     H39320  10.071   4.384   8.732  0.7609  0.0331 -1.5134
  285MOL0     H39321   9.906   4.400   8.744  1.6261 -1.0163  1.1979
  285MOL0     H39322  10.028   4.465   8.477 -0.2516 -2.3056  1.1270
  285MOL0     H39323   9.878   4.536   8.548 -1.5802 -2.9510 -0.7076
  285MOL0     H39324  10.065   4.690   8.543  2.3798 -0.1215  0.5741
  285MOL0     H39325  10.161   4.595   8.663  0.8337  1.4844 -0.1852
  285MOL0     H39326   9.829   4.731   8.896  1.0346 -1.1031  1.5446
  285MOL0     H39327   9.610   4.280   8.420  0.8601  1.1211  1.2876
  285MOL0     H39328   9.505   4.164   8.142 -0.2448 -1.6683 -0.7286
  285MOL0     H39329   9.408   4.051   8.231 -0.7724  0.3347  0.5589
  285MOL0     H39330   9.432   4.218   8.293  1.3958 -1.3883  2.5947
  286MOL0     O39331   3.409   4.202   8.862 -0.8216 -0.2997 -0.2786
  286MOL0     C39332   3.301   4.169   8.814  0.1641  0.1642  0.3958
  286MOL0     O39333   3.183   4.167   8.876 -0.0958 -0.7831 -0.5092
  286MOL0     C39334   3.194   4.192   9.008 -0.0694  0.1860  0.5553
  286MOL0     C39335   3.198   4.326   9.064  1.2144  0.7912  0.1496
  286MOL0     C39336   3.206   4.340   9.203 -0.5191 -0.4723  0.3533
  286MOL0     C39337   3.216   4.229   9.279 -0.6990 -0.4570  0.1920
  286MOL0     O39338   3.203   4.246   9.419 -0.5256 -0.3344  0.3684
  286MOL0     C39339   3.265   4.152   9.502  1.0516  0.1776  0.7245
  286MOL0     C39340   3.411   4.147   9.477  0.3104  0.1730  0.3182
  286MOL0     C39341   3.511   4.259   9.530  0.6667  0.7980  0.5249
  286MOL0     C39342   3.646   4.249   9.450  0.2992  0.3527  0.6624
  286MOL0     C39343   3.655   4.345   9.327  0.3473  0.0177 -0.0808
  286MOL0     C39344   3.603   4.290   9.204 -0.6900 -1.8577 -0.3049
  286MOL0     C39345   3.632   4.377   9.084  0.0152 -1.1757  0.3569
  286MOL0     C39346   3.775   4.349   9.033 -1.2468 -0.5249 -0.2138
  286MOL0     N39347   3.883   4.453   9.033 -1.0903 -0.8863 -0.4439
  286MOL0     C39348   3.913   4.544   9.129  0.1329 -0.7481  0.8097
  286MOL0     C39349   4.011   4.631   9.078  0.7944  0.6954 -0.3496
  286MOL0     C39350   4.075   4.744   9.150 -0.0180  0.0789  0.0035
  286MOL0     C39351   3.991   4.872   9.164  0.0252  0.6372 -0.3833
  286MOL0     C39352   4.076   4.986   9.213  0.5635  0.3515 -0.2536
  286MOL0     C39353   4.005   5.125   9.199  0.6209 -1.2577  0.6919
  286MOL0     O39354   4.101   5.228   9.239 -0.3212 -0.3828  0.8869
  286MOL0     C39355   4.055   5.296   9.342  0.5378 -0.2394  0.2624
  286MOL0     C39356   4.131   5.275   9.454 -0.2572 -0.7484 -0.3704
  286MOL0     C39357   4.092   5.335   9.576 -0.3589  0.0761  0.4085
  286MOL0     C39358   4.171   5.285   9.701 -0.1413  0.0631  0.2176
  286MOL0     C39359   3.973   5.412   9.586 -0.8679 -0.8564 -0.5802
  286MOL0     C39360   3.920   5.474   9.713 -0.1610 -0.2362  0.3133
  286MOL0     O39361   3.984   5.446   9.826  0.7257 -0.7167  0.7773
  286MOL0     C39362   3.902   5.449   9.936  0.4143  0.2824  0.3213
  286MOL0     C39363   3.923   5.337  10.019  0.1388 -0.0362  0.1511
  286MOL0     C39364   3.855   5.316  10.139 -0.7901  0.3160 -0.1697
  286MOL0     C39365   3.748   5.399  10.176 -0.2040  0.2205 -0.0345
  286MOL0     O39366   3.685   5.400  10.299 -0.2993 -0.5952  0.2995
  286MOL0     C39367   3.562   5.329  10.314  0.0437 -1.0820 -1.2491
  286MOL0     C39368   3.571   5.181  10.323  0.1087  0.6462 -0.2797
  286MOL0     C39369   3.663   5.132  10.432  0.7719  0.2039  0.6083
  286MOL0     C39370   3.627   4.988  10.461 -0.7001  0.1685 -0.3272
  286MOL0     C39371   3.508   4.988  10.568  1.0782 -0.4523  0.0336
  286MOL0     C39372   3.473   4.833  10.592  0.6553 -0.5845 -0.0947
  286MOL0     C39373   3.585   4.763  10.668 -1.0780 -0.3964 -0.3581
  286MOL0     C39374   3.545   4.623  10.712 -0.2434 -0.2406  0.0793
  286MOL0    Cl39375   3.497   4.533  10.557 -0.4129  0.2269  0.1124
  286MOL0     C39376   3.737   5.519  10.101  0.3509 -0.7327  0.2497
  286MOL0     C39377   3.810   5.549   9.983  0.2158  0.3599 -0.0517
  286MOL0     O39378   3.819   5.542   9.704 -0.2435 -0.0742 -0.4102
  286MOL0     C39379   3.895   5.419   9.467  0.2847  0.8625  0.3727
  286MOL0     C39380   3.937   5.372   9.347  0.4789  0.4628 -0.9786
  286MOL0     N39381   4.036   4.584   8.949  0.4696  0.3978 -0.4027
  286MOL0     N39382   3.957   4.483   8.918  0.1591 -0.9127 -0.6186
  286MOL0     C39383   3.210   4.100   9.221  0.6629 -0.3298  0.7531
  286MOL0     C39384   3.190   4.083   9.089 -0.1813  0.7720 -0.4983
  286MOL0     C39385   3.300   4.129   8.672 -0.1327 -0.5324 -0.2940
  286MOL0     C39386   3.186   4.171   8.594  0.0444  0.6915 -0.4008
  286MOL0     C39387   3.173   4.126   8.463 -1.3366 -0.2185  0.0061
  286MOL0     C39388   3.286   4.063   8.402 -1.0679  0.2529  0.0549
  286MOL0     O39389   3.271   4.032   8.265 -0.0712 -0.7052 -0.3558
  286MOL0     C39390   3.364   3.946   8.198  0.7330  0.1451 -0.2286
  286MOL0     C39391   3.499   4.011   8.166 -0.4690  0.0338 -0.0006
  286MOL0     C39392   3.560   3.969   8.027  0.1541  0.5369  0.5161
  286MOL0     C39393   3.712   3.968   8.021  0.2388 -0.2918  0.7252
  286MOL0     C39394   3.755   4.090   7.964  0.2228 -0.5522  1.0894
  286MOL0     C39395   3.788   4.194   7.906  0.5767 -0.4236 -0.0143
  286MOL0     C39396   3.404   4.032   8.477  0.1447 -0.1146  0.0956
  286MOL0     C39397   3.405   4.057   8.614  0.1672 -0.1236  0.6878
  286MOL0     C39398   3.537   4.015   8.682  0.3764  0.5618 -0.4854
  286MOL0     H39399   3.189   4.413   9.000  0.6188  0.0598 -0.7829
  286MOL0     H39400   3.219   4.443   9.232  1.3976 -0.7238  0.4993
  286MOL0     H39401   3.216   4.055   9.491  1.1430  0.3016 -1.0734
  286MOL0     H39402   3.245   4.197   9.600 -1.9903  0.2729  0.1451
  286MOL0     H39403   3.451   4.053   9.515  0.1280 -0.7985 -1.7634
  286MOL0     H39404   3.428   4.138   9.369 -0.8418 -3.1199  0.3230
  286MOL0     H39405   3.472   4.361   9.521  3.7436  1.9896 -1.0791
  286MOL0     H39406   3.524   4.234   9.635  1.1280  1.1138  0.5474
  286MOL0     H39407   3.735   4.286   9.502  2.2355  1.0445 -2.8063
  286MOL0     H39408   3.677   4.149   9.421 -0.0554  1.0563 -2.6152
  286MOL0     H39409   3.761   4.363   9.308  0.3394 -1.4695 -1.8859
  286MOL0     H39410   3.608   4.443   9.341 -0.7664 -0.7375  1.8255
  286MOL0     H39411   3.634   4.189   9.177  0.8269 -0.7849 -2.8995
  286MOL0     H39412   3.494   4.288   9.216 -0.7322 -0.6040 -0.2834
  286MOL0     H39413   3.623   4.482   9.114 -2.4523 -1.1374 -0.2749
  286MOL0     H39414   3.557   4.352   9.008 -0.2617 -0.6219  0.4373
  286MOL0     H39415   3.817   4.260   9.082 -0.6534  0.4345  1.1012
  286MOL0     H39416   3.757   4.327   8.928 -2.8204 -0.8059  0.0936
  286MOL0     H39417   3.881   4.549   9.233  3.6484 -0.3906  2.0333
  286MOL0     H39418   4.171   4.751   9.100 -0.6177 -2.7470 -1.7608
  286MOL0     H39419   4.082   4.719   9.256 -0.1538  0.1600  0.0320
  286MOL0     H39420   3.953   4.909   9.068 -0.7880 -0.0916 -0.3601
  286MOL0     H39421   3.903   4.848   9.225 -0.2624  2.3478 -0.0911
  286MOL0     H39422   4.092   4.979   9.321 -1.6862  1.5142  0.2080
  286MOL0     H39423   4.174   4.991   9.164  1.0639 -2.8969  0.1493
  286MOL0     H39424   3.994   5.143   9.092  2.9945  0.7516  0.6905
  286MOL0     H39425   3.906   5.126   9.245  0.3058  1.8615  0.1425
  286MOL0     H39426   4.224   5.218   9.456  0.1759 -0.1851 -2.3631
  286MOL0     H39427   4.206   5.373   9.756 -0.9984  1.8571 -1.9290
  286MOL0     H39428   4.263   5.229   9.680 -0.3863  0.2340 -1.4600
  286MOL0     H39429   4.107   5.232   9.772 -0.8370  1.6708  0.8374
  286MOL0     H39430   3.995   5.262   9.988 -1.3319 -0.6145 -2.1339
  286MOL0     H39431   3.876   5.228  10.201 -0.2928  0.4171 -0.1890
  286MOL0     H39432   3.508   5.364  10.402 -1.6525 -1.6364 -2.0256
  286MOL0     H39433   3.499   5.368  10.233  0.3030 -0.2840 -1.0766
  286MOL0     H39434   3.468   5.151  10.346  0.9030 -0.4196  2.1140
  286MOL0     H39435   3.596   5.143  10.224  0.6126 -0.5935  0.3106
  286MOL0     H39436   3.671   5.191  10.524 -0.9629 -1.4715  1.9229
  286MOL0     H39437   3.755   5.137  10.373  0.2740 -1.6375 -0.3803
  286MOL0     H39438   3.725   4.951  10.493  1.5211  5.0546 -0.5819
  286MOL0     H39439   3.604   4.932  10.370 -3.2449 -0.2016  0.4581
  286MOL0     H39440   3.545   5.037  10.659 -0.4723  2.8091 -0.9447
  286MOL0     H39441   3.424   5.046  10.528  0.4431 -1.2742  0.1528
  286MOL0     H39442   3.458   4.793  10.492  0.1354  1.9640 -1.1171
  286MOL0     H39443   3.374   4.817  10.636  0.4632  0.0550 -0.2889
  286MOL0     H39444   3.615   4.828  10.751 -1.6046  1.4773 -1.5840
  286MOL0     H39445   3.677   4.746  10.612 -1.0116 -0.6744 -0.1692
  286MOL0     H39446   3.459   4.623  10.780 -1.0288  2.7664 -0.7407
  286MOL0     H39447   3.617   4.566  10.771 -1.6397 -0.7419  1.3657
  286MOL0     H39448   3.666   5.598  10.126 -2.7919 -2.6044 -2.0523
  286MOL0     H39449   3.799   5.650   9.944 -0.8184  0.0890 -0.4727
  286MOL0     H39450   3.797   5.465   9.475 -1.4505 -2.8043  4.4855
  286MOL0     H39451   3.891   5.383   9.249  2.0307  1.8636 -1.6076
  286MOL0     H39452   3.212   4.012   9.285  4.1057  1.2066  3.0786
  286MOL0     H39453   3.172   3.980   9.060  0.7086  1.0289 -2.0263
  286MOL0     H39454   3.094   4.213   8.632 -1.4107 -2.6484  0.1719
  286MOL0     H39455   3.080   4.143   8.410 -1.6687 -3.1752 -0.5627
  286MOL0     H39456   3.378   3.844   8.237  2.1808 -0.0884 -1.2816
  286MOL0     H39457   3.311   3.919   8.106 -0.4679  1.0971  0.1620
  286MOL0     H39458   3.570   3.990   8.247 -0.4848  1.8053  0.5269
  286MOL0     H39459   3.492   4.120   8.171  0.2928  0.2713 -2.8030
  286MOL0     H39460   3.519   3.879   7.980 -1.6106  2.2430 -1.4571
  286MOL0     H39461   3.529   4.042   7.951  5.5980  2.0242 -0.7005
  286MOL0     H39462   3.743   3.896   7.945 -1.9340  1.3217 -1.8652
  286MOL0     H39463   3.758   3.952   8.119  1.7878 -2.9852 -0.3300
  286MOL0     H39464   3.827   4.274   7.847 -3.3598  2.3930  0.8233
  286MOL0     H39465   3.491   3.984   8.433  1.1058 -0.1128  1.9112
  286MOL0     H39466   3.517   4.022   8.790 -2.0240  0.0730 -0.8361
  286MOL0     H39467   3.558   3.908   8.673  1.1325  0.6447  0.1321
  286MOL0     H39468   3.614   4.085   8.649  2.0069 -0.1518  1.5701
  287MOL0     O39469   3.048   7.545   3.394 -0.1957  0.0143  0.0451
  287MOL0     C39470   3.000   7.619   3.477 -0.6732 -0.3749  0.0897
  287MOL0     O39471   3.038   7.748   3.501  1.2065 -0.2432  0.1509
  287MOL0     C39472   3.153   7.789   3.463  0.1005  0.1438  0.5626
  287MOL0     C39473   3.260   7.792   3.552  0.4731 -0.0826 -0.2655
  287MOL0     C39474   3.387   7.832   3.504  0.1460 -0.6505  0.1219
  287MOL0     C39475   3.408   7.857   3.367 -0.0990 -0.6644 -0.7547
  287MOL0     O39476   3.534   7.900   3.326  0.2846  0.1714  0.2903
  287MOL0     C39477   3.560   7.899   3.187  0.5950  0.0149  0.2634
  287MOL0     C39478   3.704   7.953   3.181  1.1239 -0.2130  0.0579
  287MOL0     C39479   3.746   7.964   3.027  0.5336 -0.3050  0.1461
  287MOL0     C39480   3.870   8.048   3.001 -0.3946 -0.6881 -0.3261
  287MOL0     C39481   3.991   7.997   3.071 -0.2096 -0.2129 -0.4357
  287MOL0     C39482   4.109   8.094   3.042 -0.2149  0.2695 -0.2470
  287MOL0     C39483   4.239   8.057   3.121 -0.4665  1.3073  0.5910
  287MOL0     C39484   4.235   8.055   3.270  0.1764 -0.2916 -0.1313
  287MOL0     N39485   4.178   8.173   3.327 -1.0766  0.1507 -0.3146
  287MOL0     C39486   4.237   8.295   3.314  0.4465  0.2173 -0.0314
  287MOL0     C39487   4.158   8.384   3.385  0.1733 -0.0804 -0.0357
  287MOL0     C39488   4.158   8.528   3.385  0.3145 -0.6049  0.1924
  287MOL0     C39489   4.060   8.580   3.278 -0.8074 -0.1562 -0.5802
  287MOL0     C39490   4.030   8.729   3.302  0.5803  0.1400  0.1725
  287MOL0     C39491   3.930   8.775   3.202 -0.3219 -0.1318 -0.6084
  287MOL0     O39492   3.938   8.920   3.221  0.1904 -0.5943  0.1959
  287MOL0     C39493   3.951   8.987   3.098  0.0543  0.3727 -0.0695
  287MOL0     C39494   3.900   9.117   3.079 -0.2834  0.3565 -0.0120
  287MOL0     C39495   3.904   9.190   2.957  0.0084 -0.8079 -0.2069
  287MOL0     C39496   3.829   9.323   2.951 -0.0563 -0.8612  0.3324
  287MOL0     C39497   3.969   9.137   2.850 -0.7402 -0.0808 -0.4391
  287MOL0     C39498   3.999   9.203   2.720 -0.4878 -0.3412 -0.0081
  287MOL0     O39499   3.966   9.335   2.706  0.2031  0.2626  0.0329
  287MOL0     C39500   3.993   9.405   2.584 -0.0556 -0.9775  1.1545
  287MOL0     C39501   3.905   9.509   2.541  0.3292  0.6086  0.4139
  287MOL0     C39502   3.945   9.602   2.441 -0.7714 -0.6255 -0.4456
  287MOL0     C39503   4.079   9.587   2.385  0.5560  0.5622 -0.5816
  287MOL0     O39504   4.114   9.652   2.269  0.0103  0.3364  0.0273
  287MOL0     C39505   4.256   9.645   2.233 -0.5928  0.2639  0.0132
  287MOL0     C39506   4.271   9.753   2.126  0.3594  0.3363  0.0839
  287MOL0     C39507   4.233   9.886   2.198 -0.0342 -0.6179  0.6714
  287MOL0     C39508   4.273  10.004   2.106  0.7740  0.3797 -0.2895
  287MOL0     C39509   4.215  10.134   2.142 -0.0941 -0.0507 -0.0535
  287MOL0     C39510   4.223  10.238   2.032  0.2170 -0.6916 -0.7492
  287MOL0     C39511   4.210  10.372   2.101 -0.4694 -0.0149  0.4645
  287MOL0     C39512   4.063  10.383   2.146 -0.2782  0.8170 -0.0341
  287MOL0    Cl39513   4.017  10.558   2.178  0.2082 -0.0402  0.2532
  287MOL0     C39514   4.165   9.482   2.434  0.4658  0.4986 -0.2533
  287MOL0     C39515   4.127   9.394   2.535  0.1907  0.1067 -0.3454
  287MOL0     O39516   4.034   9.129   2.626  0.0661 -0.3769 -0.3445
  287MOL0     C39517   4.026   9.010   2.867  0.0756  0.9003 -0.6651
  287MOL0     C39518   4.026   8.940   2.989 -0.2857  0.0526  0.1688
  287MOL0     N39519   4.056   8.310   3.435  0.5598 -0.2903 -0.7218
  287MOL0     N39520   4.068   8.188   3.400 -0.3499  0.0813  0.1553
  287MOL0     C39521   3.307   7.846   3.278  0.2038  0.0934  0.1653
  287MOL0     C39522   3.175   7.822   3.332  0.0321  0.9025 -0.3768
  287MOL0     C39523   2.889   7.569   3.570  1.1926 -0.1150 -0.6479
  287MOL0     C39524   2.825   7.451   3.523  1.1629 -0.2339  0.4024
  287MOL0     C39525   2.700   7.409   3.583 -1.0220  0.1422  0.4638
  287MOL0     C39526   2.640   7.466   3.700  0.6604 -0.0682  0.4421
  287MOL0     O39527   2.515   7.435   3.757 -0.8599  0.0199  0.9472
  287MOL0     C39528   2.430   7.331   3.704 -0.3431  0.0618  0.8446
  287MOL0     C39529   2.375   7.351   3.557  0.0594 -0.0759 -0.4776
  287MOL0     C39530   2.248   7.448   3.557 -0.3450 -0.0906  0.6658
  287MOL0     C39531   2.177   7.432   3.425  0.3160 -0.2983 -0.3470
  287MOL0     C39532   2.081   7.543   3.398  0.1417  0.6414  0.4067
  287MOL0     C39533   2.006   7.636   3.386  0.6180 -0.1941  0.1494
  287MOL0     C39534   2.711   7.569   3.755 -0.2664  0.4694 -0.7592
  287MOL0     C39535   2.829   7.625   3.689 -0.1286  0.6521  0.4144
  287MOL0     C39536   2.890   7.743   3.760 -0.6997  0.0626  0.2124
  287MOL0     H39537   3.261   7.785   3.660  3.7144 -3.2304 -0.3301
  287MOL0     H39538   3.465   7.852   3.577  0.2292 -2.8475  0.6875
  287MOL0     H39539   3.486   7.971   3.149 -1.8226 -2.2487  0.3859
  287MOL0     H39540   3.543   7.802   3.139 -4.6539  1.1245 -0.7610
  287MOL0     H39541   3.711   8.047   3.238 -2.8227  0.6498 -0.5791
  287MOL0     H39542   3.779   7.888   3.227  0.1582  0.3914  2.6950
  287MOL0     H39543   3.763   7.865   2.984 -2.7788 -0.9293 -0.0510
  287MOL0     H39544   3.660   7.996   2.967  1.3334  0.4923 -0.6022
  287MOL0     H39545   3.884   8.053   2.893 -2.2225 -1.8412 -0.6592
  287MOL0     H39546   3.848   8.150   3.033 -2.2155 -0.5964 -1.7389
  287MOL0     H39547   4.020   7.901   3.027 -2.1574 -1.6715  1.2260
  287MOL0     H39548   3.977   7.991   3.180  0.9665 -0.0550 -0.2637
  287MOL0     H39549   4.133   8.086   2.936 -2.7659 -0.8200 -0.8165
  287MOL0     H39550   4.083   8.200   3.053  0.7556  0.4011  1.0573
  287MOL0     H39551   4.313   8.129   3.085  0.2462 -0.1044 -0.8687
  287MOL0     H39552   4.281   7.966   3.078 -3.5625 -0.4911  1.0591
  287MOL0     H39553   4.171   7.970   3.294 -1.3679  1.4008  2.1894
  287MOL0     H39554   4.331   8.035   3.320 -0.4924  0.1514  1.3956
  287MOL0     H39555   4.331   8.319   3.266  1.0784 -1.7475  0.1411
  287MOL0     H39556   4.261   8.565   3.378  1.2392 -2.6066  1.8886
  287MOL0     H39557   4.119   8.573   3.477 -0.4775  0.0216 -0.4375
  287MOL0     H39558   4.102   8.569   3.178  2.1499  0.1314  0.5296
  287MOL0     H39559   3.965   8.529   3.295  1.4729 -4.5180  0.5004
  287MOL0     H39560   3.991   8.755   3.401  1.5703 -3.5612  1.6810
  287MOL0     H39561   4.123   8.779   3.271  0.3829  0.2982 -0.1649
  287MOL0     H39562   3.949   8.733   3.103  0.2949 -4.0671  1.0064
  287MOL0     H39563   3.831   8.736   3.227 -0.2444 -0.7059 -1.1908
  287MOL0     H39564   3.849   9.158   3.166 -1.4486  2.0069 -1.4223
  287MOL0     H39565   3.895   9.407   2.926  3.1658 -2.0804  3.6746
  287MOL0     H39566   3.798   9.335   3.055  0.3071 -1.2185  0.4873
  287MOL0     H39567   3.742   9.326   2.886  2.4351 -0.7058 -3.2657
  287MOL0     H39568   3.819   9.522   2.606  0.4410 -1.0022  0.9212
  287MOL0     H39569   3.888   9.679   2.391 -0.7902  0.2856  0.9378
  287MOL0     H39570   4.325   9.667   2.315 -0.9694  2.2702 -0.1433
  287MOL0     H39571   4.284   9.548   2.191  0.1520  0.4176  0.1407
  287MOL0     H39572   4.374   9.751   2.087  1.1534  1.8702  1.9641
  287MOL0     H39573   4.202   9.732   2.043  1.0624 -2.8024  0.1657
  287MOL0     H39574   4.283   9.898   2.295 -2.5160  0.4170  1.9218
  287MOL0     H39575   4.125   9.889   2.214 -0.5005 -2.6947 -1.5837
  287MOL0     H39576   4.240   9.973   2.007 -3.1957  1.5317  0.5049
  287MOL0     H39577   4.382   9.998   2.118  0.7420  1.1660  0.5122
  287MOL0     H39578   4.113  10.138   2.181 -0.6857  1.5331 -1.6067
  287MOL0     H39579   4.262  10.164   2.236  2.0662 -0.6198 -0.8976
  287MOL0     H39580   4.138  10.226   1.963  0.0674  1.0456 -0.9207
  287MOL0     H39581   4.321  10.228   1.984  1.1203  0.1400  0.8285
  287MOL0     H39582   4.222  10.458   2.034  0.9258 -1.6146 -1.4881
  287MOL0     H39583   4.291  10.391   2.172 -0.7414  0.0663  0.7558
  287MOL0     H39584   4.040  10.321   2.233  1.0283 -0.2171 -0.3899
  287MOL0     H39585   4.000  10.365   2.058 -2.1770 -2.6818  1.8154
  287MOL0     H39586   4.271   9.480   2.409  2.2572  1.7486  5.6835
  287MOL0     H39587   4.190   9.326   2.590  0.8734  0.4295 -0.7123
  287MOL0     H39588   4.075   8.953   2.789 -0.8674 -1.2990  0.2723
  287MOL0     H39589   4.065   8.839   2.981 -3.0500 -1.2686  1.5490
  287MOL0     H39590   3.322   7.859   3.171 -0.7051  0.5072  0.0716
  287MOL0     H39591   3.095   7.810   3.260  0.1448  2.6741 -0.8455
  287MOL0     H39592   2.849   7.401   3.429 -1.5751  0.6069 -0.8529
  287MOL0     H39593   2.658   7.331   3.520  0.8744 -0.2072 -0.4171
  287MOL0     H39594   2.488   7.238   3.714  1.6848  1.0417 -1.1190
  287MOL0     H39595   2.342   7.318   3.767 -3.1246 -0.4858 -2.8181
  287MOL0     H39596   2.341   7.256   3.514 -0.3022 -0.2098  0.1028
  287MOL0     H39597   2.460   7.386   3.498  0.4525 -0.2827 -0.0421
  287MOL0     H39598   2.183   7.423   3.641 -1.4466  2.4390  0.6361
  287MOL0     H39599   2.279   7.552   3.566  0.5703 -0.4222  1.4489
  287MOL0     H39600   2.125   7.335   3.424 -1.4096  0.6033 -0.9857
  287MOL0     H39601   2.256   7.424   3.350  0.1417 -2.6897 -0.3644
  287MOL0     H39602   1.949   7.721   3.356  2.2819  0.8333 -0.1837
  287MOL0     H39603   2.670   7.610   3.847  3.8643  1.7634  0.7417
  287MOL0     H39604   2.831   7.764   3.849  2.3554  0.7336  2.2357
  287MOL0     H39605   2.991   7.732   3.801  1.0860  1.6261 -3.3675
  287MOL0     H39606   2.892   7.830   3.694  4.7747 -1.0893 -1.6566
  288MOL0     O39607   2.776   2.341   1.480 -0.4118 -0.1500  0.7137
  288MOL0     C39608   2.777   2.298   1.359  0.3309 -0.3562 -0.1996
  288MOL0     O39609   2.729   2.172   1.328 -0.2732 -0.1661 -0.4082
  288MOL0     C39610   2.714   2.071   1.423 -0.0938 -0.4895 -0.0528
  288MOL0     C39611   2.631   2.087   1.541  0.7435  0.1191 -1.1362
  288MOL0     C39612   2.609   1.985   1.627  0.4134  0.2101 -0.5236
  288MOL0     C39613   2.664   1.859   1.597 -0.7672  0.4824  0.8509
  288MOL0     O39614   2.638   1.754   1.674 -0.8013  0.4485 -0.1283
  288MOL0     C39615   2.623   1.626   1.611  0.5161 -0.2176  0.0838
  288MOL0     C39616   2.556   1.527   1.698  0.9274 -0.6086  0.6073
  288MOL0     C39617   2.648   1.454   1.799 -1.0073  0.0512 -0.5736
  288MOL0     C39618   2.737   1.542   1.881  0.8302  0.2337  0.3041
  288MOL0     C39619   2.802   1.466   2.001  0.2963 -0.7093  0.5418
  288MOL0     C39620   2.880   1.542   2.116 -0.0273  0.4056 -0.9118
  288MOL0     C39621   2.785   1.623   2.208 -1.6472  0.0995  0.4008
  288MOL0     C39622   2.682   1.537   2.287  0.3023  0.1186  0.2740
  288MOL0     N39623   2.724   1.435   2.382  0.0955 -0.1776  0.7175
  288MOL0     C39624   2.700   1.449   2.514  0.5507 -0.5983  0.0390
  288MOL0     C39625   2.754   1.340   2.567 -0.6015 -0.3247 -1.2027
  288MOL0     C39626   2.772   1.324   2.714 -0.2800 -0.5075  1.1129
  288MOL0     C39627   2.640   1.272   2.766  0.8669 -0.1295 -0.3510
  288MOL0     C39628   2.677   1.188   2.891  0.6004  0.3227 -0.3689
  288MOL0     C39629   2.576   1.083   2.924  1.1275 -0.2151 -0.6670
  288MOL0     O39630   2.449   1.152   2.945  0.6848  0.1798  0.3640
  288MOL0     C39631   2.334   1.083   2.948  0.1015  0.3041 -0.5735
  288MOL0     C39632   2.224   1.126   2.869  0.3140  0.9846  1.0503
  288MOL0     C39633   2.102   1.065   2.867  0.5257  0.3595  0.1645
  288MOL0     C39634   1.992   1.115   2.780 -0.4709 -0.2287  0.3044
  288MOL0     C39635   2.081   0.946   2.947 -0.4485  0.0510 -0.4893
  288MOL0     C39636   1.953   0.880   2.956 -1.2377  1.1488 -0.8080
  288MOL0     O39637   1.948   0.756   2.902  0.0607 -0.1817  0.1064
  288MOL0     C39638   1.861   0.658   2.940  0.2708 -1.0414 -0.0112
  288MOL0     C39639   1.852   0.629   3.075 -0.4254  0.2977 -0.2595
  288MOL0     C39640   1.736   0.564   3.119 -0.4573  0.5394  0.0908
  288MOL0     C39641   1.645   0.511   3.032 -0.2102  0.0988 -0.1873
  288MOL0     O39642   1.540   0.438   3.075 -0.2217  1.0816  0.4236
  288MOL0     C39643   1.492   0.446   3.210 -0.5963  0.2385  0.5460
  288MOL0     C39644   1.345   0.408   3.204 -0.0994  0.7552 -0.0655
  288MOL0     C39645   1.284   0.410   3.342  0.5078 -0.0522 -0.4806
  288MOL0     C39646   1.131   0.385   3.351  0.4508 -0.0322 -0.0448
  288MOL0     C39647   1.076   0.385   3.492  0.3967  0.2599 -0.5648
  288MOL0     C39648   1.145   0.275   3.577  0.6064 -0.0940  0.7377
  288MOL0     C39649   1.086   0.261   3.718 -0.7543  0.7096 -1.2129
  288MOL0     C39650   1.122   0.386   3.808 -0.2542 -0.3231 -0.2946
  288MOL0    Cl39651   1.000   0.361   3.933 -0.3791 -0.1626  0.0342
  288MOL0     C39652   1.653   0.529   2.894 -0.9279  0.3833  0.4967
  288MOL0     C39653   1.772   0.603   2.845  0.6116 -0.2431 -0.7429
  288MOL0     O39654   1.870   0.932   3.025 -0.3534  0.7769  0.2374
  288MOL0     C39655   2.187   0.897   3.028  0.7131  0.0733  0.1418
  288MOL0     C39656   2.320   0.962   3.018 -0.7174  0.5400 -0.1802
  288MOL0     N39657   2.823   1.269   2.475  0.4206  0.6045  0.0779
  288MOL0     N39658   2.803   1.325   2.361  0.2040  0.4731  0.5764
  288MOL0     C39659   2.752   1.849   1.490 -1.1741  0.6606  0.4947
  288MOL0     C39660   2.789   1.954   1.412 -0.1932  0.3284  0.6905
  288MOL0     C39661   2.831   2.395   1.258 -1.1158  0.1582  0.1848
  288MOL0     C39662   2.881   2.339   1.135 -0.3149  0.4627 -0.2419
  288MOL0     C39663   2.955   2.419   1.044  0.1700  0.1534  0.2546
  288MOL0     C39664   2.974   2.557   1.058  0.5295  0.2611 -0.2905
  288MOL0     O39665   3.042   2.644   0.972  0.0032  0.1505 -0.0399
  288MOL0     C39666   3.065   2.616   0.834 -0.0491  0.4031  0.3240
  288MOL0     C39667   3.119   2.749   0.779  0.6387 -0.7811  0.0069
  288MOL0     C39668   3.012   2.864   0.792  0.1905  0.4271  0.3111
  288MOL0     C39669   3.034   2.953   0.671  0.1730  0.0027 -0.4533
  288MOL0     C39670   2.942   3.068   0.653  0.0049 -0.9806 -0.2130
  288MOL0     C39671   2.851   3.146   0.616  0.6454  0.2524 -0.2608
  288MOL0     C39672   2.905   2.609   1.170 -0.3683 -0.3082  0.3484
  288MOL0     C39673   2.840   2.535   1.270 -0.2196 -0.8210 -0.4333
  288MOL0     C39674   2.788   2.615   1.394 -1.0005  0.7522  0.7418
  288MOL0     H39675   2.585   2.181   1.569  0.4548 -0.0987 -0.8693
  288MOL0     H39676   2.565   1.983   1.726  4.2562  0.3009  1.3639
  288MOL0     H39677   2.714   1.574   1.582 -0.8884 -3.7589  1.4486
  288MOL0     H39678   2.563   1.643   1.521 -0.5448 -1.0991  0.5946
  288MOL0     H39679   2.477   1.581   1.750 -1.4422 -3.6366  0.4635
  288MOL0     H39680   2.491   1.465   1.635 -1.6373 -0.8512  3.3019
  288MOL0     H39681   2.589   1.396   1.871  2.6300 -2.6732  0.4956
  288MOL0     H39682   2.705   1.381   1.740  1.8814  1.7657 -0.1089
  288MOL0     H39683   2.818   1.574   1.814 -0.1058  2.4231  0.1227
  288MOL0     H39684   2.684   1.630   1.917  0.5679  0.7542 -1.2876
  288MOL0     H39685   2.874   1.402   1.949 -1.1281 -1.8547 -0.1146
  288MOL0     H39686   2.730   1.405   2.056  1.5656 -2.9805 -0.1644
  288MOL0     H39687   2.934   1.462   2.167  0.8854  0.7614 -1.3051
  288MOL0     H39688   2.962   1.608   2.088  0.2473  2.1053  3.1801
  288MOL0     H39689   2.744   1.705   2.149  0.6494  1.4549  0.5539
  288MOL0     H39690   2.846   1.678   2.281 -1.4292 -0.1713  0.4282
  288MOL0     H39691   2.628   1.621   2.331  3.4026  2.9401 -0.8902
  288MOL0     H39692   2.613   1.497   2.212  1.7167  1.6713 -1.9676
  288MOL0     H39693   2.639   1.526   2.559 -2.1618 -1.9937 -1.0194
  288MOL0     H39694   2.778   1.423   2.760 -0.9279 -0.6094  1.4194
  288MOL0     H39695   2.862   1.264   2.730  0.6089  0.4822  0.0760
  288MOL0     H39696   2.563   1.345   2.795  1.2423  1.3847 -2.8457
  288MOL0     H39697   2.593   1.204   2.694  0.5191 -1.5374  1.1488
  288MOL0     H39698   2.784   1.165   2.895  1.1983  2.9168  0.6913
  288MOL0     H39699   2.667   1.260   2.973  3.0505 -0.4192  0.6853
  288MOL0     H39700   2.576   1.003   2.849  1.3127 -2.2531  1.3766
  288MOL0     H39701   2.602   1.039   3.021  2.7759  3.9885  1.0013
  288MOL0     H39702   2.249   1.216   2.813  1.8594  1.7773  2.9149
  288MOL0     H39703   1.997   1.219   2.748  1.2037 -0.9203 -1.9158
  288MOL0     H39704   1.889   1.106   2.815 -1.2022  2.7660 -0.7909
  288MOL0     H39705   1.994   1.053   2.690  2.7979 -1.5343  1.1460
  288MOL0     H39706   1.928   0.661   3.145 -0.0293 -1.6613  0.2538
  288MOL0     H39707   1.726   0.536   3.223 -2.0224 -1.2633 -0.4617
  288MOL0     H39708   1.558   0.379   3.267  0.3084  0.8045  0.1955
  288MOL0     H39709   1.508   0.545   3.253  0.6249 -0.1063  0.9262
  288MOL0     H39710   1.296   0.476   3.134  1.9047 -0.5703 -2.9331
  288MOL0     H39711   1.344   0.303   3.174  0.5527  0.4600  0.8802
  288MOL0     H39712   1.320   0.494   3.403  1.4527  0.4557 -1.6830
  288MOL0     H39713   1.325   0.325   3.397  1.2259  0.9306  0.5457
  288MOL0     H39714   1.102   0.296   3.295 -1.3545  1.8037 -2.2801
  288MOL0     H39715   1.094   0.469   3.291  2.2610  1.3817  0.6827
  288MOL0     H39716   1.076   0.484   3.537  1.1318  0.1178 -0.2477
  288MOL0     H39717   0.967   0.370   3.486  0.3412  0.4644 -0.1189
  288MOL0     H39718   1.254   0.285   3.579  0.8704 -2.2170 -0.2821
  288MOL0     H39719   1.129   0.179   3.528  1.0879 -0.3584  1.1052
  288MOL0     H39720   1.135   0.173   3.762  1.1965  2.7466  0.9556
  288MOL0     H39721   0.979   0.241   3.713 -1.0124  1.1695  1.2248
  288MOL0     H39722   1.102   0.484   3.764 -1.3837  2.2823  5.1756
  288MOL0     H39723   1.221   0.373   3.851  0.0084  2.3192  0.0673
  288MOL0     H39724   1.571   0.487   2.837 -0.5792 -0.1165  0.3560
  288MOL0     H39725   1.774   0.635   2.741 -1.8033 -1.0016 -1.0998
  288MOL0     H39726   2.174   0.814   3.097  3.4587 -0.2918  0.3592
  288MOL0     H39727   2.402   0.932   3.083  1.9314  4.1124 -1.6001
  288MOL0     H39728   2.808   1.757   1.477 -0.3486  1.3977 -1.5823
  288MOL0     H39729   2.864   1.947   1.334  0.5801  1.1968  1.3327
  288MOL0     H39730   2.899   2.233   1.122 -2.1846 -0.2239  2.0728
  288MOL0     H39731   3.003   2.357   0.970 -0.6183 -1.4926  1.0510
  288MOL0     H39732   3.143   2.542   0.813 -0.4458  0.3633 -1.0690
  288MOL0     H39733   2.980   2.584   0.772  2.4370  0.5324 -3.4565
  288MOL0     H39734   3.151   2.736   0.675  0.3982  4.5687 -1.0708
  288MOL0     H39735   3.209   2.795   0.822  0.6656  2.9179 -3.3980
  288MOL0     H39736   2.913   2.817   0.789  1.0919 -1.5324 -1.5271
  288MOL0     H39737   3.026   2.922   0.884 -0.0976  0.5455  0.2820
  288MOL0     H39738   3.036   2.898   0.577 -1.6294  0.9262 -1.0777
  288MOL0     H39739   3.130   3.000   0.695  0.8703 -1.6735  0.2197
  288MOL0     H39740   2.764   3.205   0.597  0.1125 -0.0610  1.1036
  288MOL0     H39741   2.914   2.717   1.177 -4.2232  0.1260  1.0295
  288MOL0     H39742   2.707   2.570   1.453 -1.9418  2.1410  0.5712
  288MOL0     H39743   2.875   2.635   1.456 -0.1564  0.7082 -0.4054
  288MOL0     H39744   2.753   2.711   1.353  1.5432 -0.1617 -4.3527
  289MOL0     O39745   1.334   5.589   0.994 -0.0471 -1.3051  0.5134
  289MOL0     C39746   1.421   5.666   0.960 -0.7385  0.3057  0.1913
  289MOL0     O39747   1.544   5.633   0.903  0.4442 -0.1320 -0.0917
  289MOL0     C39748   1.585   5.503   0.883  0.2364 -0.4607 -0.0445
  289MOL0     C39749   1.709   5.465   0.915 -0.2079  0.5647 -0.6343
  289MOL0     C39750   1.742   5.332   0.908 -0.8782 -0.4680 -0.3541
  289MOL0     C39751   1.655   5.228   0.869  0.4641 -0.1099  0.4885
  289MOL0     O39752   1.684   5.098   0.855  0.3931  0.0269  0.7203
  289MOL0     C39753   1.743   5.055   0.727 -0.3019 -0.1952 -0.0022
  289MOL0     C39754   1.714   4.913   0.693 -0.0544  0.3666  0.5902
  289MOL0     C39755   1.565   4.866   0.686  0.2398  0.2055 -0.5445
  289MOL0     C39756   1.542   4.716   0.699  0.2517 -0.0634  0.0780
  289MOL0     C39757   1.389   4.693   0.713  0.2976 -0.2500 -0.1485
  289MOL0     C39758   1.373   4.544   0.769  0.1876 -0.8907 -0.2891
  289MOL0     C39759   1.229   4.504   0.792  0.3757 -0.3826  0.0883
  289MOL0     C39760   1.146   4.494   0.664  0.6253  0.4055  0.1110
  289MOL0     N39761   1.181   4.384   0.573  0.2510 -0.2492 -0.5360
  289MOL0     C39762   1.165   4.251   0.597  0.5403  0.2113 -0.1939
  289MOL0     C39763   1.229   4.190   0.495  0.2344 -0.8079  0.3443
  289MOL0     C39764   1.261   4.037   0.487 -0.5867  0.2343 -0.5498
  289MOL0     C39765   1.311   3.982   0.344 -0.5194 -0.0826 -0.2464
  289MOL0     C39766   1.458   4.019   0.320 -0.0302 -0.2813  0.6276
  289MOL0     C39767   1.516   3.948   0.197  0.9471  0.4885 -0.3697
  289MOL0     O39768   1.495   3.807   0.177  0.7310  0.2189  0.1898
  289MOL0     C39769   1.452   3.737   0.065 -0.5901 -0.1827  0.0228
  289MOL0     C39770   1.420   3.605   0.071 -0.4693 -0.8128 -1.1164
  289MOL0     C39771   1.388   3.526  -0.039 -0.2101 -1.3330  0.7784
  289MOL0     C39772   1.354   3.385  -0.016  0.4921  0.0559 -0.1434
  289MOL0     C39773   1.387   3.587  -0.166  0.6909  0.5295  1.6134
  289MOL0     C39774   1.345   3.524  -0.293 -0.4755 -1.1905  0.8121
  289MOL0     O39775   1.355   3.601  -0.408  0.3216  0.1794  0.2137
  289MOL0     C39776   1.363   3.556  -0.537  0.3148  0.0339 -0.9209
  289MOL0     C39777   1.492   3.516  -0.578  0.7250  0.0099 -0.2660
  289MOL0     C39778   1.507   3.471  -0.713 -0.2291  0.8854 -0.4658
  289MOL0     C39779   1.399   3.436  -0.788  0.6559 -1.0452 -0.3748
  289MOL0     O39780   1.417   3.359  -0.901 -0.1858 -0.0925 -0.4981
  289MOL0     C39781   1.308   3.296  -0.963  0.4540  0.2088 -0.6119
  289MOL0     C39782   1.368   3.197  -1.068 -0.1682  0.2039  0.0224
  289MOL0     C39783   1.267   3.128  -1.159  0.2817 -0.3451  0.2523
  289MOL0     C39784   1.159   3.232  -1.219 -0.2705  0.2779 -0.1794
  289MOL0     C39785   1.056   3.154  -1.305  1.1236 -0.0756  0.2856
  289MOL0     C39786   0.976   3.256  -1.380  0.0280 -0.1992  0.2607
  289MOL0     C39787   0.887   3.338  -1.293  0.1732 -0.2890  0.4594
  289MOL0     C39788   0.787   3.416  -1.386  0.5196 -0.0894  0.0377
  289MOL0    Cl39789   0.684   3.524  -1.294  0.1939 -0.3253 -0.3076
  289MOL0     C39790   1.271   3.484  -0.750  0.4678 -0.2568  1.0312
  289MOL0     C39791   1.246   3.538  -0.622  0.6018 -0.8253  0.4632
  289MOL0     O39792   1.288   3.412  -0.296  0.3398 -0.2706  0.7418
  289MOL0     C39793   1.425   3.730  -0.175 -0.7047  0.0418 -0.3939
  289MOL0     C39794   1.443   3.806  -0.058 -1.1484  0.5606 -0.2424
  289MOL0     N39795   1.279   4.292   0.416  0.0876  0.8276  0.3421
  289MOL0     N39796   1.247   4.407   0.461  1.0870 -0.1866  0.3339
  289MOL0     C39797   1.531   5.269   0.820  1.5070 -0.6741 -0.1633
  289MOL0     C39798   1.492   5.407   0.829 -0.6624 -0.4243  0.8428
  289MOL0     C39799   1.401   5.815   0.965 -0.4059  0.0166  0.4683
  289MOL0     C39800   1.496   5.904   1.025 -0.9492  0.3873 -0.2067
  289MOL0     C39801   1.474   6.040   1.027 -0.3575 -0.4010 -0.3750
  289MOL0     C39802   1.354   6.085   0.981 -0.8118  0.5860 -0.3948
  289MOL0     O39803   1.323   6.223   0.994  0.0778  1.0782 -0.7948
  289MOL0     C39804   1.389   6.309   0.902  0.4954  1.1418  0.6560
  289MOL0     C39805   1.450   6.422   0.988  0.3465  0.4060  0.2970
  289MOL0     C39806   1.511   6.536   0.908 -0.1082  0.0128 -0.1123
  289MOL0     C39807   1.591   6.648   0.983  0.4630  0.1100 -1.1826
  289MOL0     C39808   1.497   6.722   1.074  0.1347  0.2836 -0.3754
  289MOL0     C39809   1.432   6.801   1.137 -0.1510 -0.0709 -0.9502
  289MOL0     C39810   1.252   5.999   0.942  0.9415 -1.2342  0.9669
  289MOL0     C39811   1.275   5.867   0.924 -0.0785 -0.1041 -0.4282
  289MOL0     C39812   1.170   5.779   0.866  0.2604 -0.5912 -1.0104
  289MOL0     H39813   1.778   5.536   0.958 -1.3896  2.9255 -2.3999
  289MOL0     H39814   1.843   5.312   0.943 -0.6588  3.1824  1.5612
  289MOL0     H39815   1.850   5.075   0.732 -0.3520  0.6481 -1.5171
  289MOL0     H39816   1.716   5.127   0.649  1.4470 -0.0800 -0.5443
  289MOL0     H39817   1.768   4.884   0.602 -0.4535  3.0439 -0.5825
  289MOL0     H39818   1.761   4.858   0.775  1.6764  2.0146  0.7789
  289MOL0     H39819   1.502   4.917   0.759  0.1218  0.3176 -0.7250
  289MOL0     H39820   1.535   4.896   0.585  1.3653  0.6553 -0.7607
  289MOL0     H39821   1.581   4.663   0.611  0.4948 -2.2794  1.4471
  289MOL0     H39822   1.591   4.687   0.792  0.0010  0.0665  0.2505
  289MOL0     H39823   1.338   4.716   0.619  1.8485 -0.7705 -1.1616
  289MOL0     H39824   1.349   4.761   0.789 -0.0420 -1.2035  0.5365
  289MOL0     H39825   1.424   4.484   0.694 -1.2405  0.8282 -2.7925
  289MOL0     H39826   1.422   4.523   0.865  0.0050 -1.7631 -0.3786
  289MOL0     H39827   1.191   4.579   0.862  1.3931 -0.7050  1.0140
  289MOL0     H39828   1.223   4.411   0.850 -1.0047  0.5892  1.5946
  289MOL0     H39829   1.042   4.479   0.697  1.0069 -0.8017  0.8316
  289MOL0     H39830   1.162   4.589   0.613 -1.8473  0.3133 -0.9869
  289MOL0     H39831   1.128   4.207   0.689  0.7856  0.8056  0.1950
  289MOL0     H39832   1.174   3.983   0.524 -0.8295  0.2696 -1.0487
  289MOL0     H39833   1.341   4.008   0.555 -1.0286  0.7798  0.2234
  289MOL0     H39834   1.304   3.873   0.341  2.3844 -0.3616  0.5533
  289MOL0     H39835   1.247   4.011   0.260 -0.0538 -1.7974 -1.2331
  289MOL0     H39836   1.472   4.127   0.311 -1.9586  0.1867  2.5750
  289MOL0     H39837   1.524   3.983   0.400  0.6611  1.8625  1.0897
  289MOL0     H39838   1.459   4.003   0.122 -0.3656 -0.5840 -0.1984
  289MOL0     H39839   1.622   3.969   0.182  0.9542  0.4747 -0.3404
  289MOL0     H39840   1.428   3.549   0.163  0.4553 -1.1946 -1.4232
  289MOL0     H39841   1.350   3.361   0.091  1.3374 -2.0739 -0.5491
  289MOL0     H39842   1.423   3.316  -0.065  2.0496  0.8409  0.8639
  289MOL0     H39843   1.250   3.378  -0.050 -0.7835  2.6135  2.6664
  289MOL0     H39844   1.575   3.538  -0.513 -0.2155  0.8381  0.6868
  289MOL0     H39845   1.603   3.431  -0.743 -0.8653 -1.7056  0.6475
  289MOL0     H39846   1.242   3.240  -0.895 -0.7441  0.1597 -1.7696
  289MOL0     H39847   1.250   3.371  -1.019 -1.6315 -2.1518 -1.8371
  289MOL0     H39848   1.436   3.254  -1.132  0.7368 -1.7326 -0.8221
  289MOL0     H39849   1.432   3.125  -1.017 -0.3575 -0.2130 -0.3300
  289MOL0     H39850   1.212   3.049  -1.106 -5.2496  3.4073  0.9485
  289MOL0     H39851   1.329   3.085  -1.238  0.7790 -5.1566  2.8937
  289MOL0     H39852   1.209   3.297  -1.292  1.3134 -1.0604 -0.3289
  289MOL0     H39853   1.106   3.287  -1.141 -1.8238 -1.0551 -0.2464
  289MOL0     H39854   1.104   3.089  -1.378 -0.9326  0.7225 -1.9417
  289MOL0     H39855   0.989   3.099  -1.239 -0.2078  2.3797  1.1028
  289MOL0     H39856   0.921   3.223  -1.468 -1.4593  0.2143  1.0035
  289MOL0     H39857   1.043   3.332  -1.421 -1.6968  2.4260  1.9538
  289MOL0     H39858   0.943   3.410  -1.234  0.0330 -0.2814  0.5840
  289MOL0     H39859   0.827   3.286  -1.218  0.6978  0.4700  1.4245
  289MOL0     H39860   0.721   3.342  -1.432  0.3349  0.0856  0.0210
  289MOL0     H39861   0.834   3.477  -1.463 -1.6263  1.9813  0.2586
  289MOL0     H39862   1.177   3.469  -0.803  0.2000 -1.4872  1.8115
  289MOL0     H39863   1.145   3.556  -0.587  1.3254  3.3826  0.9709
  289MOL0     H39864   1.427   3.785  -0.268 -2.1477  2.3388  0.8373
  289MOL0     H39865   1.468   3.911  -0.060 -3.1405  1.0618 -0.8656
  289MOL0     H39866   1.468   5.191   0.778 -1.3833  0.9314  0.8732
  289MOL0     H39867   1.401   5.440   0.780  0.6629  0.6128 -1.0590
  289MOL0     H39868   1.586   5.856   1.064 -2.1858 -0.2507  2.0940
  289MOL0     H39869   1.546   6.110   1.069 -1.9445 -0.7146  3.1806
  289MOL0     H39870   1.460   6.248   0.846 -3.4735 -2.4401 -1.0346
  289MOL0     H39871   1.317   6.348   0.829  1.0878  2.0990  0.5738
  289MOL0     H39872   1.523   6.375   1.055  0.1620  1.9789  1.6551
  289MOL0     H39873   1.367   6.463   1.046 -0.6366  1.7790 -1.9757
  289MOL0     H39874   1.571   6.487   0.831  0.0534 -3.0342  1.8215
  289MOL0     H39875   1.430   6.594   0.861  0.5140  1.6197  0.7014
  289MOL0     H39876   1.631   6.719   0.909  0.0971  0.0560 -1.4368
  289MOL0     H39877   1.666   6.600   1.047 -1.8851  0.5875  2.1145
  289MOL0     H39878   1.377   6.860   1.208 -2.4830 -2.7130 -0.3978
  289MOL0     H39879   1.158   6.048   0.918  2.2564  1.3426  0.7684
  289MOL0     H39880   1.115   5.720   0.940  1.0848  0.2266  0.3180
  289MOL0     H39881   1.102   5.839   0.805 -0.9207 -0.5498  0.2824
  289MOL0     H39882   1.222   5.705   0.805  0.0426 -1.2764 -0.3722
  290MOL0     O39883   6.930   1.397   9.169  0.4854  0.1957 -0.2640
  290MOL0     C39884   6.982   1.500   9.216  0.1052 -0.6816 -1.0205
  290MOL0     O39885   7.115   1.502   9.268  1.1056  0.7674  0.4449
  290MOL0     C39886   7.178   1.381   9.249 -0.0829 -1.0499  0.4107
  290MOL0     C39887   7.205   1.334   9.112 -0.6722 -0.4076 -0.5874
  290MOL0     C39888   7.255   1.208   9.087  0.2824 -0.7423  0.7332
  290MOL0     C39889   7.286   1.126   9.203  0.4413 -0.3360  0.8098
  290MOL0     O39890   7.358   1.017   9.183  0.2372 -0.1398 -0.0372
  290MOL0     C39891   7.284   0.892   9.195 -0.2432 -0.4693 -0.0949
  290MOL0     C39892   7.374   0.805   9.283 -0.5039  0.1241  0.9806
  290MOL0     C39893   7.350   0.803   9.435  0.3011 -0.4769  0.0302
  290MOL0     C39894   7.444   0.696   9.491  0.0519 -0.0810 -0.9605
  290MOL0     C39895   7.427   0.700   9.647  0.2887  0.3455 -0.0515
  290MOL0     C39896   7.289   0.660   9.690  0.9066  0.1453 -0.1961
  290MOL0     C39897   7.274   0.675   9.841 -0.1302 -0.4305  1.1310
  290MOL0     C39898   7.305   0.819   9.890 -0.2936 -0.2668 -0.3343
  290MOL0     N39899   7.233   0.928   9.822  0.3055 -0.3139 -0.4294
  290MOL0     C39900   7.099   0.956   9.822 -0.6995 -0.3128 -0.1255
  290MOL0     C39901   7.079   1.086   9.781 -0.3455 -1.2082 -0.2267
  290MOL0     C39902   6.944   1.165   9.774  0.3730 -0.7920  0.3649
  290MOL0     C39903   6.893   1.227   9.894  0.3990 -0.8107 -0.5911
  290MOL0     C39904   6.772   1.314   9.876 -0.0905 -1.2216  0.1032
  290MOL0     C39905   6.734   1.374  10.008  0.1701 -0.8841  0.3547
  290MOL0     O39906   6.704   1.278  10.111  0.4197 -0.0876  0.1999
  290MOL0     C39907   6.699   1.344  10.232 -0.7826  0.5500 -0.8530
  290MOL0     C39908   6.758   1.269  10.330  0.0937 -0.3956 -0.0785
  290MOL0     C39909   6.779   1.321  10.460 -0.3742 -0.0275 -0.9815
  290MOL0     C39910   6.847   1.223  10.561  0.8795 -0.6257 -0.6657
  290MOL0     C39911   6.767   1.464  10.484  1.0636  0.6440 -0.3578
  290MOL0     C39912   6.803   1.536  10.610 -0.7882 -0.1828 -1.3619
  290MOL0     O39913   6.785   1.668  10.623 -0.1844  0.0313  0.9028
  290MOL0     C39914   6.811   1.749  10.729 -0.3044  0.8777  0.0107
  290MOL0     C39915   6.853   1.876  10.686 -0.5010 -0.2566 -0.4275
  290MOL0     C39916   6.908   1.964  10.784 -0.2075  0.0920 -0.2157
  290MOL0     C39917   6.916   1.931  10.923  0.3071  0.2633 -0.3545
  290MOL0     O39918   6.948   2.040  11.005  0.4007 -0.3329  0.2901
  290MOL0     C39919   6.926   2.025  11.144  0.7407  0.2305 -0.0038
  290MOL0     C39920   6.974   2.152  11.222  0.7871  0.1075  0.9725
  290MOL0     C39921   6.855   2.259  11.234 -0.5482  0.8398  0.7485
  290MOL0     C39922   6.921   2.401  11.235 -0.0999  0.3924 -0.9346
  290MOL0     C39923   6.834   2.519  11.184 -0.1316  0.0871 -0.0190
  290MOL0     C39924   6.747   2.584  11.291 -0.6303 -0.9102 -0.6527
  290MOL0     C39925   6.665   2.707  11.237  0.3246  0.4763 -0.2533
  290MOL0     C39926   6.548   2.732  11.332  0.4193  0.0237 -0.5253
  290MOL0    Cl39927   6.437   2.861  11.274  0.1392 -0.2225 -0.1555
  290MOL0     C39928   6.863   1.807  10.959  0.1571 -0.0367  1.0707
  290MOL0     C39929   6.819   1.712  10.863  0.6379  0.2422  0.2463
  290MOL0     O39930   6.848   1.466  10.703  0.0520  0.2299 -0.5327
  290MOL0     C39931   6.709   1.543  10.380 -0.4547  0.0127  0.4083
  290MOL0     C39932   6.670   1.482  10.261  0.2223  0.0011 -0.2744
  290MOL0     N39933   7.204   1.122   9.743 -0.6085  0.1443 -0.2250
  290MOL0     N39934   7.289   1.029   9.747  0.2037  0.5006 -0.3559
  290MOL0     C39935   7.266   1.177   9.330  0.1356 -0.1010 -1.0124
  290MOL0     C39936   7.207   1.307   9.354 -0.2330  1.3204 -0.5702
  290MOL0     C39937   6.911   1.633   9.220 -0.2757  0.0664  0.2723
  290MOL0     C39938   6.988   1.739   9.270 -0.4407 -1.0311 -0.3598
  290MOL0     C39939   6.929   1.863   9.288  0.4285  0.4288  0.1606
  290MOL0     C39940   6.801   1.894   9.257  0.8600  0.1111  0.2945
  290MOL0     O39941   6.738   2.015   9.266 -0.0777 -0.0294 -0.5557
  290MOL0     C39942   6.632   2.023   9.367  0.0691  1.1497  0.1023
  290MOL0     C39943   6.588   2.162   9.371 -0.1318 -0.7474  0.4130
  290MOL0     C39944   6.486   2.196   9.482 -0.4886  0.0438  0.6140
  290MOL0     C39945   6.397   2.331   9.475  0.0777 -0.4334 -0.1121
  290MOL0     C39946   6.485   2.444   9.495 -0.0661 -0.2938 -0.0894
  290MOL0     C39947   6.575   2.530   9.496  0.5136  0.1383  0.4033
  290MOL0     C39948   6.731   1.790   9.197  0.4583 -0.0405 -0.1540
  290MOL0     C39949   6.783   1.664   9.184  0.4679 -0.4389  0.2721
  290MOL0     C39950   6.680   1.562   9.143 -0.0426 -1.0189 -0.4787
  290MOL0     H39951   7.170   1.400   9.033 -3.6257 -0.8891  0.1773
  290MOL0     H39952   7.286   1.184   8.986  0.0626  0.4735  0.3537
  290MOL0     H39953   7.286   0.849   9.094  1.1146 -1.0774  0.1640
  290MOL0     H39954   7.183   0.909   9.233  0.7378  1.5165  1.8035
  290MOL0     H39955   7.368   0.705   9.238 -0.0021  1.1136 -1.4392
  290MOL0     H39956   7.479   0.837   9.272  0.0542 -0.6653  3.4460
  290MOL0     H39957   7.380   0.898   9.478  2.8169 -0.4758 -1.5648
  290MOL0     H39958   7.244   0.786   9.458  0.0839 -2.0295 -1.8819
  290MOL0     H39959   7.412   0.603   9.443 -0.9057  0.0762 -0.6539
  290MOL0     H39960   7.549   0.713   9.464 -0.0238  1.4134 -0.4524
  290MOL0     H39961   7.455   0.802   9.675  0.1659  0.3314  0.1226
  290MOL0     H39962   7.503   0.634   9.690 -0.8064  0.5855  2.4054
  290MOL0     H39963   7.201   0.711   9.650  0.0845 -0.3667  0.9209
  290MOL0     H39964   7.273   0.553   9.671 -0.1395 -0.3118  2.7198
  290MOL0     H39965   7.345   0.617   9.901  4.2788  3.0103 -0.2280
  290MOL0     H39966   7.169   0.662   9.869 -2.5717  2.8677 -4.6951
  290MOL0     H39967   7.294   0.815   9.999  2.8966  0.8357  0.1426
  290MOL0     H39968   7.412   0.835   9.870  0.3927  1.2561  3.6077
  290MOL0     H39969   7.026   0.884   9.858 -0.5673 -1.7750 -2.5291
  290MOL0     H39970   6.869   1.095   9.734  2.0306 -4.2074  2.7307
  290MOL0     H39971   6.964   1.242   9.699 -0.5292 -0.4439  0.4648
  290MOL0     H39972   6.866   1.147   9.964  1.1951  0.4237  1.2039
  290MOL0     H39973   6.973   1.284   9.941 -2.2370  4.0412 -1.3247
  290MOL0     H39974   6.795   1.393   9.803  2.7698 -0.9915  1.1491
  290MOL0     H39975   6.689   1.254   9.837  0.9958 -2.5032 -0.2754
  290MOL0     H39976   6.812   1.444  10.041  0.4632 -1.1547  0.2494
  290MOL0     H39977   6.645   1.434   9.989 -0.4604 -1.9373 -0.0718
  290MOL0     H39978   6.786   1.165  10.312 -1.0630 -0.7485  0.0943
  290MOL0     H39979   6.772   1.214  10.640 -0.1780  2.6028 -1.1497
  290MOL0     H39980   6.936   1.261  10.611 -0.2656 -1.2201  2.0167
  290MOL0     H39981   6.874   1.123  10.526  0.7443 -0.5679 -0.9415
  290MOL0     H39982   6.848   1.908  10.583 -0.9341  1.3557  0.0749
  290MOL0     H39983   6.945   2.061  10.752 -0.9612  0.5481  0.2583
  290MOL0     H39984   6.818   2.014  11.154  0.1534  1.8048 -3.2450
  290MOL0     H39985   6.983   1.941  11.184  0.0141 -0.3985 -0.2742
  290MOL0     H39986   7.028   2.141  11.317 -1.4120  1.6787  2.4950
  290MOL0     H39987   7.056   2.173  11.153  0.3445  0.4171  0.5396
  290MOL0     H39988   6.803   2.244  11.329  0.2619  0.5251  1.1495
  290MOL0     H39989   6.783   2.252  11.152 -0.2088  2.5152  0.2543
  290MOL0     H39990   6.992   2.391  11.153  2.5725  0.9493  1.1871
  290MOL0     H39991   6.971   2.403  11.332  0.0892 -3.9804 -0.7302
  290MOL0     H39992   6.897   2.603  11.153  2.8360 -1.6249  0.9517
  290MOL0     H39993   6.784   2.478  11.096  1.2656 -1.5230 -0.1030
  290MOL0     H39994   6.804   2.628  11.373 -1.1684 -1.9521  0.3083
  290MOL0     H39995   6.676   2.516  11.338  1.8960 -3.6779 -0.5657
  290MOL0     H39996   6.625   2.687  11.137  2.9085  0.7154 -1.4268
  290MOL0     H39997   6.733   2.793  11.235 -2.4488  2.9086  2.0101
  290MOL0     H39998   6.589   2.767  11.427  1.0663 -1.8640 -0.0575
  290MOL0     H39999   6.488   2.645  11.363  0.3818  0.0337 -0.5696
  290MOL0     H40000   6.852   1.766  11.059 -2.6213 -1.1645  0.3977
  290MOL0     H40001   6.781   1.613  10.888  1.4095 -0.2837 -0.5892
  290MOL0     H40002   6.681   1.648  10.383  0.5682  0.5022 -3.2462
  290MOL0     H40003   6.612   1.537  10.188 -0.0378 -0.3118 -0.3062
  290MOL0     H40004   7.293   1.118   9.417  0.3522  0.0013 -1.0105
  290MOL0     H40005   7.188   1.325   9.460 -0.3675 -0.6678 -0.2051
  290MOL0     H40006   7.092   1.723   9.297 -0.9495 -1.9477  1.2037
  290MOL0     H40007   7.000   1.942   9.312  2.1113 -0.2700 -2.1303
  290MOL0     H40008   6.555   1.948   9.345  1.5791 -1.2069  2.3224
  290MOL0     H40009   6.668   1.987   9.464 -0.9049 -3.5698 -1.0473
  290MOL0     H40010   6.546   2.180   9.272 -0.5280 -2.3274  0.2611
  290MOL0     H40011   6.675   2.228   9.381 -0.3824  0.4948 -3.8769
  290MOL0     H40012   6.426   2.104   9.486 -1.4344  0.6827  2.7578
  290MOL0     H40013   6.543   2.200   9.576  0.3936 -3.3608  0.3801
  290MOL0     H40014   6.324   2.332   9.557  0.7913 -2.1421  0.5979
  290MOL0     H40015   6.341   2.337   9.382 -1.5495 -0.4924  0.8244
  290MOL0     H40016   6.656   2.599   9.486 -0.9895  1.6019 -3.3652
  290MOL0     H40017   6.624   1.804   9.184  0.1274 -2.1619 -0.1947
  290MOL0     H40018   6.722   1.518   9.052 -0.2638  0.6679 -1.4543
  290MOL0     H40019   6.657   1.475   9.205 -0.9357 -1.5539 -1.5291
  290MOL0     H40020   6.581   1.603   9.120 -0.5921 -2.9084 -1.7074
  291MOL0     O40021   2.241   3.803  11.115  0.3779  0.8786 -0.3203
  291MOL0     C40022   2.301   3.809  11.015  0.9968  0.6858  1.1607
  291MOL0     O40023   2.318   3.919  10.938  0.2726 -1.0155 -0.3024
  291MOL0     C40024   2.255   4.041  10.980 -1.2701  0.9116 -0.1363
  291MOL0     C40025   2.325   4.131  11.060 -0.1424 -0.2373  0.2812
  291MOL0     C40026   2.258   4.245  11.087 -0.1441 -0.5677 -0.6705
  291MOL0     C40027   2.129   4.275  11.044 -0.7147 -0.4724  0.6959
  291MOL0     O40028   2.055   4.384  11.089 -0.0775 -0.0795 -0.2110
  291MOL0     C40029   2.113   4.516  11.096 -0.6547  0.0984  0.3788
  291MOL0     C40030   2.017   4.616  11.146  0.9519  0.1740  0.0627
  291MOL0     C40031   2.086   4.758  11.160  0.6877  0.0558  0.4080
  291MOL0     C40032   1.990   4.867  11.098 -0.7062  0.1280  1.3644
  291MOL0     C40033   2.064   4.999  11.099  0.5611 -0.2645 -0.4779
  291MOL0     C40034   2.134   5.039  11.227 -0.6104 -0.8670  0.8245
  291MOL0     C40035   2.193   5.177  11.228  0.3221  0.0621  0.5498
  291MOL0     C40036   2.325   5.182  11.160 -0.3524  0.1091  0.6001
  291MOL0     N40037   2.386   5.315  11.170  0.9751  0.1839  0.6821
  291MOL0     C40038   2.330   5.433  11.125 -1.6991  0.5532 -0.5675
  291MOL0     C40039   2.400   5.536  11.182 -0.7341  0.3810 -0.1565
  291MOL0     C40040   2.394   5.673  11.141  0.6626 -1.1047  0.2543
  291MOL0     C40041   2.416   5.704  10.990 -0.2676 -0.1895  0.4702
  291MOL0     C40042   2.415   5.844  10.940  0.6295 -0.2987  0.8021
  291MOL0     C40043   2.378   5.835  10.789 -0.2362 -0.1513 -0.3084
  291MOL0     O40044   2.477   5.748  10.729 -0.7585  0.0817 -0.0595
  291MOL0     C40045   2.606   5.796  10.703 -0.2976 -0.8657 -0.0446
  291MOL0     C40046   2.699   5.705  10.664 -0.3956  0.3052 -0.2284
  291MOL0     C40047   2.831   5.732  10.638  0.0217  0.6517 -0.2111
  291MOL0     C40048   2.936   5.623  10.618 -0.2007  0.6240  0.5034
  291MOL0     C40049   2.863   5.867  10.625  0.4730 -0.1774 -0.2329
  291MOL0     C40050   2.993   5.924  10.577  0.3201 -0.1736  0.0779
  291MOL0     O40051   3.033   6.036  10.633 -0.4000 -0.5380 -0.1785
  291MOL0     C40052   3.162   6.091  10.612  1.0189 -0.1655 -0.5648
  291MOL0     C40053   3.270   6.029  10.670  0.4550  0.6989  0.1528
  291MOL0     C40054   3.396   6.090  10.661 -0.0983 -0.0934 -1.2857
  291MOL0     C40055   3.411   6.217  10.593 -0.9162  0.7371 -0.6939
  291MOL0     O40056   3.526   6.297  10.580 -0.6873  0.4693 -0.3100
  291MOL0     C40057   3.651   6.245  10.624  0.7564 -0.3269  1.5325
  291MOL0     C40058   3.757   6.345  10.595 -0.9124 -0.1595 -0.2159
  291MOL0     C40059   3.881   6.322  10.686 -0.0688  0.0998  0.4707
  291MOL0     C40060   3.873   6.385  10.828  0.0544 -0.2386 -0.2092
  291MOL0     C40061   4.016   6.380  10.906  0.4128 -0.3309  0.2093
  291MOL0     C40062   4.007   6.469  11.031 -0.0208 -0.1541 -0.9815
  291MOL0     C40063   4.144   6.470  11.092  0.9436  0.4219 -0.1863
  291MOL0     C40064   4.157   6.542  11.219 -0.0722  1.0986 -0.2473
  291MOL0    Cl40065   4.100   6.427  11.341  0.2135 -0.0245  0.0336
  291MOL0     C40066   3.296   6.272  10.544  0.0877 -0.2045 -0.5895
  291MOL0     C40067   3.174   6.216  10.554 -0.6770  0.6359 -0.7426
  291MOL0     O40068   3.051   5.860  10.487 -0.1132  0.7125 -0.1678
  291MOL0     C40069   2.776   5.965  10.671 -0.0114  0.0915 -0.0167
  291MOL0     C40070   2.646   5.931  10.710  0.2686 -0.6921 -0.1597
  291MOL0     N40071   2.510   5.472  11.244  0.1440 -1.3000 -0.3344
  291MOL0     N40072   2.495   5.345  11.245  0.6268 -0.1919  0.0891
  291MOL0     C40073   2.056   4.190  10.972 -0.4000  0.5293 -0.3002
  291MOL0     C40074   2.120   4.061  10.938  0.1166  0.1321 -0.2640
  291MOL0     C40075   2.368   3.680  10.975 -1.1301  0.3522 -0.8704
  291MOL0     C40076   2.385   3.585  11.080 -0.2305  0.7849 -0.8417
  291MOL0     C40077   2.441   3.458  11.065 -0.4777 -0.0559  0.1020
  291MOL0     C40078   2.486   3.424  10.940 -0.5942  0.8416  0.1447
  291MOL0     O40079   2.554   3.302  10.934 -0.5177 -0.6203 -0.2264
  291MOL0     C40080   2.601   3.256  10.807 -0.5254 -0.2599 -0.0050
  291MOL0     C40081   2.471   3.191  10.730 -0.8591  0.4550  0.3021
  291MOL0     C40082   2.526   3.100  10.609 -0.3148 -0.2708  0.2289
  291MOL0     C40083   2.424   2.994  10.553  0.6713  0.5758  0.9265
  291MOL0     C40084   2.479   2.869  10.512 -0.5855  0.6226 -0.8496
  291MOL0     C40085   2.542   2.773  10.485 -0.2021 -0.5619 -0.1728
  291MOL0     C40086   2.471   3.522  10.834  0.9040  0.2067  0.4236
  291MOL0     C40087   2.423   3.646  10.853  0.6070  0.7727  1.2149
  291MOL0     C40088   2.463   3.743  10.738  0.1242 -0.8327  0.6568
  291MOL0     H40089   2.418   4.101  11.108  1.7237 -1.5471 -3.7207
  291MOL0     H40090   2.319   4.308  11.151  0.1275 -0.0418 -1.4337
  291MOL0     H40091   2.147   4.564  11.003  2.1434 -1.0159  0.7283
  291MOL0     H40092   2.201   4.505  11.160 -1.1167 -0.7989  0.8735
  291MOL0     H40093   1.924   4.617  11.087 -0.1936 -0.2378  1.7955
  291MOL0     H40094   1.993   4.586  11.248 -2.8555 -2.9105 -1.4534
  291MOL0     H40095   2.116   4.778  11.263 -0.7294  2.6965  0.3865
  291MOL0     H40096   2.184   4.752  11.112 -0.1947 -1.6980 -1.3415
  291MOL0     H40097   1.976   4.849  10.992  3.0030  3.9562 -0.0906
  291MOL0     H40098   1.897   4.881  11.154 -1.2060  1.2406  0.2999
  291MOL0     H40099   1.995   5.078  11.067  0.3777 -0.9246 -1.7955
  291MOL0     H40100   2.139   4.992  11.020  0.0196 -0.5187 -0.9839
  291MOL0     H40101   2.058   5.032  11.305 -1.1146  0.8755  0.5465
  291MOL0     H40102   2.217   4.973  11.255  1.5581  0.7831 -1.2521
  291MOL0     H40103   2.188   5.201  11.335 -0.0210 -1.2303  0.8461
  291MOL0     H40104   2.120   5.248  11.187  1.2938 -0.5517 -2.4875
  291MOL0     H40105   2.400   5.115  11.205 -0.5914 -0.0889  0.7051
  291MOL0     H40106   2.304   5.155  11.056 -3.2791  0.6037  0.9835
  291MOL0     H40107   2.247   5.443  11.056 -1.3750 -0.2032 -1.0716
  291MOL0     H40108   2.473   5.719  11.201 -0.7709 -1.1557  2.3101
  291MOL0     H40109   2.297   5.718  11.165  1.1033 -0.0114  0.0510
  291MOL0     H40110   2.509   5.652  10.965 -0.3870  0.4439 -1.4645
  291MOL0     H40111   2.336   5.642  10.948  0.5286 -2.2600  1.8784
  291MOL0     H40112   2.351   5.911  10.997  1.6866  0.4561  1.1472
  291MOL0     H40113   2.512   5.894  10.952 -0.7358  2.4728  0.8742
  291MOL0     H40114   2.280   5.791  10.769 -0.6346  1.3992 -1.9673
  291MOL0     H40115   2.360   5.930  10.738  0.8140 -0.4140 -1.2036
  291MOL0     H40116   2.672   5.600  10.660 -0.3189  0.3124 -2.2469
  291MOL0     H40117   2.905   5.520  10.639 -0.1065  1.3571  5.3167
  291MOL0     H40118   3.029   5.633  10.674  1.5154  1.3360 -2.2631
  291MOL0     H40119   2.966   5.630  10.513  0.3192  2.3956  0.7373
  291MOL0     H40120   3.252   5.937  10.725 -0.5818  0.6415 -0.2535
  291MOL0     H40121   3.490   6.053  10.702  1.8238  1.4728 -3.9122
  291MOL0     H40122   3.644   6.225  10.732 -3.6487  1.6532  1.8223
  291MOL0     H40123   3.666   6.152  10.568 -4.1566  0.3252 -1.4176
  291MOL0     H40124   3.785   6.344  10.489 -0.2062 -0.5933 -0.0383
  291MOL0     H40125   3.728   6.448  10.617  2.2720  0.4524  1.8033
  291MOL0     H40126   3.970   6.353  10.631  0.7941 -0.9071  1.2451
  291MOL0     H40127   3.901   6.214  10.692  2.3780  0.3394 -1.8047
  291MOL0     H40128   3.806   6.330  10.895 -0.5816 -0.7509 -1.2484
  291MOL0     H40129   3.828   6.484  10.816  1.6590  0.5284 -0.1514
  291MOL0     H40130   4.042   6.278  10.936 -0.7708 -1.0132 -0.9724
  291MOL0     H40131   4.091   6.414  10.834  0.6573 -0.6079  0.3306
  291MOL0     H40132   3.930   6.430  11.098 -0.0461  0.0835 -0.8721
  291MOL0     H40133   3.981   6.573  11.010  0.1883 -0.0268 -0.6213
  291MOL0     H40134   4.200   6.519  11.012  0.1252  0.6156 -0.6519
  291MOL0     H40135   4.182   6.367  11.098 -0.8732 -0.4928 -2.8734
  291MOL0     H40136   4.106   6.639  11.219 -0.4440  0.9084 -0.8756
  291MOL0     H40137   4.265   6.550  11.235  0.0652 -0.1144 -0.4524
  291MOL0     H40138   3.296   6.375  10.509  1.1553  0.1218  0.3090
  291MOL0     H40139   3.091   6.276  10.518  0.9192  1.1737 -3.8675
  291MOL0     H40140   2.811   6.068  10.671 -0.7388  0.3567 -0.9545
  291MOL0     H40141   2.582   6.010  10.748 -1.3421 -0.7322 -2.6018
  291MOL0     H40142   1.953   4.204  10.942 -0.5690 -1.7443 -0.9013
  291MOL0     H40143   2.061   3.985  10.889 -1.4234  1.2606 -0.2587
  291MOL0     H40144   2.358   3.614  11.181  1.3618  3.0470 -1.0002
  291MOL0     H40145   2.434   3.389  11.149 -2.7897 -1.9659 -1.5134
  291MOL0     H40146   2.650   3.334  10.749  0.2258 -0.5332  0.2552
  291MOL0     H40147   2.665   3.171  10.830 -0.0956 -0.2977 -1.2729
  291MOL0     H40148   2.407   3.271  10.691 -2.8315 -1.2014 -0.0773
  291MOL0     H40149   2.420   3.132  10.807  3.2783 -2.9512  0.8065
  291MOL0     H40150   2.553   3.168  10.528  0.6763  0.0134  0.7806
  291MOL0     H40151   2.621   3.056  10.642  0.2863  0.3103 -0.6738
  291MOL0     H40152   2.356   3.029  10.475  0.8435  1.0813  1.0022
  291MOL0     H40153   2.354   2.972  10.634 -0.8088  1.4843 -0.0633
  291MOL0     H40154   2.583   2.689  10.433 -0.6979  0.9944 -3.3238
  291MOL0     H40155   2.508   3.497  10.735  1.1985  4.3904 -0.7233
  291MOL0     H40156   2.486   3.695  10.642  0.4591 -0.9868  0.8148
  291MOL0     H40157   2.377   3.807  10.713  0.0428 -0.0477  2.7467
  291MOL0     H40158   2.544   3.807  10.773 -0.2389 -0.7762  1.4229
  292MOL0     O40159   8.998   8.620   3.139 -0.4016  0.4433  0.4816
  292MOL0     C40160   9.021   8.567   3.245 -1.1425 -1.4434 -0.1983
  292MOL0     O40161   9.019   8.628   3.361 -0.0692  0.2303 -0.2036
  292MOL0     C40162   9.014   8.760   3.380 -1.0422  0.3666 -0.0998
  292MOL0     C40163   9.045   8.864   3.291 -0.4143 -0.0192 -0.0584
  292MOL0     C40164   9.023   8.996   3.333 -0.0182 -0.5268  0.3423
  292MOL0     C40165   8.966   9.021   3.457 -0.3304 -0.4396  0.1848
  292MOL0     O40166   8.939   9.150   3.481 -0.8174  0.3218  0.0742
  292MOL0     C40167   8.893   9.191   3.611  0.8335 -0.7854  0.5241
  292MOL0     C40168   8.840   9.341   3.595  1.3681  0.3620 -0.2701
  292MOL0     C40169   8.736   9.365   3.489  0.2768  0.4063  1.2622
  292MOL0     C40170   8.713   9.507   3.454  0.9418  0.6309  0.2067
  292MOL0     C40171   8.598   9.530   3.351  1.2184  0.1660  0.4342
  292MOL0     C40172   8.469   9.482   3.412  0.7536 -0.1150  0.4856
  292MOL0     C40173   8.355   9.501   3.309  0.7179  0.2020 -0.7933
  292MOL0     C40174   8.356   9.423   3.172  0.0712  0.7367  0.1513
  292MOL0     N40175   8.395   9.280   3.192 -0.1039  0.1880 -0.4596
  292MOL0     C40176   8.518   9.223   3.184  0.5722  0.2972 -0.4648
  292MOL0     C40177   8.497   9.092   3.159 -0.6058  0.8447  0.0117
  292MOL0     C40178   8.593   8.976   3.132  0.7496  0.7280  0.4690
  292MOL0     C40179   8.631   8.961   2.978 -0.7388 -0.2497  0.1373
  292MOL0     C40180   8.651   9.092   2.908 -0.0654 -0.3068 -0.5970
  292MOL0     C40181   8.753   9.189   2.946 -0.3559  0.5871  0.1294
  292MOL0     O40182   8.782   9.255   2.826 -0.3868 -0.0531  0.5633
  292MOL0     C40183   8.893   9.334   2.807  0.1042  0.0917  0.2326
  292MOL0     C40184   8.979   9.376   2.915 -0.0900  0.0892  0.1719
  292MOL0     C40185   9.083   9.463   2.892  0.2649 -0.1480  0.0410
  292MOL0     C40186   9.151   9.505   3.020  0.5916 -0.6481  0.5476
  292MOL0     C40187   9.125   9.485   2.757  0.1622  0.6743 -0.5888
  292MOL0     C40188   9.239   9.569   2.725 -0.7530 -0.6364  0.5371
  292MOL0     O40189   9.264   9.584   2.591 -0.0607 -0.0417 -0.1014
  292MOL0     C40190   9.380   9.639   2.551  0.3796 -0.2848  0.1659
  292MOL0     C40191   9.462   9.568   2.455  0.2263 -0.9545 -0.1102
  292MOL0     C40192   9.578   9.635   2.407  0.1824  0.7013  0.3323
  292MOL0     C40193   9.618   9.769   2.451  0.6070 -0.0050  0.2398
  292MOL0     O40194   9.726   9.836   2.408  0.0182  0.0300 -0.6550
  292MOL0     C40195   9.848   9.753   2.401  0.6519  0.5710 -0.2806
  292MOL0     C40196   9.975   9.843   2.381  1.0809  0.6067  0.0617
  292MOL0     C40197  10.103   9.758   2.394 -0.8866 -1.0703 -0.7161
  292MOL0     C40198  10.106   9.654   2.286 -0.5615 -0.1004 -0.5420
  292MOL0     C40199  10.246   9.585   2.277  0.2426  0.4376 -0.0402
  292MOL0     C40200  10.246   9.491   2.402  0.0479  0.4742 -0.2949
  292MOL0     C40201  10.369   9.412   2.423  0.2879  0.4038  0.5813
  292MOL0     C40202  10.341   9.310   2.521 -0.6978  0.9828 -0.2473
  292MOL0    Cl40203  10.257   9.163   2.465  0.0692  0.3678 -0.0415
  292MOL0     C40204   9.521   9.837   2.532  1.2550  0.0059 -0.1904
  292MOL0     C40205   9.415   9.768   2.584  0.9761  0.4605  0.2404
  292MOL0     O40206   9.321   9.589   2.815  0.3477 -0.2879  0.0128
  292MOL0     C40207   9.046   9.435   2.650  0.2040  0.3582 -0.8529
  292MOL0     C40208   8.928   9.359   2.675  0.3717 -0.7853  0.6244
  292MOL0     N40209   8.366   9.074   3.128 -0.1777  0.1093 -0.1581
  292MOL0     N40210   8.308   9.183   3.164 -0.1205 -0.2463 -0.5040
  292MOL0     C40211   8.934   8.913   3.536  0.2011  0.0713 -0.1967
  292MOL0     C40212   8.959   8.789   3.501 -0.1742  0.2909  0.0468
  292MOL0     C40213   9.085   8.436   3.245  0.8982 -0.1105  0.0497
  292MOL0     C40214   9.049   8.347   3.147  0.1767  1.2509 -0.3019
  292MOL0     C40215   9.095   8.213   3.144 -0.6103  0.2423  0.1279
  292MOL0     C40216   9.187   8.178   3.241  0.4612  0.6201 -0.4742
  292MOL0     O40217   9.233   8.050   3.221  0.2603 -0.5581 -0.5025
  292MOL0     C40218   9.342   7.993   3.304  0.6190  0.2681 -0.0990
  292MOL0     C40219   9.471   8.010   3.225  0.0235  0.1937 -0.4110
  292MOL0     C40220   9.589   7.958   3.308  0.5796  0.1201 -0.1036
  292MOL0     C40221   9.707   7.912   3.224 -0.0209  0.2166  0.5338
  292MOL0     C40222   9.763   8.021   3.147  0.0154 -0.6166  0.5756
  292MOL0     C40223   9.813   8.115   3.088 -0.0398  0.8599 -0.2888
  292MOL0     C40224   9.223   8.265   3.349 -0.8092  0.4291 -0.3809
  292MOL0     C40225   9.183   8.397   3.343  0.1602  0.2313 -0.1988
  292MOL0     C40226   9.263   8.478   3.447 -0.3614  0.1932  0.1271
  292MOL0     H40227   9.082   8.859   3.189 -0.8396  2.5504 -0.4040
  292MOL0     H40228   9.043   9.076   3.263  2.1136  1.2602  2.8021
  292MOL0     H40229   8.971   9.192   3.687  1.1893  0.8591  0.1737
  292MOL0     H40230   8.816   9.127   3.655 -1.2901  1.3485  0.1401
  292MOL0     H40231   8.791   9.367   3.689 -0.7180 -5.3282  0.6248
  292MOL0     H40232   8.934   9.394   3.577  0.8745  0.4568 -2.8555
  292MOL0     H40233   8.769   9.310   3.400  1.0441  2.1704  0.4130
  292MOL0     H40234   8.649   9.311   3.525 -1.2297  0.3535 -2.0929
  292MOL0     H40235   8.692   9.574   3.538  1.9887  2.4118 -0.8835
  292MOL0     H40236   8.797   9.549   3.399 -1.9211  3.3757 -2.4980
  292MOL0     H40237   8.634   9.482   3.260  3.1494  1.5735  0.4068
  292MOL0     H40238   8.575   9.634   3.329 -0.7496 -0.0468  1.2732
  292MOL0     H40239   8.467   9.382   3.458  1.1429 -0.1511  0.4282
  292MOL0     H40240   8.444   9.556   3.489 -1.6693  0.0061 -0.3359
  292MOL0     H40241   8.345   9.609   3.299  1.8554  0.3019 -0.9457
  292MOL0     H40242   8.262   9.469   3.357  1.4909  1.7488  1.9688
  292MOL0     H40243   8.258   9.425   3.123  0.6325  2.2646 -0.9970
  292MOL0     H40244   8.425   9.482   3.110  2.8158 -0.2825  2.0678
  292MOL0     H40245   8.617   9.266   3.201  2.0464 -2.7333 -0.6281
  292MOL0     H40246   8.545   8.881   3.159 -0.5352  0.5922 -2.0481
  292MOL0     H40247   8.680   8.962   3.198  0.2143 -1.7391  0.7717
  292MOL0     H40248   8.711   8.887   2.972 -1.2982 -0.8125 -0.5973
  292MOL0     H40249   8.546   8.920   2.922 -0.2274 -1.4010  0.1823
  292MOL0     H40250   8.666   9.065   2.803 -0.4978  3.4208 -1.7605
  292MOL0     H40251   8.557   9.148   2.904  1.1866  2.1414  1.5647
  292MOL0     H40252   8.719   9.255   3.025  2.3927 -0.9533  2.8217
  292MOL0     H40253   8.844   9.136   2.977 -0.6396 -1.8299 -2.6557
  292MOL0     H40254   8.950   9.339   3.012  0.7947 -0.3298  0.2862
  292MOL0     H40255   9.252   9.466   3.035  0.1891 -2.2913 -0.6346
  292MOL0     H40256   9.088   9.466   3.101 -0.1543 -0.1351  0.2288
  292MOL0     H40257   9.139   9.613   3.021 -3.4516 -0.9464  1.6298
  292MOL0     H40258   9.442   9.473   2.406 -0.0355 -0.0439 -1.8436
  292MOL0     H40259   9.622   9.600   2.314 -3.1207 -3.0481 -0.1140
  292MOL0     H40260   9.862   9.698   2.495  2.1754  0.2256 -0.6714
  292MOL0     H40261   9.838   9.675   2.325  0.6306 -0.8004  1.0707
  292MOL0     H40262   9.969   9.895   2.285  0.6684  0.8080  0.1947
  292MOL0     H40263   9.969   9.927   2.451  2.2509  1.3867 -0.7394
  292MOL0     H40264  10.089   9.706   2.489 -1.0059  0.0799 -0.0801
  292MOL0     H40265  10.193   9.820   2.399 -1.3053 -0.4953 -0.1555
  292MOL0     H40266  10.089   9.717   2.198 -2.1216 -0.0773 -0.2590
  292MOL0     H40267  10.022   9.583   2.289 -2.2051  1.7756  0.3058
  292MOL0     H40268  10.248   9.522   2.188  0.5436  1.1833 -0.5674
  292MOL0     H40269  10.336   9.647   2.278  0.8396 -0.3889  1.6783
  292MOL0     H40270  10.175   9.409   2.388  2.1910 -1.5579  0.1933
  292MOL0     H40271  10.219   9.542   2.495 -0.2394 -1.7104  0.8947
  292MOL0     H40272  10.448   9.479   2.457 -1.5257  2.6160  0.6374
  292MOL0     H40273  10.395   9.355   2.333  0.3417 -2.4148  2.2777
  292MOL0     H40274  10.276   9.352   2.598  0.0702  0.3926  0.7503
  292MOL0     H40275  10.431   9.274   2.572 -2.0751 -0.1035  1.5114
  292MOL0     H40276   9.534   9.940   2.564 -1.9935 -0.4528  3.2559
  292MOL0     H40277   9.351   9.822   2.655  1.0553  1.5408 -0.4870
  292MOL0     H40278   9.077   9.459   2.549  3.3642  0.3410 -0.0013
  292MOL0     H40279   8.861   9.322   2.598  0.6136  0.7896 -0.3953
  292MOL0     H40280   8.885   8.922   3.633  1.2300  3.5922  0.1191
  292MOL0     H40281   8.925   8.712   3.570 -0.4580  0.7148  0.3826
  292MOL0     H40282   8.984   8.367   3.064  0.8643  2.0015 -0.6724
  292MOL0     H40283   9.070   8.158   3.054 -0.0022 -2.2563  1.3799
  292MOL0     H40284   9.353   8.029   3.407 -1.8394  2.0107 -0.3582
  292MOL0     H40285   9.322   7.885   3.303  1.5928  0.0654 -2.4266
  292MOL0     H40286   9.488   8.116   3.205  1.8367  0.0492  0.1718
  292MOL0     H40287   9.474   7.953   3.132  4.5350  0.7790 -0.8393
  292MOL0     H40288   9.619   8.047   3.365 -0.0061  1.5730 -1.9672
  292MOL0     H40289   9.563   7.888   3.388 -0.1437 -1.1699 -1.4284
  292MOL0     H40290   9.670   7.834   3.157 -0.2116 -0.7638  1.7435
  292MOL0     H40291   9.784   7.867   3.288  0.0600  1.3142  1.2400
  292MOL0     H40292   9.873   8.194   3.048  2.2632 -1.2160 -1.1871
  292MOL0     H40293   9.297   8.225   3.418 -1.0158  0.3264 -0.2177
  292MOL0     H40294   9.225   8.461   3.548  1.0536  0.5904  0.7497
  292MOL0     H40295   9.371   8.460   3.444 -0.4001 -0.1798  0.8167
  292MOL0     H40296   9.245   8.584   3.424  0.1934  0.1827 -0.3656
  293MOL0     O40297  10.918   9.353   1.379 -0.1266 -0.2827  0.0896
  293MOL0     C40298  11.043   9.355   1.377  0.6055  0.5828 -1.1163
  293MOL0     O40299  11.119   9.423   1.289 -0.1998 -0.0604  0.4833
  293MOL0     C40300  11.065   9.534   1.229  0.2745 -0.3516 -0.2261
  293MOL0     C40301  11.003   9.551   1.109 -0.8991  1.1233 -0.1675
  293MOL0     C40302  10.948   9.678   1.075 -0.0523  0.3784 -0.3155
  293MOL0     C40303  10.959   9.791   1.163 -0.3539 -1.4482 -0.3310
  293MOL0     O40304  10.922   9.923   1.133 -0.5412 -0.1732  0.2314
  293MOL0     C40305  10.813   9.936   1.044 -0.8863  0.4796  0.4575
  293MOL0     C40306  10.741  10.075   1.049  0.5733 -0.0326  0.5036
  293MOL0     C40307  10.653  10.102   1.173  0.8178  0.6415 -0.1168
  293MOL0     C40308  10.619  10.251   1.187 -0.7880  0.5073 -0.3603
  293MOL0     C40309  10.530  10.296   1.076 -0.3007  1.1202 -0.8985
  293MOL0     C40310  10.556  10.441   1.043  0.3782 -0.7061 -0.5648
  293MOL0     C40311  10.485  10.535   1.144  0.3092 -0.2919  0.1590
  293MOL0     C40312  10.533  10.668   1.099 -0.8162 -0.9493  0.2992
  293MOL0     N40313  10.655  10.720   1.168  0.6214 -0.2682  0.2183
  293MOL0     C40314  10.695  10.845   1.155 -1.0365 -1.2775 -0.5850
  293MOL0     C40315  10.802  10.845   1.239  0.6425  0.0323 -0.1808
  293MOL0     C40316  10.890  10.973   1.258  0.0727  0.2992 -0.8180
  293MOL0     C40317  10.812  11.107   1.287  0.5807 -0.0131 -0.6820
  293MOL0     C40318  10.886  11.240   1.287  0.6109 -0.4307  0.1849
  293MOL0     C40319  10.809  11.349   1.347  0.6447 -0.8422  0.9686
  293MOL0     O40320  10.882  11.469   1.358  0.4667  0.0786 -0.7560
  293MOL0     C40321  10.934  11.532   1.255 -0.5432 -0.5150  0.6893
  293MOL0     C40322  10.862  11.606   1.159 -0.9562 -1.3360  0.0218
  293MOL0     C40323  10.923  11.683   1.057  0.2512  0.0316  0.8444
  293MOL0     C40324  10.824  11.748   0.969  0.1062  0.0922  0.5876
  293MOL0     C40325  11.067  11.684   1.044 -0.6065 -0.8527  0.0824
  293MOL0     C40326  11.129  11.749   0.933 -0.6377 -1.2639  0.2518
  293MOL0     O40327  11.060  11.852   0.875  0.6593  0.9678  0.0129
  293MOL0     C40328  11.139  11.932   0.810  0.4606 -0.1678  0.5152
  293MOL0     C40329  11.189  12.043   0.873  0.0269 -0.3730 -0.2907
  293MOL0     C40330  11.288  12.127   0.815 -0.1463 -0.1188  1.0745
  293MOL0     C40331  11.334  12.096   0.680 -0.8411  0.8016 -0.0411
  293MOL0     O40332  11.421  12.168   0.605  1.4966  0.2182 -0.5772
  293MOL0     C40333  11.427  12.311   0.600 -0.3664 -0.1879  0.4933
  293MOL0     C40334  11.299  12.374   0.527 -0.3908 -0.7005  0.2559
  293MOL0     C40335  11.291  12.341   0.369  0.0627  0.2246 -0.2981
  293MOL0     C40336  11.413  12.390   0.278 -0.0925 -0.5045  0.5539
  293MOL0     C40337  11.415  12.324   0.141 -0.3741  0.5802  0.6940
  293MOL0     C40338  11.302  12.382   0.050 -0.1018  0.2376 -0.0229
  293MOL0     C40339  11.303  12.319  -0.091 -0.8692 -0.4709 -0.1000
  293MOL0     C40340  11.385  12.392  -0.203 -0.0025 -0.0124 -0.0071
  293MOL0    Cl40341  11.492  12.289  -0.303  0.4046 -0.2352 -0.3162
  293MOL0     C40342  11.279  11.979   0.622 -0.3126 -0.6946 -1.2697
  293MOL0     C40343  11.178  11.906   0.677  1.0723  0.1087 -2.0368
  293MOL0     O40344  11.241  11.709   0.893  0.2321 -0.7454  0.3487
  293MOL0     C40345  11.137  11.610   1.146  0.7321  0.2407 -0.0410
  293MOL0     C40346  11.064  11.544   1.250  0.4801  0.6147  0.5351
  293MOL0     N40347  10.822  10.729   1.307  0.6843  0.6434  0.6126
  293MOL0     N40348  10.727  10.655   1.267  0.3465 -0.2922  0.1842
  293MOL0     C40349  11.018   9.773   1.289  0.5547  0.0563 -0.3830
  293MOL0     C40350  11.060   9.646   1.321 -0.5815 -0.0173 -1.0017
  293MOL0     C40351  11.125   9.286   1.481  1.2081 -0.4667 -0.2738
  293MOL0     C40352  11.241   9.352   1.517 -0.3428  0.7185  0.6179
  293MOL0     C40353  11.329   9.287   1.603  0.4397 -1.1676  0.7740
  293MOL0     C40354  11.304   9.159   1.654  0.4270 -0.4856 -0.0551
  293MOL0     O40355  11.390   9.106   1.733  0.1023  0.1849 -0.3919
  293MOL0     C40356  11.388   8.969   1.788 -0.4832  0.3294 -0.0857
  293MOL0     C40357  11.505   8.951   1.885  0.1538 -0.1724 -0.9608
  293MOL0     C40358  11.520   8.799   1.927  0.7508  0.0409  0.7928
  293MOL0     C40359  11.617   8.784   2.047  0.3155 -0.4221  0.5081
  293MOL0     C40360  11.753   8.809   2.006 -1.3570  0.7460 -0.1644
  293MOL0     C40361  11.877   8.815   1.985 -0.0514  0.2847  0.1962
  293MOL0     C40362  11.182   9.092   1.621 -0.9868  0.2526 -0.4009
  293MOL0     C40363  11.090   9.160   1.535 -0.5092  0.2147 -0.2199
  293MOL0     C40364  10.968   9.084   1.488 -0.2153 -0.1512  0.0076
  293MOL0     H40365  10.999   9.477   1.030  1.6337 -0.4354  1.0172
  293MOL0     H40366  10.905   9.698   0.978  1.0614  2.7184 -0.3978
  293MOL0     H40367  10.738   9.862   1.073 -1.3869  1.8129  2.8251
  293MOL0     H40368  10.846   9.930   0.940  0.6152  1.4437  0.8423
  293MOL0     H40369  10.815  10.155   1.040  3.1169 -2.0615  1.8761
  293MOL0     H40370  10.683  10.072   0.957 -1.3991 -1.5619  1.7222
  293MOL0     H40371  10.561  10.043   1.172  1.2367 -0.2807  3.1152
  293MOL0     H40372  10.709  10.060   1.257 -1.3417 -3.7647 -0.5886
  293MOL0     H40373  10.564  10.279   1.278 -1.5383  2.1006 -1.2701
  293MOL0     H40374  10.710  10.312   1.188 -0.1734 -0.2850 -2.8015
  293MOL0     H40375  10.426  10.265   1.092 -0.0299  0.7011  0.1142
  293MOL0     H40376  10.553  10.247   0.980 -4.9489  0.6460 -2.0414
  293MOL0     H40377  10.664  10.458   1.031 -0.0466  1.7199 -1.3959
  293MOL0     H40378  10.525  10.456   0.939  3.1207 -0.7732 -1.4796
  293MOL0     H40379  10.514  10.508   1.246 -1.5862 -1.0111  0.5483
  293MOL0     H40380  10.377  10.536   1.129  0.3370  2.5556 -0.4766
  293MOL0     H40381  10.567  10.671   0.995 -1.6996 -1.4326 -0.0190
  293MOL0     H40382  10.450  10.740   1.097  0.0902  0.1329 -2.2257
  293MOL0     H40383  10.657  10.921   1.087  0.2354 -0.5847 -0.5446
  293MOL0     H40384  10.954  10.994   1.172  2.6787  1.6045  1.2580
  293MOL0     H40385  10.958  10.965   1.344 -0.0025 -1.1714 -0.8711
  293MOL0     H40386  10.751  11.119   1.198 -0.9739 -1.1064  0.1962
  293MOL0     H40387  10.752  11.098   1.378 -0.2693  2.4375 -0.9467
  293MOL0     H40388  10.975  11.216   1.346  0.7198 -0.7591 -0.1087
  293MOL0     H40389  10.916  11.283   1.191  0.0671  0.6585  0.4829
  293MOL0     H40390  10.711  11.367   1.302  0.8712 -0.0675  0.7689
  293MOL0     H40391  10.785  11.314   1.448 -1.7032 -1.5681  0.2267
  293MOL0     H40392  10.754  11.621   1.162 -0.5511  2.3851 -0.3060
  293MOL0     H40393  10.721  11.710   0.969  0.2090 -0.5497 -2.7972
  293MOL0     H40394  10.861  11.729   0.867  0.8385  0.3187  0.8042
  293MOL0     H40395  10.829  11.857   0.977  0.1341  0.1420 -0.0625
  293MOL0     H40396  11.155  12.044   0.976  1.1023 -1.8160  0.0896
  293MOL0     H40397  11.312  12.219   0.868 -0.3282  2.2198 -2.5038
  293MOL0     H40398  11.427  12.337   0.707 -0.3437  1.4029  0.1279
  293MOL0     H40399  11.520  12.344   0.553  0.1516  0.3700  1.8381
  293MOL0     H40400  11.202  12.347   0.570 -1.3123 -0.0335 -1.2802
  293MOL0     H40401  11.308  12.483   0.537  2.0643 -0.6637 -1.5663
  293MOL0     H40402  11.207  12.394   0.323  1.5114  3.2212  0.2637
  293MOL0     H40403  11.280  12.233   0.355 -0.1602  0.0864  0.8629
  293MOL0     H40404  11.514  12.388   0.322 -0.3955 -0.4946  1.2783
  293MOL0     H40405  11.405  12.496   0.252 -0.0183 -1.1493 -2.4158
  293MOL0     H40406  11.509  12.343   0.089 -1.1479  0.7101 -0.7263
  293MOL0     H40407  11.409  12.217   0.163  2.2902  0.8861  3.4404
  293MOL0     H40408  11.291  12.491   0.043  1.7150  0.6089  1.9407
  293MOL0     H40409  11.208  12.353   0.097  0.0240 -0.2597 -0.0732
  293MOL0     H40410  11.201  12.303  -0.126 -0.7382 -0.9270 -0.2822
  293MOL0     H40411  11.355  12.223  -0.082 -1.3437 -0.6895  0.3783
  293MOL0     H40412  11.452  12.461  -0.150  0.3142  0.9820 -1.6529
  293MOL0     H40413  11.327  12.467  -0.258 -1.0576 -3.2254 -3.6680
  293MOL0     H40414  11.327  11.953   0.528 -1.5806 -1.0147 -1.8602
  293MOL0     H40415  11.141  11.814   0.634  0.4857  0.3481 -2.0603
  293MOL0     H40416  11.244  11.596   1.153  0.8439  1.1604  0.3649
  293MOL0     H40417  11.122  11.488   1.323  0.6555 -0.4523 -0.3831
  293MOL0     H40418  11.031   9.855   1.358 -4.6353 -1.0673  2.4830
  293MOL0     H40419  11.101   9.621   1.418 -0.9521  0.5696 -0.6906
  293MOL0     H40420  11.279   9.445   1.476  2.3916 -1.5142 -2.4408
  293MOL0     H40421  11.417   9.345   1.626 -1.5885  1.9758  1.1734
  293MOL0     H40422  11.299   8.953   1.849  0.6069  0.5061  1.6156
  293MOL0     H40423  11.390   8.884   1.719 -2.6514 -1.0374  1.4253
  293MOL0     H40424  11.493   9.008   1.978 -2.1289 -2.3733  0.2075
  293MOL0     H40425  11.604   8.975   1.843  2.5332 -0.7425  3.6795
  293MOL0     H40426  11.421   8.766   1.957  0.2831  0.4905 -0.2087
  293MOL0     H40427  11.569   8.750   1.843 -0.8804  1.5149 -1.1226
  293MOL0     H40428  11.600   8.680   2.078 -1.9760 -0.8975 -1.9880
  293MOL0     H40429  11.599   8.849   2.133  2.3580  0.5915  0.2289
  293MOL0     H40430  11.980   8.827   1.957 -0.2609 -3.3737 -3.0974
  293MOL0     H40431  11.155   8.997   1.665 -1.7479 -0.0412 -1.4527
  293MOL0     H40432  10.960   8.992   1.547  1.3204  0.9664  2.0723
  293MOL0     H40433  10.877   9.144   1.481  0.6376  1.1073 -0.7097
  293MOL0     H40434  10.996   9.038   1.392 -0.2528 -0.7764  0.2858
  294MOL0     O40435   7.163   4.206   7.797 -0.5870 -0.0529  0.1594
  294MOL0     C40436   7.115   4.094   7.803  0.0442  0.7251  0.2669
  294MOL0     O40437   7.066   4.020   7.701 -0.1776  0.1702  0.5878
  294MOL0     C40438   7.020   4.088   7.589  0.9127  0.9420 -0.4679
  294MOL0     C40439   7.101   4.170   7.511 -0.1695 -0.0072 -0.0982
  294MOL0     C40440   7.053   4.250   7.412  0.2241 -0.5647  0.6787
  294MOL0     C40441   6.918   4.255   7.391 -1.1075  0.5580 -0.3922
  294MOL0     O40442   6.858   4.329   7.290  0.2508  0.1459  0.0765
  294MOL0     C40443   6.817   4.250   7.169  0.0036  0.4939 -0.6670
  294MOL0     C40444   6.912   4.259   7.058 -0.1338  0.4846 -0.8848
  294MOL0     C40445   6.907   4.397   6.980 -0.4405  0.4353 -0.1486
  294MOL0     C40446   7.038   4.411   6.905  0.1402 -0.2832  0.7288
  294MOL0     C40447   7.046   4.549   6.830  0.0357  1.5711 -0.8157
  294MOL0     C40448   7.187   4.585   6.789  0.2716  0.1356 -0.4808
  294MOL0     C40449   7.244   4.483   6.680 -0.3151 -0.3223 -0.1460
  294MOL0     C40450   7.384   4.510   6.624 -0.0886 -0.3118  0.1307
  294MOL0     N40451   7.486   4.521   6.721 -0.4824  0.2899 -0.1678
  294MOL0     C40452   7.512   4.635   6.798  0.5823  0.3110 -0.2290
  294MOL0     C40453   7.626   4.608   6.864 -0.0495  0.3776 -0.5950
  294MOL0     C40454   7.697   4.694   6.962 -0.1927  0.3956  0.4563
  294MOL0     C40455   7.838   4.645   6.990  0.4095 -0.2067  0.5513
  294MOL0     C40456   7.892   4.741   7.095  0.7640 -0.2495  0.1123
  294MOL0     C40457   8.041   4.716   7.107 -0.2930 -1.0007 -0.7870
  294MOL0     O40458   8.066   4.576   7.114 -0.6845 -0.3680 -0.4530
  294MOL0     C40459   8.197   4.551   7.125  0.0354 -0.0540 -0.4033
  294MOL0     C40460   8.216   4.414   7.146  0.5284  0.1171  0.0349
  294MOL0     C40461   8.342   4.356   7.165 -0.6045  0.1830  0.6434
  294MOL0     C40462   8.349   4.214   7.204  0.0174 -0.8906 -0.4068
  294MOL0     C40463   8.460   4.435   7.156 -0.3673 -1.0965  0.4889
  294MOL0     C40464   8.596   4.386   7.135 -0.4691  0.4438 -0.4526
  294MOL0     O40465   8.630   4.281   7.049 -0.0558  0.1616  0.2354
  294MOL0     C40466   8.764   4.253   7.034  0.3399  0.0044  0.0017
  294MOL0     C40467   8.818   4.259   6.904 -0.7969  0.8854  0.1616
  294MOL0     C40468   8.950   4.212   6.882  0.8659 -0.4516 -0.1669
  294MOL0     C40469   9.031   4.171   6.990  0.1357 -0.0859 -0.2216
  294MOL0     O40470   9.159   4.126   6.978 -0.1393 -0.0672 -0.0016
  294MOL0     C40471   9.213   4.036   7.072 -0.5460 -0.7728  0.2426
  294MOL0     C40472   9.318   4.115   7.163 -0.0579  0.4255  0.4742
  294MOL0     C40473   9.362   4.048   7.299 -0.2059 -0.0064  0.1796
  294MOL0     C40474   9.477   4.130   7.379  0.1807  0.2238 -1.4762
  294MOL0     C40475   9.491   4.071   7.523  0.9191  0.2002  0.7030
  294MOL0     C40476   9.387   4.120   7.629 -0.4834 -0.1959 -0.3704
  294MOL0     C40477   9.416   4.050   7.764 -0.3231 -1.0495 -0.0497
  294MOL0     C40478   9.297   4.065   7.865  0.0225  0.4758 -0.4584
  294MOL0    Cl40479   9.209   3.915   7.865 -0.1618 -0.4000  0.0269
  294MOL0     C40480   8.968   4.167   7.122 -0.3860 -0.3275  0.6350
  294MOL0     C40481   8.838   4.208   7.145 -0.6936  0.4019 -0.3885
  294MOL0     O40482   8.676   4.458   7.197 -0.2969  0.1015 -0.3010
  294MOL0     C40483   8.439   4.577   7.154  0.0763  0.3962 -0.0345
  294MOL0     C40484   8.312   4.633   7.130  0.5564 -0.4975 -1.0544
  294MOL0     N40485   7.674   4.488   6.816  0.1864 -0.1312  0.5063
  294MOL0     N40486   7.595   4.442   6.733  0.2072  0.1117  0.0822
  294MOL0     C40487   6.831   4.161   7.453  0.1896  0.3067 -0.3147
  294MOL0     C40488   6.888   4.083   7.555 -0.0277  0.4061 -0.5560
  294MOL0     C40489   7.128   4.028   7.937 -0.1572  0.1436 -0.1836
  294MOL0     C40490   7.259   4.042   8.003  0.1461  0.6218  0.4522
  294MOL0     C40491   7.275   3.972   8.118  0.5693  0.2399 -0.4812
  294MOL0     C40492   7.174   3.894   8.180  0.4513 -0.1927  0.6544
  294MOL0     O40493   7.188   3.807   8.292 -0.0759  0.4326  1.0918
  294MOL0     C40494   7.297   3.846   8.377  0.0702  0.7232 -0.2212
  294MOL0     C40495   7.235   3.883   8.513 -0.2107 -0.3963  0.1860
  294MOL0     C40496   7.165   3.778   8.602  0.3465  1.1446  0.6872
  294MOL0     C40497   7.250   3.651   8.636 -0.8570 -0.4284  0.3889
  294MOL0     C40498   7.182   3.568   8.739  0.3916  0.7637 -0.8386
  294MOL0     C40499   7.115   3.495   8.809 -0.0801  0.4193  0.2165
  294MOL0     C40500   7.048   3.896   8.118  0.7227  0.5308  0.2988
  294MOL0     C40501   7.017   3.958   7.996  1.0901  0.4903 -0.6736
  294MOL0     C40502   6.874   3.948   7.942 -0.1998 -0.2570  0.6548
  294MOL0     H40503   7.206   4.189   7.531 -0.3981  1.0532  0.1606
  294MOL0     H40504   7.125   4.313   7.361  1.1919 -2.2153 -0.0682
  294MOL0     H40505   6.714   4.263   7.133 -2.2237 -2.4577  3.7424
  294MOL0     H40506   6.816   4.144   7.196  3.8990  0.4786 -0.0002
  294MOL0     H40507   7.012   4.232   7.091  0.0179  0.7273 -1.1458
  294MOL0     H40508   6.889   4.179   6.987 -0.3615  1.4882 -1.9611
  294MOL0     H40509   6.815   4.408   6.923 -1.4794 -2.6877  0.7403
  294MOL0     H40510   6.897   4.486   7.044 -2.3465  0.5477 -0.5665
  294MOL0     H40511   7.117   4.404   6.981 -0.7991  0.1727  1.7655
  294MOL0     H40512   7.046   4.344   6.819  0.4405 -1.7960  1.8867
  294MOL0     H40513   7.025   4.635   6.894  1.8780  0.5639  1.2949
  294MOL0     H40514   6.988   4.535   6.739 -0.7792  1.1245 -0.2456
  294MOL0     H40515   7.187   4.692   6.762 -0.0493  0.6344  1.3783
  294MOL0     H40516   7.240   4.574   6.884 -1.4981  1.2825  0.6979
  294MOL0     H40517   7.176   4.496   6.595  0.7313 -1.9301 -1.2658
  294MOL0     H40518   7.242   4.381   6.720 -0.3541 -0.2795 -0.0389
  294MOL0     H40519   7.400   4.428   6.555  0.7183 -1.1910  1.3250
  294MOL0     H40520   7.390   4.603   6.567 -1.4337 -0.2088  0.1079
  294MOL0     H40521   7.463   4.729   6.818  1.4084  0.6671  0.1824
  294MOL0     H40522   7.649   4.703   7.059 -0.9239  0.2482  0.1143
  294MOL0     H40523   7.699   4.789   6.907 -4.0892 -0.7613 -2.1270
  294MOL0     H40524   7.837   4.543   7.030  0.3595  0.8807  3.6079
  294MOL0     H40525   7.893   4.644   6.896 -1.1675 -0.0568 -0.4055
  294MOL0     H40526   7.869   4.843   7.063 -1.9272 -1.1322 -1.0531
  294MOL0     H40527   7.831   4.722   7.184  0.5299 -2.3677 -0.4447
  294MOL0     H40528   8.082   4.762   7.017  1.1993  0.4529  0.5634
  294MOL0     H40529   8.071   4.775   7.194 -2.3573 -1.4653  0.3085
  294MOL0     H40530   8.127   4.354   7.134  0.1428  0.6004  0.4702
  294MOL0     H40531   8.275   4.179   7.276 -0.1115 -1.8849 -1.0092
  294MOL0     H40532   8.445   4.180   7.245 -1.0559 -2.4779  0.9445
  294MOL0     H40533   8.312   4.157   7.119 -1.4603 -0.4753 -0.0564
  294MOL0     H40534   8.773   4.295   6.812  2.7238 -0.0128 -2.1148
  294MOL0     H40535   8.994   4.224   6.784  2.0522  1.0864  0.5013
  294MOL0     H40536   9.133   3.999   7.137 -1.2371  1.4018  0.7229
  294MOL0     H40537   9.254   3.951   7.017 -2.8282 -1.3084 -0.7414
  294MOL0     H40538   9.409   4.115   7.103 -0.7060  1.4305 -0.5687
  294MOL0     H40539   9.282   4.216   7.187 -2.6092 -0.6013  1.3389
  294MOL0     H40540   9.386   3.945   7.271 -3.2395 -0.5343 -0.7745
  294MOL0     H40541   9.279   4.045   7.370 -0.3252 -2.5236  0.0258
  294MOL0     H40542   9.449   4.236   7.379 -0.8467 -0.0285 -0.8111
  294MOL0     H40543   9.575   4.131   7.332  0.7906  0.5158 -0.2358
  294MOL0     H40544   9.483   3.963   7.503  0.7954  0.6515 -2.1084
  294MOL0     H40545   9.588   4.094   7.568  0.8729  1.3623  0.2347
  294MOL0     H40546   9.282   4.097   7.609 -1.0315  0.4878  1.4609
  294MOL0     H40547   9.396   4.226   7.657 -2.4190 -0.3868  1.1848
  294MOL0     H40548   9.516   4.080   7.797  1.2781 -2.3178 -3.3752
  294MOL0     H40549   9.434   3.945   7.742 -0.0867 -0.5494 -2.5340
  294MOL0     H40550   9.232   4.151   7.849 -0.8195  0.0979  0.8046
  294MOL0     H40551   9.331   4.081   7.968 -0.1799 -0.4523 -0.2430
  294MOL0     H40552   9.007   4.129   7.216 -0.4917 -2.5351 -0.1526
  294MOL0     H40553   8.793   4.195   7.244 -0.3728 -3.1298 -0.5974
  294MOL0     H40554   8.523   4.646   7.157 -0.1069  0.9100 -3.1832
  294MOL0     H40555   8.301   4.738   7.106  0.9763 -0.1489  0.1768
  294MOL0     H40556   6.723   4.157   7.439  0.2590 -0.4286 -0.6775
  294MOL0     H40557   6.828   4.029   7.628  3.8651  0.4378  2.9909
  294MOL0     H40558   7.346   4.083   7.952 -1.6946  1.8077 -1.9604
  294MOL0     H40559   7.375   3.973   8.159  0.3536 -0.9392  0.1408
  294MOL0     H40560   7.360   3.757   8.384 -1.4164 -0.4599 -1.3857
  294MOL0     H40561   7.354   3.936   8.352  0.2943  1.0009  1.1561
  294MOL0     H40562   7.160   3.960   8.494  0.4564  0.3124  0.3665
  294MOL0     H40563   7.317   3.930   8.568  0.6541  0.9143 -2.0928
  294MOL0     H40564   7.145   3.822   8.700  0.4097  0.6274  0.9362
  294MOL0     H40565   7.066   3.749   8.564  1.8716 -1.3095 -1.8418
  294MOL0     H40566   7.346   3.694   8.664 -0.5857 -0.0587 -1.0549
  294MOL0     H40567   7.266   3.592   8.545  2.0072  1.8064 -0.7191
  294MOL0     H40568   7.064   3.420   8.865  0.7245 -0.6935 -0.4894
  294MOL0     H40569   6.969   3.833   8.157  0.1948  0.4409 -0.8715
  294MOL0     H40570   6.836   4.049   7.923 -3.2836 -1.7254 -1.7508
  294MOL0     H40571   6.880   3.899   7.845  0.6764  0.9212  0.0809
  294MOL0     H40572   6.804   3.899   8.010 -1.3168 -2.4562 -1.8987
  295MOL0     O40573   2.792   7.661  11.507  0.4424 -0.1781  0.4790
  295MOL0     C40574   2.810   7.773  11.454 -0.4832  0.6559 -1.4320
  295MOL0     O40575   2.740   7.799  11.343  0.3065 -0.9750 -0.8514
  295MOL0     C40576   2.645   7.705  11.309 -0.4242 -0.5621  0.3203
  295MOL0     C40577   2.511   7.731  11.337 -0.1955  0.1513 -0.9000
  295MOL0     C40578   2.415   7.648  11.271  0.3109 -0.5013  0.5931
  295MOL0     C40579   2.449   7.540  11.195  0.0790  0.0157  0.5563
  295MOL0     O40580   2.357   7.441  11.162 -0.0132 -0.0664  0.4564
  295MOL0     C40581   2.225   7.486  11.120 -0.6481  0.3485 -0.2911
  295MOL0     C40582   2.127   7.377  11.148  0.4761  0.6040  0.7333
  295MOL0     C40583   2.149   7.257  11.043  0.5346  0.1735  0.0735
  295MOL0     C40584   2.024   7.162  11.052 -0.5513  0.4951  0.4131
  295MOL0     C40585   2.067   7.021  11.007 -0.0330 -0.3697 -0.3334
  295MOL0     C40586   1.953   6.929  11.025  0.7912 -0.2650 -0.7741
  295MOL0     C40587   1.910   6.903  11.165 -0.2096  0.6925 -0.1667
  295MOL0     C40588   1.872   6.759  11.184 -0.0449 -0.2444 -0.5544
  295MOL0     N40589   1.747   6.727  11.104  0.4653  0.7071 -0.5299
  295MOL0     C40590   1.621   6.774  11.126 -0.2718 -0.3807 -0.0698
  295MOL0     C40591   1.540   6.699  11.047 -1.1041 -0.2925  0.2121
  295MOL0     C40592   1.388   6.717  11.045  0.3588 -0.2433  0.8274
  295MOL0     C40593   1.318   6.588  11.102  0.6388 -0.8173 -0.9726
  295MOL0     C40594   1.176   6.624  11.124  0.1146 -0.2297  0.1840
  295MOL0     C40595   1.100   6.500  11.160 -0.1082  0.7114 -0.3019
  295MOL0     O40596   0.960   6.540  11.184 -0.3872 -0.0119 -0.3176
  295MOL0     C40597   0.873   6.439  11.195 -0.5150 -0.0852  0.1409
  295MOL0     C40598   0.797   6.385  11.091 -1.0391 -0.0485 -0.7975
  295MOL0     C40599   0.723   6.271  11.106  0.7909 -0.1065  0.5492
  295MOL0     C40600   0.669   6.213  10.982 -0.1369  0.7353  0.5653
  295MOL0     C40601   0.718   6.211  11.228  0.0772 -0.7794  0.2434
  295MOL0     C40602   0.642   6.078  11.246  0.7713  0.6225 -0.9147
  295MOL0     O40603   0.558   6.081  11.347  0.4135 -1.1261  0.3555
  295MOL0     C40604   0.481   5.978  11.382  0.1646 -0.5429  0.9384
  295MOL0     C40605   0.357   5.953  11.321 -0.4510 -0.7431  1.3773
  295MOL0     C40606   0.278   5.846  11.364  0.9873 -0.8379  1.0978
  295MOL0     C40607   0.321   5.747  11.454 -0.1271  0.4681  0.1050
  295MOL0     O40608   0.242   5.637  11.473 -0.4139 -0.3201 -0.2838
  295MOL0     C40609   0.262   5.566  11.590 -0.3937 -0.5802 -0.1827
  295MOL0     C40610   0.152   5.464  11.607 -0.5377  0.4696  0.0698
  295MOL0     C40611   0.138   5.378  11.478  0.5705  0.6644 -0.2252
  295MOL0     C40612   0.009   5.293  11.492 -0.5910 -0.0867 -0.0921
  295MOL0     C40613   0.011   5.166  11.414 -0.1641  0.9336 -0.3688
  295MOL0     C40614  -0.121   5.082  11.440  0.3929 -0.1899 -0.6418
  295MOL0     C40615  -0.119   4.960  11.348  0.4800  0.3194  0.0776
  295MOL0     C40616  -0.255   4.883  11.369 -0.2864 -0.5999 -0.5130
  295MOL0    Cl40617  -0.394   4.989  11.359  0.2779 -0.0011 -0.3014
  295MOL0     C40618   0.445   5.772  11.517  0.4423 -0.2043 -1.5975
  295MOL0     C40619   0.523   5.886  11.482  0.5084  0.0817 -0.1265
  295MOL0     O40620   0.645   5.986  11.166  0.4539  0.4731  0.5757
  295MOL0     C40621   0.787   6.263  11.332  0.0453  0.8449  0.4229
  295MOL0     C40622   0.860   6.383  11.320 -0.2372 -0.0181 -0.6062
  295MOL0     N40623   1.624   6.613  10.977  1.6048 -0.6636  0.5879
  295MOL0     N40624   1.747   6.631  11.000  0.6892 -0.5688 -0.3028
  295MOL0     C40625   2.591   7.513  11.195 -0.6783 -0.4891  0.3806
  295MOL0     C40626   2.690   7.592  11.243 -1.0173 -1.2423  0.0667
  295MOL0     C40627   2.888   7.881  11.531  0.2327  0.2462  0.5319
  295MOL0     C40628   2.851   8.005  11.481 -0.1182 -1.2739 -0.1933
  295MOL0     C40629   2.913   8.116  11.528  0.0743  0.0208  0.4012
  295MOL0     C40630   3.004   8.117  11.632 -0.2081  0.1963 -0.1239
  295MOL0     O40631   3.062   8.235  11.677  0.4025 -0.6123 -0.1808
  295MOL0     C40632   3.134   8.232  11.804 -0.4113 -0.0401  0.0349
  295MOL0     C40633   3.039   8.222  11.930  0.3344 -0.2912  0.1557
  295MOL0     C40634   2.917   8.306  11.910 -1.1566  0.3506 -0.3097
  295MOL0     C40635   2.830   8.308  12.047 -0.2030  0.3670  0.4325
  295MOL0     C40636   2.901   8.395  12.133 -0.0079 -0.3259 -0.0386
  295MOL0     C40637   2.962   8.479  12.199  0.3548 -0.4308 -1.0032
  295MOL0     C40638   3.049   7.987  11.672 -0.6189  0.7717  0.1182
  295MOL0     C40639   2.985   7.871  11.631 -0.5790  1.1536 -0.0293
  295MOL0     C40640   3.037   7.740  11.689  0.3189  0.1081  0.0816
  295MOL0     H40641   2.494   7.817  11.401  4.2650 -0.0053  0.8320
  295MOL0     H40642   2.314   7.661  11.309 -0.1111 -1.9647  0.0585
  295MOL0     H40643   2.223   7.519  11.015 -1.3803 -0.9476 -0.7067
  295MOL0     H40644   2.188   7.575  11.173 -0.2809  0.5731 -0.4082
  295MOL0     H40645   2.141   7.345  11.252 -0.4990 -1.3213  0.3048
  295MOL0     H40646   2.028   7.418  11.130  2.2238  4.3536 -1.7068
  295MOL0     H40647   2.159   7.298  10.942  0.5246  0.9768  0.3891
  295MOL0     H40648   2.240   7.201  11.067 -0.5793 -2.0104 -0.5148
  295MOL0     H40649   1.994   7.162  11.157 -1.4085  0.8026  0.1785
  295MOL0     H40650   1.939   7.188  10.988 -1.0279 -1.2875  0.2643
  295MOL0     H40651   2.155   6.982  11.058 -1.2639 -0.5260  1.8267
  295MOL0     H40652   2.090   7.030  10.901  0.8830 -1.4908 -0.2425
  295MOL0     H40653   1.866   6.971  10.974  2.1491  1.2765 -1.9554
  295MOL0     H40654   1.970   6.846  10.956  0.2362  1.2545 -2.8266
  295MOL0     H40655   1.834   6.969  11.209 -0.1750  0.4927  0.1972
  295MOL0     H40656   1.996   6.920  11.231 -1.3472 -0.4888  1.7102
  295MOL0     H40657   1.950   6.688  11.154  0.2505  0.3555 -1.2545
  295MOL0     H40658   1.870   6.746  11.292  0.3284 -1.0042 -0.6264
  295MOL0     H40659   1.595   6.857  11.191 -0.4431 -0.4515 -0.0454
  295MOL0     H40660   1.353   6.730  10.943  1.4867 -1.3385  0.2717
  295MOL0     H40661   1.356   6.804  11.103 -1.1231 -0.7679  0.8230
  295MOL0     H40662   1.327   6.507  11.029 -1.0615  0.3680 -2.5744
  295MOL0     H40663   1.355   6.560  11.202 -2.2940  0.2744  0.5493
  295MOL0     H40664   1.180   6.697  11.206 -1.4999 -0.2999  0.3573
  295MOL0     H40665   1.128   6.653  11.031  0.2384 -1.0765 -0.1456
  295MOL0     H40666   1.115   6.436  11.073 -3.9203  1.2886 -1.5886
  295MOL0     H40667   1.141   6.455  11.251 -0.2703 -1.0089 -1.0522
  295MOL0     H40668   0.804   6.427  10.991  1.8374  1.4419 -0.0861
  295MOL0     H40669   0.736   6.132  10.956  0.9862  2.1905 -1.3484
  295MOL0     H40670   0.662   6.284  10.899 -1.2275 -2.2121 -2.0655
  295MOL0     H40671   0.567   6.179  11.003  0.0618  1.0639  2.2222
  295MOL0     H40672   0.322   6.022  11.245 -0.2569 -2.4232 -0.3347
  295MOL0     H40673   0.185   5.829  11.311  2.0428  2.7093 -2.3172
  295MOL0     H40674   0.357   5.515  11.574  0.5690  1.4989 -1.4186
  295MOL0     H40675   0.261   5.632  11.677 -1.5624  1.1798 -1.4548
  295MOL0     H40676   0.182   5.402  11.692  4.2506  0.2191 -1.5149
  295MOL0     H40677   0.055   5.511  11.626 -0.3385  1.7082 -1.7526
  295MOL0     H40678   0.224   5.313  11.462 -1.8357 -2.1669 -2.9487
  295MOL0     H40679   0.131   5.431  11.383 -3.2224  1.4223  0.2966
  295MOL0     H40680  -0.069   5.353  11.444  0.6971  0.1965 -1.9256
  295MOL0     H40681  -0.013   5.264  11.595 -0.4177 -2.8010 -0.7480
  295MOL0     H40682   0.032   5.188  11.309 -1.8429  2.8048 -0.3721
  295MOL0     H40683   0.091   5.112  11.465  0.5557  1.8944 -0.4533
  295MOL0     H40684  -0.206   5.146  11.415  0.5321 -0.3081 -1.4708
  295MOL0     H40685  -0.130   5.053  11.545  1.6794  2.8962  0.4184
  295MOL0     H40686  -0.026   4.907  11.370 -0.9766 -2.2244  0.4680
  295MOL0     H40687  -0.128   4.992  11.244 -3.2766  1.2686  0.5547
  295MOL0     H40688  -0.258   4.851  11.474  3.7965 -3.5431 -1.0484
  295MOL0     H40689  -0.247   4.790  11.312 -1.0109 -0.8654 -0.1932
  295MOL0     H40690   0.496   5.710  11.590  0.4416 -0.9687 -2.2244
  295MOL0     H40691   0.621   5.910  11.522  0.6648 -1.5838  0.5895
  295MOL0     H40692   0.776   6.213  11.428 -0.6973  1.0104  0.4306
  295MOL0     H40693   0.913   6.422  11.407  1.2999 -3.6209  0.2331
  295MOL0     H40694   2.615   7.418  11.148  0.9227 -0.3447  0.8545
  295MOL0     H40695   2.793   7.583  11.208 -1.5197  1.6084 -2.5734
  295MOL0     H40696   2.779   8.022  11.401 -0.9409  0.4510  0.8555
  295MOL0     H40697   2.862   8.206  11.497 -1.4433 -1.1836 -0.7910
  295MOL0     H40698   3.204   8.148  11.799 -0.5620 -0.0962 -3.4651
  295MOL0     H40699   3.184   8.328  11.818  0.6537 -0.6961  0.9551
  295MOL0     H40700   3.095   8.256  12.018  1.4714 -1.5186 -0.0617
  295MOL0     H40701   3.026   8.117  11.959  0.1151  0.0577  1.3766
  295MOL0     H40702   2.958   8.401  11.875  3.5717 -0.7400  1.5088
  295MOL0     H40703   2.860   8.260  11.829  2.5068  0.4313 -3.1977
  295MOL0     H40704   2.820   8.205  12.081  0.1024 -0.4537 -1.7548
  295MOL0     H40705   2.737   8.359  12.021  1.3122  3.1243 -0.0584
  295MOL0     H40706   3.028   8.530  12.266 -1.2493 -0.6146  0.8251
  295MOL0     H40707   3.139   7.979  11.732 -0.2090  1.0729 -0.4478
  295MOL0     H40708   2.969   7.656  11.672  1.4326 -0.8607  0.2617
  295MOL0     H40709   3.130   7.713  11.638 -0.8258 -1.7910 -1.1578
  295MOL0     H40710   3.060   7.755  11.795 -1.2786 -1.2840  0.6787
  296MOL0     O40711   0.869   2.938   0.136 -0.2660  0.2406 -0.0177
  296MOL0     C40712   0.980   2.989   0.131  0.2105 -0.2152  0.3548
  296MOL0     O40713   1.011   3.114   0.178 -0.2238  0.4525 -0.2524
  296MOL0     C40714   0.916   3.200   0.229  0.1572  0.4210  1.1314
  296MOL0     C40715   0.921   3.332   0.197  0.2806 -0.8691  0.4760
  296MOL0     C40716   0.816   3.421   0.235  0.7530 -0.6084 -0.1936
  296MOL0     C40717   0.709   3.363   0.303 -0.6795 -0.4431  0.4310
  296MOL0     O40718   0.612   3.448   0.342  0.4301 -0.3362  0.0899
  296MOL0     C40719   0.578   3.459   0.484 -0.9696  0.4352  0.1234
  296MOL0     C40720   0.484   3.588   0.506 -0.5382 -0.3500 -0.0092
  296MOL0     C40721   0.348   3.564   0.441 -0.1427 -0.4998  0.3632
  296MOL0     C40722   0.252   3.680   0.457 -0.2766 -0.1438 -0.2243
  296MOL0     C40723   0.173   3.675   0.586  0.0395 -0.2244  0.2100
  296MOL0     C40724   0.065   3.550   0.593 -0.3838 -0.0399 -0.8208
  296MOL0     C40725   0.069   3.491   0.733 -0.8560 -0.2577  0.6083
  296MOL0     C40726  -0.067   3.420   0.742 -0.4162  0.3323  0.2019
  296MOL0     N40727  -0.069   3.363   0.883  0.0181  0.4294  0.3488
  296MOL0     C40728  -0.067   3.232   0.909 -0.2061  0.2554 -1.3089
  296MOL0     C40729  -0.087   3.223   1.044 -0.1412  0.5630  0.4208
  296MOL0     C40730  -0.113   3.100   1.122  0.6147  0.8756 -0.3621
  296MOL0     C40731  -0.267   3.076   1.129 -0.4265 -0.5889 -0.5364
  296MOL0     C40732  -0.353   3.183   1.188  1.0966  0.1621 -1.0314
  296MOL0     C40733  -0.491   3.117   1.214  0.3598  0.2372  0.1718
  296MOL0     O40734  -0.584   3.217   1.268 -0.4047 -0.2170 -0.0633
  296MOL0     C40735  -0.695   3.164   1.328 -0.2934  1.1624  0.8157
  296MOL0     C40736  -0.726   3.202   1.455  0.2697 -0.5331  0.0968
  296MOL0     C40737  -0.836   3.139   1.524 -0.0746  0.3323  0.3411
  296MOL0     C40738  -0.866   3.203   1.660  0.2397  0.0288 -0.3644
  296MOL0     C40739  -0.918   3.041   1.461  0.1182  0.6692 -0.1335
  296MOL0     C40740  -1.035   2.962   1.525  0.5723  0.6811 -0.1783
  296MOL0     O40741  -1.083   2.855   1.458  0.0729 -0.2345  0.3491
  296MOL0     C40742  -1.176   2.772   1.508  0.6146 -0.5843 -0.5097
  296MOL0     C40743  -1.281   2.735   1.424 -0.4859 -1.1639 -0.9997
  296MOL0     C40744  -1.395   2.671   1.463 -0.3191 -0.8249 -0.6356
  296MOL0     C40745  -1.399   2.616   1.589  0.6985 -0.4399  1.1610
  296MOL0     O40746  -1.509   2.537   1.618  0.2792  1.0378 -0.3133
  296MOL0     C40747  -1.562   2.560   1.747  0.0518  0.1121 -0.1259
  296MOL0     C40748  -1.697   2.490   1.765 -0.2428  0.5544 -0.7202
  296MOL0     C40749  -1.783   2.511   1.637 -0.0709 -0.5738 -0.7994
  296MOL0     C40750  -1.936   2.524   1.678  0.3166  0.0712 -0.4634
  296MOL0     C40751  -2.024   2.560   1.555 -0.8982 -1.0394 -0.0679
  296MOL0     C40752  -2.014   2.463   1.432  0.5710 -0.8044 -0.0925
  296MOL0     C40753  -2.095   2.521   1.313  0.7393  0.4134  0.8816
  296MOL0     C40754  -2.237   2.568   1.340  0.5737 -0.0879  0.1575
  296MOL0    Cl40755  -2.331   2.619   1.194 -0.5796  0.0129 -0.0697
  296MOL0     C40756  -1.294   2.646   1.673 -0.7288  0.4595 -0.0460
  296MOL0     C40757  -1.179   2.713   1.636 -1.4528 -0.5377 -0.8996
  296MOL0     O40758  -1.081   2.996   1.635 -0.3005 -0.0841 -0.8458
  296MOL0     C40759  -0.890   3.015   1.326 -0.2393  0.2734  0.5079
  296MOL0     C40760  -0.785   3.081   1.256  0.4246  0.0217 -0.0766
  296MOL0     N40761  -0.093   3.347   1.095  0.0773 -0.4872 -0.0638
  296MOL0     N40762  -0.087   3.433   1.000  0.3543  0.1503 -0.1618
  296MOL0     C40763   0.704   3.227   0.338 -0.2304 -0.5203  0.1260
  296MOL0     C40764   0.811   3.151   0.310  0.3579 -0.3279  0.0435
  296MOL0     C40765   1.106   2.909   0.103  0.9732  0.0605 -0.7972
  296MOL0     C40766   1.231   2.964   0.103  0.5457  0.1239 -0.6967
  296MOL0     C40767   1.350   2.891   0.072 -0.4492  0.2222 -0.1551
  296MOL0     C40768   1.354   2.754   0.050  0.2782  0.2173 -0.7152
  296MOL0     O40769   1.459   2.671   0.041 -0.0411 -0.4966  0.8058
  296MOL0     C40770   1.584   2.743  -0.004 -0.7259  0.8011  0.1408
  296MOL0     C40771   1.698   2.645  -0.002 -0.4249 -0.3988 -0.1527
  296MOL0     C40772   1.702   2.569   0.139 -0.5683 -0.0746 -0.0990
  296MOL0     C40773   1.832   2.493   0.163  0.5137 -0.9895  1.0118
  296MOL0     C40774   1.847   2.382   0.075  0.7911 -0.1493 -0.4726
  296MOL0     C40775   1.864   2.280   0.008 -0.2089  0.4121 -0.2064
  296MOL0     C40776   1.224   2.699   0.060  0.2402  0.6489  0.0235
  296MOL0     C40777   1.099   2.768   0.077  0.1223  0.3419  0.3327
  296MOL0     C40778   0.968   2.682   0.084 -0.6390 -0.6988  0.2623
  296MOL0     H40779   1.004   3.368   0.137  1.0207 -2.8450  0.2184
  296MOL0     H40780   0.816   3.530   0.235 -3.9642 -0.4234 -0.7446
  296MOL0     H40781   0.674   3.480   0.533 -0.4444 -0.5778 -0.4548
  296MOL0     H40782   0.535   3.368   0.526  2.6707 -1.4397  0.1414
  296MOL0     H40783   0.468   3.585   0.614  0.6129  1.1163  0.2259
  296MOL0     H40784   0.530   3.682   0.475  0.6281 -0.8851  0.0604
  296MOL0     H40785   0.366   3.541   0.335  0.1245 -1.2074  0.5550
  296MOL0     H40786   0.299   3.472   0.474  2.3690 -0.7133  4.0818
  296MOL0     H40787   0.311   3.771   0.449 -1.8974  0.7801 -2.9254
  296MOL0     H40788   0.176   3.677   0.378  2.6334  0.6891 -3.2831
  296MOL0     H40789   0.121   3.770   0.599  0.9287  0.2522  0.3759
  296MOL0     H40790   0.240   3.662   0.671 -0.1430  0.6743  0.5057
  296MOL0     H40791  -0.037   3.588   0.581 -0.3532  1.3062  2.2336
  296MOL0     H40792   0.092   3.480   0.514  2.2852 -0.2936  0.2257
  296MOL0     H40793   0.072   3.565   0.813 -2.7635  0.8344 -0.2509
  296MOL0     H40794   0.157   3.427   0.739 -2.5053 -2.9149 -1.4018
  296MOL0     H40795  -0.150   3.490   0.727 -1.0094 -0.1359  1.2082
  296MOL0     H40796  -0.078   3.335   0.674  2.0404 -0.8746  1.1846
  296MOL0     H40797  -0.085   3.147   0.845 -0.2534 -0.7926  0.0529
  296MOL0     H40798  -0.066   3.103   1.221 -1.1087  0.3520  0.5102
  296MOL0     H40799  -0.059   3.021   1.069  2.2392  0.8050  1.2743
  296MOL0     H40800  -0.295   3.056   1.025  0.2328  0.0398 -0.8419
  296MOL0     H40801  -0.274   2.980   1.182 -2.6525  0.3088  0.9498
  296MOL0     H40802  -0.316   3.227   1.281 -2.3162  0.0068  0.5493
  296MOL0     H40803  -0.366   3.265   1.117  3.1642  2.3810  0.9546
  296MOL0     H40804  -0.534   3.074   1.123 -2.8061  1.1011  1.1025
  296MOL0     H40805  -0.482   3.043   1.294 -0.1008  0.6652  0.6276
  296MOL0     H40806  -0.649   3.257   1.507 -0.9400 -0.8077  2.3340
  296MOL0     H40807  -0.865   3.132   1.744 -0.2836 -0.4222 -0.7324
  296MOL0     H40808  -0.967   3.245   1.652  1.1799  2.3488 -0.7562
  296MOL0     H40809  -0.806   3.286   1.699 -0.8768 -0.1021  1.8404
  296MOL0     H40810  -1.284   2.766   1.320 -0.1399 -3.6079 -1.8147
  296MOL0     H40811  -1.473   2.655   1.389  0.4092  0.2360 -1.6699
  296MOL0     H40812  -1.491   2.529   1.824  0.0479 -1.6263 -0.7763
  296MOL0     H40813  -1.577   2.668   1.748 -0.6291  0.0934 -2.6960
  296MOL0     H40814  -1.679   2.383   1.778  1.1636  0.8908  0.2338
  296MOL0     H40815  -1.741   2.534   1.855  1.4348  1.1221 -0.1579
  296MOL0     H40816  -1.763   2.425   1.573  0.5160 -2.9838  2.3859
  296MOL0     H40817  -1.766   2.601   1.576 -1.4164 -0.9887 -1.8375
  296MOL0     H40818  -1.942   2.606   1.750  1.8043  0.3201 -0.5919
  296MOL0     H40819  -1.969   2.428   1.717 -0.0599  0.4573  0.1957
  296MOL0     H40820  -2.128   2.559   1.589 -1.0082 -1.2278 -0.4068
  296MOL0     H40821  -2.000   2.661   1.524 -2.3862 -0.0899  1.6764
  296MOL0     H40822  -2.062   2.370   1.464 -3.2401  0.3319 -1.9060
  296MOL0     H40823  -1.911   2.440   1.404  0.7053  0.0652 -0.3212
  296MOL0     H40824  -2.096   2.444   1.235 -1.3019  0.0477  1.2010
  296MOL0     H40825  -2.045   2.607   1.267  1.3489 -0.2709  0.2480
  296MOL0     H40826  -2.241   2.640   1.422  1.7081 -1.3305  1.3508
  296MOL0     H40827  -2.293   2.477   1.361 -0.2295 -0.0264 -1.5204
  296MOL0     H40828  -1.297   2.619   1.778  0.9533  1.1537  0.2094
  296MOL0     H40829  -1.105   2.738   1.711 -3.3668 -1.1516  1.3055
  296MOL0     H40830  -0.947   2.942   1.271 -1.0451  0.0473  1.6190
  296MOL0     H40831  -0.754   3.058   1.154  2.3581  1.0611  0.2240
  296MOL0     H40832   0.617   3.189   0.391 -1.2522  1.2084 -0.2400
  296MOL0     H40833   0.819   3.045   0.329 -1.1537 -0.5696 -0.5247
  296MOL0     H40834   1.241   3.070   0.127 -0.0595 -0.7294  4.3647
  296MOL0     H40835   1.437   2.955   0.081  0.4315 -0.8704 -0.6636
  296MOL0     H40836   1.567   2.788  -0.102 -0.4694  2.8013  0.9636
  296MOL0     H40837   1.607   2.828   0.062 -6.5828  1.8036  1.5019
  296MOL0     H40838   1.784   2.711  -0.004  0.5759 -1.6304 -3.2271
  296MOL0     H40839   1.675   2.575  -0.083 -2.9943 -0.0531  0.1946
  296MOL0     H40840   1.691   2.649   0.213  2.1434  0.9177 -0.6157
  296MOL0     H40841   1.614   2.505   0.146 -0.5861 -0.3114 -1.9730
  296MOL0     H40842   1.849   2.462   0.267  1.0417  0.0451  1.2495
  296MOL0     H40843   1.906   2.567   0.133 -0.7900 -0.3574 -0.7950
  296MOL0     H40844   1.874   2.198  -0.060 -0.0269  0.5990 -0.4068
  296MOL0     H40845   1.223   2.591   0.049  0.6146  0.5720  0.6728
  296MOL0     H40846   0.894   2.702   0.005  0.3743 -1.9672 -1.0677
  296MOL0     H40847   0.990   2.575   0.079 -0.9011 -0.7339 -0.2419
  296MOL0     H40848   0.918   2.700   0.179  1.0941  1.5029  0.8593
  297MOL0     O40849   6.241   2.338   0.619 -0.0920  0.2780 -0.0364
  297MOL0     C40850   6.171   2.259   0.555  0.1883  0.0806  0.5930
  297MOL0     O40851   6.089   2.300   0.459 -0.9606 -0.4428  0.4497
  297MOL0     C40852   6.065   2.437   0.423 -0.2273  0.2442  0.1793
  297MOL0     C40853   6.126   2.511   0.323 -0.4080  0.2899  0.8653
  297MOL0     C40854   6.099   2.643   0.294 -0.9501 -0.6386  0.7822
  297MOL0     C40855   6.003   2.706   0.363  0.6248 -0.2203  0.5023
  297MOL0     O40856   5.973   2.830   0.316  0.4079 -0.2711  0.5639
  297MOL0     C40857   5.863   2.892   0.385  0.0474 -0.4583 -0.7133
  297MOL0     C40858   5.843   3.031   0.319 -0.1362  0.0669  0.3881
  297MOL0     C40859   5.742   3.108   0.397 -0.5048 -0.7543 -0.7510
  297MOL0     C40860   5.594   3.087   0.371 -0.2337  0.4359 -0.3498
  297MOL0     C40861   5.552   3.104   0.221 -0.2499 -0.0272 -1.0833
  297MOL0     C40862   5.589   3.230   0.156 -0.2264 -0.9449  0.5511
  297MOL0     C40863   5.556   3.227   0.008  0.3719 -0.5548 -0.3831
  297MOL0     C40864   5.399   3.222  -0.022  0.2072 -0.9184 -0.3820
  297MOL0     N40865   5.346   3.351   0.039 -0.4595  0.0779  0.5924
  297MOL0     C40866   5.278   3.355   0.158 -0.3742  0.2450  0.8953
  297MOL0     C40867   5.233   3.490   0.170 -0.4251  0.5613 -0.1099
  297MOL0     C40868   5.142   3.544   0.273 -0.3551 -0.0326 -0.1994
  297MOL0     C40869   5.003   3.560   0.210 -0.5163  0.0292 -0.2524
  297MOL0     C40870   4.947   3.424   0.167  0.6450 -0.3473  0.3660
  297MOL0     C40871   4.794   3.415   0.187 -0.5958  0.2505 -0.0660
  297MOL0     O40872   4.768   3.414   0.331  0.3469 -0.1113 -0.4034
  297MOL0     C40873   4.756   3.295   0.406 -0.2866  0.4636 -0.2293
  297MOL0     C40874   4.756   3.173   0.345  0.3566  0.1588 -0.2423
  297MOL0     C40875   4.758   3.054   0.412  1.2702  0.6146 -0.3867
  297MOL0     C40876   4.783   2.919   0.337 -0.9010 -0.4964 -1.0018
  297MOL0     C40877   4.722   3.057   0.551 -1.1169 -0.8833 -0.4004
  297MOL0     C40878   4.696   2.933   0.629 -0.5722 -0.4272  0.5892
  297MOL0     O40879   4.639   2.832   0.558 -0.2185 -0.1473 -0.4261
  297MOL0     C40880   4.610   2.710   0.618 -0.1768  0.3774 -1.1788
  297MOL0     C40881   4.718   2.631   0.647  0.6239 -0.0316  0.3891
  297MOL0     C40882   4.704   2.505   0.699 -0.4547  0.5232  0.6340
  297MOL0     C40883   4.572   2.440   0.715 -0.2186 -0.1605  0.5594
  297MOL0     O40884   4.570   2.309   0.759  0.9809 -0.5066 -0.2815
  297MOL0     C40885   4.488   2.273   0.866  0.2236  0.3201  0.7010
  297MOL0     C40886   4.477   2.121   0.876 -0.2574  0.3729  0.0264
  297MOL0     C40887   4.383   2.077   0.991  0.4705 -0.6938 -0.0499
  297MOL0     C40888   4.392   1.926   1.000 -0.1735 -0.9457 -0.1916
  297MOL0     C40889   4.345   1.887   1.144 -0.1701  0.2925 -0.2421
  297MOL0     C40890   4.195   1.937   1.178 -0.2959 -0.6461  0.3307
  297MOL0     C40891   4.143   1.867   1.307 -0.1124 -0.3495  0.1829
  297MOL0     C40892   3.986   1.871   1.284  0.5361  0.0896 -0.2709
  297MOL0    Cl40893   3.912   2.038   1.302  0.0273 -0.2032 -0.2637
  297MOL0     C40894   4.460   2.515   0.669 -0.9460  0.2567  0.4421
  297MOL0     C40895   4.479   2.647   0.626  0.2733 -0.1632  0.8626
  297MOL0     O40896   4.737   2.934   0.739 -0.0147 -0.4071  0.6606
  297MOL0     C40897   4.708   3.183   0.621  0.6221 -0.5807  0.2598
  297MOL0     C40898   4.729   3.302   0.543 -0.1731  0.8646 -0.6560
  297MOL0     N40899   5.268   3.554   0.053  0.0607 -0.4146 -0.3133
  297MOL0     N40900   5.348   3.474  -0.013 -1.2087 -0.1045  1.0852
  297MOL0     C40901   5.936   2.641   0.475 -0.2974 -0.1472  0.3870
  297MOL0     C40902   5.971   2.508   0.502 -0.0352  0.5119  0.0681
  297MOL0     C40903   6.163   2.115   0.588 -1.2664  0.6137 -0.0630
  297MOL0     C40904   6.100   2.028   0.503 -0.2850 -0.0823 -0.1937
  297MOL0     C40905   6.096   1.890   0.526  0.4678 -0.4273  0.5976
  297MOL0     C40906   6.143   1.835   0.646 -0.0458  0.4863  0.5138
  297MOL0     O40907   6.138   1.704   0.681  0.1573 -0.5795  0.4840
  297MOL0     C40908   6.112   1.601   0.574 -0.7542 -0.0222  0.0934
  297MOL0     C40909   6.151   1.469   0.625  0.4248  0.2040  0.1257
  297MOL0     C40910   6.164   1.356   0.524  0.0165  0.5632  0.0044
  297MOL0     C40911   6.084   1.232   0.593  0.6421 -1.2012  0.0604
  297MOL0     C40912   6.063   1.113   0.510  0.5231 -0.4496  0.8035
  297MOL0     C40913   6.048   1.008   0.447 -0.6263 -0.6652 -0.2584
  297MOL0     C40914   6.216   1.923   0.736 -0.9334 -0.3215  1.5344
  297MOL0     C40915   6.226   2.062   0.708 -0.5426  0.1876  0.0590
  297MOL0     C40916   6.282   2.140   0.825 -0.0324 -0.7325  0.1440
  297MOL0     H40917   6.190   2.453   0.258 -1.1256 -0.6125  0.9474
  297MOL0     H40918   6.142   2.709   0.219  0.3004 -1.2896  0.9088
  297MOL0     H40919   5.883   2.903   0.492 -1.3922  0.8102 -0.5292
  297MOL0     H40920   5.782   2.819   0.372 -1.7774  1.1195  1.0188
  297MOL0     H40921   5.938   3.083   0.325  0.8287 -1.4646 -0.8377
  297MOL0     H40922   5.825   3.016   0.212  1.2999  0.2252  0.1090
  297MOL0     H40923   5.770   3.090   0.501  1.6049 -4.8061 -1.7958
  297MOL0     H40924   5.772   3.213   0.389 -2.2122 -0.1931 -0.1982
  297MOL0     H40925   5.555   2.987   0.392  2.3320 -0.8151 -1.1435
  297MOL0     H40926   5.551   3.165   0.435 -1.5326 -0.3475 -0.2325
  297MOL0     H40927   5.443   3.091   0.222 -0.0273 -2.0744 -0.4043
  297MOL0     H40928   5.607   3.031   0.162  0.1746  1.0851 -2.1193
  297MOL0     H40929   5.538   3.314   0.205  0.3776  1.1474 -2.1902
  297MOL0     H40930   5.696   3.248   0.166 -0.1563  0.1726 -1.6157
  297MOL0     H40931   5.600   3.139  -0.041  1.3410 -1.1032  1.3841
  297MOL0     H40932   5.605   3.312  -0.040  2.0268 -0.0139  2.0498
  297MOL0     H40933   5.374   3.215  -0.128  0.8063 -2.6644 -0.4296
  297MOL0     H40934   5.348   3.139   0.029  0.0313 -0.4595  0.2133
  297MOL0     H40935   5.255   3.277   0.230  0.9831 -1.2371 -0.2269
  297MOL0     H40936   5.191   3.636   0.306  0.7635  0.0098 -1.8810
  297MOL0     H40937   5.135   3.484   0.365 -0.0496  0.9221  0.4611
  297MOL0     H40938   4.937   3.619   0.273 -0.2702  1.0197 -0.9010
  297MOL0     H40939   5.018   3.631   0.128  3.8176 -0.8691 -0.4734
  297MOL0     H40940   4.963   3.400   0.061  0.9359 -1.9165  0.7446
  297MOL0     H40941   4.995   3.339   0.217  0.5471 -4.1812 -5.1636
  297MOL0     H40942   4.721   3.483   0.143  1.1314  1.5019 -1.1250
  297MOL0     H40943   4.765   3.327   0.129 -2.8950 -0.2143  1.6358
  297MOL0     H40944   4.761   3.147   0.240  0.3922  2.4122 -0.8485
  297MOL0     H40945   4.831   2.852   0.408 -2.2590  0.5155  0.9514
  297MOL0     H40946   4.855   2.948   0.260  1.4843  0.9414  1.6092
  297MOL0     H40947   4.700   2.863   0.293  0.3038 -2.5405 -0.7973
  297MOL0     H40948   4.819   2.667   0.635 -0.1177  1.5285 -2.1734
  297MOL0     H40949   4.788   2.449   0.738  1.3153  0.6809 -2.5937
  297MOL0     H40950   4.534   2.308   0.959 -1.8260 -3.0381  3.2290
  297MOL0     H40951   4.389   2.305   0.834  1.8854  2.0287 -3.5724
  297MOL0     H40952   4.445   2.075   0.781  2.7760 -0.2038 -0.8366
  297MOL0     H40953   4.579   2.087   0.897 -1.1704 -2.1963  0.7171
  297MOL0     H40954   4.283   2.115   0.971  1.2756  1.3405 -0.4486
  297MOL0     H40955   4.415   2.127   1.083  1.2089  1.6925 -1.5135
  297MOL0     H40956   4.498   1.900   0.992  1.0413  2.3126  2.6793
  297MOL0     H40957   4.337   1.885   0.914  0.5873 -0.2891 -1.0092
  297MOL0     H40958   4.344   1.777   1.148 -0.4620  0.3133  0.2112
  297MOL0     H40959   4.410   1.928   1.222 -0.5377 -2.5863  1.7184
  297MOL0     H40960   4.128   1.897   1.103 -0.9874 -1.2140  1.2287
  297MOL0     H40961   4.174   2.044   1.192  0.6656 -0.6248  1.8798
  297MOL0     H40962   4.169   1.919   1.400 -1.9904 -1.9966  1.7126
  297MOL0     H40963   4.183   1.766   1.310 -2.4504 -1.3050  1.7199
  297MOL0     H40964   3.939   1.806   1.358 -2.9925  1.0277 -1.4806
  297MOL0     H40965   3.952   1.834   1.187  1.7812 -0.9975 -0.3133
  297MOL0     H40966   4.365   2.461   0.670 -0.9729  0.1009 -2.5238
  297MOL0     H40967   4.393   2.700   0.588  0.7874 -1.0132 -1.6433
  297MOL0     H40968   4.668   3.203   0.720 -0.2953  4.2329 -0.8193
  297MOL0     H40969   4.705   3.397   0.591 -2.7288 -1.1524  2.4013
  297MOL0     H40970   5.851   2.687   0.524  0.6529  0.9785  1.0349
  297MOL0     H40971   5.915   2.459   0.581 -2.6432  2.8634 -0.1546
  297MOL0     H40972   6.056   2.057   0.409 -1.1682  0.5827  0.4032
  297MOL0     H40973   6.043   1.821   0.461 -0.4778 -0.7511  1.6961
  297MOL0     H40974   6.005   1.604   0.553 -1.2785  1.6456  2.5504
  297MOL0     H40975   6.169   1.624   0.483  0.5355 -2.0630  0.3047
  297MOL0     H40976   6.090   1.457   0.715 -0.1627  2.4872  0.0886
  297MOL0     H40977   6.255   1.479   0.656  0.7532  1.9780 -1.4075
  297MOL0     H40978   6.116   1.399   0.436 -3.0659  1.0112  1.7584
  297MOL0     H40979   6.270   1.337   0.506 -0.8376 -2.4997 -2.6438
  297MOL0     H40980   5.989   1.267   0.635  2.1325 -0.8386  3.4350
  297MOL0     H40981   6.152   1.212   0.677  0.8265  0.5678  0.3704
  297MOL0     H40982   6.026   0.923   0.386 -2.0153 -1.4208  1.2357
  297MOL0     H40983   6.263   1.890   0.828  0.9670  1.5059  1.3088
  297MOL0     H40984   6.381   2.182   0.807  0.3427 -1.1952  1.0338
  297MOL0     H40985   6.212   2.219   0.853 -1.1168 -1.6379  0.0610
  297MOL0     H40986   6.297   2.085   0.918 -0.5581  2.4834  2.2944
  298MOL0     O40987   9.735   0.280   8.392 -0.4390 -0.2219 -0.5999
  298MOL0     C40988   9.782   0.248   8.502 -1.0558 -0.3712 -0.6482
  298MOL0     O40989   9.894   0.170   8.506 -0.1074  0.6908  0.8382
  298MOL0     C40990  10.014   0.232   8.460  0.5747  0.2926  0.4857
  298MOL0     C40991  10.027   0.369   8.441  0.6933 -0.2512  0.7954
  298MOL0     C40992  10.157   0.412   8.412 -0.1351 -0.2608  0.0343
  298MOL0     C40993  10.263   0.317   8.386 -0.2492  0.0283 -0.0993
  298MOL0     O40994  10.390   0.356   8.341 -0.3250  0.4029 -0.4813
  298MOL0     C40995  10.436   0.490   8.304  0.5896  0.1280  0.7470
  298MOL0     C40996  10.437   0.576   8.431  0.1145  0.5125  0.0127
  298MOL0     C40997  10.481   0.721   8.403  0.1692 -1.0577  0.2351
  298MOL0     C40998  10.434   0.806   8.524 -0.5866  0.1458 -0.5474
  298MOL0     C40999  10.533   0.917   8.562 -0.5162  0.7606 -0.2915
  298MOL0     C41000  10.577   0.889   8.710 -0.0179  0.5778 -0.7278
  298MOL0     C41001  10.663   0.991   8.758 -1.2614 -0.8855  0.4155
  298MOL0     C41002  10.713   0.962   8.903  0.5548 -0.9073 -0.1615
  298MOL0     N41003  10.614   0.990   9.006 -0.3020  0.1503 -0.3728
  298MOL0     C41004  10.553   1.112   9.036  0.7412 -0.1323  1.0391
  298MOL0     C41005  10.435   1.084   9.095 -0.7441  0.0886 -0.0034
  298MOL0     C41006  10.323   1.178   9.127 -0.1868  0.1178  0.0929
  298MOL0     C41007  10.220   1.187   9.016  0.0253 -0.4204 -0.6303
  298MOL0     C41008  10.123   1.064   9.044 -0.3639  0.8695 -0.1282
  298MOL0     C41009   9.984   1.049   8.996 -0.0116 -0.3921  1.1546
  298MOL0     O41010   9.906   1.172   9.004 -0.7636 -0.9398 -0.4978
  298MOL0     C41011   9.850   1.225   9.118 -0.1838 -0.5556  1.2090
  298MOL0     C41012   9.849   1.162   9.239  0.4780 -0.3314  0.8433
  298MOL0     C41013   9.807   1.233   9.354 -0.9305 -0.7299 -0.6525
  298MOL0     C41014   9.835   1.145   9.483 -0.5678 -0.2710  0.1910
  298MOL0     C41015   9.734   1.354   9.342  0.7214  0.6297 -0.0314
  298MOL0     C41016   9.650   1.426   9.447 -0.2276  0.9960 -0.1925
  298MOL0     O41017   9.595   1.553   9.403  0.3625 -0.5029 -0.8718
  298MOL0     C41018   9.532   1.617   9.510  0.8204  0.3750 -0.1187
  298MOL0     C41019   9.596   1.645   9.634  0.3070  0.0569 -0.2338
  298MOL0     C41020   9.531   1.726   9.727  0.2301  0.2968  0.6899
  298MOL0     C41021   9.399   1.768   9.701  0.0832 -0.0211  0.0471
  298MOL0     O41022   9.348   1.856   9.793  0.3303 -0.2220  0.1511
  298MOL0     C41023   9.324   1.996   9.761 -0.3266  0.2178 -0.8893
  298MOL0     C41024   9.179   2.027   9.725 -0.3626 -0.1743 -0.2971
  298MOL0     C41025   9.091   1.999   9.852 -0.3083 -0.7016  1.1033
  298MOL0     C41026   8.971   2.085   9.831 -0.1222  1.1610  0.6155
  298MOL0     C41027   8.886   2.085   9.951 -0.4694  0.5254  0.8234
  298MOL0     C41028   8.755   2.161   9.937 -0.6693 -0.5466 -0.8445
  298MOL0     C41029   8.667   2.121  10.058  0.3177 -0.2681 -0.5217
  298MOL0     C41030   8.622   2.243  10.128  0.6885  0.4840 -0.8941
  298MOL0    Cl41031   8.722   2.284  10.270  0.3786 -0.5178 -0.3942
  298MOL0     C41032   9.350   1.759   9.569 -0.0384  0.1292 -0.4854
  298MOL0     C41033   9.416   1.680   9.482  0.6941 -0.5785  0.3225
  298MOL0     O41034   9.638   1.377   9.560 -0.4045  0.3112 -0.7279
  298MOL0     C41035   9.730   1.410   9.217 -0.6073 -0.7815  0.4542
  298MOL0     C41036   9.783   1.344   9.104  0.8328 -0.2297 -0.1640
  298MOL0     N41037  10.430   0.940   9.116 -0.3893 -0.2609  0.5767
  298MOL0     N41038  10.540   0.890   9.072 -0.9988  0.4709 -0.1660
  298MOL0     C41039  10.238   0.181   8.398  0.2287  0.3155  0.2328
  298MOL0     C41040  10.114   0.132   8.438  0.5226 -1.3854  0.3816
  298MOL0     C41041   9.734   0.309   8.630 -0.6432 -0.9160  0.1625
  298MOL0     C41042   9.788   0.265   8.751 -0.1778  0.2675  0.4319
  298MOL0     C41043   9.742   0.304   8.880  0.4528 -0.2461 -0.0881
  298MOL0     C41044   9.646   0.403   8.890 -1.1535  0.4028 -0.0255
  298MOL0     O41045   9.597   0.454   9.008 -0.2026 -0.1452  0.1445
  298MOL0     C41046   9.650   0.394   9.125  0.4748 -0.8550 -0.3922
  298MOL0     C41047   9.617   0.458   9.266  0.5093 -0.2002 -0.7988
  298MOL0     C41048   9.470   0.511   9.281  0.5262 -0.2858 -0.9004
  298MOL0     C41049   9.479   0.614   9.394  0.0783  0.7460 -0.2854
  298MOL0     C41050   9.346   0.664   9.419  0.0079  0.4516 -0.1855
  298MOL0     C41051   9.244   0.706   9.461 -0.6893  0.2772  0.8893
  298MOL0     C41052   9.602   0.465   8.773 -0.3571 -0.0470  0.0163
  298MOL0     C41053   9.667   0.438   8.650 -0.0793  0.3376 -0.3370
  298MOL0     C41054   9.622   0.505   8.527 -0.2852 -0.4811  0.2743
  298MOL0     H41055   9.951   0.443   8.464  1.8554  0.3736  2.8850
  298MOL0     H41056  10.169   0.520   8.411  0.5713 -0.3359 -0.4365
  298MOL0     H41057  10.369   0.543   8.236 -0.5963 -1.4981  0.6055
  298MOL0     H41058  10.532   0.480   8.252 -0.3651  3.9419 -2.2855
  298MOL0     H41059  10.339   0.580   8.479 -0.4418  2.8302 -1.2311
  298MOL0     H41060  10.492   0.521   8.509 -1.0218 -2.5958 -1.2123
  298MOL0     H41061  10.587   0.733   8.382 -0.3015  0.6263 -1.4096
  298MOL0     H41062  10.431   0.769   8.318 -0.2110 -0.9979  0.4871
  298MOL0     H41063  10.341   0.860   8.505  0.5356  1.4252 -2.8931
  298MOL0     H41064  10.423   0.736   8.607  2.3084  1.9806  1.5688
  298MOL0     H41065  10.489   1.018   8.558 -1.0270  0.5207 -1.1853
  298MOL0     H41066  10.616   0.929   8.492 -0.1603  2.6898  0.3890
  298MOL0     H41067  10.492   0.872   8.777 -1.6764  0.8288 -2.6703
  298MOL0     H41068  10.626   0.791   8.708 -0.7749  0.1243  0.9730
  298MOL0     H41069  10.615   1.088   8.745  2.5255  0.8837 -2.4399
  298MOL0     H41070  10.757   0.996   8.702 -0.5689  1.0956  1.6413
  298MOL0     H41071  10.747   0.858   8.910 -2.4617 -1.9446  0.6944
  298MOL0     H41072  10.796   1.027   8.934 -0.5074  0.3226  0.1822
  298MOL0     H41073  10.590   1.209   9.001  0.4225  0.0864  1.3098
  298MOL0     H41074  10.361   1.277   9.149  0.6880 -0.3894  0.9040
  298MOL0     H41075  10.273   1.165   9.223 -0.7256  2.8161  0.2543
  298MOL0     H41076  10.171   1.281   9.043  2.0112  0.5621 -0.2499
  298MOL0     H41077  10.270   1.187   8.919 -0.2269 -3.0032 -0.8376
  298MOL0     H41078  10.176   0.974   9.012 -3.4389 -0.2547 -2.6367
  298MOL0     H41079  10.111   1.055   9.153 -1.2773 -0.3207 -0.2989
  298MOL0     H41080  10.004   1.030   8.890 -0.8654  1.7355  0.5757
  298MOL0     H41081   9.934   0.956   9.026 -0.0651 -1.4119 -1.7459
  298MOL0     H41082   9.876   1.057   9.238 -1.2819 -0.8249  0.3064
  298MOL0     H41083   9.931   1.174   9.525 -1.6854  4.0261  0.2716
  298MOL0     H41084   9.836   1.039   9.458 -2.7576  0.4013 -3.7296
  298MOL0     H41085   9.753   1.153   9.555 -1.2228 -1.4458 -0.3935
  298MOL0     H41086   9.690   1.594   9.652 -1.4232 -3.7686 -1.0712
  298MOL0     H41087   9.577   1.756   9.821 -0.3267  2.2415  0.3829
  298MOL0     H41088   9.343   2.064   9.845  0.3379  0.9880 -1.6476
  298MOL0     H41089   9.386   2.031   9.678 -0.8137  1.3774 -0.7872
  298MOL0     H41090   9.169   2.136   9.720  1.6098  0.4547  4.4101
  298MOL0     H41091   9.149   1.969   9.638  0.4311 -0.7151 -0.2156
  298MOL0     H41092   9.129   2.029   9.950  1.3380 -0.0427  0.3065
  298MOL0     H41093   9.070   1.892   9.845  1.6734 -1.1584  1.4463
  298MOL0     H41094   8.911   2.064   9.742 -0.1424  2.9721  0.1707
  298MOL0     H41095   9.008   2.187   9.819  2.8184  0.4207  2.4869
  298MOL0     H41096   8.870   1.978   9.965  2.4380 -0.1075 -0.0483
  298MOL0     H41097   8.950   2.127  10.030 -0.0016  2.8610 -0.7052
  298MOL0     H41098   8.699   2.138   9.846 -0.9520  3.7503 -1.9636
  298MOL0     H41099   8.785   2.266   9.933 -1.4013 -0.3027 -0.1447
  298MOL0     H41100   8.729   2.058  10.122  0.0847 -1.5547 -1.5351
  298MOL0     H41101   8.577   2.066  10.030 -2.5935  2.4400  2.6409
  298MOL0     H41102   8.517   2.234  10.156  0.5207 -1.5832 -2.0094
  298MOL0     H41103   8.618   2.314  10.044  1.9988 -2.1843 -3.4017
  298MOL0     H41104   9.247   1.787   9.548 -0.0455 -1.5222 -3.0335
  298MOL0     H41105   9.386   1.667   9.379 -1.3052  0.4588  0.7302
  298MOL0     H41106   9.675   1.500   9.193  0.5689  0.4895  2.2245
  298MOL0     H41107   9.766   1.384   9.004 -2.1979 -1.2926 -0.1833
  298MOL0     H41108  10.320   0.110   8.388 -0.8368 -0.9919  0.5016
  298MOL0     H41109  10.101   0.027   8.463  0.1797 -2.0793 -2.3310
  298MOL0     H41110   9.846   0.174   8.763 -1.5669 -0.4731  2.0704
  298MOL0     H41111   9.799   0.260   8.961  0.4263 -0.5103 -0.2120
  298MOL0     H41112   9.622   0.288   9.126 -2.6878 -0.1987 -2.7812
  298MOL0     H41113   9.758   0.409   9.125  0.3614  0.1620  0.9218
  298MOL0     H41114   9.683   0.543   9.285 -0.0544  0.4247 -1.5598
  298MOL0     H41115   9.627   0.386   9.348 -1.6483  1.5297  1.1272
  298MOL0     H41116   9.440   0.559   9.187  1.8247  0.3738 -1.0093
  298MOL0     H41117   9.396   0.435   9.305  0.0764  1.0340  2.5776
  298MOL0     H41118   9.538   0.702   9.366 -0.9272  2.5668  2.8330
  298MOL0     H41119   9.525   0.573   9.485 -0.4534  1.7512  0.4587
  298MOL0     H41120   9.145   0.725   9.500 -1.3136  2.6899 -1.5635
  298MOL0     H41121   9.534   0.550   8.777 -1.1543 -0.7193  1.4377
  298MOL0     H41122   9.553   0.448   8.464 -4.5509  2.6653  1.5831
  298MOL0     H41123   9.562   0.594   8.552 -0.3615  0.3406 -2.4630
  298MOL0     H41124   9.709   0.540   8.471 -1.1852  1.3537 -0.0833
  299MOL0     O41125  11.119  10.714   8.151 -0.1582  0.0753  0.1583
  299MOL0     C41126  11.094  10.730   8.029 -0.1857 -0.6408  1.6213
  299MOL0     O41127  10.987  10.791   7.964  0.2176  0.2199 -0.0037
  299MOL0     C41128  10.896  10.869   8.029  0.2575 -0.3470 -0.9087
  299MOL0     C41129  10.776  10.875   7.960  0.3042 -0.2725  0.6353
  299MOL0     C41130  10.671  10.938   8.017 -0.3098 -1.0553  0.1203
  299MOL0     C41131  10.683  11.004   8.143 -0.4825 -0.7188  0.2743
  299MOL0     O41132  10.589  11.091   8.189 -0.2100 -0.1036  0.3400
  299MOL0     C41133  10.468  11.103   8.119 -0.9956 -0.8167 -0.2336
  299MOL0     C41134  10.389  11.197   8.194 -0.2979 -0.3440  0.3275
  299MOL0     C41135  10.268  11.234   8.108  0.0184 -0.9482 -0.7637
  299MOL0     C41136  10.172  11.335   8.181 -0.2422 -0.4403 -0.1091
  299MOL0     C41137  10.063  11.387   8.090  0.8171 -0.4531  0.4351
  299MOL0     C41138   9.976  11.496   8.161 -0.1966  0.5126 -0.1806
  299MOL0     C41139   9.865  11.533   8.067 -0.9237 -0.5342 -0.3021
  299MOL0     C41140   9.815  11.672   8.099  0.3540  0.6746  0.1783
  299MOL0     N41141   9.905  11.763   8.032 -0.2145  0.9330  0.5814
  299MOL0     C41142  10.014  11.822   8.092  0.1394 -0.4475 -0.5849
  299MOL0     C41143  10.063  11.907   8.001  0.6331 -0.6153 -0.2633
  299MOL0     C41144  10.171  12.003   8.030 -0.3192 -0.6563 -0.0606
  299MOL0     C41145  10.206  12.088   7.901  0.7642 -1.1852  0.0088
  299MOL0     C41146  10.321  12.181   7.928  0.1405 -0.6529 -0.3359
  299MOL0     C41147  10.284  12.311   7.999 -0.2386 -0.9030 -0.5998
  299MOL0     O41148  10.406  12.375   8.053 -1.1780  1.0726 -0.3096
  299MOL0     C41149  10.394  12.487   8.133  0.9370 -0.3821 -0.3000
  299MOL0     C41150  10.510  12.549   8.168  0.4069 -0.2285  0.4775
  299MOL0     C41151  10.516  12.652   8.264  0.4911 -0.5192 -0.9398
  299MOL0     C41152  10.645  12.716   8.303 -0.9427 -0.1208  0.3508
  299MOL0     C41153  10.390  12.702   8.321 -1.0372  0.5846 -0.0453
  299MOL0     C41154  10.379  12.814   8.417 -0.9368 -0.1718 -0.2322
  299MOL0     O41155  10.270  12.804   8.500 -0.0568  0.6378  0.2668
  299MOL0     C41156  10.259  12.901   8.601  0.3146  0.1889  0.6808
  299MOL0     C41157  10.362  12.923   8.695  0.0199 -0.0110 -0.3561
  299MOL0     C41158  10.352  13.029   8.780 -0.3025 -0.6563 -0.6332
  299MOL0     C41159  10.250  13.122   8.791  0.3131  0.6427  0.5918
  299MOL0     O41160  10.270  13.249   8.841 -0.3585  1.3750 -0.4198
  299MOL0     C41161  10.159  13.338   8.865  0.1701  0.6142  0.0582
  299MOL0     C41162  10.195  13.462   8.942  0.0460  0.7591 -0.7730
  299MOL0     C41163  10.064  13.524   9.005  0.3467 -0.0434 -0.1320
  299MOL0     C41164  10.090  13.647   9.085 -0.6431  0.0732  0.4898
  299MOL0     C41165   9.954  13.710   9.130 -0.4606 -0.0633 -0.2062
  299MOL0     C41166   9.879  13.781   9.010 -0.1952 -0.3328 -1.0120
  299MOL0     C41167   9.762  13.873   9.066  0.4998  0.6338  0.9607
  299MOL0     C41168   9.658  13.920   8.967 -0.7967  0.9348  0.0848
  299MOL0    Cl41169   9.747  13.997   8.830  0.1528 -0.1792  0.5440
  299MOL0     C41170  10.133  13.088   8.716 -1.3373 -0.6792  0.0437
  299MOL0     C41171  10.142  12.974   8.627  0.3446  0.2034  0.1956
  299MOL0     O41172  10.466  12.902   8.419  0.1571  0.2899  0.7689
  299MOL0     C41173  10.274  12.638   8.280  1.0864  0.7358  0.5028
  299MOL0     C41174  10.270  12.536   8.189  0.0977 -0.0390  0.3473
  299MOL0     N41175  10.004  11.892   7.874 -0.4366  0.0903  0.4221
  299MOL0     N41176   9.899  11.812   7.898  0.1848  0.4258 -0.2720
  299MOL0     C41177  10.802  10.998   8.214  0.2625  1.0640 -0.2399
  299MOL0     C41178  10.912  10.933   8.159 -0.0544  0.9734  0.5757
  299MOL0     C41179  11.196  10.686   7.921  0.0758 -0.2913 -1.0936
  299MOL0     C41180  11.227  10.775   7.808  0.4904 -0.4755 -0.2312
  299MOL0     C41181  11.330  10.744   7.727 -0.7498  1.2414  1.0329
  299MOL0     C41182  11.403  10.624   7.732  1.0911 -0.1732 -0.4101
  299MOL0     O41183  11.510  10.592   7.645  0.7208 -0.8147  0.4176
  299MOL0     C41184  11.516  10.644   7.516 -0.3003  0.1734  0.7745
  299MOL0     C41185  11.608  10.571   7.411  0.2686  0.7836  0.4284
  299MOL0     C41186  11.753  10.540   7.469 -0.0270  0.1865  0.0599
  299MOL0     C41187  11.783  10.391   7.435  0.0827 -0.5527  0.6302
  299MOL0     C41188  11.787  10.368   7.295 -0.8555  0.2110 -1.0115
  299MOL0     C41189  11.751  10.348   7.179  0.1462 -0.3572 -0.0643
  299MOL0     C41190  11.369  10.540   7.840  1.0513  0.6122 -1.5231
  299MOL0     C41191  11.270  10.567   7.937  0.1716  0.0773  0.2818
  299MOL0     C41192  11.247  10.465   8.043  0.3641 -0.1981 -0.3013
  299MOL0     H41193  10.765  10.822   7.866 -1.7034 -1.6657  1.5801
  299MOL0     H41194  10.575  10.936   7.965 -1.4979  2.5351  1.8283
  299MOL0     H41195  10.416  11.007   8.125 -1.1745 -0.6476  1.0964
  299MOL0     H41196  10.476  11.135   8.014 -0.6462  1.9106  0.5582
  299MOL0     H41197  10.368  11.155   8.292 -1.6895 -0.0220  0.1896
  299MOL0     H41198  10.454  11.283   8.218 -1.7255  0.3503  1.9106
  299MOL0     H41199  10.310  11.276   8.017  1.4179 -4.4813 -1.9413
  299MOL0     H41200  10.209  11.145   8.085  1.2325 -2.2316  0.8152
  299MOL0     H41201  10.128  11.283   8.267 -5.7732 -0.9193 -2.8165
  299MOL0     H41202  10.238  11.418   8.208  0.8481 -1.3263  0.0148
  299MOL0     H41203   9.995  11.302   8.073 -0.0174 -0.4096  3.0807
  299MOL0     H41204  10.108  11.423   7.997 -1.2537 -2.3492 -1.4361
  299MOL0     H41205   9.934  11.475   8.259  0.0877  3.7749  0.7610
  299MOL0     H41206  10.055  11.572   8.165 -0.2434  0.5219  0.5904
  299MOL0     H41207   9.781  11.466   8.084 -0.8791 -0.4430  0.2744
  299MOL0     H41208   9.896  11.512   7.964 -0.6220  0.3631 -0.4044
  299MOL0     H41209   9.716  11.681   8.052 -0.0430 -1.3450  0.5358
  299MOL0     H41210   9.808  11.690   8.207  1.8143 -1.6392  0.7155
  299MOL0     H41211  10.040  11.814   8.197  0.6943  2.4306 -0.4118
  299MOL0     H41212  10.253  11.939   8.064 -1.2048 -1.3136  0.9007
  299MOL0     H41213  10.137  12.069   8.111 -0.7014  0.0297 -0.7663
  299MOL0     H41214  10.226  12.032   7.809  0.0152 -0.7150 -0.4502
  299MOL0     H41215  10.122  12.151   7.872  0.6689 -1.4681 -0.3362
  299MOL0     H41216  10.389  12.121   7.989 -4.3175 -2.9668  2.9202
  299MOL0     H41217  10.364  12.219   7.835 -2.5250 -0.6764 -1.6656
  299MOL0     H41218  10.242  12.376   7.922 -1.4319 -0.5136  0.3406
  299MOL0     H41219  10.210  12.293   8.078 -1.5805  0.3571 -1.5230
  299MOL0     H41220  10.603  12.522   8.119  1.3539 -1.0562  2.6095
  299MOL0     H41221  10.671  12.696   8.408  0.0843  0.7077  0.2688
  299MOL0     H41222  10.657  12.824   8.299  0.1075 -0.1008  2.5801
  299MOL0     H41223  10.726  12.662   8.253 -1.6782 -1.5952  0.6870
  299MOL0     H41224  10.454  12.866   8.687 -0.2794 -0.3918 -1.2388
  299MOL0     H41225  10.444  13.056   8.832 -0.7759  0.0471 -0.1288
  299MOL0     H41226  10.137  13.378   8.765  1.4845 -2.1900 -1.4741
  299MOL0     H41227  10.068  13.286   8.897 -0.6870  1.1464 -1.4171
  299MOL0     H41228  10.261  13.428   9.022 -0.2596 -0.2253 -0.9257
  299MOL0     H41229  10.261  13.517   8.875  3.0460 -1.7994 -0.1579
  299MOL0     H41230  10.002  13.452   9.059 -0.7227  0.1285 -1.0815
  299MOL0     H41231   9.993  13.554   8.928  1.2818  1.3365 -0.4836
  299MOL0     H41232  10.143  13.719   9.022 -0.8154  0.4617  0.7889
  299MOL0     H41233  10.153  13.630   9.172  0.7650 -1.7355 -0.7957
  299MOL0     H41234   9.883  13.638   9.172  0.3494 -1.0325 -0.4537
  299MOL0     H41235   9.977  13.779   9.212  2.0328  0.1090 -0.9828
  299MOL0     H41236   9.846  13.693   8.955  0.1324 -1.7972  1.0127
  299MOL0     H41237   9.935  13.840   8.937 -0.3638  0.7119 -0.3166
  299MOL0     H41238   9.806  13.968   9.097  2.2408  0.4300 -0.7317
  299MOL0     H41239   9.709  13.813   9.141  1.4943 -1.6436 -0.0478
  299MOL0     H41240   9.582  13.992   8.999 -1.7197  0.5754 -1.1909
  299MOL0     H41241   9.597  13.837   8.928 -2.7402  1.4588  1.8325
  299MOL0     H41242  10.044  13.148   8.729  0.4635  1.8442  1.5989
  299MOL0     H41243  10.060  12.955   8.559 -0.6217  2.3196  0.6892
  299MOL0     H41244  10.181  12.678   8.319 -0.8230 -3.0954  0.3408
  299MOL0     H41245  10.177  12.511   8.139  1.5059  0.9367 -3.0550
  299MOL0     H41246  10.811  11.039   8.314  0.8627  0.4233 -0.0165
  299MOL0     H41247  10.996  10.921   8.227  0.2767 -3.5826 -0.2998
  299MOL0     H41248  11.162  10.860   7.790 -0.0645  0.1308  3.6138
  299MOL0     H41249  11.352  10.820   7.652  1.2623  1.5537  1.8678
  299MOL0     H41250  11.414  10.641   7.477 -1.3534  1.5574  3.1753
  299MOL0     H41251  11.560  10.744   7.518 -0.5799  0.3784 -1.4867
  299MOL0     H41252  11.610  10.634   7.322 -1.5402  1.7911  1.0504
  299MOL0     H41253  11.547  10.482   7.391  0.5325  0.3160  1.6077
  299MOL0     H41254  11.830  10.602   7.423 -0.8972 -0.8220 -2.9793
  299MOL0     H41255  11.764  10.559   7.576  0.1947 -1.4603  0.3606
  299MOL0     H41256  11.706  10.332   7.486  0.7721  0.8340  3.4947
  299MOL0     H41257  11.881  10.376   7.480 -0.8125  2.8611  4.3621
  299MOL0     H41258  11.725  10.316   7.080 -0.2297  0.8586 -0.3647
  299MOL0     H41259  11.437  10.458   7.858 -1.4483 -1.4345 -0.9370
  299MOL0     H41260  11.146  10.424   8.032 -0.0096  0.9302 -1.3017
  299MOL0     H41261  11.322  10.386   8.039 -0.8695 -1.5723  1.7681
  299MOL0     H41262  11.259  10.502   8.145 -1.7164  2.6509 -0.9469
  300MOL0     O41263   5.464   0.489   2.707  0.0701 -0.0219  0.2114
  300MOL0     C41264   5.378   0.459   2.625  0.3668 -0.4752  0.1018
  300MOL0     O41265   5.268   0.376   2.649  0.5033 -0.8135  0.2168
  300MOL0     C41266   5.253   0.289   2.747  0.0059 -0.7284  0.1292
  300MOL0     C41267   5.319   0.285   2.872  0.5596 -0.6993  0.1087
  300MOL0     C41268   5.319   0.168   2.949 -0.0874 -0.1715 -1.2581
  300MOL0     C41269   5.260   0.055   2.906  0.3764 -0.1475  1.3156
  300MOL0     O41270   5.293  -0.063   2.963 -0.4124  0.3663 -0.2144
  300MOL0     C41271   5.215  -0.187   2.940  0.1702 -0.5551 -0.3213
  300MOL0     C41272   5.288  -0.264   2.831  0.7724 -1.2750 -0.8924
  300MOL0     C41273   5.427  -0.317   2.886 -0.0425 -0.7879 -0.0332
  300MOL0     C41274   5.506  -0.401   2.784 -0.4901  0.2368  0.4715
  300MOL0     C41275   5.610  -0.497   2.862 -0.0418  0.4789  0.0048
  300MOL0     C41276   5.688  -0.592   2.777 -0.5307  0.9121 -0.0148
  300MOL0     C41277   5.805  -0.529   2.702 -0.5650  0.1004  0.0467
  300MOL0     C41278   5.890  -0.635   2.632 -1.2435 -0.5435 -0.5267
  300MOL0     N41279   6.023  -0.585   2.591  0.2934 -0.0657  0.0975
  300MOL0     C41280   6.034  -0.513   2.482 -0.3465  0.3084 -0.0028
  300MOL0     C41281   6.164  -0.491   2.470 -0.7198 -0.3214  0.2833
  300MOL0     C41282   6.214  -0.412   2.352 -0.4198 -1.1100  0.4315
  300MOL0     C41283   6.264  -0.502   2.236 -0.5004  0.1048 -0.9945
  300MOL0     C41284   6.177  -0.498   2.112 -0.3281  0.4820 -0.3087
  300MOL0     C41285   6.032  -0.529   2.131  0.4013 -0.5057 -0.4458
  300MOL0     O41286   6.018  -0.660   2.185  0.2895 -0.4664  0.0101
  300MOL0     C41287   5.882  -0.688   2.194 -1.1632  0.8530  0.6247
  300MOL0     C41288   5.788  -0.672   2.094 -0.5647  0.0307  0.2642
  300MOL0     C41289   5.657  -0.713   2.117  0.1230  0.7477  0.2582
  300MOL0     C41290   5.561  -0.688   2.002  0.6321 -0.4244 -1.3152
  300MOL0     C41291   5.621  -0.785   2.232  0.2943  0.1133 -0.0587
  300MOL0     C41292   5.483  -0.831   2.260 -0.9424 -0.3576 -0.3139
  300MOL0     O41293   5.419  -0.862   2.151 -0.2358  0.4128  0.0867
  300MOL0     C41294   5.294  -0.897   2.166  0.4198  1.1169  0.6566
  300MOL0     C41295   5.197  -0.805   2.201  0.8760  0.6218 -0.5056
  300MOL0     C41296   5.061  -0.847   2.212  0.2372 -0.2550 -0.3352
  300MOL0     C41297   5.024  -0.977   2.167  0.2033  0.0389  0.3420
  300MOL0     O41298   4.892  -1.001   2.149  0.4929  0.1199 -0.5085
  300MOL0     C41299   4.848  -1.102   2.066  0.6682  0.1451  0.1944
  300MOL0     C41300   4.694  -1.114   2.072  0.6758 -0.5894  0.7272
  300MOL0     C41301   4.631  -1.195   1.951 -0.4807  0.2370  0.1760
  300MOL0     C41302   4.679  -1.340   1.939 -0.3448  0.1939 -0.3360
  300MOL0     C41303   4.666  -1.413   1.806 -1.3048  0.3430  0.5546
  300MOL0     C41304   4.527  -1.403   1.739  0.4155  0.9914  0.9589
  300MOL0     C41305   4.544  -1.440   1.590  0.3666 -1.0591  0.0582
  300MOL0     C41306   4.591  -1.582   1.565 -1.1561  0.1423 -0.1755
  300MOL0    Cl41307   4.659  -1.594   1.393 -0.1155 -0.2693  0.2094
  300MOL0     C41308   5.118  -1.071   2.130  0.0005  0.2564 -0.4870
  300MOL0     C41309   5.256  -1.026   2.121  0.5142  0.6299  0.2498
  300MOL0     O41310   5.450  -0.851   2.375 -0.0273 -0.1542  0.0338
  300MOL0     C41311   5.722  -0.817   2.320  0.0298 -0.1082  0.6930
  300MOL0     C41312   5.848  -0.765   2.300  0.2248  0.3053  1.1040
  300MOL0     N41313   6.229  -0.541   2.576 -0.3411 -0.0804 -0.2937
  300MOL0     N41314   6.147  -0.602   2.648  0.6129  0.8920  0.8037
  300MOL0     C41315   5.173   0.064   2.797 -0.3036 -0.8212  0.1561
  300MOL0     C41316   5.176   0.175   2.715  0.3241 -1.2176 -0.2493
  300MOL0     C41317   5.368   0.537   2.499 -0.5219 -1.0487  0.2151
  300MOL0     C41318   5.393   0.676   2.493  0.1952  0.4543 -0.7485
  300MOL0     C41319   5.369   0.752   2.373 -0.2373  0.3797 -0.2105
  300MOL0     C41320   5.321   0.687   2.264  0.5576 -0.7700  0.2634
  300MOL0     O41321   5.291   0.748   2.151 -0.0603 -0.4126 -0.5993
  300MOL0     C41322   5.395   0.827   2.094  0.5008 -0.2168  0.3976
  300MOL0     C41323   5.345   0.910   1.967 -0.0965  0.6714  0.7030
  300MOL0     C41324   5.285   0.823   1.864  0.8723  0.3980  0.0296
  300MOL0     C41325   5.291   0.906   1.736  0.5774  0.1629  1.0405
  300MOL0     C41326   5.208   0.853   1.633 -0.7302  0.5094  0.6623
  300MOL0     C41327   5.147   0.812   1.537 -1.0122 -0.7306 -0.1922
  300MOL0     C41328   5.307   0.548   2.263  0.3636  0.3716  0.4342
  300MOL0     C41329   5.337   0.468   2.380  0.8213 -0.2339 -0.4549
  300MOL0     C41330   5.329   0.320   2.371 -0.1035 -0.9196  0.6593
  300MOL0     H41331   5.375   0.376   2.893 -1.4468  1.5269 -3.3572
  300MOL0     H41332   5.386   0.184   3.033 -2.9013 -0.0929  1.0936
  300MOL0     H41333   5.111  -0.160   2.925 -0.2737 -1.0230  1.6270
  300MOL0     H41334   5.203  -0.248   3.030 -3.1409  1.1984  0.5682
  300MOL0     H41335   5.224  -0.354   2.835 -2.2387  0.7254  2.3807
  300MOL0     H41336   5.294  -0.221   2.731 -0.9150 -3.2964 -1.9570
  300MOL0     H41337   5.497  -0.246   2.931  2.3179 -3.4928  0.8519
  300MOL0     H41338   5.398  -0.373   2.975  1.0294  2.7983  2.8585
  300MOL0     H41339   5.436  -0.463   2.727 -1.6699  3.0262 -1.3415
  300MOL0     H41340   5.563  -0.339   2.714 -1.0952 -2.1111 -2.3050
  300MOL0     H41341   5.563  -0.572   2.927  0.1166 -1.3989 -1.9315
  300MOL0     H41342   5.662  -0.432   2.933 -0.7084  0.1110  0.8562
  300MOL0     H41343   5.714  -0.679   2.839 -0.9509  1.1225  0.4591
  300MOL0     H41344   5.611  -0.626   2.708 -1.9675 -0.2829  2.0777
  300MOL0     H41345   5.867  -0.500   2.786  0.0847 -5.1067  1.7308
  300MOL0     H41346   5.769  -0.445   2.641 -3.5653 -0.9391  0.2068
  300MOL0     H41347   5.920  -0.706   2.710  0.4270  2.9812  2.3222
  300MOL0     H41348   5.832  -0.674   2.548 -3.2052 -0.2784  0.6243
  300MOL0     H41349   5.951  -0.492   2.416 -0.6026 -0.1975  0.1539
  300MOL0     H41350   6.300  -0.352   2.384 -2.5476  0.5445  3.6869
  300MOL0     H41351   6.137  -0.337   2.332  0.4108 -0.0647  1.0379
  300MOL0     H41352   6.368  -0.477   2.212  0.0745 -3.0624 -2.3668
  300MOL0     H41353   6.256  -0.605   2.272 -4.2402  0.1076 -1.4097
  300MOL0     H41354   6.189  -0.393   2.082  0.7023  0.5084  0.1601
  300MOL0     H41355   6.224  -0.569   2.044  3.1639  0.7649  1.5857
  300MOL0     H41356   5.997  -0.441   2.185 -1.9870  0.6563 -3.5710
  300MOL0     H41357   5.973  -0.511   2.041 -2.1154  0.0249  1.2175
  300MOL0     H41358   5.802  -0.629   1.995  1.5705  0.5127  0.7132
  300MOL0     H41359   5.533  -0.779   1.949  0.7362 -1.1102 -0.2367
  300MOL0     H41360   5.611  -0.622   1.930  1.7283  0.8864  0.5565
  300MOL0     H41361   5.476  -0.626   2.031  0.5806 -0.4267 -1.4611
  300MOL0     H41362   5.227  -0.703   2.222 -2.5957  1.9719 -1.3896
  300MOL0     H41363   4.988  -0.787   2.265 -1.0498 -3.1305  1.3749
  300MOL0     H41364   4.882  -1.086   1.964 -0.7295  0.3979 -0.2627
  300MOL0     H41365   4.897  -1.190   2.108  2.3927 -0.7506 -3.3481
  300MOL0     H41366   4.683  -1.168   2.167 -0.4701  1.4191  1.8007
  300MOL0     H41367   4.655  -1.013   2.064  1.5874 -0.2308  0.7110
  300MOL0     H41368   4.650  -1.158   1.850  0.6392  0.2336  0.3679
  300MOL0     H41369   4.524  -1.199   1.973 -1.1766 -2.2568 -2.8660
  300MOL0     H41370   4.643  -1.399   2.024 -3.7623  2.1456 -0.2410
  300MOL0     H41371   4.788  -1.339   1.946 -0.4069  0.3780  0.8499
  300MOL0     H41372   4.736  -1.361   1.740 -3.2605 -2.2267 -3.9698
  300MOL0     H41373   4.712  -1.511   1.820 -0.9015 -0.0855 -2.8089
  300MOL0     H41374   4.487  -1.303   1.721  0.4462  0.7570 -0.5506
  300MOL0     H41375   4.449  -1.472   1.771  1.5929 -1.4699 -1.1680
  300MOL0     H41376   4.611  -1.367   1.542 -0.2437  0.4059  1.3451
  300MOL0     H41377   4.452  -1.423   1.534  0.2953  2.0326  0.9136
  300MOL0     H41378   4.509  -1.654   1.571 -0.4030 -0.6889  0.3264
  300MOL0     H41379   4.664  -1.619   1.637 -0.1673 -0.3983 -1.4332
  300MOL0     H41380   5.093  -1.172   2.099  1.1659 -0.1214 -0.2350
  300MOL0     H41381   5.330  -1.093   2.077  1.1406  1.6298 -0.2675
  300MOL0     H41382   5.695  -0.884   2.401 -2.0560 -0.0521  0.0965
  300MOL0     H41383   5.938  -0.784   2.357  2.9530 -0.2711 -2.9332
  300MOL0     H41384   5.113  -0.018   2.760 -2.1540  0.5127  0.0547
  300MOL0     H41385   5.133   0.170   2.616  0.7706  0.4747 -0.5521
  300MOL0     H41386   5.431   0.735   2.575  4.6370 -2.8241 -0.0321
  300MOL0     H41387   5.361   0.860   2.372 -0.0359  0.4003 -1.4578
  300MOL0     H41388   5.435   0.902   2.163 -0.8789  0.2950  0.6754
  300MOL0     H41389   5.475   0.762   2.057 -0.1948 -1.5936  1.2348
  300MOL0     H41390   5.435   0.952   1.922  0.4533 -0.9789  0.2137
  300MOL0     H41391   5.280   0.994   1.995 -2.5316 -0.3769 -1.4787
  300MOL0     H41392   5.339   0.728   1.865 -0.4780 -0.6018 -3.8285
  300MOL0     H41393   5.183   0.801   1.897  0.5775 -0.7385 -1.5284
  300MOL0     H41394   5.393   0.895   1.700 -0.1720 -0.1593 -1.1368
  300MOL0     H41395   5.268   1.010   1.759  0.3944 -0.3296  3.4173
  300MOL0     H41396   5.095   0.783   1.448  0.1105 -5.6810  0.5039
  300MOL0     H41397   5.265   0.507   2.172  3.6722  0.6273 -1.3503
  300MOL0     H41398   5.223   0.300   2.360 -0.0812 -0.6137 -0.1292
  300MOL0     H41399   5.368   0.288   2.274 -2.4065  2.4074 -1.5857
  300MOL0     H41400   5.362   0.268   2.462 -0.4401 -1.9591  0.1998
  301MOL0     O41401   5.308   0.074  10.748  0.0030  0.5304  0.3793
  301MOL0     C41402   5.195   0.106  10.781  0.5381 -0.4561 -0.4319
  301MOL0     O41403   5.166   0.193  10.879  0.2923  0.0863 -0.1906
  301MOL0     C41404   5.270   0.252  10.957  0.4225 -0.1215 -0.0548
  301MOL0     C41405   5.230   0.298  11.084 -0.5975  0.2525 -0.0520
  301MOL0     C41406   5.322   0.381  11.158 -0.4862  0.3318  0.2234
  301MOL0     C41407   5.443   0.421  11.107  0.2351  0.1135 -0.2376
  301MOL0     O41408   5.524   0.512  11.160 -0.4955  0.3967  0.0403
  301MOL0     C41409   5.503   0.558  11.292 -0.4148 -0.3547  0.3267
  301MOL0     C41410   5.611   0.648  11.374 -0.1198 -0.4784  1.0939
  301MOL0     C41411   5.635   0.779  11.308 -0.2172  0.5195 -0.1434
  301MOL0     C41412   5.685   0.778  11.159  0.3485 -0.1297 -0.8581
  301MOL0     C41413   5.710   0.912  11.100  0.4735  0.1415  0.3760
  301MOL0     C41414   5.819   0.997  11.174 -0.2224 -0.7151  0.6782
  301MOL0     C41415   5.852   1.118  11.093 -0.1203 -0.8425 -0.3186
  301MOL0     C41416   5.743   1.226  11.073 -0.4360 -0.1132 -0.2912
  301MOL0     N41417   5.695   1.282  11.202 -0.8259 -0.4788  0.0498
  301MOL0     C41418   5.604   1.214  11.284 -1.2048 -0.2470 -0.5478
  301MOL0     C41419   5.602   1.287  11.397  0.1064  0.2278  0.4992
  301MOL0     C41420   5.544   1.233  11.525  0.6787 -0.7311  0.0125
  301MOL0     C41421   5.613   1.112  11.585  0.3251  0.0333  0.4731
  301MOL0     C41422   5.584   1.103  11.736 -0.2605 -0.7146 -0.4645
  301MOL0     C41423   5.521   0.971  11.755 -0.0422  0.3303 -0.4631
  301MOL0     O41424   5.639   0.889  11.759  0.0822 -0.0648  0.6153
  301MOL0     C41425   5.635   0.767  11.809  0.5241 -0.4348  0.1730
  301MOL0     C41426   5.748   0.713  11.871  0.6982 -0.3192 -0.1949
  301MOL0     C41427   5.753   0.583  11.905 -0.0051 -0.3813  0.5120
  301MOL0     C41428   5.886   0.546  11.968 -0.5069 -0.3285 -1.1019
  301MOL0     C41429   5.648   0.497  11.865  0.4343 -0.4624 -0.3343
  301MOL0     C41430   5.648   0.348  11.891  0.0531  0.1941  0.2148
  301MOL0     O41431   5.737   0.303  11.986 -0.1288 -1.0306 -0.3667
  301MOL0     C41432   5.710   0.167  12.029 -0.7222  0.0600 -0.1370
  301MOL0     C41433   5.709   0.056  11.946 -0.0320  0.2373 -0.5599
  301MOL0     C41434   5.692  -0.074  12.002 -0.5500 -0.7108  1.4172
  301MOL0     C41435   5.658  -0.094  12.134  0.6197  0.0212  0.2467
  301MOL0     O41436   5.624  -0.217  12.177 -0.1474  0.2027 -0.1595
  301MOL0     C41437   5.606  -0.232  12.318  0.4417 -0.4094  0.5282
  301MOL0     C41438   5.609  -0.386  12.334  0.9717  0.0091 -1.5652
  301MOL0     C41439   5.600  -0.415  12.496  0.3682  0.4678  0.6577
  301MOL0     C41440   5.649  -0.560  12.501  0.6413 -0.0085  0.1704
  301MOL0     C41441   5.704  -0.600  12.635  0.2873  0.5217  0.2330
  301MOL0     C41442   5.750  -0.747  12.638 -0.1192  0.4744  0.6454
  301MOL0     C41443   5.655  -0.849  12.710  0.4091  0.0335 -0.7795
  301MOL0     C41444   5.726  -0.981  12.722 -0.6225  0.8523  0.2021
  301MOL0    Cl41445   5.642  -1.085  12.842  0.1024  0.2209 -0.3521
  301MOL0     C41446   5.647   0.026  12.219 -1.1722  0.2096  0.3703
  301MOL0     C41447   5.673   0.150  12.163  0.5407  0.5468 -1.3811
  301MOL0     O41448   5.569   0.272  11.831  0.2828  0.0443 -0.5236
  301MOL0     C41449   5.531   0.550  11.809  0.1129 -0.7236 -0.7229
  301MOL0     C41450   5.524   0.685  11.783 -0.6776  1.1135  0.3591
  301MOL0     N41451   5.694   1.393  11.388  0.0728  0.6405  0.0019
  301MOL0     N41452   5.741   1.392  11.267 -0.2692  0.4312 -0.0590
  301MOL0     C41453   5.495   0.355  10.989 -0.4364 -0.2852 -0.1928
  301MOL0     C41454   5.404   0.275  10.922 -0.1813 -0.3138  0.0096
  301MOL0     C41455   5.078   0.028  10.722 -0.5023 -0.0806  0.7482
  301MOL0     C41456   5.091  -0.111  10.722 -0.6857 -0.9770  0.4441
  301MOL0     C41457   5.000  -0.194  10.657  0.5379  1.0099 -0.4496
  301MOL0     C41458   4.889  -0.133  10.591  0.8654  0.2935 -0.1511
  301MOL0     O41459   4.799  -0.207  10.530  0.0354 -0.1918  0.0241
  301MOL0     C41460   4.831  -0.242  10.399 -0.2540 -0.0331  0.3360
  301MOL0     C41461   4.781  -0.144  10.288  0.3013 -0.1169 -0.3993
  301MOL0     C41462   4.623  -0.127  10.298  0.3733  0.7331 -0.0207
  301MOL0     C41463   4.562  -0.001  10.247 -0.1061 -0.6580  0.9263
  301MOL0     C41464   4.434   0.039  10.298  0.0666 -0.1872 -0.0695
  301MOL0     C41465   4.324   0.076  10.333 -0.2210  0.7021  0.0612
  301MOL0     C41466   4.869   0.003  10.600  0.6941  0.1627 -0.7083
  301MOL0     C41467   4.965   0.091  10.668  0.4697  1.3116  1.0083
  301MOL0     C41468   4.938   0.240  10.666  0.5682 -0.0547 -1.5017
  301MOL0     H41469   5.134   0.276  11.129 -0.2449  0.5785  0.8843
  301MOL0     H41470   5.293   0.412  11.258 -3.0104  0.3124 -0.4396
  301MOL0     H41471   5.489   0.471  11.357  0.5581 -2.4078 -2.0232
  301MOL0     H41472   5.411   0.616  11.285  0.6534  1.4086  0.3332
  301MOL0     H41473   5.579   0.663  11.477 -0.4686 -0.1867  0.9418
  301MOL0     H41474   5.705   0.592  11.360 -1.4051 -2.2065 -1.4486
  301MOL0     H41475   5.538   0.828  11.301 -0.2175  0.7313  1.0896
  301MOL0     H41476   5.704   0.844  11.363 -2.5279  2.1347  0.9932
  301MOL0     H41477   5.771   0.712  11.148  0.6324  0.0350  0.2703
  301MOL0     H41478   5.600   0.732  11.107  0.2649 -0.8029 -0.1422
  301MOL0     H41479   5.617   0.969  11.101  0.4048  0.0257  1.3048
  301MOL0     H41480   5.737   0.898  10.995 -0.6503 -0.1815  0.1216
  301MOL0     H41481   5.783   1.016  11.276 -0.9852  0.6266  0.1814
  301MOL0     H41482   5.907   0.933  11.179 -0.3686 -0.9819 -0.0157
  301MOL0     H41483   5.896   1.088  10.998 -0.0292  3.8774 -1.9963
  301MOL0     H41484   5.936   1.175  11.134 -1.4148  1.6415 -0.9180
  301MOL0     H41485   5.790   1.311  11.022 -1.6908  1.9420  1.7867
  301MOL0     H41486   5.661   1.179  11.016 -0.8403 -3.2219  2.5448
  301MOL0     H41487   5.555   1.119  11.266 -0.3571 -0.1196 -4.4725
  301MOL0     H41488   5.438   1.207  11.523 -0.7419  4.1653 -1.0423
  301MOL0     H41489   5.559   1.319  11.590  0.4482  1.5248 -2.7202
  301MOL0     H41490   5.589   1.021  11.529  0.2616 -0.4996  1.3530
  301MOL0     H41491   5.722   1.116  11.569 -0.2139  1.4046 -4.3534
  301MOL0     H41492   5.675   1.111  11.796  0.1491 -1.4224 -0.9748
  301MOL0     H41493   5.515   1.178  11.775 -0.5097 -0.8825 -0.5760
  301MOL0     H41494   5.476   0.959  11.854  2.5333 -1.3013  0.6157
  301MOL0     H41495   5.446   0.945  11.679 -1.5880 -1.1214  1.4424
  301MOL0     H41496   5.829   0.784  11.879  0.4510  0.5172 -3.5859
  301MOL0     H41497   5.870   0.523  12.074 -1.4363 -0.4098 -1.2566
  301MOL0     H41498   5.957   0.629  11.964 -0.7337  0.1731  2.1501
  301MOL0     H41499   5.930   0.464  11.911  1.0340  0.0923 -0.5655
  301MOL0     H41500   5.734   0.069  11.841  2.7591  1.2790  0.1441
  301MOL0     H41501   5.702  -0.161  11.938 -2.0906  0.3800 -0.4240
  301MOL0     H41502   5.693  -0.202  12.377  1.3616  1.7868 -1.7613
  301MOL0     H41503   5.515  -0.186  12.358  0.4661 -0.6063  0.8175
  301MOL0     H41504   5.520  -0.430  12.289  0.8229 -0.9263 -0.4032
  301MOL0     H41505   5.700  -0.417  12.284  0.3148  1.6716 -3.9692
  301MOL0     H41506   5.497  -0.403  12.529  0.0257 -2.6261  1.0385
  301MOL0     H41507   5.677  -0.351  12.540  4.1362 -1.1540 -2.8402
  301MOL0     H41508   5.733  -0.586  12.436  0.3419 -1.6232  0.3937
  301MOL0     H41509   5.557  -0.616  12.483  0.6301 -0.4478  1.4788
  301MOL0     H41510   5.797  -0.548  12.663  1.3292  1.1395 -3.7361
  301MOL0     H41511   5.632  -0.592  12.717 -0.1949 -1.8435  0.1116
  301MOL0     H41512   5.848  -0.740  12.685  0.8621 -0.0709 -1.2160
  301MOL0     H41513   5.765  -0.784  12.536  2.7376  0.8949  0.8511
  301MOL0     H41514   5.563  -0.866  12.654 -0.4768  1.3015  0.2276
  301MOL0     H41515   5.633  -0.803  12.806  3.4301  0.8681 -0.3618
  301MOL0     H41516   5.827  -0.966  12.761 -0.7803  0.3825  0.8162
  301MOL0     H41517   5.733  -1.033  12.626  1.1728 -3.0482  2.2112
  301MOL0     H41518   5.608   0.020  12.320 -1.0156  1.9023  0.5679
  301MOL0     H41519   5.664   0.236  12.228  1.1780  0.1073 -0.6825
  301MOL0     H41520   5.444   0.490  11.783 -0.4240  0.0485 -0.7501
  301MOL0     H41521   5.428   0.718  11.744 -2.6493 -3.9641  0.1837
  301MOL0     H41522   5.598   0.379  10.964 -0.3343 -0.3438  0.1760
  301MOL0     H41523   5.447   0.222  10.837 -1.1907 -0.6145 -0.3227
  301MOL0     H41524   5.175  -0.161  10.769  1.2929  1.6434 -0.0597
  301MOL0     H41525   5.004  -0.303  10.663  0.4532  0.9996 -0.5671
  301MOL0     H41526   4.938  -0.260  10.388 -0.6219 -2.7266  0.6023
  301MOL0     H41527   4.786  -0.339  10.377  1.0519 -0.2059 -1.8980
  301MOL0     H41528   4.811  -0.177  10.188  3.1236 -2.1760  1.0194
  301MOL0     H41529   4.820  -0.045  10.314  1.1919 -0.0175 -2.0127
  301MOL0     H41530   4.582  -0.213  10.245 -0.8217 -0.1562  2.2149
  301MOL0     H41531   4.591  -0.147  10.401  2.0280 -1.2664  0.1656
  301MOL0     H41532   4.554  -0.002  10.138 -1.8462 -0.5241  1.0391
  301MOL0     H41533   4.625   0.086  10.268 -2.9091  2.6459 -2.8174
  301MOL0     H41534   4.225   0.095  10.371 -1.0171  1.5002 -2.2106
  301MOL0     H41535   4.791   0.043  10.536 -0.5530 -1.9739 -0.6162
  301MOL0     H41536   5.035   0.289  10.667  1.2220 -1.3015 -1.5233
  301MOL0     H41537   4.885   0.267  10.575  0.2132  5.6559  0.0256
  301MOL0     H41538   4.882   0.281  10.751 -0.3228  1.1143 -2.6168
  302MOL0     O41539   8.037   6.273  10.721  0.5260  0.4602  0.3709
  302MOL0     C41540   8.093   6.376  10.743 -0.0998  0.2517  0.4963
  302MOL0     O41541   8.034   6.499  10.735 -0.1755  0.0006  0.0787
  302MOL0     C41542   7.905   6.506  10.757 -0.2312 -0.1314 -0.1033
  302MOL0     C41543   7.812   6.506  10.653  0.9567 -0.0225  0.2563
  302MOL0     C41544   7.675   6.533  10.681 -0.0539  0.6608 -0.4005
  302MOL0     C41545   7.635   6.575  10.814 -0.8712 -0.7770 -0.0833
  302MOL0     O41546   7.505   6.592  10.848  0.1216  0.8269 -0.0142
  302MOL0     C41547   7.409   6.568  10.746  0.9282  0.7400  0.2702
  302MOL0     C41548   7.265   6.581  10.818 -0.8519 -0.0234 -0.3583
  302MOL0     C41549   7.155   6.515  10.743 -0.1398 -0.1080  0.2456
  302MOL0     C41550   7.026   6.565  10.797 -0.5036  1.0217 -0.2696
  302MOL0     C41551   6.910   6.495  10.717  0.6947  1.4857 -0.1240
  302MOL0     C41552   6.776   6.548  10.768  0.6156 -0.2633  0.2206
  302MOL0     C41553   6.635   6.495  10.718 -0.1413  0.8718 -0.2408
  302MOL0     C41554   6.633   6.347  10.701  0.5077  0.3715  0.4691
  302MOL0     N41555   6.497   6.308  10.651  1.0379 -0.4029 -0.2891
  302MOL0     C41556   6.444   6.343  10.528 -0.4593  0.4260  0.1440
  302MOL0     C41557   6.311   6.294  10.540  0.1060  0.2069  0.3415
  302MOL0     C41558   6.201   6.296  10.432  0.6094 -0.0759 -0.2346
  302MOL0     C41559   6.068   6.216  10.465  0.0230  0.3097 -0.4654
  302MOL0     C41560   5.950   6.233  10.378 -0.1447 -0.5857 -1.0434
  302MOL0     C41561   5.832   6.167  10.443  0.7765 -0.0349  0.4457
  302MOL0     O41562   5.721   6.180  10.363  0.0908 -0.2435 -0.2159
  302MOL0     C41563   5.706   6.096  10.250  0.3176  0.6214  0.0329
  302MOL0     C41564   5.778   5.979  10.205  0.3609 -0.4051  0.3211
  302MOL0     C41565   5.746   5.926  10.085  1.3724  0.8442  0.0413
  302MOL0     C41566   5.828   5.796  10.040  1.0147 -0.9476  0.0042
  302MOL0     C41567   5.652   5.989   9.997  0.3877  0.0547 -0.0678
  302MOL0     C41568   5.623   5.947   9.856  0.1572  0.7318 -0.1797
  302MOL0     O41569   5.737   5.929   9.792  0.0401  0.8185 -0.0206
  302MOL0     C41570   5.751   5.919   9.658  0.0610 -1.1350  0.3933
  302MOL0     C41571   5.859   5.844   9.609  0.1629  0.2765  0.2221
  302MOL0     C41572   5.896   5.851   9.478 -0.4053 -1.0508  0.0127
  302MOL0     C41573   5.813   5.918   9.383 -0.1443  1.1278  0.4438
  302MOL0     O41574   5.836   5.928   9.246  0.0981  0.9393  0.2745
  302MOL0     C41575   5.878   5.813   9.185  0.8987  1.1186  1.6054
  302MOL0     C41576   5.897   5.825   9.029 -0.0732  0.5349  0.6718
  302MOL0     C41577   5.768   5.859   8.963  0.2403 -0.5005 -0.3650
  302MOL0     C41578   5.777   5.875   8.812  0.0117 -0.3973  0.0734
  302MOL0     C41579   5.647   5.901   8.717 -0.4267 -0.3363 -0.8347
  302MOL0     C41580   5.544   5.800   8.724 -0.2223 -0.4849  0.0398
  302MOL0     C41581   5.439   5.808   8.616  0.0530 -1.3384  0.8636
  302MOL0     C41582   5.331   5.924   8.635 -0.2602  0.0232 -0.3206
  302MOL0    Cl41583   5.186   5.927   8.518  0.0654  0.1315 -0.0019
  302MOL0     C41584   5.706   5.990   9.432  0.3968 -0.6871  0.3520
  302MOL0     C41585   5.667   5.986   9.563  0.6157 -0.3990 -0.6100
  302MOL0     O41586   5.511   5.961   9.803  0.4490  0.2989  0.1465
  302MOL0     C41587   5.580   6.104  10.040  0.4181  0.7702 -0.0575
  302MOL0     C41588   5.606   6.147  10.170  0.8649 -0.4261 -0.3246
  302MOL0     N41589   6.286   6.250  10.669  0.1151 -0.8090  0.1694
  302MOL0     N41590   6.396   6.274  10.735  1.0084 -0.5282  0.6996
  302MOL0     C41591   7.727   6.567  10.921 -0.3012 -0.2403  0.3571
  302MOL0     C41592   7.864   6.537  10.887 -0.0921 -0.0953 -0.2331
  302MOL0     C41593   8.239   6.374  10.746  0.4661 -0.0505 -0.4956
  302MOL0     C41594   8.293   6.249  10.712  0.3597 -1.2895 -0.0271
  302MOL0     C41595   8.432   6.220  10.728  0.2438 -0.5637  0.1873
  302MOL0     C41596   8.516   6.324  10.766  0.2177  0.3587 -0.8636
  302MOL0     O41597   8.647   6.293  10.773  0.2571 -0.1898  0.1395
  302MOL0     C41598   8.676   6.198  10.877 -0.1460 -0.3786 -0.2183
  302MOL0     C41599   8.728   6.282  10.999 -0.0576  0.1752 -0.0695
  302MOL0     C41600   8.869   6.338  10.980  0.7797 -0.1245  0.2186
  302MOL0     C41601   8.951   6.370  11.106 -0.6068  0.4533  0.7387
  302MOL0     C41602   8.998   6.234  11.146  0.0189  0.2463  0.2169
  302MOL0     C41603   9.042   6.120  11.173  0.6562 -0.2299  0.0601
  302MOL0     C41604   8.467   6.449  10.796 -0.9095  0.5853  0.6714
  302MOL0     C41605   8.329   6.469  10.792 -0.0704 -0.7712  1.0487
  302MOL0     C41606   8.283   6.607  10.850  0.4834  0.6525  0.4881
  302MOL0     H41607   7.837   6.468  10.555  2.3424 -0.2937  0.6883
  302MOL0     H41608   7.618   6.499  10.596  3.1107 -1.1616 -2.0023
  302MOL0     H41609   7.428   6.468  10.708 -0.9727  0.1186  0.8252
  302MOL0     H41610   7.417   6.636  10.661 -1.8384 -0.7033 -1.3202
  302MOL0     H41611   7.269   6.527  10.913 -1.2830 -1.3293 -1.0722
  302MOL0     H41612   7.241   6.686  10.838  0.8718  1.0122 -3.1255
  302MOL0     H41613   7.147   6.537  10.636 -1.9826  0.4764  0.4833
  302MOL0     H41614   7.173   6.407  10.753 -1.6649 -0.1326  4.6128
  302MOL0     H41615   7.018   6.529  10.900  0.3702  1.6395  0.0263
  302MOL0     H41616   7.025   6.674  10.788  0.4147  0.9230 -2.0915
  302MOL0     H41617   6.902   6.386  10.717 -1.6895  1.6037  0.5087
  302MOL0     H41618   6.928   6.517  10.612  0.1655 -0.9466 -0.7712
  302MOL0     H41619   6.773   6.523  10.874 -2.3919 -0.3578  0.1751
  302MOL0     H41620   6.766   6.657  10.771 -2.9018 -0.3872 -1.8321
  302MOL0     H41621   6.616   6.545  10.623 -0.8278 -0.1985 -0.6793
  302MOL0     H41622   6.565   6.526  10.796 -1.9284 -0.6429 -1.1547
  302MOL0     H41623   6.709   6.311  10.631  1.4142 -0.9426  2.0354
  302MOL0     H41624   6.645   6.301  10.800 -1.5495 -1.7111 -0.1418
  302MOL0     H41625   6.498   6.370  10.438  2.1856 -4.4375 -0.0719
  302MOL0     H41626   6.253   6.254  10.345  4.3847  0.5737  1.5488
  302MOL0     H41627   6.174   6.400  10.410 -2.0263 -0.3305  1.3976
  302MOL0     H41628   6.096   6.110  10.467 -0.4307  0.1934 -0.0281
  302MOL0     H41629   6.035   6.249  10.564  1.2078  3.3113 -0.9845
  302MOL0     H41630   5.927   6.340  10.369 -4.0472 -1.1656  0.3429
  302MOL0     H41631   5.967   6.204  10.274 -0.3379 -0.7132 -1.0390
  302MOL0     H41632   5.856   6.062  10.458 -0.0461 -0.2458  0.3193
  302MOL0     H41633   5.801   6.206  10.540 -1.9928 -2.0312  0.4682
  302MOL0     H41634   5.854   5.944  10.273  0.0465 -0.9851  0.3816
  302MOL0     H41635   5.768   5.717   9.992  2.0443 -0.4676 -2.1511
  302MOL0     H41636   5.879   5.756  10.128 -3.3691 -2.3465  2.2521
  302MOL0     H41637   5.902   5.817   9.963  0.4116 -0.5629 -0.4821
  302MOL0     H41638   5.924   5.800   9.684 -1.3897  1.1954  2.1829
  302MOL0     H41639   5.986   5.798   9.447  0.8901  1.2687 -0.4274
  302MOL0     H41640   5.973   5.787   9.234 -0.0014 -0.4951  2.5506
  302MOL0     H41641   5.817   5.726   9.210  2.2205 -0.6265 -0.8017
  302MOL0     H41642   5.979   5.892   9.001 -1.5205  1.0683 -2.7952
  302MOL0     H41643   5.926   5.725   8.996 -0.9697  0.5944 -0.3514
  302MOL0     H41644   5.728   5.953   9.004  2.3402  0.2331  0.1526
  302MOL0     H41645   5.693   5.781   8.980  1.3079 -1.4870 -0.0574
  302MOL0     H41646   5.827   5.787   8.769  1.6409  0.6406 -0.2781
  302MOL0     H41647   5.850   5.955   8.798  0.0292  0.2531  3.1985
  302MOL0     H41648   5.614   6.000   8.749  1.0534  0.6217 -2.1026
  302MOL0     H41649   5.696   5.919   8.620  1.4269  1.1489  0.2917
  302MOL0     H41650   5.520   5.810   8.830 -0.5336  4.2784 -0.2456
  302MOL0     H41651   5.586   5.699   8.714 -2.3809 -1.6560  1.8530
  302MOL0     H41652   5.390   5.710   8.615 -0.3436 -1.1429 -0.0689
  302MOL0     H41653   5.479   5.828   8.516 -1.6892  1.0311  0.5381
  302MOL0     H41654   5.393   6.011   8.610  0.8881 -1.6628 -3.9110
  302MOL0     H41655   5.294   5.928   8.738  0.4436  1.9116 -0.1039
  302MOL0     H41656   5.643   6.046   9.364 -0.9566 -0.1302  2.0122
  302MOL0     H41657   5.573   6.036   9.581  0.6142 -0.3070 -0.8566
  302MOL0     H41658   5.502   6.140   9.974 -0.4508  0.6650  0.8876
  302MOL0     H41659   5.552   6.234  10.208  1.6645 -0.5354  1.1294
  302MOL0     H41660   7.693   6.585  11.023 -3.0027 -0.6209 -0.4061
  302MOL0     H41661   7.932   6.546  10.971  1.7715  1.1041 -1.7955
  302MOL0     H41662   8.238   6.157  10.697 -0.0986 -1.4578  2.3366
  302MOL0     H41663   8.474   6.121  10.718  0.2639 -0.5870  0.4992
  302MOL0     H41664   8.591   6.140  10.914  0.7559 -0.3036  2.1728
  302MOL0     H41665   8.750   6.120  10.854  0.5945  0.4221 -0.5994
  302MOL0     H41666   8.725   6.203  11.075  0.6605 -1.8378 -2.0083
  302MOL0     H41667   8.656   6.359  11.028  0.0638  0.2653 -0.0032
  302MOL0     H41668   8.921   6.277  10.906  2.2267  1.3780 -0.0752
  302MOL0     H41669   8.853   6.437  10.935 -0.8294 -0.0847  0.8053
  302MOL0     H41670   8.888   6.420  11.181 -4.2486 -3.7205  0.8647
  302MOL0     H41671   9.038   6.429  11.077 -0.7618 -0.0738 -0.8870
  302MOL0     H41672   9.070   6.017  11.176 -0.8201 -0.6378  1.9137
  302MOL0     H41673   8.534   6.519  10.844  0.4170 -0.5550  0.5459
  302MOL0     H41674   8.220   6.596  10.939 -2.0791 -2.3584 -1.4753
  302MOL0     H41675   8.377   6.641  10.895  1.1213 -1.0327  0.5212
  302MOL0     H41676   8.228   6.675  10.784 -0.7302  0.0794  0.8699
  303MOL0     O41677  10.290   5.793   5.441  0.5190 -0.2154 -0.4095
  303MOL0     C41678  10.192   5.721   5.413 -0.0776 -0.0376 -0.9664
  303MOL0     O41679  10.173   5.590   5.452 -0.7601  0.6722  0.4066
  303MOL0     C41680  10.285   5.528   5.500 -0.2724 -0.2196  0.6744
  303MOL0     C41681  10.376   5.482   5.408 -0.2810 -0.1538  0.0487
  303MOL0     C41682  10.502   5.439   5.452 -0.1186  0.6715 -0.0310
  303MOL0     C41683  10.523   5.408   5.588  0.1947 -0.7572 -0.6251
  303MOL0     O41684  10.651   5.365   5.626 -0.3562 -0.5812 -0.3677
  303MOL0     C41685  10.672   5.251   5.712 -0.6933 -0.8244 -0.5299
  303MOL0     C41686  10.732   5.149   5.619  0.9791 -0.8137  0.8175
  303MOL0     C41687  10.622   5.073   5.541 -0.7446 -0.2370  0.4071
  303MOL0     C41688  10.692   4.984   5.436  0.3545 -0.2868  0.2413
  303MOL0     C41689  10.617   4.855   5.398 -0.5467 -0.5956  0.5890
  303MOL0     C41690  10.605   4.754   5.514  0.5598  1.3962 -0.1426
  303MOL0     C41691  10.738   4.703   5.571  0.3629  0.1337 -0.6213
  303MOL0     C41692  10.740   4.722   5.722  0.0686 -0.0627 -0.2938
  303MOL0     N41693  10.857   4.660   5.789 -0.1232 -0.2124  0.0230
  303MOL0     C41694  10.985   4.708   5.771  0.6969 -0.9578  0.6975
  303MOL0     C41695  11.069   4.606   5.803 -0.1789  0.3916  0.8861
  303MOL0     C41696  11.223   4.610   5.805 -0.5728  0.4901  0.0515
  303MOL0     C41697  11.292   4.725   5.741 -0.7038 -0.4375  0.5018
  303MOL0     C41698  11.434   4.753   5.793  0.4024  0.2238  0.0335
  303MOL0     C41699  11.477   4.898   5.782  0.0398 -0.0041  0.0336
  303MOL0     O41700  11.569   4.916   5.678  0.2555  0.3450 -0.4759
  303MOL0     C41701  11.586   5.043   5.631 -0.2924 -0.2643 -0.3391
  303MOL0     C41702  11.683   5.051   5.536 -0.2149  0.9709  0.2533
  303MOL0     C41703  11.738   5.174   5.498  1.1177 -0.8019 -0.1742
  303MOL0     C41704  11.835   5.171   5.385  0.0320 -0.4414  0.1359
  303MOL0     C41705  11.689   5.300   5.551 -1.2736 -0.2773 -0.2334
  303MOL0     C41706  11.736   5.437   5.518  0.4754  1.0288  0.1911
  303MOL0     O41707  11.707   5.534   5.609  0.3143  0.4390  0.2295
  303MOL0     C41708  11.752   5.666   5.608  0.4165  2.3253  0.6819
  303MOL0     C41709  11.669   5.768   5.661 -0.3664 -0.8658  0.2793
  303MOL0     C41710  11.704   5.908   5.662  0.0470  0.1562 -1.0075
  303MOL0     C41711  11.827   5.940   5.606  0.6549 -0.2912 -0.3609
  303MOL0     O41712  11.886   6.062   5.599  0.1623 -0.3854 -0.5008
  303MOL0     C41713  11.807   6.189   5.595 -0.3184  0.2561 -0.3473
  303MOL0     C41714  11.786   6.241   5.741  0.6370  0.0002  0.0421
  303MOL0     C41715  11.738   6.384   5.763  0.4175 -0.3600 -0.4978
  303MOL0     C41716  11.691   6.400   5.909 -0.2979 -0.3273  0.7419
  303MOL0     C41717  11.803   6.390   6.013 -0.0662  0.0301 -0.0934
  303MOL0     C41718  11.755   6.427   6.153 -0.3599  0.9625  0.0120
  303MOL0     C41719  11.874   6.419   6.249  0.2074  0.5119 -0.1909
  303MOL0     C41720  11.892   6.519   6.359 -0.2682 -0.9435 -0.5911
  303MOL0    Cl41721  11.743   6.533   6.469  0.1731  0.1433 -0.1717
  303MOL0     C41722  11.914   5.833   5.555  0.8065  0.7149 -0.7416
  303MOL0     C41723  11.870   5.697   5.551 -0.7925 -0.3692 -0.8240
  303MOL0     O41724  11.792   5.461   5.410 -0.4570 -0.2178  0.1570
  303MOL0     C41725  11.578   5.290   5.631  0.5722  0.1240 -0.2875
  303MOL0     C41726  11.524   5.165   5.671 -0.3033  0.2339 -0.2303
  303MOL0     N41727  10.998   4.498   5.830 -0.0143 -0.1575 -0.2435
  303MOL0     N41728  10.869   4.532   5.829 -0.1381 -0.1762 -0.4644
  303MOL0     C41729  10.431   5.461   5.681 -0.3340  0.0239  0.6653
  303MOL0     C41730  10.310   5.510   5.636  0.1256 -0.3838  1.0606
  303MOL0     C41731  10.084   5.775   5.338  0.7149  0.5653  0.3211
  303MOL0     C41732   9.954   5.709   5.346  0.7285 -0.5249 -0.2318
  303MOL0     C41733   9.844   5.756   5.275  0.2640  0.5483 -0.3149
  303MOL0     C41734   9.855   5.870   5.193 -0.6996 -0.3098  0.7654
  303MOL0     O41735   9.746   5.931   5.112 -0.2898  0.4469  0.3210
  303MOL0     C41736   9.613   5.863   5.112 -1.2266  0.2562 -1.0124
  303MOL0     C41737   9.524   5.908   4.998  0.8037 -0.2470  0.2031
  303MOL0     C41738   9.594   5.878   4.856  0.0551 -0.9242 -0.1507
  303MOL0     C41739   9.581   5.728   4.826  0.2103 -0.2789  1.0452
  303MOL0     C41740   9.663   5.701   4.704  0.1618  0.0346 -0.7781
  303MOL0     C41741   9.725   5.695   4.596  1.1538  0.0724  0.0768
  303MOL0     C41742   9.984   5.929   5.184  0.7168 -0.0291 -0.1652
  303MOL0     C41743  10.095   5.887   5.252 -0.4384  1.4127 -0.5772
  303MOL0     C41744  10.235   5.938   5.214  0.3036  0.3414  0.2519
  303MOL0     H41745  10.358   5.485   5.301  0.0828 -1.8582 -0.0907
  303MOL0     H41746  10.575   5.397   5.383 -0.6435 -0.4725  0.0765
  303MOL0     H41747  10.586   5.218   5.772 -0.5423 -4.0087 -1.8699
  303MOL0     H41748  10.739   5.296   5.786 -2.2217 -0.2719  0.5816
  303MOL0     H41749  10.806   5.199   5.556 -1.1544  2.4053  0.6337
  303MOL0     H41750  10.785   5.077   5.683  1.2742 -2.6239 -1.3455
  303MOL0     H41751  10.568   5.007   5.611  0.3386  0.2177  1.7146
  303MOL0     H41752  10.550   5.144   5.499  2.0732  0.5674 -3.5531
  303MOL0     H41753  10.702   5.031   5.337 -2.3634 -0.1949 -0.0818
  303MOL0     H41754  10.788   4.951   5.477 -0.4124 -1.0012  1.5279
  303MOL0     H41755  10.666   4.800   5.317 -1.4780 -2.4792  1.2486
  303MOL0     H41756  10.522   4.887   5.353 -0.8503  0.1786  1.7411
  303MOL0     H41757  10.539   4.799   5.589 -1.9467  0.4178 -1.6505
  303MOL0     H41758  10.545   4.672   5.474  0.7096  1.2980 -0.1676
  303MOL0     H41759  10.827   4.748   5.526 -1.0213  0.8603 -2.7711
  303MOL0     H41760  10.739   4.600   5.535 -1.7363  0.3665 -1.4857
  303MOL0     H41761  10.737   4.828   5.746  1.5765  0.8834 -3.6650
  303MOL0     H41762  10.654   4.669   5.765  0.3111 -0.6914 -0.5744
  303MOL0     H41763  11.017   4.808   5.743  0.6426 -0.6807  1.6108
  303MOL0     H41764  11.262   4.515   5.767  0.9692  0.9634  0.3997
  303MOL0     H41765  11.246   4.607   5.912 -2.1385 -0.0238  0.4111
  303MOL0     H41766  11.300   4.708   5.633  3.7281  6.0115 -0.7545
  303MOL0     H41767  11.240   4.820   5.757  2.3665  1.5716 -0.5090
  303MOL0     H41768  11.445   4.728   5.899  0.3860 -1.0216 -0.2433
  303MOL0     H41769  11.504   4.681   5.749 -0.8140 -1.2220  0.3844
  303MOL0     H41770  11.385   4.956   5.774 -1.3547 -2.0792  0.1100
  303MOL0     H41771  11.526   4.931   5.875  0.1723 -0.6620  0.2022
  303MOL0     H41772  11.733   4.957   5.514 -1.0850  0.6321 -0.3523
  303MOL0     H41773  11.854   5.065   5.367  0.6602 -0.0275 -1.8670
  303MOL0     H41774  11.934   5.212   5.404 -0.0994  0.0371 -0.1907
  303MOL0     H41775  11.788   5.204   5.292  1.0090 -2.1579 -1.0477
  303MOL0     H41776  11.577   5.723   5.698 -0.0731 -2.0008 -0.3277
  303MOL0     H41777  11.636   5.988   5.689  0.8293  0.5775 -0.2347
  303MOL0     H41778  11.872   6.264   5.548  0.3409 -0.1744 -0.1425
  303MOL0     H41779  11.717   6.168   5.538 -1.3748 -1.8101  1.9151
  303MOL0     H41780  11.709   6.177   5.785  1.1216 -0.4407  0.2600
  303MOL0     H41781  11.883   6.245   5.793  2.1753  2.9518 -2.7188
  303MOL0     H41782  11.666   6.407   5.684  0.0040  1.3664  0.3292
  303MOL0     H41783  11.823   6.453   5.759  0.4727 -0.4070 -0.1847
  303MOL0     H41784  11.617   6.323   5.933 -1.2712  0.4415  0.2975
  303MOL0     H41785  11.652   6.502   5.919 -0.0070  0.0549 -1.4491
  303MOL0     H41786  11.844   6.289   6.014  2.7834  1.1020  1.0794
  303MOL0     H41787  11.885   6.459   5.994 -0.9427  1.6410  1.6677
  303MOL0     H41788  11.678   6.355   6.181  1.3315 -1.9251 -2.2022
  303MOL0     H41789  11.705   6.525   6.151 -0.5635  0.8514 -0.4373
  303MOL0     H41790  11.970   6.436   6.198  0.6748  0.0468  0.5119
  303MOL0     H41791  11.878   6.318   6.293  1.7522  1.0740  1.0608
  303MOL0     H41792  11.910   6.619   6.319 -2.6975 -0.0872  0.2840
  303MOL0     H41793  11.982   6.506   6.419 -1.3843 -0.5717  1.2241
  303MOL0     H41794  12.010   5.858   5.512  1.1995 -2.1431 -1.7799
  303MOL0     H41795  11.951   5.627   5.534 -2.1943 -1.6763 -2.5482
  303MOL0     H41796  11.538   5.381   5.675  0.4264  1.2579 -2.6060
  303MOL0     H41797  11.445   5.173   5.744 -0.7751 -1.3847 -0.5205
  303MOL0     H41798  10.458   5.445   5.785 -0.6432  0.9624  0.8993
  303MOL0     H41799  10.233   5.524   5.711 -1.5336 -3.7647  0.1890
  303MOL0     H41800   9.940   5.610   5.387  0.3965 -0.8791 -1.1872
  303MOL0     H41801   9.750   5.702   5.276  0.6335 -0.2251  2.6046
  303MOL0     H41802   9.632   5.755   5.108  1.2270  0.5030  1.3398
  303MOL0     H41803   9.560   5.878   5.207  0.8753 -0.1200  0.2852
  303MOL0     H41804   9.503   6.014   5.009  2.0341 -0.1272  1.8239
  303MOL0     H41805   9.435   5.844   5.002 -0.7292  1.8435  1.8140
  303MOL0     H41806   9.533   5.926   4.779  1.1608  0.5702 -0.1399
  303MOL0     H41807   9.696   5.918   4.854 -0.9679  1.8850 -0.8864
  303MOL0     H41808   9.476   5.708   4.806  0.5117  0.7827 -2.2817
  303MOL0     H41809   9.626   5.664   4.902  0.6391 -1.9790 -0.5773
  303MOL0     H41810   9.788   5.688   4.510  1.6559 -2.0476  0.5519
  303MOL0     H41811  10.000   6.010   5.114  2.5636 -2.8791 -3.3354
  303MOL0     H41812  10.274   5.995   5.299  0.1375  0.5430  0.1932
  303MOL0     H41813  10.299   5.857   5.179  5.0108  3.3481  1.0099
  303MOL0     H41814  10.224   6.000   5.125  0.9848  3.8375  2.4098
  304MOL0     O41815   2.247  10.432   9.353  0.2983  0.4185 -0.3607
  304MOL0     C41816   2.244  10.319   9.408 -0.2980 -0.9876  0.7622
  304MOL0     O41817   2.233  10.297   9.546  0.4767  0.0742 -0.8664
  304MOL0     C41818   2.206  10.404   9.625  0.4012 -0.4196 -0.2679
  304MOL0     C41819   2.069  10.435   9.642  0.1759 -0.8949 -0.2736
  304MOL0     C41820   2.037  10.561   9.687  0.2931  0.2926 -0.7899
  304MOL0     C41821   2.135  10.655   9.718  0.6192 -0.1915 -0.1325
  304MOL0     O41822   2.079  10.771   9.760  0.1940 -0.3380 -0.5880
  304MOL0     C41823   2.118  10.900   9.704 -0.1982  0.6761 -0.3223
  304MOL0     C41824   2.066  10.921   9.556 -0.0062  0.5861 -0.7869
  304MOL0     C41825   2.097  11.065   9.528  0.4288 -0.3990  0.0216
  304MOL0     C41826   2.019  11.116   9.414 -0.0241 -0.3087  0.7007
  304MOL0     C41827   2.101  11.208   9.322 -0.3880  0.0597 -1.1365
  304MOL0     C41828   2.020  11.271   9.217  0.0445  0.3570 -0.7575
  304MOL0     C41829   2.097  11.344   9.112  0.1029  0.3917 -1.2609
  304MOL0     C41830   2.010  11.425   9.009  0.7257 -0.5754 -0.1617
  304MOL0     N41831   1.872  11.365   8.991  0.4517 -0.4122  0.3589
  304MOL0     C41832   1.764  11.383   9.078 -0.0888  0.4706  0.3242
  304MOL0     C41833   1.664  11.317   9.013  0.0908 -0.0252 -0.7455
  304MOL0     C41834   1.531  11.291   9.068  0.5232  0.1237 -0.3087
  304MOL0     C41835   1.524  11.149   9.133 -0.6800  0.1372 -0.0647
  304MOL0     C41836   1.622  11.139   9.253 -0.0603 -0.4320  0.2259
  304MOL0     C41837   1.577  11.013   9.329  0.5178  0.0290 -0.2157
  304MOL0     O41838   1.656  11.022   9.449 -0.2056 -0.2519 -0.0775
  304MOL0     C41839   1.651  10.921   9.544 -0.1060 -0.5014  0.3216
  304MOL0     C41840   1.701  10.941   9.662  0.7487  0.8825 -0.6265
  304MOL0     C41841   1.705  10.849   9.766  0.2798  0.0061  0.6733
  304MOL0     C41842   1.763  10.900   9.895  0.5654  0.0857 -0.8094
  304MOL0     C41843   1.664  10.717   9.746 -0.3276  0.1665  0.2427
  304MOL0     C41844   1.683  10.598   9.836 -0.0367  0.5001 -0.0181
  304MOL0     O41845   1.583  10.512   9.823 -0.0344 -0.9411 -0.1471
  304MOL0     C41846   1.591  10.391   9.882 -0.3064 -0.3011 -0.1433
  304MOL0     C41847   1.695  10.302   9.866 -0.6733  1.0418  0.0808
  304MOL0     C41848   1.692  10.176   9.932  0.6318  0.0759  0.6214
  304MOL0     C41849   1.585  10.145  10.018 -0.9692  1.0523 -0.5408
  304MOL0     O41850   1.565  10.026  10.071 -0.3201  0.4082 -0.0959
  304MOL0     C41851   1.529   9.916   9.988 -0.9386 -0.1030 -0.3242
  304MOL0     C41852   1.508   9.784  10.064 -0.6930 -0.6076  0.3798
  304MOL0     C41853   1.375   9.787  10.140  0.4853  0.0200 -0.2217
  304MOL0     C41854   1.313   9.642  10.142 -0.5377  0.2929 -0.2056
  304MOL0     C41855   1.402   9.537  10.227 -0.3439 -0.7438 -0.1990
  304MOL0     C41856   1.348   9.400  10.213  0.3225  0.3455 -0.1655
  304MOL0     C41857   1.414   9.297  10.306  0.5727 -0.2093 -0.1255
  304MOL0     C41858   1.328   9.162  10.312 -0.7693  0.0444  0.1780
  304MOL0    Cl41859   1.289   9.105  10.148  0.2138  0.1060 -0.3147
  304MOL0     C41860   1.479  10.221  10.035  0.6053 -0.0179  0.9372
  304MOL0     C41861   1.485  10.348   9.960  0.9505 -1.1001 -0.4341
  304MOL0     O41862   1.782  10.587   9.898 -0.2805 -0.5678  0.2669
  304MOL0     C41863   1.607  10.698   9.615  0.6015  0.4562 -0.6374
  304MOL0     C41864   1.602  10.795   9.514  0.2906  0.2888  0.3974
  304MOL0     N41865   1.701  11.265   8.889  0.4111  1.1470  0.2886
  304MOL0     N41866   1.823  11.300   8.884 -0.2942  0.4967  0.2588
  304MOL0     C41867   2.271  10.628   9.702  0.4963  0.2023 -0.1073
  304MOL0     C41868   2.309  10.503   9.660  0.0624  0.4412  0.6356
  304MOL0     C41869   2.253  10.198   9.318 -0.2015 -0.0318 -0.5878
  304MOL0     C41870   2.287  10.225   9.188  0.1294 -0.1443  0.9858
  304MOL0     C41871   2.318  10.126   9.096 -0.2254 -0.6816  0.6595
  304MOL0     C41872   2.313   9.991   9.131  0.3791 -0.6095  0.1678
  304MOL0     O41873   2.340   9.900   9.033 -0.4459  0.7730 -0.2409
  304MOL0     C41874   2.323   9.749   9.063 -0.9111 -1.3204  0.5038
  304MOL0     C41875   2.368   9.673   8.942  0.4193 -0.4048  0.6280
  304MOL0     C41876   2.501   9.604   8.954 -0.4515  1.1946 -0.2100
  304MOL0     C41877   2.555   9.543   8.819  1.1212 -0.7487 -0.0115
  304MOL0     C41878   2.566   9.648   8.721  0.7437 -0.1503 -0.2840
  304MOL0     C41879   2.566   9.726   8.627  0.1244  0.0888  0.6003
  304MOL0     C41880   2.272   9.960   9.261  0.3399 -0.4001  0.6667
  304MOL0     C41881   2.255  10.062   9.359  1.1186 -0.3411  0.4046
  304MOL0     C41882   2.228  10.020   9.495 -0.3513  0.4655 -0.1704
  304MOL0     H41883   1.987  10.369   9.619 -2.2239  1.4854  0.9675
  304MOL0     H41884   1.931  10.577   9.702  0.3304 -0.1902  0.0756
  304MOL0     H41885   2.226  10.917   9.711 -0.0608 -0.5422  0.7293
  304MOL0     H41886   2.061  10.968   9.768 -0.2369 -2.2185  3.0135
  304MOL0     H41887   2.127  10.859   9.489  0.6046 -0.6600  0.8420
  304MOL0     H41888   1.960  10.894   9.554  0.5907 -2.6312  1.7559
  304MOL0     H41889   2.072  11.142   9.602  1.3307  1.3483 -1.3870
  304MOL0     H41890   2.201  11.083   9.500  0.4691  3.2001  1.8698
  304MOL0     H41891   1.959  11.038   9.365  0.5931 -0.8782  0.8402
  304MOL0     H41892   1.939  11.182   9.450 -0.4475 -1.1678  1.3730
  304MOL0     H41893   2.176  11.147   9.271  2.2771  2.6150 -0.5523
  304MOL0     H41894   2.143  11.293   9.376 -1.3133 -0.1606 -0.0281
  304MOL0     H41895   1.960  11.197   9.164 -0.4793  0.0036  0.2884
  304MOL0     H41896   1.948  11.334   9.270  1.8841  0.8781  1.2852
  304MOL0     H41897   2.166  11.271   9.068  2.7012  0.1122  2.7960
  304MOL0     H41898   2.158  11.420   9.162  0.4251  0.8411 -2.2956
  304MOL0     H41899   1.999  11.530   9.039 -0.0913 -0.8499  0.5755
  304MOL0     H41900   2.057  11.416   8.911  1.3567 -0.1651  0.0972
  304MOL0     H41901   1.775  11.424   9.178  2.5136  0.7363 -0.0065
  304MOL0     H41902   1.451  11.277   8.994 -2.8154 -3.5889  3.4810
  304MOL0     H41903   1.514  11.372   9.139  0.0351  0.4948 -0.8361
  304MOL0     H41904   1.421  11.132   9.164 -1.8214  0.2284 -3.4212
  304MOL0     H41905   1.551  11.073   9.059  2.2005 -0.0921  1.0954
  304MOL0     H41906   1.728  11.131   9.227 -0.3732 -1.1311 -0.8879
  304MOL0     H41907   1.615  11.221   9.325 -1.8742 -0.5638  0.2501
  304MOL0     H41908   1.473  11.037   9.352  0.9564  1.7104  0.2058
  304MOL0     H41909   1.607  10.927   9.269  3.6099 -1.1642  2.7380
  304MOL0     H41910   1.752  11.035   9.679 -0.7272  1.1948  2.7211
  304MOL0     H41911   1.812  10.830   9.963  1.2405  1.1649 -0.1413
  304MOL0     H41912   1.679  10.939   9.954  0.5828 -1.1041  0.0479
  304MOL0     H41913   1.835  10.977   9.867  1.4414 -1.2637 -2.3804
  304MOL0     H41914   1.783  10.326   9.806 -1.8498  1.2364 -1.6597
  304MOL0     H41915   1.779  10.118   9.906 -1.4836 -2.4791 -1.3797
  304MOL0     H41916   1.447   9.944   9.920 -3.6349 -3.4574  1.2635
  304MOL0     H41917   1.614   9.901   9.921 -1.0563  1.1596 -0.7788
  304MOL0     H41918   1.493   9.707   9.988 -2.8852  0.5187 -0.4240
  304MOL0     H41919   1.591   9.757  10.130 -1.1222  1.4742  1.8721
  304MOL0     H41920   1.310   9.857  10.087  1.1422  0.1572 -0.8628
  304MOL0     H41921   1.388   9.836  10.237  4.0947 -0.8493 -0.1030
  304MOL0     H41922   1.306   9.596  10.043 -1.4327  0.2313 -0.1268
  304MOL0     H41923   1.212   9.648  10.184  0.3871  1.4329  2.0340
  304MOL0     H41924   1.507   9.545  10.198 -0.4355 -1.3114 -0.7190
  304MOL0     H41925   1.408   9.576  10.329  2.0962 -0.5109 -0.3722
  304MOL0     H41926   1.364   9.374  10.108 -0.9542  0.5080 -0.4094
  304MOL0     H41927   1.239   9.404  10.220  0.0811 -0.0556 -2.7849
  304MOL0     H41928   1.406   9.335  10.409  2.8113 -2.3256  0.9203
  304MOL0     H41929   1.515   9.271  10.274 -0.1592 -1.1284 -1.8193
  304MOL0     H41930   1.238   9.183  10.371 -1.2981 -2.8514  0.5516
  304MOL0     H41931   1.379   9.084  10.369  3.4921  1.5206 -1.2379
  304MOL0     H41932   1.390  10.188  10.086 -0.2064 -0.6585 -0.8183
  304MOL0     H41933   1.391  10.403   9.959 -0.5068 -3.3098  2.0437
  304MOL0     H41934   1.559  10.601   9.602  0.6228  0.0177  1.9749
  304MOL0     H41935   1.556  10.767   9.419 -0.9997 -2.1645  1.6544
  304MOL0     H41936   2.345  10.698   9.742 -0.9986 -0.1020  3.6234
  304MOL0     H41937   2.415  10.480   9.665 -0.2990 -1.0917  2.7558
  304MOL0     H41938   2.286  10.327   9.150  2.6719  0.5484  2.5157
  304MOL0     H41939   2.333  10.145   8.990 -4.2379 -4.9845 -1.0696
  304MOL0     H41940   2.383   9.726   9.152 -0.9848 -2.6044  0.2333
  304MOL0     H41941   2.215   9.740   9.075 -1.5123  1.2888 -1.9682
  304MOL0     H41942   2.364   9.745   8.860 -2.5550  1.5736  2.3191
  304MOL0     H41943   2.300   9.590   8.922 -0.2662  0.1513  0.6218
  304MOL0     H41944   2.576   9.673   8.995  0.1736 -1.2311  3.1980
  304MOL0     H41945   2.494   9.518   9.021 -0.2603  0.4302 -1.1526
  304MOL0     H41946   2.484   9.468   8.782 -0.6315 -0.2010  2.0647
  304MOL0     H41947   2.644   9.482   8.839 -0.1035 -2.3068  0.8328
  304MOL0     H41948   2.556   9.787   8.540 -2.8393  0.0613  0.8202
  304MOL0     H41949   2.257   9.859   9.296  1.9517 -0.3311  1.6372
  304MOL0     H41950   2.142  10.070   9.540 -0.5538 -1.7759  2.1694
  304MOL0     H41951   2.200   9.914   9.493  2.5433 -0.5331  3.0304
  304MOL0     H41952   2.309  10.022   9.569 -2.7936  0.0703  2.7121
  305MOL0     O41953   8.280   6.750  11.437  0.1738  0.4621  0.2699
  305MOL0     C41954   8.199   6.706  11.355 -0.3019  0.4728 -1.0168
  305MOL0     O41955   8.070   6.759  11.334 -0.2629  0.1038  0.3201
  305MOL0     C41956   8.035   6.789  11.209 -1.1597 -0.1166  0.5681
  305MOL0     C41957   7.899   6.814  11.185 -0.7046  0.0603 -0.0851
  305MOL0     C41958   7.856   6.873  11.070  0.0120 -0.4036  0.1036
  305MOL0     C41959   7.946   6.893  10.957  0.0364 -0.1498 -0.2441
  305MOL0     O41960   7.911   6.941  10.837 -0.1232  0.3765 -0.2722
  305MOL0     C41961   7.773   6.931  10.793  0.2384 -1.0447  0.0960
  305MOL0     C41962   7.684   7.061  10.789  0.2247 -0.0837 -1.1086
  305MOL0     C41963   7.543   7.027  10.736  0.1564 -0.3025  0.7309
  305MOL0     C41964   7.452   7.146  10.721 -0.7667 -0.6538  0.4622
  305MOL0     C41965   7.328   7.108  10.647 -0.4625  0.1002 -1.0492
  305MOL0     C41966   7.245   7.008  10.730  0.0718  0.1231  0.3485
  305MOL0     C41967   7.098   6.984  10.678 -0.6180 -0.9555  0.2817
  305MOL0     C41968   7.093   6.911  10.554 -0.0126  1.1058  0.5867
  305MOL0     N41969   6.957   6.927  10.507 -0.0570 -0.7192 -0.8636
  305MOL0     C41970   6.918   7.020  10.407  0.2488 -0.3832  0.0167
  305MOL0     C41971   6.792   6.978  10.374  0.4420 -0.8233  0.0207
  305MOL0     C41972   6.691   7.039  10.290 -0.0395 -0.3763 -1.1609
  305MOL0     C41973   6.642   6.947  10.181 -0.5850  1.7633  0.2755
  305MOL0     C41974   6.515   6.998  10.108 -0.9388  0.3804 -0.6167
  305MOL0     C41975   6.536   7.091   9.990  0.6377 -0.3349 -0.0436
  305MOL0     O41976   6.603   7.021   9.876  0.2245  0.7241 -0.3870
  305MOL0     C41977   6.530   6.957   9.779  0.3444 -0.2265 -0.9870
  305MOL0     C41978   6.499   6.823   9.797  0.0610  0.6887 -0.8707
  305MOL0     C41979   6.424   6.749   9.704  0.9626 -0.2134  1.4371
  305MOL0     C41980   6.396   6.601   9.732  0.0963 -0.0366  0.0897
  305MOL0     C41981   6.380   6.811   9.579  0.2864 -0.0817 -0.1531
  305MOL0     C41982   6.310   6.740   9.475 -1.0224  0.2400 -0.3155
  305MOL0     O41983   6.303   6.811   9.359 -0.2515 -0.1730 -0.4616
  305MOL0     C41984   6.210   6.790   9.256  0.0011 -0.3894 -0.1354
  305MOL0     C41985   6.158   6.901   9.196  0.7854 -0.0227  0.8896
  305MOL0     C41986   6.072   6.892   9.086 -0.8311  0.3334 -0.5556
  305MOL0     C41987   6.057   6.767   9.018 -0.8551 -0.5397 -0.1059
  305MOL0     O41988   5.987   6.767   8.898  0.8376 -0.3613 -0.9319
  305MOL0     C41989   5.899   6.648   8.881 -0.4328 -1.4071 -0.9101
  305MOL0     C41990   5.787   6.648   8.988  0.2838  0.2491  0.1736
  305MOL0     C41991   5.685   6.542   8.948  0.6327 -0.8067 -0.2630
  305MOL0     C41992   5.604   6.505   9.079 -0.2414  0.0467  0.5694
  305MOL0     C41993   5.492   6.405   9.037  0.6091  0.9682 -0.2754
  305MOL0     C41994   5.531   6.275   8.952  0.0247  0.1741  0.6399
  305MOL0     C41995   5.439   6.151   8.985  0.0365 -0.5001  0.0023
  305MOL0     C41996   5.295   6.194   8.967  0.7175  0.2923  0.2869
  305MOL0    Cl41997   5.258   6.248   8.796 -0.0861 -0.5937  0.0520
  305MOL0     C41998   6.116   6.647   9.076 -0.4168  0.3196 -0.6860
  305MOL0     C41999   6.183   6.661   9.200 -0.2385  0.1685  0.5024
  305MOL0     O42000   6.249   6.641   9.494  0.3825  0.2549 -0.5008
  305MOL0     C42001   6.417   6.947   9.562 -0.4601 -0.4346 -0.1434
  305MOL0     C42002   6.486   7.016   9.665  1.0167  1.4484  0.6436
  305MOL0     N42003   6.766   6.860  10.429 -0.6417  0.0955  0.2813
  305MOL0     N42004   6.862   6.833  10.509  0.3006  0.8982 -0.7755
  305MOL0     C42005   8.080   6.856  10.973 -0.1486  0.4788  0.1457
  305MOL0     C42006   8.130   6.809  11.101 -0.6630  0.1240  0.4357
  305MOL0     C42007   8.242   6.586  11.283  0.1044  0.0970  0.2895
  305MOL0     C42008   8.138   6.500  11.236 -0.3697  0.0096 -0.7224
  305MOL0     C42009   8.172   6.385  11.172  0.5920 -0.3837  0.2326
  305MOL0     C42010   8.306   6.342  11.142  0.3319 -0.2907 -0.1798
  305MOL0     O42011   8.353   6.234  11.079  0.1712 -0.3061 -0.2082
  305MOL0     C42012   8.274   6.112  11.072  0.2141 -0.2838 -0.1339
  305MOL0     C42013   8.272   6.037  11.203 -0.7076 -0.0222 -0.0006
  305MOL0     C42014   8.380   5.926  11.214 -0.1440 -0.1959  0.2450
  305MOL0     C42015   8.516   5.997  11.229 -0.2588 -0.7386 -1.0615
  305MOL0     C42016   8.607   5.893  11.216  0.6697  0.2596 -1.0544
  305MOL0     C42017   8.704   5.821  11.236  0.2533 -0.6820  0.7922
  305MOL0     C42018   8.403   6.424  11.199 -0.3698 -0.1748  0.1640
  305MOL0     C42019   8.382   6.543  11.263 -0.3619  0.2360  0.2443
  305MOL0     C42020   8.503   6.616  11.328 -0.2317  0.1897 -1.3411
  305MOL0     H42021   7.843   6.814  11.277  3.1014 -0.4069  2.4861
  305MOL0     H42022   7.750   6.898  11.067 -1.3298 -4.6169  3.1973
  305MOL0     H42023   7.715   6.852  10.841  0.2840 -1.6109 -0.7541
  305MOL0     H42024   7.771   6.896  10.689 -4.5035  1.2437 -0.8648
  305MOL0     H42025   7.680   7.119  10.882  2.7243  1.3180 -1.7694
  305MOL0     H42026   7.727   7.132  10.718 -2.9050  2.3555 -0.7692
  305MOL0     H42027   7.542   6.984  10.636 -0.3812  3.8892 -1.3007
  305MOL0     H42028   7.486   6.962  10.803 -1.1310 -0.1760 -0.1929
  305MOL0     H42029   7.426   7.189  10.818  2.4238  1.4420  0.5474
  305MOL0     H42030   7.510   7.224  10.669  1.0033 -1.0736  1.7034
  305MOL0     H42031   7.367   7.062  10.556 -0.9064 -2.4392 -0.0176
  305MOL0     H42032   7.268   7.193  10.615 -0.5134 -0.2332 -1.8531
  305MOL0     H42033   7.292   6.909  10.733  1.9371  0.9653  0.2340
  305MOL0     H42034   7.235   7.047  10.831 -1.6309 -0.8692  0.5952
  305MOL0     H42035   7.050   7.080  10.655 -0.4507 -0.9915 -0.2509
  305MOL0     H42036   7.043   6.941  10.762 -0.5050 -2.3626 -0.3489
  305MOL0     H42037   7.160   6.957  10.481  0.3797 -1.2023 -0.6237
  305MOL0     H42038   7.118   6.806  10.572 -2.4643  0.7794  2.7781
  305MOL0     H42039   6.983   7.098  10.370  0.5849  1.2401  3.6543
  305MOL0     H42040   6.727   7.138  10.258  1.3842 -0.4676  0.0571
  305MOL0     H42041   6.603   7.050  10.354 -0.6601  3.2663 -2.3648
  305MOL0     H42042   6.720   6.948  10.105  0.5176 -0.2352  1.3135
  305MOL0     H42043   6.636   6.849  10.228  3.1034  1.7458  0.9570
  305MOL0     H42044   6.459   6.913  10.068 -0.5055 -0.0553 -0.3006
  305MOL0     H42045   6.449   7.041  10.184  0.3166 -1.6549  1.7468
  305MOL0     H42046   6.437   7.118   9.951  0.4284  0.8739  1.2317
  305MOL0     H42047   6.586   7.186  10.010 -1.8062  1.2411 -0.8690
  305MOL0     H42048   6.545   6.771   9.881  0.6518  2.0370 -0.3219
  305MOL0     H42049   6.477   6.565   9.796 -1.0625 -1.3088  0.9205
  305MOL0     H42050   6.413   6.554   9.635  1.2406  1.0148 -0.2333
  305MOL0     H42051   6.298   6.577   9.775  0.6462  0.7982  1.9537
  305MOL0     H42052   6.173   6.994   9.250 -0.9974  2.9994 -3.3017
  305MOL0     H42053   6.033   6.983   9.041 -1.3127 -0.2037 -1.2489
  305MOL0     H42054   5.853   6.665   8.782  2.6980  2.7042 -1.9283
  305MOL0     H42055   5.959   6.558   8.890  0.2359 -0.8008  1.2279
  305MOL0     H42056   5.819   6.628   9.090  2.0121 -2.2268 -0.7575
  305MOL0     H42057   5.730   6.741   8.994 -1.1474 -0.6755  1.4651
  305MOL0     H42058   5.736   6.460   8.897 -1.4465 -0.7716 -2.6291
  305MOL0     H42059   5.617   6.580   8.870  1.1374  1.4774  0.3459
  305MOL0     H42060   5.545   6.587   9.121  0.1751  1.3149 -1.2228
  305MOL0     H42061   5.678   6.473   9.153 -0.0420  2.2530  1.4214
  305MOL0     H42062   5.439   6.381   9.130  2.4661  0.8629  0.8123
  305MOL0     H42063   5.413   6.456   8.981  0.4404  2.3380  1.1383
  305MOL0     H42064   5.636   6.246   8.958 -0.2726 -1.3741 -1.0451
  305MOL0     H42065   5.519   6.308   8.849 -0.6699  2.1434  1.2962
  305MOL0     H42066   5.460   6.112   9.085  1.3172  3.0237  1.2760
  305MOL0     H42067   5.459   6.065   8.922  1.3478 -0.8630  0.8578
  305MOL0     H42068   5.267   6.267   9.044  0.6396 -0.2423  0.7748
  305MOL0     H42069   5.236   6.106   8.989  1.0826  0.4686  2.1646
  305MOL0     H42070   6.108   6.544   9.045 -0.7465  0.1739 -0.1202
  305MOL0     H42071   6.231   6.571   9.238 -2.3910 -1.5700 -0.7225
  305MOL0     H42072   6.382   7.002   9.475  0.8535 -3.9138 -3.0960
  305MOL0     H42073   6.500   7.123   9.650  0.6423  1.5312  0.8780
  305MOL0     H42074   8.147   6.874  10.890 -1.5833  3.3323 -0.5561
  305MOL0     H42075   8.232   6.774  11.114 -1.4562 -1.3276  3.5631
  305MOL0     H42076   8.032   6.522  11.249 -0.2594  0.2538 -0.1851
  305MOL0     H42077   8.095   6.319  11.134  1.6989 -1.7466  0.2571
  305MOL0     H42078   8.167   6.132  11.057 -0.2187  0.1935  2.9495
  305MOL0     H42079   8.314   6.044  10.997  1.2117  2.2099 -2.0124
  305MOL0     H42080   8.182   5.979  11.223 -0.4460 -0.7063 -0.7468
  305MOL0     H42081   8.301   6.105  11.284 -0.3678 -0.4703  0.2588
  305MOL0     H42082   8.372   5.848  11.290  0.2749  0.2083  0.7095
  305MOL0     H42083   8.376   5.864  11.124  0.7537 -2.0351  1.3919
  305MOL0     H42084   8.513   6.047  11.327  2.0225 -0.4681 -1.0824
  305MOL0     H42085   8.533   6.068  11.148 -0.1420 -2.0813 -2.2382
  305MOL0     H42086   8.799   5.772  11.231 -0.3665 -1.8468 -0.3162
  305MOL0     H42087   8.504   6.384  11.187 -1.0924 -1.8997 -0.5834
  305MOL0     H42088   8.587   6.602  11.260  2.2887  2.7718  0.9783
  305MOL0     H42089   8.488   6.725  11.331 -0.9120  0.0830  1.0004
  305MOL0     H42090   8.533   6.589  11.430  3.1253 -0.1812 -2.3108
  306MOL0     O42091   3.638  10.425   0.802  0.2385  0.2892  0.5908
  306MOL0     C42092   3.635  10.532   0.864 -0.6234 -0.9647 -1.2488
  306MOL0     O42093   3.528  10.620   0.861 -0.3752 -0.5224  0.1157
  306MOL0     C42094   3.435  10.621   0.762  0.5628 -0.4679 -0.1816
  306MOL0     C42095   3.315  10.685   0.803 -0.5762 -0.4058 -0.2058
  306MOL0     C42096   3.210  10.712   0.721 -0.7278 -0.4680  0.3229
  306MOL0     C42097   3.212  10.677   0.585 -0.3200 -0.2411  0.4443
  306MOL0     O42098   3.096  10.676   0.505 -0.2716  0.8226 -0.4520
  306MOL0     C42099   3.105  10.637   0.362  0.5134 -0.4480  0.5649
  306MOL0     C42100   2.970  10.683   0.289  0.3656 -0.8499 -0.3965
  306MOL0     C42101   2.956  10.641   0.145 -0.0476 -1.1320 -0.7200
  306MOL0     C42102   2.820  10.687   0.090  0.5620  0.7071  0.0962
  306MOL0     C42103   2.815  10.629  -0.043 -0.1052  0.6213  0.1546
  306MOL0     C42104   2.702  10.681  -0.128 -0.1314 -0.0925 -0.1541
  306MOL0     C42105   2.700  10.615  -0.262 -0.9057  0.7883 -0.6427
  306MOL0     C42106   2.584  10.642  -0.361  0.6006  0.3854 -0.0349
  306MOL0     N42107   2.593  10.560  -0.493  0.6504  0.3427  0.5090
  306MOL0     C42108   2.507  10.461  -0.533  0.2915 -1.1243  1.1870
  306MOL0     C42109   2.519  10.457  -0.665 -0.1803  0.5159  0.6060
  306MOL0     C42110   2.432  10.375  -0.760  0.1231  0.1525 -0.3564
  306MOL0     C42111   2.500  10.239  -0.782  1.0806  0.8325 -1.0615
  306MOL0     C42112   2.647  10.241  -0.832 -0.4710  0.2684 -0.6072
  306MOL0     C42113   2.661  10.306  -0.976 -0.3060 -1.2832  0.3847
  306MOL0     O42114   2.579  10.226  -1.068 -0.2974  0.4340 -0.3596
  306MOL0     C42115   2.582  10.257  -1.202 -0.5737 -0.5243 -0.0968
  306MOL0     C42116   2.575  10.386  -1.243 -0.2812 -0.3872  0.7410
  306MOL0     C42117   2.571  10.412  -1.380  0.4923 -1.2667  0.6018
  306MOL0     C42118   2.566  10.556  -1.422 -0.0354 -1.0759 -0.9547
  306MOL0     C42119   2.586  10.312  -1.481  1.3025 -0.0417 -0.1882
  306MOL0     C42120   2.616  10.331  -1.632  0.1545  0.0532  0.0411
  306MOL0     O42121   2.698  10.244  -1.688  0.5941  0.2912  0.4462
  306MOL0     C42122   2.702  10.228  -1.822  0.8204 -0.3074  0.7748
  306MOL0     C42123   2.823  10.205  -1.888 -0.0587  0.0000 -0.4205
  306MOL0     C42124   2.833  10.171  -2.023 -0.2612 -0.6796 -0.1250
  306MOL0     C42125   2.721  10.149  -2.095  0.3307 -0.5206  0.2752
  306MOL0     O42126   2.739  10.089  -2.215 -0.6023 -0.3039  1.2024
  306MOL0     C42127   2.617  10.050  -2.291 -0.2955  0.3747  0.5478
  306MOL0     C42128   2.675   9.965  -2.405  0.4536  0.0756 -0.5278
  306MOL0     C42129   2.747  10.055  -2.505  0.7805 -0.5852 -0.0431
  306MOL0     C42130   2.656  10.093  -2.612  0.1969  0.0808  0.0834
  306MOL0     C42131   2.692  10.186  -2.732  0.5458 -0.5565  0.5162
  306MOL0     C42132   2.569  10.206  -2.835 -0.2234 -0.5030  0.4351
  306MOL0     C42133   2.533  10.075  -2.897 -0.5445 -0.7756  0.2455
  306MOL0     C42134   2.412  10.080  -2.982  0.1014 -0.2226 -0.6435
  306MOL0    Cl42135   2.289  10.176  -2.896 -0.1852 -0.3014  0.2220
  306MOL0     C42136   2.596  10.171  -2.030 -0.1204 -0.5224 -0.1588
  306MOL0     C42137   2.586  10.210  -1.898 -0.7915 -0.3544 -0.8186
  306MOL0     O42138   2.558  10.420  -1.700  0.6271  0.6641 -0.0358
  306MOL0     C42139   2.594  10.183  -1.431  0.9732  0.2312  0.3598
  306MOL0     C42140   2.576  10.156  -1.295 -0.0092 -0.0598  0.2616
  306MOL0     N42141   2.619  10.546  -0.709 -0.5092  0.8454 -0.0175
  306MOL0     N42142   2.662  10.598  -0.601  0.7255  0.0997 -0.9781
  306MOL0     C42143   3.328  10.614   0.543  0.3328  0.9648  0.7255
  306MOL0     C42144   3.440  10.588   0.623  0.7435  1.2104 -0.9308
  306MOL0     C42145   3.760  10.591   0.923  0.7340  0.3109  0.8894
  306MOL0     C42146   3.737  10.655   1.051 -0.2467  0.6652 -0.0071
  306MOL0     C42147   3.852  10.707   1.117  0.0963  0.1945 -0.3158
  306MOL0     C42148   3.982  10.683   1.066 -0.7569 -0.4985  0.4011
  306MOL0     O42149   4.102  10.717   1.126  0.4384  0.0975 -0.0252
  306MOL0     C42150   4.138  10.638   1.237  0.3521  0.0292 -0.3847
  306MOL0     C42151   4.248  10.709   1.316  0.6738 -0.3205  1.1883
  306MOL0     C42152   4.387  10.711   1.248 -0.0314 -0.3053  0.3055
  306MOL0     C42153   4.482  10.801   1.329 -0.5935 -0.6038  0.3451
  306MOL0     C42154   4.596  10.864   1.250  0.2466 -0.0819  0.2397
  306MOL0     C42155   4.677  10.917   1.177  1.1272 -1.3438  0.0611
  306MOL0     C42156   3.994  10.607   0.947 -0.0904 -0.1758  0.0220
  306MOL0     C42157   3.887  10.567   0.865  0.5730 -0.6271  0.0261
  306MOL0     C42158   3.911  10.509   0.740  0.0975 -0.2842 -0.3923
  306MOL0     H42159   3.294  10.695   0.909  2.0307  0.4823  0.3181
  306MOL0     H42160   3.117  10.739   0.769 -1.3239 -3.1794  0.8279
  306MOL0     H42161   3.114  10.529   0.348  0.4561 -0.1351 -2.7156
  306MOL0     H42162   3.188  10.688   0.314  1.1401 -1.3181  0.7067
  306MOL0     H42163   2.884  10.642   0.343 -2.0072  2.4395 -1.3528
  306MOL0     H42164   2.961  10.792   0.299 -0.8318 -1.1428  4.2642
  306MOL0     H42165   3.039  10.692   0.095  0.8452 -2.0168 -0.1776
  306MOL0     H42166   2.979  10.535   0.132  2.9621 -0.5969 -0.6022
  306MOL0     H42167   2.733  10.650   0.146  0.6023  1.9758  1.0435
  306MOL0     H42168   2.816  10.796   0.087 -1.7683  0.7796  2.2320
  306MOL0     H42169   2.805  10.520  -0.037 -1.1116  0.6756 -0.3746
  306MOL0     H42170   2.912  10.653  -0.088 -0.2423  1.6156  0.3634
  306MOL0     H42171   2.607  10.662  -0.078 -1.3927  0.8671 -2.0874
  306MOL0     H42172   2.714  10.789  -0.142 -1.0552  0.2770  1.5624
  306MOL0     H42173   2.687  10.507  -0.248 -0.1784  0.6471 -1.0137
  306MOL0     H42174   2.796  10.644  -0.306  1.2527  0.7777  3.5458
  306MOL0     H42175   2.493  10.621  -0.305  0.9088  2.7670  1.4881
  306MOL0     H42176   2.578  10.748  -0.388  1.3506  0.5786  0.5310
  306MOL0     H42177   2.435  10.398  -0.483 -0.4053 -1.4457 -0.1540
  306MOL0     H42178   2.421  10.422  -0.858  0.0585  0.7374 -0.0722
  306MOL0     H42179   2.332  10.379  -0.717  0.3659 -0.9274  0.3605
  306MOL0     H42180   2.514  10.193  -0.683  1.4510  3.5483  0.2196
  306MOL0     H42181   2.433  10.169  -0.834  1.2233 -1.3122  1.4016
  306MOL0     H42182   2.700  10.307  -0.763 -2.1630  1.8303 -0.7039
  306MOL0     H42183   2.691  10.142  -0.828 -1.3173 -0.3096 -3.5157
  306MOL0     H42184   2.632  10.412  -0.973  0.0670 -1.0723 -2.0370
  306MOL0     H42185   2.768  10.313  -1.001  0.1994 -5.1200  0.8594
  306MOL0     H42186   2.575  10.469  -1.172  0.8828  0.4189 -0.1744
  306MOL0     H42187   2.465  10.581  -1.457 -0.6264  1.7653  2.1439
  306MOL0     H42188   2.643  10.578  -1.496 -0.4707 -0.1127 -1.1440
  306MOL0     H42189   2.583  10.627  -1.340 -1.2504  3.4170 -4.1537
  306MOL0     H42190   2.910  10.220  -1.825  0.5709 -3.5154 -0.2394
  306MOL0     H42191   2.929  10.153  -2.071 -0.1721  0.9242 -0.6042
  306MOL0     H42192   2.554   9.989  -2.226 -1.6882 -1.9853 -2.7483
  306MOL0     H42193   2.556  10.124  -2.343 -1.6053 -1.6561 -0.9977
  306MOL0     H42194   2.746   9.892  -2.365  0.9626 -0.1592 -1.8199
  306MOL0     H42195   2.597   9.920  -2.466 -0.3580  1.7492 -0.7938
  306MOL0     H42196   2.826   9.993  -2.547 -0.2724 -0.6059 -2.0958
  306MOL0     H42197   2.784  10.143  -2.452  1.4997 -0.7202 -0.3084
  306MOL0     H42198   2.562  10.136  -2.575 -1.3932 -1.6876 -1.6631
  306MOL0     H42199   2.624   9.995  -2.649 -3.0142  0.7363  0.7800
  306MOL0     H42200   2.721  10.283  -2.691  3.4717 -1.9636  2.0518
  306MOL0     H42201   2.785  10.149  -2.775  2.2540  1.9255  1.8539
  306MOL0     H42202   2.599  10.281  -2.910 -0.0426  0.5850  1.5617
  306MOL0     H42203   2.491  10.247  -2.771 -0.3037  0.2894 -0.1551
  306MOL0     H42204   2.504  10.005  -2.817 -0.7646 -0.9434  0.0219
  306MOL0     H42205   2.621  10.045  -2.955  0.1369 -0.0480  0.8937
  306MOL0     H42206   2.378   9.985  -3.025  0.9137 -0.4677 -0.7625
  306MOL0     H42207   2.447  10.142  -3.065  2.2955 -0.9366 -0.3197
  306MOL0     H42208   2.501  10.169  -2.083 -1.2769 -1.2478  1.8114
  306MOL0     H42209   2.490  10.235  -1.854  1.3326  0.5525  3.9678
  306MOL0     H42210   2.601  10.104  -1.506 -1.1004  0.3933 -0.0814
  306MOL0     H42211   2.577  10.051  -1.269 -3.0739 -0.5381 -1.1919
  306MOL0     H42212   3.338  10.566   0.447 -1.9014  0.0018  0.9181
  306MOL0     H42213   3.517  10.533   0.571 -0.2718 -0.2923 -0.8920
  306MOL0     H42214   3.636  10.663   1.090 -0.2634  1.6068 -0.2321
  306MOL0     H42215   3.834  10.756   1.212 -0.1999  0.1707 -0.3572
  306MOL0     H42216   4.059  10.624   1.311  0.8139 -2.2820 -0.2615
  306MOL0     H42217   4.167  10.539   1.199  0.6780 -1.0463  2.4264
  306MOL0     H42218   4.255  10.672   1.419 -1.9454  2.8828  2.7184
  306MOL0     H42219   4.221  10.815   1.322  1.7821 -0.0368  1.2380
  306MOL0     H42220   4.424  10.609   1.237  0.2964 -0.1917  0.3701
  306MOL0     H42221   4.375  10.748   1.145  1.0942 -0.8740 -0.0432
  306MOL0     H42222   4.528  10.737   1.406 -0.0128 -2.5741 -1.5271
  306MOL0     H42223   4.420  10.879   1.372 -3.5953 -3.1271  0.9653
  306MOL0     H42224   4.756  10.962   1.120  2.6194 -1.2521  2.1079
  306MOL0     H42225   4.093  10.571   0.922  0.1114  0.0505  0.4879
  306MOL0     H42226   3.834  10.519   0.662  1.5051  0.5262 -1.7226
  306MOL0     H42227   4.002  10.550   0.697  0.6694 -1.2392 -0.1257
  306MOL0     H42228   3.931  10.402   0.751 -0.2886 -0.4885 -1.5168
  307MOL0     O42229   7.993   1.185   5.478 -0.3734 -1.0479 -0.2343
  307MOL0     C42230   7.914   1.104   5.523 -0.6483 -0.3550 -0.3552
  307MOL0     O42231   7.916   0.969   5.501 -0.3460 -0.9089 -0.3467
  307MOL0     C42232   8.004   0.917   5.407 -0.3698  1.0784 -0.8008
  307MOL0     C42233   7.958   0.861   5.284 -0.1322  0.2038  0.0973
  307MOL0     C42234   8.044   0.809   5.192 -0.1044  0.5528  0.1426
  307MOL0     C42235   8.178   0.802   5.223 -0.4694  0.3900  0.9173
  307MOL0     O42236   8.262   0.736   5.126  0.4432  0.5497  0.5286
  307MOL0     C42237   8.397   0.713   5.157 -0.3928 -0.2548  0.4970
  307MOL0     C42238   8.475   0.710   5.020 -0.6312  0.3136 -0.1843
  307MOL0     C42239   8.620   0.654   5.027 -0.1164 -0.5224 -0.7501
  307MOL0     C42240   8.717   0.766   5.066 -0.3685  0.0581  0.8696
  307MOL0     C42241   8.859   0.718   5.113 -0.1538  0.5663 -0.1088
  307MOL0     C42242   8.929   0.831   5.195  0.0776  0.0222  0.3874
  307MOL0     C42243   9.083   0.804   5.173  0.3757  0.9128 -0.5011
  307MOL0     C42244   9.174   0.887   5.247  0.0249  0.8354  0.1986
  307MOL0     N42245   9.198   1.009   5.175 -0.3942 -0.4837  0.4128
  307MOL0     C42246   9.268   1.027   5.057 -0.0057 -0.7031 -0.0288
  307MOL0     C42247   9.299   1.163   5.063  0.9335 -0.2404 -0.3098
  307MOL0     C42248   9.389   1.233   4.959 -0.2771 -0.1100  0.0944
  307MOL0     C42249   9.485   1.337   5.018  0.3584  0.4817 -0.7154
  307MOL0     C42250   9.577   1.279   5.122 -0.3176 -1.0319 -0.0226
  307MOL0     C42251   9.697   1.372   5.151 -0.0655 -0.9233 -0.0609
  307MOL0     O42252   9.652   1.505   5.185 -0.5633 -0.1388 -0.1681
  307MOL0     C42253   9.744   1.602   5.199  0.0729 -0.6079  0.3153
  307MOL0     C42254   9.880   1.589   5.174  1.2437  0.2597  0.3282
  307MOL0     C42255   9.967   1.702   5.186  0.8825 -0.5291  0.6687
  307MOL0     C42256  10.120   1.679   5.159  0.7908 -0.1702 -0.3083
  307MOL0     C42257   9.914   1.830   5.225  1.0239  0.1841  0.1772
  307MOL0     C42258   9.992   1.953   5.243 -0.4419  0.4282  0.2203
  307MOL0     O42259   9.934   2.064   5.296  0.4914  0.0140 -0.1137
  307MOL0     C42260  10.023   2.155   5.343  0.9497 -0.9715  0.2680
  307MOL0     C42261  10.078   2.262   5.259  0.2242 -0.1024 -0.8793
  307MOL0     C42262  10.176   2.349   5.311  0.1802 -0.3558  0.8151
  307MOL0     C42263  10.228   2.333   5.439 -0.1927 -0.8161  0.0712
  307MOL0     O42264  10.323   2.422   5.497  0.3084  0.6237  0.1235
  307MOL0     C42265  10.393   2.387   5.621  0.0160 -0.1482  0.4468
  307MOL0     C42266  10.511   2.480   5.640  0.0252  0.2367 -0.2682
  307MOL0     C42267  10.613   2.432   5.741  0.2495 -0.5745  0.2051
  307MOL0     C42268  10.539   2.442   5.879 -0.1745  0.1281 -0.7872
  307MOL0     C42269  10.630   2.429   6.001 -0.3520 -0.9554  0.1087
  307MOL0     C42270  10.566   2.359   6.125 -0.4013  0.3579 -0.4250
  307MOL0     C42271  10.646   2.364   6.256  0.0174  0.7879 -0.5364
  307MOL0     C42272  10.605   2.245   6.351 -0.0264 -0.4673  1.8968
  307MOL0    Cl42273  10.458   2.280   6.442  0.1981  0.7748 -0.5606
  307MOL0     C42274  10.162   2.241   5.524  0.5820  0.6818 -0.3326
  307MOL0     C42275  10.068   2.155   5.478  0.1701  0.1203 -0.3790
  307MOL0     O42276  10.110   1.944   5.227  0.0309 -0.2316  0.7337
  307MOL0     C42277   9.782   1.833   5.261  0.4142  0.5428 -0.0558
  307MOL0     C42278   9.695   1.730   5.237 -0.2118 -0.4332  0.0115
  307MOL0     N42279   9.251   1.216   5.178  0.1743  0.2561 -0.0911
  307MOL0     N42280   9.186   1.127   5.243  0.5863 -0.1772 -0.2197
  307MOL0     C42281   8.219   0.859   5.341  0.1131  0.3061 -0.4049
  307MOL0     C42282   8.134   0.916   5.430 -0.5265 -0.2175 -0.2861
  307MOL0     C42283   7.826   1.160   5.632  0.2408  0.3523 -0.4829
  307MOL0     C42284   7.728   1.074   5.682  0.3656  0.2684  0.0410
  307MOL0     C42285   7.645   1.102   5.788 -0.0822 -0.4601  0.2935
  307MOL0     C42286   7.651   1.226   5.844  0.5674 -1.0696 -0.2609
  307MOL0     O42287   7.562   1.248   5.956  0.2333 -0.4869  0.7117
  307MOL0     C42288   7.546   1.382   5.995 -0.1980 -0.5016  0.4979
  307MOL0     C42289   7.433   1.360   6.099  0.2616 -0.4740 -0.1721
  307MOL0     C42290   7.362   1.494   6.111  0.7891  0.2849  0.0172
  307MOL0     C42291   7.238   1.472   6.189 -0.1910 -0.2032  0.0276
  307MOL0     C42292   7.195   1.605   6.229 -0.2184 -0.1798  0.6023
  307MOL0     C42293   7.144   1.712   6.248 -0.3155 -0.6414  0.9648
  307MOL0     C42294   7.751   1.318   5.801 -0.1843  0.1155  0.1308
  307MOL0     C42295   7.844   1.290   5.694  0.1069 -0.5023 -0.0235
  307MOL0     C42296   7.938   1.401   5.650 -0.3860 -1.1873 -0.2561
  307MOL0     H42297   7.850   0.856   5.270 -0.3501  2.8354  0.3314
  307MOL0     H42298   8.016   0.757   5.100 -1.0737  0.1435  0.6580
  307MOL0     H42299   8.396   0.608   5.190 -0.8498 -1.0153 -1.7404
  307MOL0     H42300   8.442   0.782   5.230 -1.1437  0.9828 -0.1801
  307MOL0     H42301   8.414   0.651   4.951 -1.0242 -2.5770  2.4131
  307MOL0     H42302   8.473   0.812   4.981  0.4032 -0.0671 -1.2888
  307MOL0     H42303   8.616   0.577   5.105  0.6106  0.7654  0.6372
  307MOL0     H42304   8.638   0.611   4.929 -2.6089 -0.4072 -1.3357
  307MOL0     H42305   8.723   0.846   4.991  1.8318 -0.4717  0.4082
  307MOL0     H42306   8.673   0.810   5.157 -0.0361  1.2842  0.4634
  307MOL0     H42307   8.915   0.703   5.020  0.1421  1.2222 -0.0435
  307MOL0     H42308   8.856   0.622   5.166 -0.5933  1.1544  0.9606
  307MOL0     H42309   8.902   0.928   5.152 -0.4621 -0.2314  0.1544
  307MOL0     H42310   8.886   0.826   5.295 -1.9613  0.1568 -0.4432
  307MOL0     H42311   9.107   0.799   5.066  2.4446 -0.7720 -0.0214
  307MOL0     H42312   9.108   0.707   5.217 -3.8208 -0.9003 -1.5925
  307MOL0     H42313   9.137   0.899   5.349 -2.2098  0.8427 -0.5561
  307MOL0     H42314   9.269   0.834   5.245 -0.7793 -0.6509 -0.7633
  307MOL0     H42315   9.307   0.964   4.978 -0.1214 -1.6997  0.6927
  307MOL0     H42316   9.336   1.291   4.883 -2.5045 -0.2513  1.4396
  307MOL0     H42317   9.440   1.143   4.923 -2.1815 -2.7957  3.4340
  307MOL0     H42318   9.547   1.371   4.934  0.2876 -0.6352 -1.2407
  307MOL0     H42319   9.417   1.410   5.063 -1.9909 -2.6242  1.1686
  307MOL0     H42320   9.518   1.263   5.212 -0.4562  0.8341  0.2427
  307MOL0     H42321   9.605   1.186   5.070 -1.7445 -0.8324 -1.1896
  307MOL0     H42322   9.757   1.340   5.237  1.9358  3.6475  0.5448
  307MOL0     H42323   9.762   1.375   5.063 -0.8378  1.7763 -0.6224
  307MOL0     H42324   9.910   1.487   5.154  0.1272 -0.5798  2.6929
  307MOL0     H42325  10.138   1.571   5.150  1.9006  0.0273 -0.6427
  307MOL0     H42326  10.183   1.713   5.242  2.1339 -1.5289 -0.7369
  307MOL0     H42327  10.149   1.719   5.061 -1.7806 -4.0062 -2.9132
  307MOL0     H42328  10.054   2.269   5.153 -1.5068  0.7412 -0.4748
  307MOL0     H42329  10.227   2.414   5.241  0.2344  0.3197  1.4723
  307MOL0     H42330  10.324   2.390   5.706 -1.2268 -1.6250 -0.4552
  307MOL0     H42331  10.443   2.290   5.615  1.8437  0.7795 -0.5982
  307MOL0     H42332  10.572   2.463   5.551 -0.5934 -1.5004 -0.3882
  307MOL0     H42333  10.482   2.585   5.643 -2.5654 -0.3468 -1.7408
  307MOL0     H42334  10.709   2.481   5.755  0.7482 -2.0409  2.5236
  307MOL0     H42335  10.633   2.325   5.727  0.8214 -0.4044 -0.3228
  307MOL0     H42336  10.469   2.360   5.893  1.9237 -1.2507  3.0451
  307MOL0     H42337  10.486   2.537   5.895  0.0918 -0.1079  1.9255
  307MOL0     H42338  10.713   2.359   5.983 -2.7782 -3.8053 -0.7458
  307MOL0     H42339  10.665   2.528   6.030 -2.0536  0.6426 -2.7886
  307MOL0     H42340  10.549   2.254   6.103  2.0072  0.6152 -4.5951
  307MOL0     H42341  10.463   2.391   6.140 -0.5498 -0.9326  1.6414
  307MOL0     H42342  10.627   2.448   6.323  2.7553 -0.4987  2.1380
  307MOL0     H42343  10.752   2.349   6.232  0.0792  2.3054 -1.2858
  307MOL0     H42344  10.689   2.226   6.418  2.4429  0.1642 -0.8426
  307MOL0     H42345  10.584   2.152   6.299  0.2431  0.4150  0.1543
  307MOL0     H42346  10.184   2.237   5.630 -1.7022  2.9305  0.3161
  307MOL0     H42347  10.024   2.089   5.553 -0.0400 -1.0181 -1.4664
  307MOL0     H42348   9.743   1.920   5.314 -1.6850  1.7971 -3.3212
  307MOL0     H42349   9.587   1.728   5.226 -0.4469 -1.9344  2.0823
  307MOL0     H42350   8.324   0.848   5.367 -0.7561 -1.3303  3.0415
  307MOL0     H42351   8.169   0.940   5.531 -0.0399  0.0762 -0.5193
  307MOL0     H42352   7.709   0.972   5.649  0.5321  0.7433 -1.5693
  307MOL0     H42353   7.567   1.037   5.826 -0.1718 -1.2347 -1.1512
  307MOL0     H42354   7.632   1.430   6.042 -0.2668  2.4334 -2.0743
  307MOL0     H42355   7.524   1.454   5.915  1.4168 -1.2033 -0.6354
  307MOL0     H42356   7.473   1.329   6.196  0.5994 -1.5717 -0.6488
  307MOL0     H42357   7.359   1.293   6.055  1.6889  0.7557 -5.0857
  307MOL0     H42358   7.429   1.567   6.156  2.5903 -0.8818 -0.6607
  307MOL0     H42359   7.345   1.534   6.010 -2.1915  0.5255  0.5324
  307MOL0     H42360   7.262   1.417   6.280  0.3801 -0.0764 -0.0411
  307MOL0     H42361   7.161   1.424   6.128 -1.2011  2.0369 -0.5677
  307MOL0     H42362   7.091   1.805   6.253 -1.0310 -1.0654  1.6036
  307MOL0     H42363   7.769   1.416   5.843  3.4463 -0.5791  0.5998
  307MOL0     H42364   7.934   1.418   5.542 -0.7023 -1.4687 -0.2926
  307MOL0     H42365   7.919   1.504   5.679  0.3214 -1.7928  2.7868
  307MOL0     H42366   8.044   1.382   5.672  0.8211  1.5310 -3.0276
  308MOL0     O42367   6.884   8.972   3.835  0.1953  0.3329  0.0809
  308MOL0     C42368   6.889   9.062   3.753  0.8612  0.2144  0.5306
  308MOL0     O42369   6.989   9.075   3.655  0.9396 -0.2200 -0.7515
  308MOL0     C42370   7.105   9.003   3.666  0.4924  0.5416 -0.1957
  308MOL0     C42371   7.149   8.951   3.792  0.3133  0.5029  0.3800
  308MOL0     C42372   7.264   8.868   3.795  0.0600  0.0574 -0.1581
  308MOL0     C42373   7.340   8.845   3.678 -0.7678 -0.3709 -0.8157
  308MOL0     O42374   7.451   8.778   3.688  0.5927  0.0169  0.0538
  308MOL0     C42375   7.431   8.638   3.702 -0.2220  0.1265 -0.6472
  308MOL0     C42376   7.486   8.564   3.578 -0.7270 -0.1703  0.6473
  308MOL0     C42377   7.379   8.553   3.457 -0.8544  0.6155  0.4171
  308MOL0     C42378   7.419   8.471   3.340 -0.0460 -0.4145 -0.3376
  308MOL0     C42379   7.354   8.335   3.309  0.6150  0.4886 -0.4447
  308MOL0     C42380   7.198   8.323   3.278  0.0041 -0.1188 -0.3240
  308MOL0     C42381   7.160   8.393   3.145 -0.7355 -0.5313 -1.1292
  308MOL0     C42382   7.009   8.433   3.144  1.1106 -0.1798 -1.2732
  308MOL0     N42383   6.976   8.546   3.233 -0.3359 -0.3645 -0.2310
  308MOL0     C42384   6.889   8.538   3.342  0.2239 -1.0801 -0.8009
  308MOL0     C42385   6.894   8.654   3.392  0.2326 -0.0624 -1.2568
  308MOL0     C42386   6.819   8.694   3.514 -0.2112  0.2846 -0.0958
  308MOL0     C42387   6.905   8.687   3.640 -0.4909  0.5105 -0.1490
  308MOL0     C42388   6.948   8.542   3.692 -0.5475  0.4406  0.8224
  308MOL0     C42389   7.048   8.561   3.805  0.4100 -0.5153  0.9534
  308MOL0     O42390   6.966   8.609   3.917 -0.0120  0.4238  0.0674
  308MOL0     C42391   7.047   8.669   4.014 -0.0108 -1.1408  0.4227
  308MOL0     C42392   7.010   8.787   4.078  0.5675  0.9967 -0.0456
  308MOL0     C42393   7.092   8.852   4.174  0.3822  0.6758  0.0716
  308MOL0     C42394   7.049   8.984   4.214 -0.2405 -0.0287 -0.7792
  308MOL0     C42395   7.219   8.796   4.198  0.2192  0.3674 -0.2889
  308MOL0     C42396   7.320   8.846   4.290  0.8513  0.0656  0.9634
  308MOL0     O42397   7.402   8.757   4.345 -0.4569  0.1316 -0.3300
  308MOL0     C42398   7.512   8.805   4.416 -0.6058  0.9474 -0.2311
  308MOL0     C42399   7.586   8.921   4.385 -0.1513 -0.0687 -0.9259
  308MOL0     C42400   7.702   8.939   4.443  0.0188  0.9880  0.4944
  308MOL0     C42401   7.755   8.850   4.540 -0.9908 -0.4843  0.0831
  308MOL0     O42402   7.880   8.883   4.594  0.5648 -0.6405 -0.2998
  308MOL0     C42403   7.954   8.780   4.669  0.9909 -0.3512 -0.2186
  308MOL0     C42404   8.101   8.833   4.691 -0.2347  0.2276 -0.2644
  308MOL0     C42405   8.183   8.881   4.566  0.1899  0.5637 -0.2964
  308MOL0     C42406   8.320   8.903   4.597  0.3411 -0.0280  0.6041
  308MOL0     C42407   8.356   9.042   4.651  0.7110  0.2442 -0.3722
  308MOL0     C42408   8.347   9.159   4.550  0.0569 -0.0036  0.4383
  308MOL0     C42409   8.377   9.300   4.607 -0.7160 -0.5495 -0.8666
  308MOL0     C42410   8.365   9.406   4.496 -0.1292  0.2773 -0.3448
  308MOL0    Cl42411   8.196   9.413   4.444 -0.3578  0.2224 -0.0189
  308MOL0     C42412   7.673   8.747   4.590 -0.0896  0.4632 -0.3749
  308MOL0     C42413   7.550   8.730   4.522  0.5653 -0.0682 -0.1910
  308MOL0     O42414   7.335   8.965   4.268 -0.4146 -0.5618 -0.7285
  308MOL0     C42415   7.251   8.680   4.128 -0.6275  0.2890  0.0459
  308MOL0     C42416   7.166   8.613   4.045  0.8157  0.7107 -0.1725
  308MOL0     N42417   6.978   8.734   3.315 -0.3663  0.6530 -1.3723
  308MOL0     N42418   7.037   8.669   3.230  0.5209  0.8747 -0.0159
  308MOL0     C42419   7.301   8.908   3.554 -0.2407 -0.0193  0.1587
  308MOL0     C42420   7.175   8.977   3.547  0.1972 -0.3066  0.4912
  308MOL0     C42421   6.794   9.173   3.761  0.6056  0.0843  0.4639
  308MOL0     C42422   6.781   9.256   3.653  0.1653 -0.3228  0.5826
  308MOL0     C42423   6.691   9.366   3.655  0.7529  0.5692 -0.0696
  308MOL0     C42424   6.607   9.395   3.767 -0.1905 -0.4070  1.0163
  308MOL0     O42425   6.511   9.494   3.776  0.5027  0.0270 -0.0027
  308MOL0     C42426   6.479   9.571   3.652  0.4334  0.5066  0.1955
  308MOL0     C42427   6.338   9.633   3.691  0.1908 -0.3032  0.3212
  308MOL0     C42428   6.274   9.721   3.575 -0.2688  1.3174  0.6872
  308MOL0     C42429   6.348   9.848   3.532 -0.1788  0.9605 -0.7082
  308MOL0     C42430   6.310   9.965   3.605  0.3514 -0.8270 -0.2752
  308MOL0     C42431   6.298  10.074   3.676 -0.3399  1.5850 -0.2119
  308MOL0     C42432   6.629   9.311   3.873 -0.1470 -0.4013  0.6164
  308MOL0     C42433   6.706   9.199   3.871 -0.4879 -0.8350  0.2893
  308MOL0     C42434   6.708   9.122   4.004  0.0427 -0.3993  0.2309
  308MOL0     H42435   7.114   8.971   3.892  2.1985  2.1453  0.7844
  308MOL0     H42436   7.279   8.816   3.889  0.0127 -0.8723 -0.6530
  308MOL0     H42437   7.326   8.619   3.723 -0.2686  2.1181  1.3646
  308MOL0     H42438   7.494   8.609   3.786 -0.7691 -0.9303 -0.5851
  308MOL0     H42439   7.576   8.616   3.544  0.9644 -3.7156 -0.8904
  308MOL0     H42440   7.510   8.464   3.615 -2.3673  0.0559  2.4495
  308MOL0     H42441   7.286   8.513   3.500  0.2464 -2.5122  0.1156
  308MOL0     H42442   7.363   8.657   3.426 -0.1291  1.2169  1.9706
  308MOL0     H42443   7.409   8.541   3.256  0.7735  6.3802  4.3644
  308MOL0     H42444   7.524   8.443   3.348  0.8005  2.7027  1.0898
  308MOL0     H42445   7.376   8.258   3.384 -3.8832  0.5747  1.2426
  308MOL0     H42446   7.403   8.307   3.215  1.1723  1.5255 -0.4753
  308MOL0     H42447   7.163   8.220   3.263 -0.9141  0.2781 -1.0125
  308MOL0     H42448   7.129   8.357   3.357 -1.1667 -2.3910 -0.2580
  308MOL0     H42449   7.194   8.328   3.064  1.9588 -2.8071  1.5480
  308MOL0     H42450   7.208   8.491   3.134 -1.4996 -0.1550 -1.1596
  308MOL0     H42451   6.982   8.457   3.040  1.9596  3.3331 -0.8232
  308MOL0     H42452   6.947   8.349   3.176  0.0733  0.2529 -2.0831
  308MOL0     H42453   6.808   8.470   3.366 -0.6927  0.1493 -0.2770
  308MOL0     H42454   6.720   8.649   3.521 -0.7689  1.6747  1.8041
  308MOL0     H42455   6.789   8.799   3.503 -0.6040 -0.0662 -3.1157
  308MOL0     H42456   6.993   8.747   3.617 -0.1728  0.4045  0.7525
  308MOL0     H42457   6.854   8.733   3.726 -0.4922  1.0627 -0.4426
  308MOL0     H42458   6.859   8.493   3.732 -3.2816  3.2414 -1.4053
  308MOL0     H42459   7.003   8.480   3.620 -0.5589  0.9845  0.3377
  308MOL0     H42460   7.085   8.467   3.847 -2.1251 -0.8253  2.7336
  308MOL0     H42461   7.119   8.637   3.772 -0.9894  0.5272  0.2481
  308MOL0     H42462   6.913   8.826   4.049 -0.7012 -1.4959  0.5524
  308MOL0     H42463   7.129   9.050   4.180  1.0539  0.2576  2.4618
  308MOL0     H42464   7.057   8.986   4.323  0.2602 -0.3497 -0.8099
  308MOL0     H42465   6.954   9.032   4.187 -0.3434 -1.3669 -3.0360
  308MOL0     H42466   7.549   8.995   4.314 -2.4547 -0.4823 -0.2377
  308MOL0     H42467   7.750   9.033   4.416 -0.6103  0.5743 -2.4143
  308MOL0     H42468   7.908   8.771   4.768  1.7448 -1.1691  0.0723
  308MOL0     H42469   7.967   8.685   4.616 -0.2216 -0.6869  0.0640
  308MOL0     H42470   8.103   8.922   4.756 -1.0593  0.8540 -1.0700
  308MOL0     H42471   8.147   8.750   4.745 -0.5689  0.9444  1.1785
  308MOL0     H42472   8.131   8.967   4.525 -0.7874 -0.8380 -2.1562
  308MOL0     H42473   8.174   8.806   4.487  1.0890 -0.4655  0.5494
  308MOL0     H42474   8.379   8.875   4.509 -2.3036 -1.2645 -0.8770
  308MOL0     H42475   8.358   8.834   4.674  0.5843  0.5858  1.0479
  308MOL0     H42476   8.299   9.074   4.739 -1.9951  0.9424 -2.2549
  308MOL0     H42477   8.461   9.037   4.679  0.5623 -0.6685  0.0405
  308MOL0     H42478   8.247   9.165   4.506 -0.0921  0.9587  0.8893
  308MOL0     H42479   8.426   9.140   4.476  1.4755  0.0220  1.9031
  308MOL0     H42480   8.479   9.303   4.647 -1.7936  2.8026  2.1663
  308MOL0     H42481   8.309   9.324   4.689  2.0698  2.2900  0.8037
  308MOL0     H42482   8.429   9.385   4.410 -0.1410  0.2578 -0.3490
  308MOL0     H42483   8.392   9.501   4.545  2.1599  0.3142 -1.5591
  308MOL0     H42484   7.707   8.685   4.671 -0.8886 -1.0093 -1.1306
  308MOL0     H42485   7.494   8.643   4.555  0.1891  0.5989  0.9814
  308MOL0     H42486   7.348   8.632   4.132 -0.3161  0.6672 -1.8137
  308MOL0     H42487   7.206   8.525   3.996  0.1375  0.9895 -1.2614
  308MOL0     H42488   7.346   8.881   3.459 -0.8475 -0.1185 -0.1065
  308MOL0     H42489   7.142   9.033   3.460 -0.4826 -1.3474  0.0571
  308MOL0     H42490   6.835   9.233   3.563 -0.3891  0.9150 -0.0902
  308MOL0     H42491   6.692   9.431   3.569  0.2626 -0.0756 -0.5804
  308MOL0     H42492   6.559   9.645   3.645  2.3933 -1.5656 -0.2507
  308MOL0     H42493   6.477   9.512   3.560  0.7214 -1.3131  1.3292
  308MOL0     H42494   6.356   9.696   3.779 -3.3862  1.3058  0.0734
  308MOL0     H42495   6.269   9.550   3.707  2.2798 -2.3094 -0.4278
  308MOL0     H42496   6.285   9.651   3.492  3.0264  2.7581 -0.2614
  308MOL0     H42497   6.168   9.745   3.588 -0.1604  2.4423 -0.3144
  308MOL0     H42498   6.350   9.871   3.425  1.9639 -1.4908 -1.2945
  308MOL0     H42499   6.451   9.819   3.555 -0.4820 -0.0010 -0.5006
  308MOL0     H42500   6.295  10.154   3.748 -3.4724 -1.2663  3.2738
  308MOL0     H42501   6.573   9.323   3.966  2.3899  0.0132  2.1764
  308MOL0     H42502   6.804   9.138   4.054  0.4324 -0.4647 -0.4751
  308MOL0     H42503   6.626   9.138   4.075 -0.3641  0.5204 -0.4232
  308MOL0     H42504   6.711   9.016   3.977 -0.6784 -0.2656 -0.4179
  309MOL0     O42505   8.227   1.180   5.846  0.2054  0.2012  0.2185
  309MOL0     C42506   8.299   1.103   5.913  1.4229  0.3260  0.7587
  309MOL0     O42507   8.438   1.093   5.902 -0.3371  0.3999 -0.1238
  309MOL0     C42508   8.506   1.174   5.819 -0.2052 -0.7536  0.0433
  309MOL0     C42509   8.501   1.168   5.677 -0.6877 -0.1844  0.1987
  309MOL0     C42510   8.581   1.259   5.601 -0.0566 -0.8029 -0.3290
  309MOL0     C42511   8.685   1.341   5.669  0.3900 -0.8013  0.4560
  309MOL0     O42512   8.766   1.434   5.616  0.4080  0.1256  0.4737
  309MOL0     C42513   8.779   1.434   5.480 -0.3160  0.3497  0.9800
  309MOL0     C42514   8.895   1.526   5.445 -0.2063  0.5848 -0.5166
  309MOL0     C42515   8.946   1.481   5.309  0.1885  0.2056  0.0184
  309MOL0     C42516   9.033   1.577   5.254 -0.8015 -0.3352 -0.7679
  309MOL0     C42517   9.084   1.553   5.114  0.1630 -0.8135  0.7523
  309MOL0     C42518   9.200   1.635   5.056 -0.1534 -0.6745 -0.0589
  309MOL0     C42519   9.232   1.589   4.911 -0.9241  0.1811 -2.0432
  309MOL0     C42520   9.347   1.657   4.838  0.1664 -0.3291 -0.3923
  309MOL0     N42521   9.332   1.806   4.836  0.0284  0.4146 -0.2228
  309MOL0     C42522   9.309   1.881   4.721 -0.4336 -0.7294 -0.2027
  309MOL0     C42523   9.323   2.012   4.765 -0.8122 -0.4335  0.7237
  309MOL0     C42524   9.276   2.138   4.687 -0.7045  0.2180 -0.7313
  309MOL0     C42525   9.297   2.254   4.790  0.2505  0.1019 -1.1354
  309MOL0     C42526   9.292   2.389   4.734  1.0924 -0.7620  0.2897
  309MOL0     C42527   9.325   2.490   4.840  0.1515 -0.8591 -0.4181
  309MOL0     O42528   9.467   2.535   4.819 -0.3580 -0.3546 -0.4334
  309MOL0     C42529   9.513   2.651   4.879 -0.2299 -0.4222 -0.5037
  309MOL0     C42530   9.636   2.688   4.848 -0.6467 -0.3844  0.6195
  309MOL0     C42531   9.695   2.805   4.901  0.0120 -0.1339 -0.1971
  309MOL0     C42532   9.829   2.825   4.840  0.7233 -1.2397 -0.0707
  309MOL0     C42533   9.634   2.881   5.001  1.1593  0.6308  0.3248
  309MOL0     C42534   9.693   2.992   5.078 -0.0849  0.3532 -0.0840
  309MOL0     O42535   9.613   3.075   5.153  0.0913  0.4300  0.3128
  309MOL0     C42536   9.658   3.166   5.249  0.3637 -0.6532 -0.3663
  309MOL0     C42537   9.754   3.271   5.223  0.8091  1.2918 -0.1448
  309MOL0     C42538   9.782   3.361   5.324  0.4611 -0.3674 -0.4129
  309MOL0     C42539   9.697   3.365   5.436  0.0640 -0.0683  0.0867
  309MOL0     O42540   9.715   3.463   5.532 -0.1069  0.2945  0.0324
  309MOL0     C42541   9.839   3.533   5.533  0.1780  0.8087  0.6494
  309MOL0     C42542   9.834   3.635   5.649 -0.7817 -0.2259 -0.4457
  309MOL0     C42543   9.831   3.553   5.782 -0.8093  0.3417 -0.2909
  309MOL0     C42544   9.770   3.637   5.886  0.1622 -0.0084 -0.5133
  309MOL0     C42545   9.767   3.555   6.016  0.3373  0.2146 -0.7126
  309MOL0     C42546   9.710   3.638   6.132  0.2868  0.3363 -0.6993
  309MOL0     C42547   9.814   3.729   6.189 -0.7039 -0.5042 -1.0586
  309MOL0     C42548   9.796   3.749   6.338 -1.2129 -0.7591  0.2044
  309MOL0    Cl42549   9.935   3.832   6.410  0.1601  0.0453  0.2529
  309MOL0     C42550   9.597   3.272   5.459  1.0219  0.0999  0.7655
  309MOL0     C42551   9.573   3.164   5.366  0.5090  0.0735 -0.3571
  309MOL0     O42552   9.811   3.001   5.068  0.3945 -0.0585  0.4148
  309MOL0     C42553   9.499   2.844   5.023 -0.0092 -0.8700 -0.3699
  309MOL0     C42554   9.437   2.734   4.963  0.4884  0.1105 -0.1209
  309MOL0     N42555   9.370   2.005   4.899  0.2845 -0.2006  0.4939
  309MOL0     N42556   9.367   1.881   4.942  0.2373 -0.6964  0.8995
  309MOL0     C42557   8.694   1.330   5.805  0.4181  0.1564 -0.3966
  309MOL0     C42558   8.609   1.251   5.882 -0.0988 -0.5364  0.5158
  309MOL0     C42559   8.229   1.005   6.003 -0.0791 -1.5007 -1.0903
  309MOL0     C42560   8.280   0.985   6.141  0.0195  0.4295  1.0669
  309MOL0     C42561   8.212   0.894   6.225  0.0590 -0.3747 -0.3448
  309MOL0     C42562   8.104   0.817   6.177  0.6727 -0.4125 -0.5615
  309MOL0     O42563   8.038   0.738   6.264 -0.1659  0.0771  0.3615
  309MOL0     C42564   7.898   0.772   6.292 -0.5814  0.7196 -1.0925
  309MOL0     C42565   7.847   0.685   6.414 -0.7530  0.1094 -0.5687
  309MOL0     C42566   7.945   0.696   6.541  0.8212  0.0090 -1.0240
  309MOL0     C42567   7.908   0.597   6.658 -0.1791  0.0475  0.6699
  309MOL0     C42568   7.881   0.661   6.791  0.3908 -1.4304  0.3876
  309MOL0     C42569   7.856   0.699   6.905  0.1841  0.4280  0.2784
  309MOL0     C42570   8.052   0.840   6.045  1.5832  0.0997 -0.9356
  309MOL0     C42571   8.120   0.921   5.960 -0.2832  0.6771  0.8532
  309MOL0     C42572   8.060   0.939   5.819  0.3394 -0.3276 -0.2261
  309MOL0     H42573   8.419   1.119   5.625  0.4134 -0.8378 -0.9577
  309MOL0     H42574   8.578   1.256   5.492  1.4531 -1.2989 -0.3703
  309MOL0     H42575   8.688   1.460   5.426 -0.9913 -0.7084  1.5580
  309MOL0     H42576   8.803   1.330   5.456 -0.4075  0.1882  1.5765
  309MOL0     H42577   8.872   1.631   5.462 -0.3576  0.3936  0.5082
  309MOL0     H42578   8.976   1.504   5.516 -0.1088  0.9082 -0.5284
  309MOL0     H42579   8.997   1.384   5.305 -1.1630 -0.5133 -0.5508
  309MOL0     H42580   8.861   1.487   5.241 -1.5253  0.5757  2.0923
  309MOL0     H42581   8.987   1.676   5.250  1.6413  0.8746 -0.5294
  309MOL0     H42582   9.121   1.597   5.315 -1.3227  0.4223 -0.2570
  309MOL0     H42583   9.006   1.566   5.038  0.7031 -2.5393 -0.1396
  309MOL0     H42584   9.101   1.447   5.097  0.4961 -0.7438  0.6509
  309MOL0     H42585   9.179   1.742   5.053  0.6198 -0.5295 -2.2008
  309MOL0     H42586   9.283   1.624   5.126 -1.8568  1.1805  2.4156
  309MOL0     H42587   9.147   1.608   4.845  0.2579  0.1541 -3.6323
  309MOL0     H42588   9.243   1.481   4.916 -1.3761  0.1675 -0.8939
  309MOL0     H42589   9.435   1.644   4.903 -0.7445 -0.1476  0.9064
  309MOL0     H42590   9.360   1.618   4.737 -2.9561  1.4580 -1.6186
  309MOL0     H42591   9.268   1.846   4.626 -2.9357 -1.2813  0.9826
  309MOL0     H42592   9.171   2.117   4.664 -0.8215 -0.8668  0.7114
  309MOL0     H42593   9.331   2.168   4.597  1.8831  0.8605  0.9409
  309MOL0     H42594   9.222   2.243   4.870 -0.6078 -4.7967 -2.2494
  309MOL0     H42595   9.395   2.247   4.836  0.3391 -3.6021 -1.5263
  309MOL0     H42596   9.360   2.398   4.649  1.1761 -0.1912  0.4183
  309MOL0     H42597   9.190   2.406   4.696  1.6125  1.3570 -0.2745
  309MOL0     H42598   9.261   2.576   4.820 -0.6889 -1.7177 -1.6023
  309MOL0     H42599   9.317   2.444   4.938 -0.8281 -0.6539 -0.3941
  309MOL0     H42600   9.692   2.625   4.780  2.4877  1.9740  0.7695
  309MOL0     H42601   9.860   2.930   4.831 -0.3501 -1.0687 -3.1542
  309MOL0     H42602   9.838   2.777   4.742  1.7846  1.6562 -1.5265
  309MOL0     H42603   9.912   2.781   4.895 -0.1645 -0.4337  2.0024
  309MOL0     H42604   9.807   3.273   5.129  0.1586  0.5791 -0.5445
  309MOL0     H42605   9.856   3.436   5.298  0.1738 -0.8934 -3.0195
  309MOL0     H42606   9.910   3.450   5.530 -0.6138  0.1378 -1.6279
  309MOL0     H42607   9.857   3.584   5.438  1.7520 -1.4107 -0.3285
  309MOL0     H42608   9.923   3.698   5.655  1.4533 -3.0628 -1.5146
  309MOL0     H42609   9.737   3.683   5.633  0.0893  1.6061 -0.3684
  309MOL0     H42610   9.936   3.536   5.809 -0.9676 -3.0287 -1.4055
  309MOL0     H42611   9.782   3.456   5.783 -0.4361  0.0422  3.2868
  309MOL0     H42612   9.674   3.678   5.856  0.7919  1.5304 -0.5242
  309MOL0     H42613   9.834   3.724   5.906  0.3551 -0.1816 -0.3592
  309MOL0     H42614   9.698   3.473   5.995 -0.9238  0.6713  1.3281
  309MOL0     H42615   9.870   3.527   6.040 -0.0272 -0.7840 -0.2942
  309MOL0     H42616   9.659   3.583   6.212 -3.8259  1.0451 -2.5629
  309MOL0     H42617   9.621   3.691   6.096 -0.7084  1.1942  2.6878
  309MOL0     H42618   9.800   3.825   6.140  1.8332  1.2817  1.4242
  309MOL0     H42619   9.913   3.681   6.188 -0.8939 -1.1390  1.9289
  309MOL0     H42620   9.786   3.653   6.389  1.4644 -1.7899 -1.0366
  309MOL0     H42621   9.713   3.818   6.357  0.4280  3.4784 -5.4341
  309MOL0     H42622   9.533   3.299   5.542  0.6016  3.4617 -0.4937
  309MOL0     H42623   9.483   3.104   5.368 -0.5279  1.5671 -0.9409
  309MOL0     H42624   9.430   2.903   5.083  0.6508  1.9904 -2.2432
  309MOL0     H42625   9.329   2.741   4.967  0.5308  1.8328 -0.7993
  309MOL0     H42626   8.766   1.395   5.854  1.1049  0.5911 -1.9176
  309MOL0     H42627   8.619   1.248   5.990  2.5254 -1.1705  0.3282
  309MOL0     H42628   8.367   1.030   6.189  1.5451 -2.8481  1.6815
  309MOL0     H42629   8.248   0.880   6.326 -0.5528 -0.9780 -0.2028
  309MOL0     H42630   7.893   0.880   6.311  2.6939  0.9634 -0.9942
  309MOL0     H42631   7.834   0.748   6.206 -0.8380 -1.9019 -0.2581
  309MOL0     H42632   7.833   0.581   6.385 -2.9616  0.0705  0.3771
  309MOL0     H42633   7.745   0.720   6.436 -1.4953 -1.7604 -0.8931
  309MOL0     H42634   8.051   0.677   6.524  0.9144  0.0918 -0.5548
  309MOL0     H42635   7.941   0.800   6.577 -3.9869  0.4567 -2.2038
  309MOL0     H42636   7.993   0.528   6.655  0.7938  1.2173 -2.0649
  309MOL0     H42637   7.815   0.544   6.635  0.2492 -1.3943  2.1157
  309MOL0     H42638   7.808   0.736   6.993  0.8041  1.5400  0.1619
  309MOL0     H42639   7.984   0.771   5.996  1.4318 -0.4837  0.0685
  309MOL0     H42640   8.141   0.950   5.747  2.7147 -1.5633  2.0572
  309MOL0     H42641   7.982   0.868   5.791 -1.5487  1.3437  0.5036
  309MOL0     H42642   7.990   1.023   5.818  0.7276 -0.0018 -1.6380
  310MOL0     O42643   0.892   8.331   4.784 -0.1563 -0.3367 -0.8686
  310MOL0     C42644   1.009   8.290   4.802  0.3477  0.6308  0.0045
  310MOL0     O42645   1.116   8.298   4.713 -0.4343 -0.0316 -0.3107
  310MOL0     C42646   1.097   8.345   4.587  0.8576  0.4785 -0.7530
  310MOL0     C42647   0.984   8.313   4.509  0.0280 -0.6452  0.2115
  310MOL0     C42648   0.968   8.357   4.376  0.5717  0.5182 -0.6246
  310MOL0     C42649   1.063   8.438   4.320 -0.3888 -0.0756  0.5247
  310MOL0     O42650   1.066   8.482   4.188  0.1280  0.4200  0.1268
  310MOL0     C42651   0.957   8.427   4.108 -0.8616  0.0320  0.5076
  310MOL0     C42652   0.972   8.463   3.954  0.3741 -0.7914  0.1836
  310MOL0     C42653   0.884   8.380   3.867 -0.5524  0.2343  0.0029
  310MOL0     C42654   0.904   8.411   3.721 -0.1005  0.6903  0.6704
  310MOL0     C42655   0.851   8.312   3.623 -0.0364  0.4594  0.1897
  310MOL0     C42656   0.702   8.269   3.644 -0.4574  0.3636 -0.4694
  310MOL0     C42657   0.696   8.129   3.718 -0.4506 -0.9160  1.2925
  310MOL0     C42658   0.559   8.063   3.709  0.1251  1.4196  0.0362
  310MOL0     N42659   0.528   8.021   3.568  0.9019  0.6289 -0.7446
  310MOL0     C42660   0.606   8.027   3.455 -0.8565 -0.0799  0.0520
  310MOL0     C42661   0.534   7.974   3.353  0.1320 -0.1015  0.1233
  310MOL0     C42662   0.568   7.944   3.211 -0.4621  0.2141  0.7678
  310MOL0     C42663   0.584   7.785   3.187  0.7037  0.0146  0.2746
  310MOL0     C42664   0.598   7.754   3.031 -0.9858  0.0017 -0.2011
  310MOL0     C42665   0.618   7.604   3.017  0.4335  0.6702 -0.2823
  310MOL0     O42666   0.710   7.538   3.114 -0.4978 -0.3246 -0.2329
  310MOL0     C42667   0.844   7.544   3.086  0.1727 -0.0158 -0.1850
  310MOL0     C42668   0.919   7.584   2.969  0.1180 -0.0868  0.5285
  310MOL0     C42669   1.054   7.582   2.958 -0.8833  0.5260 -0.3933
  310MOL0     C42670   1.116   7.641   2.833 -0.2567 -0.7795  0.4659
  310MOL0     C42671   1.127   7.506   3.060 -1.3171  0.4963 -0.1740
  310MOL0     C42672   1.276   7.484   3.043 -0.0372  0.1189  0.1415
  310MOL0     O42673   1.336   7.416   3.150 -0.2546 -0.4114  0.4018
  310MOL0     C42674   1.471   7.398   3.164  0.4465  0.6473  0.4173
  310MOL0     C42675   1.503   7.300   3.257 -0.4274  0.1485  0.6653
  310MOL0     C42676   1.641   7.267   3.279  0.3123  0.1121  0.3924
  310MOL0     C42677   1.739   7.332   3.215  0.8184  0.0593  1.6663
  310MOL0     O42678   1.876   7.316   3.231  0.2494  0.4053  0.8973
  310MOL0     C42679   1.914   7.176   3.245  0.4830 -0.5221 -0.8775
  310MOL0     C42680   2.047   7.145   3.180  0.2202  0.7010 -0.5006
  310MOL0     C42681   2.027   7.129   3.032  0.1984 -0.3865 -0.2213
  310MOL0     C42682   2.155   7.108   2.949 -0.1715  0.0197 -0.2142
  310MOL0     C42683   2.118   7.058   2.819 -0.2020 -0.2650 -0.1991
  310MOL0     C42684   2.248   7.059   2.742 -0.0083  0.2102  0.0793
  310MOL0     C42685   2.244   6.995   2.606  0.4852  0.4805 -1.1231
  310MOL0     C42686   2.391   6.957   2.556 -0.9949  0.3842  0.7235
  310MOL0    Cl42687   2.376   6.817   2.439 -0.3400 -0.2770 -0.5427
  310MOL0     C42688   1.707   7.430   3.120  0.4384  0.3374  0.1348
  310MOL0     C42689   1.568   7.463   3.095 -0.2347  0.0103  0.5652
  310MOL0     O42690   1.339   7.528   2.953  0.2052 -0.2885 -0.3727
  310MOL0     C42691   1.045   7.445   3.158 -0.4816 -0.4949  0.1384
  310MOL0     C42692   0.917   7.478   3.189 -0.3194 -0.1425  0.3155
  310MOL0     N42693   0.408   7.952   3.404  0.0980  0.2094 -0.0365
  310MOL0     N42694   0.407   7.986   3.532  0.0208  0.7196  0.6975
  310MOL0     C42695   1.168   8.477   4.396 -0.6803 -0.0201  0.6352
  310MOL0     C42696   1.201   8.427   4.527  0.3473  1.6800  1.0052
  310MOL0     C42697   1.027   8.200   4.924 -0.0734  1.1660 -0.8260
  310MOL0     C42698   1.144   8.122   4.936 -0.1691 -0.4811 -0.1198
  310MOL0     C42699   1.176   8.051   5.047 -0.2308 -0.1835  0.1170
  310MOL0     C42700   1.097   8.052   5.154 -0.6587 -0.8005  0.5907
  310MOL0     O42701   1.137   7.979   5.268 -0.3947  0.5892 -0.1658
  310MOL0     C42702   1.046   7.954   5.378  0.2511 -0.0415 -0.2845
  310MOL0     C42703   1.091   7.841   5.471 -1.5208 -0.7285  0.4100
  310MOL0     C42704   1.234   7.852   5.520  0.1804  0.5875  0.7425
  310MOL0     C42705   1.243   7.879   5.668  1.1107 -0.0054  0.2700
  310MOL0     C42706   1.157   7.996   5.711 -0.1184  0.7296 -0.4252
  310MOL0     C42707   1.101   8.100   5.738  0.0136  0.4876 -0.2994
  310MOL0     C42708   0.983   8.128   5.153  0.4001  0.8700  0.6394
  310MOL0     C42709   0.938   8.201   5.037  0.4444 -0.7688  0.3458
  310MOL0     C42710   0.813   8.285   5.053  0.9439  1.3867  0.2972
  310MOL0     H42711   0.911   8.251   4.560  0.6268  0.3072  2.3318
  310MOL0     H42712   0.876   8.330   4.324 -0.1419 -0.5752  1.1146
  310MOL0     H42713   0.862   8.473   4.136 -0.1366  1.4676  0.7404
  310MOL0     H42714   0.952   8.319   4.124  0.0762  0.2427  2.6295
  310MOL0     H42715   0.950   8.568   3.933 -0.3283 -0.6592  1.4685
  310MOL0     H42716   1.075   8.452   3.920 -0.2342 -1.0604 -1.7185
  310MOL0     H42717   0.899   8.275   3.890 -1.5149  0.0711 -0.0734
  310MOL0     H42718   0.781   8.409   3.893 -0.0229  1.7571  0.5106
  310MOL0     H42719   0.856   8.508   3.706  0.6771  1.2245  1.5138
  310MOL0     H42720   1.010   8.431   3.699  0.9359 -2.8325  1.7821
  310MOL0     H42721   0.915   8.225   3.607 -0.1437  0.4389 -0.1463
  310MOL0     H42722   0.858   8.361   3.525  2.0127 -3.2630 -1.7082
  310MOL0     H42723   0.649   8.349   3.697 -2.5691  1.0501 -3.3434
  310MOL0     H42724   0.638   8.266   3.555 -2.3473  0.2944  0.8263
  310MOL0     H42725   0.747   8.124   3.815 -0.4214 -2.9246  1.2291
  310MOL0     H42726   0.760   8.072   3.650 -1.6206  2.5066 -3.1204
  310MOL0     H42727   0.556   7.973   3.771 -1.1848 -1.3221 -3.6383
  310MOL0     H42728   0.484   8.137   3.738 -0.2192  0.4111  1.8057
  310MOL0     H42729   0.708   8.063   3.447 -1.4066  1.1721 -5.7083
  310MOL0     H42730   0.666   7.987   3.187  0.1821 -2.8767 -3.1725
  310MOL0     H42731   0.485   7.974   3.146  0.1679 -1.9211 -1.1460
  310MOL0     H42732   0.671   7.752   3.245  0.1777 -2.4736 -0.2452
  310MOL0     H42733   0.497   7.727   3.217  0.3535 -0.0095 -0.7617
  310MOL0     H42734   0.514   7.789   2.970 -0.8904 -0.3975 -0.5608
  310MOL0     H42735   0.684   7.811   2.995 -0.5908  0.5841  1.5674
  310MOL0     H42736   0.522   7.552   3.022  0.1897  0.9015 -1.9663
  310MOL0     H42737   0.646   7.583   2.913 -1.4675 -0.9807 -0.5256
  310MOL0     H42738   0.869   7.620   2.880  1.0998  2.7867  1.0503
  310MOL0     H42739   1.198   7.708   2.862 -1.5150  1.3617 -0.6613
  310MOL0     H42740   1.048   7.709   2.782  1.6599  0.0654 -1.0990
  310MOL0     H42741   1.139   7.570   2.753 -1.1774  1.3161 -1.7837
  310MOL0     H42742   1.421   7.246   3.304  1.9575 -3.0001  1.5906
  310MOL0     H42743   1.674   7.192   3.350 -3.0932 -0.4184  1.6356
  310MOL0     H42744   1.926   7.148   3.350 -0.8707  0.3653 -0.4500
  310MOL0     H42745   1.837   7.110   3.203  1.4864 -1.7276 -0.8694
  310MOL0     H42746   2.120   7.225   3.195 -1.1279  2.2357 -1.7694
  310MOL0     H42747   2.077   7.051   3.226  0.4835  1.0150 -0.0197
  310MOL0     H42748   1.982   7.219   2.989 -0.8970 -0.3034  1.0296
  310MOL0     H42749   1.956   7.047   3.018 -0.2839 -0.7969  3.4724
  310MOL0     H42750   2.202   7.017   2.987 -2.7576 -2.0813 -1.6576
  310MOL0     H42751   2.226   7.191   2.951  0.5373 -0.5565 -0.8339
  310MOL0     H42752   2.072   6.959   2.821  1.5387 -1.1024  0.4322
  310MOL0     H42753   2.042   7.110   2.760 -0.4769 -2.5644 -2.0360
  310MOL0     H42754   2.327   7.010   2.799 -0.4170 -0.6085 -0.0458
  310MOL0     H42755   2.273   7.164   2.727  0.7154 -0.0509 -0.6280
  310MOL0     H42756   2.201   7.054   2.524  1.6805  0.0405 -2.1030
  310MOL0     H42757   2.196   6.901   2.632  0.1174  1.1042  0.6001
  310MOL0     H42758   2.458   6.926   2.636  0.1980  0.6964 -0.1303
  310MOL0     H42759   2.434   7.040   2.499  1.7187 -2.1331 -1.2267
  310MOL0     H42760   1.788   7.488   3.077  0.6919  1.5616  2.1476
  310MOL0     H42761   1.555   7.534   3.014 -0.9466  0.3683  0.9828
  310MOL0     H42762   1.098   7.384   3.231  2.1724 -0.6333 -1.7846
  310MOL0     H42763   0.863   7.436   3.274  0.5115 -2.1991 -0.1113
  310MOL0     H42764   1.243   8.537   4.345  1.9543 -2.2613  1.6161
  310MOL0     H42765   1.303   8.442   4.562  1.4250 -0.3015 -1.0147
  310MOL0     H42766   1.214   8.114   4.853  3.3084  1.7237  2.3009
  310MOL0     H42767   1.261   7.985   5.062  1.1798  2.0453  3.1816
  310MOL0     H42768   1.029   8.045   5.436 -0.7559  1.8865 -3.3567
  310MOL0     H42769   0.942   7.937   5.345 -0.6945  1.2662  1.8168
  310MOL0     H42770   1.081   7.744   5.421  3.8737 -1.2507 -0.3118
  310MOL0     H42771   1.021   7.835   5.555 -4.3141 -2.3139 -1.8611
  310MOL0     H42772   1.279   7.752   5.520 -0.2198  0.3716  2.7389
  310MOL0     H42773   1.302   7.911   5.458 -0.8451  0.0514 -0.9621
  310MOL0     H42774   1.346   7.900   5.698  1.3441 -0.9969  0.1767
  310MOL0     H42775   1.205   7.792   5.722  2.1801 -0.7460 -0.1517
  310MOL0     H42776   1.063   8.194   5.772  3.3451  0.9060  2.7799
  310MOL0     H42777   0.923   8.144   5.243 -1.3344  3.2392 -0.8219
  310MOL0     H42778   0.844   8.385   5.023  2.9458 -0.0478 -3.0092
  310MOL0     H42779   0.733   8.249   4.987  0.7124  0.3270  1.1301
  310MOL0     H42780   0.772   8.295   5.154 -0.6775 -0.0738 -0.1809
  311MOL0     O42781   7.717   6.081   4.151 -0.4430  0.5530 -0.2242
  311MOL0     C42782   7.662   6.056   4.258  1.0787 -0.3119 -0.2597
  311MOL0     O42783   7.540   5.994   4.266  0.2150 -0.2287  0.6713
  311MOL0     C42784   7.541   5.855   4.247 -0.4251  0.4942 -0.0825
  311MOL0     C42785   7.660   5.778   4.248  0.2456  0.2062 -0.3005
  311MOL0     C42786   7.660   5.640   4.236  0.6495 -0.4218 -0.0403
  311MOL0     C42787   7.535   5.576   4.231 -0.8409  1.2349 -0.1801
  311MOL0     O42788   7.534   5.443   4.223 -0.0601  0.1463  0.4784
  311MOL0     C42789   7.488   5.404   4.092  0.3902  0.7860 -0.4053
  311MOL0     C42790   7.541   5.261   4.063 -0.2534  0.0186 -0.3179
  311MOL0     C42791   7.479   5.202   3.934  0.1540 -0.1462 -0.2394
  311MOL0     C42792   7.353   5.119   3.943  0.7703  0.0859 -0.1985
  311MOL0     C42793   7.224   5.192   3.922  0.6070 -0.4113  0.0619
  311MOL0     C42794   7.113   5.090   3.886  0.1883 -0.1971 -0.7751
  311MOL0     C42795   6.981   5.160   3.857  1.1028  0.5168 -0.7455
  311MOL0     C42796   6.889   5.179   3.993 -0.2207 -0.2715  0.4138
  311MOL0     N42797   6.952   5.255   4.102 -0.1190  0.1243  0.4203
  311MOL0     C42798   7.041   5.203   4.193  0.3139  0.2577  0.9012
  311MOL0     C42799   7.066   5.307   4.282 -0.2699 -0.2979 -0.0183
  311MOL0     C42800   7.131   5.319   4.415 -0.7728  0.2200 -1.1528
  311MOL0     C42801   7.037   5.362   4.524 -0.3551 -0.4077 -0.7132
  311MOL0     C42802   7.104   5.345   4.661 -0.1670 -0.1988 -0.1000
  311MOL0     C42803   7.006   5.346   4.777  0.0924 -0.3373 -0.0817
  311MOL0     O42804   6.949   5.215   4.796  0.7382 -1.1040  0.1319
  311MOL0     C42805   6.821   5.232   4.819 -0.4307  0.1095  0.9536
  311MOL0     C42806   6.758   5.309   4.919  0.0673 -0.5940 -0.0544
  311MOL0     C42807   6.616   5.326   4.925  0.3354 -0.6368 -0.8183
  311MOL0     C42808   6.566   5.419   5.034  0.1281  0.1967  0.1437
  311MOL0     C42809   6.528   5.253   4.833 -0.0932  0.0560  0.2501
  311MOL0     C42810   6.381   5.241   4.848  1.7826  0.7455  0.1488
  311MOL0     O42811   6.308   5.343   4.895 -0.3838 -0.5615  0.1974
  311MOL0     C42812   6.175   5.340   4.912 -0.1772  1.2308  0.2773
  311MOL0     C42813   6.085   5.293   4.821  0.1596 -0.6685  0.3102
  311MOL0     C42814   5.949   5.273   4.851 -0.3888 -0.3807  0.3345
  311MOL0     C42815   5.905   5.311   4.976 -0.0777  0.6556 -0.8893
  311MOL0     O42816   5.785   5.274   5.024  0.2217  0.7646 -0.1295
  311MOL0     C42817   5.700   5.185   4.950  0.2898 -0.1825 -1.3144
  311MOL0     C42818   5.755   5.039   4.959  0.6204  0.2205 -0.3880
  311MOL0     C42819   5.687   4.934   4.878  0.3905 -0.5337  0.1692
  311MOL0     C42820   5.701   4.970   4.721 -0.3862 -0.0113 -0.0528
  311MOL0     C42821   5.679   4.841   4.635  0.2313 -0.5214  0.5546
  311MOL0     C42822   5.527   4.793   4.651 -0.4922 -0.9103  0.4606
  311MOL0     C42823   5.471   4.724   4.528  0.7243 -0.1370 -0.8925
  311MOL0     C42824   5.335   4.680   4.573 -0.2559 -0.1014 -0.9392
  311MOL0    Cl42825   5.227   4.625   4.444 -0.0888 -0.0475 -0.2352
  311MOL0     C42826   5.995   5.366   5.071  0.0749  0.2883  0.0780
  311MOL0     C42827   6.130   5.387   5.034  0.6741 -0.2123  0.2664
  311MOL0     O42828   6.320   5.129   4.819  0.0194 -0.5697  0.4426
  311MOL0     C42829   6.593   5.165   4.743 -0.6184  0.2517  0.0396
  311MOL0     C42830   6.738   5.161   4.728 -0.3142  0.3595  0.1697
  311MOL0     N42831   6.999   5.416   4.239  0.6199 -0.9705 -0.6359
  311MOL0     N42832   6.934   5.385   4.126 -1.4137 -0.3103  0.3567
  311MOL0     C42833   7.418   5.650   4.229 -0.5970 -0.4217 -1.3384
  311MOL0     C42834   7.419   5.789   4.243  0.0628  0.3372  0.3372
  311MOL0     C42835   7.709   6.133   4.380 -0.1580 -0.6698  0.4645
  311MOL0     C42836   7.606   6.188   4.458 -0.1391 -0.0782 -0.5588
  311MOL0     C42837   7.633   6.248   4.581  0.0887 -0.1464  0.0943
  311MOL0     C42838   7.774   6.261   4.625 -0.3136  0.3652 -0.1769
  311MOL0     O42839   7.793   6.312   4.748 -0.2032  0.3080 -0.1223
  311MOL0     C42840   7.927   6.319   4.806 -0.5599 -0.6654 -0.2590
  311MOL0     C42841   7.942   6.414   4.927 -0.3396 -0.5828  1.0477
  311MOL0     C42842   7.844   6.390   5.043  0.4746 -0.0450 -0.2684
  311MOL0     C42843   7.876   6.481   5.160 -0.8290  0.7865  0.3909
  311MOL0     C42844   7.770   6.476   5.264 -0.4318  0.3368  0.1432
  311MOL0     C42845   7.694   6.471   5.362  0.5041 -0.0665  0.6249
  311MOL0     C42846   7.870   6.209   4.543  0.2564 -0.4386  0.5318
  311MOL0     C42847   7.839   6.145   4.419 -0.8400 -1.0267 -0.1498
  311MOL0     C42848   7.943   6.088   4.331 -0.6426  0.3547 -0.0185
  311MOL0     H42849   7.751   5.836   4.246  1.6244 -1.8604 -1.0614
  311MOL0     H42850   7.754   5.586   4.232  0.4167 -0.7641 -1.2391
  311MOL0     H42851   7.514   5.477   4.015 -1.9809  0.7471 -1.3288
  311MOL0     H42852   7.379   5.396   4.090  0.3376 -0.9215  2.6598
  311MOL0     H42853   7.646   5.269   4.033  0.1240  2.1608  1.2918
  311MOL0     H42854   7.538   5.205   4.157 -2.4476  2.1893  1.0483
  311MOL0     H42855   7.463   5.275   3.853 -1.9449  0.0375  0.2882
  311MOL0     H42856   7.557   5.138   3.891  1.3474 -0.9821  2.9099
  311MOL0     H42857   7.366   5.031   3.879  2.2626 -0.5507  0.8958
  311MOL0     H42858   7.349   5.069   4.041 -1.5663 -0.7686 -0.6767
  311MOL0     H42859   7.239   5.268   3.843 -1.9839  3.1363  2.6519
  311MOL0     H42860   7.188   5.255   4.003 -3.5679  0.3193 -2.0585
  311MOL0     H42861   7.125   5.035   3.792 -0.7180 -0.8857 -0.5110
  311MOL0     H42862   7.112   5.011   3.962  1.4788  0.2057 -0.3249
  311MOL0     H42863   6.931   5.103   3.777  2.1601  1.4593 -2.1321
  311MOL0     H42864   7.002   5.256   3.809 -0.1594  1.4526  0.5321
  311MOL0     H42865   6.787   5.212   3.966 -0.0523  2.6700  2.8414
  311MOL0     H42866   6.874   5.080   4.036 -0.8466 -0.4280 -0.1423
  311MOL0     H42867   7.081   5.103   4.204  0.6959  0.4395  1.2538
  311MOL0     H42868   7.223   5.377   4.412 -0.3099 -0.3744  0.4909
  311MOL0     H42869   7.177   5.225   4.446  0.1706  2.0281  3.9614
  311MOL0     H42870   7.017   5.469   4.507  0.9638 -0.1124 -0.5474
  311MOL0     H42871   6.950   5.297   4.511 -0.1073 -1.5291  2.5262
  311MOL0     H42872   7.167   5.257   4.673 -0.3888 -0.2653  0.6076
  311MOL0     H42873   7.171   5.429   4.681  0.2431 -0.2704 -1.0909
  311MOL0     H42874   7.066   5.365   4.867 -1.7150  0.1512  1.0809
  311MOL0     H42875   6.937   5.429   4.760 -1.6057 -1.6409  0.1480
  311MOL0     H42876   6.826   5.356   4.990  0.4432 -3.4577  1.6582
  311MOL0     H42877   6.517   5.363   5.114 -1.0316  0.9313 -0.0327
  311MOL0     H42878   6.505   5.505   5.005 -0.5333  0.8564  3.1554
  311MOL0     H42879   6.652   5.457   5.090 -1.6828 -0.3318  3.5811
  311MOL0     H42880   6.119   5.266   4.721  0.7312  1.7618 -0.2149
  311MOL0     H42881   5.890   5.227   4.773  1.1081 -2.3084  0.2800
  311MOL0     H42882   5.607   5.195   5.008  1.2465 -0.3469  0.3238
  311MOL0     H42883   5.670   5.209   4.848 -0.8195 -0.1728 -1.0058
  311MOL0     H42884   5.861   5.033   4.934  1.4154 -0.8286  2.8130
  311MOL0     H42885   5.732   5.010   5.062 -0.7308  1.7285 -0.2165
  311MOL0     H42886   5.582   4.927   4.908 -0.0654 -0.2326 -1.2663
  311MOL0     H42887   5.726   4.834   4.899 -2.2299 -1.2183  2.4291
  311MOL0     H42888   5.807   4.993   4.707 -0.3298 -1.2904 -2.1438
  311MOL0     H42889   5.640   5.055   4.690  2.4404  1.5922 -1.6930
  311MOL0     H42890   5.697   4.862   4.529 -0.9047  2.0143  0.7858
  311MOL0     H42891   5.750   4.764   4.667  2.8142  1.4469 -0.0762
  311MOL0     H42892   5.467   4.875   4.692 -2.2377 -2.0317  0.2660
  311MOL0     H42893   5.547   4.725   4.734  1.4439 -0.3261  0.5298
  311MOL0     H42894   5.545   4.648   4.501  0.3651 -2.1990  3.0857
  311MOL0     H42895   5.455   4.791   4.443 -0.0154  0.7396 -0.0861
  311MOL0     H42896   5.280   4.769   4.608  0.3699  0.0901 -0.4151
  311MOL0     H42897   5.338   4.608   4.656  0.7621 -0.6491 -1.4401
  311MOL0     H42898   5.969   5.390   5.174 -0.2219  0.1048  0.0454
  311MOL0     H42899   6.196   5.442   5.102 -2.7230  4.0471  0.5546
  311MOL0     H42900   6.526   5.106   4.682 -0.6279 -0.1473  0.4324
  311MOL0     H42901   6.775   5.116   4.637 -0.6920 -0.5809  0.4661
  311MOL0     H42902   7.317   5.612   4.236 -1.0506  1.0143  1.3066
  311MOL0     H42903   7.326   5.841   4.265 -2.3032 -3.6130  0.7168
  311MOL0     H42904   7.500   6.183   4.432 -0.0501 -1.5438 -0.7424
  311MOL0     H42905   7.556   6.294   4.642  1.8666  2.0394  0.8253
  311MOL0     H42906   7.956   6.223   4.848  4.2850 -0.0656 -1.6354
  311MOL0     H42907   8.014   6.346   4.746  1.5387 -0.8325  2.4973
  311MOL0     H42908   7.937   6.519   4.896 -0.1040 -0.7251  0.5216
  311MOL0     H42909   8.046   6.407   4.961  0.8683  3.2628 -1.1906
  311MOL0     H42910   7.749   6.425   5.001 -1.8480 -2.4834  2.4966
  311MOL0     H42911   7.835   6.286   5.077  1.0897 -0.7508 -2.1288
  311MOL0     H42912   7.893   6.586   5.136 -0.4688  1.1289  1.9802
  311MOL0     H42913   7.969   6.440   5.200 -1.0543 -0.2122 -0.0842
  311MOL0     H42914   7.607   6.459   5.424 -2.6272 -4.4254 -3.8246
  311MOL0     H42915   7.976   6.216   4.567  0.1685  0.6869  0.6284
  311MOL0     H42916   7.925   5.981   4.316 -2.1943  0.7579 -1.3429
  311MOL0     H42917   7.947   6.131   4.231 -1.4214  2.6673  0.8760
  311MOL0     H42918   8.041   6.102   4.379 -0.4264 -3.2992  0.9376
  312MOL0     O42919   0.156   9.146   6.875 -0.0437  0.2487 -0.1701
  312MOL0     C42920   0.220   9.189   6.783 -0.6102 -0.6678  0.6423
  312MOL0     O42921   0.334   9.131   6.726 -0.6898  0.6514 -0.6897
  312MOL0     C42922   0.376   9.005   6.772 -0.1518 -0.4593  0.6794
  312MOL0     C42923   0.463   8.990   6.883 -0.5818 -0.1260  0.3678
  312MOL0     C42924   0.521   8.857   6.904  0.2166 -0.0297 -1.3404
  312MOL0     C42925   0.473   8.742   6.837  0.2711 -0.3434 -0.7506
  312MOL0     O42926   0.514   8.611   6.860  0.4492 -0.5277 -0.3948
  312MOL0     C42927   0.630   8.569   6.941  1.1623  0.4036 -0.5961
  312MOL0     C42928   0.622   8.415   6.974  0.4378 -0.7259  0.9317
  312MOL0     C42929   0.743   8.379   7.059 -0.4473 -0.8274 -0.6132
  312MOL0     C42930   0.755   8.227   7.088  0.2790  0.0948  0.3164
  312MOL0     C42931   0.854   8.199   7.200 -0.8142  0.7507  1.2983
  312MOL0     C42932   0.874   8.042   7.210  0.3878  0.3099 -0.0423
  312MOL0     C42933   1.014   8.022   7.292  0.2073 -0.1029  0.6378
  312MOL0     C42934   1.106   7.908   7.245 -0.6404 -0.2403  0.3064
  312MOL0     N42935   1.064   7.769   7.283 -0.2742 -0.2922  0.2673
  312MOL0     C42936   0.944   7.716   7.261  0.2920 -0.8695  0.3054
  312MOL0     C42937   0.934   7.595   7.322  0.4014  0.0339  0.4144
  312MOL0     C42938   0.816   7.509   7.334  1.2882  0.8145  0.0264
  312MOL0     C42939   0.815   7.418   7.462 -0.4517 -0.0976  0.6370
  312MOL0     C42940   0.665   7.401   7.497 -0.1409 -0.1821 -0.0046
  312MOL0     C42941   0.655   7.331   7.639  1.0560 -0.2648 -0.4705
  312MOL0     O42942   0.521   7.363   7.688 -0.5237 -0.0432 -0.1602
  312MOL0     C42943   0.510   7.358   7.821  0.3682  1.3474  0.0706
  312MOL0     C42944   0.571   7.451   7.916 -0.6593  0.3281  0.0480
  312MOL0     C42945   0.581   7.418   8.060  0.5493  0.2795  0.5313
  312MOL0     C42946   0.653   7.506   8.141 -0.0207 -0.3114  0.1025
  312MOL0     C42947   0.497   7.311   8.118 -0.3660  0.4540  0.0398
  312MOL0     C42948   0.488   7.269   8.262 -0.3687  1.4759 -0.0169
  312MOL0     O42949   0.401   7.156   8.295  0.4955 -0.4012  0.0305
  312MOL0     C42950   0.403   7.113   8.427 -0.1386 -0.5455 -0.1838
  312MOL0     C42951   0.329   7.167   8.540  0.1844  0.4892  1.3845
  312MOL0     C42952   0.362   7.145   8.676  0.4383  0.3646 -0.1938
  312MOL0     C42953   0.453   7.045   8.706 -0.3180 -0.6822 -0.2352
  312MOL0     O42954   0.482   7.008   8.834 -0.2903 -0.8888 -0.4890
  312MOL0     C42955   0.548   7.125   8.893  0.1381 -1.2114  0.7773
  312MOL0     C42956   0.555   7.132   9.038  0.0814 -0.9995 -0.2771
  312MOL0     C42957   0.412   7.147   9.107  0.3847 -0.2700  0.0835
  312MOL0     C42958   0.352   7.030   9.194 -0.4907 -0.2405  0.5273
  312MOL0     C42959   0.209   7.058   9.233  0.3932  0.5245 -0.0945
  312MOL0     C42960   0.110   7.085   9.117 -0.1102  0.0203  0.6440
  312MOL0     C42961   0.141   6.999   8.998 -0.0570  0.0247  0.0208
  312MOL0     C42962   0.085   6.856   9.008 -0.3685  0.1248 -0.3612
  312MOL0    Cl42963  -0.099   6.848   9.012  0.1815  0.2761  0.1786
  312MOL0     C42964   0.516   6.980   8.595  1.2310 -0.7948  0.2315
  312MOL0     C42965   0.503   7.018   8.458 -0.7244  0.4578  0.7754
  312MOL0     O42966   0.558   7.333   8.346  0.2714  0.1867 -0.6017
  312MOL0     C42967   0.433   7.236   8.018  0.1654  0.9093  0.5412
  312MOL0     C42968   0.443   7.247   7.875  1.0451 -0.5292  0.3446
  312MOL0     N42969   1.060   7.566   7.372  0.0915  0.3957 -0.0367
  312MOL0     N42970   1.141   7.672   7.345  0.4017  0.6610  0.0063
  312MOL0     C42971   0.383   8.761   6.732 -0.4576  0.0548 -0.1273
  312MOL0     C42972   0.337   8.893   6.699  0.9169  0.3844  0.0153
  312MOL0     C42973   0.172   9.315   6.720 -0.2649 -0.5163  0.3760
  312MOL0     C42974   0.217   9.331   6.585 -0.2290 -0.9336 -0.1608
  312MOL0     C42975   0.159   9.437   6.505 -0.5815 -0.4160 -0.1473
  312MOL0     C42976   0.073   9.525   6.568 -0.3592 -0.8097  0.5461
  312MOL0     O42977   0.016   9.625   6.490  0.7168 -0.2283  0.2778
  312MOL0     C42978   0.105   9.721   6.445  0.8299 -1.1645  0.4335
  312MOL0     C42979   0.039   9.853   6.481  0.3385 -0.3822  0.2025
  312MOL0     C42980  -0.101   9.875   6.410 -0.0839 -1.4133  0.3904
  312MOL0     C42981  -0.171   9.999   6.451 -0.4492 -0.5726 -0.3390
  312MOL0     C42982  -0.108  10.124   6.404 -0.0521 -0.3749  0.4948
  312MOL0     C42983  -0.044  10.219   6.363 -0.0838  0.7727  0.4103
  312MOL0     C42984   0.025   9.509   6.701 -0.0670  0.0772 -0.0192
  312MOL0     C42985   0.071   9.404   6.781 -0.1766 -0.2202 -0.3097
  312MOL0     C42986   0.026   9.409   6.920  0.2119  0.3039  0.1343
  312MOL0     H42987   0.501   9.076   6.936  0.3669 -0.5862  0.4605
  312MOL0     H42988   0.590   8.834   6.985  0.0495 -0.4720 -1.3207
  312MOL0     H42989   0.623   8.619   7.038  1.9957 -1.1242  0.2873
  312MOL0     H42990   0.724   8.594   6.890  1.2447  0.4479 -0.4240
  312MOL0     H42991   0.536   8.410   7.041  1.0393 -1.1428  1.6728
  312MOL0     H42992   0.609   8.360   6.880  3.4226  2.9164 -1.9602
  312MOL0     H42993   0.836   8.407   7.008 -0.4642 -0.8191 -0.6397
  312MOL0     H42994   0.738   8.447   7.144 -0.6768 -1.0137 -0.4770
  312MOL0     H42995   0.661   8.180   7.117  0.2952 -0.8844 -1.1126
  312MOL0     H42996   0.791   8.186   6.993  2.2888 -1.3553  1.6214
  312MOL0     H42997   0.837   8.245   7.298  1.4744  3.9548  0.3795
  312MOL0     H42998   0.948   8.242   7.164  0.7191 -3.0467  0.2874
  312MOL0     H42999   0.791   7.996   7.264 -0.6143  0.3834 -1.4653
  312MOL0     H43000   0.901   7.991   7.117  0.6971 -2.8393  1.6380
  312MOL0     H43001   0.980   8.003   7.394 -3.5055 -1.4581 -0.6754
  312MOL0     H43002   1.079   8.109   7.273  2.2927 -0.7589  3.9890
  312MOL0     H43003   1.107   7.909   7.136 -3.7144  1.0957  0.1721
  312MOL0     H43004   1.207   7.917   7.285  0.3418  1.3332 -2.3250
  312MOL0     H43005   0.866   7.768   7.206  0.1135 -1.5479 -0.0911
  312MOL0     H43006   0.815   7.456   7.238 -0.2039  1.3123 -0.2660
  312MOL0     H43007   0.724   7.567   7.322 -0.0898 -1.1659  0.4230
  312MOL0     H43008   0.865   7.323   7.442 -1.3053 -0.1898 -1.2604
  312MOL0     H43009   0.868   7.480   7.535 -1.4524 -0.8967  2.0877
  312MOL0     H43010   0.622   7.500   7.515 -0.4903 -0.0127 -1.5566
  312MOL0     H43011   0.595   7.345   7.435 -1.6043 -0.1504  1.5620
  312MOL0     H43012   0.674   7.223   7.632  2.1369 -0.0206 -1.6561
  312MOL0     H43013   0.733   7.373   7.704 -0.4555  0.4761  0.9371
  312MOL0     H43014   0.623   7.526   7.858  0.0816  0.4924  0.9020
  312MOL0     H43015   0.580   7.565   8.197  2.0073  1.5338  0.9582
  312MOL0     H43016   0.709   7.581   8.085 -0.4946 -0.8022 -1.0421
  312MOL0     H43017   0.725   7.460   8.210  0.1167  0.9263  0.8230
  312MOL0     H43018   0.253   7.241   8.520 -0.9149 -0.6783  1.1245
  312MOL0     H43019   0.299   7.207   8.740  0.1823  2.6615 -2.4649
  312MOL0     H43020   0.647   7.126   8.847 -0.5091  2.0216 -0.8100
  312MOL0     H43021   0.513   7.223   8.860  1.5947 -1.8983 -3.4620
  312MOL0     H43022   0.612   7.040   9.058  0.7539 -0.8843 -1.5284
  312MOL0     H43023   0.622   7.217   9.056  1.2231 -1.9350  0.0642
  312MOL0     H43024   0.341   7.182   9.032  3.4802  3.2395 -1.5685
  312MOL0     H43025   0.414   7.225   9.184 -3.4546  0.3666 -0.2500
  312MOL0     H43026   0.407   7.020   9.288 -1.5371  0.4971  1.2409
  312MOL0     H43027   0.367   6.941   9.132  0.0437  2.0505 -2.8888
  312MOL0     H43028   0.174   6.963   9.275 -0.8011  1.3851  0.9199
  312MOL0     H43029   0.195   7.126   9.317  1.2841 -2.8204  2.9938
  312MOL0     H43030   0.118   7.188   9.080  1.8891 -1.1337 -2.6840
  312MOL0     H43031   0.007   7.073   9.150 -0.0640 -1.8101  0.2108
  312MOL0     H43032   0.241   7.002   8.954 -1.4371  0.4804 -3.3352
  312MOL0     H43033   0.075   7.040   8.921  1.1776  0.0622 -1.0400
  312MOL0     H43034   0.127   6.809   9.097 -0.3981 -0.8952 -0.8702
  312MOL0     H43035   0.121   6.809   8.916 -0.7213  0.8941 -0.9049
  312MOL0     H43036   0.578   6.892   8.610  0.8821 -1.1651 -0.4282
  312MOL0     H43037   0.540   6.950   8.382 -2.6258 -2.1374  2.0153
  312MOL0     H43038   0.364   7.164   8.061  1.8102  0.0419  1.8586
  312MOL0     H43039   0.385   7.190   7.803 -2.8469  1.6781  1.4856
  312MOL0     H43040   0.356   8.683   6.662  1.5121  0.5283 -1.5073
  312MOL0     H43041   0.277   8.900   6.609  0.5399  0.0971  0.2426
  312MOL0     H43042   0.298   9.282   6.533 -2.7893 -3.9376 -1.7042
  312MOL0     H43043   0.180   9.450   6.399  1.0761  0.6907  0.2735
  312MOL0     H43044   0.201   9.714   6.498  0.1065 -0.8069  1.8440
  312MOL0     H43045   0.120   9.727   6.337 -1.0750  6.0024  0.0201
  312MOL0     H43046   0.098   9.943   6.460  0.6990 -0.0904  2.1871
  312MOL0     H43047   0.024   9.844   6.589 -2.4418  0.1368 -0.0742
  312MOL0     H43048  -0.084   9.877   6.301 -2.1346  2.5616 -0.0237
  312MOL0     H43049  -0.169   9.793   6.430 -1.4605 -1.0147 -2.1892
  312MOL0     H43050  -0.180  10.008   6.560 -1.0984  1.1867 -0.5112
  312MOL0     H43051  -0.270  10.003   6.404 -1.4397  2.0247  1.6912
  312MOL0     H43052   0.020  10.300   6.333  3.2836 -0.7344  2.8148
  312MOL0     H43053  -0.067   9.555   6.736 -0.2635 -0.0994 -0.2985
  312MOL0     H43054   0.098   9.358   6.986 -0.1374 -2.5678 -1.5307
  312MOL0     H43055   0.022   9.515   6.947  0.7064  0.5094 -0.5857
  312MOL0     H43056  -0.076   9.371   6.925 -1.0115  3.2382 -0.7234
  313MOL0     O43057   8.369  11.158   2.982 -0.0938 -0.8056 -0.5667
  313MOL0     C43058   8.342  11.097   2.880 -0.0899 -0.2803 -0.3869
  313MOL0     O43059   8.430  11.075   2.769  0.2413 -0.2166 -0.1257
  313MOL0     C43060   8.552  11.144   2.769  0.6647  0.4599  0.2241
  313MOL0     C43061   8.561  11.259   2.696 -0.2247  0.0643  0.7098
  313MOL0     C43062   8.672  11.341   2.707 -0.4724 -0.2436 -0.6679
  313MOL0     C43063   8.766  11.316   2.800 -0.1681 -0.2168  0.9329
  313MOL0     O43064   8.878  11.393   2.787 -0.0480  0.7391  0.6249
  313MOL0     C43065   8.881  11.528   2.814 -0.0851 -0.6636 -0.1455
  313MOL0     C43066   9.033  11.578   2.824  0.4093  1.3522  0.5013
  313MOL0     C43067   9.056  11.703   2.909  0.2044 -0.6579 -0.3430
  313MOL0     C43068   9.203  11.756   2.897 -0.5601  0.5659  0.2066
  313MOL0     C43069   9.247  11.860   2.995  0.5534  0.1392  0.5775
  313MOL0     C43070   9.397  11.882   2.988  0.9808  0.1433  0.0056
  313MOL0     C43071   9.488  11.768   3.031  0.0970 -0.0150  0.2665
  313MOL0     C43072   9.459  11.712   3.175 -0.6328  0.4398  0.3561
  313MOL0     N43073   9.481  11.814   3.278 -0.5907 -0.0564 -0.2477
  313MOL0     C43074   9.607  11.883   3.297 -0.1558  0.6375 -0.2885
  313MOL0     C43075   9.593  11.947   3.415  0.7186  0.2875  0.4504
  313MOL0     C43076   9.692  12.025   3.486  0.0163 -0.2150  0.5306
  313MOL0     C43077   9.777  11.936   3.579  0.6818 -0.6635 -0.0047
  313MOL0     C43078   9.922  11.963   3.589  0.7949  0.0095 -1.1292
  313MOL0     C43079   9.948  12.097   3.667 -0.2258  0.0048 -0.2480
  313MOL0     O43080   9.945  12.194   3.564  0.8162  0.2902  0.4610
  313MOL0     C43081   9.958  12.320   3.603  0.3651 -0.0585 -0.6681
  313MOL0     C43082  10.086  12.372   3.649  0.1121  0.7908  0.6869
  313MOL0     C43083  10.099  12.505   3.676 -0.2831 -0.7033 -0.5440
  313MOL0     C43084  10.213  12.562   3.750  0.4056 -0.9565 -0.1347
  313MOL0     C43085   9.978  12.586   3.671 -0.1584 -0.2141 -0.5584
  313MOL0     C43086   9.970  12.726   3.710 -0.2985  0.9248  0.1008
  313MOL0     O43087   9.856  12.768   3.770 -0.1896  0.3164  0.0047
  313MOL0     C43088   9.837  12.903   3.788  0.6995 -0.3012 -0.4872
  313MOL0     C43089   9.919  12.974   3.879  0.1140  0.2342 -0.4043
  313MOL0     C43090   9.887  13.105   3.909  0.7148 -0.3994 -1.0140
  313MOL0     C43091   9.784  13.175   3.840  0.3839 -0.3833  0.4887
  313MOL0     O43092   9.772  13.312   3.866  0.3875  0.1841 -0.9517
  313MOL0     C43093   9.707  13.340   3.990 -0.7959 -0.1501  0.3249
  313MOL0     C43094   9.627  13.475   3.972  1.2143 -0.1853  0.3841
  313MOL0     C43095   9.510  13.469   3.877 -0.0293  1.1096  0.7329
  313MOL0     C43096   9.453  13.613   3.851 -0.4067  0.0935 -0.2228
  313MOL0     C43097   9.325  13.602   3.768  0.0436  0.1718 -0.0126
  313MOL0     C43098   9.354  13.547   3.624  0.2687  0.4904  0.7317
  313MOL0     C43099   9.222  13.534   3.536 -0.3107  0.7269  0.5636
  313MOL0     C43100   9.265  13.484   3.397  0.0828  0.1078 -0.0828
  313MOL0    Cl43101   9.309  13.626   3.280 -0.4136 -0.0609  0.5170
  313MOL0     C43102   9.707  13.110   3.748 -0.0545 -0.2917  0.2751
  313MOL0     C43103   9.733  12.974   3.723 -0.4963 -0.8043  0.3196
  313MOL0     O43104  10.062  12.798   3.679 -0.2079 -0.2161 -0.4381
  313MOL0     C43105   9.847  12.527   3.648 -0.1948 -0.5691  0.6607
  313MOL0     C43106   9.840  12.395   3.612 -0.7320 -0.0592 -0.4476
  313MOL0     N43107   9.458  11.926   3.460 -0.1975  0.1069 -0.3434
  313MOL0     N43108   9.395  11.852   3.372  0.1645 -0.7179 -0.3597
  313MOL0     C43109   8.765  11.194   2.864  0.2942 -0.5173 -0.5972
  313MOL0     C43110   8.656  11.103   2.843 -0.2622  0.6264  0.2589
  313MOL0     C43111   8.193  11.077   2.852  0.5905 -0.1229 -0.2494
  313MOL0     C43112   8.146  11.097   2.721  0.2706 -0.2078  0.2167
  313MOL0     C43113   8.011  11.107   2.694 -0.4105  0.1297 -0.6017
  313MOL0     C43114   7.918  11.094   2.795 -1.1728  0.1329 -0.4151
  313MOL0     O43115   7.793  11.101   2.751  0.4498 -0.3189  0.3763
  313MOL0     C43116   7.679  11.114   2.838 -0.4286  0.2598 -0.8581
  313MOL0     C43117   7.557  11.175   2.765  0.7519  0.7138 -0.0602
  313MOL0     C43118   7.496  11.088   2.653  0.1318  0.0159  0.5332
  313MOL0     C43119   7.372  11.156   2.600  0.2609 -1.1138  0.0766
  313MOL0     C43120   7.316  11.080   2.482  0.6916  0.0229  0.4782
  313MOL0     C43121   7.260  11.023   2.395 -0.2517  0.8759  0.5466
  313MOL0     C43122   7.957  11.070   2.922 -0.7169  0.6702 -0.7028
  313MOL0     C43123   8.095  11.059   2.953 -0.5443  0.5314  0.3333
  313MOL0     C43124   8.131  11.030   3.095 -0.2553 -0.2699 -0.7930
  313MOL0     H43125   8.490  11.292   2.621 -0.4020 -0.2277  0.7484
  313MOL0     H43126   8.706  11.424   2.646  3.0889 -1.9955 -1.3483
  313MOL0     H43127   8.835  11.556   2.909  0.9125  2.4003 -0.4327
  313MOL0     H43128   8.829  11.583   2.735  2.0816 -0.4433 -1.5121
  313MOL0     H43129   9.100  11.499   2.861  0.8292  1.1443 -0.6730
  313MOL0     H43130   9.067  11.593   2.721  2.2901 -2.4507  0.3836
  313MOL0     H43131   8.996  11.787   2.873  0.1026 -0.4722  0.2520
  313MOL0     H43132   9.036  11.682   3.014  3.5096  1.4970  0.8846
  313MOL0     H43133   9.262  11.664   2.908 -2.4238 -0.7239 -0.1046
  313MOL0     H43134   9.232  11.796   2.799 -0.0657  0.5977  0.3627
  313MOL0     H43135   9.218  11.832   3.096 -2.2201 -0.7767 -0.3787
  313MOL0     H43136   9.205  11.957   2.964 -2.5613 -1.4105 -0.4245
  313MOL0     H43137   9.427  11.893   2.884  1.2796  1.0701  0.1817
  313MOL0     H43138   9.425  11.976   3.036 -0.7034 -1.3252  4.3710
  313MOL0     H43139   9.591  11.803   3.017  1.3238 -3.2535  0.3426
  313MOL0     H43140   9.469  11.683   2.965 -2.7125 -0.7464  1.8852
  313MOL0     H43141   9.351  11.695   3.180 -0.4568 -2.2778 -2.1687
  313MOL0     H43142   9.500  11.614   3.198 -2.0406  0.2409  2.1654
  313MOL0     H43143   9.701  11.868   3.245 -1.0955 -2.8253 -1.2796
  313MOL0     H43144   9.655  12.114   3.537  1.3309  0.0377  1.0737
  313MOL0     H43145   9.762  12.070   3.415  0.6232  0.4718  1.5365
  313MOL0     H43146   9.734  11.953   3.679  0.1061 -3.0680  0.2252
  313MOL0     H43147   9.741  11.834   3.564 -0.5633 -0.4502  1.2611
  313MOL0     H43148   9.967  11.887   3.653  0.8137  1.7513  1.0546
  313MOL0     H43149   9.966  11.940   3.491  1.9716 -0.8318 -0.4333
  313MOL0     H43150   9.875  12.119   3.746 -0.5161  1.3520 -0.8609
  313MOL0     H43151  10.043  12.105   3.720 -2.4978  2.0065  4.0426
  313MOL0     H43152  10.173  12.307   3.647  0.7599  1.6614 -0.6899
  313MOL0     H43153  10.174  12.624   3.831 -3.0587 -2.1014 -0.7689
  313MOL0     H43154  10.279  12.612   3.678  1.4511 -0.1524  1.3264
  313MOL0     H43155  10.283  12.495   3.800  2.0909  2.0860  1.8809
  313MOL0     H43156  10.000  12.921   3.930  0.7226  3.2202  2.0327
  313MOL0     H43157   9.954  13.150   3.981  2.4619 -2.4610 -1.2536
  313MOL0     H43158   9.631  13.267   4.018  0.2297 -0.3363  2.9576
  313MOL0     H43159   9.778  13.351   4.073 -0.4409  1.5866 -0.1637
  313MOL0     H43160   9.576  13.489   4.068 -0.0752 -2.1811  0.0490
  313MOL0     H43161   9.699  13.554   3.946 -2.5233  2.8598 -1.7693
  313MOL0     H43162   9.438  13.392   3.906 -0.4792  0.8059 -1.0737
  313MOL0     H43163   9.548  13.432   3.781  2.5821  0.9490  1.7359
  313MOL0     H43164   9.531  13.678   3.812  2.4318 -2.6244  0.5102
  313MOL0     H43165   9.438  13.651   3.953  0.8794  0.4316 -0.1406
  313MOL0     H43166   9.265  13.523   3.813  1.6613 -1.6547 -0.9014
  313MOL0     H43167   9.274  13.698   3.759  0.5369  0.4911  0.6000
  313MOL0     H43168   9.390  13.443   3.620 -2.2332 -0.4218  0.0723
  313MOL0     H43169   9.425  13.618   3.581 -1.2038  2.3703  1.3036
  313MOL0     H43170   9.171  13.631   3.535 -0.8011  0.4708 -0.1169
  313MOL0     H43171   9.148  13.468   3.582 -0.6594 -0.8959 -2.1179
  313MOL0     H43172   9.179  13.438   3.347  1.2712  0.0982 -2.2156
  313MOL0     H43173   9.341  13.406   3.406  0.2629  0.1115 -1.4618
  313MOL0     H43174   9.636  13.165   3.688  2.6136  1.3102 -1.6657
  313MOL0     H43175   9.682  12.916   3.646  0.6568  0.4830 -1.4939
  313MOL0     H43176   9.755  12.581   3.630 -1.6455 -2.9198  0.6634
  313MOL0     H43177   9.741  12.362   3.582 -0.2684 -1.0971 -0.8610
  313MOL0     H43178   8.846  11.170   2.931  2.1704  3.2911 -1.2061
  313MOL0     H43179   8.666  11.010   2.899 -0.0296  0.4288 -0.1089
  313MOL0     H43180   8.226  11.102   2.648  1.1645  3.8450  1.1892
  313MOL0     H43181   7.971  11.137   2.597 -0.8027 -0.5103 -0.6484
  313MOL0     H43182   7.657  11.012   2.871  1.4853 -0.5008 -1.7825
  313MOL0     H43183   7.699  11.180   2.923  0.2666 -0.9603 -0.0498
  313MOL0     H43184   7.582  11.271   2.721 -0.7342  0.2256 -2.1179
  313MOL0     H43185   7.481  11.201   2.839  0.9986  1.1279  0.0476
  313MOL0     H43186   7.565  11.088   2.567 -1.3671 -0.5595 -0.7173
  313MOL0     H43187   7.469  10.985   2.678 -1.6303 -0.2483 -2.0330
  313MOL0     H43188   7.386  11.259   2.567 -1.3950 -0.8543  0.0720
  313MOL0     H43189   7.290  11.150   2.672  0.1932 -3.4778 -0.1262
  313MOL0     H43190   7.207  10.998   2.306  0.2973 -0.5935  0.6152
  313MOL0     H43191   7.879  11.052   2.995  1.2211  1.8173  1.8218
  313MOL0     H43192   8.042  10.978   3.133 -0.9852  0.6419 -1.2107
  313MOL0     H43193   8.224  10.974   3.103  0.1273 -0.5707 -5.1696
  313MOL0     H43194   8.146  11.117   3.159 -1.9061 -1.9396  2.1565
  314MOL0     O43195   3.324  11.463   0.147  0.4697  0.3389 -0.0904
  314MOL0     C43196   3.275  11.470   0.033  0.3452  0.3277  0.6470
  314MOL0     O43197   3.346  11.453  -0.089  0.8386 -0.1644 -0.6192
  314MOL0     C43198   3.469  11.394  -0.102 -0.5153  0.9133  0.1772
  314MOL0     C43199   3.531  11.415  -0.224  0.2783  0.1735  0.3411
  314MOL0     C43200   3.661  11.371  -0.254  1.0029 -0.2937 -0.1621
  314MOL0     C43201   3.727  11.290  -0.158 -0.3491 -0.3162 -0.4270
  314MOL0     O43202   3.849  11.242  -0.195 -0.5902 -0.0408  0.4652
  314MOL0     C43203   3.953  11.240  -0.095 -0.5835  0.0793 -0.3056
  314MOL0     C43204   4.048  11.125  -0.116 -0.0033  0.4589  1.3258
  314MOL0     C43205   3.966  10.999  -0.090 -0.1565  0.6842  0.1955
  314MOL0     C43206   4.062  10.881  -0.082  0.4512 -0.9612  0.5731
  314MOL0     C43207   3.993  10.753  -0.045  0.2252 -0.8022  0.6539
  314MOL0     C43208   4.080  10.624  -0.071  0.2231 -0.8887  0.2683
  314MOL0     C43209   4.196  10.601   0.033  0.6445  0.1248 -0.1513
  314MOL0     C43210   4.333  10.610  -0.036 -0.0754  0.3288 -0.0443
  314MOL0     N43211   4.352  10.490  -0.122  0.3278  0.5413 -0.1880
  314MOL0     C43212   4.356  10.500  -0.266 -0.9674  0.3787  0.4743
  314MOL0     C43213   4.378  10.368  -0.309  0.2255 -1.0020  0.9196
  314MOL0     C43214   4.397  10.329  -0.456  1.0543 -0.5137  0.7590
  314MOL0     C43215   4.530  10.381  -0.500 -0.0333  1.1328 -0.6892
  314MOL0     C43216   4.568  10.292  -0.624  0.6860 -0.2083 -0.6627
  314MOL0     C43217   4.688  10.346  -0.697 -0.1021 -0.7878  0.2264
  314MOL0     O43218   4.657  10.469  -0.774 -0.7161  0.4306  0.2497
  314MOL0     C43219   4.748  10.564  -0.790 -0.8249 -0.2584  0.1003
  314MOL0     C43220   4.703  10.698  -0.799  0.3164 -0.2101 -0.1703
  314MOL0     C43221   4.775  10.811  -0.820  0.0143 -0.2114  0.9505
  314MOL0     C43222   4.707  10.940  -0.812  0.8611 -0.7886 -0.9065
  314MOL0     C43223   4.918  10.797  -0.838  1.0980  0.0719  0.1300
  314MOL0     C43224   5.001  10.905  -0.891 -0.5990  0.5151  0.3689
  314MOL0     O43225   5.131  10.899  -0.855  0.1918  0.0611  0.6986
  314MOL0     C43226   5.221  10.976  -0.919 -1.0374 -0.4665  0.1522
  314MOL0     C43227   5.243  11.107  -0.875 -0.2801 -0.6917  0.6340
  314MOL0     C43228   5.325  11.201  -0.953  0.1795  0.7340 -1.3235
  314MOL0     C43229   5.396  11.155  -1.066  0.3908 -0.1713 -1.1230
  314MOL0     O43230   5.477  11.243  -1.137 -0.4256 -0.2199  0.0441
  314MOL0     C43231   5.508  11.381  -1.110  0.9524 -0.2478 -0.1005
  314MOL0     C43232   5.400  11.479  -1.133  0.9384 -1.3359  0.5447
  314MOL0     C43233   5.353  11.482  -1.283 -0.4321  0.9024  0.3309
  314MOL0     C43234   5.229  11.576  -1.278  0.1758 -0.2651 -0.5772
  314MOL0     C43235   5.151  11.555  -1.407  0.8567  0.3217  0.1198
  314MOL0     C43236   5.230  11.577  -1.539 -0.8898  0.5988  0.0812
  314MOL0     C43237   5.306  11.713  -1.539 -0.0371  0.1753  0.9623
  314MOL0     C43238   5.231  11.841  -1.527 -0.3436  0.4498  0.4917
  314MOL0    Cl43239   5.346  11.962  -1.467  0.2806  0.0206  0.4088
  314MOL0     C43240   5.386  11.019  -1.103  0.1295  0.3431  0.3095
  314MOL0     C43241   5.293  10.937  -1.039 -0.1296  0.4852 -0.2121
  314MOL0     O43242   4.951  10.989  -0.962  0.0365  0.4132  0.7042
  314MOL0     C43243   4.968  10.668  -0.827  0.3794  0.2426 -0.3893
  314MOL0     C43244   4.885  10.557  -0.798  0.4004  0.2245 -0.0933
  314MOL0     N43245   4.396  10.294  -0.199 -1.1829  0.6101 -0.4248
  314MOL0     N43246   4.385  10.363  -0.095 -0.0305  0.6337 -0.2989
  314MOL0     C43247   3.668  11.260  -0.040 -1.2054  0.9282 -0.7365
  314MOL0     C43248   3.550  11.318  -0.012  0.2461  0.6590 -0.0457
  314MOL0     C43249   3.132  11.513   0.021 -0.2266  0.8445 -0.3666
  314MOL0     C43250   3.090  11.585  -0.087 -0.3039 -0.9998  0.4218
  314MOL0     C43251   2.965  11.640  -0.099 -0.1096  0.5944 -0.0770
  314MOL0     C43252   2.871  11.621   0.004 -0.2486  0.3189 -0.4806
  314MOL0     O43253   2.758  11.698   0.003  0.4764  0.5976  0.2712
  314MOL0     C43254   2.698  11.742  -0.118  0.0459  0.0622 -0.1647
  314MOL0     C43255   2.569  11.812  -0.096  0.0291 -0.4973 -0.6399
  314MOL0     C43256   2.604  11.940  -0.016  0.0944  0.1593 -0.3737
  314MOL0     C43257   2.484  12.043  -0.028 -0.9136 -0.1284 -0.3331
  314MOL0     C43258   2.371  12.011   0.049 -0.2406  1.2230 -0.0367
  314MOL0     C43259   2.266  11.993   0.096  0.0908  0.6885 -0.0890
  314MOL0     C43260   2.905  11.541   0.115 -1.2634 -0.7725 -0.0060
  314MOL0     C43261   3.033  11.483   0.121  0.4056  0.1706 -0.4069
  314MOL0     C43262   3.070  11.416   0.252  0.1896 -0.2068  0.5903
  314MOL0     H43263   3.487  11.479  -0.299  1.0771  1.8650  1.2538
  314MOL0     H43264   3.706  11.396  -0.349 -2.0625  1.5742 -1.2530
  314MOL0     H43265   3.920  11.250   0.009  2.2362  1.7647  0.5291
  314MOL0     H43266   4.011  11.333  -0.102  1.4818 -1.2421 -2.1884
  314MOL0     H43267   4.092  11.125  -0.216  0.0142  0.2496  1.3321
  314MOL0     H43268   4.132  11.136  -0.046  0.6378  0.7447  0.5214
  314MOL0     H43269   3.912  11.009   0.005 -0.6772  0.4133 -0.0672
  314MOL0     H43270   3.893  10.992  -0.171  0.9301  1.7790 -0.9413
  314MOL0     H43271   4.120  10.875  -0.175  1.0855  0.1387  0.8812
  314MOL0     H43272   4.141  10.893  -0.008 -1.9782 -2.6084  3.6574
  314MOL0     H43273   3.897  10.741  -0.096  0.2164 -2.2223  0.9563
  314MOL0     H43274   3.961  10.761   0.060 -4.6259 -0.9200 -0.5528
  314MOL0     H43275   4.010  10.539  -0.076 -1.0211  0.1811 -1.5077
  314MOL0     H43276   4.117  10.641  -0.172  0.3893 -0.9425  0.3207
  314MOL0     H43277   4.171  10.509   0.087  1.5857  0.9502  1.7930
  314MOL0     H43278   4.205  10.675   0.113  3.2911 -0.2893  0.0266
  314MOL0     H43279   4.332  10.699  -0.099  0.1398 -1.2738 -2.4508
  314MOL0     H43280   4.415  10.630   0.033  2.1836  0.0563 -2.4942
  314MOL0     H43281   4.366  10.585  -0.333  3.7903  1.0756  1.6938
  314MOL0     H43282   4.319  10.379  -0.514  1.3275  4.7173  4.2487
  314MOL0     H43283   4.394  10.221  -0.478 -0.8699 -0.7095  1.8151
  314MOL0     H43284   4.517  10.487  -0.524  1.4659  1.3205 -0.7910
  314MOL0     H43285   4.599  10.369  -0.416 -2.2644  0.6450  1.1736
  314MOL0     H43286   4.580  10.193  -0.579 -0.6661 -0.6350 -1.2046
  314MOL0     H43287   4.487  10.296  -0.697 -1.3912 -1.0976  1.4914
  314MOL0     H43288   4.771  10.359  -0.627  0.0782  2.1202 -0.4114
  314MOL0     H43289   4.716  10.264  -0.765  1.2051 -1.5032  1.5634
  314MOL0     H43290   4.597  10.710  -0.783  0.9432  0.9573  4.3320
  314MOL0     H43291   4.651  10.939  -0.905  2.0237 -0.6889 -1.6276
  314MOL0     H43292   4.764  11.034  -0.810 -0.9335  0.3583  0.1959
  314MOL0     H43293   4.645  10.942  -0.722  2.5806 -1.1123  0.3319
  314MOL0     H43294   5.197  11.143  -0.783 -1.7072 -3.0973  0.9441
  314MOL0     H43295   5.362  11.295  -0.912  1.2458  0.2560 -1.1545
  314MOL0     H43296   5.518  11.391  -1.001 -0.5908  2.3307 -0.0922
  314MOL0     H43297   5.598  11.405  -1.166  1.3838 -2.2150 -0.3110
  314MOL0     H43298   5.315  11.455  -1.069  0.6676 -0.6622  0.4478
  314MOL0     H43299   5.440  11.581  -1.126 -1.3669 -0.3793  0.3724
  314MOL0     H43300   5.323  11.380  -1.311 -1.0305  1.4152 -0.9142
  314MOL0     H43301   5.437  11.520  -1.342 -1.7738  2.2262 -0.7594
  314MOL0     H43302   5.260  11.680  -1.280 -0.7006  0.0371  0.3115
  314MOL0     H43303   5.168  11.556  -1.189  0.3797 -2.0419 -0.7861
  314MOL0     H43304   5.109  11.454  -1.411 -0.0092  0.5946  1.7126
  314MOL0     H43305   5.062  11.618  -1.407  0.0415 -0.7710 -1.3414
  314MOL0     H43306   5.175  11.561  -1.632 -2.2913 -2.9897  1.3325
  314MOL0     H43307   5.317  11.510  -1.539  0.3964  2.0791 -3.0913
  314MOL0     H43308   5.351  11.731  -1.637  0.1002 -0.6873  0.8601
  314MOL0     H43309   5.390  11.720  -1.470  1.3585 -0.9861 -0.5405
  314MOL0     H43310   5.139  11.840  -1.468 -0.9040  0.1750 -0.3711
  314MOL0     H43311   5.204  11.861  -1.631 -2.1145 -1.1108  0.6163
  314MOL0     H43312   5.440  10.976  -1.187 -0.3983  1.7963 -0.8335
  314MOL0     H43313   5.283  10.838  -1.082  0.4026  0.2552  0.1762
  314MOL0     H43314   5.074  10.643  -0.828  0.1727 -0.8546  1.0173
  314MOL0     H43315   4.941  10.471  -0.763  2.4951  2.3244  2.0626
  314MOL0     H43316   3.726  11.193   0.023  0.0295  3.3946  0.9287
  314MOL0     H43317   3.492  11.284   0.073 -3.1921  3.1261 -1.1869
  314MOL0     H43318   3.150  11.619  -0.172 -1.8515  2.3275  0.5046
  314MOL0     H43319   2.943  11.686  -0.195  1.4060 -1.0398 -1.2700
  314MOL0     H43320   2.774  11.814  -0.149  2.6482 -1.4037  2.3001
  314MOL0     H43321   2.696  11.667  -0.198 -1.5231  3.1064 -3.2203
  314MOL0     H43322   2.500  11.746  -0.042 -0.7960  0.2130 -0.7977
  314MOL0     H43323   2.515  11.840  -0.187  0.8451  1.8409 -0.4643
  314MOL0     H43324   2.617  11.910   0.088  2.4180 -1.4318 -1.0381
  314MOL0     H43325   2.693  11.986  -0.059 -0.4138  3.2493  1.5575
  314MOL0     H43326   2.454  12.057  -0.132 -1.4586  3.5429  0.1614
  314MOL0     H43327   2.505  12.146   0.004 -0.1997  0.0954 -1.4600
  314MOL0     H43328   2.170  11.980   0.142 -0.6592  0.4789 -1.6433
  314MOL0     H43329   2.838  11.528   0.199  2.2975  0.0302  3.2436
  314MOL0     H43330   3.094  11.311   0.233 -0.5331 -0.5209  1.3141
  314MOL0     H43331   3.149  11.468   0.307 -1.6717  5.4161 -1.3648
  314MOL0     H43332   2.982  11.411   0.318 -0.0900 -4.1029  0.1356
  315MOL0     O43333   2.381   2.647   6.439  0.7266  0.1377  0.9217
  315MOL0     C43334   2.319   2.646   6.542  0.5152 -0.4379 -0.0926
  315MOL0     O43335   2.220   2.560   6.584  0.4232 -0.2292 -1.2950
  315MOL0     C43336   2.168   2.459   6.512 -0.3396  0.4689 -0.0342
  315MOL0     C43337   2.175   2.434   6.371  0.4645 -0.0811 -0.3838
  315MOL0     C43338   2.086   2.330   6.316  0.5171 -0.9653 -0.0259
  315MOL0     C43339   1.995   2.254   6.390  0.3501 -0.4776 -0.1034
  315MOL0     O43340   1.915   2.152   6.353 -0.5410  0.2809  0.2799
  315MOL0     C43341   1.915   2.121   6.212  0.0747  0.1687 -0.2910
  315MOL0     C43342   1.799   2.027   6.174 -0.2102  0.1033 -0.5580
  315MOL0     C43343   1.831   1.915   6.056  0.4279 -0.1368  0.0458
  315MOL0     C43344   1.701   1.850   6.016 -0.9045  0.4424 -0.4586
  315MOL0     C43345   1.726   1.738   5.917  0.2621 -0.3039 -1.5075
  315MOL0     C43346   1.735   1.609   5.991 -0.6633 -0.7726 -0.1994
  315MOL0     C43347   1.737   1.510   5.879 -1.8820  0.3792  1.3911
  315MOL0     C43348   1.755   1.355   5.918  0.5228  0.1649  1.2213
  315MOL0     N43349   1.622   1.288   5.944 -0.3383 -0.7881 -0.1573
  315MOL0     C43350   1.517   1.346   6.024 -0.6909  0.1953 -0.1465
  315MOL0     C43351   1.419   1.248   6.028  0.1344  0.5509  1.3322
  315MOL0     C43352   1.298   1.249   6.111 -0.8222 -0.4719  0.0747
  315MOL0     C43353   1.173   1.330   6.048 -0.5433  0.4610  0.0357
  315MOL0     C43354   1.092   1.253   5.937  0.4927  0.8615  1.0317
  315MOL0     C43355   0.985   1.328   5.865  0.8216  0.1382  0.2214
  315MOL0     O43356   0.887   1.239   5.816  0.4363  0.5532 -0.0586
  315MOL0     C43357   0.898   1.184   5.688 -1.6029  0.2622  0.1963
  315MOL0     C43358   1.020   1.166   5.616 -0.1534 -0.1138 -0.4184
  315MOL0     C43359   1.032   1.096   5.505  0.7622 -0.3790 -0.6633
  315MOL0     C43360   1.159   1.110   5.421  0.1451  0.0252  0.2549
  315MOL0     C43361   0.911   1.044   5.449  0.0144  0.1996 -0.2377
  315MOL0     C43362   0.912   0.956   5.319 -0.0228  0.0802 -0.5546
  315MOL0     O43363   0.935   0.824   5.324 -0.0260 -0.0424  0.2290
  315MOL0     C43364   0.952   0.754   5.202 -0.8326 -1.1825 -0.2263
  315MOL0     C43365   0.887   0.635   5.182 -0.1366  0.1555  0.3581
  315MOL0     C43366   0.909   0.562   5.064  0.1370 -0.4759  0.2204
  315MOL0     C43367   1.012   0.604   4.981 -0.1234  0.8300 -0.5694
  315MOL0     O43368   1.017   0.533   4.863 -0.2037 -0.3277 -0.2851
  315MOL0     C43369   1.139   0.544   4.790 -0.0050 -0.7020  0.5183
  315MOL0     C43370   1.156   0.407   4.707 -0.4750  0.0913 -0.2038
  315MOL0     C43371   1.028   0.348   4.634 -0.4577  0.5647 -1.2383
  315MOL0     C43372   1.053   0.207   4.590  0.6096  0.4237  0.1776
  315MOL0     C43373   0.988   0.079   4.661  0.4788 -0.1760 -0.9218
  315MOL0     C43374   0.996  -0.046   4.567  0.8607 -0.3359 -0.1596
  315MOL0     C43375   0.945  -0.167   4.639  0.7427 -0.1461 -0.5309
  315MOL0     C43376   0.926  -0.283   4.546 -0.0910  0.6599 -0.0852
  315MOL0    Cl43377   1.072  -0.305   4.450 -0.0281 -0.2798  0.2974
  315MOL0     C43378   1.078   0.724   5.005 -1.1559 -0.6375  0.0389
  315MOL0     C43379   1.049   0.802   5.111 -0.2655 -0.2724  0.8610
  315MOL0     O43380   0.889   1.023   5.222 -0.2271  0.0472  0.2437
  315MOL0     C43381   0.785   1.075   5.506  0.4528  0.3096  0.0271
  315MOL0     C43382   0.780   1.146   5.629  0.4811  0.6649 -0.7772
  315MOL0     N43383   1.455   1.145   5.948 -0.5952  0.5844  0.0289
  315MOL0     N43384   1.574   1.166   5.901  0.7428  0.7085 -0.4635
  315MOL0     C43385   1.990   2.286   6.526  0.0960  0.5320 -1.0454
  315MOL0     C43386   2.068   2.395   6.583  0.3045  0.3385  0.8114
  315MOL0     C43387   2.345   2.767   6.629  0.3856 -0.5214  0.0218
  315MOL0     C43388   2.381   2.899   6.574 -0.7520  0.1773  0.5870
  315MOL0     C43389   2.401   3.015   6.645  0.1598 -0.2865 -0.2421
  315MOL0     C43390   2.381   3.008   6.780 -0.3021 -0.5748  0.4275
  315MOL0     O43391   2.372   3.132   6.851  0.3580  0.2740 -0.4421
  315MOL0     C43392   2.372   3.151   6.993 -0.4256  0.1878  0.5078
  315MOL0     C43393   2.229   3.110   7.044 -0.4074  0.3820 -0.0262
  315MOL0     C43394   2.121   3.215   7.008  0.1154  0.0380 -0.5723
  315MOL0     C43395   2.109   3.328   7.114 -0.6083  0.0611 -0.3325
  315MOL0     C43396   2.205   3.438   7.099 -0.9398 -0.0371 -0.2628
  315MOL0     C43397   2.287   3.528   7.094 -0.1143 -0.0758 -0.3826
  315MOL0     C43398   2.358   2.881   6.843 -0.5951 -1.0826  0.5225
  315MOL0     C43399   2.341   2.768   6.771  0.0241  0.0408 -1.0218
  315MOL0     C43400   2.294   2.652   6.854 -0.3411  0.8317  0.1544
  315MOL0     H43401   2.237   2.496   6.308 -1.3383 -1.3172 -3.5804
  315MOL0     H43402   2.104   2.305   6.211  1.6782 -2.4382  0.4824
  315MOL0     H43403   2.009   2.073   6.183  1.0532  2.7731 -1.7814
  315MOL0     H43404   1.908   2.218   6.162  1.0189  0.5518  0.2878
  315MOL0     H43405   1.777   1.974   6.268  0.0502 -1.5321 -1.3852
  315MOL0     H43406   1.700   2.071   6.159 -0.9402 -1.0818  0.5280
  315MOL0     H43407   1.886   1.958   5.971 -1.0494  0.4609 -0.6471
  315MOL0     H43408   1.900   1.845   6.104  1.0484  0.8872  0.6900
  315MOL0     H43409   1.648   1.819   6.107  0.9852  1.2100  0.9549
  315MOL0     H43410   1.625   1.908   5.963 -2.1635 -1.5347 -0.9433
  315MOL0     H43411   1.820   1.753   5.863  0.7257 -2.5668 -1.4665
  315MOL0     H43412   1.652   1.738   5.836  0.0601  1.5106 -1.3487
  315MOL0     H43413   1.818   1.596   6.061 -0.5877 -0.9253 -0.3181
  315MOL0     H43414   1.642   1.597   6.047 -0.3776 -0.6058  0.3197
  315MOL0     H43415   1.830   1.530   5.825 -0.7484 -0.2774  3.0135
  315MOL0     H43416   1.652   1.506   5.811 -0.7154 -0.8487 -0.0619
  315MOL0     H43417   1.803   1.298   5.838 -2.0339 -0.0890 -0.2427
  315MOL0     H43418   1.823   1.359   6.004 -0.0352  0.9395  1.6465
  315MOL0     H43419   1.506   1.441   6.076  1.0713  0.7219 -0.6838
  315MOL0     H43420   1.324   1.295   6.206 -0.9439  2.5293 -1.2381
  315MOL0     H43421   1.272   1.145   6.134  0.7625 -0.9049 -0.0183
  315MOL0     H43422   1.102   1.340   6.130 -0.7493  4.3167 -0.4562
  315MOL0     H43423   1.202   1.431   6.016 -3.0089  1.8811  1.9436
  315MOL0     H43424   1.167   1.226   5.861 -0.1528  0.2017  0.6197
  315MOL0     H43425   1.062   1.155   5.974 -0.5488  1.4512  1.7862
  315MOL0     H43426   0.941   1.400   5.933  1.2855 -0.6620  1.4065
  315MOL0     H43427   1.026   1.390   5.785  0.6642  1.2979  1.0184
  315MOL0     H43428   1.097   1.230   5.660 -1.6123  1.7493 -0.4400
  315MOL0     H43429   1.240   1.053   5.467  2.3385  3.0708  0.5267
  315MOL0     H43430   1.197   1.212   5.412 -2.6641  1.0556 -0.9164
  315MOL0     H43431   1.149   1.069   5.321  1.3945 -1.4666  0.7134
  315MOL0     H43432   0.815   0.597   5.254  1.2414 -2.0042  0.6820
  315MOL0     H43433   0.852   0.474   5.038 -1.5223  0.3912  0.8099
  315MOL0     H43434   1.131   0.626   4.719 -2.7629 -0.7352  0.6645
  315MOL0     H43435   1.230   0.557   4.849  3.0414 -1.9378 -3.4483
  315MOL0     H43436   1.233   0.438   4.636 -0.3139 -0.6296 -0.3486
  315MOL0     H43437   1.191   0.329   4.775 -0.8995 -1.6406 -1.8803
  315MOL0     H43438   0.998   0.415   4.553 -0.9065  2.6942  0.5911
  315MOL0     H43439   0.946   0.351   4.707  0.3227  3.2627 -0.3729
  315MOL0     H43440   1.159   0.194   4.569  1.1815  1.4961  2.0956
  315MOL0     H43441   1.008   0.202   4.491 -0.2183 -0.7652  0.5922
  315MOL0     H43442   1.033   0.052   4.757  1.7934 -0.4222 -1.5890
  315MOL0     H43443   0.884   0.110   4.680  0.1510 -1.0177 -1.3023
  315MOL0     H43444   1.099  -0.066   4.534  0.7588  2.3212 -2.4385
  315MOL0     H43445   0.937  -0.024   4.478  3.3579  0.1689 -1.8049
  315MOL0     H43446   0.850  -0.143   4.688 -0.7925 -3.3214 -1.6457
  315MOL0     H43447   1.014  -0.203   4.716 -0.0503 -0.5395  0.0153
  315MOL0     H43448   0.852  -0.248   4.473  1.9584  2.6881 -1.3327
  315MOL0     H43449   0.890  -0.376   4.589 -1.4335  2.0382  1.9864
  315MOL0     H43450   1.139   0.771   4.928  1.8717 -1.5200  1.7382
  315MOL0     H43451   1.105   0.894   5.124 -0.2214  0.2452 -2.2827
  315MOL0     H43452   0.689   1.036   5.472  0.8019 -1.5294  1.0267
  315MOL0     H43453   0.689   1.147   5.687  0.9055  3.3321 -0.0387
  315MOL0     H43454   1.933   2.223   6.593 -0.9293  3.0783  0.6608
  315MOL0     H43455   2.039   2.422   6.684 -2.9834 -3.4434  1.1586
  315MOL0     H43456   2.396   2.903   6.467 -0.3137  1.2697  0.6704
  315MOL0     H43457   2.415   3.114   6.602  0.9194  0.0430  0.7225
  315MOL0     H43458   2.453   3.093   7.038  2.7385  2.9411 -1.1291
  315MOL0     H43459   2.400   3.253   7.020  0.3732 -0.2732  1.5192
  315MOL0     H43460   2.242   3.100   7.152 -0.0997 -1.9835 -0.2377
  315MOL0     H43461   2.189   3.015   7.008  1.5716 -0.6806  0.4748
  315MOL0     H43462   2.136   3.256   6.908 -0.3787 -0.8482 -1.0094
  315MOL0     H43463   2.027   3.164   6.991  0.8376 -0.9549 -1.6889
  315MOL0     H43464   2.118   3.289   7.216  1.8776 -1.5443 -1.0935
  315MOL0     H43465   2.011   3.374   7.097  0.4365  1.5239 -2.8759
  315MOL0     H43466   2.359   3.607   7.106  1.0874 -0.5897 -3.3728
  315MOL0     H43467   2.356   2.881   6.952  1.3158  0.7353  0.6201
  315MOL0     H43468   2.333   2.566   6.799 -0.1767  1.9886 -1.6113
  315MOL0     H43469   2.331   2.647   6.957  1.8993 -0.5336 -0.6460
  315MOL0     H43470   2.186   2.636   6.858  0.0242 -2.1457  0.0384
  316MOL0     O43471  10.849   2.855   0.981  0.0483  0.6059 -0.2179
  316MOL0     C43472  10.774   2.855   0.884  1.1261  0.1478  0.5439
  316MOL0     O43473  10.818   2.880   0.759  0.5289 -0.3876  0.3723
  316MOL0     C43474  10.947   2.911   0.736  0.2814 -0.1636 -1.1241
  316MOL0     C43475  11.017   2.825   0.646  0.9699 -0.5195 -0.0847
  316MOL0     C43476  11.140   2.869   0.605 -0.3934  0.3814 -0.0338
  316MOL0     C43477  11.195   2.988   0.655 -0.0719  0.0704  0.1529
  316MOL0     O43478  11.324   3.031   0.610 -0.1028  0.2018  0.4065
  316MOL0     C43479  11.427   2.939   0.558 -0.4752 -0.6533  0.0737
  316MOL0     C43480  11.512   3.024   0.469  0.0514  0.2899 -0.6833
  316MOL0     C43481  11.653   2.961   0.449  0.2510 -0.4976  1.6914
  316MOL0     C43482  11.721   3.063   0.342 -0.3019  0.4565 -0.9445
  316MOL0     C43483  11.876   3.043   0.349 -0.5539  0.1107 -0.9698
  316MOL0     C43484  11.934   2.895   0.341  0.0432  0.6823  0.0201
  316MOL0     C43485  12.089   2.910   0.343 -0.6412 -0.2179 -0.1716
  316MOL0     C43486  12.146   2.774   0.342 -0.4669 -0.9749  0.6415
  316MOL0     N43487  12.137   2.716   0.215  0.6988  0.5420  0.3119
  316MOL0     C43488  12.169   2.770   0.096  0.2479  0.2837 -0.4086
  316MOL0     C43489  12.133   2.690   0.001 -0.1703  0.5917  0.8886
  316MOL0     C43490  12.153   2.718  -0.154 -0.5156 -0.0327 -0.9192
  316MOL0     C43491  12.125   2.864  -0.196  0.5906 -0.5053 -0.3116
  316MOL0     C43492  11.988   2.931  -0.166  0.6813 -0.0979 -0.2390
  316MOL0     C43493  11.882   2.841  -0.230 -0.6323 -0.5916  0.8141
  316MOL0     O43494  11.754   2.894  -0.253 -0.3503  0.1094  0.2901
  316MOL0     C43495  11.660   2.875  -0.144 -0.1241  1.5559  0.4594
  316MOL0     C43496  11.522   2.901  -0.183 -0.1606  0.5968  0.6802
  316MOL0     C43497  11.421   2.860  -0.091 -0.7010 -0.4178  0.0046
  316MOL0     C43498  11.268   2.889  -0.125 -0.1271  1.2967 -0.4118
  316MOL0     C43499  11.450   2.807   0.036 -0.5504 -0.9617 -0.9737
  316MOL0     C43500  11.345   2.780   0.143 -0.2196 -0.5539 -0.2454
  316MOL0     O43501  11.326   2.647   0.155  0.2859  0.5518  0.4997
  316MOL0     C43502  11.241   2.603   0.254  0.6170 -0.5354  0.0001
  316MOL0     C43503  11.295   2.599   0.386  0.1131 -0.2781 -0.8425
  316MOL0     C43504  11.221   2.545   0.493 -0.0568  0.3424  0.6756
  316MOL0     C43505  11.098   2.489   0.464 -0.0355  0.1661 -0.5467
  316MOL0     O43506  11.015   2.440   0.573  0.0071 -0.5377 -0.0099
  316MOL0     C43507  11.082   2.405   0.698  0.1318 -0.3603  1.1426
  316MOL0     C43508  10.971   2.352   0.790 -1.0077  0.2002  0.2347
  316MOL0     C43509  10.960   2.205   0.766 -0.4670  0.5425 -0.3668
  316MOL0     C43510  10.820   2.159   0.792 -0.0585  0.0728  0.3269
  316MOL0     C43511  10.793   2.009   0.796 -0.2764  0.3924 -1.0089
  316MOL0     C43512  10.833   1.927   0.667  0.7462 -0.7830 -0.3620
  316MOL0     C43513  10.744   1.804   0.637 -0.0215  0.0092 -0.1095
  316MOL0     C43514  10.759   1.738   0.503  0.8639  0.5167 -1.0545
  316MOL0    Cl43515  10.935   1.679   0.489 -0.5295 -0.2778 -0.0165
  316MOL0     C43516  11.041   2.503   0.336 -0.1589  0.3489 -0.0763
  316MOL0     C43517  11.113   2.560   0.236  0.4678 -0.4517  0.1610
  316MOL0     O43518  11.294   2.869   0.212  0.8190  0.4100  0.1698
  316MOL0     C43519  11.580   2.805   0.081  0.3024  0.2001  0.3572
  316MOL0     C43520  11.683   2.847  -0.004  0.2337 -0.8074 -0.2828
  316MOL0     N43521  12.070   2.587   0.063 -0.7983 -0.0617  0.2571
  316MOL0     N43522  12.088   2.595   0.191 -0.4716 -0.0720  0.0657
  316MOL0     C43523  11.126   3.071   0.735 -0.5658 -0.6518 -0.6402
  316MOL0     C43524  11.004   3.028   0.781  0.0634 -0.5065 -0.0068
  316MOL0     C43525  10.625   2.834   0.912 -0.4330 -0.6882  0.1061
  316MOL0     C43526  10.598   2.804   1.045  0.1255  0.5297  0.6675
  316MOL0     C43527  10.469   2.779   1.093  0.1386 -0.0328  0.2729
  316MOL0     C43528  10.362   2.768   1.006 -0.2442 -0.1051  0.1085
  316MOL0     O43529  10.248   2.735   1.072 -0.2536 -0.2270  0.1601
  316MOL0     C43530  10.148   2.652   1.010  0.9454 -0.2010 -0.7520
  316MOL0     C43531  10.054   2.598   1.120  0.2984  0.2300  0.5080
  316MOL0     C43532   9.930   2.506   1.074 -0.2401  0.5292  0.3379
  316MOL0     C43533   9.831   2.477   1.189 -0.1466 -0.5542 -0.8087
  316MOL0     C43534   9.908   2.400   1.288 -0.4581  1.0942 -0.5908
  316MOL0     C43535   9.976   2.347   1.372  0.5109  0.4009  0.2668
  316MOL0     C43536  10.389   2.784   0.860  1.0298 -1.1739 -0.7346
  316MOL0     C43537  10.523   2.827   0.818 -0.1618 -0.3002  0.4714
  316MOL0     C43538  10.554   2.833   0.669 -0.0434  0.7117 -1.1703
  316MOL0     H43539  10.980   2.740   0.590 -1.6023 -0.6867  1.6540
  316MOL0     H43540  11.195   2.804   0.537  2.3935 -0.0732  2.4361
  316MOL0     H43541  11.394   2.856   0.495  2.6056 -0.7519 -1.5766
  316MOL0     H43542  11.485   2.919   0.648  1.8292  1.1107 -0.9289
  316MOL0     H43543  11.460   3.032   0.373 -0.7960 -2.4797 -0.5449
  316MOL0     H43544  11.524   3.127   0.503  0.0979  0.2654 -0.6235
  316MOL0     H43545  11.710   2.950   0.541 -0.8903 -1.4198  2.3063
  316MOL0     H43546  11.647   2.863   0.402 -2.1059  0.5807 -0.5492
  316MOL0     H43547  11.677   3.038   0.245 -3.5586  2.1419 -0.0822
  316MOL0     H43548  11.697   3.168   0.365 -1.7325 -0.2064  0.8491
  316MOL0     H43549  11.921   3.092   0.436 -0.1139 -1.2630 -0.4056
  316MOL0     H43550  11.915   3.100   0.264  1.0492  0.6894  0.0900
  316MOL0     H43551  11.902   2.836   0.428  0.9562  0.9915  0.5739
  316MOL0     H43552  11.899   2.849   0.248 -1.2368  0.3284  0.6456
  316MOL0     H43553  12.128   2.952   0.436 -4.6379  0.2584  1.4854
  316MOL0     H43554  12.111   2.964   0.251 -0.7558 -2.6833 -1.7574
  316MOL0     H43555  12.254   2.765   0.359  0.0352 -2.0776 -2.3789
  316MOL0     H43556  12.097   2.711   0.416  0.6147 -0.9152  1.4332
  316MOL0     H43557  12.218   2.865   0.077 -0.2526  0.8212  0.8718
  316MOL0     H43558  12.090   2.645  -0.205 -0.6712  0.5798 -1.6191
  316MOL0     H43559  12.259   2.702  -0.178 -0.5726  2.8697 -3.6957
  316MOL0     H43560  12.200   2.934  -0.158  1.5627  0.7573 -4.1344
  316MOL0     H43561  12.141   2.891  -0.301  1.5885  4.8683  0.9206
  316MOL0     H43562  11.966   2.940  -0.059 -2.1090  1.1447 -0.8360
  316MOL0     H43563  11.998   3.025  -0.222  1.9818 -0.7051 -1.0738
  316MOL0     H43564  11.922   2.815  -0.329  0.9410  1.0445  0.9792
  316MOL0     H43565  11.872   2.746  -0.176 -3.2527  0.1123  1.7276
  316MOL0     H43566  11.501   2.939  -0.283 -2.2497 -0.7965  0.5168
  316MOL0     H43567  11.215   2.922  -0.036  1.6430 -2.1168  2.1387
  316MOL0     H43568  11.231   2.789  -0.149  1.5648 -0.3596  3.1411
  316MOL0     H43569  11.257   2.966  -0.201  0.6644  1.1360 -0.7068
  316MOL0     H43570  11.392   2.636   0.417  1.0385 -3.2378  0.0908
  316MOL0     H43571  11.280   2.523   0.581 -1.8126 -2.4709  1.2737
  316MOL0     H43572  11.163   2.332   0.692 -1.0339 -1.5484 -1.2693
  316MOL0     H43573  11.114   2.503   0.735  0.4023  0.0277 -0.0554
  316MOL0     H43574  10.998   2.373   0.894  0.4152 -3.0608  0.6311
  316MOL0     H43575  10.879   2.404   0.760 -1.3516  0.3957  1.5692
  316MOL0     H43576  11.027   2.157   0.838  1.7374 -0.4750 -2.9196
  316MOL0     H43577  10.994   2.172   0.668  1.5660 -1.5495  0.9462
  316MOL0     H43578  10.770   2.196   0.703 -0.7496  2.0543  1.4604
  316MOL0     H43579  10.785   2.210   0.883 -2.3915 -0.8492  0.0268
  316MOL0     H43580  10.835   1.961   0.884 -0.8650  1.5222 -0.0798
  316MOL0     H43581  10.685   1.993   0.806 -0.4033  0.8828 -1.5090
  316MOL0     H43582  10.937   1.894   0.674  0.7868 -0.8208 -1.1473
  316MOL0     H43583  10.831   1.989   0.577  1.3280 -2.3545 -1.4901
  316MOL0     H43584  10.640   1.836   0.629  0.1100 -0.1226 -4.1173
  316MOL0     H43585  10.761   1.728   0.714  1.4681 -0.3738 -0.7957
  316MOL0     H43586  10.731   1.813   0.429 -4.0748  0.4864  0.4629
  316MOL0     H43587  10.695   1.651   0.489 -0.6132  1.2107  0.8990
  316MOL0     H43588  10.947   2.460   0.303  1.3131 -3.4319  0.1758
  316MOL0     H43589  11.076   2.560   0.134  0.6740  1.2495  0.0663
  316MOL0     H43590  11.600   2.781   0.185  5.2112  1.2690 -0.0804
  316MOL0     H43591  11.783   2.843   0.039  1.2238  1.1946 -2.2409
  316MOL0     H43592  11.149   3.175   0.755  0.2586 -0.8173 -0.7154
  316MOL0     H43593  10.953   3.098   0.846  0.9648 -2.2259  2.7321
  316MOL0     H43594  10.674   2.790   1.121 -0.4825 -0.3268  1.1296
  316MOL0     H43595  10.461   2.753   1.198  1.6608  0.5981  0.5680
  316MOL0     H43596  10.077   2.704   0.945  2.0118  0.2391 -1.5877
  316MOL0     H43597  10.178   2.563   0.953 -2.3914 -1.2342 -1.1409
  316MOL0     H43598  10.022   2.680   1.184 -0.1712 -1.2259  2.2247
  316MOL0     H43599  10.109   2.538   1.194  1.1488  2.4327  1.7778
  316MOL0     H43600   9.884   2.574   1.000  2.9641  0.6263 -1.7648
  316MOL0     H43601   9.953   2.418   1.014 -3.0367 -0.5460  0.6764
  316MOL0     H43602   9.749   2.419   1.146  0.6469 -2.7437  0.4522
  316MOL0     H43603   9.774   2.564   1.223 -0.6309 -1.6219  1.2560
  316MOL0     H43604  10.034   2.295   1.446  2.1386 -1.3533 -2.1071
  316MOL0     H43605  10.308   2.778   0.788  0.7016  0.1652 -0.4935
  316MOL0     H43606  10.457   2.844   0.619 -1.1211  3.3557  1.2664
  316MOL0     H43607  10.610   2.926   0.658  0.2360  0.4515 -2.0892
  316MOL0     H43608  10.619   2.753   0.632 -0.9848 -1.0678  0.7944
  317MOL0     O43609   6.978   4.523   5.766  0.3046 -0.5448 -0.2992
  317MOL0     C43610   6.965   4.474   5.878 -0.2023  0.4714  0.4997
  317MOL0     O43611   7.014   4.345   5.912  0.2198 -0.1797  0.1686
  317MOL0     C43612   7.102   4.275   5.834 -1.6489  0.5105  1.5985
  317MOL0     C43613   7.187   4.324   5.728 -0.3131  0.4947  0.3329
  317MOL0     C43614   7.271   4.239   5.644  1.3341  0.4392 -0.9993
  317MOL0     C43615   7.262   4.102   5.670  0.0514  0.5335 -0.4387
  317MOL0     O43616   7.303   4.007   5.577 -0.2766  1.3116 -0.2225
  317MOL0     C43617   7.310   4.047   5.439  0.7206  0.1862  1.2908
  317MOL0     C43618   7.324   3.923   5.348 -0.2834 -0.5031 -0.0033
  317MOL0     C43619   7.319   3.957   5.196 -0.4847 -1.4882 -0.1929
  317MOL0     C43620   7.321   3.829   5.107  0.8572 -0.6865 -0.2602
  317MOL0     C43621   7.347   3.849   4.961 -0.2719 -0.4837 -0.5669
  317MOL0     C43622   7.224   3.914   4.888  0.5402  0.0232  0.0026
  317MOL0     C43623   7.252   3.891   4.744  0.2933  0.9978 -0.0548
  317MOL0     C43624   7.191   3.997   4.648  0.1194 -0.4520  0.0276
  317MOL0     N43625   7.055   4.030   4.673  1.2411 -0.7601  0.1260
  317MOL0     C43626   6.947   3.985   4.595 -0.1403 -0.0926  0.8371
  317MOL0     C43627   6.830   4.018   4.662 -0.6673  0.1989 -1.1922
  317MOL0     C43628   6.692   3.966   4.634 -0.4266 -0.1982  0.8674
  317MOL0     C43629   6.585   4.045   4.684  0.2019 -0.9302  0.4482
  317MOL0     C43630   6.470   4.060   4.590  0.6870 -0.6877 -0.1582
  317MOL0     C43631   6.350   4.109   4.673 -0.4267  0.0079 -0.4026
  317MOL0     O43632   6.354   4.255   4.695 -0.3625  0.0627  0.1859
  317MOL0     C43633   6.283   4.319   4.598  0.2978  0.2657  0.4182
  317MOL0     C43634   6.330   4.388   4.483  0.3079  1.1610 -0.4838
  317MOL0     C43635   6.241   4.457   4.400  0.4488 -0.5218  0.9826
  317MOL0     C43636   6.311   4.530   4.280 -0.0606 -0.1983  0.2111
  317MOL0     C43637   6.096   4.469   4.423  0.2419  0.3261 -0.3738
  317MOL0     C43638   6.001   4.548   4.350  0.6438 -0.1042  0.1304
  317MOL0     O43639   5.883   4.576   4.410 -0.4008  0.4518  0.1391
  317MOL0     C43640   5.780   4.587   4.328 -0.0349 -0.5694  0.4124
  317MOL0     C43641   5.693   4.486   4.307  0.7920 -0.5474 -0.2018
  317MOL0     C43642   5.570   4.500   4.231  0.2787  1.0405 -0.6000
  317MOL0     C43643   5.544   4.625   4.184  0.1959  0.2836  0.9423
  317MOL0     O43644   5.433   4.650   4.109 -0.5349 -0.7048  0.1160
  317MOL0     C43645   5.361   4.544   4.041 -0.5175 -0.7528 -0.4163
  317MOL0     C43646   5.237   4.593   3.960  0.3042  0.9646 -0.6508
  317MOL0     C43647   5.270   4.683   3.843 -0.5338  0.5466 -0.1785
  317MOL0     C43648   5.141   4.719   3.785  0.6204 -0.5041  0.2714
  317MOL0     C43649   5.138   4.756   3.644  0.1342  0.0961  0.1540
  317MOL0     C43650   4.994   4.787   3.603  0.1292  0.4944 -0.1605
  317MOL0     C43651   4.986   4.812   3.455  0.7338  0.0410  0.6424
  317MOL0     C43652   4.995   4.684   3.371  0.0492  0.1904  0.0964
  317MOL0    Cl43653   4.886   4.552   3.435 -0.0883 -0.3632  0.2087
  317MOL0     C43654   5.630   4.729   4.208 -0.0699 -0.8811 -0.3086
  317MOL0     C43655   5.750   4.710   4.281  0.3610 -0.2382 -0.0207
  317MOL0     O43656   6.040   4.594   4.239 -0.0949  1.4090 -0.8466
  317MOL0     C43657   6.050   4.388   4.536  0.6423 -1.0063  0.3738
  317MOL0     C43658   6.141   4.327   4.626 -0.4957 -0.1832 -0.3411
  317MOL0     N43659   6.867   4.085   4.774 -0.1334  0.2931  0.7925
  317MOL0     N43660   6.995   4.096   4.772 -0.0405  0.7234 -0.4906
  317MOL0     C43661   7.181   4.049   5.770  0.7108 -0.0560 -1.0508
  317MOL0     C43662   7.101   4.139   5.848  0.0830  0.4892  0.4771
  317MOL0     C43663   6.920   4.558   5.991 -0.7904 -0.7729 -0.3458
  317MOL0     C43664   6.952   4.514   6.122  0.6135 -0.1169 -0.5098
  317MOL0     C43665   6.930   4.592   6.239  0.5130  0.3929  0.1499
  317MOL0     C43666   6.871   4.715   6.225 -0.6749 -0.7152 -0.8207
  317MOL0     O43667   6.848   4.797   6.336  0.6862  0.7389  0.3452
  317MOL0     C43668   6.958   4.850   6.413  0.0128 -0.1906  0.3690
  317MOL0     C43669   6.901   4.874   6.547  0.0249 -0.4790 -0.0871
  317MOL0     C43670   6.995   4.950   6.642 -0.5573  0.5993  0.2849
  317MOL0     C43671   6.958   4.962   6.791  0.0690 -0.1990  0.6653
  317MOL0     C43672   7.045   5.050   6.872 -0.6397 -0.4545  0.8445
  317MOL0     C43673   7.113   5.121   6.937 -1.0748  0.3938  0.5412
  317MOL0     C43674   6.823   4.748   6.098 -0.0329 -0.3304 -0.3808
  317MOL0     C43675   6.850   4.682   5.976  0.1130 -0.1295  0.8175
  317MOL0     C43676   6.814   4.742   5.842 -0.9432 -0.8339 -0.3498
  317MOL0     H43677   7.187   4.425   5.688  1.5302  0.3701 -0.0916
  317MOL0     H43678   7.343   4.271   5.569 -0.0221  0.0797 -2.4912
  317MOL0     H43679   7.389   4.119   5.415 -1.0634  0.7678 -3.9459
  317MOL0     H43680   7.211   4.085   5.413  1.3940 -0.7739 -3.5102
  317MOL0     H43681   7.412   3.864   5.375 -0.4762 -0.5015  0.6505
  317MOL0     H43682   7.231   3.872   5.374  0.2235 -0.9247  1.0778
  317MOL0     H43683   7.238   4.031   5.186  2.5018  2.0278 -0.7161
  317MOL0     H43684   7.410   4.009   5.165 -0.6000 -1.8407 -1.1616
  317MOL0     H43685   7.395   3.761   5.150 -1.0661 -2.2260  0.7715
  317MOL0     H43686   7.224   3.782   5.123 -0.3371  0.3916 -3.4719
  317MOL0     H43687   7.379   3.756   4.914  1.0475  0.4684 -1.6487
  317MOL0     H43688   7.432   3.916   4.946  0.0608 -1.1652 -1.9573
  317MOL0     H43689   7.128   3.871   4.917  1.0478 -0.5738  0.8411
  317MOL0     H43690   7.222   4.022   4.906 -3.2697 -0.0443  0.7733
  317MOL0     H43691   7.214   3.791   4.720 -0.9908  0.4972  3.4109
  317MOL0     H43692   7.361   3.897   4.731  0.5250 -0.3017  1.0959
  317MOL0     H43693   7.255   4.086   4.658  0.7544 -0.3928 -3.2938
  317MOL0     H43694   7.201   3.955   4.547 -4.3382 -0.5551 -0.5644
  317MOL0     H43695   6.964   3.932   4.503  0.7693  1.5707 -0.0074
  317MOL0     H43696   6.679   3.869   4.684 -3.9503 -0.0545  0.4498
  317MOL0     H43697   6.668   3.948   4.529 -5.6670 -0.7416  1.8897
  317MOL0     H43698   6.556   4.001   4.780 -0.3679 -2.8161 -0.5276
  317MOL0     H43699   6.619   4.148   4.698 -0.2785 -0.2279 -2.8480
  317MOL0     H43700   6.498   4.123   4.505 -0.1616  3.6272  2.4598
  317MOL0     H43701   6.449   3.958   4.554  1.8654 -1.2155  0.5837
  317MOL0     H43702   6.267   4.083   4.607  1.7288 -1.1133 -2.8496
  317MOL0     H43703   6.347   4.041   4.759 -1.4128 -2.1870 -2.0803
  317MOL0     H43704   6.433   4.375   4.451 -0.6608  0.0806 -3.5153
  317MOL0     H43705   6.293   4.638   4.288 -1.6268 -0.3333 -0.9454
  317MOL0     H43706   6.267   4.506   4.182 -1.6147  2.0502  0.2736
  317MOL0     H43707   6.418   4.514   4.269 -0.1319 -0.9869  0.6588
  317MOL0     H43708   5.716   4.388   4.348 -0.5577 -1.3910 -1.3967
  317MOL0     H43709   5.513   4.413   4.198  0.9133 -0.5139  2.0769
  317MOL0     H43710   5.425   4.498   3.965 -1.2153 -1.1202 -0.7858
  317MOL0     H43711   5.322   4.467   4.108 -3.0969  1.0838  0.3083
  317MOL0     H43712   5.185   4.506   3.919 -0.4285  1.4633 -0.8049
  317MOL0     H43713   5.167   4.637   4.032 -3.7663 -0.5111 -3.3393
  317MOL0     H43714   5.342   4.640   3.772  0.4808 -1.6192  1.9925
  317MOL0     H43715   5.319   4.775   3.876 -0.0608 -0.3482  1.8269
  317MOL0     H43716   5.104   4.801   3.848  0.3690 -0.2650 -0.1865
  317MOL0     H43717   5.062   4.645   3.795 -3.5619  3.3227 -1.0212
  317MOL0     H43718   5.207   4.839   3.630  1.4549 -0.9552  0.2059
  317MOL0     H43719   5.169   4.677   3.575 -0.8659  0.5376 -0.8339
  317MOL0     H43720   4.965   4.880   3.652 -0.1785  1.1682 -1.5978
  317MOL0     H43721   4.926   4.704   3.626  2.1278 -1.0562  0.4870
  317MOL0     H43722   5.051   4.890   3.415  0.7061 -0.9471 -1.4616
  317MOL0     H43723   4.887   4.848   3.429  0.6633  0.0612  0.9395
  317MOL0     H43724   5.098   4.648   3.360 -0.4647 -1.4357  0.2165
  317MOL0     H43725   4.972   4.713   3.269  0.2968  0.0272 -0.0061
  317MOL0     H43726   5.609   4.824   4.161 -1.6384  1.3253  4.2544
  317MOL0     H43727   5.825   4.789   4.284  1.0112 -0.7714 -1.3180
  317MOL0     H43728   5.948   4.391   4.573  1.0841 -2.0094  1.7717
  317MOL0     H43729   6.099   4.279   4.714 -1.5065  1.6906  0.2366
  317MOL0     H43730   7.182   3.942   5.791 -2.5611  0.2455  1.5903
  317MOL0     H43731   7.040   4.098   5.928 -2.1035  2.6960  0.0343
  317MOL0     H43732   7.001   4.419   6.138  1.5142  0.6833  1.8645
  317MOL0     H43733   6.969   4.570   6.338 -0.9196  0.1809  0.6932
  317MOL0     H43734   7.046   4.788   6.428  0.9971  1.1488  0.3684
  317MOL0     H43735   6.986   4.941   6.358  2.4539 -0.3060  1.2996
  317MOL0     H43736   6.880   4.780   6.600  1.5760 -2.5046 -2.7819
  317MOL0     H43737   6.809   4.932   6.535  1.2425  1.3471 -1.0460
  317MOL0     H43738   7.096   4.907   6.651 -1.1287 -0.7217  0.5579
  317MOL0     H43739   7.001   5.054   6.608 -1.8039  1.2231  1.8476
  317MOL0     H43740   6.984   4.870   6.844  1.0841  0.3614  1.1747
  317MOL0     H43741   6.854   4.997   6.802 -1.1591 -2.1129 -3.2101
  317MOL0     H43742   7.164   5.182   7.008 -0.6515  1.8319 -0.9390
  317MOL0     H43743   6.765   4.839   6.091 -0.3715 -0.5649 -0.6390
  317MOL0     H43744   6.751   4.829   5.864  0.1940 -0.6487  2.7166
  317MOL0     H43745   6.906   4.781   5.798 -0.8278  2.1324  2.1423
  317MOL0     H43746   6.764   4.670   5.776 -2.7494  0.3928 -0.3986
  318MOL0     O43747   3.918   2.395   7.258 -0.8639  0.0294 -0.0203
  318MOL0     C43748   4.016   2.417   7.331  0.1421 -0.9827 -0.8056
  318MOL0     O43749   4.025   2.525   7.422  0.5492  0.0434 -0.1445
  318MOL0     C43750   3.939   2.630   7.414  0.0585  0.0107  0.1771
  318MOL0     C43751   3.887   2.687   7.294  0.3466 -0.5270  0.0190
  318MOL0     C43752   3.809   2.805   7.289 -0.4608 -0.6295 -0.7471
  318MOL0     C43753   3.775   2.856   7.415 -0.1084 -0.8197 -0.4482
  318MOL0     O43754   3.685   2.957   7.433  0.4524 -0.6266 -0.4548
  318MOL0     C43755   3.604   2.978   7.325  0.8193 -0.1538  0.1123
  318MOL0     C43756   3.512   3.095   7.348 -0.1594  0.3154  0.5269
  318MOL0     C43757   3.434   3.123   7.222 -0.3714 -0.4333  0.0971
  318MOL0     C43758   3.358   3.239   7.253 -0.3309 -0.4064 -0.3222
  318MOL0     C43759   3.243   3.276   7.159  0.0913 -0.8687 -0.2930
  318MOL0     C43760   3.163   3.395   7.207  0.7548 -0.6034  0.4485
  318MOL0     C43761   3.228   3.533   7.225 -0.7612  0.5067  0.0696
  318MOL0     C43762   3.281   3.564   7.078 -0.0549 -0.7152 -0.5162
  318MOL0     N43763   3.299   3.705   7.068 -0.2323 -0.7721 -0.3774
  318MOL0     C43764   3.201   3.797   7.050 -0.7683  0.1652 -1.2956
  318MOL0     C43765   3.256   3.914   7.059 -1.0141  0.4750 -0.4165
  318MOL0     C43766   3.169   4.041   7.043  0.9796 -0.3592  0.4260
  318MOL0     C43767   3.142   4.102   7.184  0.0353 -0.4568 -0.1977
  318MOL0     C43768   3.077   4.240   7.173  0.4354  1.0104  0.7308
  318MOL0     C43769   3.172   4.349   7.140 -0.1132 -0.1706  0.4269
  318MOL0     O43770   3.276   4.337   7.228 -0.4646 -0.3232  0.0664
  318MOL0     C43771   3.391   4.349   7.155 -0.3374  0.0581  0.0254
  318MOL0     C43772   3.450   4.479   7.143  0.3843  1.1441  0.2420
  318MOL0     C43773   3.589   4.487   7.099  0.2106  0.7351  0.0547
  318MOL0     C43774   3.651   4.620   7.125 -1.0616  0.1910  0.0241
  318MOL0     C43775   3.658   4.369   7.044  1.0938  0.6487  0.3609
  318MOL0     C43776   3.797   4.365   6.980 -0.6112 -1.1217 -0.3641
  318MOL0     O43777   3.875   4.468   7.003 -0.4756  0.5110  0.5499
  318MOL0     C43778   3.976   4.493   6.912 -0.6423  0.0009  0.2240
  318MOL0     C43779   4.099   4.413   6.921  0.0805  0.3491 -0.3759
  318MOL0     C43780   4.197   4.426   6.828 -0.3150 -1.1354  0.0066
  318MOL0     C43781   4.185   4.515   6.721 -0.0039 -0.6018  0.2044
  318MOL0     O43782   4.305   4.530   6.650  0.3679  0.3802 -0.6201
  318MOL0     C43783   4.358   4.668   6.641 -0.3545  0.2297  0.6042
  318MOL0     C43784   4.508   4.655   6.591 -0.2109  0.4138  0.8051
  318MOL0     C43785   4.531   4.601   6.453 -0.1200  0.0096 -0.4756
  318MOL0     C43786   4.671   4.624   6.401  1.5487  0.2160 -0.3859
  318MOL0     C43787   4.682   4.543   6.268 -0.5946  0.7187 -0.6630
  318MOL0     C43788   4.727   4.399   6.268  0.3433 -0.2978  0.7925
  318MOL0     C43789   4.869   4.373   6.317 -0.9256  0.9484 -0.2943
  318MOL0     C43790   4.930   4.240   6.287  0.0690  0.3068  1.2371
  318MOL0    Cl43791   4.838   4.115   6.376  0.7269 -0.1449 -0.4576
  318MOL0     C43792   4.070   4.597   6.710 -0.1973 -0.2578  0.0532
  318MOL0     C43793   3.958   4.574   6.800 -0.0663  0.0777  0.8622
  318MOL0     O43794   3.827   4.274   6.905  0.4834 -0.3655  0.3717
  318MOL0     C43795   3.588   4.247   7.058  0.5553  0.2980  0.6843
  318MOL0     C43796   3.459   4.238   7.121 -0.2260 -0.2711  0.1842
  318MOL0     N43797   3.394   3.899   7.085  0.5721  0.3831 -0.5626
  318MOL0     N43798   3.412   3.773   7.088 -1.2728 -0.1650 -0.0731
  318MOL0     C43799   3.815   2.798   7.538 -0.4270 -0.3492  0.8641
  318MOL0     C43800   3.906   2.694   7.527  0.5113  0.0627 -0.0027
  318MOL0     C43801   4.143   2.344   7.312 -0.7911  0.5570  0.1178
  318MOL0     C43802   4.270   2.390   7.363 -0.6287 -0.7076  0.1774
  318MOL0     C43803   4.388   2.324   7.352  0.3459 -0.1222  0.6722
  318MOL0     C43804   4.399   2.197   7.290 -0.0803 -0.4513  0.1734
  318MOL0     O43805   4.524   2.147   7.301  0.5779  0.2396 -0.7796
  318MOL0     C43806   4.530   2.001   7.267  0.1328 -0.4127 -0.4229
  318MOL0     C43807   4.681   1.971   7.273  0.5574 -0.0812  0.0450
  318MOL0     C43808   4.742   2.013   7.138 -0.2020 -0.3021  0.1271
  318MOL0     C43809   4.902   2.007   7.145  0.0072  0.2334 -0.5298
  318MOL0     C43810   4.955   2.027   7.010 -0.2752 -1.1642  0.1411
  318MOL0     C43811   5.001   2.030   6.897  0.3451 -0.6484 -0.7431
  318MOL0     C43812   4.278   2.141   7.240  0.6362  0.0832 -0.4820
  318MOL0     C43813   4.161   2.215   7.251  0.6955 -0.1242  0.2448
  318MOL0     C43814   4.038   2.141   7.204  0.5179 -0.4266  0.2237
  318MOL0     H43815   3.909   2.634   7.202 -1.5070  0.8262 -1.2667
  318MOL0     H43816   3.780   2.844   7.192 -2.8698 -4.3173 -1.7105
  318MOL0     H43817   3.554   2.883   7.304  4.7313 -1.9349 -2.2076
  318MOL0     H43818   3.668   3.004   7.240  1.0260 -2.6213 -0.5667
  318MOL0     H43819   3.431   3.077   7.419 -0.3586  0.3479  0.3119
  318MOL0     H43820   3.570   3.172   7.398  1.8776 -0.4757 -0.4890
  318MOL0     H43821   3.497   3.147   7.135  0.2619 -2.5697 -0.0916
  318MOL0     H43822   3.378   3.030   7.204 -1.2132  0.4873 -2.5817
  318MOL0     H43823   3.308   3.229   7.350 -1.5681 -1.2403 -1.0187
  318MOL0     H43824   3.427   3.323   7.261 -0.7087 -0.1618  0.4012
  318MOL0     H43825   3.172   3.194   7.175 -1.7299  0.5741 -0.5520
  318MOL0     H43826   3.271   3.282   7.053 -0.4504  0.9277 -0.3634
  318MOL0     H43827   3.078   3.394   7.138 -2.7772 -0.1341  4.4024
  318MOL0     H43828   3.101   3.374   7.295 -2.2564 -1.1846 -1.6395
  318MOL0     H43829   3.315   3.541   7.290  0.0988 -1.7673 -0.7021
  318MOL0     H43830   3.143   3.594   7.259 -2.8548 -2.4398  0.5005
  318MOL0     H43831   3.373   3.509   7.057 -0.8714 -2.2698 -0.1940
  318MOL0     H43832   3.216   3.539   6.993  0.6920 -0.3761 -1.2030
  318MOL0     H43833   3.101   3.768   7.017 -0.3851 -3.0023  0.0039
  318MOL0     H43834   3.080   4.027   6.982 -0.1195  1.1028  1.6129
  318MOL0     H43835   3.224   4.105   6.973  1.0931 -3.1128 -2.2125
  318MOL0     H43836   3.079   4.030   7.238  2.3248 -1.3127  1.5161
  318MOL0     H43837   3.233   4.096   7.245  0.2824  0.3950 -0.4682
  318MOL0     H43838   2.990   4.228   7.108  0.7056  0.1772  0.5148
  318MOL0     H43839   3.033   4.247   7.273 -4.0475  0.5087 -0.9619
  318MOL0     H43840   3.198   4.349   7.033  0.0301 -0.2121  0.4610
  318MOL0     H43841   3.129   4.447   7.158  0.9877  0.5951 -0.8765
  318MOL0     H43842   3.411   4.562   7.201 -0.1354 -0.9587  3.1215
  318MOL0     H43843   3.653   4.676   7.031 -0.9175 -2.7615 -1.8684
  318MOL0     H43844   3.748   4.605   7.173 -0.5006 -1.2732 -1.4690
  318MOL0     H43845   3.596   4.665   7.208 -1.8537  0.2239 -0.5033
  318MOL0     H43846   4.112   4.334   6.994  0.8101  0.4940 -0.3499
  318MOL0     H43847   4.291   4.374   6.838 -0.4257 -1.5862 -1.0869
  318MOL0     H43848   4.313   4.733   6.566  0.0122  3.3061  2.8462
  318MOL0     H43849   4.344   4.716   6.739 -0.4576  5.4678 -1.6454
  318MOL0     H43850   4.551   4.755   6.599 -1.3466  1.1281 -1.3946
  318MOL0     H43851   4.565   4.594   6.662  1.2204  0.6959 -0.0621
  318MOL0     H43852   4.467   4.654   6.382  0.1977 -2.7917 -3.1001
  318MOL0     H43853   4.488   4.501   6.448 -0.3382  0.1215 -0.9581
  318MOL0     H43854   4.722   4.587   6.490  0.7461  1.2075  0.5195
  318MOL0     H43855   4.677   4.733   6.390  4.0751  0.0243 -1.3691
  318MOL0     H43856   4.589   4.548   6.210 -0.2510 -1.2749 -1.4890
  318MOL0     H43857   4.754   4.602   6.210 -0.7450 -0.7341 -2.4184
  318MOL0     H43858   4.714   4.361   6.166 -0.7993  0.7649  0.5170
  318MOL0     H43859   4.662   4.345   6.337 -2.3728 -0.0378 -1.3531
  318MOL0     H43860   4.878   4.383   6.426 -2.0529 -0.4415 -0.0490
  318MOL0     H43861   4.933   4.451   6.275 -0.5653  0.4370 -0.7131
  318MOL0     H43862   5.035   4.224   6.311  0.8937 -0.9521 -2.5068
  318MOL0     H43863   4.924   4.221   6.180 -2.6896  1.6615  1.0397
  318MOL0     H43864   4.080   4.669   6.629  0.7481 -0.0291  0.3660
  318MOL0     H43865   3.865   4.628   6.784 -0.8390 -1.1552  1.0394
  318MOL0     H43866   3.631   4.150   7.035 -2.2397 -0.3558 -2.7113
  318MOL0     H43867   3.412   4.141   7.139 -1.7637  0.2483 -0.8326
  318MOL0     H43868   3.803   2.840   7.637  1.7262  0.8397  0.6786
  318MOL0     H43869   3.968   2.675   7.615  0.8831  1.3170  0.0276
  318MOL0     H43870   4.260   2.482   7.419  2.5303  0.3209 -0.7891
  318MOL0     H43871   4.483   2.352   7.398  1.2159 -0.7104 -0.6887
  318MOL0     H43872   4.473   1.950   7.345  0.3193  1.1562  0.7803
  318MOL0     H43873   4.492   1.984   7.166  4.0691  0.5781 -2.2661
  318MOL0     H43874   4.699   1.864   7.285 -1.3146 -0.1859  2.6533
  318MOL0     H43875   4.742   2.024   7.347 -0.2364  0.6050  0.2213
  318MOL0     H43876   4.691   1.951   7.064 -1.0411  0.0551  0.3820
  318MOL0     H43877   4.720   2.118   7.116  0.4301 -0.0908  0.4963
  318MOL0     H43878   4.935   1.904   7.161 -2.2669 -0.4008  0.4114
  318MOL0     H43879   4.956   2.059   7.224  1.3898 -0.6488 -0.8500
  318MOL0     H43880   5.034   2.044   6.796 -0.2610  2.0491 -0.6417
  318MOL0     H43881   4.264   2.044   7.194  1.3592 -0.9270  1.3080
  318MOL0     H43882   3.977   2.197   7.133  2.2551  0.8880 -0.2966
  318MOL0     H43883   4.061   2.047   7.153  1.5620  1.1197 -2.3918
  318MOL0     H43884   3.987   2.126   7.300  1.6766  1.3954  1.1871
  319MOL0     O43885   7.598   9.799  11.403 -0.8642 -0.2182  0.2586
  319MOL0     C43886   7.550   9.840  11.297  0.5240 -1.2032  0.3491
  319MOL0     O43887   7.450   9.927  11.286 -0.5007 -0.0793  0.6213
  319MOL0     C43888   7.414  10.011  11.388 -0.8817  1.5442 -0.3474
  319MOL0     C43889   7.274  10.034  11.401 -0.0288 -0.3020  0.3131
  319MOL0     C43890   7.229  10.113  11.515 -0.2376 -0.1457 -0.8129
  319MOL0     C43891   7.323  10.166  11.616  0.2404 -0.1633  0.1777
  319MOL0     O43892   7.290  10.254  11.722  0.5062  0.6433  0.2246
  319MOL0     C43893   7.286  10.205  11.858 -0.7417  0.3017  0.4481
  319MOL0     C43894   7.375  10.305  11.935  1.1713  0.3972  0.0369
  319MOL0     C43895   7.391  10.265  12.083  0.7186  0.7753 -0.1574
  319MOL0     C43896   7.495  10.157  12.093  0.0767 -0.3086 -0.3750
  319MOL0     C43897   7.506  10.125  12.240  0.0297  0.0655 -0.8441
  319MOL0     C43898   7.638  10.087  12.286  0.0778 -0.4655  0.6542
  319MOL0     C43899   7.635  10.021  12.422 -0.1423 -0.1979  0.4831
  319MOL0     C43900   7.755   9.926  12.449 -0.7787 -0.2272 -0.4844
  319MOL0     N43901   7.748   9.876  12.580  0.7570 -0.7861 -0.2367
  319MOL0     C43902   7.833   9.781  12.638  1.0144 -0.3572 -0.4284
  319MOL0     C43903   7.818   9.799  12.769 -0.1399  0.4060 -0.7870
  319MOL0     C43904   7.885   9.702  12.872 -0.8179  0.4587 -0.4811
  319MOL0     C43905   8.026   9.761  12.890 -0.4072  0.7616  0.2641
  319MOL0     C43906   8.111   9.656  12.960 -0.3502  0.3074 -0.2033
  319MOL0     C43907   8.204   9.723  13.065  0.8628  0.2764 -0.6104
  319MOL0     O43908   8.115   9.787  13.159 -0.7953  0.3233  0.4984
  319MOL0     C43909   8.161   9.885  13.232  0.6418  0.3249 -0.3665
  319MOL0     C43910   8.100  10.005  13.250 -0.4392 -0.7338 -0.1659
  319MOL0     C43911   8.164  10.111  13.320  0.0879  0.7682 -0.0445
  319MOL0     C43912   8.076  10.237  13.345  0.3856 -0.1599  0.6960
  319MOL0     C43913   8.294  10.094  13.371 -0.5412 -0.2064 -0.5224
  319MOL0     C43914   8.373  10.207  13.439  0.2404 -0.6934  0.8622
  319MOL0     O43915   8.500  10.176  13.471  0.7321 -0.7931  0.4864
  319MOL0     C43916   8.585  10.236  13.556  0.3215  0.0360  0.5697
  319MOL0     C43917   8.599  10.369  13.582  0.1233 -0.5278 -1.6028
  319MOL0     C43918   8.692  10.415  13.680 -0.1936  0.0580  0.4768
  319MOL0     C43919   8.768  10.327  13.758  0.3395  1.0629 -0.2882
  319MOL0     O43920   8.840  10.384  13.859 -0.2795 -0.2075 -0.3608
  319MOL0     C43921   8.862  10.301  13.971  0.1733  1.2697 -0.0330
  319MOL0     C43922   8.956  10.357  14.073  1.4532  0.6935 -1.0151
  319MOL0     C43923   8.977  10.264  14.198 -0.0958 -0.6199  0.6517
  319MOL0     C43924   9.066  10.326  14.306 -0.2269  0.4647 -0.9537
  319MOL0     C43925   9.015  10.287  14.451  1.1825  0.2019 -1.3022
  319MOL0     C43926   8.981  10.135  14.488 -0.0835 -0.7099 -0.3011
  319MOL0     C43927   9.103  10.045  14.476  0.2417 -0.0105 -1.0719
  319MOL0     C43928   9.064   9.917  14.423 -0.1330  0.4190 -0.3037
  319MOL0    Cl43929   9.021   9.934  14.249 -0.0598 -0.4162 -0.0655
  319MOL0     C43930   8.749  10.193  13.730  0.9068 -0.1825 -0.3264
  319MOL0     C43931   8.670  10.145  13.628  0.4339  0.3465  0.1164
  319MOL0     O43932   8.319  10.320  13.454  0.2131  1.2818 -0.8515
  319MOL0     C43933   8.348   9.965  13.359 -0.3165  0.0042 -0.0199
  319MOL0     C43934   8.282   9.862  13.294  0.0445 -0.2082 -0.2827
  319MOL0     N43935   7.732   9.903  12.805 -0.8155  0.6056 -0.0016
  319MOL0     N43936   7.687   9.940  12.687  0.2437  0.1387  0.5074
  319MOL0     C43937   7.462  10.141  11.598  0.4906  0.8251 -0.0834
  319MOL0     C43938   7.504  10.056  11.483  0.1892 -1.0516  0.0828
  319MOL0     C43939   7.595   9.785  11.159  0.2295 -0.2049 -0.5440
  319MOL0     C43940   7.562   9.865  11.051 -0.3461 -0.0520 -0.1484
  319MOL0     C43941   7.609   9.833  10.927  0.0646  0.5400 -0.0932
  319MOL0     C43942   7.680   9.713  10.903  0.1634 -0.9094  0.4127
  319MOL0     O43943   7.717   9.665  10.776 -0.2667 -0.6085  0.1938
  319MOL0     C43944   7.665   9.734  10.657 -0.2608  0.2398 -0.2703
  319MOL0     C43945   7.753   9.859  10.623  0.1700 -0.0820 -0.8318
  319MOL0     C43946   7.694   9.915  10.491 -0.3620  0.2309 -0.4032
  319MOL0     C43947   7.715   9.826  10.366 -0.1483  0.7927  0.1220
  319MOL0     C43948   7.703   9.911  10.243 -0.0599 -0.7137  0.3880
  319MOL0     C43949   7.692   9.988  10.148  0.0352  0.5084 -0.0852
  319MOL0     C43950   7.715   9.633  11.016 -0.8037 -0.1935 -0.1750
  319MOL0     C43951   7.668   9.667  11.142  0.2124  0.2070  0.3108
  319MOL0     C43952   7.732   9.579  11.240  0.7133  0.7708  0.1610
  319MOL0     H43953   7.208  10.011  11.318 -0.0539 -3.8105  1.1793
  319MOL0     H43954   7.124  10.122  11.543  0.2748 -1.3403  1.8176
  319MOL0     H43955   7.323  10.102  11.856 -1.5186 -0.0379 -3.0882
  319MOL0     H43956   7.183  10.199  11.895  0.1650 -1.0911  2.9957
  319MOL0     H43957   7.473  10.314  11.887  0.0399 -0.1612 -2.5350
  319MOL0     H43958   7.320  10.399  11.924  0.8733  0.0768 -1.5209
  319MOL0     H43959   7.432  10.350  12.138  0.6485  0.1791  0.8358
  319MOL0     H43960   7.296  10.240  12.131  1.8127  0.1677  1.8228
  319MOL0     H43961   7.482  10.064  12.037  1.8582 -1.1494  0.5217
  319MOL0     H43962   7.584  10.202  12.049 -1.3298  1.6133 -1.4369
  319MOL0     H43963   7.433  10.046  12.258  0.8023 -0.5622 -0.4394
  319MOL0     H43964   7.483  10.214  12.300  1.4143 -0.2255  0.1613
  319MOL0     H43965   7.676  10.014  12.214  2.0455  1.3399 -0.2385
  319MOL0     H43966   7.706  10.172  12.276 -1.7310  0.7513 -2.4053
  319MOL0     H43967   7.544   9.961  12.431 -0.5808  0.2008 -0.9340
  319MOL0     H43968   7.630  10.105  12.492 -0.2597 -0.2614  0.5503
  319MOL0     H43969   7.759   9.845  12.375  3.6290 -2.0110  1.3558
  319MOL0     H43970   7.847   9.984  12.442 -0.9732  0.4647  1.8987
  319MOL0     H43971   7.880   9.699  12.584 -2.2818 -2.7213  0.0135
  319MOL0     H43972   7.879   9.598  12.837  1.9661 -0.5528  1.6519
  319MOL0     H43973   7.839   9.708  12.971  2.7412  1.6255  1.2772
  319MOL0     H43974   8.068   9.779  12.790  0.4546  1.0879  0.6733
  319MOL0     H43975   8.027   9.856  12.944 -3.0092 -0.3564  2.5326
  319MOL0     H43976   8.050   9.578  13.007  2.2264 -1.2567  0.7643
  319MOL0     H43977   8.168   9.600  12.886  0.7445  0.4261  0.5262
  319MOL0     H43978   8.276   9.654  13.109  1.5307  1.2861 -0.0942
  319MOL0     H43979   8.265   9.798  13.014  1.5702  1.6192  2.0406
  319MOL0     H43980   8.000  10.022  13.211 -0.0749 -1.2590 -1.3662
  319MOL0     H43981   7.973  10.227  13.310  0.4378 -1.7373  0.9150
  319MOL0     H43982   8.128  10.324  13.305  1.0387  0.0629  1.9874
  319MOL0     H43983   8.057  10.242  13.453 -0.2749 -0.5286  0.6007
  319MOL0     H43984   8.547  10.449  13.531  2.6000  0.7239 -2.3454
  319MOL0     H43985   8.696  10.522  13.697  1.8895  0.2244 -0.7087
  319MOL0     H43986   8.772  10.274  14.026 -0.0702 -2.1984 -1.9210
  319MOL0     H43987   8.905  10.205  13.942 -1.0908 -1.1607  4.9182
  319MOL0     H43988   9.054  10.378  14.029  1.8288 -3.1900 -2.4349
  319MOL0     H43989   8.914  10.444  14.125 -3.6444 -3.5946  3.2549
  319MOL0     H43990   9.038  10.183  14.156  2.2213  1.0110  0.7243
  319MOL0     H43991   8.880  10.223  14.229 -1.0658  1.4195  0.4612
  319MOL0     H43992   9.078  10.432  14.285  1.1734  0.4115 -0.5389
  319MOL0     H43993   9.169  10.291  14.291 -0.2059 -0.7705  1.4317
  319MOL0     H43994   9.087  10.334  14.519  2.4946  0.2655 -2.6717
  319MOL0     H43995   8.923  10.345  14.456  1.1128  0.0105  1.9568
  319MOL0     H43996   8.901  10.095  14.424  0.3737  0.5759 -1.7612
  319MOL0     H43997   8.937  10.134  14.588  0.0045  0.6735 -0.2257
  319MOL0     H43998   9.137  10.041  14.580 -0.2115  1.5514 -0.8400
  319MOL0     H43999   9.172  10.078  14.398  2.4522 -0.0710  0.7368
  319MOL0     H44000   8.982   9.873  14.481  0.6256  0.5094  0.8884
  319MOL0     H44001   9.145   9.844  14.431 -1.1807 -0.6622  0.9944
  319MOL0     H44002   8.797  10.119  13.795 -0.9864 -2.3185 -1.2184
  319MOL0     H44003   8.657  10.041  13.601 -0.7419  0.9726 -1.9690
  319MOL0     H44004   8.440   9.941  13.412  0.7685 -1.0260 -2.2500
  319MOL0     H44005   8.328   9.764  13.302 -1.7557 -1.0232  0.7821
  319MOL0     H44006   7.544  10.178  11.657  1.9584 -0.9089 -0.9461
  319MOL0     H44007   7.608  10.034  11.459  0.1736 -0.0792 -0.9106
  319MOL0     H44008   7.523   9.965  11.066  0.7311  0.3094  0.4099
  319MOL0     H44009   7.590   9.915  10.857  1.6807  2.7411  1.8815
  319MOL0     H44010   7.666   9.668  10.570 -0.6201  0.9555 -0.8314
  319MOL0     H44011   7.559   9.759  10.664 -1.3336 -3.6427 -0.1990
  319MOL0     H44012   7.859   9.832  10.615  0.6212  1.7042 -1.1491
  319MOL0     H44013   7.752   9.931  10.704 -0.7963 -3.6674  2.6549
  319MOL0     H44014   7.585   9.920  10.501 -0.5563 -4.7842  3.4472
  319MOL0     H44015   7.721  10.019  10.467 -1.0858  0.1788 -1.5367
  319MOL0     H44016   7.624   9.768  10.350  0.8244 -0.6517 -0.3558
  319MOL0     H44017   7.809   9.771  10.360 -0.8380 -0.4141  0.1600
  319MOL0     H44018   7.679  10.062  10.071 -0.9470  0.0981 -0.3284
  319MOL0     H44019   7.776   9.546  10.993 -0.2363 -0.5061  2.2920
  319MOL0     H44020   7.717   9.473  11.217 -1.7273  1.2171 -0.4733
  319MOL0     H44021   7.834   9.601  11.275 -0.4702  1.9589  3.2808
  319MOL0     H44022   7.668   9.588  11.328 -0.8683 -1.2164 -0.7293
  320MOL0     O44023  10.954   6.859   3.556 -0.2212 -0.4386  0.4298
  320MOL0     C44024  11.009   6.790   3.644  0.1117  0.4054 -0.1024
  320MOL0     O44025  11.110   6.831   3.716  0.4180  0.6215  0.0377
  320MOL0     C44026  11.127   6.961   3.752  0.1409  0.3970 -0.3326
  320MOL0     C44027  11.033   7.062   3.747  0.1805  0.8126 -0.1720
  320MOL0     C44028  11.064   7.178   3.808 -1.2265  0.0470  0.4518
  320MOL0     C44029  11.196   7.194   3.859  0.3958 -0.3254  0.2362
  320MOL0     O44030  11.229   7.301   3.944 -0.3701  0.1565 -0.4426
  320MOL0     C44031  11.178   7.418   3.894  0.8689 -0.6667  0.4690
  320MOL0     C44032  11.274   7.533   3.914 -0.3850  0.2263  0.9201
  320MOL0     C44033  11.237   7.668   3.857 -0.0670  0.0158  0.0881
  320MOL0     C44034  11.339   7.712   3.748  0.4725 -0.1350 -0.2484
  320MOL0     C44035  11.307   7.818   3.655  0.2507 -0.3152 -0.4808
  320MOL0     C44036  11.405   7.827   3.539  0.7387 -0.5031  0.2951
  320MOL0     C44037  11.488   7.953   3.539 -0.7718  0.0548  0.7048
  320MOL0     C44038  11.583   7.958   3.652 -0.0691 -0.1429 -0.9318
  320MOL0     N44039  11.603   8.091   3.701 -1.5193 -0.1701  0.3104
  320MOL0     C44040  11.714   8.162   3.667 -0.4763 -0.0506  0.8974
  320MOL0     C44041  11.728   8.256   3.766 -0.2949 -0.4892 -0.0822
  320MOL0     C44042  11.820   8.374   3.769  0.4101  1.1133  0.0753
  320MOL0     C44043  11.749   8.494   3.821 -0.5368  0.2063  0.1778
  320MOL0     C44044  11.630   8.549   3.731 -0.7526  0.1689  0.3779
  320MOL0     C44045  11.673   8.659   3.631 -0.6835  0.2656 -0.7667
  320MOL0     O44046  11.761   8.759   3.682 -0.0911  0.2416 -0.7079
  320MOL0     C44047  11.729   8.885   3.633 -0.9228  0.3878  0.2155
  320MOL0     C44048  11.621   8.960   3.678  0.0349 -0.2393 -0.9015
  320MOL0     C44049  11.604   9.098   3.640  0.1761  1.0671 -1.0937
  320MOL0     C44050  11.478   9.169   3.698  0.6424 -0.6475  0.3376
  320MOL0     C44051  11.695   9.144   3.550 -0.0204 -0.9721 -0.1342
  320MOL0     C44052  11.691   9.281   3.500  0.0201 -0.7388  0.2182
  320MOL0     O44053  11.814   9.338   3.468  0.0241  0.5271 -0.3306
  320MOL0     C44054  11.802   9.471   3.440  0.4768 -0.5004 -0.5701
  320MOL0     C44055  11.782   9.524   3.312  0.0624  0.2307 -0.0521
  320MOL0     C44056  11.791   9.660   3.285 -0.2555 -0.3457  1.0215
  320MOL0     C44057  11.815   9.753   3.385  0.0984  0.5066 -0.0259
  320MOL0     O44058  11.811   9.886   3.343 -0.5703 -0.3646 -0.5560
  320MOL0     C44059  11.802   9.992   3.434  1.0162  0.0365  0.7699
  320MOL0     C44060  11.782  10.124   3.359 -0.3138 -0.5907 -0.2039
  320MOL0     C44061  11.882  10.152   3.247 -0.4209  0.2116  0.2529
  320MOL0     C44062  11.960  10.281   3.269  0.1062  0.6123  0.0411
  320MOL0     C44063  12.028  10.313   3.134 -0.9875  0.1433 -0.5908
  320MOL0     C44064  12.143  10.415   3.157  0.1128  0.1869 -0.3022
  320MOL0     C44065  12.206  10.464   3.033  0.6067  0.2125 -0.2405
  320MOL0     C44066  12.340  10.529   3.038  0.1200  0.0842  0.5580
  320MOL0    Cl44067  12.315  10.694   3.099  0.0398 -0.0079  0.0812
  320MOL0     C44068  11.831   9.698   3.519  0.4348  0.1455 -0.2083
  320MOL0     C44069  11.812   9.562   3.546  0.4473  0.2133  0.1849
  320MOL0     O44070  11.583   9.331   3.471 -0.0332 -0.6431 -0.2524
  320MOL0     C44071  11.810   9.071   3.508  0.2577 -0.8561 -0.5052
  320MOL0     C44072  11.824   8.946   3.542  0.3049  0.4339 -0.2440
  320MOL0     N44073  11.624   8.241   3.856 -0.0278 -0.4517  0.4269
  320MOL0     N44074  11.553   8.148   3.813  0.4556  0.5087 -0.2177
  320MOL0     C44075  11.294   7.096   3.852  0.2055 -0.5615 -0.0343
  320MOL0     C44076  11.258   6.980   3.802 -0.2230  0.0969  0.9602
  320MOL0     C44077  10.962   6.646   3.652  0.0118  0.0502  0.3660
  320MOL0     C44078  11.052   6.551   3.712  0.1941 -0.9087 -0.1731
  320MOL0     C44079  11.021   6.415   3.699 -0.6512  0.2583  0.9074
  320MOL0     C44080  10.903   6.374   3.639  0.6114  0.3170 -0.1569
  320MOL0     O44081  10.846   6.245   3.645 -0.1310 -0.3396 -0.1700
  320MOL0     C44082  10.848   6.173   3.767 -0.0476  0.3758  0.5436
  320MOL0     C44083  10.947   6.062   3.788  0.3900  0.3029 -0.8644
  320MOL0     C44084  11.008   5.975   3.679  0.2107 -0.0154 -0.8041
  320MOL0     C44085  10.899   5.900   3.602 -0.3713  0.4134  0.7469
  320MOL0     C44086  10.970   5.860   3.478 -1.1145 -0.3981 -0.4804
  320MOL0     C44087  11.035   5.820   3.389 -0.1323  0.1501 -0.4694
  320MOL0     C44088  10.807   6.461   3.609 -0.0609  0.4701  0.5478
  320MOL0     C44089  10.835   6.601   3.612 -0.0455 -0.1083  1.0099
  320MOL0     C44090  10.725   6.699   3.570 -0.5018  0.4735  0.2017
  320MOL0     H44091  10.933   7.050   3.706  0.8177 -1.5891 -1.2090
  320MOL0     H44092  10.991   7.258   3.819  0.9983  2.7624 -2.6026
  320MOL0     H44093  11.075   7.427   3.930 -0.6518 -0.3302 -3.4503
  320MOL0     H44094  11.157   7.407   3.788 -0.8261  1.8824  0.4325
  320MOL0     H44095  11.280   7.547   4.023  0.6388 -5.0173  1.8082
  320MOL0     H44096  11.374   7.494   3.897 -1.0397 -1.1381  0.0342
  320MOL0     H44097  11.136   7.668   3.815 -0.3973 -0.5067  0.8781
  320MOL0     H44098  11.231   7.749   3.929  0.5264  1.5929 -1.5525
  320MOL0     H44099  11.435   7.724   3.800  2.0103 -4.1965 -1.7199
  320MOL0     H44100  11.351   7.619   3.691 -0.2864 -0.1652 -0.3577
  320MOL0     H44101  11.297   7.918   3.700  1.1499 -0.7665  0.7610
  320MOL0     H44102  11.206   7.796   3.619 -0.0665 -0.3158  0.3900
  320MOL0     H44103  11.466   7.737   3.529  1.0846 -0.1583 -0.7881
  320MOL0     H44104  11.345   7.832   3.448  1.5168  1.5001 -0.1531
  320MOL0     H44105  11.423   8.040   3.543 -0.3865  0.3694  0.2712
  320MOL0     H44106  11.553   7.958   3.451  1.0452  3.9211  2.0246
  320MOL0     H44107  11.557   7.909   3.746  4.3356  2.5723  2.0670
  320MOL0     H44108  11.680   7.915   3.625 -0.4733 -0.6714 -1.5861
  320MOL0     H44109  11.766   8.151   3.572 -2.5393  0.7725 -0.3921
  320MOL0     H44110  11.865   8.383   3.670  1.0571 -1.8159  0.0201
  320MOL0     H44111  11.908   8.355   3.831  0.4062  2.6912  0.6215
  320MOL0     H44112  11.710   8.467   3.919 -0.0896 -0.0169  0.2970
  320MOL0     H44113  11.822   8.572   3.841  1.5215 -1.6811  0.4395
  320MOL0     H44114  11.584   8.469   3.674  2.9064 -0.3351 -2.2116
  320MOL0     H44115  11.559   8.600   3.796  1.0333  3.0093  0.2809
  320MOL0     H44116  11.718   8.605   3.547 -1.0461 -0.5481 -0.4436
  320MOL0     H44117  11.583   8.714   3.604 -1.1176  0.7096  1.3926
  320MOL0     H44118  11.567   8.924   3.765  0.3656  0.6489 -0.3088
  320MOL0     H44119  11.484   9.278   3.695 -1.0893 -0.5172  0.4414
  320MOL0     H44120  11.473   9.161   3.807  0.3405  3.0063  0.7234
  320MOL0     H44121  11.384   9.133   3.654  0.3388  1.2567 -0.6740
  320MOL0     H44122  11.757   9.448   3.239 -4.2552  1.8331 -0.5122
  320MOL0     H44123  11.767   9.694   3.184  1.7710 -0.3328  0.4976
  320MOL0     H44124  11.736   9.973   3.519 -0.1299 -2.0947 -0.4886
  320MOL0     H44125  11.902  10.000   3.478  1.6233  1.0393 -0.6994
  320MOL0     H44126  11.680  10.134   3.321  0.2663 -0.3285 -1.7779
  320MOL0     H44127  11.789  10.192   3.444  0.7103 -1.2722  0.2822
  320MOL0     H44128  11.823  10.154   3.154  0.4408 -2.2058 -0.4151
  320MOL0     H44129  11.955  10.073   3.228  0.0580  0.4198  1.1843
  320MOL0     H44130  12.031  10.266   3.351 -2.2164 -0.7070  1.9055
  320MOL0     H44131  11.890  10.358   3.303  0.5276  1.7415 -1.5229
  320MOL0     H44132  12.081  10.225   3.097 -0.8636 -1.8101  3.6274
  320MOL0     H44133  11.953  10.347   3.062  0.6237 -1.3977 -3.1854
  320MOL0     H44134  12.218  10.369   3.221  0.4108 -0.7534 -1.2912
  320MOL0     H44135  12.096  10.507   3.192 -1.7631  0.0589 -2.2666
  320MOL0     H44136  12.128  10.533   2.998 -1.6517 -0.9816  2.0965
  320MOL0     H44137  12.227  10.377   2.969 -0.7291 -0.6090  0.3956
  320MOL0     H44138  12.386  10.540   2.940  1.3803 -0.5296  1.0585
  320MOL0     H44139  12.398  10.468   3.108 -0.3733 -1.5503 -0.4052
  320MOL0     H44140  11.836   9.767   3.602 -3.1011 -0.0748  0.3346
  320MOL0     H44141  11.825   9.531   3.649 -1.1096 -1.5619 -0.0847
  320MOL0     H44142  11.865   9.100   3.419 -1.6118  1.3905 -1.0433
  320MOL0     H44143  11.905   8.884   3.504  1.1128  2.0805 -1.3935
  320MOL0     H44144  11.391   7.112   3.898  1.1454 -1.2277 -1.7079
  320MOL0     H44145  11.330   6.899   3.799  1.3514  1.4620 -1.3147
  320MOL0     H44146  11.144   6.582   3.760 -0.9355  1.3148  0.7365
  320MOL0     H44147  11.086   6.336   3.734  1.1545  1.6476  0.8096
  320MOL0     H44148  10.849   6.252   3.843  1.1273  2.8441 -1.8350
  320MOL0     H44149  10.753   6.122   3.779  0.7810 -1.6884 -1.1179
  320MOL0     H44150  10.903   5.994   3.863  1.1579  0.0698 -0.6185
  320MOL0     H44151  11.027   6.110   3.844  0.0085  1.6048 -1.3996
  320MOL0     H44152  11.046   6.044   3.602 -2.1916 -0.7090 -2.7644
  320MOL0     H44153  11.090   5.911   3.713  2.0277  1.6490 -1.8462
  320MOL0     H44154  10.812   5.960   3.573 -0.9073 -0.9481 -0.5930
  320MOL0     H44155  10.859   5.809   3.646  0.2169  0.2863  1.0307
  320MOL0     H44156  11.083   5.781   3.301 -3.0732 -0.4705 -1.9230
  320MOL0     H44157  10.712   6.424   3.573  0.5654  0.9079 -1.7162
  320MOL0     H44158  10.738   6.722   3.464 -0.3494 -1.4612 -0.2332
  320MOL0     H44159  10.627   6.654   3.585 -0.2223 -0.7330 -1.3956
  320MOL0     H44160  10.737   6.788   3.634 -0.0872  0.1204  0.6208
  321MOL0     O44161   3.891   9.246   8.101 -0.0093  0.3799 -0.5054
  321MOL0     C44162   3.979   9.218   8.026 -0.1650  0.3254  0.9430
  321MOL0     O44163   3.999   9.254   7.893 -0.1224 -0.7220  0.5439
  321MOL0     C44164   3.889   9.311   7.822  0.2389  0.4328 -0.5208
  321MOL0     C44165   3.748   9.294   7.849 -0.2788  0.6764 -0.2534
  321MOL0     C44166   3.647   9.328   7.760  0.1313  0.2534 -0.0173
  321MOL0     C44167   3.679   9.387   7.645 -0.5326 -0.1116  0.5987
  321MOL0     O44168   3.575   9.404   7.557  1.2367 -0.3419  0.9025
  321MOL0     C44169   3.508   9.530   7.588  0.9365  0.1979 -0.7901
  321MOL0     C44170   3.422   9.599   7.486 -0.4223  0.7893  0.7297
  321MOL0     C44171   3.304   9.512   7.455 -0.1942  0.5442  0.0325
  321MOL0     C44172   3.214   9.577   7.354  0.2868 -0.0315  0.2656
  321MOL0     C44173   3.068   9.516   7.348  0.9424 -0.3201 -0.0252
  321MOL0     C44174   2.997   9.519   7.203  0.1808 -0.9462 -0.4989
  321MOL0     C44175   3.074   9.464   7.086 -0.5201  0.0637  0.5311
  321MOL0     C44176   2.992   9.466   6.955  0.1019  0.2299  0.0554
  321MOL0     N44177   2.869   9.391   6.966 -0.0635  0.5214  1.1133
  321MOL0     C44178   2.741   9.435   7.005  0.5036 -0.6844 -0.0209
  321MOL0     C44179   2.673   9.324   7.014  0.0803  0.2089  0.1236
  321MOL0     C44180   2.526   9.326   7.041 -0.4592 -0.0970  0.0680
  321MOL0     C44181   2.473   9.257   7.172 -0.3224 -0.1516  0.2902
  321MOL0     C44182   2.503   9.347   7.291  1.0063 -0.2897 -0.0506
  321MOL0     C44183   2.449   9.500   7.279 -0.8804 -0.1107 -0.1887
  321MOL0     O44184   2.318   9.512   7.219  0.3701 -0.0776 -0.2345
  321MOL0     C44185   2.198   9.486   7.273  1.1882 -0.2574 -0.8632
  321MOL0     C44186   2.174   9.458   7.408 -0.2562 -0.1412 -0.3965
  321MOL0     C44187   2.049   9.405   7.446 -0.9410  0.0217 -0.3051
  321MOL0     C44188   2.046   9.357   7.588  0.2249 -0.8241 -0.2946
  321MOL0     C44189   1.944   9.391   7.350 -1.0901 -0.2601 -1.1080
  321MOL0     C44190   1.807   9.339   7.395  0.1540  0.1149 -0.9143
  321MOL0     O44191   1.753   9.377   7.517 -0.4023 -0.6069 -0.5465
  321MOL0     C44192   1.652   9.293   7.552 -0.4906  0.6894  0.5985
  321MOL0     C44193   1.522   9.338   7.562  0.2028 -0.5283 -0.3344
  321MOL0     C44194   1.422   9.254   7.619 -0.1969  0.2383  0.0595
  321MOL0     C44195   1.450   9.127   7.665  0.3642  0.3721 -0.5854
  321MOL0     O44196   1.356   9.045   7.725  1.2247  0.5409  0.5999
  321MOL0     C44197   1.217   9.051   7.679  0.0894  0.0793 -0.2571
  321MOL0     C44198   1.153   8.921   7.739 -0.6365  0.7943 -0.5757
  321MOL0     C44199   1.019   8.887   7.668  0.5034 -0.3257 -0.0680
  321MOL0     C44200   0.932   8.992   7.590  0.1031 -0.0014 -0.0014
  321MOL0     C44201   0.774   8.957   7.578  0.2905  0.0829  0.2786
  321MOL0     C44202   0.751   8.884   7.438 -0.0229 -1.0005 -0.4240
  321MOL0     C44203   0.617   8.819   7.419  0.3730  0.6440  0.0790
  321MOL0     C44204   0.503   8.897   7.378  0.3842  0.4818 -0.9967
  321MOL0    Cl44205   0.534   8.988   7.235 -0.4794 -0.0444  0.1414
  321MOL0     C44206   1.578   9.078   7.653 -0.5215  0.7690  1.0593
  321MOL0     C44207   1.678   9.156   7.594  0.1133  1.5247  1.3599
  321MOL0     O44208   1.742   9.276   7.313 -0.7549 -0.5405 -0.5765
  321MOL0     C44209   1.958   9.432   7.215 -0.5260  0.9998  1.0710
  321MOL0     C44210   2.080   9.490   7.186 -0.8309 -0.8637 -0.2241
  321MOL0     N44211   2.755   9.218   6.980 -0.1699 -0.6551  0.3474
  321MOL0     N44212   2.869   9.256   6.964 -0.5984 -0.2006  0.3826
  321MOL0     C44213   3.815   9.422   7.613 -0.5553  0.1030 -0.7735
  321MOL0     C44214   3.921   9.385   7.703  0.3398  0.3418 -0.5446
  321MOL0     C44215   4.097   9.152   8.074 -0.7340  0.6963 -0.6187
  321MOL0     C44216   4.206   9.236   8.111  0.9056 -0.8703 -0.2021
  321MOL0     C44217   4.329   9.181   8.149 -0.6797 -0.0278  0.0382
  321MOL0     C44218   4.339   9.045   8.178  0.0831  0.0762  0.1426
  321MOL0     O44219   4.454   8.974   8.212  0.0687  0.5494 -0.2176
  321MOL0     C44220   4.571   9.044   8.251 -0.4841  0.2062  0.4040
  321MOL0     C44221   4.683   8.953   8.283  0.1631 -1.0377  0.8095
  321MOL0     C44222   4.647   8.844   8.394  0.6851  0.4792 -0.4536
  321MOL0     C44223   4.590   8.712   8.342 -0.4087  0.8591 -0.0897
  321MOL0     C44224   4.689   8.625   8.282 -1.5843 -0.1762  0.1242
  321MOL0     C44225   4.772   8.552   8.225  0.0019 -0.2726 -0.4351
  321MOL0     C44226   4.224   8.964   8.149  0.8759 -0.3807  1.2547
  321MOL0     C44227   4.110   9.014   8.094  0.2359  0.2884 -0.1194
  321MOL0     C44228   4.000   8.913   8.064 -0.0275 -0.6504 -0.3228
  321MOL0     H44229   3.719   9.248   7.943  0.0657  1.0978  0.0608
  321MOL0     H44230   3.549   9.310   7.803  0.7399 -0.3733  1.1544
  321MOL0     H44231   3.588   9.602   7.608  0.5384 -0.1048  2.5070
  321MOL0     H44232   3.452   9.520   7.682  1.3986 -3.8163 -0.7848
  321MOL0     H44233   3.384   9.692   7.531 -0.9408 -1.2215  4.9088
  321MOL0     H44234   3.483   9.612   7.396 -2.5144 -3.9854 -1.7334
  321MOL0     H44235   3.335   9.416   7.413  0.0856 -0.5150  2.4896
  321MOL0     H44236   3.251   9.492   7.548 -0.7506 -0.5116 -0.4951
  321MOL0     H44237   3.199   9.685   7.365  0.5122 -0.1239  1.5537
  321MOL0     H44238   3.261   9.560   7.257  0.7453 -0.5229  0.5731
  321MOL0     H44239   3.007   9.574   7.417  0.4880 -1.6142  0.7059
  321MOL0     H44240   3.063   9.412   7.384  2.5176  0.3977  2.5328
  321MOL0     H44241   2.905   9.459   7.205 -1.0653  0.7599 -3.0257
  321MOL0     H44242   2.974   9.625   7.192  0.4920 -0.5949  1.7718
  321MOL0     H44243   3.092   9.359   7.111 -1.5282 -0.4996 -0.9638
  321MOL0     H44244   3.169   9.514   7.064 -0.0341 -2.0410 -3.0417
  321MOL0     H44245   2.961   9.568   6.933  3.1113  1.1136 -0.4834
  321MOL0     H44246   3.057   9.420   6.880  0.3175  2.2340 -1.0434
  321MOL0     H44247   2.703   9.531   7.037  1.6276 -0.4163  0.5706
  321MOL0     H44248   2.482   9.273   6.955 -1.1135 -0.3087  0.5262
  321MOL0     H44249   2.498   9.431   7.030  0.3000  0.0029 -1.2358
  321MOL0     H44250   2.367   9.233   7.164 -0.8443  2.0884 -0.2158
  321MOL0     H44251   2.526   9.163   7.192 -3.2259 -1.3717  2.9391
  321MOL0     H44252   2.458   9.305   7.381 -2.4113  2.1357 -0.4056
  321MOL0     H44253   2.611   9.345   7.306  1.0951 -2.3563 -0.7019
  321MOL0     H44254   2.452   9.561   7.370 -0.0434 -0.5412  0.0763
  321MOL0     H44255   2.515   9.550   7.208 -0.2354 -1.2099 -0.3866
  321MOL0     H44256   2.248   9.474   7.486  0.7089  1.4821 -1.5759
  321MOL0     H44257   2.142   9.324   7.628 -0.1957  0.2223  1.6985
  321MOL0     H44258   1.980   9.270   7.594 -0.8082 -0.0628 -0.3166
  321MOL0     H44259   2.005   9.426   7.662  0.7115 -0.6963 -0.1392
  321MOL0     H44260   1.502   9.442   7.535  0.3958 -0.1882  0.7752
  321MOL0     H44261   1.324   9.292   7.646  0.7138  1.2268  2.2181
  321MOL0     H44262   1.185   9.150   7.709 -0.4998 -0.7327  1.9802
  321MOL0     H44263   1.213   9.028   7.572 -0.2566 -0.3773 -0.1490
  321MOL0     H44264   1.221   8.837   7.730 -1.7509 -0.2408  0.3227
  321MOL0     H44265   1.128   8.932   7.845 -1.4534 -1.9438 -0.4213
  321MOL0     H44266   0.957   8.851   7.751  0.9279 -0.7645  0.0654
  321MOL0     H44267   1.038   8.802   7.602  3.5068 -0.4977  0.8503
  321MOL0     H44268   0.975   9.003   7.490 -3.1991  2.2882 -1.3435
  321MOL0     H44269   0.929   9.091   7.636 -0.9028  0.7351 -1.5397
  321MOL0     H44270   0.749   8.897   7.666  1.3560 -0.7746  0.0245
  321MOL0     H44271   0.711   9.046   7.582 -0.2290 -0.1286 -1.8844
  321MOL0     H44272   0.821   8.800   7.440  3.7506  1.7500 -2.5515
  321MOL0     H44273   0.777   8.936   7.346  0.4964 -0.3814  0.0610
  321MOL0     H44274   0.588   8.782   7.518 -3.2458  2.8591  0.0288
  321MOL0     H44275   0.621   8.741   7.343 -0.4572  1.8973 -1.3071
  321MOL0     H44276   0.469   8.965   7.457 -1.4366 -0.6796 -0.7115
  321MOL0     H44277   0.417   8.837   7.347  1.4818 -3.1046  2.1836
  321MOL0     H44278   1.602   8.985   7.703  0.9625  1.7251  2.2285
  321MOL0     H44279   1.775   9.107   7.592 -1.4839 -2.1037  3.2318
  321MOL0     H44280   1.868   9.433   7.154 -0.1655  1.9176  0.5277
  321MOL0     H44281   2.103   9.531   7.088  0.5700  0.5308  0.6483
  321MOL0     H44282   3.830   9.472   7.518  2.4731  2.6665  0.8594
  321MOL0     H44283   4.025   9.408   7.679  0.1806 -0.0378 -1.6718
  321MOL0     H44284   4.217   9.341   8.086  0.1227 -1.0608 -1.4075
  321MOL0     H44285   4.413   9.250   8.156 -0.5872 -0.0413 -0.8336
  321MOL0     H44286   4.601   9.114   8.172 -1.7661  1.7479  1.2330
  321MOL0     H44287   4.552   9.113   8.333 -1.6565  2.9417 -1.9776
  321MOL0     H44288   4.757   9.020   8.327  0.2301 -0.3091 -0.3517
  321MOL0     H44289   4.717   8.912   8.188  1.8729  3.8290 -0.9778
  321MOL0     H44290   4.728   8.818   8.462  0.0830  0.3785  0.2323
  321MOL0     H44291   4.572   8.889   8.460 -0.0049 -0.8178 -0.3311
  321MOL0     H44292   4.519   8.727   8.260  2.8969  0.4548 -3.2981
  321MOL0     H44293   4.537   8.657   8.420 -0.7450  1.4385  0.0880
  321MOL0     H44294   4.853   8.498   8.180 -1.1988 -1.6554 -1.0057
  321MOL0     H44295   4.244   8.859   8.168  2.1707 -0.7736 -1.7635
  321MOL0     H44296   3.954   8.941   7.969  0.6467  2.5567  0.1711
  321MOL0     H44297   4.044   8.814   8.047 -2.4896 -1.8605  0.0096
  321MOL0     H44298   3.930   8.914   8.148 -2.6594 -0.7345 -2.4235
  322MOL0     O44299   6.962   3.748   1.070 -0.3305  0.2016  0.3377
  322MOL0     C44300   7.008   3.741   1.184  0.0902  0.1508  0.0365
  322MOL0     O44301   6.999   3.637   1.267  0.0045 -0.3990  0.4987
  322MOL0     C44302   6.954   3.509   1.237 -0.3418  1.1038  0.9727
  322MOL0     C44303   6.955   3.418   1.338 -0.9357  0.8598 -0.6822
  322MOL0     C44304   6.912   3.290   1.331 -0.5223 -0.2536  0.4914
  322MOL0     C44305   6.872   3.246   1.206 -0.0055 -0.5013 -0.1311
  322MOL0     O44306   6.850   3.120   1.190  0.6466  0.6410  0.5620
  322MOL0     C44307   6.963   3.038   1.195  0.0054 -0.4631 -0.3307
  322MOL0     C44308   6.941   2.916   1.098 -0.5391 -0.2477 -0.4191
  322MOL0     C44309   6.850   2.818   1.170  0.6924 -0.0474 -0.2443
  322MOL0     C44310   6.780   2.728   1.064  0.1519  0.3016  0.0830
  322MOL0     C44311   6.710   2.621   1.142  0.3208  0.5799  0.9867
  322MOL0     C44312   6.573   2.662   1.194 -0.5646 -1.0409  0.8564
  322MOL0     C44313   6.490   2.569   1.276  0.7736 -0.3707  0.0435
  322MOL0     C44314   6.422   2.466   1.184  0.1945  0.1261  0.7815
  322MOL0     N44315   6.318   2.382   1.252  0.3442  0.0342  1.0362
  322MOL0     C44316   6.222   2.430   1.350 -1.0773 -0.7338  0.8018
  322MOL0     C44317   6.163   2.311   1.395  0.2075 -0.3168 -0.8223
  322MOL0     C44318   6.050   2.299   1.502 -0.5405  0.1434  0.1360
  322MOL0     C44319   6.085   2.211   1.614 -0.0933 -0.1084  0.3084
  322MOL0     C44320   6.178   2.288   1.709 -0.6712  0.4528 -1.4877
  322MOL0     C44321   6.151   2.264   1.858 -0.6661 -0.4527  0.0735
  322MOL0     O44322   6.266   2.313   1.921  0.5863 -0.4188  0.5942
  322MOL0     C44323   6.335   2.230   1.998 -0.2043  0.1194 -0.0998
  322MOL0     C44324   6.271   2.161   2.109  1.1500 -0.0682 -0.5661
  322MOL0     C44325   6.354   2.080   2.200 -0.2371  0.0042  1.1360
  322MOL0     C44326   6.290   1.998   2.320 -1.0516 -0.1761  0.9023
  322MOL0     C44327   6.498   2.063   2.163  1.1838 -0.0566  0.7207
  322MOL0     C44328   6.581   1.985   2.266 -0.7360 -0.4656  0.7726
  322MOL0     O44329   6.705   2.026   2.287 -0.0261 -0.3486  0.2241
  322MOL0     C44330   6.804   1.928   2.310  0.2523 -0.0220 -0.0294
  322MOL0     C44331   6.909   1.917   2.223 -0.7115 -0.1260  0.4037
  322MOL0     C44332   7.004   1.821   2.258 -0.2193 -0.6084  0.1980
  322MOL0     C44333   6.997   1.735   2.371  0.3124 -0.0702 -0.1140
  322MOL0     O44334   7.092   1.639   2.391 -0.2173  0.3910 -1.2410
  322MOL0     C44335   7.082   1.522   2.313 -0.3311 -0.7524 -0.5876
  322MOL0     C44336   6.996   1.423   2.385 -0.1352 -0.2003 -0.2110
  322MOL0     C44337   7.029   1.398   2.538 -0.6255 -0.2766  0.2029
  322MOL0     C44338   6.947   1.280   2.595 -0.3886 -0.5395  0.1273
  322MOL0     C44339   6.794   1.308   2.595  0.6017 -0.2521 -0.4670
  322MOL0     C44340   6.717   1.214   2.694 -0.9971  0.5317  1.0882
  322MOL0     C44341   6.566   1.207   2.672  0.1795  0.8816  0.5668
  322MOL0     C44342   6.507   1.115   2.774  1.0081 -0.3654 -0.0643
  322MOL0    Cl44343   6.604   0.974   2.819 -0.0857  0.3542  0.3027
  322MOL0     C44344   6.882   1.748   2.453 -0.9826 -0.2875  0.8851
  322MOL0     C44345   6.794   1.855   2.424 -0.3662  0.2845 -0.5379
  322MOL0     O44346   6.541   1.882   2.300 -0.2700 -0.2040  0.1841
  322MOL0     C44347   6.554   2.138   2.059  0.5923 -0.5156 -0.2748
  322MOL0     C44348   6.474   2.213   1.980  0.7972 -0.4253  0.1679
  322MOL0     N44349   6.215   2.198   1.325 -0.4851 -1.1981  0.2698
  322MOL0     N44350   6.307   2.248   1.247 -0.5920  0.3947 -0.0776
  322MOL0     C44351   6.879   3.335   1.094  0.5542  0.5599 -0.1521
  322MOL0     C44352   6.916   3.467   1.106  0.5388  0.4035  0.0799
  322MOL0     C44353   7.049   3.869   1.244  0.8497 -0.9622 -0.8381
  322MOL0     C44354   7.055   3.888   1.389 -0.5324 -0.4022  0.0656
  322MOL0     C44355   7.082   4.009   1.451  0.0794 -0.1966  0.3088
  322MOL0     C44356   7.104   4.123   1.375 -0.6231 -0.5663 -0.9963
  322MOL0     O44357   7.122   4.256   1.417  0.2529 -0.1432  0.3898
  322MOL0     C44358   7.105   4.297   1.547 -0.5992  0.0325 -0.7026
  322MOL0     C44359   6.962   4.314   1.593 -0.0473  0.4909  0.7450
  322MOL0     C44360   6.908   4.457   1.570  0.9297 -0.2706 -0.8573
  322MOL0     C44361   6.784   4.501   1.652 -0.4271  0.3770  0.0396
  322MOL0     C44362   6.802   4.519   1.793  0.3535 -0.0242 -0.4367
  322MOL0     C44363   6.821   4.521   1.909  0.5853  0.2421  0.7085
  322MOL0     C44364   7.112   4.110   1.242 -0.5599  0.2670  0.4271
  322MOL0     C44365   7.085   3.989   1.171 -0.5532  0.5611  0.7653
  322MOL0     C44366   7.107   3.990   1.020 -0.2244  1.1139  0.0676
  322MOL0     H44367   7.003   3.455   1.428  1.4326 -0.6969 -1.2162
  322MOL0     H44368   6.912   3.225   1.418 -1.7308 -0.6627  0.2077
  322MOL0     H44369   6.985   3.000   1.295 -1.0379  0.8878  0.4449
  322MOL0     H44370   7.059   3.081   1.165  0.1722  0.9931  2.0392
  322MOL0     H44371   6.919   2.938   0.993  2.4375 -2.4081 -1.6477
  322MOL0     H44372   7.037   2.863   1.099  0.5048  1.1818 -4.4926
  322MOL0     H44373   6.906   2.756   1.240 -0.7898  0.2128  1.2476
  322MOL0     H44374   6.776   2.861   1.239 -0.0484 -0.6413 -0.6459
  322MOL0     H44375   6.713   2.783   0.999 -3.0834 -2.7343  0.5658
  322MOL0     H44376   6.857   2.691   0.996 -1.4910 -0.7235 -1.2858
  322MOL0     H44377   6.771   2.591   1.228 -1.5927 -2.0096  1.5478
  322MOL0     H44378   6.691   2.525   1.093  0.1958  0.0823  1.9683
  322MOL0     H44379   6.602   2.751   1.251 -0.6421 -0.0337 -0.6208
  322MOL0     H44380   6.518   2.713   1.114 -2.4036  0.4241  2.9189
  322MOL0     H44381   6.417   2.617   1.343  1.2051 -1.6408  1.4766
  322MOL0     H44382   6.550   2.512   1.348  0.5872  1.3248  1.6380
  322MOL0     H44383   6.363   2.517   1.107 -2.0143 -0.2941  2.0965
  322MOL0     H44384   6.500   2.408   1.134  0.8310  0.0131  1.8732
  322MOL0     H44385   6.210   2.535   1.374 -0.0248 -0.2378 -0.6898
  322MOL0     H44386   5.963   2.257   1.452  0.6329  0.4003 -2.2787
  322MOL0     H44387   6.019   2.398   1.539 -3.0160 -0.9229  1.0993
  322MOL0     H44388   5.999   2.171   1.668 -1.9307  0.8397 -1.7610
  322MOL0     H44389   6.156   2.136   1.579  1.8907  1.8432 -0.0977
  322MOL0     H44390   6.280   2.250   1.703 -0.0490  1.2274  1.9273
  322MOL0     H44391   6.174   2.395   1.692 -5.2361  0.9537  0.8966
  322MOL0     H44392   6.067   2.330   1.882 -0.2239  0.0975  0.1287
  322MOL0     H44393   6.143   2.155   1.870  2.6185 -0.6573  1.5847
  322MOL0     H44394   6.164   2.176   2.119  1.3721  2.7434 -1.3393
  322MOL0     H44395   6.181   2.004   2.334 -1.1182 -0.4590  0.5176
  322MOL0     H44396   6.327   2.032   2.417 -1.3957  2.9426  0.0697
  322MOL0     H44397   6.323   1.895   2.306  2.2097  0.9093 -0.3639
  322MOL0     H44398   6.920   1.986   2.140  0.6168  0.4722  1.0544
  322MOL0     H44399   7.088   1.806   2.191 -1.2409 -1.5689 -0.9298
  322MOL0     H44400   7.034   1.554   2.220 -1.5142  2.7678  1.0498
  322MOL0     H44401   7.179   1.473   2.301 -0.7068 -1.3188 -1.3311
  322MOL0     H44402   6.893   1.458   2.378 -0.1026 -0.3191 -1.3786
  322MOL0     H44403   6.997   1.339   2.316  0.9902  0.0557 -0.5279
  322MOL0     H44404   6.989   1.490   2.583  1.2058 -0.1801  1.7649
  322MOL0     H44405   7.134   1.395   2.569 -1.1728 -0.8110  2.1784
  322MOL0     H44406   6.994   1.277   2.693  1.4193  3.5329 -0.4259
  322MOL0     H44407   6.957   1.186   2.539 -2.5619 -0.4908 -0.4348
  322MOL0     H44408   6.772   1.412   2.618  3.3582  0.0613  1.2775
  322MOL0     H44409   6.770   1.290   2.490  4.8383 -1.8848 -1.3749
  322MOL0     H44410   6.757   1.242   2.792 -0.7780  4.2546  0.0834
  322MOL0     H44411   6.766   1.119   2.671  2.4162  2.5802 -0.9708
  322MOL0     H44412   6.547   1.161   2.574  2.4337 -1.4382  1.1254
  322MOL0     H44413   6.518   1.303   2.694 -0.9459  0.7695 -1.1542
  322MOL0     H44414   6.403   1.083   2.766 -0.1356  2.3483  2.3858
  322MOL0     H44415   6.490   1.182   2.859 -0.2776 -3.2634  2.1410
  322MOL0     H44416   6.870   1.684   2.540  2.7439  0.3013  1.9949
  322MOL0     H44417   6.710   1.860   2.493 -0.6354 -2.3816 -0.5551
  322MOL0     H44418   6.657   2.144   2.025  0.9016  1.3759  0.8586
  322MOL0     H44419   6.514   2.253   1.887 -0.9068  1.7235  0.2772
  322MOL0     H44420   6.851   3.288   1.000 -1.9230 -0.7453  1.1426
  322MOL0     H44421   6.904   3.533   1.021 -1.5120 -0.8427 -0.6780
  322MOL0     H44422   7.028   3.801   1.447  1.1608 -0.4927  0.7910
  322MOL0     H44423   7.072   4.019   1.559 -2.3421  0.4190  0.0766
  322MOL0     H44424   7.154   4.229   1.617 -4.0706  0.0223  1.9963
  322MOL0     H44425   7.154   4.394   1.557  0.4786 -0.5039 -0.5873
  322MOL0     H44426   6.945   4.289   1.698 -0.4544  0.2828  0.6304
  322MOL0     H44427   6.896   4.252   1.531 -1.4932  4.9719 -2.7445
  322MOL0     H44428   6.987   4.531   1.590  0.2690  0.6457 -1.5168
  322MOL0     H44429   6.882   4.461   1.463 -0.2692 -0.0906 -0.5745
  322MOL0     H44430   6.706   4.425   1.655  0.3126 -0.3840  0.5273
  322MOL0     H44431   6.748   4.597   1.615 -0.4357 -0.4329 -2.2487
  322MOL0     H44432   6.857   4.521   2.010  2.5483  0.3368  0.0433
  322MOL0     H44433   7.149   4.201   1.196  1.1074 -1.0699 -1.0241
  322MOL0     H44434   7.166   4.079   0.996 -3.9063  3.2787 -1.9004
  322MOL0     H44435   7.162   3.901   0.991 -3.3243 -0.5262 -1.3215
  322MOL0     H44436   7.008   3.993   0.972 -0.8113 -1.5676  0.9270
  323MOL0     O44437   1.908  11.418   5.623  0.6511 -0.8552  0.7229
  323MOL0     C44438   1.789  11.388   5.599  0.2382  0.0579  0.0550
  323MOL0     O44439   1.682  11.396   5.688  0.8419  0.1564  0.0138
  323MOL0     C44440   1.719  11.450   5.812 -0.1509 -0.4086 -0.7971
  323MOL0     C44441   1.677  11.587   5.840  0.3361  0.7479  0.8935
  323MOL0     C44442   1.703  11.650   5.961 -0.3168  1.5132  0.2153
  323MOL0     C44443   1.774  11.579   6.061 -0.4413  0.2847  0.5807
  323MOL0     O44444   1.808  11.651   6.176 -0.6414  0.3722  0.4483
  323MOL0     C44445   1.752  11.591   6.293  0.8363  0.1273 -0.2533
  323MOL0     C44446   1.604  11.608   6.292 -1.0281 -0.6084 -0.1001
  323MOL0     C44447   1.558  11.754   6.281 -0.0962  0.7682 -0.5669
  323MOL0     C44448   1.416  11.792   6.329 -0.5718 -0.5243 -0.4087
  323MOL0     C44449   1.315  11.720   6.232 -0.5080  0.1295  0.0066
  323MOL0     C44450   1.317  11.781   6.089  0.8955  0.0059 -1.1677
  323MOL0     C44451   1.223  11.701   6.006  0.7154 -0.4231  0.4475
  323MOL0     C44452   1.220  11.759   5.865 -0.0110  0.1524  1.0430
  323MOL0     N44453   1.157  11.667   5.774 -0.2156 -0.5894  0.3419
  323MOL0     C44454   1.027  11.677   5.725 -1.4161 -1.2427  0.0297
  323MOL0     C44455   1.019  11.597   5.612  0.6511 -0.6794 -0.0639
  323MOL0     C44456   0.899  11.563   5.526  0.0217  1.0737  0.1702
  323MOL0     C44457   0.766  11.562   5.598 -0.2091 -0.2937 -0.0389
  323MOL0     C44458   0.648  11.509   5.522 -0.2725  0.0060 -0.6411
  323MOL0     C44459   0.628  11.575   5.384 -0.6372 -0.2685 -0.5129
  323MOL0     O44460   0.603  11.715   5.396 -0.2806  0.1324 -0.3075
  323MOL0     C44461   0.471  11.736   5.426 -0.0748  0.0130 -0.1543
  323MOL0     C44462   0.406  11.775   5.310  0.6469 -0.0719 -1.0583
  323MOL0     C44463   0.265  11.815   5.317 -0.9848 -0.4961  0.2827
  323MOL0     C44464   0.200  11.873   5.187  0.6461  0.3072 -0.8538
  323MOL0     C44465   0.200  11.831   5.441 -0.7898  0.3897 -1.1675
  323MOL0     C44466   0.062  11.879   5.468  0.5630  0.5212  0.2706
  323MOL0     O44467  -0.014  11.800   5.554  0.0694 -0.1165 -0.5050
  323MOL0     C44468  -0.132  11.848   5.599 -0.9801 -1.0079  0.8316
  323MOL0     C44469  -0.152  11.921   5.719  0.5401  0.7415 -0.0998
  323MOL0     C44470  -0.284  11.959   5.757 -0.5033  1.3357  0.9684
  323MOL0     C44471  -0.385  11.927   5.664  0.3669  0.7954 -0.2282
  323MOL0     O44472  -0.512  11.976   5.683 -0.0025  0.2865 -0.8897
  323MOL0     C44473  -0.582  11.902   5.785 -0.0345 -0.0267 -0.1485
  323MOL0     C44474  -0.688  11.813   5.718 -0.6003 -0.4466 -0.0264
  323MOL0     C44475  -0.773  11.887   5.615  0.0266  0.2974  0.2674
  323MOL0     C44476  -0.901  11.801   5.581  0.1632  0.0308  0.3066
  323MOL0     C44477  -0.992  11.867   5.483 -0.0848 -0.0379 -0.0147
  323MOL0     C44478  -1.080  11.761   5.417  0.5635 -0.4678  0.2134
  323MOL0     C44479  -1.201  11.834   5.340 -0.1262  0.0250 -0.5623
  323MOL0     C44480  -1.341  11.772   5.376  0.2031 -0.6624  0.1121
  323MOL0    Cl44481  -1.362  11.605   5.318 -0.1270  0.3685  0.1677
  323MOL0     C44482  -0.363  11.853   5.548 -0.1191 -0.5890 -0.8370
  323MOL0     C44483  -0.236  11.812   5.520  0.7092  0.4610  0.6341
  323MOL0     O44484   0.017  11.979   5.410 -0.5062 -0.7444 -0.7007
  323MOL0     C44485   0.268  11.778   5.552 -0.1882  1.0133  0.3699
  323MOL0     C44486   0.407  11.736   5.548  0.3656  0.0604 -0.4168
  323MOL0     N44487   1.145  11.548   5.589 -0.8826 -0.2057  0.0641
  323MOL0     N44488   1.227  11.576   5.691 -0.6968 -0.1222 -0.0571
  323MOL0     C44489   1.817  11.446   6.033  0.2012 -0.7438  0.1864
  323MOL0     C44490   1.793  11.380   5.908 -0.0059 -0.7797  0.1195
  323MOL0     C44491   1.759  11.334   5.463  0.0193 -0.5179  0.7314
  323MOL0     C44492   1.629  11.282   5.443 -0.1301 -0.5156  0.1751
  323MOL0     C44493   1.604  11.225   5.319  0.1052  0.8095 -0.4665
  323MOL0     C44494   1.687  11.240   5.209 -0.5727  0.0743 -0.0885
  323MOL0     O44495   1.635  11.200   5.086  0.0227  0.5327 -0.1564
  323MOL0     C44496   1.704  11.220   4.962  0.3880 -0.6891 -0.4746
  323MOL0     C44497   1.614  11.225   4.846  0.0341 -1.7354 -0.6812
  323MOL0     C44498   1.548  11.368   4.863  0.6456 -0.4732  0.4062
  323MOL0     C44499   1.409  11.370   4.806  0.5833  0.0409  0.7285
  323MOL0     C44500   1.397  11.385   4.655  0.5017  0.5008  0.2411
  323MOL0     C44501   1.362  11.415   4.542  0.3667  0.1428  0.8790
  323MOL0     C44502   1.816  11.304   5.229  0.4438 -0.1621  0.5199
  323MOL0     C44503   1.848  11.351   5.352 -0.1038  0.7821 -0.5737
  323MOL0     C44504   1.980  11.412   5.366  0.4783 -0.9116  1.1662
  323MOL0     H44505   1.625  11.634   5.758 -1.0059  2.0542  2.4310
  323MOL0     H44506   1.671  11.752   5.984 -2.4170  0.9071  0.2386
  323MOL0     H44507   1.807  11.642   6.372 -0.8802  0.1225  0.9963
  323MOL0     H44508   1.778  11.485   6.286  2.0970  0.5301 -4.1192
  323MOL0     H44509   1.570  11.546   6.208 -2.0139 -1.1442  0.6749
  323MOL0     H44510   1.573  11.580   6.393  1.8736  2.5647  1.8815
  323MOL0     H44511   1.629  11.815   6.338 -0.7639  2.8994 -1.8802
  323MOL0     H44512   1.577  11.788   6.178  0.8314  1.7332 -0.1028
  323MOL0     H44513   1.411  11.762   6.434 -1.9809 -0.4293 -0.4224
  323MOL0     H44514   1.393  11.899   6.331  1.3730 -0.0822 -0.3422
  323MOL0     H44515   1.211  11.727   6.267 -1.1263 -4.4432 -0.4052
  323MOL0     H44516   1.355  11.619   6.234  1.9821  1.0242  2.7994
  323MOL0     H44517   1.285  11.886   6.098  1.8815  0.1594  1.7660
  323MOL0     H44518   1.421  11.777   6.056  0.8697  1.0210 -1.4072
  323MOL0     H44519   1.121  11.706   6.045  1.0838  0.1247  1.3612
  323MOL0     H44520   1.250  11.595   6.010  1.5975 -0.1821  1.5027
  323MOL0     H44521   1.171  11.857   5.871  0.5609  0.7350 -2.0599
  323MOL0     H44522   1.316  11.794   5.824 -1.9558  3.2689 -1.3006
  323MOL0     H44523   0.949  11.740   5.767  0.9735  2.0375 -0.0863
  323MOL0     H44524   0.927  11.469   5.477 -1.1154  1.2540 -0.8710
  323MOL0     H44525   0.902  11.636   5.444 -0.5879 -0.1052 -0.9361
  323MOL0     H44526   0.766  11.498   5.687 -3.6785 -2.0028 -1.0682
  323MOL0     H44527   0.750  11.666   5.628 -0.7439 -0.5101  0.4448
  323MOL0     H44528   0.654  11.400   5.512 -0.4932 -0.1110  0.4078
  323MOL0     H44529   0.561  11.527   5.585 -0.3891 -1.6340 -0.2923
  323MOL0     H44530   0.720  11.569   5.325 -0.4155  3.0241 -0.6725
  323MOL0     H44531   0.543  11.527   5.335 -0.6672 -0.2996 -0.4300
  323MOL0     H44532   0.457  11.762   5.215 -0.4769  1.8444 -1.9799
  323MOL0     H44533   0.257  11.846   5.097  1.7280 -1.9011  0.4148
  323MOL0     H44534   0.199  11.983   5.192 -0.8440  0.4127 -2.5245
  323MOL0     H44535   0.098  11.836   5.174 -0.3023  2.0942  0.9387
  323MOL0     H44536  -0.072  11.953   5.785  0.6163 -1.1423  0.7797
  323MOL0     H44537  -0.321  12.010   5.846 -3.2278  0.8032  0.2227
  323MOL0     H44538  -0.513  11.840   5.842 -0.2665  0.0844  0.2589
  323MOL0     H44539  -0.637  11.970   5.851 -0.8150 -0.2254 -0.5771
  323MOL0     H44540  -0.648  11.728   5.661 -1.8095 -0.7538 -0.4601
  323MOL0     H44541  -0.761  11.780   5.793 -1.7724  0.9067 -0.5317
  323MOL0     H44542  -0.719  11.913   5.524  0.3207  0.2785  0.4377
  323MOL0     H44543  -0.806  11.982   5.659 -0.9472  0.5881 -1.0290
  323MOL0     H44544  -0.967  11.772   5.663 -1.1352 -3.7431 -1.8016
  323MOL0     H44545  -0.867  11.705   5.542  2.1611  0.1208  1.6887
  323MOL0     H44546  -1.054  11.937   5.539 -0.2564 -1.1181  1.1811
  323MOL0     H44547  -0.941  11.927   5.407 -2.7707  3.0551  0.4224
  323MOL0     H44548  -1.126  11.697   5.493 -0.0866 -1.2430 -0.8250
  323MOL0     H44549  -1.013  11.700   5.356  0.0976 -0.2860 -0.4871
  323MOL0     H44550  -1.189  11.832   5.231 -1.0070 -1.1891 -0.6629
  323MOL0     H44551  -1.201  11.939   5.371 -0.8169  0.1058 -0.8052
  323MOL0     H44552  -1.419  11.830   5.327  2.3089  2.3959  0.0979
  323MOL0     H44553  -1.364  11.783   5.482 -0.4209 -2.4575  0.1976
  323MOL0     H44554  -0.445  11.828   5.482 -2.0155 -1.0877  1.5657
  323MOL0     H44555  -0.235  11.748   5.433 -3.4390 -1.4974  1.7618
  323MOL0     H44556   0.209  11.769   5.643 -2.6655 -0.7055 -1.2939
  323MOL0     H44557   0.476  11.715   5.629  0.3265 -1.3098 -0.7179
  323MOL0     H44558   1.881  11.400   6.107 -0.8590 -1.5565  0.6228
  323MOL0     H44559   1.838  11.282   5.904  3.5415  0.6294  1.3666
  323MOL0     H44560   1.576  11.261   5.535  1.7996 -0.6870  1.3113
  323MOL0     H44561   1.505  11.182   5.310 -0.4857  1.6053  1.6683
  323MOL0     H44562   1.764  11.311   4.967  2.5184 -1.8471 -2.9998
  323MOL0     H44563   1.780  11.141   4.953  1.2072 -0.2232  1.7158
  323MOL0     H44564   1.545  11.141   4.855 -0.2250 -1.3040  2.0969
  323MOL0     H44565   1.671  11.226   4.753  4.2743  2.1872  1.5374
  323MOL0     H44566   1.535  11.391   4.970  0.3229  0.8282  0.1046
  323MOL0     H44567   1.608  11.447   4.818 -2.2963  0.3117 -2.5069
  323MOL0     H44568   1.362  11.452   4.860 -0.8224 -0.3126  0.0706
  323MOL0     H44569   1.348  11.282   4.827 -0.7389  0.2059 -2.0236
  323MOL0     H44570   1.334  11.443   4.442  1.7273 -2.0305 -0.2027
  323MOL0     H44571   1.883  11.324   5.146 -1.2922 -0.9166 -1.1379
  323MOL0     H44572   1.981  11.499   5.433 -0.2850  0.6241 -0.7020
  323MOL0     H44573   2.055  11.344   5.405  1.4088  0.5143  1.9299
  323MOL0     H44574   2.009  11.460   5.272 -2.2245 -1.0413  0.1613
  324MOL0     O44575   8.641   3.113   3.922 -0.1840 -0.8603 -0.3949
  324MOL0     C44576   8.522   3.104   3.887  0.0439  0.8772 -0.4534
  324MOL0     O44577   8.423   3.123   3.981 -0.4343 -0.0804 -0.1315
  324MOL0     C44578   8.434   3.207   4.091  0.7908  0.5670  0.9487
  324MOL0     C44579   8.514   3.330   4.093  0.3001  0.3597 -0.0881
  324MOL0     C44580   8.509   3.409   4.210  0.2582 -0.6887  0.4788
  324MOL0     C44581   8.439   3.368   4.319  0.0921 -0.1873  0.6029
  324MOL0     O44582   8.432   3.438   4.439 -0.1617  0.2073  0.5402
  324MOL0     C44583   8.371   3.571   4.441 -0.5176 -0.0715  0.0695
  324MOL0     C44584   8.223   3.573   4.466  0.1653  0.3166  0.4555
  324MOL0     C44585   8.192   3.512   4.603 -0.4453  0.5396 -0.7192
  324MOL0     C44586   8.236   3.603   4.724 -0.4522  0.3354  0.3185
  324MOL0     C44587   8.211   3.527   4.858  0.4459  0.1809  0.2824
  324MOL0     C44588   8.059   3.530   4.898 -0.0105  0.2176  0.3320
  324MOL0     C44589   7.992   3.671   4.903 -0.2638  0.1571  0.1770
  324MOL0     C44590   8.051   3.775   4.994 -0.8420 -0.6540  0.7292
  324MOL0     N44591   8.081   3.717   5.126  1.4408  0.3411  0.1904
  324MOL0     C44592   7.988   3.673   5.212  0.6815  0.0983  0.4361
  324MOL0     C44593   8.053   3.624   5.314  0.7292  1.4048 -0.6010
  324MOL0     C44594   7.982   3.562   5.437  0.2213  1.0814  0.2307
  324MOL0     C44595   7.968   3.413   5.422 -0.3612 -0.3060 -0.3992
  324MOL0     C44596   8.104   3.341   5.385 -0.2427  0.4203  0.0719
  324MOL0     C44597   8.224   3.375   5.476  0.6126 -0.7644  0.5813
  324MOL0     O44598   8.215   3.298   5.596  0.7060 -0.4896 -0.1637
  324MOL0     C44599   8.226   3.380   5.711 -0.6718 -0.9750  0.2373
  324MOL0     C44600   8.116   3.455   5.751 -0.3910  0.2185  0.9849
  324MOL0     C44601   8.115   3.538   5.864 -1.0729 -0.1817  1.0040
  324MOL0     C44602   7.992   3.616   5.896 -0.0563 -0.2391 -0.4935
  324MOL0     C44603   8.246   3.569   5.927  0.4229  0.4795 -0.0428
  324MOL0     C44604   8.254   3.652   6.056 -0.6814 -0.0222  1.1186
  324MOL0     O44605   8.139   3.654   6.128 -1.0390 -0.6330  0.1133
  324MOL0     C44606   8.141   3.698   6.260 -0.0528  0.6822  1.5644
  324MOL0     C44607   8.222   3.792   6.311  0.0237  0.0076 -0.7013
  324MOL0     C44608   8.201   3.826   6.446 -0.2755  0.2496 -0.6000
  324MOL0     C44609   8.106   3.773   6.526 -0.2798  0.1109  0.0313
  324MOL0     O44610   8.090   3.816   6.654 -0.2699 -0.5352 -0.2130
  324MOL0     C44611   8.212   3.820   6.732  1.4835  0.3832  0.4893
  324MOL0     C44612   8.184   3.725   6.850 -0.4232 -0.2049 -0.5460
  324MOL0     C44613   8.317   3.693   6.931  0.0732 -0.2036 -0.4367
  324MOL0     C44614   8.346   3.541   6.948 -0.1089 -0.6917 -0.5738
  324MOL0     C44615   8.365   3.446   6.823  0.4928  0.6907  1.1739
  324MOL0     C44616   8.464   3.494   6.719  0.3018  0.3540 -0.0592
  324MOL0     C44617   8.448   3.426   6.579  0.3348 -1.7073  0.6371
  324MOL0     C44618   8.559   3.478   6.481  0.7297 -0.1408  0.2215
  324MOL0    Cl44619   8.727   3.440   6.542  0.0245 -0.2161  0.3440
  324MOL0     C44620   8.026   3.671   6.473 -1.1419  0.3597 -0.2315
  324MOL0     C44621   8.048   3.630   6.341 -0.1340 -0.0138 -0.0107
  324MOL0     O44622   8.363   3.697   6.087 -0.3702 -0.7219 -0.1608
  324MOL0     C44623   8.359   3.502   5.884 -0.5189  0.2537 -0.0439
  324MOL0     C44624   8.349   3.415   5.772 -0.4347  0.0010 -0.1466
  324MOL0     N44625   8.191   3.643   5.295 -0.0420  0.6288 -0.3282
  324MOL0     N44626   8.206   3.679   5.172  0.0789 -1.6071 -0.5460
  324MOL0     C44627   8.362   3.255   4.319  0.3948  0.6987 -0.1708
  324MOL0     C44628   8.351   3.180   4.199 -0.5299  0.7812 -0.0549
  324MOL0     C44629   8.494   3.091   3.737  0.3484 -0.1834 -0.2646
  324MOL0     C44630   8.362   3.137   3.698 -1.6312 -0.1240 -0.0506
  324MOL0     C44631   8.329   3.139   3.561 -0.5727 -0.9524 -0.6628
  324MOL0     C44632   8.431   3.090   3.465  0.0027 -0.2518 -0.0204
  324MOL0     O44633   8.414   3.088   3.324  0.2504  0.3493 -0.0075
  324MOL0     C44634   8.306   3.164   3.263 -0.3455  0.4962  0.2234
  324MOL0     C44635   8.283   3.121   3.120  0.7710 -0.0437 -0.0892
  324MOL0     C44636   8.352   3.215   3.022 -0.9301  0.2929  0.3928
  324MOL0     C44637   8.382   3.143   2.888 -0.8435 -0.2003  0.2162
  324MOL0     C44638   8.262   3.108   2.807 -0.2911  0.1702  0.0786
  324MOL0     C44639   8.160   3.090   2.739  0.3504 -0.8086  0.6568
  324MOL0     C44640   8.553   3.054   3.513  0.6699 -0.1615 -0.0976
  324MOL0     C44641   8.586   3.048   3.644 -0.2584 -0.3141  0.6120
  324MOL0     C44642   8.730   2.990   3.675 -0.3750 -0.3869  0.8057
  324MOL0     H44643   8.584   3.355   4.013  3.4842 -0.5615  2.2136
  324MOL0     H44644   8.559   3.505   4.211 -0.6976 -0.1597 -0.4968
  324MOL0     H44645   8.387   3.636   4.354 -4.3602  0.5324 -0.3544
  324MOL0     H44646   8.425   3.606   4.529 -1.1368 -3.4514  1.9657
  324MOL0     H44647   8.186   3.676   4.456 -1.6023 -0.4858 -1.9718
  324MOL0     H44648   8.180   3.509   4.388  0.4379  1.0346 -0.2966
  324MOL0     H44649   8.083   3.511   4.613 -0.6291  0.7991 -2.4691
  324MOL0     H44650   8.239   3.413   4.609  0.5508  0.9888 -0.7814
  324MOL0     H44651   8.341   3.629   4.709 -0.7358  0.9927 -0.6300
  324MOL0     H44652   8.178   3.695   4.710 -1.0788 -0.1055 -0.0344
  324MOL0     H44653   8.275   3.551   4.944  1.6871 -1.2127 -0.1907
  324MOL0     H44654   8.229   3.419   4.845 -1.6963  0.1307 -3.8242
  324MOL0     H44655   8.017   3.465   4.820 -0.5409  1.5504 -0.5369
  324MOL0     H44656   8.043   3.467   4.986  2.9780 -0.0420  0.7677
  324MOL0     H44657   7.885   3.665   4.927 -0.4579 -2.3046 -0.9406
  324MOL0     H44658   7.981   3.713   4.802  0.4315  0.4810  0.2370
  324MOL0     H44659   8.147   3.814   4.957 -1.3442  2.4388  2.3438
  324MOL0     H44660   7.992   3.865   5.013  1.5503  0.6810  2.2710
  324MOL0     H44661   7.881   3.661   5.195  0.8913 -2.5120  0.5732
  324MOL0     H44662   7.878   3.596   5.436  0.0511  0.6057 -1.2629
  324MOL0     H44663   8.043   3.581   5.526 -0.4474 -2.6332  1.6472
  324MOL0     H44664   7.938   3.379   5.521  4.6519 -0.4533  1.3375
  324MOL0     H44665   7.892   3.394   5.345 -0.1599  0.3754 -0.7794
  324MOL0     H44666   8.088   3.233   5.386  2.3791 -0.2077 -3.3132
  324MOL0     H44667   8.131   3.357   5.280 -0.0929  2.2434  0.3507
  324MOL0     H44668   8.315   3.353   5.418  1.0359  1.3687  0.3484
  324MOL0     H44669   8.230   3.483   5.492  1.1097 -0.9315  1.6325
  324MOL0     H44670   8.028   3.449   5.688  0.5391  2.4498 -0.6810
  324MOL0     H44671   7.927   3.611   5.809  1.6035  4.4549 -2.3102
  324MOL0     H44672   8.017   3.720   5.920  0.4426 -0.5246  0.2788
  324MOL0     H44673   7.932   3.571   5.976 -0.8785 -1.2801 -1.6544
  324MOL0     H44674   8.296   3.848   6.256 -0.6579 -0.6382 -2.3473
  324MOL0     H44675   8.258   3.906   6.493 -0.3554  1.9705 -3.2234
  324MOL0     H44676   8.299   3.774   6.684  1.5780 -0.5238  1.4828
  324MOL0     H44677   8.237   3.924   6.756  2.8764  0.2359 -0.1962
  324MOL0     H44678   8.102   3.767   6.908  0.3270  1.9258 -0.9523
  324MOL0     H44679   8.152   3.629   6.808 -2.9895 -1.0601  2.8950
  324MOL0     H44680   8.303   3.740   7.029  1.2098  1.1477 -0.8827
  324MOL0     H44681   8.400   3.747   6.883 -1.2025  2.0204 -0.3122
  324MOL0     H44682   8.260   3.511   7.009  0.5103 -0.1248  0.6175
  324MOL0     H44683   8.439   3.520   7.003  0.8378  0.5195 -1.6707
  324MOL0     H44684   8.412   3.356   6.864  2.3701 -0.1654 -2.3534
  324MOL0     H44685   8.264   3.431   6.783  1.3055 -3.2295  0.1296
  324MOL0     H44686   8.564   3.472   6.758  0.8580 -2.6136 -2.7045
  324MOL0     H44687   8.461   3.602   6.704  0.0075  0.0132 -3.1129
  324MOL0     H44688   8.357   3.468   6.538  1.0078  3.2713  3.4716
  324MOL0     H44689   8.453   3.316   6.579  1.6555 -1.7509  3.8292
  324MOL0     H44690   8.546   3.581   6.444 -3.0160 -1.7977 -4.0987
  324MOL0     H44691   8.541   3.425   6.387  0.9283  3.2556 -1.9090
  324MOL0     H44692   7.962   3.614   6.540  0.7500  0.0012  1.3558
  324MOL0     H44693   7.988   3.549   6.300 -2.7906  2.1226 -0.6066
  324MOL0     H44694   8.453   3.515   5.936 -0.9758 -1.0977  1.1876
  324MOL0     H44695   8.438   3.372   5.727  0.1169  3.8490 -3.2131
  324MOL0     H44696   8.312   3.226   4.411 -0.7185  1.0112 -0.6608
  324MOL0     H44697   8.287   3.093   4.189 -1.2178  1.1540  0.9354
  324MOL0     H44698   8.291   3.145   3.780 -1.7109 -0.9040 -0.0354
  324MOL0     H44699   8.239   3.189   3.529  0.1611 -0.0004 -1.3091
  324MOL0     H44700   8.212   3.148   3.316 -2.0723 -0.2695 -2.8238
  324MOL0     H44701   8.329   3.271   3.270  1.5817  0.1572 -0.2110
  324MOL0     H44702   8.176   3.127   3.094  0.6008 -0.8927  0.3595
  324MOL0     H44703   8.312   3.016   3.109  0.2127 -0.2559  0.4202
  324MOL0     H44704   8.293   3.303   2.994 -2.3450 -1.7100 -3.8411
  324MOL0     H44705   8.446   3.252   3.064  0.0432  0.0410 -1.4879
  324MOL0     H44706   8.433   3.050   2.916 -0.6641 -0.0539  0.3780
  324MOL0     H44707   8.447   3.210   2.830 -1.6676  2.8919  2.6155
  324MOL0     H44708   8.070   3.056   2.691  0.7703 -2.7386  1.1343
  324MOL0     H44709   8.623   3.003   3.447 -0.8245 -1.6327 -0.6243
  324MOL0     H44710   8.756   2.913   3.602  0.5572  0.4014  0.2712
  324MOL0     H44711   8.808   3.067   3.669 -0.5450 -0.3175 -1.3349
  324MOL0     H44712   8.744   2.942   3.772  2.4544  0.0003  0.6671
  325MOL0     O44713   9.286   8.103   4.122  0.1323  0.4957 -0.1671
  325MOL0     C44714   9.374   8.061   4.192 -0.9249  0.0207 -0.9225
  325MOL0     O44715   9.354   7.983   4.301  0.0564 -0.0091 -0.7057
  325MOL0     C44716   9.225   7.960   4.353  0.3931  0.7227  0.9178
  325MOL0     C44717   9.125   7.903   4.271 -0.2485  0.2956  0.8031
  325MOL0     C44718   9.000   7.857   4.320 -0.8849 -0.5380  0.2698
  325MOL0     C44719   8.975   7.894   4.458  1.2085  0.0820 -0.1138
  325MOL0     O44720   8.863   7.844   4.519  1.2623 -0.0423  0.1512
  325MOL0     C44721   8.790   7.923   4.619  0.5322  0.0125  0.8693
  325MOL0     C44722   8.653   7.847   4.618  0.5727  0.4824  0.3799
  325MOL0     C44723   8.562   7.940   4.708 -0.7352  0.6733  0.4778
  325MOL0     C44724   8.417   7.890   4.717 -0.6689  1.0326  0.0802
  325MOL0     C44725   8.319   7.972   4.808 -0.4803 -0.2388  0.7639
  325MOL0     C44726   8.175   7.938   4.790  0.1925 -0.5497 -0.3035
  325MOL0     C44727   8.085   8.034   4.877 -0.3352 -0.0559 -1.0619
  325MOL0     C44728   7.936   7.997   4.897 -0.3619 -0.0025 -0.2543
  325MOL0     N44729   7.923   7.866   4.956 -0.3482 -0.4565 -0.5538
  325MOL0     C44730   7.935   7.843   5.093  0.4977 -0.1952  0.4035
  325MOL0     C44731   7.927   7.710   5.105 -0.2570  0.1898 -0.6305
  325MOL0     C44732   7.940   7.633   5.234 -0.2137 -0.6385  0.6761
  325MOL0     C44733   8.040   7.698   5.348  0.7720 -0.2129 -0.5956
  325MOL0     C44734   8.189   7.671   5.320  0.6883 -0.0217 -0.4270
  325MOL0     C44735   8.239   7.776   5.221  0.1580 -0.2378 -0.0342
  325MOL0     O44736   8.379   7.753   5.187  0.0807 -0.6542 -0.5242
  325MOL0     C44737   8.402   7.673   5.077 -0.3888  0.3886 -0.0327
  325MOL0     C44738   8.302   7.596   5.012  0.2400  0.1164 -0.6652
  325MOL0     C44739   8.330   7.516   4.909  0.3215 -0.5187 -0.2713
  325MOL0     C44740   8.215   7.428   4.855 -0.2177 -0.3517  0.1984
  325MOL0     C44741   8.462   7.505   4.866 -0.3597  0.1077 -0.4737
  325MOL0     C44742   8.498   7.426   4.746  0.0582 -0.3164  0.7825
  325MOL0     O44743   8.590   7.482   4.658 -0.1047 -0.5781  0.0307
  325MOL0     C44744   8.661   7.411   4.570 -0.7136 -0.1337  0.1947
  325MOL0     C44745   8.668   7.279   4.573  0.0542 -0.0692 -0.2521
  325MOL0     C44746   8.747   7.201   4.487 -0.3743 -0.3218 -0.4994
  325MOL0     C44747   8.849   7.265   4.417 -0.1829  0.2006  0.0505
  325MOL0     O44748   8.928   7.191   4.336  1.1271  0.5338  0.3182
  325MOL0     C44749   9.008   7.263   4.239 -0.3952  0.0703 -0.1392
  325MOL0     C44750   9.074   7.151   4.144 -0.0394 -0.1592 -0.4117
  325MOL0     C44751   9.152   7.058   4.236 -0.1959  0.2321 -1.0578
  325MOL0     C44752   9.239   6.950   4.168 -0.5481 -0.3408 -1.0988
  325MOL0     C44753   9.345   7.010   4.079 -0.7537  0.1896  0.1374
  325MOL0     C44754   9.452   6.904   4.062 -0.5106  0.6762 -0.5505
  325MOL0     C44755   9.388   6.772   3.996 -1.7890  0.7007 -0.5990
  325MOL0     C44756   9.482   6.665   3.940 -0.0744  0.5135 -0.8253
  325MOL0    Cl44757   9.585   6.599   4.072  0.2329  0.4069  0.1410
  325MOL0     C44758   8.853   7.409   4.420  0.5608 -0.7553  0.4465
  325MOL0     C44759   8.754   7.480   4.494  0.9066  1.2353 -0.3216
  325MOL0     O44760   8.436   7.322   4.723  0.0269 -0.3156 -0.3573
  325MOL0     C44761   8.560   7.578   4.925 -0.0014  0.0365  0.2004
  325MOL0     C44762   8.533   7.657   5.037 -0.1908 -0.0174 -0.4523
  325MOL0     N44763   7.929   7.649   4.981  0.0029  0.4722  0.0791
  325MOL0     N44764   7.921   7.751   4.891 -0.2191  0.0599 -0.1215
  325MOL0     C44765   9.077   7.950   4.543 -0.7953  0.6878 -0.3036
  325MOL0     C44766   9.205   7.972   4.492  0.1761 -1.4108  0.3182
  325MOL0     C44767   9.512   8.069   4.144 -0.1851 -0.8408  0.4169
  325MOL0     C44768   9.613   7.989   4.212  0.6364 -0.7845  0.9537
  325MOL0     C44769   9.743   7.976   4.157  0.3111 -0.8936 -0.7788
  325MOL0     C44770   9.784   8.054   4.049 -0.2045  0.4698 -0.2270
  325MOL0     O44771   9.905   8.049   3.994 -0.6417  0.3732 -0.7002
  325MOL0     C44772   9.943   7.903   3.979  0.3977 -0.6616  1.3407
  325MOL0     C44773  10.059   7.893   3.886  1.2368 -0.7460  1.2774
  325MOL0     C44774  10.034   7.952   3.739  0.4344 -0.0472  0.2038
  325MOL0     C44775   9.952   7.841   3.658 -0.3813  0.7434  0.8537
  325MOL0     C44776   9.811   7.877   3.664  0.2926  0.1799 -0.1931
  325MOL0     C44777   9.696   7.901   3.691  1.2582 -0.1183 -0.1943
  325MOL0     C44778   9.684   8.133   3.987 -0.3889  0.1284 -1.0823
  325MOL0     C44779   9.555   8.139   4.031 -0.3916 -0.0025 -0.6251
  325MOL0     C44780   9.487   8.234   3.932  0.6426  0.4540 -0.5695
  325MOL0     H44781   9.145   7.882   4.166 -0.1373  2.9536  0.2245
  325MOL0     H44782   8.926   7.804   4.260 -1.9039  0.1348  0.8915
  325MOL0     H44783   8.777   8.029   4.600  0.7748 -0.3457 -1.5643
  325MOL0     H44784   8.847   7.907   4.711  0.5088  1.2756  1.1104
  325MOL0     H44785   8.613   7.828   4.519  2.3501 -0.3568 -0.2200
  325MOL0     H44786   8.676   7.755   4.672  0.9931 -0.3817 -1.2072
  325MOL0     H44787   8.605   7.946   4.809  0.9636  3.1589 -0.2884
  325MOL0     H44788   8.564   8.042   4.670 -0.5910  1.2712  2.0014
  325MOL0     H44789   8.381   7.869   4.616  0.3864 -1.1313  0.1147
  325MOL0     H44790   8.421   7.791   4.762 -0.0953  0.8599 -0.3475
  325MOL0     H44791   8.341   8.078   4.794  0.9648 -0.6603 -0.3650
  325MOL0     H44792   8.345   7.944   4.911  0.4627 -0.0822  0.5756
  325MOL0     H44793   8.153   7.942   4.683 -1.3325 -1.1559 -0.0280
  325MOL0     H44794   8.153   7.835   4.817 -1.1921  0.0172  0.8445
  325MOL0     H44795   8.102   8.137   4.844  0.3576  1.0691  2.3492
  325MOL0     H44796   8.120   8.032   4.981 -2.5689 -1.5541 -0.2504
  325MOL0     H44797   7.898   8.068   4.972 -1.6927 -1.5742  0.6253
  325MOL0     H44798   7.876   7.994   4.805  0.5779 -0.5145 -0.8628
  325MOL0     H44799   7.954   7.924   5.163  1.5286  1.6056 -1.8234
  325MOL0     H44800   7.980   7.538   5.199 -0.5555 -0.1421 -1.1588
  325MOL0     H44801   7.842   7.630   5.283  0.7915 -0.9673  2.8080
  325MOL0     H44802   8.026   7.806   5.355  0.5353 -0.3194  0.9546
  325MOL0     H44803   8.007   7.661   5.446  0.8720 -1.3449 -0.9733
  325MOL0     H44804   8.235   7.698   5.416  0.5891 -1.8477  0.1846
  325MOL0     H44805   8.215   7.568   5.294  1.1673  0.2563 -1.1061
  325MOL0     H44806   8.187   7.775   5.124  1.3191  1.4811 -0.7076
  325MOL0     H44807   8.226   7.872   5.270  1.9800  1.5346 -2.7375
  325MOL0     H44808   8.200   7.596   5.049  0.4851 -1.3420  0.0577
  325MOL0     H44809   8.206   7.454   4.749 -1.6587  2.5396  0.9283
  325MOL0     H44810   8.122   7.452   4.906 -0.8812 -3.5949  0.7381
  325MOL0     H44811   8.239   7.321   4.864  1.3777  0.0315  0.8696
  325MOL0     H44812   8.615   7.216   4.645  1.6833 -1.2402 -0.0242
  325MOL0     H44813   8.757   7.094   4.480  2.9404 -0.4066  2.5052
  325MOL0     H44814   8.956   7.342   4.185  0.6915  0.1174 -1.1495
  325MOL0     H44815   9.089   7.309   4.297 -0.6963  1.2068 -0.5945
  325MOL0     H44816   9.005   7.098   4.078  1.5783 -0.1816 -2.1645
  325MOL0     H44817   9.143   7.209   4.081 -1.0111  1.4554 -0.0397
  325MOL0     H44818   9.081   6.996   4.293 -0.1620  0.3553 -0.8853
  325MOL0     H44819   9.219   7.118   4.297  3.9113 -1.4942 -3.4381
  325MOL0     H44820   9.182   6.883   4.102 -0.4966 -3.1102  1.4390
  325MOL0     H44821   9.286   6.897   4.251 -0.1254  1.5283 -0.0966
  325MOL0     H44822   9.312   7.044   3.980  1.2717 -0.6357 -0.8741
  325MOL0     H44823   9.400   7.096   4.119  1.8738 -1.0607 -0.5514
  325MOL0     H44824   9.511   6.890   4.153 -0.3123  0.1768 -0.7550
  325MOL0     H44825   9.514   6.932   3.977  1.7939 -1.7258  0.2129
  325MOL0     H44826   9.330   6.813   3.914 -2.8132  1.2079  0.3533
  325MOL0     H44827   9.324   6.715   4.065  0.5093 -0.8052  0.4367
  325MOL0     H44828   9.538   6.703   3.854  1.0341  0.3673 -0.1938
  325MOL0     H44829   9.412   6.584   3.916 -3.1631  0.6921  5.4825
  325MOL0     H44830   8.926   7.468   4.366 -0.8429 -0.0351 -0.7425
  325MOL0     H44831   8.749   7.588   4.495  1.1681  1.2914 -2.0835
  325MOL0     H44832   8.664   7.579   4.895 -0.2166 -2.3820 -0.8686
  325MOL0     H44833   8.608   7.721   5.082  0.2108 -0.0748 -1.0301
  325MOL0     H44834   9.052   7.960   4.648 -1.7722 -1.3553 -0.2946
  325MOL0     H44835   9.277   8.017   4.559  2.1462  0.1499 -2.6276
  325MOL0     H44836   9.592   7.933   4.302 -2.7496  0.6558  1.2059
  325MOL0     H44837   9.819   7.920   4.209  2.2458  1.2537 -1.1365
  325MOL0     H44838   9.980   7.868   4.076  1.4397 -4.4104 -0.2622
  325MOL0     H44839   9.863   7.840   3.941 -0.5175  3.0359 -4.0326
  325MOL0     H44840  10.089   7.788   3.881  1.7258 -0.6412  1.8677
  325MOL0     H44841  10.142   7.948   3.930  2.0080 -0.9921  0.1821
  325MOL0     H44842   9.985   8.049   3.752  3.6414  1.8142 -0.5861
  325MOL0     H44843  10.127   7.970   3.685 -0.6871 -1.4435 -2.3570
  325MOL0     H44844   9.965   7.738   3.691 -3.9368 -0.3303 -0.5935
  325MOL0     H44845   9.967   7.851   3.550 -0.6244  2.7392  0.9586
  325MOL0     H44846   9.590   7.918   3.696  0.7495 -2.7950 -0.3730
  325MOL0     H44847   9.718   8.184   3.898  1.4214  3.2744  1.2458
  325MOL0     H44848   9.530   8.334   3.934  2.2231 -0.1742 -0.9161
  325MOL0     H44849   9.491   8.190   3.832 -2.0358 -0.4450 -0.3396
  325MOL0     H44850   9.382   8.239   3.963  1.2767 -0.1142  1.9682
  326MOL0     O44851   5.209   8.670   8.653  0.4011  0.2175 -0.2950
  326MOL0     C44852   5.304   8.678   8.582  0.2457  0.6423  0.2788
  326MOL0     O44853   5.416   8.591   8.596  0.9057  0.8887 -0.2436
  326MOL0     C44854   5.408   8.458   8.646 -0.4474 -0.8307 -0.0733
  326MOL0     C44855   5.505   8.357   8.613  0.1710  0.0207  0.3872
  326MOL0     C44856   5.500   8.219   8.662 -0.3647 -0.5107 -0.2317
  326MOL0     C44857   5.388   8.183   8.745 -0.6300 -1.1305  0.7582
  326MOL0     O44858   5.375   8.048   8.772 -0.2608 -0.6622 -0.6606
  326MOL0     C44859   5.266   8.013   8.861 -0.5499 -0.8733 -0.9615
  326MOL0     C44860   5.257   7.859   8.867 -0.8455 -0.3926  0.5484
  326MOL0     C44861   5.177   7.796   8.755  1.3431 -0.4814 -0.3846
  326MOL0     C44862   5.032   7.771   8.811 -0.3435  0.7084 -0.7460
  326MOL0     C44863   4.942   7.723   8.702  0.3256 -1.4504  0.1948
  326MOL0     C44864   4.866   7.848   8.647 -0.0817 -0.3369  0.1695
  326MOL0     C44865   4.793   7.934   8.752  0.7677 -0.2846 -0.7539
  326MOL0     C44866   4.715   8.043   8.694 -0.1842  0.4042  0.3928
  326MOL0     N44867   4.779   8.131   8.587 -0.2778 -0.1529  0.7040
  326MOL0     C44868   4.889   8.215   8.615 -0.3023 -1.0817 -0.2043
  326MOL0     C44869   4.905   8.285   8.502  0.4767  0.3002 -0.6555
  326MOL0     C44870   5.012   8.384   8.467  1.3705  0.8301 -0.2884
  326MOL0     C44871   5.104   8.319   8.353  0.2920  0.2565 -0.2806
  326MOL0     C44872   5.204   8.209   8.400  0.2891  0.3096  0.9131
  326MOL0     C44873   5.276   8.115   8.301 -0.3332  0.3827  0.2026
  326MOL0     O44874   5.296   7.981   8.356 -0.3380  0.7544 -0.3998
  326MOL0     C44875   5.193   7.891   8.343 -0.9958  0.0440  0.1796
  326MOL0     C44876   5.063   7.914   8.323 -0.4518 -0.0391  0.3894
  326MOL0     C44877   4.967   7.813   8.297 -0.1075  0.8157 -0.5916
  326MOL0     C44878   4.825   7.851   8.257  0.9763  0.1461 -0.0138
  326MOL0     C44879   5.013   7.680   8.320 -0.3925 -0.7906 -0.0328
  326MOL0     C44880   4.916   7.564   8.333  0.5380  0.1657  0.6195
  326MOL0     O44881   4.971   7.441   8.298 -0.0506 -0.6184 -0.2454
  326MOL0     C44882   4.890   7.337   8.281 -0.2072  0.3030  0.0834
  326MOL0     C44883   4.954   7.214   8.297 -0.4725 -1.5407 -0.2022
  326MOL0     C44884   4.893   7.096   8.264  0.9069 -0.1547  0.5889
  326MOL0     C44885   4.763   7.093   8.212 -0.0219  0.4238  0.9097
  326MOL0     O44886   4.693   6.980   8.198  0.0013 -0.3870 -0.3647
  326MOL0     C44887   4.758   6.865   8.149  0.4184  0.2142 -0.2744
  326MOL0     C44888   4.663   6.797   8.057  0.6133  0.9318 -0.2234
  326MOL0     C44889   4.720   6.665   7.999  0.4669 -0.2470  0.2125
  326MOL0     C44890   4.607   6.582   7.937 -0.2515  0.1645 -0.6292
  326MOL0     C44891   4.647   6.445   7.899  0.4996  1.1997  0.0819
  326MOL0     C44892   4.515   6.377   7.867 -0.0960  0.1058  0.2468
  326MOL0     C44893   4.536   6.241   7.789  0.1830 -0.5450  0.1641
  326MOL0     C44894   4.577   6.131   7.884  0.7252 -0.8131 -0.5053
  326MOL0    Cl44895   4.473   6.119   8.033 -0.0202  0.2664 -0.5547
  326MOL0     C44896   4.703   7.216   8.183 -0.0793 -0.0295 -0.3457
  326MOL0     C44897   4.764   7.340   8.216  0.0295  0.2355 -0.2071
  326MOL0     O44898   4.799   7.585   8.373 -0.2685  0.3881 -0.1316
  326MOL0     C44899   5.146   7.653   8.340 -1.0733  0.1042  0.5441
  326MOL0     C44900   5.235   7.756   8.351 -0.9734 -0.3171 -0.3825
  326MOL0     N44901   4.808   8.243   8.407 -0.4252  0.6964 -0.1057
  326MOL0     N44902   4.745   8.146   8.462  0.6798  0.5471  0.1112
  326MOL0     C44903   5.297   8.282   8.787  0.2827 -0.2164  0.3099
  326MOL0     C44904   5.313   8.416   8.742  0.3179 -1.0072 -0.5624
  326MOL0     C44905   5.322   8.800   8.503 -0.5477  1.3719  0.6311
  326MOL0     C44906   5.448   8.865   8.523 -0.1950 -1.3834  0.4814
  326MOL0     C44907   5.478   8.982   8.453 -0.2683 -0.2737  0.7555
  326MOL0     C44908   5.391   9.029   8.365  1.4771 -0.2165 -0.0858
  326MOL0     O44909   5.421   9.149   8.303  0.1627 -0.0011  0.4070
  326MOL0     C44910   5.319   9.227   8.238 -0.8668  0.2018 -0.0740
  326MOL0     C44911   5.374   9.347   8.169 -0.1007 -0.3490  0.4274
  326MOL0     C44912   5.398   9.321   8.019 -0.0546  0.2389  0.4518
  326MOL0     C44913   5.500   9.428   7.962 -0.3956 -0.4905  0.3277
  326MOL0     C44914   5.441   9.559   7.969  0.2562 -0.2224  0.4707
  326MOL0     C44915   5.395   9.672   7.971 -0.0711 -0.5006 -0.5207
  326MOL0     C44916   5.259   8.973   8.346  0.5705 -0.0934 -0.2192
  326MOL0     C44917   5.227   8.855   8.413  0.5861  0.1440 -0.3597
  326MOL0     C44918   5.104   8.774   8.378  0.3663  0.0732 -0.1882
  326MOL0     H44919   5.579   8.394   8.542 -0.7005 -2.6696 -2.1090
  326MOL0     H44920   5.570   8.148   8.619 -2.0027  0.2075 -4.5949
  326MOL0     H44921   5.167   8.047   8.826 -1.1636 -2.8238 -1.2214
  326MOL0     H44922   5.292   8.048   8.961 -3.2860  1.4025 -0.9211
  326MOL0     H44923   5.360   7.822   8.870 -1.1340 -1.3560 -0.5311
  326MOL0     H44924   5.211   7.836   8.963  0.2504 -2.8578  0.5553
  326MOL0     H44925   5.171   7.866   8.670 -0.0323 -1.6286 -1.2873
  326MOL0     H44926   5.228   7.705   8.723  0.8330 -1.6522  1.9550
  326MOL0     H44927   5.051   7.686   8.878  0.9606  1.0373 -0.6715
  326MOL0     H44928   4.996   7.858   8.866 -1.7786 -0.0942 -0.3720
  326MOL0     H44929   4.867   7.655   8.743 -0.9483  0.1890  0.7222
  326MOL0     H44930   4.990   7.660   8.626  0.5728  0.6929 -1.5196
  326MOL0     H44931   4.937   7.912   8.594 -0.8288  1.3409  1.1129
  326MOL0     H44932   4.795   7.808   8.574  0.3488 -1.5024  0.3652
  326MOL0     H44933   4.859   7.988   8.820 -2.2387  0.2795  1.9675
  326MOL0     H44934   4.723   7.871   8.809 -2.7422  2.9676 -1.0744
  326MOL0     H44935   4.634   7.992   8.641  0.7509 -0.6050 -0.0927
  326MOL0     H44936   4.676   8.105   8.776  0.4275 -0.0680  1.0470
  326MOL0     H44937   4.954   8.230   8.701 -1.4127  1.7466  0.2582
  326MOL0     H44938   5.063   8.400   8.562  2.2087 -0.1576 -0.5505
  326MOL0     H44939   4.962   8.474   8.429 -1.2080  0.2403  1.4554
  326MOL0     H44940   5.047   8.289   8.265  0.9616  1.4110 -1.1394
  326MOL0     H44941   5.159   8.407   8.316  1.4076  1.9848  4.7041
  326MOL0     H44942   5.266   8.257   8.476 -0.5201 -0.5194  2.1233
  326MOL0     H44943   5.147   8.150   8.471  1.6386  0.9782  2.6160
  326MOL0     H44944   5.233   8.115   8.201 -3.1829 -2.8961  1.2591
  326MOL0     H44945   5.379   8.150   8.289  0.4415 -2.3667 -2.1779
  326MOL0     H44946   5.026   8.015   8.337 -1.0137 -0.1746 -0.0998
  326MOL0     H44947   4.751   7.852   8.337  0.3484 -0.6657 -0.5777
  326MOL0     H44948   4.775   7.785   8.186  2.2839 -3.6435  2.2807
  326MOL0     H44949   4.825   7.948   8.206 -1.3130 -0.5828 -1.5544
  326MOL0     H44950   5.057   7.213   8.331  0.1534 -0.5367 -1.9181
  326MOL0     H44951   4.942   7.005   8.297 -1.9969 -0.7785  3.8317
  326MOL0     H44952   4.853   6.891   8.100 -1.1945  0.1756 -3.7721
  326MOL0     H44953   4.779   6.791   8.226  1.2685  0.2808 -0.4309
  326MOL0     H44954   4.567   6.779   8.107  0.3813 -1.2705 -1.3384
  326MOL0     H44955   4.651   6.862   7.969  1.3023  1.1886 -0.1308
  326MOL0     H44956   4.761   6.605   8.080 -0.5757 -0.0267  0.9249
  326MOL0     H44957   4.804   6.682   7.931 -0.8844  0.0465 -1.4576
  326MOL0     H44958   4.563   6.646   7.860  2.7309  2.2040 -0.7925
  326MOL0     H44959   4.531   6.579   8.016  1.0732  0.1191  0.6850
  326MOL0     H44960   4.715   6.435   7.814  1.4254  0.3435  0.8876
  326MOL0     H44961   4.703   6.402   7.983  2.5195  2.8227 -0.3675
  326MOL0     H44962   4.457   6.436   7.795  0.7080  0.1643 -0.3674
  326MOL0     H44963   4.448   6.365   7.953  1.1872 -0.1960  1.2407
  326MOL0     H44964   4.611   6.260   7.712  0.4125  4.1060  1.1956
  326MOL0     H44965   4.433   6.225   7.753 -0.4723  2.1185  0.6428
  326MOL0     H44966   4.678   6.160   7.916  0.8576 -0.6040 -1.0908
  326MOL0     H44967   4.568   6.035   7.831  1.6517 -1.8530  1.1400
  326MOL0     H44968   4.609   7.215   8.129  1.8398 -1.2970 -3.9553
  326MOL0     H44969   4.708   7.431   8.196 -1.4571 -0.8724 -1.4166
  326MOL0     H44970   5.191   7.555   8.354 -0.7311 -0.0415 -1.3184
  326MOL0     H44971   5.339   7.735   8.372 -0.1232  2.7565 -0.9825
  326MOL0     H44972   5.214   8.269   8.856  1.7655 -3.0193  1.7458
  326MOL0     H44973   5.254   8.492   8.792  3.1700  1.4006 -0.5979
  326MOL0     H44974   5.528   8.840   8.591 -0.3557  3.8402  2.9977
  326MOL0     H44975   5.573   9.030   8.471  2.5317 -4.2582 -1.7535
  326MOL0     H44976   5.257   9.167   8.171 -1.3530  1.7007 -1.0294
  326MOL0     H44977   5.261   9.273   8.317  0.6557 -1.8134  2.3674
  326MOL0     H44978   5.469   9.385   8.208  0.8570 -1.9051 -0.2518
  326MOL0     H44979   5.289   9.414   8.182 -1.5408 -2.1869  0.9417
  326MOL0     H44980   5.445   9.222   8.022 -1.7686 -0.6171  3.0285
  326MOL0     H44981   5.304   9.321   7.962  0.4057 -0.3381 -0.3301
  326MOL0     H44982   5.510   9.399   7.857 -3.8832 -1.8187  0.1990
  326MOL0     H44983   5.596   9.430   8.013  0.3360  0.1716 -1.0164
  326MOL0     H44984   5.351   9.768   7.960  0.1921 -0.6399 -3.3481
  326MOL0     H44985   5.178   9.018   8.290  1.5934  3.0656  0.6323
  326MOL0     H44986   5.053   8.747   8.471 -1.2031  0.1185 -1.0086
  326MOL0     H44987   5.034   8.833   8.317 -1.6791  1.0753  2.8836
  326MOL0     H44988   5.131   8.693   8.311 -0.1644  1.4808 -2.2107
  327MOL0     O44989   8.592   7.413   9.541  0.2422 -0.0727  0.8207
  327MOL0     C44990   8.700   7.440   9.480  0.1189  0.1276 -0.7285
  327MOL0     O44991   8.718   7.462   9.345 -0.0069  0.0541  0.0342
  327MOL0     C44992   8.613   7.461   9.252 -0.6758 -0.1316 -1.3421
  327MOL0     C44993   8.626   7.401   9.132 -0.5748  0.2428 -0.2305
  327MOL0     C44994   8.513   7.415   9.040 -0.7120  0.3892  0.5078
  327MOL0     C44995   8.401   7.478   9.072  0.2386  0.5911  0.6259
  327MOL0     O44996   8.293   7.471   8.989 -0.3205 -0.5355 -0.3384
  327MOL0     C44997   8.178   7.413   9.049  0.2883  0.7565  0.1394
  327MOL0     C44998   8.074   7.361   8.950  1.0786  0.5102  0.6563
  327MOL0     C44999   8.033   7.457   8.837  0.5349 -0.5553  0.0039
  327MOL0     C45000   7.968   7.377   8.719 -0.2324  1.0533 -0.0569
  327MOL0     C45001   7.893   7.473   8.619 -0.0923 -0.3497 -0.1187
  327MOL0     C45002   7.980   7.571   8.536  0.0477 -0.0174 -1.8073
  327MOL0     C45003   7.890   7.635   8.420  0.4015 -0.3597 -0.1281
  327MOL0     C45004   7.780   7.726   8.460  0.3911  0.0547  0.3541
  327MOL0     N45005   7.716   7.786   8.339 -0.6173 -0.6329 -0.0626
  327MOL0     C45006   7.759   7.892   8.267 -0.0704 -1.2159  0.3767
  327MOL0     C45007   7.683   7.889   8.164 -0.3378 -0.1589 -0.1385
  327MOL0     C45008   7.664   7.991   8.061 -0.5607 -0.5825  0.9881
  327MOL0     C45009   7.787   8.007   7.972 -0.0044  0.2468  0.4326
  327MOL0     C45010   7.853   7.870   7.932 -0.3445 -0.2616  0.1126
  327MOL0     C45011   7.885   7.868   7.780  0.6276 -0.3262  0.8186
  327MOL0     O45012   7.765   7.889   7.700  0.1094  0.0613  0.2066
  327MOL0     C45013   7.684   7.782   7.683 -0.3814  0.1763 -0.1186
  327MOL0     C45014   7.721   7.675   7.607 -0.5889  0.5148  0.3092
  327MOL0     C45015   7.644   7.558   7.598  0.4744  0.4714  0.6208
  327MOL0     C45016   7.701   7.449   7.510  0.5206  0.1311  0.3704
  327MOL0     C45017   7.513   7.544   7.662 -1.1806 -0.6476 -0.2665
  327MOL0     C45018   7.425   7.427   7.662 -0.2055 -0.7848  0.5809
  327MOL0     O45019   7.472   7.315   7.595 -0.7572  0.1233 -0.2395
  327MOL0     C45020   7.377   7.222   7.590 -0.6393 -0.5071  0.4691
  327MOL0     C45021   7.343   7.147   7.703  0.1506  0.3796 -0.5692
  327MOL0     C45022   7.251   7.034   7.698 -0.1218 -0.0469 -0.3366
  327MOL0     C45023   7.194   6.997   7.571  0.3525 -0.1272 -0.5545
  327MOL0     O45024   7.101   6.897   7.570  0.3251  0.0534 -0.1349
  327MOL0     C45025   7.108   6.792   7.468 -1.1011 -0.2709 -0.5731
  327MOL0     C45026   6.985   6.699   7.475 -0.0031 -0.3221 -0.0175
  327MOL0     C45027   6.878   6.753   7.388  0.6039  0.3587 -0.2190
  327MOL0     C45028   6.739   6.687   7.398 -0.3615 -1.0411  0.5910
  327MOL0     C45029   6.648   6.722   7.511 -0.1562  0.1447  0.1023
  327MOL0     C45030   6.577   6.855   7.490  0.5131 -0.2332 -0.2813
  327MOL0     C45031   6.472   6.884   7.592  0.4269  0.1875 -1.0588
  327MOL0     C45032   6.481   7.028   7.643 -0.0787 -0.2915 -0.5092
  327MOL0    Cl45033   6.438   7.147   7.510  0.2885  0.2485 -0.3439
  327MOL0     C45034   7.225   7.079   7.456  0.8132 -0.2651 -0.4225
  327MOL0     C45035   7.321   7.178   7.468 -0.2023 -0.1076 -1.0978
  327MOL0     O45036   7.317   7.439   7.724 -0.3585  0.3157 -0.6350
  327MOL0     C45037   7.479   7.670   7.729 -0.1067 -0.3094 -0.2452
  327MOL0     C45038   7.560   7.776   7.736  0.4201 -0.5461  0.4501
  327MOL0     N45039   7.605   7.774   8.164 -0.3792 -0.1328  0.3651
  327MOL0     N45040   7.621   7.716   8.274 -0.3922  0.1387 -0.5413
  327MOL0     C45041   8.394   7.551   9.200  0.7127 -0.6633  0.8978
  327MOL0     C45042   8.501   7.542   9.288  0.1442 -0.2023  0.2373
  327MOL0     C45043   8.824   7.450   9.560  0.3071 -0.0029 -0.4667
  327MOL0     C45044   8.810   7.478   9.696  1.3333  1.0912  0.6508
  327MOL0     C45045   8.919   7.488   9.780 -0.1261  0.3106  0.6093
  327MOL0     C45046   9.051   7.473   9.725  0.1356 -0.6797 -0.1701
  327MOL0     O45047   9.170   7.474   9.794 -0.1086 -0.1214  0.1536
  327MOL0     C45048   9.175   7.463   9.937  0.2487 -0.1254  1.1682
  327MOL0     C45049   9.148   7.315   9.986 -0.3768 -0.2187 -0.0215
  327MOL0     C45050   9.256   7.209   9.995  0.0653  1.0580 -0.7837
  327MOL0     C45051   9.322   7.201   9.858 -0.6807  0.2228  0.1971
  327MOL0     C45052   9.408   7.091   9.840 -0.0662  0.6226  0.3660
  327MOL0     C45053   9.493   7.010   9.819 -0.0767  0.2977  0.0752
  327MOL0     C45054   9.062   7.457   9.591 -0.8021  0.6106  0.1988
  327MOL0     C45055   8.957   7.456   9.505 -0.2344 -0.8958 -0.5495
  327MOL0     C45056   9.001   7.447   9.361  0.7430  0.2619 -0.7010
  327MOL0     H45057   8.718   7.348   9.108  0.0786 -0.9145  3.9664
  327MOL0     H45058   8.519   7.345   8.958  0.5374 -1.6683  2.2553
  327MOL0     H45059   8.128   7.478   9.122 -0.8229 -3.0803  3.1108
  327MOL0     H45060   8.213   7.331   9.112 -0.8699 -1.0578 -1.4494
  327MOL0     H45061   8.103   7.271   8.894  1.3777 -0.4116  2.2146
  327MOL0     H45062   7.984   7.343   9.009  0.1871 -2.4848 -1.3687
  327MOL0     H45063   7.953   7.519   8.877  1.0593  0.2319 -0.1395
  327MOL0     H45064   8.117   7.517   8.799  0.0794  1.5774  2.1285
  327MOL0     H45065   8.043   7.310   8.676 -1.0789 -2.1404  2.9205
  327MOL0     H45066   7.899   7.301   8.759  3.0601 -3.0072 -1.3570
  327MOL0     H45067   7.817   7.526   8.678  0.1268 -3.7043  3.6625
  327MOL0     H45068   7.833   7.414   8.548 -1.1055  1.1033 -0.5080
  327MOL0     H45069   8.028   7.647   8.596 -0.4221 -1.5616  0.6602
  327MOL0     H45070   8.062   7.506   8.503  1.0098  0.0793  0.2832
  327MOL0     H45071   7.853   7.552   8.359  1.4985 -2.2376  1.5951
  327MOL0     H45072   7.964   7.690   8.362 -1.0288  1.6011 -0.1871
  327MOL0     H45073   7.704   7.665   8.509  1.4708 -1.6682 -0.0246
  327MOL0     H45074   7.801   7.811   8.525 -2.8154  1.5823 -0.4209
  327MOL0     H45075   7.835   7.964   8.296  0.2422 -1.1163 -0.6763
  327MOL0     H45076   7.658   8.090   8.106  2.7825  0.6982 -1.0067
  327MOL0     H45077   7.580   7.965   7.995 -1.6681  1.2325  1.6193
  327MOL0     H45078   7.780   8.077   7.888 -3.2089  0.4367  0.7631
  327MOL0     H45079   7.856   8.052   8.044 -1.0347  0.0643  1.5601
  327MOL0     H45080   7.946   7.855   7.988 -1.5607  3.6727  3.7311
  327MOL0     H45081   7.778   7.791   7.942 -1.3369  0.1398 -3.1758
  327MOL0     H45082   7.965   7.940   7.758 -0.0917 -0.3855 -2.4824
  327MOL0     H45083   7.920   7.771   7.744  0.5033  1.1039 -3.7188
  327MOL0     H45084   7.813   7.673   7.550 -0.7717 -0.6591  0.0290
  327MOL0     H45085   7.745   7.366   7.565  3.6790  0.3094 -1.6279
  327MOL0     H45086   7.781   7.481   7.443 -0.2216  1.6878  0.1932
  327MOL0     H45087   7.618   7.416   7.447  0.9985 -2.8704  1.1560
  327MOL0     H45088   7.386   7.192   7.791  1.2467 -0.4253 -0.6748
  327MOL0     H45089   7.215   6.977   7.783 -2.1603  0.8312 -0.5517
  327MOL0     H45090   7.114   6.835   7.367  3.2894 -1.2245 -0.9123
  327MOL0     H45091   7.191   6.722   7.480 -0.8442  0.2050  0.4672
  327MOL0     H45092   7.006   6.596   7.445  3.3557  0.8605 -2.3785
  327MOL0     H45093   6.945   6.692   7.577  0.6236  0.2346  0.2737
  327MOL0     H45094   6.894   6.744   7.280  0.2438  0.3064 -0.2693
  327MOL0     H45095   6.864   6.859   7.411  0.7093  0.1541  0.8193
  327MOL0     H45096   6.759   6.580   7.400  1.1851 -0.7784  3.1603
  327MOL0     H45097   6.681   6.707   7.307  0.4829  0.8585  0.4127
  327MOL0     H45098   6.578   6.638   7.524  0.0953 -0.4272 -1.8592
  327MOL0     H45099   6.699   6.727   7.607 -1.0797 -2.8226  0.8566
  327MOL0     H45100   6.526   6.875   7.395  0.0420  2.0783  0.3967
  327MOL0     H45101   6.646   6.940   7.490 -0.4739  0.5952  0.9763
  327MOL0     H45102   6.487   6.817   7.677  2.8585  1.0493 -0.7261
  327MOL0     H45103   6.374   6.849   7.559  1.0929 -0.9058 -1.9576
  327MOL0     H45104   6.582   7.047   7.679  0.2046 -2.0944 -0.2585
  327MOL0     H45105   6.416   7.050   7.729  1.3121  1.9685  0.0537
  327MOL0     H45106   7.180   7.055   7.361  1.4742 -1.0805 -0.5416
  327MOL0     H45107   7.343   7.233   7.377  2.0560  1.2212  0.1582
  327MOL0     H45108   7.384   7.668   7.781  0.2793 -3.1299  0.5595
  327MOL0     H45109   7.519   7.862   7.786 -1.3574  0.1135 -1.9189
  327MOL0     H45110   8.305   7.610   9.220 -0.7690 -1.6163 -2.1948
  327MOL0     H45111   8.499   7.595   9.383 -3.5618  0.4784 -0.0771
  327MOL0     H45112   8.716   7.500   9.744  2.1287 -0.7549  3.2869
  327MOL0     H45113   8.902   7.505   9.886 -0.4221 -0.3465  0.6709
  327MOL0     H45114   9.277   7.493   9.964  1.5479 -2.6653 -0.4421
  327MOL0     H45115   9.104   7.537   9.974 -1.3122 -0.9312 -0.0848
  327MOL0     H45116   9.059   7.271   9.940  0.3141 -0.9819 -0.6696
  327MOL0     H45117   9.104   7.326  10.086 -1.8466 -1.5703 -0.4675
  327MOL0     H45118   9.324   7.223  10.080 -2.6329 -2.9414  2.4608
  327MOL0     H45119   9.211   7.112  10.021  0.9070  1.3597  2.2880
  327MOL0     H45120   9.393   7.285   9.850  3.8190 -3.0548  1.6833
  327MOL0     H45121   9.245   7.208   9.782  1.6168  2.4681 -2.1516
  327MOL0     H45122   9.570   6.940   9.794  0.0203  1.1572 -2.2688
  327MOL0     H45123   9.163   7.449   9.552 -0.3895  2.0895  0.8955
  327MOL0     H45124   8.955   7.361   9.313 -1.6429  0.5472  0.9279
  327MOL0     H45125   8.980   7.548   9.325  1.6081  0.8931  0.4609
  327MOL0     H45126   9.110   7.433   9.365  0.8338  1.0589  2.2742
  328MOL0     O45127   0.604   4.804   3.265  1.2705 -0.9308  0.2063
  328MOL0     C45128   0.507   4.878   3.244 -0.2330 -1.4285  0.1696
  328MOL0     O45129   0.481   4.989   3.316  0.3556  0.0478  0.0861
  328MOL0     C45130   0.555   5.016   3.435 -0.3426 -0.3318  0.4946
  328MOL0     C45131   0.692   5.032   3.436  0.2716 -0.3059  0.1030
  328MOL0     C45132   0.757   5.074   3.553  0.1220 -0.0306  0.5695
  328MOL0     C45133   0.677   5.105   3.665 -0.0791  0.0221  0.4420
  328MOL0     O45134   0.729   5.143   3.788 -0.0275  0.3288  0.2852
  328MOL0     C45135   0.871   5.163   3.800 -0.1345 -0.4570 -0.1961
  328MOL0     C45136   0.934   5.281   3.704 -0.6190  0.9576  0.0168
  328MOL0     C45137   0.943   5.421   3.760  0.0217  0.0936 -0.6113
  328MOL0     C45138   1.023   5.500   3.657  0.1549  0.2362 -0.1879
  328MOL0     C45139   1.056   5.639   3.710  0.1574 -0.3659  0.0229
  328MOL0     C45140   0.941   5.731   3.719 -0.5630  0.0757  0.4539
  328MOL0     C45141   0.894   5.774   3.576 -0.3368 -0.6869 -0.0481
  328MOL0     C45142   0.748   5.826   3.577 -0.5089 -0.0682 -0.2930
  328MOL0     N45143   0.696   5.865   3.442 -0.0375 -0.7416 -0.3884
  328MOL0     C45144   0.706   5.787   3.325 -0.3981  0.1590 -0.6270
  328MOL0     C45145   0.650   5.862   3.230  0.7822  0.1611 -0.2758
  328MOL0     C45146   0.630   5.816   3.085 -0.2339 -0.0422  0.1694
  328MOL0     C45147   0.531   5.916   3.015 -0.8433  0.4630  0.4127
  328MOL0     C45148   0.498   5.867   2.873 -0.3568  0.3006 -0.0369
  328MOL0     C45149   0.431   5.973   2.782 -0.6948 -0.0346  0.3042
  328MOL0     O45150   0.415   5.921   2.650 -0.0798  0.5321 -1.0266
  328MOL0     C45151   0.282   5.893   2.614  0.5824  0.0157 -0.5326
  328MOL0     C45152   0.186   5.984   2.649 -0.6696 -0.1885 -0.0847
  328MOL0     C45153   0.051   5.948   2.644 -0.8916 -0.4350  0.9285
  328MOL0     C45154  -0.061   6.040   2.674  0.1187  0.8923  0.2464
  328MOL0     C45155   0.016   5.822   2.593  0.0873 -0.3108  0.1739
  328MOL0     C45156  -0.122   5.786   2.577  0.0792  0.5986  0.3596
  328MOL0     O45157  -0.167   5.767   2.455  0.1547  0.1917  0.1806
  328MOL0     C45158  -0.250   5.651   2.427 -0.0602  0.0416 -0.3610
  328MOL0     C45159  -0.365   5.659   2.342 -0.1395  0.9392  0.0586
  328MOL0     C45160  -0.453   5.541   2.325  1.1216 -0.1984  0.5196
  328MOL0     C45161  -0.430   5.427   2.403  0.4984  0.2174 -0.8723
  328MOL0     O45162  -0.512   5.314   2.416 -0.6510  0.3015 -0.4821
  328MOL0     C45163  -0.599   5.291   2.307  0.3505 -1.0824 -0.1164
  328MOL0     C45164  -0.681   5.167   2.333 -0.0756 -0.0518 -0.0102
  328MOL0     C45165  -0.623   5.036   2.302 -0.3926  0.5912 -0.4686
  328MOL0     C45166  -0.572   4.970   2.429  0.0040 -0.0947 -0.5946
  328MOL0     C45167  -0.518   4.827   2.402  0.3932  0.2433 -0.6765
  328MOL0     C45168  -0.393   4.817   2.321 -0.5961  0.0758  0.1739
  328MOL0     C45169  -0.272   4.892   2.381 -0.1373 -0.2526  1.1022
  328MOL0     C45170  -0.152   4.844   2.296 -0.3608  0.8830 -0.6788
  328MOL0    Cl45171  -0.020   4.959   2.330  0.2419  0.2282 -0.1664
  328MOL0     C45172  -0.320   5.423   2.486  0.1190  0.0547 -0.7241
  328MOL0     C45173  -0.222   5.532   2.483  0.1926 -0.1060 -0.0465
  328MOL0     O45174  -0.166   5.743   2.679 -0.2146 -0.6521 -0.0883
  328MOL0     C45175   0.116   5.728   2.566  0.6757 -0.3460 -0.7227
  328MOL0     C45176   0.247   5.760   2.582 -0.9405 -0.4176 -0.2302
  328MOL0     N45177   0.618   5.989   3.285 -0.1084  0.0202 -0.9357
  328MOL0     N45178   0.646   5.991   3.415 -0.1939  0.3229  0.4574
  328MOL0     C45179   0.542   5.100   3.662 -0.1378 -0.3290 -0.1603
  328MOL0     C45180   0.481   5.053   3.548 -0.4014  0.2554 -0.7174
  328MOL0     C45181   0.427   4.884   3.114 -0.6335  0.0608 -0.5907
  328MOL0     C45182   0.291   4.895   3.123  0.1656  0.4055 -0.5375
  328MOL0     C45183   0.211   4.853   3.016  0.2699 -0.1215 -0.2036
  328MOL0     C45184   0.255   4.837   2.886 -0.4648  0.4101 -0.8007
  328MOL0     O45185   0.166   4.812   2.783  0.0713 -0.5208 -0.4489
  328MOL0     C45186   0.091   4.940   2.755  0.7930 -1.4579 -0.0962
  328MOL0     C45187  -0.041   4.986   2.831  1.8187 -0.0640  0.1896
  328MOL0     C45188  -0.147   4.870   2.795 -0.2757 -0.5518  0.8956
  328MOL0     C45189  -0.269   4.916   2.883  0.2351  0.1499  0.5166
  328MOL0     C45190  -0.394   4.835   2.867  0.8081 -0.6090 -0.0046
  328MOL0     C45191  -0.489   4.765   2.854 -0.4908  0.1021  0.4819
  328MOL0     C45192   0.393   4.844   2.874  1.1866 -0.2777 -0.4338
  328MOL0     C45193   0.481   4.863   2.979  0.4095  0.0614 -0.3360
  328MOL0     C45194   0.623   4.867   2.953 -0.1404  0.5139 -0.4552
  328MOL0     H45195   0.762   4.997   3.360  0.7171  0.8115 -0.0233
  328MOL0     H45196   0.865   5.075   3.558  0.0924  0.1637  1.3345
  328MOL0     H45197   0.917   5.067   3.774  0.6270 -1.2738  3.5704
  328MOL0     H45198   0.890   5.187   3.905 -0.9256  1.3375 -0.4368
  328MOL0     H45199   1.029   5.248   3.663 -1.3079 -0.2489 -0.6858
  328MOL0     H45200   0.880   5.283   3.609  0.2993  0.1401 -0.5405
  328MOL0     H45201   0.846   5.460   3.791  0.1673 -1.0180  1.4394
  328MOL0     H45202   1.007   5.412   3.848  2.8427 -1.7868 -2.7023
  328MOL0     H45203   1.114   5.449   3.623  0.6560  0.8837  0.1478
  328MOL0     H45204   0.960   5.504   3.568  0.6654 -0.7488 -0.6057
  328MOL0     H45205   1.125   5.684   3.638 -0.2197  1.3364  0.6563
  328MOL0     H45206   1.107   5.635   3.806  1.7713 -1.0808 -0.8317
  328MOL0     H45207   0.857   5.693   3.778 -0.9141 -1.0658 -0.7459
  328MOL0     H45208   0.986   5.819   3.766  4.9056 -1.8323 -0.4977
  328MOL0     H45209   0.895   5.696   3.499 -3.5651  0.0482 -0.9809
  328MOL0     H45210   0.957   5.858   3.545  0.2416 -0.7198  1.0158
  328MOL0     H45211   0.671   5.752   3.603 -1.6157  0.4759 -1.8599
  328MOL0     H45212   0.738   5.903   3.655 -1.9175  1.0813 -1.5335
  328MOL0     H45213   0.728   5.681   3.323  0.0208  0.1985  0.6107
  328MOL0     H45214   0.591   5.714   3.093  0.3257 -0.1222  2.7142
  328MOL0     H45215   0.726   5.812   3.034  0.1764  0.0111  0.9246
  328MOL0     H45216   0.437   5.916   3.072 -0.3788  0.7070  1.2000
  328MOL0     H45217   0.574   6.017   3.012 -1.6641  0.9289  2.4828
  328MOL0     H45218   0.594   5.850   2.824  0.0520  1.7261  0.2230
  328MOL0     H45219   0.429   5.784   2.890  0.5549 -0.3315  0.6046
  328MOL0     H45220   0.338   6.010   2.828 -2.1488  0.0707 -2.5219
  328MOL0     H45221   0.502   6.056   2.777 -0.8178  0.4537  3.7978
  328MOL0     H45222   0.210   6.089   2.655  2.8381 -0.9110  0.7894
  328MOL0     H45223  -0.119   5.998   2.757 -0.2672 -2.7686 -1.7048
  328MOL0     H45224  -0.121   6.044   2.583 -1.0619 -0.4154  0.9382
  328MOL0     H45225  -0.025   6.142   2.694 -0.5058  1.3076 -0.6827
  328MOL0     H45226  -0.397   5.756   2.305 -2.1726  0.3166  0.0639
  328MOL0     H45227  -0.535   5.542   2.254  2.2002  0.3593 -0.7589
  328MOL0     H45228  -0.661   5.381   2.293 -0.5731 -1.6991 -0.0450
  328MOL0     H45229  -0.547   5.273   2.213 -0.2689 -0.5929 -0.5648
  328MOL0     H45230  -0.730   5.170   2.431  2.2362 -2.4520  1.3564
  328MOL0     H45231  -0.760   5.169   2.257 -0.0590 -3.4724 -0.2915
  328MOL0     H45232  -0.543   5.062   2.233 -3.4408  2.7562 -3.5589
  328MOL0     H45233  -0.696   4.968   2.256  0.8441 -1.0310 -0.1222
  328MOL0     H45234  -0.662   4.969   2.491 -2.0643  2.5898 -3.2709
  328MOL0     H45235  -0.496   5.028   2.484 -1.8157  2.1537 -0.3041
  328MOL0     H45236  -0.506   4.774   2.497 -1.9496  1.6021  0.4689
  328MOL0     H45237  -0.601   4.773   2.355 -0.2645 -2.0008  2.6985
  328MOL0     H45238  -0.403   4.854   2.218  1.0280  4.1067  1.2723
  328MOL0     H45239  -0.364   4.711   2.321  1.7542  0.5549  3.5111
  328MOL0     H45240  -0.262   4.867   2.487 -0.1929  1.3354  1.5063
  328MOL0     H45241  -0.278   5.001   2.381  1.6761 -0.0760  3.2788
  328MOL0     H45242  -0.173   4.849   2.189 -0.0551  1.6006 -0.7162
  328MOL0     H45243  -0.117   4.747   2.331 -2.7427 -0.2262 -1.2051
  328MOL0     H45244  -0.306   5.335   2.548 -1.6507 -0.3342 -0.8296
  328MOL0     H45245  -0.132   5.511   2.540 -0.8851 -1.0119  1.3932
  328MOL0     H45246   0.078   5.626   2.562 -0.4129 -0.0405  0.7785
  328MOL0     H45247   0.319   5.679   2.582  1.9147  1.6413  4.3799
  328MOL0     H45248   0.476   5.128   3.744  1.2546 -0.8367  1.2009
  328MOL0     H45249   0.374   5.040   3.532 -1.1458  2.2850  1.8601
  328MOL0     H45250   0.237   4.917   3.215 -0.0659  1.0780 -0.8282
  328MOL0     H45251   0.105   4.862   3.037  0.8393  0.6699  2.8905
  328MOL0     H45252   0.158   5.027   2.754  1.4320 -1.9375  0.2240
  328MOL0     H45253   0.075   4.933   2.647  2.8342  0.1440 -0.5740
  328MOL0     H45254  -0.085   5.078   2.790 -1.5354 -1.9976 -0.8948
  328MOL0     H45255  -0.034   4.992   2.940  0.3700  0.1556  0.2879
  328MOL0     H45256  -0.190   4.869   2.694 -2.2319  2.1826  1.5841
  328MOL0     H45257  -0.112   4.768   2.812 -1.0765 -0.9285  0.3588
  328MOL0     H45258  -0.297   5.020   2.864  1.4080  0.2400 -0.8722
  328MOL0     H45259  -0.246   4.900   2.989 -2.1088  0.9763  1.2120
  328MOL0     H45260  -0.582   4.714   2.836 -0.7621  1.2774 -1.6881
  328MOL0     H45261   0.427   4.818   2.774  2.1154 -2.6590  0.4217
  328MOL0     H45262   0.669   4.785   3.008 -1.0395 -0.2979 -0.8836
  328MOL0     H45263   0.640   4.837   2.849 -2.7706  2.0919 -1.4560
  328MOL0     H45264   0.673   4.961   2.979 -0.3147  0.9296 -1.5694
  329MOL0     O45265   9.183   3.819   3.430  0.0500  0.0509  0.0225
  329MOL0     C45266   9.133   3.910   3.358  0.2150  0.1102 -0.4203
  329MOL0     O45267   9.203   3.986   3.269 -0.8282 -0.2056  1.1451
  329MOL0     C45268   9.340   3.979   3.254  0.1380  0.3980 -0.6245
  329MOL0     C45269   9.438   3.941   3.349  0.8929 -0.1897 -0.6830
  329MOL0     C45270   9.576   3.943   3.323 -0.7208 -0.3242  0.3793
  329MOL0     C45271   9.617   4.000   3.195 -0.6912 -0.8439 -1.2240
  329MOL0     O45272   9.751   4.014   3.161  0.0870  0.1368  0.1833
  329MOL0     C45273   9.842   4.008   3.266 -0.1492 -0.8058  0.5657
  329MOL0     C45274   9.981   4.010   3.184 -0.8639  0.8406 -1.0081
  329MOL0     C45275  10.086   4.010   3.295  0.8122 -0.4443  0.4920
  329MOL0     C45276  10.227   4.014   3.235 -0.1873  0.0627 -0.4641
  329MOL0     C45277  10.252   4.119   3.127  0.2740 -0.2463 -0.6276
  329MOL0     C45278  10.246   4.270   3.168  0.3769 -0.2960  0.2428
  329MOL0     C45279  10.319   4.300   3.297  1.1483  0.2326  0.0764
  329MOL0     C45280  10.471   4.324   3.287  0.1660 -0.4746  0.8322
  329MOL0     N45281  10.539   4.388   3.399 -0.3562 -1.4138 -0.6169
  329MOL0     C45282  10.516   4.370   3.529 -0.5443  0.5231 -0.2767
  329MOL0     C45283  10.605   4.442   3.599 -0.2847  0.0263 -0.2529
  329MOL0     C45284  10.616   4.441   3.750  0.8819 -0.4420  0.1577
  329MOL0     C45285  10.555   4.566   3.821  1.0216  0.1163  1.1367
  329MOL0     C45286  10.579   4.557   3.968 -0.3484  0.5582  0.5256
  329MOL0     C45287  10.546   4.690   4.038 -0.0995  0.9665 -0.6505
  329MOL0     O45288  10.419   4.745   4.020  0.9235  0.1115 -0.4964
  329MOL0     C45289  10.382   4.827   4.125 -0.2530  0.1536  0.1574
  329MOL0     C45290  10.443   4.950   4.130 -0.3268 -0.8401 -0.5151
  329MOL0     C45291  10.402   5.048   4.236 -0.0066 -0.7509  0.0643
  329MOL0     C45292  10.453   5.188   4.231 -1.0806 -0.3910 -0.4707
  329MOL0     C45293  10.326   5.001   4.345 -0.4507 -0.8881  1.2530
  329MOL0     C45294  10.309   5.076   4.457 -0.2791 -0.3542 -0.1756
  329MOL0     O45295  10.428   5.107   4.519  0.5846  0.2783  0.0059
  329MOL0     C45296  10.416   5.198   4.622  0.3847 -0.8026  0.9810
  329MOL0     C45297  10.451   5.157   4.740 -0.5031  0.0197  0.3057
  329MOL0     C45298  10.448   5.237   4.848  0.3456  0.2866  0.4936
  329MOL0     C45299  10.412   5.363   4.835  0.8338  0.6116 -0.9795
  329MOL0     O45300  10.427   5.423   4.953  0.1105 -0.1485  0.0169
  329MOL0     C45301  10.379   5.559   4.972 -0.4833 -0.6697 -0.5474
  329MOL0     C45302  10.498   5.661   4.993  0.5426  0.0394  0.4797
  329MOL0     C45303  10.587   5.624   5.106  0.8537  0.7106 -0.0548
  329MOL0     C45304  10.693   5.519   5.089  0.5142  0.6183 -0.5273
  329MOL0     C45305  10.803   5.516   5.188 -1.0445 -0.4746 -0.1402
  329MOL0     C45306  10.895   5.393   5.181 -0.1680 -0.6113 -0.6161
  329MOL0     C45307  10.949   5.368   5.323  0.0012 -0.3113  0.0422
  329MOL0     C45308  11.026   5.230   5.326 -0.2306 -0.4956  0.1208
  329MOL0    Cl45309  11.109   5.218   5.478 -0.1570 -0.1417 -0.1331
  329MOL0     C45310  10.367   5.414   4.712 -0.2945 -0.0281 -1.3208
  329MOL0     C45311  10.368   5.330   4.604 -0.2307  0.1302  0.0343
  329MOL0     O45312  10.189   5.102   4.502 -0.1758  0.7422  0.2587
  329MOL0     C45313  10.259   4.881   4.332 -1.1017  0.4765  0.3878
  329MOL0     C45314  10.278   4.796   4.223 -0.0169  0.0038  0.4360
  329MOL0     N45315  10.671   4.521   3.511  0.9319  0.4167  0.4329
  329MOL0     N45316  10.626   4.501   3.390  0.0932  0.4272 -0.2356
  329MOL0     C45317   9.522   4.046   3.107  0.2411 -0.0854  0.9252
  329MOL0     C45318   9.387   4.029   3.133  0.3781  0.5996 -0.9801
  329MOL0     C45319   8.987   3.923   3.366  0.5907 -0.2721  0.0030
  329MOL0     C45320   8.915   3.807   3.382  0.4013 -0.2430 -0.5941
  329MOL0     C45321   8.775   3.795   3.363 -0.4608  0.2982 -0.1142
  329MOL0     C45322   8.689   3.906   3.345 -0.6036 -0.0500  0.0657
  329MOL0     O45323   8.547   3.912   3.337  0.4041  0.1286 -0.2034
  329MOL0     C45324   8.476   3.789   3.298 -0.1483 -0.3598  0.1842
  329MOL0     C45325   8.454   3.691   3.417  0.5707 -0.2510  1.0098
  329MOL0     C45326   8.410   3.773   3.547  0.8686  1.6121  0.3459
  329MOL0     C45327   8.378   3.680   3.657  0.5813  0.3603 -0.9271
  329MOL0     C45328   8.281   3.571   3.626  1.0991  0.4716 -0.3799
  329MOL0     C45329   8.203   3.478   3.596  0.6811  0.9714 -0.2235
  329MOL0     C45330   8.763   4.031   3.342  0.4870  0.5660 -1.0233
  329MOL0     C45331   8.903   4.040   3.359 -0.1283 -0.3909  0.5388
  329MOL0     C45332   8.958   4.175   3.396  0.4367 -0.0853  0.1350
  329MOL0     H45333   9.409   3.883   3.436  0.5680 -1.1681 -1.4312
  329MOL0     H45334   9.642   3.907   3.401  1.6944  0.9824 -0.9272
  329MOL0     H45335   9.822   3.917   3.323 -0.8084 -0.3610  1.0595
  329MOL0     H45336   9.838   4.101   3.324 -1.6574 -1.2405  1.1974
  329MOL0     H45337   9.997   3.921   3.123  0.5659  1.2495 -1.2636
  329MOL0     H45338   9.983   4.099   3.121 -3.2199  1.0781 -0.8434
  329MOL0     H45339  10.077   4.098   3.359  2.6117 -1.0442  1.6511
  329MOL0     H45340  10.062   3.920   3.352 -0.7396 -1.2512 -1.3137
  329MOL0     H45341  10.294   4.032   3.320  0.5789  3.5297 -1.6140
  329MOL0     H45342  10.249   3.915   3.196  1.1818 -1.1409  2.9594
  329MOL0     H45343  10.191   4.109   3.037 -1.2057 -1.7430  0.4683
  329MOL0     H45344  10.357   4.106   3.097  0.0454  0.7361 -1.9070
  329MOL0     H45345  10.276   4.326   3.078 -0.5727 -0.9377 -0.4990
  329MOL0     H45346  10.137   4.286   3.168 -0.2635 -3.8526 -1.0045
  329MOL0     H45347  10.318   4.224   3.376  3.0706 -0.4591 -0.5283
  329MOL0     H45348  10.263   4.386   3.337  0.8922  0.2274 -0.2701
  329MOL0     H45349  10.529   4.238   3.255  1.1366  0.4227  0.1134
  329MOL0     H45350  10.481   4.401   3.210 -1.6271 -0.9357  0.0783
  329MOL0     H45351  10.454   4.294   3.578 -2.1947  2.7483  1.2926
  329MOL0     H45352  10.718   4.412   3.779  1.3892 -0.3092 -1.3904
  329MOL0     H45353  10.559   4.353   3.783  2.1779 -0.9026  1.2685
  329MOL0     H45354  10.610   4.649   3.777  2.0404 -0.8344  0.5592
  329MOL0     H45355  10.451   4.572   3.789  1.9123  1.9915 -1.7750
  329MOL0     H45356  10.509   4.484   4.009  0.4188 -2.0531 -2.3973
  329MOL0     H45357  10.681   4.520   3.984  0.1364  0.0008 -3.1558
  329MOL0     H45358  10.566   4.656   4.140  3.5600 -4.0023 -2.6245
  329MOL0     H45359  10.627   4.754   4.002  1.6195  0.1079  1.4204
  329MOL0     H45360  10.513   4.975   4.050  0.8400 -1.7945  0.1693
  329MOL0     H45361  10.501   5.212   4.136  1.9846  0.1153  1.1090
  329MOL0     H45362  10.528   5.196   4.309  0.1150  1.8429 -1.7322
  329MOL0     H45363  10.362   5.249   4.241  0.0228  1.0719  1.3378
  329MOL0     H45364  10.501   5.060   4.738 -1.3052 -0.3954  0.1378
  329MOL0     H45365  10.475   5.196   4.945 -1.6435  0.3451  1.1053
  329MOL0     H45366  10.309   5.599   4.898 -1.8393  0.5387  1.2934
  329MOL0     H45367  10.328   5.558   5.069  3.2427 -1.6597  1.5832
  329MOL0     H45368  10.549   5.689   4.900 -0.4000  1.4554  0.3516
  329MOL0     H45369  10.449   5.752   5.027 -1.7110 -0.5447 -0.9884
  329MOL0     H45370  10.520   5.590   5.185  0.0819 -0.1131 -1.0428
  329MOL0     H45371  10.646   5.713   5.131  2.2269  0.6256 -2.5955
  329MOL0     H45372  10.749   5.537   4.996 -0.2861  0.4899 -1.0486
  329MOL0     H45373  10.644   5.423   5.072  1.3443  0.2235 -0.7556
  329MOL0     H45374  10.856   5.608   5.163 -2.1321 -0.0541 -0.9690
  329MOL0     H45375  10.761   5.516   5.289 -2.2900  0.5654 -0.6320
  329MOL0     H45376  10.979   5.412   5.112 -0.6676 -1.4084 -1.4789
  329MOL0     H45377  10.831   5.312   5.144 -4.5070  2.3811 -0.3211
  329MOL0     H45378  10.865   5.355   5.391 -0.9754 -1.9003 -1.3648
  329MOL0     H45379  11.020   5.449   5.343 -0.2072 -0.0280 -0.3424
  329MOL0     H45380  11.097   5.230   5.242 -1.1836 -1.9216 -0.7360
  329MOL0     H45381  10.956   5.146   5.315  0.3286 -0.7442 -2.1235
  329MOL0     H45382  10.346   5.520   4.714  0.5089  0.1943 -3.1545
  329MOL0     H45383  10.334   5.362   4.505 -1.4427 -3.3856 -0.8318
  329MOL0     H45384  10.216   4.847   4.426 -1.6845 -3.3494 -1.0572
  329MOL0     H45385  10.232   4.697   4.231 -2.5375  1.0370 -0.2592
  329MOL0     H45386   9.555   4.089   3.013 -4.7812  2.9947  0.1953
  329MOL0     H45387   9.310   4.048   3.059 -2.4275  1.3255  1.8676
  329MOL0     H45388   8.966   3.712   3.394  0.6113 -0.0441  0.1167
  329MOL0     H45389   8.739   3.693   3.359  0.2078  0.0812 -2.1543
  329MOL0     H45390   8.384   3.833   3.257  0.8377 -1.5024 -3.6772
  329MOL0     H45391   8.529   3.749   3.211  0.9465  0.0098  0.6632
  329MOL0     H45392   8.554   3.651   3.435  0.5378 -1.5272 -1.1938
  329MOL0     H45393   8.380   3.615   3.388 -0.0574  0.4874  0.6497
  329MOL0     H45394   8.486   3.849   3.570  1.1962  1.6650 -0.8503
  329MOL0     H45395   8.319   3.828   3.523 -1.0210  0.7763  4.6719
  329MOL0     H45396   8.330   3.731   3.741  1.5112 -0.9992  0.4850
  329MOL0     H45397   8.466   3.630   3.698 -0.2042  0.3536  0.8409
  329MOL0     H45398   8.124   3.407   3.580 -0.5418  1.7115  2.0521
  329MOL0     H45399   8.708   4.125   3.344 -2.1321 -0.6675 -4.3935
  329MOL0     H45400   8.980   4.165   3.502 -0.7669 -2.2114  0.2346
  329MOL0     H45401   9.048   4.205   3.342  0.1141 -0.1390 -0.4403
  329MOL0     H45402   8.881   4.252   3.386  0.2807 -0.2569  0.0012
  330MOL0     O45403  10.263   6.664   3.718 -0.1675 -0.5279 -0.0927
  330MOL0     C45404  10.344   6.570   3.728  0.1458  0.3568 -0.0333
  330MOL0     O45405  10.380   6.491   3.629  0.0657 -0.4035  0.4699
  330MOL0     C45406  10.315   6.510   3.512  0.6884 -0.1286 -0.3207
  330MOL0     C45407  10.204   6.435   3.490 -0.1966 -0.3930  1.0707
  330MOL0     C45408  10.137   6.439   3.364 -0.2937  0.7581 -0.0980
  330MOL0     C45409  10.178   6.525   3.264  0.5049  0.0591 -0.1800
  330MOL0     O45410  10.104   6.525   3.148  0.0084  0.0361 -0.1641
  330MOL0     C45411  10.106   6.642   3.065  0.5443  0.8375  0.1915
  330MOL0     C45412  10.017   6.613   2.948 -0.0681  0.8125  1.0759
  330MOL0     C45413   9.998   6.736   2.856 -0.7227  0.3535  1.1478
  330MOL0     C45414   9.863   6.765   2.789  0.5568 -0.3396 -1.2642
  330MOL0     C45415   9.797   6.641   2.728 -0.3157  0.2380 -0.4203
  330MOL0     C45416   9.656   6.672   2.651 -0.9894  0.8407  0.5525
  330MOL0     C45417   9.603   6.542   2.599 -0.3515 -0.3965  0.2372
  330MOL0     C45418   9.488   6.578   2.499 -0.9510  0.0526 -0.3985
  330MOL0     N45419   9.467   6.461   2.414  0.3075 -0.3651  1.0211
  330MOL0     C45420   9.374   6.459   2.319  0.5834 -0.6154 -1.5178
  330MOL0     C45421   9.330   6.331   2.322  0.0415 -0.2515 -0.0010
  330MOL0     C45422   9.198   6.286   2.264 -0.3286 -0.1843 -0.5187
  330MOL0     C45423   9.098   6.247   2.377  0.5029 -0.1659 -0.4822
  330MOL0     C45424   9.073   6.346   2.489  0.2786  0.3262 -0.8720
  330MOL0     C45425   8.977   6.303   2.595  0.2684 -1.1200  0.6062
  330MOL0     O45426   8.840   6.312   2.541 -0.1836  0.0176  0.4056
  330MOL0     C45427   8.750   6.405   2.591  0.4359  0.6493 -1.1130
  330MOL0     C45428   8.656   6.450   2.500  0.4472  0.0478  0.5650
  330MOL0     C45429   8.557   6.541   2.542 -0.0633 -0.3890  0.6224
  330MOL0     C45430   8.485   6.615   2.424 -0.0688  0.3098  0.8146
  330MOL0     C45431   8.548   6.589   2.678 -0.9717  0.5523  0.6724
  330MOL0     C45432   8.449   6.681   2.745  0.1075  0.9953 -0.2046
  330MOL0     O45433   8.427   6.662   2.878 -0.4200  0.9042 -0.0904
  330MOL0     C45434   8.314   6.730   2.916 -0.7073 -0.0871  0.4709
  330MOL0     C45435   8.191   6.747   2.843 -0.9133  0.0500  1.1443
  330MOL0     C45436   8.083   6.807   2.897  0.5077 -0.3150  0.4255
  330MOL0     C45437   8.084   6.851   3.030 -1.2145 -0.1468  0.6818
  330MOL0     O45438   7.987   6.911   3.099 -0.2152  0.3498 -0.8234
  330MOL0     C45439   7.889   6.973   3.022 -0.1209 -0.4872  0.5931
  330MOL0     C45440   7.796   7.046   3.118  0.8258  0.6722 -1.6428
  330MOL0     C45441   7.674   6.966   3.162  0.2968  0.6267 -0.2284
  330MOL0     C45442   7.550   7.059   3.200  0.0066  0.5859  0.5394
  330MOL0     C45443   7.451   7.084   3.087 -1.0153 -0.1992  0.4718
  330MOL0     C45444   7.316   7.120   3.155 -0.3442 -0.0121  0.5407
  330MOL0     C45445   7.199   7.138   3.054  0.0200 -0.5588 -0.8742
  330MOL0     C45446   7.063   7.172   3.114  0.8362 -0.3948  1.1841
  330MOL0    Cl45447   6.951   7.132   2.973 -0.1015 -0.2249  0.4411
  330MOL0     C45448   8.199   6.829   3.112  0.9963  0.4406  0.6035
  330MOL0     C45449   8.313   6.766   3.058  0.6507  0.2912  0.5058
  330MOL0     O45450   8.402   6.772   2.668 -0.5456  0.7675 -0.6208
  330MOL0     C45451   8.652   6.545   2.765  0.0231 -0.7082 -0.0392
  330MOL0     C45452   8.750   6.465   2.721  0.1502  0.3766 -0.5561
  330MOL0     N45453   9.411   6.253   2.395 -0.0192  0.6237  0.0213
  330MOL0     N45454   9.491   6.336   2.461  0.2192  0.0780 -1.2925
  330MOL0     C45455  10.299   6.600   3.286  0.2996 -0.2252 -0.4418
  330MOL0     C45456  10.361   6.583   3.411 -0.4929 -0.6779 -0.2627
  330MOL0     C45457  10.424   6.566   3.856  0.1371  0.0155 -0.1839
  330MOL0     C45458  10.552   6.496   3.844 -0.7027 -0.0799  0.7174
  330MOL0     C45459  10.633   6.509   3.956 -1.0612 -0.5157 -0.5493
  330MOL0     C45460  10.586   6.569   4.080  0.1529  0.2201  0.7172
  330MOL0     O45461  10.659   6.544   4.196 -0.5478  0.0428  0.2413
  330MOL0     C45462  10.651   6.645   4.304 -0.0985  0.5142 -0.8317
  330MOL0     C45463  10.724   6.599   4.433  1.1806 -0.4074  0.0268
  330MOL0     C45464  10.733   6.712   4.536  0.7259  1.3090  0.2707
  330MOL0     C45465  10.779   6.648   4.669  0.1019  0.3932 -0.6603
  330MOL0     C45466  10.927   6.641   4.665  0.1952 -1.1129 -0.1525
  330MOL0     C45467  11.041   6.622   4.650 -0.1105  0.0162 -0.0348
  330MOL0     C45468  10.467   6.636   4.081  0.5005 -0.3552 -0.3256
  330MOL0     C45469  10.383   6.626   3.974 -1.5032 -0.8341 -0.5299
  330MOL0     C45470  10.241   6.678   3.991  0.2041  0.2890  0.6600
  330MOL0     H45471  10.165   6.390   3.580 -3.6994 -1.3444 -0.7569
  330MOL0     H45472  10.052   6.373   3.344  0.2117  0.7433 -2.4059
  330MOL0     H45473  10.205   6.665   3.024  2.6735 -2.7963  2.7771
  330MOL0     H45474  10.061   6.718   3.129  0.4380  0.1977  0.8832
  330MOL0     H45475  10.055   6.530   2.888  0.0704  1.3848  0.3616
  330MOL0     H45476   9.923   6.589   2.999  0.2949  0.8754  1.7849
  330MOL0     H45477  10.029   6.827   2.909  0.6053 -1.5969  4.0089
  330MOL0     H45478  10.065   6.715   2.772 -1.2374 -1.1875  1.0821
  330MOL0     H45479   9.801   6.801   2.872  2.8245 -0.5751  0.6639
  330MOL0     H45480   9.864   6.853   2.724 -0.3358 -1.0494 -2.2572
  330MOL0     H45481   9.777   6.573   2.811  1.7395  1.4547  1.1720
  330MOL0     H45482   9.869   6.596   2.660 -1.1212 -0.2865 -0.9402
  330MOL0     H45483   9.587   6.717   2.722 -0.3334 -1.6147  2.9467
  330MOL0     H45484   9.666   6.732   2.560 -1.6752 -0.8329 -0.6854
  330MOL0     H45485   9.571   6.480   2.683 -0.7940 -0.1471  0.2527
  330MOL0     H45486   9.680   6.488   2.543 -0.1409  0.1892 -0.0513
  330MOL0     H45487   9.402   6.610   2.560 -0.3888  0.7218  0.0663
  330MOL0     H45488   9.511   6.670   2.444  1.5356  0.5875  1.3569
  330MOL0     H45489   9.332   6.552   2.280 -2.2121 -1.2529 -0.3108
  330MOL0     H45490   9.222   6.193   2.211  0.9135 -0.2584  0.1354
  330MOL0     H45491   9.159   6.363   2.196  0.7485  0.0569 -0.8857
  330MOL0     H45492   9.002   6.234   2.327  1.6590  1.6354 -3.4150
  330MOL0     H45493   9.116   6.143   2.408 -0.0794 -1.3236 -3.6444
  330MOL0     H45494   9.168   6.376   2.533 -1.3711  0.4659  2.9612
  330MOL0     H45495   9.054   6.446   2.447  2.9799  1.7318  0.9834
  330MOL0     H45496   9.005   6.199   2.613  1.4925 -1.7489 -3.7071
  330MOL0     H45497   8.994   6.361   2.686  1.8324  0.2740 -0.5099
  330MOL0     H45498   8.662   6.417   2.397 -1.8251  1.3125 -0.0576
  330MOL0     H45499   8.386   6.567   2.419 -0.1229  0.5847 -1.3782
  330MOL0     H45500   8.534   6.605   2.327 -0.6237  1.5134  0.3998
  330MOL0     H45501   8.481   6.722   2.446 -1.0169  0.0096  2.2725
  330MOL0     H45502   8.160   6.712   2.745 -0.7799  1.7212  0.4772
  330MOL0     H45503   7.995   6.805   2.834  0.0875 -1.2953  1.0199
  330MOL0     H45504   7.938   7.036   2.947 -0.3456  0.1297  0.9543
  330MOL0     H45505   7.831   6.904   2.959  1.9051 -0.0261 -1.9385
  330MOL0     H45506   7.842   7.071   3.214  0.0114 -0.9621 -0.7624
  330MOL0     H45507   7.762   7.139   3.072 -1.6627  0.7441  0.1429
  330MOL0     H45508   7.687   6.904   3.251 -0.1426 -0.0516 -0.6283
  330MOL0     H45509   7.660   6.897   3.078  0.1668 -0.3285  0.5687
  330MOL0     H45510   7.594   7.153   3.236  0.1526  0.5590  0.4287
  330MOL0     H45511   7.492   7.010   3.279 -3.7272  1.1663 -1.5668
  330MOL0     H45512   7.481   7.167   3.023  0.8759 -1.3372 -0.2006
  330MOL0     H45513   7.443   6.995   3.024  3.4894 -2.4895  2.6643
  330MOL0     H45514   7.322   7.210   3.216  0.9821  0.5241 -0.3376
  330MOL0     H45515   7.292   7.040   3.226  1.0167  0.0613  1.1054
  330MOL0     H45516   7.193   7.041   3.003  1.5183 -1.1014 -0.0997
  330MOL0     H45517   7.220   7.200   2.967 -1.6186  0.7198 -0.3971
  330MOL0     H45518   7.050   7.277   3.138  0.2266 -1.0205  3.9527
  330MOL0     H45519   7.051   7.118   3.208  0.2248 -1.4112  0.5481
  330MOL0     H45520   8.182   6.876   3.209 -1.1023 -3.0564  2.1221
  330MOL0     H45521   8.401   6.740   3.116 -0.7814 -3.9864  1.0876
  330MOL0     H45522   8.655   6.607   2.855  2.4100  0.9016 -1.1467
  330MOL0     H45523   8.832   6.450   2.791  0.0317 -1.6459 -0.8032
  330MOL0     H45524  10.348   6.657   3.208  3.0551  2.0107  2.6482
  330MOL0     H45525  10.450   6.645   3.412 -1.3365  0.6030 -1.0406
  330MOL0     H45526  10.568   6.456   3.745 -1.8673 -0.3986  0.6391
  330MOL0     H45527  10.735   6.470   3.954 -1.7558 -2.6255  1.1259
  330MOL0     H45528  10.706   6.731   4.266  0.4407  0.1769 -0.8317
  330MOL0     H45529  10.554   6.687   4.328 -0.0729  0.1905 -0.1485
  330MOL0     H45530  10.827   6.573   4.409  1.2057  0.3260 -0.7212
  330MOL0     H45531  10.664   6.518   4.475 -1.8685  2.0511  0.8321
  330MOL0     H45532  10.797   6.795   4.502  1.7386  0.4835  0.0933
  330MOL0     H45533  10.635   6.759   4.543  0.2259 -0.0053  2.9606
  330MOL0     H45534  10.734   6.549   4.684  1.6177 -0.1904  0.2872
  330MOL0     H45535  10.746   6.708   4.754 -0.9713  1.9526 -2.1242
  330MOL0     H45536  11.145   6.611   4.625 -0.7002 -4.4377 -1.4651
  330MOL0     H45537  10.436   6.690   4.169  1.8641 -0.4627  0.2437
  330MOL0     H45538  10.203   6.688   4.093 -3.3615 -2.4854 -0.1803
  330MOL0     H45539  10.224   6.773   3.941  2.1508  0.4221  0.1581
  330MOL0     H45540  10.170   6.609   3.945  0.2649 -0.0138  1.0156
  331MOL0     O45541   9.154   3.799   8.433  1.1933  0.2077 -0.0966
  331MOL0     C45542   9.184   3.691   8.481 -0.4669  0.0962 -0.0275
  331MOL0     O45543   9.262   3.676   8.595  0.1803 -0.0572 -0.1939
  331MOL0     C45544   9.312   3.790   8.647  0.7049 -1.0428  0.4159
  331MOL0     C45545   9.252   3.837   8.773 -0.1400 -0.1429  0.4978
  331MOL0     C45546   9.295   3.958   8.828  0.0750 -0.8728 -0.1975
  331MOL0     C45547   9.392   4.034   8.764  0.1072  0.5270  0.0729
  331MOL0     O45548   9.436   4.156   8.831  0.1821  0.0402  0.4279
  331MOL0     C45549   9.535   4.235   8.765  1.2524 -0.1856  0.2246
  331MOL0     C45550   9.575   4.360   8.857 -0.0982  0.1375 -0.8500
  331MOL0     C45551   9.464   4.454   8.863 -0.1253 -0.4846 -0.0507
  331MOL0     C45552   9.503   4.591   8.924 -1.1817  0.1270 -0.3045
  331MOL0     C45553   9.377   4.670   8.974  1.2396  0.1132  0.3500
  331MOL0     C45554   9.397   4.819   9.004  0.1233  0.2916  0.1955
  331MOL0     C45555   9.505   4.813   9.123  0.5853  0.1138  0.2953
  331MOL0     C45556   9.530   4.949   9.200  0.4430  0.2380  0.3585
  331MOL0     N45557   9.435   4.961   9.311 -0.5543 -0.1996 -0.7696
  331MOL0     C45558   9.326   5.040   9.303  0.1153 -0.5018 -0.0324
  331MOL0     C45559   9.269   5.034   9.424 -0.4573 -0.0749  0.1330
  331MOL0     C45560   9.144   5.103   9.462 -0.5272  0.6368 -0.1591
  331MOL0     C45561   9.189   5.235   9.518  0.2646 -0.6520 -0.2319
  331MOL0     C45562   9.086   5.334   9.561 -0.2164  0.8825  0.1511
  331MOL0     C45563   9.145   5.475   9.587  0.0202 -0.8518 -0.4842
  331MOL0     O45564   9.233   5.461   9.701  0.5121  0.0066  0.2579
  331MOL0     C45565   9.212   5.555   9.795  0.8288  0.8085 -0.5901
  331MOL0     C45566   9.270   5.681   9.782 -0.3799 -0.6384  0.3859
  331MOL0     C45567   9.236   5.768   9.886  0.6072  0.6471  0.0020
  331MOL0     C45568   9.274   5.912   9.873 -0.8055  0.9297  1.1582
  331MOL0     C45569   9.174   5.733  10.009 -0.1330  0.7162  0.6226
  331MOL0     C45570   9.142   5.824  10.127 -0.2560 -0.0057 -0.5399
  331MOL0     O45571   9.205   5.943  10.145  0.3275 -0.1856  2.0369
  331MOL0     C45572   9.184   6.007  10.261  0.1453  0.9362  0.4682
  331MOL0     C45573   9.216   5.940  10.380 -0.3986 -0.4456  0.1704
  331MOL0     C45574   9.189   6.000  10.507  0.3199  0.4589  0.4467
  331MOL0     C45575   9.144   6.130  10.521  0.3105  0.0280  0.3119
  331MOL0     O45576   9.129   6.191  10.642  0.0773 -0.6616 -0.0372
  331MOL0     C45577   9.206   6.144  10.753  0.3553  0.3358  0.2067
  331MOL0     C45578   9.224   6.252  10.870 -0.0104 -1.0874 -0.6988
  331MOL0     C45579   9.322   6.194  10.977 -0.2510 -0.0924  0.4956
  331MOL0     C45580   9.371   6.308  11.080 -0.1242  0.8483 -0.2377
  331MOL0     C45581   9.470   6.276  11.194  0.5893  0.0312  0.6058
  331MOL0     C45582   9.606   6.229  11.153  1.3166 -0.6371  0.4128
  331MOL0     C45583   9.693   6.241  11.272 -0.2117  0.3527  0.0227
  331MOL0     C45584   9.666   6.161  11.398  0.5900  0.2034 -0.5270
  331MOL0    Cl45585   9.693   5.979  11.377 -0.2039  0.4109 -0.2598
  331MOL0     C45586   9.110   6.204  10.401 -1.0166  0.4625 -0.7041
  331MOL0     C45587   9.130   6.140  10.272 -0.8370 -0.5525 -0.5799
  331MOL0     O45588   9.059   5.783  10.211  0.1019  0.3614 -0.4787
  331MOL0     C45589   9.137   5.596  10.020  0.3971 -0.4179 -0.4376
  331MOL0     C45590   9.139   5.518   9.909 -0.7277  0.2845  0.0548
  331MOL0     N45591   9.353   4.952   9.507  0.3094  0.3150 -0.0853
  331MOL0     N45592   9.454   4.918   9.445  0.2419 -0.9183 -0.1614
  331MOL0     C45593   9.439   3.992   8.643 -0.5935 -0.6338  0.0268
  331MOL0     C45594   9.401   3.871   8.575  0.1078  0.9038  0.2663
  331MOL0     C45595   9.127   3.570   8.414 -0.1453 -0.0852  1.1192
  331MOL0     C45596   9.003   3.590   8.354 -0.8535  0.4377  0.2200
  331MOL0     C45597   8.922   3.483   8.316  0.0976  0.3655  0.5247
  331MOL0     C45598   8.977   3.357   8.312 -0.3421 -0.5873  0.3820
  331MOL0     O45599   8.894   3.253   8.270  0.3577 -0.2981  0.6430
  331MOL0     C45600   8.948   3.126   8.230  0.3536 -0.4987 -0.4901
  331MOL0     C45601   9.055   3.132   8.125  0.0234  0.9357  0.4680
  331MOL0     C45602   9.145   3.001   8.108 -0.3143  0.1201  0.0790
  331MOL0     C45603   9.291   3.017   8.154 -0.4733  0.0556  0.4822
  331MOL0     C45604   9.300   3.006   8.308 -0.3597  0.1167 -0.0841
  331MOL0     C45605   9.329   2.987   8.422  0.0947 -0.0575 -0.4772
  331MOL0     C45606   9.101   3.341   8.366 -0.1467  0.3487  0.5146
  331MOL0     C45607   9.171   3.440   8.436 -0.2935 -1.0932  0.6247
  331MOL0     C45608   9.309   3.423   8.496  0.4235  0.4210 -0.2949
  331MOL0     H45609   9.174   3.778   8.820 -1.5790 -0.5523 -2.2084
  331MOL0     H45610   9.251   3.992   8.921 -0.4833  0.5875 -0.9620
  331MOL0     H45611   9.491   4.270   8.671  0.1659 -2.7038 -0.2783
  331MOL0     H45612   9.627   4.177   8.754  2.1378  1.5107 -2.3711
  331MOL0     H45613   9.613   4.316   8.949 -1.8263  0.5691  0.1199
  331MOL0     H45614   9.664   4.405   8.813  1.4474 -1.6676  0.2700
  331MOL0     H45615   9.421   4.467   8.763 -1.9515  0.5158  0.8009
  331MOL0     H45616   9.384   4.403   8.917 -2.5277  1.3339 -1.6357
  331MOL0     H45617   9.571   4.575   9.008  0.2430 -2.9456 -1.8695
  331MOL0     H45618   9.552   4.646   8.843  1.8630 -1.4308  0.3588
  331MOL0     H45619   9.319   4.631   9.057  1.0078  0.5720  0.4060
  331MOL0     H45620   9.314   4.644   8.889  2.1524 -3.9700  0.6987
  331MOL0     H45621   9.440   4.870   8.917 -2.3007 -0.2792 -1.4412
  331MOL0     H45622   9.308   4.874   9.036  1.6772  3.2470 -0.1102
  331MOL0     H45623   9.603   4.769   9.101 -0.1783 -2.2756  1.3198
  331MOL0     H45624   9.467   4.745   9.200  0.6217  1.1500  1.2364
  331MOL0     H45625   9.631   4.944   9.242 -0.5222 -2.7059  2.7394
  331MOL0     H45626   9.527   5.031   9.128 -0.1894  0.4809  0.6578
  331MOL0     H45627   9.309   5.096   9.212  4.7793 -1.9741 -2.0958
  331MOL0     H45628   9.080   5.035   9.518 -0.1493 -0.1283 -0.6371
  331MOL0     H45629   9.080   5.126   9.376 -1.1562  0.4961  0.2637
  331MOL0     H45630   9.247   5.207   9.606  1.3406 -0.7641 -0.9549
  331MOL0     H45631   9.261   5.283   9.451  0.8067  0.2247  0.9491
  331MOL0     H45632   9.001   5.331   9.492  0.7779 -2.2455 -1.1168
  331MOL0     H45633   9.044   5.297   9.655 -2.5215 -0.1614 -1.2086
  331MOL0     H45634   9.200   5.512   9.501  0.0321  1.1755  0.3410
  331MOL0     H45635   9.059   5.543   9.598 -0.3409 -1.6028  2.2215
  331MOL0     H45636   9.344   5.695   9.704 -1.2864 -1.3395 -0.6203
  331MOL0     H45637   9.180   5.969   9.868 -0.6348  1.1281 -0.2888
  331MOL0     H45638   9.331   5.928   9.781 -0.7296 -2.2663  0.5384
  331MOL0     H45639   9.341   5.943   9.953  0.1656 -0.1893  0.7965
  331MOL0     H45640   9.266   5.844  10.389  2.1935  0.8197  0.0178
  331MOL0     H45641   9.208   5.940  10.595  0.5556 -1.0805 -0.6211
  331MOL0     H45642   9.153   6.060  10.799 -0.0780  0.7849  0.5316
  331MOL0     H45643   9.308   6.112  10.727  1.0911 -1.6767  4.6869
  331MOL0     H45644   9.254   6.353  10.840  0.1612 -0.9360 -0.0471
  331MOL0     H45645   9.132   6.272  10.926 -0.7318 -3.8203 -0.8021
  331MOL0     H45646   9.414   6.152  10.934 -1.3927 -1.8064 -0.3671
  331MOL0     H45647   9.279   6.109  11.030 -1.1244 -1.7007 -2.5197
  331MOL0     H45648   9.272   6.329  11.121 -1.2847  0.5613 -2.6873
  331MOL0     H45649   9.405   6.390  11.016  1.8989 -1.8912 -2.9236
  331MOL0     H45650   9.465   6.373  11.244 -1.0014  1.9228 -2.8094
  331MOL0     H45651   9.422   6.203  11.258 -0.3351 -0.1585 -0.2780
  331MOL0     H45652   9.654   6.292  11.077  0.0175  1.2053  1.0573
  331MOL0     H45653   9.595   6.131  11.106 -2.0488  1.5645 -4.1177
  331MOL0     H45654   9.717   6.347  11.283 -1.4084  1.4421 -5.2039
  331MOL0     H45655   9.791   6.210  11.235 -0.6057 -0.8288 -0.0868
  331MOL0     H45656   9.565   6.181  11.435 -0.7429 -1.9955 -2.6802
  331MOL0     H45657   9.733   6.187  11.481 -0.4001  2.5050 -0.3636
  331MOL0     H45658   9.084   6.309  10.410 -0.7010  0.3515  3.1261
  331MOL0     H45659   9.085   6.186  10.184 -1.6591 -0.0938  0.0739
  331MOL0     H45660   9.090   5.547  10.105  1.6250  0.8825  1.0488
  331MOL0     H45661   9.094   5.420   9.919  0.4769 -0.2479  0.3317
  331MOL0     H45662   9.507   4.063   8.596 -1.7681  1.3416  1.1693
  331MOL0     H45663   9.436   3.833   8.479 -2.4178 -0.5718 -0.1691
  331MOL0     H45664   8.948   3.682   8.334  0.0404  0.8300 -0.5001
  331MOL0     H45665   8.824   3.508   8.276  0.0451 -0.1206  0.3281
  331MOL0     H45666   8.968   3.068   8.320 -3.3700  1.0715  1.5814
  331MOL0     H45667   8.869   3.073   8.176 -1.4057 -0.6423  2.0574
  331MOL0     H45668   9.119   3.219   8.139 -1.0875  2.0654 -1.1231
  331MOL0     H45669   9.014   3.157   8.027  0.1937 -1.1257 -0.1826
  331MOL0     H45670   9.096   2.912   8.149 -0.2267 -0.5569 -1.2345
  331MOL0     H45671   9.158   2.984   8.001  1.0778 -1.4187  0.4448
  331MOL0     H45672   9.338   3.104   8.108 -0.0496 -1.5000 -2.2407
  331MOL0     H45673   9.345   2.927   8.125 -1.5321 -0.8306  1.1559
  331MOL0     H45674   9.358   2.971   8.523  0.4188 -0.5916 -0.6500
  331MOL0     H45675   9.142   3.241   8.350 -0.2412 -0.2458  3.3390
  331MOL0     H45676   9.384   3.491   8.454 -0.0892  0.2137 -1.5949
  331MOL0     H45677   9.314   3.438   8.604  3.4820  2.5728 -0.6120
  331MOL0     H45678   9.343   3.322   8.472 -1.9793 -0.6230  0.3606
  332MOL0     O45679   1.402   8.366   7.634  0.4259  0.4723  0.1317
  332MOL0     C45680   1.417   8.254   7.588 -0.3813  1.2229  0.0825
  332MOL0     O45681   1.318   8.180   7.526  0.3580 -0.0993 -0.1114
  332MOL0     C45682   1.188   8.218   7.554 -0.5566  0.1844  0.7356
  332MOL0     C45683   1.138   8.317   7.480  0.7034  0.0856  1.0973
  332MOL0     C45684   0.994   8.347   7.497 -0.0175 -0.0434  0.3569
  332MOL0     C45685   0.903   8.280   7.582 -0.9653 -0.3235  0.5639
  332MOL0     O45686   0.780   8.319   7.576 -0.3796 -0.4147  0.2024
  332MOL0     C45687   0.669   8.256   7.646  0.0580  0.2224  0.1947
  332MOL0     C45688   0.542   8.346   7.610  0.9069  0.0825 -1.5183
  332MOL0     C45689   0.517   8.350   7.460 -0.6174  0.9112  0.2144
  332MOL0     C45690   0.385   8.426   7.431 -1.0995  1.3383  0.1470
  332MOL0     C45691   0.368   8.465   7.283  0.2267  0.3295  0.0460
  332MOL0     C45692   0.221   8.500   7.252  0.4450  0.2000  0.3581
  332MOL0     C45693   0.199   8.543   7.112  0.1840 -0.8976 -0.3033
  332MOL0     C45694   0.218   8.701   7.108 -0.5901 -0.4978 -0.5641
  332MOL0     N45695   0.114   8.783   7.181 -0.2598 -0.1364 -0.1583
  332MOL0     C45696   0.079   8.909   7.143  0.7338 -1.1660  0.1595
  332MOL0     C45697  -0.007   8.950   7.237  0.2836 -0.2412 -0.2279
  332MOL0     C45698  -0.076   9.085   7.238  0.4274  0.1366 -0.3844
  332MOL0     C45699  -0.198   9.086   7.321  0.3396  0.0870  0.4274
  332MOL0     C45700  -0.311   9.016   7.260  1.2176 -0.6786  1.0231
  332MOL0     C45701  -0.450   9.054   7.315  0.3956  1.1709 -0.5521
  332MOL0     O45702  -0.475   9.195   7.294 -0.4002 -0.9355 -0.1789
  332MOL0     C45703  -0.601   9.240   7.338 -1.0205 -0.1769 -0.3932
  332MOL0     C45704  -0.662   9.339   7.266  0.0108 -0.9289 -1.0522
  332MOL0     C45705  -0.796   9.373   7.280  0.0865 -0.5458 -0.7297
  332MOL0     C45706  -0.860   9.460   7.179  0.4397 -0.5245  0.6785
  332MOL0     C45707  -0.872   9.319   7.393 -0.8835 -0.4302 -0.2552
  332MOL0     C45708  -1.006   9.364   7.442  0.0068 -0.9691  0.8738
  332MOL0     O45709  -1.048   9.487   7.391  0.3292 -0.0787 -0.7588
  332MOL0     C45710  -1.181   9.528   7.410  0.0058  1.0334  0.0314
  332MOL0     C45711  -1.256   9.531   7.536 -0.0895  0.7252  1.1620
  332MOL0     C45712  -1.391   9.560   7.532 -0.7561 -0.3727  0.2731
  332MOL0     C45713  -1.455   9.593   7.416  0.0591 -0.3095 -0.0551
  332MOL0     O45714  -1.580   9.635   7.419 -0.0742 -0.9734 -0.6716
  332MOL0     C45715  -1.664   9.588   7.529 -1.1975 -0.3410 -0.5315
  332MOL0     C45716  -1.801   9.586   7.481 -0.5741 -0.0997 -0.9191
  332MOL0     C45717  -1.820   9.476   7.371 -0.2947 -1.5466 -0.4575
  332MOL0     C45718  -1.762   9.504   7.232  0.3498 -0.0909  0.2677
  332MOL0     C45719  -1.797   9.398   7.123 -0.0198  0.0819  0.3312
  332MOL0     C45720  -1.695   9.415   7.004  0.1509 -0.1177 -0.1168
  332MOL0     C45721  -1.719   9.316   6.894  0.2760  0.1355 -0.1647
  332MOL0     C45722  -1.743   9.169   6.936 -0.0171 -0.2806  1.0201
  332MOL0    Cl45723  -1.620   9.106   7.043 -0.3331  0.5636 -0.1285
  332MOL0     C45724  -1.386   9.583   7.292  0.4916  0.0452  0.4328
  332MOL0     C45725  -1.254   9.560   7.294 -0.7642  0.0960 -0.4986
  332MOL0     O45726  -1.062   9.300   7.531 -0.4017 -0.1472  0.2438
  332MOL0     C45727  -0.804   9.221   7.471  0.3966  0.3720 -0.2746
  332MOL0     C45728  -0.669   9.181   7.446  0.0025 -0.1868  0.7528
  332MOL0     N45729  -0.027   8.844   7.329  0.2900  0.3588  0.2065
  332MOL0     N45730   0.040   8.743   7.290  0.4673 -0.0772 -0.1581
  332MOL0     C45731   0.965   8.173   7.660 -0.0299 -0.9993  0.2849
  332MOL0     C45732   1.106   8.134   7.637  0.2445 -0.6556 -0.7927
  332MOL0     C45733   1.557   8.201   7.589 -0.1978 -0.8370  0.0915
  332MOL0     C45734   1.663   8.264   7.656 -0.0283  0.9606 -0.1597
  332MOL0     C45735   1.794   8.207   7.676 -0.5788  0.4370 -0.0485
  332MOL0     C45736   1.815   8.079   7.633 -0.1576  0.5948  1.0867
  332MOL0     O45737   1.936   8.014   7.638  0.1481 -0.8550  0.0179
  332MOL0     C45738   2.051   8.096   7.623  0.4291 -0.7060  0.3726
  332MOL0     C45739   2.130   8.027   7.517 -0.7402  0.9588 -1.2263
  332MOL0     C45740   2.049   7.989   7.389 -0.8722 -0.5492 -0.0375
  332MOL0     C45741   2.029   7.838   7.379 -0.0578  1.1780 -0.5617
  332MOL0     C45742   1.950   7.805   7.257  0.2933  0.0611 -0.2885
  332MOL0     C45743   1.889   7.779   7.157 -0.1225 -0.8219  0.2833
  332MOL0     C45744   1.712   8.008   7.564 -0.5153  0.3046 -0.1243
  332MOL0     C45745   1.586   8.069   7.550  0.3548  0.0369 -0.1226
  332MOL0     C45746   1.488   7.978   7.478 -0.1289  0.0612  0.4249
  332MOL0     H45747   1.194   8.375   7.407  0.5223  1.0326  1.6832
  332MOL0     H45748   0.943   8.422   7.437  0.9920  0.0662 -0.3780
  332MOL0     H45749   0.673   8.257   7.755  1.1421  2.5759  0.1848
  332MOL0     H45750   0.637   8.158   7.609 -0.5535  0.8979 -1.1363
  332MOL0     H45751   0.446   8.312   7.649 -1.7379  1.8888 -5.6771
  332MOL0     H45752   0.560   8.449   7.642 -2.6851 -0.2718  2.4547
  332MOL0     H45753   0.595   8.406   7.409  2.6689 -3.9209 -0.7665
  332MOL0     H45754   0.524   8.249   7.419  1.2196 -0.0511  2.6769
  332MOL0     H45755   0.310   8.352   7.460 -0.0315 -0.7485 -2.0380
  332MOL0     H45756   0.378   8.520   7.486 -3.0810  0.5296  1.3786
  332MOL0     H45757   0.394   8.381   7.218  0.3872  1.6982 -1.7285
  332MOL0     H45758   0.431   8.550   7.254  0.2326 -0.1951 -1.5812
  332MOL0     H45759   0.157   8.414   7.273  0.3022 -0.1499 -1.3798
  332MOL0     H45760   0.193   8.569   7.332  0.8624 -1.4178  1.9635
  332MOL0     H45761   0.103   8.513   7.069  0.1414  0.2490 -1.0437
  332MOL0     H45762   0.277   8.509   7.044  0.1569  0.6958 -1.1859
  332MOL0     H45763   0.313   8.719   7.159 -0.6888  0.4145 -0.6888
  332MOL0     H45764   0.226   8.736   7.005 -1.0601  0.2709 -0.3421
  332MOL0     H45765   0.114   8.980   7.068 -0.7024  0.3937  0.9094
  332MOL0     H45766  -0.112   9.128   7.144 -2.0470  1.1223  0.9095
  332MOL0     H45767  -0.005   9.162   7.271 -0.9989  1.3232  0.0580
  332MOL0     H45768  -0.178   9.032   7.414 -0.1902  0.2184  0.6250
  332MOL0     H45769  -0.228   9.187   7.350 -2.0757 -0.5957  0.5625
  332MOL0     H45770  -0.320   9.047   7.155  0.6932  1.8514  1.7346
  332MOL0     H45771  -0.284   8.910   7.263  0.7651 -1.0944 -3.3032
  332MOL0     H45772  -0.538   9.001   7.278  0.8443 -1.5243  1.8806
  332MOL0     H45773  -0.448   9.026   7.421 -0.1489  1.1207 -0.5536
  332MOL0     H45774  -0.616   9.377   7.175  1.0620  1.4422  0.4000
  332MOL0     H45775  -0.937   9.403   7.125 -1.0280 -0.5542  2.6873
  332MOL0     H45776  -0.789   9.496   7.104 -1.5647 -0.8113 -1.4970
  332MOL0     H45777  -0.919   9.544   7.217  0.6867 -0.2290  0.4066
  332MOL0     H45778  -1.216   9.504   7.633 -2.0391  1.4680  2.2356
  332MOL0     H45779  -1.438   9.571   7.629 -0.4062  2.1734  0.2299
  332MOL0     H45780  -1.632   9.488   7.558 -3.3368 -0.8557  0.2733
  332MOL0     H45781  -1.655   9.652   7.618  1.2389  0.7704 -1.4920
  332MOL0     H45782  -1.876   9.570   7.559  2.0505  1.9880  2.2954
  332MOL0     H45783  -1.828   9.686   7.447 -0.2496  0.2378 -0.2239
  332MOL0     H45784  -1.928   9.476   7.353 -0.3960  3.1775 -1.3265
  332MOL0     H45785  -1.775   9.385   7.409 -2.6795 -1.4676  3.0667
  332MOL0     H45786  -1.653   9.506   7.222  0.2040 -1.0654 -2.6746
  332MOL0     H45787  -1.789   9.606   7.201  1.2451  1.0356  2.9682
  332MOL0     H45788  -1.786   9.294   7.155 -2.0915 -0.0217  0.8204
  332MOL0     H45789  -1.899   9.398   7.085  0.0342 -2.0228  0.0850
  332MOL0     H45790  -1.595   9.393   7.044  1.3426  0.8800 -2.3422
  332MOL0     H45791  -1.701   9.509   6.949  0.7429 -0.2597 -0.4299
  332MOL0     H45792  -1.633   9.299   6.829  1.2657  0.7117  0.9757
  332MOL0     H45793  -1.800   9.357   6.832 -0.1620  0.8717  0.8593
  332MOL0     H45794  -1.752   9.101   6.851  0.1936  0.8337  0.0743
  332MOL0     H45795  -1.843   9.161   6.980 -0.5278  0.1582 -0.0204
  332MOL0     H45796  -1.434   9.594   7.195  0.7548  0.8292  0.3809
  332MOL0     H45797  -1.200   9.565   7.200 -0.8139 -2.6190 -0.7498
  332MOL0     H45798  -0.848   9.171   7.556  0.8578 -1.6357 -1.1532
  332MOL0     H45799  -0.626   9.117   7.523  0.9057  0.9418  1.2303
  332MOL0     H45800   0.896   8.113   7.720  0.0043  0.1156  1.4942
  332MOL0     H45801   1.141   8.040   7.677 -3.2380 -1.4675  0.7461
  332MOL0     H45802   1.639   8.362   7.696 -0.4654  0.2943  1.2630
  332MOL0     H45803   1.870   8.267   7.725  0.6141 -2.5475  2.0527
  332MOL0     H45804   2.021   8.196   7.592  2.7600  1.7028  4.8389
  332MOL0     H45805   2.116   8.098   7.712 -0.8399 -0.7489  1.3281
  332MOL0     H45806   2.156   7.932   7.564  0.4585  1.1282 -1.4984
  332MOL0     H45807   2.220   8.085   7.494  0.2152 -0.3513 -0.9028
  332MOL0     H45808   1.962   8.054   7.380 -0.0020  0.5006 -1.2456
  332MOL0     H45809   2.117   8.014   7.307 -1.3071 -2.6177 -1.1065
  332MOL0     H45810   1.962   7.800   7.457 -0.3018  3.6378  0.5070
  332MOL0     H45811   2.129   7.795   7.388  0.6476  2.8898  0.0953
  332MOL0     H45812   1.836   7.763   7.065 -1.2915  0.5369  0.6928
  332MOL0     H45813   1.735   7.915   7.512  2.1244  0.8778 -0.1296
  332MOL0     H45814   1.427   8.024   7.399  2.6258  2.1721 -0.6106
  332MOL0     H45815   1.528   7.888   7.430 -0.7521 -0.7747  1.4355
  332MOL0     H45816   1.423   7.928   7.550 -0.9564 -2.1871 -1.7196
  333MOL0     O45817   2.336   5.145   9.488  0.2593  0.4468  0.5275
  333MOL0     C45818   2.274   5.241   9.448 -1.3955 -0.1473 -0.2060
  333MOL0     O45819   2.236   5.268   9.327  0.1788 -0.1060  0.9044
  333MOL0     C45820   2.290   5.201   9.217  0.2464 -0.0520  0.7465
  333MOL0     C45821   2.420   5.157   9.215  0.0430  0.1620 -0.4922
  333MOL0     C45822   2.466   5.086   9.104 -0.3895 -0.2448 -0.8117
  333MOL0     C45823   2.385   5.061   8.996  0.7261  0.2596  0.3830
  333MOL0     O45824   2.438   4.991   8.896 -0.5819 -0.3282  0.1604
  333MOL0     C45825   2.527   5.067   8.812 -0.6796  0.0910  0.7099
  333MOL0     C45826   2.531   5.006   8.670  0.2557 -0.6707  0.0587
  333MOL0     C45827   2.398   5.043   8.604  0.1707 -0.2382 -0.5005
  333MOL0     C45828   2.356   4.925   8.508 -0.0518 -0.5962  1.2607
  333MOL0     C45829   2.240   4.968   8.425  1.3082  0.3508  0.4739
  333MOL0     C45830   2.116   5.022   8.509  0.1275  0.4625  0.2634
  333MOL0     C45831   1.981   5.018   8.429 -0.9853 -0.3820 -0.1582
  333MOL0     C45832   1.999   5.115   8.310  0.3012 -0.1068  0.8123
  333MOL0     N45833   1.888   5.102   8.222  0.0249 -0.1784  0.2013
  333MOL0     C45834   1.757   5.120   8.264 -0.3711 -0.9443  0.2143
  333MOL0     C45835   1.692   5.142   8.145  0.5457 -0.8193  0.2588
  333MOL0     C45836   1.549   5.199   8.123 -0.4203  0.3625 -0.8476
  333MOL0     C45837   1.474   5.100   8.029  0.2754 -0.2715 -0.0738
  333MOL0     C45838   1.413   4.981   8.098 -0.2879  0.3995 -0.3666
  333MOL0     C45839   1.320   4.889   8.025  0.3735  0.5766  1.2333
  333MOL0     O45840   1.293   4.795   8.125  0.0279  0.3510  0.3641
  333MOL0     C45841   1.210   4.689   8.100 -1.0125  0.1855 -0.7934
  333MOL0     C45842   1.126   4.685   7.985 -1.3599  0.6039  0.1039
  333MOL0     C45843   1.088   4.563   7.938  0.6393 -0.2136  0.5142
  333MOL0     C45844   1.013   4.562   7.809  0.1566 -0.5442  0.6710
  333MOL0     C45845   1.117   4.451   8.011  0.1653  0.0903  0.7854
  333MOL0     C45846   1.057   4.327   7.973 -0.0390 -0.0093 -0.5330
  333MOL0     O45847   1.151   4.223   7.985 -0.1193 -0.3689 -0.3089
  333MOL0     C45848   1.097   4.094   7.970  0.3457  0.1398  0.2650
  333MOL0     C45849   1.108   4.032   7.849 -0.7246 -0.3567  0.1250
  333MOL0     C45850   1.059   3.905   7.830 -0.5999 -0.7151  0.1542
  333MOL0     C45851   0.999   3.834   7.934 -1.3007  0.2247 -0.2323
  333MOL0     O45852   0.943   3.711   7.913 -0.4725 -0.4688 -0.8222
  333MOL0     C45853   0.812   3.711   7.862 -0.9939  0.5115 -1.0403
  333MOL0     C45854   0.730   3.591   7.926 -0.5913 -0.8021  0.1252
  333MOL0     C45855   0.590   3.581   7.871  0.3457  0.2591 -0.6560
  333MOL0     C45856   0.533   3.443   7.905  0.0522 -0.7055 -0.6085
  333MOL0     C45857   0.402   3.421   7.831 -0.7061  0.3398 -0.2851
  333MOL0     C45858   0.331   3.291   7.856 -0.0916 -0.2692  0.8482
  333MOL0     C45859   0.193   3.296   7.801 -1.1741 -0.9085 -0.5336
  333MOL0     C45860   0.079   3.299   7.908 -0.1436  0.2280  0.1521
  333MOL0    Cl45861   0.033   3.458   7.976  0.1324 -0.1904  0.2199
  333MOL0     C45862   0.978   3.904   8.052  1.4919  0.3446  0.0924
  333MOL0     C45863   1.028   4.033   8.076 -0.7054  0.7687  0.7227
  333MOL0     O45864   0.936   4.313   7.972 -0.3855  0.0757  0.4419
  333MOL0     C45865   1.198   4.458   8.125 -0.2771 -0.4580  0.1816
  333MOL0     C45866   1.241   4.583   8.177  0.2440  0.3917  1.1520
  333MOL0     N45867   1.783   5.119   8.041  0.5690 -0.6159 -0.1421
  333MOL0     N45868   1.897   5.087   8.090 -0.0494 -0.0228  0.2711
  333MOL0     C45869   2.246   5.100   8.997  1.0957 -0.2805 -0.2705
  333MOL0     C45870   2.201   5.180   9.104  0.0988  0.2830  0.4139
  333MOL0     C45871   2.213   5.339   9.542 -0.7535 -0.0787 -0.0926
  333MOL0     C45872   2.115   5.429   9.506  0.6255  0.2601  0.2697
  333MOL0     C45873   2.044   5.505   9.597 -0.8625 -0.1378  0.3818
  333MOL0     C45874   2.085   5.502   9.733  0.3568 -0.3695 -0.2492
  333MOL0     O45875   2.003   5.561   9.830  0.5315  0.4617 -0.3061
  333MOL0     C45876   2.038   5.706   9.856  0.7509  0.9076  0.1153
  333MOL0     C45877   2.183   5.737   9.898 -1.0579 -0.3358 -0.8519
  333MOL0     C45878   2.210   5.879   9.960  0.1567  0.4490  0.3328
  333MOL0     C45879   2.198   5.999   9.855 -0.9766  0.0766  0.7503
  333MOL0     C45880   2.191   6.119   9.940  0.0196  0.2036 -0.1009
  333MOL0     C45881   2.200   6.210  10.025 -1.1523 -0.8203  0.3925
  333MOL0     C45882   2.189   5.419   9.774 -0.9821 -0.7883 -0.2327
  333MOL0     C45883   2.261   5.346   9.677  0.3702 -0.4304  0.3917
  333MOL0     C45884   2.377   5.269   9.737  0.6433  0.0539  0.5608
  333MOL0     H45885   2.490   5.194   9.290  0.0333 -4.6789  2.3517
  333MOL0     H45886   2.569   5.059   9.083  0.4440 -0.9229  3.3386
  333MOL0     H45887   2.628   5.049   8.850 -0.1263 -2.8466 -1.7182
  333MOL0     H45888   2.497   5.172   8.802 -2.4715 -0.4216  0.3125
  333MOL0     H45889   2.620   5.037   8.615  0.7668 -1.8841  0.1879
  333MOL0     H45890   2.532   4.897   8.678 -2.1872 -0.6225  2.3761
  333MOL0     H45891   2.328   5.053   8.688  2.9338  0.4139  1.8831
  333MOL0     H45892   2.394   5.137   8.548 -1.3812  0.2176  0.3151
  333MOL0     H45893   2.440   4.916   8.439  0.0918 -0.9956  1.4838
  333MOL0     H45894   2.333   4.828   8.552 -1.2930 -0.5681  0.7092
  333MOL0     H45895   2.206   4.883   8.365  0.5293  0.1599  1.1698
  333MOL0     H45896   2.266   5.046   8.352 -1.1093  1.6614  0.8957
  333MOL0     H45897   2.104   4.963   8.600 -1.0846  0.7027  0.2783
  333MOL0     H45898   2.132   5.124   8.546 -0.5556  0.7686 -0.2519
  333MOL0     H45899   1.899   5.061   8.488 -0.7973 -0.4758  0.1708
  333MOL0     H45900   1.967   4.911   8.414  0.2352 -0.6141  0.2680
  333MOL0     H45901   2.012   5.215   8.351  2.0277 -0.3140  0.8159
  333MOL0     H45902   2.092   5.096   8.257 -1.6356 -1.4059 -2.4315
  333MOL0     H45903   1.713   5.121   8.364  3.1395 -3.8432  2.0431
  333MOL0     H45904   1.544   5.301   8.083  1.4207  1.0652  0.5600
  333MOL0     H45905   1.490   5.204   8.215 -0.6290  2.3043 -1.0428
  333MOL0     H45906   1.387   5.149   7.985 -1.1335 -2.7656 -0.2878
  333MOL0     H45907   1.541   5.081   7.944 -4.0886 -2.6198 -3.3579
  333MOL0     H45908   1.491   4.918   8.142 -1.1484 -0.0706  0.5157
  333MOL0     H45909   1.369   5.029   8.186 -1.3124  3.2542 -2.2790
  333MOL0     H45910   1.232   4.934   7.979  1.5707  0.7899 -1.0158
  333MOL0     H45911   1.375   4.823   7.958 -0.0276 -0.8977  2.3058
  333MOL0     H45912   1.129   4.775   7.925  3.4375 -1.0149 -2.6087
  333MOL0     H45913   0.913   4.603   7.822 -0.5654 -1.5175 -1.3514
  333MOL0     H45914   1.016   4.465   7.757  0.0483 -0.8022  1.1408
  333MOL0     H45915   1.067   4.614   7.729 -0.3954 -1.1551 -0.1228
  333MOL0     H45916   1.148   4.090   7.766  0.7817  1.4393  2.0081
  333MOL0     H45917   1.088   3.868   7.732  4.1283 -0.3817  1.1782
  333MOL0     H45918   0.758   3.805   7.883  0.9172  1.7833 -1.5725
  333MOL0     H45919   0.827   3.702   7.754 -1.1125  0.2053 -1.0312
  333MOL0     H45920   0.791   3.502   7.907  1.1888  0.7081 -1.7565
  333MOL0     H45921   0.726   3.625   8.030  1.4275  2.6759 -0.7783
  333MOL0     H45922   0.600   3.578   7.762  1.7121  1.1401 -0.5795
  333MOL0     H45923   0.521   3.662   7.898  2.8341  2.0058  0.9050
  333MOL0     H45924   0.512   3.441   8.012 -1.9187  0.0748 -0.9386
  333MOL0     H45925   0.612   3.373   7.875  0.9337  0.4599 -1.0977
  333MOL0     H45926   0.339   3.494   7.881  1.0465 -0.0712  2.7344
  333MOL0     H45927   0.425   3.443   7.726  5.4674 -0.5711  0.4680
  333MOL0     H45928   0.314   3.274   7.963 -1.6854 -2.1702  0.3448
  333MOL0     H45929   0.391   3.212   7.809 -3.0087 -1.9399 -0.3057
  333MOL0     H45930   0.181   3.205   7.742  0.7769 -1.0949 -0.7087
  333MOL0     H45931   0.179   3.381   7.734 -0.4159  1.3635  2.0071
  333MOL0     H45932   0.116   3.248   7.997  0.7685  2.5097  1.1623
  333MOL0     H45933  -0.012   3.248   7.874 -0.7780 -0.2257  2.3937
  333MOL0     H45934   0.926   3.853   8.132  0.8740 -0.1815 -0.6312
  333MOL0     H45935   1.020   4.077   8.175  4.1198  0.1436  1.6691
  333MOL0     H45936   1.222   4.372   8.186 -1.6308 -0.8085  0.2543
  333MOL0     H45937   1.289   4.597   8.274  1.7892  0.8579  0.3378
  333MOL0     H45938   2.176   5.087   8.915 -0.6711  0.4256  1.0704
  333MOL0     H45939   2.100   5.220   9.096  0.6721  1.5080 -1.1543
  333MOL0     H45940   2.072   5.417   9.407  0.5542 -0.9482  0.4343
  333MOL0     H45941   1.960   5.570   9.574  0.4169  1.9354  1.2657
  333MOL0     H45942   2.018   5.771   9.770  1.3317  1.4151  0.3531
  333MOL0     H45943   1.976   5.734   9.941 -1.3692 -2.6194 -0.0934
  333MOL0     H45944   2.245   5.731   9.808 -0.3845  3.8452 -0.8665
  333MOL0     H45945   2.219   5.666   9.972  0.8741 -0.9169 -2.2676
  333MOL0     H45946   2.148   5.901  10.047  0.3557 -0.3375  0.6762
  333MOL0     H45947   2.311   5.880  10.001  0.7887 -1.6806 -1.0444
  333MOL0     H45948   2.109   5.985   9.793 -0.1241 -2.7674  0.0243
  333MOL0     H45949   2.282   6.020   9.788 -2.5547  2.7194 -0.5452
  333MOL0     H45950   2.243   6.290  10.082 -1.3434  1.3607 -2.2842
  333MOL0     H45951   2.221   5.410   9.878  1.0792 -3.1144 -0.9808
  333MOL0     H45952   2.353   5.162   9.742 -1.7067  0.5291  0.8022
  333MOL0     H45953   2.460   5.287   9.669  0.7396 -0.8709  0.4179
  333MOL0     H45954   2.406   5.302   9.837 -0.3914 -0.6581  1.1235
  334MOL0     O45955   3.764   2.231   4.801 -0.5651  0.1106 -0.1806
  334MOL0     C45956   3.665   2.158   4.797  0.7796  0.2845 -0.0892
  334MOL0     O45957   3.654   2.037   4.866  0.5191  0.1437  0.3142
  334MOL0     C45958   3.759   2.008   4.957  1.2214  0.9229  0.2403
  334MOL0     C45959   3.886   1.988   4.905 -0.2078 -0.3474  0.4076
  334MOL0     C45960   3.983   1.947   4.999 -1.2066 -0.8614 -0.5627
  334MOL0     C45961   3.957   1.934   5.136 -0.2558 -0.0555  0.7405
  334MOL0     O45962   4.057   1.912   5.232  0.3672 -1.3574 -0.1086
  334MOL0     C45963   4.194   1.933   5.202  0.1156 -0.0666 -0.8207
  334MOL0     C45964   4.225   2.075   5.150  0.4831 -0.4439 -0.2306
  334MOL0     C45965   4.252   2.170   5.269  0.8275  1.3229  0.3220
  334MOL0     C45966   4.312   2.291   5.219  0.7914 -1.2399 -0.1250
  334MOL0     C45967   4.356   2.396   5.333 -0.6655 -0.8239 -0.2617
  334MOL0     C45968   4.409   2.520   5.261 -0.1996 -0.0535 -0.3337
  334MOL0     C45969   4.386   2.635   5.365 -0.8378  0.1758 -0.0653
  334MOL0     C45970   4.465   2.762   5.338  0.0066  0.2998  0.1104
  334MOL0     N45971   4.408   2.857   5.236 -0.4152  0.3257 -0.2400
  334MOL0     C45972   4.377   2.825   5.105 -0.8690  0.1639 -0.0972
  334MOL0     C45973   4.297   2.922   5.064 -0.5206 -1.0079 -0.8125
  334MOL0     C45974   4.243   2.910   4.932  0.5116  0.2471 -0.5453
  334MOL0     C45975   4.212   3.052   4.884 -0.5489  0.5519 -0.2940
  334MOL0     C45976   4.166   3.042   4.740 -0.6698 -0.0804  0.4534
  334MOL0     C45977   4.275   3.023   4.633  0.6544  0.1769  0.4649
  334MOL0     O45978   4.369   3.136   4.636 -0.0732  0.3976 -0.1222
  334MOL0     C45979   4.470   3.139   4.544  0.4424  0.0100  0.4901
  334MOL0     C45980   4.546   3.260   4.541 -0.6602  0.6223  0.2816
  334MOL0     C45981   4.659   3.274   4.453  0.4618  0.6692  0.2641
  334MOL0     C45982   4.726   3.402   4.451  0.9531 -0.1915 -0.5654
  334MOL0     C45983   4.696   3.168   4.365 -1.3504  0.0184  0.8551
  334MOL0     C45984   4.825   3.169   4.283  0.8298  0.3597  0.5661
  334MOL0     O45985   4.868   3.043   4.242 -0.2176  0.1115  0.2296
  334MOL0     C45986   4.998   3.020   4.231  0.1216 -0.1378  0.3591
  334MOL0     C45987   5.053   3.042   4.107 -0.4750  0.9087  0.3598
  334MOL0     C45988   5.192   3.028   4.086  0.7901  0.2139  0.5129
  334MOL0     C45989   5.268   2.967   4.189 -0.2428 -0.1675  0.0546
  334MOL0     O45990   5.405   2.951   4.172  0.6518  0.5014 -0.3254
  334MOL0     C45991   5.444   2.948   4.034  0.4418  0.3682 -0.5703
  334MOL0     C45992   5.578   2.873   4.014  0.2034  0.2644  0.6073
  334MOL0     C45993   5.649   2.945   3.896  0.2817 -0.1853 -0.8595
  334MOL0     C45994   5.786   2.888   3.877 -0.9400 -0.2828 -0.1424
  334MOL0     C45995   5.872   2.985   3.808 -0.3081  0.7220  0.3131
  334MOL0     C45996   6.027   2.933   3.791  0.0012  0.1687 -0.0495
  334MOL0     C45997   6.032   2.799   3.708 -0.4396 -0.1079 -0.3676
  334MOL0     C45998   6.186   2.768   3.678  0.7879  0.1917 -0.3297
  334MOL0    Cl45999   6.250   2.873   3.550 -0.2358  0.0280 -0.5273
  334MOL0     C46000   5.209   2.938   4.317 -0.5331 -0.6771 -0.4172
  334MOL0     C46001   5.079   2.974   4.330  0.2646 -0.4665  0.3382
  334MOL0     O46002   4.878   3.279   4.257  0.5493  0.6045  0.3513
  334MOL0     C46003   4.631   3.051   4.381  0.5091 -0.5655 -0.0643
  334MOL0     C46004   4.514   3.038   4.461  0.1017  0.6239  0.2569
  334MOL0     N46005   4.289   3.022   5.158 -0.1737  0.3329  0.2141
  334MOL0     N46006   4.356   2.983   5.267 -0.1716  0.6344  0.0375
  334MOL0     C46007   3.826   1.940   5.175 -0.3802  0.6568 -0.6208
  334MOL0     C46008   3.723   1.977   5.085  0.0193  0.7203 -0.0409
  334MOL0     C46009   3.560   2.201   4.703 -0.3435 -0.4118 -0.6553
  334MOL0     C46010   3.594   2.292   4.603 -0.9781 -0.1785 -0.1574
  334MOL0     C46011   3.500   2.351   4.524  1.2309 -0.1459  0.2471
  334MOL0     C46012   3.359   2.327   4.555 -0.6856  0.2598 -0.6988
  334MOL0     O46013   3.268   2.385   4.473 -0.5128 -0.2309  0.3014
  334MOL0     C46014   3.132   2.395   4.517  0.1209 -0.7638  0.3444
  334MOL0     C46015   3.059   2.514   4.448 -1.1899  0.4964  0.7751
  334MOL0     C46016   2.908   2.539   4.475  0.4870 -0.3461  0.2176
  334MOL0     C46017   2.883   2.601   4.613  0.5279 -0.5344  0.0748
  334MOL0     C46018   2.743   2.652   4.621  0.2067  0.4683 -0.6135
  334MOL0     C46019   2.631   2.700   4.647  0.8245  0.3448  0.5080
  334MOL0     C46020   3.324   2.235   4.646  0.1915 -0.0836 -0.1216
  334MOL0     C46021   3.423   2.172   4.726 -0.0710  0.2847  0.4472
  334MOL0     C46022   3.368   2.098   4.846  0.0022  0.6476 -0.2146
  334MOL0     H46023   3.906   1.997   4.799  0.5016  0.2881  0.5872
  334MOL0     H46024   4.080   1.923   4.955 -0.2453  1.4131  0.1448
  334MOL0     H46025   4.212   1.860   5.122 -2.6348  1.4708 -3.0161
  334MOL0     H46026   4.255   1.904   5.288 -2.5141 -0.6375  0.9726
  334MOL0     H46027   4.308   2.067   5.079  0.5840  1.8844 -0.4599
  334MOL0     H46028   4.156   2.128   5.083  0.6034 -0.1853 -0.1545
  334MOL0     H46029   4.174   2.188   5.344 -1.3716 -3.0536 -0.5403
  334MOL0     H46030   4.328   2.115   5.325  2.2050  1.4149 -1.4018
  334MOL0     H46031   4.401   2.266   5.162  3.1532  0.0897  2.7332
  334MOL0     H46032   4.244   2.347   5.153  3.0824  2.6247  0.4883
  334MOL0     H46033   4.426   2.351   5.404  0.4925  0.6098 -0.4544
  334MOL0     H46034   4.270   2.423   5.395 -0.6215  1.2830 -1.0552
  334MOL0     H46035   4.514   2.503   5.239 -0.3105 -2.4415  0.6844
  334MOL0     H46036   4.352   2.545   5.171  1.8999  0.5884 -1.5483
  334MOL0     H46037   4.408   2.587   5.461  2.9258 -1.9310 -1.7564
  334MOL0     H46038   4.283   2.670   5.377 -1.2480 -1.2212  0.6928
  334MOL0     H46039   4.495   2.802   5.435 -1.0440 -3.9581  2.4275
  334MOL0     H46040   4.554   2.732   5.281 -1.4187 -0.0996 -2.0130
  334MOL0     H46041   4.405   2.737   5.047 -1.1915  0.4891 -0.7574
  334MOL0     H46042   4.148   2.856   4.938 -0.5191  1.7124 -2.3655
  334MOL0     H46043   4.317   2.863   4.868  0.8862 -0.3920  0.3475
  334MOL0     H46044   4.136   3.098   4.948  0.3450  0.5168  0.8242
  334MOL0     H46045   4.302   3.115   4.882 -0.9577  1.1223 -0.8855
  334MOL0     H46046   4.088   2.966   4.724  0.6410 -1.8915  2.2012
  334MOL0     H46047   4.134   3.143   4.712  0.1104 -0.3290 -1.5432
  334MOL0     H46048   4.328   2.927   4.640 -0.4392 -0.4054  1.0156
  334MOL0     H46049   4.230   3.023   4.533  0.8509  1.4323  0.3659
  334MOL0     H46050   4.498   3.335   4.604 -1.9766 -0.9229  1.2204
  334MOL0     H46051   4.690   3.457   4.364  1.0886  1.1799  0.2140
  334MOL0     H46052   4.835   3.398   4.446  1.1339  2.9972 -4.2005
  334MOL0     H46053   4.700   3.439   4.550 -3.2094 -0.2197 -1.4546
  334MOL0     H46054   4.989   3.093   4.036  2.7732  1.0696 -2.7329
  334MOL0     H46055   5.240   3.052   3.991  1.4000 -0.4241  0.6541
  334MOL0     H46056   5.367   2.895   3.978  1.4587 -1.2470 -0.4890
  334MOL0     H46057   5.449   3.050   3.995 -0.2064 -0.6777 -3.6698
  334MOL0     H46058   5.644   2.867   4.101  2.1764  0.5886 -0.8062
  334MOL0     H46059   5.557   2.767   3.994  1.4639  0.3310 -1.3183
  334MOL0     H46060   5.651   3.047   3.935 -1.2746 -0.8081  1.0400
  334MOL0     H46061   5.591   2.946   3.803 -2.5607  2.2668  0.7782
  334MOL0     H46062   5.769   2.802   3.812 -1.4702  0.5984 -1.2214
  334MOL0     H46063   5.827   2.848   3.970 -1.2949  0.1355  0.2000
  334MOL0     H46064   5.828   2.987   3.708  3.0367  0.7544 -1.3062
  334MOL0     H46065   5.870   3.080   3.861  2.6235  1.6385 -0.9588
  334MOL0     H46066   6.094   2.918   3.876 -0.7004 -1.8037  0.2050
  334MOL0     H46067   6.087   3.010   3.741 -1.4497  1.9230  0.7789
  334MOL0     H46068   5.963   2.802   3.623 -2.7902 -1.0627  1.4019
  334MOL0     H46069   5.989   2.724   3.774 -3.2588  1.3125 -0.4652
  334MOL0     H46070   6.200   2.665   3.643  0.4647  0.5942 -1.7090
  334MOL0     H46071   6.245   2.782   3.768  0.8134 -0.5239 -0.2279
  334MOL0     H46072   5.276   2.895   4.390 -0.0219 -2.0279 -1.6285
  334MOL0     H46073   5.030   2.959   4.426  0.9737 -0.1688  0.7598
  334MOL0     H46074   4.661   2.961   4.328  4.0273  0.5164 -0.1661
  334MOL0     H46075   4.460   2.945   4.445  1.3586 -0.0378 -0.2873
  334MOL0     H46076   3.787   1.928   5.276 -1.4130  0.5859 -1.0098
  334MOL0     H46077   3.625   1.997   5.128  0.7704  2.3214  1.0299
  334MOL0     H46078   3.698   2.315   4.583 -0.5423 -1.5943  0.3211
  334MOL0     H46079   3.516   2.419   4.441 -1.2792 -2.0860 -2.0369
  334MOL0     H46080   3.082   2.300   4.493  2.2859 -1.5146 -1.5250
  334MOL0     H46081   3.130   2.405   4.626  0.2198 -2.1296  0.4899
  334MOL0     H46082   3.077   2.496   4.342  2.1003 -2.0036  1.5966
  334MOL0     H46083   3.111   2.608   4.468  2.0218 -0.3962 -2.3840
  334MOL0     H46084   2.864   2.607   4.402 -2.6943 -1.1748  1.2289
  334MOL0     H46085   2.863   2.440   4.464  0.4158 -0.5270  1.8796
  334MOL0     H46086   2.951   2.681   4.645 -1.6899  2.8347 -2.7420
  334MOL0     H46087   2.900   2.520   4.684 -0.3494  0.4738  1.4859
  334MOL0     H46088   2.529   2.731   4.656  0.7782  0.4433 -0.2976
  334MOL0     H46089   3.220   2.218   4.672 -0.0102 -0.3190 -1.0382
  334MOL0     H46090   3.352   1.991   4.832 -0.5779  0.6783  0.1883
  334MOL0     H46091   3.423   2.116   4.939 -2.9077  3.1040  1.2116
  334MOL0     H46092   3.274   2.145   4.878 -0.3628 -0.5764  0.5456
  335MOL0     O46093   7.343   2.018   9.101 -0.5493 -0.3564  0.2683
  335MOL0     C46094   7.263   1.985   9.015  0.7146 -0.4097  0.4837
  335MOL0     O46095   7.141   2.048   8.981 -0.2798  0.4648  0.2292
  335MOL0     C46096   7.090   2.157   9.041 -0.2281 -0.2123  0.1136
  335MOL0     C46097   6.953   2.152   9.094  0.3068 -0.0072 -0.3383
  335MOL0     C46098   6.896   2.261   9.170  0.3332 -0.5673 -0.9230
  335MOL0     C46099   6.977   2.373   9.200 -1.1918 -0.2935 -0.2160
  335MOL0     O46100   6.918   2.475   9.265  0.4125 -0.6781  0.5025
  335MOL0     C46101   7.011   2.550   9.342 -0.1322 -0.4792  0.0800
  335MOL0     C46102   7.064   2.457   9.459 -0.1088  0.5422  0.4441
  335MOL0     C46103   6.958   2.350   9.514 -1.2756 -0.1639 -0.3609
  335MOL0     C46104   7.024   2.258   9.625  1.0716 -0.0482  0.2757
  335MOL0     C46105   6.900   2.168   9.671 -0.7868 -0.3616 -0.1031
  335MOL0     C46106   6.957   2.059   9.771  0.3805  0.2604  0.0214
  335MOL0     C46107   6.841   1.966   9.827 -0.3419  0.1845  0.0086
  335MOL0     C46108   6.889   1.884   9.932 -0.3518 -0.3158  0.1867
  335MOL0     N46109   6.767   1.831   9.996 -0.7034  0.6411 -0.8792
  335MOL0     C46110   6.708   1.895  10.101  0.8281 -0.4486 -0.1852
  335MOL0     C46111   6.591   1.831  10.101  0.7936  0.3623 -0.2687
  335MOL0     C46112   6.473   1.859  10.188  0.5595 -0.4306 -0.9448
  335MOL0     C46113   6.371   1.740  10.210 -0.1156 -0.7894  0.1699
  335MOL0     C46114   6.305   1.767  10.349 -1.0848  0.0139  0.2035
  335MOL0     C46115   6.154   1.755  10.357 -0.1613  0.6624  0.0411
  335MOL0     O46116   6.120   1.621  10.327 -0.3571  0.1424  0.1958
  335MOL0     C46117   5.996   1.563  10.344  0.6742  0.4379  0.7229
  335MOL0     C46118   5.971   1.426  10.310 -0.1751 -0.5820  0.2195
  335MOL0     C46119   5.833   1.374  10.309 -0.9359 -0.3769  0.6076
  335MOL0     C46120   5.822   1.217  10.277  0.1937 -0.1151 -0.3265
  335MOL0     C46121   5.723   1.459  10.349  0.4461  0.5376  0.5918
  335MOL0     C46122   5.572   1.431  10.351  0.6389 -0.6806  0.4870
  335MOL0     O46123   5.483   1.529  10.341  0.6220 -0.4320  0.4578
  335MOL0     C46124   5.365   1.496  10.290 -0.4956  0.1228  0.1223
  335MOL0     C46125   5.348   1.465  10.148 -0.8809 -0.0657 -0.5852
  335MOL0     C46126   5.224   1.437  10.095  1.1095 -0.9603 -0.1632
  335MOL0     C46127   5.114   1.443  10.181 -0.8106 -0.0164 -0.8155
  335MOL0     O46128   5.001   1.414  10.113 -0.7590 -0.1623  0.1511
  335MOL0     C46129   4.891   1.504  10.131 -0.1131 -0.5833 -0.1616
  335MOL0     C46130   4.768   1.471  10.048  1.4166  0.0855  0.7043
  335MOL0     C46131   4.674   1.589  10.083  0.1101 -0.1602 -0.5561
  335MOL0     C46132   4.550   1.587   9.988 -0.3460  0.9795  0.4450
  335MOL0     C46133   4.504   1.732   9.951 -0.3600  0.0520 -1.1930
  335MOL0     C46134   4.484   1.809  10.078 -0.0963 -0.4397  0.2445
  335MOL0     C46135   4.345   1.782  10.140 -0.1555  0.5108 -0.3692
  335MOL0     C46136   4.308   1.871  10.264  0.7783 -0.1267  0.6192
  335MOL0    Cl46137   4.437   1.876  10.385  0.4206  0.6433 -0.4275
  335MOL0     C46138   5.132   1.467  10.317 -0.1331 -0.7568 -0.2006
  335MOL0     C46139   5.254   1.507  10.370  0.5944  0.2152  0.8332
  335MOL0     O46140   5.539   1.313  10.375 -0.6587  0.0574  0.6566
  335MOL0     C46141   5.755   1.595  10.373  0.0096 -0.0962 -1.1121
  335MOL0     C46142   5.887   1.646  10.370  0.8179  0.1385  0.0348
  335MOL0     N46143   6.580   1.729  10.004  0.4436 -0.8238 -0.0212
  335MOL0     N46144   6.694   1.729   9.939 -0.2936  0.4784 -1.2249
  335MOL0     C46145   7.118   2.372   9.153 -0.1182  0.6151  0.1902
  335MOL0     C46146   7.164   2.270   9.074 -0.4719 -0.3973  0.2410
  335MOL0     C46147   7.288   1.858   8.942  0.3801 -0.9068 -0.5895
  335MOL0     C46148   7.317   1.748   9.037 -0.6379 -0.1888 -0.9733
  335MOL0     C46149   7.344   1.618   8.986 -0.5311 -0.1676  0.8626
  335MOL0     C46150   7.336   1.608   8.846  0.4539  0.7293  1.2920
  335MOL0     O46151   7.361   1.482   8.802 -0.0267 -0.2404 -0.2982
  335MOL0     C46152   7.356   1.451   8.660 -0.2927  0.2097 -0.6699
  335MOL0     C46153   7.339   1.300   8.645 -0.1536  0.2652  0.5939
  335MOL0     C46154   7.455   1.221   8.707 -0.9085  0.5229  0.0059
  335MOL0     C46155   7.463   1.070   8.673 -0.4127 -0.0822  0.5360
  335MOL0     C46156   7.489   1.054   8.530  0.4312  0.6653  0.1164
  335MOL0     C46157   7.527   1.049   8.413 -0.4241 -0.2424  0.0395
  335MOL0     C46158   7.313   1.719   8.758 -0.6072 -0.0002 -0.0638
  335MOL0     C46159   7.288   1.846   8.813  0.1937  0.6700  0.5367
  335MOL0     C46160   7.280   1.971   8.719 -0.2282  0.2140 -0.3211
  335MOL0     H46161   6.895   2.067   9.060  0.1481  0.8515 -2.3851
  335MOL0     H46162   6.789   2.255   9.187  0.3985 -0.0141 -0.3177
  335MOL0     H46163   6.938   2.622   9.383 -1.3864 -0.8447 -1.4266
  335MOL0     H46164   7.092   2.598   9.287  0.3491  0.5847  1.6269
  335MOL0     H46165   7.155   2.402   9.432 -1.2091 -1.9392  1.4155
  335MOL0     H46166   7.079   2.525   9.544  0.5472  0.8093  0.1163
  335MOL0     H46167   6.876   2.413   9.549 -1.5651  0.4444 -2.0041
  335MOL0     H46168   6.922   2.287   9.431 -2.8254 -0.4742  0.5149
  335MOL0     H46169   7.106   2.201   9.580  0.4341  2.1411 -4.1728
  335MOL0     H46170   7.062   2.318   9.708 -0.8307  0.2577  0.9775
  335MOL0     H46171   6.849   2.130   9.582 -1.9515  0.0037  0.3931
  335MOL0     H46172   6.829   2.221   9.736 -0.1352  2.2909 -1.4099
  335MOL0     H46173   7.028   2.000   9.712  0.5551  0.4133  0.0780
  335MOL0     H46174   7.015   2.097   9.856  1.2336  1.1809 -0.9374
  335MOL0     H46175   6.801   1.899   9.750  0.6066 -2.3552  1.5970
  335MOL0     H46176   6.753   2.025   9.854 -1.1565 -0.3371 -1.3816
  335MOL0     H46177   6.951   1.802   9.895 -1.9407 -2.0193  1.1158
  335MOL0     H46178   6.945   1.943  10.005  0.5813  0.9655 -1.4950
  335MOL0     H46179   6.732   1.978  10.167 -0.5329 -1.6981  2.0267
  335MOL0     H46180   6.413   1.931  10.132 -2.0327 -0.8802  1.0660
  335MOL0     H46181   6.522   1.893  10.279 -2.5284 -1.9190  1.4672
  335MOL0     H46182   6.313   1.750  10.118 -1.0397 -0.5740  0.7623
  335MOL0     H46183   6.421   1.644  10.228 -2.4209 -1.9577  0.6237
  335MOL0     H46184   6.362   1.709  10.423  0.0943  1.4949  0.5007
  335MOL0     H46185   6.327   1.870  10.380  0.2905 -0.8441  2.3920
  335MOL0     H46186   6.118   1.784  10.456 -1.0177 -1.8047  0.5184
  335MOL0     H46187   6.120   1.835  10.291  1.2884  0.0509 -1.5245
  335MOL0     H46188   6.048   1.354  10.283 -1.6158 -0.9419 -3.5668
  335MOL0     H46189   5.819   1.206  10.168  1.3999 -0.5077 -0.3398
  335MOL0     H46190   5.737   1.169  10.326 -1.2696  1.0733 -1.6093
  335MOL0     H46191   5.907   1.155  10.307  1.1042  1.0508 -0.4185
  335MOL0     H46192   5.437   1.469  10.088 -1.6550 -2.8903 -2.1215
  335MOL0     H46193   5.202   1.415   9.991 -1.6558  1.4342 -0.2137
  335MOL0     H46194   4.856   1.509  10.234  0.3419 -0.0994 -0.0309
  335MOL0     H46195   4.923   1.601  10.094 -1.4505 -0.8648 -2.2844
  335MOL0     H46196   4.789   1.468   9.940 -1.4659 -1.2513  0.0848
  335MOL0     H46197   4.733   1.372  10.077 -2.3197  0.4892 -1.6686
  335MOL0     H46198   4.737   1.677  10.066  1.0972 -1.1528 -2.2845
  335MOL0     H46199   4.635   1.595  10.186  0.0130  0.4469 -0.6233
  335MOL0     H46200   4.483   1.517  10.040 -0.3861  0.4243 -0.3372
  335MOL0     H46201   4.577   1.530   9.899  0.6950  0.2556  1.2068
  335MOL0     H46202   4.573   1.783   9.883  0.4647 -0.7689 -0.9966
  335MOL0     H46203   4.412   1.718   9.893 -0.9895 -2.6809  0.2911
  335MOL0     H46204   4.478   1.914  10.045 -0.4793 -0.0707  1.4205
  335MOL0     H46205   4.558   1.817  10.158  1.4332 -0.8186 -1.0826
  335MOL0     H46206   4.347   1.679  10.177  2.8609  0.3520 -0.6904
  335MOL0     H46207   4.274   1.789  10.057 -2.0145 -0.1028  1.1137
  335MOL0     H46208   4.212   1.842  10.308 -1.6842 -0.6096 -4.3257
  335MOL0     H46209   4.294   1.972  10.224  0.3459  0.3401  1.9000
  335MOL0     H46210   5.052   1.461  10.389  0.4501  0.2745  0.5507
  335MOL0     H46211   5.265   1.529  10.476  1.1141  0.2212  0.7805
  335MOL0     H46212   5.684   1.676  10.383  0.8436  0.9417 -3.1848
  335MOL0     H46213   5.894   1.754  10.369 -0.9109  0.2674 -0.9113
  335MOL0     H46214   7.192   2.448   9.176  1.2046 -0.1014 -1.4128
  335MOL0     H46215   7.268   2.268   9.043 -0.4091  0.6103  0.3658
  335MOL0     H46216   7.323   1.762   9.145  1.0115  6.3832 -1.5193
  335MOL0     H46217   7.367   1.547   9.064 -0.6537 -0.8880  0.2475
  335MOL0     H46218   7.269   1.495   8.610  0.3454 -0.9538 -2.9439
  335MOL0     H46219   7.451   1.488   8.621  0.1772 -1.8612 -1.6223
  335MOL0     H46220   7.347   1.290   8.536  1.3498 -0.7475  0.7765
  335MOL0     H46221   7.245   1.261   8.685 -0.2435 -0.8863 -0.6648
  335MOL0     H46222   7.550   1.265   8.674 -0.1850 -1.9212 -1.4414
  335MOL0     H46223   7.450   1.221   8.817 -1.4490  0.3927 -0.0177
  335MOL0     H46224   7.370   1.017   8.697  0.6408 -2.2834  0.0589
  335MOL0     H46225   7.548   1.026   8.726  0.6675  1.0752 -0.1866
  335MOL0     H46226   7.557   1.021   8.314 -1.3947  0.2404 -0.4065
  335MOL0     H46227   7.307   1.714   8.650 -2.5423 -5.8062 -0.0158
  335MOL0     H46228   7.331   1.943   8.627 -0.0555  0.3103 -0.2551
  335MOL0     H46229   7.182   1.998   8.679 -0.1826 -0.0453 -0.6024
  335MOL0     H46230   7.325   2.060   8.765 -0.9874  1.4935 -1.9234
  336MOL0     O46231   5.797   0.376   5.753 -0.3586  0.4186  0.3291
  336MOL0     C46232   5.713   0.466   5.737  0.7862 -0.0099 -0.8100
  336MOL0     O46233   5.592   0.481   5.819  0.3663 -0.0314  1.0273
  336MOL0     C46234   5.545   0.361   5.879 -0.7183 -0.8053  0.7186
  336MOL0     C46235   5.497   0.377   6.008 -0.4321 -0.2789  0.1878
  336MOL0     C46236   5.440   0.267   6.070  1.1700  0.7623  1.0821
  336MOL0     C46237   5.431   0.141   6.003  0.0441  0.3889 -0.3332
  336MOL0     O46238   5.387   0.035   6.075 -0.2815 -0.0841  0.4339
  336MOL0     C46239   5.284  -0.039   6.016  0.6692  0.2824  0.4263
  336MOL0     C46240   5.148  -0.009   6.071  0.0304  0.4162 -0.5763
  336MOL0     C46241   5.034  -0.111   6.038 -0.7435 -0.3545  0.2279
  336MOL0     C46242   5.055  -0.238   6.114 -0.0047 -0.6896 -0.2605
  336MOL0     C46243   4.949  -0.345   6.079 -0.4310  0.3499  0.2132
  336MOL0     C46244   4.974  -0.465   6.171 -0.1739  0.3092 -0.6918
  336MOL0     C46245   4.896  -0.456   6.310 -0.8962 -0.3224  0.9180
  336MOL0     C46246   4.895  -0.585   6.389 -0.0091  0.7620  0.6436
  336MOL0     N46247   4.798  -0.577   6.498  0.3218 -0.1386 -0.4296
  336MOL0     C46248   4.809  -0.519   6.624  0.0481  0.5686  0.1530
  336MOL0     C46249   4.698  -0.540   6.699  0.0281  0.5482  0.3125
  336MOL0     C46250   4.663  -0.512   6.840  0.5186 -0.0183  0.6787
  336MOL0     C46251   4.737  -0.392   6.879  0.1362  0.4410  0.4277
  336MOL0     C46252   4.693  -0.255   6.827  0.4022 -0.2748  0.3205
  336MOL0     C46253   4.754  -0.123   6.905 -0.3811 -0.5338 -0.3141
  336MOL0     O46254   4.899  -0.141   6.925 -0.1268 -0.1846  0.2397
  336MOL0     C46255   4.956  -0.025   6.977 -0.4347  0.8531 -1.0015
  336MOL0     C46256   5.089  -0.001   6.940  0.1750 -0.0770 -0.0289
  336MOL0     C46257   5.155   0.113   6.976  0.9461 -0.1213 -0.3808
  336MOL0     C46258   5.281   0.155   6.909  0.5666  0.2302  0.3933
  336MOL0     C46259   5.092   0.200   7.066  0.1407  0.5598 -0.7231
  336MOL0     C46260   5.147   0.327   7.100 -1.1147  0.0299 -0.3297
  336MOL0     O46261   5.139   0.421   7.005 -0.0779 -0.5761 -0.4494
  336MOL0     C46262   5.169   0.553   7.038  0.1746 -0.8398 -0.1990
  336MOL0     C46263   5.073   0.620   7.123 -0.7983  0.4803 -0.0400
  336MOL0     C46264   5.107   0.754   7.154  0.3821 -0.3054 -0.3208
  336MOL0     C46265   5.211   0.835   7.098  0.6071  0.2497  0.1668
  336MOL0     O46266   5.245   0.961   7.142  0.3582  0.3497 -0.3020
  336MOL0     C46267   5.222   1.073   7.061 -2.0407 -0.4577  0.1756
  336MOL0     C46268   5.242   1.214   7.121 -0.3382 -0.1152 -0.6078
  336MOL0     C46269   5.305   1.327   7.040 -0.8928 -0.0528  0.4322
  336MOL0     C46270   5.274   1.462   7.102  0.6184 -1.0704  0.0367
  336MOL0     C46271   5.332   1.581   7.015  0.2614  0.4129  0.4233
  336MOL0     C46272   5.443   1.660   7.079 -0.3882  0.4993  0.6325
  336MOL0     C46273   5.478   1.767   6.982 -0.2154 -0.5807 -0.8238
  336MOL0     C46274   5.599   1.856   7.028 -0.1107 -0.2963  0.2527
  336MOL0    Cl46275   5.731   1.760   7.107  0.4151  0.3654  0.0672
  336MOL0     C46276   5.294   0.771   7.005 -1.3339 -0.3036 -0.6294
  336MOL0     C46277   5.267   0.636   6.975 -0.7839  0.2004 -0.2653
  336MOL0     O46278   5.204   0.339   7.207  0.2232  0.3553 -0.9314
  336MOL0     C46279   4.970   0.166   7.121 -0.5588 -0.2875  0.4024
  336MOL0     C46280   4.900   0.058   7.078  0.4735  0.4172  1.5033
  336MOL0     N46281   4.610  -0.604   6.610  0.8214 -0.8396  0.0205
  336MOL0     N46282   4.666  -0.602   6.488  0.4349 -0.3221 -0.3107
  336MOL0     C46283   5.472   0.126   5.872 -0.0021 -0.3176 -0.2026
  336MOL0     C46284   5.537   0.236   5.815 -0.7767 -0.0316  0.1280
  336MOL0     C46285   5.746   0.581   5.655 -0.1761  1.0289  0.0643
  336MOL0     C46286   5.682   0.702   5.677 -0.1847 -0.6111 -0.6415
  336MOL0     C46287   5.701   0.817   5.604 -0.8783 -0.0403 -0.7708
  336MOL0     C46288   5.794   0.808   5.500 -0.5910 -0.0714  0.3241
  336MOL0     O46289   5.820   0.911   5.414  0.2527  0.2551 -0.2686
  336MOL0     C46290   5.796   1.043   5.460 -0.0762 -0.3375 -0.4296
  336MOL0     C46291   5.652   1.082   5.416 -0.6505  0.6794 -0.3287
  336MOL0     C46292   5.591   1.214   5.476 -0.1874  0.1379  0.2896
  336MOL0     C46293   5.456   1.256   5.404 -0.0320 -0.3058 -0.0200
  336MOL0     C46294   5.411   1.391   5.435  0.4530 -1.0038 -0.0068
  336MOL0     C46295   5.368   1.499   5.461  0.0170  0.0452 -0.2861
  336MOL0     C46296   5.863   0.688   5.478  0.2125 -0.5550 -0.1165
  336MOL0     C46297   5.836   0.571   5.548  0.3984 -0.3257 -0.8683
  336MOL0     C46298   5.918   0.446   5.491  1.2253 -0.2477 -0.5250
  336MOL0     H46299   5.514   0.467   6.067  0.0830 -0.6455  0.6055
  336MOL0     H46300   5.398   0.286   6.169 -3.7096 -1.0490 -0.3657
  336MOL0     H46301   5.307  -0.145   6.037 -2.3317 -0.8383 -1.4000
  336MOL0     H46302   5.285  -0.034   5.907  3.5314  0.2572  0.3728
  336MOL0     H46303   5.147   0.006   6.179 -1.3068 -2.5110 -0.0688
  336MOL0     H46304   5.107   0.082   6.028 -2.1748 -1.6217 -3.1635
  336MOL0     H46305   4.940  -0.063   6.068 -0.4207  1.4733 -1.4672
  336MOL0     H46306   5.042  -0.119   5.929 -1.0704  0.7976  0.1019
  336MOL0     H46307   5.160  -0.268   6.107  1.0375  2.5784 -0.2861
  336MOL0     H46308   5.026  -0.211   6.216 -2.2125 -0.3288 -0.9425
  336MOL0     H46309   4.956  -0.366   5.972  1.1659  0.5214  0.2546
  336MOL0     H46310   4.848  -0.308   6.101 -1.0577 -2.0217  1.7019
  336MOL0     H46311   4.928  -0.548   6.118 -0.8523 -0.5614  1.1807
  336MOL0     H46312   5.081  -0.485   6.188 -0.5569 -2.5035 -1.1386
  336MOL0     H46313   4.788  -0.447   6.301 -1.3750 -3.3249  2.3276
  336MOL0     H46314   4.933  -0.378   6.377  0.2727 -0.2636  0.2424
  336MOL0     H46315   4.886  -0.677   6.331  0.3188  0.8972  0.3740
  336MOL0     H46316   4.992  -0.598   6.437 -1.3377 -2.2939  2.8089
  336MOL0     H46317   4.899  -0.471   6.661 -1.6342  1.2406  3.8795
  336MOL0     H46318   4.693  -0.598   6.901 -3.9499 -1.9776  0.4818
  336MOL0     H46319   4.556  -0.497   6.856 -0.3840 -3.4108 -1.2733
  336MOL0     H46320   4.718  -0.383   6.986 -4.4320  3.9757 -0.3939
  336MOL0     H46321   4.846  -0.402   6.869  0.0358 -0.0064 -0.3352
  336MOL0     H46322   4.728  -0.245   6.724  3.4949  2.0912  1.4525
  336MOL0     H46323   4.584  -0.246   6.820  0.5488  1.0191 -0.6557
  336MOL0     H46324   4.734  -0.032   6.848  0.3821  0.9398  1.6547
  336MOL0     H46325   4.702  -0.114   7.000 -0.0298  0.6215 -0.2173
  336MOL0     H46326   5.127  -0.077   6.872  1.4849 -0.8289  1.4596
  336MOL0     H46327   5.350   0.141   6.994  1.9360  0.2306 -0.6846
  336MOL0     H46328   5.285   0.256   6.869 -0.2925 -0.0217 -0.3468
  336MOL0     H46329   5.309   0.082   6.833 -1.6165  0.7513 -0.9871
  336MOL0     H46330   4.999   0.564   7.178 -0.0312 -0.1605  0.3505
  336MOL0     H46331   5.034   0.792   7.225 -0.0306 -0.8826 -0.4306
  336MOL0     H46332   5.286   1.073   6.973 -1.1065  3.4606  0.6455
  336MOL0     H46333   5.117   1.076   7.030 -1.6442 -0.7236 -1.2689
  336MOL0     H46334   5.144   1.245   7.158 -1.2465 -1.2952 -1.9212
  336MOL0     H46335   5.301   1.197   7.211  1.8568 -0.5677 -2.0643
  336MOL0     H46336   5.261   1.323   6.939  0.7913 -3.2657 -0.3072
  336MOL0     H46337   5.412   1.309   7.030 -1.1103 -1.8757  1.0145
  336MOL0     H46338   5.300   1.478   7.207 -1.0364 -1.2466  0.4993
  336MOL0     H46339   5.167   1.477   7.117  1.1791  0.8752  2.9400
  336MOL0     H46340   5.372   1.542   6.921  1.4123  1.8089  0.2983
  336MOL0     H46341   5.244   1.645   7.006  0.5277  1.0756  2.1725
  336MOL0     H46342   5.526   1.590   7.095  1.1147  1.3271 -2.7349
  336MOL0     H46343   5.414   1.701   7.176 -1.1734 -0.6310  0.8998
  336MOL0     H46344   5.393   1.834   6.968 -0.9425 -0.7968  1.9040
  336MOL0     H46345   5.498   1.720   6.885 -0.8987  1.9437 -2.2565
  336MOL0     H46346   5.559   1.927   7.101  0.9226 -0.7669  1.3137
  336MOL0     H46347   5.631   1.911   6.939 -1.4589  4.5714  2.4684
  336MOL0     H46348   5.379   0.826   6.965 -0.6337  0.3387  1.5679
  336MOL0     H46349   5.326   0.585   6.899  0.2838  2.3756 -0.9687
  336MOL0     H46350   4.928   0.230   7.197 -1.5594  0.0013 -0.3744
  336MOL0     H46351   4.818   0.033   7.145 -1.4161  2.1008 -0.0609
  336MOL0     H46352   5.487   0.026   5.831  1.2288 -0.9222  1.5760
  336MOL0     H46353   5.592   0.222   5.723 -2.8109 -0.1768 -1.1203
  336MOL0     H46354   5.617   0.703   5.764  1.7639 -1.1715  0.8959
  336MOL0     H46355   5.637   0.900   5.632 -0.7072 -0.4882  1.1022
  336MOL0     H46356   5.815   1.061   5.566  1.7611  1.9033 -1.0437
  336MOL0     H46357   5.872   1.105   5.411 -0.4054 -0.4519 -1.0971
  336MOL0     H46358   5.581   1.003   5.439 -2.5967  2.4592  0.0782
  336MOL0     H46359   5.657   1.084   5.307  2.3855 -3.5601 -0.5073
  336MOL0     H46360   5.575   1.206   5.584  1.8496  1.6258  0.7606
  336MOL0     H46361   5.667   1.291   5.460  0.3216 -0.7586 -2.1325
  336MOL0     H46362   5.387   1.175   5.431  2.2975 -2.4077  0.0422
  336MOL0     H46363   5.465   1.245   5.296  1.2417 -2.3514  0.2407
  336MOL0     H46364   5.333   1.599   5.479 -0.2947 -0.0532 -0.3366
  336MOL0     H46365   5.946   0.676   5.409  4.1261 -3.6691  4.4600
  336MOL0     H46366   6.022   0.441   5.524  0.7514  1.3299  1.4433
  336MOL0     H46367   5.863   0.352   5.497  0.4684  0.2609  1.2277
  336MOL0     H46368   5.923   0.467   5.384  1.9087  3.3076  0.0777
  337MOL0     O46369   9.021   5.035   1.814 -0.5304 -0.2926 -0.1871
  337MOL0     C46370   9.104   5.033   1.903 -0.5394 -0.5796 -0.5035
  337MOL0     O46371   9.078   5.063   2.044 -0.2370 -0.2937  0.1484
  337MOL0     C46372   8.971   5.136   2.074  0.0456 -1.7417  0.0542
  337MOL0     C46373   8.979   5.248   2.162  0.5047 -0.7043  0.0288
  337MOL0     C46374   8.872   5.334   2.182  0.7846 -0.4345  0.8183
  337MOL0     C46375   8.740   5.308   2.125 -0.4492 -0.0057  0.1436
  337MOL0     O46376   8.630   5.393   2.138  0.0908  0.3348  0.0724
  337MOL0     C46377   8.497   5.340   2.113  0.0927  0.6172 -0.2807
  337MOL0     C46378   8.387   5.437   2.174 -0.7501 -0.0331 -0.3811
  337MOL0     C46379   8.436   5.503   2.306 -0.0330 -0.1694  0.7841
  337MOL0     C46380   8.319   5.527   2.403  0.1524  0.1252 -0.5123
  337MOL0     C46381   8.374   5.631   2.515 -0.2820  0.5720  0.1066
  337MOL0     C46382   8.266   5.681   2.620  0.1462 -0.2279 -0.0103
  337MOL0     C46383   8.256   5.570   2.721 -0.0130  0.2324  0.0745
  337MOL0     C46384   8.138   5.567   2.820  0.0768 -0.0002 -0.2864
  337MOL0     N46385   8.108   5.706   2.862  0.7315  0.2427 -0.1679
  337MOL0     C46386   8.198   5.789   2.919  0.8760 -0.4150 -0.2121
  337MOL0     C46387   8.133   5.903   2.929  0.1748 -0.2129  1.0161
  337MOL0     C46388   8.177   6.017   3.009  0.0042 -0.0643 -0.5478
  337MOL0     C46389   8.221   6.135   2.921  0.5070  0.5422  0.1059
  337MOL0     C46390   8.227   6.268   3.004 -0.8228  0.5454  0.9635
  337MOL0     C46391   8.254   6.382   2.900  0.5458 -0.2337 -0.8540
  337MOL0     O46392   8.162   6.384   2.784  0.3007  0.7440  1.1337
  337MOL0     C46393   8.027   6.430   2.796 -0.5220  0.1756 -0.2296
  337MOL0     C46394   7.939   6.415   2.691  0.5349  0.4152  0.5478
  337MOL0     C46395   7.802   6.456   2.709  0.4060 -0.4508  0.2334
  337MOL0     C46396   7.719   6.422   2.595  0.1191 -0.0146 -0.3409
  337MOL0     C46397   7.763   6.534   2.821  0.2649 -0.6156  0.1791
  337MOL0     C46398   7.634   6.582   2.849  0.7246  0.3981  0.0442
  337MOL0     O46399   7.534   6.530   2.778  0.7814 -0.9457 -0.0009
  337MOL0     C46400   7.399   6.560   2.782 -0.4887 -0.7043  0.3080
  337MOL0     C46401   7.320   6.646   2.872 -0.1862  0.0758 -0.4658
  337MOL0     C46402   7.180   6.658   2.861 -1.0202  1.0429 -0.3582
  337MOL0     C46403   7.116   6.594   2.751  0.3239  0.1363  0.0681
  337MOL0     O46404   6.976   6.593   2.723 -0.2752 -0.1827 -0.4795
  337MOL0     C46405   6.889   6.666   2.820 -0.4066 -0.4335  0.6663
  337MOL0     C46406   6.898   6.817   2.800 -0.3909  0.2896 -0.2499
  337MOL0     C46407   6.877   6.852   2.657 -0.8497  1.0890  0.3749
  337MOL0     C46408   6.880   7.003   2.623  1.1105 -0.2883  0.4698
  337MOL0     C46409   6.845   7.020   2.468  0.3665 -0.7756 -0.8177
  337MOL0     C46410   6.848   7.172   2.439 -1.2718 -1.1259 -0.5274
  337MOL0     C46411   6.831   7.203   2.290  0.7830  0.2653  0.6974
  337MOL0     C46412   6.945   7.286   2.237 -0.2194  0.0682  0.3070
  337MOL0    Cl46413   6.907   7.327   2.066 -0.7258  0.0279 -0.0533
  337MOL0     C46414   7.184   6.515   2.667 -0.5097  0.2030 -0.0283
  337MOL0     C46415   7.327   6.508   2.680 -0.1324 -0.0487  0.7806
  337MOL0     O46416   7.625   6.686   2.911 -0.6212 -0.5157 -0.0620
  337MOL0     C46417   7.862   6.544   2.924 -0.1127  0.1402 -0.5456
  337MOL0     C46418   7.988   6.492   2.916 -0.5901 -0.0468 -0.4445
  337MOL0     N46419   8.008   5.887   2.884 -0.2855  0.0443  0.2569
  337MOL0     N46420   7.992   5.780   2.829 -0.1430 -0.2024  0.0969
  337MOL0     C46421   8.738   5.182   2.058 -0.3970 -0.0742 -0.7011
  337MOL0     C46422   8.847   5.105   2.027 -0.2918  0.4774  0.2084
  337MOL0     C46423   9.248   4.988   1.866  0.0650  0.0448  0.0725
  337MOL0     C46424   9.290   5.001   1.733 -0.5457  0.5155 -1.0036
  337MOL0     C46425   9.417   4.965   1.683 -0.1146 -0.2634 -0.4286
  337MOL0     C46426   9.520   4.918   1.775  0.6756  0.6602 -0.5929
  337MOL0     O46427   9.643   4.867   1.746 -0.5850  0.5370 -0.0134
  337MOL0     C46428   9.710   4.931   1.634  0.5141 -0.2703 -0.3031
  337MOL0     C46429   9.856   4.884   1.608 -0.1724 -0.3746 -0.1052
  337MOL0     C46430   9.923   4.996   1.528  0.1963 -0.2926  0.5927
  337MOL0     C46431  10.072   4.992   1.506  1.1460  0.1413 -0.8028
  337MOL0     C46432  10.140   5.003   1.634  0.5702  0.2454  0.1170
  337MOL0     C46433  10.200   5.004   1.736  0.0740 -0.3777 -0.6823
  337MOL0     C46434   9.476   4.896   1.910 -0.4909 -0.3338 -0.2529
  337MOL0     C46435   9.346   4.930   1.955 -0.1816 -0.4532 -0.1502
  337MOL0     C46436   9.321   4.892   2.100 -0.0343  0.0074  0.9248
  337MOL0     H46437   9.067   5.272   2.221 -0.1911  0.5743  0.5620
  337MOL0     H46438   8.874   5.422   2.245  2.1165  0.8729 -0.9517
  337MOL0     H46439   8.488   5.248   2.171 -1.1208  2.4684  2.7078
  337MOL0     H46440   8.483   5.319   2.007 -0.0676 -2.5142  0.2591
  337MOL0     H46441   8.367   5.511   2.096  1.1315  1.3676  0.3923
  337MOL0     H46442   8.295   5.381   2.196 -0.0154 -1.1961 -0.1761
  337MOL0     H46443   8.516   5.436   2.339 -0.0726 -0.7671 -0.2667
  337MOL0     H46444   8.469   5.601   2.271  0.0198  0.2777  2.0545
  337MOL0     H46445   8.235   5.566   2.345  0.3063 -0.4385 -1.1294
  337MOL0     H46446   8.281   5.431   2.440  1.9362 -1.5747 -2.8263
  337MOL0     H46447   8.407   5.715   2.454 -1.4973  0.7119 -0.4018
  337MOL0     H46448   8.452   5.573   2.565 -1.5920 -0.6675  0.8306
  337MOL0     H46449   8.303   5.771   2.670  1.5638  0.4489 -2.1044
  337MOL0     H46450   8.174   5.710   2.569  0.7296  1.0668 -0.3834
  337MOL0     H46451   8.354   5.564   2.770  0.0185 -0.3541 -0.0516
  337MOL0     H46452   8.252   5.479   2.660  1.4553  0.8147 -0.9670
  337MOL0     H46453   8.052   5.517   2.775  1.0783 -1.9876 -0.0611
  337MOL0     H46454   8.162   5.499   2.902  0.2057 -1.2287 -1.3147
  337MOL0     H46455   8.294   5.763   2.963  0.4472 -2.7551 -0.4830
  337MOL0     H46456   8.258   5.986   3.076 -0.5735  2.4841  1.4511
  337MOL0     H46457   8.089   6.044   3.068  1.8930  4.9191  0.4729
  337MOL0     H46458   8.323   6.112   2.887  1.0601 -0.7650  2.4292
  337MOL0     H46459   8.150   6.135   2.839  0.3845  0.5789  0.2112
  337MOL0     H46460   8.128   6.283   3.048 -2.1217 -2.4611 -0.6098
  337MOL0     H46461   8.299   6.277   3.086  1.0898  5.0231 -0.9066
  337MOL0     H46462   8.236   6.479   2.948  3.0517  0.4613 -1.1351
  337MOL0     H46463   8.361   6.373   2.876  1.7476  4.2746  1.5852
  337MOL0     H46464   7.972   6.367   2.599 -2.3739 -1.8600  0.5476
  337MOL0     H46465   7.689   6.517   2.550  4.3188  0.1620 -3.3050
  337MOL0     H46466   7.629   6.369   2.628  0.0032 -0.1504 -0.8731
  337MOL0     H46467   7.779   6.368   2.522 -0.9520 -0.2203 -1.0971
  337MOL0     H46468   7.357   6.718   2.944 -4.0133  1.2171  0.6121
  337MOL0     H46469   7.145   6.722   2.940  1.7389 -1.9273  3.6511
  337MOL0     H46470   6.787   6.626   2.815 -0.3933 -0.5891  1.4281
  337MOL0     H46471   6.921   6.655   2.924 -0.0296  2.0785  0.8857
  337MOL0     H46472   6.822   6.863   2.864 -1.2393 -1.9724  0.4978
  337MOL0     H46473   6.982   6.876   2.838 -1.5406  1.2277  0.9399
  337MOL0     H46474   6.790   6.800   2.616  1.9449 -3.7506 -0.1750
  337MOL0     H46475   6.955   6.795   2.607 -1.9007 -0.5236  0.4778
  337MOL0     H46476   6.972   7.050   2.658  0.9916 -0.7884  1.5106
  337MOL0     H46477   6.802   7.043   2.689  0.7714  0.1874 -0.2035
  337MOL0     H46478   6.906   6.962   2.398  0.5491 -3.9567  1.7511
  337MOL0     H46479   6.739   6.997   2.450  0.6348 -1.7731 -1.2244
  337MOL0     H46480   6.944   7.213   2.471 -1.0178 -1.1657 -1.2248
  337MOL0     H46481   6.774   7.229   2.497  1.8757  0.4466  2.2853
  337MOL0     H46482   6.731   7.244   2.269  1.2847  1.7406  1.0446
  337MOL0     H46483   6.830   7.107   2.238  0.9078 -0.4358  1.9620
  337MOL0     H46484   7.029   7.218   2.256 -1.8653 -2.1224  0.1096
  337MOL0     H46485   6.959   7.383   2.285 -0.9582  0.5221 -0.3582
  337MOL0     H46486   7.125   6.461   2.593  0.9340 -1.9672  0.3010
  337MOL0     H46487   7.372   6.431   2.618  2.1600 -0.0457  2.3351
  337MOL0     H46488   7.832   6.603   3.011 -0.3096  2.9616 -2.3995
  337MOL0     H46489   8.049   6.517   3.002 -2.7701  2.1048  0.5935
  337MOL0     H46490   8.645   5.140   2.020 -1.3193  1.2205  0.0019
  337MOL0     H46491   8.829   5.011   1.976  0.4601  0.7777 -0.6377
  337MOL0     H46492   9.209   5.029   1.666 -1.0461 -1.3022 -1.1978
  337MOL0     H46493   9.423   4.965   1.574 -3.3389  0.4219 -0.6982
  337MOL0     H46494   9.655   4.910   1.542  0.2833  2.8817 -0.9971
  337MOL0     H46495   9.709   5.040   1.644  1.8094 -0.2055 -0.5636
  337MOL0     H46496   9.855   4.784   1.565 -0.4176 -0.7732  0.8019
  337MOL0     H46497   9.900   4.869   1.707 -1.4482 -0.9553  0.3932
  337MOL0     H46498   9.874   4.993   1.430  1.5158 -1.6907 -0.0657
  337MOL0     H46499   9.904   5.100   1.556  0.3567  0.8197 -2.9535
  337MOL0     H46500  10.103   5.073   1.439  3.2793  1.0589  1.1355
  337MOL0     H46501  10.113   4.902   1.460  1.3997 -0.9438  1.4339
  337MOL0     H46502  10.264   5.022   1.820 -0.0791 -2.3427 -0.0847
  337MOL0     H46503   9.544   4.851   1.982 -0.7996  0.9413  0.8874
  337MOL0     H46504   9.416   4.919   2.147  1.1902 -1.7563 -0.3933
  337MOL0     H46505   9.242   4.945   2.153  1.4940  0.7782  2.5278
  337MOL0     H46506   9.317   4.783   2.108  1.2640 -0.1096  0.2035
  338MOL0     O46507   4.014   7.750   4.789 -0.6412 -0.6169  1.1720
  338MOL0     C46508   3.953   7.813   4.693  0.2994  0.6117 -0.8360
  338MOL0     O46509   3.842   7.772   4.620 -0.5694  0.6982  0.0574
  338MOL0     C46510   3.799   7.640   4.637 -0.9723 -0.6802  0.1597
  338MOL0     C46511   3.678   7.608   4.695  0.0672  0.2393  0.4394
  338MOL0     C46512   3.651   7.475   4.721 -0.6079 -0.3594  0.3937
  338MOL0     C46513   3.741   7.374   4.682  0.7953 -0.0321 -0.2349
  338MOL0     O46514   3.712   7.243   4.712 -0.4437  0.1383  0.6288
  338MOL0     C46515   3.699   7.149   4.603  0.1681 -0.4165 -0.0468
  338MOL0     C46516   3.583   7.049   4.635  0.4794 -0.8693 -0.3061
  338MOL0     C46517   3.605   6.953   4.746 -0.2162 -1.0645 -0.2762
  338MOL0     C46518   3.535   6.998   4.876  1.1096  0.2440  0.5986
  338MOL0     C46519   3.538   6.894   4.984 -0.4458  0.7561  0.0871
  338MOL0     C46520   3.519   6.749   4.953 -0.1207  0.0683 -0.1783
  338MOL0     C46521   3.521   6.660   5.084 -0.1820  0.5044  0.8507
  338MOL0     C46522   3.416   6.692   5.197 -0.1076 -0.4226  0.1264
  338MOL0     N46523   3.278   6.685   5.146  0.1215 -0.1679  0.7531
  338MOL0     C46524   3.196   6.788   5.101  0.2783 -0.1665 -0.7480
  338MOL0     C46525   3.080   6.726   5.063  0.3124 -0.9031 -1.4668
  338MOL0     C46526   2.952   6.797   5.010 -0.3401  0.6996  0.0285
  338MOL0     C46527   2.838   6.703   4.977 -0.3600  0.6701 -0.8210
  338MOL0     C46528   2.748   6.773   4.879 -0.5137  0.4634  0.1026
  338MOL0     C46529   2.623   6.697   4.845 -0.0444 -0.4631 -0.0659
  338MOL0     O46530   2.499   6.746   4.918 -0.0276  0.2539  0.2752
  338MOL0     C46531   2.412   6.663   4.983  0.1686 -0.9893  0.2021
  338MOL0     C46532   2.451   6.544   5.044 -0.0480  1.4856  0.5791
  338MOL0     C46533   2.359   6.450   5.091  0.1513 -0.1977 -0.6050
  338MOL0     C46534   2.411   6.344   5.178 -0.2251  0.1181 -0.2998
  338MOL0     C46535   2.225   6.472   5.073  0.6124 -0.3774  0.3506
  338MOL0     C46536   2.120   6.383   5.112  0.9496 -0.9193  0.0282
  338MOL0     O46537   2.004   6.446   5.155 -0.7004 -0.0454 -0.4473
  338MOL0     C46538   1.900   6.362   5.194  0.3514  0.0237 -0.4211
  338MOL0     C46539   1.849   6.256   5.120  0.4176 -0.7327  0.2589
  338MOL0     C46540   1.733   6.181   5.164  0.4027 -0.0816  0.5487
  338MOL0     C46541   1.672   6.227   5.278 -0.1294 -0.0121 -0.1319
  338MOL0     O46542   1.556   6.155   5.305 -0.0489 -0.8296  0.6693
  338MOL0     C46543   1.474   6.206   5.409  0.0418 -0.1456 -0.4157
  338MOL0     C46544   1.344   6.122   5.422 -0.0008  0.7958  0.0220
  338MOL0     C46545   1.260   6.140   5.554  0.3180  0.9054 -0.6132
  338MOL0     C46546   1.200   6.286   5.551  0.5414  0.7302  0.1339
  338MOL0     C46547   1.133   6.330   5.687 -0.2935 -0.5170  0.6069
  338MOL0     C46548   1.240   6.338   5.805  0.5965  0.4744  0.0474
  338MOL0     C46549   1.173   6.416   5.923  0.1044 -0.2862  0.0153
  338MOL0     C46550   1.257   6.434   6.048 -0.8483 -0.4784 -0.4303
  338MOL0    Cl46551   1.396   6.551   6.027  0.0426 -0.1120  0.0330
  338MOL0     C46552   1.726   6.330   5.356 -1.0508  0.0555 -1.3190
  338MOL0     C46553   1.835   6.399   5.313 -0.1786 -0.4305  0.9003
  338MOL0     O46554   2.142   6.260   5.102 -0.0633  0.4884 -0.0139
  338MOL0     C46555   2.188   6.607   5.029 -1.0825  0.9237 -0.1852
  338MOL0     C46556   2.282   6.691   4.969  0.7063 -0.7059 -0.7640
  338MOL0     N46557   3.087   6.594   5.087 -0.5615  0.1252  0.1301
  338MOL0     N46558   3.201   6.570   5.142 -1.1729 -0.4964 -0.0261
  338MOL0     C46559   3.859   7.405   4.627  0.4788  0.3102  0.0621
  338MOL0     C46560   3.887   7.539   4.599 -0.6219 -0.6886 -0.6562
  338MOL0     C46561   3.990   7.962   4.674  0.1867  0.1264  0.4553
  338MOL0     C46562   4.065   8.020   4.778 -0.1277  0.0556 -0.1320
  338MOL0     C46563   4.091   8.157   4.773  0.3199 -0.1367 -0.1777
  338MOL0     C46564   4.049   8.240   4.675  1.2658 -0.3317 -0.4474
  338MOL0     O46565   4.072   8.377   4.674  1.0344  0.0860 -0.4231
  338MOL0     C46566   4.203   8.433   4.703  0.0641  0.0080  0.4961
  338MOL0     C46567   4.297   8.413   4.583 -0.1990  0.6221  0.0425
  338MOL0     C46568   4.442   8.468   4.592  0.0571 -0.5245  0.6921
  338MOL0     C46569   4.483   8.489   4.450 -0.9130  0.2606  0.3821
  338MOL0     C46570   4.619   8.557   4.443 -0.3485  0.0496  0.4433
  338MOL0     C46571   4.721   8.621   4.434  0.2983  0.1271  0.5915
  338MOL0     C46572   3.974   8.187   4.568  0.4989 -0.2612 -1.0398
  338MOL0     C46573   3.946   8.045   4.561  0.2354 -0.8859  0.7920
  338MOL0     C46574   3.882   7.993   4.435  1.0679  0.0557  0.2690
  338MOL0     H46575   3.615   7.692   4.723 -3.8233 -2.1809 -0.3305
  338MOL0     H46576   3.552   7.450   4.759 -0.8504  1.9855  1.4877
  338MOL0     H46577   3.796   7.098   4.598  0.2534 -0.2899  0.2577
  338MOL0     H46578   3.685   7.193   4.504  1.8147 -1.3129 -0.7172
  338MOL0     H46579   3.497   7.115   4.650  0.3488 -0.4335 -2.6144
  338MOL0     H46580   3.564   6.984   4.549 -3.8848 -3.3045  2.1294
  338MOL0     H46581   3.561   6.859   4.713  0.3554 -0.7537 -2.0779
  338MOL0     H46582   3.713   6.939   4.755 -0.5336 -2.7133  1.3419
  338MOL0     H46583   3.581   7.088   4.916  2.8040 -1.1884  2.0444
  338MOL0     H46584   3.430   7.027   4.863  1.2668  1.2934  1.4981
  338MOL0     H46585   3.454   6.916   5.051 -2.4537  1.2897 -2.4617
  338MOL0     H46586   3.632   6.917   5.036 -0.8348  4.2246 -0.5101
  338MOL0     H46587   3.425   6.725   4.903  2.1358  0.0734 -4.9648
  338MOL0     H46588   3.595   6.715   4.882  1.2668  2.1832  0.2188
  338MOL0     H46589   3.620   6.664   5.129 -0.1610 -1.6321  1.1145
  338MOL0     H46590   3.508   6.553   5.069 -0.2487  0.0768  3.4568
  338MOL0     H46591   3.434   6.629   5.285 -1.8717  1.6740  2.1288
  338MOL0     H46592   3.425   6.793   5.240 -4.8472  0.2364  0.1539
  338MOL0     H46593   3.216   6.895   5.097  1.4472 -0.4120 -2.5485
  338MOL0     H46594   2.976   6.854   4.920  1.3642 -1.7352 -1.1709
  338MOL0     H46595   2.922   6.863   5.092 -1.1335 -1.0579  1.2159
  338MOL0     H46596   2.873   6.611   4.929  1.7534  1.5248 -1.0500
  338MOL0     H46597   2.793   6.657   5.065 -0.5148 -0.6959 -1.5948
  338MOL0     H46598   2.713   6.872   4.911 -3.0489  0.9658 -3.5546
  338MOL0     H46599   2.798   6.795   4.784  1.5752 -0.7873  0.8523
  338MOL0     H46600   2.616   6.707   4.736  0.6079 -0.8288 -0.1493
  338MOL0     H46601   2.645   6.592   4.867 -1.7576 -0.8685 -0.1507
  338MOL0     H46602   2.558   6.528   5.045  0.2517  3.0082 -1.0036
  338MOL0     H46603   2.351   6.334   5.269  1.1870  2.4439  0.9809
  338MOL0     H46604   2.513   6.365   5.213  0.2978 -0.9666 -1.1117
  338MOL0     H46605   2.405   6.249   5.124 -1.8211  0.2650 -0.4245
  338MOL0     H46606   1.880   6.229   5.019 -0.6433  2.4866 -1.0511
  338MOL0     H46607   1.689   6.112   5.093 -0.2914  0.4893  0.4019
  338MOL0     H46608   1.524   6.219   5.505  0.4390  2.2826 -0.8763
  338MOL0     H46609   1.454   6.313   5.394  3.2878  1.6739  5.1460
  338MOL0     H46610   1.276   6.147   5.340 -0.3405  1.0285  0.3711
  338MOL0     H46611   1.374   6.018   5.406  0.0157  0.5985  1.2120
  338MOL0     H46612   1.332   6.119   5.634  0.5244 -2.4891 -1.5065
  338MOL0     H46613   1.185   6.061   5.541  1.5882 -0.2801 -0.9594
  338MOL0     H46614   1.125   6.268   5.474 -0.0889 -1.5907  1.1921
  338MOL0     H46615   1.280   6.358   5.532  1.4092 -0.8495 -2.6749
  338MOL0     H46616   1.084   6.427   5.678 -1.6861 -1.1886  0.7402
  338MOL0     H46617   1.052   6.268   5.725  0.4868 -0.4291  2.5373
  338MOL0     H46618   1.323   6.405   5.780 -0.1358  1.2013 -0.4951
  338MOL0     H46619   1.273   6.237   5.828 -0.1209  0.2027 -0.0985
  338MOL0     H46620   1.080   6.362   5.944  0.6460 -1.9181 -1.5764
  338MOL0     H46621   1.160   6.514   5.875  0.0259 -0.5934 -0.5883
  338MOL0     H46622   1.294   6.333   6.070 -2.0467 -1.1171 -1.2690
  338MOL0     H46623   1.195   6.463   6.133  2.2361 -0.6602  2.0721
  338MOL0     H46624   1.682   6.353   5.453 -2.6973 -2.0168 -1.5051
  338MOL0     H46625   1.873   6.484   5.369  1.7533  1.7456 -3.2555
  338MOL0     H46626   2.084   6.637   5.021 -1.1998  0.0752 -2.6480
  338MOL0     H46627   2.249   6.777   4.912 -3.0764 -1.7224 -0.3593
  338MOL0     H46628   3.927   7.324   4.604 -0.9213 -0.6464 -0.8306
  338MOL0     H46629   3.983   7.560   4.551 -0.6009  0.6759 -0.0561
  338MOL0     H46630   4.101   7.965   4.865  0.2266  1.6979  0.8057
  338MOL0     H46631   4.154   8.197   4.851  1.5606 -3.4742  0.7162
  338MOL0     H46632   4.189   8.538   4.730  0.3372  0.7658 -2.0175
  338MOL0     H46633   4.256   8.390   4.789  1.8243  3.6624  1.4547
  338MOL0     H46634   4.250   8.456   4.495 -3.1543  1.2657  1.8081
  338MOL0     H46635   4.310   8.305   4.588  0.6388  0.6997 -0.2003
  338MOL0     H46636   4.441   8.557   4.656  0.2463  1.3884 -1.7832
  338MOL0     H46637   4.512   8.405   4.647  1.1370 -1.0797 -1.2015
  338MOL0     H46638   4.411   8.552   4.397 -0.7051  0.0354 -0.1766
  338MOL0     H46639   4.486   8.392   4.399  0.6561 -2.2893  4.8486
  338MOL0     H46640   4.811   8.678   4.420  0.9359 -0.9689  0.0521
  338MOL0     H46641   3.941   8.252   4.487  0.6614 -0.1978 -1.0554
  338MOL0     H46642   3.869   8.072   4.361 -2.3831  1.6109  2.2808
  338MOL0     H46643   3.935   7.904   4.402  1.4832  0.0241  0.9918
  338MOL0     H46644   3.779   7.959   4.453  1.3639 -1.3090 -0.4586
  339MOL0     O46645   8.554   5.044   7.937 -0.4514  0.0937  0.1624
  339MOL0     C46646   8.487   5.116   8.006 -0.2063 -0.9434 -0.4364
  339MOL0     O46647   8.348   5.112   8.002 -0.3748 -0.0798  0.9830
  339MOL0     C46648   8.293   5.045   7.896  0.6612  0.3967  0.2692
  339MOL0     C46649   8.212   5.117   7.802  0.0532  0.5795 -0.9527
  339MOL0     C46650   8.147   5.042   7.701 -0.3607 -0.2688  0.0410
  339MOL0     C46651   8.150   4.908   7.682 -0.3901 -0.0002 -0.4339
  339MOL0     O46652   8.080   4.844   7.584  1.3929 -0.0207 -0.7203
  339MOL0     C46653   8.169   4.776   7.492  0.3743 -0.0675 -0.1627
  339MOL0     C46654   8.094   4.645   7.452 -0.4166  0.5338 -0.3405
  339MOL0     C46655   8.082   4.554   7.583 -1.5071 -0.9444  0.0577
  339MOL0     C46656   8.092   4.410   7.542  0.5712  0.3838  0.8621
  339MOL0     C46657   7.963   4.370   7.464 -0.2031 -0.5129 -0.0012
  339MOL0     C46658   7.979   4.226   7.416  0.1707  0.3563 -0.4003
  339MOL0     C46659   7.836   4.184   7.377 -0.2323 -0.4767  0.2786
  339MOL0     C46660   7.809   4.043   7.318 -0.3752  0.1335  0.1176
  339MOL0     N46661   7.892   4.017   7.198 -0.0991 -0.8364  0.3281
  339MOL0     C46662   7.873   4.088   7.091 -0.8146  0.2475  1.0730
  339MOL0     C46663   7.960   4.035   6.994  0.4682  0.2225 -0.5720
  339MOL0     C46664   7.947   4.064   6.846  0.3814 -0.2664  0.3947
  339MOL0     C46665   7.798   4.088   6.808  0.8595 -0.2714  0.0140
  339MOL0     C46666   7.778   4.102   6.656  0.8392  0.4516 -0.1938
  339MOL0     C46667   7.624   4.115   6.619 -0.8230  0.3834 -0.2073
  339MOL0     O46668   7.558   3.988   6.654  0.1560  0.1187  0.2748
  339MOL0     C46669   7.420   3.981   6.641 -0.6254 -0.5457 -1.0970
  339MOL0     C46670   7.360   3.855   6.666  0.7062  0.3579 -0.1782
  339MOL0     C46671   7.218   3.845   6.680 -0.8888 -0.7719  0.1557
  339MOL0     C46672   7.166   3.708   6.709  1.4262  1.0046 -0.1440
  339MOL0     C46673   7.149   3.969   6.690 -0.5254  0.8461 -0.6222
  339MOL0     C46674   7.002   3.979   6.716  0.7666 -0.3727  1.0229
  339MOL0     O46675   6.929   3.877   6.658  0.8744 -0.0102 -0.4308
  339MOL0     C46676   6.793   3.849   6.698 -0.3638 -0.2015 -0.2407
  339MOL0     C46677   6.709   3.905   6.809 -0.6792 -0.0001 -0.1333
  339MOL0     C46678   6.590   3.852   6.848 -0.6492 -0.4916  0.1342
  339MOL0     C46679   6.545   3.734   6.781 -0.2849 -0.5655  0.6374
  339MOL0     O46680   6.442   3.667   6.839  0.3655  0.4037 -0.5051
  339MOL0     C46681   6.415   3.529   6.799 -0.5720 -0.3405 -1.0421
  339MOL0     C46682   6.533   3.433   6.837  0.1133  0.0645 -0.0229
  339MOL0     C46683   6.502   3.371   6.975 -0.0444 -1.0210 -0.4026
  339MOL0     C46684   6.515   3.451   7.106 -0.7277  0.3160  0.1135
  339MOL0     C46685   6.651   3.530   7.128 -0.4829  0.6100 -0.0797
  339MOL0     C46686   6.663   3.584   7.274 -0.5336 -0.7646  0.4298
  339MOL0     C46687   6.791   3.660   7.315 -0.2092 -0.1345  0.5540
  339MOL0     C46688   6.826   3.779   7.216  0.2760  0.0053  0.2585
  339MOL0    Cl46689   6.702   3.914   7.228  0.2340  0.0528  0.0472
  339MOL0     C46690   6.622   3.690   6.673  0.1934  0.1232  0.4523
  339MOL0     C46691   6.740   3.749   6.622 -0.0683  1.0342  0.4411
  339MOL0     O46692   6.950   4.072   6.778  0.2236  0.3057  0.0648
  339MOL0     C46693   7.206   4.094   6.663  0.3332 -0.4783  1.1796
  339MOL0     C46694   7.341   4.097   6.630  0.7911  0.6732 -0.4374
  339MOL0     N46695   8.044   3.950   7.064 -0.0509 -0.2397  0.1554
  339MOL0     N46696   8.013   3.949   7.194  1.0706  0.6013  0.6413
  339MOL0     C46697   8.237   4.838   7.775  1.1102  0.3361 -0.6363
  339MOL0     C46698   8.295   4.907   7.887 -0.1802  0.3693 -0.5770
  339MOL0     C46699   8.551   5.217   8.097  1.6887 -0.4784  0.1992
  339MOL0     C46700   8.469   5.295   8.184 -0.6048  0.1042  0.1848
  339MOL0     C46701   8.528   5.404   8.258  0.9553 -1.2512  0.3274
  339MOL0     C46702   8.663   5.431   8.257 -0.0632  0.3804  0.4077
  339MOL0     O46703   8.712   5.534   8.329  0.2448  0.2013  0.3866
  339MOL0     C46704   8.832   5.600   8.310 -0.9102 -0.2913  1.0575
  339MOL0     C46705   8.842   5.722   8.403  0.5307 -0.3693  0.5868
  339MOL0     C46706   8.745   5.835   8.371 -0.1980  0.0051 -0.0639
  339MOL0     C46707   8.747   5.958   8.470  0.2077  1.5658  1.0342
  339MOL0     C46708   8.647   6.067   8.436  0.1328  0.5322 -0.4888
  339MOL0     C46709   8.579   6.168   8.421 -0.6889  0.1909 -0.4395
  339MOL0     C46710   8.745   5.350   8.169 -0.1640  1.2834 -0.7117
  339MOL0     C46711   8.693   5.247   8.092 -0.0911  0.0430  0.4060
  339MOL0     C46712   8.790   5.177   7.993 -0.0050 -0.9970  0.2647
  339MOL0     H46713   8.186   5.222   7.817  1.1141  1.4341 -4.1942
  339MOL0     H46714   8.077   5.090   7.634 -0.9715 -0.2148  0.7018
  339MOL0     H46715   8.272   4.759   7.527  0.5498 -3.7226 -1.9581
  339MOL0     H46716   8.169   4.830   7.397 -1.0336 -1.5244 -1.0343
  339MOL0     H46717   8.003   4.674   7.400  0.4298  3.0894 -0.5335
  339MOL0     H46718   8.154   4.593   7.377  0.8739  3.4689 -1.5119
  339MOL0     H46719   8.173   4.581   7.637 -0.2784 -0.2239 -2.2699
  339MOL0     H46720   7.992   4.580   7.641 -0.5465  4.6932 -0.4139
  339MOL0     H46721   8.182   4.394   7.481  1.6086  1.0395  2.1565
  339MOL0     H46722   8.103   4.352   7.635  1.8646  2.4279  2.0727
  339MOL0     H46723   7.953   4.431   7.374 -2.8066  1.1062  1.2527
  339MOL0     H46724   7.875   4.380   7.528 -1.0128 -0.0964 -1.1664
  339MOL0     H46725   8.050   4.212   7.334 -1.2244  2.2502 -2.0404
  339MOL0     H46726   8.001   4.155   7.495  2.0546  1.2114 -0.1116
  339MOL0     H46727   7.801   4.255   7.301 -1.4798 -0.4429  0.8735
  339MOL0     H46728   7.764   4.212   7.454  0.4657 -0.3565  0.8973
  339MOL0     H46729   7.841   3.971   7.394  1.7674  0.7325 -0.1371
  339MOL0     H46730   7.704   4.018   7.303 -0.6502  0.5954  1.1893
  339MOL0     H46731   7.800   4.165   7.070  1.0217  2.8667  3.4753
  339MOL0     H46732   7.982   3.978   6.787 -0.4519  0.0741 -0.6104
  339MOL0     H46733   8.014   4.145   6.816  1.1723 -0.6993  0.9374
  339MOL0     H46734   7.731   4.013   6.850  1.1666  0.2947  1.5860
  339MOL0     H46735   7.764   4.179   6.858 -2.8853 -1.1243 -0.7348
  339MOL0     H46736   7.815   4.198   6.620 -2.2927  1.6583 -0.5426
  339MOL0     H46737   7.834   4.029   6.598  2.6678  1.6448 -0.0230
  339MOL0     H46738   7.586   4.192   6.687  0.6449  1.0031 -0.0506
  339MOL0     H46739   7.602   4.143   6.515 -1.6608 -1.5576 -0.5992
  339MOL0     H46740   7.428   3.772   6.678 -1.0571 -0.8168  2.8999
  339MOL0     H46741   7.085   3.679   6.641  0.7159  0.7347  0.7928
  339MOL0     H46742   7.127   3.690   6.810  1.9458 -0.3932 -0.1641
  339MOL0     H46743   7.249   3.640   6.689  1.1892  1.5699 -3.7493
  339MOL0     H46744   6.754   3.977   6.876  0.6822  0.9552 -1.9890
  339MOL0     H46745   6.538   3.893   6.934  1.4626 -0.4190  1.4523
  339MOL0     H46746   6.320   3.499   6.846  0.5191  2.2054  3.3493
  339MOL0     H46747   6.404   3.530   6.690  1.0344  4.0473 -1.3373
  339MOL0     H46748   6.540   3.356   6.759 -1.3864  0.3721 -0.4996
  339MOL0     H46749   6.628   3.486   6.831  0.0790  0.5893  2.7345
  339MOL0     H46750   6.582   3.298   6.990  0.9743  0.5117  2.1793
  339MOL0     H46751   6.408   3.315   6.980  0.1994 -1.3463  0.8213
  339MOL0     H46752   6.489   3.390   7.193  3.4552 -1.9265  0.0691
  339MOL0     H46753   6.450   3.539   7.107 -0.8800  0.2826  3.1191
  339MOL0     H46754   6.740   3.473   7.101 -1.4233 -0.2493 -1.5004
  339MOL0     H46755   6.655   3.611   7.054 -0.1425  0.4620 -0.2271
  339MOL0     H46756   6.662   3.502   7.346  2.1327 -1.1048  0.1613
  339MOL0     H46757   6.577   3.651   7.286 -1.5524 -1.6125 -1.5927
  339MOL0     H46758   6.872   3.586   7.323 -0.1829 -0.1363  0.2938
  339MOL0     H46759   6.773   3.705   7.413  0.6405  2.0308 -0.2219
  339MOL0     H46760   6.841   3.744   7.113  0.2937 -1.4203  0.7189
  339MOL0     H46761   6.921   3.815   7.254 -0.4161  1.9444  0.2688
  339MOL0     H46762   6.567   3.613   6.620  2.2323  0.0670 -1.7811
  339MOL0     H46763   6.797   3.696   6.547 -2.1331  0.2584 -0.6425
  339MOL0     H46764   7.145   4.183   6.656 -0.4287 -1.0572  0.2028
  339MOL0     H46765   7.380   4.198   6.616  1.1666  1.2547  3.5612
  339MOL0     H46766   8.231   4.730   7.774 -1.7695  0.4200 -0.1882
  339MOL0     H46767   8.349   4.846   7.959  1.0563  1.4086 -0.5856
  339MOL0     H46768   8.363   5.271   8.189 -0.7385  0.5653 -0.3608
  339MOL0     H46769   8.460   5.468   8.312 -1.4496  0.0595 -3.7881
  339MOL0     H46770   8.920   5.545   8.345  2.0292  2.7922 -0.8127
  339MOL0     H46771   8.855   5.621   8.205 -0.6050 -1.5067  0.8690
  339MOL0     H46772   8.941   5.769   8.400 -0.8371  2.7747 -0.9669
  339MOL0     H46773   8.822   5.695   8.507 -4.4171  2.1273  0.5561
  339MOL0     H46774   8.741   5.866   8.266 -1.6361 -1.6416 -0.5287
  339MOL0     H46775   8.650   5.785   8.390  0.2818 -0.4738  1.1520
  339MOL0     H46776   8.848   5.998   8.460  0.5197  0.4086 -1.3704
  339MOL0     H46777   8.729   5.925   8.572  1.3689  1.0994  1.1010
  339MOL0     H46778   8.522   6.257   8.408 -0.2648  0.6081  0.4642
  339MOL0     H46779   8.852   5.368   8.166  0.2521 -0.6129  0.4533
  339MOL0     H46780   8.755   5.193   7.890 -1.7235  1.5656  1.1413
  339MOL0     H46781   8.884   5.232   8.002 -0.0089 -1.2442  2.2825
  339MOL0     H46782   8.803   5.076   8.033  3.1461  0.5694  3.7589
  340MOL0     O46783   1.899   7.252   1.968  0.0535 -0.4532 -0.1760
  340MOL0     C46784   1.871   7.179   2.061 -0.0272  0.3894  0.7016
  340MOL0     O46785   1.810   7.052   2.057 -0.8940 -0.3784 -0.0995
  340MOL0     C46786   1.785   7.009   1.929 -1.1038  0.3791  0.1522
  340MOL0     C46787   1.653   6.996   1.879  0.1503  0.4117  0.4804
  340MOL0     C46788   1.625   6.964   1.753  0.2468  0.8817  0.8380
  340MOL0     C46789   1.722   6.928   1.660 -1.4802  0.3028 -0.8569
  340MOL0     O46790   1.705   6.870   1.532 -0.0133 -0.6071 -0.7766
  340MOL0     C46791   1.587   6.799   1.498  0.6743  0.4521  1.1457
  340MOL0     C46792   1.575   6.661   1.576  0.3455  0.0194  0.7702
  340MOL0     C46793   1.444   6.596   1.543  0.4973  0.5123  0.2316
  340MOL0     C46794   1.437   6.448   1.579  0.7590 -0.2476 -0.2103
  340MOL0     C46795   1.291   6.410   1.534  0.4775  0.0641  0.6581
  340MOL0     C46796   1.252   6.265   1.553  0.6635  0.1012 -0.4563
  340MOL0     C46797   1.169   6.234   1.679  0.8087  0.5086 -0.1282
  340MOL0     C46798   1.024   6.303   1.676 -0.3276 -0.3751  0.8531
  340MOL0     N46799   0.950   6.259   1.793  0.3866 -1.1311 -0.4473
  340MOL0     C46800   0.966   6.299   1.926  0.8410  0.9343 -0.0701
  340MOL0     C46801   0.874   6.230   1.999 -0.3552  0.5638 -1.5465
  340MOL0     C46802   0.846   6.244   2.147 -1.0645 -0.1912  0.3768
  340MOL0     C46803   0.893   6.109   2.215 -0.6659  0.0763  0.0153
  340MOL0     C46804   0.780   6.025   2.267  0.4845 -0.6756  0.3055
  340MOL0     C46805   0.832   5.886   2.278 -0.2962  0.0365 -0.2079
  340MOL0     O46806   0.725   5.798   2.271 -0.6295  0.8932 -0.3367
  340MOL0     C46807   0.664   5.761   2.149 -0.0213 -1.3107 -0.5295
  340MOL0     C46808   0.690   5.800   2.019  0.0505 -0.3842  0.1891
  340MOL0     C46809   0.615   5.765   1.904 -0.4525 -0.4913 -0.1809
  340MOL0     C46810   0.656   5.828   1.775  0.1238 -0.1922  0.2457
  340MOL0     C46811   0.508   5.673   1.922  0.2776  0.3058 -1.3253
  340MOL0     C46812   0.406   5.647   1.822 -0.8329  0.2115 -1.1368
  340MOL0     O46813   0.298   5.577   1.862  0.7982 -0.2560 -0.2772
  340MOL0     C46814   0.208   5.538   1.766  0.4477  0.7220  0.1425
  340MOL0     C46815   0.170   5.405   1.757 -0.5096  0.2030 -0.6394
  340MOL0     C46816   0.058   5.359   1.677 -0.6985  0.0618  0.1748
  340MOL0     C46817  -0.025   5.456   1.623  0.1687  0.2165  0.1337
  340MOL0     O46818  -0.148   5.433   1.564 -0.4202  0.1902  0.3559
  340MOL0     C46819  -0.167   5.342   1.456 -0.2490  0.0874  0.7378
  340MOL0     C46820  -0.251   5.393   1.340  0.9290 -0.0363 -0.0296
  340MOL0     C46821  -0.388   5.454   1.383 -0.2364  0.6860 -0.2674
  340MOL0     C46822  -0.468   5.487   1.249 -0.7812  0.1280 -1.9084
  340MOL0     C46823  -0.616   5.534   1.272 -0.7991 -0.0991 -0.1288
  340MOL0     C46824  -0.670   5.593   1.144 -0.2247 -0.8237  0.7740
  340MOL0     C46825  -0.800   5.660   1.163  0.4266  1.1844 -0.3288
  340MOL0     C46826  -0.860   5.694   1.025  0.0638 -0.1172 -0.0660
  340MOL0    Cl46827  -0.940   5.558   0.953 -0.1688 -0.4968 -0.0558
  340MOL0     C46828   0.010   5.592   1.631 -0.8295 -0.1892  0.0143
  340MOL0     C46829   0.129   5.623   1.697  0.0674  0.0222  0.0229
  340MOL0     O46830   0.422   5.693   1.703 -0.5292 -0.3726  0.0829
  340MOL0     C46831   0.480   5.637   2.060 -1.1441  0.3331 -0.2613
  340MOL0     C46832   0.557   5.680   2.159  1.1734  1.2542 -0.7506
  340MOL0     N46833   0.804   6.143   1.913  0.5002  0.1271  0.1749
  340MOL0     N46834   0.846   6.167   1.790  0.4721  0.2777  0.5372
  340MOL0     C46835   1.852   6.938   1.702 -0.9423  0.0891 -0.6043
  340MOL0     C46836   1.886   6.983   1.831  0.6101  0.5508  0.0155
  340MOL0     C46837   1.890   7.229   2.203 -0.3423 -1.3244  0.7639
  340MOL0     C46838   1.880   7.372   2.229 -1.2770  0.6673 -0.1033
  340MOL0     C46839   1.890   7.423   2.355  0.4137  0.1587  0.4670
  340MOL0     C46840   1.906   7.332   2.462 -0.9491  0.8060  0.5544
  340MOL0     O46841   1.905   7.371   2.596  0.3021  0.6262  0.2636
  340MOL0     C46842   1.905   7.502   2.649  0.3558  0.6194 -0.1976
  340MOL0     C46843   1.926   7.517   2.802  0.7708  0.4308 -0.8228
  340MOL0     C46844   2.063   7.469   2.846  0.0945 -0.1102  1.1615
  340MOL0     C46845   2.106   7.492   2.993  0.6177 -0.4940 -1.1498
  340MOL0     C46846   2.104   7.633   3.015 -0.5013 -0.7445  0.5445
  340MOL0     C46847   2.126   7.750   3.051  0.1860  1.0375 -0.7577
  340MOL0     C46848   1.927   7.193   2.443  0.4672 -0.7198  0.3719
  340MOL0     C46849   1.919   7.145   2.313  0.1803  0.1000  0.5939
  340MOL0     C46850   1.944   6.997   2.302 -0.1176 -0.0723  1.0850
  340MOL0     H46851   1.566   7.027   1.936  2.0499  2.5897  2.3956
  340MOL0     H46852   1.523   6.953   1.719 -0.9805  1.8624  3.8894
  340MOL0     H46853   1.569   6.779   1.392 -0.8076  1.1761  1.2340
  340MOL0     H46854   1.500   6.862   1.518 -0.3394 -0.3151 -0.6538
  340MOL0     H46855   1.660   6.599   1.546 -0.3055 -0.3127 -0.4694
  340MOL0     H46856   1.575   6.675   1.685  0.7773 -0.1153  0.7896
  340MOL0     H46857   1.361   6.647   1.595  0.5798  2.2340 -1.2224
  340MOL0     H46858   1.428   6.610   1.436  1.5328 -1.2918 -0.1943
  340MOL0     H46859   1.513   6.385   1.534 -0.2198 -1.6134  0.0002
  340MOL0     H46860   1.437   6.439   1.688 -1.1702 -4.4660 -0.3809
  340MOL0     H46861   1.292   6.420   1.426 -0.0567  0.7391  0.7109
  340MOL0     H46862   1.214   6.474   1.577 -0.3443 -0.9405  0.7316
  340MOL0     H46863   1.182   6.252   1.470  0.1571 -0.0118 -0.0172
  340MOL0     H46864   1.337   6.198   1.536  2.6066  1.0226  4.1466
  340MOL0     H46865   1.224   6.257   1.771  2.7106  1.1876 -1.3694
  340MOL0     H46866   1.158   6.126   1.683  0.2320  0.3770 -2.8761
  340MOL0     H46867   1.047   6.409   1.680  0.5395 -0.5332  0.3727
  340MOL0     H46868   0.975   6.261   1.588 -0.2819 -2.3064  1.6818
  340MOL0     H46869   1.042   6.369   1.960  1.9208 -0.4407  0.4332
  340MOL0     H46870   0.742   6.261   2.176 -0.1607  0.6824  3.5013
  340MOL0     H46871   0.907   6.326   2.186 -1.0059  0.2600 -0.6458
  340MOL0     H46872   0.966   6.049   2.160  1.2634  2.4423 -0.1753
  340MOL0     H46873   0.948   6.129   2.307  0.5450 -1.0784 -0.4265
  340MOL0     H46874   0.760   6.063   2.368 -0.1990 -1.1347  0.3471
  340MOL0     H46875   0.694   6.041   2.201  1.6185  1.4436 -0.7704
  340MOL0     H46876   0.905   5.852   2.204  3.0247 -0.2152  2.8584
  340MOL0     H46877   0.867   5.876   2.381 -0.1026  0.4358 -0.2302
  340MOL0     H46878   0.759   5.878   1.987 -3.5413  2.7442 -0.6217
  340MOL0     H46879   0.726   5.911   1.791  1.5741 -2.0177  4.8664
  340MOL0     H46880   0.568   5.875   1.730  1.3233  0.0036 -2.0716
  340MOL0     H46881   0.693   5.745   1.714  0.3243 -2.2424  2.9882
  340MOL0     H46882   0.244   5.337   1.797 -0.2952  0.0448 -1.2968
  340MOL0     H46883   0.035   5.254   1.662 -0.5221  0.2391 -1.5698
  340MOL0     H46884  -0.070   5.314   1.412  0.1011  0.2678  1.3873
  340MOL0     H46885  -0.226   5.252   1.478  0.5896 -0.6679  0.0194
  340MOL0     H46886  -0.184   5.469   1.298  1.9437  0.9012  3.0053
  340MOL0     H46887  -0.271   5.306   1.278  0.9610 -0.7646  0.9604
  340MOL0     H46888  -0.360   5.543   1.440  2.0476  0.8804 -1.5378
  340MOL0     H46889  -0.451   5.396   1.451 -0.1448 -1.8401 -2.1936
  340MOL0     H46890  -0.478   5.391   1.197  1.4901 -1.3521  0.1764
  340MOL0     H46891  -0.406   5.560   1.196  2.7675 -0.0227  1.5126
  340MOL0     H46892  -0.672   5.442   1.293  1.7288 -1.7498 -0.2403
  340MOL0     H46893  -0.630   5.593   1.363  2.7859 -1.7074  1.6497
  340MOL0     H46894  -0.682   5.518   1.066 -2.7922 -0.1520  0.4210
  340MOL0     H46895  -0.599   5.667   1.107 -0.2000 -1.0591  0.3518
  340MOL0     H46896  -0.797   5.745   1.232 -2.0057  0.0771  1.2950
  340MOL0     H46897  -0.878   5.592   1.199 -1.3736  2.7559 -1.0530
  340MOL0     H46898  -0.782   5.737   0.961  2.5933 -2.2096  1.4097
  340MOL0     H46899  -0.934   5.771   1.050 -1.3099 -2.5762  4.3275
  340MOL0     H46900  -0.037   5.672   1.575  1.5500  0.1185 -1.7156
  340MOL0     H46901   0.148   5.729   1.710  0.4051  0.0657 -0.7723
  340MOL0     H46902   0.406   5.563   2.089  0.2105 -0.5003  1.2024
  340MOL0     H46903   0.548   5.630   2.255  1.0767 -1.3874 -2.0711
  340MOL0     H46904   1.942   6.943   1.641  0.0348  1.6628  0.8909
  340MOL0     H46905   1.991   6.995   1.852  0.7095  3.5941 -1.5925
  340MOL0     H46906   1.875   7.440   2.144  0.4393 -2.8392 -3.2808
  340MOL0     H46907   1.874   7.530   2.367 -0.9409 -0.0215  0.3867
  340MOL0     H46908   1.980   7.559   2.593 -1.7961  0.8822 -3.0862
  340MOL0     H46909   1.806   7.541   2.621 -0.6575 -1.0347  0.9070
  340MOL0     H46910   1.850   7.457   2.854 -0.0834  0.8740 -1.5127
  340MOL0     H46911   1.913   7.624   2.824  0.6379  0.9673 -3.1947
  340MOL0     H46912   2.049   7.363   2.825 -2.7630  0.2782  0.6686
  340MOL0     H46913   2.143   7.489   2.774 -1.4735 -0.7659 -0.8928
  340MOL0     H46914   2.205   7.447   3.007  1.9665  1.7430 -2.6953
  340MOL0     H46915   2.027   7.446   3.053 -0.1879 -0.5430 -2.2241
  340MOL0     H46916   2.147   7.852   3.073 -1.6202  1.4242 -0.6610
  340MOL0     H46917   1.926   7.118   2.522 -1.7122  1.9766  3.1721
  340MOL0     H46918   2.007   6.976   2.215 -0.6554 -1.1650  0.9373
  340MOL0     H46919   1.999   6.974   2.394 -0.2506  2.1440  1.7716
  340MOL0     H46920   1.846   6.947   2.301 -0.0779 -0.1642  1.5391
  341MOL0     O46921   6.192   5.486   8.786  0.2142 -0.0462 -0.4013
  341MOL0     C46922   6.149   5.585   8.726  0.8553  0.7978  0.7482
  341MOL0     O46923   6.012   5.605   8.701  0.2480 -0.3687 -0.2070
  341MOL0     C46924   5.913   5.529   8.748 -0.6221 -0.2188  0.9003
  341MOL0     C46925   5.806   5.503   8.657 -0.0403 -0.4911 -0.2535
  341MOL0     C46926   5.693   5.432   8.701 -0.3142  0.7964  0.3274
  341MOL0     C46927   5.682   5.377   8.834  0.1641 -0.9817 -0.8268
  341MOL0     O46928   5.586   5.290   8.877 -0.9834 -0.0020 -0.3966
  341MOL0     C46929   5.458   5.285   8.809  0.9569 -0.2251  1.1282
  341MOL0     C46930   5.392   5.428   8.813 -1.1732  0.9933 -1.4342
  341MOL0     C46931   5.383   5.484   8.955  0.0234  0.3844 -0.4708
  341MOL0     C46932   5.268   5.599   8.966 -0.1162  1.0313  0.1002
  341MOL0     C46933   5.262   5.668   9.099 -0.8193  0.1307  0.5995
  341MOL0     C46934   5.384   5.756   9.139  0.0215  0.7126 -0.5549
  341MOL0     C46935   5.423   5.776   9.291  0.4851 -0.4882  0.1242
  341MOL0     C46936   5.439   5.659   9.381  0.2127  0.6273  0.1833
  341MOL0     N46937   5.553   5.576   9.339  0.8641  0.4763  0.1340
  341MOL0     C46938   5.678   5.579   9.398 -0.3609 -1.3840 -0.4846
  341MOL0     C46939   5.741   5.477   9.330 -0.2556 -0.9948  0.1894
  341MOL0     C46940   5.890   5.455   9.359  0.1914  0.9030 -0.2898
  341MOL0     C46941   5.934   5.312   9.300  0.0562 -0.9745  0.0273
  341MOL0     C46942   6.083   5.284   9.321 -0.2748  0.9201 -0.1237
  341MOL0     C46943   6.158   5.309   9.194  0.4469 -0.6745  1.4365
  341MOL0     O46944   6.145   5.444   9.154 -0.0190  0.0913 -0.0627
  341MOL0     C46945   6.253   5.519   9.119 -0.8982 -0.5733 -0.2690
  341MOL0     C46946   6.250   5.655   9.144  0.5146 -0.3819  0.7485
  341MOL0     C46947   6.366   5.733   9.116 -0.4284 -0.2513 -0.7441
  341MOL0     C46948   6.337   5.884   9.130 -1.2696  0.5316  0.1475
  341MOL0     C46949   6.489   5.686   9.064  0.3534  0.9745  0.4610
  341MOL0     C46950   6.593   5.777   9.010 -0.3629  0.2150  0.7908
  341MOL0     O46951   6.666   5.724   8.912 -0.0863  0.0375  1.0440
  341MOL0     C46952   6.764   5.787   8.831  0.4000 -0.1274 -0.0563
  341MOL0     C46953   6.734   5.904   8.772 -0.2487 -1.0471  0.1845
  341MOL0     C46954   6.822   5.976   8.691 -0.4737  0.7255  1.0087
  341MOL0     C46955   6.946   5.913   8.655  0.2890 -0.4928 -0.1397
  341MOL0     O46956   7.023   5.964   8.549  0.6814  0.4751  0.5645
  341MOL0     C46957   7.157   5.969   8.587  0.0848 -0.9872 -0.3633
  341MOL0     C46958   7.227   6.053   8.476  0.1517  0.8349 -1.0730
  341MOL0     C46959   7.183   6.196   8.465  0.0164  0.0818 -0.6057
  341MOL0     C46960   7.261   6.279   8.377 -0.5521 -0.7419  0.3954
  341MOL0     C46961   7.196   6.424   8.363 -0.2095 -0.1254 -0.5391
  341MOL0     C46962   7.166   6.501   8.493 -0.6122  0.9481 -0.1605
  341MOL0     C46963   7.175   6.656   8.468  0.3972  0.1342 -0.0585
  341MOL0     C46964   7.061   6.697   8.373 -0.7660 -0.3904  0.7327
  341MOL0    Cl46965   7.065   6.878   8.344 -0.2046 -0.0678  0.0025
  341MOL0     C46966   6.973   5.783   8.711  1.2810 -1.1170  0.3096
  341MOL0     C46967   6.881   5.719   8.792 -0.1421  0.2124 -0.4413
  341MOL0     O46968   6.616   5.891   9.049  0.5548 -0.7913 -0.4567
  341MOL0     C46969   6.500   5.542   9.066  0.8181  0.0685  0.0967
  341MOL0     C46970   6.379   5.460   9.086  0.2717  0.2217  0.1936
  341MOL0     N46971   5.650   5.413   9.252 -0.0948 -0.7461  0.4982
  341MOL0     N46972   5.541   5.469   9.247 -0.5117 -0.7715  0.5210
  341MOL0     C46973   5.782   5.418   8.919 -0.4708  0.5461  0.2517
  341MOL0     C46974   5.902   5.488   8.876 -0.0685 -0.1029  0.4378
  341MOL0     C46975   6.240   5.693   8.691 -0.3979 -0.3945  0.5151
  341MOL0     C46976   6.192   5.826   8.689  0.6658 -0.2596 -0.3167
  341MOL0     C46977   6.268   5.929   8.632 -0.6793 -0.1079 -0.0637
  341MOL0     C46978   6.396   5.906   8.586 -0.4742  0.1266  0.2906
  341MOL0     O46979   6.483   5.997   8.524  0.2120 -0.1944  0.1702
  341MOL0     C46980   6.444   6.138   8.537 -1.0211 -0.3165 -0.1244
  341MOL0     C46981   6.471   6.184   8.678 -1.3521  0.5082  0.5807
  341MOL0     C46982   6.435   6.325   8.698  0.4555 -0.3180  0.1937
  341MOL0     C46983   6.464   6.362   8.844 -0.1143 -0.0935 -0.7065
  341MOL0     C46984   6.435   6.508   8.863 -0.2109  1.1914 -0.9629
  341MOL0     C46985   6.413   6.624   8.880 -0.1819  0.6851  1.1566
  341MOL0     C46986   6.444   5.777   8.606  0.1954 -0.1650  0.1731
  341MOL0     C46987   6.366   5.671   8.642  0.0001 -0.3795 -0.8645
  341MOL0     C46988   6.442   5.541   8.630  0.1590  0.4887  0.2207
  341MOL0     H46989   5.808   5.541   8.555  1.2379  1.1024  0.3208
  341MOL0     H46990   5.611   5.410   8.632 -0.8434  4.5069 -0.4354
  341MOL0     H46991   5.392   5.217   8.863 -0.9636  0.5945 -0.1008
  341MOL0     H46992   5.465   5.244   8.708 -1.6568 -1.9501  1.5411
  341MOL0     H46993   5.454   5.501   8.760  3.6913  1.5348  3.9523
  341MOL0     H46994   5.288   5.422   8.779 -1.2674  4.0797 -1.9748
  341MOL0     H46995   5.359   5.405   9.026 -1.0421 -1.1761 -2.4828
  341MOL0     H46996   5.480   5.522   8.990  0.2191 -0.2674 -0.2992
  341MOL0     H46997   5.298   5.669   8.888 -1.2137 -0.2059 -1.5145
  341MOL0     H46998   5.168   5.559   8.943 -0.1194  1.2001 -0.1907
  341MOL0     H46999   5.240   5.593   9.175  0.2579 -0.6653  0.1506
  341MOL0     H47000   5.176   5.735   9.102 -1.4971 -0.7066  0.0039
  341MOL0     H47001   5.473   5.709   9.097  0.8565 -1.8184  3.5226
  341MOL0     H47002   5.365   5.856   9.097 -1.2526  0.2764 -1.0852
  341MOL0     H47003   5.351   5.842   9.340  0.6426 -2.1291  2.7660
  341MOL0     H47004   5.516   5.835   9.288 -0.1906  0.5644 -1.5328
  341MOL0     H47005   5.443   5.677   9.489  0.1956 -0.9935  0.4790
  341MOL0     H47006   5.342   5.609   9.376 -0.0675  1.2153 -0.2919
  341MOL0     H47007   5.735   5.630   9.474  2.1695 -3.1287 -1.1061
  341MOL0     H47008   5.907   5.459   9.466 -0.9196 -1.6623  0.0638
  341MOL0     H47009   5.941   5.537   9.308 -0.4393  0.8452 -1.0388
  341MOL0     H47010   5.882   5.236   9.359  0.5300  0.1180  1.9360
  341MOL0     H47011   5.901   5.306   9.196 -2.8232  0.9543  0.6831
  341MOL0     H47012   6.123   5.330   9.411  0.8502 -1.7227  0.8213
  341MOL0     H47013   6.077   5.177   9.342 -3.0113  0.7844 -1.1243
  341MOL0     H47014   6.258   5.278   9.224  2.6782  2.1254 -2.2444
  341MOL0     H47015   6.120   5.252   9.109  0.5863 -2.3341  2.4532
  341MOL0     H47016   6.161   5.695   9.191  1.8377  3.5300  0.2654
  341MOL0     H47017   6.252   5.905   9.196 -2.2600  2.7432 -1.6957
  341MOL0     H47018   6.315   5.925   9.031  0.2516  1.0035 -0.0276
  341MOL0     H47019   6.421   5.936   9.177 -1.6508  0.6193  0.7440
  341MOL0     H47020   6.636   5.945   8.793 -0.4541  0.7208 -3.2967
  341MOL0     H47021   6.798   6.072   8.647  2.0429  0.1948 -1.8219
  341MOL0     H47022   7.179   6.025   8.679  1.1303 -1.4689 -0.2998
  341MOL0     H47023   7.206   5.871   8.597 -1.1281 -1.4173  2.7189
  341MOL0     H47024   7.334   6.063   8.496 -0.0661 -0.4934  0.9772
  341MOL0     H47025   7.208   6.000   8.382  3.3833  0.8404 -1.8425
  341MOL0     H47026   7.177   6.240   8.566 -1.6037  1.6344 -1.3338
  341MOL0     H47027   7.079   6.186   8.435  0.4372 -3.4422 -1.3190
  341MOL0     H47028   7.269   6.237   8.276  1.0155  0.0969  0.1458
  341MOL0     H47029   7.365   6.288   8.409 -0.8292  0.7405  0.9482
  341MOL0     H47030   7.260   6.470   8.287  0.8476 -2.3626 -1.1147
  341MOL0     H47031   7.103   6.404   8.309  0.8476 -1.9420 -1.8156
  341MOL0     H47032   7.236   6.471   8.571 -1.3170  2.4649  1.0919
  341MOL0     H47033   7.064   6.475   8.522 -0.3176  1.0122  0.9602
  341MOL0     H47034   7.272   6.699   8.442 -0.5440  2.3034 -0.2082
  341MOL0     H47035   7.155   6.704   8.564 -1.2419  1.9510 -1.2596
  341MOL0     H47036   6.972   6.662   8.425 -0.7362  2.2442  2.7506
  341MOL0     H47037   7.071   6.642   8.279  0.9303  2.6521 -1.0472
  341MOL0     H47038   7.074   5.751   8.689  0.2954 -3.3980 -1.3653
  341MOL0     H47039   6.908   5.627   8.841  1.1993  0.0403 -1.4351
  341MOL0     H47040   6.593   5.503   9.025  1.2320  0.7548  0.3595
  341MOL0     H47041   6.399   5.353   9.081 -2.2758 -0.3140  0.0849
  341MOL0     H47042   5.775   5.373   9.017  0.5466  0.8348  0.4704
  341MOL0     H47043   5.989   5.513   8.936  0.2024  1.7094 -0.6271
  341MOL0     H47044   6.091   5.833   8.728  0.5892 -0.8902 -0.3793
  341MOL0     H47045   6.213   6.022   8.620  0.4378  0.4550 -1.0969
  341MOL0     H47046   6.503   6.196   8.465 -0.1675  0.8809  1.4687
  341MOL0     H47047   6.339   6.160   8.515 -1.4731 -1.1787  1.0318
  341MOL0     H47048   6.579   6.172   8.675 -1.3269  0.6991 -2.3972
  341MOL0     H47049   6.417   6.117   8.746  0.8671 -0.5773  1.3817
  341MOL0     H47050   6.489   6.390   8.629 -0.8801  4.0904  2.8969
  341MOL0     H47051   6.333   6.337   8.662  0.1287 -2.0664  0.4420
  341MOL0     H47052   6.569   6.343   8.866 -0.0651 -0.4644 -1.2306
  341MOL0     H47053   6.401   6.306   8.914 -1.2254 -1.8987 -2.9828
  341MOL0     H47054   6.376   6.724   8.877  0.9260  1.3272 -4.8636
  341MOL0     H47055   6.546   5.761   8.574 -0.4810 -0.2111 -2.1992
  341MOL0     H47056   6.536   5.561   8.580  0.7825  0.0263  1.1811
  341MOL0     H47057   6.459   5.507   8.733  0.2765  2.1253  0.7601
  341MOL0     H47058   6.386   5.466   8.572 -1.7441  2.1706 -0.2312
  342MOL0     O47059   8.356  10.453   7.165  0.1853 -0.1999  0.3865
  342MOL0     C47060   8.403  10.496   7.062 -0.5163 -0.2761  0.6177
  342MOL0     O47061   8.367  10.615   7.008 -0.5237 -0.2636  0.6460
  342MOL0     C47062   8.265  10.689   7.071  0.4122  0.2318  1.4985
  342MOL0     C47063   8.281  10.726   7.200 -0.5178 -0.3285 -0.2765
  342MOL0     C47064   8.175  10.748   7.274 -0.9505  0.7107 -0.4083
  342MOL0     C47065   8.046  10.750   7.219  0.3928  0.3189  1.5594
  342MOL0     O47066   7.934  10.762   7.297  0.4262 -1.0796  0.2632
  342MOL0     C47067   7.879  10.635   7.330 -0.3240  1.0606 -0.1040
  342MOL0     C47068   7.738  10.661   7.380 -1.6343  0.5485 -0.0997
  342MOL0     C47069   7.744  10.749   7.506  0.1283  0.1812  0.4897
  342MOL0     C47070   7.799  10.678   7.629 -0.7398 -0.3144 -0.5412
  342MOL0     C47071   7.805  10.766   7.754  0.7598  0.1439  0.1097
  342MOL0     C47072   7.897  10.713   7.862  0.1408 -0.3390 -0.1915
  342MOL0     C47073   7.890  10.805   7.990  0.6148 -1.2855  0.5935
  342MOL0     C47074   7.933  10.949   7.964  0.1614 -0.3986  0.1620
  342MOL0     N47075   8.071  10.965   7.935  0.3147  1.0624  0.5695
  342MOL0     C47076   8.124  10.985   7.809 -0.1615 -0.4027 -0.1627
  342MOL0     C47077   8.258  11.005   7.835  0.0628  0.8286  0.0316
  342MOL0     C47078   8.366  11.013   7.730  0.3921  0.6313 -0.1274
  342MOL0     C47079   8.407  10.868   7.693 -0.6008  0.3619  0.1543
  342MOL0     C47080   8.503  10.887   7.576  0.2780  0.2842 -0.0402
  342MOL0     C47081   8.564  10.757   7.529 -0.2462  0.3685  0.0416
  342MOL0     O47082   8.654  10.774   7.416  0.0214  0.1403  0.2756
  342MOL0     C47083   8.731  10.667   7.360  0.9180  0.3943 -0.2340
  342MOL0     C47084   8.741  10.538   7.414  0.4350  0.5276  0.2070
  342MOL0     C47085   8.820  10.438   7.358  0.5525  0.1150  0.8985
  342MOL0     C47086   8.814  10.297   7.429 -0.1086  0.0482 -0.2999
  342MOL0     C47087   8.902  10.473   7.246 -0.1611 -0.1860 -0.4621
  342MOL0     C47088   9.006  10.374   7.187  1.6003  0.7867  0.1460
  342MOL0     O47089   9.067  10.408   7.071 -0.2744  0.2353  0.1376
  342MOL0     C47090   9.181  10.340   7.036 -0.4451  0.0709 -0.3155
  342MOL0     C47091   9.176  10.274   6.909  0.1118 -1.1764  0.6088
  342MOL0     C47092   9.293  10.215   6.874 -0.1794  0.7752 -0.3930
  342MOL0     C47093   9.415  10.219   6.951  0.0061 -0.0431 -0.8093
  342MOL0     O47094   9.523  10.142   6.898  0.4125 -0.1853 -0.6151
  342MOL0     C47095   9.627  10.099   6.980 -0.8300  0.3438 -0.3327
  342MOL0     C47096   9.728  10.018   6.886  0.3763  0.0421 -0.2320
  342MOL0     C47097   9.846   9.951   6.939 -0.7234  0.6393  0.2498
  342MOL0     C47098   9.931   9.861   6.849  0.5280  0.3963 -0.1285
  342MOL0     C47099  10.067   9.845   6.895 -0.7220  0.1931 -0.0020
  342MOL0     C47100  10.132   9.729   6.822  0.4677  1.3570 -0.0447
  342MOL0     C47101  10.280   9.718   6.840 -0.3398  0.2920  0.1557
  342MOL0     C47102  10.373   9.790   6.747 -0.3283 -0.1196 -0.7262
  342MOL0    Cl47103  10.529   9.728   6.807 -0.3811 -0.1031  0.1115
  342MOL0     C47104   9.412  10.280   7.082 -0.3903 -1.4643  0.3036
  342MOL0     C47105   9.292  10.342   7.114 -0.3679 -1.1744 -0.3415
  342MOL0     O47106   9.022  10.258   7.237  0.1726 -0.0869 -0.0379
  342MOL0     C47107   8.887  10.599   7.189 -0.9556 -0.7706  0.3736
  342MOL0     C47108   8.805  10.700   7.247  0.0209  0.2628  0.1750
  342MOL0     N47109   8.267  11.033   7.976  0.2279  0.4574 -0.0668
  342MOL0     N47110   8.157  10.990   8.036  0.1941 -0.2929  0.7329
  342MOL0     C47111   8.030  10.718   7.087  0.7995 -0.0702  0.8995
  342MOL0     C47112   8.137  10.702   7.002  0.1244  0.3209  0.3298
  342MOL0     C47113   8.520  10.420   6.997  0.0990  0.5374  0.0858
  342MOL0     C47114   8.594  10.323   7.080 -0.8157 -0.1948  0.0872
  342MOL0     C47115   8.700  10.252   7.021 -0.5338 -0.2409  0.1294
  342MOL0     C47116   8.735  10.272   6.885 -0.1258  0.4950  1.4712
  342MOL0     O47117   8.832  10.203   6.812 -0.0778 -0.9384 -1.0568
  342MOL0     C47118   8.889  10.093   6.867 -1.1158  0.2199 -0.2508
  342MOL0     C47119   8.801   9.963   6.872 -0.8071 -0.1490  0.2325
  342MOL0     C47120   8.844   9.862   6.970  0.7126 -0.2590 -0.3569
  342MOL0     C47121   8.991   9.873   7.028 -0.4907  0.2181 -0.3082
  342MOL0     C47122   9.094   9.869   6.929 -0.3229  1.0500  0.0657
  342MOL0     C47123   9.194   9.839   6.865  0.3581 -0.2631  0.0101
  342MOL0     C47124   8.669  10.361   6.810  0.6278 -0.0406 -0.2836
  342MOL0     C47125   8.561  10.437   6.861 -0.6310  0.2623 -0.3237
  342MOL0     C47126   8.497  10.523   6.758  0.6522 -0.0722  0.0623
  342MOL0     H47127   8.371  10.717   7.259 -2.0474  0.5494  2.3934
  342MOL0     H47128   8.184  10.772   7.380  1.0251 -1.1006 -0.1117
  342MOL0     H47129   7.942  10.585   7.404  1.0065  1.7234 -0.7438
  342MOL0     H47130   7.874  10.576   7.239 -2.2771  0.0188  0.6205
  342MOL0     H47131   7.703  10.710   7.289  0.2552 -2.4069 -2.6155
  342MOL0     H47132   7.678  10.571   7.390 -0.0097 -1.2620 -4.3163
  342MOL0     H47133   7.802  10.840   7.485  2.7510 -1.1156  1.6538
  342MOL0     H47134   7.646  10.787   7.537  1.1477  1.8928  1.8449
  342MOL0     H47135   7.746  10.583   7.644  0.6910 -0.9878  0.4086
  342MOL0     H47136   7.898  10.644   7.597 -0.2243 -2.7360  3.1024
  342MOL0     H47137   7.702  10.773   7.791  1.0182  2.6284  0.5144
  342MOL0     H47138   7.836  10.866   7.724  1.5245  0.3170  1.3940
  342MOL0     H47139   7.876  10.612   7.898 -0.6269 -0.1099  0.0140
  342MOL0     H47140   7.998  10.707   7.819  0.9518 -0.6004  1.6730
  342MOL0     H47141   7.947  10.758   8.070  0.8075 -2.8786 -0.4393
  342MOL0     H47142   7.783  10.812   8.011  0.3641  2.8675 -1.0444
  342MOL0     H47143   7.868  11.002   7.894 -1.1253 -2.0363  0.0514
  342MOL0     H47144   7.913  11.006   8.056 -1.7309  2.0644 -1.6316
  342MOL0     H47145   8.072  10.960   7.717  1.2371 -0.9054 -0.8465
  342MOL0     H47146   8.446  11.084   7.754 -0.8621  1.9888  0.1744
  342MOL0     H47147   8.319  11.063   7.644 -2.0526 -0.1641  0.6753
  342MOL0     H47148   8.459  10.830   7.781 -1.0364 -1.9932 -0.5169
  342MOL0     H47149   8.323  10.805   7.664 -2.0599  0.4575  3.7907
  342MOL0     H47150   8.445  10.920   7.489 -2.8328  0.2811  1.8651
  342MOL0     H47151   8.586  10.958   7.588 -0.2244  0.9213 -0.2631
  342MOL0     H47152   8.612  10.706   7.612  1.4178  0.0470 -1.0717
  342MOL0     H47153   8.484  10.691   7.495  0.5104 -0.3688 -0.3249
  342MOL0     H47154   8.671  10.514   7.493  2.2108 -0.6280  1.5091
  342MOL0     H47155   8.899  10.296   7.497  1.9764 -0.4286 -2.7649
  342MOL0     H47156   8.802  10.208   7.366  1.2633 -0.9248  0.7489
  342MOL0     H47157   8.724  10.293   7.492  0.2329 -0.6349  0.1557
  342MOL0     H47158   9.086  10.264   6.850 -0.1559 -1.8899  1.1258
  342MOL0     H47159   9.320  10.144   6.796  0.8995 -0.4546  1.0396
  342MOL0     H47160   9.674  10.183   7.032 -0.3320  0.1944 -0.5333
  342MOL0     H47161   9.594  10.048   7.071 -0.1924  2.1785  0.9918
  342MOL0     H47162   9.662   9.946   6.837 -4.3643  1.1358  3.7947
  342MOL0     H47163   9.770  10.096   6.822 -0.6016  0.7424 -0.0475
  342MOL0     H47164   9.814   9.894   7.027  0.7415 -0.4385  0.1222
  342MOL0     H47165   9.905  10.035   6.978  0.5017  1.4603 -3.0368
  342MOL0     H47166   9.938   9.908   6.750 -2.0852  2.5192  0.5705
  342MOL0     H47167   9.877   9.766   6.836 -0.5689  1.2352 -2.2469
  342MOL0     H47168  10.119   9.942   6.890 -2.3986  1.1934  0.8913
  342MOL0     H47169  10.066   9.825   7.002  1.3235  1.3209  0.2848
  342MOL0     H47170  10.115   9.734   6.714 -2.0821 -0.5195  0.1733
  342MOL0     H47171  10.086   9.637   6.859  4.4403 -0.6279  0.4496
  342MOL0     H47172  10.298   9.611   6.830  0.4716  0.4319  0.0833
  342MOL0     H47173  10.310   9.734   6.944  0.3947 -0.6279  0.0933
  342MOL0     H47174  10.363   9.896   6.771 -0.8971 -0.0337 -1.3062
  342MOL0     H47175  10.358   9.760   6.643 -0.7942 -1.3959 -0.3022
  342MOL0     H47176   9.493  10.300   7.151  0.0856  1.2569 -0.8912
  342MOL0     H47177   9.283  10.394   7.210  0.8275  2.3486 -1.9724
  342MOL0     H47178   8.959  10.631   7.114 -0.8745  1.3375  1.2710
  342MOL0     H47179   8.781  10.800   7.211  0.0477  0.2665  0.1685
  342MOL0     H47180   7.930  10.723   7.044  0.6159 -0.9630  1.1907
  342MOL0     H47181   8.124  10.671   6.899  1.3123 -2.3513  0.8883
  342MOL0     H47182   8.580  10.313   7.187 -2.0670  1.1641  0.0814
  342MOL0     H47183   8.751  10.180   7.084 -1.6131 -1.2790 -0.1412
  342MOL0     H47184   8.981  10.071   6.812  0.7662 -0.9244  3.0538
  342MOL0     H47185   8.921  10.119   6.969 -2.2513 -1.6883  0.6585
  342MOL0     H47186   8.802   9.919   6.772  0.7854  3.6749 -1.6725
  342MOL0     H47187   8.696   9.984   6.896 -1.0496  0.1739 -1.0128
  342MOL0     H47188   8.781   9.851   7.058  5.0405 -3.9675  2.7377
  342MOL0     H47189   8.831   9.760   6.933 -0.7029 -0.0191 -0.5829
  342MOL0     H47190   9.010   9.801   7.108 -1.3381  0.8708  0.4897
  342MOL0     H47191   9.011   9.967   7.081  2.8103 -0.1366 -0.6734
  342MOL0     H47192   9.286   9.816   6.814  0.9956  1.4188  0.3459
  342MOL0     H47193   8.701  10.374   6.707  0.8461 -0.5116 -0.2776
  342MOL0     H47194   8.387  10.520   6.760  0.5876  0.6183 -1.3794
  342MOL0     H47195   8.527  10.624   6.788 -2.7366  1.8497 -2.2681
  342MOL0     H47196   8.535  10.484   6.663 -1.4292 -2.5525  0.1504
  343MOL0     O47197   9.820   4.376   4.184 -0.2659 -0.0929 -0.1680
  343MOL0     C47198   9.895   4.451   4.251 -0.1808 -0.4187  0.6533
  343MOL0     O47199   9.907   4.583   4.225 -0.1903 -0.5503  0.6677
  343MOL0     C47200   9.804   4.642   4.149 -0.4881 -1.1817  0.6537
  343MOL0     C47201   9.785   4.613   4.014 -0.0297 -1.0954 -0.0667
  343MOL0     C47202   9.667   4.663   3.941 -0.3935  0.2081 -0.1010
  343MOL0     C47203   9.592   4.757   3.996  0.2002  0.3353 -0.3013
  343MOL0     O47204   9.473   4.773   3.929  0.0997 -0.3320 -0.0671
  343MOL0     C47205   9.392   4.889   3.940  0.5445 -0.0691  0.1888
  343MOL0     C47206   9.244   4.850   3.962 -1.2599 -0.2196 -0.6145
  343MOL0     C47207   9.190   4.755   3.857 -0.5886 -0.3066 -0.4365
  343MOL0     C47208   9.188   4.609   3.908 -0.0732  0.5337 -1.0446
  343MOL0     C47209   9.092   4.527   3.819  0.6694  0.3836 -0.0160
  343MOL0     C47210   8.948   4.504   3.853 -0.8636 -0.1290  1.1148
  343MOL0     C47211   8.895   4.440   3.731  0.5287  0.4353  0.4460
  343MOL0     C47212   8.741   4.394   3.751  0.9295 -1.1929 -0.4719
  343MOL0     N47213   8.642   4.498   3.785 -0.4644  0.3934  0.2774
  343MOL0     C47214   8.608   4.530   3.916  0.3701 -0.5023  0.7171
  343MOL0     C47215   8.500   4.607   3.908 -0.5695 -0.0183  0.1457
  343MOL0     C47216   8.402   4.639   4.025 -0.7635  0.0515  0.0731
  343MOL0     C47217   8.404   4.519   4.130  0.2648 -0.2872  0.6706
  343MOL0     C47218   8.309   4.562   4.239 -1.4214  0.6769  0.8629
  343MOL0     C47219   8.169   4.507   4.219  1.0460  0.5053  0.6229
  343MOL0     O47220   8.140   4.385   4.287 -0.2595 -0.0940 -0.1489
  343MOL0     C47221   8.088   4.388   4.420  0.9219 -0.7603  0.6672
  343MOL0     C47222   8.059   4.262   4.466  0.9063 -0.6521 -0.8546
  343MOL0     C47223   8.009   4.242   4.598 -0.5965  0.2462  0.7879
  343MOL0     C47224   7.983   4.102   4.640  0.4151  0.9467  0.1076
  343MOL0     C47225   7.997   4.351   4.682 -0.6239 -1.3314 -0.0766
  343MOL0     C47226   7.996   4.335   4.830 -0.2329 -0.0079 -0.4462
  343MOL0     O47227   7.961   4.451   4.899 -0.2983  0.2162  0.5303
  343MOL0     C47228   7.926   4.424   5.025  0.8457  0.9500 -0.7354
  343MOL0     C47229   8.024   4.464   5.120  0.1591  1.1985  0.9910
  343MOL0     C47230   7.973   4.444   5.257  0.0203  0.1228 -0.1415
  343MOL0     C47231   7.840   4.408   5.287 -0.4005 -0.2700 -0.2938
  343MOL0     O47232   7.800   4.410   5.415  0.0938 -0.4656 -0.4439
  343MOL0     C47233   7.666   4.359   5.455  0.2724 -0.2006  0.6880
  343MOL0     C47234   7.648   4.361   5.603 -0.4705  0.3717 -0.4054
  343MOL0     C47235   7.658   4.505   5.657 -0.2403 -0.4773 -0.0013
  343MOL0     C47236   7.650   4.499   5.812  0.7797 -0.8945 -0.1953
  343MOL0     C47237   7.514   4.553   5.844  0.2398 -0.9338  0.2159
  343MOL0     C47238   7.466   4.499   5.976 -0.7164  0.7802  0.0213
  343MOL0     C47239   7.334   4.552   6.019  0.1516 -0.0750  0.1174
  343MOL0     C47240   7.326   4.709   6.032 -0.5282  0.1156  0.6567
  343MOL0    Cl47241   7.414   4.753   6.186  0.3944  0.2178 -0.4647
  343MOL0     C47242   7.741   4.387   5.184 -0.1577  0.1509 -0.7636
  343MOL0     C47243   7.791   4.396   5.056  0.1559  1.0933  0.0539
  343MOL0     O47244   8.047   4.236   4.881  1.1791  0.5924  0.0096
  343MOL0     C47245   8.028   4.473   4.635  0.0988  0.6138  0.1588
  343MOL0     C47246   8.076   4.499   4.503 -0.5837  0.4145  0.2924
  343MOL0     N47247   8.478   4.632   3.773  0.1060  0.1330 -0.1108
  343MOL0     N47248   8.564   4.564   3.697 -0.2872  1.1541 -0.8086
  343MOL0     C47249   9.619   4.810   4.126  0.3453  0.4891 -0.7850
  343MOL0     C47250   9.730   4.759   4.203 -0.2646  0.0557  0.5422
  343MOL0     C47251   9.969   4.387   4.365 -0.1231 -0.5760  0.3008
  343MOL0     C47252  10.048   4.476   4.440  0.0787  0.7831 -0.5492
  343MOL0     C47253  10.126   4.427   4.540 -0.5626  0.3712  0.1736
  343MOL0     C47254  10.124   4.296   4.576  0.9136 -0.5894 -0.4311
  343MOL0     O47255  10.175   4.247   4.695 -0.1858 -0.0755 -0.6489
  343MOL0     C47256  10.156   4.327   4.813  0.1852 -0.5827 -0.4909
  343MOL0     C47257  10.264   4.419   4.864  0.0125 -0.2152  0.0811
  343MOL0     C47258  10.409   4.372   4.856 -0.2264  0.3821 -0.5090
  343MOL0     C47259  10.510   4.454   4.932 -0.6907 -0.0912 -0.5773
  343MOL0     C47260  10.484   4.453   5.079  1.0394  0.4248 -1.3622
  343MOL0     C47261  10.476   4.445   5.207  0.0556 -0.2146 -0.2836
  343MOL0     C47262  10.055   4.206   4.499  0.2986  0.2383 -0.0345
  343MOL0     C47263   9.981   4.244   4.385  0.4118 -0.1365 -0.3687
  343MOL0     C47264   9.911   4.137   4.304 -0.4096 -0.2368  0.0771
  343MOL0     H47265   9.867   4.554   3.975  1.1475 -0.9228  1.9921
  343MOL0     H47266   9.646   4.630   3.840 -0.3606  0.1010 -0.0736
  343MOL0     H47267   9.395   4.940   3.844 -1.2491 -1.7178 -0.8235
  343MOL0     H47268   9.427   4.971   4.004 -2.1766  2.6041 -1.5340
  343MOL0     H47269   9.232   4.798   4.058  1.8161  0.5482  0.2915
  343MOL0     H47270   9.184   4.941   3.973  0.0068  0.4967  0.8478
  343MOL0     H47271   9.086   4.785   3.838 -1.9694 -1.9321  3.4153
  343MOL0     H47272   9.249   4.751   3.766 -0.6379 -1.4327 -0.4266
  343MOL0     H47273   9.291   4.578   3.888 -0.1169  1.0290 -2.0921
  343MOL0     H47274   9.159   4.598   4.013 -2.7247  1.3119 -1.6150
  343MOL0     H47275   9.136   4.427   3.822 -0.3798 -0.0739  0.7931
  343MOL0     H47276   9.109   4.554   3.715 -2.0162 -0.6839 -0.7925
  343MOL0     H47277   8.941   4.449   3.948  0.5191  0.8466  1.8125
  343MOL0     H47278   8.893   4.598   3.851  0.1885  0.4835  0.2504
  343MOL0     H47279   8.954   4.353   3.700 -1.2316  0.4885 -3.7521
  343MOL0     H47280   8.901   4.508   3.646  0.7508  1.0962  0.9807
  343MOL0     H47281   8.711   4.342   3.659 -0.4461 -2.9745  0.9092
  343MOL0     H47282   8.739   4.318   3.830  0.7399  0.5864  1.3044
  343MOL0     H47283   8.663   4.494   4.002  2.1077  0.7784  0.2013
  343MOL0     H47284   8.305   4.667   3.984  0.4314  0.5421 -2.7100
  343MOL0     H47285   8.444   4.729   4.070  0.4638  1.8235 -4.1488
  343MOL0     H47286   8.366   4.433   4.074 -1.5239  1.3297 -0.7389
  343MOL0     H47287   8.506   4.520   4.168  1.0357  3.8901 -0.9599
  343MOL0     H47288   8.357   4.527   4.330  1.5072  2.3900  0.0923
  343MOL0     H47289   8.295   4.671   4.242 -0.5180  0.8122  0.4687
  343MOL0     H47290   8.086   4.573   4.244 -2.8412 -3.1638 -1.2828
  343MOL0     H47291   8.146   4.492   4.113 -4.8761  0.6373  1.5683
  343MOL0     H47292   8.088   4.180   4.401  2.5017 -1.6436  1.0038
  343MOL0     H47293   7.965   4.033   4.557 -0.4137  1.9179 -0.5487
  343MOL0     H47294   7.888   4.086   4.694 -0.9143 -1.6983 -2.7109
  343MOL0     H47295   8.069   4.060   4.692  0.4060  0.2277 -0.4431
  343MOL0     H47296   8.129   4.482   5.100  0.8792 -3.3344 -0.4261
  343MOL0     H47297   8.048   4.453   5.335 -0.3969 -1.0173  0.4121
  343MOL0     H47298   7.583   4.421   5.419  1.5003  1.0211 -0.1436
  343MOL0     H47299   7.649   4.257   5.420 -3.7683  0.3615  0.5157
  343MOL0     H47300   7.554   4.319   5.641  1.1356 -3.0193  0.2243
  343MOL0     H47301   7.727   4.300   5.649  1.1841  3.3561  0.9772
  343MOL0     H47302   7.577   4.567   5.617 -1.2711  0.4795  3.1781
  343MOL0     H47303   7.749   4.556   5.624 -1.4344  1.6301 -0.2067
  343MOL0     H47304   7.730   4.552   5.866 -0.4179 -0.0010  0.7531
  343MOL0     H47305   7.653   4.394   5.842  0.2987 -1.4952 -2.1658
  343MOL0     H47306   7.518   4.661   5.832  0.0493 -1.2539 -5.4340
  343MOL0     H47307   7.441   4.522   5.768 -1.0325 -0.6966  1.2996
  343MOL0     H47308   7.540   4.513   6.055 -1.5045 -1.3788  1.2234
  343MOL0     H47309   7.462   4.390   5.984  1.1287  0.8491  5.0457
  343MOL0     H47310   7.303   4.506   6.113  0.5997 -0.6179  0.0095
  343MOL0     H47311   7.263   4.516   5.944  2.6648  2.1039 -3.7391
  343MOL0     H47312   7.221   4.740   6.026 -0.0199  1.6381 -0.9804
  343MOL0     H47313   7.365   4.753   5.940 -3.5029  2.5957  0.4027
  343MOL0     H47314   7.642   4.349   5.208 -0.1700 -0.2593 -1.4378
  343MOL0     H47315   7.725   4.362   4.977  0.4571 -0.7474  0.5504
  343MOL0     H47316   8.037   4.553   4.709 -0.1726 -2.1125  3.3628
  343MOL0     H47317   8.093   4.602   4.472  0.9881  0.0652 -0.0608
  343MOL0     H47318   9.548   4.883   4.164 -2.0432 -1.8181 -0.5489
  343MOL0     H47319   9.751   4.805   4.299 -0.3436 -1.1779  1.1762
  343MOL0     H47320  10.041   4.584   4.426 -2.1230  1.1133  2.2882
  343MOL0     H47321  10.169   4.508   4.598  0.1683 -0.1546  0.3789
  343MOL0     H47322  10.066   4.390   4.806  0.5546 -0.0918 -0.9423
  343MOL0     H47323  10.139   4.252   4.891 -1.5907 -1.9571 -2.0941
  343MOL0     H47324  10.238   4.425   4.970 -1.1248  1.6162 -0.2565
  343MOL0     H47325  10.266   4.514   4.811  0.2984  0.5619  1.4468
  343MOL0     H47326  10.415   4.267   4.887 -2.6568  0.7570  1.4699
  343MOL0     H47327  10.439   4.376   4.751 -0.3513  2.3233 -0.5038
  343MOL0     H47328  10.501   4.555   4.890  0.2698 -0.9846 -3.1616
  343MOL0     H47329  10.616   4.428   4.927 -0.2628  1.5454 -0.5941
  343MOL0     H47330  10.461   4.456   5.312 -3.2739  1.8998 -0.8451
  343MOL0     H47331  10.069   4.103   4.530 -1.7585  0.6876  2.8285
  343MOL0     H47332   9.805   4.142   4.331  0.0912 -2.1460  2.7628
  343MOL0     H47333   9.926   4.158   4.197 -0.4786 -0.0599  0.1021
  343MOL0     H47334   9.946   4.035   4.322  0.1562 -0.1170 -0.3168
  344MOL0     O47335   3.032   6.039   0.130 -0.2750 -0.2594 -0.6492
  344MOL0     C47336   3.152   6.017   0.115 -0.7404  1.3678 -0.2576
  344MOL0     O47337   3.250   6.085   0.181 -0.3085 -0.0534  0.2166
  344MOL0     C47338   3.212   6.159   0.295 -0.3742  0.2481  1.1446
  344MOL0     C47339   3.192   6.099   0.415 -0.5566  0.6920  0.6269
  344MOL0     C47340   3.137   6.170   0.522 -0.3664 -0.3023 -1.6777
  344MOL0     C47341   3.108   6.302   0.515 -1.0485  0.2758  0.3115
  344MOL0     O47342   3.047   6.364   0.614  0.2266 -0.0283  0.3846
  344MOL0     C47343   2.908   6.333   0.626 -0.5372  0.4872  0.4428
  344MOL0     C47344   2.831   6.434   0.546  0.4370 -0.2983 -0.1851
  344MOL0     C47345   2.684   6.376   0.539 -0.6087 -0.0595  0.1564
  344MOL0     C47346   2.632   6.339   0.396 -0.0635 -0.1749 -0.1557
  344MOL0     C47347   2.690   6.205   0.351 -0.8076  0.5947 -0.2149
  344MOL0     C47348   2.621   6.151   0.225  0.2701 -1.0647  0.0851
  344MOL0     C47349   2.653   6.016   0.175 -0.3048  0.3642  0.7914
  344MOL0     C47350   2.568   5.902   0.247  0.5875  0.3218  0.5720
  344MOL0     N47351   2.622   5.762   0.204  0.6803 -0.1825  0.9685
  344MOL0     C47352   2.656   5.732   0.073  0.2920  0.2322 -0.5180
  344MOL0     C47353   2.676   5.598   0.070 -0.0390 -0.0307 -1.0921
  344MOL0     C47354   2.724   5.526  -0.053 -0.5254 -0.8386  0.6466
  344MOL0     C47355   2.869   5.470  -0.032  0.2575 -0.1957 -0.4953
  344MOL0     C47356   2.923   5.409  -0.170  1.7546 -0.3216 -0.0239
  344MOL0     C47357   2.821   5.330  -0.252  0.0475 -0.5870  0.1211
  344MOL0     O47358   2.880   5.270  -0.370 -0.2513  0.3229  0.2530
  344MOL0     C47359   2.810   5.167  -0.420  0.0828 -0.0182  0.4790
  344MOL0     C47360   2.837   5.037  -0.375  0.5048  0.7954 -0.1207
  344MOL0     C47361   2.761   4.923  -0.411  0.9626 -0.8802  0.7650
  344MOL0     C47362   2.822   4.778  -0.368 -0.2537  0.1829  0.4748
  344MOL0     C47363   2.650   4.948  -0.499  0.3363 -1.5810 -0.0579
  344MOL0     C47364   2.565   4.842  -0.557 -0.0853 -0.3653 -0.1422
  344MOL0     O47365   2.504   4.866  -0.677  0.1743  0.1150 -0.0055
  344MOL0     C47366   2.443   4.767  -0.746 -0.6415 -0.9458  0.2300
  344MOL0     C47367   2.302   4.761  -0.760 -0.3923 -0.2371  0.5319
  344MOL0     C47368   2.241   4.673  -0.836  0.3331  0.1570 -0.0616
  344MOL0     C47369   2.314   4.569  -0.891  0.1726  0.2540  0.0442
  344MOL0     O47370   2.249   4.488  -0.982  0.2840  0.3881 -0.3910
  344MOL0     C47371   2.286   4.350  -0.999  0.1998  0.0908 -0.1439
  344MOL0     C47372   2.200   4.249  -0.915  1.5019 -0.1059  1.1219
  344MOL0     C47373   2.050   4.240  -0.954 -0.9026 -0.0134  0.2508
  344MOL0     C47374   1.964   4.367  -0.932 -0.0087 -0.0689 -0.1419
  344MOL0     C47375   1.820   4.347  -0.934  1.1188 -1.3959  0.2406
  344MOL0     C47376   1.743   4.476  -0.905  1.2361  0.1682  0.4270
  344MOL0     C47377   1.811   4.577  -0.802  0.4121 -0.6901  0.5349
  344MOL0     C47378   1.699   4.675  -0.749  0.6647 -0.4599  0.0336
  344MOL0    Cl47379   1.620   4.757  -0.881 -0.4767 -0.1451 -0.1733
  344MOL0     C47380   2.449   4.564  -0.881 -0.5669 -0.1385  1.1919
  344MOL0     C47381   2.512   4.668  -0.806 -0.3270  0.2999  1.4819
  344MOL0     O47382   2.548   4.743  -0.490  0.4605  0.0891  0.3445
  344MOL0     C47383   2.623   5.090  -0.545  0.0956 -0.0429 -0.0893
  344MOL0     C47384   2.701   5.189  -0.500 -0.3418 -0.6152 -0.1645
  344MOL0     N47385   2.643   5.545   0.199 -0.0243  0.4067 -0.5835
  344MOL0     N47386   2.612   5.647   0.278 -0.3460 -0.0220 -1.1629
  344MOL0     C47387   3.149   6.375   0.397  0.1557 -0.0371  0.1675
  344MOL0     C47388   3.191   6.300   0.282  0.0829 -0.6767 -0.2874
  344MOL0     C47389   3.196   5.928   0.008  0.0689 -0.5284 -0.0705
  344MOL0     C47390   3.341   5.915  -0.004 -0.1290 -0.5251  0.8144
  344MOL0     C47391   3.403   5.844  -0.104 -0.9466 -0.9830 -0.0176
  344MOL0     C47392   3.322   5.770  -0.190  0.0027  0.5650 -0.4805
  344MOL0     O47393   3.376   5.696  -0.289 -0.0238  0.3207  0.3091
  344MOL0     C47394   3.501   5.724  -0.357 -0.9961  0.2870  0.3767
  344MOL0     C47395   3.523   5.856  -0.422 -0.7935 -0.3817  0.1564
  344MOL0     C47396   3.631   5.848  -0.533  0.7380  0.5990  0.9934
  344MOL0     C47397   3.642   5.983  -0.603 -0.5017  0.0752 -0.2322
  344MOL0     C47398   3.719   6.069  -0.510 -0.5088 -0.6767 -0.8535
  344MOL0     C47399   3.782   6.139  -0.431  0.3270  0.5408 -1.2014
  344MOL0     C47400   3.185   5.774  -0.178 -0.2941  0.8426  0.3481
  344MOL0     C47401   3.120   5.848  -0.083 -1.1388 -0.5312  0.0430
  344MOL0     C47402   2.978   5.836  -0.062 -0.7996  0.1648  0.3439
  344MOL0     H47403   3.207   5.992   0.432  2.2590  0.8882 -0.1477
  344MOL0     H47404   3.099   6.123   0.612  2.8360 -1.0174 -0.5928
  344MOL0     H47405   2.877   6.325   0.730  0.9312 -0.9727  0.8176
  344MOL0     H47406   2.879   6.237   0.580  0.5208 -1.3208  3.2926
  344MOL0     H47407   2.838   6.525   0.607  0.9922 -2.2714  2.9648
  344MOL0     H47408   2.869   6.438   0.443  0.7109 -2.3720 -0.1918
  344MOL0     H47409   2.679   6.297   0.615  4.4740 -1.0648 -0.1998
  344MOL0     H47410   2.616   6.455   0.571 -1.3132 -1.3796  2.1398
  344MOL0     H47411   2.523   6.327   0.397 -0.5123  2.0684 -3.6738
  344MOL0     H47412   2.653   6.422   0.327  2.5704 -0.3934  0.2746
  344MOL0     H47413   2.689   6.131   0.432 -3.1474  0.0843 -0.6125
  344MOL0     H47414   2.796   6.220   0.331 -0.7526 -0.0092 -0.4000
  344MOL0     H47415   2.515   6.149   0.251 -0.0746  3.1896 -0.2058
  344MOL0     H47416   2.630   6.228   0.148  2.6917  1.4066  2.5717
  344MOL0     H47417   2.758   6.003   0.203  0.4501  0.9235 -1.5662
  344MOL0     H47418   2.638   6.004   0.067 -1.9222  1.4550  0.8588
  344MOL0     H47419   2.588   5.924   0.352 -0.4720  1.6260  0.5209
  344MOL0     H47420   2.459   5.903   0.232  0.1689 -0.2074  3.1052
  344MOL0     H47421   2.685   5.805  -0.002  0.2363 -1.5150 -2.3423
  344MOL0     H47422   2.733   5.586  -0.144  0.4122 -0.0003  1.2680
  344MOL0     H47423   2.652   5.446  -0.072 -2.0149  1.0725 -2.5288
  344MOL0     H47424   2.944   5.540   0.004 -0.0993 -0.0874  0.0450
  344MOL0     H47425   2.868   5.388   0.041  0.0926  1.9223  2.0241
  344MOL0     H47426   2.950   5.495  -0.232  0.6204  0.2179  0.2102
  344MOL0     H47427   3.010   5.344  -0.156  2.4187  0.5032 -0.2537
  344MOL0     H47428   2.763   5.254  -0.200 -1.7076 -1.9565 -3.4903
  344MOL0     H47429   2.750   5.406  -0.289 -0.9092 -1.8179 -0.6593
  344MOL0     H47430   2.933   5.025  -0.325  0.2732  1.5041  0.5143
  344MOL0     H47431   2.785   4.768  -0.265 -2.4963  0.2763 -0.2722
  344MOL0     H47432   2.931   4.788  -0.374 -0.2065 -0.7005 -0.3872
  344MOL0     H47433   2.788   4.706  -0.443 -1.7058  1.9748 -0.6511
  344MOL0     H47434   2.236   4.840  -0.725 -0.7635 -1.1550  2.0425
  344MOL0     H47435   2.133   4.671  -0.842  0.1351 -3.3458  1.6551
  344MOL0     H47436   2.284   4.321  -1.104 -4.1175 -2.5365  0.4054
  344MOL0     H47437   2.385   4.324  -0.959  1.5894  0.7285 -2.9351
  344MOL0     H47438   2.240   4.147  -0.911 -0.6204 -1.0471  0.3280
  344MOL0     H47439   2.210   4.275  -0.810  1.5445  1.3595  0.7766
  344MOL0     H47440   2.008   4.161  -0.891 -1.6001  0.7830  0.7911
  344MOL0     H47441   2.038   4.204  -1.057  1.2079 -1.0367  0.2990
  344MOL0     H47442   1.983   4.446  -1.005 -5.2899 -1.3779 -3.4953
  344MOL0     H47443   1.984   4.404  -0.831 -3.8263 -1.4552  1.2828
  344MOL0     H47444   1.796   4.310  -1.034 -0.1916  0.6493 -0.2533
  344MOL0     H47445   1.782   4.274  -0.862 -1.2499  1.3536  2.0147
  344MOL0     H47446   1.637   4.462  -0.881  0.7474  3.1962  0.3768
  344MOL0     H47447   1.755   4.525  -1.002  4.2954  0.3222  0.7883
  344MOL0     H47448   1.896   4.633  -0.843 -0.4453 -0.5224 -1.0512
  344MOL0     H47449   1.846   4.516  -0.717  0.3148 -0.9174  0.4119
  344MOL0     H47450   1.732   4.739  -0.667 -0.8717  1.5712 -0.8355
  344MOL0     H47451   1.614   4.618  -0.711 -0.3101 -0.4604 -2.0484
  344MOL0     H47452   2.523   4.500  -0.929  0.3599  0.6567  1.5227
  344MOL0     H47453   2.620   4.658  -0.807 -0.4875 -3.0346 -0.9186
  344MOL0     H47454   2.546   5.120  -0.614 -0.2562  0.3597  0.4689
  344MOL0     H47455   2.671   5.291  -0.523 -2.0426 -0.5836  1.8791
  344MOL0     H47456   3.143   6.483   0.385 -0.5274 -0.0621  0.2778
  344MOL0     H47457   3.205   6.359   0.192 -1.8293  1.1218  0.5129
  344MOL0     H47458   3.414   5.969   0.055  1.4842  2.4107 -3.4521
  344MOL0     H47459   3.511   5.834  -0.102 -0.9781 -1.5038 -0.6521
  344MOL0     H47460   3.582   5.695  -0.290 -1.2649  2.2830  1.6584
  344MOL0     H47461   3.505   5.647  -0.434 -0.4346  2.4986 -1.9307
  344MOL0     H47462   3.544   5.936  -0.350 -2.6687  0.1448  0.1866
  344MOL0     H47463   3.426   5.884  -0.464 -1.1525 -1.9209 -0.0935
  344MOL0     H47464   3.728   5.817  -0.495  1.4109 -1.1953 -1.8909
  344MOL0     H47465   3.587   5.773  -0.600  0.7138  0.5517  1.0637
  344MOL0     H47466   3.541   6.017  -0.627 -0.1825  1.8668  0.7676
  344MOL0     H47467   3.695   5.973  -0.698 -0.1267  1.7231 -0.2370
  344MOL0     H47468   3.828   6.222  -0.381 -0.0959 -0.5269  1.0912
  344MOL0     H47469   3.107   5.715  -0.224 -0.5073 -0.2902  2.0824
  344MOL0     H47470   2.963   5.785   0.033 -1.4068 -0.0520  0.1328
  344MOL0     H47471   2.936   5.937  -0.070 -0.2078  0.7418  3.3630
  344MOL0     H47472   2.918   5.788  -0.139 -4.7085 -0.3755  3.4673
  345MOL0     O47473   5.616   2.037   5.286  0.0723 -0.3118  0.1091
  345MOL0     C47474   5.500   1.980   5.287 -0.4263 -0.2387  1.1195
  345MOL0     O47475   5.457   1.883   5.377  0.1590 -0.5108  0.2646
  345MOL0     C47476   5.558   1.819   5.440 -0.1125 -0.8378 -0.4600
  345MOL0     C47477   5.622   1.709   5.378 -0.4036  0.1094  0.7124
  345MOL0     C47478   5.716   1.639   5.455 -0.3135  0.8864 -1.1112
  345MOL0     C47479   5.740   1.668   5.590  0.5427  1.3363  0.9144
  345MOL0     O47480   5.833   1.587   5.652  0.2684 -0.2890  0.5471
  345MOL0     C47481   5.893   1.630   5.778  0.6537  0.3139 -0.0663
  345MOL0     C47482   6.009   1.548   5.827  0.5501 -0.0165  0.0234
  345MOL0     C47483   5.976   1.404   5.835 -0.3753 -0.3121  0.1997
  345MOL0     C47484   6.105   1.319   5.871  0.4462  0.3531 -0.4821
  345MOL0     C47485   6.080   1.175   5.915  0.4001  0.5871 -0.5412
  345MOL0     C47486   6.026   1.095   5.800 -0.1910  0.6365  0.3999
  345MOL0     C47487   5.941   0.973   5.857  1.6266  0.3678 -0.1312
  345MOL0     C47488   6.023   0.881   5.955 -0.6878  0.8363  0.1792
  345MOL0     N47489   6.136   0.809   5.888  0.5821 -0.6829 -0.4227
  345MOL0     C47490   6.122   0.704   5.811 -0.2944 -0.4024  0.3344
  345MOL0     C47491   6.246   0.681   5.766 -1.1201  0.6429  0.4725
  345MOL0     C47492   6.268   0.581   5.652  0.1025 -0.4357 -0.8004
  345MOL0     C47493   6.343   0.452   5.688  0.0756  0.2586  0.0721
  345MOL0     C47494   6.225   0.343   5.697 -1.1379  0.3107 -0.8967
  345MOL0     C47495   6.285   0.208   5.761  0.1376  0.2619  0.0492
  345MOL0     O47496   6.402   0.157   5.691  0.0508 -0.2315 -0.5869
  345MOL0     C47497   6.372   0.072   5.586 -0.2192  0.1489 -0.2965
  345MOL0     C47498   6.331  -0.060   5.603 -0.0796  1.2081  0.0707
  345MOL0     C47499   6.305  -0.149   5.499 -0.0536 -0.4651  0.4130
  345MOL0     C47500   6.241  -0.277   5.538  0.5912  0.0668  0.6921
  345MOL0     C47501   6.333  -0.099   5.368 -0.1352  0.5538  0.3079
  345MOL0     C47502   6.306  -0.183   5.249  0.2151 -0.6992  0.2389
  345MOL0     O47503   6.211  -0.134   5.171 -0.2029 -0.2578  0.3788
  345MOL0     C47504   6.183  -0.190   5.047  0.0469  0.3556 -0.1049
  345MOL0     C47505   6.265  -0.274   4.968  0.1204  0.9719 -0.6144
  345MOL0     C47506   6.219  -0.332   4.842 -0.1874  0.3429 -0.8942
  345MOL0     C47507   6.087  -0.333   4.813  0.3954 -0.6954  0.4141
  345MOL0     O47508   6.048  -0.389   4.691  0.3889  0.0971 -0.5463
  345MOL0     C47509   5.942  -0.479   4.711  0.1590  0.5561  0.4826
  345MOL0     C47510   5.945  -0.571   4.578  0.1700 -0.9003 -0.3412
  345MOL0     C47511   5.902  -0.495   4.447 -0.0095 -0.1748 -0.5529
  345MOL0     C47512   5.750  -0.455   4.427 -0.8703  0.0158  0.6747
  345MOL0     C47513   5.732  -0.379   4.285 -0.2541  0.2035 -0.3513
  345MOL0     C47514   5.772  -0.230   4.274 -0.1514 -0.2218 -0.0948
  345MOL0     C47515   5.665  -0.146   4.339 -0.3668 -0.0619 -0.3242
  345MOL0     C47516   5.714  -0.005   4.353  0.2448 -0.1077  0.5744
  345MOL0    Cl47517   5.599   0.098   4.431  0.1932 -0.3668 -0.4745
  345MOL0     C47518   5.999  -0.250   4.888 -0.5022  0.1924  0.1365
  345MOL0     C47519   6.048  -0.187   5.009 -0.1797  0.2390 -0.2616
  345MOL0     O47520   6.362  -0.288   5.234 -0.9210 -0.0195  0.6055
  345MOL0     C47521   6.374   0.036   5.342  0.6917 -0.1591  0.6799
  345MOL0     C47522   6.389   0.122   5.452  0.1199 -0.0403  0.2972
  345MOL0     N47523   6.342   0.739   5.850 -0.3807 -0.0723  0.1965
  345MOL0     N47524   6.264   0.824   5.918 -0.5354  0.1519 -0.1659
  345MOL0     C47525   5.685   1.788   5.634  0.3613 -0.1239  0.1927
  345MOL0     C47526   5.599   1.862   5.562  0.5154  0.3179  0.2411
  345MOL0     C47527   5.409   2.037   5.187  0.1185  0.1764  0.3097
  345MOL0     C47528   5.306   2.119   5.236  0.2023 -1.6123  0.3914
  345MOL0     C47529   5.217   2.187   5.154 -0.3371  0.3749  0.2597
  345MOL0     C47530   5.234   2.164   5.014 -0.1557  0.6717  0.3535
  345MOL0     O47531   5.134   2.224   4.922 -0.3063  0.0192 -0.5559
  345MOL0     C47532   5.139   2.190   4.780 -0.7201 -0.0906 -0.6194
  345MOL0     C47533   4.993   2.198   4.727 -0.6920 -0.3662 -0.4308
  345MOL0     C47534   4.894   2.111   4.813  0.3065 -0.0555 -0.0144
  345MOL0     C47535   4.758   2.180   4.839  0.7211  0.3503  0.0767
  345MOL0     C47536   4.767   2.296   4.922  0.4986 -0.0218 -0.6522
  345MOL0     C47537   4.768   2.404   4.973 -0.0354 -0.3259 -1.0381
  345MOL0     C47538   5.333   2.083   4.959  0.1712 -0.5504 -1.0197
  345MOL0     C47539   5.427   2.027   5.045  0.1111  0.1505  0.0692
  345MOL0     C47540   5.537   1.955   4.969 -0.3039 -0.1728  0.2476
  345MOL0     H47541   5.606   1.684   5.274  1.0426  1.5885  0.0935
  345MOL0     H47542   5.759   1.547   5.416  0.1315  1.3031 -1.6142
  345MOL0     H47543   5.812   1.625   5.852  1.1496  0.6995  0.5222
  345MOL0     H47544   5.918   1.736   5.784 -1.4529  0.9692 -1.5112
  345MOL0     H47545   6.098   1.577   5.770  1.3295  0.4251  1.4019
  345MOL0     H47546   6.037   1.583   5.927  0.4706  0.4241 -0.1067
  345MOL0     H47547   5.893   1.384   5.903  0.8642 -1.6081  1.4000
  345MOL0     H47548   5.936   1.368   5.739  0.9575 -1.3884  0.0165
  345MOL0     H47549   6.178   1.310   5.790  0.5123 -2.3414 -0.1901
  345MOL0     H47550   6.163   1.362   5.954 -0.2106 -0.3134  0.3270
  345MOL0     H47551   6.008   1.169   5.997  0.7175 -1.8794 -0.3760
  345MOL0     H47552   6.172   1.128   5.948  0.7849  1.7107  0.0409
  345MOL0     H47553   5.964   1.158   5.735  1.4837  0.9124 -1.0050
  345MOL0     H47554   6.105   1.060   5.733 -0.5090  0.1900  0.2485
  345MOL0     H47555   5.897   0.910   5.780 -1.6797  0.5985  1.3709
  345MOL0     H47556   5.853   1.024   5.897  1.2770  1.4989 -2.2099
  345MOL0     H47557   6.058   0.935   6.043  0.2517  1.0989 -0.3383
  345MOL0     H47558   5.955   0.798   5.975 -0.1464 -0.8552 -3.9508
  345MOL0     H47559   6.037   0.650   5.771  0.3640 -1.2818  0.0670
  345MOL0     H47560   6.331   0.623   5.573 -0.0677 -1.0625 -1.2840
  345MOL0     H47561   6.165   0.565   5.618 -0.6330 -0.4099  1.2687
  345MOL0     H47562   6.415   0.426   5.610  0.8826 -1.3167  1.2928
  345MOL0     H47563   6.398   0.464   5.781 -2.6100 -2.9708  2.3289
  345MOL0     H47564   6.151   0.383   5.766  2.5083 -0.1707  3.8323
  345MOL0     H47565   6.199   0.332   5.591  1.5544  3.1596 -2.0304
  345MOL0     H47566   6.303   0.215   5.868 -0.7858 -1.1766  0.3360
  345MOL0     H47567   6.203   0.135   5.751  1.1117 -0.7272 -1.0658
  345MOL0     H47568   6.330  -0.110   5.700 -1.0051  4.5572  1.9282
  345MOL0     H47569   6.138  -0.256   5.508  0.5045  0.9914  1.6051
  345MOL0     H47570   6.253  -0.310   5.642  2.8678 -2.3451 -0.2204
  345MOL0     H47571   6.291  -0.361   5.490  0.5428 -0.0107  0.7763
  345MOL0     H47572   6.370  -0.289   4.988 -0.3515 -1.7926  0.1157
  345MOL0     H47573   6.278  -0.402   4.785  0.6446  1.3722 -1.3354
  345MOL0     H47574   5.954  -0.549   4.795  1.8064  3.6774  3.0620
  345MOL0     H47575   5.847  -0.425   4.722 -1.0816 -1.0038 -1.7471
  345MOL0     H47576   6.048  -0.599   4.557 -0.2807 -1.2352 -2.2992
  345MOL0     H47577   5.883  -0.661   4.580  0.1259 -0.8903 -1.0358
  345MOL0     H47578   5.935  -0.564   4.370  2.8459  1.0703 -0.5720
  345MOL0     H47579   5.955  -0.400   4.443 -0.0945 -0.1698 -2.7558
  345MOL0     H47580   5.714  -0.394   4.510 -1.3018 -1.4974  1.6526
  345MOL0     H47581   5.690  -0.547   4.424  0.9641 -1.2560  1.1783
  345MOL0     H47582   5.777  -0.436   4.203 -0.7963  0.0857 -0.5704
  345MOL0     H47583   5.626  -0.378   4.262 -0.5590 -1.3385  0.8407
  345MOL0     H47584   5.783  -0.194   4.172 -3.4312 -2.2090 -1.3058
  345MOL0     H47585   5.863  -0.198   4.327 -2.8752  0.9453  4.4322
  345MOL0     H47586   5.655  -0.186   4.440  1.7710 -0.0677 -0.0723
  345MOL0     H47587   5.570  -0.145   4.284  0.5442  3.3081 -2.1844
  345MOL0     H47588   5.738   0.031   4.252 -0.8502  1.0834  0.7028
  345MOL0     H47589   5.809   0.013   4.402 -1.4550  2.3373  3.2847
  345MOL0     H47590   5.899  -0.229   4.852  0.9479  0.3929 -4.4465
  345MOL0     H47591   5.986  -0.134   5.081 -0.7494 -3.7495  2.5267
  345MOL0     H47592   6.384   0.072   5.240 -1.8004  0.1193  0.4722
  345MOL0     H47593   6.417   0.226   5.437 -2.6859  1.0542  1.8215
  345MOL0     H47594   5.698   1.818   5.737  1.1897 -4.1953  1.4590
  345MOL0     H47595   5.549   1.951   5.601 -0.4120  0.1802 -0.5879
  345MOL0     H47596   5.298   2.138   5.342  1.1383  1.0549  0.0765
  345MOL0     H47597   5.139   2.254   5.188 -0.0041  1.5821 -1.2381
  345MOL0     H47598   5.206   2.263   4.736 -1.5700  1.3868  0.4617
  345MOL0     H47599   5.172   2.088   4.755 -0.9539 -0.2437 -0.3104
  345MOL0     H47600   4.979   2.158   4.626  0.0669 -0.3469 -0.5472
  345MOL0     H47601   4.964   2.304   4.722  0.9285  0.1051 -0.4768
  345MOL0     H47602   4.884   2.020   4.752  2.8271 -1.6756  1.7923
  345MOL0     H47603   4.948   2.072   4.899  0.4210 -1.9631 -0.9002
  345MOL0     H47604   4.695   2.104   4.885  4.0713 -1.0673  2.7504
  345MOL0     H47605   4.707   2.203   4.745 -0.8389 -3.2831 -0.1407
  345MOL0     H47606   4.784   2.509   4.987 -0.8441 -0.2104 -0.9147
  345MOL0     H47607   5.365   2.083   4.855  4.5332 -0.7891  0.1031
  345MOL0     H47608   5.613   1.923   5.041 -0.5209  1.2931  1.1735
  345MOL0     H47609   5.505   1.866   4.914 -0.8492  1.4896 -2.3306
  345MOL0     H47610   5.585   2.019   4.894 -0.8827 -0.2843 -0.2211
  346MOL0     O47611   2.934   9.783  10.347  0.6433 -0.4407 -0.3909
  346MOL0     C47612   2.883   9.882  10.296  0.7622 -0.4492 -0.3774
  346MOL0     O47613   2.866  10.006  10.352 -0.1454  0.1697  0.1130
  346MOL0     C47614   2.913  10.022  10.482 -0.1186 -1.1801  0.0922
  346MOL0     C47615   3.043  10.068  10.501 -0.4147 -0.2435  0.2477
  346MOL0     C47616   3.100  10.090  10.624  1.0083 -0.5853  0.4245
  346MOL0     C47617   3.022  10.046  10.735  0.4796 -0.4022  0.6406
  346MOL0     O47618   3.065  10.052  10.864  0.2403 -0.3233  0.3006
  346MOL0     C47619   3.205  10.038  10.880 -0.3697  0.8386  0.5508
  346MOL0     C47620   3.244  10.055  11.031  1.4623 -0.3357  0.7742
  346MOL0     C47621   3.167   9.956  11.124 -0.1431  0.5169  0.2347
  346MOL0     C47622   3.223   9.979  11.267  0.6372  0.3468 -0.5188
  346MOL0     C47623   3.138   9.904  11.381 -0.7954 -0.3762 -0.1764
  346MOL0     C47624   2.991   9.906  11.368 -1.0135  0.6746 -0.5152
  346MOL0     C47625   2.903   9.859  11.489 -0.1107  0.3469  0.7923
  346MOL0     C47626   2.925   9.711  11.521  0.1432 -0.1445  0.0813
  346MOL0     N47627   2.807   9.644  11.583  0.2036  0.7999  0.0095
  346MOL0     C47628   2.820   9.524  11.653  0.4823 -0.0885 -0.9861
  346MOL0     C47629   2.689   9.482  11.666  0.6466 -0.3123  0.3407
  346MOL0     C47630   2.641   9.368  11.761 -0.5359  0.5020 -0.5646
  346MOL0     C47631   2.707   9.226  11.748 -0.2359 -0.0326  0.5883
  346MOL0     C47632   2.630   9.135  11.842 -0.4063 -0.1452  0.4727
  346MOL0     C47633   2.669   8.983  11.840 -0.0309 -0.6474 -0.2830
  346MOL0     O47634   2.809   8.965  11.882  0.2417  0.0932 -0.0792
  346MOL0     C47635   2.888   8.874  11.820  0.5522 -0.0962  0.3628
  346MOL0     C47636   2.841   8.776  11.731 -0.0236 -0.1253  0.1592
  346MOL0     C47637   2.916   8.681  11.665  0.5534 -0.2176 -0.4599
  346MOL0     C47638   2.844   8.566  11.587  0.3594 -0.0265 -0.2758
  346MOL0     C47639   3.057   8.701  11.675 -0.0308  0.1166 -0.4633
  346MOL0     C47640   3.162   8.629  11.584 -0.4148 -0.5180  0.1551
  346MOL0     O47641   3.282   8.687  11.586 -0.3376  0.1127 -0.2991
  346MOL0     C47642   3.383   8.623  11.528 -0.1312  0.0178  0.7457
  346MOL0     C47643   3.426   8.499  11.574 -0.5059  0.8799  0.8177
  346MOL0     C47644   3.534   8.437  11.507  0.7634  0.1849 -0.3115
  346MOL0     C47645   3.594   8.505  11.390 -0.3819 -0.1172 -0.1200
  346MOL0     O47646   3.706   8.437  11.347  0.1291  0.2752  0.7218
  346MOL0     C47647   3.811   8.505  11.406  0.2033 -0.1125  0.1944
  346MOL0     C47648   3.941   8.444  11.359  0.1286  0.3460  0.8054
  346MOL0     C47649   3.980   8.315  11.436 -0.9298  0.6509 -0.6445
  346MOL0     C47650   4.134   8.281  11.401 -0.0409  0.1888 -0.4614
  346MOL0     C47651   4.172   8.158  11.472 -0.5403  0.8129 -0.8960
  346MOL0     C47652   4.202   8.182  11.621 -0.4092 -0.4203  0.4035
  346MOL0     C47653   4.308   8.094  11.679 -1.2854  0.3571 -0.7599
  346MOL0     C47654   4.280   8.064  11.825 -1.0010 -0.8922 -0.2196
  346MOL0    Cl47655   4.391   7.943  11.879  0.1060 -0.4355  0.1405
  346MOL0     C47656   3.548   8.624  11.341  0.1139  0.4726 -0.7897
  346MOL0     C47657   3.440   8.679  11.410 -0.1391 -0.6451 -0.2061
  346MOL0     O47658   3.127   8.536  11.513 -0.1165  0.0708  0.6547
  346MOL0     C47659   3.109   8.798  11.761  0.6008  0.3329 -0.0456
  346MOL0     C47660   3.027   8.872  11.843  0.7977 -0.0126  0.3363
  346MOL0     N47661   2.611   9.584  11.618  0.4876 -0.4700  0.5415
  346MOL0     N47662   2.679   9.684  11.567  0.0695  0.1783 -1.0795
  346MOL0     C47663   2.900   9.990  10.717  0.3798  0.1417 -0.5920
  346MOL0     C47664   2.836   9.985  10.589  0.1445 -0.8830 -0.4581
  346MOL0     C47665   2.842   9.862  10.150  0.4330  1.1929 -0.1563
  346MOL0     C47666   2.768   9.750  10.117 -0.3384 -0.8874  0.9987
  346MOL0     C47667   2.740   9.718   9.986 -0.1172  0.0950  0.8944
  346MOL0     C47668   2.773   9.811   9.888 -0.5553 -0.0342 -0.1931
  346MOL0     O47669   2.733   9.767   9.763 -0.2773 -0.0954  0.3668
  346MOL0     C47670   2.718   9.860   9.661  0.3381 -0.5885  0.3890
  346MOL0     C47671   2.620   9.801   9.560 -0.3783 -0.8819 -0.4324
  346MOL0     C47672   2.692   9.714   9.458 -0.7469  1.3724  0.1184
  346MOL0     C47673   2.711   9.569   9.508 -0.2238  0.7853 -0.4779
  346MOL0     C47674   2.749   9.481   9.410  0.2794  1.3002  0.4924
  346MOL0     C47675   2.768   9.384   9.333 -0.7347  0.1790  0.3773
  346MOL0     C47676   2.841   9.927   9.921  0.9410 -0.1704  0.4221
  346MOL0     C47677   2.870   9.959  10.054 -1.0870 -0.4051 -0.0801
  346MOL0     C47678   2.924  10.101  10.083 -0.1971  0.6442 -0.4445
  346MOL0     H47679   3.095  10.094  10.410 -1.7165 -0.5230 -0.6083
  346MOL0     H47680   3.197  10.137  10.637  1.2687 -0.3543 -1.8313
  346MOL0     H47681   3.245  10.130  10.835 -4.5128  0.8946 -3.8280
  346MOL0     H47682   3.244   9.943  10.844 -1.4007  0.5287  0.2212
  346MOL0     H47683   3.353  10.045  11.035  1.6197  1.3588  1.7663
  346MOL0     H47684   3.212  10.158  11.050 -3.0372 -1.8466  2.9200
  346MOL0     H47685   3.063   9.988  11.117 -0.4003 -0.2363  0.5971
  346MOL0     H47686   3.179   9.851  11.096 -0.6383  0.4813  0.1559
  346MOL0     H47687   3.330   9.958  11.269  1.2207  2.7820 -1.7695
  346MOL0     H47688   3.205  10.085  11.286  0.3541  0.3353 -0.7086
  346MOL0     H47689   3.161   9.942  11.481 -2.5405 -3.7437  1.6605
  346MOL0     H47690   3.170   9.799  11.375  0.4639 -0.0286  0.0739
  346MOL0     H47691   2.961  10.012  11.370 -4.1725 -0.1183 -0.6922
  346MOL0     H47692   2.946   9.855  11.283 -2.2944  0.6143  0.1749
  346MOL0     H47693   2.802   9.867  11.447 -0.0317 -2.4191 -0.0943
  346MOL0     H47694   2.899   9.925  11.576 -2.1089  2.7365 -0.9523
  346MOL0     H47695   2.949   9.655  11.431 -0.4572 -1.0808  0.4876
  346MOL0     H47696   3.005   9.715  11.595  2.2002 -1.4421 -1.9500
  346MOL0     H47697   2.910   9.483  11.698 -0.1995 -0.3505  0.1688
  346MOL0     H47698   2.535   9.353  11.743 -0.1222 -1.3982 -1.6220
  346MOL0     H47699   2.660   9.406  11.862 -3.2162  1.5941 -0.3834
  346MOL0     H47700   2.703   9.184  11.647 -0.0697 -4.6820  2.2792
  346MOL0     H47701   2.810   9.237  11.783 -0.5422 -1.7261  2.1817
  346MOL0     H47702   2.648   9.164  11.946  1.1593  0.8645 -0.0406
  346MOL0     H47703   2.522   9.139  11.827 -0.6474 -0.5128  1.8873
  346MOL0     H47704   2.598   8.922  11.897 -1.5630  0.3449 -1.0558
  346MOL0     H47705   2.656   8.952  11.736  0.0152 -4.4698  0.7166
  346MOL0     H47706   2.737   8.745  11.736 -0.2494  0.5152 -0.3574
  346MOL0     H47707   2.898   8.472  11.599 -0.7628 -0.8564 -1.4520
  346MOL0     H47708   2.829   8.591  11.482  0.3983  1.1487 -0.0126
  346MOL0     H47709   2.747   8.530  11.624 -0.2474 -3.0522 -4.1423
  346MOL0     H47710   3.387   8.457  11.666 -1.0103  0.9157  0.6186
  346MOL0     H47711   3.579   8.343  11.537  1.3472  0.7430  0.6077
  346MOL0     H47712   3.805   8.611  11.380 -0.3206 -0.5531 -1.5795
  346MOL0     H47713   3.796   8.492  11.514 -1.6838  0.4612  0.0388
  346MOL0     H47714   3.927   8.408  11.257  0.6835  2.1925  0.0293
  346MOL0     H47715   4.021   8.518  11.368  1.8852 -1.4939  1.1668
  346MOL0     H47716   3.926   8.229  11.395  0.5722 -0.9879  0.6340
  346MOL0     H47717   3.965   8.323  11.544 -0.0146 -0.0386 -0.4479
  346MOL0     H47718   4.201   8.364  11.423 -3.0428  2.9135 -0.7680
  346MOL0     H47719   4.135   8.277  11.292  0.5840  1.7898 -0.5336
  346MOL0     H47720   4.091   8.085  11.472  1.0054 -1.2605  3.2559
  346MOL0     H47721   4.258   8.110  11.426 -1.7097 -1.3301 -0.9689
  346MOL0     H47722   4.108   8.171  11.675 -1.4439  2.3193 -0.6741
  346MOL0     H47723   4.234   8.286  11.635 -1.7472 -0.0286  0.6480
  346MOL0     H47724   4.406   8.142  11.669 -1.0177 -0.1359 -0.5715
  346MOL0     H47725   4.304   7.990  11.643  1.9468 -0.4908  0.8804
  346MOL0     H47726   4.175   8.039  11.845 -1.2670  2.4183  4.1120
  346MOL0     H47727   4.288   8.153  11.888  0.8777  0.3695 -2.0957
  346MOL0     H47728   3.595   8.683  11.263  0.9331  3.3429  1.6793
  346MOL0     H47729   3.415   8.784  11.397  5.0716  1.0039  0.5012
  346MOL0     H47730   3.216   8.812  11.770  0.8128 -1.9277  2.6914
  346MOL0     H47731   3.063   8.950  11.910 -1.2516  1.0495  0.2702
  346MOL0     H47732   2.849   9.944  10.801  2.1959 -0.6014  0.1360
  346MOL0     H47733   2.734   9.956  10.568 -0.2296  0.2454 -0.2694
  346MOL0     H47734   2.728   9.695  10.201 -0.0440  0.4643  2.0446
  346MOL0     H47735   2.677   9.633   9.958  1.5019 -0.3020 -1.9524
  346MOL0     H47736   2.687   9.961   9.691 -0.2611  0.8517 -4.2380
  346MOL0     H47737   2.809   9.887   9.605 -1.0958  0.7304 -1.4111
  346MOL0     H47738   2.594   9.893   9.508  1.7682 -0.3167 -0.6191
  346MOL0     H47739   2.529   9.752   9.596 -0.8902 -1.4822 -2.3909
  346MOL0     H47740   2.653   9.715   9.356  1.5924 -1.9645 -0.9926
  346MOL0     H47741   2.787   9.766   9.439  0.0585 -0.3995 -0.9704
  346MOL0     H47742   2.620   9.531   9.555  0.4486  3.0665  3.0735
  346MOL0     H47743   2.780   9.568   9.592 -1.8645  2.4567  0.9882
  346MOL0     H47744   2.769   9.301   9.266 -0.0841 -0.5785  1.2976
  346MOL0     H47745   2.850  10.002   9.844  0.5334 -0.4923  0.0580
  346MOL0     H47746   2.996  10.103  10.165 -1.3461 -2.8786  0.8509
  346MOL0     H47747   2.960  10.139   9.987 -0.5770 -0.2933 -0.9757
  346MOL0     H47748   2.845  10.175  10.099 -1.9487 -0.7675 -1.9980
  347MOL0     O47749   7.672   4.269  11.177 -0.6550 -0.2369 -0.4978
  347MOL0     C47750   7.651   4.386  11.150  0.4512 -0.7971 -0.7666
  347MOL0     O47751   7.582   4.469  11.232 -0.1272  0.6563 -0.4656
  347MOL0     C47752   7.479   4.417  11.308 -0.1403  0.6817  0.1479
  347MOL0     C47753   7.361   4.382  11.246 -0.7311  0.0395 -0.2458
  347MOL0     C47754   7.256   4.320  11.314  0.3315 -0.9802 -0.8439
  347MOL0     C47755   7.269   4.302  11.451 -0.0964 -0.1708  1.0791
  347MOL0     O47756   7.159   4.265  11.521  0.1177  0.4946 -0.5004
  347MOL0     C47757   7.166   4.120  11.532 -0.4329  0.1074  0.4849
  347MOL0     C47758   7.079   4.084  11.651 -0.7673  0.1899  0.0637
  347MOL0     C47759   7.136   4.137  11.779 -0.9225 -0.1560 -0.6324
  347MOL0     C47760   7.269   4.061  11.827 -0.6059 -0.1921 -0.5153
  347MOL0     C47761   7.286   4.088  11.976  0.0091  0.5173 -1.0611
  347MOL0     C47762   7.405   4.009  12.039 -0.2763  0.1204  0.6392
  347MOL0     C47763   7.544   4.033  11.973 -0.0613 -0.4006 -0.6554
  347MOL0     C47764   7.581   4.184  11.988 -0.4258  0.0054  0.5543
  347MOL0     N47765   7.683   4.227  11.887  0.4773 -1.0872 -0.5356
  347MOL0     C47766   7.817   4.237  11.900  0.1498  0.7678  0.1792
  347MOL0     C47767   7.858   4.273  11.779  0.2742  0.7095  0.1454
  347MOL0     C47768   7.999   4.310  11.748 -0.1054 -0.2444  0.2696
  347MOL0     C47769   8.070   4.213  11.653  0.7557  0.0297 -0.0994
  347MOL0     C47770   8.098   4.273  11.512  0.2821 -0.2631  0.1479
  347MOL0     C47771   8.214   4.189  11.447  0.3993 -0.3888 -0.2229
  347MOL0     O47772   8.335   4.249  11.482  0.4667 -0.8204 -0.5620
  347MOL0     C47773   8.427   4.265  11.380  0.3739  0.8499 -0.4490
  347MOL0     C47774   8.497   4.379  11.391  0.2977 -0.2443 -0.2504
  347MOL0     C47775   8.590   4.412  11.294 -0.0918 -0.7422 -0.5164
  347MOL0     C47776   8.640   4.550  11.310  0.4482  0.0682  0.1902
  347MOL0     C47777   8.629   4.319  11.193 -0.1017  0.1441 -0.6563
  347MOL0     C47778   8.742   4.337  11.093  0.2735 -0.1563 -0.2585
  347MOL0     O47779   8.807   4.223  11.055  0.0754  0.2791 -0.1416
  347MOL0     C47780   8.910   4.249  10.966  0.1086  0.1870 -0.7906
  347MOL0     C47781   8.895   4.196  10.839  0.6927  0.7434 -0.0285
  347MOL0     C47782   8.994   4.218  10.738 -0.1897 -0.9903  0.3574
  347MOL0     C47783   9.119   4.270  10.774 -0.2651 -0.2414  0.7479
  347MOL0     O47784   9.222   4.262  10.679  0.5722 -0.1160 -1.4519
  347MOL0     C47785   9.345   4.307  10.729 -0.4881  0.1230 -0.7990
  347MOL0     C47786   9.437   4.297  10.613 -0.0841  0.3598  0.6837
  347MOL0     C47787   9.575   4.356  10.651  0.0443 -0.5570 -0.0247
  347MOL0     C47788   9.596   4.500  10.617 -0.2833 -0.4505 -0.0105
  347MOL0     C47789   9.742   4.535  10.637 -0.2762 -1.4635  0.3947
  347MOL0     C47790   9.763   4.594  10.782  0.9337  0.5841  0.1634
  347MOL0     C47791   9.892   4.672  10.777 -0.1863 -0.2224  0.6078
  347MOL0     C47792  10.010   4.579  10.777 -1.0885 -0.0440  0.3794
  347MOL0    Cl47793  10.020   4.501  10.940  0.3071 -0.1241 -0.1312
  347MOL0     C47794   9.140   4.306  10.909 -0.4643  0.6822 -1.2712
  347MOL0     C47795   9.033   4.304  11.007 -0.0360  0.0550  0.1266
  347MOL0     O47796   8.768   4.455  11.059 -0.1688  0.2969 -0.7243
  347MOL0     C47797   8.561   4.194  11.192  1.0865 -0.3121 -0.4856
  347MOL0     C47798   8.451   4.174  11.285 -0.2748  0.0806 -0.1205
  347MOL0     N47799   7.759   4.289  11.694 -0.2690  0.2264  1.3961
  347MOL0     N47800   7.647   4.267  11.760 -0.2172  0.9548 -0.2755
  347MOL0     C47801   7.383   4.344  11.517  0.2495 -0.7758  0.1579
  347MOL0     C47802   7.492   4.394  11.449  0.3435  0.6022  0.0800
  347MOL0     C47803   7.723   4.446  11.030  0.4446 -0.2976  0.2635
  347MOL0     C47804   7.821   4.365  10.964 -0.1570  0.6126  0.0304
  347MOL0     C47805   7.897   4.416  10.860 -0.4382  0.9388  0.2227
  347MOL0     C47806   7.875   4.538  10.802 -0.3379  0.3865  0.2018
  347MOL0     O47807   7.927   4.581  10.685 -0.4956 -0.3547 -0.1470
  347MOL0     C47808   8.011   4.498  10.604 -0.6177 -0.4826 -0.1269
  347MOL0     C47809   8.034   4.578  10.481  0.0671  0.0391  0.8429
  347MOL0     C47810   8.152   4.514  10.397  0.2233 -0.4093 -0.5321
  347MOL0     C47811   8.190   4.578  10.259  0.0319  0.4287 -0.2881
  347MOL0     C47812   8.239   4.713  10.268  0.5313  0.3291  0.5305
  347MOL0     C47813   8.296   4.819  10.280 -0.0141 -0.0641 -0.8810
  347MOL0     C47814   7.774   4.613  10.864  0.0839 -0.5966  1.3830
  347MOL0     C47815   7.696   4.570  10.975  0.3203  0.5572  0.7550
  347MOL0     C47816   7.574   4.652  11.020  0.9790 -0.2799  0.2167
  347MOL0     H47817   7.345   4.405  11.141  0.6744  3.2099  0.1262
  347MOL0     H47818   7.166   4.310  11.255 -0.3866  1.7498 -0.3672
  347MOL0     H47819   7.264   4.075  11.547 -1.3598 -1.5269  1.9698
  347MOL0     H47820   7.114   4.076  11.446 -0.2809  3.2293 -1.3588
  347MOL0     H47821   6.989   4.147  11.645  0.1022  1.5823  1.0494
  347MOL0     H47822   7.055   3.978  11.645  2.2208 -0.4775 -2.8926
  347MOL0     H47823   7.170   4.240  11.764  2.0949 -1.3382 -2.9639
  347MOL0     H47824   7.064   4.130  11.862 -2.5674  0.0245 -1.9887
  347MOL0     H47825   7.268   3.955  11.798  0.5943 -0.6733  1.0550
  347MOL0     H47826   7.355   4.111  11.781  1.3214 -3.0637 -0.3081
  347MOL0     H47827   7.189   4.077  12.026 -0.1179  0.1105 -1.3876
  347MOL0     H47828   7.300   4.196  11.986  1.6726  0.3395 -1.1239
  347MOL0     H47829   7.419   4.026  12.146  0.6238  2.0744  0.2418
  347MOL0     H47830   7.369   3.906  12.026 -1.1762  0.5923 -0.7492
  347MOL0     H47831   7.538   4.013  11.866 -0.5221  1.5084 -1.0104
  347MOL0     H47832   7.624   3.972  12.017 -0.6639  0.7283  2.2349
  347MOL0     H47833   7.506   4.260  11.963  2.0400  1.8975 -1.6797
  347MOL0     H47834   7.623   4.202  12.087  2.6361  3.4878 -1.1127
  347MOL0     H47835   7.884   4.213  11.982  1.5481  2.3760 -0.4332
  347MOL0     H47836   8.049   4.317  11.845  0.8506 -0.0523 -0.2249
  347MOL0     H47837   8.005   4.407  11.697  0.3786 -0.2858  0.2377
  347MOL0     H47838   8.168   4.190  11.696  0.3349 -1.4082  0.1691
  347MOL0     H47839   8.016   4.118  11.640  1.4529 -0.2086 -1.4204
  347MOL0     H47840   8.009   4.280  11.449 -1.1749 -1.0613  2.0141
  347MOL0     H47841   8.138   4.372  11.537  1.7697  0.1391 -3.2670
  347MOL0     H47842   8.211   4.085  11.478 -2.0802 -0.5713 -0.8634
  347MOL0     H47843   8.212   4.190  11.337  5.3123  2.6392 -0.6051
  347MOL0     H47844   8.471   4.439  11.478 -1.0713  0.6703 -1.2407
  347MOL0     H47845   8.573   4.629  11.276  0.8297  0.5222  0.4594
  347MOL0     H47846   8.743   4.566  11.276  0.8205 -0.2053  1.1499
  347MOL0     H47847   8.645   4.574  11.417  1.6407  2.3062 -0.2987
  347MOL0     H47848   8.806   4.136  10.821  1.7072 -1.0526  0.7399
  347MOL0     H47849   8.984   4.179  10.637 -1.5123 -0.8652  0.4329
  347MOL0     H47850   9.351   4.411  10.763 -2.4227  0.3739 -1.1181
  347MOL0     H47851   9.365   4.245  10.817 -0.2463 -2.7998 -2.7728
  347MOL0     H47852   9.447   4.191  10.588 -1.7932  0.1040  0.9345
  347MOL0     H47853   9.399   4.348  10.524  1.5469  1.0109  0.3237
  347MOL0     H47854   9.647   4.301  10.590 -0.1069 -2.5814  1.5284
  347MOL0     H47855   9.604   4.339  10.755 -0.0711  0.7111  0.2360
  347MOL0     H47856   9.532   4.573  10.668 -2.0664  1.1659 -4.0603
  347MOL0     H47857   9.578   4.521  10.511  4.0311  4.0731 -0.2785
  347MOL0     H47858   9.807   4.448  10.623  1.4211  0.1855 -3.1321
  347MOL0     H47859   9.763   4.601  10.552 -1.9145 -0.3139  0.8336
  347MOL0     H47860   9.762   4.508  10.849  0.7222 -0.8378 -1.6016
  347MOL0     H47861   9.683   4.662  10.813  0.9548  0.1782  1.1470
  347MOL0     H47862   9.890   4.747  10.856  0.6930  0.3014  0.1569
  347MOL0     H47863   9.900   4.731  10.685  0.8095 -0.3223  0.6155
  347MOL0     H47864  10.097   4.645  10.789 -2.4321  1.2501  5.6769
  347MOL0     H47865  10.018   4.521  10.685 -2.3126  0.5148 -0.0990
  347MOL0     H47866   9.233   4.340  10.953 -1.0844 -0.1521  0.8341
  347MOL0     H47867   9.043   4.347  11.106 -2.0228 -1.0442  0.8582
  347MOL0     H47868   8.586   4.111  11.127  1.2186  0.5210 -1.5373
  347MOL0     H47869   8.404   4.077  11.276  1.8249 -1.3498  2.7977
  347MOL0     H47870   7.386   4.330  11.625  2.0541 -1.0873  0.0971
  347MOL0     H47871   7.584   4.420  11.500 -0.0671 -1.9428  2.3944
  347MOL0     H47872   7.847   4.267  11.002 -0.0653  0.3913 -0.5887
  347MOL0     H47873   7.969   4.343  10.824 -0.3794 -0.9670  3.8070
  347MOL0     H47874   8.109   4.479  10.647 -1.1048 -2.2643  0.2851
  347MOL0     H47875   7.969   4.404  10.566 -2.7276  0.0696  0.6586
  347MOL0     H47876   8.049   4.685  10.500 -2.3363  0.4395  0.8478
  347MOL0     H47877   7.938   4.568  10.430 -0.7758  0.4325  2.2641
  347MOL0     H47878   8.237   4.529  10.465  1.0565 -0.8114 -1.4565
  347MOL0     H47879   8.134   4.408  10.376 -0.6641 -0.7956  1.8614
  347MOL0     H47880   8.104   4.584  10.191 -1.1635 -1.3642  0.9755
  347MOL0     H47881   8.265   4.518  10.207 -2.3591 -1.6017 -1.6261
  347MOL0     H47882   8.330   4.918  10.302  0.7800 -0.6650  0.7384
  347MOL0     H47883   7.759   4.707  10.812 -0.1129 -1.8857 -1.0305
  347MOL0     H47884   7.483   4.591  11.024  0.9575 -0.3227 -0.6199
  347MOL0     H47885   7.605   4.699  11.113  3.1628 -0.0314 -0.5621
  347MOL0     H47886   7.544   4.728  10.947 -3.2316 -1.1580  0.8009
  348MOL0     O47887   2.176   3.587   8.862  0.4341  0.0837 -0.3711
  348MOL0     C47888   2.252   3.618   8.770 -0.3494  0.2637  0.5807
  348MOL0     O47889   2.224   3.613   8.639 -0.0772  1.1714 -0.6469
  348MOL0     C47890   2.092   3.625   8.604  0.1045 -0.5562 -0.3980
  348MOL0     C47891   2.045   3.563   8.487 -0.6331  1.5165 -0.0745
  348MOL0     C47892   1.923   3.605   8.428  0.0556  0.5177  0.1365
  348MOL0     C47893   1.847   3.709   8.484 -0.1852 -0.1756 -1.0094
  348MOL0     O47894   1.734   3.750   8.423 -0.1450 -0.2779 -0.2460
  348MOL0     C47895   1.718   3.890   8.413  0.3478  0.1635 -0.6995
  348MOL0     C47896   1.623   3.915   8.302  0.3465 -0.4142  0.3755
  348MOL0     C47897   1.619   4.060   8.258 -0.3396 -0.3232 -0.0937
  348MOL0     C47898   1.510   4.084   8.154 -0.6089  0.6285  0.1146
  348MOL0     C47899   1.493   4.233   8.126  0.1515  0.4646  0.2919
  348MOL0     C47900   1.610   4.305   8.043  0.1401  0.1335 -0.6125
  348MOL0     C47901   1.569   4.427   7.982  0.3912 -0.1793  0.7835
  348MOL0     C47902   1.470   4.405   7.875 -0.2817  0.0858 -0.1205
  348MOL0     N47903   1.520   4.320   7.767 -0.7891  0.6472  0.1126
  348MOL0     C47904   1.476   4.192   7.723  0.2669  0.6286  0.8008
  348MOL0     C47905   1.571   4.150   7.634 -0.0358 -1.1094 -0.5968
  348MOL0     C47906   1.571   4.009   7.577 -0.2193  0.6479  0.9137
  348MOL0     C47907   1.469   3.907   7.624 -0.3204  0.3289  0.0020
  348MOL0     C47908   1.471   3.787   7.533 -0.1668 -0.1347  0.3651
  348MOL0     C47909   1.587   3.680   7.558  0.3763 -0.3905 -0.1482
  348MOL0     O47910   1.685   3.707   7.448  0.0522  0.4345 -0.3207
  348MOL0     C47911   1.817   3.663   7.460  0.5961 -0.1861  0.7336
  348MOL0     C47912   1.922   3.757   7.470 -0.0204 -0.7967 -0.1917
  348MOL0     C47913   2.053   3.721   7.478 -0.1904 -0.1464 -0.6477
  348MOL0     C47914   2.163   3.834   7.511 -0.8134  0.3977  0.6112
  348MOL0     C47915   2.084   3.582   7.489  0.4480 -0.2325  0.1646
  348MOL0     C47916   2.220   3.523   7.491  0.7447 -0.4416 -0.0421
  348MOL0     O47917   2.224   3.398   7.540  0.7315  0.3236 -1.5845
  348MOL0     C47918   2.341   3.329   7.520  0.4682  0.4891 -0.4460
  348MOL0     C47919   2.364   3.244   7.413 -0.7874 -0.1352  0.0940
  348MOL0     C47920   2.488   3.171   7.410 -0.3403  0.2518  0.1781
  348MOL0     C47921   2.578   3.188   7.512 -0.6958 -1.4181  0.3767
  348MOL0     O47922   2.705   3.142   7.502 -0.4479  0.2109  0.2050
  348MOL0     C47923   2.785   3.216   7.406 -0.1993  0.4859 -0.1637
  348MOL0     C47924   2.864   3.111   7.320 -0.6362  0.2361 -0.4467
  348MOL0     C47925   2.791   3.004   7.244  1.6015  1.1240 -0.6566
  348MOL0     C47926   2.745   3.028   7.108  0.4776  0.3276 -0.5388
  348MOL0     C47927   2.861   3.049   6.998 -0.1298  0.1701  0.9718
  348MOL0     C47928   2.791   3.111   6.871  0.0765  0.1695  0.2329
  348MOL0     C47929   2.911   3.120   6.776  0.2649  0.6389 -0.9293
  348MOL0     C47930   2.862   3.188   6.643  0.1435  0.2229  0.1745
  348MOL0    Cl47931   2.742   3.324   6.669  0.2416 -0.2666  0.0359
  348MOL0     C47932   2.548   3.266   7.626 -0.8571 -0.5112  0.0019
  348MOL0     C47933   2.430   3.336   7.627  1.4542 -0.4290 -0.4981
  348MOL0     O47934   2.318   3.594   7.451  0.5643 -0.2490 -0.2265
  348MOL0     C47935   1.980   3.485   7.473 -0.4049  0.9729  1.2281
  348MOL0     C47936   1.845   3.527   7.467 -0.7290  1.0251  0.2650
  348MOL0     N47937   1.674   4.243   7.634 -0.5480  0.2260 -0.6099
  348MOL0     N47938   1.645   4.341   7.715  0.4993  0.5173 -0.2383
  348MOL0     C47939   1.889   3.760   8.614 -0.2520 -0.0435  0.4682
  348MOL0     C47940   2.003   3.722   8.674  0.8830  1.3178  0.1198
  348MOL0     C47941   2.393   3.656   8.794 -0.4175 -0.2854 -1.1574
  348MOL0     C47942   2.454   3.736   8.690  0.0047 -0.5105  0.3864
  348MOL0     C47943   2.592   3.756   8.688 -0.4004 -0.0044 -0.5321
  348MOL0     C47944   2.678   3.714   8.799  1.4296 -0.3788  0.5897
  348MOL0     O47945   2.811   3.729   8.803  0.2575  0.1656 -0.0492
  348MOL0     C47946   2.877   3.797   8.702  1.1793 -0.5878  0.3666
  348MOL0     C47947   3.024   3.838   8.730  0.1972  0.1769 -0.2538
  348MOL0     C47948   3.111   3.710   8.744 -0.1359  0.1139 -0.0006
  348MOL0     C47949   3.256   3.749   8.731 -0.2070  0.4950 -0.1058
  348MOL0     C47950   3.350   3.636   8.736  0.5061  0.2388  0.1716
  348MOL0     C47951   3.429   3.545   8.750  0.1312 -0.1526 -0.2030
  348MOL0     C47952   2.612   3.649   8.906 -0.0010  0.6343  0.4711
  348MOL0     C47953   2.470   3.618   8.905  0.5328  0.1909 -0.6775
  348MOL0     C47954   2.425   3.527   9.013  0.9600  0.0421 -0.3219
  348MOL0     H47955   2.112   3.492   8.439 -0.1419  0.2666  2.3452
  348MOL0     H47956   1.879   3.572   8.334  2.3824 -1.6833 -0.2905
  348MOL0     H47957   1.810   3.934   8.373  1.3706 -0.0666  1.2695
  348MOL0     H47958   1.691   3.936   8.509 -0.1141 -1.3098 -0.0882
  348MOL0     H47959   1.654   3.862   8.211 -1.5272  3.0468 -2.5206
  348MOL0     H47960   1.518   3.894   8.322  0.2476 -1.0125 -0.7142
  348MOL0     H47961   1.616   4.129   8.342  0.3346  0.4977 -0.7205
  348MOL0     H47962   1.714   4.078   8.206 -0.9139 -2.6344 -2.1438
  348MOL0     H47963   1.536   4.035   8.060  1.3033  0.4534  0.7075
  348MOL0     H47964   1.418   4.038   8.191  0.1474 -0.1877  1.0302
  348MOL0     H47965   1.497   4.289   8.220  2.9086  0.3538  0.3015
  348MOL0     H47966   1.395   4.244   8.078  2.2232 -0.9160 -4.9534
  348MOL0     H47967   1.694   4.328   8.109 -2.8432 -1.1230  4.1732
  348MOL0     H47968   1.645   4.224   7.979 -1.4027  1.4677 -3.3463
  348MOL0     H47969   1.657   4.478   7.943 -1.3202  1.8731 -0.6879
  348MOL0     H47970   1.536   4.499   8.059  0.4043  1.0236 -0.3011
  348MOL0     H47971   1.373   4.373   7.914 -2.9661  1.3731 -4.9215
  348MOL0     H47972   1.443   4.502   7.831  0.1662 -0.3931 -1.4941
  348MOL0     H47973   1.379   4.149   7.745 -0.2628  0.9167 -0.7951
  348MOL0     H47974   1.671   3.966   7.585  0.5959  1.9991 -1.2033
  348MOL0     H47975   1.559   4.016   7.468  3.1972 -0.4974  0.3534
  348MOL0     H47976   1.480   3.889   7.731  0.9757 -0.2824 -0.2071
  348MOL0     H47977   1.366   3.945   7.623 -0.0680  1.2325 -3.3235
  348MOL0     H47978   1.383   3.726   7.552  0.0498 -0.5376  0.0787
  348MOL0     H47979   1.483   3.812   7.427 -0.5000  1.5962  0.6980
  348MOL0     H47980   1.629   3.691   7.659  0.5308  0.5619 -0.3121
  348MOL0     H47981   1.545   3.579   7.548  1.2738 -1.0229  1.8648
  348MOL0     H47982   1.900   3.862   7.486 -0.0011 -0.3479 -2.7011
  348MOL0     H47983   2.109   3.917   7.559  2.8425  3.7154 -0.5238
  348MOL0     H47984   2.217   3.864   7.421 -1.6063 -0.1185 -0.0483
  348MOL0     H47985   2.237   3.802   7.585 -0.7596  2.8810  1.7396
  348MOL0     H47986   2.292   3.242   7.332 -1.2629  0.6180  0.4947
  348MOL0     H47987   2.502   3.109   7.322 -0.6663  0.9008 -0.3387
  348MOL0     H47988   2.727   3.283   7.342  1.2455  1.5313 -0.4101
  348MOL0     H47989   2.851   3.284   7.461 -0.6356  1.1632 -0.4598
  348MOL0     H47990   2.941   3.164   7.263 -0.4675  3.5420  2.4775
  348MOL0     H47991   2.921   3.062   7.400 -1.2171  0.9039  0.3912
  348MOL0     H47992   2.701   2.965   7.293  0.7236 -1.5482 -4.0042
  348MOL0     H47993   2.848   2.910   7.251  1.9101  1.3658  0.3828
  348MOL0     H47994   2.678   3.114   7.113 -2.6827 -1.8992 -1.2475
  348MOL0     H47995   2.674   2.953   7.071  0.1064  0.2970  0.2263
  348MOL0     H47996   2.930   3.127   7.033 -2.5743  1.9546  2.1661
  348MOL0     H47997   2.909   2.951   6.990 -0.6257 -0.5422  4.8529
  348MOL0     H47998   2.748   3.206   6.904 -0.5670 -0.1943  0.4469
  348MOL0     H47999   2.716   3.049   6.822  3.1415 -1.8554 -2.3447
  348MOL0     H48000   2.945   3.017   6.766 -0.8947 -0.2454  2.6258
  348MOL0     H48001   2.989   3.183   6.821 -1.5628  1.8658  0.6861
  348MOL0     H48002   2.817   3.111   6.580  1.2020  0.8041 -1.3469
  348MOL0     H48003   2.952   3.217   6.588 -0.7143  1.7600 -0.4629
  348MOL0     H48004   2.618   3.260   7.709 -0.1823 -2.9421 -0.6699
  348MOL0     H48005   2.404   3.387   7.719  0.4783 -3.4498  1.0550
  348MOL0     H48006   1.994   3.378   7.472 -2.6898  0.6081  0.0545
  348MOL0     H48007   1.772   3.447   7.467 -0.3775  0.6928 -0.7582
  348MOL0     H48008   1.820   3.836   8.648 -1.6435 -0.0228 -2.0957
  348MOL0     H48009   2.040   3.770   8.764 -2.0293  1.3262  1.4131
  348MOL0     H48010   2.400   3.759   8.599 -0.3180 -1.2138  0.3933
  348MOL0     H48011   2.631   3.816   8.607 -2.4591  3.5746  0.8667
  348MOL0     H48012   2.874   3.733   8.613  0.7513 -1.2669  0.8613
  348MOL0     H48013   2.827   3.894   8.690  1.7676  0.0244  2.4618
  348MOL0     H48014   3.038   3.888   8.827 -0.0423  0.2365 -0.2503
  348MOL0     H48015   3.060   3.899   8.647  2.7777 -0.4677  0.3030
  348MOL0     H48016   3.090   3.672   8.844 -0.6149  1.7327  0.5504
  348MOL0     H48017   3.085   3.632   8.671  2.8348 -0.5454 -0.4942
  348MOL0     H48018   3.292   3.799   8.821 -0.1341 -1.0515  0.7594
  348MOL0     H48019   3.264   3.815   8.644  1.7480  2.2282  1.3164
  348MOL0     H48020   3.499   3.467   8.773 -0.9516 -0.8173  0.9459
  348MOL0     H48021   2.677   3.609   8.983  2.1586 -0.1660 -1.6429
  348MOL0     H48022   2.477   3.539   9.109 -0.7572  0.5726  0.5988
  348MOL0     H48023   2.319   3.528   9.042  2.1316  1.2274  4.9556
  348MOL0     H48024   2.434   3.422   8.983 -1.9940 -1.1917  2.4978
  349MOL0     O48025   9.877   5.976  11.101 -0.0848  0.4564  0.4079
  349MOL0     C48026   9.963   5.942  11.030 -0.6909 -0.2460  1.3279
  349MOL0     O48027   9.988   5.995  10.904 -0.6125  0.1971  0.0919
  349MOL0     C48028   9.911   6.102  10.852 -0.3158  1.0346 -1.1296
  349MOL0     C48029   9.769   6.092  10.830  0.5468 -0.2439  0.6063
  349MOL0     C48030   9.705   6.203  10.774  0.4351 -0.0979 -0.2163
  349MOL0     C48031   9.777   6.321  10.742 -0.2278 -0.2211  0.1392
  349MOL0     O48032   9.721   6.435  10.705 -0.1564  0.0750 -0.3709
  349MOL0     C48033   9.652   6.420  10.580 -1.4416 -0.8204  0.1199
  349MOL0     C48034   9.503   6.411  10.577 -0.2145  0.0015 -0.3203
  349MOL0     C48035   9.434   6.506  10.669  0.5835 -0.6552  0.2633
  349MOL0     C48036   9.450   6.649  10.613 -0.4276 -0.3934  0.6319
  349MOL0     C48037   9.356   6.681  10.505  0.8727  0.2789  0.2675
  349MOL0     C48038   9.333   6.832  10.484 -0.1531 -0.3029 -0.1910
  349MOL0     C48039   9.193   6.879  10.441  0.3219 -0.3926  0.2229
  349MOL0     C48040   9.184   7.032  10.456  1.1146 -1.2910 -0.3216
  349MOL0     N48041   9.060   7.084  10.403 -0.2846 -0.7751 -0.2743
  349MOL0     C48042   8.933   7.110  10.457 -0.2565  0.0162  1.6088
  349MOL0     C48043   8.855   7.142  10.350 -0.3969  0.0871 -0.0747
  349MOL0     C48044   8.711   7.195  10.356 -0.2956  1.0375  0.0138
  349MOL0     C48045   8.616   7.122  10.255 -0.0800 -0.1223 -1.0187
  349MOL0     C48046   8.470   7.163  10.282 -0.9002  0.4141 -0.9701
  349MOL0     C48047   8.381   7.110  10.169 -0.7498 -0.9285  0.2951
  349MOL0     O48048   8.245   7.118  10.209  0.9446 -0.4340  0.5115
  349MOL0     C48049   8.148   7.078  10.121 -0.3644  0.0704  0.4479
  349MOL0     C48050   8.154   6.947  10.064  0.1739 -0.1981  0.7700
  349MOL0     C48051   8.061   6.895   9.964  0.3312  0.0371  0.6667
  349MOL0     C48052   8.088   6.753   9.910 -0.2297  0.5959  0.3968
  349MOL0     C48053   7.944   6.982   9.929 -0.2562  0.6067  0.4446
  349MOL0     C48054   7.835   6.953   9.833  0.2479  0.9039 -0.3260
  349MOL0     O48055   7.727   7.045   9.827 -0.3502 -0.2588 -0.0215
  349MOL0     C48056   7.607   6.997   9.774 -0.0022  1.1169 -0.5474
  349MOL0     C48057   7.530   7.092   9.704  0.9311 -0.0347 -0.1920
  349MOL0     C48058   7.403   7.063   9.655  1.5727  0.0998  0.7866
  349MOL0     C48059   7.353   6.936   9.694 -0.2932  0.3007  0.1667
  349MOL0     O48060   7.222   6.918   9.649 -0.7181  0.3133 -0.1056
  349MOL0     C48061   7.200   6.790   9.583 -0.7992  0.3534  0.2248
  349MOL0     C48062   7.153   6.815   9.443  0.2208  0.3370  0.3306
  349MOL0     C48063   7.177   6.701   9.349 -0.0747  0.7945 -0.5244
  349MOL0     C48064   7.294   6.725   9.243 -0.4070 -0.2451 -0.9727
  349MOL0     C48065   7.350   6.592   9.184  0.2370  1.3087  0.2959
  349MOL0     C48066   7.446   6.526   9.286  0.2795 -1.5852  0.2833
  349MOL0     C48067   7.470   6.385   9.252 -0.1713 -0.1840  0.4822
  349MOL0     C48068   7.533   6.299   9.362  0.1739 -0.4048 -0.3419
  349MOL0    Cl48069   7.636   6.397   9.462 -0.2878 -0.0627 -0.5196
  349MOL0     C48070   7.434   6.837   9.754 -0.0805 -0.0412 -0.2437
  349MOL0     C48071   7.560   6.868   9.789 -0.7760 -0.1357 -0.4278
  349MOL0     O48072   7.848   6.847   9.776  0.2010 -0.1270 -0.0492
  349MOL0     C48073   7.941   7.103   9.995 -0.3140 -0.9938 -0.2138
  349MOL0     C48074   8.029   7.148  10.087 -0.9582 -0.3385 -0.2492
  349MOL0     N48075   8.938   7.155  10.241 -0.1929 -0.1318  0.4547
  349MOL0     N48076   9.058   7.116  10.275 -0.1275 -0.1060  0.5376
  349MOL0     C48077   9.915   6.327  10.763 -0.7345  0.2207 -0.1713
  349MOL0     C48078   9.977   6.217  10.821  0.3929  0.0760  0.4404
  349MOL0     C48079  10.060   5.832  11.075 -0.7943 -0.8030  0.5288
  349MOL0     C48080  10.017   5.768  11.190 -0.9131  0.0858 -0.0934
  349MOL0     C48081  10.098   5.662  11.237 -0.9059 -0.2223 -0.5784
  349MOL0     C48082  10.229   5.630  11.181  0.6186 -0.6343  0.2986
  349MOL0     O48083  10.305   5.527  11.217 -0.0738  0.2465  0.0629
  349MOL0     C48084  10.321   5.417  11.116  0.0017  0.2924  0.3108
  349MOL0     C48085  10.361   5.294  11.190 -1.0553  0.7674  0.8217
  349MOL0     C48086  10.260   5.256  11.293  0.0930  0.1380  0.1078
  349MOL0     C48087  10.269   5.323  11.431  0.9960 -0.2631 -0.0197
  349MOL0     C48088  10.367   5.263  11.519 -0.6629  0.6116  0.2308
  349MOL0     C48089  10.443   5.202  11.595  0.6600 -0.2776  0.1339
  349MOL0     C48090  10.266   5.702  11.074  0.7296  0.4025  1.0452
  349MOL0     C48091  10.184   5.799  11.015  0.5746  0.3993 -0.5755
  349MOL0     C48092  10.254   5.874  10.910 -0.4660  0.0353  0.4962
  349MOL0     H48093   9.708   6.003  10.842  1.0902 -0.7266 -0.1347
  349MOL0     H48094   9.601   6.196  10.742  1.2958 -1.3945 -3.0222
  349MOL0     H48095   9.684   6.326  10.534 -0.3923 -1.4748  2.0777
  349MOL0     H48096   9.671   6.504  10.512 -4.8025 -0.1348 -0.1512
  349MOL0     H48097   9.471   6.427  10.473 -2.8256  0.9694  0.5633
  349MOL0     H48098   9.473   6.310  10.606 -0.8249 -0.2151 -1.6211
  349MOL0     H48099   9.327   6.490  10.686  0.3192  1.9844  1.5590
  349MOL0     H48100   9.467   6.496  10.773 -2.9250 -1.0541  1.4769
  349MOL0     H48101   9.455   6.724  10.692  0.2515  2.3827 -1.8724
  349MOL0     H48102   9.552   6.651  10.574  0.0446 -1.2058  1.7601
  349MOL0     H48103   9.262   6.626  10.518  0.4951  0.6690 -0.7027
  349MOL0     H48104   9.394   6.641  10.410  0.7429 -1.8077  1.0293
  349MOL0     H48105   9.362   6.893  10.570  2.6910  0.9297 -1.8600
  349MOL0     H48106   9.404   6.860  10.405  1.1647 -3.0206 -0.0731
  349MOL0     H48107   9.112   6.833  10.500  0.6536  0.6435  1.5399
  349MOL0     H48108   9.179   6.856  10.335 -0.6163  0.8405  0.0602
  349MOL0     H48109   9.189   7.062  10.561  2.3197  3.4466 -1.4780
  349MOL0     H48110   9.264   7.079  10.397  0.2581  2.8331  1.4866
  349MOL0     H48111   8.905   7.107  10.562 -2.4828  4.2865  1.3494
  349MOL0     H48112   8.712   7.303  10.336  0.7369  1.7384  3.2214
  349MOL0     H48113   8.662   7.187  10.454 -1.1608  2.9411 -0.2039
  349MOL0     H48114   8.646   7.137  10.151 -1.5181  1.3762 -1.2584
  349MOL0     H48115   8.626   7.017  10.283 -0.6592  0.1615  0.3427
  349MOL0     H48116   8.436   7.118  10.375  1.7855  0.6690  0.2250
  349MOL0     H48117   8.472   7.272  10.297 -1.2111  0.4462 -1.1620
  349MOL0     H48118   8.406   7.167  10.078 -0.7086  0.6961  1.2887
  349MOL0     H48119   8.407   7.005  10.153  0.6330 -1.2246  3.6969
  349MOL0     H48120   8.226   6.875  10.100 -3.1716 -2.9321  2.5489
  349MOL0     H48121   8.026   6.675   9.953  1.5833 -0.6423  0.8621
  349MOL0     H48122   8.192   6.735   9.939 -0.9191  1.6746  3.9950
  349MOL0     H48123   8.061   6.755   9.804 -1.5126  4.5712  0.6345
  349MOL0     H48124   7.582   7.187   9.696 -0.8155  1.6373  4.6667
  349MOL0     H48125   7.346   7.132   9.594 -0.7583 -1.0713  1.5147
  349MOL0     H48126   7.285   6.721   9.575  0.7069  2.2964 -2.5370
  349MOL0     H48127   7.119   6.745   9.641 -0.7747  1.5945  1.2578
  349MOL0     H48128   7.044   6.818   9.431 -0.0779 -4.6645 -0.0380
  349MOL0     H48129   7.210   6.900   9.404  0.9490 -0.4321 -0.3222
  349MOL0     H48130   7.095   6.698   9.276  1.5230  0.1219 -2.3849
  349MOL0     H48131   7.183   6.605   9.400 -5.3912 -0.5270 -1.7034
  349MOL0     H48132   7.378   6.773   9.294 -1.5310  2.0808 -1.2062
  349MOL0     H48133   7.273   6.791   9.159  3.1749  0.9176 -1.1428
  349MOL0     H48134   7.270   6.525   9.153  0.1614  0.4549  2.1903
  349MOL0     H48135   7.410   6.614   9.095 -0.3891 -1.9156 -1.0706
  349MOL0     H48136   7.409   6.548   9.387  1.6904  0.3922  0.4220
  349MOL0     H48137   7.539   6.582   9.273 -1.3024  0.8633 -1.3971
  349MOL0     H48138   7.532   6.368   9.164 -2.1868  2.8322 -1.6944
  349MOL0     H48139   7.376   6.341   9.217 -2.4853  4.4751  0.1330
  349MOL0     H48140   7.594   6.215   9.327 -1.0016 -1.5968  0.3824
  349MOL0     H48141   7.449   6.252   9.413  1.9966 -0.1447  3.2218
  349MOL0     H48142   7.400   6.737   9.778  2.1175 -1.0081 -0.9443
  349MOL0     H48143   7.611   6.779   9.824 -2.1719 -0.9662 -0.4412
  349MOL0     H48144   7.857   7.173   9.989  0.9938  0.7369  0.8218
  349MOL0     H48145   8.018   7.243  10.138  0.0756 -0.3795  0.0603
  349MOL0     H48146   9.966   6.421  10.746  0.1498 -0.5355 -1.9939
  349MOL0     H48147  10.081   6.197  10.843  0.3070 -3.9162 -1.8283
  349MOL0     H48148   9.927   5.794  11.244 -0.1742 -0.2713  1.3621
  349MOL0     H48149  10.060   5.612  11.326  0.8441 -2.6431 -1.0677
  349MOL0     H48150  10.232   5.397  11.056 -1.0741 -0.7038  2.1351
  349MOL0     H48151  10.407   5.451  11.058 -0.0864  0.4088  0.2489
  349MOL0     H48152  10.462   5.294  11.233 -0.3142  1.4270 -0.8529
  349MOL0     H48153  10.366   5.216  11.113 -0.8764  2.2886 -0.7481
  349MOL0     H48154  10.162   5.287  11.255  0.4545  0.5986 -0.4528
  349MOL0     H48155  10.250   5.148  11.304  2.8769 -0.2536 -0.6231
  349MOL0     H48156  10.167   5.300  11.464  0.2715  3.3403  0.6504
  349MOL0     H48157  10.293   5.429  11.419  0.1402  0.0439  0.8233
  349MOL0     H48158  10.515   5.178  11.670  1.3117 -3.4272 -1.3474
  349MOL0     H48159  10.362   5.677  11.029  1.8861  1.4947  2.7836
  349MOL0     H48160  10.303   5.961  10.954 -0.5636 -0.0760  0.8279
  349MOL0     H48161  10.331   5.812  10.864 -1.2094 -0.6635  0.1745
  349MOL0     H48162  10.190   5.892  10.823  1.3442  2.0448 -0.5139
  350MOL0     O48163   1.489   2.940   1.295  0.0431 -0.2182 -0.2757
  350MOL0     C48164   1.438   3.009   1.389 -1.0106 -1.1311  0.8307
  350MOL0     O48165   1.500   3.115   1.446  0.0821 -0.5454 -0.4852
  350MOL0     C48166   1.637   3.127   1.485  0.5336  0.4437  0.8199
  350MOL0     C48167   1.656   3.219   1.595 -0.3817  0.6237 -0.9381
  350MOL0     C48168   1.792   3.260   1.632 -0.4331  0.3838 -1.5383
  350MOL0     C48169   1.901   3.209   1.559 -0.1022 -0.7637 -0.7593
  350MOL0     O48170   2.033   3.247   1.573  0.0773  0.3820 -0.0660
  350MOL0     C48171   2.065   3.321   1.696  0.2485  0.6260  0.5493
  350MOL0     C48172   2.213   3.348   1.717 -0.7890  0.2122  0.9109
  350MOL0     C48173   2.246   3.485   1.664 -0.0821  0.5137  0.0813
  350MOL0     C48174   2.394   3.493   1.691 -0.1974  0.1667 -0.1559
  350MOL0     C48175   2.444   3.624   1.627  0.0547 -0.3878  0.0666
  350MOL0     C48176   2.409   3.634   1.477 -0.0636 -0.0548 -0.0250
  350MOL0     C48177   2.419   3.514   1.389 -0.1227 -0.0923  0.2927
  350MOL0     C48178   2.550   3.506   1.312 -0.3929 -0.2076  0.1404
  350MOL0     N48179   2.548   3.366   1.258  0.6374  0.5234  0.4013
  350MOL0     C48180   2.526   3.346   1.125 -0.6391 -0.3985  0.5306
  350MOL0     C48181   2.557   3.215   1.093  0.0938  0.9708 -0.6796
  350MOL0     C48182   2.546   3.157   0.960 -0.0336 -0.3631  0.3369
  350MOL0     C48183   2.582   3.014   0.964  0.4044 -0.4920 -0.0412
  350MOL0     C48184   2.539   2.943   0.840 -0.2152  0.0608 -0.4085
  350MOL0     C48185   2.586   2.795   0.846 -0.0772  0.9706 -0.2101
  350MOL0     O48186   2.516   2.714   0.765  0.5426 -0.6468  0.4134
  350MOL0     C48187   2.541   2.584   0.785 -0.2039 -0.2115  0.1117
  350MOL0     C48188   2.436   2.489   0.796 -0.4311 -0.3634 -0.0256
  350MOL0     C48189   2.461   2.351   0.812  0.2035 -0.0147  0.0340
  350MOL0     C48190   2.343   2.260   0.836  0.6024 -0.1241  0.0949
  350MOL0     C48191   2.594   2.311   0.844  0.5163 -0.7647  0.1039
  350MOL0     C48192   2.631   2.169   0.884 -0.7979  0.2319 -0.1601
  350MOL0     O48193   2.536   2.088   0.944 -0.5712 -0.3083  0.4701
  350MOL0     C48194   2.574   1.973   1.007  0.6106 -0.4353 -0.3847
  350MOL0     C48195   2.681   1.886   0.968 -0.2318  0.0086  0.1413
  350MOL0     C48196   2.710   1.779   1.049  0.3993 -0.5472 -0.0994
  350MOL0     C48197   2.621   1.736   1.151  0.5885 -0.8308 -0.6236
  350MOL0     O48198   2.637   1.620   1.221 -0.1182  0.0713 -0.2428
  350MOL0     C48199   2.731   1.521   1.186 -0.5623 -0.1242  0.2307
  350MOL0     C48200   2.734   1.415   1.292 -0.0741 -0.2311 -0.0421
  350MOL0     C48201   2.639   1.302   1.254  1.3299  0.2639  0.3729
  350MOL0     C48202   2.492   1.320   1.296 -0.8982  0.7661 -0.1608
  350MOL0     C48203   2.423   1.190   1.238 -1.3633 -0.2615  0.0456
  350MOL0     C48204   2.296   1.169   1.318  0.5201  0.3006  0.5767
  350MOL0     C48205   2.227   1.035   1.268  0.0326 -0.0939 -1.1401
  350MOL0     C48206   2.302   0.905   1.287 -0.9771 -0.3368  0.0166
  350MOL0    Cl48207   2.356   0.872   1.449 -0.7150 -0.0873 -0.7226
  350MOL0     C48208   2.513   1.814   1.194  0.3856  0.1903  0.8390
  350MOL0     C48209   2.494   1.941   1.121 -0.1134 -0.5421  0.2319
  350MOL0     O48210   2.747   2.135   0.874  0.2377  0.0681 -0.5524
  350MOL0     C48211   2.698   2.405   0.826 -0.2741 -0.2246  1.1487
  350MOL0     C48212   2.678   2.534   0.777  0.1297 -0.6361 -0.2579
  350MOL0     N48213   2.594   3.154   1.219  0.9532 -0.0305  0.4540
  350MOL0     N48214   2.592   3.249   1.311 -0.1856  0.3396 -0.5063
  350MOL0     C48215   1.871   3.107   1.467  0.8743 -0.7711  0.3262
  350MOL0     C48216   1.746   3.059   1.429  0.2629 -0.9236 -0.0488
  350MOL0     C48217   1.307   2.967   1.442  0.0138  0.5528  0.3745
  350MOL0     C48218   1.265   2.832   1.408 -0.6583 -0.6594 -0.6918
  350MOL0     C48219   1.164   2.765   1.473 -0.3036  0.0428  1.2064
  350MOL0     C48220   1.079   2.829   1.566 -1.2723  0.5009  0.4956
  350MOL0     O48221   0.972   2.779   1.629  0.1347  0.2769  0.4140
  350MOL0     C48222   0.948   2.635   1.644 -0.5679 -0.4818 -0.5176
  350MOL0     C48223   0.811   2.616   1.705 -0.1208 -0.1650  0.5244
  350MOL0     C48224   0.812   2.661   1.856  0.5056 -0.7187  0.0816
  350MOL0     C48225   0.669   2.647   1.923 -0.3438  0.0854 -0.0676
  350MOL0     C48226   0.641   2.502   1.932 -0.0954 -0.6799  0.6654
  350MOL0     C48227   0.644   2.383   1.951 -0.4994 -0.9659  0.4182
  350MOL0     C48228   1.115   2.955   1.599 -0.3974 -0.1863  0.7127
  350MOL0     C48229   1.219   3.033   1.530 -0.3004  0.4416 -0.7915
  350MOL0     C48230   1.235   3.182   1.552  0.0464  0.6783 -0.6832
  350MOL0     H48231   1.568   3.257   1.644 -2.2305 -1.6853 -2.2263
  350MOL0     H48232   1.815   3.339   1.702  1.2865 -1.7175  0.4153
  350MOL0     H48233   2.038   3.258   1.782  2.2727  0.3545  1.0404
  350MOL0     H48234   2.009   3.415   1.692  1.1694  1.1720  0.1649
  350MOL0     H48235   2.243   3.352   1.823  1.8682 -0.4587  0.2586
  350MOL0     H48236   2.262   3.271   1.657 -1.0161  1.5419 -1.0904
  350MOL0     H48237   2.208   3.474   1.562 -0.1080 -3.5031  0.3647
  350MOL0     H48238   2.196   3.564   1.720 -1.8727  1.8517 -3.0743
  350MOL0     H48239   2.425   3.513   1.794 -0.0346  0.4567 -0.2593
  350MOL0     H48240   2.441   3.403   1.650 -1.3266 -0.4434 -0.1362
  350MOL0     H48241   2.551   3.615   1.646 -0.0559 -2.7751 -0.1300
  350MOL0     H48242   2.407   3.711   1.682  1.1660 -0.0980  0.3806
  350MOL0     H48243   2.306   3.669   1.487  0.7406  1.9221  2.8537
  350MOL0     H48244   2.465   3.716   1.430  1.9875 -1.5881 -0.3843
  350MOL0     H48245   2.344   3.508   1.310 -1.9497  0.2308  1.9375
  350MOL0     H48246   2.408   3.424   1.450  1.6770 -0.6092 -0.0837
  350MOL0     H48247   2.556   3.586   1.237  4.2516 -0.8606 -0.4516
  350MOL0     H48248   2.642   3.513   1.371  1.3147 -2.4283 -2.0383
  350MOL0     H48249   2.520   3.423   1.049  3.8198  0.3216  0.6368
  350MOL0     H48250   2.619   3.218   0.906  0.8510  0.3075  2.2166
  350MOL0     H48251   2.446   3.175   0.921 -0.0634 -0.2560  0.4647
  350MOL0     H48252   2.691   3.011   0.974  0.2764 -0.2446  1.7324
  350MOL0     H48253   2.535   2.965   1.050 -2.0226  0.0493 -0.9758
  350MOL0     H48254   2.430   2.950   0.829 -0.4423 -1.6157  0.4505
  350MOL0     H48255   2.586   2.983   0.750  1.3591 -0.7479  0.0018
  350MOL0     H48256   2.693   2.796   0.824  0.5185 -2.1574  1.9286
  350MOL0     H48257   2.571   2.769   0.951  0.8408  4.0511  0.8170
  350MOL0     H48258   2.336   2.526   0.779 -0.9910 -1.7440  0.1460
  350MOL0     H48259   2.348   2.227   0.940 -2.3196  1.6801  0.9273
  350MOL0     H48260   2.336   2.171   0.774 -0.1212 -0.1771  0.2456
  350MOL0     H48261   2.245   2.309   0.830  0.7475 -0.0165 -3.8665
  350MOL0     H48262   2.731   1.901   0.874  1.0122 -1.1595  0.5828
  350MOL0     H48263   2.793   1.717   1.016  1.3004  0.4365  0.2615
  350MOL0     H48264   2.715   1.485   1.084 -3.2355 -2.1503  1.2441
  350MOL0     H48265   2.837   1.546   1.198 -0.9554  1.3715  0.7682
  350MOL0     H48266   2.835   1.374   1.296 -0.4419 -1.1639  0.0135
  350MOL0     H48267   2.718   1.459   1.391  1.8186 -0.4261  0.3757
  350MOL0     H48268   2.681   1.214   1.303  1.5179  0.1934  0.0863
  350MOL0     H48269   2.659   1.290   1.147  5.6893  2.0480  0.7650
  350MOL0     H48270   2.452   1.413   1.256  4.1132  3.6344  0.6083
  350MOL0     H48271   2.488   1.328   1.405  0.0850  4.4082 -0.2747
  350MOL0     H48272   2.401   1.200   1.131  0.5371  4.0547 -0.1257
  350MOL0     H48273   2.496   1.109   1.248 -2.9081 -1.7407  0.0212
  350MOL0     H48274   2.234   1.258   1.301 -0.9201 -0.5566  1.1447
  350MOL0     H48275   2.323   1.169   1.424 -4.4287 -0.9997  2.0983
  350MOL0     H48276   2.213   1.047   1.160  0.8948  0.7640 -1.1733
  350MOL0     H48277   2.130   1.011   1.312  1.0722  0.1084  1.4105
  350MOL0     H48278   2.393   0.901   1.227 -1.5858 -0.8207 -0.9070
  350MOL0     H48279   2.232   0.826   1.257 -1.2577  0.4771 -1.5757
  350MOL0     H48280   2.437   1.777   1.261  0.9942 -0.4278  1.2086
  350MOL0     H48281   2.433   2.027   1.144  0.8693  0.4200 -0.6861
  350MOL0     H48282   2.802   2.377   0.841  0.3503  0.9317 -0.6895
  350MOL0     H48283   2.760   2.603   0.761 -3.5816  4.7063  1.2297
  350MOL0     H48284   1.953   3.064   1.410 -1.1343 -0.0412 -3.4440
  350MOL0     H48285   1.733   2.985   1.351 -1.0107 -1.6813  0.8422
  350MOL0     H48286   1.330   2.778   1.339  2.3206  1.0196  0.6063
  350MOL0     H48287   1.145   2.675   1.416 -3.8826  1.5827 -0.3495
  350MOL0     H48288   0.934   2.591   1.545  0.1756  0.0540 -0.8655
  350MOL0     H48289   1.016   2.590   1.717 -2.2030  0.4612  1.7066
  350MOL0     H48290   0.774   2.514   1.694 -1.2238  0.2223  0.5211
  350MOL0     H48291   0.745   2.688   1.656  1.4993  1.0965  0.1031
  350MOL0     H48292   0.887   2.602   1.910 -1.9148 -1.7109  2.6243
  350MOL0     H48293   0.846   2.764   1.861 -1.7633  0.0563  0.8988
  350MOL0     H48294   0.594   2.702   1.865  0.5393  2.8186  1.1648
  350MOL0     H48295   0.659   2.693   2.022 -2.7337  1.4222 -0.8481
  350MOL0     H48296   0.649   2.278   1.969  1.5412 -0.8167  1.1092
  350MOL0     H48297   1.055   3.003   1.676 -0.5669  1.0542 -0.1467
  350MOL0     H48298   1.228   3.244   1.461 -0.2049  1.7680  0.0604
  350MOL0     H48299   1.172   3.222   1.631  0.1387  1.3198 -0.9271
  350MOL0     H48300   1.337   3.190   1.592 -0.5523 -0.2031  1.1008
  351MOL0     O48301   3.942   4.059   2.580 -0.4275  0.6286  0.2435
  351MOL0     C48302   3.833   4.057   2.528 -0.1488  0.3160 -0.8527
  351MOL0     O48303   3.734   3.962   2.545  1.0359  0.5872 -0.6252
  351MOL0     C48304   3.764   3.845   2.608 -0.0215  0.2503 -0.4485
  351MOL0     C48305   3.784   3.834   2.753  0.6398 -0.5649 -0.2008
  351MOL0     C48306   3.827   3.708   2.800  0.2830 -0.5070 -0.3210
  351MOL0     C48307   3.849   3.597   2.718  0.6285 -0.0596 -0.7448
  351MOL0     O48308   3.896   3.482   2.768  0.2723 -0.4152 -0.2650
  351MOL0     C48309   4.034   3.469   2.743 -1.0781 -0.6299 -0.3860
  351MOL0     C48310   4.075   3.361   2.632 -0.0786 -0.6756  0.4037
  351MOL0     C48311   4.019   3.218   2.652  0.3283  0.9809  1.0557
  351MOL0     C48312   4.089   3.093   2.573  0.2804  0.5943  0.5790
  351MOL0     C48313   4.020   2.968   2.623  0.8665  0.5670  0.3840
  351MOL0     C48314   4.091   2.836   2.574  0.1847 -0.4408 -0.3854
  351MOL0     C48315   3.998   2.715   2.605 -0.7913 -0.7089 -0.6256
  351MOL0     C48316   3.901   2.703   2.486 -0.2575  0.7121 -0.4252
  351MOL0     N48317   3.796   2.612   2.518  0.2667  0.3862 -0.0042
  351MOL0     C48318   3.676   2.635   2.575 -0.2533 -0.7514 -0.3048
  351MOL0     C48319   3.631   2.510   2.589  1.0531 -0.1266 -0.0083
  351MOL0     C48320   3.496   2.479   2.649 -0.0613  0.6470 -0.7413
  351MOL0     C48321   3.427   2.357   2.589  0.8220 -0.2977  1.4396
  351MOL0     C48322   3.297   2.314   2.650  0.3680  0.7862 -0.1578
  351MOL0     C48323   3.297   2.257   2.794 -0.4587  0.7170  0.7158
  351MOL0     O48324   3.307   2.119   2.775 -0.0519  0.0416 -0.2501
  351MOL0     C48325   3.268   2.025   2.867  0.0437  1.0601  0.1911
  351MOL0     C48326   3.321   1.893   2.848 -0.4106 -0.7638  0.1807
  351MOL0     C48327   3.294   1.793   2.944 -0.5505 -0.1180 -0.1462
  351MOL0     C48328   3.377   1.666   2.911 -0.0295  0.4593 -0.7732
  351MOL0     C48329   3.211   1.804   3.056  0.8350 -0.4757 -0.4925
  351MOL0     C48330   3.175   1.687   3.138 -0.2013 -0.2089  0.0680
  351MOL0     O48331   3.114   1.723   3.260  0.4550  0.6829 -0.1718
  351MOL0     C48332   3.072   1.617   3.347  0.0165  0.3751  0.8257
  351MOL0     C48333   2.946   1.636   3.413 -0.8889 -0.0723  0.0175
  351MOL0     C48334   2.896   1.530   3.493  0.4319 -0.2560  1.1077
  351MOL0     C48335   2.970   1.410   3.511 -0.5353 -0.7844  0.1972
  351MOL0     O48336   2.919   1.302   3.590  0.9578  0.1238  0.4211
  351MOL0     C48337   2.969   1.277   3.724  0.4417 -0.0454  0.5269
  351MOL0     C48338   2.945   1.389   3.818 -0.4746 -0.7971  0.4673
  351MOL0     C48339   2.790   1.422   3.830  0.1519  0.7854 -0.3048
  351MOL0     C48340   2.717   1.336   3.933 -0.7370 -1.0439 -0.4320
  351MOL0     C48341   2.565   1.366   3.954  0.3160  0.8164  0.1595
  351MOL0     C48342   2.512   1.237   4.020 -0.3923 -0.0170 -0.5176
  351MOL0     C48343   2.360   1.238   4.035 -0.3329 -0.5242 -0.4070
  351MOL0     C48344   2.296   1.099   4.002 -0.4245  0.1761 -0.0865
  351MOL0    Cl48345   2.359   0.990   4.118  0.0406 -0.1663 -0.5229
  351MOL0     C48346   3.093   1.404   3.447 -0.1769  0.1349 -0.0936
  351MOL0     C48347   3.145   1.495   3.361  1.2431 -0.4943  0.0387
  351MOL0     O48348   3.195   1.573   3.097 -0.2911  0.6519  0.0815
  351MOL0     C48349   3.162   1.935   3.074 -0.5033  0.1681  0.6719
  351MOL0     C48350   3.204   2.044   2.986 -0.1637 -0.5869 -0.4395
  351MOL0     N48351   3.717   2.417   2.544  0.4151  0.1836  0.6439
  351MOL0     N48352   3.817   2.475   2.498 -0.2431 -0.1734  0.2445
  351MOL0     C48353   3.820   3.602   2.578  0.1633  0.0850  0.2439
  351MOL0     C48354   3.775   3.729   2.522  0.6064 -0.2498  0.4895
  351MOL0     C48355   3.817   4.175   2.441  0.4260  0.3883  0.6313
  351MOL0     C48356   3.915   4.209   2.346 -0.2441  0.9178 -0.2900
  351MOL0     C48357   3.904   4.328   2.275  0.4819  0.2902  0.1848
  351MOL0     C48358   3.801   4.414   2.297  0.4245 -0.3043 -0.7236
  351MOL0     O48359   3.810   4.528   2.216  0.4907 -0.0253 -0.1337
  351MOL0     C48360   3.697   4.627   2.190  0.5617  1.2726 -0.4735
  351MOL0     C48361   3.715   4.769   2.257  0.3872 -0.0668 -0.0881
  351MOL0     C48362   3.658   4.884   2.161  0.1050  0.5306  0.4863
  351MOL0     C48363   3.725   5.021   2.175  0.0669  0.1876 -0.5487
  351MOL0     C48364   3.739   5.106   2.050  0.5378  0.5467 -0.8211
  351MOL0     C48365   3.767   5.165   1.944  0.0004  0.1167 -0.1801
  351MOL0     C48366   3.695   4.369   2.379  0.3692 -0.6127  0.8604
  351MOL0     C48367   3.702   4.252   2.452  0.4214 -0.5406 -0.2957
  351MOL0     C48368   3.586   4.221   2.540 -0.0733  0.3824  0.6327
  351MOL0     H48369   3.786   3.919   2.821  2.6996 -1.3417  0.7987
  351MOL0     H48370   3.872   3.698   2.898  0.4471 -0.0137 -0.3407
  351MOL0     H48371   4.078   3.440   2.838 -3.3181 -0.1232  0.8866
  351MOL0     H48372   4.086   3.564   2.728 -3.8214  1.0379 -0.1465
  351MOL0     H48373   4.039   3.401   2.537  2.3176  1.5013  0.3019
  351MOL0     H48374   4.184   3.350   2.631 -0.0973 -0.8531  0.2517
  351MOL0     H48375   4.040   3.199   2.757  2.5936  0.6772  0.6088
  351MOL0     H48376   3.914   3.221   2.621  0.5298 -0.5315  0.1131
  351MOL0     H48377   4.077   3.113   2.466 -1.1009 -1.5985  0.2698
  351MOL0     H48378   4.197   3.086   2.589  0.6060 -0.8846 -1.7413
  351MOL0     H48379   3.922   2.955   2.576  0.9663 -0.7941  0.5308
  351MOL0     H48380   4.013   2.965   2.732  3.0693 -3.0459  0.5968
  351MOL0     H48381   4.109   2.845   2.467  1.4520  0.4697 -0.1208
  351MOL0     H48382   4.190   2.828   2.619 -0.7344 -3.2818  1.3928
  351MOL0     H48383   3.946   2.716   2.701  2.0150 -2.1110  1.0217
  351MOL0     H48384   4.066   2.630   2.609 -0.5305 -0.4918  3.2756
  351MOL0     H48385   3.851   2.794   2.451 -0.8306  1.0960  1.2780
  351MOL0     H48386   3.965   2.676   2.402 -0.7162 -0.5184 -0.3909
  351MOL0     H48387   3.630   2.728   2.605 -0.5430 -1.2974  1.0324
  351MOL0     H48388   3.428   2.565   2.649  1.0869  1.8582  3.6777
  351MOL0     H48389   3.510   2.459   2.756 -1.0220 -0.2002 -0.7635
  351MOL0     H48390   3.420   2.376   2.482 -2.8436  0.9888  1.7809
  351MOL0     H48391   3.496   2.273   2.600 -0.1666 -1.1513  1.2714
  351MOL0     H48392   3.239   2.407   2.654  1.2546  1.3048  1.5301
  351MOL0     H48393   3.243   2.236   2.595 -0.2414  2.6282 -2.3614
  351MOL0     H48394   3.372   2.304   2.858 -0.2454  0.3718  0.7200
  351MOL0     H48395   3.199   2.287   2.833  0.2062 -0.3968  3.4815
  351MOL0     H48396   3.383   1.879   2.760 -1.0947 -0.3685 -0.3767
  351MOL0     H48397   3.461   1.672   2.840  0.6965 -0.9247 -0.0728
  351MOL0     H48398   3.319   1.581   2.875  2.5213 -1.6901 -0.0918
  351MOL0     H48399   3.423   1.619   2.998  0.9517 -1.8713 -2.4216
  351MOL0     H48400   2.894   1.731   3.408 -1.7650 -0.4153  1.8189
  351MOL0     H48401   2.796   1.549   3.533 -0.6300  0.4620 -1.6607
  351MOL0     H48402   2.916   1.187   3.757  1.3934 -0.4692  0.9140
  351MOL0     H48403   3.073   1.244   3.720  0.3636 -1.2493  4.5142
  351MOL0     H48404   2.972   1.351   3.917  0.7321 -1.5413 -0.1260
  351MOL0     H48405   2.994   1.484   3.794 -2.7653  0.8083  1.7277
  351MOL0     H48406   2.747   1.394   3.734  0.1913 -3.5356  0.7237
  351MOL0     H48407   2.774   1.527   3.855  1.0518  0.3682  2.3445
  351MOL0     H48408   2.767   1.344   4.031  0.5697  0.7004 -1.1814
  351MOL0     H48409   2.723   1.233   3.897 -0.9159 -1.6124  1.0741
  351MOL0     H48410   2.552   1.448   4.025 -2.7148  0.8820 -0.3552
  351MOL0     H48411   2.506   1.391   3.866 -0.3994 -3.7730 -0.9337
  351MOL0     H48412   2.560   1.229   4.118 -1.2670 -0.9838 -0.1532
  351MOL0     H48413   2.541   1.145   3.967 -0.2467 -0.8991  1.0078
  351MOL0     H48414   2.318   1.324   3.981  0.7887 -0.4220 -1.1692
  351MOL0     H48415   2.349   1.252   4.143  0.1387 -0.1386 -0.4045
  351MOL0     H48416   2.299   1.061   3.900 -4.1813  0.3125 -0.4059
  351MOL0     H48417   2.187   1.102   4.017 -0.4151 -1.4291  0.4805
  351MOL0     H48418   3.139   1.306   3.455  0.1338  0.0626 -2.0536
  351MOL0     H48419   3.244   1.479   3.318 -0.2287 -2.2867 -2.9635
  351MOL0     H48420   3.098   1.960   3.159 -1.0205  2.7160 -0.3790
  351MOL0     H48421   3.182   2.146   3.013  1.4048 -0.2271 -0.4022
  351MOL0     H48422   3.834   3.513   2.517 -3.6330  0.7384 -1.9382
  351MOL0     H48423   3.753   3.738   2.416  0.2772 -2.2632  0.3491
  351MOL0     H48424   3.997   4.141   2.325 -1.1941  0.1048 -1.4553
  351MOL0     H48425   3.975   4.358   2.199 -1.5886  1.7664 -1.3112
  351MOL0     H48426   3.679   4.623   2.082 -1.2928  0.2870 -0.1691
  351MOL0     H48427   3.604   4.596   2.237  0.6124  2.6738  0.6264
  351MOL0     H48428   3.821   4.787   2.276 -0.1632  0.8485  2.5877
  351MOL0     H48429   3.674   4.777   2.358 -2.8767 -0.1256 -1.2654
  351MOL0     H48430   3.669   4.859   2.056  2.1176 -0.1958  0.8238
  351MOL0     H48431   3.552   4.886   2.187  0.6297 -3.7231  4.3449
  351MOL0     H48432   3.820   5.003   2.227 -0.0174  0.9296 -0.1251
  351MOL0     H48433   3.660   5.082   2.238 -3.7751 -0.8739 -3.1395
  351MOL0     H48434   3.793   5.229   1.861  0.0850  1.2910  0.7201
  351MOL0     H48435   3.603   4.426   2.372  0.4609 -0.6272 -0.7614
  351MOL0     H48436   3.612   4.235   2.645  1.0012 -2.8493  0.9154
  351MOL0     H48437   3.502   4.284   2.508 -1.5035 -1.6892  0.0770
  351MOL0     H48438   3.557   4.116   2.536 -0.8968  0.5896  1.0175
  352MOL0     O48439   7.350   5.590   4.812 -0.2199  0.3233 -0.8865
  352MOL0     C48440   7.434   5.565   4.723 -0.7354  0.3501 -0.2703
  352MOL0     O48441   7.496   5.662   4.644 -1.0727  1.0001  0.2196
  352MOL0     C48442   7.483   5.794   4.687 -0.2955 -1.1214 -0.2049
  352MOL0     C48443   7.601   5.871   4.709  0.6515  0.2669 -0.2531
  352MOL0     C48444   7.594   5.991   4.780 -0.0031 -0.3325  0.1453
  352MOL0     C48445   7.465   6.059   4.795 -0.8251 -0.1600 -0.2029
  352MOL0     O48446   7.453   6.182   4.846  0.9598  0.7314 -0.9316
  352MOL0     C48447   7.518   6.199   4.974 -0.2521  0.2448 -0.0909
  352MOL0     C48448   7.446   6.136   5.093  0.2953 -0.4163 -0.3484
  352MOL0     C48449   7.514   6.196   5.222 -0.1361  0.5589  0.2181
  352MOL0     C48450   7.474   6.116   5.349  0.6134  0.1243 -0.0149
  352MOL0     C48451   7.541   6.179   5.476 -0.6012 -0.1284 -0.8420
  352MOL0     C48452   7.516   6.072   5.591 -0.4927 -0.6683  0.7749
  352MOL0     C48453   7.610   6.099   5.706  0.6448  0.5303  0.3587
  352MOL0     C48454   7.559   6.022   5.828 -0.0231 -0.1596 -0.1323
  352MOL0     N48455   7.672   5.987   5.914  0.5230 -0.4874  0.6141
  352MOL0     C48456   7.778   5.920   5.869  0.9052 -0.1137 -0.0547
  352MOL0     C48457   7.861   5.899   5.978  1.4567  0.1867  0.3747
  352MOL0     C48458   7.986   5.830   5.967  0.3943 -0.1964 -0.5721
  352MOL0     C48459   7.963   5.685   5.931 -0.0268  0.2838  0.6452
  352MOL0     C48460   8.074   5.592   5.969 -0.4768  0.4034  0.2597
  352MOL0     C48461   8.060   5.460   5.903 -0.3951 -0.2746 -0.3428
  352MOL0     O48462   8.192   5.387   5.922 -0.4114  0.5853 -0.5204
  352MOL0     C48463   8.219   5.308   5.809 -0.3280  0.3799  1.1666
  352MOL0     C48464   8.308   5.352   5.713  0.1726  0.3827 -0.6466
  352MOL0     C48465   8.358   5.277   5.613 -0.0955  0.1297  0.7206
  352MOL0     C48466   8.465   5.340   5.532  0.6952 -0.4684 -0.5452
  352MOL0     C48467   8.329   5.136   5.600  0.9889 -1.1133  0.3724
  352MOL0     C48468   8.385   5.046   5.491  0.1231 -1.0411 -0.3847
  352MOL0     O48469   8.321   4.920   5.496  0.2292  0.1067 -0.1276
  352MOL0     C48470   8.351   4.817   5.407  0.0573  0.1073 -0.4111
  352MOL0     C48471   8.341   4.826   5.269  0.5212  0.7394 -0.0882
  352MOL0     C48472   8.366   4.713   5.193  1.3057  0.4633 -0.9080
  352MOL0     C48473   8.398   4.590   5.242 -1.1348 -0.1810 -0.3518
  352MOL0     O48474   8.422   4.485   5.159 -0.0904  0.1320  0.1651
  352MOL0     C48475   8.416   4.510   5.015  0.4213  0.9152  0.4397
  352MOL0     C48476   8.415   4.371   4.953 -0.5128  0.7059  1.2344
  352MOL0     C48477   8.399   4.366   4.800  1.4162  0.3275  0.3567
  352MOL0     C48478   8.524   4.417   4.721 -0.4854 -0.1565  0.6600
  352MOL0     C48479   8.495   4.422   4.559 -0.5967 -0.3217 -0.3437
  352MOL0     C48480   8.436   4.292   4.500 -0.5230 -0.7852 -0.0259
  352MOL0     C48481   8.488   4.160   4.552 -0.0044  0.1969  0.0549
  352MOL0     C48482   8.385   4.050   4.541 -0.1915 -0.5522  0.0305
  352MOL0    Cl48483   8.457   3.892   4.542 -0.6506  0.1697 -0.2899
  352MOL0     C48484   8.419   4.584   5.380  0.4389 -0.0066  0.4061
  352MOL0     C48485   8.392   4.696   5.466 -0.2236 -0.9299 -0.9082
  352MOL0     O48486   8.472   5.079   5.418 -0.4248 -0.3179  0.3103
  352MOL0     C48487   8.239   5.085   5.695  0.4717 -0.2479  0.3350
  352MOL0     C48488   8.178   5.172   5.793 -0.0681 -0.3928 -0.2344
  352MOL0     N48489   7.802   5.962   6.087  0.2574  0.4068 -0.6973
  352MOL0     N48490   7.689   6.018   6.045 -1.0505 -0.2655  0.1322
  352MOL0     C48491   7.355   5.990   4.742  0.4743  0.0718  0.1671
  352MOL0     C48492   7.354   5.864   4.688 -0.4310 -0.1886  0.7004
  352MOL0     C48493   7.457   5.419   4.683  0.5370 -0.2359 -0.1968
  352MOL0     C48494   7.490   5.406   4.550 -0.2088  0.4358 -0.4261
  352MOL0     C48495   7.530   5.279   4.504  0.4269 -0.9330  0.3615
  352MOL0     C48496   7.534   5.162   4.583  0.6896  0.6806 -0.0233
  352MOL0     O48497   7.583   5.042   4.539  1.1863  0.0101  0.0315
  352MOL0     C48498   7.624   5.028   4.397  0.8085  0.3371 -0.3860
  352MOL0     C48499   7.617   4.872   4.373  0.0480  0.3829  0.0254
  352MOL0     C48500   7.676   4.849   4.229 -0.1569 -0.2259 -1.0962
  352MOL0     C48501   7.683   4.705   4.188 -0.5632  0.5379 -0.6810
  352MOL0     C48502   7.775   4.685   4.082 -0.3425  0.3684  0.3271
  352MOL0     C48503   7.840   4.673   3.982 -0.5369  0.8940 -0.0900
  352MOL0     C48504   7.496   5.186   4.713  0.6640  0.8371  0.4076
  352MOL0     C48505   7.457   5.309   4.769 -0.2027  0.0855  0.5997
  352MOL0     C48506   7.436   5.321   4.917  0.1569  0.2473 -0.0875
  352MOL0     H48507   7.689   5.808   4.701 -0.2100 -0.7658 -2.4449
  352MOL0     H48508   7.691   6.035   4.804  1.5098 -2.4864 -1.5818
  352MOL0     H48509   7.522   6.307   4.994  1.7776  0.0755  0.6283
  352MOL0     H48510   7.624   6.172   4.972 -0.0539  0.9602  0.4305
  352MOL0     H48511   7.339   6.157   5.098  0.4049  0.1133 -0.1297
  352MOL0     H48512   7.451   6.027   5.099 -1.6991 -0.5092  0.3462
  352MOL0     H48513   7.620   6.176   5.210  0.3882  0.9549  3.2652
  352MOL0     H48514   7.498   6.304   5.232  1.9345  0.7689  2.0221
  352MOL0     H48515   7.366   6.098   5.355  0.0494  2.8950 -0.3642
  352MOL0     H48516   7.522   6.019   5.334 -2.6362 -1.4060 -1.6197
  352MOL0     H48517   7.483   6.268   5.502 -1.3905 -0.5760 -1.0077
  352MOL0     H48518   7.646   6.204   5.463 -0.4407  1.2259  2.2064
  352MOL0     H48519   7.414   6.089   5.628  0.4093  2.4596  2.1327
  352MOL0     H48520   7.533   5.970   5.555 -4.5529 -0.9634 -0.7884
  352MOL0     H48521   7.608   6.206   5.729  0.0180  0.5979 -0.0064
  352MOL0     H48522   7.709   6.073   5.668 -0.0272 -0.6510 -0.6275
  352MOL0     H48523   7.494   6.079   5.895  1.1234  1.7487 -0.5913
  352MOL0     H48524   7.505   5.935   5.788  0.8049 -0.0058 -1.6748
  352MOL0     H48525   7.783   5.893   5.764 -1.6329  4.3618 -1.6042
  352MOL0     H48526   8.035   5.821   6.064  0.7509 -2.6731 -0.9153
  352MOL0     H48527   8.061   5.879   5.903  2.6861  1.6010  3.1836
  352MOL0     H48528   7.879   5.650   5.992  0.5385  3.2266  3.3721
  352MOL0     H48529   7.938   5.662   5.827  1.8605 -0.6746  0.3517
  352MOL0     H48530   8.168   5.636   5.935  0.0130 -1.0973 -0.3947
  352MOL0     H48531   8.074   5.591   6.079 -2.9009 -0.4549  0.3141
  352MOL0     H48532   7.973   5.407   5.941 -0.1305  0.6911  1.7529
  352MOL0     H48533   8.050   5.467   5.794 -1.4858  1.2880 -0.1778
  352MOL0     H48534   8.347   5.452   5.728  0.5091  0.1421  0.1705
  352MOL0     H48535   8.445   5.316   5.427 -1.0390  1.8088 -0.7988
  352MOL0     H48536   8.567   5.313   5.563  0.1474 -2.6236 -0.4735
  352MOL0     H48537   8.457   5.447   5.553  2.8256 -0.4684  0.5896
  352MOL0     H48538   8.299   4.919   5.230 -2.8014  0.9610  3.4056
  352MOL0     H48539   8.361   4.729   5.086  0.3210 -1.5389 -1.1972
  352MOL0     H48540   8.320   4.553   4.988 -0.7913  0.2319  3.3202
  352MOL0     H48541   8.502   4.567   4.979  0.1514  0.0520 -1.6932
  352MOL0     H48542   8.505   4.316   4.983 -0.9763 -0.7340  0.0827
  352MOL0     H48543   8.334   4.305   4.985  1.7401 -5.3211 -3.3893
  352MOL0     H48544   8.312   4.427   4.774  2.2235  1.8609  1.0878
  352MOL0     H48545   8.371   4.265   4.772  3.8939  0.4105 -3.1045
  352MOL0     H48546   8.612   4.359   4.750 -2.2660 -1.7875  3.2417
  352MOL0     H48547   8.550   4.516   4.760  0.1838  0.2564 -0.7961
  352MOL0     H48548   8.437   4.509   4.525  1.1674  1.4294  0.8866
  352MOL0     H48549   8.592   4.436   4.510 -0.8218 -0.5496 -0.8596
  352MOL0     H48550   8.440   4.291   4.391 -2.3499 -0.8636 -0.1203
  352MOL0     H48551   8.329   4.292   4.519 -1.6699  2.2896 -4.7011
  352MOL0     H48552   8.534   4.166   4.651 -0.2750  4.0532  0.0923
  352MOL0     H48553   8.570   4.127   4.487  0.0350  0.9912 -0.3215
  352MOL0     H48554   8.350   4.057   4.438  0.9433 -0.7146 -0.3790
  352MOL0     H48555   8.302   4.060   4.611 -0.6779 -1.4157 -0.3988
  352MOL0     H48556   8.452   4.489   5.421  3.0518 -0.4054 -2.3355
  352MOL0     H48557   8.412   4.696   5.573  0.5347  0.8249 -1.0225
  352MOL0     H48558   8.220   4.979   5.684 -1.2884  0.0619  0.0183
  352MOL0     H48559   8.114   5.125   5.866  1.2732 -3.1407 -0.7159
  352MOL0     H48560   7.257   6.037   4.740  0.2806 -0.3399 -0.5584
  352MOL0     H48561   7.265   5.807   4.664 -0.2017 -1.5995  2.8836
  352MOL0     H48562   7.487   5.485   4.476  0.5359  0.1124 -0.8010
  352MOL0     H48563   7.552   5.279   4.397 -0.2793 -3.0224  0.1624
  352MOL0     H48564   7.547   5.073   4.334 -0.1863  2.2615  2.0788
  352MOL0     H48565   7.723   5.071   4.379  2.0146 -2.5077 -1.0845
  352MOL0     H48566   7.512   4.844   4.363 -0.9310  3.7771 -0.4923
  352MOL0     H48567   7.670   4.812   4.448 -1.4487  0.4170  1.1477
  352MOL0     H48568   7.606   4.902   4.166 -1.7578  0.0946  0.8466
  352MOL0     H48569   7.774   4.897   4.234 -1.3178  2.3673 -2.0613
  352MOL0     H48570   7.579   4.685   4.160 -1.4275  1.7389  1.4251
  352MOL0     H48571   7.709   4.638   4.271 -1.9976 -2.1598 -2.2479
  352MOL0     H48572   7.888   4.663   3.887  0.0237  1.9583  0.0680
  352MOL0     H48573   7.512   5.101   4.778 -0.3776 -1.0960 -1.7425
  352MOL0     H48574   7.479   5.237   4.972 -1.9823  1.2555  3.4812
  352MOL0     H48575   7.478   5.413   4.960  0.0849  0.1046  0.2894
  352MOL0     H48576   7.327   5.323   4.914 -0.0267 -3.3742  0.0686
  353MOL0     O48577   7.086  10.848   1.679  0.0329  0.2107  0.8565
  353MOL0     C48578   7.111  10.762   1.598 -0.3714  0.3094  0.7451
  353MOL0     O48579   7.035  10.739   1.485  0.3865  0.5447  0.0650
  353MOL0     C48580   6.922  10.820   1.474  0.0555  0.1144  0.3346
  353MOL0     C48581   6.920  10.949   1.404 -0.0042  0.1026 -0.5377
  353MOL0     C48582   6.804  10.995   1.355  0.4375  0.8087  0.1193
  353MOL0     C48583   6.684  10.928   1.364 -1.4158  0.1931 -0.1765
  353MOL0     O48584   6.577  10.968   1.295  0.7320  0.5794  0.6626
  353MOL0     C48585   6.516  10.866   1.210 -0.2030  0.7654  0.3450
  353MOL0     C48586   6.363  10.904   1.198 -0.2039  0.0970 -0.4805
  353MOL0     C48587   6.291  10.844   1.314  1.1346  0.9194 -0.1602
  353MOL0     C48588   6.131  10.869   1.313 -0.4945  1.0331 -0.2036
  353MOL0     C48589   6.060  10.773   1.413  0.7536  0.9171 -0.2461
  353MOL0     C48590   5.917  10.812   1.447 -0.0804 -0.6979  0.2125
  353MOL0     C48591   5.904  10.950   1.515  0.4702 -0.2993  0.8624
  353MOL0     C48592   5.761  10.967   1.553 -0.3437  0.0616  0.4072
  353MOL0     N48593   5.750  11.081   1.640  0.0407  0.1560 -0.3432
  353MOL0     C48594   5.746  11.218   1.609 -0.0807 -0.6488  0.6027
  353MOL0     C48595   5.737  11.283   1.731 -0.3449  0.4618  0.7918
  353MOL0     C48596   5.677  11.419   1.745 -0.0691 -0.1096  0.4537
  353MOL0     C48597   5.767  11.525   1.677  0.1565 -0.4991 -0.3447
  353MOL0     C48598   5.712  11.567   1.539  0.0234  0.1898  0.5983
  353MOL0     C48599   5.782  11.695   1.487 -0.3916  0.4257  0.3204
  353MOL0     O48600   5.734  11.799   1.574  0.4002  0.0861  0.3880
  353MOL0     C48601   5.828  11.891   1.603 -0.5452 -0.0888  0.4275
  353MOL0     C48602   5.847  11.988   1.511  0.3853  0.1098  0.2871
  353MOL0     C48603   5.941  12.091   1.533  0.0626  0.3195  0.3274
  353MOL0     C48604   5.957  12.191   1.422 -0.0979 -0.2446  0.0389
  353MOL0     C48605   6.009  12.097   1.664 -0.4491  1.2048  0.2277
  353MOL0     C48606   6.109  12.197   1.709 -0.1429 -0.3045 -0.0216
  353MOL0     O48607   6.121  12.209   1.850 -0.0004  0.3233 -0.4732
  353MOL0     C48608   6.199  12.302   1.906 -0.4904 -0.2538 -0.0202
  353MOL0     C48609   6.192  12.442   1.891 -0.1256  0.0847  0.5179
  353MOL0     C48610   6.283  12.515   1.967 -0.9836 -1.4686  0.1590
  353MOL0     C48611   6.381  12.470   2.057 -0.0063 -0.0896 -0.3182
  353MOL0     O48612   6.465  12.564   2.104  0.0006 -0.1632 -0.1052
  353MOL0     C48613   6.602  12.525   2.135  0.1399  0.7554 -0.0799
  353MOL0     C48614   6.689  12.653   2.146  0.1173  0.0044 -0.9866
  353MOL0     C48615   6.669  12.754   2.028 -0.5089  0.4039  0.6341
  353MOL0     C48616   6.728  12.887   2.065  0.0711 -0.3079 -0.4363
  353MOL0     C48617   6.734  12.995   1.949 -0.3936  0.7029 -0.3622
  353MOL0     C48618   6.782  13.130   1.995 -0.7192 -0.1505  0.5132
  353MOL0     C48619   6.822  13.232   1.877  0.5963  0.4884 -0.5588
  353MOL0     C48620   6.838  13.369   1.944 -0.3151 -0.0215  0.0400
  353MOL0    Cl48621   6.859  13.488   1.821 -0.1801  0.1089  0.2755
  353MOL0     C48622   6.393  12.323   2.066  0.5707  0.4371 -0.4018
  353MOL0     C48623   6.298  12.245   1.997 -0.2720 -0.0868  0.5923
  353MOL0     O48624   6.151  12.280   1.625 -0.1217  0.4166  0.1053
  353MOL0     C48625   5.993  11.990   1.753  0.3834  0.1608  0.4256
  353MOL0     C48626   5.900  11.890   1.725 -0.4868 -0.2178  1.2368
  353MOL0     N48627   5.752  11.188   1.826  1.0005 -0.0484  0.3650
  353MOL0     N48628   5.747  11.071   1.777 -0.2005  0.4176 -1.0811
  353MOL0     C48629   6.680  10.808   1.438 -1.0160  0.5808 -0.0880
  353MOL0     C48630   6.796  10.760   1.495  0.4079  0.4019  0.6473
  353MOL0     C48631   7.244  10.695   1.613  0.4203 -0.2904 -0.3333
  353MOL0     C48632   7.275  10.595   1.521  0.2839  0.0790  0.3139
  353MOL0     C48633   7.395  10.537   1.521 -0.1242  1.3716  0.5963
  353MOL0     C48634   7.492  10.560   1.623 -0.5147 -0.8719  0.3621
  353MOL0     O48635   7.619  10.500   1.642  0.9367  0.2617  0.4664
  353MOL0     C48636   7.664  10.408   1.547 -0.1138 -1.2832 -0.1174
  353MOL0     C48637   7.617  10.263   1.578 -0.2596 -0.1900  1.0557
  353MOL0     C48638   7.618  10.228   1.729  0.6683  0.8040  0.5003
  353MOL0     C48639   7.566  10.091   1.752 -0.3397  0.0362  0.8770
  353MOL0     C48640   7.574  10.050   1.892 -0.5619  0.2206 -0.0093
  353MOL0     C48641   7.574  10.024   2.013  0.4908 -1.0416  0.2109
  353MOL0     C48642   7.469  10.660   1.710 -0.0365 -0.6823  0.1099
  353MOL0     C48643   7.341  10.731   1.714 -0.7393  1.6151 -0.8137
  353MOL0     C48644   7.332  10.851   1.800 -0.4608  0.0767 -0.2224
  353MOL0     H48645   7.017  10.992   1.379 -0.2791  0.5715 -0.8123
  353MOL0     H48646   6.809  11.083   1.292  0.0128  0.6881 -0.0822
  353MOL0     H48647   6.522  10.761   1.239 -2.8599  0.0313 -1.5086
  353MOL0     H48648   6.567  10.871   1.113 -0.5189  1.3955  0.2077
  353MOL0     H48649   6.350  11.012   1.193  1.8545  0.5510  1.8978
  353MOL0     H48650   6.331  10.854   1.106 -3.6763 -0.0010  0.6325
  353MOL0     H48651   6.305  10.735   1.311  4.1689  1.1254  1.7364
  353MOL0     H48652   6.331  10.877   1.410 -1.1783  0.2414  1.1192
  353MOL0     H48653   6.109  10.970   1.349  0.1386  0.6134  1.4207
  353MOL0     H48654   6.089  10.865   1.212 -1.0118  2.4061 -0.0632
  353MOL0     H48655   6.115  10.762   1.507  3.5128  1.4560 -1.6865
  353MOL0     H48656   6.070  10.671   1.375  0.3655  2.2231 -4.2948
  353MOL0     H48657   5.850  10.819   1.361 -1.4413  3.1510  1.3638
  353MOL0     H48658   5.880  10.728   1.507 -0.2803 -0.9955 -0.3154
  353MOL0     H48659   5.938  11.038   1.460  0.7932  0.2234  1.8954
  353MOL0     H48660   5.951  10.952   1.613 -2.2296  1.2123  2.2263
  353MOL0     H48661   5.693  10.985   1.469 -2.3701  1.6599  2.2616
  353MOL0     H48662   5.744  10.874   1.608 -1.0123 -0.2735 -0.3437
  353MOL0     H48663   5.740  11.256   1.508  0.3220 -0.5932  0.5957
  353MOL0     H48664   5.673  11.451   1.849 -2.1369  1.8477 -0.1386
  353MOL0     H48665   5.572  11.436   1.720 -0.2225  0.9121  1.7006
  353MOL0     H48666   5.761  11.610   1.746 -1.8748  0.8613 -2.0737
  353MOL0     H48667   5.872  11.497   1.664  0.9292  2.3201 -0.7944
  353MOL0     H48668   5.733  11.485   1.469 -2.7065 -1.5347  1.6631
  353MOL0     H48669   5.605  11.582   1.553 -0.4362 -1.6564 -0.5401
  353MOL0     H48670   5.891  11.692   1.483 -0.4441 -0.6114 -1.3626
  353MOL0     H48671   5.758  11.719   1.383 -1.5372  0.9263  0.6781
  353MOL0     H48672   5.795  11.995   1.416  2.6390 -1.8252 -1.2291
  353MOL0     H48673   5.882  12.180   1.342  2.9921  0.4531 -3.2420
  353MOL0     H48674   6.056  12.184   1.375  0.5029 -0.3098  1.2846
  353MOL0     H48675   5.947  12.295   1.451  1.8819 -0.0366  0.1304
  353MOL0     H48676   6.131  12.473   1.807  0.7089  4.1054  1.2045
  353MOL0     H48677   6.297  12.619   1.939  0.7189 -1.4784  0.8654
  353MOL0     H48678   6.618  12.480   2.233  0.7975  2.1889  0.5099
  353MOL0     H48679   6.633  12.458   2.054 -2.4192 -2.4114  1.3842
  353MOL0     H48680   6.641  12.698   2.233 -1.7033 -4.4894  0.6174
  353MOL0     H48681   6.790  12.624   2.174 -0.5851 -1.5492  0.1212
  353MOL0     H48682   6.564  12.770   2.003 -0.7479  1.5732  2.2463
  353MOL0     H48683   6.719  12.719   1.937 -1.4466 -1.0198  0.6425
  353MOL0     H48684   6.826  12.851   2.099 -0.4574 -0.6296  0.8283
  353MOL0     H48685   6.686  12.941   2.151  0.0319 -1.7011  0.4507
  353MOL0     H48686   6.790  12.951   1.865  0.8263  7.2558 -3.6640
  353MOL0     H48687   6.632  13.011   1.913 -0.9764 -0.4154  0.7163
  353MOL0     H48688   6.879  13.106   2.040 -0.1202 -0.5418 -0.9407
  353MOL0     H48689   6.723  13.172   2.077  1.0034 -0.7717  2.1336
  353MOL0     H48690   6.749  13.240   1.795 -1.5422 -1.7291  1.0178
  353MOL0     H48691   6.919  13.205   1.835  0.4336  0.1247 -0.7095
  353MOL0     H48692   6.929  13.362   2.006  1.0615  1.8379 -1.6331
  353MOL0     H48693   6.747  13.390   2.001  0.0850  1.9555  0.0100
  353MOL0     H48694   6.452  12.265   2.137 -1.1424 -1.2553 -0.2853
  353MOL0     H48695   6.303  12.137   2.006  0.5268  0.0579  2.1601
  353MOL0     H48696   6.043  11.990   1.849 -0.8914 -1.2518  1.1318
  353MOL0     H48697   5.876  11.828   1.811 -2.3519 -1.0663  0.1722
  353MOL0     H48698   6.584  10.768   1.468 -0.5939  1.6302  3.0322
  353MOL0     H48699   6.797  10.662   1.541 -2.2551 -1.0425 -2.0244
  353MOL0     H48700   7.214  10.566   1.437  0.7097 -0.6547  0.2493
  353MOL0     H48701   7.403  10.468   1.438 -1.0460  2.2773 -0.2724
  353MOL0     H48702   7.640  10.444   1.447  1.8096  1.7747  0.3773
  353MOL0     H48703   7.773  10.398   1.557  0.2774  2.3158  0.9988
  353MOL0     H48704   7.674  10.184   1.528 -1.6232 -1.3622  1.2848
  353MOL0     H48705   7.509  10.262   1.563 -0.1983  0.9522  0.4277
  353MOL0     H48706   7.715  10.246   1.778  0.1513  0.2311  1.7893
  353MOL0     H48707   7.548  10.288   1.787 -1.2062  0.4716 -1.3349
  353MOL0     H48708   7.603  10.008   1.691 -1.3830  1.3454 -1.7378
  353MOL0     H48709   7.462  10.112   1.724  0.9016  2.7752 -2.4345
  353MOL0     H48710   7.587  10.000   2.116  3.2668 -1.1987 -0.1005
  353MOL0     H48711   7.543  10.673   1.788 -0.7151 -0.8640  0.7945
  353MOL0     H48712   7.398  10.844   1.887 -0.2702  3.0369 -0.0401
  353MOL0     H48713   7.361  10.936   1.738 -2.6475  0.9103 -0.1815
  353MOL0     H48714   7.240  10.861   1.859 -0.4702  0.2316 -0.2638
  354MOL0     O48715   6.086   2.037   9.498 -0.6299 -0.0183  0.3612
  354MOL0     C48716   6.026   2.101   9.409 -1.3508 -0.0465  0.3164
  354MOL0     O48717   5.955   2.227   9.428  0.3517  0.5211  0.2015
  354MOL0     C48718   5.942   2.302   9.543  0.1516  0.0923  0.8704
  354MOL0     C48719   5.832   2.392   9.532  0.3160 -0.1685 -0.1452
  354MOL0     C48720   5.817   2.497   9.616 -0.8916  0.3730  0.4665
  354MOL0     C48721   5.911   2.513   9.724 -1.0018 -0.4763  0.1850
  354MOL0     O48722   5.899   2.610   9.818  0.6129  0.2327 -0.0542
  354MOL0     C48723   5.788   2.693   9.814  0.3537 -0.4552 -0.6150
  354MOL0     C48724   5.786   2.785   9.943 -0.0114 -0.0553  0.3815
  354MOL0     C48725   5.909   2.882   9.944  0.3281  1.2730 -0.4530
  354MOL0     C48726   5.895   3.006  10.033  0.7179  1.2709 -0.5671
  354MOL0     C48727   6.015   3.094  10.019 -0.5455 -0.5398 -1.0221
  354MOL0     C48728   5.995   3.217  10.100  1.0710  0.7777 -0.9135
  354MOL0     C48729   6.124   3.297  10.129  0.2389  0.6156 -0.4302
  354MOL0     C48730   6.094   3.443  10.135 -0.9046 -0.7996 -0.3423
  354MOL0     N48731   6.063   3.506  10.009 -0.1062 -0.0904 -0.5243
  354MOL0     C48732   6.153   3.527   9.910  0.1188 -0.5774 -0.8992
  354MOL0     C48733   6.086   3.612   9.826  0.1399  0.4591 -0.9787
  354MOL0     C48734   6.145   3.671   9.707  0.8663 -0.4781 -0.0587
  354MOL0     C48735   6.269   3.750   9.741 -0.1315  0.4940  0.4746
  354MOL0     C48736   6.277   3.896   9.677 -0.3241  0.5938  0.4200
  354MOL0     C48737   6.419   3.920   9.620  0.6286 -0.5832  1.1628
  354MOL0     O48738   6.445   4.054   9.588 -0.9266  0.3670 -0.2218
  354MOL0     C48739   6.575   4.082   9.544 -0.3355  0.3925  0.3800
  354MOL0     C48740   6.597   4.219   9.510  0.4667  1.3601  0.3638
  354MOL0     C48741   6.728   4.260   9.489 -0.2590  0.7409 -0.1496
  354MOL0     C48742   6.733   4.408   9.489 -0.1632  0.7302  0.6093
  354MOL0     C48743   6.832   4.172   9.487 -0.4911  0.3140  0.9395
  354MOL0     C48744   6.977   4.211   9.470  0.0225 -0.4080  0.3986
  354MOL0     O48745   7.012   4.336   9.417  0.1812  0.3082  0.5637
  354MOL0     C48746   7.144   4.364   9.404 -0.3043  1.0104 -0.5955
  354MOL0     C48747   7.205   4.343   9.284 -0.9003  0.1382  0.4389
  354MOL0     C48748   7.330   4.400   9.269 -0.2104  0.8097  0.7072
  354MOL0     C48749   7.407   4.453   9.372 -0.4322  0.6560 -0.2790
  354MOL0     O48750   7.537   4.499   9.369  0.0871  0.3366 -0.0650
  354MOL0     C48751   7.629   4.406   9.300  0.7610  0.8122  0.1335
  354MOL0     C48752   7.693   4.498   9.206  0.3501 -0.0951  0.3571
  354MOL0     C48753   7.801   4.420   9.120 -0.2140  0.0440  0.3059
  354MOL0     C48754   7.870   4.510   9.012 -0.4556 -0.0950 -0.7554
  354MOL0     C48755   7.995   4.590   9.065 -1.0684 -0.1075 -0.1753
  354MOL0     C48756   8.079   4.636   8.948  0.2890  0.6524  0.0871
  354MOL0     C48757   8.024   4.755   8.867  0.3313 -0.0039 -1.1470
  354MOL0     C48758   8.050   4.894   8.944 -0.2676  0.1735 -0.2344
  354MOL0    Cl48759   8.218   4.931   8.963 -0.0352  0.0974 -0.0722
  354MOL0     C48760   7.327   4.487   9.484 -0.2628 -0.0888  0.1926
  354MOL0     C48761   7.203   4.438   9.510 -0.2285  1.1225 -0.4635
  354MOL0     O48762   7.056   4.131   9.519 -0.2120  0.2503 -0.6699
  354MOL0     C48763   6.807   4.032   9.514 -0.3951  0.4141 -0.1260
  354MOL0     C48764   6.685   3.989   9.546  0.8250 -0.1001  0.6973
  354MOL0     N48765   5.966   3.656   9.881  0.1106 -0.5589  0.6037
  354MOL0     N48766   5.956   3.587   9.991  0.3645  0.0408 -0.0548
  354MOL0     C48767   6.020   2.427   9.734 -0.2851  0.2732  0.3022
  354MOL0     C48768   6.041   2.328   9.639  0.7277  0.1491 -0.6188
  354MOL0     C48769   5.999   2.034   9.278 -1.3111  0.1491  0.9555
  354MOL0     C48770   5.894   2.069   9.203  0.0427 -0.4425 -0.2703
  354MOL0     C48771   5.858   1.997   9.092  0.7312  0.4223 -0.0819
  354MOL0     C48772   5.933   1.882   9.046 -0.7599 -0.6857  0.7783
  354MOL0     O48773   5.897   1.810   8.934 -0.3595 -0.3206 -0.2219
  354MOL0     C48774   5.985   1.796   8.823  0.1455  0.0210 -0.1452
  354MOL0     C48775   5.941   1.911   8.723 -0.7129  0.7395  0.1665
  354MOL0     C48776   6.017   1.886   8.589 -0.4118 -0.1553  0.0144
  354MOL0     C48777   5.969   1.995   8.488  0.2122  0.0288 -0.3375
  354MOL0     C48778   6.031   1.989   8.358 -0.3910 -0.4369  0.6872
  354MOL0     C48779   6.089   1.971   8.247  0.5861  0.9875  1.0796
  354MOL0     C48780   6.047   1.843   9.123  0.3382 -0.3193  0.2210
  354MOL0     C48781   6.087   1.923   9.234  1.1898  0.3254 -0.0897
  354MOL0     C48782   6.218   1.904   9.289 -0.6249 -0.0551 -0.1871
  354MOL0     H48783   5.782   2.383   9.436 -0.2866 -0.0389  0.1580
  354MOL0     H48784   5.738   2.568   9.597  0.5570  1.3620 -2.4698
  354MOL0     H48785   5.693   2.640   9.815  0.5514 -0.8059  0.3750
  354MOL0     H48786   5.788   2.763   9.730  3.4609 -0.4459 -0.7454
  354MOL0     H48787   5.692   2.840   9.942 -0.0605 -0.1344  0.6191
  354MOL0     H48788   5.794   2.721  10.032  3.8579  2.5530  2.1873
  354MOL0     H48789   5.990   2.824   9.990  0.8762  0.2863 -2.5254
  354MOL0     H48790   5.933   2.910   9.841  1.6491  0.5285 -0.3778
  354MOL0     H48791   5.798   3.052  10.013  0.3177  1.7020  1.9948
  354MOL0     H48792   5.885   2.963  10.133 -0.2474 -1.4055 -1.7512
  354MOL0     H48793   6.022   3.133   9.917 -3.1618  0.6304 -0.8553
  354MOL0     H48794   6.099   3.034  10.055 -1.6310 -0.8587  1.1558
  354MOL0     H48795   5.923   3.285  10.053  2.6592  1.7906 -1.9349
  354MOL0     H48796   5.946   3.195  10.196  2.6909 -0.3147 -0.2957
  354MOL0     H48797   6.183   3.270  10.041  1.2051 -2.0403  0.9265
  354MOL0     H48798   6.169   3.268  10.224  1.0378  0.6731 -0.7807
  354MOL0     H48799   6.016   3.459  10.210 -0.1642  0.5199  0.1794
  354MOL0     H48800   6.180   3.497  10.174 -1.9834 -0.3847  1.5548
  354MOL0     H48801   6.256   3.493   9.906  0.0832 -0.6577 -1.2339
  354MOL0     H48802   6.085   3.739   9.647  0.4867 -2.8666 -2.5964
  354MOL0     H48803   6.178   3.590   9.641  1.4114 -1.2157  1.0746
  354MOL0     H48804   6.270   3.756   9.850 -2.0313 -2.6969  0.7831
  354MOL0     H48805   6.355   3.685   9.724 -0.1347  0.7659 -0.7315
  354MOL0     H48806   6.209   3.928   9.597 -0.1105 -0.0120 -0.0103
  354MOL0     H48807   6.266   3.962   9.764  0.4882 -0.3475  1.2586
  354MOL0     H48808   6.500   3.889   9.687  1.2700  1.0346  1.1754
  354MOL0     H48809   6.410   3.851   9.535 -2.7689 -1.3421  2.0034
  354MOL0     H48810   6.516   4.289   9.526 -1.1745 -0.4797  0.5446
  354MOL0     H48811   6.834   4.445   9.508  0.8102 -1.5283  0.0739
  354MOL0     H48812   6.675   4.446   9.574  1.0944  2.4923  0.7521
  354MOL0     H48813   6.681   4.449   9.403 -1.0807  1.2740  1.4008
  354MOL0     H48814   7.142   4.288   9.214 -2.2066  2.3105 -0.2168
  354MOL0     H48815   7.381   4.381   9.175 -0.9712  2.8906 -0.1909
  354MOL0     H48816   7.706   4.374   9.371 -0.5612  1.1455  1.8021
  354MOL0     H48817   7.588   4.316   9.255 -0.1492  1.0270  0.5208
  354MOL0     H48818   7.621   4.550   9.141 -0.7769 -0.3560  1.3711
  354MOL0     H48819   7.741   4.580   9.260 -1.7781  0.1170  2.0264
  354MOL0     H48820   7.768   4.327   9.073 -0.1185  0.4678 -0.6300
  354MOL0     H48821   7.878   4.388   9.191 -0.2904  1.5427  1.1219
  354MOL0     H48822   7.804   4.578   8.958  1.3157  0.5026 -2.2882
  354MOL0     H48823   7.904   4.446   8.930  2.0316  2.5735 -1.9919
  354MOL0     H48824   7.972   4.675   9.130  0.2320 -0.6349  1.0124
  354MOL0     H48825   8.054   4.524   9.129 -0.1171  2.9205  2.3437
  354MOL0     H48826   8.097   4.550   8.883 -1.1187 -0.3889  1.0302
  354MOL0     H48827   8.177   4.663   8.989 -0.0056  2.1931 -0.1480
  354MOL0     H48828   7.917   4.757   8.845  0.5053  2.3771 -2.1009
  354MOL0     H48829   8.063   4.753   8.765  0.4469  1.4950 -1.1564
  354MOL0     H48830   8.002   4.890   9.042 -2.2508 -1.8215 -1.1807
  354MOL0     H48831   8.003   4.980   8.894 -0.4596  0.8477  1.0592
  354MOL0     H48832   7.379   4.538   9.565  0.5038 -0.7238  0.1148
  354MOL0     H48833   7.148   4.452   9.603 -2.2745 -0.7995 -1.2744
  354MOL0     H48834   6.891   3.964   9.531 -0.2902  0.4671 -0.4408
  354MOL0     H48835   6.685   3.882   9.562  2.2289 -0.6165 -2.2482
  354MOL0     H48836   6.101   2.454   9.801  2.5616  0.5732 -2.9955
  354MOL0     H48837   6.132   2.270   9.642  2.0390  2.1328  0.6906
  354MOL0     H48838   5.820   2.146   9.220 -1.6324 -1.9251 -0.5264
  354MOL0     H48839   5.765   2.017   9.040 -0.0873  0.8162  1.4657
  354MOL0     H48840   6.086   1.805   8.865  0.2467 -0.1127 -0.3632
  354MOL0     H48841   5.972   1.699   8.776 -3.3809  0.3482 -0.1317
  354MOL0     H48842   5.971   2.009   8.760 -3.0461  1.1569  1.1060
  354MOL0     H48843   5.834   1.895   8.711 -0.5194 -0.3807 -0.2411
  354MOL0     H48844   6.124   1.885   8.611 -0.1330  1.7418 -1.1022
  354MOL0     H48845   6.003   1.787   8.544  0.8613 -0.4364  0.1833
  354MOL0     H48846   6.004   2.087   8.534  2.7921 -0.3012 -1.4756
  354MOL0     H48847   5.859   1.991   8.488  0.1751 -0.0131  1.8822
  354MOL0     H48848   6.156   1.965   8.164  0.1796 -1.4402  0.8315
  354MOL0     H48849   6.106   1.760   9.085 -1.8619 -1.8901  0.0478
  354MOL0     H48850   6.293   1.866   9.219  0.7882 -1.2461  1.8630
  354MOL0     H48851   6.260   2.002   9.315 -2.0558  0.7816 -0.9391
  354MOL0     H48852   6.226   1.840   9.377  0.9142  0.6123  0.2061
  355MOL0     O48853   5.330   9.050  10.474 -1.3566 -0.9924 -0.3670
  355MOL0     C48854   5.277   9.152  10.500  0.0347 -0.8003 -0.2208
  355MOL0     O48855   5.328   9.275  10.503 -0.5681 -0.0585  0.2276
  355MOL0     C48856   5.462   9.293  10.490 -0.7474  0.3163  0.0274
  355MOL0     C48857   5.552   9.231  10.587 -0.3758 -0.5097 -0.4738
  355MOL0     C48858   5.685   9.268  10.586  1.0812  0.1304  0.3390
  355MOL0     C48859   5.727   9.348  10.486 -1.4237  0.3733  0.2389
  355MOL0     O48860   5.867   9.366  10.502  0.6283 -0.3677 -0.5361
  355MOL0     C48861   5.924   9.466  10.412 -0.3936  0.4652 -0.5624
  355MOL0     C48862   5.922   9.608  10.477 -0.1768  0.1375  0.5494
  355MOL0     C48863   6.072   9.636  10.508  0.0704  0.0932  0.3525
  355MOL0     C48864   6.089   9.784  10.548 -0.3717 -0.7742 -0.6769
  355MOL0     C48865   6.232   9.812  10.584 -0.3234 -0.0292 -0.3825
  355MOL0     C48866   6.250   9.961  10.628  0.1308 -0.3933  0.3705
  355MOL0     C48867   6.394  10.008  10.622 -0.1948 -0.3714 -0.1067
  355MOL0     C48868   6.425  10.123  10.719  0.3276  1.2084  0.4831
  355MOL0     N48869   6.384  10.249  10.659  0.5460  0.3408  0.3745
  355MOL0     C48870   6.425  10.299  10.542 -0.0143 -0.5949 -0.1903
  355MOL0     C48871   6.359  10.419  10.525  0.1121 -0.2810  0.4164
  355MOL0     C48872   6.365  10.517  10.416 -1.0376  0.1372 -0.4191
  355MOL0     C48873   6.505  10.594  10.418  0.1020 -1.0110 -0.2570
  355MOL0     C48874   6.527  10.695  10.535 -0.5669  0.7095 -0.0594
  355MOL0     C48875   6.638  10.790  10.506 -0.5226  0.2738  0.3167
  355MOL0     O48876   6.762  10.725  10.499  0.0824 -0.3800 -0.4829
  355MOL0     C48877   6.827  10.713  10.372  0.9873 -0.4223 -0.8337
  355MOL0     C48878   6.957  10.677  10.370 -0.0625 -0.0367 -0.7274
  355MOL0     C48879   7.035  10.685  10.261 -0.0156  0.0829  0.0424
  355MOL0     C48880   7.178  10.650  10.282 -0.1463  0.4599 -0.2995
  355MOL0     C48881   6.970  10.708  10.130 -0.5926  1.1835 -0.8518
  355MOL0     C48882   7.040  10.679  10.000  0.7439  0.1143  0.0145
  355MOL0     O48883   6.982  10.732   9.886  0.7642 -0.6133 -0.0925
  355MOL0     C48884   7.060  10.705   9.774  0.6705 -0.3370 -1.0087
  355MOL0     C48885   7.188  10.750   9.766  0.2034  0.0105  0.1327
  355MOL0     C48886   7.267  10.722   9.653 -0.4509  0.2502 -0.1940
  355MOL0     C48887   7.217  10.641   9.548 -0.0745 -0.2028  0.0726
  355MOL0     O48888   7.288  10.590   9.441 -0.3432  0.0438 -0.0242
  355MOL0     C48889   7.409  10.658   9.402  0.0171  0.0375  0.4816
  355MOL0     C48890   7.492  10.589   9.291  0.7540 -0.2858  0.3967
  355MOL0     C48891   7.408  10.568   9.163 -0.2834  0.4385 -0.1861
  355MOL0     C48892   7.323  10.443   9.158 -0.1670 -0.2482 -0.2799
  355MOL0     C48893   7.213  10.446   9.052 -0.1181 -0.1418 -0.6816
  355MOL0     C48894   7.150  10.301   9.024 -0.1576  0.1970  1.0637
  355MOL0     C48895   7.095  10.240   9.152 -0.7087 -0.6312 -0.0273
  355MOL0     C48896   6.977  10.318   9.216  0.0083  0.4377  0.2357
  355MOL0    Cl48897   6.846  10.345   9.102 -0.1398 -0.3764 -0.0517
  355MOL0     C48898   7.081  10.586   9.559 -0.0644 -0.2264 -0.3179
  355MOL0     C48899   7.002  10.629   9.670  0.9402  0.1688 -1.3495
  355MOL0     O48900   7.135  10.602   9.998 -0.0817  0.2785 -0.1440
  355MOL0     C48901   6.835  10.744  10.130  0.5189  0.0926 -0.1366
  355MOL0     C48902   6.765  10.742  10.249 -0.6800 -0.3569  0.5493
  355MOL0     N48903   6.277  10.429  10.641 -0.0652 -0.5308  0.3878
  355MOL0     N48904   6.300  10.329  10.718  0.4559  0.0120  0.8585
  355MOL0     C48905   5.647   9.401  10.389  0.5032  0.1135  0.8452
  355MOL0     C48906   5.504   9.378  10.392  0.0920  0.0526 -0.8734
  355MOL0     C48907   5.132   9.143  10.527  1.5660 -0.2639 -0.7387
  355MOL0     C48908   5.055   9.261  10.505  0.1807 -0.0785 -0.5133
  355MOL0     C48909   4.920   9.264  10.531  0.1804  1.0910  0.2158
  355MOL0     C48910   4.860   9.156  10.586 -0.2745 -0.0685  0.6500
  355MOL0     O48911   4.722   9.158  10.598  0.0055  0.1006 -0.3501
  355MOL0     C48912   4.644   9.062  10.528 -0.6367  0.3246 -0.0104
  355MOL0     C48913   4.504   9.111  10.525  0.2437  0.1581  0.9789
  355MOL0     C48914   4.410   9.021  10.437 -0.9252 -0.3177 -0.7046
  355MOL0     C48915   4.427   8.868  10.445 -0.8614  0.4789  0.5167
  355MOL0     C48916   4.528   8.826  10.350 -0.0556  0.0487  0.0585
  355MOL0     C48917   4.611   8.785  10.267  1.1250 -0.9788  0.0015
  355MOL0     C48918   4.932   9.037  10.609 -0.5774  0.6567 -0.2152
  355MOL0     C48919   5.074   9.029  10.584  0.0232  0.9072 -0.1349
  355MOL0     C48920   5.145   8.896  10.617  0.4182 -0.5003  0.8845
  355MOL0     H48921   5.506   9.163  10.658  0.1568  0.7419  1.1154
  355MOL0     H48922   5.750   9.226  10.663 -1.9106  2.2249  4.3484
  355MOL0     H48923   5.871   9.469  10.316 -0.6213 -1.7858 -0.5585
  355MOL0     H48924   6.026   9.430  10.394 -1.5381 -3.0469 -0.7829
  355MOL0     H48925   5.892   9.687  10.408 -2.6149 -0.4324  0.8714
  355MOL0     H48926   5.858   9.604  10.566 -3.6990  1.3736 -1.7501
  355MOL0     H48927   6.115   9.567  10.582  1.4550 -0.0533 -0.5468
  355MOL0     H48928   6.140   9.639  10.422 -0.8993  0.2263 -0.4233
  355MOL0     H48929   6.056   9.850  10.468  3.9365  0.9492 -1.3232
  355MOL0     H48930   6.023   9.814  10.630 -1.2493  1.4267 -2.1035
  355MOL0     H48931   6.295   9.793  10.496  1.1787  1.3136  0.3318
  355MOL0     H48932   6.258   9.754  10.673 -2.2792 -2.1162 -1.0944
  355MOL0     H48933   6.197  10.031  10.564 -1.5218  2.0928  4.1079
  355MOL0     H48934   6.206   9.958  10.728  1.4309  0.5146  0.9981
  355MOL0     H48935   6.425  10.030  10.519 -2.6240  1.9179 -0.4602
  355MOL0     H48936   6.451   9.923  10.659  1.4059  0.6166 -0.2174
  355MOL0     H48937   6.380  10.098  10.815 -0.0175 -0.8242 -0.1563
  355MOL0     H48938   6.533  10.136  10.726  1.2003 -2.1862 -3.1548
  355MOL0     H48939   6.483  10.253  10.462  0.4801  1.1441 -0.8894
  355MOL0     H48940   6.279  10.584  10.426 -2.7542 -1.8690 -0.9823
  355MOL0     H48941   6.354  10.462  10.322 -1.6506  0.1716 -0.3690
  355MOL0     H48942   6.575  10.510  10.424  0.3640 -0.7051  1.4972
  355MOL0     H48943   6.519  10.638  10.319  0.7598  1.2765  0.7934
  355MOL0     H48944   6.434  10.752  10.539 -0.3576  1.1195 -0.7833
  355MOL0     H48945   6.548  10.646  10.630  0.5629  0.2506 -0.5216
  355MOL0     H48946   6.622  10.855  10.419  0.8601  0.7590  0.3867
  355MOL0     H48947   6.635  10.856  10.593 -1.4203 -1.6291  1.8030
  355MOL0     H48948   7.004  10.651  10.464 -0.7187 -1.4940 -0.7742
  355MOL0     H48949   7.238  10.741  10.280 -1.9022  1.6589 -2.1189
  355MOL0     H48950   7.214  10.574  10.213  3.2952  0.9282  0.8012
  355MOL0     H48951   7.193  10.608  10.382  0.0100 -3.0932 -1.6639
  355MOL0     H48952   7.243  10.798   9.847  2.9685 -2.4157 -0.1131
  355MOL0     H48953   7.374  10.739   9.658  0.4382 -4.2085  0.3148
  355MOL0     H48954   7.398  10.763   9.374 -3.3913 -0.2697  0.3058
  355MOL0     H48955   7.481  10.655   9.484  0.9953  0.5971 -0.3249
  355MOL0     H48956   7.582  10.644   9.262  0.3429  0.8736  1.2461
  355MOL0     H48957   7.517  10.489   9.326 -0.7655 -1.2734 -1.1393
  355MOL0     H48958   7.472  10.564   9.074  3.0615 -1.0258  2.0539
  355MOL0     H48959   7.340  10.654   9.163 -0.6709  0.1407  0.4536
  355MOL0     H48960   7.274  10.430   9.255  2.2467  2.3952  1.4678
  355MOL0     H48961   7.391  10.362   9.133  1.0095  0.7516 -0.4455
  355MOL0     H48962   7.139  10.522   9.082  1.1640  0.5442  0.8522
  355MOL0     H48963   7.266  10.490   8.967 -1.4870  0.0129 -1.4996
  355MOL0     H48964   7.236  10.245   8.986  0.2698  2.2756 -1.3298
  355MOL0     H48965   7.070  10.302   8.950 -1.2363  0.7508  2.2043
  355MOL0     H48966   7.176  10.240   9.225  0.7205  0.8556 -1.5150
  355MOL0     H48967   7.053  10.140   9.135  0.3559 -1.1958  0.5716
  355MOL0     H48968   6.998  10.418   9.254 -1.6855  0.9170 -0.0112
  355MOL0     H48969   6.935  10.255   9.295  2.4546 -2.5548 -0.6641
  355MOL0     H48970   7.044  10.520   9.481  2.4701 -0.6934 -1.2463
  355MOL0     H48971   6.902  10.587   9.680  1.2656 -0.7533 -1.8208
  355MOL0     H48972   6.793  10.786  10.039 -1.5854 -2.0495 -0.2459
  355MOL0     H48973   6.658  10.756  10.236 -0.3127  1.1891 -1.1858
  355MOL0     H48974   5.675   9.475  10.314  1.4251 -0.2717  0.7911
  355MOL0     H48975   5.430   9.438  10.340 -1.8150  1.2744  2.8356
  355MOL0     H48976   5.102   9.353  10.474  0.8008 -0.6813 -1.3996
  355MOL0     H48977   4.861   9.348  10.497 -0.3627  0.6467  0.0343
  355MOL0     H48978   4.685   9.046  10.428  3.7584 -3.3182  1.9986
  355MOL0     H48979   4.645   8.959  10.564  1.6447  0.7026  1.2468
  355MOL0     H48980   4.498   9.209  10.476  0.0739 -0.0240  0.6285
  355MOL0     H48981   4.468   9.131  10.626  0.2201  1.8259  0.6746
  355MOL0     H48982   4.306   9.044  10.463 -0.5732 -0.7858  1.2760
  355MOL0     H48983   4.418   9.049  10.332  1.5287  3.9363  0.4101
  355MOL0     H48984   4.334   8.819  10.415  0.1845 -0.1771 -1.9647
  355MOL0     H48985   4.465   8.831  10.540  1.4376 -0.7397 -0.7830
  355MOL0     H48986   4.665   8.756  10.179 -0.4400  0.3831 -1.5047
  355MOL0     H48987   4.900   8.941  10.648  1.9001 -2.8745 -5.6080
  355MOL0     H48988   5.072   8.830  10.666 -2.9081  0.6365 -2.0654
  355MOL0     H48989   5.181   8.843  10.528 -0.8480 -1.8883  1.1502
  355MOL0     H48990   5.232   8.910  10.681  1.1546  0.8188 -0.3743
  356MOL0     O48991   3.908   6.518   4.270  0.8539 -0.2121  1.0084
  356MOL0     C48992   3.810   6.487   4.198  0.6522  0.3354  0.6923
  356MOL0     O48993   3.763   6.546   4.084  0.0250  0.1167 -0.0468
  356MOL0     C48994   3.833   6.645   4.025  0.3869  0.2453 -0.2271
  356MOL0     C48995   3.797   6.779   4.041 -0.1846 -0.0576  0.1926
  356MOL0     C48996   3.875   6.873   3.966 -0.2349 -0.4224  0.6308
  356MOL0     C48997   3.975   6.843   3.876 -1.0873 -0.7978  0.5250
  356MOL0     O48998   4.045   6.948   3.813 -0.0850 -0.0927 -0.7582
  356MOL0     C48999   4.136   6.900   3.709  0.7161 -0.0408  0.1368
  356MOL0     C49000   4.166   7.008   3.615  0.1764 -0.7578  1.8536
  356MOL0     C49001   4.237   6.952   3.487  0.4814  0.4699  0.0306
  356MOL0     C49002   4.252   7.070   3.400 -0.6770 -0.4152 -0.2845
  356MOL0     C49003   4.294   7.022   3.257 -0.5924  1.1937  0.1909
  356MOL0     C49004   4.452   7.013   3.244  0.1770 -0.6963 -0.0711
  356MOL0     C49005   4.498   7.002   3.106  1.1926 -0.0181  1.0166
  356MOL0     C49006   4.640   6.946   3.094  0.2921  0.3687  0.3942
  356MOL0     N49007   4.743   7.033   3.135  0.4615  0.4799  0.1639
  356MOL0     C49008   4.818   7.103   3.037 -0.2619 -0.0372  0.3329
  356MOL0     C49009   4.919   7.169   3.101 -0.2939 -0.4456 -1.2957
  356MOL0     C49010   5.033   7.257   3.053 -0.9228  0.8347 -0.6244
  356MOL0     C49011   4.991   7.405   3.041  1.5269 -0.7020 -0.0112
  356MOL0     C49012   5.071   7.490   2.942 -0.6892 -0.4867  0.2287
  356MOL0     C49013   5.224   7.488   2.961  0.1757  1.0241 -0.9321
  356MOL0     O49014   5.281   7.590   2.879 -0.3361  0.5513 -0.4902
  356MOL0     C49015   5.345   7.563   2.761 -1.1599 -0.3341  0.3053
  356MOL0     C49016   5.462   7.635   2.735  0.5334 -0.9542  0.9472
  356MOL0     C49017   5.538   7.622   2.623 -0.0521  0.5550  0.1381
  356MOL0     C49018   5.642   7.727   2.605  0.1613  0.6116  0.4331
  356MOL0     C49019   5.495   7.520   2.521  0.9796 -0.2062  0.4240
  356MOL0     C49020   5.562   7.497   2.387  0.1048  0.5580  0.8454
  356MOL0     O49021   5.514   7.387   2.314 -0.6226 -0.0475  0.1314
  356MOL0     C49022   5.527   7.392   2.179 -0.2784  0.5497  0.8396
  356MOL0     C49023   5.602   7.301   2.106 -0.1077 -0.3703  0.4328
  356MOL0     C49024   5.587   7.295   1.970  0.2403 -0.0843 -1.0258
  356MOL0     C49025   5.518   7.390   1.897  0.4626 -0.9977 -0.2722
  356MOL0     O49026   5.526   7.373   1.761 -0.1379 -0.7568  0.4505
  356MOL0     C49027   5.425   7.442   1.677 -1.6331 -0.5089  0.1792
  356MOL0     C49028   5.490   7.565   1.615  0.5257 -0.5090 -0.0994
  356MOL0     C49029   5.393   7.623   1.517 -0.0299 -0.2595  0.6552
  356MOL0     C49030   5.449   7.743   1.442 -0.1909  0.3206  0.4437
  356MOL0     C49031   5.574   7.715   1.347  0.2376 -0.4378 -0.6311
  356MOL0     C49032   5.513   7.643   1.223 -0.8503 -0.3417  1.6561
  356MOL0     C49033   5.620   7.634   1.115  0.2794 -0.0225 -0.4733
  356MOL0     C49034   5.593   7.513   1.025 -0.3545  0.8939  0.4574
  356MOL0    Cl49035   5.455   7.537   0.916 -0.3435 -0.0395 -0.0914
  356MOL0     C49036   5.453   7.501   1.970  0.3396  0.1824 -0.7802
  356MOL0     C49037   5.458   7.497   2.115  0.6290 -1.0325 -0.3383
  356MOL0     O49038   5.644   7.586   2.350 -0.6333  0.2231  0.0376
  356MOL0     C49039   5.375   7.450   2.551 -0.5912  0.8820 -0.4597
  356MOL0     C49040   5.300   7.471   2.666 -1.5270 -0.0555 -0.6197
  356MOL0     N49041   4.899   7.139   3.239  0.2181  0.4223 -0.0206
  356MOL0     N49042   4.803   7.048   3.254  0.2965  1.0068 -1.0248
  356MOL0     C49043   4.009   6.700   3.868  0.8498  0.8951 -0.1634
  356MOL0     C49044   3.940   6.604   3.937 -0.6652  0.4265 -0.1393
  356MOL0     C49045   3.735   6.371   4.248  1.1406  0.0660  0.3018
  356MOL0     C49046   3.598   6.368   4.212  0.6674 -0.3996  0.2991
  356MOL0     C49047   3.515   6.268   4.260  0.0877 -0.3014  0.2493
  356MOL0     C49048   3.564   6.176   4.352  0.9335 -0.4278  0.2303
  356MOL0     O49049   3.483   6.084   4.402 -0.6894 -0.4607 -0.3232
  356MOL0     C49050   3.477   5.966   4.325  0.2935 -0.1897 -0.3536
  356MOL0     C49051   3.422   5.991   4.184 -0.0557  0.3847 -0.3854
  356MOL0     C49052   3.390   5.860   4.121  0.2027 -0.0987 -0.7972
  356MOL0     C49053   3.308   5.870   3.991  0.5850  0.3046  0.5441
  356MOL0     C49054   3.249   5.735   3.970 -0.3914  0.4453  0.2346
  356MOL0     C49055   3.214   5.631   3.925  0.1827 -0.4170 -0.0829
  356MOL0     C49056   3.699   6.174   4.382  0.0242  0.0530  0.2483
  356MOL0     C49057   3.787   6.266   4.330 -0.2986 -0.4312 -0.7445
  356MOL0     C49058   3.934   6.270   4.384  0.0351  0.0845  1.3306
  356MOL0     H49059   3.730   6.826   4.113  1.9601  2.4098  0.7440
  356MOL0     H49060   3.857   6.976   3.993 -3.1612 -1.3352  2.6943
  356MOL0     H49061   4.087   6.829   3.643 -0.4714  0.1222  0.8199
  356MOL0     H49062   4.232   6.866   3.748  0.2186 -1.5310  0.1169
  356MOL0     H49063   4.069   7.050   3.587 -0.5646 -2.2475  2.0480
  356MOL0     H49064   4.230   7.082   3.663 -1.7724  2.1779  0.2661
  356MOL0     H49065   4.337   6.914   3.509  0.9937  1.5729 -0.3269
  356MOL0     H49066   4.183   6.877   3.428  1.5679  0.0744 -0.4998
  356MOL0     H49067   4.162   7.133   3.400  0.1869  1.0314 -3.9383
  356MOL0     H49068   4.327   7.142   3.435 -0.1117 -0.0604 -2.1488
  356MOL0     H49069   4.268   7.103   3.189  1.4769  0.6792 -1.3250
  356MOL0     H49070   4.235   6.936   3.223 -1.2183  1.3614  0.8326
  356MOL0     H49071   4.492   7.107   3.283  0.2110  0.6552 -3.0982
  356MOL0     H49072   4.493   6.945   3.319  4.1111  1.3195 -0.1042
  356MOL0     H49073   4.498   7.104   3.066 -1.8526  0.4059  1.8910
  356MOL0     H49074   4.436   6.938   3.042  2.3527 -1.0471  0.8592
  356MOL0     H49075   4.655   6.853   3.151 -1.0696 -0.0905  0.0388
  356MOL0     H49076   4.658   6.919   2.990  0.1177 -1.6424  0.8431
  356MOL0     H49077   4.790   7.113   2.932 -0.6123  1.2448  0.5353
  356MOL0     H49078   5.058   7.221   2.953  2.3195 -0.0167  0.3614
  356MOL0     H49079   5.126   7.253   3.111 -1.7905 -0.1763  0.7693
  356MOL0     H49080   4.885   7.399   3.014  1.0384 -1.6485  1.9710
  356MOL0     H49081   4.989   7.457   3.137 -2.1769 -0.2646 -0.1620
  356MOL0     H49082   5.048   7.481   2.836 -0.8258 -0.4489  0.2546
  356MOL0     H49083   5.042   7.591   2.973  2.4080  0.2572  1.1511
  356MOL0     H49084   5.244   7.516   3.065 -0.1536  2.1144 -1.1520
  356MOL0     H49085   5.260   7.387   2.941  2.4269  1.7827 -0.9287
  356MOL0     H49086   5.477   7.713   2.809 -2.6523  0.0628  0.6622
  356MOL0     H49087   5.628   7.819   2.662 -1.6647  0.8292 -0.3111
  356MOL0     H49088   5.630   7.752   2.499 -1.2744  0.6461  0.5846
  356MOL0     H49089   5.738   7.693   2.645  0.8911  0.2560 -1.4891
  356MOL0     H49090   5.675   7.233   2.148  0.4753 -1.5855 -2.3163
  356MOL0     H49091   5.643   7.225   1.910  1.9128  0.1610  0.1811
  356MOL0     H49092   5.415   7.375   1.591 -1.9678 -3.9890  2.6973
  356MOL0     H49093   5.333   7.474   1.727 -1.4853 -1.7489  1.3068
  356MOL0     H49094   5.513   7.641   1.691  1.0964 -0.3893 -0.3869
  356MOL0     H49095   5.587   7.538   1.574  0.6336 -0.0090 -0.1776
  356MOL0     H49096   5.303   7.656   1.570 -2.1854 -2.1332 -1.5857
  356MOL0     H49097   5.358   7.546   1.447  2.1829 -0.1428 -0.6680
  356MOL0     H49098   5.464   7.828   1.509 -1.4736  1.0582 -0.1566
  356MOL0     H49099   5.370   7.778   1.374 -0.9556  0.8704  1.5716
  356MOL0     H49100   5.621   7.808   1.313  0.4900 -0.7626 -1.1831
  356MOL0     H49101   5.653   7.656   1.394  0.3644 -1.0024 -1.5165
  356MOL0     H49102   5.436   7.700   1.171  2.1886  1.7682 -0.9054
  356MOL0     H49103   5.465   7.547   1.246 -0.0653 -1.9785 -2.6104
  356MOL0     H49104   5.720   7.632   1.159  0.3452  1.9968 -0.4456
  356MOL0     H49105   5.618   7.718   1.044 -2.4017  0.1817 -0.2551
  356MOL0     H49106   5.571   7.418   1.075 -0.0628 -0.9569 -2.6494
  356MOL0     H49107   5.680   7.493   0.962 -1.9313  2.1309 -2.2803
  356MOL0     H49108   5.406   7.584   1.918  1.7905  0.1876 -2.1752
  356MOL0     H49109   5.409   7.574   2.173  0.6738 -3.3725  3.1366
  356MOL0     H49110   5.332   7.378   2.482  1.0633 -0.7291  0.1099
  356MOL0     H49111   5.209   7.413   2.679  0.4812 -3.0776  0.9256
  356MOL0     H49112   4.092   6.657   3.813 -1.1827 -1.8789 -1.3236
  356MOL0     H49113   3.961   6.497   3.935 -1.2877  0.2385  1.6771
  356MOL0     H49114   3.541   6.442   4.155 -0.1791 -1.5327 -0.3649
  356MOL0     H49115   3.411   6.254   4.234  0.1507  2.1658 -1.8577
  356MOL0     H49116   3.574   5.915   4.325 -1.3261 -3.5668  0.0647
  356MOL0     H49117   3.417   5.890   4.377  2.4330 -2.9664 -1.6182
  356MOL0     H49118   3.485   6.052   4.119 -0.7233  0.0095 -1.3952
  356MOL0     H49119   3.330   6.051   4.189  1.5625  3.1211 -1.1064
  356MOL0     H49120   3.481   5.811   4.086  0.2011  1.9921 -4.2030
  356MOL0     H49121   3.334   5.816   4.204 -2.1606 -0.7199 -2.5904
  356MOL0     H49122   3.379   5.888   3.909 -0.8977  3.2610 -0.2285
  356MOL0     H49123   3.245   5.959   3.987  0.9224  0.5196 -0.2584
  356MOL0     H49124   3.193   5.538   3.877  0.4530 -1.3914  1.6341
  356MOL0     H49125   3.738   6.101   4.453  1.2122 -1.9076 -2.2445
  356MOL0     H49126   3.961   6.211   4.472  1.3209 -0.4322  0.6102
  356MOL0     H49127   4.003   6.244   4.304 -0.0612 -0.7691  1.5086
  356MOL0     H49128   3.956   6.371   4.419 -1.7311  2.5834 -3.8661
  357MOL0     O49129   1.581   4.535   2.534 -0.1243 -1.0072 -0.4126
  357MOL0     C49130   1.671   4.593   2.595 -0.2373  0.1682 -0.5156
  357MOL0     O49131   1.703   4.721   2.572  0.6197 -0.3720 -0.4940
  357MOL0     C49132   1.612   4.816   2.530  0.6000  0.6513  1.1058
  357MOL0     C49133   1.634   4.895   2.424  0.8873  0.2679  1.3367
  357MOL0     C49134   1.547   5.010   2.393 -0.1000 -0.1765 -0.3173
  357MOL0     C49135   1.447   5.041   2.480  0.5030  0.7442 -1.5858
  357MOL0     O49136   1.362   5.151   2.458 -0.6388 -0.9066 -1.3257
  357MOL0     C49137   1.375   5.255   2.558  0.7035 -0.1759 -0.3366
  357MOL0     C49138   1.332   5.380   2.497  0.1746  0.4917  0.3164
  357MOL0     C49139   1.180   5.372   2.451  0.5603  0.0944 -0.0796
  357MOL0     C49140   1.079   5.381   2.562 -0.4966 -0.0528  1.2558
  357MOL0     C49141   0.942   5.327   2.526 -0.5344 -0.2421  0.1153
  357MOL0     C49142   0.833   5.402   2.605 -0.0788  0.1737  1.2341
  357MOL0     C49143   0.803   5.538   2.533 -0.0832  0.6652  0.4220
  357MOL0     C49144   0.733   5.623   2.637 -0.3789  0.1852  0.2466
  357MOL0     N49145   0.838   5.701   2.723 -0.6667 -0.1211 -0.0679
  357MOL0     C49146   0.866   5.838   2.718  0.3835 -0.2790  0.2198
  357MOL0     C49147   0.946   5.851   2.821  0.4542  0.8876 -1.1176
  357MOL0     C49148   1.006   5.969   2.873 -0.2567 -0.9783  0.2147
  357MOL0     C49149   0.908   6.062   2.946 -0.7637  0.3623 -0.0918
  357MOL0     C49150   0.943   6.204   2.941  0.0554 -0.1285  0.2503
  357MOL0     C49151   0.930   6.260   2.795  0.9397 -0.7435 -0.3601
  357MOL0     O49152   0.813   6.218   2.718 -0.0396  0.4575 -0.3239
  357MOL0     C49153   0.688   6.273   2.724  1.1531 -0.1657 -0.4737
  357MOL0     C49154   0.608   6.232   2.614  0.1821  0.8658 -0.2106
  357MOL0     C49155   0.484   6.289   2.592  1.0983  0.0430 -0.1706
  357MOL0     C49156   0.407   6.279   2.462  0.6776 -0.0473 -0.2716
  357MOL0     C49157   0.434   6.377   2.694  0.2308 -0.0604 -0.7051
  357MOL0     C49158   0.292   6.447   2.690 -0.9832 -0.4121  0.1502
  357MOL0     O49159   0.249   6.490   2.566  0.0107 -0.9435  0.4546
  357MOL0     C49160   0.114   6.503   2.538  0.6291  0.3694 -0.6606
  357MOL0     C49161   0.026   6.614   2.572 -0.0771  0.1015  0.4498
  357MOL0     C49162  -0.108   6.619   2.537 -1.3535  0.4214 -0.0501
  357MOL0     C49163  -0.173   6.514   2.470 -0.5860  0.4909  0.2771
  357MOL0     O49164  -0.303   6.533   2.443 -0.5315 -0.3575  0.0685
  357MOL0     C49165  -0.355   6.450   2.343  0.1258  0.4101 -0.0925
  357MOL0     C49166  -0.485   6.517   2.294 -1.0074 -0.1514 -0.1642
  357MOL0     C49167  -0.566   6.413   2.215 -0.6583 -0.6917 -0.8040
  357MOL0     C49168  -0.704   6.472   2.175  0.5681  0.6735 -0.0502
  357MOL0     C49169  -0.786   6.354   2.115 -0.2158 -0.2008  0.2840
  357MOL0     C49170  -0.929   6.376   2.143  0.4756 -0.4973 -0.0523
  357MOL0     C49171  -0.977   6.508   2.081 -0.2979  0.8041  1.1689
  357MOL0     C49172  -1.116   6.487   2.033  0.3305  0.3083 -0.4262
  357MOL0    Cl49173  -1.172   6.640   1.962  0.4582  0.0024  0.0765
  357MOL0     C49174  -0.086   6.397   2.439 -1.0886  0.0325 -0.0115
  357MOL0     C49175   0.050   6.405   2.469 -0.0161 -0.4423 -0.5731
  357MOL0     O49176   0.235   6.469   2.795 -0.3070  0.8783  1.0830
  357MOL0     C49177   0.518   6.422   2.803 -0.3250 -0.0350 -0.2384
  357MOL0     C49178   0.644   6.366   2.824  0.7761 -0.0951 -0.5182
  357MOL0     N49179   0.976   5.735   2.878  0.1059  0.1032  0.4377
  357MOL0     N49180   0.905   5.642   2.825  0.7328  0.8003 -0.0980
  357MOL0     C49181   1.426   4.958   2.592  0.1898 -0.9767 -0.5386
  357MOL0     C49182   1.507   4.850   2.613 -0.3662  1.1139 -0.2135
  357MOL0     C49183   1.757   4.505   2.679  0.4680  0.7009  0.0029
  357MOL0     C49184   1.875   4.575   2.733  0.6097 -0.2064 -0.9230
  357MOL0     C49185   1.957   4.497   2.818 -0.6043  0.8243 -0.1806
  357MOL0     C49186   1.917   4.371   2.864  0.1241  0.5753 -0.4906
  357MOL0     O49187   1.992   4.304   2.953 -0.2348  0.1458 -1.3793
  357MOL0     C49188   2.043   4.374   3.069  0.1890  0.3254 -0.5549
  357MOL0     C49189   2.094   4.274   3.176  0.2096 -0.3264 -0.1857
  357MOL0     C49190   2.111   4.341   3.305  0.3375 -0.1529  0.4737
  357MOL0     C49191   2.240   4.425   3.318  0.0052 -0.4636  0.1053
  357MOL0     C49192   2.247   4.506   3.438 -0.5616 -0.3400 -0.1492
  357MOL0     C49193   2.272   4.569   3.543  0.5469  0.3919 -0.4408
  357MOL0     C49194   1.802   4.310   2.813  0.2811 -0.2882 -0.0554
  357MOL0     C49195   1.719   4.374   2.721 -0.3119 -0.0065 -0.1153
  357MOL0     C49196   1.618   4.298   2.659  0.4048  0.3285 -0.4974
  357MOL0     H49197   1.723   4.868   2.369  3.0219  2.8542  3.2195
  357MOL0     H49198   1.557   5.076   2.307 -2.6665 -1.7326 -1.9509
  357MOL0     H49199   1.482   5.270   2.579  0.2656 -0.0186  2.1797
  357MOL0     H49200   1.311   5.241   2.646 -2.8199  0.9393 -2.5120
  357MOL0     H49201   1.339   5.466   2.565 -3.8931  2.1552 -1.0260
  357MOL0     H49202   1.397   5.406   2.413  0.9256  0.8622  1.0038
  357MOL0     H49203   1.153   5.456   2.387 -0.2683  0.5196  0.7949
  357MOL0     H49204   1.165   5.277   2.399  1.7144  0.2936 -0.8041
  357MOL0     H49205   1.103   5.320   2.650  1.3283 -0.3686  0.5970
  357MOL0     H49206   1.079   5.485   2.594  1.6739  1.1300 -2.1248
  357MOL0     H49207   0.941   5.222   2.554  1.2313 -0.3553 -0.1081
  357MOL0     H49208   0.930   5.341   2.418 -1.0978 -1.4496  0.0109
  357MOL0     H49209   0.738   5.347   2.599  0.4491 -0.6182 -0.4295
  357MOL0     H49210   0.862   5.405   2.710 -1.6107  3.0594  1.6965
  357MOL0     H49211   0.735   5.516   2.450  0.8001 -0.5403  0.0001
  357MOL0     H49212   0.891   5.585   2.489 -0.1394 -0.2762 -0.7223
  357MOL0     H49213   0.673   5.697   2.582  3.1868  1.7170 -2.0041
  357MOL0     H49214   0.668   5.564   2.702 -2.2073  0.1157 -1.5194
  357MOL0     H49215   0.822   5.916   2.656 -0.7000 -0.2302  1.0198
  357MOL0     H49216   1.046   6.027   2.789 -3.4723  0.7728 -0.2483
  357MOL0     H49217   1.096   5.941   2.928  1.6193  2.1248 -0.9869
  357MOL0     H49218   0.806   6.060   2.905 -0.8970  0.6402  0.2220
  357MOL0     H49219   0.900   6.037   3.052  0.3697  1.9513  0.4055
  357MOL0     H49220   0.880   6.263   3.007  0.0630  0.6289 -0.4040
  357MOL0     H49221   1.045   6.220   2.977  0.4183  2.8290 -1.7197
  357MOL0     H49222   0.927   6.369   2.806 -1.9443 -0.8020  0.3573
  357MOL0     H49223   1.028   6.245   2.749  1.4845 -1.8251  1.0769
  357MOL0     H49224   0.630   6.154   2.541 -3.2674 -0.3201 -0.1645
  357MOL0     H49225   0.473   6.216   2.402  1.0824 -1.6702  1.7557
  357MOL0     H49226   0.393   6.376   2.413  2.5314  0.7286  0.6163
  357MOL0     H49227   0.313   6.224   2.470  0.4558  0.4556  0.7527
  357MOL0     H49228   0.076   6.698   2.621  1.0070 -0.6470  0.6650
  357MOL0     H49229  -0.176   6.700   2.560 -2.3592  0.1870 -1.9742
  357MOL0     H49230  -0.277   6.449   2.267 -1.9104  1.0158 -2.3024
  357MOL0     H49231  -0.380   6.357   2.395 -3.7111  0.9739 -0.6349
  357MOL0     H49232  -0.547   6.547   2.379 -0.4065  2.7589 -0.6479
  357MOL0     H49233  -0.456   6.599   2.228  1.8380 -1.5049 -0.7475
  357MOL0     H49234  -0.578   6.321   2.273 -1.3900  0.5073  1.0441
  357MOL0     H49235  -0.511   6.379   2.127 -1.2914 -1.5545 -0.8784
  357MOL0     H49236  -0.697   6.553   2.102 -0.7223  2.6596  1.8890
  357MOL0     H49237  -0.748   6.510   2.268 -0.2945  2.4348 -1.1326
  357MOL0     H49238  -0.774   6.352   2.006  2.6018 -0.5693  0.5314
  357MOL0     H49239  -0.748   6.257   2.148 -1.1219 -0.5761  0.2451
  357MOL0     H49240  -0.954   6.371   2.250 -1.9406  0.9168 -0.4783
  357MOL0     H49241  -0.984   6.290   2.104 -1.0124 -0.1269  1.0993
  357MOL0     H49242  -0.912   6.525   1.995 -3.4718  0.5093 -1.4801
  357MOL0     H49243  -0.972   6.591   2.152 -0.1624  3.5895 -1.8977
  357MOL0     H49244  -1.196   6.456   2.101  1.5136  0.2034  0.9628
  357MOL0     H49245  -1.108   6.411   1.954 -0.8379 -0.4956  0.2040
  357MOL0     H49246  -0.130   6.315   2.383 -3.6614  1.8601 -0.8514
  357MOL0     H49247   0.121   6.331   2.432  4.6756  3.0696  0.5131
  357MOL0     H49248   0.492   6.511   2.858  2.5369  1.0673 -0.4978
  357MOL0     H49249   0.711   6.426   2.884  0.4509  0.1221 -0.3729
  357MOL0     H49250   1.339   4.978   2.654 -0.5595  4.1056 -2.7002
  357MOL0     H49251   1.497   4.781   2.696 -2.4913 -2.9900 -3.4691
  357MOL0     H49252   1.893   4.681   2.721 -2.3957  0.3541 -1.2759
  357MOL0     H49253   2.051   4.532   2.860  0.4099 -0.2494 -1.4476
  357MOL0     H49254   2.118   4.442   3.027  2.1086 -1.6697 -0.5403
  357MOL0     H49255   1.964   4.431   3.118  0.1992 -0.9155  0.9615
  357MOL0     H49256   2.176   4.211   3.140 -1.6392 -3.5854  0.9259
  357MOL0     H49257   2.019   4.199   3.200  0.2690 -0.8261 -1.4797
  357MOL0     H49258   2.026   4.408   3.320 -0.3549 -0.5447 -1.4827
  357MOL0     H49259   2.105   4.267   3.385 -0.2123 -0.4945  0.1242
  357MOL0     H49260   2.248   4.508   3.247 -0.5242 -1.8614 -1.6640
  357MOL0     H49261   2.326   4.358   3.331 -0.3444 -1.1615 -1.0435
  357MOL0     H49262   2.307   4.604   3.637  4.7238 -5.0639  0.5495
  357MOL0     H49263   1.776   4.208   2.838  0.6197 -1.5734 -4.1603
  357MOL0     H49264   1.522   4.350   2.658 -0.5270 -1.2909  0.7726
  357MOL0     H49265   1.642   4.275   2.555 -0.1699  0.2481 -0.6155
  357MOL0     H49266   1.596   4.207   2.716  3.8164 -1.2267 -1.4113
  358MOL0     O49267   4.819   5.469   4.923  0.2054 -0.1185 -0.3226
  358MOL0     C49268   4.829   5.366   4.867 -0.2024  0.5265  0.1736
  358MOL0     O49269   4.757   5.328   4.754 -0.1241 -0.1156  0.7117
  358MOL0     C49270   4.637   5.388   4.734 -0.4250 -0.6370  0.4601
  358MOL0     C49271   4.595   5.391   4.603 -0.1797  0.4971  0.2031
  358MOL0     C49272   4.466   5.424   4.559  0.3365 -0.0885  0.2597
  358MOL0     C49273   4.377   5.457   4.658  0.3456 -0.3563 -0.5894
  358MOL0     O49274   4.238   5.460   4.651  0.8998 -0.1037  0.2235
  358MOL0     C49275   4.175   5.356   4.569 -0.7387 -0.0857  0.2017
  358MOL0     C49276   4.208   5.215   4.619  0.1734 -0.4585 -0.5853
  358MOL0     C49277   4.151   5.109   4.533  0.0379 -0.9110 -0.5198
  358MOL0     C49278   4.230   5.084   4.407  0.0941  0.2545  0.7317
  358MOL0     C49279   4.169   4.989   4.297  0.1509  0.1307  0.2806
  358MOL0     C49280   4.112   4.855   4.358  0.2861  0.8629  0.9913
  358MOL0     C49281   4.059   4.760   4.244 -0.2584  0.7637  0.0308
  358MOL0     C49282   3.940   4.826   4.181 -1.0503 -0.3727  0.4735
  358MOL0     N49283   3.832   4.859   4.273  0.6464  0.2271 -0.6763
  358MOL0     C49284   3.729   4.773   4.316 -0.6862 -0.0785  0.1858
  358MOL0     C49285   3.638   4.847   4.378 -1.1285  0.7648 -0.3477
  358MOL0     C49286   3.526   4.794   4.463 -0.2857  0.6112  0.0505
  358MOL0     C49287   3.396   4.834   4.398 -0.7431 -0.2265 -1.1589
  358MOL0     C49288   3.372   4.979   4.407 -0.2484 -0.1212  0.3152
  358MOL0     C49289   3.353   5.040   4.543  0.0374  0.6199 -0.2145
  358MOL0     O49290   3.315   5.181   4.518  0.2127 -0.2422  0.2049
  358MOL0     C49291   3.398   5.286   4.545 -1.0816 -0.0656 -0.0162
  358MOL0     C49292   3.538   5.268   4.579 -0.3355 -0.6244  0.3314
  358MOL0     C49293   3.620   5.375   4.609  0.0629 -0.5379  0.2021
  358MOL0     C49294   3.767   5.356   4.624 -0.4494  0.0463  0.2572
  358MOL0     C49295   3.558   5.505   4.617  0.6652 -0.0431  0.0111
  358MOL0     C49296   3.637   5.630   4.642  0.9546 -0.2359 -1.1474
  358MOL0     O49297   3.705   5.636   4.757 -0.2640 -0.0026 -0.0394
  358MOL0     C49298   3.794   5.736   4.768 -0.1837 -0.4186 -0.2606
  358MOL0     C49299   3.929   5.703   4.756 -1.5885  0.1703  0.6950
  358MOL0     C49300   4.029   5.796   4.773  1.1394  0.3597 -0.2626
  358MOL0     C49301   3.990   5.924   4.806 -0.1971 -0.6926 -0.1126
  358MOL0     O49302   4.104   6.007   4.819 -0.2949  0.2876 -0.3998
  358MOL0     C49303   4.081   6.150   4.839 -0.4044  0.3106 -0.1602
  358MOL0     C49304   4.208   6.236   4.835  0.2455  0.0483 -0.2038
  358MOL0     C49305   4.305   6.200   4.943  0.4731  0.0760  0.3038
  358MOL0     C49306   4.422   6.287   4.971  0.5480 -0.3290  0.0433
  358MOL0     C49307   4.468   6.267   5.115 -0.7344  0.1780 -0.0574
  358MOL0     C49308   4.583   6.359   5.165  0.4389  0.0168 -0.4671
  358MOL0     C49309   4.721   6.349   5.091  0.4905  0.4993 -0.6586
  358MOL0     C49310   4.828   6.455   5.125 -0.0779 -0.1746  0.5670
  358MOL0    Cl49311   4.805   6.581   5.005  0.3767  0.3447  0.2582
  358MOL0     C49312   3.855   5.962   4.811  0.0740 -0.4275 -0.0626
  358MOL0     C49313   3.752   5.868   4.789 -0.6257 -0.0648 -0.5911
  358MOL0     O49314   3.628   5.727   4.561  0.1577  0.5243  0.0391
  358MOL0     C49315   3.414   5.522   4.599 -0.2833 -0.1413 -0.8179
  358MOL0     C49316   3.339   5.413   4.569 -0.0943 -0.1425  0.1782
  358MOL0     N49317   3.684   4.979   4.384  0.3610 -0.0315 -0.6253
  358MOL0     N49318   3.796   4.981   4.329 -0.4911 -1.4252  0.2268
  358MOL0     C49319   4.423   5.481   4.792  0.6853 -0.2190 -0.3008
  358MOL0     C49320   4.555   5.442   4.831  0.0535 -0.5332 -0.2700
  358MOL0     C49321   4.955   5.289   4.910 -0.8149 -0.0978  0.6776
  358MOL0     C49322   5.082   5.343   4.883 -0.6255  0.9654  0.6229
  358MOL0     C49323   5.196   5.274   4.927  0.2029  0.5127 -0.2938
  358MOL0     C49324   5.186   5.148   4.988  0.0926 -0.2069 -0.5365
  358MOL0     O49325   5.300   5.083   5.026 -0.1420 -0.5710  0.1534
  358MOL0     C49326   5.299   4.957   5.092 -0.0818 -0.2826 -0.0536
  358MOL0     C49327   5.250   4.840   5.010 -0.3784  0.0462  0.6877
  358MOL0     C49328   5.312   4.701   5.052  0.4175 -0.1452 -0.2752
  358MOL0     C49329   5.213   4.587   5.004 -0.2389 -1.3708 -0.3387
  358MOL0     C49330   5.089   4.600   5.072 -1.1097  0.4202  0.4922
  358MOL0     C49331   4.985   4.633   5.121 -1.2584  0.5125 -0.0769
  358MOL0     C49332   5.058   5.094   5.018  0.6409 -0.1768 -0.6823
  358MOL0     C49333   4.939   5.172   4.984 -0.0929  0.7953  0.3566
  358MOL0     C49334   4.803   5.120   5.026 -0.1060  0.9750  0.0796
  358MOL0     H49335   4.651   5.343   4.524 -0.2863 -2.6072  1.8803
  358MOL0     H49336   4.439   5.397   4.458 -1.4139  1.2114  0.3587
  358MOL0     H49337   4.202   5.380   4.466  0.6967  1.8085  0.9498
  358MOL0     H49338   4.066   5.365   4.575 -1.0353  0.5961 -3.6826
  358MOL0     H49339   4.316   5.204   4.608  0.6567  2.2796  0.5084
  358MOL0     H49340   4.179   5.212   4.725  3.0093  0.3849  0.3086
  358MOL0     H49341   4.142   5.015   4.588 -2.2907 -2.0436 -2.6449
  358MOL0     H49342   4.049   5.130   4.501 -0.9055 -1.4733  1.8859
  358MOL0     H49343   4.252   5.180   4.360 -0.2757  0.4647  0.9853
  358MOL0     H49344   4.326   5.040   4.435 -0.9250 -2.2416  0.5712
  358MOL0     H49345   4.237   4.963   4.215  0.9941 -1.5488  1.4542
  358MOL0     H49346   4.085   5.040   4.250 -1.2443 -0.6035  1.8624
  358MOL0     H49347   4.188   4.802   4.417  0.3473 -1.1186 -0.7375
  358MOL0     H49348   4.032   4.870   4.432 -1.8757  1.7114 -1.3878
  358MOL0     H49349   4.037   4.661   4.284  0.3745  1.8452  3.3133
  358MOL0     H49350   4.130   4.725   4.168  0.3264 -0.8991  1.2938
  358MOL0     H49351   3.971   4.915   4.126  0.4985  0.0335  1.9271
  358MOL0     H49352   3.890   4.761   4.108 -2.1560 -0.1840  1.0346
  358MOL0     H49353   3.729   4.665   4.300 -1.6374 -0.0905  0.2191
  358MOL0     H49354   3.533   4.833   4.565  0.7130  1.6711 -0.4018
  358MOL0     H49355   3.524   4.685   4.460 -1.3162  0.6437 -1.6133
  358MOL0     H49356   3.412   4.799   4.295  0.3415 -1.6294 -0.5480
  358MOL0     H49357   3.311   4.778   4.436  1.1267 -1.8335  0.9306
  358MOL0     H49358   3.437   5.038   4.341  1.8477 -2.9856 -0.3851
  358MOL0     H49359   3.271   4.995   4.368 -0.4497  0.3282  0.9991
  358MOL0     H49360   3.271   4.987   4.593  0.9396 -0.8945 -0.2908
  358MOL0     H49361   3.448   5.018   4.593  0.7655  1.0434 -1.3674
  358MOL0     H49362   3.586   5.172   4.574 -1.8229 -1.3370 -3.2827
  358MOL0     H49363   3.793   5.256   4.586 -2.3630 -0.0525 -0.9487
  358MOL0     H49364   3.802   5.362   4.727  4.0418 -0.1918 -1.0527
  358MOL0     H49365   3.816   5.435   4.567 -0.9886  0.1315 -0.0960
  358MOL0     H49366   3.957   5.603   4.725  1.1271  0.1379  2.8433
  358MOL0     H49367   4.125   5.763   4.735 -0.6561 -4.0028 -1.6545
  358MOL0     H49368   4.030   6.190   4.751  1.4585 -1.4187 -2.1157
  358MOL0     H49369   4.031   6.170   4.934  2.4749  4.2263  0.8145
  358MOL0     H49370   4.259   6.211   4.742  1.0389 -3.1792  0.9430
  358MOL0     H49371   4.184   6.342   4.842 -5.2155 -0.7041 -2.4048
  358MOL0     H49372   4.330   6.096   4.922 -1.0126 -0.2426  0.0064
  358MOL0     H49373   4.247   6.193   5.036 -1.6057 -0.1018 -0.9481
  358MOL0     H49374   4.387   6.391   4.967 -3.8832 -1.6757 -1.2761
  358MOL0     H49375   4.490   6.266   4.889 -0.5529 -2.2861 -0.4171
  358MOL0     H49376   4.381   6.284   5.178 -0.8610 -3.8722  1.1735
  358MOL0     H49377   4.490   6.161   5.133 -3.5152 -0.4291  0.2352
  358MOL0     H49378   4.603   6.347   5.272  1.7209 -3.8560 -1.0012
  358MOL0     H49379   4.539   6.458   5.148 -3.5915 -0.8188  3.3269
  358MOL0     H49380   4.700   6.347   4.984 -1.1625 -0.3298 -0.3659
  358MOL0     H49381   4.761   6.254   5.129 -2.0132 -0.1166  0.7312
  358MOL0     H49382   4.927   6.409   5.117  1.2628  2.1738  2.4437
  358MOL0     H49383   4.825   6.496   5.226 -1.5778  0.1235  0.4180
  358MOL0     H49384   3.823   6.062   4.840  1.6879  0.3279 -0.7008
  358MOL0     H49385   3.649   5.902   4.792 -0.3234  1.2239 -2.5056
  358MOL0     H49386   3.357   5.613   4.615 -3.2227 -2.1638  1.4125
  358MOL0     H49387   3.236   5.436   4.545  0.4562  1.9367 -0.4027
  358MOL0     H49388   4.350   5.501   4.870 -1.0864 -1.0088 -1.6923
  358MOL0     H49389   4.582   5.439   4.936  1.3969  1.2612 -0.5234
  358MOL0     H49390   5.095   5.435   4.826 -1.6212  0.6735 -0.1064
  358MOL0     H49391   5.289   5.330   4.920 -0.6344  2.0333  0.4734
  358MOL0     H49392   5.401   4.936   5.127  0.8155 -0.3704 -2.5488
  358MOL0     H49393   5.225   4.966   5.172  0.5692 -0.3972  0.5654
  358MOL0     H49394   5.290   4.857   4.910  0.9045  1.2590  1.3761
  358MOL0     H49395   5.141   4.843   5.006 -0.5563 -3.3709  0.0402
  358MOL0     H49396   5.409   4.671   5.010 -0.6481 -1.7808 -1.7315
  358MOL0     H49397   5.321   4.695   5.161 -0.7239  1.3758 -0.0717
  358MOL0     H49398   5.252   4.487   5.027 -1.0791 -1.8438 -0.9322
  358MOL0     H49399   5.199   4.581   4.896  0.1892 -2.9320 -0.3354
  358MOL0     H49400   4.896   4.660   5.174 -1.1528  0.0826  0.3270
  358MOL0     H49401   5.033   5.003   5.070 -1.3121  1.1078  0.7929
  358MOL0     H49402   4.791   5.053   5.111  0.6878 -2.4730 -2.2788
  358MOL0     H49403   4.745   5.206   5.062 -0.4157 -0.2653  2.7437
  358MOL0     H49404   4.762   5.069   4.938  0.5685 -0.4340  0.5657
  359MOL0     O49405   8.412   2.621   7.689  0.2920 -0.0034  0.2895
  359MOL0     C49406   8.333   2.706   7.650  0.4557 -0.1608  0.0344
  359MOL0     O49407   8.298   2.819   7.706  0.2717  0.2711 -0.4801
  359MOL0     C49408   8.314   2.809   7.845 -0.1221  0.2196 -0.0850
  359MOL0     C49409   8.359   2.921   7.920  0.9897  0.9285  0.1651
  359MOL0     C49410   8.376   2.919   8.062 -0.0026  0.3336 -0.4505
  359MOL0     C49411   8.370   2.797   8.134 -0.4188 -1.3569 -0.6187
  359MOL0     O49412   8.395   2.789   8.269  0.5732  0.4629 -0.2917
  359MOL0     C49413   8.448   2.892   8.352 -0.5466 -0.1742  0.5943
  359MOL0     C49414   8.438   2.877   8.508  0.3827  0.0337 -0.3165
  359MOL0     C49415   8.566   2.919   8.580  0.0233 -0.1572 -0.0731
  359MOL0     C49416   8.545   2.961   8.730 -0.0688  0.2143  0.0634
  359MOL0     C49417   8.679   3.008   8.800  0.3715 -0.2118 -1.2879
  359MOL0     C49418   8.659   3.081   8.933  0.4926  0.4348  0.3132
  359MOL0     C49419   8.616   2.978   9.045  0.0932  0.3923 -0.6332
  359MOL0     C49420   8.637   3.040   9.182  0.0125 -0.2382  0.5589
  359MOL0     N49421   8.590   3.169   9.194  0.1654 -0.1458 -0.7420
  359MOL0     C49422   8.462   3.205   9.175 -0.1285  0.1216 -0.9698
  359MOL0     C49423   8.453   3.340   9.179  0.9830  0.7545 -0.1768
  359MOL0     C49424   8.334   3.425   9.156 -1.2356  0.0258 -0.1677
  359MOL0     C49425   8.238   3.462   9.274 -0.4130  0.1560  0.2942
  359MOL0     C49426   8.183   3.605   9.256 -0.6912 -0.0419 -0.2016
  359MOL0     C49427   8.154   3.667   9.120 -0.0997  0.1938  0.4182
  359MOL0     O49428   8.049   3.588   9.063 -0.2846 -0.1815  0.0224
  359MOL0     C49429   7.992   3.625   8.947 -0.6289 -0.0359 -0.2150
  359MOL0     C49430   7.910   3.539   8.887 -0.1963  1.3552 -0.5152
  359MOL0     C49431   7.840   3.573   8.773 -0.1947 -0.4194  1.2141
  359MOL0     C49432   7.752   3.465   8.723 -0.7577 -0.7115  0.4696
  359MOL0     C49433   7.859   3.697   8.702  0.1886  0.4944 -0.0735
  359MOL0     C49434   7.779   3.746   8.591  0.7830 -1.4982 -0.3614
  359MOL0     O49435   7.801   3.875   8.554 -0.5298  0.8812 -0.6011
  359MOL0     C49436   7.724   3.914   8.448 -0.8283 -0.5831 -0.1814
  359MOL0     C49437   7.724   3.853   8.318 -0.0510 -0.1723  0.2924
  359MOL0     C49438   7.670   3.915   8.207  0.6521 -0.7156  1.1416
  359MOL0     C49439   7.621   4.046   8.208  0.1089  0.3369  0.0331
  359MOL0     O49440   7.602   4.112   8.087 -0.2377  0.1513 -0.1709
  359MOL0     C49441   7.673   4.240   8.083  0.0601  0.5327  0.3092
  359MOL0     C49442   7.696   4.294   7.941 -0.5203 -0.3163  0.4136
  359MOL0     C49443   7.778   4.426   7.928 -0.7449  0.0513  0.1446
  359MOL0     C49444   7.932   4.422   7.974 -1.4967  0.8340  0.2639
  359MOL0     C49445   8.000   4.558   7.980  0.1583  1.4239  0.7543
  359MOL0     C49446   8.134   4.553   8.047 -0.3370 -0.8942 -0.0288
  359MOL0     C49447   8.243   4.464   7.975 -0.8769 -0.1757 -0.1518
  359MOL0     C49448   8.267   4.327   8.036 -0.6954  0.0131  0.3689
  359MOL0    Cl49449   8.341   4.353   8.192 -0.2168 -0.2180 -0.0303
  359MOL0     C49450   7.606   4.108   8.336 -0.5754  0.6999 -0.7332
  359MOL0     C49451   7.657   4.039   8.456  0.9998 -0.1866  0.0775
  359MOL0     O49452   7.700   3.672   8.535  0.5353 -0.4358 -0.0180
  359MOL0     C49453   7.951   3.790   8.764  1.1670 -0.3806  0.5419
  359MOL0     C49454   8.008   3.755   8.884 -0.3725  0.5910 -0.6442
  359MOL0     N49455   8.583   3.374   9.209  0.9546 -0.8047 -0.0142
  359MOL0     N49456   8.666   3.277   9.220  1.4356 -0.2845  0.0340
  359MOL0     C49457   8.325   2.686   8.069  0.8836  0.0137  0.6226
  359MOL0     C49458   8.302   2.691   7.932 -0.6430  0.0167  0.6520
  359MOL0     C49459   8.285   2.687   7.520 -0.3393  0.0715  0.8988
  359MOL0     C49460   8.318   2.789   7.429  0.1226 -0.1079  0.4910
  359MOL0     C49461   8.271   2.782   7.297  0.8202  0.0844 -0.4745
  359MOL0     C49462   8.191   2.668   7.256 -0.0560  1.3514 -0.6709
  359MOL0     O49463   8.153   2.665   7.138  0.0010 -1.5665  0.9333
  359MOL0     C49464   8.014   2.705   7.123  0.5833 -0.5293 -0.4090
  359MOL0     C49465   7.983   2.728   6.985  0.8716 -0.0482 -0.2161
  359MOL0     C49466   8.081   2.823   6.909 -0.7270  0.0251 -0.5654
  359MOL0     C49467   8.121   2.958   6.975 -1.1882 -0.1250  0.2734
  359MOL0     C49468   8.120   3.056   6.880 -0.6723 -0.7121 -0.1938
  359MOL0     C49469   8.105   3.133   6.789  0.2279  0.2471  0.4852
  359MOL0     C49470   8.162   2.564   7.349 -0.5436  0.2779  0.4513
  359MOL0     C49471   8.208   2.573   7.482 -0.7054  0.2884 -0.4084
  359MOL0     C49472   8.176   2.461   7.570 -1.1402 -0.1487 -0.2022
  359MOL0     H49473   8.384   3.016   7.873 -2.4052  1.1711 -1.4623
  359MOL0     H49474   8.403   3.012   8.111 -1.1048 -0.5092  1.9080
  359MOL0     H49475   8.392   2.984   8.333 -2.1849 -1.6303 -2.2745
  359MOL0     H49476   8.549   2.922   8.322  0.9733 -3.8635  1.4731
  359MOL0     H49477   8.348   2.933   8.534 -1.8460 -2.1553 -2.7323
  359MOL0     H49478   8.426   2.772   8.535  4.4979 -0.0046  2.1729
  359MOL0     H49479   8.641   2.839   8.577  0.7902  0.4519  1.5025
  359MOL0     H49480   8.612   3.007   8.533 -0.3653  0.3950  0.5569
  359MOL0     H49481   8.466   3.036   8.733  0.2561  0.5626 -0.1003
  359MOL0     H49482   8.516   2.871   8.785 -2.5167  1.2711  0.5969
  359MOL0     H49483   8.728   3.071   8.725  1.1846 -1.7058 -2.0376
  359MOL0     H49484   8.748   2.926   8.821 -1.3865 -2.0470 -2.3137
  359MOL0     H49485   8.756   3.123   8.963  0.2303  1.5082 -0.3013
  359MOL0     H49486   8.588   3.164   8.923  1.0462  0.8198 -0.6244
  359MOL0     H49487   8.678   2.888   9.040 -2.9761 -2.0954  1.6487
  359MOL0     H49488   8.508   2.965   9.030 -0.2671  1.1249  1.0686
  359MOL0     H49489   8.605   2.972   9.262  0.4799 -0.5404  0.4988
  359MOL0     H49490   8.745   3.045   9.195  0.9475 -4.2500 -3.0670
  359MOL0     H49491   8.372   3.145   9.165 -0.4699  0.7302 -1.5759
  359MOL0     H49492   8.276   3.366   9.084  1.3000 -2.6717 -0.2055
  359MOL0     H49493   8.367   3.521   9.116 -0.7932  1.3365  3.0863
  359MOL0     H49494   8.163   3.382   9.279 -2.1380  1.5787 -1.1974
  359MOL0     H49495   8.298   3.454   9.366  2.7814  0.1510 -1.6261
  359MOL0     H49496   8.094   3.603   9.319 -0.6298  1.0287 -0.0733
  359MOL0     H49497   8.259   3.669   9.302  0.3137 -1.2320 -0.1142
  359MOL0     H49498   8.113   3.765   9.145  1.6071  1.1710 -0.3735
  359MOL0     H49499   8.244   3.667   9.057 -1.1392 -3.2269 -1.2974
  359MOL0     H49500   7.886   3.449   8.943  0.1095  1.5036 -0.1386
  359MOL0     H49501   7.650   3.497   8.743 -0.2221  2.9550 -1.6771
  359MOL0     H49502   7.782   3.375   8.777  3.0298  0.6607  1.0139
  359MOL0     H49503   7.762   3.429   8.620 -1.8071 -0.0859  0.1287
  359MOL0     H49504   7.773   3.758   8.298  2.5261  1.0148  0.5321
  359MOL0     H49505   7.671   3.878   8.105 -0.0249 -3.6653  2.0946
  359MOL0     H49506   7.629   4.325   8.135  0.7200  2.7574 -2.5169
  359MOL0     H49507   7.775   4.218   8.115  0.1726 -1.2847 -1.1186
  359MOL0     H49508   7.761   4.222   7.890  0.7042 -0.2896  1.8577
  359MOL0     H49509   7.601   4.302   7.887 -1.2802 -1.8351  1.4420
  359MOL0     H49510   7.733   4.509   7.983  0.9874 -0.2931  2.2325
  359MOL0     H49511   7.776   4.460   7.824  5.4446 -0.4632 -0.5262
  359MOL0     H49512   7.980   4.342   7.917 -0.3086  0.0741  2.2251
  359MOL0     H49513   7.938   4.381   8.075 -0.0395  2.5719  0.9328
  359MOL0     H49514   8.003   4.595   7.877 -1.5280 -1.7706 -0.5763
  359MOL0     H49515   7.927   4.626   8.026 -0.3997  1.9888 -0.9051
  359MOL0     H49516   8.119   4.510   8.147  0.1705  1.0934  0.9580
  359MOL0     H49517   8.166   4.657   8.062 -3.7297  0.9883 -3.8604
  359MOL0     H49518   8.334   4.525   7.970 -0.7887  0.0337  2.6927
  359MOL0     H49519   8.205   4.449   7.873 -3.9374  0.1704  0.8418
  359MOL0     H49520   8.341   4.269   7.980  0.8272  3.2966 -1.2991
  359MOL0     H49521   8.168   4.281   8.036 -0.2162 -1.0382  0.4780
  359MOL0     H49522   7.596   4.216   8.344  0.6803  0.9501 -2.0898
  359MOL0     H49523   7.661   4.090   8.551 -0.9251 -0.8331  0.5621
  359MOL0     H49524   7.960   3.892   8.729 -1.2060 -0.9226 -2.0253
  359MOL0     H49525   8.072   3.831   8.926  1.1691 -0.3022 -1.2855
  359MOL0     H49526   8.289   2.600   8.124 -0.9802  0.7720  0.6689
  359MOL0     H49527   8.257   2.601   7.891 -1.1482 -0.4605  2.2131
  359MOL0     H49528   8.395   2.862   7.449 -2.4160  2.6331  0.8552
  359MOL0     H49529   8.302   2.854   7.222 -0.8540  1.3175 -0.0427
  359MOL0     H49530   7.945   2.628   7.158 -0.0042 -1.8971 -4.1897
  359MOL0     H49531   7.990   2.794   7.182  1.0314  0.7042 -2.0152
  359MOL0     H49532   7.880   2.766   6.977  1.2272  0.5502 -2.4250
  359MOL0     H49533   7.986   2.632   6.933 -0.7447 -0.7036  0.7971
  359MOL0     H49534   8.173   2.765   6.895  0.7905  2.3609 -0.8664
  359MOL0     H49535   8.028   2.840   6.815  0.1725  1.7493 -0.8020
  359MOL0     H49536   8.217   2.969   7.025 -0.7557 -0.1209 -0.5329
  359MOL0     H49537   8.054   2.991   7.054 -0.3259 -0.6727  1.2515
  359MOL0     H49538   8.080   3.206   6.716  1.1160  0.4342  0.3612
  359MOL0     H49539   8.101   2.479   7.323  0.2251 -1.5512  4.0142
  359MOL0     H49540   8.268   2.403   7.582 -0.1148  1.4868  0.0279
  359MOL0     H49541   8.145   2.509   7.663 -1.2560  0.5988 -0.6225
  359MOL0     H49542   8.100   2.389   7.536 -3.3379  2.0531 -0.2515
  360MOL0     O49543  10.379  11.541  10.559 -0.1592  0.0735  0.0498
  360MOL0     C49544  10.505  11.560  10.556  0.2180  0.4466 -0.1512
  360MOL0     O49545  10.598  11.486  10.629  0.8618  0.2813 -0.4851
  360MOL0     C49546  10.551  11.413  10.741 -0.7834 -0.3137  0.1231
  360MOL0     C49547  10.618  11.447  10.857  0.0445 -1.0795 -0.5928
  360MOL0     C49548  10.587  11.393  10.978  1.2370 -0.6523  0.3931
  360MOL0     C49549  10.471  11.310  10.987 -0.5133 -0.1487  0.2500
  360MOL0     O49550  10.416  11.277  11.106  0.5750 -0.2499 -0.6761
  360MOL0     C49551  10.391  11.369  11.210 -0.4023 -1.0176 -0.6391
  360MOL0     C49552  10.260  11.334  11.267  0.8525 -0.0777  0.2055
  360MOL0     C49553  10.146  11.319  11.162 -0.3064  0.6466  0.4193
  360MOL0     C49554  10.006  11.355  11.226  0.4759  0.1459  0.0747
  360MOL0     C49555   9.900  11.396  11.127 -0.5650 -0.4738 -0.5787
  360MOL0     C49556   9.804  11.510  11.171 -0.0442  0.3589  0.2329
  360MOL0     C49557   9.863  11.647  11.144  0.9172 -0.3934  0.3298
  360MOL0     C49558   9.754  11.755  11.120  0.4653 -0.4224  0.3708
  360MOL0     N49559   9.649  11.755  11.220 -0.1885 -0.3415  0.7475
  360MOL0     C49560   9.663  11.798  11.347  0.2390 -0.2457 -0.1234
  360MOL0     C49561   9.536  11.827  11.388  0.1058  0.6372 -0.3351
  360MOL0     C49562   9.508  11.882  11.526  0.3986 -0.3240  0.7043
  360MOL0     C49563   9.360  11.879  11.566  0.3536 -0.1665 -0.6377
  360MOL0     C49564   9.324  11.955  11.702 -0.2290 -0.8060  0.6186
  360MOL0     C49565   9.347  11.879  11.828  0.1842  0.1361  0.3206
  360MOL0     O49566   9.484  11.873  11.856 -0.4412 -0.8325 -0.1208
  360MOL0     C49567   9.540  11.774  11.933  0.1794  1.0874 -0.0034
  360MOL0     C49568   9.466  11.688  12.017 -0.0393  0.9152  1.2686
  360MOL0     C49569   9.516  11.583  12.094  0.9303  0.7743 -0.5164
  360MOL0     C49570   9.417  11.504  12.181  0.2396 -0.5608 -0.3032
  360MOL0     C49571   9.657  11.574  12.101  0.8118 -0.0444  0.7965
  360MOL0     C49572   9.729  11.465  12.180 -0.3687 -0.4091  0.6773
  360MOL0     O49573   9.870  11.472  12.169  0.7404  0.7008 -0.2775
  360MOL0     C49574   9.947  11.360  12.208 -0.0592  1.2731  0.8215
  360MOL0     C49575   9.988  11.278  12.096 -0.2974 -1.2065  0.3367
  360MOL0     C49576  10.064  11.169  12.110  0.1601 -0.4158 -0.1827
  360MOL0     C49577  10.120  11.138  12.225 -0.4866  0.9235  0.3489
  360MOL0     O49578  10.199  11.018  12.222 -0.2427 -0.0199 -0.0126
  360MOL0     C49579  10.272  10.980  12.345  0.4316  0.5850  0.8687
  360MOL0     C49580  10.378  10.869  12.327  0.6063  0.5956  0.0431
  360MOL0     C49581  10.489  10.910  12.229 -0.1031  0.0284  0.4160
  360MOL0     C49582  10.605  10.805  12.204  0.4802  0.5866 -0.3550
  360MOL0     C49583  10.689  10.833  12.080 -0.7621  0.3884 -0.0689
  360MOL0     C49584  10.754  10.974  12.087 -0.8891 -0.2938 -0.5675
  360MOL0     C49585  10.876  10.990  11.988  0.3652  0.3470 -0.3205
  360MOL0     C49586  10.849  11.123  11.911 -0.1988 -0.0973 -0.0106
  360MOL0    Cl49587  10.833  11.256  12.025 -0.4992 -0.1898 -0.0003
  360MOL0     C49588  10.089  11.212  12.341 -0.3187  0.5913 -1.1415
  360MOL0     C49589   9.997  11.321  12.331  0.2110  1.9414  0.2468
  360MOL0     O49590   9.669  11.375  12.233 -0.1983 -0.2251 -0.7513
  360MOL0     C49591   9.732  11.656  12.009  0.8497 -0.4066  0.7505
  360MOL0     C49592   9.676  11.752  11.923  0.5359 -1.1563 -0.0663
  360MOL0     N49593   9.446  11.797  11.294  0.1156 -0.0062 -0.4179
  360MOL0     N49594   9.518  11.749  11.192 -0.4203  0.4066 -0.0222
  360MOL0     C49595  10.415  11.268  10.870  0.2726 -0.9878  0.0030
  360MOL0     C49596  10.445  11.323  10.740  0.2069  0.2649 -0.0050
  360MOL0     C49597  10.557  11.651  10.445 -0.0549 -0.0065  0.2560
  360MOL0     C49598  10.475  11.665  10.334  0.1029 -0.5215 -0.8283
  360MOL0     C49599  10.519  11.736  10.219  0.0027  0.1077 -0.1521
  360MOL0     C49600  10.651  11.790  10.216  0.0367  0.2771  0.9140
  360MOL0     O49601  10.680  11.867  10.109 -0.1923  0.6369  0.0790
  360MOL0     C49602  10.704  12.002  10.132  0.5769 -0.3378 -0.6275
  360MOL0     C49603  10.818  12.051  10.036 -0.3124  0.1056 -0.2356
  360MOL0     C49604  10.966  12.033  10.079 -0.8813  0.9051 -0.1919
  360MOL0     C49605  10.993  12.106  10.220  0.4919  0.7878 -0.3598
  360MOL0     C49606  11.137  12.138  10.218  0.9442 -0.5449 -0.4034
  360MOL0     C49607  11.253  12.156  10.186  0.8976 -0.1063 -0.0483
  360MOL0     C49608  10.736  11.773  10.327  0.4040  0.0027 -1.1064
  360MOL0     C49609  10.687  11.694  10.431 -0.3772 -0.3200 -0.5767
  360MOL0     C49610  10.789  11.668  10.534  0.4216 -0.4943 -0.8210
  360MOL0     H49611  10.709  11.507  10.850  0.4852 -1.3821  1.6903
  360MOL0     H49612  10.639  11.429  11.066  0.9706  1.0245 -0.1075
  360MOL0     H49613  10.388  11.472  11.172  0.6083 -1.3651 -1.7186
  360MOL0     H49614  10.469  11.362  11.287 -1.1158 -1.5327  0.0477
  360MOL0     H49615  10.285  11.251  11.334 -1.8154  0.1351  1.5770
  360MOL0     H49616  10.231  11.412  11.338  1.9325 -0.9592  1.6839
  360MOL0     H49617  10.156  11.384  11.075 -3.0976 -1.0236 -1.2945
  360MOL0     H49618  10.141  11.219  11.119 -2.6568  1.3549 -1.0935
  360MOL0     H49619   9.969  11.268  11.281 -2.0672  0.5844 -0.8249
  360MOL0     H49620  10.019  11.431  11.303  0.3139 -0.2159  0.4628
  360MOL0     H49621   9.836  11.316  11.088 -3.2742  0.6545  1.2066
  360MOL0     H49622   9.950  11.441  11.041 -1.5578  1.1866 -0.3204
  360MOL0     H49623   9.710  11.501  11.115 -0.7209  0.3681  1.3428
  360MOL0     H49624   9.779  11.501  11.277 -0.9938  1.2328  0.0978
  360MOL0     H49625   9.935  11.651  11.061  0.7658  5.5703  0.0633
  360MOL0     H49626   9.926  11.678  11.228  3.6744  1.0728 -2.1064
  360MOL0     H49627   9.810  11.848  11.128  0.7413 -0.1570 -3.1465
  360MOL0     H49628   9.702  11.748  11.024  2.5326 -0.4413 -0.7945
  360MOL0     H49629   9.756  11.826  11.396 -0.7024  4.1419 -0.4353
  360MOL0     H49630   9.549  11.983  11.524 -2.9287  1.1432 -0.9769
  360MOL0     H49631   9.564  11.825  11.601 -0.8220 -2.1160  0.3206
  360MOL0     H49632   9.306  11.936  11.490  1.1849 -2.0877 -2.7705
  360MOL0     H49633   9.327  11.775  11.564  5.3797 -2.0454 -0.0393
  360MOL0     H49634   9.376  12.050  11.716  2.1971 -2.2807  2.4173
  360MOL0     H49635   9.222  11.992  11.689 -0.1762  0.3578  2.9545
  360MOL0     H49636   9.291  11.923  11.911  0.9125 -1.3671  1.6586
  360MOL0     H49637   9.298  11.783  11.810  1.7860 -0.3843 -1.6730
  360MOL0     H49638   9.358  11.693  12.022 -0.2954 -2.5584  1.6165
  360MOL0     H49639   9.402  11.404  12.139  4.0285 -0.7678 -1.4865
  360MOL0     H49640   9.318  11.550  12.172  0.5338  0.2008  0.2879
  360MOL0     H49641   9.443  11.503  12.287 -1.7567 -1.5539  0.2208
  360MOL0     H49642   9.943  11.316  12.006  0.1574 -0.4375  0.4230
  360MOL0     H49643  10.081  11.106  12.023  2.1189 -0.8956  0.5117
  360MOL0     H49644  10.326  11.071  12.373  0.4541  0.3747  1.5235
  360MOL0     H49645  10.195  10.937  12.409  2.5358 -2.7380  1.4382
  360MOL0     H49646  10.425  10.844  12.423 -2.0638 -0.0504  1.2622
  360MOL0     H49647  10.320  10.780  12.300 -1.3494  1.2636  1.7582
  360MOL0     H49648  10.531  11.006  12.262 -0.8959  1.8743 -3.3349
  360MOL0     H49649  10.450  10.924  12.128  1.0848 -1.2848 -0.2585
  360MOL0     H49650  10.555  10.708  12.194 -0.3856  1.1462 -1.7300
  360MOL0     H49651  10.680  10.796  12.284  0.7340 -0.8561 -0.7291
  360MOL0     H49652  10.762  10.752  12.081  0.4190  1.3603  2.1439
  360MOL0     H49653  10.630  10.833  11.988  0.2030  1.9636 -0.7504
  360MOL0     H49654  10.801  10.991  12.184  0.6183 -2.2635 -0.8921
  360MOL0     H49655  10.678  11.052  12.070  0.0571  0.6071 -0.7537
  360MOL0     H49656  10.882  10.906  11.918  0.5191  0.9212 -1.0001
  360MOL0     H49657  10.974  11.000  12.036  0.5957  1.4968 -0.9872
  360MOL0     H49658  10.765  11.121  11.841 -0.9287  0.4523  0.8218
  360MOL0     H49659  10.944  11.142  11.862 -1.1031  3.0378 -0.8283
  360MOL0     H49660  10.134  11.186  12.436 -1.4972  0.4620 -0.5945
  360MOL0     H49661   9.977  11.385  12.417 -0.2612 -1.5566  2.9733
  360MOL0     H49662   9.840  11.653  12.003  0.7477 -2.2905 -1.7286
  360MOL0     H49663   9.737  11.814  11.859  0.3376 -1.8007 -0.8972
  360MOL0     H49664  10.335  11.196  10.884  1.0373 -1.4610  2.2861
  360MOL0     H49665  10.382  11.311  10.652 -0.2485  0.4731  0.2903
  360MOL0     H49666  10.377  11.619  10.332  0.7955 -2.0202 -2.0388
  360MOL0     H49667  10.460  11.751  10.129  1.8135  2.8161 -1.0459
  360MOL0     H49668  10.601  12.037  10.122 -0.1034 -0.6670  3.4201
  360MOL0     H49669  10.727  12.010  10.239 -1.8837 -1.1290  0.0234
  360MOL0     H49670  10.800  12.157  10.015 -0.6181 -0.3445 -2.5299
  360MOL0     H49671  10.816  12.002   9.939  0.9728  0.5172 -0.4843
  360MOL0     H49672  11.000  11.930  10.084 -0.9992  0.8741 -0.0175
  360MOL0     H49673  11.034  12.070  10.002  0.0782 -3.8677 -1.9853
  360MOL0     H49674  10.973  12.035  10.301 -1.3222  0.4839 -1.0368
  360MOL0     H49675  10.941  12.202  10.229 -0.6212  0.4595 -2.6064
  360MOL0     H49676  11.358  12.165  10.168  0.9411  0.9264  0.6018
  360MOL0     H49677  10.837  11.811  10.320  0.6629 -0.5270 -0.3344
  360MOL0     H49678  10.824  11.565  10.532  1.6483 -0.0826 -1.6094
  360MOL0     H49679  10.873  11.738  10.530 -3.0067  4.1959  0.5732
  360MOL0     H49680  10.740  11.687  10.630  2.3282 -1.2915  0.3571
  361MOL0     O49681   6.189   7.132   1.129  0.2984  0.2495  0.6283
  361MOL0     C49682   6.183   7.054   1.035 -0.1560 -0.4627  1.1998
  361MOL0     O49683   6.139   7.089   0.907  0.5088 -0.1048  0.1073
  361MOL0     C49684   6.091   7.217   0.897 -0.2336  0.7836 -0.1161
  361MOL0     C49685   6.166   7.342   0.902 -0.5896  0.8506 -0.4344
  361MOL0     C49686   6.098   7.460   0.881  0.0011  0.1284  0.9080
  361MOL0     C49687   5.963   7.467   0.839 -0.4719 -0.3273  1.4095
  361MOL0     O49688   5.892   7.578   0.797 -0.3884 -0.0539  0.5375
  361MOL0     C49689   5.974   7.682   0.755 -0.5852  0.5772  0.6406
  361MOL0     C49690   5.884   7.792   0.701  0.2900 -0.6503  0.2800
  361MOL0     C49691   5.740   7.791   0.754  0.9405 -0.1869  0.0725
  361MOL0     C49692   5.654   7.910   0.706  0.1939 -0.9780 -0.7256
  361MOL0     C49693   5.508   7.899   0.722  0.8508  0.2425  0.5626
  361MOL0     C49694   5.436   7.792   0.644 -0.1059  0.4288  0.4139
  361MOL0     C49695   5.460   7.781   0.496 -0.0846 -0.0488  0.2890
  361MOL0     C49696   5.453   7.916   0.434 -0.5079  0.4973 -0.9554
  361MOL0     N49697   5.481   7.915   0.288  0.3640 -1.0048  0.7645
  361MOL0     C49698   5.413   7.847   0.190  0.7760 -0.3608 -0.4639
  361MOL0     C49699   5.461   7.887   0.076  0.0856  0.1243  0.3563
  361MOL0     C49700   5.443   7.831  -0.061 -1.0446  0.8768  0.5825
  361MOL0     C49701   5.351   7.917  -0.142  1.2550 -0.5170 -0.0411
  361MOL0     C49702   5.394   7.938  -0.285  0.3232  0.0580 -0.3484
  361MOL0     C49703   5.385   7.809  -0.374  0.2272 -0.8439 -0.7756
  361MOL0     O49704   5.257   7.753  -0.391  0.4673  0.6631 -1.1346
  361MOL0     C49705   5.263   7.621  -0.434 -0.1724  0.3101 -0.7759
  361MOL0     C49706   5.222   7.509  -0.356 -0.0660 -0.3646  1.0036
  361MOL0     C49707   5.241   7.381  -0.407 -0.3787 -0.5695  0.5734
  361MOL0     C49708   5.210   7.277  -0.306 -0.0153  0.5287 -0.3900
  361MOL0     C49709   5.296   7.357  -0.529  0.6716 -0.2094  0.3685
  361MOL0     C49710   5.311   7.224  -0.584  1.0682 -0.0381  0.7045
  361MOL0     O49711   5.424   7.207  -0.655 -0.2578 -0.0893 -0.7934
  361MOL0     C49712   5.427   7.081  -0.710  1.1300  0.4084 -0.0013
  361MOL0     C49713   5.488   6.975  -0.640 -0.0343  0.1697  0.3990
  361MOL0     C49714   5.473   6.844  -0.689  0.4219 -0.3841 -0.8941
  361MOL0     C49715   5.422   6.819  -0.817 -0.2083  0.4560  0.3089
  361MOL0     O49716   5.421   6.697  -0.873 -0.4806  0.3365  0.3606
  361MOL0     C49717   5.293   6.645  -0.885  0.0201  0.2222  0.1675
  361MOL0     C49718   5.282   6.490  -0.869  0.4047  0.2276 -0.2644
  361MOL0     C49719   5.137   6.445  -0.823  0.1873  0.4774  0.5245
  361MOL0     C49720   5.101   6.303  -0.872  1.2610 -0.2310  0.1433
  361MOL0     C49721   4.950   6.290  -0.858  0.1823  1.0258  0.1721
  361MOL0     C49722   4.877   6.354  -0.969  0.7825  0.2541 -0.3095
  361MOL0     C49723   4.726   6.352  -0.941  0.0434  0.1705  0.1075
  361MOL0     C49724   4.655   6.213  -0.939 -0.8170  0.1484 -0.5418
  361MOL0    Cl49725   4.495   6.225  -1.000 -0.3426  0.2734 -0.2897
  361MOL0     C49726   5.365   6.924  -0.885 -0.4710 -0.7591 -0.2320
  361MOL0     C49727   5.361   7.052  -0.827  0.3873 -0.1455 -1.3650
  361MOL0     O49728   5.228   7.143  -0.562  0.7312 -0.1856  0.3097
  361MOL0     C49729   5.327   7.466  -0.611 -0.7629  0.2135 -0.4900
  361MOL0     C49730   5.307   7.596  -0.561  0.5813  0.2278 -0.0325
  361MOL0     N49731   5.551   7.996   0.099 -0.1829 -0.4515  0.1842
  361MOL0     N49732   5.555   8.018   0.225  0.8338  0.7819 -0.5873
  361MOL0     C49733   5.892   7.345   0.829 -0.8452 -0.0577  0.1190
  361MOL0     C49734   5.959   7.230   0.855  0.3775  0.9758  0.4667
  361MOL0     C49735   6.247   6.926   1.045 -0.3645  0.3339 -0.4456
  361MOL0     C49736   6.333   6.882   0.935  0.5230 -0.0618 -0.0294
  361MOL0     C49737   6.403   6.761   0.941  1.1429  0.2250  0.5728
  361MOL0     C49738   6.412   6.694   1.060  0.4514  0.7808 -0.7182
  361MOL0     O49739   6.478   6.571   1.060 -0.2293  0.2009  0.6366
  361MOL0     C49740   6.423   6.469   1.143  0.4051  0.0846  0.3753
  361MOL0     C49741   6.496   6.339   1.114 -0.0855  0.5667 -0.3602
  361MOL0     C49742   6.652   6.337   1.125 -0.3807 -0.8148  0.4107
  361MOL0     C49743   6.704   6.188   1.125  0.3451  0.6369  0.1479
  361MOL0     C49744   6.664   6.114   1.004  0.2711 -0.5147 -0.0669
  361MOL0     C49745   6.638   6.042   0.904  0.0181 -0.2363 -0.9957
  361MOL0     C49746   6.329   6.738   1.169 -0.2491  0.5579 -0.3281
  361MOL0     C49747   6.252   6.849   1.166  0.6410  0.0138  0.1808
  361MOL0     C49748   6.166   6.892   1.273  0.2866  0.6379 -1.1486
  361MOL0     H49749   6.274   7.340   0.919 -0.2254 -0.3247 -2.5676
  361MOL0     H49750   6.142   7.554   0.912 -0.3919 -0.2034  2.6042
  361MOL0     H49751   6.036   7.650   0.671 -1.9835 -0.8485  0.1004
  361MOL0     H49752   6.024   7.724   0.842  2.0698  2.1245 -1.4789
  361MOL0     H49753   5.924   7.892   0.721  0.3729 -1.0514  2.2913
  361MOL0     H49754   5.883   7.778   0.593 -0.6103 -0.9918  0.3235
  361MOL0     H49755   5.693   7.704   0.706  1.2516  0.2276 -1.0199
  361MOL0     H49756   5.724   7.772   0.860 -1.0643 -1.4340 -0.3870
  361MOL0     H49757   5.678   8.005   0.755 -3.8035 -0.5812  0.8580
  361MOL0     H49758   5.662   7.925   0.598 -5.1455  0.5623 -1.1985
  361MOL0     H49759   5.465   7.997   0.701  2.5635  0.5338 -2.1032
  361MOL0     H49760   5.491   7.878   0.828 -1.6857  0.2001  0.2063
  361MOL0     H49761   5.464   7.696   0.689 -1.0419 -1.1027 -2.0854
  361MOL0     H49762   5.328   7.803   0.660  0.0214  2.0775  0.3288
  361MOL0     H49763   5.389   7.718   0.442 -1.4525  0.0836  1.8869
  361MOL0     H49764   5.557   7.733   0.483  0.0922  0.6551 -1.2741
  361MOL0     H49765   5.353   7.957   0.450  0.0577  0.6431  3.6126
  361MOL0     H49766   5.518   7.984   0.489  1.3037 -0.5227 -1.7659
  361MOL0     H49767   5.346   7.763   0.207 -0.0237 -0.3642 -3.1526
  361MOL0     H49768   5.399   7.732  -0.046  1.7479 -0.9488 -2.0886
  361MOL0     H49769   5.540   7.814  -0.107 -0.3883  1.9321  1.5061
  361MOL0     H49770   5.256   7.863  -0.143  0.5969  0.5788  0.5463
  361MOL0     H49771   5.331   8.011  -0.090 -0.8451  0.4206 -2.2919
  361MOL0     H49772   5.343   8.026  -0.325 -3.6295 -0.1652  3.5210
  361MOL0     H49773   5.501   7.955  -0.269  0.7956 -2.6478 -0.2633
  361MOL0     H49774   5.434   7.851  -0.463  0.8245  0.6564  0.2189
  361MOL0     H49775   5.451   7.737  -0.324 -0.7296  0.5638  2.8360
  361MOL0     H49776   5.173   7.533  -0.262 -1.2362 -1.8407  0.8020
  361MOL0     H49777   5.118   7.220  -0.321  1.0153 -1.4397  0.4235
  361MOL0     H49778   5.189   7.329  -0.212 -2.4949 -1.3185  0.1876
  361MOL0     H49779   5.286   7.198  -0.301  0.5934  0.9519 -2.1532
  361MOL0     H49780   5.515   6.974  -0.535  0.7137  3.2035  0.3502
  361MOL0     H49781   5.510   6.756  -0.637  0.5609  0.8478  1.1787
  361MOL0     H49782   5.218   6.687  -0.817  0.6919  0.2930  0.8860
  361MOL0     H49783   5.254   6.683  -0.980  0.2288  2.1559  0.8097
  361MOL0     H49784   5.313   6.431  -0.956 -0.4976 -4.8369  2.4874
  361MOL0     H49785   5.350   6.459  -0.789 -0.3347  2.2888  1.2581
  361MOL0     H49786   5.071   6.522  -0.864 -1.7368 -0.0659  2.4538
  361MOL0     H49787   5.135   6.448  -0.714  1.8970 -1.2779  0.6581
  361MOL0     H49788   5.130   6.216  -0.814 -0.7445 -2.2253 -1.6456
  361MOL0     H49789   5.138   6.277  -0.972  0.6018  0.0625 -0.1930
  361MOL0     H49790   4.928   6.183  -0.858  4.4355 -0.0665 -0.6636
  361MOL0     H49791   4.919   6.328  -0.760 -2.1064  0.8701 -0.4309
  361MOL0     H49792   4.892   6.307  -1.066 -2.5272 -0.5411 -0.5728
  361MOL0     H49793   4.903   6.460  -0.978  2.0775 -0.0453 -0.2317
  361MOL0     H49794   4.680   6.409  -1.023  2.4749 -0.0575 -1.5036
  361MOL0     H49795   4.706   6.408  -0.849  2.7690  0.9856  0.2833
  361MOL0     H49796   4.679   6.160  -0.847  2.3603  0.4845 -1.0361
  361MOL0     H49797   4.711   6.143  -1.001  1.7348 -0.2848  2.0266
  361MOL0     H49798   5.320   6.911  -0.983  0.1315 -1.0934 -0.4691
  361MOL0     H49799   5.310   7.128  -0.886 -0.9171  0.2450  0.1870
  361MOL0     H49800   5.368   7.438  -0.707  2.3050  0.0797  0.7456
  361MOL0     H49801   5.325   7.688  -0.616 -1.4088  0.0711 -1.0181
  361MOL0     H49802   5.787   7.336   0.806 -0.5228 -4.7108 -0.4188
  361MOL0     H49803   5.899   7.139   0.857  0.9505  0.6005  0.8720
  361MOL0     H49804   6.331   6.948   0.848  0.1125  2.2902  1.6655
  361MOL0     H49805   6.463   6.722   0.859 -2.9186 -0.5622 -2.3398
  361MOL0     H49806   6.430   6.498   1.248  1.4273  2.7523 -0.3342
  361MOL0     H49807   6.318   6.450   1.120  0.3175 -0.5815  1.2802
  361MOL0     H49808   6.470   6.314   1.011 -1.0209  1.5404 -0.3721
  361MOL0     H49809   6.464   6.253   1.174  1.5335 -0.2023 -0.5452
  361MOL0     H49810   6.700   6.400   1.050  0.9960 -0.3037  1.6811
  361MOL0     H49811   6.670   6.384   1.222  0.2773 -2.4958  1.1376
  361MOL0     H49812   6.665   6.126   1.207  0.5803  0.0839 -0.1513
  361MOL0     H49813   6.813   6.184   1.139  0.4031  2.7184  0.6627
  361MOL0     H49814   6.627   5.958   0.839 -2.0810 -0.8881  0.1117
  361MOL0     H49815   6.334   6.670   1.254 -1.8195  1.5300  0.5828
  361MOL0     H49816   6.205   6.969   1.339 -2.5170 -2.0740  4.4583
  361MOL0     H49817   6.073   6.928   1.229 -1.8007  0.9026  2.9409
  361MOL0     H49818   6.142   6.806   1.338  0.4867  1.3615 -0.0896
  362MOL0     O49819   2.909   2.197   2.309 -0.2778  0.6117  0.8510
  362MOL0     C49820   2.897   2.090   2.253  1.4942 -1.0614  0.2498
  362MOL0     O49821   2.809   2.057   2.157 -0.3619 -0.5315 -0.1447
  362MOL0     C49822   2.735   2.146   2.091 -0.3709 -0.4214  0.3878
  362MOL0     C49823   2.796   2.228   1.984  0.9870 -0.8369  0.0851
  362MOL0     C49824   2.708   2.288   1.891  1.0633 -0.8129  0.3310
  362MOL0     C49825   2.569   2.292   1.902 -0.0146  0.4098  0.1301
  362MOL0     O49826   2.479   2.336   1.810 -0.3898 -0.0923 -0.3437
  362MOL0     C49827   2.524   2.444   1.719 -0.5555 -0.5035 -0.5380
  362MOL0     C49828   2.516   2.580   1.798 -0.7089 -0.2122 -0.2590
  362MOL0     C49829   2.595   2.699   1.735 -0.4900  0.4676  0.1016
  362MOL0     C49830   2.540   2.742   1.600  0.1630 -0.4109 -0.0145
  362MOL0     C49831   2.396   2.798   1.612  1.1154 -1.5295  0.5667
  362MOL0     C49832   2.354   2.865   1.476  0.5877  0.6206  0.0632
  362MOL0     C49833   2.254   2.978   1.473  0.1101 -0.2985  0.8145
  362MOL0     C49834   2.233   3.059   1.338  0.0904  0.2369 -1.5544
  362MOL0     N49835   2.205   2.972   1.223 -0.2147 -0.3079  0.7212
  362MOL0     C49836   2.116   2.868   1.224  0.0993  1.2514  0.2366
  362MOL0     C49837   2.161   2.782   1.128  0.1740  1.0495 -1.0442
  362MOL0     C49838   2.112   2.645   1.085 -0.4492  0.0946 -0.1438
  362MOL0     C49839   2.148   2.533   1.184 -0.1109 -0.4234 -0.1726
  362MOL0     C49840   2.302   2.536   1.200  0.0699  0.1733  0.7656
  362MOL0     C49841   2.339   2.414   1.295  0.2588 -0.0087 -0.5767
  362MOL0     O49842   2.295   2.291   1.241  0.3018  0.2529  0.5459
  362MOL0     C49843   2.238   2.190   1.324 -0.0449  0.0201  1.2637
  362MOL0     C49844   2.185   2.090   1.238  0.6347  0.5475 -0.5165
  362MOL0     C49845   2.132   1.971   1.294 -1.1145 -1.1118 -0.2237
  362MOL0     C49846   2.064   1.876   1.207  0.7973  0.6408  0.3659
  362MOL0     C49847   2.148   1.951   1.435  0.3402 -0.1894  0.6491
  362MOL0     C49848   2.108   1.826   1.506 -0.3584 -0.0250 -0.6646
  362MOL0     O49849   2.205   1.714   1.497 -0.3259 -0.0612 -0.6945
  362MOL0     C49850   2.189   1.600   1.580  0.1450  0.0382  0.5446
  362MOL0     C49851   2.135   1.603   1.709  0.3853  1.1258 -0.6113
  362MOL0     C49852   2.152   1.488   1.799 -0.2286 -0.1018  0.6732
  362MOL0     C49853   2.171   1.359   1.737 -0.3408 -0.2253  0.5089
  362MOL0     O49854   2.167   1.244   1.812 -0.1605 -0.3689  0.6806
  362MOL0     C49855   2.076   1.225   1.926  0.3881  0.1210  0.1099
  362MOL0     C49856   1.932   1.188   1.882 -0.1623  0.0286  0.0118
  362MOL0     C49857   1.868   1.120   2.006  0.5937 -0.5376  0.3036
  362MOL0     C49858   1.720   1.075   2.010 -0.5329  1.4612  0.2540
  362MOL0     C49859   1.611   1.186   2.027  0.4553  0.3608  0.5753
  362MOL0     C49860   1.570   1.229   1.896 -0.1881 -0.9175 -0.8711
  362MOL0     C49861   1.488   1.360   1.900 -1.2743  0.4488  1.0856
  362MOL0     C49862   1.339   1.334   1.933  1.3715 -0.1220  0.5926
  362MOL0    Cl49863   1.240   1.223   1.826 -0.5546 -0.7036 -0.3688
  362MOL0     C49864   2.210   1.345   1.606  0.0138 -0.6751 -0.8881
  362MOL0     C49865   2.231   1.464   1.532  1.2047 -0.5065  0.7329
  362MOL0     O49866   1.990   1.827   1.559 -0.1212  0.5824  0.5166
  362MOL0     C49867   2.185   2.062   1.512 -0.2339 -0.0158 -0.7237
  362MOL0     C49868   2.244   2.177   1.458 -0.5875 -0.1625  0.0912
  362MOL0     N49869   2.246   2.851   1.051 -1.1455 -0.1430 -0.3270
  362MOL0     N49870   2.279   2.967   1.104  0.3092  0.0176 -0.5395
  362MOL0     C49871   2.520   2.236   2.021 -0.3313 -0.4538  0.6388
  362MOL0     C49872   2.600   2.164   2.110  0.4301  0.3864 -0.1451
  362MOL0     C49873   2.974   1.981   2.306 -0.8586  0.0135 -0.0943
  362MOL0     C49874   3.029   1.889   2.212  0.5910 -0.3183 -0.3265
  362MOL0     C49875   3.109   1.783   2.252 -0.0097  0.7551  0.2261
  362MOL0     C49876   3.134   1.766   2.389 -0.2055 -0.1499  0.0768
  362MOL0     O49877   3.228   1.672   2.441  0.1861  0.7364 -0.7377
  362MOL0     C49878   3.364   1.705   2.412  0.0992 -0.7508  0.1004
  362MOL0     C49879   3.456   1.657   2.522  0.2644  0.4973  1.3220
  362MOL0     C49880   3.608   1.677   2.514 -0.1731  0.1135 -0.4202
  362MOL0     C49881   3.687   1.550   2.572 -0.4498 -0.0022  0.4967
  362MOL0     C49882   3.658   1.509   2.703  0.1229 -0.3056 -0.3012
  362MOL0     C49883   3.613   1.442   2.793 -0.0913  0.0885 -0.6513
  362MOL0     C49884   3.090   1.861   2.480 -0.0110 -0.0081  0.2759
  362MOL0     C49885   2.996   1.962   2.446  0.2398 -0.4511 -0.7851
  362MOL0     C49886   2.938   2.054   2.557  0.4328 -0.6205  0.0417
  362MOL0     H49887   2.899   2.199   1.968  0.9559 -2.8978  2.8444
  362MOL0     H49888   2.754   2.338   1.806  2.1960  2.4539  2.6540
  362MOL0     H49889   2.449   2.447   1.639 -0.7510 -1.2006 -0.3790
  362MOL0     H49890   2.623   2.431   1.674 -0.4323 -2.4913  0.2328
  362MOL0     H49891   2.409   2.595   1.813 -0.7330  0.1784 -0.8159
  362MOL0     H49892   2.557   2.556   1.897  1.9658  1.0066 -0.9851
  362MOL0     H49893   2.587   2.790   1.794  2.2709 -0.8844  2.8647
  362MOL0     H49894   2.701   2.671   1.737 -0.4437  0.5663 -0.6926
  362MOL0     H49895   2.604   2.829   1.582 -2.4229  2.1628  2.1255
  362MOL0     H49896   2.539   2.671   1.517 -0.6115  1.6150 -1.8167
  362MOL0     H49897   2.381   2.875   1.688 -0.9644 -0.4011 -0.9050
  362MOL0     H49898   2.323   2.719   1.633 -3.3559  1.5656 -1.7416
  362MOL0     H49899   2.441   2.907   1.423 -0.1591  2.1789 -0.0050
  362MOL0     H49900   2.313   2.782   1.419 -1.7369  0.5166  1.7439
  362MOL0     H49901   2.277   3.050   1.551  0.5533  2.9589 -2.0919
  362MOL0     H49902   2.163   2.920   1.492  0.7029 -1.9037 -0.8389
  362MOL0     H49903   2.158   3.138   1.348  0.7614  0.6776  0.2493
  362MOL0     H49904   2.327   3.113   1.322  0.5182  0.7894  2.0173
  362MOL0     H49905   2.044   2.847   1.302  1.2045 -0.2284  0.9020
  362MOL0     H49906   2.163   2.618   0.992 -0.7251 -1.6184  0.1798
  362MOL0     H49907   2.004   2.652   1.069 -1.0478 -1.5905  2.4557
  362MOL0     H49908   2.099   2.554   1.279  0.9678 -2.6961  0.9706
  362MOL0     H49909   2.109   2.436   1.152  1.6122 -1.5090  0.8205
  362MOL0     H49910   2.352   2.531   1.103 -1.8446 -2.2502 -0.2021
  362MOL0     H49911   2.336   2.618   1.264  0.1976 -0.8659  2.0789
  362MOL0     H49912   2.448   2.421   1.305  0.2494  0.2353 -0.6472
  362MOL0     H49913   2.283   2.431   1.387 -0.9754 -2.3466 -0.8100
  362MOL0     H49914   2.179   2.098   1.130  0.2767  1.0184 -0.4626
  362MOL0     H49915   2.087   1.909   1.105 -1.0859  0.6792 -0.0795
  362MOL0     H49916   1.957   1.884   1.231 -1.2828 -0.4055 -6.5021
  362MOL0     H49917   2.098   1.772   1.214  3.3043  1.3154 -0.5866
  362MOL0     H49918   2.108   1.698   1.754 -2.4308  2.0079 -3.8266
  362MOL0     H49919   2.133   1.498   1.905 -1.0112  2.5042  0.3755
  362MOL0     H49920   2.111   1.143   1.990 -0.7841  1.5691  2.7830
  362MOL0     H49921   2.081   1.319   1.981  1.9031  1.0233 -1.4777
  362MOL0     H49922   1.884   1.284   1.862  1.1195  0.9781  1.2977
  362MOL0     H49923   1.928   1.122   1.795 -0.3952  0.4408 -0.2937
  362MOL0     H49924   1.882   1.177   2.098  1.8543  0.7017 -0.6245
  362MOL0     H49925   1.912   1.020   2.019  0.7111 -0.4787  0.3634
  362MOL0     H49926   1.707   1.004   2.092 -0.2649 -0.0175 -0.9362
  362MOL0     H49927   1.694   1.012   1.924 -1.1777  1.3963  0.4966
  362MOL0     H49928   1.522   1.149   2.079  1.3630 -0.5437  1.5287
  362MOL0     H49929   1.658   1.259   2.093  1.7726 -1.6475  1.9667
  362MOL0     H49930   1.513   1.152   1.842 -1.6491 -0.7847  0.4226
  362MOL0     H49931   1.663   1.254   1.844  1.1212 -1.0193  1.3128
  362MOL0     H49932   1.487   1.409   1.803  1.0937 -0.9735  0.2564
  362MOL0     H49933   1.535   1.420   1.978  1.3581 -0.4952  0.3441
  362MOL0     H49934   1.273   1.421   1.947  0.0572 -1.0080  0.0837
  362MOL0     H49935   1.336   1.281   2.028  1.4202  0.2305  0.7938
  362MOL0     H49936   2.218   1.247   1.561 -1.1517 -0.3496 -1.8828
  362MOL0     H49937   2.271   1.462   1.431 -0.4238  1.4643 -0.0411
  362MOL0     H49938   2.160   2.040   1.615  1.5429 -2.0509 -0.6556
  362MOL0     H49939   2.283   2.260   1.517  1.4346 -1.6890  1.0175
  362MOL0     H49940   2.414   2.241   2.045 -0.5019  1.7797 -0.2741
  362MOL0     H49941   2.565   2.106   2.195  2.1492 -1.5699 -0.7020
  362MOL0     H49942   3.001   1.909   2.109  1.3786  0.6961 -0.3588
  362MOL0     H49943   3.159   1.725   2.175 -1.7824  1.4267 -1.5172
  362MOL0     H49944   3.386   1.660   2.315 -3.2456  2.4125 -2.3733
  362MOL0     H49945   3.372   1.814   2.404  1.6422 -0.7519  1.0348
  362MOL0     H49946   3.444   1.552   2.550 -0.7074 -0.0413 -0.9210
  362MOL0     H49947   3.423   1.720   2.605  0.3434  0.9158  1.0392
  362MOL0     H49948   3.640   1.694   2.410  2.7148  1.9965  0.6530
  362MOL0     H49949   3.634   1.765   2.573 -0.8647 -1.9805  3.2928
  362MOL0     H49950   3.793   1.578   2.574 -0.3543  0.0244 -2.0331
  362MOL0     H49951   3.670   1.470   2.499  1.2689  0.0152  0.0367
  362MOL0     H49952   3.589   1.380   2.877  1.1670 -0.1808 -0.4769
  362MOL0     H49953   3.131   1.847   2.580  0.9815  0.2799 -0.0809
  362MOL0     H49954   2.927   2.018   2.660  0.3869 -0.3494  0.1311
  362MOL0     H49955   2.996   2.146   2.556 -1.8458  0.9372  1.6422
  362MOL0     H49956   2.838   2.084   2.526  0.8162 -1.6592 -2.4594
  363MOL0     O49957   7.062   1.292   1.518 -0.3019  0.3543  0.7514
  363MOL0     C49958   7.098   1.208   1.432 -0.0358  0.4622 -0.5734
  363MOL0     O49959   7.219   1.146   1.426  0.5020 -0.7871 -0.2332
  363MOL0     C49960   7.319   1.201   1.500  0.0822 -0.0641 -0.5312
  363MOL0     C49961   7.384   1.320   1.473  1.5905 -1.0503  0.3216
  363MOL0     C49962   7.488   1.363   1.553 -0.7919 -0.3197  0.0159
  363MOL0     C49963   7.529   1.287   1.663 -0.3310 -0.2746  0.0794
  363MOL0     O49964   7.614   1.328   1.756  0.9074 -0.3426  0.0240
  363MOL0     C49965   7.679   1.448   1.735  0.3129 -0.1008  0.5230
  363MOL0     C49966   7.765   1.480   1.862 -1.0896  0.5944  1.2539
  363MOL0     C49967   7.831   1.619   1.872  0.4289 -0.4567 -1.3733
  363MOL0     C49968   7.818   1.675   2.014 -0.6605  0.9213  0.5592
  363MOL0     C49969   7.924   1.776   2.033  0.0791  0.4214 -2.1500
  363MOL0     C49970   7.908   1.856   2.160  0.3536 -0.6746 -0.9922
  363MOL0     C49971   7.932   1.769   2.292 -0.1864  0.3801 -0.0822
  363MOL0     C49972   8.014   1.844   2.399  0.0909 -0.0098 -0.1016
  363MOL0     N49973   8.013   1.767   2.531 -0.7109 -0.5040  0.0052
  363MOL0     C49974   7.935   1.805   2.636 -0.4177 -0.2359 -0.1677
  363MOL0     C49975   7.969   1.729   2.740 -0.9435 -0.8411  0.7427
  363MOL0     C49976   7.923   1.735   2.881  0.3058 -0.3840  0.1361
  363MOL0     C49977   8.006   1.834   2.948  0.5770  0.4393 -0.0531
  363MOL0     C49978   7.948   1.974   2.950 -0.0823 -0.1158  1.0439
  363MOL0     C49979   7.847   2.010   3.057  0.6925 -0.5542  0.8004
  363MOL0     O49980   7.895   1.984   3.192  0.3085  0.1504  0.4305
  363MOL0     C49981   7.804   2.007   3.299  0.5710  0.7422  0.7816
  363MOL0     C49982   7.663   1.990   3.288  0.0731 -0.1117  0.0241
  363MOL0     C49983   7.590   1.997   3.413 -0.6749 -0.4158  0.4624
  363MOL0     C49984   7.445   1.977   3.406  0.0295 -0.0850  1.1392
  363MOL0     C49985   7.650   2.004   3.541 -0.3010 -0.7447  0.3490
  363MOL0     C49986   7.581   1.988   3.674 -0.2240  0.5580 -0.9726
  363MOL0     O49987   7.660   1.947   3.777  0.6449  0.9974 -1.1328
  363MOL0     C49988   7.615   1.971   3.903 -0.2468  0.1271 -1.4832
  363MOL0     C49989   7.674   2.076   3.980  0.6697 -0.1396  0.2381
  363MOL0     C49990   7.638   2.098   4.118  1.0256  0.1712 -0.0974
  363MOL0     C49991   7.561   1.999   4.177 -0.5824  0.1566  0.8075
  363MOL0     O49992   7.550   1.988   4.307  0.1256  0.5930  0.0535
  363MOL0     C49993   7.585   2.094   4.396  0.8005  0.3149  0.2950
  363MOL0     C49994   7.515   2.225   4.361 -0.5453 -0.0014 -0.3566
  363MOL0     C49995   7.565   2.343   4.446 -0.2091 -0.3037 -1.2974
  363MOL0     C49996   7.705   2.394   4.420  0.0636  0.9408 -0.7129
  363MOL0     C49997   7.729   2.511   4.515  0.6329  1.0161  0.0509
  363MOL0     C49998   7.883   2.531   4.542  1.4087  0.5350  0.2047
  363MOL0     C49999   7.951   2.419   4.624 -0.5590 -0.3162 -0.6174
  363MOL0     C50000   7.883   2.394   4.759  0.0463 -0.3356 -0.1606
  363MOL0    Cl50001   7.882   2.555   4.844 -0.4447 -0.1482 -0.1481
  363MOL0     C50002   7.512   1.894   4.101  0.0815  0.6091  0.6317
  363MOL0     C50003   7.530   1.885   3.963  0.5975  0.9751 -0.7963
  363MOL0     O50004   7.464   2.016   3.692 -0.4219  0.6450 -0.1139
  363MOL0     C50005   7.786   2.006   3.545  0.2315  0.2865 -0.4352
  363MOL0     C50006   7.859   2.024   3.426 -0.0131  0.2213 -0.8997
  363MOL0     N50007   8.069   1.641   2.688  0.4136  0.1057  0.0953
  363MOL0     N50008   8.108   1.671   2.571 -0.3546 -1.0312  0.0606
  363MOL0     C50009   7.466   1.163   1.686  0.9242 -0.6086 -0.1025
  363MOL0     C50010   7.358   1.121   1.613  0.6938 -0.4245 -1.0633
  363MOL0     C50011   6.996   1.180   1.333 -0.4162 -0.3608 -0.1372
  363MOL0     C50012   6.901   1.080   1.353 -0.1854  0.5225  0.3282
  363MOL0     C50013   6.791   1.061   1.273 -0.1186  0.3898  0.2346
  363MOL0     C50014   6.784   1.136   1.152  0.5685 -0.1615  1.0287
  363MOL0     O50015   6.700   1.119   1.048  0.5672  0.3290  0.2531
  363MOL0     C50016   6.574   1.048   1.063  0.2251 -0.5148  0.4380
  363MOL0     C50017   6.460   1.106   0.974  0.5303  0.1138  0.7684
  363MOL0     C50018   6.386   1.227   1.037  0.6038  0.1173  0.0293
  363MOL0     C50019   6.243   1.251   0.981  0.0012  0.1060  0.2330
  363MOL0     C50020   6.161   1.127   0.981 -1.2708 -0.8101  0.2154
  363MOL0     C50021   6.103   1.025   1.010 -0.8940 -0.7788 -0.3147
  363MOL0     C50022   6.880   1.241   1.126  0.3077  0.3248  0.1751
  363MOL0     C50023   6.980   1.264   1.217 -0.8162  0.6028 -1.0482
  363MOL0     C50024   7.076   1.384   1.187  0.3756  0.7012  0.2254
  363MOL0     H50025   7.352   1.390   1.397 -0.4430 -0.5122  1.5922
  363MOL0     H50026   7.536   1.456   1.522 -0.1789 -1.0374 -1.2554
  363MOL0     H50027   7.610   1.532   1.727 -0.2887 -0.6041  0.3441
  363MOL0     H50028   7.742   1.434   1.647 -1.2154 -1.2753 -0.4518
  363MOL0     H50029   7.700   1.450   1.945 -2.3009 -0.5198 -0.0394
  363MOL0     H50030   7.853   1.415   1.868 -0.1248  1.9377  2.1475
  363MOL0     H50031   7.936   1.615   1.841  0.3098 -0.2673 -1.8052
  363MOL0     H50032   7.791   1.690   1.800 -0.0169 -1.2511 -1.9264
  363MOL0     H50033   7.717   1.716   2.025  0.2206  2.8993  2.0627
  363MOL0     H50034   7.838   1.586   2.074 -1.1055 -1.5629 -2.6596
  363MOL0     H50035   7.921   1.840   1.944 -4.0198 -0.1731 -2.6197
  363MOL0     H50036   8.018   1.721   2.042  0.2356  1.0472  1.8830
  363MOL0     H50037   7.990   1.929   2.158 -0.4687  0.3998  1.2402
  363MOL0     H50038   7.812   1.906   2.167  0.8252  0.3612 -1.6714
  363MOL0     H50039   7.975   1.675   2.256 -1.5009 -0.4292  0.3674
  363MOL0     H50040   7.833   1.741   2.330 -0.5623  1.6087 -0.1251
  363MOL0     H50041   8.116   1.856   2.360 -0.4918  0.4465 -1.5661
  363MOL0     H50042   7.959   1.937   2.419  1.6711  1.1054 -0.7272
  363MOL0     H50043   7.871   1.893   2.632  0.4372  0.3319 -2.4747
  363MOL0     H50044   7.929   1.641   2.936 -1.8175 -2.0568 -2.2282
  363MOL0     H50045   7.816   1.755   2.893  0.5360 -0.2331  2.4868
  363MOL0     H50046   8.030   1.796   3.048 -1.6479 -0.5297  0.1841
  363MOL0     H50047   8.104   1.846   2.903  0.4506 -1.8260 -1.0630
  363MOL0     H50048   8.034   2.042   2.945  3.1473 -3.8286  0.2002
  363MOL0     H50049   7.915   1.990   2.847  1.8469 -1.6358  0.1086
  363MOL0     H50050   7.816   2.115   3.055  1.2678 -0.3320 -2.7293
  363MOL0     H50051   7.754   1.954   3.041 -0.4163  1.3401  0.3294
  363MOL0     H50052   7.610   1.962   3.198  1.2702 -1.0679 -0.4129
  363MOL0     H50053   7.391   2.063   3.447 -1.2153 -0.6083  0.6264
  363MOL0     H50054   7.405   1.889   3.456 -0.1732 -1.4179 -1.2405
  363MOL0     H50055   7.417   1.960   3.301 -0.8330  1.4277  1.0958
  363MOL0     H50056   7.745   2.148   3.940  0.8486 -0.3209  0.2303
  363MOL0     H50057   7.698   2.171   4.174  0.7312 -1.2779  2.2408
  363MOL0     H50058   7.551   2.070   4.497 -0.1479 -0.4573 -0.1911
  363MOL0     H50059   7.694   2.106   4.396  1.1178 -2.1599  0.6704
  363MOL0     H50060   7.505   2.250   4.254 -0.0217 -0.0560 -0.4214
  363MOL0     H50061   7.413   2.203   4.394 -0.2281 -1.8217 -0.4961
  363MOL0     H50062   7.563   2.314   4.552 -0.4003  1.3109 -0.8428
  363MOL0     H50063   7.489   2.420   4.429 -0.1688 -0.1399 -0.7592
  363MOL0     H50064   7.715   2.427   4.317 -1.6660 -1.1007 -1.5998
  363MOL0     H50065   7.775   2.311   4.431 -0.4931  0.3343 -1.5910
  363MOL0     H50066   7.701   2.606   4.470  1.3758  1.1336 -0.1627
  363MOL0     H50067   7.654   2.503   4.594 -2.9559 -1.2511 -3.1921
  363MOL0     H50068   7.894   2.628   4.591 -1.3400  0.5562  0.9166
  363MOL0     H50069   7.915   2.547   4.439 -2.9302  2.5696 -1.0240
  363MOL0     H50070   8.059   2.436   4.631 -0.7508  0.0930  2.6876
  363MOL0     H50071   7.953   2.328   4.563 -1.8114 -0.7428 -0.0641
  363MOL0     H50072   7.941   2.325   4.820  0.1618  0.8924  1.1766
  363MOL0     H50073   7.779   2.366   4.740  1.2618 -3.7673 -2.6051
  363MOL0     H50074   7.445   1.824   4.150 -0.0373 -0.0635 -0.4429
  363MOL0     H50075   7.476   1.807   3.911  0.2653  0.1436  0.7369
  363MOL0     H50076   7.849   2.001   3.633  0.6023 -1.0454 -0.7553
  363MOL0     H50077   7.968   2.034   3.426  0.1489 -1.3420 -1.3927
  363MOL0     H50078   7.503   1.107   1.771  0.1359  2.0588  2.1533
  363MOL0     H50079   7.308   1.034   1.655  1.4020  0.0019  0.7598
  363MOL0     H50080   6.924   1.013   1.435 -0.8965  0.4691  0.4930
  363MOL0     H50081   6.725   0.976   1.294  1.8295 -0.9699  1.1163
  363MOL0     H50082   6.587   0.948   1.022  1.8453  0.8493 -2.7599
  363MOL0     H50083   6.542   1.040   1.167 -4.1578 -0.4208 -0.6960
  363MOL0     H50084   6.392   1.021   0.960 -0.5929  0.8808  1.4023
  363MOL0     H50085   6.504   1.134   0.878  0.1764 -0.3182  0.4777
  363MOL0     H50086   6.379   1.215   1.146 -3.1708  4.6490  0.6544
  363MOL0     H50087   6.445   1.318   1.023 -0.2431  0.8597  1.0432
  363MOL0     H50088   6.260   1.282   0.877  0.3995 -0.4454  0.1268
  363MOL0     H50089   6.198   1.333   1.038 -0.0483 -0.7171  1.3860
  363MOL0     H50090   6.056   0.933   1.038  0.8292 -1.2165  1.3844
  363MOL0     H50091   6.878   1.289   1.029  1.6794 -0.1686 -0.1294
  363MOL0     H50092   7.082   1.452   1.272 -0.4395  0.9926  0.0606
  363MOL0     H50093   7.172   1.340   1.158 -0.2280  0.1981 -1.1219
  363MOL0     H50094   7.044   1.452   1.107 -1.0706 -0.0690  0.1064
  364MOL0     O50095   9.636   3.777   9.215 -0.0315 -0.6092  0.5405
  364MOL0     C50096   9.617   3.774   9.093 -0.1378 -0.2867  0.8608
  364MOL0     O50097   9.505   3.727   9.039 -0.1003 -0.2756  0.2756
  364MOL0     C50098   9.391   3.700   9.113 -0.5410  0.9936  0.0756
  364MOL0     C50099   9.355   3.753   9.231  0.6187 -0.4602 -0.5659
  364MOL0     C50100   9.221   3.730   9.279  0.1807 -0.0133  0.8340
  364MOL0     C50101   9.140   3.635   9.210 -0.8084 -0.3249 -0.1283
  364MOL0     O50102   9.018   3.625   9.261  0.8963  0.9367 -0.3060
  364MOL0     C50103   8.945   3.501   9.252  0.2804  0.0796  1.5004
  364MOL0     C50104   8.971   3.415   9.373  0.6740 -0.1619 -0.3416
  364MOL0     C50105   9.117   3.401   9.424 -0.4403  1.1156  0.0122
  364MOL0     C50106   9.181   3.306   9.328  0.8096 -0.4223  0.0801
  364MOL0     C50107   9.327   3.306   9.350 -0.1805 -0.1033  0.5196
  364MOL0     C50108   9.404   3.258   9.219 -0.0979 -0.7296 -1.0708
  364MOL0     C50109   9.560   3.280   9.222  0.4791  0.1243  0.0401
  364MOL0     C50110   9.590   3.427   9.188  0.6096  0.4776  0.6664
  364MOL0     N50111   9.725   3.442   9.130  0.4971  0.0066 -1.2976
  364MOL0     C50112   9.755   3.458   8.998 -0.7634  2.2640 -0.7515
  364MOL0     C50113   9.892   3.480   8.992 -1.7319 -0.2291 -0.4524
  364MOL0     C50114   9.972   3.493   8.871  0.2444 -0.1428  0.4446
  364MOL0     C50115   9.899   3.429   8.748  0.7941  0.3694 -0.8069
  364MOL0     C50116   9.970   3.427   8.618  0.6117  0.1481  0.2317
  364MOL0     C50117   9.869   3.384   8.509  0.6311 -0.6541 -1.3070
  364MOL0     O50118   9.926   3.333   8.384  0.4734 -0.9591  0.3132
  364MOL0     C50119   9.851   3.240   8.311 -0.7309 -0.0755  0.1322
  364MOL0     C50120   9.927   3.141   8.231 -0.6345  0.6241 -0.2137
  364MOL0     C50121   9.861   3.038   8.174  0.2959 -0.1734  0.7451
  364MOL0     C50122   9.934   2.948   8.083  0.0569  0.2548 -0.2892
  364MOL0     C50123   9.721   3.025   8.191  0.5759  0.6180 -0.9296
  364MOL0     C50124   9.644   2.906   8.125 -0.8545  0.2498 -0.7518
  364MOL0     O50125   9.589   2.817   8.221  0.3298 -0.2811 -0.0222
  364MOL0     C50126   9.519   2.714   8.178  0.1395  0.3579  0.2663
  364MOL0     C50127   9.416   2.676   8.254  1.3681  0.2043 -0.6595
  364MOL0     C50128   9.333   2.562   8.230 -0.3370  0.5721  0.0454
  364MOL0     C50129   9.362   2.490   8.116  0.6918  0.5124  0.3583
  364MOL0     O50130   9.292   2.377   8.085 -0.0876  0.2604  0.3736
  364MOL0     C50131   9.206   2.303   8.173 -0.1929  0.7286 -0.5193
  364MOL0     C50132   9.053   2.346   8.165 -0.9934  0.7123 -0.5713
  364MOL0     C50133   8.981   2.240   8.242  0.8722 -0.6885 -1.1059
  364MOL0     C50134   8.829   2.258   8.239 -0.2306  0.5266 -1.1696
  364MOL0     C50135   8.768   2.252   8.097  0.3035 -0.1659 -0.2499
  364MOL0     C50136   8.615   2.283   8.097  0.4460  0.8676  0.2377
  364MOL0     C50137   8.557   2.322   7.957  0.2493 -0.0913  0.1473
  364MOL0     C50138   8.623   2.446   7.901  0.5792  0.6797  0.8470
  364MOL0    Cl50139   8.628   2.575   8.025 -0.3876 -0.1090 -0.2893
  364MOL0     C50140   9.467   2.526   8.033  0.3031 -0.8422 -0.2888
  364MOL0     C50141   9.546   2.638   8.063 -0.7312 -0.1378  0.6535
  364MOL0     O50142   9.633   2.901   8.006  0.0330 -0.0666  0.1336
  364MOL0     C50143   9.639   3.134   8.234 -0.2492 -0.7795 -0.3869
  364MOL0     C50144   9.711   3.235   8.307 -0.3715  0.0375  0.5612
  364MOL0     N50145   9.939   3.461   9.122 -0.1685 -0.6234  0.6251
  364MOL0     N50146   9.839   3.452   9.207 -0.1719  0.1744  0.8632
  364MOL0     C50147   9.189   3.587   9.091 -0.1341 -0.0899  0.3612
  364MOL0     C50148   9.315   3.608   9.046 -0.0317  0.0199  0.4035
  364MOL0     C50149   9.725   3.800   8.997 -0.8313  0.7251 -0.7079
  364MOL0     C50150   9.690   3.798   8.862 -0.3028 -0.0450 -0.0615
  364MOL0     C50151   9.779   3.825   8.766 -0.7350 -0.4442 -0.2207
  364MOL0     C50152   9.916   3.845   8.798  0.1385 -0.0356  0.1986
  364MOL0     O50153   9.989   3.854   8.683 -0.2657  0.4679  0.2834
  364MOL0     C50154  10.130   3.817   8.675 -0.5660 -0.0763 -0.1198
  364MOL0     C50155  10.221   3.947   8.664 -0.5139 -0.3133  0.5538
  364MOL0     C50156  10.225   4.042   8.789 -0.1465  0.3283  0.2262
  364MOL0     C50157  10.313   4.160   8.792 -0.4217 -1.1963  0.2436
  364MOL0     C50158  10.311   4.235   8.668  0.6318 -0.5130 -0.0275
  364MOL0     C50159  10.303   4.304   8.572 -0.5535 -0.2285 -0.0988
  364MOL0     C50160   9.951   3.865   8.935 -0.0313 -0.4288  0.6849
  364MOL0     C50161   9.859   3.834   9.036  0.4391 -0.4390 -0.4255
  364MOL0     C50162   9.911   3.830   9.178  1.1573  0.2404  0.3032
  364MOL0     H50163   9.414   3.817   9.296  0.1452  0.2083 -0.7829
  364MOL0     H50164   9.178   3.795   9.354 -0.4613  1.7257 -0.9951
  364MOL0     H50165   8.976   3.440   9.166 -3.3954 -0.2423  0.2069
  364MOL0     H50166   8.838   3.513   9.234  0.2494 -0.9567  0.9245
  364MOL0     H50167   8.914   3.459   9.455  1.1988  0.3079 -0.2336
  364MOL0     H50168   8.943   3.310   9.356 -0.6228  0.1286 -0.1122
  364MOL0     H50169   9.153   3.505   9.423 -0.0859  0.9968 -0.7697
  364MOL0     H50170   9.113   3.350   9.520 -1.2004 -1.6586 -1.3793
  364MOL0     H50171   9.135   3.207   9.340 -2.0651  0.5433 -1.8307
  364MOL0     H50172   9.166   3.349   9.228 -1.2843 -1.1670  0.0295
  364MOL0     H50173   9.360   3.245   9.435  4.5635 -1.4625 -1.9456
  364MOL0     H50174   9.365   3.409   9.357  0.8171  0.1596 -4.8193
  364MOL0     H50175   9.397   3.149   9.218 -3.3254 -0.7702  2.7966
  364MOL0     H50176   9.356   3.287   9.125 -0.2955  0.7507 -0.5472
  364MOL0     H50177   9.594   3.219   9.138 -2.0624  0.4440 -1.3168
  364MOL0     H50178   9.611   3.246   9.313 -0.6467  0.8648  0.9780
  364MOL0     H50179   9.526   3.446   9.101  0.0827  0.1537  0.9797
  364MOL0     H50180   9.574   3.490   9.276 -0.5593  3.2136 -1.3630
  364MOL0     H50181   9.677   3.461   8.924 -2.3800 -1.5379  0.5390
  364MOL0     H50182  10.067   3.439   8.877  0.0295 -0.7416 -1.0033
  364MOL0     H50183   9.993   3.599   8.858  0.6942 -0.3911 -1.1530
  364MOL0     H50184   9.871   3.325   8.769  0.7613  0.6916  0.9248
  364MOL0     H50185   9.809   3.487   8.723 -0.7962 -1.3740  0.5996
  364MOL0     H50186  10.010   3.523   8.585  0.0365 -0.5362 -2.6799
  364MOL0     H50187  10.047   3.350   8.622  0.2637 -0.1666  3.2140
  364MOL0     H50188   9.824   3.294   8.553  1.9391 -0.4990  0.4202
  364MOL0     H50189   9.785   3.454   8.518  1.0115 -0.3974  0.8873
  364MOL0     H50190  10.034   3.154   8.219  0.0479 -3.0742  0.6161
  364MOL0     H50191   9.905   2.843   8.091 -0.5851  0.0741 -3.6642
  364MOL0     H50192  10.043   2.940   8.096 -0.1661 -1.8187  0.6782
  364MOL0     H50193   9.916   2.977   7.979  0.7482  2.5010  0.1601
  364MOL0     H50194   9.391   2.734   8.343  3.6005 -0.8172  0.7267
  364MOL0     H50195   9.260   2.516   8.297  0.0889  0.8099  0.6872
  364MOL0     H50196   9.214   2.199   8.141 -3.1910  0.2305  0.0813
  364MOL0     H50197   9.248   2.297   8.274 -0.0006 -0.3601 -0.6543
  364MOL0     H50198   9.044   2.431   8.233 -2.0900 -2.0276  3.0294
  364MOL0     H50199   9.015   2.350   8.063 -3.0925 -3.4358 -0.1550
  364MOL0     H50200   9.009   2.214   8.344  1.0030  0.6496 -0.7910
  364MOL0     H50201   8.983   2.141   8.194 -2.1054 -0.4350 -1.9673
  364MOL0     H50202   8.804   2.359   8.272 -0.1700  1.2880 -3.2869
  364MOL0     H50203   8.782   2.191   8.311  0.3804  1.4137  0.0901
  364MOL0     H50204   8.822   2.320   8.030  2.8243 -0.0309  1.7629
  364MOL0     H50205   8.775   2.157   8.044 -1.0729 -0.1590 -0.4669
  364MOL0     H50206   8.599   2.368   8.164 -1.5811  1.5953 -1.0857
  364MOL0     H50207   8.565   2.195   8.137 -1.1880  1.2174 -0.9607
  364MOL0     H50208   8.450   2.336   7.975 -0.0321 -0.9777 -0.7597
  364MOL0     H50209   8.555   2.242   7.882 -0.0011  1.1435 -1.2010
  364MOL0     H50210   8.570   2.488   7.815  3.2967  2.3425 -0.1800
  364MOL0     H50211   8.725   2.430   7.863  0.6527  2.7003  0.0886
  364MOL0     H50212   9.484   2.464   7.945  0.4153 -0.7776 -0.3127
  364MOL0     H50213   9.628   2.657   7.994  0.2713  1.5776  2.2101
  364MOL0     H50214   9.532   3.139   8.222 -0.4286  1.7727  1.4011
  364MOL0     H50215   9.660   3.316   8.359  2.3028  3.1071 -1.1840
  364MOL0     H50216   9.116   3.530   9.035 -1.7191  1.0062  1.2345
  364MOL0     H50217   9.342   3.558   8.954 -1.6595  1.7217 -1.0659
  364MOL0     H50218   9.589   3.784   8.823 -0.1376  1.5054 -1.1354
  364MOL0     H50219   9.754   3.818   8.661  2.0120 -2.1762 -0.8479
  364MOL0     H50220  10.152   3.762   8.768 -0.9396 -0.8060 -0.4524
  364MOL0     H50221  10.157   3.770   8.580 -0.6016  4.0242 -2.3642
  364MOL0     H50222  10.176   4.009   8.586  0.5904  2.7328  2.2010
  364MOL0     H50223  10.324   3.912   8.645 -1.4396 -1.6498 -2.7729
  364MOL0     H50224  10.123   4.074   8.815 -0.2692  1.8064 -1.8157
  364MOL0     H50225  10.262   3.974   8.866  1.9320 -0.5305 -1.4577
  364MOL0     H50226  10.413   4.117   8.803 -0.2794 -1.9193 -2.8920
  364MOL0     H50227  10.295   4.232   8.873 -1.5772  0.2396 -1.2145
  364MOL0     H50228  10.290   4.346   8.474 -2.0548 -0.8230 -0.1928
  364MOL0     H50229  10.050   3.897   8.966 -0.9500  2.7877  0.6745
  364MOL0     H50230  10.014   3.793   9.179  0.1994 -2.6777  1.1437
  364MOL0     H50231   9.899   3.927   9.227 -4.2234 -0.6445  1.4027
  364MOL0     H50232   9.864   3.750   9.237 -0.3666  0.3974 -0.6490
  365MOL0     O50233   3.057   1.133   6.341  0.2335  0.3324 -0.2898
  365MOL0     C50234   3.069   1.237   6.281 -0.0194  0.5540  0.4333
  365MOL0     O50235   3.026   1.363   6.333  0.2411 -0.3549  0.2188
  365MOL0     C50236   2.961   1.372   6.446  0.0727 -0.2196  0.4918
  365MOL0     C50237   2.827   1.343   6.446 -0.2926 -0.8747 -0.8549
  365MOL0     C50238   2.746   1.380   6.555 -0.0575 -0.0889  0.3031
  365MOL0     C50239   2.799   1.449   6.673 -0.1604  0.0909  0.1820
  365MOL0     O50240   2.748   1.477   6.797  0.1476  0.4558  0.2084
  365MOL0     C50241   2.628   1.400   6.821 -0.3066  0.0732  1.1884
  365MOL0     C50242   2.566   1.411   6.953 -0.0797  0.0578  0.9743
  365MOL0     C50243   2.426   1.465   6.952 -0.0427 -0.1896  0.7769
  365MOL0     C50244   2.397   1.524   7.092  0.7790  0.4617 -0.0200
  365MOL0     C50245   2.386   1.408   7.193  0.4559 -0.9797 -1.5379
  365MOL0     C50246   2.296   1.446   7.312  0.2324 -0.4797  0.6899
  365MOL0     C50247   2.290   1.334   7.414 -0.0485  0.9459  0.8468
  365MOL0     C50248   2.227   1.367   7.550 -0.2739  0.4234  0.8059
  365MOL0     N50249   2.244   1.251   7.631 -0.5921 -0.4771 -0.5944
  365MOL0     C50250   2.156   1.145   7.635 -0.3518 -0.8501  0.3793
  365MOL0     C50251   2.225   1.046   7.696 -0.5025  0.2018  0.2289
  365MOL0     C50252   2.161   0.912   7.715 -0.0359 -0.2906 -0.2293
  365MOL0     C50253   2.121   0.890   7.862  0.8775  0.2397 -0.7364
  365MOL0     C50254   2.066   0.744   7.901  0.5435  0.3038  0.2525
  365MOL0     C50255   2.170   0.645   7.936 -0.5660 -0.1024 -0.4282
  365MOL0     O50256   2.202   0.581   7.813 -0.6621  0.6123  0.3339
  365MOL0     C50257   2.307   0.491   7.829  0.0649  0.3427 -0.2933
  365MOL0     C50258   2.348   0.427   7.952  0.5511  0.1224  0.4726
  365MOL0     C50259   2.432   0.319   7.948  0.4713  0.6975  0.7909
  365MOL0     C50260   2.443   0.236   8.076  0.3588  0.8738 -0.4964
  365MOL0     C50261   2.490   0.277   7.824 -0.6553  1.2688  0.1656
  365MOL0     C50262   2.596   0.169   7.809  0.2010 -0.8912  0.7989
  365MOL0     O50263   2.658   0.174   7.679  1.1775 -0.5068 -0.5437
  365MOL0     C50264   2.763   0.088   7.653 -0.6977  0.4203  0.1537
  365MOL0     C50265   2.887   0.094   7.710  0.7070 -0.3491 -0.2622
  365MOL0     C50266   2.979   0.000   7.679 -0.9538  1.1013 -0.2575
  365MOL0     C50267   2.970  -0.087   7.577  0.1868  0.5763  0.3084
  365MOL0     O50268   3.069  -0.182   7.548  0.6013 -0.3675 -0.0372
  365MOL0     C50269   3.031  -0.312   7.591 -1.1963 -0.3853  0.0622
  365MOL0     C50270   3.137  -0.402   7.535  1.0710  1.1849 -0.5616
  365MOL0     C50271   3.107  -0.444   7.390  0.0245 -0.2300  0.7213
  365MOL0     C50272   3.227  -0.527   7.330  0.3154  0.4143 -0.8391
  365MOL0     C50273   3.264  -0.642   7.430 -0.3981  0.7011 -0.5596
  365MOL0     C50274   3.158  -0.746   7.456 -1.0703  0.2069  0.3687
  365MOL0     C50275   3.079  -0.800   7.330  0.0163  0.0488  0.0027
  365MOL0     C50276   3.019  -0.934   7.364 -0.2356  0.5639  0.3491
  365MOL0    Cl50277   3.141  -1.062   7.393  0.0107 -0.8632 -0.2386
  365MOL0     C50278   2.851  -0.072   7.498  0.2006 -0.5654  0.8632
  365MOL0     C50279   2.747   0.004   7.542 -0.6944  0.7619  0.4185
  365MOL0     O50280   2.624   0.096   7.904 -0.1027  0.2511  0.4069
  365MOL0     C50281   2.450   0.340   7.706  1.4063 -0.3470  0.5301
  365MOL0     C50282   2.350   0.434   7.712  0.6984 -0.1473  0.4406
  365MOL0     N50283   2.342   1.095   7.737 -0.9025  0.4770 -0.6650
  365MOL0     N50284   2.348   1.221   7.704 -0.5788 -0.1346 -0.2008
  365MOL0     C50285   2.938   1.461   6.676  0.0857  0.1228 -0.1951
  365MOL0     C50286   3.019   1.423   6.561  0.7037  0.3653 -0.7013
  365MOL0     C50287   3.137   1.236   6.146  1.5499 -0.5706 -0.2817
  365MOL0     C50288   3.248   1.330   6.125 -0.7129  0.1112  0.4114
  365MOL0     C50289   3.322   1.331   6.002 -0.6692  0.2970 -0.2105
  365MOL0     C50290   3.289   1.246   5.899  0.2465  0.4235  0.3107
  365MOL0     O50291   3.368   1.208   5.787  0.1719 -0.4852  0.2759
  365MOL0     C50292   3.501   1.268   5.776  0.6355  0.5412 -0.3477
  365MOL0     C50293   3.500   1.412   5.741 -0.0570  1.6767 -0.2726
  365MOL0     C50294   3.423   1.448   5.622 -0.2525 -0.1011  0.2680
  365MOL0     C50295   3.445   1.600   5.591 -0.0415 -0.1981 -0.5423
  365MOL0     C50296   3.351   1.689   5.658 -0.4960 -0.5512 -0.5311
  365MOL0     C50297   3.275   1.756   5.729 -0.5627 -1.0246 -0.7573
  365MOL0     C50298   3.169   1.176   5.918 -1.1270 -0.5175  0.1874
  365MOL0     C50299   3.102   1.158   6.037 -0.0169  0.7274 -0.8800
  365MOL0     C50300   2.985   1.062   6.036 -0.2848  0.4379 -0.9475
  365MOL0     H50301   2.784   1.299   6.356 -4.6585  3.8510 -1.5786
  365MOL0     H50302   2.639   1.367   6.545  0.2251 -1.2687 -1.5572
  365MOL0     H50303   2.643   1.296   6.791 -3.9614 -0.3528  0.3438
  365MOL0     H50304   2.546   1.434   6.757  0.2852  0.9466  0.8796
  365MOL0     H50305   2.560   1.314   7.003 -0.5448  0.9483  2.7330
  365MOL0     H50306   2.643   1.471   7.002  0.8255  0.8971 -1.3621
  365MOL0     H50307   2.411   1.549   6.884 -1.4634  0.7575  2.1915
  365MOL0     H50308   2.360   1.386   6.915  1.5922  0.6856 -5.1301
  365MOL0     H50309   2.482   1.589   7.118  0.3591  1.4309 -0.9787
  365MOL0     H50310   2.301   1.575   7.077  0.9966  1.2006  0.9613
  365MOL0     H50311   2.484   1.385   7.235 -0.6729  0.3392  2.2403
  365MOL0     H50312   2.335   1.323   7.147 -3.0060 -1.4521  2.4748
  365MOL0     H50313   2.346   1.529   7.363  2.5712 -1.0227 -0.6061
  365MOL0     H50314   2.194   1.471   7.282  0.3515  0.5074  1.0540
  365MOL0     H50315   2.391   1.292   7.419  0.0075  1.0904  0.9406
  365MOL0     H50316   2.215   1.263   7.377 -1.0999  1.8197  1.2571
  365MOL0     H50317   2.267   1.449   7.610  0.1663  0.1757  0.8520
  365MOL0     H50318   2.123   1.387   7.523  0.1930  1.1069 -0.5468
  365MOL0     H50319   2.064   1.142   7.577  0.1557 -1.4528 -0.4178
  365MOL0     H50320   2.224   0.827   7.688 -0.7585 -0.8203 -0.2725
  365MOL0     H50321   2.068   0.921   7.659  0.8633 -0.4555 -1.7928
  365MOL0     H50322   2.211   0.903   7.924  1.9452 -4.2482 -1.0244
  365MOL0     H50323   2.044   0.966   7.879 -0.7351 -0.6362 -3.5168
  365MOL0     H50324   2.015   0.753   7.997 -0.4857  1.2936 -0.3524
  365MOL0     H50325   1.989   0.713   7.829 -0.3593  1.3477  0.7330
  365MOL0     H50326   2.263   0.696   7.965 -0.2919 -0.1061 -1.2856
  365MOL0     H50327   2.125   0.580   8.012 -0.1965 -0.6818 -0.6993
  365MOL0     H50328   2.317   0.460   8.051 -0.3994 -1.3306  0.6838
  365MOL0     H50329   2.425   0.132   8.048 -2.9477  0.1134  3.5127
  365MOL0     H50330   2.359   0.259   8.142 -0.7965 -1.2104 -1.1721
  365MOL0     H50331   2.539   0.248   8.127 -0.6191  2.7857  1.0479
  365MOL0     H50332   2.898   0.156   7.798 -0.6289 -0.9861  0.3901
  365MOL0     H50333   3.067   0.000   7.741 -2.1664 -1.1953  1.6272
  365MOL0     H50334   3.045  -0.305   7.700 -2.1561  2.1792  0.0913
  365MOL0     H50335   2.929  -0.341   7.565 -1.4807  0.1248  0.5715
  365MOL0     H50336   3.233  -0.349   7.540  1.6550  0.0671  0.6292
  365MOL0     H50337   3.136  -0.483   7.609 -0.6439  0.4945 -1.2871
  365MOL0     H50338   3.089  -0.362   7.321  3.1142 -1.4318 -1.7815
  365MOL0     H50339   3.018  -0.507   7.390 -0.4916  0.4802  1.5449
  365MOL0     H50340   3.298  -0.445   7.316  1.0462 -0.2890 -1.3327
  365MOL0     H50341   3.209  -0.569   7.231 -0.6028  0.7286 -0.8212
  365MOL0     H50342   3.353  -0.686   7.383 -1.9638 -0.2187 -2.8720
  365MOL0     H50343   3.306  -0.603   7.523 -1.7974 -0.6557  0.6828
  365MOL0     H50344   3.091  -0.693   7.524  0.1025  2.4492 -0.1344
  365MOL0     H50345   3.207  -0.825   7.514  2.8103  0.5922 -2.0127
  365MOL0     H50346   3.142  -0.823   7.244  0.5527 -1.4684  0.7735
  365MOL0     H50347   2.998  -0.737   7.290  0.3088 -0.7892 -2.0395
  365MOL0     H50348   2.950  -0.985   7.295  2.6562 -2.1808 -0.7828
  365MOL0     H50349   2.965  -0.922   7.458  2.3653  0.9479  1.8849
  365MOL0     H50350   2.841  -0.132   7.408 -0.9050 -0.5404  0.9570
  365MOL0     H50351   2.655   0.008   7.484 -1.0318  0.7197  0.9452
  365MOL0     H50352   2.490   0.301   7.613  1.5194 -1.8421  1.1736
  365MOL0     H50353   2.313   0.470   7.616 -2.3165 -1.3815  1.0418
  365MOL0     H50354   2.982   1.495   6.769  2.2099  0.3140 -1.1949
  365MOL0     H50355   3.124   1.450   6.563  0.3815  1.6938  1.3716
  365MOL0     H50356   3.267   1.405   6.201 -2.2891  1.9642 -0.9145
  365MOL0     H50357   3.410   1.395   6.002 -1.4645  1.4291  0.8385
  365MOL0     H50358   3.553   1.242   5.868  3.2174 -1.4990 -2.2344
  365MOL0     H50359   3.561   1.218   5.699 -0.0818 -0.9839  0.0514
  365MOL0     H50360   3.605   1.436   5.727  0.6947 -1.2142 -0.1948
  365MOL0     H50361   3.458   1.470   5.825 -1.1859 -1.5152  1.5318
  365MOL0     H50362   3.445   1.381   5.538 -3.7372 -1.5984  0.3967
  365MOL0     H50363   3.317   1.431   5.645 -0.1492 -2.1356 -0.5184
  365MOL0     H50364   3.418   1.596   5.485 -0.3033 -1.1364 -0.4437
  365MOL0     H50365   3.549   1.634   5.600 -0.0754 -0.3558  0.6145
  365MOL0     H50366   3.218   1.812   5.799 -2.5555 -3.1949 -0.5040
  365MOL0     H50367   3.139   1.124   5.828  2.8324 -3.2968  0.1750
  365MOL0     H50368   2.895   1.113   6.070 -0.0028  0.0143  0.5359
  365MOL0     H50369   2.964   1.034   5.932  0.1919 -0.5904 -0.7818
  365MOL0     H50370   3.001   0.978   6.105 -1.0697  0.2053 -1.0446
  366MOL0     O50371   7.910   5.988   9.684  0.5627  0.9040  0.1109
  366MOL0     C50372   7.908   5.963   9.807  0.1623  1.2627  0.5003
  366MOL0     O50373   8.022   5.928   9.881  0.2976 -0.1815  0.0550
  366MOL0     C50374   8.133   6.010   9.861  0.2805  0.9246  0.4538
  366MOL0     C50375   8.126   6.150   9.832  0.5040  0.6904 -0.0228
  366MOL0     C50376   8.236   6.230   9.823 -0.4979 -0.6088  0.5176
  366MOL0     C50377   8.365   6.177   9.821  0.1031 -0.4847 -0.2277
  366MOL0     O50378   8.475   6.261   9.800  0.1930 -0.3998  0.0203
  366MOL0     C50379   8.520   6.344   9.913 -1.2093  0.1267  0.1465
  366MOL0     C50380   8.671   6.371   9.902  0.5433  0.3723 -0.2776
  366MOL0     C50381   8.762   6.245   9.887  0.6930 -0.1810  0.0031
  366MOL0     C50382   8.793   6.186  10.030 -0.7520  0.3524  0.1959
  366MOL0     C50383   8.841   6.042  10.030  0.0903 -0.4777 -0.4875
  366MOL0     C50384   8.733   5.946   9.983 -0.0293  0.2336 -0.2889
  366MOL0     C50385   8.766   5.796  10.007 -0.3228 -0.7541 -0.5481
  366MOL0     C50386   8.694   5.713   9.896  0.0837  0.9117  0.2874
  366MOL0     N50387   8.750   5.580   9.872 -1.0308  0.0865  0.1238
  366MOL0     C50388   8.778   5.480   9.958  0.1383  0.7366 -0.2338
  366MOL0     C50389   8.807   5.372   9.877 -0.7418 -0.0476  0.0866
  366MOL0     C50390   8.855   5.249   9.947  0.1476  0.1900  0.1555
  366MOL0     C50391   8.747   5.181  10.035 -0.6646 -0.9635  0.1618
  366MOL0     C50392   8.778   5.036  10.069  0.1264  0.5516  0.4654
  366MOL0     C50393   8.685   4.967  10.164 -0.4434 -0.4265  0.8864
  366MOL0     O50394   8.655   5.059  10.269 -0.0108 -0.7408  0.8341
  366MOL0     C50395   8.588   4.997  10.371  0.1522 -0.2934 -1.2936
  366MOL0     C50396   8.482   5.064  10.437  1.0411 -0.4663  0.2775
  366MOL0     C50397   8.401   5.029  10.554  0.5172 -0.6708 -1.0852
  366MOL0     C50398   8.281   5.109  10.585 -0.7966 -0.6311  0.2130
  366MOL0     C50399   8.437   4.910  10.615 -0.1074  0.6770 -0.1316
  366MOL0     C50400   8.367   4.847  10.734  0.0664  0.8417  0.2125
  366MOL0     O50401   8.357   4.707  10.743 -0.3322 -0.0205  0.3379
  366MOL0     C50402   8.307   4.660  10.860 -0.6533  0.4258 -0.3436
  366MOL0     C50403   8.389   4.589  10.958 -0.1862 -0.6292 -0.7052
  366MOL0     C50404   8.332   4.540  11.071 -0.0568  0.0963  0.4190
  366MOL0     C50405   8.200   4.561  11.104 -1.3693 -0.0762  0.6651
  366MOL0     O50406   8.154   4.514  11.227  0.0192  0.2144  0.0240
  366MOL0     C50407   8.029   4.558  11.282 -0.9222 -0.0622 -0.0795
  366MOL0     C50408   8.080   4.673  11.374 -0.5964 -0.3118 -0.1037
  366MOL0     C50409   7.953   4.745  11.427 -0.6287 -0.5673  0.9813
  366MOL0     C50410   7.864   4.661  11.508 -0.1193  0.2531 -0.3850
  366MOL0     C50411   7.756   4.752  11.575 -0.2015  0.0686 -0.5668
  366MOL0     C50412   7.686   4.687  11.691  0.4971 -0.2980 -0.0181
  366MOL0     C50413   7.765   4.708  11.818  0.3465  0.3898 -0.1572
  366MOL0     C50414   7.704   4.625  11.934  0.5897  0.2450  1.1503
  366MOL0    Cl50415   7.825   4.577  12.059  0.1398 -0.0405  0.5376
  366MOL0     C50416   8.123   4.615  11.002  0.8717  1.5679  0.1415
  366MOL0     C50417   8.170   4.657  10.880 -1.0732  0.2986 -0.0109
  366MOL0     O50418   8.312   4.923  10.815 -0.1935 -0.3735  0.0902
  366MOL0     C50419   8.544   4.841  10.554  0.0894 -0.4750 -1.1122
  366MOL0     C50420   8.614   4.879  10.444 -0.4592 -0.7418 -0.2292
  366MOL0     N50421   8.804   5.410   9.746  0.2704 -0.2998  0.0750
  366MOL0     N50422   8.764   5.532   9.737  0.7269 -0.4433 -0.6108
  366MOL0     C50423   8.375   6.045   9.859 -0.3997 -0.8732 -0.5962
  366MOL0     C50424   8.260   5.959   9.889  1.2097  0.0926  0.2286
  366MOL0     C50425   7.785   5.976   9.885  0.2973  0.0608 -0.5773
  366MOL0     C50426   7.776   5.907  10.013  0.3154 -0.0127 -0.3709
  366MOL0     C50427   7.661   5.929  10.100 -0.2170  0.4834  0.1885
  366MOL0     C50428   7.562   6.015  10.068  0.5620 -0.0149  0.4472
  366MOL0     O50429   7.453   6.052  10.150  0.0067  0.2314 -0.4605
  366MOL0     C50430   7.435   5.981  10.275 -0.0695  1.0515  0.4363
  366MOL0     C50431   7.306   6.024  10.346  0.2831  0.4147  1.1636
  366MOL0     C50432   7.289   6.173  10.375 -0.2533  0.3623 -0.6225
  366MOL0     C50433   7.383   6.233  10.469 -0.6491 -0.8969  0.4236
  366MOL0     C50434   7.380   6.379  10.445 -0.3191  0.2741 -0.3504
  366MOL0     C50435   7.381   6.498  10.422  0.3605 -0.4832 -0.5760
  366MOL0     C50436   7.574   6.080   9.955 -0.0430 -0.8617  0.1917
  366MOL0     C50437   7.677   6.064   9.859 -0.0748  0.1160 -1.2074
  366MOL0     C50438   7.658   6.134   9.731 -0.3293 -0.3976  1.1861
  366MOL0     H50439   8.036   6.210   9.845  0.1060  0.5017 -1.6496
  366MOL0     H50440   8.233   6.339   9.822  2.6625 -0.4049 -1.6923
  366MOL0     H50441   8.496   6.275   9.994 -5.6871 -0.9312 -1.8065
  366MOL0     H50442   8.465   6.438   9.915  1.2271  1.6405  1.4662
  366MOL0     H50443   8.684   6.443   9.821  0.1599  1.2919  0.4525
  366MOL0     H50444   8.699   6.420   9.996  1.0433  0.0233 -0.2454
  366MOL0     H50445   8.723   6.173   9.815  1.5929  0.1892 -0.8798
  366MOL0     H50446   8.858   6.283   9.852 -0.4897  2.8678 -0.2632
  366MOL0     H50447   8.869   6.240  10.088  0.0482  0.2325 -0.7101
  366MOL0     H50448   8.701   6.179  10.088 -0.9920 -0.2373 -0.2474
  366MOL0     H50449   8.861   6.018  10.135 -1.5435 -3.9477 -0.8255
  366MOL0     H50450   8.931   6.022   9.970  0.0149 -0.0490 -0.7503
  366MOL0     H50451   8.638   5.965  10.035  0.7683 -0.0677  1.3311
  366MOL0     H50452   8.725   5.947   9.873 -0.1364 -2.8487 -0.4116
  366MOL0     H50453   8.748   5.762  10.109  4.1816  2.5320  1.6806
  366MOL0     H50454   8.871   5.767  10.002 -0.8764 -2.7674 -2.1591
  366MOL0     H50455   8.598   5.684   9.941 -0.4163 -2.0948 -2.3549
  366MOL0     H50456   8.679   5.759   9.798  1.4050 -1.3118 -1.0596
  366MOL0     H50457   8.774   5.494  10.066  3.3212  0.5097  0.0076
  366MOL0     H50458   8.946   5.270  10.004  2.0901 -1.1239 -2.2401
  366MOL0     H50459   8.878   5.174   9.871  0.1122  0.7520 -0.4196
  366MOL0     H50460   8.732   5.242  10.124 -0.8142 -4.5250  2.8096
  366MOL0     H50461   8.657   5.193   9.973  0.3977 -2.3280 -1.7509
  366MOL0     H50462   8.779   4.965   9.985 -1.8081  0.2458  0.6687
  366MOL0     H50463   8.879   5.052  10.108  1.2995  1.8971 -2.7905
  366MOL0     H50464   8.596   4.935  10.109  1.3763 -1.3487 -1.6902
  366MOL0     H50465   8.734   4.879  10.207  0.3671 -1.4241 -1.8913
  366MOL0     H50466   8.454   5.157  10.389  0.2888 -0.3678  0.9020
  366MOL0     H50467   8.300   5.156  10.682 -2.2354  0.2063  0.1099
  366MOL0     H50468   8.193   5.045  10.592 -0.4739 -0.9444  1.7487
  366MOL0     H50469   8.257   5.186  10.512 -1.5359 -0.8492  0.2232
  366MOL0     H50470   8.497   4.580  10.948 -0.3626 -0.6419 -3.2493
  366MOL0     H50471   8.372   4.468  11.141 -4.3023 -1.3268  1.7071
  366MOL0     H50472   7.951   4.583  11.209 -0.6200 -0.5517 -0.5750
  366MOL0     H50473   7.991   4.475  11.342 -1.7340 -0.9499 -1.7503
  366MOL0     H50474   8.140   4.620  11.448 -0.0409 -2.1286 -1.7551
  366MOL0     H50475   8.141   4.745  11.318 -3.1689  0.3576 -2.2522
  366MOL0     H50476   7.910   4.792  11.338  0.5815 -3.4597 -1.2796
  366MOL0     H50477   8.003   4.820  11.489  2.6547 -0.2211 -1.7802
  366MOL0     H50478   7.930   4.605  11.574  2.0582  2.7188 -0.3060
  366MOL0     H50479   7.808   4.588  11.450 -2.3584  2.2889 -0.9744
  366MOL0     H50480   7.797   4.850  11.603 -1.3650  0.7222 -1.0750
  366MOL0     H50481   7.682   4.781  11.500 -1.1088 -2.5362 -0.7779
  366MOL0     H50482   7.667   4.581  11.672 -1.4976 -0.2007  1.1237
  366MOL0     H50483   7.586   4.731  11.695 -0.0634 -1.5418 -0.0002
  366MOL0     H50484   7.762   4.814  11.847 -1.2677  0.2323  0.3012
  366MOL0     H50485   7.872   4.693  11.801  0.1033  0.2153 -1.6305
  366MOL0     H50486   7.653   4.542  11.884 -0.2426  1.5416 -0.2569
  366MOL0     H50487   7.628   4.690  11.980 -0.1814  2.0184 -2.2672
  366MOL0     H50488   8.015   4.622  11.010  0.6404 -0.2287 -0.9341
  366MOL0     H50489   8.111   4.707  10.804  0.3718 -0.0237 -1.4185
  366MOL0     H50490   8.562   4.745  10.603 -0.4441  1.8295  4.3577
  366MOL0     H50491   8.691   4.810  10.411  1.2025 -0.2006  2.2455
  366MOL0     H50492   8.471   5.996   9.866  0.1961  0.5241  2.3366
  366MOL0     H50493   8.276   5.854   9.908  3.5269  0.4734  0.6912
  366MOL0     H50494   7.860   5.853  10.056 -1.1305 -2.0933 -0.0522
  366MOL0     H50495   7.659   5.884  10.199 -2.7747  2.9175  1.3553
  366MOL0     H50496   7.439   5.872  10.262  1.8019  0.8006  2.3994
  366MOL0     H50497   7.522   5.997  10.340  1.2415  1.8822 -1.4594
  366MOL0     H50498   7.301   5.956  10.431 -0.8198 -0.6905  0.2458
  366MOL0     H50499   7.223   6.002  10.278 -1.5868  2.6889  2.5422
  366MOL0     H50500   7.302   6.226  10.280 -0.0398  1.4627  0.0099
  366MOL0     H50501   7.183   6.189  10.391  0.2376  3.5237  0.0792
  366MOL0     H50502   7.485   6.195  10.471 -0.6864 -1.0820 -0.5122
  366MOL0     H50503   7.347   6.219  10.571  1.2905 -0.5636  1.1911
  366MOL0     H50504   7.395   6.601  10.396 -2.2890 -0.1976 -1.1980
  366MOL0     H50505   7.500   6.157   9.936  0.2664  0.0612  2.4773
  366MOL0     H50506   7.735   6.212   9.720  0.6653 -1.6775 -1.7954
  366MOL0     H50507   7.668   6.078   9.638 -2.2957  1.6776 -0.4038
  366MOL0     H50508   7.559   6.182   9.730 -0.9320 -1.4852  3.3150
  367MOL0     O50509   0.892   6.121   8.857  0.0948 -0.8348 -0.1074
  367MOL0     C50510   0.972   6.158   8.947 -0.2532  1.1254  0.5355
  367MOL0     O50511   1.108   6.146   8.931 -1.3132 -0.2039  0.2836
  367MOL0     C50512   1.155   6.086   8.817 -0.1802 -0.6061  0.6736
  367MOL0     C50513   1.142   6.160   8.699  0.4549  0.0611  0.4324
  367MOL0     C50514   1.196   6.115   8.573  1.3433 -0.2940  0.2672
  367MOL0     C50515   1.273   5.995   8.575  0.1415  0.3385 -0.4037
  367MOL0     O50516   1.339   5.962   8.457 -0.3883 -0.5287 -0.0489
  367MOL0     C50517   1.482   5.919   8.456  0.4068  0.1302 -0.2022
  367MOL0     C50518   1.579   6.038   8.487 -0.3460 -0.6539 -0.2508
  367MOL0     C50519   1.727   5.996   8.505  0.6983 -0.0621  0.8034
  367MOL0     C50520   1.823   6.101   8.475 -0.1558  0.0859 -0.4468
  367MOL0     C50521   1.964   6.058   8.508 -0.5730 -0.1654  0.6585
  367MOL0     C50522   2.006   5.946   8.410  0.1711  0.1556  0.8845
  367MOL0     C50523   2.158   5.931   8.425 -0.6480 -0.0329 -1.1078
  367MOL0     C50524   2.214   5.824   8.332 -0.5799 -0.4853 -0.4556
  367MOL0     N50525   2.358   5.798   8.345  0.1644 -0.5759 -0.9855
  367MOL0     C50526   2.457   5.851   8.262  0.2590  0.2847 -0.5638
  367MOL0     C50527   2.570   5.848   8.329  0.5140  0.3815  1.0520
  367MOL0     C50528   2.705   5.908   8.300 -0.1134  0.0695  0.1078
  367MOL0     C50529   2.731   6.011   8.415  0.5769  0.1084 -0.0295
  367MOL0     C50530   2.602   6.100   8.429 -0.3188  0.8035  0.5175
  367MOL0     C50531   2.633   6.207   8.535 -0.0760 -0.3231  0.0038
  367MOL0     O50532   2.521   6.285   8.552 -0.8920 -0.3667  0.0384
  367MOL0     C50533   2.413   6.225   8.618 -0.2934  0.1777 -0.0653
  367MOL0     C50534   2.391   6.104   8.689 -0.3347  0.7216  0.8674
  367MOL0     C50535   2.277   6.079   8.759 -0.0298  0.0934 -0.0863
  367MOL0     C50536   2.282   5.940   8.833  0.2152  0.1011 -0.0328
  367MOL0     C50537   2.174   6.175   8.767 -0.3335  0.6232 -0.4019
  367MOL0     C50538   2.067   6.171   8.869  0.4548  0.0891  0.4161
  367MOL0     O50539   1.959   6.260   8.854 -0.5305  0.7828 -0.5713
  367MOL0     C50540   1.852   6.251   8.943  0.1595  0.1498 -0.1189
  367MOL0     C50541   1.864   6.274   9.078  0.9154  0.7670 -0.0436
  367MOL0     C50542   1.751   6.285   9.162 -0.0107  0.2017 -0.1030
  367MOL0     C50543   1.624   6.263   9.117  0.3014  0.6069 -0.1027
  367MOL0     O50544   1.517   6.288   9.198 -0.6416  0.1605 -0.1978
  367MOL0     C50545   1.394   6.361   9.177  0.4523  0.3820  0.5372
  367MOL0     C50546   1.321   6.379   9.317  0.4285  0.6248  0.8354
  367MOL0     C50547   1.359   6.509   9.387 -0.3934  0.4232  0.2513
  367MOL0     C50548   1.324   6.632   9.301 -1.5094  0.0318 -0.5748
  367MOL0     C50549   1.304   6.763   9.375  0.2631  0.0760  0.4837
  367MOL0     C50550   1.177   6.751   9.472  0.0180  0.7052  0.0759
  367MOL0     C50551   1.141   6.888   9.527  0.7333 -0.0458  0.5102
  367MOL0     C50552   1.028   6.891   9.621  0.1709 -0.0315  0.5936
  367MOL0    Cl50553   0.858   6.896   9.555 -0.0437  0.0641  0.0959
  367MOL0     C50554   1.610   6.230   8.985  0.1149 -0.1137  0.3596
  367MOL0     C50555   1.720   6.226   8.902 -1.4476 -1.1077 -0.4965
  367MOL0     O50556   2.072   6.087   8.963  0.3392 -0.9892  0.0501
  367MOL0     C50557   2.192   6.299   8.698 -0.2516 -0.0587  0.5468
  367MOL0     C50558   2.313   6.320   8.626  0.0318 -0.6149  0.3456
  367MOL0     N50559   2.544   5.770   8.447  0.2950 -0.2116 -0.0839
  367MOL0     N50560   2.415   5.741   8.454  0.6669 -0.4928  0.5329
  367MOL0     C50561   1.300   5.927   8.697  0.4707  0.5108 -0.5786
  367MOL0     C50562   1.233   5.965   8.819  0.1965  0.2072  0.1736
  367MOL0     C50563   0.927   6.234   9.060 -0.2373  0.1994  0.0764
  367MOL0     C50564   0.829   6.175   9.139  0.3383 -0.8498 -0.0037
  367MOL0     C50565   0.773   6.243   9.246  0.3599 -1.2258  0.5296
  367MOL0     C50566   0.831   6.364   9.282  0.7267 -0.0603  0.1283
  367MOL0     O50567   0.771   6.419   9.395  0.1594 -0.3652  0.3587
  367MOL0     C50568   0.850   6.486   9.493 -0.3036 -0.7329 -0.0437
  367MOL0     C50569   0.932   6.382   9.575  0.4555 -0.5554 -0.2944
  367MOL0     C50570   1.025   6.434   9.683 -0.4937  0.2503 -0.0280
  367MOL0     C50571   1.111   6.329   9.763  0.6316  0.1617  0.3945
  367MOL0     C50572   1.217   6.402   9.836 -0.1952 -0.3928 -0.1849
  367MOL0     C50573   1.304   6.472   9.890 -0.5882 -0.4336 -0.3704
  367MOL0     C50574   0.927   6.425   9.211 -0.2366  0.7673 -0.6482
  367MOL0     C50575   0.974   6.363   9.096  0.3200 -1.0896 -0.5069
  367MOL0     C50576   1.080   6.442   9.022 -0.0847  0.5753 -0.2899
  367MOL0     H50577   1.094   6.257   8.708  3.5597  1.5534  3.0737
  367MOL0     H50578   1.177   6.174   8.484 -0.5677 -1.9503 -0.5135
  367MOL0     H50579   1.508   5.875   8.359  0.3588  0.3144 -0.2992
  367MOL0     H50580   1.499   5.856   8.543  2.5250  2.5764  1.3010
  367MOL0     H50581   1.568   6.114   8.409 -3.5170 -1.4411 -0.6785
  367MOL0     H50582   1.548   6.084   8.581 -0.3055 -0.4189 -0.3522
  367MOL0     H50583   1.743   5.975   8.611 -0.2588  0.8964  1.1490
  367MOL0     H50584   1.748   5.907   8.444  0.3575 -0.7848  1.7056
  367MOL0     H50585   1.814   6.127   8.369 -0.9224  0.7861 -0.2211
  367MOL0     H50586   1.798   6.187   8.537 -2.1200 -0.0342 -1.0285
  367MOL0     H50587   1.970   6.025   8.612  2.2466  2.7733  1.5618
  367MOL0     H50588   2.028   6.146   8.503 -0.8995  0.1169  1.4249
  367MOL0     H50589   1.965   5.845   8.421 -0.3764 -0.1574 -2.8249
  367MOL0     H50590   1.987   5.970   8.305 -1.2585 -2.4222  0.4676
  367MOL0     H50591   2.171   5.907   8.531 -1.9477  3.6103  0.0552
  367MOL0     H50592   2.215   6.021   8.401 -2.2834  1.0821 -1.0210
  367MOL0     H50593   2.157   5.731   8.344  0.2265 -0.8264  0.8649
  367MOL0     H50594   2.202   5.859   8.229  2.6684  0.6318 -0.5707
  367MOL0     H50595   2.448   5.923   8.181 -0.0111  1.8663  0.7892
  367MOL0     H50596   2.719   5.953   8.201  0.0107 -1.3431 -0.5382
  367MOL0     H50597   2.785   5.834   8.304  0.5364  0.7025 -0.7860
  367MOL0     H50598   2.752   5.965   8.512  3.4696  1.6418  0.1646
  367MOL0     H50599   2.821   6.068   8.391  2.6874 -1.8007  2.7624
  367MOL0     H50600   2.574   6.143   8.333 -0.8054  0.5139  0.5265
  367MOL0     H50601   2.518   6.042   8.468 -1.8608  1.1287 -2.1129
  367MOL0     H50602   2.674   6.160   8.625  0.7361 -2.0530 -1.1992
  367MOL0     H50603   2.703   6.275   8.487  1.5679 -0.8462  1.5674
  367MOL0     H50604   2.468   6.030   8.712  1.2664  1.6012 -1.3184
  367MOL0     H50605   2.330   5.932   8.931  0.3451 -0.0571 -0.1073
  367MOL0     H50606   2.336   5.874   8.764  0.7166  1.5111 -1.0352
  367MOL0     H50607   2.176   5.915   8.844 -0.0052  1.1030  0.2481
  367MOL0     H50608   1.960   6.299   9.120  0.3575 -1.0791  2.5460
  367MOL0     H50609   1.750   6.306   9.268 -2.6769  0.6496 -0.1431
  367MOL0     H50610   1.417   6.455   9.128 -0.0781  0.9968  1.4465
  367MOL0     H50611   1.333   6.299   9.111  1.7914 -1.9013  1.2895
  367MOL0     H50612   1.212   6.375   9.305  0.6389 -2.3714 -1.0615
  367MOL0     H50613   1.347   6.292   9.378 -1.5807 -1.0132 -0.5068
  367MOL0     H50614   1.467   6.513   9.398 -0.4166 -0.3383  0.9333
  367MOL0     H50615   1.303   6.511   9.481 -0.5333  1.9457  0.1505
  367MOL0     H50616   1.231   6.606   9.250 -1.0031 -1.7857 -0.6402
  367MOL0     H50617   1.409   6.640   9.233 -1.8344  1.0447 -0.8722
  367MOL0     H50618   1.387   6.788   9.441 -0.3817 -0.0306  1.3470
  367MOL0     H50619   1.284   6.845   9.306 -1.2414 -1.8312 -1.5323
  367MOL0     H50620   1.206   6.681   9.551  0.6448 -0.1223 -0.8672
  367MOL0     H50621   1.088   6.714   9.419  0.9943 -1.0203 -0.4448
  367MOL0     H50622   1.115   6.957   9.446  1.7662 -1.0889 -0.7396
  367MOL0     H50623   1.228   6.938   9.571  0.8983  0.1980 -0.0834
  367MOL0     H50624   1.041   6.987   9.673  0.3942  1.0505 -1.3782
  367MOL0     H50625   1.040   6.806   9.689  0.0635 -2.3448 -2.0861
  367MOL0     H50626   1.522   6.237   8.922  0.7196  4.0355 -0.3295
  367MOL0     H50627   1.712   6.217   8.794 -0.0540  3.6762 -1.2397
  367MOL0     H50628   2.114   6.375   8.703 -1.1336 -0.9886  1.1235
  367MOL0     H50629   2.327   6.423   8.592  1.3677 -0.2727  1.7965
  367MOL0     H50630   1.369   5.843   8.701  0.8694  0.8524 -0.1347
  367MOL0     H50631   1.250   5.907   8.909  3.2023  1.5481  0.5873
  367MOL0     H50632   0.791   6.073   9.135 -2.8152  0.2694 -2.6882
  367MOL0     H50633   0.694   6.207   9.310 -0.2689 -0.1232  0.3855
  367MOL0     H50634   0.923   6.555   9.449  1.1978 -1.8611  0.6049
  367MOL0     H50635   0.793   6.542   9.567  2.3578  2.1763  0.0037
  367MOL0     H50636   0.992   6.321   9.507 -0.5130 -1.5014 -0.3374
  367MOL0     H50637   0.873   6.305   9.626  2.4310 -1.7255  0.3467
  367MOL0     H50638   1.095   6.504   9.636  0.2123  0.5928  1.4774
  367MOL0     H50639   0.964   6.492   9.753 -0.5820 -1.3633  1.2763
  367MOL0     H50640   1.168   6.259   9.701  1.3186 -0.1621  1.3738
  367MOL0     H50641   1.045   6.258   9.812 -1.0596 -0.9755 -3.1357
  367MOL0     H50642   1.369   6.532   9.951 -0.4607 -1.4649  0.5269
  367MOL0     H50643   0.968   6.522   9.238  2.2159 -0.5276  0.6561
  367MOL0     H50644   1.027   6.530   8.986 -0.4101  0.8216  0.7896
  367MOL0     H50645   1.163   6.449   9.093 -0.1067 -0.1220 -0.1889
  367MOL0     H50646   1.112   6.383   8.935  1.8066 -0.2643  0.9049
  368MOL0     O50647   7.275   1.347   2.848  0.0556  0.7072 -0.5040
  368MOL0     C50648   7.173   1.391   2.900  0.2231 -0.1328  0.0083
  368MOL0     O50649   7.106   1.331   3.004 -0.1002  1.0266  0.4936
  368MOL0     C50650   7.139   1.206   3.036  0.0108  0.4858 -0.6402
  368MOL0     C50651   7.055   1.101   3.011 -0.4246 -0.5960  0.7204
  368MOL0     C50652   7.091   0.975   3.054 -0.3811 -0.0209 -0.4444
  368MOL0     C50653   7.215   0.941   3.120 -0.3245 -0.4171  0.1218
  368MOL0     O50654   7.262   0.828   3.174 -0.4615  0.0063 -0.1158
  368MOL0     C50655   7.165   0.725   3.188 -0.4965 -0.9112  0.6323
  368MOL0     C50656   7.245   0.602   3.250  0.8702 -0.2033  0.4548
  368MOL0     C50657   7.157   0.475   3.258 -0.0963  0.7589  0.0373
  368MOL0     C50658   7.101   0.412   3.126 -0.1106  0.2280 -0.2501
  368MOL0     C50659   6.994   0.314   3.161 -0.1900 -0.2079  0.3432
  368MOL0     C50660   7.046   0.178   3.117  0.9975 -0.1756  0.2173
  368MOL0     C50661   6.940   0.070   3.115  0.4763 -0.9356 -1.0811
  368MOL0     C50662   6.980  -0.054   3.045  0.1707  1.1004  0.0938
  368MOL0     N50663   6.864  -0.145   3.037  0.5267  0.3199  0.5817
  368MOL0     C50664   6.759  -0.154   2.942  0.2057 -0.4622  1.1143
  368MOL0     C50665   6.686  -0.259   2.988  0.8526 -0.5290  0.0983
  368MOL0     C50666   6.581  -0.327   2.905 -0.0650 -0.4186 -0.6921
  368MOL0     C50667   6.435  -0.285   2.945 -0.3343 -0.6263  0.6372
  368MOL0     C50668   6.323  -0.338   2.848 -0.1890 -0.8500 -0.3742
  368MOL0     C50669   6.187  -0.359   2.919  0.1662  0.0472 -0.4697
  368MOL0     O50670   6.191  -0.476   2.993 -0.4346 -0.8768 -0.6984
  368MOL0     C50671   6.077  -0.529   3.047  0.3618 -0.4740  0.2475
  368MOL0     C50672   5.979  -0.459   3.113 -1.4394 -1.1099  0.5729
  368MOL0     C50673   5.874  -0.530   3.161  0.2802  0.3384 -0.0562
  368MOL0     C50674   5.761  -0.447   3.235  0.6038 -0.4238  0.2347
  368MOL0     C50675   5.847  -0.667   3.131 -0.3761  0.0202  0.1119
  368MOL0     C50676   5.730  -0.746   3.171 -0.4471 -0.2141 -0.7661
  368MOL0     O50677   5.713  -0.859   3.087 -0.3422  0.2839  0.1558
  368MOL0     C50678   5.622  -0.957   3.123  0.0912 -0.2058 -0.1679
  368MOL0     C50679   5.634  -1.033   3.246 -0.3556 -0.4853 -0.0681
  368MOL0     C50680   5.533  -1.122   3.281 -0.1725 -0.3714 -0.0838
  368MOL0     C50681   5.434  -1.152   3.191  0.0597  0.2268 -0.4292
  368MOL0     O50682   5.338  -1.249   3.232  0.2479  0.6971  0.1105
  368MOL0     C50683   5.247  -1.308   3.140 -0.1649  0.2921  0.4904
  368MOL0     C50684   5.105  -1.256   3.149  0.2512 -0.1144  0.3113
  368MOL0     C50685   4.998  -1.320   3.051  0.0306  0.7904 -0.6849
  368MOL0     C50686   5.010  -1.301   2.895 -0.3645 -0.1829 -0.6937
  368MOL0     C50687   4.887  -1.328   2.817 -0.0575 -0.8828 -0.9767
  368MOL0     C50688   4.911  -1.277   2.677 -0.1767  0.1218  0.0939
  368MOL0     C50689   4.792  -1.295   2.585  0.5849  0.0071  0.1134
  368MOL0     C50690   4.811  -1.235   2.441  0.7411 -0.0647  0.8747
  368MOL0    Cl50691   4.933  -1.323   2.359  0.0143  0.4310 -0.4002
  368MOL0     C50692   5.428  -1.090   3.070  0.4394 -0.7711  0.9297
  368MOL0     C50693   5.526  -0.992   3.033 -0.1597  0.7335  0.7069
  368MOL0     O50694   5.669  -0.729   3.277  0.0270 -0.3691 -0.4044
  368MOL0     C50695   5.950  -0.737   3.065  0.3346  0.1026  0.2243
  368MOL0     C50696   6.063  -0.664   3.023 -0.1142  0.1129  0.8707
  368MOL0     N50697   6.737  -0.297   3.107  0.6384  1.0473 -0.5526
  368MOL0     N50698   6.836  -0.227   3.143 -0.4611  0.7270 -0.0996
  368MOL0     C50699   7.299   1.052   3.145 -0.4527 -0.2087 -0.2139
  368MOL0     C50700   7.256   1.183   3.108  0.0202 -0.1283 -1.0785
  368MOL0     C50701   7.127   1.524   2.862  0.4125  0.4124  0.8339
  368MOL0     C50702   7.213   1.594   2.776  0.6476 -0.0716  0.5028
  368MOL0     C50703   7.178   1.716   2.725 -0.1300 -0.1164 -0.5819
  368MOL0     C50704   7.052   1.774   2.755  0.4626  0.0537  0.1318
  368MOL0     O50705   7.005   1.899   2.705  0.3815  0.3713 -0.2639
  368MOL0     C50706   7.095   1.978   2.619  0.4878 -0.5002  0.2556
  368MOL0     C50707   7.201   2.068   2.686  0.1417 -0.2164 -0.1584
  368MOL0     C50708   7.149   2.151   2.804 -0.3552 -0.4057 -0.2298
  368MOL0     C50709   7.221   2.281   2.811 -0.9599 -0.3478 -0.3915
  368MOL0     C50710   7.201   2.370   2.691  0.5520 -0.4266  0.1193
  368MOL0     C50711   7.194   2.439   2.593 -0.1833 -0.3894  0.5488
  368MOL0     C50712   6.974   1.707   2.842  0.2801  0.1740  0.6445
  368MOL0     C50713   7.007   1.585   2.900  0.4841 -0.0333  0.1094
  368MOL0     C50714   6.888   1.525   2.978  0.4274  0.4688 -1.4397
  368MOL0     H50715   6.966   1.106   2.949  0.7702  1.9746 -0.9552
  368MOL0     H50716   7.020   0.893   3.048  0.5147 -0.7913 -0.8001
  368MOL0     H50717   7.131   0.692   3.089  0.7080  0.9763 -0.4760
  368MOL0     H50718   7.082   0.750   3.254 -3.5246  1.6972 -3.6347
  368MOL0     H50719   7.331   0.574   3.189  0.4083  3.6499 -2.3433
  368MOL0     H50720   7.271   0.639   3.350 -0.4113  0.4962  0.5547
  368MOL0     H50721   7.223   0.397   3.297 -1.3432 -1.0227 -1.2391
  368MOL0     H50722   7.097   0.495   3.347  0.7231  1.4791  0.4464
  368MOL0     H50723   7.059   0.487   3.058  1.5750 -0.5458 -2.2528
  368MOL0     H50724   7.182   0.368   3.067 -0.7021  0.8332 -1.5772
  368MOL0     H50725   6.905   0.334   3.101  1.4079  5.5393 -0.6783
  368MOL0     H50726   6.979   0.313   3.269  0.9304 -0.8887  0.5175
  368MOL0     H50727   7.071   0.185   3.011  2.3021 -2.3851  0.3041
  368MOL0     H50728   7.131   0.148   3.180  1.7722  0.3686 -0.5425
  368MOL0     H50729   6.848   0.116   3.079 -0.9736  2.9158  5.7810
  368MOL0     H50730   6.916   0.037   3.216 -1.5794  1.1101 -0.8309
  368MOL0     H50731   7.021  -0.035   2.945  0.3721 -2.7646 -0.7175
  368MOL0     H50732   7.058  -0.107   3.102 -1.7033 -1.7952  0.1893
  368MOL0     H50733   6.752  -0.107   2.844  1.3581  0.2479  1.3595
  368MOL0     H50734   6.584  -0.435   2.916  0.9033 -0.4420 -1.1476
  368MOL0     H50735   6.585  -0.306   2.798 -1.3299 -0.7552 -0.8248
  368MOL0     H50736   6.428  -0.313   3.051 -0.0921  3.0928  1.7869
  368MOL0     H50737   6.443  -0.176   2.939  5.6366 -0.6857  0.7460
  368MOL0     H50738   6.306  -0.269   2.765 -3.2950 -1.0189  0.0122
  368MOL0     H50739   6.357  -0.435   2.809 -2.8224 -1.6909 -0.7841
  368MOL0     H50740   6.155  -0.276   2.983  0.2702 -0.9033  0.8648
  368MOL0     H50741   6.110  -0.361   2.842 -1.4344  2.1705  0.9627
  368MOL0     H50742   5.990  -0.356   3.144 -4.6290  0.7417 -3.4991
  368MOL0     H50743   5.765  -0.338   3.223 -1.6784 -0.1663  1.2471
  368MOL0     H50744   5.765  -0.464   3.343 -1.9100  4.0170  1.2681
  368MOL0     H50745   5.661  -0.472   3.199 -0.4852 -1.9759  3.8616
  368MOL0     H50746   5.713  -1.012   3.317 -0.8777  1.8997 -0.1141
  368MOL0     H50747   5.533  -1.176   3.375 -5.1600  0.4488  0.6838
  368MOL0     H50748   5.283  -1.290   3.039  0.6641  2.5437  1.1429
  368MOL0     H50749   5.239  -1.417   3.154 -0.3833  0.4087  1.3500
  368MOL0     H50750   5.067  -1.273   3.250  2.8676  2.8764  1.9989
  368MOL0     H50751   5.113  -1.148   3.132 -0.8950 -0.4959 -3.6478
  368MOL0     H50752   4.895  -1.297   3.079 -0.5167  0.9444 -2.6680
  368MOL0     H50753   5.008  -1.427   3.069 -1.7391  0.7326  0.1841
  368MOL0     H50754   5.091  -1.354   2.844  0.0434  3.0480 -3.8077
  368MOL0     H50755   5.037  -1.196   2.882  2.7208 -0.7664  0.2578
  368MOL0     H50756   4.866  -1.434   2.805  3.6329 -1.6733 -1.6398
  368MOL0     H50757   4.798  -1.279   2.857  1.3837  0.4198  0.8551
  368MOL0     H50758   4.989  -1.344   2.641 -0.0907 -0.1253  0.7284
  368MOL0     H50759   4.939  -1.171   2.680 -3.1480  1.1237 -2.4182
  368MOL0     H50760   4.709  -1.234   2.622 -1.2635 -0.6918 -2.6339
  368MOL0     H50761   4.773  -1.402   2.588  1.1999 -0.0986  0.4712
  368MOL0     H50762   4.848  -1.133   2.456 -1.2248  1.0509 -1.1572
  368MOL0     H50763   4.720  -1.227   2.380 -0.0311  0.2104  2.0351
  368MOL0     H50764   5.335  -1.104   3.015  0.6241  0.5091  0.2559
  368MOL0     H50765   5.507  -0.932   2.944  0.0229  2.5733  1.8575
  368MOL0     H50766   5.945  -0.842   3.037  0.1735  0.4821 -1.2093
  368MOL0     H50767   6.142  -0.711   2.966  0.8900 -0.8255  2.9327
  368MOL0     H50768   7.396   1.040   3.191 -0.4915  1.2582  0.3033
  368MOL0     H50769   7.319   1.269   3.127  0.8349 -1.5558  4.8007
  368MOL0     H50770   7.302   1.546   2.738  1.0602 -0.6663  2.1529
  368MOL0     H50771   7.252   1.764   2.662  3.3373 -2.9599  1.0019
  368MOL0     H50772   7.149   1.925   2.540  0.0240  1.6475 -1.5778
  368MOL0     H50773   7.052   2.058   2.559  4.9961  1.5213 -0.6997
  368MOL0     H50774   7.248   2.130   2.609  1.6211 -0.3927  0.5793
  368MOL0     H50775   7.289   2.009   2.713 -2.4793 -2.5982  4.4855
  368MOL0     H50776   7.043   2.167   2.781  0.5658  0.3571 -4.9884
  368MOL0     H50777   7.161   2.097   2.899  2.3179  0.5375  0.0450
  368MOL0     H50778   7.328   2.258   2.810 -0.8690  0.0681 -1.0259
  368MOL0     H50779   7.188   2.334   2.901 -1.9058  0.1158 -0.9958
  368MOL0     H50780   7.211   2.502   2.508  1.1382 -0.1800  0.9436
  368MOL0     H50781   6.876   1.749   2.857 -0.1973 -0.5355 -0.3781
  368MOL0     H50782   6.839   1.457   2.907  0.0143  0.4677 -1.1599
  368MOL0     H50783   6.902   1.472   3.073 -1.8876  0.9554 -0.7614
  368MOL0     H50784   6.814   1.596   3.016 -0.6241 -0.4243 -1.7208
  369MOL0     O50785   6.107   6.316   1.227  0.4158 -0.4201 -0.0628
  369MOL0     C50786   6.001   6.274   1.181 -0.5151 -0.1988 -0.0205
  369MOL0     O50787   5.985   6.151   1.140  0.2222 -0.0502 -0.3917
  369MOL0     C50788   6.076   6.052   1.135 -0.0221 -0.6266  0.3954
  369MOL0     C50789   6.029   5.930   1.078  0.2162 -0.5776 -0.0894
  369MOL0     C50790   6.112   5.823   1.071  0.0194 -0.2590 -0.3524
  369MOL0     C50791   6.243   5.829   1.106  0.4434  0.4606 -0.9761
  369MOL0     O50792   6.313   5.709   1.095  0.7101 -0.7247  0.2362
  369MOL0     C50793   6.443   5.708   1.150 -1.1588  0.5395 -0.2919
  369MOL0     C50794   6.426   5.698   1.305 -0.5320 -0.8241  0.7557
  369MOL0     C50795   6.563   5.661   1.363 -0.0161 -0.3511  0.0899
  369MOL0     C50796   6.671   5.771   1.350 -0.0304 -0.7735 -0.7578
  369MOL0     C50797   6.792   5.735   1.429  0.8117 -0.4281  0.2241
  369MOL0     C50798   6.905   5.836   1.403  0.4999  0.0964  0.0881
  369MOL0     C50799   7.027   5.786   1.491  0.0591  0.2160 -1.0575
  369MOL0     C50800   7.165   5.838   1.442  0.5242  0.3478 -0.0690
  369MOL0     N50801   7.180   5.974   1.468  0.5330 -0.0458  0.0577
  369MOL0     C50802   7.156   6.038   1.595 -0.7217 -0.0270 -0.4527
  369MOL0     C50803   7.198   6.166   1.581 -0.0422 -0.9236 -0.1776
  369MOL0     C50804   7.190   6.271   1.691 -1.1201  0.8602 -0.0053
  369MOL0     C50805   7.098   6.222   1.795  0.0796 -0.5689  1.1056
  369MOL0     C50806   7.040   6.326   1.884 -0.4864  0.4085 -0.3823
  369MOL0     C50807   7.149   6.377   1.982 -0.0511 -0.1480  0.1509
  369MOL0     O50808   7.222   6.277   2.049 -0.5929 -0.4033  0.2027
  369MOL0     C50809   7.184   6.248   2.182  0.7003  0.2198 -0.5308
  369MOL0     C50810   7.062   6.243   2.231  1.2866  0.2954  1.3357
  369MOL0     C50811   7.025   6.213   2.359  0.1992 -0.4658  0.0159
  369MOL0     C50812   6.880   6.231   2.403  0.2405 -0.9409  0.2252
  369MOL0     C50813   7.131   6.170   2.446  0.6069 -0.1789  0.4033
  369MOL0     C50814   7.112   6.143   2.591  0.2717 -0.4211  0.4920
  369MOL0     O50815   7.217   6.149   2.670 -0.3815  1.0360 -0.1244
  369MOL0     C50816   7.198   6.082   2.790 -0.0390  0.6073 -0.9621
  369MOL0     C50817   7.166   6.160   2.903  0.6721 -0.2729  0.6779
  369MOL0     C50818   7.172   6.106   3.032 -0.1791  0.9738 -0.5707
  369MOL0     C50819   7.209   5.970   3.050 -0.5033 -0.9140  0.1100
  369MOL0     O50820   7.207   5.924   3.181 -0.3549 -0.2168 -0.1597
  369MOL0     C50821   7.326   5.847   3.215  0.4955 -0.7196 -0.1502
  369MOL0     C50822   7.352   5.853   3.365  0.8077  0.1267  0.0791
  369MOL0     C50823   7.443   5.969   3.422 -0.1977  1.0635  0.2895
  369MOL0     C50824   7.383   6.112   3.402 -0.0317 -0.2377  1.0049
  369MOL0     C50825   7.457   6.220   3.474 -0.2762 -0.9245  0.2826
  369MOL0     C50826   7.402   6.375   3.468  0.7761  0.9779 -0.3045
  369MOL0     C50827   7.252   6.381   3.503 -0.1640 -0.4304  0.1231
  369MOL0     C50828   7.228   6.477   3.615 -0.1954 -0.6116 -0.3845
  369MOL0    Cl50829   7.224   6.637   3.538 -0.1064 -0.6242 -0.2530
  369MOL0     C50830   7.220   5.892   2.932 -0.5079 -0.0960 -0.7992
  369MOL0     C50831   7.223   5.948   2.808  0.2321  0.3765  0.4756
  369MOL0     O50832   7.000   6.118   2.628 -0.6437  0.4493  0.1949
  369MOL0     C50833   7.260   6.165   2.393 -0.4066  0.4323  0.6754
  369MOL0     C50834   7.285   6.206   2.261  0.2191  0.5419 -0.1015
  369MOL0     N50835   7.228   6.188   1.449 -0.8682  0.1074 -0.0626
  369MOL0     N50836   7.212   6.075   1.385  0.7181 -0.9428 -0.5307
  369MOL0     C50837   6.298   5.961   1.150 -0.2032  0.3714 -0.2004
  369MOL0     C50838   6.214   6.069   1.164 -0.4355  0.7421 -0.4423
  369MOL0     C50839   5.896   6.372   1.144 -0.3107  0.4120 -0.5683
  369MOL0     C50840   5.778   6.318   1.090  1.0184 -0.2300 -0.4279
  369MOL0     C50841   5.673   6.405   1.042  0.3557  0.7574 -0.1030
  369MOL0     C50842   5.689   6.542   1.052  0.0241 -0.0263  0.2896
  369MOL0     O50843   5.596   6.638   1.010 -1.2082 -0.2510 -0.2347
  369MOL0     C50844   5.497   6.609   0.913 -0.6489  0.2118  0.2318
  369MOL0     C50845   5.566   6.618   0.786  0.0846 -0.8623 -0.0472
  369MOL0     C50846   5.650   6.752   0.755  0.3301 -0.3181 -0.4483
  369MOL0     C50847   5.588   6.889   0.786 -0.2016  0.4370 -0.4471
  369MOL0     C50848   5.646   6.999   0.706  0.0414 -0.4050 -0.5652
  369MOL0     C50849   5.702   7.097   0.653  0.5171  0.7310 -0.5937
  369MOL0     C50850   5.795   6.596   1.119 -1.8257  0.2828  1.0984
  369MOL0     C50851   5.904   6.514   1.160 -0.5817  0.7662 -0.6435
  369MOL0     C50852   6.004   6.575   1.255  0.5240  0.4365  0.6801
  369MOL0     H50853   5.928   5.911   1.043 -0.1718 -0.0252  0.6840
  369MOL0     H50854   6.064   5.728   1.051  0.2362 -0.6824  1.0652
  369MOL0     H50855   6.505   5.793   1.119 -1.9537  0.6256 -1.7676
  369MOL0     H50856   6.491   5.615   1.118  0.5330  1.3955 -0.3752
  369MOL0     H50857   6.388   5.791   1.347  1.3568  1.7145 -2.6445
  369MOL0     H50858   6.348   5.623   1.320 -0.3413 -1.5368 -1.4878
  369MOL0     H50859   6.559   5.629   1.467 -2.5824 -0.2460  0.0929
  369MOL0     H50860   6.607   5.579   1.305 -0.0357  1.7824 -3.2225
  369MOL0     H50861   6.690   5.791   1.244  2.3172  0.1704 -0.2375
  369MOL0     H50862   6.641   5.862   1.403  1.9373 -1.5103  1.8168
  369MOL0     H50863   6.823   5.631   1.421  5.0136  0.7058 -0.9143
  369MOL0     H50864   6.765   5.738   1.535 -0.4502 -1.2268 -0.0545
  369MOL0     H50865   6.945   5.831   1.301  1.9776  1.6802  0.5576
  369MOL0     H50866   6.877   5.936   1.436 -2.1792  0.3455 -2.4515
  369MOL0     H50867   7.032   5.678   1.475  1.4609  0.0009  0.5808
  369MOL0     H50868   7.013   5.802   1.599 -0.3024 -0.6184 -0.9786
  369MOL0     H50869   7.249   5.791   1.494  0.4556  0.3413  0.0369
  369MOL0     H50870   7.180   5.814   1.336  1.8561  3.7656 -0.7819
  369MOL0     H50871   7.136   5.989   1.690  3.3833  0.3127  0.8185
  369MOL0     H50872   7.153   6.370   1.665 -2.1711  2.4872  6.1173
  369MOL0     H50873   7.293   6.270   1.727 -0.9347  1.1959 -0.5267
  369MOL0     H50874   7.016   6.177   1.738  2.2015 -0.1368 -2.6739
  369MOL0     H50875   7.149   6.143   1.849 -0.3828 -1.3394  0.4367
  369MOL0     H50876   6.981   6.404   1.836 -3.0392 -1.2536 -0.1959
  369MOL0     H50877   6.970   6.267   1.945  3.7548 -4.0158  0.9038
  369MOL0     H50878   7.222   6.427   1.919 -1.0656  1.0023 -0.1634
  369MOL0     H50879   7.083   6.439   2.043 -4.9281 -1.9910 -2.6467
  369MOL0     H50880   6.973   6.278   2.180 -1.5497 -1.8523  4.3735
  369MOL0     H50881   6.885   6.306   2.483  0.6678 -0.6337 -0.0845
  369MOL0     H50882   6.832   6.141   2.441 -2.2245  0.6755  1.2502
  369MOL0     H50883   6.821   6.270   2.320  1.1526  0.7079  0.2886
  369MOL0     H50884   7.134   6.260   2.876 -0.9000 -0.9451 -0.1142
  369MOL0     H50885   7.143   6.161   3.121  1.3869 -0.4175  0.8958
  369MOL0     H50886   7.296   5.746   3.186  1.9090 -1.4561  0.8540
  369MOL0     H50887   7.411   5.882   3.156 -1.4580  1.3961 -1.8835
  369MOL0     H50888   7.256   5.856   3.417  2.0248 -0.9693  2.5729
  369MOL0     H50889   7.412   5.765   3.393  2.5955  0.2440 -2.9034
  369MOL0     H50890   7.541   5.980   3.374 -0.1695  3.2440  0.7498
  369MOL0     H50891   7.451   5.942   3.527 -0.0027 -0.3428 -0.0601
  369MOL0     H50892   7.276   6.115   3.425 -0.5397  4.0037 -1.0081
  369MOL0     H50893   7.380   6.123   3.294 -1.8058 -0.5380  0.9934
  369MOL0     H50894   7.479   6.189   3.577  0.4617  0.4130  0.5495
  369MOL0     H50895   7.557   6.221   3.428 -1.3782  0.9051 -2.3294
  369MOL0     H50896   7.410   6.424   3.370  3.9157 -0.1526 -0.7093
  369MOL0     H50897   7.463   6.430   3.540 -1.0042  0.1467  1.9524
  369MOL0     H50898   7.221   6.281   3.533  0.3060 -0.3121  1.0432
  369MOL0     H50899   7.188   6.412   3.420 -1.5960  0.0159  1.3394
  369MOL0     H50900   7.313   6.491   3.682  1.9714 -2.0660 -2.6938
  369MOL0     H50901   7.140   6.458   3.679  1.7967 -1.9775  2.1509
  369MOL0     H50902   7.248   5.787   2.927 -0.6242 -0.3074  1.9005
  369MOL0     H50903   7.254   5.885   2.726  0.5640 -0.4902  1.2483
  369MOL0     H50904   7.342   6.120   2.447  0.9361  1.8311 -0.1012
  369MOL0     H50905   7.380   6.206   2.208 -1.8873  1.0356 -4.2922
  369MOL0     H50906   6.405   5.971   1.166 -0.0306 -1.8995  0.5513
  369MOL0     H50907   6.250   6.167   1.195 -1.3433  0.6969  0.8754
  369MOL0     H50908   5.754   6.212   1.087 -1.7599  0.3400 -1.0929
  369MOL0     H50909   5.590   6.366   0.983  1.5261  0.2185 -1.4611
  369MOL0     H50910   5.458   6.507   0.920 -1.2962  0.4051 -0.4358
  369MOL0     H50911   5.424   6.691   0.915 -0.8893  0.0047  1.7725
  369MOL0     H50912   5.485   6.610   0.712 -0.9864  2.0717  0.6394
  369MOL0     H50913   5.638   6.541   0.759 -1.2514 -0.6071 -5.4196
  369MOL0     H50914   5.748   6.741   0.801  0.8005 -0.5622 -1.4720
  369MOL0     H50915   5.662   6.756   0.646  1.5577  1.5249 -0.2951
  369MOL0     H50916   5.585   6.899   0.895 -0.6860 -0.7764 -0.3310
  369MOL0     H50917   5.481   6.881   0.763 -0.9232 -0.6144  2.7313
  369MOL0     H50918   5.751   7.172   0.594 -0.6914  1.2162 -1.0094
  369MOL0     H50919   5.794   6.702   1.143 -0.0390  1.4021 -2.8248
  369MOL0     H50920   6.103   6.574   1.210  0.4232 -2.0302  0.3897
  369MOL0     H50921   5.972   6.677   1.279 -2.8411 -0.3996  0.2462
  369MOL0     H50922   6.008   6.518   1.348  1.0528  0.0874  0.4472
  370MOL0     O50923   6.363   1.035   6.313  0.0055 -1.0471  0.4163
  370MOL0     C50924   6.241   1.045   6.345 -0.3764 -0.1800  0.4266
  370MOL0     O50925   6.174   0.949   6.399 -0.5995  0.1865 -1.1716
  370MOL0     C50926   6.209   0.818   6.379  0.0869  0.0929  0.3066
  370MOL0     C50927   6.199   0.725   6.483  0.1813 -0.4220 -0.8972
  370MOL0     C50928   6.215   0.588   6.466  0.5687 -0.4062  0.2038
  370MOL0     C50929   6.254   0.535   6.339 -0.1119 -0.6594 -0.1430
  370MOL0     O50930   6.289   0.403   6.315 -0.5228  0.2050  0.0823
  370MOL0     C50931   6.403   0.362   6.392  0.0010  0.2740  1.2363
  370MOL0     C50932   6.414   0.209   6.372  0.2186 -0.5917 -0.9806
  370MOL0     C50933   6.425   0.168   6.231  0.1428  0.1993 -0.3326
  370MOL0     C50934   6.485   0.023   6.212 -0.7417 -0.7786  0.4312
  370MOL0     C50935   6.521   0.008   6.072  1.5918  0.3420  0.9994
  370MOL0     C50936   6.516  -0.139   6.037 -0.3911  0.0210  0.0846
  370MOL0     C50937   6.574  -0.160   5.893 -0.3319 -0.5709  0.1828
  370MOL0     C50938   6.688  -0.266   5.887  0.1304  0.1324 -0.3842
  370MOL0     N50939   6.616  -0.390   5.910 -0.2418  0.0026  0.1751
  370MOL0     C50940   6.544  -0.468   5.825  0.8665 -1.0180 -0.3370
  370MOL0     C50941   6.532  -0.590   5.887  0.2552 -0.2026  0.4955
  370MOL0     C50942   6.463  -0.712   5.834  1.1586  0.0031  0.4951
  370MOL0     C50943   6.548  -0.823   5.784  0.2027  0.5462  0.4177
  370MOL0     C50944   6.637  -0.793   5.666  0.6842 -0.3162 -0.0777
  370MOL0     C50945   6.562  -0.747   5.543  0.7114  0.1794 -0.4207
  370MOL0     O50946   6.430  -0.803   5.520  0.0117  0.9017  0.6108
  370MOL0     C50947   6.390  -0.781   5.390  0.0343 -0.8945 -0.2549
  370MOL0     C50948   6.423  -0.877   5.296  0.1999  0.0607 -0.1411
  370MOL0     C50949   6.382  -0.874   5.160  0.1046 -0.4296 -0.1595
  370MOL0     C50950   6.419  -0.989   5.069  0.4007 -0.3179  0.3004
  370MOL0     C50951   6.316  -0.754   5.119  0.2862  0.3875  0.5987
  370MOL0     C50952   6.240  -0.745   4.984 -0.5513  0.5000 -0.1635
  370MOL0     O50953   6.294  -0.819   4.892  0.3415 -0.3379  0.0643
  370MOL0     C50954   6.217  -0.863   4.786  0.2855  0.7943 -0.3524
  370MOL0     C50955   6.152  -0.992   4.799 -0.3911 -0.1285  0.4607
  370MOL0     C50956   6.083  -1.058   4.704  1.1031 -0.1060 -0.7686
  370MOL0     C50957   6.075  -0.998   4.575 -0.2064  0.8620  0.1075
  370MOL0     O50958   6.007  -1.038   4.461 -0.0732  0.2018  0.5340
  370MOL0     C50959   5.928  -1.153   4.471 -0.1053 -0.4574  0.9054
  370MOL0     C50960   5.884  -1.192   4.323  0.1881 -0.4786 -0.3543
  370MOL0     C50961   5.744  -1.246   4.312 -0.0165 -0.1457 -0.1617
  370MOL0     C50962   5.731  -1.388   4.375 -0.1878  0.4308 -1.2669
  370MOL0     C50963   5.610  -1.456   4.309  0.5071  0.0408  0.1447
  370MOL0     C50964   5.473  -1.432   4.386 -0.5091  0.3524  0.0644
  370MOL0     C50965   5.376  -1.551   4.347  0.2516 -0.2686 -0.6774
  370MOL0     C50966   5.377  -1.670   4.451  0.4678 -0.0171  0.7290
  370MOL0    Cl50967   5.239  -1.781   4.397 -0.3091 -0.0556  0.2904
  370MOL0     C50968   6.134  -0.866   4.553  0.5632 -0.0633  0.9324
  370MOL0     C50969   6.210  -0.803   4.654 -0.0136  0.4863 -0.3531
  370MOL0     O50970   6.142  -0.682   4.974  0.6744  0.4274 -0.1414
  370MOL0     C50971   6.297  -0.643   5.207 -0.4854  0.4349  0.6950
  370MOL0     C50972   6.332  -0.662   5.347  0.3411  0.3611 -0.8200
  370MOL0     N50973   6.580  -0.570   6.022 -0.8659  0.9638  0.4963
  370MOL0     N50974   6.622  -0.448   6.032 -0.6171 -0.2971  0.2303
  370MOL0     C50975   6.263   0.628   6.232 -0.7485  0.0858 -0.6684
  370MOL0     C50976   6.240   0.774   6.251 -0.1363 -0.2390 -0.2617
  370MOL0     C50977   6.169   1.171   6.333  0.3127  0.2306  0.5368
  370MOL0     C50978   6.217   1.262   6.236  0.4026  0.9817 -0.2770
  370MOL0     C50979   6.147   1.390   6.219 -0.8932  0.9856 -0.2709
  370MOL0     C50980   6.042   1.425   6.303  0.5014  0.1778 -1.0793
  370MOL0     O50981   5.991   1.549   6.315  0.8588 -0.0130 -0.4814
  370MOL0     C50982   6.046   1.666   6.249  0.5043  0.1476 -0.0618
  370MOL0     C50983   5.933   1.771   6.237 -0.3914  0.7761  0.3815
  370MOL0     C50984   5.805   1.718   6.155 -0.2491 -0.1127  0.4961
  370MOL0     C50985   5.722   1.824   6.083 -0.1772 -0.0346 -0.0300
  370MOL0     C50986   5.582   1.796   6.086 -0.4953 -0.0907  0.1015
  370MOL0     C50987   5.462   1.802   6.082  0.3122 -0.4171  0.1059
  370MOL0     C50988   5.982   1.328   6.384  0.0381  1.0217  0.1027
  370MOL0     C50989   6.044   1.200   6.409 -0.7818  0.6890 -0.0454
  370MOL0     C50990   5.990   1.118   6.512  0.1061 -0.2370 -0.2478
  370MOL0     H50991   6.186   0.766   6.583 -1.5878  2.4869 -2.1995
  370MOL0     H50992   6.192   0.524   6.551 -0.3265  0.0950  0.3514
  370MOL0     H50993   6.392   0.384   6.498  1.8048  0.6976  1.3686
  370MOL0     H50994   6.494   0.409   6.352 -2.1254  2.7986 -1.0330
  370MOL0     H50995   6.512   0.177   6.409 -0.5525 -3.3986 -1.1461
  370MOL0     H50996   6.329   0.160   6.420  0.1980 -0.0369 -0.4337
  370MOL0     H50997   6.326   0.164   6.184 -0.2876 -0.6246  0.6178
  370MOL0     H50998   6.491   0.232   6.171 -1.2584  1.6857 -0.3442
  370MOL0     H50999   6.572   0.003   6.275 -0.7392 -2.2672 -0.0179
  370MOL0     H51000   6.410  -0.054   6.231  1.0697 -3.0960 -1.1850
  370MOL0     H51001   6.625   0.041   6.061  1.4271  0.5349 -0.1033
  370MOL0     H51002   6.467   0.070   6.000 -0.0678 -1.9011  0.1796
  370MOL0     H51003   6.579  -0.199   6.103  0.0042  0.0279 -0.2812
  370MOL0     H51004   6.415  -0.182   6.041 -0.1341 -0.8587 -1.7755
  370MOL0     H51005   6.612  -0.066   5.854  0.3113 -1.2350 -0.8678
  370MOL0     H51006   6.490  -0.194   5.831 -0.1326  0.7379 -0.8305
  370MOL0     H51007   6.741  -0.270   5.791 -1.2453  0.6361 -1.2078
  370MOL0     H51008   6.757  -0.239   5.967 -1.0441  1.7006  0.1610
  370MOL0     H51009   6.502  -0.451   5.726  1.7651 -1.3260 -0.7761
  370MOL0     H51010   6.390  -0.685   5.756  1.8688  1.5836  0.3390
  370MOL0     H51011   6.410  -0.743   5.924  2.0514 -0.7860  0.7723
  370MOL0     H51012   6.606  -0.853   5.872  3.7687  0.8379 -1.6635
  370MOL0     H51013   6.478  -0.902   5.756  2.0602 -1.0447  0.0474
  370MOL0     H51014   6.715  -0.720   5.687  1.6678 -0.9865 -1.3112
  370MOL0     H51015   6.688  -0.884   5.633  0.7537 -1.0290  1.8634
  370MOL0     H51016   6.559  -0.638   5.542 -1.8231  0.1655 -0.6665
  370MOL0     H51017   6.630  -0.764   5.458  1.9938 -0.9157  0.7602
  370MOL0     H51018   6.482  -0.958   5.337 -2.0351 -0.6286  1.9586
  370MOL0     H51019   6.451  -1.076   5.126  1.2221 -1.3355 -1.6154
  370MOL0     H51020   6.502  -0.955   5.007  0.5814  1.8893  1.6409
  370MOL0     H51021   6.338  -1.015   5.000  2.0704  1.8377 -2.7279
  370MOL0     H51022   6.163  -1.033   4.899  6.7122  0.0249  0.2718
  370MOL0     H51023   6.032  -1.150   4.732  1.4054  0.1300  0.5965
  370MOL0     H51024   5.976  -1.237   4.522 -1.6752 -1.1549  1.3152
  370MOL0     H51025   5.837  -1.129   4.527 -1.1880  1.4232 -1.4427
  370MOL0     H51026   5.895  -1.105   4.258 -2.2857  0.0059 -0.2117
  370MOL0     H51027   5.948  -1.270   4.280  1.3855  0.6935 -0.7476
  370MOL0     H51028   5.722  -1.248   4.205  0.3572 -0.6791 -0.2350
  370MOL0     H51029   5.673  -1.188   4.371  0.7548 -0.0548  0.6873
  370MOL0     H51030   5.713  -1.370   4.481  0.2659  3.5321 -1.6136
  370MOL0     H51031   5.826  -1.441   4.361  0.6412  1.1311  1.1817
  370MOL0     H51032   5.595  -1.429   4.204 -0.1597  3.4816  1.0080
  370MOL0     H51033   5.629  -1.563   4.324 -0.8175  0.0731  2.6698
  370MOL0     H51034   5.417  -1.340   4.366 -0.6561  0.6477  1.6763
  370MOL0     H51035   5.488  -1.433   4.495  0.6657 -0.6167 -0.0935
  370MOL0     H51036   5.397  -1.592   4.248 -2.1095 -1.6738 -0.6617
  370MOL0     H51037   5.274  -1.513   4.350  0.7471  1.1669 -0.9447
  370MOL0     H51038   5.347  -1.625   4.546 -0.9017  1.5676 -0.3916
  370MOL0     H51039   5.476  -1.718   4.454  0.0073 -0.9392  1.7844
  370MOL0     H51040   6.124  -0.829   4.451  1.9470 -1.2476  0.3230
  370MOL0     H51041   6.251  -0.703   4.642 -2.3666  1.8374  1.7832
  370MOL0     H51042   6.279  -0.541   5.177  1.8631  1.2748  1.8398
  370MOL0     H51043   6.328  -0.583   5.421 -0.7388 -1.3598  1.0746
  370MOL0     H51044   6.300   0.580   6.142 -4.0583 -1.2328 -1.4819
  370MOL0     H51045   6.244   0.845   6.169  1.8235  1.3957  1.1398
  370MOL0     H51046   6.298   1.240   6.167 -2.0305  1.0526 -3.4098
  370MOL0     H51047   6.190   1.454   6.142  0.6450  1.1796  0.6961
  370MOL0     H51048   6.127   1.711   6.308  0.7395 -1.6440  1.0494
  370MOL0     H51049   6.096   1.645   6.154  0.3296  0.1671 -0.1603
  370MOL0     H51050   5.966   1.863   6.186 -2.2010  0.6743 -1.0436
  370MOL0     H51051   5.912   1.806   6.339  0.4895  0.7227  0.5925
  370MOL0     H51052   5.840   1.651   6.076  3.9795  1.6244  0.6177
  370MOL0     H51053   5.753   1.649   6.222  1.2539 -1.3721  0.4233
  370MOL0     H51054   5.743   1.843   5.977 -0.8587  3.8856  0.3880
  370MOL0     H51055   5.739   1.920   6.132  1.3563 -0.9175  1.2528
  370MOL0     H51056   5.355   1.807   6.086  0.1121 -2.0740 -1.5148
  370MOL0     H51057   5.882   1.352   6.419 -0.8987 -1.5625 -0.5843
  370MOL0     H51058   6.056   1.077   6.590  1.4313 -0.3624 -1.4032
  370MOL0     H51059   5.911   1.167   6.570 -1.7654  1.2697 -3.7691
  370MOL0     H51060   5.948   1.029   6.464  1.6715 -0.7326 -0.7774
  371MOL0     O51061   1.745   2.414   3.517  0.4970  0.1414  0.1599
  371MOL0     C51062   1.812   2.391   3.426  0.0671 -1.8533 -0.2981
  371MOL0     O51063   1.850   2.269   3.380  0.0349 -0.2087 -0.6212
  371MOL0     C51064   1.783   2.165   3.443  0.7853 -0.2373  0.6282
  371MOL0     C51065   1.651   2.138   3.419 -0.5329 -0.1533  0.7478
  371MOL0     C51066   1.585   2.038   3.483  0.5022 -0.2551 -0.5780
  371MOL0     C51067   1.656   1.944   3.558 -0.8558 -0.7654  0.5814
  371MOL0     O51068   1.599   1.842   3.627 -0.0094 -0.0130 -0.0999
  371MOL0     C51069   1.482   1.780   3.575 -0.3204 -0.0643  0.3511
  371MOL0     C51070   1.470   1.665   3.676  0.3285 -0.0009 -0.1352
  371MOL0     C51071   1.385   1.561   3.607  0.1451 -0.2421  0.2353
  371MOL0     C51072   1.239   1.604   3.609  0.0885 -0.9804 -0.7188
  371MOL0     C51073   1.150   1.488   3.559 -0.0017 -0.6050 -0.8373
  371MOL0     C51074   1.132   1.372   3.662 -0.5060  0.4511  0.3679
  371MOL0     C51075   1.058   1.406   3.789  0.8919 -0.4470 -0.1640
  371MOL0     C51076   1.037   1.285   3.876  0.3088 -0.4340  0.4221
  371MOL0     N51077   0.949   1.302   3.989  0.5999  0.4396  0.3052
  371MOL0     C51078   0.976   1.255   4.111 -0.3201  0.6376  0.0832
  371MOL0     C51079   0.855   1.274   4.176 -0.5009  0.0291 -0.6927
  371MOL0     C51080   0.815   1.213   4.310 -0.6815  1.1144 -0.2488
  371MOL0     C51081   0.695   1.115   4.307  0.2216 -0.3614  0.3611
  371MOL0     C51082   0.566   1.173   4.246 -0.2763  0.0558  0.2723
  371MOL0     C51083   0.507   1.301   4.310 -0.3585 -1.8408  0.2597
  371MOL0     O51084   0.442   1.277   4.443 -0.2048 -0.1398 -0.3516
  371MOL0     C51085   0.328   1.197   4.445 -0.5740 -0.6041 -0.2599
  371MOL0     C51086   0.202   1.249   4.423 -0.1514  1.5590  0.5053
  371MOL0     C51087   0.092   1.160   4.424 -0.1650 -0.1267 -0.2049
  371MOL0     C51088  -0.041   1.229   4.432 -0.6430 -0.1187 -0.5002
  371MOL0     C51089   0.115   1.017   4.434  1.2056 -0.5176  0.1838
  371MOL0     C51090   0.002   0.917   4.434 -0.6119 -0.8590 -0.7486
  371MOL0     O51091   0.024   0.785   4.472  0.1697 -0.3410  0.8924
  371MOL0     C51092  -0.076   0.697   4.452 -0.1774  0.0192 -0.1249
  371MOL0     C51093  -0.113   0.667   4.322  0.7923 -0.2070  0.3255
  371MOL0     C51094  -0.219   0.587   4.288 -0.2990  0.5822 -0.2200
  371MOL0     C51095  -0.292   0.529   4.395 -0.2167  0.0459  0.3248
  371MOL0     O51096  -0.388   0.439   4.354 -0.1803 -0.9004 -0.2925
  371MOL0     C51097  -0.450   0.363   4.459 -0.3362 -1.1166  0.3823
  371MOL0     C51098  -0.502   0.234   4.393 -0.0750  0.8856 -0.1317
  371MOL0     C51099  -0.600   0.156   4.486 -0.8846  0.3652 -0.1425
  371MOL0     C51100  -0.626   0.012   4.451  0.7258 -0.3127 -0.3436
  371MOL0     C51101  -0.719  -0.062   4.555 -0.7040 -0.3537 -0.4347
  371MOL0     C51102  -0.676  -0.204   4.564 -0.6544  1.8242 -0.0321
  371MOL0     C51103  -0.763  -0.277   4.671  0.7074 -0.3111  0.2031
  371MOL0     C51104  -0.740  -0.431   4.689  0.4071 -0.0571 -0.4555
  371MOL0    Cl51105  -0.798  -0.542   4.557  0.0018 -0.3109  0.1160
  371MOL0     C51106  -0.262   0.565   4.525  0.7513 -0.1700 -0.2552
  371MOL0     C51107  -0.156   0.653   4.553  0.6066 -1.1375  0.1997
  371MOL0     O51108  -0.108   0.965   4.397  0.2572  0.0932 -0.4260
  371MOL0     C51109   0.239   0.970   4.464  0.4233 -0.3475  0.4161
  371MOL0     C51110   0.342   1.066   4.475  0.4250 -0.1619 -0.4989
  371MOL0     N51111   0.770   1.351   4.094  0.7535 -0.5288  0.3231
  371MOL0     N51112   0.825   1.366   3.982  0.4169 -0.0054 -0.4375
  371MOL0     C51113   1.794   1.953   3.560  0.9600  0.5269  0.8477
  371MOL0     C51114   1.859   2.065   3.513  0.3234 -0.4912 -0.1566
  371MOL0     C51115   1.878   2.520   3.371  0.2949 -0.2279 -0.3947
  371MOL0     C51116   1.922   2.614   3.461  0.2148  0.1459  1.0311
  371MOL0     C51117   1.997   2.721   3.420 -0.2214  0.0067 -0.4697
  371MOL0     C51118   2.021   2.756   3.287  0.0073  0.4048 -0.5228
  371MOL0     O51119   2.081   2.878   3.252 -0.2326 -0.0341 -0.2210
  371MOL0     C51120   2.033   3.002   3.308  0.3748  0.7371  0.8538
  371MOL0     C51121   1.888   3.036   3.292 -0.2286  0.7371  0.2267
  371MOL0     C51122   1.850   3.173   3.354 -0.7226  0.3881 -0.3306
  371MOL0     C51123   1.758   3.155   3.470  0.4179  0.6094  0.0457
  371MOL0     C51124   1.816   3.089   3.590  1.0329  0.0571 -0.5129
  371MOL0     C51125   1.846   3.019   3.686  0.1538 -0.4834  0.3061
  371MOL0     C51126   1.973   2.659   3.190 -0.1564 -0.0830  0.1411
  371MOL0     C51127   1.904   2.542   3.230 -0.0759  0.1710 -0.2023
  371MOL0     C51128   1.839   2.456   3.121  0.0743  0.4927  0.1758
  371MOL0     H51129   1.599   2.209   3.355  0.9173  1.2700  1.0866
  371MOL0     H51130   1.478   2.024   3.470  0.7630 -1.1026 -2.0858
  371MOL0     H51131   1.518   1.758   3.474  4.7980  2.2948  1.3400
  371MOL0     H51132   1.396   1.847   3.568 -2.6912 -2.8887  0.5494
  371MOL0     H51133   1.564   1.615   3.701 -1.1047 -2.8616 -0.0713
  371MOL0     H51134   1.427   1.707   3.768  3.4775 -1.0959  2.0053
  371MOL0     H51135   1.404   1.553   3.500 -0.4981  4.6783 -0.4587
  371MOL0     H51136   1.402   1.460   3.645 -0.9623 -0.8094 -0.6960
  371MOL0     H51137   1.198   1.631   3.707 -0.8654 -0.3622 -1.2746
  371MOL0     H51138   1.225   1.694   3.548 -0.5409 -0.5579  0.0248
  371MOL0     H51139   1.198   1.455   3.467 -0.7905  1.1399 -1.9193
  371MOL0     H51140   1.048   1.518   3.533  0.0185  0.3156  0.0793
  371MOL0     H51141   1.077   1.289   3.617 -2.2849  1.8208 -0.1110
  371MOL0     H51142   1.236   1.343   3.677  0.8849  3.3008 -2.5580
  371MOL0     H51143   0.962   1.455   3.772 -0.2947 -2.0037  1.6737
  371MOL0     H51144   1.112   1.479   3.850 -1.0565  2.0021 -1.1716
  371MOL0     H51145   0.987   1.213   3.810 -3.8379  4.3927 -2.4734
  371MOL0     H51146   1.135   1.252   3.910  0.8525  1.6352  1.0076
  371MOL0     H51147   1.072   1.221   4.149 -0.7076  2.3385  2.9567
  371MOL0     H51148   0.792   1.300   4.372 -2.0906  2.7121 -2.8592
  371MOL0     H51149   0.898   1.147   4.339 -0.0774  1.8712 -0.2165
  371MOL0     H51150   0.713   1.022   4.254 -0.0414 -1.0975  1.5217
  371MOL0     H51151   0.667   1.081   4.407  2.4209 -1.2396  0.7374
  371MOL0     H51152   0.609   1.185   4.146  1.6797 -4.2277  0.3764
  371MOL0     H51153   0.490   1.094   4.243 -1.2882  0.9688  1.0240
  371MOL0     H51154   0.582   1.380   4.323 -2.7484  0.6596 -0.2654
  371MOL0     H51155   0.436   1.347   4.241  0.7787  0.8258  0.7589
  371MOL0     H51156   0.187   1.356   4.412  1.3301  1.5440 -2.7398
  371MOL0     H51157  -0.108   1.204   4.349 -0.1438 -0.0713 -0.9242
  371MOL0     H51158  -0.030   1.337   4.416  0.2584 -0.2405 -0.7327
  371MOL0     H51159  -0.096   1.221   4.527  1.6239  4.5006  1.5185
  371MOL0     H51160  -0.047   0.706   4.245  2.3127 -0.9002  1.2343
  371MOL0     H51161  -0.248   0.560   4.188  3.3651 -1.2925 -0.9322
  371MOL0     H51162  -0.385   0.327   4.539 -0.9718  1.0677  1.9809
  371MOL0     H51163  -0.525   0.437   4.488  2.5189  1.8976  0.6290
  371MOL0     H51164  -0.554   0.253   4.298 -0.1126  0.5018 -0.1869
  371MOL0     H51165  -0.414   0.174   4.372  2.6457  3.6948  2.2738
  371MOL0     H51166  -0.696   0.207   4.495 -2.0131 -1.6840  0.0700
  371MOL0     H51167  -0.555   0.138   4.584 -0.1553 -0.8942 -0.6760
  371MOL0     H51168  -0.528  -0.034   4.440  0.6104 -0.1821 -2.3743
  371MOL0     H51169  -0.684  -0.005   4.359 -4.1132 -1.5437  2.5533
  371MOL0     H51170  -0.701  -0.021   4.654  0.8741  1.9261 -1.5790
  371MOL0     H51171  -0.827  -0.059   4.535 -1.2875 -1.6839  2.1207
  371MOL0     H51172  -0.568  -0.215   4.582 -0.6107 -1.0466 -1.5448
  371MOL0     H51173  -0.701  -0.245   4.466  0.0946  3.3163 -0.8791
  371MOL0     H51174  -0.868  -0.258   4.647  0.8614 -1.7099 -1.7510
  371MOL0     H51175  -0.739  -0.233   4.769  1.8915 -1.1903  0.3325
  371MOL0     H51176  -0.790  -0.465   4.780  0.1410 -0.4329 -0.7399
  371MOL0     H51177  -0.633  -0.450   4.704  0.1541 -0.8837  0.4233
  371MOL0     H51178  -0.312   0.520   4.611  0.7953  1.1258  0.4783
  371MOL0     H51179  -0.147   0.682   4.657  0.9858 -0.3822 -0.0370
  371MOL0     H51180   0.267   0.866   4.474  0.4946 -0.4559 -0.8038
  371MOL0     H51181   0.445   1.033   4.483  0.7848  0.7333 -1.1876
  371MOL0     H51182   1.840   1.874   3.618 -1.8664 -3.3978 -1.7237
  371MOL0     H51183   1.967   2.057   3.520  0.1704 -1.3830  4.5904
  371MOL0     H51184   1.911   2.604   3.569  1.5164  1.1709  1.2883
  371MOL0     H51185   2.017   2.796   3.496  0.0952  0.5165 -1.0540
  371MOL0     H51186   2.051   3.001   3.416  1.8949 -1.8200  0.6495
  371MOL0     H51187   2.084   3.081   3.252 -0.1808 -1.9946 -4.0531
  371MOL0     H51188   1.825   2.957   3.333  0.9622 -0.6183 -0.4747
  371MOL0     H51189   1.861   3.049   3.187  1.0975  0.8570 -0.1218
  371MOL0     H51190   1.939   3.226   3.387 -0.7438 -0.2314  0.7544
  371MOL0     H51191   1.797   3.227   3.275  3.8298 -1.1819 -5.0220
  371MOL0     H51192   1.679   3.091   3.430  1.3619 -0.8068  0.3748
  371MOL0     H51193   1.714   3.254   3.483 -1.3506  0.0109 -1.0409
  371MOL0     H51194   1.886   2.974   3.775  2.2642  1.7073  0.5544
  371MOL0     H51195   1.992   2.670   3.083  0.9627 -1.6376  0.1464
  371MOL0     H51196   1.867   2.502   3.026  1.8892  1.6137  1.1995
  371MOL0     H51197   1.877   2.355   3.106 -3.3407 -0.7274 -1.0718
  371MOL0     H51198   1.731   2.451   3.136 -0.4075 -0.6782 -2.9880
  372MOL0     O51199   0.757  11.263   7.186 -0.5940 -0.3427 -0.5502
  372MOL0     C51200   0.780  11.343   7.092  0.2751  0.4493 -0.5027
  372MOL0     O51201   0.686  11.397   7.005 -0.5888  0.1943 -0.0024
  372MOL0     C51202   0.569  11.337   6.996 -0.3029  0.8879  0.2760
  372MOL0     C51203   0.454  11.393   7.061  0.8043 -0.0251 -0.0964
  372MOL0     C51204   0.326  11.329   7.043  0.2452 -0.1275 -0.5996
  372MOL0     C51205   0.306  11.215   6.964 -0.2806 -1.5748  0.8771
  372MOL0     O51206   0.192  11.147   6.961 -0.6278  0.9180 -0.3789
  372MOL0     C51207   0.178  11.069   7.077  0.2277  0.8187  0.2555
  372MOL0     C51208   0.041  10.998   7.061  0.6447 -0.6092 -0.6076
  372MOL0     C51209  -0.075  11.101   7.052 -0.0010  0.2551 -0.0808
  372MOL0     C51210  -0.210  11.034   7.060  0.7829 -0.6314 -0.0419
  372MOL0     C51211  -0.335  11.119   7.032 -0.3434 -1.1065 -0.1353
  372MOL0     C51212  -0.318  11.255   7.080  0.1679  0.1604  0.4725
  372MOL0     C51213  -0.456  11.341   7.088 -0.6176  0.3572 -0.5714
  372MOL0     C51214  -0.513  11.390   6.963 -0.6275  0.2009  0.9134
  372MOL0     N51215  -0.630  11.480   6.972  0.2630 -0.5370 -0.2174
  372MOL0     C51216  -0.751  11.434   6.958 -0.1247 -0.4011 -0.4433
  372MOL0     C51217  -0.826  11.544   6.968  0.2519  1.0359 -0.3274
  372MOL0     C51218  -0.969  11.575   6.947  1.1265 -0.3208 -0.3074
  372MOL0     C51219  -1.035  11.613   7.082 -0.4626  0.0630  0.0879
  372MOL0     C51220  -1.181  11.645   7.045  0.2638  0.8784 -0.4723
  372MOL0     C51221  -1.265  11.715   7.164  0.2591  0.1262  0.1117
  372MOL0     O51222  -1.193  11.829   7.207  0.0036  0.2602 -0.3097
  372MOL0     C51223  -1.258  11.921   7.280 -0.0530 -0.6436  0.5249
  372MOL0     C51224  -1.375  11.901   7.349 -0.8309  0.0078 -0.7182
  372MOL0     C51225  -1.434  11.997   7.428 -0.8729  0.0196  0.4472
  372MOL0     C51226  -1.548  11.943   7.503  0.5301  0.9071 -0.1433
  372MOL0     C51227  -1.382  12.125   7.430 -0.6997 -0.0551  0.7025
  372MOL0     C51228  -1.433  12.247   7.503  0.7524 -1.0276 -0.1306
  372MOL0     O51229  -1.359  12.358   7.498  0.3462 -1.0642 -0.4125
  372MOL0     C51230  -1.360  12.453   7.607 -0.7631  0.2031 -0.0409
  372MOL0     C51231  -1.241  12.485   7.671  0.1034 -0.0999 -0.4016
  372MOL0     C51232  -1.224  12.599   7.747  0.2382  0.6919  0.5344
  372MOL0     C51233  -1.333  12.683   7.753  0.1219 -0.6154  0.6164
  372MOL0     O51234  -1.335  12.806   7.812  0.0087 -0.5331 -0.2580
  372MOL0     C51235  -1.238  12.834   7.920  0.5442  0.7975  0.4719
  372MOL0     C51236  -1.228  12.985   7.960  0.0198 -0.5599  0.0673
  372MOL0     C51237  -1.362  13.054   8.004 -0.3187 -0.3765 -0.5441
  372MOL0     C51238  -1.400  13.001   8.143 -0.1055 -0.5627 -0.2914
  372MOL0     C51239  -1.525  13.087   8.198 -0.1925  0.1468  0.3440
  372MOL0     C51240  -1.476  13.230   8.226 -0.1852 -0.2048  0.1085
  372MOL0     C51241  -1.565  13.305   8.332 -0.5649  0.4242  0.7423
  372MOL0     C51242  -1.508  13.437   8.384  0.1171 -0.8519 -0.3031
  372MOL0    Cl51243  -1.606  13.490   8.518 -0.3224 -0.1325 -0.0148
  372MOL0     C51244  -1.462  12.654   7.707  0.8483  0.2339 -0.9099
  372MOL0     C51245  -1.473  12.535   7.631 -0.0871  0.4995  0.4242
  372MOL0     O51246  -1.546  12.240   7.557 -0.3183 -0.2673  0.4790
  372MOL0     C51247  -1.263  12.146   7.356  0.0543  0.1581  0.2693
  372MOL0     C51248  -1.207  12.050   7.279 -0.1547 -0.1931 -1.3895
  372MOL0     N51249  -0.748  11.657   6.996  0.4569 -0.7149  0.1387
  372MOL0     N51250  -0.631  11.614   6.990 -0.5936  0.4129 -0.1704
  372MOL0     C51251   0.419  11.161   6.907 -0.9095  0.0144  0.0263
  372MOL0     C51252   0.549  11.214   6.924 -0.3750 -0.6166  0.2488
  372MOL0     C51253   0.915  11.386   7.062 -1.3953 -0.1651  0.1796
  372MOL0     C51254   0.950  11.407   6.927 -0.1132  0.1075 -0.2406
  372MOL0     C51255   1.082  11.448   6.892  0.2947  0.0208 -0.3342
  372MOL0     C51256   1.169  11.480   6.987  0.6045 -0.3114 -0.8395
  372MOL0     O51257   1.301  11.526   6.958 -0.3719  0.1935 -0.0673
  372MOL0     C51258   1.372  11.451   6.860 -0.6167 -1.0404 -0.0346
  372MOL0     C51259   1.463  11.537   6.777 -0.3521 -0.1271  0.0801
  372MOL0     C51260   1.400  11.598   6.647 -0.0429  0.6265 -0.9075
  372MOL0     C51261   1.278  11.688   6.671 -0.3071 -0.3352 -0.2605
  372MOL0     C51262   1.160  11.683   6.580 -0.1858  0.4448 -0.2596
  372MOL0     C51263   1.066  11.696   6.504 -1.0582  0.4807 -0.6355
  372MOL0     C51264   1.135  11.469   7.119 -0.7495  1.0701  0.0475
  372MOL0     C51265   1.013  11.425   7.162 -0.9762  0.2666  1.0907
  372MOL0     C51266   0.993  11.420   7.316  0.3768  0.3305  0.8231
  372MOL0     H51267   0.460  11.474   7.132  0.7673 -0.4107  0.3492
  372MOL0     H51268   0.252  11.385   7.100 -0.1214 -0.7289 -0.4829
  372MOL0     H51269   0.191  11.120   7.173  1.1648 -0.1654  0.6682
  372MOL0     H51270   0.254  10.990   7.071 -0.7110 -0.0984  0.1029
  372MOL0     H51271   0.033  10.932   6.974 -2.5451 -2.3214  0.7959
  372MOL0     H51272   0.019  10.950   7.156 -1.9837  3.2239  0.9444
  372MOL0     H51273  -0.062  11.167   7.138  4.2652 -2.7414  1.9464
  372MOL0     H51274  -0.064  11.164   6.963  0.8400  3.3397  2.0382
  372MOL0     H51275  -0.211  10.953   6.986 -1.3923  0.4896 -1.3711
  372MOL0     H51276  -0.218  10.993   7.161  0.4636 -1.9807 -0.5855
  372MOL0     H51277  -0.419  11.081   7.091 -3.6499  0.9193 -3.1120
  372MOL0     H51278  -0.362  11.135   6.927 -1.7616  1.2974  0.5282
  372MOL0     H51279  -0.278  11.262   7.181 -1.2407  1.1046  1.0034
  372MOL0     H51280  -0.248  11.301   7.010  2.0824 -2.9491  0.1496
  372MOL0     H51281  -0.435  11.429   7.151 -4.1598  0.2978  0.9316
  372MOL0     H51282  -0.541  11.292   7.136 -2.1460  2.6427 -0.7858
  372MOL0     H51283  -0.436  11.456   6.922  1.0575 -1.9085  0.5034
  372MOL0     H51284  -0.533  11.303   6.900  0.9035 -0.7659  1.6941
  372MOL0     H51285  -0.788  11.333   6.944 -1.6619  0.0099  0.4272
  372MOL0     H51286  -1.019  11.491   6.899  1.7613 -0.0111 -1.5425
  372MOL0     H51287  -0.973  11.664   6.883  1.8163  0.7754  1.0904
  372MOL0     H51288  -1.027  11.533   7.156  0.0839  0.2455  0.2320
  372MOL0     H51289  -0.989  11.704   7.119 -1.2572  0.2219  0.7035
  372MOL0     H51290  -1.185  11.724   6.970  2.4711  1.0685 -0.4546
  372MOL0     H51291  -1.239  11.557   7.016 -1.4889  1.8736 -0.1215
  372MOL0     H51292  -1.368  11.740   7.139  0.6054  1.0233 -0.4780
  372MOL0     H51293  -1.283  11.641   7.243 -1.9387  0.9767  0.4732
  372MOL0     H51294  -1.414  11.802   7.371  0.4566  0.1196  2.8232
  372MOL0     H51295  -1.640  11.988   7.465  0.2044  2.0359  1.8179
  372MOL0     H51296  -1.524  11.955   7.609  0.2926 -1.7660  0.2888
  372MOL0     H51297  -1.563  11.835   7.495  2.5875  0.4873  0.9531
  372MOL0     H51298  -1.158  12.415   7.667 -0.0185 -0.6243  3.1317
  372MOL0     H51299  -1.127  12.614   7.794  0.1267 -0.6038  1.2506
  372MOL0     H51300  -1.280  12.778   8.005 -0.4342  1.1377  0.2254
  372MOL0     H51301  -1.140  12.793   7.896 -0.0834 -1.5515  1.5256
  372MOL0     H51302  -1.164  12.992   8.048  0.2571 -0.7835 -0.0840
  372MOL0     H51303  -1.197  13.032   7.867  1.4679  0.0979  0.8537
  372MOL0     H51304  -1.437  13.049   7.925 -0.3374  2.4735 -0.7946
  372MOL0     H51305  -1.341  13.161   8.001 -1.9895 -0.0116 -0.0858
  372MOL0     H51306  -1.316  13.012   8.212 -2.5890  0.5502  2.7704
  372MOL0     H51307  -1.422  12.894   8.135 -1.0330 -0.5068  1.2141
  372MOL0     H51308  -1.611  13.080   8.130  0.4547 -1.2536 -0.3807
  372MOL0     H51309  -1.560  13.037   8.289 -1.2781  0.0443 -0.1068
  372MOL0     H51310  -1.474  13.294   8.138 -0.1556 -0.3852 -0.0224
  372MOL0     H51311  -1.374  13.224   8.267 -1.6341 -1.5175  4.0013
  372MOL0     H51312  -1.589  13.235   8.413 -2.0375  0.2896  0.2155
  372MOL0     H51313  -1.654  13.336   8.278 -0.2534 -0.4022 -0.2785
  372MOL0     H51314  -1.502  13.503   8.297 -1.1230 -0.2317  0.0650
  372MOL0     H51315  -1.411  13.408   8.426 -0.6673  0.0150  2.3386
  372MOL0     H51316  -1.531  12.737   7.718  1.0035  0.3241 -0.6101
  372MOL0     H51317  -1.559  12.504   7.572 -1.1857  2.4855  0.9057
  372MOL0     H51318  -1.217  12.243   7.373  0.3980 -0.2141  1.5783
  372MOL0     H51319  -1.111  12.069   7.233 -1.6428  0.5414 -4.4554
  372MOL0     H51320   0.416  11.065   6.856 -0.0953  0.2324 -0.4428
  372MOL0     H51321   0.638  11.169   6.882  1.5734  2.5866  0.5869
  372MOL0     H51322   0.876  11.388   6.850 -0.1058  0.8851 -0.4474
  372MOL0     H51323   1.107  11.452   6.786  2.3814  2.4401  0.1246
  372MOL0     H51324   1.450  11.392   6.908  0.3016  0.1464 -0.0150
  372MOL0     H51325   1.324  11.372   6.802  2.5272 -0.9152 -3.0802
  372MOL0     H51326   1.552  11.482   6.746 -1.6537 -2.6874  0.5933
  372MOL0     H51327   1.502  11.614   6.844  1.5599 -0.8088 -0.2086
  372MOL0     H51328   1.482  11.655   6.602  0.0349  1.1913 -0.0910
  372MOL0     H51329   1.371  11.517   6.580 -1.5398  0.6641 -0.3638
  372MOL0     H51330   1.307  11.793   6.665 -3.8268  0.7553 -0.7136
  372MOL0     H51331   1.246  11.679   6.775  0.0761  0.8903 -0.0163
  372MOL0     H51332   0.999  11.681   6.422 -1.7119  0.2974 -0.0755
  372MOL0     H51333   1.206  11.499   7.196 -0.5463 -0.2370  0.3888
  372MOL0     H51334   0.892  11.448   7.345  0.1883 -0.8219  1.3274
  372MOL0     H51335   0.994  11.315   7.348 -4.2909 -0.4967 -1.0459
  372MOL0     H51336   1.076  11.473   7.363  0.9271  0.7805 -0.5876
  373MOL0     O51337   5.015   0.809  11.146  0.1501 -0.4411  0.1439
  373MOL0     C51338   5.134   0.821  11.116  0.3358 -0.0037  1.3840
  373MOL0     O51339   5.232   0.868  11.197 -0.3681  0.0547 -0.2348
  373MOL0     C51340   5.207   0.895  11.328  0.3652 -0.0626  1.0405
  373MOL0     C51341   5.193   1.032  11.370 -0.2044  1.0530  0.5808
  373MOL0     C51342   5.190   1.062  11.506 -0.5684  0.0211 -0.2787
  373MOL0     C51343   5.189   0.959  11.601 -0.7493 -0.0177 -0.1982
  373MOL0     O51344   5.174   0.989  11.739 -0.0199 -0.8653  0.5000
  373MOL0     C51345   5.048   1.039  11.770 -0.0753 -0.1307 -0.1730
  373MOL0     C51346   5.048   1.054  11.922 -0.0353  0.2013 -0.3452
  373MOL0     C51347   5.095   1.190  11.982  0.1427  0.6293  0.2075
  373MOL0     C51348   5.253   1.195  11.981  0.5750  0.9815  0.1105
  373MOL0     C51349   5.297   1.333  12.047 -0.4422  0.0773  0.1647
  373MOL0     C51350   5.453   1.343  12.021  0.8235 -0.5681  0.8025
  373MOL0     C51351   5.529   1.450  12.097  0.4752  0.5788  0.7864
  373MOL0     C51352   5.685   1.418  12.099 -1.2210 -0.5762  0.3549
  373MOL0     N51353   5.755   1.485  11.986 -0.0491  0.6604  0.0879
  373MOL0     C51354   5.779   1.423  11.863  1.0056  0.4204  0.1281
  373MOL0     C51355   5.866   1.504  11.797  0.2606 -0.1575  0.1825
  373MOL0     C51356   5.944   1.483  11.672 -0.8199  0.5132  0.3879
  373MOL0     C51357   5.929   1.332  11.620 -0.0087 -0.4105  0.2900
  373MOL0     C51358   6.021   1.312  11.504  0.4067  0.8231  0.1081
  373MOL0     C51359   5.993   1.183  11.432  0.6616 -0.0417  0.0458
  373MOL0     O51360   6.096   1.131  11.349  1.3964 -0.3918  0.3003
  373MOL0     C51361   6.191   1.043  11.381 -0.9158  0.3523 -0.2163
  373MOL0     C51362   6.286   1.082  11.472  0.2448  0.1253 -0.7922
  373MOL0     C51363   6.406   1.021  11.477 -0.6603  0.1642 -0.0804
  373MOL0     C51364   6.495   1.094  11.567 -0.1742 -0.2878  0.7848
  373MOL0     C51365   6.430   0.900  11.407 -0.4130  0.3553  0.0020
  373MOL0     C51366   6.561   0.830  11.403 -0.4169  0.6197  0.4714
  373MOL0     O51367   6.668   0.905  11.446  0.5030 -0.3284 -0.8994
  373MOL0     C51368   6.790   0.846  11.439 -0.2988  0.0744 -0.5591
  373MOL0     C51369   6.817   0.725  11.509 -0.3787 -0.0369  0.8764
  373MOL0     C51370   6.935   0.653  11.502 -0.6264 -0.6858 -0.2816
  373MOL0     C51371   7.037   0.706  11.423  0.6299 -0.5736 -0.7323
  373MOL0     O51372   7.149   0.637  11.407 -0.3893  0.3451  0.2425
  373MOL0     C51373   7.266   0.674  11.334  0.3257  0.2614 -0.0182
  373MOL0     C51374   7.383   0.572  11.338 -0.4658  0.6868  0.2460
  373MOL0     C51375   7.347   0.436  11.277 -0.5166 -0.2712 -0.0768
  373MOL0     C51376   7.462   0.329  11.283 -0.2964 -0.3843 -0.3501
  373MOL0     C51377   7.433   0.198  11.216  0.3924  0.4596 -0.5528
  373MOL0     C51378   7.304   0.119  11.273  0.1594  0.3322 -0.1426
  373MOL0     C51379   7.316  -0.033  11.246 -0.5608  0.5089  0.1902
  373MOL0     C51380   7.180  -0.106  11.262 -0.1011  0.2706  0.9292
  373MOL0    Cl51381   7.131  -0.116  11.428  0.1633  0.0285 -0.5474
  373MOL0     C51382   7.023   0.831  11.368 -0.0929  0.3378 -0.6014
  373MOL0     C51383   6.898   0.896  11.364 -0.6041 -0.0418 -0.3948
  373MOL0     O51384   6.570   0.720  11.347 -0.0956 -0.5244 -0.6404
  373MOL0     C51385   6.325   0.850  11.329  0.5888  0.0300 -0.1446
  373MOL0     C51386   6.206   0.906  11.316  0.3032 -0.9241 -0.4345
  373MOL0     N51387   5.877   1.619  11.868  0.3443 -0.5520  0.2142
  373MOL0     N51388   5.819   1.612  11.981 -0.0973 -0.8188 -0.5488
  373MOL0     C51389   5.193   0.827  11.556  0.8782  0.5357 -0.1794
  373MOL0     C51390   5.194   0.798  11.419  0.5684  0.3482 -0.5424
  373MOL0     C51391   5.168   0.755  10.989  0.0327  0.6339 -0.1159
  373MOL0     C51392   5.102   0.633  10.957 -0.6830  0.0983  0.2055
  373MOL0     C51393   5.145   0.562  10.843  0.1299 -0.1900 -0.0540
  373MOL0     C51394   5.237   0.612  10.753  0.1476 -0.0636  0.6532
  373MOL0     O51395   5.277   0.536  10.653  0.6660 -0.4945 -0.4143
  373MOL0     C51396   5.394   0.568  10.585 -0.1441 -0.5306  0.8866
  373MOL0     C51397   5.417   0.466  10.477  0.4111  0.2789  0.1940
  373MOL0     C51398   5.464   0.322  10.534 -0.2037  0.1773  0.0962
  373MOL0     C51399   5.599   0.334  10.619 -0.3998 -0.0841 -0.0496
  373MOL0     C51400   5.640   0.194  10.657  0.0561  0.0395  0.0477
  373MOL0     C51401   5.678   0.086  10.701 -0.0123 -0.5167 -0.1724
  373MOL0     C51402   5.310   0.723  10.794 -0.4160 -0.0201  0.3911
  373MOL0     C51403   5.272   0.796  10.910 -0.2043 -0.0724 -0.4946
  373MOL0     C51404   5.348   0.931  10.922 -0.0717  0.2730  0.0519
  373MOL0     H51405   5.197   1.112  11.296  0.1916  1.3979  0.9621
  373MOL0     H51406   5.172   1.162  11.544  2.1467  0.6314 -0.3971
  373MOL0     H51407   4.973   0.965  11.742 -1.0886 -0.0099  2.0076
  373MOL0     H51408   5.017   1.135  11.728 -0.7984 -0.5778 -0.6756
  373MOL0     H51409   4.947   1.038  11.963 -0.8090  3.4626 -0.7463
  373MOL0     H51410   5.111   0.973  11.961  1.4958  1.7434  0.4822
  373MOL0     H51411   5.058   1.272  11.920  0.9807  1.4232  0.7175
  373MOL0     H51412   5.058   1.198  12.085  0.2364  1.2716  0.1955
  373MOL0     H51413   5.300   1.110  12.032  1.1929 -0.1458 -2.1686
  373MOL0     H51414   5.289   1.171  11.880 -1.6804 -1.0392 -0.3254
  373MOL0     H51415   5.276   1.343  12.154  0.7095  1.8737  0.2773
  373MOL0     H51416   5.242   1.416  12.000  1.6350 -0.1488 -2.9861
  373MOL0     H51417   5.498   1.243  12.031  1.7811 -0.3166 -0.7249
  373MOL0     H51418   5.476   1.369  11.917  2.7617 -0.3533  1.2405
  373MOL0     H51419   5.495   1.451  12.201 -2.7510  0.7547 -0.1487
  373MOL0     H51420   5.507   1.550  12.060 -2.1711  1.3082  3.8845
  373MOL0     H51421   5.723   1.452  12.196 -0.4480 -4.2420  1.4977
  373MOL0     H51422   5.709   1.312  12.102  4.7115  0.3863 -0.6243
  373MOL0     H51423   5.764   1.323  11.824  0.8874  0.9612 -1.2553
  373MOL0     H51424   6.051   1.497  11.692 -0.2661 -3.2634  0.7992
  373MOL0     H51425   5.913   1.550  11.592 -1.6504 -0.2647  0.0382
  373MOL0     H51426   5.958   1.265  11.701  1.5089  3.0095  2.8511
  373MOL0     H51427   5.826   1.307  11.592  0.4629 -2.8805  0.5823
  373MOL0     H51428   6.020   1.396  11.434  2.1287  0.8114  0.0409
  373MOL0     H51429   6.122   1.308  11.545  0.4494  2.9180  0.3329
  373MOL0     H51430   5.989   1.102  11.505 -0.4855 -0.4121 -0.4114
  373MOL0     H51431   5.896   1.182  11.381  0.3018  2.1993  0.5703
  373MOL0     H51432   6.279   1.178  11.522 -1.7464 -1.0457  1.3586
  373MOL0     H51433   6.452   1.175  11.627  1.5763  0.6493  0.8458
  373MOL0     H51434   6.563   1.143  11.497  0.2877 -0.9153  0.7893
  373MOL0     H51435   6.558   1.033  11.632  1.8844  1.8376  0.9376
  373MOL0     H51436   6.745   0.692  11.583  0.4937 -0.2792  1.6350
  373MOL0     H51437   6.938   0.561  11.559 -1.8471 -0.5119  0.1012
  373MOL0     H51438   7.231   0.688  11.231  0.7958  0.3076 -0.1749
  373MOL0     H51439   7.303   0.762  11.388  0.2261 -0.5431  1.3923
  373MOL0     H51440   7.462   0.612  11.273 -2.0791  1.2468 -1.4624
  373MOL0     H51441   7.399   0.576  11.446  1.1725 -1.2133  0.1187
  373MOL0     H51442   7.314   0.455  11.174  0.6543  1.3739 -0.1857
  373MOL0     H51443   7.264   0.389  11.329 -0.5793  1.6511  1.6906
  373MOL0     H51444   7.460   0.300  11.388  1.1379 -0.0546 -0.2141
  373MOL0     H51445   7.552   0.377  11.243 -0.1730 -0.3969 -0.0872
  373MOL0     H51446   7.418   0.216  11.109 -0.7765  0.7202 -0.3623
  373MOL0     H51447   7.517   0.128  11.222 -0.6534 -0.8248 -0.4308
  373MOL0     H51448   7.223   0.163  11.213  0.0401  1.7991  1.0148
  373MOL0     H51449   7.278   0.147  11.376 -0.3647  1.3458 -0.5298
  373MOL0     H51450   7.397  -0.070  11.309 -1.4863 -0.4239  0.8715
  373MOL0     H51451   7.344  -0.039  11.140 -1.0308 -0.6405  0.1182
  373MOL0     H51452   7.212  -0.204  11.224  2.0545  1.1130  0.4600
  373MOL0     H51453   7.105  -0.061  11.197  0.3367  0.8902  0.8486
  373MOL0     H51454   7.102   0.867  11.303  0.4632 -0.4904 -0.3938
  373MOL0     H51455   6.898   0.985  11.302  4.3588  0.6312  0.1644
  373MOL0     H51456   6.350   0.758  11.277  2.7877 -0.2951  1.3539
  373MOL0     H51457   6.118   0.877  11.260 -2.2008  2.2980  1.4853
  373MOL0     H51458   5.173   0.750  11.629  1.4550 -0.0656 -0.6390
  373MOL0     H51459   5.220   0.694  11.401  3.2534  0.9629 -0.6708
  373MOL0     H51460   5.023   0.598  11.023 -0.1352  0.1958  0.9362
  373MOL0     H51461   5.118   0.457  10.838  1.6868 -0.6354  0.2063
  373MOL0     H51462   5.384   0.664  10.534  3.0099  1.1726  3.1977
  373MOL0     H51463   5.480   0.590  10.648  0.3645  1.0316 -0.3003
  373MOL0     H51464   5.485   0.510  10.404  1.2589 -1.1299  0.0851
  373MOL0     H51465   5.321   0.456  10.425 -0.3385  3.9450  0.5940
  373MOL0     H51466   5.383   0.282  10.596  1.2619  0.6475  2.4188
  373MOL0     H51467   5.486   0.251  10.454  4.4443  1.9157 -0.4740
  373MOL0     H51468   5.585   0.389  10.712 -0.1329 -2.1011  1.2431
  373MOL0     H51469   5.670   0.389  10.557 -0.7154  0.4813  0.0896
  373MOL0     H51470   5.726  -0.008  10.714 -2.2993 -1.8147 -0.5487
  373MOL0     H51471   5.389   0.760  10.729 -1.4573  0.0147 -0.8881
  373MOL0     H51472   5.457   0.927  10.925 -0.0160  0.8136 -0.7667
  373MOL0     H51473   5.309   0.990  10.838  0.9840  0.4257 -0.3454
  373MOL0     H51474   5.326   0.981  11.016  0.3500  0.4114  0.0767
  374MOL0     O51475   4.107   3.467  10.828  0.0129 -0.4122 -0.7153
  374MOL0     C51476   4.069   3.405  10.731 -0.6216 -0.2384 -0.3061
  374MOL0     O51477   4.136   3.301  10.682  0.0446 -0.2219 -0.2238
  374MOL0     C51478   4.250   3.247  10.740  0.0524  0.8500 -0.1157
  374MOL0     C51479   4.261   3.231  10.871  1.1752  0.0395 -0.9190
  374MOL0     C51480   4.370   3.174  10.940  0.2761  0.2621  0.2899
  374MOL0     C51481   4.477   3.123  10.860 -1.0543  0.8814  0.4600
  374MOL0     O51482   4.588   3.053  10.918  1.0737  0.6980  0.4264
  374MOL0     C51483   4.614   2.921  10.867  0.2873 -0.0245 -0.3519
  374MOL0     C51484   4.748   2.894  10.927 -0.5472 -0.1689 -0.3837
  374MOL0     C51485   4.865   2.963  10.847 -0.3943  0.4276 -0.1881
  374MOL0     C51486   5.000   2.916  10.896  0.5340  0.3192 -0.0727
  374MOL0     C51487   5.110   2.979  10.822 -0.7050  0.6851  0.2672
  374MOL0     C51488   5.253   2.950  10.861 -0.1844 -0.9834  0.0593
  374MOL0     C51489   5.311   3.050  10.973 -0.3177  0.4801 -0.0807
  374MOL0     C51490   5.455   3.007  11.015 -0.5848 -1.2667  0.1796
  374MOL0     N51491   5.534   3.111  11.082  0.8888 -1.3759 -0.2873
  374MOL0     C51492   5.570   3.227  11.026 -0.9398  0.6805  0.2805
  374MOL0     C51493   5.617   3.314  11.115 -0.6887  0.2254 -0.0088
  374MOL0     C51494   5.690   3.439  11.068  0.6025  0.0331 -0.1718
  374MOL0     C51495   5.828   3.465  11.139  0.3952 -0.5797  0.6761
  374MOL0     C51496   5.925   3.535  11.037 -0.5546 -0.0050 -0.4656
  374MOL0     C51497   6.037   3.442  10.983 -0.0872 -0.4016 -0.8609
  374MOL0     O51498   6.160   3.516  10.967  0.2327  0.1064 -0.4177
  374MOL0     C51499   6.266   3.446  10.904 -0.8590 -0.3917  0.6870
  374MOL0     C51500   6.276   3.309  10.888 -0.9747  0.1698  0.3354
  374MOL0     C51501   6.393   3.246  10.829 -0.1993  0.7052 -0.1148
  374MOL0     C51502   6.386   3.088  10.805  0.0612 -0.8098 -0.5093
  374MOL0     C51503   6.510   3.324  10.804 -0.5513  0.4244  0.8685
  374MOL0     C51504   6.644   3.272  10.772 -0.6579 -0.6034  0.3285
  374MOL0     O51505   6.678   3.145  10.795  1.0071 -0.2555 -0.3196
  374MOL0     C51506   6.787   3.076  10.747  0.1915 -0.3789 -0.0666
  374MOL0     C51507   6.799   2.945  10.793 -0.3967  0.0856 -0.1444
  374MOL0     C51508   6.897   2.858  10.747 -0.2616  0.0282 -1.2957
  374MOL0     C51509   6.988   2.900  10.651 -0.2210 -0.4961 -0.4915
  374MOL0     O51510   7.079   2.797  10.609  0.2854 -0.6971 -0.0490
  374MOL0     C51511   7.168   2.831  10.507  0.4664 -0.4912  0.1757
  374MOL0     C51512   7.270   2.716  10.505 -0.3818  0.5038  1.5233
  374MOL0     C51513   7.222   2.614  10.407 -0.0208  1.0494  0.5433
  374MOL0     C51514   7.333   2.496  10.383 -0.0655 -0.6700 -0.4420
  374MOL0     C51515   7.345   2.388  10.486 -0.3579  1.0887  0.1413
  374MOL0     C51516   7.470   2.297  10.449  0.1510 -0.1198  0.3375
  374MOL0     C51517   7.494   2.177  10.539  0.4539 -0.5028 -0.3476
  374MOL0     C51518   7.644   2.132  10.536 -0.2345  0.6020 -0.2191
  374MOL0    Cl51519   7.729   2.261  10.603  0.0185  0.2359  0.3762
  374MOL0     C51520   6.980   3.033  10.599  0.5449 -0.7828  0.1014
  374MOL0     C51521   6.881   3.121  10.647  0.6221  0.1917  0.0299
  374MOL0     O51522   6.715   3.350  10.713 -0.0852  0.0132 -0.4733
  374MOL0     C51523   6.493   3.460  10.830  0.2803 -0.5254 -0.2122
  374MOL0     C51524   6.373   3.519  10.874  0.3590 -0.7560 -0.0373
  374MOL0     N51525   5.588   3.253  11.239 -0.5738 -0.1488  0.0219
  374MOL0     N51526   5.542   3.132  11.213  0.1000  0.1335  0.4811
  374MOL0     C51527   4.473   3.142  10.726 -0.2027  0.5249  0.6015
  374MOL0     C51528   4.358   3.194  10.661 -0.2765  0.2071 -0.5511
  374MOL0     C51529   3.959   3.452  10.649  0.9341 -0.6179 -0.1253
  374MOL0     C51530   3.868   3.547  10.708 -0.0869  0.6820 -1.3646
  374MOL0     C51531   3.751   3.583  10.654  0.0750 -0.1297 -0.8645
  374MOL0     C51532   3.714   3.532  10.536 -0.8346 -0.2740  0.7236
  374MOL0     O51533   3.594   3.561  10.474 -1.1060 -0.5872 -0.1400
  374MOL0     C51534   3.532   3.684  10.501  0.4076 -0.8746 -0.5707
  374MOL0     C51535   3.401   3.691  10.411 -0.0739 -0.6602 -0.6193
  374MOL0     C51536   3.440   3.711  10.260  0.5722 -0.7092 -0.2433
  374MOL0     C51537   3.318   3.732  10.174  0.2259  0.7236  0.4762
  374MOL0     C51538   3.345   3.803  10.052 -0.0591  0.7583  0.1683
  374MOL0     C51539   3.371   3.862   9.950  1.0703 -0.4184 -0.2034
  374MOL0     C51540   3.797   3.437  10.470 -0.0751 -0.2572  0.3134
  374MOL0     C51541   3.915   3.404  10.524  0.6201  0.2142  0.3437
  374MOL0     C51542   3.992   3.302  10.439 -0.1519 -0.1633  0.3720
  374MOL0     H51543   4.174   3.255  10.932  2.4006 -1.3763  1.5510
  374MOL0     H51544   4.364   3.168  11.048  0.6092  0.6252  0.3320
  374MOL0     H51545   4.626   2.903  10.760  0.6908 -3.9014  0.2006
  374MOL0     H51546   4.540   2.850  10.905  0.3546  0.2649  0.3381
  374MOL0     H51547   4.737   2.935  11.028  1.0135 -1.5646  0.4126
  374MOL0     H51548   4.764   2.786  10.934 -1.4760 -0.2301  2.0076
  374MOL0     H51549   4.863   2.930  10.743  3.6349 -0.6839 -0.0776
  374MOL0     H51550   4.855   3.072  10.859 -1.6387  0.3351 -0.2405
  374MOL0     H51551   5.016   2.932  11.003 -0.6241 -1.4402  0.4210
  374MOL0     H51552   5.010   2.810  10.868  0.6935  1.2502 -4.1801
  374MOL0     H51553   5.101   3.088  10.817 -0.4373  0.6706 -1.2780
  374MOL0     H51554   5.102   2.940  10.720  2.3743  0.4092  0.0462
  374MOL0     H51555   5.255   2.848  10.899 -1.1254 -0.8148  0.5845
  374MOL0     H51556   5.317   2.959  10.772 -0.3818 -0.9961 -0.0826
  374MOL0     H51557   5.259   3.053  11.069  1.7922 -0.0450  1.1491
  374MOL0     H51558   5.307   3.155  10.943 -0.6913  0.6895  0.6760
  374MOL0     H51559   5.456   2.920  11.081 -2.3343 -0.2177  1.6595
  374MOL0     H51560   5.510   2.969  10.928 -1.8581 -1.7347 -0.4417
  374MOL0     H51561   5.567   3.238  10.918 -0.3997  1.2298  0.3127
  374MOL0     H51562   5.622   3.522  11.088  0.2689  0.4216 -2.6118
  374MOL0     H51563   5.689   3.432  10.959 -3.3083 -1.4378 -0.1906
  374MOL0     H51564   5.805   3.529  11.224  3.4735  2.2112 -0.3951
  374MOL0     H51565   5.872   3.376  11.186  1.4627  0.6980  2.2242
  374MOL0     H51566   5.875   3.591  10.957  0.5127 -1.9198 -2.5879
  374MOL0     H51567   5.970   3.610  11.103 -3.8213  0.7702  1.1198
  374MOL0     H51568   6.059   3.373  11.065 -0.1221 -0.1705 -0.6554
  374MOL0     H51569   5.995   3.395  10.894  1.1475 -2.1416 -0.5816
  374MOL0     H51570   6.192   3.246  10.915  0.5904 -1.7083  1.1127
  374MOL0     H51571   6.315   3.054  10.881  0.4089  0.8741  0.6228
  374MOL0     H51572   6.487   3.049  10.825  1.1662  2.6285  1.4461
  374MOL0     H51573   6.354   3.048  10.709  1.9688  0.6906 -1.8487
  374MOL0     H51574   6.719   2.907  10.855 -1.9942  2.5143 -0.6007
  374MOL0     H51575   6.894   2.756  10.785  2.7720  0.9646  2.0489
  374MOL0     H51576   7.118   2.855  10.413  2.3474  0.9992 -0.5134
  374MOL0     H51577   7.230   2.919  10.526  0.5774 -0.2023 -1.3672
  374MOL0     H51578   7.369   2.736  10.462 -0.7850 -1.4940 -0.5245
  374MOL0     H51579   7.294   2.675  10.604 -2.0317 -1.1029  1.2941
  374MOL0     H51580   7.193   2.663  10.313 -3.8102 -0.2587  0.8296
  374MOL0     H51581   7.133   2.566  10.450  2.0360 -1.3549  2.4570
  374MOL0     H51582   7.430   2.543  10.366 -0.2390 -0.8643 -2.1190
  374MOL0     H51583   7.320   2.445  10.287 -0.8602 -0.4268 -0.4742
  374MOL0     H51584   7.366   2.445  10.577 -1.5943  0.4273  0.8735
  374MOL0     H51585   7.256   2.326  10.498 -0.3663  1.2174  0.7827
  374MOL0     H51586   7.552   2.369  10.453  0.7543 -0.8325  2.9740
  374MOL0     H51587   7.460   2.258  10.348 -0.3113  2.0569 -0.4971
  374MOL0     H51588   7.439   2.088  10.508  1.0383 -2.5513  3.7237
  374MOL0     H51589   7.466   2.188  10.645 -0.4010  3.0876 -0.8249
  374MOL0     H51590   7.673   2.117  10.432  1.4031 -0.0707  0.3124
  374MOL0     H51591   7.647   2.041  10.597 -3.4003  1.6276  1.7208
  374MOL0     H51592   7.038   3.070  10.516 -0.3849  1.4282  0.3851
  374MOL0     H51593   6.868   3.213  10.591 -0.1182  2.0027  2.9682
  374MOL0     H51594   6.575   3.532  10.824  0.9153 -1.1289  0.7809
  374MOL0     H51595   6.365   3.621  10.907 -0.8560 -0.4873 -1.0793
  374MOL0     H51596   4.556   3.108  10.664 -0.3703 -3.6152  2.3653
  374MOL0     H51597   4.351   3.208  10.553  1.9940 -0.2656 -0.7937
  374MOL0     H51598   3.904   3.591  10.801 -1.2627 -1.5192  0.2402
  374MOL0     H51599   3.689   3.656  10.706  1.9988 -0.1126  1.6350
  374MOL0     H51600   3.496   3.692  10.604 -2.3320  0.1839 -1.5120
  374MOL0     H51601   3.590   3.773  10.474  1.2527 -2.1714 -3.4922
  374MOL0     H51602   3.354   3.782  10.448  0.1107 -0.5606 -0.6276
  374MOL0     H51603   3.327   3.612  10.426  0.3621 -0.9697 -0.0707
  374MOL0     H51604   3.510   3.795  10.263  1.6809 -1.5465 -1.2475
  374MOL0     H51605   3.499   3.621  10.238 -1.4082 -1.8555 -1.1607
  374MOL0     H51606   3.252   3.801  10.228 -0.4467 -0.4317  1.1524
  374MOL0     H51607   3.273   3.636  10.147 -0.4067  1.5337 -1.5823
  374MOL0     H51608   3.398   3.917   9.863 -1.9102  2.4556  0.5154
  374MOL0     H51609   3.756   3.386  10.384 -2.2844 -3.0724  2.7924
  374MOL0     H51610   4.098   3.329  10.436  0.2439 -1.7304 -1.0298
  374MOL0     H51611   4.002   3.203  10.485 -1.4623 -0.0085  1.0284
  374MOL0     H51612   3.954   3.298  10.336 -0.2323  2.1393  0.2535
  375MOL0     O51613   2.801   6.126   4.217 -0.8423 -0.2927  0.2607
  375MOL0     C51614   2.710   6.203   4.242 -0.1766 -0.3070  0.7340
  375MOL0     O51615   2.660   6.296   4.154  0.9627 -0.9755  1.2922
  375MOL0     C51616   2.704   6.288   4.027  0.1089 -0.2468 -0.3148
  375MOL0     C51617   2.788   6.396   3.984  0.5128 -0.2202 -0.1932
  375MOL0     C51618   2.837   6.408   3.855  0.2769  0.3501  0.2230
  375MOL0     C51619   2.814   6.305   3.766 -0.3108  0.8698  0.4462
  375MOL0     O51620   2.884   6.318   3.650  0.1498 -0.1730  0.3399
  375MOL0     C51621   2.819   6.256   3.536 -0.8907 -0.5228  0.5660
  375MOL0     C51622   2.891   6.303   3.410 -0.1278  1.0775 -0.0236
  375MOL0     C51623   2.836   6.256   3.272 -0.2873  0.1038  0.0918
  375MOL0     C51624   2.812   6.100   3.261 -1.0657  0.0805  0.6898
  375MOL0     C51625   2.676   6.058   3.292 -0.2993 -0.1085 -0.4470
  375MOL0     C51626   2.573   6.084   3.184  0.2083  0.1102  0.1061
  375MOL0     C51627   2.432   6.060   3.230  0.1760 -0.1844 -0.3006
  375MOL0     C51628   2.395   5.918   3.247  0.0256  0.2553 -0.0056
  375MOL0     N51629   2.387   5.847   3.119  0.7326  0.3239  0.2602
  375MOL0     C51630   2.473   5.748   3.080 -0.6974 -1.2029 -0.4055
  375MOL0     C51631   2.451   5.738   2.947  0.1110  0.2914 -1.4271
  375MOL0     C51632   2.522   5.660   2.843  0.4002 -0.5321  1.0916
  375MOL0     C51633   2.622   5.747   2.765 -0.1147 -0.1448 -0.5862
  375MOL0     C51634   2.620   5.715   2.618 -0.3078 -0.5408  0.2485
  375MOL0     C51635   2.738   5.777   2.539 -0.4288 -0.5363 -0.4527
  375MOL0     O51636   2.749   5.922   2.569  0.6409  0.1010 -0.3711
  375MOL0     C51637   2.868   5.967   2.598  0.3154  0.0830  0.4057
  375MOL0     C51638   2.890   6.024   2.724 -0.5587  0.1003  0.0031
  375MOL0     C51639   3.020   6.059   2.757 -0.5937  0.9347 -0.3028
  375MOL0     C51640   3.028   6.130   2.882 -0.2845  0.8748  0.1735
  375MOL0     C51641   3.137   6.027   2.679  0.4111 -0.7093 -0.5264
  375MOL0     C51642   3.277   6.064   2.715  0.7368 -0.3972 -0.3757
  375MOL0     O51643   3.372   6.081   2.614 -0.2020  0.4068  0.3198
  375MOL0     C51644   3.450   6.198   2.623  0.5075  0.4641 -0.9308
  375MOL0     C51645   3.555   6.210   2.531  0.2973  0.6338 -0.1822
  375MOL0     C51646   3.629   6.330   2.521  0.1879  0.3665 -0.8295
  375MOL0     C51647   3.602   6.442   2.594  0.1438  0.3880  0.3182
  375MOL0     O51648   3.658   6.567   2.587  0.5744 -0.9204  0.4432
  375MOL0     C51649   3.711   6.607   2.459  0.3066  0.0735  0.3896
  375MOL0     C51650   3.697   6.766   2.454 -1.0152  0.8577  0.3570
  375MOL0     C51651   3.816   6.834   2.526 -0.0422  0.0467 -0.2517
  375MOL0     C51652   3.838   6.789   2.675 -0.8344  0.3672  0.9399
  375MOL0     C51653   3.956   6.841   2.749 -0.2570 -0.0689  0.4601
  375MOL0     C51654   3.959   6.772   2.888  0.7103  0.4956  0.0916
  375MOL0     C51655   4.069   6.812   2.984 -0.6202  0.0303 -0.2227
  375MOL0     C51656   4.105   6.716   3.095  0.8970 -0.4026 -0.1841
  375MOL0    Cl51657   4.019   6.744   3.248 -0.2874  0.2274  0.1638
  375MOL0     C51658   3.497   6.429   2.694 -0.2019  0.0947 -0.0411
  375MOL0     C51659   3.423   6.305   2.709 -0.6395  0.0599 -0.0524
  375MOL0     O51660   3.305   6.053   2.835 -0.1881 -0.2105  0.6709
  375MOL0     C51661   3.113   5.959   2.560 -0.4787  0.3026  0.6412
  375MOL0     C51662   2.982   5.933   2.517 -0.2195 -0.9409 -0.6100
  375MOL0     N51663   2.344   5.814   2.915  0.1237 -0.0409  0.4821
  375MOL0     N51664   2.299   5.872   3.024 -0.5083  0.3767  0.5051
  375MOL0     C51665   2.714   6.209   3.794  1.0084 -0.3297  0.3015
  375MOL0     C51666   2.661   6.195   3.925 -0.0172 -0.8139 -0.3209
  375MOL0     C51667   2.655   6.209   4.382  0.0138 -0.2476  0.1769
  375MOL0     C51668   2.660   6.083   4.447  0.1121 -0.0946  0.4647
  375MOL0     C51669   2.612   6.085   4.583  0.3021 -0.1794 -0.1568
  375MOL0     C51670   2.567   6.203   4.648  0.0575 -0.1001  0.4453
  375MOL0     O51671   2.534   6.231   4.779 -0.0040  0.2823  0.0049
  375MOL0     C51672   2.607   6.150   4.877 -0.7556 -0.6782 -1.3642
  375MOL0     C51673   2.751   6.221   4.899 -1.3668 -1.3029  0.2638
  375MOL0     C51674   2.825   6.157   5.009  0.5694  0.2471 -0.4267
  375MOL0     C51675   2.959   6.216   5.053  0.4047  0.6646  0.7097
  375MOL0     C51676   3.000   6.145   5.174 -0.4095 -0.4825 -0.1700
  375MOL0     C51677   3.017   6.073   5.273  0.4735 -0.0306 -0.1745
  375MOL0     C51678   2.561   6.326   4.575  0.1840  0.7363 -0.7564
  375MOL0     C51679   2.605   6.328   4.439  0.1634  0.3134 -0.2788
  375MOL0     C51680   2.612   6.471   4.372 -0.5883  0.6396  0.1161
  375MOL0     H51681   2.815   6.481   4.046 -2.0953  0.5654 -0.0163
  375MOL0     H51682   2.905   6.490   3.832  0.3096  0.6187  1.2135
  375MOL0     H51683   2.715   6.290   3.532 -0.2283  1.6109 -0.1621
  375MOL0     H51684   2.823   6.149   3.557 -0.4473 -0.5266  0.4584
  375MOL0     H51685   2.903   6.411   3.411  2.0219  0.9300 -1.6130
  375MOL0     H51686   2.994   6.268   3.423  0.3667  2.1379 -0.9152
  375MOL0     H51687   2.742   6.308   3.251  0.1428  1.1479  0.6688
  375MOL0     H51688   2.909   6.284   3.195  0.0026 -1.9830 -0.4559
  375MOL0     H51689   2.839   6.063   3.161  1.7371  3.1069  0.1763
  375MOL0     H51690   2.881   6.044   3.325  0.2746  2.6382  1.5972
  375MOL0     H51691   2.640   6.109   3.382 -1.7936 -0.1690 -0.9769
  375MOL0     H51692   2.685   5.951   3.311 -0.4505 -0.1946 -0.8457
  375MOL0     H51693   2.587   6.186   3.148  0.7788  0.4029  1.1038
  375MOL0     H51694   2.590   6.022   3.096 -2.8394 -2.3430  1.0491
  375MOL0     H51695   2.359   6.108   3.165  0.2964  1.5547  0.7874
  375MOL0     H51696   2.411   6.104   3.328 -1.7169  1.1063 -1.2468
  375MOL0     H51697   2.458   5.864   3.318 -2.2058 -6.1625 -2.1818
  375MOL0     H51698   2.290   5.917   3.276 -1.3400 -5.8935 -3.4948
  375MOL0     H51699   2.559   5.713   3.137  0.0997  0.4459 -0.5154
  375MOL0     H51700   2.444   5.623   2.776  0.2982  0.1561  0.8194
  375MOL0     H51701   2.576   5.574   2.884  0.7029 -1.3386 -0.8675
  375MOL0     H51702   2.590   5.851   2.758  0.1863  0.0230  0.4188
  375MOL0     H51703   2.723   5.736   2.805 -0.4562 -2.3395 -0.1651
  375MOL0     H51704   2.623   5.606   2.625  1.2104 -0.5657 -0.4447
  375MOL0     H51705   2.523   5.749   2.580  0.9202 -0.5486 -3.2056
  375MOL0     H51706   2.832   5.733   2.575 -0.3112 -0.1017 -0.2276
  375MOL0     H51707   2.721   5.758   2.433 -1.5819 -1.8137 -0.0640
  375MOL0     H51708   2.810   6.054   2.792 -2.6930  0.8262 -2.6765
  375MOL0     H51709   3.058   6.057   2.958  0.9728 -0.8304 -1.8388
  375MOL0     H51710   2.934   6.171   2.918 -0.3817 -0.1419  1.1372
  375MOL0     H51711   3.111   6.201   2.888  0.6705 -0.2990  1.5822
  375MOL0     H51712   3.583   6.126   2.468 -1.3934 -0.0792 -0.0471
  375MOL0     H51713   3.715   6.325   2.455 -0.7758  1.1302 -2.2013
  375MOL0     H51714   3.818   6.589   2.441  0.4034  0.4735  0.5479
  375MOL0     H51715   3.661   6.547   2.382  0.7389 -0.3260  0.4123
  375MOL0     H51716   3.683   6.800   2.351  1.7361 -1.0581 -0.7701
  375MOL0     H51717   3.605   6.788   2.510 -0.1962  0.5697  1.8711
  375MOL0     H51718   3.811   6.943   2.515 -0.3228  0.1814  1.0898
  375MOL0     H51719   3.913   6.814   2.479  0.7548  1.1537  0.8634
  375MOL0     H51720   3.850   6.680   2.674 -0.3964  0.3954 -1.1600
  375MOL0     H51721   3.749   6.814   2.734 -2.6141  0.6715 -1.6653
  375MOL0     H51722   4.051   6.819   2.700  0.7822 -0.4827  2.5120
  375MOL0     H51723   3.951   6.948   2.769 -1.7714 -0.1277  0.4926
  375MOL0     H51724   3.952   6.665   2.866 -2.6795  0.7176 -0.5175
  375MOL0     H51725   3.866   6.790   2.943  1.5807 -2.0578  2.5918
  375MOL0     H51726   4.039   6.904   3.035 -1.1258 -0.1598 -0.1786
  375MOL0     H51727   4.153   6.841   2.919  0.5303 -3.1379 -0.3369
  375MOL0     H51728   4.210   6.714   3.125  0.3233  1.1366  2.2685
  375MOL0     H51729   4.087   6.612   3.068 -2.0978 -0.3980  1.2962
  375MOL0     H51730   3.473   6.517   2.753  1.4856 -0.7134  1.9788
  375MOL0     H51731   3.341   6.310   2.779 -0.2295  0.3710  0.4160
  375MOL0     H51732   3.195   5.930   2.495 -1.3614 -2.1098  0.4750
  375MOL0     H51733   2.958   5.894   2.419  0.4346 -0.1653 -1.0953
  375MOL0     H51734   2.699   6.128   3.724 -2.3370  1.9485 -1.9635
  375MOL0     H51735   2.601   6.108   3.952 -4.6391  0.7969 -4.0867
  375MOL0     H51736   2.687   5.986   4.407  2.6899 -0.5337  2.9002
  375MOL0     H51737   2.621   5.987   4.629 -0.2500 -0.7462 -1.2199
  375MOL0     H51738   2.546   6.155   4.967 -2.4015  3.8376 -2.4772
  375MOL0     H51739   2.632   6.049   4.845  2.0317 -0.5827  0.1489
  375MOL0     H51740   2.738   6.322   4.940 -1.2542 -1.3017  0.2975
  375MOL0     H51741   2.810   6.212   4.808 -3.6644  1.7647 -1.7519
  375MOL0     H51742   2.764   6.166   5.099  2.1909  0.1703  0.7268
  375MOL0     H51743   2.822   6.049   4.995 -2.8870 -0.0642  1.5858
  375MOL0     H51744   2.943   6.322   5.076 -0.1462  1.0797 -1.3711
  375MOL0     H51745   3.027   6.194   4.970 -0.6021  2.5209 -0.6755
  375MOL0     H51746   3.020   6.011   5.360  1.0510  2.8704  2.0269
  375MOL0     H51747   2.531   6.421   4.618 -2.4896 -0.1000 -0.6019
  375MOL0     H51748   2.612   6.552   4.447 -1.3780  0.1972  0.6134
  375MOL0     H51749   2.703   6.489   4.315  1.3215 -1.1786  2.4244
  375MOL0     H51750   2.522   6.479   4.310  2.2245  2.7808 -4.1533
  376MOL0     O51751   9.320   3.356   5.671  0.4912 -0.2390  0.3740
  376MOL0     C51752   9.331   3.289   5.779  0.1507 -0.7564  0.5463
  376MOL0     O51753   9.305   3.154   5.784 -0.8358  0.0118 -0.3166
  376MOL0     C51754   9.247   3.087   5.683 -0.0175 -0.2634  0.7617
  376MOL0     C51755   9.325   2.985   5.621 -0.5232 -0.1170  0.6198
  376MOL0     C51756   9.270   2.907   5.520 -0.6069 -0.1546 -0.8444
  376MOL0     C51757   9.139   2.921   5.485  0.9102 -0.5276  1.0121
  376MOL0     O51758   9.078   2.847   5.391  0.3232 -0.3031 -0.2315
  376MOL0     C51759   9.150   2.726   5.349  0.3372  0.4039 -0.6711
  376MOL0     C51760   9.048   2.644   5.270  0.1534 -0.1117  0.1900
  376MOL0     C51761   9.122   2.544   5.185  0.5040 -0.3729 -0.1177
  376MOL0     C51762   9.182   2.434   5.273  0.1423 -0.1605  0.0385
  376MOL0     C51763   9.226   2.315   5.188 -0.9768  0.0165 -0.5352
  376MOL0     C51764   9.263   2.191   5.282  0.2788 -1.3386 -0.4732
  376MOL0     C51765   9.304   2.069   5.197  0.6656 -1.0568 -0.5296
  376MOL0     C51766   9.348   1.944   5.292  0.7156  0.0020  0.8065
  376MOL0     N51767   9.288   1.941   5.422  0.3681 -0.2212  0.2092
  376MOL0     C51768   9.326   2.007   5.535  0.6849  0.3188 -1.1951
  376MOL0     C51769   9.229   1.962   5.621  1.1991 -0.6475 -1.0096
  376MOL0     C51770   9.202   2.022   5.757  0.5980  1.0412  0.5657
  376MOL0     C51771   9.317   1.984   5.861  0.0439 -0.7332  0.6383
  376MOL0     C51772   9.307   1.836   5.900  0.3300  0.2963  0.5291
  376MOL0     C51773   9.452   1.789   5.917  0.6093 -0.2355  0.5934
  376MOL0     O51774   9.514   1.871   6.024 -0.3466 -0.1334  0.4841
  376MOL0     C51775   9.475   1.843   6.152  0.6278  0.4850 -0.1960
  376MOL0     C51776   9.473   1.945   6.247  0.7554  0.1470  0.3229
  376MOL0     C51777   9.435   1.925   6.381 -0.4593 -0.4672  1.1320
  376MOL0     C51778   9.438   2.046   6.478  0.0942  0.1103  0.2298
  376MOL0     C51779   9.379   1.801   6.436  0.0984 -0.4609 -0.1542
  376MOL0     C51780   9.311   1.778   6.571 -0.3318 -0.0630 -0.0173
  376MOL0     O51781   9.169   1.794   6.579  0.1721  0.1564 -0.2257
  376MOL0     C51782   9.107   1.764   6.693  1.1491 -0.3922 -0.2029
  376MOL0     C51783   9.008   1.856   6.742 -0.5054  0.1172  0.0450
  376MOL0     C51784   8.923   1.821   6.843 -0.3366  0.6625 -0.0907
  376MOL0     C51785   8.924   1.697   6.904  0.4660 -0.6082  0.1902
  376MOL0     O51786   8.843   1.665   7.009  0.3508  0.3332  0.4888
  376MOL0     C51787   8.908   1.621   7.129  0.0518  0.0677 -0.3999
  376MOL0     C51788   8.805   1.528   7.202  0.1874  0.3665  0.2580
  376MOL0     C51789   8.843   1.509   7.353 -0.1989  0.0869 -0.6296
  376MOL0     C51790   8.760   1.415   7.442 -0.3430 -0.3891 -0.7327
  376MOL0     C51791   8.613   1.444   7.448  0.6456  0.1198 -1.1799
  376MOL0     C51792   8.558   1.358   7.557  0.3018  0.2803  0.8286
  376MOL0     C51793   8.529   1.425   7.693  1.3029  0.9797  1.3211
  376MOL0     C51794   8.463   1.331   7.787 -0.5680 -0.4079  0.0538
  376MOL0    Cl51795   8.299   1.303   7.744 -0.0762  0.2126  0.3980
  376MOL0     C51796   9.019   1.604   6.856  0.8751 -0.0144  0.4287
  376MOL0     C51797   9.114   1.639   6.748  0.3802  0.1180 -0.1633
  376MOL0     O51798   9.382   1.722   6.660  0.2018  0.1044  0.4038
  376MOL0     C51799   9.373   1.701   6.336  0.5560 -0.2743  0.2470
  376MOL0     C51800   9.427   1.723   6.202 -0.1097 -0.3870 -0.1952
  376MOL0     N51801   9.152   1.869   5.563  0.5970 -0.3605  0.3155
  376MOL0     N51802   9.182   1.854   5.446  0.5871  0.4323 -0.8623
  376MOL0     C51803   9.072   3.035   5.529  0.3542  0.3939 -0.9651
  376MOL0     C51804   9.119   3.114   5.631 -0.1941  0.5856 -0.1499
  376MOL0     C51805   9.370   3.351   5.921  0.2854 -0.2840  0.6085
  376MOL0     C51806   9.407   3.271   6.022 -1.2018  0.4581 -0.4338
  376MOL0     C51807   9.423   3.313   6.157 -0.6910  0.1924  0.5631
  376MOL0     C51808   9.414   3.448   6.188 -0.2059 -0.0973  0.4764
  376MOL0     O51809   9.454   3.487   6.307  0.2704  0.2121  0.4718
  376MOL0     C51810   9.340   3.517   6.385 -0.5008 -0.3749 -0.0431
  376MOL0     C51811   9.372   3.529   6.535  0.0911 -0.3476 -0.2288
  376MOL0     C51812   9.485   3.632   6.586  0.2718  0.1697  0.1872
  376MOL0     C51813   9.463   3.782   6.555  0.4213 -0.6223  0.6812
  376MOL0     C51814   9.477   3.808   6.411 -0.8767  0.5983 -0.1096
  376MOL0     C51815   9.476   3.827   6.295  0.1032  0.8129  0.2642
  376MOL0     C51816   9.378   3.546   6.087 -0.2096  0.1856 -0.2256
  376MOL0     C51817   9.358   3.498   5.958  0.7040 -0.2631 -0.9563
  376MOL0     C51818   9.280   3.592   5.865 -1.1853  0.2446 -0.8416
  376MOL0     H51819   9.421   2.965   5.667 -1.2348  0.8011  2.6494
  376MOL0     H51820   9.337   2.828   5.488  0.0452 -1.1339  2.5618
  376MOL0     H51821   9.192   2.663   5.429 -0.0858 -0.0710 -0.8191
  376MOL0     H51822   9.233   2.750   5.283  0.3410  0.1143 -0.7699
  376MOL0     H51823   8.984   2.598   5.346  1.5070 -1.8726  0.3285
  376MOL0     H51824   8.984   2.708   5.207  2.8580 -0.2470 -2.9699
  376MOL0     H51825   9.049   2.500   5.117  0.4739 -2.3035  1.0972
  376MOL0     H51826   9.196   2.588   5.117  0.2923 -0.3194 -0.3162
  376MOL0     H51827   9.270   2.465   5.329  0.3377 -0.0743 -0.3119
  376MOL0     H51828   9.103   2.402   5.341 -1.2974 -0.4591 -1.7020
  376MOL0     H51829   9.302   2.339   5.114 -0.2292  0.1493  0.2523
  376MOL0     H51830   9.137   2.283   5.133 -0.8334 -1.7536  0.1951
  376MOL0     H51831   9.345   2.224   5.347 -0.8190  1.6318 -0.4333
  376MOL0     H51832   9.177   2.163   5.345  0.7544  2.5891  2.3261
  376MOL0     H51833   9.393   2.093   5.139 -1.7389 -0.6460 -4.4066
  376MOL0     H51834   9.226   2.049   5.123  1.9374  0.3579 -2.3476
  376MOL0     H51835   9.340   1.847   5.242  3.2404  0.2989 -0.3581
  376MOL0     H51836   9.457   1.950   5.295  1.0964 -0.9186 -3.6823
  376MOL0     H51837   9.403   2.084   5.543  0.1981  1.0142 -2.8347
  376MOL0     H51838   9.100   1.998   5.788  0.1433  1.9903 -0.1388
  376MOL0     H51839   9.210   2.131   5.750  0.9625  1.0662  1.2339
  376MOL0     H51840   9.414   2.017   5.823 -0.3651  0.3081  0.4499
  376MOL0     H51841   9.308   2.047   5.949 -1.0443 -3.0390  2.2736
  376MOL0     H51842   9.250   1.819   5.992 -1.2161  2.8035  0.1240
  376MOL0     H51843   9.245   1.783   5.827 -0.8614  2.8572 -0.4613
  376MOL0     H51844   9.464   1.682   5.938  1.1308 -0.1603  0.6888
  376MOL0     H51845   9.513   1.799   5.827 -2.2471  0.8970 -1.3799
  376MOL0     H51846   9.509   2.042   6.214  2.7542 -0.8190 -0.5017
  376MOL0     H51847   9.339   2.073   6.517  0.3257 -0.2261  1.0803
  376MOL0     H51848   9.484   2.134   6.434 -0.1873  0.1073 -0.0742
  376MOL0     H51849   9.493   2.022   6.570 -1.6370 -2.1299  0.7860
  376MOL0     H51850   9.011   1.950   6.687  1.2860  0.6816  1.0318
  376MOL0     H51851   8.846   1.889   6.877 -1.9240 -0.0442 -2.0694
  376MOL0     H51852   9.001   1.566   7.111  1.0646  0.0419  3.9075
  376MOL0     H51853   8.946   1.707   7.185  2.7948  0.8016 -3.0933
  376MOL0     H51854   8.705   1.568   7.184 -2.2063 -3.4285  3.4476
  376MOL0     H51855   8.811   1.429   7.155  1.0510  1.2642 -1.6535
  376MOL0     H51856   8.857   1.612   7.388 -0.5982  0.9489 -2.8196
  376MOL0     H51857   8.942   1.462   7.354  0.4733  1.4427 -0.2141
  376MOL0     H51858   8.805   1.430   7.541  0.7953  0.6408 -1.3829
  376MOL0     H51859   8.780   1.318   7.395 -3.7470 -0.0105 -3.2896
  376MOL0     H51860   8.592   1.546   7.481 -3.7230  0.1106 -3.1998
  376MOL0     H51861   8.553   1.440   7.357 -2.3216 -0.1886  0.6685
  376MOL0     H51862   8.618   1.269   7.575 -2.6128 -2.3505 -1.2870
  376MOL0     H51863   8.462   1.312   7.529 -0.7790  1.6411  2.1342
  376MOL0     H51864   8.467   1.514   7.679  0.6172  0.7952  3.0097
  376MOL0     H51865   8.624   1.461   7.733  2.1090 -1.1391  1.4245
  376MOL0     H51866   8.466   1.366   7.891 -1.8925  0.6101 -0.2283
  376MOL0     H51867   8.514   1.234   7.795  0.3961 -0.2880 -3.3931
  376MOL0     H51868   9.004   1.504   6.896 -0.9812  0.2707  0.5439
  376MOL0     H51869   9.188   1.565   6.720 -0.3222 -1.2554  1.4647
  376MOL0     H51870   9.338   1.606   6.374 -1.2118 -0.6969 -2.2060
  376MOL0     H51871   9.414   1.638   6.136 -2.6817 -2.6149  2.8460
  376MOL0     H51872   8.970   3.051   5.495  1.4362 -0.6292 -5.3911
  376MOL0     H51873   9.049   3.190   5.660 -0.5622  0.9217 -1.7973
  376MOL0     H51874   9.422   3.167   5.995  0.2702  0.8241 -1.1587
  376MOL0     H51875   9.441   3.235   6.230 -2.0216 -1.0429 -0.3777
  376MOL0     H51876   9.302   3.614   6.351  0.1421 -0.1357 -0.0883
  376MOL0     H51877   9.265   3.439   6.371  1.0016 -1.7041 -1.0011
  376MOL0     H51878   9.390   3.425   6.563 -0.5638 -0.9335 -1.9037
  376MOL0     H51879   9.283   3.543   6.597  0.6333 -3.0567  1.3559
  376MOL0     H51880   9.497   3.635   6.694 -2.4492 -2.0331  0.6620
  376MOL0     H51881   9.578   3.593   6.544 -1.5307 -0.2998 -3.9174
  376MOL0     H51882   9.546   3.829   6.609  1.6629 -1.2867 -0.5900
  376MOL0     H51883   9.369   3.815   6.599  0.3620 -0.6343  0.5635
  376MOL0     H51884   9.475   3.846   6.189 -0.0422 -2.8182 -0.5294
  376MOL0     H51885   9.370   3.652   6.107  1.1283  0.0841  1.0119
  376MOL0     H51886   9.231   3.535   5.786 -0.5972 -0.7804 -0.4856
  376MOL0     H51887   9.204   3.634   5.932 -2.6819 -0.5059 -2.0065
  376MOL0     H51888   9.344   3.677   5.839 -1.9584  1.1136  0.0300
  377MOL0     O51889   3.963   6.007   3.228  0.4644  0.1445 -0.6265
  377MOL0     C51890   3.953   5.933   3.330 -0.1455 -0.0491 -0.3694
  377MOL0     O51891   3.868   5.823   3.347  0.6720  1.0029 -0.3460
  377MOL0     C51892   3.778   5.795   3.239  0.5829  0.1735  0.8357
  377MOL0     C51893   3.651   5.841   3.246 -0.7542 -0.1497 -0.2180
  377MOL0     C51894   3.562   5.784   3.155 -0.2389 -1.0985  0.2413
  377MOL0     C51895   3.597   5.697   3.047 -0.6771 -0.0669  0.0230
  377MOL0     O51896   3.508   5.639   2.959  0.7960  0.0264 -0.4529
  377MOL0     C51897   3.387   5.708   2.930  0.3217  0.2876 -0.3119
  377MOL0     C51898   3.318   5.679   2.794  0.6534  0.0328  0.3326
  377MOL0     C51899   3.223   5.563   2.790 -0.4540 -0.4783  0.6483
  377MOL0     C51900   3.112   5.574   2.687  0.1184 -0.1023  0.8268
  377MOL0     C51901   3.041   5.436   2.680  0.4207 -0.0287 -0.2026
  377MOL0     C51902   2.960   5.387   2.811 -0.3875  0.8419 -0.1636
  377MOL0     C51903   2.927   5.239   2.790 -0.1831 -1.0370  0.3925
  377MOL0     C51904   2.789   5.224   2.736  0.2007  0.4026  0.1428
  377MOL0     N51905   2.791   5.111   2.644  0.7199 -0.0368  0.1295
  377MOL0     C51906   2.746   4.977   2.659  0.9101 -0.1123 -0.4123
  377MOL0     C51907   2.762   4.918   2.545  0.3404 -0.1947 -0.1415
  377MOL0     C51908   2.712   4.781   2.528 -0.2474 -0.1651  0.3485
  377MOL0     C51909   2.561   4.790   2.498 -0.3254 -0.1233  0.3429
  377MOL0     C51910   2.524   4.764   2.353  0.7661  0.2549 -0.0347
  377MOL0     C51911   2.592   4.860   2.256  0.7419  0.0556  1.1230
  377MOL0     O51912   2.534   4.848   2.124 -0.1870  0.2870 -0.3875
  377MOL0     C51913   2.484   4.966   2.080 -0.0037  0.5311  0.1028
  377MOL0     C51914   2.558   5.080   2.075  0.3114  0.1045  0.0891
  377MOL0     C51915   2.507   5.203   2.031 -0.3534  0.4267  0.1315
  377MOL0     C51916   2.594   5.323   2.071  0.0083 -0.0655  1.0203
  377MOL0     C51917   2.373   5.216   1.986  0.4467  0.4217  0.1093
  377MOL0     C51918   2.319   5.346   1.930 -0.7077 -0.7759  0.1311
  377MOL0     O51919   2.184   5.355   1.920 -0.1909  0.6705 -0.1273
  377MOL0     C51920   2.133   5.475   1.877  0.1034  0.2241 -1.2234
  377MOL0     C51921   2.080   5.566   1.973 -0.4298  0.4710 -0.8538
  377MOL0     C51922   1.997   5.670   1.935  0.6131 -0.8305 -0.1056
  377MOL0     C51923   1.993   5.700   1.800  0.0454 -0.7465 -0.4868
  377MOL0     O51924   1.933   5.819   1.752 -0.3115  0.0003 -0.4878
  377MOL0     C51925   1.979   5.930   1.820  0.7605 -0.7216 -0.4336
  377MOL0     C51926   1.928   6.051   1.740 -0.0312  0.8121 -0.3218
  377MOL0     C51927   1.924   6.185   1.811 -0.2657 -1.0268  0.1500
  377MOL0     C51928   1.866   6.298   1.719  0.3073  0.1780 -0.2125
  377MOL0     C51929   1.851   6.434   1.777  0.1361 -0.4700  0.5033
  377MOL0     C51930   1.967   6.478   1.864 -0.1641  0.3912 -0.6772
  377MOL0     C51931   1.953   6.618   1.901  0.0214 -0.1350  1.2132
  377MOL0     C51932   2.087   6.683   1.947  0.2313  0.8416  0.0391
  377MOL0    Cl51933   2.126   6.620   2.110 -0.3373 -0.3014 -0.0554
  377MOL0     C51934   2.050   5.620   1.703  0.4315  0.6530 -0.8095
  377MOL0     C51935   2.120   5.509   1.742  0.1769  0.4205  0.1060
  377MOL0     O51936   2.396   5.435   1.884  0.4438 -0.0837 -0.6436
  377MOL0     C51937   2.297   5.101   1.996 -0.8887  0.4368 -0.2887
  377MOL0     C51938   2.352   4.971   2.033  0.4732 -0.0940 -0.1088
  377MOL0     N51939   2.802   5.012   2.456  0.0753  0.1707  0.4607
  377MOL0     N51940   2.822   5.131   2.514 -1.1528  0.7601  0.0314
  377MOL0     C51941   3.733   5.658   3.034  0.2500 -0.9972  1.0141
  377MOL0     C51942   3.818   5.703   3.133 -0.0144  0.0762  0.3875
  377MOL0     C51943   4.046   5.970   3.436 -0.1038  0.3127 -0.5932
  377MOL0     C51944   3.978   5.996   3.552 -0.2487 -1.0423 -0.2365
  377MOL0     C51945   4.049   6.031   3.670  0.3945  0.0474  0.0816
  377MOL0     C51946   4.188   6.041   3.668 -0.2206 -0.3356  0.0681
  377MOL0     O51947   4.264   6.049   3.781  0.1177  0.4560  0.7186
  377MOL0     C51948   4.204   6.062   3.910 -0.6398 -0.3985 -0.3557
  377MOL0     C51949   4.285   6.098   4.030  0.6270 -0.1571  0.5363
  377MOL0     C51950   4.337   6.245   4.027 -0.4789 -0.1429 -0.0024
  377MOL0     C51951   4.222   6.358   4.020 -0.0683  0.1653  0.5330
  377MOL0     C51952   4.284   6.492   4.000  0.0400  0.8961  0.0506
  377MOL0     C51953   4.319   6.604   3.996 -0.6399 -0.2916 -0.3832
  377MOL0     C51954   4.257   6.022   3.546  0.5063 -0.5170 -0.0216
  377MOL0     C51955   4.185   5.982   3.432 -0.2061 -0.7256  0.1200
  377MOL0     C51956   4.253   5.976   3.300 -1.0321 -0.5255  0.3073
  377MOL0     H51957   3.611   5.900   3.329 -0.7488 -0.3645 -0.0633
  377MOL0     H51958   3.455   5.794   3.168 -0.2073 -0.3205 -0.0294
  377MOL0     H51959   3.394   5.817   2.934  1.5888  0.1994  0.5001
  377MOL0     H51960   3.321   5.691   3.016  0.8396  3.0738  0.7417
  377MOL0     H51961   3.255   5.760   2.757 -0.7194 -1.1920 -0.0658
  377MOL0     H51962   3.392   5.668   2.713  0.2506 -1.3086  0.1281
  377MOL0     H51963   3.288   5.475   2.787 -2.1040 -1.7266  0.2152
  377MOL0     H51964   3.171   5.555   2.886 -2.4139  0.5873 -0.2517
  377MOL0     H51965   3.035   5.647   2.713 -0.6879 -0.7527  0.3459
  377MOL0     H51966   3.163   5.591   2.592  0.8151 -3.9694  0.3202
  377MOL0     H51967   3.130   5.379   2.651 -0.5713 -1.8229  0.1571
  377MOL0     H51968   2.971   5.435   2.596 -2.9424  1.4762  2.3256
  377MOL0     H51969   3.022   5.412   2.898  1.3077  3.7191 -1.9985
  377MOL0     H51970   2.872   5.452   2.814  0.0518  1.4227  0.4464
  377MOL0     H51971   2.937   5.191   2.888 -0.0339  1.7201  1.8596
  377MOL0     H51972   3.004   5.196   2.726  3.2677 -1.6185  4.4888
  377MOL0     H51973   2.719   5.198   2.816  3.2297  2.5641  3.8657
  377MOL0     H51974   2.757   5.324   2.703 -0.6204 -0.0034 -0.2951
  377MOL0     H51975   2.712   4.931   2.751  1.1595 -0.8088 -0.6603
  377MOL0     H51976   2.736   4.742   2.628  0.3688  0.1691  0.3310
  377MOL0     H51977   2.767   4.710   2.466  1.1765  2.0833 -1.0864
  377MOL0     H51978   2.507   4.704   2.537 -0.3395  0.2159  1.0850
  377MOL0     H51979   2.510   4.879   2.537 -1.6210 -1.1800  1.1119
  377MOL0     H51980   2.552   4.666   2.313  1.9993  1.8958 -3.5822
  377MOL0     H51981   2.415   4.755   2.349  0.9408 -2.8670 -0.2380
  377MOL0     H51982   2.579   4.956   2.306  2.7315  0.2146  1.4310
  377MOL0     H51983   2.698   4.833   2.252  0.1372 -3.2064 -4.8902
  377MOL0     H51984   2.661   5.093   2.105 -0.5552  1.6348  2.8087
  377MOL0     H51985   2.679   5.291   2.132  0.3212  1.9589  1.7475
  377MOL0     H51986   2.532   5.392   2.129 -0.1351  0.3817  0.3535
  377MOL0     H51987   2.640   5.381   1.990  1.1147 -1.1328  0.8552
  377MOL0     H51988   2.090   5.535   2.077 -1.1067  0.4264 -0.8004
  377MOL0     H51989   1.944   5.732   2.007  1.9865  0.1709  0.0773
  377MOL0     H51990   1.946   5.945   1.924  0.2037 -0.7860 -0.5964
  377MOL0     H51991   2.088   5.938   1.816  0.8521 -2.1196 -1.1798
  377MOL0     H51992   1.997   6.065   1.656  1.2336 -0.6957  0.4157
  377MOL0     H51993   1.828   6.032   1.702  1.2323 -2.1500 -2.5910
  377MOL0     H51994   2.024   6.217   1.840 -0.4422  1.5031 -1.6702
  377MOL0     H51995   1.864   6.176   1.902 -2.0406  2.2852 -0.5262
  377MOL0     H51996   1.760   6.274   1.701  0.0146  1.1917  0.0921
  377MOL0     H51997   1.919   6.292   1.624  0.5891  0.8053 -0.0968
  377MOL0     H51998   1.841   6.508   1.698 -0.6040 -1.5989 -0.4981
  377MOL0     H51999   1.758   6.446   1.834 -1.0841  2.2190 -1.8148
  377MOL0     H52000   2.053   6.450   1.802 -1.3664 -0.4254 -2.0366
  377MOL0     H52001   1.973   6.431   1.963 -3.0553  0.8465 -0.1914
  377MOL0     H52002   1.865   6.625   1.966 -0.0595  0.3398  1.0605
  377MOL0     H52003   1.920   6.677   1.815  0.1940 -0.4001  0.9673
  377MOL0     H52004   2.065   6.790   1.947  0.4549  0.9232  2.0764
  377MOL0     H52005   2.178   6.665   1.889  3.6803  0.5452  4.9646
  377MOL0     H52006   2.036   5.643   1.598 -0.7343  2.7674 -0.2492
  377MOL0     H52007   2.169   5.443   1.671  0.3062  0.9536 -0.2970
  377MOL0     H52008   2.193   5.105   1.965 -0.6243 -0.0813 -1.3265
  377MOL0     H52009   2.305   4.873   2.031  3.2708 -1.5903  1.0829
  377MOL0     H52010   3.768   5.606   2.945 -0.4887 -1.2193  0.8482
  377MOL0     H52011   3.924   5.687   3.116 -0.3493  0.6970 -2.7600
  377MOL0     H52012   3.870   5.989   3.551 -0.5678  2.1570 -1.2755
  377MOL0     H52013   3.985   6.033   3.757 -0.1939  0.0720 -0.3471
  377MOL0     H52014   4.136   6.147   3.897  0.7870  0.5295 -2.1779
  377MOL0     H52015   4.147   5.971   3.929 -1.0196 -0.0291  0.3155
  377MOL0     H52016   4.363   6.025   4.054 -1.6146 -2.6066  0.7916
  377MOL0     H52017   4.218   6.090   4.116 -0.2169 -0.0729 -0.1068
  377MOL0     H52018   4.409   6.260   4.108  2.1410  2.1966 -2.4851
  377MOL0     H52019   4.413   6.252   3.947  0.9240 -2.1468  1.0789
  377MOL0     H52020   4.178   6.354   4.121 -2.3009 -0.3120 -0.3884
  377MOL0     H52021   4.142   6.341   3.947  1.7457  0.6350 -1.6860
  377MOL0     H52022   4.360   6.703   4.000 -0.1775 -0.5199  1.2120
  377MOL0     H52023   4.365   6.026   3.545  0.4689  1.3271  0.1093
  377MOL0     H52024   4.217   5.888   3.245  0.1831 -0.3195 -0.8395
  377MOL0     H52025   4.234   6.062   3.237  0.5504  0.4006  1.0435
  377MOL0     H52026   4.361   5.973   3.313 -0.4068  3.5383 -2.3703
  378MOL0     O52027   8.394   6.713   4.734 -0.0023  0.1744  0.4605
  378MOL0     C52028   8.508   6.705   4.710 -0.8587 -0.2560 -0.8057
  378MOL0     O52029   8.559   6.604   4.640 -0.4169 -0.7716  0.4460
  378MOL0     C52030   8.484   6.543   4.547 -0.1032  0.8415 -0.4973
  378MOL0     C52031   8.542   6.523   4.416  0.5228  0.1604 -0.4307
  378MOL0     C52032   8.501   6.431   4.329 -0.0831  1.1560 -0.1294
  378MOL0     C52033   8.388   6.363   4.352  0.4367  0.3375 -0.8557
  378MOL0     O52034   8.320   6.276   4.270 -0.3585  0.3071  0.1336
  378MOL0     C52035   8.406   6.188   4.191  0.4863 -0.1564 -0.1472
  378MOL0     C52036   8.315   6.064   4.177 -0.0890  1.1094  0.6291
  378MOL0     C52037   8.395   5.934   4.162  0.6834  1.2441  0.1472
  378MOL0     C52038   8.466   5.903   4.295  0.5376  0.7273  0.0267
  378MOL0     C52039   8.488   5.754   4.319 -0.0509 -0.4485  0.1783
  378MOL0     C52040   8.501   5.737   4.469 -0.1566  0.1506 -0.7705
  378MOL0     C52041   8.623   5.807   4.537 -0.5853  0.1892 -1.0414
  378MOL0     C52042   8.628   5.763   4.688 -0.8057 -1.3612 -0.5973
  378MOL0     N52043   8.625   5.625   4.723  0.0657  0.3263 -0.3432
  378MOL0     C52044   8.732   5.539   4.704 -0.1514  0.0994 -0.7928
  378MOL0     C52045   8.684   5.416   4.733 -0.4144 -0.6422  0.3461
  378MOL0     C52046   8.751   5.294   4.672  0.6110 -0.1089  0.1604
  378MOL0     C52047   8.668   5.261   4.535 -0.9523 -0.4343 -0.2572
  378MOL0     C52048   8.741   5.246   4.407  0.0484  0.7455 -0.3057
  378MOL0     C52049   8.775   5.376   4.343 -0.2184  0.7841 -0.2327
  378MOL0     O52050   8.896   5.416   4.411 -1.1701  0.3270  0.0698
  378MOL0     C52051   9.022   5.381   4.353 -0.5610  0.2139 -0.0898
  378MOL0     C52052   9.141   5.449   4.398  0.7247 -0.4309  0.6078
  378MOL0     C52053   9.272   5.416   4.349  0.5465 -1.1353 -0.5399
  378MOL0     C52054   9.386   5.471   4.432  0.2534 -0.6803  0.0605
  378MOL0     C52055   9.280   5.322   4.252  0.0311 -0.1080  0.2951
  378MOL0     C52056   9.408   5.285   4.197 -0.4307  0.1033  0.3874
  378MOL0     O52057   9.493   5.212   4.264  0.1714 -0.0996 -0.7892
  378MOL0     C52058   9.615   5.171   4.219 -0.6843 -0.6900 -0.2442
  378MOL0     C52059   9.657   5.172   4.083  0.8313 -0.3518 -0.2079
  378MOL0     C52060   9.786   5.131   4.052 -0.5690 -0.1017  0.7069
  378MOL0     C52061   9.879   5.090   4.149 -0.4521  0.2638 -1.4859
  378MOL0     O52062  10.002   5.030   4.137  0.1225  0.1436 -0.4481
  378MOL0     C52063  10.043   5.018   4.004  0.8785 -0.1311  0.0454
  378MOL0     C52064  10.016   4.883   3.940 -0.0785  0.3021  0.8087
  378MOL0     C52065  10.075   4.876   3.795 -0.5473 -0.5286 -0.3465
  378MOL0     C52066  10.222   4.833   3.792 -0.3809  0.4287 -0.0956
  378MOL0     C52067  10.271   4.795   3.652 -0.2651 -1.2825 -0.6632
  378MOL0     C52068  10.246   4.905   3.548  0.4103  0.2438 -0.3317
  378MOL0     C52069  10.279   4.849   3.408  0.1235  0.3235 -0.7926
  378MOL0     C52070  10.404   4.766   3.382 -0.5777  0.6692 -0.0303
  378MOL0    Cl52071  10.382   4.675   3.219 -0.0076 -0.3784 -0.3809
  378MOL0     C52072   9.831   5.088   4.284  0.0794  0.2680 -0.5931
  378MOL0     C52073   9.706   5.137   4.318  0.1925 -0.7031  0.1599
  378MOL0     O52074   9.422   5.325   4.083  0.8134  0.0928  0.3527
  378MOL0     C52075   9.167   5.247   4.210  0.5275 -0.1532 -0.1378
  378MOL0     C52076   9.045   5.272   4.262 -0.2791 -0.2237  0.3140
  378MOL0     N52077   8.560   5.428   4.798 -0.3024  0.1111 -0.2720
  378MOL0     N52078   8.527   5.559   4.793 -0.5528 -1.0247  0.5983
  378MOL0     C52079   8.321   6.391   4.477  0.6059  0.9778  0.1455
  378MOL0     C52080   8.376   6.466   4.581 -0.1877 -0.6188  0.9169
  378MOL0     C52081   8.606   6.811   4.755  0.3923 -0.1809  0.3854
  378MOL0     C52082   8.745   6.796   4.715 -1.2410  0.8589 -0.3654
  378MOL0     C52083   8.844   6.893   4.755  0.8773 -0.1927  0.5705
  378MOL0     C52084   8.813   6.994   4.847 -0.2910  0.4142 -0.6534
  378MOL0     O52085   8.916   7.066   4.888 -0.1815 -0.3970 -0.8328
  378MOL0     C52086   8.910   7.213   4.885 -0.0333  0.6672 -0.2881
  378MOL0     C52087   8.972   7.263   4.755  0.4775 -0.3776 -0.5079
  378MOL0     C52088   9.127   7.252   4.746 -0.9698 -0.6351  0.7790
  378MOL0     C52089   9.171   7.297   4.609 -0.3714 -0.2974  0.3167
  378MOL0     C52090   9.171   7.445   4.587 -0.4982  0.9231 -0.1195
  378MOL0     C52091   9.173   7.560   4.552 -0.2811 -0.1742 -0.9628
  378MOL0     C52092   8.679   7.000   4.891 -0.7625 -0.8864 -0.3495
  378MOL0     C52093   8.576   6.915   4.854 -0.0459  0.4558 -0.4732
  378MOL0     C52094   8.435   6.950   4.899 -0.1745  0.1075  0.5453
  378MOL0     H52095   8.625   6.590   4.397  1.1943 -0.8721 -1.2465
  378MOL0     H52096   8.553   6.403   4.239 -0.7616 -0.5245 -0.0362
  378MOL0     H52097   8.493   6.159   4.251  0.1524  0.5294  0.6892
  378MOL0     H52098   8.436   6.236   4.097  1.1783  0.8225  0.5553
  378MOL0     H52099   8.262   6.047   4.271  0.3227 -1.1764  0.4866
  378MOL0     H52100   8.241   6.079   4.098  1.8460 -0.8568 -1.7265
  378MOL0     H52101   8.327   5.853   4.132  0.9346  0.5137  1.4784
  378MOL0     H52102   8.467   5.939   4.080 -0.0894  0.5465 -0.6040
  378MOL0     H52103   8.568   5.940   4.281  0.9010 -0.4361 -0.5891
  378MOL0     H52104   8.420   5.947   4.383  1.0128  0.3425  0.4758
  378MOL0     H52105   8.579   5.731   4.263  0.0049  2.3520 -1.0493
  378MOL0     H52106   8.405   5.687   4.292 -1.5078  1.2624  0.1834
  378MOL0     H52107   8.408   5.771   4.516 -2.0018 -1.8301 -2.7273
  378MOL0     H52108   8.527   5.634   4.495  1.9824  0.8014 -0.0786
  378MOL0     H52109   8.614   5.916   4.536  4.3911  0.9050  1.6445
  378MOL0     H52110   8.719   5.777   4.494 -0.3173 -1.3144  0.5012
  378MOL0     H52111   8.709   5.816   4.738 -2.5967  0.3161  0.6866
  378MOL0     H52112   8.537   5.799   4.737 -0.5372 -1.1833 -0.2212
  378MOL0     H52113   8.831   5.556   4.662 -0.0575  1.5418 -0.0431
  378MOL0     H52114   8.734   5.206   4.735  1.3266 -1.6635 -1.7014
  378MOL0     H52115   8.859   5.307   4.659  0.7129 -0.6071  0.4857
  378MOL0     H52116   8.625   5.163   4.558 -0.3718 -0.8013 -0.7243
  378MOL0     H52117   8.588   5.333   4.514 -1.5564 -0.8578  0.5403
  378MOL0     H52118   8.830   5.187   4.431 -0.5527 -0.4506 -0.9357
  378MOL0     H52119   8.671   5.191   4.344  1.5507  0.1536 -1.5261
  378MOL0     H52120   8.781   5.364   4.235  0.7373 -0.5372 -0.0616
  378MOL0     H52121   8.692   5.446   4.360 -0.3364  1.1156 -2.0400
  378MOL0     H52122   9.131   5.532   4.467  0.6095  2.0460 -2.1912
  378MOL0     H52123   9.373   5.579   4.419  2.0069 -0.7892 -3.8079
  378MOL0     H52124   9.481   5.435   4.393  1.4587  4.1263 -2.1552
  378MOL0     H52125   9.379   5.444   4.538 -3.2623  1.0379  0.4362
  378MOL0     H52126   9.593   5.199   3.999 -0.5959 -2.0958  0.2523
  378MOL0     H52127   9.808   5.136   3.946 -0.4092  3.3917  0.8012
  378MOL0     H52128  10.007   5.103   3.945  2.5146  0.6383  0.0915
  378MOL0     H52129  10.152   5.027   4.006  0.9138  1.0436 -2.7280
  378MOL0     H52130  10.069   4.809   4.001  0.6948  1.7076  1.8921
  378MOL0     H52131   9.908   4.864   3.944  0.0149 -0.1223  1.3975
  378MOL0     H52132  10.069   4.975   3.748  1.8376  0.4011  1.1234
  378MOL0     H52133  10.012   4.805   3.741  1.2929 -3.7995  1.4524
  378MOL0     H52134  10.217   4.746   3.858 -0.5030 -0.8956 -1.7722
  378MOL0     H52135  10.290   4.901   3.845  1.2025 -1.1551 -0.0308
  378MOL0     H52136  10.381   4.793   3.651  0.1971  2.5376  4.0861
  378MOL0     H52137  10.250   4.691   3.623  2.7981 -1.9816 -0.8181
  378MOL0     H52138  10.305   4.993   3.574  0.2652 -0.1765  1.5549
  378MOL0     H52139  10.142   4.940   3.546 -0.1157 -1.2262 -2.3899
  378MOL0     H52140  10.270   4.932   3.337 -1.6807  0.3483 -0.5880
  378MOL0     H52141  10.199   4.781   3.378  1.0466  0.0867 -2.8666
  378MOL0     H52142  10.430   4.700   3.465  1.3345  1.5101  0.1004
  378MOL0     H52143  10.500   4.819   3.392 -2.0716  3.2904  1.6843
  378MOL0     H52144   9.889   5.056   4.370  0.1827  1.1444 -0.3192
  378MOL0     H52145   9.687   5.161   4.422 -1.4407  2.9404 -0.8296
  378MOL0     H52146   9.177   5.172   4.132  0.0570 -1.6870  1.2391
  378MOL0     H52147   8.965   5.208   4.228 -0.5149  0.7679 -1.0730
  378MOL0     H52148   8.225   6.343   4.496  2.3177 -1.4690  3.5317
  378MOL0     H52149   8.334   6.453   4.680 -0.7426 -1.7276  0.5481
  378MOL0     H52150   8.779   6.721   4.646  0.4950  0.7749  0.5129
  378MOL0     H52151   8.944   6.876   4.717  0.5250 -0.3554 -0.3174
  378MOL0     H52152   8.806   7.244   4.882 -0.4036 -0.3880 -4.5018
  378MOL0     H52153   8.952   7.265   4.972 -2.5553  1.4428  0.5417
  378MOL0     H52154   8.940   7.364   4.729 -1.4650 -0.6129  0.7077
  378MOL0     H52155   8.921   7.202   4.680  3.1766 -1.1205 -1.8424
  378MOL0     H52156   9.174   7.316   4.822 -2.7751  3.0763 -0.9913
  378MOL0     H52157   9.159   7.150   4.769 -0.1874 -0.3795  0.8567
  378MOL0     H52158   9.104   7.260   4.531  0.4714  2.2312 -1.7578
  378MOL0     H52159   9.271   7.255   4.596 -0.2811 -1.0319  2.8593
  378MOL0     H52160   9.180   7.663   4.525  1.7328  0.2976  0.9838
  378MOL0     H52161   8.654   7.074   4.965 -3.5959 -3.6999  1.7747
  378MOL0     H52162   8.391   6.861   4.945 -0.3824  0.3517  0.8157
  378MOL0     H52163   8.431   7.039   4.961 -0.6743 -0.2741  1.0678
  378MOL0     H52164   8.381   6.973   4.807  3.4254  3.2919 -1.0841
  379MOL0     O52165   6.918   8.658   1.681  1.0705  0.4772 -0.8857
  379MOL0     C52166   6.961   8.724   1.775 -0.0229  0.5308 -0.0294
  379MOL0     O52167   7.076   8.799   1.767  0.0031 -0.4796  0.3055
  379MOL0     C52168   7.173   8.751   1.685 -0.5381 -0.3260 -0.3736
  379MOL0     C52169   7.170   8.771   1.542  0.5008 -0.4251 -0.3688
  379MOL0     C52170   7.264   8.706   1.459 -0.5744  0.9183  0.1643
  379MOL0     C52171   7.370   8.636   1.512  0.1657  0.8153 -0.5543
  379MOL0     O52172   7.465   8.592   1.426 -1.4849 -0.4863  0.2310
  379MOL0     C52173   7.531   8.469   1.465  0.6962 -0.0935  0.1856
  379MOL0     C52174   7.562   8.369   1.348 -0.3204 -0.8101 -1.0073
  379MOL0     C52175   7.676   8.436   1.271 -0.2294  0.0502 -0.7589
  379MOL0     C52176   7.689   8.348   1.151 -0.5569  1.3462 -0.0050
  379MOL0     C52177   7.824   8.369   1.072 -0.3788  0.0639  0.7496
  379MOL0     C52178   7.799   8.416   0.933  0.4764 -0.2110  0.2879
  379MOL0     C52179   7.928   8.408   0.857 -0.1120 -0.5704 -0.4626
  379MOL0     C52180   7.903   8.357   0.715 -0.2725 -0.1155  0.7401
  379MOL0     N52181   8.028   8.358   0.645 -0.2315 -0.2811  0.0621
  379MOL0     C52182   8.060   8.428   0.535 -0.7374  0.5385  0.3670
  379MOL0     C52183   8.174   8.364   0.483  0.8145 -0.1341 -0.4686
  379MOL0     C52184   8.245   8.419   0.361  1.6084  0.2099 -0.0388
  379MOL0     C52185   8.251   8.313   0.252  0.0351  0.3892  0.6708
  379MOL0     C52186   8.274   8.364   0.106  0.5036  0.3691 -0.6800
  379MOL0     C52187   8.244   8.264  -0.010  0.8989  0.1165 -0.1650
  379MOL0     O52188   8.115   8.213  -0.007  0.7051 -0.4960  0.4630
  379MOL0     C52189   8.080   8.130  -0.120  0.4925 -0.3509  0.2675
  379MOL0     C52190   7.948   8.083  -0.126 -1.1600  0.0852  0.4869
  379MOL0     C52191   7.892   8.023  -0.241 -0.2649  0.7229 -0.2010
  379MOL0     C52192   7.756   7.964  -0.234  0.6423 -0.6304 -0.1072
  379MOL0     C52193   7.968   8.009  -0.358 -0.1713 -0.4801  0.5154
  379MOL0     C52194   7.936   7.931  -0.490 -0.7745 -0.6299  1.2405
  379MOL0     O52195   7.813   7.880  -0.503 -0.4605 -0.4228 -0.1580
  379MOL0     C52196   7.756   7.833  -0.617 -0.3617  0.0249  0.1032
  379MOL0     C52197   7.751   7.914  -0.729  0.0281 -0.5069  0.5227
  379MOL0     C52198   7.701   7.871  -0.854 -0.0393 -0.1596 -0.5357
  379MOL0     C52199   7.649   7.739  -0.861  0.0498  0.1885 -0.0630
  379MOL0     O52200   7.585   7.694  -0.983 -0.0816 -1.4319 -0.0858
  379MOL0     C52201   7.587   7.556  -1.016  0.4257 -0.0624  0.4000
  379MOL0     C52202   7.734   7.517  -1.066 -1.0336  0.7730 -0.0230
  379MOL0     C52203   7.738   7.385  -1.149  0.3269  0.2543  0.6477
  379MOL0     C52204   7.647   7.391  -1.275 -0.5391  0.1583 -0.7112
  379MOL0     C52205   7.637   7.259  -1.353 -0.2120 -1.1366 -0.2597
  379MOL0     C52206   7.547   7.266  -1.471  0.0324 -1.0438 -0.3578
  379MOL0     C52207   7.404   7.315  -1.423 -0.3899 -0.6425  0.1291
  379MOL0     C52208   7.281   7.249  -1.486  0.1040 -0.7972  0.6626
  379MOL0    Cl52209   7.297   7.256  -1.652  0.2262  0.1881 -0.0328
  379MOL0     C52210   7.668   7.653  -0.750 -0.6195 -0.0259  0.2982
  379MOL0     C52211   7.721   7.701  -0.630  0.0872 -0.2984  0.0913
  379MOL0     O52212   8.025   7.931  -0.575  0.4954  0.4314  0.1992
  379MOL0     C52213   8.102   8.060  -0.353 -0.2643 -0.9258 -0.3212
  379MOL0     C52214   8.156   8.113  -0.237  0.5124  0.0030  0.2874
  379MOL0     N52215   8.209   8.257   0.568  0.6054  0.7554  0.2726
  379MOL0     N52216   8.117   8.258   0.661 -0.1849 -0.2590  0.3612
  379MOL0     C52217   7.389   8.639   1.645 -0.5583 -0.5164  1.2783
  379MOL0     C52218   7.292   8.699   1.733 -0.4538 -0.5480 -0.3909
  379MOL0     C52219   6.866   8.714   1.888  0.4832  0.0053 -0.7665
  379MOL0     C52220   6.771   8.603   1.891 -1.1870 -0.2389 -0.2953
  379MOL0     C52221   6.680   8.590   1.985  0.7099  0.5681  0.3163
  379MOL0     C52222   6.683   8.674   2.091  0.6980 -0.4437 -0.2713
  379MOL0     O52223   6.599   8.650   2.194  0.5658  0.4590  0.0869
  379MOL0     C52224   6.669   8.650   2.321 -0.5595  0.2012 -1.1650
  379MOL0     C52225   6.625   8.535   2.424  0.3259 -0.5505  0.4242
  379MOL0     C52226   6.466   8.548   2.451 -0.4309  0.1116 -0.0431
  379MOL0     C52227   6.399   8.427   2.491 -0.7036 -0.0952  0.0002
  379MOL0     C52228   6.257   8.450   2.533  0.5382  0.7513 -0.4362
  379MOL0     C52229   6.149   8.469   2.588  0.2269  0.1004 -0.6795
  379MOL0     C52230   6.777   8.780   2.101 -0.3516  0.1522  0.3678
  379MOL0     C52231   6.864   8.805   1.996 -0.6877 -0.0774 -0.1806
  379MOL0     C52232   6.962   8.913   2.008 -0.5373 -0.3718 -0.8755
  379MOL0     H52233   7.093   8.830   1.493 -0.7401 -1.1006  0.7317
  379MOL0     H52234   7.251   8.704   1.352  3.6758 -1.6578 -0.5209
  379MOL0     H52235   7.478   8.419   1.546  1.2537  1.4330  1.5490
  379MOL0     H52236   7.625   8.498   1.514  0.9627 -1.2493  0.3883
  379MOL0     H52237   7.603   8.282   1.399 -0.1062 -0.1046  0.0503
  379MOL0     H52238   7.473   8.340   1.291 -0.8220 -1.7753  0.2282
  379MOL0     H52239   7.649   8.535   1.232  0.7583  0.4117 -0.5609
  379MOL0     H52240   7.774   8.443   1.319 -0.4959  3.8608 -0.4467
  379MOL0     H52241   7.689   8.241   1.174  1.0737  2.2330  5.3018
  379MOL0     H52242   7.602   8.373   1.090  0.2063  1.1128 -1.2255
  379MOL0     H52243   7.868   8.269   1.080 -0.5911 -0.1570 -0.5840
  379MOL0     H52244   7.889   8.437   1.128 -1.0730  2.0942 -0.7513
  379MOL0     H52245   7.727   8.350   0.885  2.1870 -1.9421 -0.0269
  379MOL0     H52246   7.769   8.521   0.945  2.4831  0.4438  0.0723
  379MOL0     H52247   8.003   8.346   0.906 -0.5603  1.1948  2.7008
  379MOL0     H52248   7.968   8.510   0.862  0.5295 -0.8740  1.4901
  379MOL0     H52249   7.848   8.263   0.724  0.5104 -0.7793 -1.0182
  379MOL0     H52250   7.834   8.426   0.665 -1.6004 -1.9598 -0.0792
  379MOL0     H52251   8.019   8.517   0.488 -0.3743 -0.3406 -1.7348
  379MOL0     H52252   8.344   8.458   0.387  1.5208 -0.2546  1.0096
  379MOL0     H52253   8.189   8.499   0.312  1.0367  0.3880  0.8930
  379MOL0     H52254   8.335   8.243   0.264  2.4140  1.6911 -4.9701
  379MOL0     H52255   8.155   8.262   0.255  1.1701 -1.8583  1.2356
  379MOL0     H52256   8.214   8.452   0.083 -0.4259  0.2109  0.9866
  379MOL0     H52257   8.382   8.378   0.093  1.0849 -2.0175  0.7837
  379MOL0     H52258   8.243   8.321  -0.103 -0.2697  0.3169 -0.0460
  379MOL0     H52259   8.318   8.184  -0.015 -0.3164 -0.9839 -1.4724
  379MOL0     H52260   7.897   8.100  -0.032  0.4067  0.8324  1.2393
  379MOL0     H52261   7.706   7.981  -0.139 -1.6637 -2.3513 -0.9039
  379MOL0     H52262   7.764   7.857  -0.257 -2.2271 -0.5551 -2.0081
  379MOL0     H52263   7.692   8.004  -0.314 -1.6801 -2.1862  0.8561
  379MOL0     H52264   7.782   8.018  -0.718 -0.7862 -0.1858 -0.1029
  379MOL0     H52265   7.692   7.928  -0.946 -0.0313  0.1169 -0.3674
  379MOL0     H52266   7.549   7.489  -0.939  0.3834  0.1254  0.5432
  379MOL0     H52267   7.523   7.564  -1.105  0.3523  2.5093  0.6006
  379MOL0     H52268   7.785   7.600  -1.117 -2.7468  2.3897  0.7782
  379MOL0     H52269   7.785   7.491  -0.974  3.2007 -1.8123 -2.7668
  379MOL0     H52270   7.707   7.299  -1.088 -0.0999  1.5302  2.2910
  379MOL0     H52271   7.843   7.377  -1.179  1.0442  1.6904  2.5760
  379MOL0     H52272   7.697   7.457  -1.346  1.2743 -2.1785 -1.7383
  379MOL0     H52273   7.547   7.427  -1.249 -0.6489 -1.0163  0.6024
  379MOL0     H52274   7.736   7.226  -1.384  0.0017 -0.4292 -0.3515
  379MOL0     H52275   7.589   7.186  -1.287 -1.0979  0.3986  0.8589
  379MOL0     H52276   7.555   7.162  -1.505 -1.8741 -1.9945  1.8274
  379MOL0     H52277   7.585   7.329  -1.552 -2.4776 -0.2035 -0.9742
  379MOL0     H52278   7.380   7.417  -1.453  1.3515 -0.5064 -0.9587
  379MOL0     H52279   7.390   7.310  -1.315  0.5389  1.8278  0.4391
  379MOL0     H52280   7.186   7.294  -1.458  1.0231  1.3434  0.5490
  379MOL0     H52281   7.279   7.146  -1.448  1.9035 -2.0490 -2.2094
  379MOL0     H52282   7.626   7.553  -0.757 -1.7211  0.5099 -1.6555
  379MOL0     H52283   7.749   7.640  -0.546  2.4066 -1.0749 -1.1563
  379MOL0     H52284   8.171   8.073  -0.436 -0.0496 -0.1034 -0.0256
  379MOL0     H52285   8.255   8.157  -0.234  0.2661  0.6541 -0.8587
  379MOL0     H52286   7.488   8.620   1.683  0.5586  2.3382  0.0324
  379MOL0     H52287   7.311   8.713   1.839 -0.1602 -0.4500 -0.4560
  379MOL0     H52288   6.760   8.531   1.811 -1.0254 -1.9638  1.1715
  379MOL0     H52289   6.614   8.507   1.960  0.6488  0.4090  0.9861
  379MOL0     H52290   6.777   8.641   2.314 -0.1034  1.8097  1.9512
  379MOL0     H52291   6.653   8.749   2.366 -2.0456 -0.4141 -0.2667
  379MOL0     H52292   6.684   8.555   2.514  1.3180  2.6100 -0.7923
  379MOL0     H52293   6.654   8.438   2.382  1.5092  1.2265 -3.2747
  379MOL0     H52294   6.439   8.622   2.526 -2.2541 -0.7823  0.2409
  379MOL0     H52295   6.414   8.601   2.371 -0.2442 -1.5878 -1.3537
  379MOL0     H52296   6.440   8.366   2.572 -2.5759  1.1945  2.0495
  379MOL0     H52297   6.382   8.364   2.403  0.0056 -3.9362  2.3779
  379MOL0     H52298   6.060   8.468   2.646  0.4979 -1.9668 -0.2156
  379MOL0     H52299   6.784   8.843   2.189  2.2575 -0.0458  0.3887
  379MOL0     H52300   6.941   8.981   2.091 -2.4407 -0.9770 -0.8185
  379MOL0     H52301   7.063   8.876   2.027 -1.2077 -1.0302  1.8571
  379MOL0     H52302   6.975   8.976   1.919  0.4018  0.8507  0.0962
  380MOL0     O52303   1.337   8.860   4.827  0.0393  0.4328  0.4920
  380MOL0     C52304   1.255   8.802   4.760 -1.1760 -0.2385 -0.2939
  380MOL0     O52305   1.205   8.675   4.791  1.0452 -0.1643 -0.6752
  380MOL0     C52306   1.223   8.634   4.924  0.0461 -0.1638  1.1642
  380MOL0     C52307   1.176   8.706   5.029 -0.0348 -0.7207  0.2015
  380MOL0     C52308   1.183   8.661   5.160 -0.5118  0.2342 -0.4476
  380MOL0     C52309   1.231   8.535   5.181  0.0727  0.6524 -0.2849
  380MOL0     O52310   1.244   8.491   5.307 -0.0730  0.6453 -0.2570
  380MOL0     C52311   1.156   8.382   5.340  1.5973 -0.1368  1.4615
  380MOL0     C52312   1.022   8.434   5.397 -0.6596 -0.0097  0.8723
  380MOL0     C52313   1.034   8.522   5.523 -1.3127 -0.7300  0.0910
  380MOL0     C52314   0.914   8.543   5.618 -0.1427  0.0663  1.0000
  380MOL0     C52315   0.798   8.624   5.563  0.5904  0.4807 -0.6356
  380MOL0     C52316   0.839   8.769   5.534 -0.0917  0.0826  0.1367
  380MOL0     C52317   0.831   8.860   5.661 -0.8253  0.4280 -0.5272
  380MOL0     C52318   0.878   8.999   5.626 -0.2449  0.0043  0.0448
  380MOL0     N52319   0.769   9.060   5.554  0.3672  0.1924 -0.1555
  380MOL0     C52320   0.772   9.094   5.421  0.5101  0.0604  0.7693
  380MOL0     C52321   0.683   9.190   5.400 -0.3767 -0.3722 -0.3860
  380MOL0     C52322   0.668   9.268   5.264  0.6970 -0.4494 -0.4982
  380MOL0     C52323   0.574   9.385   5.273 -0.1292  0.8751  0.2025
  380MOL0     C52324   0.598   9.484   5.155  0.1966  0.2303 -0.1634
  380MOL0     C52325   0.702   9.599   5.201  0.3250 -0.5239  0.0128
  380MOL0     O52326   0.669   9.666   5.321  0.3110 -0.5151  0.0447
  380MOL0     C52327   0.556   9.743   5.329 -0.1869 -0.0841 -1.6191
  380MOL0     C52328   0.513   9.758   5.461  0.2732 -0.0950  0.3931
  380MOL0     C52329   0.400   9.825   5.503  0.7172 -1.2388 -1.0689
  380MOL0     C52330   0.356   9.803   5.645  1.1451 -0.3847  0.4569
  380MOL0     C52331   0.330   9.917   5.416 -0.5552  0.2982  0.0165
  380MOL0     C52332   0.220  10.012   5.450  0.4843 -1.2681 -0.2318
  380MOL0     O52333   0.138  10.052   5.361  0.4847  0.2244  0.4206
  380MOL0     C52334   0.037  10.130   5.407  0.0468 -0.8069  0.0569
  380MOL0     C52335  -0.061  10.080   5.492  0.2539 -0.9473  0.7531
  380MOL0     C52336  -0.156  10.167   5.556  0.1798  1.7779 -0.0759
  380MOL0     C52337  -0.154  10.304   5.535  0.4024 -1.1135  0.1883
  380MOL0     O52338  -0.225  10.391   5.607  0.0975 -0.3480 -0.2395
  380MOL0     C52339  -0.193  10.528   5.617  0.3439 -0.5837 -0.5889
  380MOL0     C52340  -0.238  10.567   5.759  0.2118  0.0649  1.2326
  380MOL0     C52341  -0.247  10.720   5.796  0.2166  0.0358  0.0745
  380MOL0     C52342  -0.376  10.799   5.758 -0.1769 -0.3658  0.5343
  380MOL0     C52343  -0.348  10.944   5.776 -0.5420  0.0579  0.2260
  380MOL0     C52344  -0.326  10.991   5.921 -0.0501  0.0634 -0.3084
  380MOL0     C52345  -0.298  11.141   5.920  0.7435 -0.1784  0.0212
  380MOL0     C52346  -0.282  11.210   6.052 -0.0654  0.0789 -0.5516
  380MOL0    Cl52347  -0.425  11.179   6.157 -1.0427  0.4941  0.2704
  380MOL0     C52348  -0.074  10.348   5.422 -0.9694  0.5684  0.3769
  380MOL0     C52349   0.026  10.273   5.364  0.5027  0.0868 -0.0324
  380MOL0     O52350   0.207  10.030   5.570  0.3681 -0.4150  0.5749
  380MOL0     C52351   0.380   9.912   5.286  0.5042 -0.5821  0.1855
  380MOL0     C52352   0.491   9.825   5.238  0.1907 -1.2930  0.3084
  380MOL0     N52353   0.629   9.229   5.524 -0.0236  0.5297 -0.3050
  380MOL0     N52354   0.685   9.152   5.611  0.3765 -0.1483  1.9609
  380MOL0     C52355   1.281   8.456   5.066  0.0751 -1.0429  0.5903
  380MOL0     C52356   1.269   8.510   4.940 -0.5728  0.9183  0.3734
  380MOL0     C52357   1.212   8.861   4.627  0.2490 -0.5565  0.1518
  380MOL0     C52358   1.150   8.770   4.540  0.2615  0.3723  0.4456
  380MOL0     C52359   1.116   8.812   4.412 -0.2992  0.0215  0.2336
  380MOL0     C52360   1.142   8.941   4.361  0.7823  1.0503 -0.6052
  380MOL0     O52361   1.115   8.989   4.234 -0.0346 -0.4881  0.1963
  380MOL0     C52362   1.064   8.899   4.139  0.6622  0.2665 -0.0810
  380MOL0     C52363   1.164   8.793   4.088 -0.9166 -0.1065 -0.0552
  380MOL0     C52364   1.254   8.859   3.996 -0.8019  0.2750  0.6004
  380MOL0     C52365   1.198   8.886   3.852 -0.4045 -0.4512 -0.8678
  380MOL0     C52366   1.164   8.764   3.781  1.1471 -0.9853  0.5282
  380MOL0     C52367   1.131   8.681   3.706 -0.3885  0.0560  0.0776
  380MOL0     C52368   1.194   9.033   4.452 -0.3240 -0.1498 -1.1930
  380MOL0     C52369   1.232   8.996   4.582 -0.1301  0.2149  0.4008
  380MOL0     C52370   1.296   9.112   4.662 -0.0340  0.2898 -0.7892
  380MOL0     H52371   1.133   8.806   5.027 -0.9153 -1.0966 -1.0337
  380MOL0     H52372   1.169   8.717   5.252 -0.0339  0.1086 -0.2968
  380MOL0     H52373   1.210   8.325   5.417 -1.3111 -1.0440  2.9677
  380MOL0     H52374   1.139   8.327   5.247  0.2879  1.0044  0.9978
  380MOL0     H52375   0.972   8.486   5.314  1.9728  0.3741 -0.5927
  380MOL0     H52376   0.964   8.345   5.423 -0.2939  0.1897  2.4718
  380MOL0     H52377   1.115   8.480   5.583 -0.9869  2.0759  1.8448
  380MOL0     H52378   1.073   8.618   5.487 -2.4878 -0.0735  0.5249
  380MOL0     H52379   0.878   8.446   5.654  0.1646  0.8838  3.7473
  380MOL0     H52380   0.947   8.580   5.716  0.6250  2.5094 -0.1211
  380MOL0     H52381   0.732   8.618   5.650  2.0943 -0.4259  0.4984
  380MOL0     H52382   0.748   8.581   5.476  1.6658 -0.5824 -0.7460
  380MOL0     H52383   0.935   8.768   5.482 -0.2047 -2.9742 -0.1777
  380MOL0     H52384   0.774   8.806   5.454 -3.9176 -3.2025  1.4210
  380MOL0     H52385   0.903   8.829   5.737  1.3112  0.9711 -2.2353
  380MOL0     H52386   0.726   8.854   5.691 -0.7015 -1.3509 -0.3822
  380MOL0     H52387   0.898   9.052   5.719  1.6901  0.4116 -0.5550
  380MOL0     H52388   0.974   9.004   5.573 -0.6314  1.0323 -0.6036
  380MOL0     H52389   0.841   9.052   5.348 -0.8221  0.0008 -0.4923
  380MOL0     H52390   0.631   9.194   5.192 -1.1032  1.7626 -1.9861
  380MOL0     H52391   0.768   9.305   5.241  1.0223 -1.5259 -0.9032
  380MOL0     H52392   0.478   9.333   5.266  0.7596 -0.7987 -0.0186
  380MOL0     H52393   0.575   9.439   5.368  2.0992  1.5526 -0.1365
  380MOL0     H52394   0.621   9.436   5.060  0.2961 -2.3918  1.0931
  380MOL0     H52395   0.502   9.534   5.138  0.6705  1.2404  0.0508
  380MOL0     H52396   0.805   9.563   5.210  0.2529 -0.8291 -0.3483
  380MOL0     H52397   0.710   9.673   5.120  0.0830 -1.2605 -0.7003
  380MOL0     H52398   0.559   9.694   5.536  0.3927  1.2900  1.5232
  380MOL0     H52399   0.368   9.891   5.708  1.1551 -2.1420  3.1072
  380MOL0     H52400   0.414   9.719   5.683  0.7941 -0.1072  1.6648
  380MOL0     H52401   0.247   9.788   5.641  1.1445 -0.2815 -0.0372
  380MOL0     H52402  -0.058   9.975   5.518 -2.8806 -1.2246  0.3386
  380MOL0     H52403  -0.229  10.124   5.625  0.4041  1.2351 -0.1689
  380MOL0     H52404  -0.085  10.537   5.604  0.3943  0.0812  0.2459
  380MOL0     H52405  -0.262  10.589   5.558 -2.7916  1.0499  4.1260
  380MOL0     H52406  -0.339  10.525   5.767 -0.8519  2.0810 -0.4546
  380MOL0     H52407  -0.173  10.528   5.837  0.9096  1.2780  1.2813
  380MOL0     H52408  -0.168  10.771   5.740 -1.2665  0.8635 -1.3215
  380MOL0     H52409  -0.221  10.731   5.902  3.0776  3.7954 -0.8056
  380MOL0     H52410  -0.465  10.772   5.815 -0.1388  1.2769  1.4520
  380MOL0     H52411  -0.412  10.781   5.657  0.5529 -0.7783  0.3383
  380MOL0     H52412  -0.270  10.971   5.704  0.5978 -2.2447  0.4955
  380MOL0     H52413  -0.434  10.994   5.730 -1.7799 -0.8498  1.4428
  380MOL0     H52414  -0.246  10.939   5.974 -1.6234 -0.2990  1.8374
  380MOL0     H52415  -0.414  10.962   5.978  1.0793 -0.3508  1.3190
  380MOL0     H52416  -0.376  11.193   5.864  1.6781 -0.1633 -1.3191
  380MOL0     H52417  -0.203  11.154   5.867  1.8103  0.5378  1.9715
  380MOL0     H52418  -0.271  11.318   6.053 -0.6221  0.1518  1.0789
  380MOL0     H52419  -0.195  11.168   6.105  0.0027  1.9832  0.9433
  380MOL0     H52420  -0.085  10.450   5.387 -1.4647  0.1331 -0.7958
  380MOL0     H52421   0.080  10.315   5.279 -2.0395 -2.5569 -3.2470
  380MOL0     H52422   0.338   9.982   5.214  0.3791 -0.5227  0.3134
  380MOL0     H52423   0.525   9.817   5.136 -3.2685 -1.8080 -0.9436
  380MOL0     H52424   1.316   8.355   5.084 -0.4518 -1.6341 -1.4467
  380MOL0     H52425   1.304   8.458   4.852 -1.0923  3.9286 -1.7872
  380MOL0     H52426   1.103   8.677   4.571  1.3246 -0.1351  0.5728
  380MOL0     H52427   1.062   8.732   4.362  3.6323 -1.1207 -2.6102
  380MOL0     H52428   0.980   8.841   4.178 -0.2853  2.2428  0.9456
  380MOL0     H52429   1.023   8.955   4.056 -1.3488 -0.9333  0.0437
  380MOL0     H52430   1.121   8.707   4.036  0.9905 -1.7656  0.9498
  380MOL0     H52431   1.211   8.738   4.170 -2.3167 -1.1898  0.0577
  380MOL0     H52432   1.297   8.947   4.045 -0.3080 -0.9161  2.4220
  380MOL0     H52433   1.334   8.791   3.965 -4.0048 -2.1715 -3.3047
  380MOL0     H52434   1.273   8.939   3.794  1.1084 -2.0765 -0.4821
  380MOL0     H52435   1.111   8.948   3.876  1.2608  1.7523 -0.2294
  380MOL0     H52436   1.111   8.603   3.635 -1.3086  0.1838  0.1827
  380MOL0     H52437   1.221   9.135   4.425 -0.4916  0.4429  0.7472
  380MOL0     H52438   1.287   9.207   4.608  1.3657 -0.3452 -2.2026
  380MOL0     H52439   1.246   9.106   4.760 -0.3103 -2.0371 -1.0276
  380MOL0     H52440   1.403   9.096   4.673 -0.1748  0.1891  0.6796
  381MOL0     O52441   4.096   6.480   2.742 -0.3674 -0.4103 -0.2431
  381MOL0     C52442   4.119   6.379   2.677  0.6977 -0.9301  0.7092
  381MOL0     O52443   4.203   6.283   2.715  0.3326 -0.2722 -0.0339
  381MOL0     C52444   4.271   6.268   2.836 -0.7129  0.0987 -0.4612
  381MOL0     C52445   4.286   6.366   2.936 -0.2732 -0.0419  0.1755
  381MOL0     C52446   4.360   6.352   3.059  0.6124  0.4484  1.1169
  381MOL0     C52447   4.417   6.229   3.082  0.3642 -0.2815  0.6179
  381MOL0     O52448   4.494   6.204   3.196 -0.1869  1.4934 -0.4778
  381MOL0     C52449   4.625   6.258   3.197  0.3199  0.4977 -0.2761
  381MOL0     C52450   4.677   6.230   3.343  0.6432 -0.0286  0.3158
  381MOL0     C52451   4.836   6.249   3.350 -0.0137  0.9054  0.1246
  381MOL0     C52452   4.889   6.279   3.491 -0.0366  0.2413  0.4091
  381MOL0     C52453   5.036   6.261   3.515  0.1089 -0.8138  0.3424
  381MOL0     C52454   5.125   6.349   3.418  1.6533  0.3690  0.0818
  381MOL0     C52455   5.138   6.279   3.272 -0.6438 -0.6127 -0.6985
  381MOL0     C52456   5.260   6.307   3.199 -0.0849 -0.1226 -0.5151
  381MOL0     N52457   5.287   6.456   3.177  0.3931 -0.4512 -0.2553
  381MOL0     C52458   5.215   6.527   3.091 -0.0490 -0.5357  0.1320
  381MOL0     C52459   5.265   6.653   3.099 -0.7744 -0.5488 -0.2120
  381MOL0     C52460   5.204   6.772   3.029  0.3954 -0.2027 -0.4243
  381MOL0     C52461   5.136   6.868   3.119 -0.4826 -0.8378  0.3964
  381MOL0     C52462   5.230   6.974   3.194  0.8525  0.6292  0.1469
  381MOL0     C52463   5.366   7.012   3.140 -0.3526 -0.1984 -0.4162
  381MOL0     O52464   5.420   7.090   3.247 -0.4021 -0.3647 -0.5379
  381MOL0     C52465   5.544   7.037   3.287  0.5101 -0.1154  0.0246
  381MOL0     C52466   5.657   7.052   3.203  0.1744  0.4096 -0.4213
  381MOL0     C52467   5.781   7.004   3.249  0.2061 -0.7685  0.1195
  381MOL0     C52468   5.882   6.983   3.139 -0.0216  0.1765 -0.9149
  381MOL0     C52469   5.796   6.968   3.384  0.3929  0.1400 -0.9458
  381MOL0     C52470   5.923   6.930   3.449  0.5507  0.8252  0.2674
  381MOL0     O52471   5.931   6.867   3.566 -0.4156 -0.3856 -0.5391
  381MOL0     C52472   6.048   6.850   3.637 -0.7157 -0.2499 -1.2397
  381MOL0     C52473   6.088   6.723   3.679  0.5462 -0.0211 -0.4503
  381MOL0     C52474   6.214   6.700   3.744  0.4962  0.5635  0.9813
  381MOL0     C52475   6.291   6.817   3.775  0.6640  1.2378 -0.0197
  381MOL0     O52476   6.415   6.783   3.816  0.3070  0.6973 -0.6729
  381MOL0     C52477   6.509   6.883   3.878  0.1416  0.3997  0.5959
  381MOL0     C52478   6.569   6.813   3.998 -1.1741  0.1316  0.4479
  381MOL0     C52479   6.476   6.722   4.076  0.1571 -0.5372  0.9794
  381MOL0     C52480   6.554   6.678   4.202  0.1538  0.4691  0.3513
  381MOL0     C52481   6.454   6.635   4.312  0.0459  0.4141 -0.9989
  381MOL0     C52482   6.517   6.596   4.441  0.6500  0.2367  0.1900
  381MOL0     C52483   6.452   6.669   4.562  0.1938  0.6795  0.7363
  381MOL0     C52484   6.498   6.622   4.693 -0.6119 -0.2347  0.3237
  381MOL0    Cl52485   6.419   6.732   4.803  0.4789  0.5214 -0.2096
  381MOL0     C52486   6.253   6.941   3.739  0.7383 -0.7180 -0.5568
  381MOL0     C52487   6.123   6.959   3.682  0.5535  0.6242  1.0037
  381MOL0     O52488   6.028   6.969   3.389  0.4651  0.4677 -0.3435
  381MOL0     C52489   5.692   6.966   3.471  0.7107  0.3402 -0.5905
  381MOL0     C52490   5.563   6.994   3.424 -0.0503  0.4531  0.4588
  381MOL0     N52491   5.371   6.658   3.187  0.2076 -0.1065  0.2037
  381MOL0     N52492   5.386   6.534   3.229  0.3799 -0.1736  0.5348
  381MOL0     C52493   4.413   6.129   2.989 -0.4841  0.3037  0.0157
  381MOL0     C52494   4.344   6.146   2.868 -0.6901 -0.1274  0.5942
  381MOL0     C52495   4.053   6.355   2.555  0.3533 -0.1898  0.9176
  381MOL0     C52496   3.991   6.224   2.541  0.9464  0.2651  0.1180
  381MOL0     C52497   3.937   6.195   2.421 -0.3716  0.8601  0.6988
  381MOL0     C52498   3.923   6.290   2.326 -0.6955 -0.1807  1.2806
  381MOL0     O52499   3.873   6.275   2.199 -0.2815 -0.1433 -0.3831
  381MOL0     C52500   3.882   6.145   2.132  0.5635  0.1105  0.6305
  381MOL0     C52501   4.024   6.119   2.088 -0.7529  0.4990  0.1654
  381MOL0     C52502   4.036   5.996   2.006  0.7993  0.5263  1.4466
  381MOL0     C52503   4.162   5.966   1.928 -0.5869  0.1871  0.1823
  381MOL0     C52504   4.257   5.875   1.995 -0.6337  0.3333 -0.1436
  381MOL0     C52505   4.343   5.806   2.050 -0.1537 -0.5358  0.0224
  381MOL0     C52506   3.974   6.425   2.342 -0.3896  0.6111  0.2321
  381MOL0     C52507   4.038   6.456   2.461 -0.2847  0.1095  0.5798
  381MOL0     C52508   4.093   6.594   2.470 -0.8006  0.7305 -0.0143
  381MOL0     H52509   4.244   6.464   2.913  4.3459  3.3495  4.1427
  381MOL0     H52510   4.376   6.436   3.125  2.3308  0.0984  1.2099
  381MOL0     H52511   4.610   6.365   3.184  1.3279  0.6058 -0.7101
  381MOL0     H52512   4.703   6.223   3.128 -1.8737  0.7868 -3.1071
  381MOL0     H52513   4.632   6.300   3.415 -0.3419 -2.5235  2.2851
  381MOL0     H52514   4.648   6.130   3.378  4.7050 -1.8640 -0.9359
  381MOL0     H52515   4.877   6.162   3.299 -0.5176  1.1653 -0.7388
  381MOL0     H52516   4.867   6.332   3.286 -1.8787  0.8991 -0.8674
  381MOL0     H52517   4.852   6.379   3.516 -2.2945 -0.6581  0.9522
  381MOL0     H52518   4.837   6.215   3.562  0.3792 -0.1765  0.3374
  381MOL0     H52519   5.064   6.158   3.493  1.1250 -0.4381 -0.1853
  381MOL0     H52520   5.054   6.293   3.619 -0.2558  1.8993 -0.3598
  381MOL0     H52521   5.063   6.439   3.413 -1.0127 -1.4153 -1.3522
  381MOL0     H52522   5.224   6.370   3.459  1.3114 -0.1538  1.1999
  381MOL0     H52523   5.050   6.316   3.219 -0.5574 -0.2904 -0.6197
  381MOL0     H52524   5.128   6.171   3.283 -3.3332 -0.3627  0.0714
  381MOL0     H52525   5.346   6.266   3.253  2.2921  1.5865 -2.7200
  381MOL0     H52526   5.253   6.262   3.099  0.7549 -0.5196 -0.4085
  381MOL0     H52527   5.137   6.494   3.022 -0.1698  0.5095 -0.2396
  381MOL0     H52528   5.136   6.734   2.953 -0.1762  0.5491 -0.2992
  381MOL0     H52529   5.280   6.828   2.974  0.7774  0.6126  0.8794
  381MOL0     H52530   5.062   6.924   3.061  1.2450 -0.8516 -1.9798
  381MOL0     H52531   5.070   6.820   3.192 -2.7501  0.1642 -0.8946
  381MOL0     H52532   5.177   7.068   3.208  0.7269  0.7309 -0.9094
  381MOL0     H52533   5.251   6.939   3.295  0.0354  0.1178  0.1478
  381MOL0     H52534   5.425   6.926   3.108  0.9413  1.4535 -2.7410
  381MOL0     H52535   5.357   7.087   3.061 -0.1894 -1.0236 -1.2323
  381MOL0     H52536   5.653   7.083   3.099 -1.6402  2.6049  0.2241
  381MOL0     H52537   5.973   7.044   3.138  1.2449 -1.6491 -0.9275
  381MOL0     H52538   5.846   7.003   3.038  1.9354  1.0255 -1.4911
  381MOL0     H52539   5.914   6.879   3.148 -0.5226 -0.0356 -1.5504
  381MOL0     H52540   6.022   6.638   3.664 -0.3132  0.6308 -0.4548
  381MOL0     H52541   6.257   6.606   3.777 -1.5362 -0.7802  0.0083
  381MOL0     H52542   6.588   6.905   3.806 -0.9734 -3.5742 -2.1493
  381MOL0     H52543   6.465   6.979   3.907 -1.1494 -0.1321  0.4934
  381MOL0     H52544   6.651   6.750   3.962 -0.1974  0.4064  2.0908
  381MOL0     H52545   6.616   6.886   4.065 -0.0434  3.0616 -3.1669
  381MOL0     H52546   6.445   6.644   4.007  2.8237  0.6548 -1.8316
  381MOL0     H52547   6.389   6.779   4.111  1.0304  3.0670 -2.0658
  381MOL0     H52548   6.617   6.759   4.238  0.2321  0.9555 -0.8454
  381MOL0     H52549   6.616   6.591   4.177 -0.4899  0.7648 -2.6769
  381MOL0     H52550   6.385   6.718   4.329 -1.6476 -1.3943  1.6836
  381MOL0     H52551   6.394   6.550   4.279 -1.0535  0.5010  0.7097
  381MOL0     H52552   6.623   6.623   4.440  0.4384  1.2154  1.2671
  381MOL0     H52553   6.515   6.487   4.445  0.9476  0.2515  1.2092
  381MOL0     H52554   6.345   6.651   4.549  0.9539 -2.2723 -3.6270
  381MOL0     H52555   6.483   6.773   4.547  1.5309 -0.1143 -3.3998
  381MOL0     H52556   6.607   6.635   4.691 -0.4691 -1.1808 -2.0321
  381MOL0     H52557   6.479   6.517   4.714  1.2846 -0.7025 -0.1006
  381MOL0     H52558   6.319   7.025   3.760 -1.4781  0.8268  0.7400
  381MOL0     H52559   6.104   7.061   3.649 -1.0020 -0.9999 -4.1232
  381MOL0     H52560   5.712   6.954   3.577 -0.2143  1.5014 -0.2583
  381MOL0     H52561   5.478   6.984   3.490 -0.1678 -0.6790  0.1531
  381MOL0     H52562   4.464   6.034   3.007 -3.8839 -1.1535  3.1105
  381MOL0     H52563   4.351   6.063   2.798  1.8182  1.1119 -0.7620
  381MOL0     H52564   3.992   6.144   2.614 -0.5497 -0.9076 -1.0813
  381MOL0     H52565   3.915   6.090   2.409  0.9497  0.5700  0.7015
  381MOL0     H52566   3.836   6.060   2.183  0.4635 -3.6838 -4.8681
  381MOL0     H52567   3.815   6.148   2.046  1.2384 -1.4877  0.0052
  381MOL0     H52568   4.085   6.114   2.179 -0.5840 -1.5271 -0.0081
  381MOL0     H52569   4.057   6.203   2.028 -1.0304  0.1859 -0.4325
  381MOL0     H52570   4.010   5.918   2.078 -1.2996  2.0928  2.4981
  381MOL0     H52571   3.958   6.013   1.931  1.6657 -0.5919  0.2331
  381MOL0     H52572   4.215   6.056   1.897  3.2122 -0.7014  3.2054
  381MOL0     H52573   4.130   5.922   1.833 -1.3070 -2.1058  1.4206
  381MOL0     H52574   4.415   5.745   2.101  1.5449  1.4065  0.0553
  381MOL0     H52575   3.952   6.497   2.264  0.4529  0.5404 -0.0826
  381MOL0     H52576   4.199   6.589   2.499 -1.2367 -1.1319  1.4723
  381MOL0     H52577   4.096   6.637   2.369 -0.3295  2.0199  0.5296
  381MOL0     H52578   4.028   6.653   2.534 -0.3814  1.5316 -0.3064
  382MOL0     O52579   2.530   5.672   4.440  0.1940  0.4151  0.3444
  382MOL0     C52580   2.513   5.777   4.374  0.7756  0.2728  0.7011
  382MOL0     O52581   2.570   5.795   4.254  0.5765  0.5054 -0.1530
  382MOL0     C52582   2.651   5.698   4.199  0.5595 -0.1739 -0.1011
  382MOL0     C52583   2.780   5.732   4.168 -0.0189  0.0742 -0.0732
  382MOL0     C52584   2.869   5.655   4.103  0.1477  0.0361  1.1573
  382MOL0     C52585   2.848   5.519   4.099  0.0786  0.7491 -0.4035
  382MOL0     O52586   2.944   5.439   4.033 -0.0941 -0.8544  0.5110
  382MOL0     C52587   2.965   5.308   4.092  0.4511 -0.1980  0.3372
  382MOL0     C52588   3.026   5.320   4.228 -0.2524  0.2970  0.1377
  382MOL0     C52589   3.163   5.392   4.224  0.1779 -0.4565  0.1029
  382MOL0     C52590   3.282   5.303   4.170  1.4038 -1.2281  0.9608
  382MOL0     C52591   3.412   5.391   4.186 -0.0356 -0.0299 -0.6231
  382MOL0     C52592   3.537   5.310   4.173 -0.0455 -0.0126 -0.1613
  382MOL0     C52593   3.663   5.389   4.197 -0.0446  0.6125  0.1047
  382MOL0     C52594   3.777   5.295   4.226 -0.2823  0.0490  0.1780
  382MOL0     N52595   3.896   5.373   4.223  0.1361 -0.6513 -0.5660
  382MOL0     C52596   3.951   5.438   4.106 -0.4556  0.3330  0.2448
  382MOL0     C52597   4.046   5.526   4.145  0.0233  0.2882 -0.8403
  382MOL0     C52598   4.128   5.623   4.059 -0.6801  0.1222 -0.3331
  382MOL0     C52599   4.233   5.566   3.961  0.5867  0.3461  0.0170
  382MOL0     C52600   4.323   5.681   3.901 -1.1570 -0.6664 -0.2488
  382MOL0     C52601   4.457   5.628   3.856 -0.8802  0.2753 -0.0534
  382MOL0     O52602   4.563   5.712   3.808  0.4085 -0.2381 -0.1114
  382MOL0     C52603   4.600   5.811   3.901 -0.5450 -0.8995 -0.3874
  382MOL0     C52604   4.657   5.787   4.026 -0.3901  0.1949 -0.4756
  382MOL0     C52605   4.711   5.883   4.115  0.4840  0.9641 -0.0733
  382MOL0     C52606   4.750   5.830   4.257 -0.3681  0.5964  0.9400
  382MOL0     C52607   4.723   6.017   4.064  0.4637  0.6197  0.2291
  382MOL0     C52608   4.773   6.131   4.145 -0.7603  0.3694  1.1833
  382MOL0     O52609   4.773   6.250   4.077  0.1781  0.5010  0.2372
  382MOL0     C52610   4.814   6.362   4.140 -0.3972  0.6742 -0.6988
  382MOL0     C52611   4.906   6.453   4.082  0.5434  0.0898 -0.8483
  382MOL0     C52612   4.910   6.592   4.128  0.5267  0.1117 -0.0049
  382MOL0     C52613   4.837   6.638   4.230  0.0009 -1.1062  0.3521
  382MOL0     O52614   4.830   6.766   4.271  0.6076 -0.1690 -0.9313
  382MOL0     C52615   4.728   6.815   4.352 -0.1007  0.9697 -0.3514
  382MOL0     C52616   4.719   6.967   4.323 -0.5104  0.6348  0.1352
  382MOL0     C52617   4.660   6.992   4.181 -0.4651  0.4685 -0.8602
  382MOL0     C52618   4.629   7.143   4.152 -0.1609  0.4698  0.0001
  382MOL0     C52619   4.529   7.153   4.040 -0.8149 -0.2197 -0.1914
  382MOL0     C52620   4.590   7.141   3.897  0.5994 -0.3820 -0.5403
  382MOL0     C52621   4.559   6.989   3.841 -1.0280  0.2276 -0.4768
  382MOL0     C52622   4.619   6.958   3.695  0.0873 -0.0235 -0.5321
  382MOL0    Cl52623   4.586   7.107   3.599  0.0348  0.0612  0.1924
  382MOL0     C52624   4.766   6.539   4.302 -0.4083  0.2304  0.7990
  382MOL0     C52625   4.747   6.407   4.256 -0.7119 -0.9515  1.3218
  382MOL0     O52626   4.806   6.117   4.262 -0.4180 -0.2731 -0.3358
  382MOL0     C52627   4.676   6.037   3.931 -0.2858  0.9117 -0.3726
  382MOL0     C52628   4.616   5.937   3.852  0.1561  0.4014 -0.3449
  382MOL0     N52629   4.044   5.514   4.278  0.2231 -1.0661  0.6503
  382MOL0     N52630   3.968   5.429   4.319  0.6360  0.0418 -0.0720
  382MOL0     C52631   2.722   5.475   4.135  0.9713 -0.2617  0.3238
  382MOL0     C52632   2.621   5.557   4.187  0.7160  0.6704 -0.0108
  382MOL0     C52633   2.395   5.864   4.408 -0.3041 -0.0991 -0.3847
  382MOL0     C52634   2.383   5.985   4.339 -0.2802 -0.1494 -0.7448
  382MOL0     C52635   2.297   6.083   4.379  0.6272 -0.7159 -0.7972
  382MOL0     C52636   2.210   6.057   4.493  0.5211 -0.5173  0.7467
  382MOL0     O52637   2.121   6.155   4.536  0.3157  0.2310  0.0681
  382MOL0     C52638   2.125   6.196   4.672 -0.2994 -0.2643 -0.1303
  382MOL0     C52639   2.049   6.329   4.686 -0.3081 -0.4164 -0.5583
  382MOL0     C52640   2.123   6.452   4.628  0.8287  0.4648 -0.6212
  382MOL0     C52641   2.269   6.468   4.671 -0.4221 -0.2769 -0.5191
  382MOL0     C52642   2.305   6.598   4.615 -0.6050  0.0136 -0.3207
  382MOL0     C52643   2.330   6.700   4.560 -0.3090 -0.0890  0.2077
  382MOL0     C52644   2.212   5.936   4.557 -0.2320  0.9737  0.0281
  382MOL0     C52645   2.304   5.840   4.521 -0.9682 -0.9200 -0.2373
  382MOL0     C52646   2.307   5.727   4.612 -0.0655 -0.9486 -0.4343
  382MOL0     H52647   2.811   5.833   4.194  1.3214 -0.4454  0.4491
  382MOL0     H52648   2.966   5.692   4.074  0.1001 -0.9374 -0.3614
  382MOL0     H52649   3.042   5.253   4.036  0.1978 -0.9308  0.7020
  382MOL0     H52650   2.872   5.250   4.098  0.3969 -0.3489 -1.4135
  382MOL0     H52651   2.957   5.366   4.299 -0.9636  2.7403 -1.9412
  382MOL0     H52652   3.042   5.219   4.266 -0.0223 -1.2281 -3.5429
  382MOL0     H52653   3.140   5.481   4.165  3.1776 -0.9517 -2.0546
  382MOL0     H52654   3.195   5.423   4.324 -2.5312 -0.2064  0.9766
  382MOL0     H52655   3.276   5.203   4.212 -3.2546 -1.1601  0.9055
  382MOL0     H52656   3.270   5.293   4.062  0.3072  0.3901  0.8910
  382MOL0     H52657   3.410   5.455   4.275  1.4735  0.4893 -0.9369
  382MOL0     H52658   3.412   5.458   4.099  0.4990  1.1454  0.2595
  382MOL0     H52659   3.528   5.238   4.255  0.2605 -0.7519 -0.7638
  382MOL0     H52660   3.549   5.243   4.087 -0.2525 -2.5011  1.6228
  382MOL0     H52661   3.644   5.447   4.287 -0.7909 -1.1479  1.1192
  382MOL0     H52662   3.686   5.462   4.118  1.1528  2.0508  1.6935
  382MOL0     H52663   3.784   5.251   4.326  2.5282 -1.7244 -0.7113
  382MOL0     H52664   3.795   5.220   4.149 -0.3178  1.4303 -1.2297
  382MOL0     H52665   3.931   5.415   4.002 -0.3396 -2.1570  0.7103
  382MOL0     H52666   4.169   5.688   4.137  2.5095 -3.0407  0.8997
  382MOL0     H52667   4.056   5.675   3.995 -0.5181  3.8646  2.2106
  382MOL0     H52668   4.288   5.489   4.016  0.1061 -1.5169 -1.9957
  382MOL0     H52669   4.180   5.511   3.882  0.9386 -1.4877  0.9948
  382MOL0     H52670   4.283   5.736   3.815  1.3244 -0.3743 -1.3174
  382MOL0     H52671   4.348   5.758   3.974  1.7534 -0.3267 -1.4458
  382MOL0     H52672   4.502   5.567   3.935  0.7952  1.6662  0.1205
  382MOL0     H52673   4.435   5.557   3.775  3.1508 -3.8295  1.9720
  382MOL0     H52674   4.656   5.681   4.052 -2.4097  0.1424 -0.5985
  382MOL0     H52675   4.848   5.871   4.284  0.3910 -0.0503 -0.7005
  382MOL0     H52676   4.760   5.721   4.250 -1.6264  0.5366 -0.0595
  382MOL0     H52677   4.673   5.853   4.331 -0.9472  1.0710  0.2018
  382MOL0     H52678   4.951   6.442   3.984 -2.7440  1.0466 -2.6150
  382MOL0     H52679   4.959   6.673   4.076  0.5680  0.5415  0.6940
  382MOL0     H52680   4.632   6.767   4.330  1.8035 -1.7390 -3.8100
  382MOL0     H52681   4.752   6.804   4.458  1.2066  1.3419 -0.5960
  382MOL0     H52682   4.659   7.007   4.404 -1.1425 -3.1873  1.7812
  382MOL0     H52683   4.821   7.006   4.332  1.3263 -3.7348  0.9615
  382MOL0     H52684   4.568   6.934   4.185  1.2128 -2.2993  1.5332
  382MOL0     H52685   4.727   6.949   4.106  1.0088 -1.0234  1.1942
  382MOL0     H52686   4.722   7.190   4.118 -0.9557  1.1991 -1.2303
  382MOL0     H52687   4.580   7.187   4.239 -1.2249  0.0020 -0.3422
  382MOL0     H52688   4.460   7.068   4.038 -1.3839  0.2455 -0.2140
  382MOL0     H52689   4.490   7.253   4.058 -0.2164 -0.4177  2.6747
  382MOL0     H52690   4.696   7.164   3.879  0.0114  0.0195 -4.5299
  382MOL0     H52691   4.532   7.214   3.840 -1.6670  1.3792  3.6347
  382MOL0     H52692   4.452   6.971   3.826 -1.2074  0.3518  0.5604
  382MOL0     H52693   4.594   6.916   3.915 -0.7677  1.1127  0.2910
  382MOL0     H52694   4.584   6.862   3.656 -0.0522 -0.7507  1.2888
  382MOL0     H52695   4.727   6.944   3.707  0.0369  1.0635  1.6533
  382MOL0     H52696   4.707   6.567   4.389  0.3931  2.1522  0.7681
  382MOL0     H52697   4.682   6.348   4.320 -1.8728  1.9435  2.9597
  382MOL0     H52698   4.672   6.132   3.878  1.4456  1.2622  0.0540
  382MOL0     H52699   4.579   5.959   3.752  0.7505 -0.2922 -0.7275
  382MOL0     H52700   2.690   5.373   4.118 -0.6059  0.3833 -0.7185
  382MOL0     H52701   2.532   5.521   4.237  0.4492  2.5005  0.8972
  382MOL0     H52702   2.443   6.013   4.253  1.6426  1.6020  1.0745
  382MOL0     H52703   2.286   6.184   4.340  1.8436  0.4658  1.6881
  382MOL0     H52704   2.069   6.120   4.727  0.3459 -0.6066  0.0578
  382MOL0     H52705   2.226   6.215   4.707  0.1699 -0.9512 -1.0583
  382MOL0     H52706   2.020   6.338   4.791 -2.1114 -0.8014 -0.9906
  382MOL0     H52707   1.953   6.312   4.637 -1.2956  0.7968  0.8728
  382MOL0     H52708   2.121   6.439   4.520  1.4072  1.3893 -0.7536
  382MOL0     H52709   2.066   6.543   4.648  0.5292 -0.0485  1.0821
  382MOL0     H52710   2.325   6.391   4.617  0.2661  0.7756 -1.3492
  382MOL0     H52711   2.286   6.453   4.778 -0.2403 -0.8281 -0.6209
  382MOL0     H52712   2.357   6.796   4.522 -0.6060 -0.3233 -0.6225
  382MOL0     H52713   2.150   5.910   4.642  3.5882 -1.6470  2.3407
  382MOL0     H52714   2.399   5.727   4.671 -1.1393  1.8599  1.4384
  382MOL0     H52715   2.226   5.713   4.684 -0.5386  1.7629 -0.3568
  382MOL0     H52716   2.309   5.646   4.538  0.8174 -1.8810  0.5835
  383MOL0     O52717   5.815   7.554   4.692 -0.2498 -0.0780 -0.3929
  383MOL0     C52718   5.931   7.512   4.704  0.6374 -0.6484 -0.8028
  383MOL0     O52719   6.044   7.591   4.697 -0.1829 -0.2139 -0.2186
  383MOL0     C52720   6.031   7.710   4.644 -0.0454 -0.3009 -0.1202
  383MOL0     C52721   5.952   7.746   4.526  0.5253 -0.3367  0.0881
  383MOL0     C52722   5.931   7.876   4.486  0.1154 -0.4772  0.3886
  383MOL0     C52723   5.981   7.981   4.554 -0.3007 -0.7489 -0.2098
  383MOL0     O52724   5.986   8.120   4.520 -0.1163 -0.7811  0.1664
  383MOL0     C52725   5.944   8.149   4.386 -0.9556 -0.1802  0.0721
  383MOL0     C52726   5.990   8.294   4.345  0.6486  0.7934  0.0151
  383MOL0     C52727   5.924   8.353   4.213 -0.5369 -0.5323 -0.0644
  383MOL0     C52728   5.934   8.503   4.193 -0.1719 -0.4470  0.0097
  383MOL0     C52729   6.078   8.546   4.171 -0.0228  0.1488 -0.5146
  383MOL0     C52730   6.098   8.693   4.225  0.6995  0.3012  0.7531
  383MOL0     C52731   6.046   8.800   4.127 -0.2104 -0.5858  0.2585
  383MOL0     C52732   6.057   8.943   4.177  0.0278  0.6341 -0.4285
  383MOL0     N52733   6.192   8.959   4.205 -0.1938 -0.1782  0.3898
  383MOL0     C52734   6.228   8.981   4.337 -0.8918 -0.7105 -0.3616
  383MOL0     C52735   6.362   8.988   4.317 -0.0398 -0.7442 -0.5554
  383MOL0     C52736   6.467   9.007   4.426 -0.2955 -0.4716  0.0482
  383MOL0     C52737   6.596   8.921   4.436  0.0576  0.3490  1.0845
  383MOL0     C52738   6.565   8.782   4.472 -0.1011  1.5354 -0.5789
  383MOL0     C52739   6.561   8.775   4.627 -0.2985 -0.6817  0.0293
  383MOL0     O52740   6.699   8.768   4.684 -0.5565 -0.1963  0.4389
  383MOL0     C52741   6.727   8.653   4.750  0.8047 -0.3697 -0.2225
  383MOL0     C52742   6.690   8.518   4.701 -0.0835 -0.2600  0.1970
  383MOL0     C52743   6.696   8.404   4.787  0.4897 -0.6640 -0.7198
  383MOL0     C52744   6.633   8.273   4.735  0.1611  0.0113  0.2644
  383MOL0     C52745   6.767   8.423   4.910 -0.8918 -0.4268 -0.1498
  383MOL0     C52746   6.797   8.312   5.003  0.6967  0.6680  0.9217
  383MOL0     O52747   6.913   8.316   5.060  0.5957 -0.4677 -0.9485
  383MOL0     C52748   6.943   8.223   5.154 -1.3199  1.5487  0.1448
  383MOL0     C52749   7.040   8.118   5.110 -0.1829 -0.0696 -0.3589
  383MOL0     C52750   7.093   8.023   5.205  0.3461 -0.4840  0.9217
  383MOL0     C52751   7.030   8.027   5.331  0.2243 -0.5167  0.2936
  383MOL0     O52752   7.075   7.927   5.412 -0.1044  0.8005  0.0905
  383MOL0     C52753   7.182   7.963   5.498 -0.0680  0.3962 -0.2611
  383MOL0     C52754   7.143   7.915   5.633  1.1878 -0.1664 -0.3152
  383MOL0     C52755   7.224   7.981   5.753  0.8391 -1.0750  0.0994
  383MOL0     C52756   7.201   7.898   5.879 -0.6529  0.1104  0.2013
  383MOL0     C52757   7.281   7.961   5.998 -0.8487  0.1235  0.1924
  383MOL0     C52758   7.237   7.890   6.130  0.2452 -0.5124 -0.4891
  383MOL0     C52759   7.356   7.894   6.232  0.3653 -0.6350 -0.0458
  383MOL0     C52760   7.391   8.042   6.277 -0.3033 -0.2087 -0.3789
  383MOL0    Cl52761   7.472   8.052   6.431  0.2078 -0.1118 -0.1548
  383MOL0     C52762   6.933   8.123   5.377  0.1181 -0.5736  0.4430
  383MOL0     C52763   6.895   8.214   5.282  0.0097 -0.1335 -0.4945
  383MOL0     O52764   6.713   8.225   5.022 -0.8425  0.0736  0.5636
  383MOL0     C52765   6.824   8.550   4.945  0.0975  0.3951 -0.1104
  383MOL0     C52766   6.800   8.663   4.872  0.5649 -0.6379 -0.0053
  383MOL0     N52767   6.394   8.982   4.183  0.5343 -0.0366  0.4213
  383MOL0     N52768   6.291   8.972   4.115 -0.9557  0.3644  0.2288
  383MOL0     C52769   6.059   7.954   4.671  0.2454  0.1090  1.2996
  383MOL0     C52770   6.083   7.820   4.709 -0.7496 -0.9842 -0.1093
  383MOL0     C52771   5.945   7.373   4.741  0.4033 -0.1064 -0.2395
  383MOL0     C52772   5.885   7.280   4.663  0.8662 -0.4842 -0.3993
  383MOL0     C52773   5.911   7.144   4.693 -0.3324 -0.5626 -0.6903
  383MOL0     C52774   5.997   7.108   4.796 -0.6033 -0.4410 -0.3586
  383MOL0     O52775   6.014   6.977   4.825 -0.1458  0.1353  0.5185
  383MOL0     C52776   6.053   6.932   4.952  0.3443 -0.5349 -0.3036
  383MOL0     C52777   5.918   6.952   5.042 -0.1114 -0.5800 -0.2277
  383MOL0     C52778   5.788   6.884   4.981  0.6488 -0.6021  0.3894
  383MOL0     C52779   5.669   6.844   5.085 -0.7359  0.6464  0.0423
  383MOL0     C52780   5.721   6.759   5.192  0.1498 -0.5502 -0.5026
  383MOL0     C52781   5.763   6.685   5.278 -0.2257 -0.2398  0.6140
  383MOL0     C52782   6.043   7.204   4.886  0.5633  1.4044  0.3399
  383MOL0     C52783   6.023   7.342   4.854 -0.6684  0.2638  0.5573
  383MOL0     C52784   6.101   7.443   4.941  0.2549  0.8394 -0.7155
  383MOL0     H52785   5.895   7.672   4.470  0.1225 -0.1663  0.2654
  383MOL0     H52786   5.874   7.899   4.397 -1.6032  2.5251  2.1080
  383MOL0     H52787   5.837   8.130   4.397 -0.3756 -4.3238  0.1909
  383MOL0     H52788   5.981   8.079   4.310  3.3947  0.9807  0.8768
  383MOL0     H52789   5.967   8.366   4.424 -0.9323  1.8198 -1.3086
  383MOL0     H52790   6.094   8.268   4.326 -0.8116 -4.1948 -2.9740
  383MOL0     H52791   5.975   8.318   4.123 -1.9366  1.2596 -1.6430
  383MOL0     H52792   5.817   8.330   4.202 -0.6947  1.1030 -3.2115
  383MOL0     H52793   5.873   8.525   4.104  1.3369 -0.8265 -1.1510
  383MOL0     H52794   5.897   8.559   4.279 -0.3811 -1.3037  0.4956
  383MOL0     H52795   6.107   8.550   4.066  0.6965  1.4879 -0.2964
  383MOL0     H52796   6.147   8.481   4.226 -1.4573 -0.3539  0.7811
  383MOL0     H52797   6.070   8.708   4.330 -0.7264 -0.0175  0.4354
  383MOL0     H52798   6.206   8.708   4.218  0.4964  0.9468 -3.2278
  383MOL0     H52799   5.951   8.764   4.087  2.4567 -5.4869 -2.7058
  383MOL0     H52800   6.103   8.801   4.034 -2.1412  0.9951 -0.9850
  383MOL0     H52801   6.031   9.023   4.107 -1.6760  2.8426  2.5073
  383MOL0     H52802   5.990   8.942   4.263 -1.1692  0.5154 -1.3370
  383MOL0     H52803   6.176   8.996   4.431  2.5545  0.8325  1.4890
  383MOL0     H52804   6.427   9.006   4.528  0.2665 -0.9427  0.2677
  383MOL0     H52805   6.494   9.110   4.402 -0.9294 -1.0837 -3.9224
  383MOL0     H52806   6.642   8.927   4.338 -0.2498 -0.5021  0.8839
  383MOL0     H52807   6.668   8.960   4.508  3.4091 -1.8178 -0.8571
  383MOL0     H52808   6.464   8.756   4.439  0.3876  1.2569 -1.9232
  383MOL0     H52809   6.643   8.721   4.427  2.1549  3.4332  0.5448
  383MOL0     H52810   6.511   8.857   4.680 -1.8390 -1.8166  0.4164
  383MOL0     H52811   6.497   8.689   4.653 -1.5048  0.1096 -0.2278
  383MOL0     H52812   6.648   8.516   4.601  0.4992  1.9365 -0.1407
  383MOL0     H52813   6.636   8.188   4.803  0.9666 -1.3144 -1.3418
  383MOL0     H52814   6.679   8.242   4.641 -1.7586 -0.4436 -0.5786
  383MOL0     H52815   6.525   8.274   4.715  0.3035  0.4220 -0.5357
  383MOL0     H52816   7.069   8.118   5.006 -0.1101 -0.7760 -0.3427
  383MOL0     H52817   7.171   7.960   5.163  0.7338 -0.5461  1.7184
  383MOL0     H52818   7.280   7.922   5.472 -1.2092 -2.3419 -0.5981
  383MOL0     H52819   7.188   8.072   5.503 -3.0579  0.5893  2.2823
  383MOL0     H52820   7.035   7.927   5.641  0.8273 -0.7432 -3.2662
  383MOL0     H52821   7.164   7.808   5.626  0.8391 -0.2183 -0.5734
  383MOL0     H52822   7.185   8.080   5.778 -0.4135 -0.9720 -1.9635
  383MOL0     H52823   7.329   7.993   5.727  0.6120 -2.4255 -1.6395
  383MOL0     H52824   7.232   7.797   5.852  2.9873  1.6192 -1.9430
  383MOL0     H52825   7.098   7.881   5.912  0.2455  0.0714  3.3845
  383MOL0     H52826   7.388   7.946   5.979 -1.2650 -1.6851 -0.9583
  383MOL0     H52827   7.257   8.067   6.009  2.1016  0.7264  2.0340
  383MOL0     H52828   7.203   7.787   6.118  1.9753 -1.9827  4.7610
  383MOL0     H52829   7.149   7.943   6.169 -0.9551 -4.3078  2.6369
  383MOL0     H52830   7.444   7.841   6.194  0.6175 -1.5525  1.7064
  383MOL0     H52831   7.326   7.843   6.325 -0.8186  0.0785 -0.0142
  383MOL0     H52832   7.300   8.103   6.271 -0.1785 -0.0815 -1.0467
  383MOL0     H52833   7.457   8.079   6.197 -1.5199  2.1557 -0.3787
  383MOL0     H52834   6.886   8.133   5.474 -1.1459 -0.6028 -0.1450
  383MOL0     H52835   6.824   8.293   5.304  0.0169 -0.8445  2.5471
  383MOL0     H52836   6.881   8.573   5.034  0.1121  2.5587 -0.6262
  383MOL0     H52837   6.837   8.754   4.917  0.2743  0.2533 -1.4913
  383MOL0     H52838   6.101   8.039   4.725 -0.9260  1.8103 -0.3268
  383MOL0     H52839   6.148   7.813   4.796  0.0841 -0.0055 -0.6449
  383MOL0     H52840   5.816   7.299   4.581 -0.9182 -1.1197  0.9002
  383MOL0     H52841   5.860   7.069   4.633 -2.4364  0.7713 -0.6766
  383MOL0     H52842   6.070   6.824   4.945 -3.1523 -1.6447  3.8687
  383MOL0     H52843   6.143   6.976   4.996 -0.1274 -0.3539  0.4947
  383MOL0     H52844   5.894   7.058   5.052 -2.9562 -1.1765  0.1954
  383MOL0     H52845   5.934   6.914   5.144  0.7811 -3.0415 -1.2041
  383MOL0     H52846   5.735   6.935   4.900 -0.0151 -3.8339 -1.3408
  383MOL0     H52847   5.833   6.794   4.938 -1.0663 -0.0172 -2.9752
  383MOL0     H52848   5.599   6.782   5.028 -0.9184  0.5049  0.4125
  383MOL0     H52849   5.620   6.933   5.126  1.3906  0.7746  2.5928
  383MOL0     H52850   5.802   6.605   5.338  0.4773  0.3227  0.9291
  383MOL0     H52851   6.085   7.172   4.981  0.0057  0.5411  0.3067
  383MOL0     H52852   6.123   7.392   5.035  2.2789 -1.7967 -2.4474
  383MOL0     H52853   6.200   7.470   4.901  2.0193 -1.1520  1.9558
  383MOL0     H52854   6.049   7.537   4.961 -1.9818 -0.6687  1.0073
  384MOL0     O52855   4.599   6.484   4.673  0.6889 -0.5294  0.2035
  384MOL0     C52856   4.485   6.443   4.654  0.9185 -1.0174  1.0433
  384MOL0     O52857   4.372   6.506   4.686 -0.5301 -0.6114  0.3781
  384MOL0     C52858   4.363   6.613   4.765  0.3318 -0.2538  0.4397
  384MOL0     C52859   4.451   6.654   4.867 -0.2596 -0.5857  0.7429
  384MOL0     C52860   4.422   6.781   4.927 -0.2242 -0.5108  0.5425
  384MOL0     C52861   4.315   6.860   4.905  0.3668  0.0514  0.4052
  384MOL0     O52862   4.298   6.976   4.976 -0.0864  0.1055 -0.5707
  384MOL0     C52863   4.180   7.044   4.945 -0.5566 -0.2815 -0.3155
  384MOL0     C52864   4.154   7.160   5.044  0.2746  0.6602  0.8601
  384MOL0     C52865   4.016   7.212   5.028  0.6622  0.0869 -0.0302
  384MOL0     C52866   4.015   7.359   5.076 -0.7093 -0.2735  0.0124
  384MOL0     C52867   3.890   7.432   5.087  0.2054  0.1364  0.1317
  384MOL0     C52868   3.879   7.565   5.170 -0.2626 -1.1365 -0.5208
  384MOL0     C52869   3.983   7.674   5.119 -0.6538 -0.0793 -0.0321
  384MOL0     C52870   3.986   7.801   5.216 -0.1545  0.3714 -0.2806
  384MOL0     N52871   4.101   7.896   5.189 -0.7473  0.6067 -0.2042
  384MOL0     C52872   4.229   7.895   5.244  0.4473  0.1215  0.2462
  384MOL0     C52873   4.300   7.994   5.183  0.3319 -0.2904 -0.5993
  384MOL0     C52874   4.448   8.035   5.201  0.3971 -1.1187 -0.4218
  384MOL0     C52875   4.491   8.157   5.110 -0.7106 -1.3461  0.2541
  384MOL0     C52876   4.645   8.159   5.094 -0.3594 -0.4325 -0.0925
  384MOL0     C52877   4.700   8.072   4.977 -0.8041 -0.5303 -0.7964
  384MOL0     O52878   4.674   8.123   4.848 -0.2003 -0.3585  0.3914
  384MOL0     C52879   4.720   8.045   4.739  0.5261  0.3302 -1.0738
  384MOL0     C52880   4.777   7.910   4.744 -0.1104 -1.3596  0.5398
  384MOL0     C52881   4.828   7.857   4.624 -0.2269  0.4846 -0.2824
  384MOL0     C52882   4.899   7.722   4.645 -0.8670  0.1520  0.1079
  384MOL0     C52883   4.819   7.917   4.497  0.5226  0.7983 -0.4417
  384MOL0     C52884   4.862   7.853   4.373 -0.6504 -0.0032 -0.9853
  384MOL0     O52885   4.778   7.870   4.264 -0.5045  0.4025  0.2220
  384MOL0     C52886   4.808   7.801   4.152  0.0321 -0.2134  0.2964
  384MOL0     C52887   4.930   7.817   4.081 -0.9658 -0.0407 -0.2561
  384MOL0     C52888   4.957   7.730   3.973 -0.5047  0.7747 -0.1160
  384MOL0     C52889   4.864   7.632   3.940 -0.0116 -0.1878  0.1575
  384MOL0     O52890   4.870   7.565   3.825  0.6858 -0.1578  0.0275
  384MOL0     C52891   4.919   7.436   3.840  0.0334  0.4509 -0.0999
  384MOL0     C52892   4.893   7.363   3.708 -0.0151 -0.0731 -0.3997
  384MOL0     C52893   4.963   7.234   3.699 -0.3142  0.3612  0.0271
  384MOL0     C52894   5.112   7.231   3.737 -0.9390 -0.2791  0.8205
  384MOL0     C52895   5.175   7.107   3.684  0.6994 -0.1809  0.5657
  384MOL0     C52896   5.136   6.985   3.773  0.1239 -0.1962  0.9567
  384MOL0     C52897   5.162   6.999   3.924 -0.5211 -0.0760 -0.6953
  384MOL0     C52898   5.039   6.997   4.007  0.7101 -0.0615 -0.5097
  384MOL0    Cl52899   5.059   6.997   4.187  0.3571 -0.4643  0.1358
  384MOL0     C52900   4.734   7.622   4.004  0.5233  0.0254 -0.4637
  384MOL0     C52901   4.709   7.717   4.111  0.2040  1.3044 -0.4048
  384MOL0     O52902   4.968   7.790   4.372  0.6951  0.8953  0.0496
  384MOL0     C52903   4.745   8.039   4.498  0.3634  0.5129  0.1227
  384MOL0     C52904   4.688   8.095   4.615  0.6928  0.7610  0.3587
  384MOL0     N52905   4.209   8.061   5.097 -0.8268 -0.4450 -0.6858
  384MOL0     N52906   4.094   7.999   5.106 -0.3633  0.1623  0.8149
  384MOL0     C52907   4.228   6.810   4.809  0.4200  0.3219 -0.4906
  384MOL0     C52908   4.251   6.692   4.741  0.2729 -1.4405  0.2689
  384MOL0     C52909   4.456   6.330   4.561  0.2868 -0.5461 -0.3858
  384MOL0     C52910   4.338   6.329   4.485 -0.2094 -0.9755  0.0198
  384MOL0     C52911   4.305   6.228   4.399  0.0400 -0.1072  0.0697
  384MOL0     C52912   4.399   6.123   4.384  1.1190 -0.1630  0.3198
  384MOL0     O52913   4.369   6.007   4.321 -0.6562 -0.4075  0.2828
  384MOL0     C52914   4.343   5.893   4.404 -0.6968 -0.3299 -0.1709
  384MOL0     C52915   4.196   5.910   4.461 -0.4801  0.2700 -0.0292
  384MOL0     C52916   4.087   5.895   4.348 -0.3072 -0.0795  0.1233
  384MOL0     C52917   3.944   5.841   4.390 -0.6168  0.1016  0.0414
  384MOL0     C52918   3.865   5.796   4.276 -0.0997 -0.0936  0.4100
  384MOL0     C52919   3.794   5.754   4.188  0.4424  0.3159  0.8597
  384MOL0     C52920   4.517   6.120   4.454  0.0825  0.7783  0.2002
  384MOL0     C52921   4.546   6.217   4.553  1.4912 -0.3460 -0.4576
  384MOL0     C52922   4.668   6.203   4.627  0.0590  0.2570 -0.2551
  384MOL0     H52923   4.530   6.585   4.890 -1.0667 -1.9630 -0.4683
  384MOL0     H52924   4.491   6.803   5.008  1.4724 -1.4424 -0.5983
  384MOL0     H52925   4.092   6.981   4.960  0.0040 -1.1616 -0.6083
  384MOL0     H52926   4.187   7.077   4.841 -0.3968  2.8212  0.5757
  384MOL0     H52927   4.161   7.129   5.148  1.0263  1.4076  1.0377
  384MOL0     H52928   4.234   7.232   5.024 -0.2789  0.9765 -0.3269
  384MOL0     H52929   3.981   7.207   4.925 -3.0253  0.9143  1.0170
  384MOL0     H52930   3.946   7.156   5.092  0.8618 -0.4358 -0.2640
  384MOL0     H52931   4.052   7.369   5.179 -3.0593  4.0310  0.6757
  384MOL0     H52932   4.086   7.412   5.012  1.5589 -2.7624  0.2528
  384MOL0     H52933   3.809   7.368   5.124 -2.9097  3.6067 -0.0720
  384MOL0     H52934   3.866   7.469   4.987 -1.6247 -0.0788  0.4509
  384MOL0     H52935   3.777   7.599   5.152  0.6315  3.4076  1.6093
  384MOL0     H52936   3.876   7.543   5.277 -3.3252  0.2184 -0.2126
  384MOL0     H52937   3.947   7.704   5.020 -0.4329  1.7991  0.4252
  384MOL0     H52938   4.086   7.638   5.120 -0.1664  1.2445  1.1820
  384MOL0     H52939   3.893   7.857   5.203  0.2283  1.3708  1.0695
  384MOL0     H52940   4.001   7.777   5.321  0.0497 -1.7018 -0.7429
  384MOL0     H52941   4.286   7.829   5.309 -0.5284  0.6707  1.7307
  384MOL0     H52942   4.501   7.946   5.164  2.0120 -0.7926  0.9651
  384MOL0     H52943   4.468   8.040   5.309  0.6277 -0.0165 -0.5102
  384MOL0     H52944   4.448   8.165   5.010  0.0722  2.5966  0.0488
  384MOL0     H52945   4.469   8.251   5.161  1.0462 -1.5023  1.4160
  384MOL0     H52946   4.687   8.256   5.068  0.9238 -1.0883 -0.5580
  384MOL0     H52947   4.691   8.140   5.191 -0.8983  1.8162  0.6587
  384MOL0     H52948   4.805   8.050   4.999 -1.6400 -0.7651  4.0645
  384MOL0     H52949   4.662   7.970   4.983  1.4224 -1.4085 -0.4655
  384MOL0     H52950   4.779   7.853   4.836  1.4528 -0.9530  0.7903
  384MOL0     H52951   4.866   7.658   4.563  1.7824  1.3638 -2.0555
  384MOL0     H52952   4.867   7.678   4.740  0.1189 -2.9022 -0.8531
  384MOL0     H52953   5.008   7.732   4.641 -0.2805 -4.3361 -0.4113
  384MOL0     H52954   5.003   7.890   4.114  0.2841  0.5594 -3.8327
  384MOL0     H52955   5.055   7.736   3.926  0.5387 -3.3506  1.1097
  384MOL0     H52956   5.026   7.454   3.855  0.5251 -0.4203 -2.1979
  384MOL0     H52957   4.884   7.370   3.920  0.5809  0.7632  0.4040
  384MOL0     H52958   4.789   7.347   3.677 -0.5773  2.2857  0.0258
  384MOL0     H52959   4.939   7.422   3.628  0.8113 -0.3133 -0.1079
  384MOL0     H52960   4.960   7.189   3.600  4.6244 -4.9158  1.6649
  384MOL0     H52961   4.905   7.170   3.766  0.8149 -0.6400  0.0889
  384MOL0     H52962   5.125   7.243   3.845  1.9619  1.6988  0.3761
  384MOL0     H52963   5.168   7.313   3.689 -1.9910  1.7749  2.9247
  384MOL0     H52964   5.151   7.098   3.577 -0.2352  1.0815  0.6486
  384MOL0     H52965   5.282   7.122   3.702  0.2852  2.3707  1.2969
  384MOL0     H52966   5.181   6.891   3.739 -0.8548  0.4117 -2.4566
  384MOL0     H52967   5.027   6.975   3.765  0.1161 -0.4889  1.4481
  384MOL0     H52968   5.206   7.098   3.939  2.1992 -1.4712  1.6518
  384MOL0     H52969   5.218   6.910   3.956 -0.0919  0.8376  1.2319
  384MOL0     H52970   4.986   6.908   3.974  0.5903 -0.5233  0.8423
  384MOL0     H52971   4.978   7.083   3.976 -0.0020  0.2301  1.5285
  384MOL0     H52972   4.664   7.545   3.971  1.4533 -0.8278 -0.5052
  384MOL0     H52973   4.613   7.714   4.162 -0.3592 -0.8189 -1.4612
  384MOL0     H52974   4.730   8.091   4.404  0.3262  0.2292 -0.0296
  384MOL0     H52975   4.638   8.190   4.604 -0.5804 -0.1602 -3.1841
  384MOL0     H52976   4.129   6.848   4.783 -0.4811 -2.1332 -0.9701
  384MOL0     H52977   4.174   6.691   4.665 -1.0419  1.0496  1.4442
  384MOL0     H52978   4.270   6.414   4.485  1.3474  0.5053 -3.9505
  384MOL0     H52979   4.205   6.222   4.358 -0.0088  0.5760  0.0774
  384MOL0     H52980   4.340   5.807   4.337  1.3606 -1.4696  1.0665
  384MOL0     H52981   4.423   5.899   4.480 -0.7649  2.8740 -0.1926
  384MOL0     H52982   4.177   6.001   4.518  2.2427  0.6033  0.4824
  384MOL0     H52983   4.179   5.825   4.528  2.1292 -0.8480 -0.6564
  384MOL0     H52984   4.059   5.993   4.308 -2.3636  0.9056  3.5113
  384MOL0     H52985   4.135   5.836   4.269  2.0581  0.5040  1.0252
  384MOL0     H52986   3.883   5.917   4.439  0.4691 -0.1552  1.8661
  384MOL0     H52987   3.956   5.752   4.452 -1.7143  0.1562  0.3576
  384MOL0     H52988   3.721   5.720   4.118 -1.1167  4.0966  0.4248
  384MOL0     H52989   4.587   6.040   4.432 -0.1240  0.5199  0.4923
  384MOL0     H52990   4.757   6.254   4.588 -1.4142  1.1628 -2.7161
  384MOL0     H52991   4.653   6.234   4.730  1.8303  2.3269 -0.5321
  384MOL0     H52992   4.698   6.099   4.638 -2.0013 -0.1886  1.7187
  385MOL0     O52993   6.307   0.409   7.021  1.0697 -0.4241  0.1894
  385MOL0     C52994   6.278   0.490   6.927 -0.2717  0.7843 -0.3027
  385MOL0     O52995   6.295   0.451   6.794  1.1165  0.7673 -0.7537
  385MOL0     C52996   6.370   0.342   6.761  0.1242  0.5945  0.1923
  385MOL0     C52997   6.313   0.216   6.738 -0.0782 -0.9054  0.2059
  385MOL0     C52998   6.395   0.114   6.708 -0.6927  0.4692  0.4979
  385MOL0     C52999   6.531   0.139   6.682 -0.1033 -0.3637  0.3977
  385MOL0     O53000   6.618   0.037   6.651  0.1936 -0.2757 -0.9100
  385MOL0     C53001   6.565  -0.083   6.595  0.5766  0.2640 -0.0627
  385MOL0     C53002   6.544  -0.194   6.692 -0.2633 -0.8962 -0.0734
  385MOL0     C53003   6.517  -0.326   6.625 -0.7420  0.4190 -0.2101
  385MOL0     C53004   6.388  -0.330   6.557 -0.0390  0.1378  0.0972
  385MOL0     C53005   6.340  -0.475   6.512 -0.4136 -0.0658  0.5665
  385MOL0     C53006   6.438  -0.555   6.430  0.5996  0.0633  0.1133
  385MOL0     C53007   6.397  -0.702   6.449 -0.3144  0.4710 -0.3389
  385MOL0     C53008   6.496  -0.802   6.389  0.4315 -0.6074  0.1698
  385MOL0     N53009   6.448  -0.942   6.399 -0.7171  0.1014 -0.1775
  385MOL0     C53010   6.405  -1.001   6.286 -0.8436 -0.0956 -0.5464
  385MOL0     C53011   6.382  -1.129   6.304 -0.7801 -0.0703  0.3845
  385MOL0     C53012   6.316  -1.233   6.221 -0.1919 -0.0526  0.2076
  385MOL0     C53013   6.189  -1.284   6.291 -0.4038 -0.3009 -0.0058
  385MOL0     C53014   6.098  -1.342   6.188 -0.3403 -0.5764 -0.8354
  385MOL0     C53015   6.160  -1.470   6.129  0.0121 -0.4802 -0.4437
  385MOL0     O53016   6.059  -1.542   6.067  0.4213 -0.2789 -0.1056
  385MOL0     C53017   5.958  -1.606   6.139 -0.2706 -0.3840  0.2559
  385MOL0     C53018   5.859  -1.671   6.062  0.9996  0.2560  0.4089
  385MOL0     C53019   5.762  -1.740   6.135 -0.2615  0.0118  0.3083
  385MOL0     C53020   5.656  -1.791   6.033 -0.4140 -0.5051 -0.0846
  385MOL0     C53021   5.762  -1.771   6.274  0.1900  0.0032  0.0246
  385MOL0     C53022   5.664  -1.836   6.348  0.4168 -0.0528 -0.3718
  385MOL0     O53023   5.710  -1.924   6.434  0.5027 -0.6063  0.2270
  385MOL0     C53024   5.631  -1.989   6.521  0.6453 -1.0511  0.2823
  385MOL0     C53025   5.581  -1.943   6.647  0.8098 -0.0868  1.2629
  385MOL0     C53026   5.510  -2.016   6.738  0.8997 -0.2564 -0.5553
  385MOL0     C53027   5.492  -2.150   6.723  0.2556  0.0218 -0.0364
  385MOL0     O53028   5.439  -2.236   6.809  0.8339  0.2101  0.5801
  385MOL0     C53029   5.383  -2.192   6.933  0.3460 -0.3831 -0.3803
  385MOL0     C53030   5.490  -2.163   7.048  0.8052  0.6633 -0.3435
  385MOL0     C53031   5.407  -2.115   7.165  0.5172 -0.3156  0.4828
  385MOL0     C53032   5.509  -2.063   7.273 -0.4103 -1.0932 -0.3886
  385MOL0     C53033   5.433  -1.996   7.390 -0.0723  1.3705  0.8403
  385MOL0     C53034   5.521  -1.970   7.514  0.3484  1.0784 -0.4151
  385MOL0     C53035   5.440  -1.897   7.630 -0.5133 -0.3117 -0.3981
  385MOL0     C53036   5.522  -1.772   7.690  0.2017  0.3917  1.2927
  385MOL0    Cl53037   5.673  -1.843   7.752 -0.0950  0.4209 -0.1031
  385MOL0     C53038   5.539  -2.208   6.598 -0.4400 -0.1475 -0.4055
  385MOL0     C53039   5.607  -2.123   6.503 -0.0670 -0.1090  1.1861
  385MOL0     O53040   5.548  -1.791   6.336  0.0711  0.4814  0.8072
  385MOL0     C53041   5.865  -1.712   6.339  0.3060  0.4836  0.4348
  385MOL0     C53042   5.957  -1.623   6.274  0.9269  0.2810  0.4801
  385MOL0     N53043   6.429  -1.152   6.440  0.6535  0.5418  0.3406
  385MOL0     N53044   6.469  -1.037   6.493 -0.2004  0.6945  0.3476
  385MOL0     C53045   6.591   0.259   6.707  0.0023  0.1919 -1.2224
  385MOL0     C53046   6.508   0.362   6.740  0.1910 -0.3087 -0.9383
  385MOL0     C53047   6.225   0.624   6.946 -0.4630 -0.0150 -0.3600
  385MOL0     C53048   6.153   0.686   6.841  0.1265 -0.2867  0.1945
  385MOL0     C53049   6.117   0.819   6.847  0.4604  0.7374 -0.6647
  385MOL0     C53050   6.139   0.887   6.960 -0.3621 -0.3998 -0.3557
  385MOL0     O53051   6.073   1.009   6.982  0.5032 -0.4204  0.7028
  385MOL0     C53052   6.143   1.119   7.041  0.1991 -0.3632 -0.4401
  385MOL0     C53053   6.100   1.261   7.003  0.0849  0.7543  0.1986
  385MOL0     C53054   6.089   1.266   6.847  0.9562  0.3211  0.0247
  385MOL0     C53055   6.017   1.401   6.807  0.2283  0.6969  0.3666
  385MOL0     C53056   5.881   1.395   6.842  0.5654 -0.0388  0.3599
  385MOL0     C53057   5.771   1.388   6.893 -0.1333  0.1369 -0.2243
  385MOL0     C53058   6.208   0.830   7.074 -0.1641 -0.3849 -0.0021
  385MOL0     C53059   6.257   0.698   7.072  0.2274 -0.0004  0.1489
  385MOL0     C53060   6.346   0.645   7.189  0.4339 -1.0185 -0.3409
  385MOL0     H53061   6.213   0.184   6.763 -1.2926  2.0394 -0.4411
  385MOL0     H53062   6.355   0.014   6.699  1.9745 -0.7258  1.0395
  385MOL0     H53063   6.636  -0.126   6.524 -1.3605 -1.1422 -1.2550
  385MOL0     H53064   6.470  -0.068   6.543 -1.2931 -0.4962  2.9237
  385MOL0     H53065   6.636  -0.184   6.750 -0.5116 -1.5732  0.4543
  385MOL0     H53066   6.451  -0.175   6.746  0.3353  2.4503 -0.0079
  385MOL0     H53067   6.598  -0.340   6.553 -1.6363  2.0742 -1.6203
  385MOL0     H53068   6.534  -0.408   6.696  3.3220 -1.4169 -2.8766
  385MOL0     H53069   6.308  -0.285   6.617 -3.9079 -0.3471 -4.1706
  385MOL0     H53070   6.389  -0.260   6.473 -0.2503  0.4408  0.3460
  385MOL0     H53071   6.249  -0.461   6.453 -0.1519  0.9804  0.3863
  385MOL0     H53072   6.303  -0.527   6.600  2.6738 -0.5850  1.6948
  385MOL0     H53073   6.430  -0.534   6.323 -2.5028 -1.1184  0.0266
  385MOL0     H53074   6.538  -0.543   6.473  0.0531  0.6523  1.2533
  385MOL0     H53075   6.293  -0.711   6.415 -0.3768 -0.1589  0.0222
  385MOL0     H53076   6.413  -0.738   6.551  0.4470 -1.1965 -1.0106
  385MOL0     H53077   6.510  -0.780   6.282 -0.8034 -0.2592  0.0686
  385MOL0     H53078   6.594  -0.802   6.438  1.0521 -3.6389 -0.8791
  385MOL0     H53079   6.378  -0.968   6.187  1.8555  2.2187 -0.6493
  385MOL0     H53080   6.390  -1.312   6.210  1.0808  1.3977 -2.9632
  385MOL0     H53081   6.295  -1.200   6.118 -0.0459  0.5274  0.3620
  385MOL0     H53082   6.204  -1.364   6.365 -0.8296 -0.4411 -0.0715
  385MOL0     H53083   6.144  -1.195   6.336 -0.4772 -1.4661  2.4010
  385MOL0     H53084   6.005  -1.366   6.239 -1.5882  2.4421 -1.5030
  385MOL0     H53085   6.077  -1.255   6.125 -2.5496  1.3154  2.2689
  385MOL0     H53086   6.228  -1.438   6.050 -3.5690  2.0818 -2.7917
  385MOL0     H53087   6.214  -1.534   6.199  2.1848  0.1059 -1.5058
  385MOL0     H53088   5.851  -1.665   5.954  2.5892 -0.3585  0.2228
  385MOL0     H53089   5.705  -1.846   5.952  1.7761 -0.9576  1.4518
  385MOL0     H53090   5.606  -1.701   5.996 -1.1372 -1.0282 -0.3943
  385MOL0     H53091   5.587  -1.863   6.078 -0.3835  1.6038  3.8409
  385MOL0     H53092   5.589  -1.835   6.662  2.2764 -0.4717  3.8601
  385MOL0     H53093   5.483  -1.957   6.825  2.1950  0.5818 -0.6905
  385MOL0     H53094   5.330  -2.102   6.902  0.0835 -0.7080 -0.8864
  385MOL0     H53095   5.309  -2.262   6.976  1.1385 -1.2303 -0.3618
  385MOL0     H53096   5.555  -2.246   7.077 -0.2091  0.3025  1.0291
  385MOL0     H53097   5.554  -2.081   7.017  0.9632  0.3659 -0.7996
  385MOL0     H53098   5.357  -2.201   7.209  0.2689  0.5180  1.9130
  385MOL0     H53099   5.340  -2.029   7.153 -0.0636 -0.7784  0.3833
  385MOL0     H53100   5.562  -1.978   7.230  0.7723 -1.7684 -0.3033
  385MOL0     H53101   5.581  -2.134   7.316  0.2818  0.9140  1.9338
  385MOL0     H53102   5.384  -1.903   7.357 -0.6624  1.1337  1.0422
  385MOL0     H53103   5.368  -2.075   7.427  1.2679  0.1045  0.5765
  385MOL0     H53104   5.607  -1.915   7.475  1.1392  0.3808  0.3061
  385MOL0     H53105   5.557  -2.069   7.545 -1.4062 -0.2057 -2.1714
  385MOL0     H53106   5.422  -1.972   7.708 -0.2611  1.1638  1.1407
  385MOL0     H53107   5.346  -1.853   7.596  1.6099  2.8395 -2.8139
  385MOL0     H53108   5.460  -1.729   7.770 -3.5220 -2.9918  0.5376
  385MOL0     H53109   5.533  -1.694   7.615 -1.0238 -0.5387  0.1086
  385MOL0     H53110   5.528  -2.315   6.585  0.6794 -0.3867  0.4773
  385MOL0     H53111   5.634  -2.164   6.406  2.0574  3.3868  0.1288
  385MOL0     H53112   5.863  -1.700   6.447 -0.7699  2.5458  0.2401
  385MOL0     H53113   6.030  -1.572   6.337  1.5132 -1.7982  1.6014
  385MOL0     H53114   6.697   0.282   6.720 -0.1033 -0.2449  0.6564
  385MOL0     H53115   6.556   0.457   6.762  3.3624 -2.1505  0.8849
  385MOL0     H53116   6.125   0.636   6.749 -2.1778  1.9033 -0.4129
  385MOL0     H53117   6.062   0.863   6.764 -0.0030  1.6481  0.1122
  385MOL0     H53118   6.128   1.114   7.149 -0.0606 -1.5912 -0.5252
  385MOL0     H53119   6.249   1.107   7.014  0.9555  1.9062  1.2039
  385MOL0     H53120   6.175   1.333   7.037  3.0324 -1.3534 -1.3822
  385MOL0     H53121   6.001   1.280   7.046 -1.8787 -1.0791 -3.0412
  385MOL0     H53122   6.187   1.241   6.806 -0.3103 -4.1171 -0.8637
  385MOL0     H53123   6.023   1.186   6.810  2.0161  0.3588 -2.0562
  385MOL0     H53124   6.020   1.413   6.699  1.8801  1.0843  0.4337
  385MOL0     H53125   6.066   1.493   6.838  0.9934  0.1158  0.9332
  385MOL0     H53126   5.675   1.375   6.940  1.3817 -0.1598  3.0488
  385MOL0     H53127   6.222   0.889   7.164  1.4690  1.3729 -1.3308
  385MOL0     H53128   6.280   0.607   7.268 -1.6134  0.4311 -1.2703
  385MOL0     H53129   6.421   0.568   7.167 -0.1791 -2.6985  2.8816
  385MOL0     H53130   6.392   0.731   7.239 -1.8500 -0.6057  1.2467
  386MOL0     O53131   6.974   8.646   6.827  0.0826  0.4980  0.2075
  386MOL0     C53132   6.878   8.692   6.760 -0.9876 -0.2739  0.8690
  386MOL0     O53133   6.748   8.690   6.795 -0.3993 -0.3039 -0.6502
  386MOL0     C53134   6.704   8.670   6.922  0.2834  0.3148  0.8718
  386MOL0     C53135   6.774   8.639   7.035 -0.0464 -0.1650  0.0615
  386MOL0     C53136   6.703   8.624   7.156 -0.3986  0.8005 -0.2188
  386MOL0     C53137   6.564   8.645   7.167  0.0346  0.4995  0.1637
  386MOL0     O53138   6.503   8.621   7.286 -0.7672 -0.4558  0.1107
  386MOL0     C53139   6.365   8.619   7.299  0.0299 -0.0843 -0.2629
  386MOL0     C53140   6.320   8.562   7.429 -0.1196 -0.4979 -0.3307
  386MOL0     C53141   6.164   8.570   7.445 -0.3482  0.0401 -0.4351
  386MOL0     C53142   6.117   8.516   7.582  0.6892 -0.2130 -0.1113
  386MOL0     C53143   5.986   8.455   7.568  0.4153  0.3999  0.0165
  386MOL0     C53144   5.887   8.569   7.544 -0.2711 -0.0295  0.3085
  386MOL0     C53145   5.754   8.505   7.539  0.2957 -0.4036  0.4683
  386MOL0     C53146   5.629   8.593   7.500 -0.2993  0.2800  0.3138
  386MOL0     N53147   5.506   8.527   7.531 -0.2229  0.3469 -0.7333
  386MOL0     C53148   5.489   8.382   7.534  0.2227  0.0691 -1.0689
  386MOL0     C53149   5.356   8.374   7.587  0.1783 -0.3493  0.9818
  386MOL0     C53150   5.290   8.242   7.603  1.1785 -0.1535  1.1650
  386MOL0     C53151   5.150   8.253   7.663  0.5531 -0.5157 -1.0889
  386MOL0     C53152   5.120   8.145   7.772  0.0520  1.0914  0.7144
  386MOL0     C53153   4.966   8.131   7.811  0.0881 -0.4192 -0.4413
  386MOL0     O53154   4.909   8.062   7.701  0.1294  0.8349 -0.1590
  386MOL0     C53155   4.792   7.999   7.708 -0.1039 -0.6047 -0.3213
  386MOL0     C53156   4.741   7.947   7.831 -0.3405  0.3840 -0.3750
  386MOL0     C53157   4.615   7.892   7.853 -0.0763  0.1671  1.1790
  386MOL0     C53158   4.565   7.852   7.990  0.5145  1.4104 -0.1978
  386MOL0     C53159   4.531   7.891   7.735 -0.7234  0.3283 -0.1149
  386MOL0     C53160   4.393   7.830   7.748 -0.3427 -1.0200  0.0259
  386MOL0     O53161   4.296   7.908   7.701 -0.5272 -0.7291  0.7235
  386MOL0     C53162   4.165   7.866   7.693 -0.0787 -0.3494  0.0657
  386MOL0     C53163   4.126   7.776   7.594 -0.0841 -1.0010 -1.2646
  386MOL0     C53164   3.989   7.744   7.580 -0.1799 -0.0964 -1.2333
  386MOL0     C53165   3.889   7.803   7.659 -0.9466 -0.5901 -0.4557
  386MOL0     O53166   3.753   7.771   7.652  0.6257 -0.1220  0.6055
  386MOL0     C53167   3.673   7.770   7.770 -0.4728  0.0909 -0.4129
  386MOL0     C53168   3.549   7.669   7.758  0.8039 -0.5824 -0.4658
  386MOL0     C53169   3.605   7.533   7.720  0.3470  0.0679  0.0847
  386MOL0     C53170   3.494   7.422   7.728  0.3793 -1.4593 -0.0925
  386MOL0     C53171   3.425   7.410   7.861 -0.2716  0.7445 -0.4780
  386MOL0     C53172   3.407   7.261   7.885  0.4322  0.1642 -0.6808
  386MOL0     C53173   3.319   7.228   8.008  0.8603  0.3470  0.1882
  386MOL0     C53174   3.338   7.322   8.128  0.0648 -0.1757 -0.8263
  386MOL0    Cl53175   3.234   7.267   8.272  0.4938 -0.6718  0.1927
  386MOL0     C53176   3.933   7.894   7.766  0.5330  1.0805 -0.5302
  386MOL0     C53177   4.070   7.927   7.774 -0.8190 -0.4888  0.2375
  386MOL0     O53178   4.383   7.725   7.813  0.6554  0.0822  0.4626
  386MOL0     C53179   4.585   7.920   7.609 -0.6892  0.0781  0.8318
  386MOL0     C53180   4.706   7.992   7.594 -0.1240  0.1201 -0.3997
  386MOL0     N53181   5.305   8.501   7.621 -0.5187  0.0855 -0.1018
  386MOL0     N53182   5.396   8.584   7.576  0.2455  0.1742  0.0559
  386MOL0     C53183   6.488   8.683   7.051 -1.2606  0.6801 -0.0632
  386MOL0     C53184   6.561   8.699   6.934 -0.4567  0.3835  0.8152
  386MOL0     C53185   6.899   8.760   6.628 -1.1972  0.6987  0.3880
  386MOL0     C53186   6.789   8.834   6.578  0.5630 -0.0282 -0.5880
  386MOL0     C53187   6.798   8.898   6.449 -0.3026 -0.0401  0.4561
  386MOL0     C53188   6.910   8.892   6.369 -0.3578 -0.1865 -0.0712
  386MOL0     O53189   6.905   8.962   6.253 -0.7600  0.2223 -0.6884
  386MOL0     C53190   7.034   8.971   6.187  0.0085 -0.2725 -0.1141
  386MOL0     C53191   7.025   9.006   6.048  0.4476 -0.9139  0.3280
  386MOL0     C53192   6.928   9.125   6.008 -0.2987  0.0252 -0.4453
  386MOL0     C53193   6.972   9.160   5.858  0.4325 -0.2385 -0.7739
  386MOL0     C53194   7.094   9.240   5.863  0.1755  0.4889 -0.1344
  386MOL0     C53195   7.203   9.287   5.880  0.3334 -0.5270  0.9363
  386MOL0     C53196   7.025   8.821   6.427 -0.1342  0.8961 -1.2926
  386MOL0     C53197   7.016   8.749   6.552 -0.4940  0.6970  0.3265
  386MOL0     C53198   7.147   8.706   6.600 -0.6536 -0.4874 -0.0353
  386MOL0     H53199   6.882   8.633   7.036  0.3470 -0.1054 -6.1439
  386MOL0     H53200   6.761   8.607   7.246  2.1909 -1.4183 -2.1390
  386MOL0     H53201   6.334   8.552   7.218  0.1694  0.2434 -0.5885
  386MOL0     H53202   6.317   8.716   7.280 -1.3471 -0.6709  0.1475
  386MOL0     H53203   6.351   8.459   7.445 -1.6017 -0.7668  1.2531
  386MOL0     H53204   6.364   8.615   7.514 -1.0846  0.8232 -0.6133
  386MOL0     H53205   6.132   8.675   7.440  1.3971  0.8663  2.5946
  386MOL0     H53206   6.111   8.511   7.370  0.0365  1.5965 -1.9985
  386MOL0     H53207   6.184   8.438   7.619  1.3539  1.4222  2.3014
  386MOL0     H53208   6.121   8.593   7.659 -0.0385  0.9916 -1.2318
  386MOL0     H53209   5.963   8.411   7.666  0.5330  0.1988 -0.0457
  386MOL0     H53210   5.984   8.376   7.492  0.8880  1.8949 -1.6308
  386MOL0     H53211   5.892   8.650   7.617  5.2230  2.5949 -2.3948
  386MOL0     H53212   5.911   8.612   7.447  0.0881 -1.3145 -0.1915
  386MOL0     H53213   5.747   8.455   7.636  0.8486  0.9119  1.2287
  386MOL0     H53214   5.754   8.424   7.466  0.3414 -0.6771  0.7696
  386MOL0     H53215   5.629   8.692   7.546 -0.7060  2.5343 -4.0141
  386MOL0     H53216   5.624   8.624   7.395 -3.0979 -0.1605  0.2626
  386MOL0     H53217   5.558   8.303   7.504  2.8888  2.5566 -1.8976
  386MOL0     H53218   5.346   8.178   7.671  0.4741 -1.1713  0.8195
  386MOL0     H53219   5.284   8.199   7.502 -1.5175 -1.4729  1.7823
  386MOL0     H53220   5.144   8.346   7.720  0.2721 -1.4029  0.3870
  386MOL0     H53221   5.078   8.241   7.581 -0.8301  1.6682 -0.2544
  386MOL0     H53222   5.167   8.056   7.729  1.1077  2.8238 -1.9498
  386MOL0     H53223   5.178   8.160   7.864 -1.7531  0.8434  1.9308
  386MOL0     H53224   4.969   8.075   7.905 -0.3470 -2.3750 -1.5475
  386MOL0     H53225   4.935   8.233   7.839  1.1814 -0.5081  1.2012
  386MOL0     H53226   4.807   7.943   7.917 -1.8129 -0.6314  0.7502
  386MOL0     H53227   4.607   7.917   8.068  1.9871 -1.0228  1.1711
  386MOL0     H53228   4.590   7.746   8.006 -1.1144  1.0393  0.1211
  386MOL0     H53229   4.457   7.860   8.006  0.2152 -2.5084  1.0165
  386MOL0     H53230   4.192   7.738   7.516  1.7850 -0.0102 -0.2082
  386MOL0     H53231   3.965   7.661   7.515 -4.7333 -0.7600  0.8421
  386MOL0     H53232   3.731   7.749   7.860 -0.4254  1.3157 -0.1351
  386MOL0     H53233   3.630   7.870   7.781  0.2600  0.2032  1.7679
  386MOL0     H53234   3.491   7.666   7.851 -2.4327 -0.8861 -2.3701
  386MOL0     H53235   3.495   7.689   7.665  2.2128 -0.0424 -1.1915
  386MOL0     H53236   3.684   7.507   7.791  3.0062 -0.5657 -2.8608
  386MOL0     H53237   3.656   7.539   7.624  1.8450  0.9653  0.8967
  386MOL0     H53238   3.551   7.335   7.695  0.3870 -1.4564 -0.0870
  386MOL0     H53239   3.417   7.440   7.653  1.3844 -1.0213 -1.0400
  386MOL0     H53240   3.489   7.449   7.940 -1.2831  0.8691  0.3000
  386MOL0     H53241   3.329   7.463   7.867  0.2685  1.6174  1.1055
  386MOL0     H53242   3.504   7.212   7.899  0.5873  0.1485 -1.7233
  386MOL0     H53243   3.346   7.212   7.809 -2.9206  0.5071  1.5703
  386MOL0     H53244   3.325   7.125   8.043  0.8976  0.3578  0.2150
  386MOL0     H53245   3.213   7.242   7.989  0.3137  1.2833  3.3000
  386MOL0     H53246   3.304   7.416   8.085 -1.2196 -1.3504 -2.5178
  386MOL0     H53247   3.443   7.323   8.159 -0.9597  0.6068  3.1987
  386MOL0     H53248   3.856   7.937   7.829 -0.4728 -0.9426 -0.2900
  386MOL0     H53249   4.091   8.005   7.846 -0.2206 -0.0902 -0.3604
  386MOL0     H53250   4.527   7.920   7.517 -0.2828 -2.1897  0.5341
  386MOL0     H53251   4.735   8.042   7.503 -0.3454 -1.9076 -1.6648
  386MOL0     H53252   6.380   8.686   7.047 -1.4105  0.4340  2.3784
  386MOL0     H53253   6.489   8.714   6.854 -0.4998  0.9743  0.9602
  386MOL0     H53254   6.699   8.851   6.638 -0.0394 -3.0168 -0.4619
  386MOL0     H53255   6.714   8.958   6.416  1.5281  1.9328 -0.8581
  386MOL0     H53256   7.101   9.048   6.228  0.0575  1.7666 -3.5904
  386MOL0     H53257   7.087   8.876   6.195  2.1600  0.9825  2.5924
  386MOL0     H53258   6.985   8.922   5.989  0.3764 -1.5219  1.2122
  386MOL0     H53259   7.126   9.025   6.011  0.3352 -0.7500  0.1032
  386MOL0     H53260   6.825   9.089   6.011  0.3511 -2.1131 -1.3485
  386MOL0     H53261   6.936   9.211   6.075  2.9301  0.4914 -1.2435
  386MOL0     H53262   6.903   9.228   5.808 -1.2588 -2.6559 -1.9226
  386MOL0     H53263   6.978   9.064   5.807  4.6543 -1.6290  1.8103
  386MOL0     H53264   7.299   9.333   5.888 -0.0168 -0.0770  2.9375
  386MOL0     H53265   7.120   8.830   6.375 -0.7073 -2.2471 -3.1000
  386MOL0     H53266   7.140   8.598   6.620 -1.3621 -0.6967 -1.3007
  386MOL0     H53267   7.231   8.712   6.531  1.2362 -1.3650  2.0449
  386MOL0     H53268   7.180   8.761   6.689  1.7347 -4.7016  2.0137
  387MOL0     O53269   5.113   8.251   3.547 -0.0255  0.0602 -0.1239
  387MOL0     C53270   5.124   8.125   3.530 -0.3766 -0.3242 -0.4390
  387MOL0     O53271   5.140   8.061   3.412  0.4851  0.3760  0.9337
  387MOL0     C53272   5.045   8.110   3.321  0.8413 -1.0747 -0.9878
  387MOL0     C53273   4.914   8.160   3.348 -0.4420  0.0567 -0.9166
  387MOL0     C53274   4.829   8.215   3.253  0.3591  0.9632 -0.1470
  387MOL0     C53275   4.866   8.215   3.116 -0.5659  0.4110  0.7292
  387MOL0     O53276   4.793   8.273   3.011 -0.3474  0.3335  0.6011
  387MOL0     C53277   4.659   8.300   3.031 -0.2038  0.7035  0.4541
  387MOL0     C53278   4.607   8.374   2.903 -0.1962  0.7375 -0.0141
  387MOL0     C53279   4.651   8.309   2.774  0.3925 -0.4146  0.4978
  387MOL0     C53280   4.778   8.382   2.713  0.1620  0.0430  0.1093
  387MOL0     C53281   4.818   8.288   2.591  0.3042  0.3096 -0.4723
  387MOL0     C53282   4.943   8.326   2.509  0.4611  0.5394 -0.1809
  387MOL0     C53283   5.066   8.363   2.584  0.0875  0.2703 -0.4194
  387MOL0     C53284   5.199   8.350   2.508  0.1410 -0.0362 -0.3897
  387MOL0     N53285   5.209   8.411   2.373 -0.3533  0.0539 -0.4264
  387MOL0     C53286   5.182   8.344   2.256  0.0056 -0.3576 -0.1542
  387MOL0     C53287   5.186   8.435   2.161 -0.1081 -0.0803  0.8045
  387MOL0     C53288   5.190   8.413   2.011 -1.1266  0.7282 -0.3148
  387MOL0     C53289   5.310   8.474   1.942  0.0798 -0.7892 -0.6124
  387MOL0     C53290   5.328   8.420   1.805 -0.1039  0.6918  0.0727
  387MOL0     C53291   5.427   8.498   1.729 -0.5243 -0.3182  0.1235
  387MOL0     O53292   5.392   8.482   1.595 -0.3834  0.4933  0.3696
  387MOL0     C53293   5.301   8.571   1.539 -0.3223  0.3711  0.5141
  387MOL0     C53294   5.299   8.549   1.403 -0.3730  1.0542  0.6898
  387MOL0     C53295   5.214   8.619   1.319  0.0332 -0.3554 -0.7056
  387MOL0     C53296   5.225   8.598   1.179 -0.5504 -0.6443 -0.0866
  387MOL0     C53297   5.126   8.719   1.373  0.5836 -0.1111 -0.2213
  387MOL0     C53298   5.040   8.807   1.294  0.9457 -1.0465  0.4057
  387MOL0     O53299   4.990   8.758   1.183 -0.3492  1.3157 -0.3011
  387MOL0     C53300   4.903   8.834   1.112  0.2775  0.5908  0.8201
  387MOL0     C53301   4.770   8.847   1.147  0.1143  0.8215 -0.0002
  387MOL0     C53302   4.689   8.932   1.070  0.1188  0.5489 -0.1365
  387MOL0     C53303   4.745   9.017   0.968  0.4802 -0.2964 -0.4825
  387MOL0     O53304   4.667   9.114   0.901  0.1027  0.1413 -0.3346
  387MOL0     C53305   4.725   9.215   0.814  0.0302  0.6281  0.3122
  387MOL0     C53306   4.729   9.161   0.673  0.1801 -0.0748  0.3014
  387MOL0     C53307   4.773   9.272   0.570 -0.0197 -0.3040  0.1328
  387MOL0     C53308   4.672   9.380   0.560  0.1626 -0.2916 -0.0248
  387MOL0     C53309   4.716   9.464   0.436 -0.8858  0.6113  0.2911
  387MOL0     C53310   4.622   9.578   0.408  0.6978  0.5225  0.4399
  387MOL0     C53311   4.653   9.664   0.286 -0.3453  0.6083 -0.2719
  387MOL0     C53312   4.746   9.785   0.321 -0.2689 -0.8976  0.4915
  387MOL0    Cl53313   4.917   9.734   0.292 -0.5989  0.1273  0.3112
  387MOL0     C53314   4.879   9.001   0.935 -0.7136 -0.1300  0.3983
  387MOL0     C53315   4.947   8.901   0.997 -0.0456  0.8052  0.0448
  387MOL0     O53316   5.005   8.919   1.330  0.0073  0.1075 -0.1396
  387MOL0     C53317   5.137   8.729   1.514  0.7273 -0.4274  0.4635
  387MOL0     C53318   5.212   8.660   1.595  0.0600 -0.7906 -0.0609
  387MOL0     N53319   5.218   8.557   2.212 -0.4951 -0.0192 -0.0828
  387MOL0     N53320   5.230   8.545   2.343  0.3833 -0.1021 -0.1941
  387MOL0     C53321   4.991   8.157   3.090 -0.3377 -0.0201 -0.7163
  387MOL0     C53322   5.081   8.108   3.186 -0.2429  0.1750  0.1174
  387MOL0     C53323   5.168   8.054   3.649  0.2868 -0.1427  0.1971
  387MOL0     C53324   5.267   7.958   3.635  0.1219  0.3690  0.0133
  387MOL0     C53325   5.338   7.900   3.746  0.5099 -0.3891  0.1760
  387MOL0     C53326   5.287   7.930   3.876 -1.2722 -1.3801  0.0164
  387MOL0     O53327   5.356   7.879   3.984 -0.0279  0.1649 -0.2230
  387MOL0     C53328   5.312   7.901   4.121  0.2574  0.6756 -0.2574
  387MOL0     C53329   5.441   7.866   4.200 -0.7970 -0.1857 -0.3430
  387MOL0     C53330   5.453   7.943   4.335 -0.6697  0.7144  0.5604
  387MOL0     C53331   5.543   7.865   4.430 -0.2517 -0.4944 -0.3836
  387MOL0     C53332   5.512   7.899   4.567 -0.0608 -0.3794 -0.3649
  387MOL0     C53333   5.494   7.903   4.685  0.9177 -0.3435  1.0214
  387MOL0     C53334   5.175   8.017   3.884 -0.6867  0.6145 -0.1488
  387MOL0     C53335   5.120   8.082   3.781  1.6197  0.4164  0.2106
  387MOL0     C53336   5.003   8.170   3.809  1.2008 -0.0948  0.3009
  387MOL0     H53337   4.886   8.161   3.453  0.8015 -0.5464 -0.5605
  387MOL0     H53338   4.734   8.251   3.289 -0.4885 -1.0572 -0.1878
  387MOL0     H53339   4.650   8.375   3.110 -0.1198  1.1409  0.0514
  387MOL0     H53340   4.613   8.205   3.060 -0.1598  0.8996  1.1676
  387MOL0     H53341   4.499   8.361   2.911  0.0687 -0.4080  2.7963
  387MOL0     H53342   4.633   8.479   2.917 -0.5719  0.5386  2.7551
  387MOL0     H53343   4.674   8.203   2.792 -0.6783 -0.4753  1.5463
  387MOL0     H53344   4.566   8.301   2.706  0.8867 -3.4971  0.0744
  387MOL0     H53345   4.752   8.481   2.673  2.5496 -0.1234 -2.0758
  387MOL0     H53346   4.856   8.386   2.789  1.7741 -1.5593 -1.3603
  387MOL0     H53347   4.735   8.277   2.521  0.9139 -0.4936 -1.0934
  387MOL0     H53348   4.836   8.188   2.633 -0.5425  0.6883  0.8588
  387MOL0     H53349   4.968   8.245   2.439  1.0861 -1.9339  2.7291
  387MOL0     H53350   4.900   8.410   2.453 -2.9972  1.2026  3.0346
  387MOL0     H53351   5.078   8.303   2.675  0.3998 -1.3672 -1.5131
  387MOL0     H53352   5.056   8.469   2.610 -3.0542  0.7211 -2.9071
  387MOL0     H53353   5.268   8.414   2.564 -1.2386  3.1132 -2.0345
  387MOL0     H53354   5.246   8.251   2.510 -1.3698 -0.7753  0.1248
  387MOL0     H53355   5.152   8.241   2.240  3.0189 -1.1874 -1.1468
  387MOL0     H53356   5.101   8.452   1.961 -2.3621 -0.4162  0.9140
  387MOL0     H53357   5.180   8.310   1.978 -0.6142  1.4883 -3.0967
  387MOL0     H53358   5.297   8.582   1.934 -2.4758 -0.9321  0.5858
  387MOL0     H53359   5.403   8.443   1.991 -0.5583 -0.9454  0.5180
  387MOL0     H53360   5.355   8.314   1.800 -2.4310  0.1032 -2.3988
  387MOL0     H53361   5.232   8.432   1.753  0.8454 -1.0177 -2.2456
  387MOL0     H53362   5.411   8.604   1.749 -0.4778 -0.6279  1.9993
  387MOL0     H53363   5.525   8.461   1.761 -1.9730 -3.7082  1.1492
  387MOL0     H53364   5.367   8.483   1.349  0.1375  0.6719  1.7793
  387MOL0     H53365   5.264   8.690   1.136 -0.0852 -1.4869 -1.5361
  387MOL0     H53366   5.135   8.567   1.125 -0.4932  0.5569 -0.9076
  387MOL0     H53367   5.300   8.520   1.163 -0.0839 -0.5018  1.2924
  387MOL0     H53368   4.726   8.787   1.227 -1.7781 -0.0312 -1.5978
  387MOL0     H53369   4.588   8.955   1.103  1.3111  2.3844  2.7162
  387MOL0     H53370   4.651   9.296   0.809  1.5934  2.0462 -0.5941
  387MOL0     H53371   4.825   9.249   0.841  1.5824 -0.2450 -3.6410
  387MOL0     H53372   4.806   9.083   0.670  0.0581 -0.3278  2.3624
  387MOL0     H53373   4.627   9.130   0.650 -0.0221 -0.3818  1.5635
  387MOL0     H53374   4.800   9.228   0.473  4.0108 -2.7804  2.0773
  387MOL0     H53375   4.871   9.311   0.601 -0.0004  2.1439 -2.6247
  387MOL0     H53376   4.676   9.451   0.644 -1.0651  2.2237 -1.9477
  387MOL0     H53377   4.571   9.345   0.539  0.4069 -0.1149 -1.6502
  387MOL0     H53378   4.818   9.503   0.444  0.5048 -2.3445 -1.3062
  387MOL0     H53379   4.725   9.395   0.351  0.4368 -1.0465  1.6917
  387MOL0     H53380   4.623   9.647   0.493  2.4026  5.6028 -3.1972
  387MOL0     H53381   4.525   9.529   0.399  0.7935  0.4457 -0.2442
  387MOL0     H53382   4.559   9.707   0.249  0.9230  1.3978 -2.8324
  387MOL0     H53383   4.698   9.602   0.207 -1.4080  0.6728 -0.9576
  387MOL0     H53384   4.715   9.815   0.422 -0.7471  0.8945 -0.1562
  387MOL0     H53385   4.724   9.869   0.254  0.2810  0.0722  1.5074
  387MOL0     H53386   4.918   9.032   0.839  2.7543 -2.3487  0.9233
  387MOL0     H53387   5.042   8.876   0.950 -1.0711 -2.0612 -0.7313
  387MOL0     H53388   5.070   8.800   1.562  0.9838  0.6789 -0.7658
  387MOL0     H53389   5.224   8.678   1.702  1.5166 -3.5634  0.3580
  387MOL0     H53390   5.010   8.149   2.983 -2.0953  0.7255 -1.1217
  387MOL0     H53391   5.185   8.084   3.164  0.5026  0.6968  2.7553
  387MOL0     H53392   5.303   7.935   3.536 -0.7659  0.3446 -0.3166
  387MOL0     H53393   5.419   7.831   3.722  2.3799  1.5184  0.7888
  387MOL0     H53394   5.282   8.002   4.150 -1.6094 -0.9575  4.4761
  387MOL0     H53395   5.235   7.825   4.138  1.5357 -0.9343 -1.3097
  387MOL0     H53396   5.533   7.879   4.143 -0.6559 -0.2580 -0.1309
  387MOL0     H53397   5.442   7.760   4.226  2.4768 -0.0470  0.5540
  387MOL0     H53398   5.502   8.039   4.314 -1.6421  1.1003 -0.0546
  387MOL0     H53399   5.351   7.955   4.373 -2.0400 -3.7465 -1.0292
  387MOL0     H53400   5.645   7.898   4.409  0.2501 -1.7217 -0.0007
  387MOL0     H53401   5.537   7.755   4.431 -4.8472 -0.4026  0.3901
  387MOL0     H53402   5.480   7.927   4.789 -0.5881  1.6167  0.4153
  387MOL0     H53403   5.133   8.031   3.983  1.1459 -1.9555  1.0961
  387MOL0     H53404   4.931   8.164   3.727  2.7020  2.4350 -1.3727
  387MOL0     H53405   4.955   8.116   3.892  1.9106  1.6246  1.9110
  387MOL0     H53406   5.030   8.276   3.817  2.5140 -0.4287  0.4417
  388MOL0     O53407   3.489   4.796   1.418 -0.5172  0.1152  0.7820
  388MOL0     C53408   3.523   4.827   1.301  0.7198 -0.4632  0.4930
  388MOL0     O53409   3.532   4.950   1.249 -0.3518 -0.5253  0.5519
  388MOL0     C53410   3.452   5.050   1.304 -0.1446 -0.2490 -0.0450
  388MOL0     C53411   3.326   5.041   1.359  0.6979  0.4569  0.3816
  388MOL0     C53412   3.244   5.147   1.393 -0.5170 -0.2614  0.4861
  388MOL0     C53413   3.295   5.280   1.380 -0.3464  0.2070 -0.8578
  388MOL0     O53414   3.229   5.387   1.441  0.1634  0.0808 -0.0511
  388MOL0     C53415   3.221   5.495   1.349 -0.1187  0.1972  0.4056
  388MOL0     C53416   3.142   5.609   1.412 -0.0529  0.5610  0.9167
  388MOL0     C53417   3.006   5.570   1.484 -0.0780  0.4565 -0.8313
  388MOL0     C53418   2.940   5.697   1.545 -0.3868  0.0595 -0.7682
  388MOL0     C53419   2.823   5.662   1.639  0.9329  0.2366 -0.3027
  388MOL0     C53420   2.730   5.776   1.685  0.6236  0.7553 -0.5668
  388MOL0     C53421   2.615   5.706   1.757  0.2726  0.6013  0.5661
  388MOL0     C53422   2.497   5.785   1.800 -0.2927  0.0455  1.1071
  388MOL0     N53423   2.427   5.854   1.690  0.2433  0.1527 -0.3415
  388MOL0     C53424   2.435   5.979   1.621  0.4126  0.2368 -0.1206
  388MOL0     C53425   2.329   5.986   1.546  0.2025 -1.5300  0.9856
  388MOL0     C53426   2.297   6.098   1.452 -0.0428  0.2559  0.8964
  388MOL0     C53427   2.310   6.049   1.310  0.7294 -0.2010 -1.4523
  388MOL0     C53428   2.317   6.170   1.220  0.9520 -0.9777 -0.0510
  388MOL0     C53429   2.401   6.152   1.093  0.3770 -0.0092 -0.0988
  388MOL0     O53430   2.337   6.239   0.993  0.1488 -0.4404 -0.8422
  388MOL0     C53431   2.407   6.360   0.973  0.0558  0.4670 -0.8523
  388MOL0     C53432   2.335   6.479   0.999 -1.1496  0.5225 -0.6117
  388MOL0     C53433   2.403   6.600   0.975  0.7497  1.2295 -0.3543
  388MOL0     C53434   2.340   6.727   1.015  0.4690 -0.2501 -0.6946
  388MOL0     C53435   2.527   6.605   0.910  0.0012 -0.6147 -0.0922
  388MOL0     C53436   2.603   6.735   0.880  0.4144 -0.5688 -1.1629
  388MOL0     O53437   2.736   6.717   0.857 -0.4060 -0.5991  0.5916
  388MOL0     C53438   2.838   6.814   0.872  0.2761  0.3612  0.7578
  388MOL0     C53439   2.962   6.757   0.864 -1.7128 -1.3533 -0.3202
  388MOL0     C53440   3.070   6.850   0.869  0.2115  0.7623 -0.0838
  388MOL0     C53441   3.051   6.992   0.877  1.1387  0.8814  0.9278
  388MOL0     O53442   3.155   7.089   0.864  0.5900  0.1111 -0.2464
  388MOL0     C53443   3.281   7.045   0.863 -0.2862  0.4241  0.9263
  388MOL0     C53444   3.387   7.162   0.842  0.0770 -0.2317 -0.6083
  388MOL0     C53445   3.368   7.278   0.940  0.0405  0.0229 -0.2626
  388MOL0     C53446   3.434   7.239   1.075 -0.6075 -0.5598 -0.1200
  388MOL0     C53447   3.461   7.375   1.154 -0.2416  0.6711  0.0601
  388MOL0     C53448   3.532   7.339   1.282 -0.5159  0.1255 -0.6015
  388MOL0     C53449   3.552   7.463   1.378  0.1857  0.2002  0.2141
  388MOL0     C53450   3.591   7.416   1.522  0.1973  0.6393 -0.6309
  388MOL0    Cl53451   3.768   7.386   1.556  0.1847  0.2849  0.1827
  388MOL0     C53452   2.923   7.041   0.891  0.3713  0.3703 -0.1068
  388MOL0     C53453   2.825   6.949   0.886 -0.6077 -0.2791  0.1655
  388MOL0     O53454   2.540   6.839   0.872  0.4008 -0.2115  0.1723
  388MOL0     C53455   2.587   6.481   0.868 -0.7775 -0.1909 -0.1503
  388MOL0     C53456   2.531   6.359   0.912 -0.6523 -0.5747  0.6177
  388MOL0     N53457   2.250   5.874   1.559 -0.1341  0.0254 -0.2946
  388MOL0     N53458   2.312   5.793   1.644 -0.8177 -0.0527  0.7978
  388MOL0     C53459   3.415   5.296   1.321  0.3542 -0.1882  0.9905
  388MOL0     C53460   3.491   5.180   1.278 -0.2295 -0.1325 -0.2663
  388MOL0     C53461   3.589   4.711   1.232  0.5664  0.3057  0.3680
  388MOL0     C53462   3.697   4.741   1.142  0.1046  0.9523  0.3255
  388MOL0     C53463   3.760   4.646   1.064  0.6479  0.2562 -0.2271
  388MOL0     C53464   3.733   4.508   1.076  0.3278  0.4997 -0.8193
  388MOL0     O53465   3.789   4.406   0.994 -0.1394 -0.9525  0.2692
  388MOL0     C53466   3.880   4.438   0.885  0.0148 -0.7335 -0.3524
  388MOL0     C53467   4.034   4.441   0.927  0.3916 -0.4682 -0.5993
  388MOL0     C53468   4.121   4.503   0.813  0.0492 -0.1787  0.6937
  388MOL0     C53469   4.159   4.398   0.708 -0.1664 -0.2121 -0.1101
  388MOL0     C53470   4.270   4.433   0.623  0.1691 -0.1974  0.6967
  388MOL0     C53471   4.363   4.474   0.547 -0.9552 -0.1493 -0.0385
  388MOL0     C53472   3.636   4.476   1.178  0.9898 -0.1821 -0.5969
  388MOL0     C53473   3.556   4.575   1.248  0.8284  0.7313 -0.5547
  388MOL0     C53474   3.437   4.528   1.330 -0.3722  0.1954  0.5063
  388MOL0     H53475   3.278   4.944   1.365 -1.7253  1.5818  0.3422
  388MOL0     H53476   3.142   5.134   1.429 -1.1711  2.9663  0.1359
  388MOL0     H53477   3.171   5.457   1.260  1.1039 -1.8929  0.5629
  388MOL0     H53478   3.321   5.533   1.327 -0.1773  0.0328 -0.1648
  388MOL0     H53479   3.207   5.648   1.491  2.3050 -1.3716  0.0445
  388MOL0     H53480   3.108   5.689   1.346 -0.3983  0.2726  0.7427
  388MOL0     H53481   2.951   5.506   1.414  3.1383 -2.1294 -1.2907
  388MOL0     H53482   3.028   5.504   1.569 -0.2430  0.4107 -0.8239
  388MOL0     H53483   3.008   5.747   1.615 -0.5664 -0.3421 -0.3013
  388MOL0     H53484   2.916   5.772   1.469  0.1505  0.7664 -0.2535
  388MOL0     H53485   2.847   5.588   1.716 -3.4940  2.0089  3.2475
  388MOL0     H53486   2.755   5.610   1.570  1.3838 -1.4463  0.4729
  388MOL0     H53487   2.778   5.843   1.756  1.1006  5.2863 -4.6273
  388MOL0     H53488   2.695   5.834   1.599  0.6014  3.1689  1.0124
  388MOL0     H53489   2.663   5.654   1.841  2.8165 -0.2193 -1.2833
  388MOL0     H53490   2.572   5.628   1.695 -1.1701  2.7021 -1.2348
  388MOL0     H53491   2.425   5.712   1.840  0.1139 -0.5763  0.7229
  388MOL0     H53492   2.530   5.855   1.877 -0.3196  0.0707  1.0956
  388MOL0     H53493   2.513   6.054   1.621  3.3645 -2.6351 -1.1495
  388MOL0     H53494   2.357   6.189   1.469  0.6034 -0.0700  0.3910
  388MOL0     H53495   2.191   6.126   1.456 -0.2289  0.4633 -2.7126
  388MOL0     H53496   2.407   5.999   1.308  0.2032 -1.2533 -1.3161
  388MOL0     H53497   2.233   5.977   1.281  0.8066 -0.7693 -0.2962
  388MOL0     H53498   2.213   6.196   1.198  1.9901  4.9723  0.3153
  388MOL0     H53499   2.354   6.256   1.276 -0.1645 -2.2134  2.7778
  388MOL0     H53500   2.506   6.178   1.113 -0.4434  1.8044  2.3709
  388MOL0     H53501   2.393   6.049   1.058  3.3248  0.1083 -1.4305
  388MOL0     H53502   2.234   6.478   1.037 -1.0656  0.0888 -0.3920
  388MOL0     H53503   2.402   6.793   1.076 -0.3896 -1.1471  1.2659
  388MOL0     H53504   2.252   6.726   1.081  3.1112 -2.0905  3.2117
  388MOL0     H53505   2.311   6.763   0.917 -0.7520 -1.3446 -0.7696
  388MOL0     H53506   2.970   6.651   0.844 -0.0442 -1.2351 -0.4422
  388MOL0     H53507   3.171   6.817   0.845 -0.4648 -0.2703 -1.6611
  388MOL0     H53508   3.295   6.989   0.955 -0.1259 -3.1531 -1.0856
  388MOL0     H53509   3.290   6.977   0.778  0.5445  1.0132  0.5305
  388MOL0     H53510   3.490   7.126   0.845  0.7045  1.4983 -0.1923
  388MOL0     H53511   3.365   7.185   0.738  2.3059 -2.3308 -1.6296
  388MOL0     H53512   3.266   7.317   0.949  0.0966  1.3778 -3.7196
  388MOL0     H53513   3.412   7.366   0.892 -0.5421  0.6256  0.2813
  388MOL0     H53514   3.530   7.187   1.065 -2.0816 -4.2781  2.6081
  388MOL0     H53515   3.377   7.165   1.132  1.5751 -0.7205  1.9813
  388MOL0     H53516   3.519   7.435   1.084 -0.5824 -3.2299 -4.0526
  388MOL0     H53517   3.367   7.427   1.173 -1.1744 -1.4731  1.8854
  388MOL0     H53518   3.623   7.280   1.268 -0.4779 -0.0541  0.3094
  388MOL0     H53519   3.459   7.274   1.331 -0.0568 -0.6893 -0.9788
  388MOL0     H53520   3.463   7.525   1.374  0.1385  0.1736  0.7088
  388MOL0     H53521   3.633   7.526   1.341  1.1796 -1.3663 -0.4166
  388MOL0     H53522   3.520   7.348   1.569  0.5018  1.5721  1.2813
  388MOL0     H53523   3.560   7.505   1.577 -2.7103 -0.8454  0.3531
  388MOL0     H53524   2.888   7.144   0.893 -1.2891 -0.1821  0.4808
  388MOL0     H53525   2.722   6.980   0.874  0.2792  2.9407 -0.2113
  388MOL0     H53526   2.685   6.493   0.823 -0.8949 -0.5694 -0.5126
  388MOL0     H53527   2.578   6.263   0.892  0.9717  0.2500  0.4046
  388MOL0     H53528   3.465   5.390   1.299 -0.9095  0.5163  1.0530
  388MOL0     H53529   3.570   5.205   1.207 -1.2577  1.5951 -0.8747
  388MOL0     H53530   3.720   4.842   1.112 -1.1696  0.8015 -1.2832
  388MOL0     H53531   3.836   4.680   0.995 -0.2465  0.7588 -0.9857
  388MOL0     H53532   3.859   4.362   0.810 -0.9801 -3.1594  2.2299
  388MOL0     H53533   3.856   4.535   0.839  0.8951 -0.1798  0.3272
  388MOL0     H53534   4.075   4.345   0.956  1.4326  0.5225  1.4091
  388MOL0     H53535   4.044   4.497   1.021 -0.5004  0.3338 -0.9587
  388MOL0     H53536   4.070   4.580   0.756  0.1900 -1.8319 -1.7993
  388MOL0     H53537   4.208   4.549   0.862  0.5922 -2.7359  2.3297
  388MOL0     H53538   4.074   4.376   0.642  0.1592 -3.2383  0.3523
  388MOL0     H53539   4.180   4.301   0.754  1.6406  0.3172  0.2667
  388MOL0     H53540   4.441   4.502   0.479  2.1760 -1.2329  2.8208
  388MOL0     H53541   3.611   4.371   1.191 -0.3819  0.2639  0.6427
  388MOL0     H53542   3.350   4.579   1.288  1.3398  0.2434 -3.3587
  388MOL0     H53543   3.422   4.425   1.296 -0.5274 -0.1740  1.6512
  388MOL0     H53544   3.454   4.546   1.437  1.6136  0.0124  0.2640
  389MOL0     O53545   0.290   1.945   3.035  0.2569 -0.8540 -0.1115
  389MOL0     C53546   0.282   1.948   2.916 -0.5295 -0.3237  0.6077
  389MOL0     O53547   0.168   1.926   2.831  0.0877 -0.0333  0.6525
  389MOL0     C53548   0.039   1.928   2.874 -0.2359 -0.1956 -1.0829
  389MOL0     C53549   0.000   1.881   3.000  0.1005  0.8866  0.8057
  389MOL0     C53550  -0.139   1.879   3.023 -0.5893  0.4436  0.3480
  389MOL0     C53551  -0.238   1.932   2.942  0.3694 -0.2475  0.8541
  389MOL0     O53552  -0.359   1.898   2.981  0.5967 -0.0173 -0.0907
  389MOL0     C53553  -0.450   1.836   2.890 -0.5132  0.1351 -0.0500
  389MOL0     C53554  -0.517   1.701   2.933 -0.0331 -0.3430 -0.4195
  389MOL0     C53555  -0.434   1.603   3.005 -0.1915  0.2586  0.8502
  389MOL0     C53556  -0.498   1.464   3.036  0.8217  0.0411 -0.1298
  389MOL0     C53557  -0.450   1.405   3.172  0.3283  0.0487 -0.1270
  389MOL0     C53558  -0.303   1.416   3.205 -0.2727  0.3296  0.2814
  389MOL0     C53559  -0.281   1.324   3.329  0.5000  1.5312  0.4725
  389MOL0     C53560  -0.141   1.363   3.372  0.1698 -0.0046 -1.2423
  389MOL0     N53561  -0.112   1.332   3.516 -0.1120  0.0351 -0.2421
  389MOL0     C53562  -0.196   1.317   3.627 -0.9792 -0.2471  0.8005
  389MOL0     C53563  -0.111   1.317   3.729 -0.2914 -0.5010 -0.6200
  389MOL0     C53564  -0.158   1.338   3.865 -0.4189 -0.6205 -0.2257
  389MOL0     C53565  -0.160   1.219   3.959 -0.7339  0.3479  0.2264
  389MOL0     C53566  -0.021   1.143   3.958 -0.6717 -0.4691 -0.3995
  389MOL0     C53567  -0.018   1.037   4.070  1.0618  0.8252 -0.1318
  389MOL0     O53568   0.112   0.976   4.068 -0.2159 -0.5893  0.0704
  389MOL0     C53569   0.126   0.840   4.067 -0.8267 -0.3637 -0.0837
  389MOL0     C53570   0.222   0.781   4.152 -0.3136  0.3999 -0.3802
  389MOL0     C53571   0.248   0.644   4.156 -0.1996  1.1285 -1.0597
  389MOL0     C53572   0.345   0.604   4.259 -0.3751  0.1623 -0.3730
  389MOL0     C53573   0.178   0.562   4.065  0.5476  0.2525 -0.7457
  389MOL0     C53574   0.196   0.407   4.061 -0.1916 -0.6932 -0.0533
  389MOL0     O53575   0.248   0.336   4.164 -0.1199 -0.2360  0.7693
  389MOL0     C53576   0.255   0.207   4.172  0.3325  1.1367  0.6771
  389MOL0     C53577   0.318   0.133   4.068  0.1165  0.4524 -0.1340
  389MOL0     C53578   0.324  -0.006   4.062 -0.2607 -0.5999  0.0403
  389MOL0     C53579   0.246  -0.082   4.156  0.2201  0.3132 -0.1731
  389MOL0     O53580   0.245  -0.217   4.135  0.3428  0.2006 -0.0066
  389MOL0     C53581   0.177  -0.307   4.215  0.2850 -0.3645 -0.2860
  389MOL0     C53582   0.165  -0.439   4.133  1.2928 -0.8385 -0.1697
  389MOL0     C53583   0.091  -0.551   4.198  0.1676 -0.3784  0.7262
  389MOL0     C53584   0.192  -0.635   4.282  0.2778  0.7042 -0.4430
  389MOL0     C53585   0.142  -0.638   4.429 -0.2681 -0.5566  0.1516
  389MOL0     C53586   0.206  -0.753   4.506  0.2951 -0.4311  0.4956
  389MOL0     C53587   0.135  -0.776   4.642  0.5410  0.2578 -0.5128
  389MOL0     C53588   0.150  -0.918   4.688  0.3487  0.1905  0.1807
  389MOL0    Cl53589   0.320  -0.959   4.747  0.1190 -0.0480  0.2758
  389MOL0     C53590   0.192  -0.017   4.269 -0.6045 -0.1259  0.3958
  389MOL0     C53591   0.203   0.122   4.272 -0.2221  0.1992 -0.3469
  389MOL0     O53592   0.171   0.362   3.949 -0.4113 -0.4780 -0.9533
  389MOL0     C53593   0.101   0.627   3.968  0.7316 -0.3479  0.1005
  389MOL0     C53594   0.066   0.761   3.974  0.4324 -0.1956 -0.5451
  389MOL0     N53595   0.019   1.307   3.689  0.0777 -0.4121 -0.1399
  389MOL0     N53596   0.017   1.319   3.557  1.0405 -0.5571  1.3397
  389MOL0     C53597  -0.200   1.996   2.818 -0.0798 -0.0367  0.4050
  389MOL0     C53598  -0.060   1.988   2.790  0.1594  0.4312  0.1900
  389MOL0     C53599   0.417   1.978   2.844 -0.6491 -0.5755  0.9438
  389MOL0     C53600   0.405   1.984   2.707 -0.8505  0.5510  0.1722
  389MOL0     C53601   0.514   2.033   2.629 -0.1443  0.3163 -1.0264
  389MOL0     C53602   0.635   2.075   2.692  0.0411 -0.1177  1.2061
  389MOL0     O53603   0.751   2.125   2.623 -0.8188  0.3940  0.4431
  389MOL0     C53604   0.756   2.125   2.475  0.9487 -0.0956 -1.2657
  389MOL0     C53605   0.883   2.183   2.415 -0.3899 -0.0453 -0.5785
  389MOL0     C53606   0.879   2.331   2.414  0.0780 -0.1996 -0.7583
  389MOL0     C53607   0.799   2.383   2.290  1.1210 -0.9168  0.1022
  389MOL0     C53608   0.665   2.422   2.336  0.4710 -0.0407 -0.6093
  389MOL0     C53609   0.569   2.459   2.395 -0.3301  0.8456 -0.3081
  389MOL0     C53610   0.643   2.078   2.827  0.1299  0.8644  0.7449
  389MOL0     C53611   0.540   2.013   2.906  0.2026 -0.1056 -0.6985
  389MOL0     C53612   0.560   2.010   3.054  0.3626  0.1330 -0.1561
  389MOL0     H53613   0.065   1.842   3.078 -3.3927 -1.5337  2.8060
  389MOL0     H53614  -0.164   1.817   3.109 -0.5781 -2.5984 -1.6895
  389MOL0     H53615  -0.407   1.817   2.791 -0.3335  0.7157 -0.0904
  389MOL0     H53616  -0.541   1.896   2.874 -3.5768 -3.7325  1.1622
  389MOL0     H53617  -0.599   1.723   3.001  0.0037  0.8366 -0.7425
  389MOL0     H53618  -0.571   1.643   2.858  0.2329 -2.0482  0.6459
  389MOL0     H53619  -0.341   1.585   2.950 -0.3443 -0.9036  0.9528
  389MOL0     H53620  -0.400   1.651   3.097  2.0005 -2.2923  1.4811
  389MOL0     H53621  -0.607   1.463   3.038  0.7722 -0.1576 -1.8361
  389MOL0     H53622  -0.457   1.399   2.959  0.3801  1.3324 -1.5153
  389MOL0     H53623  -0.480   1.301   3.185 -0.1889  0.4020  1.7720
  389MOL0     H53624  -0.497   1.455   3.257 -0.2444  2.9568 -1.9958
  389MOL0     H53625  -0.235   1.390   3.124 -0.7316 -3.3818  0.9441
  389MOL0     H53626  -0.290   1.522   3.232 -0.5483  0.8948 -1.6466
  389MOL0     H53627  -0.281   1.218   3.300 -1.3744  2.3628 -3.1789
  389MOL0     H53628  -0.363   1.330   3.401 -0.5808  0.0919 -0.5718
  389MOL0     H53629  -0.071   1.312   3.304  0.5050  3.4410 -3.7431
  389MOL0     H53630  -0.125   1.471   3.378  0.4163 -0.0925  3.2298
  389MOL0     H53631  -0.304   1.317   3.628 -1.0305 -1.6440 -0.5426
  389MOL0     H53632  -0.262   1.370   3.861 -0.4471 -0.6884 -4.0697
  389MOL0     H53633  -0.092   1.408   3.917 -0.7480 -1.7917  1.8991
  389MOL0     H53634  -0.175   1.264   4.058  0.1295  4.1407 -1.2006
  389MOL0     H53635  -0.243   1.156   3.925  0.9295 -1.5113 -0.5923
  389MOL0     H53636   0.004   1.111   3.856  2.9401 -2.6364  0.9519
  389MOL0     H53637   0.054   1.222   3.970  0.0077 -1.3443  1.4450
  389MOL0     H53638  -0.036   1.091   4.163  0.4800 -2.2363  1.6994
  389MOL0     H53639  -0.096   0.964   4.045 -2.0465  4.0068 -0.5000
  389MOL0     H53640   0.281   0.839   4.222  0.3845  0.1054 -0.7185
  389MOL0     H53641   0.438   0.565   4.217 -1.5837 -0.8938 -2.2185
  389MOL0     H53642   0.292   0.531   4.321  1.1520 -2.7417 -2.2339
  389MOL0     H53643   0.378   0.689   4.318 -1.8522  1.4131 -1.2766
  389MOL0     H53644   0.364   0.185   3.985  0.8236 -1.3846 -0.9536
  389MOL0     H53645   0.360  -0.064   3.977 -0.3307  1.4631 -1.4658
  389MOL0     H53646   0.218  -0.331   4.314 -0.7287 -2.5246 -0.3231
  389MOL0     H53647   0.076  -0.267   4.228  0.7696 -0.0803  4.0064
  389MOL0     H53648   0.110  -0.399   4.047  3.5387 -0.3513 -1.4382
  389MOL0     H53649   0.258  -0.469   4.084  1.6161  0.1882 -0.1955
  389MOL0     H53650   0.056  -0.614   4.115 -0.4720 -0.5296  1.1022
  389MOL0     H53651   0.007  -0.525   4.262 -1.9845 -0.7432 -1.7753
  389MOL0     H53652   0.292  -0.591   4.283 -0.6167  3.1618  3.5624
  389MOL0     H53653   0.218  -0.733   4.242  0.4179  0.6283 -0.1666
  389MOL0     H53654   0.164  -0.542   4.477  0.3375 -0.9921  0.7535
  389MOL0     H53655   0.034  -0.654   4.433 -0.9543  3.0241 -0.1246
  389MOL0     H53656   0.311  -0.726   4.493  0.1074 -0.5737 -1.5688
  389MOL0     H53657   0.192  -0.850   4.457 -1.0948  0.3222 -0.6354
  389MOL0     H53658   0.026  -0.772   4.635  0.0063 -3.9727  2.0154
  389MOL0     H53659   0.176  -0.705   4.715 -1.1013  2.0527 -1.2494
  389MOL0     H53660   0.127  -0.991   4.610 -0.0126 -0.4615  0.8841
  389MOL0     H53661   0.087  -0.932   4.776  0.2335  1.4313  0.3097
  389MOL0     H53662   0.152  -0.076   4.351  0.5472 -2.7361 -0.8143
  389MOL0     H53663   0.162   0.167   4.362  1.3540 -0.2898  0.6655
  389MOL0     H53664   0.058   0.572   3.885  1.4854 -0.3138 -0.3258
  389MOL0     H53665   0.014   0.803   3.888 -1.3032 -4.1394 -1.6509
  389MOL0     H53666  -0.267   2.027   2.738 -3.8477 -2.9244  2.1242
  389MOL0     H53667  -0.030   2.020   2.691  2.7748  1.0063  1.1015
  389MOL0     H53668   0.306   1.964   2.666 -1.2351  0.4343  1.1517
  389MOL0     H53669   0.523   2.046   2.522  0.1119  0.4814 -0.9860
  389MOL0     H53670   0.747   2.020   2.443  1.2701 -0.4726 -0.1755
  389MOL0     H53671   0.664   2.173   2.442  0.4862 -0.2359 -0.2348
  389MOL0     H53672   0.887   2.143   2.313 -5.3449  3.0182 -2.3539
  389MOL0     H53673   0.974   2.161   2.471 -0.1605  0.3184 -0.8105
  389MOL0     H53674   0.847   2.367   2.513  1.1832  1.3338 -0.9255
  389MOL0     H53675   0.983   2.363   2.409  1.7050 -4.2436  1.6432
  389MOL0     H53676   0.791   2.314   2.206 -1.4177  0.7712 -1.1419
  389MOL0     H53677   0.854   2.470   2.253 -1.0111  0.0034 -1.0497
  389MOL0     H53678   0.476   2.506   2.424  0.0398  0.6407  1.3016
  389MOL0     H53679   0.730   2.117   2.879  1.3984 -2.6068  1.4908
  389MOL0     H53680   0.662   2.044   3.074  0.2970 -0.7352  1.9494
  389MOL0     H53681   0.488   2.076   3.106  0.2337  1.2745 -1.7099
  389MOL0     H53682   0.547   1.909   3.093 -0.3635 -0.1639 -1.1491
  390MOL0     O53683   0.415   0.688   6.871  0.1267  0.0253 -0.3744
  390MOL0     C53684   0.392   0.628   6.979  0.8676 -0.3304  0.0640
  390MOL0     O53685   0.286   0.550   7.008 -0.5932 -0.4150 -0.1244
  390MOL0     C53686   0.170   0.568   6.936 -0.6344  0.0616 -0.6448
  390MOL0     C53687   0.132   0.678   6.864 -1.0088  0.8285 -0.5130
  390MOL0     C53688   0.013   0.681   6.791 -0.1113 -0.3284 -0.0006
  390MOL0     C53689  -0.066   0.564   6.777 -0.4976 -1.0183 -0.7882
  390MOL0     O53690  -0.190   0.570   6.714  0.1176 -0.6522 -0.4594
  390MOL0     C53691  -0.234   0.678   6.633 -0.4708  0.5594 -0.5057
  390MOL0     C53692  -0.377   0.667   6.595 -0.1394 -0.2079  0.4440
  390MOL0     C53693  -0.482   0.683   6.709  1.2423 -0.3647 -0.1716
  390MOL0     C53694  -0.624   0.646   6.668  0.4052 -0.2512 -0.3970
  390MOL0     C53695  -0.723   0.674   6.800 -0.0468  0.7273 -0.2152
  390MOL0     C53696  -0.742   0.825   6.850 -0.2256  0.0450  0.2532
  390MOL0     C53697  -0.800   0.826   6.988  0.8634 -0.8590  0.6905
  390MOL0     C53698  -0.838   0.965   7.038 -0.0449  1.0085  0.1198
  390MOL0     N53699  -0.928   0.968   7.155 -0.1953  0.0920 -0.0986
  390MOL0     C53700  -1.018   1.067   7.156 -0.2998  0.1297 -0.3169
  390MOL0     C53701  -1.095   1.028   7.258  0.0605  0.1242 -0.5476
  390MOL0     C53702  -1.220   1.100   7.299 -0.3838 -1.0007 -0.6016
  390MOL0     C53703  -1.182   1.228   7.373 -0.6339  0.6011  0.0321
  390MOL0     C53704  -1.301   1.317   7.403 -0.3749 -0.5665  0.8800
  390MOL0     C53705  -1.279   1.427   7.504 -0.7681 -0.5548 -0.5868
  390MOL0     O53706  -1.176   1.516   7.464  0.7374 -0.5733  0.2321
  390MOL0     C53707  -1.180   1.645   7.523  0.0039 -0.0131 -0.5798
  390MOL0     C53708  -1.105   1.741   7.449  0.2280  1.8501  0.0715
  390MOL0     C53709  -1.080   1.871   7.493  0.2071 -0.1514 -0.3955
  390MOL0     C53710  -0.978   1.954   7.424  0.0751 -0.8404 -0.1401
  390MOL0     C53711  -1.151   1.915   7.619 -0.2791  0.2646  0.2755
  390MOL0     C53712  -1.148   2.052   7.673  0.2935 -0.4168  0.6054
  390MOL0     O53713  -1.111   2.157   7.579  0.1118  0.8247  0.1899
  390MOL0     C53714  -1.117   2.289   7.614  0.6899 -1.0335  0.7825
  390MOL0     C53715  -1.231   2.351   7.672 -0.0729 -0.1616  0.1304
  390MOL0     C53716  -1.230   2.489   7.692 -0.2558  0.2332  0.3680
  390MOL0     C53717  -1.122   2.568   7.652 -0.4284  0.1618 -0.0578
  390MOL0     O53718  -1.140   2.697   7.683 -0.6839 -0.4087 -0.2927
  390MOL0     C53719  -1.040   2.790   7.656 -0.0611 -0.4908  0.0705
  390MOL0     C53720  -0.945   2.805   7.772  0.5550  0.5491 -0.4411
  390MOL0     C53721  -0.866   2.922   7.740 -0.0476 -0.1602  0.9781
  390MOL0     C53722  -0.777   2.957   7.861  0.2090 -0.0774 -0.3274
  390MOL0     C53723  -0.704   3.094   7.857 -0.4551 -0.0945  0.5133
  390MOL0     C53724  -0.799   3.219   7.864 -1.0086 -0.6799  0.2781
  390MOL0     C53725  -0.717   3.346   7.864 -0.3526 -0.0896 -0.3247
  390MOL0     C53726  -0.616   3.357   7.748 -0.2341 -0.5292 -0.6339
  390MOL0    Cl53727  -0.463   3.267   7.766 -0.0199  0.0500  0.5079
  390MOL0     C53728  -1.021   2.506   7.575  0.5436 -0.4018  0.9718
  390MOL0     C53729  -1.011   2.367   7.577 -0.0723  0.4553 -0.0708
  390MOL0     O53730  -1.171   2.069   7.791  0.2768  0.0690  0.0543
  390MOL0     C53731  -1.233   1.818   7.685  0.3124  0.2797  0.7021
  390MOL0     C53732  -1.247   1.685   7.639  0.2352  0.2612 -0.4338
  390MOL0     N53733  -1.046   0.914   7.318 -0.1532  0.0886 -0.0614
  390MOL0     N53734  -0.932   0.885   7.263  0.9613 -0.3107  0.4005
  390MOL0     C53735  -0.028   0.453   6.844  0.0401 -0.7723  0.9099
  390MOL0     C53736   0.086   0.455   6.930 -0.3590  0.4264 -0.2716
  390MOL0     C53737   0.512   0.604   7.061  0.0414 -0.2711  0.4461
  390MOL0     C53738   0.651   0.625   7.019 -0.1495 -0.1612 -0.4165
  390MOL0     C53739   0.756   0.630   7.115 -0.4957  1.3696  0.8727
  390MOL0     C53740   0.738   0.599   7.238  0.9406  0.6007 -1.1350
  390MOL0     O53741   0.854   0.606   7.315  0.0587  0.3383 -0.9461
  390MOL0     C53742   0.838   0.587   7.456  0.6669 -0.4550  0.8900
  390MOL0     C53743   0.972   0.621   7.527  0.1252 -1.0481  0.9861
  390MOL0     C53744   1.098   0.572   7.472 -0.4084 -0.5433  0.1458
  390MOL0     C53745   1.214   0.654   7.535 -0.0351  0.4434 -0.7225
  390MOL0     C53746   1.335   0.686   7.450 -0.1493 -0.7422 -0.7249
  390MOL0     C53747   1.406   0.729   7.364  0.1795 -1.0327 -0.5070
  390MOL0     C53748   0.608   0.570   7.288 -0.3110  0.7279 -0.0369
  390MOL0     C53749   0.499   0.581   7.199  0.3182  0.4028  0.3792
  390MOL0     C53750   0.370   0.559   7.276 -0.4502 -0.3030  0.4988
  390MOL0     H53751   0.201   0.762   6.859 -1.4805  1.1775 -1.5497
  390MOL0     H53752  -0.019   0.761   6.725 -0.8827  0.5373  1.3621
  390MOL0     H53753  -0.167   0.681   6.548 -1.0360  1.8702 -0.9282
  390MOL0     H53754  -0.222   0.775   6.682  0.1246  0.7861 -1.0993
  390MOL0     H53755  -0.397   0.739   6.514  3.3723 -2.2100 -2.5344
  390MOL0     H53756  -0.392   0.569   6.548  0.2001  0.7848 -1.8948
  390MOL0     H53757  -0.461   0.618   6.795  0.6639 -0.8607 -0.3978
  390MOL0     H53758  -0.475   0.787   6.742 -0.2994  0.0115 -0.9164
  390MOL0     H53759  -0.651   0.707   6.581  4.8336  2.0842 -0.4279
  390MOL0     H53760  -0.629   0.539   6.647 -2.6907 -0.1427 -0.6417
  390MOL0     H53761  -0.687   0.622   6.889 -0.0661 -0.3271 -0.8098
  390MOL0     H53762  -0.817   0.621   6.786 -0.0920  0.3195  1.4230
  390MOL0     H53763  -0.644   0.874   6.854  0.2510 -0.6220 -1.8807
  390MOL0     H53764  -0.806   0.875   6.776  0.4409 -1.9335 -1.7598
  390MOL0     H53765  -0.715   0.793   7.049  2.2322  2.6418  0.8994
  390MOL0     H53766  -0.892   0.767   6.980  1.7984 -2.1018 -2.7541
  390MOL0     H53767  -0.745   1.014   7.069  0.7308 -1.1931  1.4961
  390MOL0     H53768  -0.890   1.009   6.953  1.6333  0.0575 -1.4640
  390MOL0     H53769  -1.024   1.150   7.087  2.7333 -0.7373 -1.8087
  390MOL0     H53770  -1.275   1.032   7.365  2.5145 -0.8401  2.2368
  390MOL0     H53771  -1.297   1.110   7.221 -3.9934  0.1525  2.7842
  390MOL0     H53772  -1.136   1.189   7.464  3.0579  0.0389 -1.8853
  390MOL0     H53773  -1.106   1.280   7.315 -0.5824 -0.3984 -0.8254
  390MOL0     H53774  -1.327   1.365   7.308  2.1929 -1.3792 -0.3188
  390MOL0     H53775  -1.382   1.255   7.444 -0.5711 -0.0336  1.3125
  390MOL0     H53776  -1.364   1.496   7.500  0.6762  1.3752  0.0771
  390MOL0     H53777  -1.267   1.374   7.598 -1.4935 -2.2030 -1.3873
  390MOL0     H53778  -1.075   1.714   7.349  1.7728  1.7868  0.5275
  390MOL0     H53779  -1.016   2.031   7.356 -0.3447 -0.9354 -0.0165
  390MOL0     H53780  -0.900   1.901   7.369  2.0790  1.1443  0.5861
  390MOL0     H53781  -0.926   2.003   7.508 -3.1754 -0.9577  2.1113
  390MOL0     H53782  -1.321   2.298   7.699 -2.3119  2.7160 -1.1185
  390MOL0     H53783  -1.324   2.528   7.729  0.0567  0.5300  0.8561
  390MOL0     H53784  -0.981   2.769   7.566  0.9581 -0.1674  0.6463
  390MOL0     H53785  -1.086   2.889   7.644 -2.2707 -1.0503  2.8195
  390MOL0     H53786  -1.004   2.833   7.859 -0.5602  0.4112 -1.1279
  390MOL0     H53787  -0.885   2.718   7.798 -2.4814 -0.6850  3.3216
  390MOL0     H53788  -0.920   3.012   7.712  3.2430  1.2925 -1.2967
  390MOL0     H53789  -0.810   2.911   7.647  0.3953 -0.8650  1.3072
  390MOL0     H53790  -0.710   2.873   7.879  0.7202  0.1819 -1.0014
  390MOL0     H53791  -0.849   2.976   7.941  1.1104  1.9837  0.0442
  390MOL0     H53792  -0.626   3.100   7.935  1.2093 -0.7562 -1.0380
  390MOL0     H53793  -0.658   3.091   7.758 -3.3980 -1.2038 -0.9341
  390MOL0     H53794  -0.858   3.220   7.956  1.1775  0.9166  1.7402
  390MOL0     H53795  -0.871   3.216   7.781  1.4888 -5.6308 -2.1407
  390MOL0     H53796  -0.664   3.351   7.960 -2.0133 -1.8671  0.7660
  390MOL0     H53797  -0.780   3.434   7.847 -0.3568  0.1214  0.6780
  390MOL0     H53798  -0.581   3.460   7.736  1.9028 -1.2751 -1.2175
  390MOL0     H53799  -0.665   3.330   7.654  1.7162  3.0831 -2.8995
  390MOL0     H53800  -0.939   2.555   7.524 -0.2446  1.4174  1.4061
  390MOL0     H53801  -0.918   2.333   7.533  0.0549  2.0151 -1.0952
  390MOL0     H53802  -1.285   1.836   7.778  0.3108  0.4453  0.6703
  390MOL0     H53803  -1.302   1.619   7.706  4.3007 -2.2942  0.7838
  390MOL0     H53804  -0.086   0.362   6.832 -1.4385  0.0466  1.7182
  390MOL0     H53805   0.116   0.357   6.965  0.6255  0.9513  0.3678
  390MOL0     H53806   0.683   0.653   6.919 -0.6736  2.7357  0.1439
  390MOL0     H53807   0.849   0.662   7.069 -0.1786  1.0286  1.2636
  390MOL0     H53808   0.766   0.659   7.496  0.7359  0.6826 -0.9527
  390MOL0     H53809   0.810   0.489   7.496  0.6513 -0.5330  0.6881
  390MOL0     H53810   0.971   0.600   7.634  2.5122  0.6857  1.4261
  390MOL0     H53811   0.976   0.729   7.511  2.1954 -1.0475  1.1465
  390MOL0     H53812   1.112   0.469   7.506  2.2624  0.4465  2.3936
  390MOL0     H53813   1.106   0.574   7.362  1.3757  2.7320  0.2148
  390MOL0     H53814   1.250   0.611   7.629  0.2808 -0.7626 -1.3679
  390MOL0     H53815   1.174   0.755   7.548  1.7503  1.1211 -0.1398
  390MOL0     H53816   1.457   0.762   7.276 -1.1915 -0.0191 -0.9588
  390MOL0     H53817   0.586   0.549   7.392 -1.6065 -3.0615 -0.9327
  390MOL0     H53818   0.350   0.452   7.269 -1.2229 -0.1238 -0.1936
  390MOL0     H53819   0.379   0.591   7.381 -0.6338  3.2012 -0.4091
  390MOL0     H53820   0.284   0.622   7.250 -1.5853 -2.5533 -1.5506
  391MOL0     O53821   1.746   8.733   3.912 -0.0504  0.4660  1.0225
  391MOL0     C53822   1.851   8.790   3.871 -0.4630  0.3368 -0.6814
  391MOL0     O53823   1.935   8.742   3.790  0.6610 -0.2856 -0.3553
  391MOL0     C53824   1.932   8.608   3.749  0.6250 -0.5191 -0.1068
  391MOL0     C53825   2.052   8.544   3.737  0.0674  0.3391 -0.1903
  391MOL0     C53826   2.055   8.407   3.702  0.2034 -1.0769  0.1009
  391MOL0     C53827   1.941   8.341   3.663  0.3790  0.7086 -0.0846
  391MOL0     O53828   1.938   8.217   3.592  0.2412 -0.8689  0.0737
  391MOL0     C53829   2.043   8.130   3.632  0.9072  0.3283  0.3656
  391MOL0     C53830   2.048   7.982   3.577 -0.2696 -0.6533  0.7265
  391MOL0     C53831   2.164   7.899   3.637 -0.5115  0.1020 -0.4102
  391MOL0     C53832   2.131   7.842   3.772 -0.0236  1.0698  0.8547
  391MOL0     C53833   2.244   7.763   3.843  0.4821  0.3243 -0.2864
  391MOL0     C53834   2.344   7.865   3.896 -0.0012 -0.3372 -0.8827
  391MOL0     C53835   2.428   7.797   4.004  0.6293 -0.3872  0.3365
  391MOL0     C53836   2.523   7.905   4.057  0.1481 -0.2350  1.0887
  391MOL0     N53837   2.613   7.852   4.164  0.5297 -0.2027  0.1398
  391MOL0     C53838   2.699   7.744   4.147  0.7853 -0.2692 -0.9015
  391MOL0     C53839   2.777   7.737   4.257  0.7871  0.4156  0.6491
  391MOL0     C53840   2.898   7.654   4.286 -0.1293 -0.4049  0.2735
  391MOL0     C53841   2.877   7.536   4.376  0.5483  0.1183 -0.2559
  391MOL0     C53842   3.004   7.494   4.442 -0.7047 -0.1267  0.8990
  391MOL0     C53843   3.124   7.459   4.358 -0.7142 -0.8520 -0.0197
  391MOL0     O53844   3.236   7.430   4.440  0.7405  0.0608 -0.6203
  391MOL0     C53845   3.241   7.303   4.483  0.5112  0.3369 -0.8157
  391MOL0     C53846   3.235   7.256   4.622 -0.0039 -0.3420 -0.7675
  391MOL0     C53847   3.216   7.118   4.652 -0.5196 -0.2901 -0.3155
  391MOL0     C53848   3.168   7.080   4.792  0.4517  0.0265  0.4624
  391MOL0     C53849   3.244   7.020   4.548 -0.1942  0.1082  0.1023
  391MOL0     C53850   3.232   6.868   4.569 -0.3037  0.9825  0.8252
  391MOL0     O53851   3.128   6.821   4.642 -0.1205  0.4764  0.1248
  391MOL0     C53852   3.102   6.685   4.656 -0.1568 -0.2733 -0.5549
  391MOL0     C53853   2.989   6.637   4.588 -0.0887  1.3197 -0.7289
  391MOL0     C53854   2.974   6.502   4.595  0.3343 -0.2325  0.1306
  391MOL0     C53855   3.058   6.410   4.650  0.2084  0.9163 -0.4278
  391MOL0     O53856   3.012   6.282   4.654  0.1200  0.8742  0.3564
  391MOL0     C53857   3.116   6.185   4.661  0.1892 -0.8210 -1.0044
  391MOL0     C53858   3.153   6.130   4.522 -0.8410  0.1328  0.0628
  391MOL0     C53859   3.056   6.030   4.465 -0.2298 -0.8588  0.1909
  391MOL0     C53860   3.076   5.894   4.534 -0.9045 -1.1879  0.6431
  391MOL0     C53861   3.033   5.779   4.440 -0.2530  0.5250  0.4553
  391MOL0     C53862   3.054   5.635   4.481 -0.0989  0.2132  0.1409
  391MOL0     C53863   2.993   5.589   4.617 -0.5803  0.2751  0.5158
  391MOL0     C53864   2.837   5.611   4.618 -0.2086 -0.1341  0.3499
  391MOL0    Cl53865   2.785   5.563   4.779 -0.2640  0.8443 -0.2055
  391MOL0     C53866   3.164   6.475   4.725 -0.3312  0.6582 -0.0157
  391MOL0     C53867   3.188   6.610   4.734 -0.1952 -0.1316 -0.4869
  391MOL0     O53868   3.306   6.786   4.497  0.5214  0.2562 -0.3256
  391MOL0     C53869   3.281   7.070   4.418 -0.0748 -0.5094  0.3277
  391MOL0     C53870   3.282   7.210   4.390  0.8968 -0.7264 -0.6153
  391MOL0     N53871   2.723   7.828   4.344 -0.6509  0.0079  0.0246
  391MOL0     N53872   2.631   7.896   4.290 -0.1748  0.4587  0.2250
  391MOL0     C53873   1.820   8.407   3.674 -0.8577  0.0051  0.6363
  391MOL0     C53874   1.812   8.540   3.716  0.3403  0.1432  0.4840
  391MOL0     C53875   1.867   8.935   3.915 -0.0300 -0.1071 -0.8097
  391MOL0     C53876   1.998   8.991   3.901  0.0208  0.2021  0.2879
  391MOL0     C53877   2.025   9.117   3.947 -0.3575  0.7513  0.1069
  391MOL0     C53878   1.925   9.204   3.998  0.2243 -0.3657 -0.1824
  391MOL0     O53879   1.955   9.329   4.048 -0.3849  0.2488  0.1367
  391MOL0     C53880   1.849   9.409   4.112  0.1297 -0.5129  0.1147
  391MOL0     C53881   1.804   9.365   4.255 -0.6151  0.5389 -0.3940
  391MOL0     C53882   1.684   9.437   4.306  0.0667  0.6282  0.6587
  391MOL0     C53883   1.612   9.375   4.424 -0.3626  0.2139 -1.1121
  391MOL0     C53884   1.565   9.239   4.412 -0.3172  0.4827 -0.5450
  391MOL0     C53885   1.532   9.125   4.391  0.6269  0.4219 -0.2074
  391MOL0     C53886   1.796   9.147   4.010 -0.1246  0.2042 -0.4659
  391MOL0     C53887   1.762   9.011   3.983  0.0174 -0.0238 -0.0607
  391MOL0     C53888   1.624   8.964   4.000  0.2815  1.0470  0.2262
  391MOL0     H53889   2.143   8.595   3.769  0.7122 -0.1700 -1.1595
  391MOL0     H53890   2.155   8.370   3.682  1.9267  2.2819  1.7551
  391MOL0     H53891   2.020   8.121   3.738  0.0729  0.0047  0.1633
  391MOL0     H53892   2.143   8.174   3.619 -0.2725  2.6760 -1.7578
  391MOL0     H53893   1.951   7.930   3.572 -0.4350 -0.2276 -0.9923
  391MOL0     H53894   2.072   7.996   3.472  0.4995  0.9465  1.0801
  391MOL0     H53895   2.182   7.818   3.566 -0.7745 -0.5261  0.2339
  391MOL0     H53896   2.249   7.968   3.646 -1.4064  1.2018 -0.1662
  391MOL0     H53897   2.091   7.927   3.828 -0.9337  1.1512  0.0936
  391MOL0     H53898   2.053   7.769   3.751  0.1947  0.9474  0.4543
  391MOL0     H53899   2.280   7.707   3.757  0.0998 -3.1833  1.6813
  391MOL0     H53900   2.207   7.690   3.915 -0.1859  1.5490  0.6463
  391MOL0     H53901   2.405   7.894   3.811 -1.6056  1.1499 -1.5900
  391MOL0     H53902   2.297   7.954   3.939 -1.0096  0.6780 -3.8424
  391MOL0     H53903   2.482   7.712   3.962 -0.6724 -1.2258  0.3142
  391MOL0     H53904   2.357   7.763   4.081  1.3197 -1.5345  0.4816
  391MOL0     H53905   2.586   7.948   3.979 -1.7338 -0.3527 -0.5972
  391MOL0     H53906   2.456   7.980   4.098  1.6246  1.2270  0.9152
  391MOL0     H53907   2.712   7.679   4.062 -0.9244  1.0664 -2.2729
  391MOL0     H53908   2.971   7.715   4.339 -1.6720 -0.7241  2.8946
  391MOL0     H53909   2.950   7.621   4.195 -0.8033 -2.5143  0.6017
  391MOL0     H53910   2.801   7.558   4.452 -0.3762 -4.0661  0.2885
  391MOL0     H53911   2.844   7.452   4.315  3.7990 -1.4948 -0.0070
  391MOL0     H53912   3.029   7.582   4.502 -4.3288  2.4377 -0.9688
  391MOL0     H53913   2.986   7.405   4.502  3.0184 -2.1361 -0.6541
  391MOL0     H53914   3.089   7.379   4.292 -2.1872 -0.1288 -0.1711
  391MOL0     H53915   3.153   7.548   4.301 -0.2285 -0.4257  0.8786
  391MOL0     H53916   3.224   7.318   4.710  0.6500 -0.1078 -0.8480
  391MOL0     H53917   3.065   7.044   4.784  1.9492 -4.7976 -0.1872
  391MOL0     H53918   3.178   7.165   4.861  1.2192  1.1216 -0.9603
  391MOL0     H53919   3.223   6.994   4.832  1.6590 -0.4026 -1.9819
  391MOL0     H53920   2.917   6.703   4.540 -1.0396  1.8606  1.3325
  391MOL0     H53921   2.894   6.461   4.535 -1.1060  1.1395  1.0431
  391MOL0     H53922   3.214   6.222   4.695  0.2318 -1.7306 -0.0618
  391MOL0     H53923   3.094   6.104   4.732 -0.4421 -0.0836 -0.3381
  391MOL0     H53924   3.166   6.209   4.448 -1.3640 -0.7650 -1.0091
  391MOL0     H53925   3.245   6.072   4.514 -0.0838  1.3559 -0.3508
  391MOL0     H53926   3.082   6.027   4.359 -1.9924  0.3684 -0.3105
  391MOL0     H53927   2.951   6.058   4.463 -0.3542 -1.3518 -0.7714
  391MOL0     H53928   3.011   5.886   4.622  1.0214 -2.5145  2.0330
  391MOL0     H53929   3.176   5.869   4.569 -0.1900  0.6121  0.0408
  391MOL0     H53930   2.927   5.793   4.418 -1.1376 -1.0857  3.2037
  391MOL0     H53931   3.084   5.778   4.343 -2.5147  0.8292 -0.8161
  391MOL0     H53932   3.160   5.617   4.496  0.0448 -1.3526 -2.2441
  391MOL0     H53933   3.024   5.580   4.392 -0.8897 -0.3246  0.7249
  391MOL0     H53934   3.034   5.646   4.701 -0.5427 -1.9630  2.1042
  391MOL0     H53935   3.015   5.483   4.635 -0.7113  0.0682 -0.4684
  391MOL0     H53936   2.781   5.557   4.541  2.0384  1.5181 -2.6443
  391MOL0     H53937   2.814   5.718   4.613  0.3244  0.0580  1.6623
  391MOL0     H53938   3.206   6.420   4.809 -0.7266  0.4644  0.0601
  391MOL0     H53939   3.272   6.651   4.789 -0.3194  0.0406 -0.4249
  391MOL0     H53940   3.327   7.014   4.338  0.0567 -1.0980  0.8032
  391MOL0     H53941   3.307   7.230   4.286  2.4359  0.0907 -0.1131
  391MOL0     H53942   1.730   8.359   3.636 -1.4669  2.3812 -1.1474
  391MOL0     H53943   1.708   8.572   3.721 -1.2209 -4.1481 -0.1247
  391MOL0     H53944   2.077   8.932   3.855  0.1853  1.3015 -0.9284
  391MOL0     H53945   2.128   9.150   3.937 -0.1618 -0.0081 -0.4344
  391MOL0     H53946   1.889   9.508   4.134 -1.3828 -0.2599  1.9850
  391MOL0     H53947   1.766   9.422   4.042 -0.0412 -2.8171 -0.2024
  391MOL0     H53948   1.889   9.380   4.322 -0.4722 -0.6238 -0.2951
  391MOL0     H53949   1.793   9.256   4.258  1.3350  0.3207  0.0041
  391MOL0     H53950   1.720   9.536   4.335  2.5137 -0.5807  2.1534
  391MOL0     H53951   1.608   9.456   4.229  1.6969  1.1532 -0.9009
  391MOL0     H53952   1.530   9.437   4.461 -0.5284 -0.5120 -0.2127
  391MOL0     H53953   1.686   9.379   4.505 -1.4215  0.2458 -0.1246
  391MOL0     H53954   1.498   9.024   4.383 -3.1306  1.6104 -2.1868
  391MOL0     H53955   1.715   9.215   4.036  1.5836  2.4580 -0.6847
  391MOL0     H53956   1.615   8.892   4.082  1.4673  4.3180  3.5156
  391MOL0     H53957   1.559   9.048   4.025 -1.4265  0.2583 -1.3661
  391MOL0     H53958   1.587   8.921   3.907 -0.4649 -1.4905  1.5879
  392MOL0     O53959   4.639  10.158   7.004  0.0648  0.7132  0.0071
  392MOL0     C53960   4.687  10.135   6.892  0.2348  0.2895 -1.2399
  392MOL0     O53961   4.680  10.219   6.782  0.1533 -0.4929  0.0792
  392MOL0     C53962   4.621  10.338   6.791 -0.0239  1.1909 -0.7945
  392MOL0     C53963   4.619  10.422   6.904  0.1067 -0.4382 -0.6884
  392MOL0     C53964   4.551  10.536   6.903 -0.4269 -1.3452  0.2813
  392MOL0     C53965   4.495  10.590   6.790 -0.7359 -0.2266 -1.0170
  392MOL0     O53966   4.443  10.720   6.795  0.5950 -0.2287  0.0444
  392MOL0     C53967   4.322  10.748   6.715  0.7419 -1.2887  0.2667
  392MOL0     C53968   4.249  10.875   6.767  0.0888 -0.3046  0.2640
  392MOL0     C53969   4.131  10.912   6.668 -0.5103 -0.4488  0.3833
  392MOL0     C53970   4.069  11.052   6.686 -0.2892  0.0127 -0.1675
  392MOL0     C53971   4.158  11.180   6.651  0.6664 -0.0209 -0.4371
  392MOL0     C53972   4.158  11.199   6.502 -0.2058 -0.5500 -0.4169
  392MOL0     C53973   4.293  11.148   6.427 -0.5102  0.8796 -0.4049
  392MOL0     C53974   4.336  11.222   6.294  0.3394 -0.8836 -0.6052
  392MOL0     N53975   4.438  11.330   6.315  0.8109  0.4147 -0.0260
  392MOL0     C53976   4.511  11.368   6.431 -0.2034 -0.6597  0.6472
  392MOL0     C53977   4.591  11.466   6.388  0.2020 -0.3785 -0.1567
  392MOL0     C53978   4.699  11.530   6.469 -1.7350 -0.1935 -0.3346
  392MOL0     C53979   4.835  11.467   6.428 -0.2458  0.4860 -0.9921
  392MOL0     C53980   4.958  11.511   6.522  0.3716  0.0182  0.4221
  392MOL0     C53981   4.971  11.665   6.546  0.4878 -0.6401 -0.9669
  392MOL0     O53982   4.860  11.721   6.622 -0.3350  1.1080 -0.4682
  392MOL0     C53983   4.853  11.855   6.634 -0.0832  0.4519  0.5281
  392MOL0     C53984   4.799  11.924   6.527 -0.6411 -0.3913  0.4458
  392MOL0     C53985   4.780  12.067   6.516  0.1199  1.5880  0.2627
  392MOL0     C53986   4.721  12.121   6.396 -0.0645 -0.4259  0.0084
  392MOL0     C53987   4.827  12.149   6.619  0.7504 -0.3994 -0.1893
  392MOL0     C53988   4.797  12.298   6.621 -0.4185  0.6292  0.2116
  392MOL0     O53989   4.890  12.379   6.678  0.6408  0.2596 -0.8782
  392MOL0     C53990   4.873  12.516   6.700 -0.1775  1.0351  0.3852
  392MOL0     C53991   4.904  12.565   6.822 -0.6919 -0.1775 -1.3479
  392MOL0     C53992   4.885  12.706   6.845 -0.9703  0.0183  0.4703
  392MOL0     C53993   4.843  12.795   6.746 -0.0834 -0.0433 -0.7455
  392MOL0     O53994   4.854  12.929   6.767 -0.3527 -0.7336  0.9484
  392MOL0     C53995   4.916  12.988   6.885  0.1934  0.7785  0.7148
  392MOL0     C53996   4.978  13.118   6.856  0.3910  0.6123  0.0436
  392MOL0     C53997   4.889  13.207   6.770  0.0116 -0.3561 -0.5062
  392MOL0     C53998   4.754  13.242   6.835 -0.5040 -0.3908  0.9217
  392MOL0     C53999   4.665  13.312   6.736 -0.8333  0.1546  0.2392
  392MOL0     C54000   4.718  13.455   6.714 -0.6752 -0.8997  0.1365
  392MOL0     C54001   4.629  13.538   6.616  0.5832 -0.1694 -0.0569
  392MOL0     C54002   4.659  13.505   6.467 -0.5191  0.5570  0.4533
  392MOL0    Cl54003   4.830  13.578   6.430 -0.1728  0.0986  0.1037
  392MOL0     C54004   4.797  12.736   6.622 -0.0705  0.9746 -0.3217
  392MOL0     C54005   4.815  12.598   6.603  0.8926 -0.1940  0.0286
  392MOL0     O54006   4.691  12.337   6.581 -0.2842  0.3896 -0.3012
  392MOL0     C54007   4.875  12.080   6.735 -0.3246 -0.6132  0.6736
  392MOL0     C54008   4.900  11.939   6.746  0.9458  0.1037 -0.4617
  392MOL0     N54009   4.560  11.498   6.256  0.0593  0.0171 -1.0395
  392MOL0     N54010   4.471  11.418   6.219  0.1367  0.1348  0.0719
  392MOL0     C54011   4.505  10.517   6.672 -0.5892 -0.2019  0.4236
  392MOL0     C54012   4.572  10.392   6.675 -0.4088 -1.1726  0.1848
  392MOL0     C54013   4.737   9.996   6.868 -1.0564  0.4737  0.4545
  392MOL0     C54014   4.803   9.970   6.744  0.0714  0.1089 -0.2916
  392MOL0     C54015   4.864   9.853   6.706  0.8159  1.0835  0.5557
  392MOL0     C54016   4.903   9.761   6.806 -0.9955  0.1056 -0.2859
  392MOL0     O54017   4.971   9.640   6.781 -0.0411  0.2215 -1.1331
  392MOL0     C54018   4.999   9.614   6.644  0.2811  0.4685 -0.1449
  392MOL0     C54019   5.076   9.481   6.624  0.1352 -0.5593 -0.7388
  392MOL0     C54020   5.011   9.365   6.699 -0.8246  0.0612  0.1960
  392MOL0     C54021   5.093   9.237   6.693 -1.4951 -0.2909  0.4403
  392MOL0     C54022   5.034   9.123   6.769 -0.6279  0.2412 -0.6567
  392MOL0     C54023   4.972   9.031   6.816 -0.0888 -0.7124  0.4030
  392MOL0     C54024   4.854   9.786   6.937  0.6651  0.2539 -0.0132
  392MOL0     C54025   4.776   9.900   6.966  0.2564 -0.0015 -0.7519
  392MOL0     C54026   4.771   9.933   7.121 -0.4952  0.2944 -0.2169
  392MOL0     H54027   4.655  10.377   6.996 -3.7726 -4.7406 -0.9456
  392MOL0     H54028   4.531  10.591   6.995  0.3840  0.7606 -0.7485
  392MOL0     H54029   4.250  10.667   6.725 -1.5418  0.8125  2.4338
  392MOL0     H54030   4.335  10.771   6.609 -0.5957  0.5920  0.4549
  392MOL0     H54031   4.214  10.856   6.869 -0.4298 -0.6686  0.0164
  392MOL0     H54032   4.326  10.953   6.765  0.1381 -0.2188  2.6434
  392MOL0     H54033   4.163  10.916   6.564 -2.8352  3.4971 -0.3899
  392MOL0     H54034   4.054  10.835   6.673  0.4369 -1.7906 -3.0820
  392MOL0     H54035   3.967  11.055   6.647  0.2529 -1.1383 -1.7762
  392MOL0     H54036   4.062  11.063   6.795  0.7080 -0.2271 -0.0678
  392MOL0     H54037   4.261  11.171   6.687  0.3044 -2.1111  0.2135
  392MOL0     H54038   4.100  11.264   6.691  1.7382  1.0039 -0.9771
  392MOL0     H54039   4.069  11.160   6.452  0.1960 -3.4724  0.8931
  392MOL0     H54040   4.162  11.307   6.487 -1.2482 -0.5951 -1.1022
  392MOL0     H54041   4.274  11.045   6.396 -2.8112  0.4895  1.9826
  392MOL0     H54042   4.371  11.147   6.504 -1.4914  0.5956  0.6049
  392MOL0     H54043   4.383  11.149   6.227  0.7267 -0.0238 -1.2746
  392MOL0     H54044   4.252  11.263   6.237  1.0319  2.6241  0.6732
  392MOL0     H54045   4.507  11.322   6.529 -0.3828 -1.7875  0.1300
  392MOL0     H54046   4.691  11.519   6.578  0.4306  0.0298 -0.1209
  392MOL0     H54047   4.708  11.637   6.449 -1.9832 -0.1499 -0.2148
  392MOL0     H54048   4.817  11.359   6.434 -0.3076  0.4214 -2.1622
  392MOL0     H54049   4.863  11.495   6.326  0.7330  2.0515 -0.3284
  392MOL0     H54050   4.953  11.455   6.616  0.5778 -0.5324  0.1100
  392MOL0     H54051   5.043  11.469   6.467 -0.3776 -0.3960 -0.4462
  392MOL0     H54052   5.060  11.670   6.609  0.4220 -0.7259 -0.8673
  392MOL0     H54053   5.003  11.722   6.458 -1.2447  1.8123 -0.1242
  392MOL0     H54054   4.773  11.866   6.440 -2.4829  2.7531 -1.2972
  392MOL0     H54055   4.793  12.190   6.352  0.8121 -1.2999  0.0522
  392MOL0     H54056   4.630  12.179   6.418  1.0779  1.1538  0.7707
  392MOL0     H54057   4.706  12.046   6.318  1.1233  2.5147 -3.3275
  392MOL0     H54058   4.931  12.498   6.903 -0.0611 -1.1218 -2.3135
  392MOL0     H54059   4.896  12.738   6.948 -0.3873  0.0358  0.4059
  392MOL0     H54060   4.840  12.995   6.963 -0.2392  2.1932  0.2041
  392MOL0     H54061   4.996  12.926   6.925 -0.4319 -0.0668  0.6815
  392MOL0     H54062   4.994  13.168   6.952  0.0548  0.7188  0.0452
  392MOL0     H54063   5.074  13.104   6.805 -0.7272 -0.8381 -1.8102
  392MOL0     H54064   4.864  13.163   6.673  0.8730 -0.8963 -0.4893
  392MOL0     H54065   4.941  13.302   6.759  1.0799 -0.8409  0.1937
  392MOL0     H54066   4.767  13.295   6.930  0.8178 -2.0076  1.6814
  392MOL0     H54067   4.692  13.155   6.858 -1.3190  0.1351  0.7596
  392MOL0     H54068   4.675  13.256   6.643  1.3836  2.6718 -1.1979
  392MOL0     H54069   4.565  13.305   6.779  0.2000 -1.5308  2.6226
  392MOL0     H54070   4.816  13.445   6.666 -0.9632 -0.0665 -0.6466
  392MOL0     H54071   4.717  13.497   6.815 -2.9673 -0.8331  0.1405
  392MOL0     H54072   4.638  13.646   6.630 -3.5508  0.3840 -0.2669
  392MOL0     H54073   4.524  13.514   6.638  0.5380  0.4895  0.4795
  392MOL0     H54074   4.594  13.559   6.398  2.5236  1.2280 -2.1281
  392MOL0     H54075   4.655  13.397   6.445 -0.3587  0.5426  0.4945
  392MOL0     H54076   4.741  12.805   6.560 -1.5154  1.2859  1.2613
  392MOL0     H54077   4.777  12.555   6.511 -0.9245 -0.6470  0.9574
  392MOL0     H54078   4.904  12.151   6.812 -1.5316  0.5595  0.0957
  392MOL0     H54079   4.933  11.890   6.837 -5.4811 -2.4706  1.0816
  392MOL0     H54080   4.491  10.571   6.579 -1.3973 -2.6397 -0.9747
  392MOL0     H54081   4.577  10.347   6.576 -2.0941 -3.5355  1.0683
  392MOL0     H54082   4.788  10.040   6.662  0.9179  0.8035  0.1374
  392MOL0     H54083   4.901   9.842   6.604 -3.1186 -0.8902 -0.8750
  392MOL0     H54084   4.907   9.603   6.586  1.5262  1.5425 -2.4791
  392MOL0     H54085   5.068   9.689   6.604  6.3499 -3.0487  2.3169
  392MOL0     H54086   5.184   9.486   6.641  0.0236 -3.3414  1.6221
  392MOL0     H54087   5.069   9.461   6.517  2.0813  0.7225 -1.1520
  392MOL0     H54088   4.994   9.384   6.806  1.7322  0.5572  0.5692
  392MOL0     H54089   4.924   9.333   6.640  0.8618 -0.7785 -1.9639
  392MOL0     H54090   5.189   9.255   6.743 -1.2163 -1.7465  0.4719
  392MOL0     H54091   5.115   9.203   6.591 -2.1595 -1.7529  0.7554
  392MOL0     H54092   4.926   8.948   6.866 -0.8580 -0.7492 -0.3650
  392MOL0     H54093   4.892   9.727   7.021 -0.2988  1.1251  1.0725
  392MOL0     H54094   4.665   9.939   7.146 -0.3998 -1.9995  1.0293
  392MOL0     H54095   4.804   9.844   7.175 -0.0999 -0.0003 -0.9237
  392MOL0     H54096   4.837  10.008   7.167  2.8263 -1.5315 -1.6686
  393MOL0     O54097   0.833   6.858   1.455  0.2775  0.5968 -0.1294
  393MOL0     C54098   0.952   6.867   1.489  0.6958 -0.4513 -1.4811
  393MOL0     O54099   1.056   6.776   1.456 -0.1558  0.3737  0.0352
  393MOL0     C54100   1.024   6.657   1.400  0.5023  0.6567  0.6890
  393MOL0     C54101   1.101   6.608   1.297 -0.1630  0.2644 -0.3183
  393MOL0     C54102   1.079   6.481   1.238 -0.0765 -0.5563 -1.0901
  393MOL0     C54103   0.977   6.399   1.282  0.2509 -0.2965 -0.4040
  393MOL0     O54104   0.935   6.287   1.223  0.0512  0.0388  0.4354
  393MOL0     C54105   1.034   6.186   1.205  0.3509 -0.6352 -0.2393
  393MOL0     C54106   0.973   6.037   1.214 -0.9692 -0.3674  0.7005
  393MOL0     C54107   0.888   6.015   1.090  0.3521  0.0830 -0.2308
  393MOL0     C54108   0.734   6.038   1.108 -0.2684 -0.1569  0.0514
  393MOL0     C54109   0.647   5.956   1.029 -0.0330  0.9930  0.4601
  393MOL0     C54110   0.497   5.990   1.069  0.0720  0.2665  1.1970
  393MOL0     C54111   0.423   5.898   0.973 -0.6156  0.3566  0.7508
  393MOL0     C54112   0.274   5.886   1.021  0.0152  0.3354  0.2718
  393MOL0     N54113   0.204   6.014   1.051 -0.6665 -0.3898 -0.1774
  393MOL0     C54114   0.186   6.065   1.175  0.5674 -0.6650  0.7163
  393MOL0     C54115   0.086   6.153   1.162  0.1678 -0.9832 -0.2743
  393MOL0     C54116   0.058   6.254   1.267 -0.2498  0.8017 -0.1672
  393MOL0     C54117   0.115   6.390   1.229  0.6129 -0.1732  0.0890
  393MOL0     C54118   0.075   6.500   1.334  0.2708  0.1811 -0.3470
  393MOL0     C54119   0.112   6.641   1.283  0.4363  0.1287  0.1688
  393MOL0     O54120   0.252   6.661   1.290 -0.5743  0.6689  0.1679
  393MOL0     C54121   0.303   6.786   1.279  0.8415 -0.2031  0.1808
  393MOL0     C54122   0.236   6.890   1.212 -0.2857 -0.2794  0.2698
  393MOL0     C54123   0.298   7.015   1.202  0.3603 -0.6508 -0.1345
  393MOL0     C54124   0.206   7.128   1.148 -0.5753  0.5659 -0.5145
  393MOL0     C54125   0.429   7.040   1.259 -0.1585  0.0163  0.7787
  393MOL0     C54126   0.516   7.158   1.234 -0.2403 -0.4970 -0.3923
  393MOL0     O54127   0.642   7.151   1.262 -0.4342  0.4340  0.1226
  393MOL0     C54128   0.704   7.270   1.287 -0.2031  1.1025  0.1138
  393MOL0     C54129   0.679   7.334   1.413  0.1637  1.3727  0.2444
  393MOL0     C54130   0.743   7.452   1.430 -0.5598 -0.4810  0.3983
  393MOL0     C54131   0.828   7.502   1.341  0.0152  0.2682 -0.0177
  393MOL0     O54132   0.906   7.619   1.366 -0.5571  0.2420 -0.3426
  393MOL0     C54133   1.003   7.614   1.481 -0.1321  0.1084 -0.4137
  393MOL0     C54134   1.110   7.520   1.430  0.1755  0.2069  0.3130
  393MOL0     C54135   1.237   7.524   1.507  0.5249  0.7657  0.0480
  393MOL0     C54136   1.238   7.427   1.638 -0.3853 -0.3116  0.8021
  393MOL0     C54137   1.352   7.441   1.733  0.6073  0.3420 -0.0801
  393MOL0     C54138   1.345   7.561   1.811  0.5571  0.8645  0.5643
  393MOL0     C54139   1.485   7.600   1.868 -0.6135 -0.6717  0.2968
  393MOL0     C54140   1.482   7.712   1.981 -0.7455  0.2351  0.4935
  393MOL0    Cl54141   1.662   7.750   2.013  0.4049  0.0303  0.1485
  393MOL0     C54142   0.864   7.432   1.224 -0.3509  1.2225  0.2486
  393MOL0     C54143   0.800   7.312   1.195 -0.4900  0.1035  0.9906
  393MOL0     O54144   0.452   7.259   1.208 -0.1003  0.3161  0.4493
  393MOL0     C54145   0.493   6.932   1.309 -0.4934 -0.3824 -0.0407
  393MOL0     C54146   0.428   6.808   1.334  0.0034  0.6650  0.2160
  393MOL0     N54147   0.034   6.142   1.028 -0.5400 -0.3206 -0.3948
  393MOL0     N54148   0.109   6.050   0.965 -0.2431 -1.5519 -0.9176
  393MOL0     C54149   0.899   6.443   1.393  0.0364 -0.1791 -0.4788
  393MOL0     C54150   0.920   6.573   1.442 -0.2640  0.0107 -0.0767
  393MOL0     C54151   0.991   6.981   1.582  0.3388 -0.2274 -0.5546
  393MOL0     C54152   0.924   7.094   1.574  0.1940 -0.1231 -0.4154
  393MOL0     C54153   0.930   7.192   1.681 -0.5479 -0.0798 -0.4228
  393MOL0     C54154   1.033   7.185   1.781 -0.1420  0.9641  1.2472
  393MOL0     O54155   1.062   7.271   1.882  0.1622 -0.4989 -0.5140
  393MOL0     C54156   0.966   7.380   1.921 -0.6462 -0.3463 -1.0813
  393MOL0     C54157   0.831   7.334   1.953 -0.4215 -1.4572 -0.7307
  393MOL0     C54158   0.844   7.212   2.067  0.0715 -0.8220 -0.6383
  393MOL0     C54159   0.706   7.173   2.131  0.0349 -0.3163  0.1952
  393MOL0     C54160   0.656   7.269   2.241 -0.3418 -0.3849 -0.4266
  393MOL0     C54161   0.618   7.352   2.326 -0.8368 -0.2260 -0.7322
  393MOL0     C54162   1.114   7.071   1.773  0.3096 -0.3550  0.1584
  393MOL0     C54163   1.099   6.971   1.675  0.2702 -0.2665  0.1247
  393MOL0     C54164   1.206   6.859   1.683  0.2550 -0.5227 -0.5064
  393MOL0     H54165   1.185   6.670   1.267 -0.6687  0.4578 -1.3877
  393MOL0     H54166   1.147   6.453   1.158 -0.8805 -1.8901 -1.3495
  393MOL0     H54167   1.114   6.191   1.279  1.5955  0.2339 -1.5765
  393MOL0     H54168   1.086   6.214   1.113 -1.4037  1.9790 -0.5343
  393MOL0     H54169   1.053   5.962   1.208 -0.6607 -0.0506 -5.5752
  393MOL0     H54170   0.907   6.021   1.300  0.4453  0.0088  1.8981
  393MOL0     H54171   0.930   6.065   1.001 -2.0866 -0.3135 -1.6776
  393MOL0     H54172   0.897   5.908   1.070  1.4968 -0.1736  1.5045
  393MOL0     H54173   0.710   6.011   1.211  1.5089 -4.3011 -0.4359
  393MOL0     H54174   0.722   6.146   1.095 -2.1182 -0.3836 -0.4952
  393MOL0     H54175   0.662   5.848   1.042 -1.1514  0.5625 -1.4513
  393MOL0     H54176   0.658   5.974   0.922  1.0928 -0.5275  0.2881
  393MOL0     H54177   0.480   5.954   1.170  2.5573 -3.1613  0.5801
  393MOL0     H54178   0.469   6.095   1.053 -1.8814 -0.6658 -2.8492
  393MOL0     H54179   0.473   5.802   0.962  5.0632  3.0117 -0.7113
  393MOL0     H54180   0.418   5.950   0.877 -0.7283 -1.1646 -0.0964
  393MOL0     H54181   0.228   5.846   0.930 -2.0919  0.5406  1.1959
  393MOL0     H54182   0.246   5.822   1.105 -4.2919  0.4802 -0.8394
  393MOL0     H54183   0.244   6.028   1.259  2.4574 -1.3870 -0.8189
  393MOL0     H54184   0.079   6.216   1.368  1.1281  2.1014  0.0701
  393MOL0     H54185  -0.051   6.265   1.272 -0.3446 -0.5385  2.2610
  393MOL0     H54186   0.222   6.393   1.209  0.3524  0.2354 -1.3282
  393MOL0     H54187   0.070   6.413   1.132  2.3209 -0.0360 -0.6982
  393MOL0     H54188  -0.034   6.507   1.340  0.4398  2.2686  2.0788
  393MOL0     H54189   0.117   6.476   1.432  3.4096 -1.0680 -1.8512
  393MOL0     H54190   0.081   6.657   1.179  3.2580  0.9546 -0.6475
  393MOL0     H54191   0.054   6.713   1.341  0.6748  0.4223  0.0490
  393MOL0     H54192   0.138   6.871   1.170  0.3645 -0.9738 -1.0100
  393MOL0     H54193   0.111   7.088   1.112 -0.1109  0.8808 -2.1565
  393MOL0     H54194   0.255   7.190   1.072 -0.6435  2.7461  1.1192
  393MOL0     H54195   0.176   7.191   1.232 -2.0428 -0.0234 -0.5714
  393MOL0     H54196   0.615   7.292   1.489  1.1828 -1.4488 -0.3612
  393MOL0     H54197   0.719   7.497   1.525 -1.8648  2.4953 -1.2024
  393MOL0     H54198   1.047   7.711   1.505 -0.2252 -0.2900  1.5111
  393MOL0     H54199   0.960   7.569   1.570  2.6086  1.4115  1.7218
  393MOL0     H54200   1.081   7.416   1.416  3.7122 -0.8463  0.0099
  393MOL0     H54201   1.137   7.552   1.329  1.2589 -1.4895  0.0296
  393MOL0     H54202   1.245   7.625   1.548 -2.3813  0.6570  1.1776
  393MOL0     H54203   1.315   7.486   1.442 -0.0952 -2.4024  0.9537
  393MOL0     H54204   1.220   7.326   1.600 -0.0880  0.8249 -2.6914
  393MOL0     H54205   1.150   7.452   1.698  1.5220 -1.5642  4.3780
  393MOL0     H54206   1.338   7.356   1.799  0.4394  0.5815  0.1910
  393MOL0     H54207   1.444   7.422   1.676 -1.6017 -3.6300 -2.8041
  393MOL0     H54208   1.268   7.544   1.887 -0.7633 -0.0777 -0.9500
  393MOL0     H54209   1.300   7.645   1.758 -2.1979 -0.0996  1.1917
  393MOL0     H54210   1.546   7.628   1.782 -1.6193  1.1973  0.1403
  393MOL0     H54211   1.535   7.517   1.918 -3.6043 -2.3580  0.7007
  393MOL0     H54212   1.437   7.671   2.071 -0.0080  0.3182  0.9035
  393MOL0     H54213   1.436   7.804   1.942  1.5963  2.0659  1.7561
  393MOL0     H54214   0.933   7.477   1.153 -0.3619  1.5719  0.4576
  393MOL0     H54215   0.805   7.265   1.097 -1.4830 -3.0979  2.3762
  393MOL0     H54216   0.596   6.931   1.341 -1.0069  1.2185  1.9345
  393MOL0     H54217   0.486   6.734   1.386 -2.6004 -1.3927  0.3879
  393MOL0     H54218   0.815   6.390   1.438  1.6225 -1.4573  1.1492
  393MOL0     H54219   0.841   6.602   1.512  1.3140 -1.0561  2.3011
  393MOL0     H54220   0.843   7.100   1.502 -0.2171  0.3919  0.0720
  393MOL0     H54221   0.879   7.287   1.669  0.4004  0.5074  0.0544
  393MOL0     H54222   1.008   7.432   2.007  0.2919 -0.3484 -1.5254
  393MOL0     H54223   0.976   7.452   1.839 -0.4262  1.0311  0.1191
  393MOL0     H54224   0.785   7.288   1.864 -1.8038 -1.1691 -0.1838
  393MOL0     H54225   0.779   7.421   1.994  0.4145 -1.0350 -0.5549
  393MOL0     H54226   0.899   7.128   2.023  0.7382  0.1469 -1.7150
  393MOL0     H54227   0.899   7.253   2.153 -0.0355 -0.4682 -0.7358
  393MOL0     H54228   0.716   7.068   2.160  0.7525 -0.9703 -2.1680
  393MOL0     H54229   0.637   7.173   2.046  1.7439 -2.5073 -1.2865
  393MOL0     H54230   0.591   7.420   2.404 -2.5935 -1.5488 -0.0948
  393MOL0     H54231   1.196   7.069   1.844  0.7052 -1.3913 -0.2999
  393MOL0     H54232   1.264   6.868   1.776  1.6891 -2.7330 -1.1223
  393MOL0     H54233   1.168   6.756   1.689  3.6292 -1.9935 -1.8630
  393MOL0     H54234   1.279   6.865   1.602  1.8793 -1.5825  0.8022
  394MOL0     O54235   1.302   8.623   6.721 -0.4051  0.1337 -0.0347
  394MOL0     C54236   1.226   8.703   6.756  0.1448 -1.2519  0.0638
  394MOL0     O54237   1.241   8.799   6.865 -0.0865  0.2505 -0.1446
  394MOL0     C54238   1.356   8.790   6.931 -0.1687  0.0709  0.0903
  394MOL0     C54239   1.413   8.671   6.987 -0.0216  0.1723  0.4206
  394MOL0     C54240   1.548   8.661   7.045  0.6828  0.6130 -0.4109
  394MOL0     C54241   1.610   8.787   7.059 -0.0625  0.6252  0.1116
  394MOL0     O54242   1.733   8.790   7.114  0.9733  0.9448 -0.0560
  394MOL0     C54243   1.794   8.915   7.146 -0.2761  0.5724 -0.1959
  394MOL0     C54244   1.932   8.887   7.196 -0.1294  0.3876  0.5802
  394MOL0     C54245   2.024   8.997   7.248 -0.3448 -0.0133  0.1005
  394MOL0     C54246   2.123   8.957   7.351  0.2384  0.5089  0.0140
  394MOL0     C54247   2.233   9.065   7.356  0.4977  0.4130 -0.6755
  394MOL0     C54248   2.342   9.036   7.472 -0.6417 -0.1156  0.1920
  394MOL0     C54249   2.408   8.909   7.451 -0.0680 -0.0476  0.3018
  394MOL0     C54250   2.532   8.883   7.535  1.4293  0.7717  0.7497
  394MOL0     N54251   2.631   8.986   7.523 -0.5363  0.1431 -0.2963
  394MOL0     C54252   2.685   9.043   7.399 -0.9894  0.1187 -0.6115
  394MOL0     C54253   2.799   9.099   7.453 -0.7093 -0.3115  0.4848
  394MOL0     C54254   2.890   9.191   7.384 -0.3725 -0.7124 -0.1887
  394MOL0     C54255   3.038   9.141   7.352  0.1590  0.3115  0.4880
  394MOL0     C54256   3.041   9.024   7.250  0.3955 -0.3014 -0.8974
  394MOL0     C54257   3.180   8.978   7.221 -0.4290  0.6877  0.0023
  394MOL0     O54258   3.280   8.996   7.330  1.1334  0.1668  0.8301
  394MOL0     C54259   3.403   8.980   7.290  0.0197 -0.3230  0.5423
  394MOL0     C54260   3.502   9.028   7.382  0.0251 -0.2130 -0.7008
  394MOL0     C54261   3.630   9.016   7.361 -0.7027 -0.4866 -0.5386
  394MOL0     C54262   3.724   9.064   7.474 -0.8733 -0.4833 -0.1631
  394MOL0     C54263   3.674   8.952   7.241 -0.5275 -1.3585  0.1818
  394MOL0     C54264   3.820   8.949   7.201 -0.2028  0.3478 -0.1137
  394MOL0     O54265   3.906   9.035   7.259 -0.1154 -0.0635  0.1106
  394MOL0     C54266   4.024   9.078   7.197  0.1689 -0.3295 -0.0147
  394MOL0     C54267   4.109   9.151   7.288  0.6141  0.0176 -0.1537
  394MOL0     C54268   4.226   9.204   7.241  0.1859 -0.4382 -0.5070
  394MOL0     C54269   4.255   9.203   7.105 -1.0688 -0.6248  0.3493
  394MOL0     O54270   4.363   9.272   7.047 -0.1751 -0.0218 -0.0020
  394MOL0     C54271   4.455   9.180   6.980  0.1831  0.0193  0.1012
  394MOL0     C54272   4.586   9.256   6.939  0.0657  0.6210 -1.9620
  394MOL0     C54273   4.642   9.330   7.061 -0.1040  0.0764 -0.4448
  394MOL0     C54274   4.769   9.412   7.027  0.3857  0.1872 -0.1688
  394MOL0     C54275   4.836   9.448   7.161 -0.0269 -0.4086  0.5747
  394MOL0     C54276   4.734   9.525   7.249 -0.5565  0.5136  0.6206
  394MOL0     C54277   4.790   9.581   7.375  0.1942 -0.2271  1.0246
  394MOL0     C54278   4.795   9.467   7.474  1.0687 -0.9418 -0.0625
  394MOL0    Cl54279   4.896   9.509   7.619 -0.1831 -0.3156 -0.5877
  394MOL0     C54280   4.165   9.145   7.015 -0.2378  0.6947  1.0813
  394MOL0     C54281   4.060   9.075   7.063 -0.1462  0.5194  0.3945
  394MOL0     O54282   3.853   8.857   7.133 -0.1830 -0.2690  0.7322
  394MOL0     C54283   3.583   8.911   7.149 -0.2626  0.2626 -0.1203
  394MOL0     C54284   3.455   8.933   7.173  0.4537  0.8663 -0.7853
  394MOL0     N54285   2.808   9.084   7.590 -0.1861  0.1709  0.3957
  394MOL0     N54286   2.709   9.013   7.632 -0.3263  0.4818  0.6035
  394MOL0     C54287   1.545   8.906   7.016 -0.0341  0.4733 -0.8061
  394MOL0     C54288   1.418   8.904   6.958 -0.5204  1.0133  0.7342
  394MOL0     C54289   1.094   8.701   6.673 -0.3260 -0.4469 -0.6798
  394MOL0     C54290   1.009   8.810   6.705 -0.0709  0.2297 -0.2780
  394MOL0     C54291   0.881   8.818   6.643 -0.5378 -1.0304 -0.6162
  394MOL0     C54292   0.836   8.729   6.548 -0.5211  0.1845  0.2886
  394MOL0     O54293   0.721   8.724   6.476 -0.4507  0.2272 -0.4123
  394MOL0     C54294   0.618   8.826   6.505 -0.6925 -0.5659  0.2958
  394MOL0     C54295   0.654   8.957   6.432 -0.2605 -0.3749  0.1401
  394MOL0     C54296   0.546   9.065   6.419  0.7498  0.4260  0.4609
  394MOL0     C54297   0.467   9.034   6.284  0.2056  0.0690  0.8313
  394MOL0     C54298   0.387   9.152   6.229  0.1588  0.4594 -0.0245
  394MOL0     C54299   0.336   9.243   6.184  1.1340  0.0174  0.6781
  394MOL0     C54300   0.926   8.630   6.511 -0.4019 -0.5251 -0.3044
  394MOL0     C54301   1.057   8.614   6.573  0.5500  0.9001 -0.0373
  394MOL0     C54302   1.153   8.508   6.515  0.5424  0.7008 -0.0852
  394MOL0     H54303   1.353   8.581   6.984  1.4075 -0.8947  1.8929
  394MOL0     H54304   1.598   8.577   7.093  3.9645  1.7707 -1.5520
  394MOL0     H54305   1.723   8.979   7.199 -1.7764  1.9041 -3.5169
  394MOL0     H54306   1.805   8.975   7.055 -1.4750  1.2603  0.0999
  394MOL0     H54307   1.918   8.815   7.277  0.8717 -1.4721 -0.8086
  394MOL0     H54308   1.998   8.834   7.127  0.2932  1.5523  0.0687
  394MOL0     H54309   2.082   9.035   7.164 -0.6973 -1.8152 -1.0045
  394MOL0     H54310   1.960   9.075   7.291  0.7852  0.8620  0.2594
  394MOL0     H54311   2.076   8.928   7.446  1.3907 -1.8200 -0.0622
  394MOL0     H54312   2.170   8.866   7.311  2.6821  2.9891 -3.3645
  394MOL0     H54313   2.190   9.165   7.369  1.4124  0.5164  2.1002
  394MOL0     H54314   2.294   9.073   7.266  3.4117  3.4411  1.3212
  394MOL0     H54315   2.426   9.106   7.468  1.6690 -2.7133 -0.2477
  394MOL0     H54316   2.281   9.042   7.562  1.1022 -2.7374  1.6663
  394MOL0     H54317   2.424   8.911   7.343 -1.5201  0.3856  0.0714
  394MOL0     H54318   2.341   8.824   7.471  2.4444 -2.2617 -0.1214
  394MOL0     H54319   2.505   8.874   7.640 -0.5094  0.3220  0.2543
  394MOL0     H54320   2.581   8.790   7.502 -2.5094 -0.5731 -2.0177
  394MOL0     H54321   2.646   9.024   7.299 -2.3808 -1.6986  0.2200
  394MOL0     H54322   2.898   9.284   7.441  2.6570 -1.2215  0.4002
  394MOL0     H54323   2.841   9.219   7.290 -1.2465  0.6678  0.6488
  394MOL0     H54324   3.098   9.224   7.312 -0.2237  1.3945  2.0494
  394MOL0     H54325   3.083   9.114   7.448 -0.3957  0.1069  0.6878
  394MOL0     H54326   2.997   8.940   7.305 -0.3995  0.6331 -0.0674
  394MOL0     H54327   2.982   9.027   7.158  0.9752  0.1990 -1.2571
  394MOL0     H54328   3.191   8.873   7.191 -0.8279  0.0629  1.8930
  394MOL0     H54329   3.229   9.039   7.145  1.7108 -2.1635 -1.1014
  394MOL0     H54330   3.474   9.068   7.480  1.8294 -0.5984  0.0186
  394MOL0     H54331   3.679   9.065   7.574  2.2049  0.0268  1.3227
  394MOL0     H54332   3.768   9.159   7.444  1.2367 -1.9540 -2.0065
  394MOL0     H54333   3.801   8.987   7.485  1.6020  1.7850 -0.7602
  394MOL0     H54334   4.070   9.158   7.389  1.3543 -1.1210  0.2288
  394MOL0     H54335   4.285   9.265   7.309  2.4068 -0.5095 -2.2291
  394MOL0     H54336   4.485   9.096   7.044  1.4488 -1.2509 -2.0379
  394MOL0     H54337   4.407   9.134   6.894  0.5607  1.4574 -0.9102
  394MOL0     H54338   4.664   9.188   6.904 -0.9310 -2.7205  1.6283
  394MOL0     H54339   4.554   9.336   6.872 -1.2059  3.9000  2.1583
  394MOL0     H54340   4.669   9.262   7.142 -1.6358  1.1927  1.0773
  394MOL0     H54341   4.562   9.396   7.095 -0.3085  0.2867 -1.2965
  394MOL0     H54342   4.735   9.498   6.967  1.3500  0.2782 -0.5990
  394MOL0     H54343   4.844   9.358   6.970  1.4214 -0.0577  1.3751
  394MOL0     H54344   4.886   9.363   7.208  0.9106 -0.6162 -0.7549
  394MOL0     H54345   4.914   9.514   7.124 -0.6836 -0.4154 -0.8923
  394MOL0     H54346   4.639   9.474   7.270 -0.2558 -0.2523  0.1787
  394MOL0     H54347   4.699   9.614   7.196 -0.9122  1.5183  2.4618
  394MOL0     H54348   4.719   9.656   7.411  1.5023 -0.4115  4.3392
  394MOL0     H54349   4.892   9.618   7.360 -0.8123  1.5788 -2.0988
  394MOL0     H54350   4.843   9.377   7.435  0.5235 -1.0523 -0.4924
  394MOL0     H54351   4.698   9.439   7.517  0.4178 -1.5566 -1.8332
  394MOL0     H54352   4.178   9.154   6.908 -4.5335 -1.7641  0.0991
  394MOL0     H54353   3.992   9.036   6.988  0.6695 -1.3774  0.5720
  394MOL0     H54354   3.612   8.862   7.057  0.2561 -1.1851  0.7885
  394MOL0     H54355   3.390   8.898   7.094  0.6996 -0.8186 -0.2741
  394MOL0     H54356   1.597   8.996   7.048 -1.6330  0.6209  1.6099
  394MOL0     H54357   1.371   8.998   6.932 -1.9655 -0.0333 -0.6436
  394MOL0     H54358   1.030   8.888   6.778  0.1600 -0.1086  0.0209
  394MOL0     H54359   0.811   8.892   6.682  1.8046  0.3172  1.3474
  394MOL0     H54360   0.517   8.794   6.476 -0.5705  1.2933 -2.6788
  394MOL0     H54361   0.619   8.851   6.611 -3.8187  2.2511 -0.1853
  394MOL0     H54362   0.684   8.923   6.332  1.4434  2.3615 -0.3969
  394MOL0     H54363   0.738   8.997   6.490 -0.7249 -1.2986  1.5141
  394MOL0     H54364   0.485   9.052   6.510 -1.6242 -3.4297 -1.4044
  394MOL0     H54365   0.582   9.167   6.411  0.7675  0.4080  0.3037
  394MOL0     H54366   0.386   8.969   6.317 -1.0892  1.1633 -0.0680
  394MOL0     H54367   0.518   8.980   6.203  0.1039  1.7630 -0.4086
  394MOL0     H54368   0.293   9.321   6.124  0.8276 -1.7562 -1.5408
  394MOL0     H54369   0.900   8.565   6.429 -0.1507  1.6742 -2.2237
  394MOL0     H54370   1.157   8.424   6.584 -1.4253 -2.0057 -2.9825
  394MOL0     H54371   1.130   8.463   6.418  2.1543 -0.3625 -0.0103
  394MOL0     H54372   1.245   8.564   6.497 -1.4526  4.6308  0.8739
  395MOL0     O54373  10.770   9.489   9.102 -0.2918 -0.4526  0.5684
  395MOL0     C54374  10.777   9.369   9.134 -0.3225 -0.7570 -0.4035
  395MOL0     O54375  10.713   9.263   9.058 -0.2591  0.1123  0.0520
  395MOL0     C54376  10.624   9.301   8.958  0.1049 -0.5185  0.3154
  395MOL0     C54377  10.630   9.406   8.865 -0.4161 -0.8248  0.0726
  395MOL0     C54378  10.532   9.442   8.777  0.5010  0.4822  0.0513
  395MOL0     C54379  10.420   9.353   8.764  0.3592 -1.0613  0.3763
  395MOL0     O54380  10.316   9.362   8.675 -0.5609  0.2646 -0.1823
  395MOL0     C54381  10.281   9.487   8.609  0.6270  0.0524 -0.4482
  395MOL0     C54382  10.198   9.454   8.484  0.7349 -0.3838  0.4360
  395MOL0     C54383  10.162   9.580   8.413  0.6716 -0.8463  1.0968
  395MOL0     C54384  10.036   9.667   8.484 -0.0105  0.5517  0.7244
  395MOL0     C54385  10.001   9.787   8.395  0.4055  0.1948 -0.0480
  395MOL0     C54386   9.877   9.859   8.449 -0.2576  1.6004  0.2230
  395MOL0     C54387   9.920   9.943   8.579 -0.3381  0.4113  0.2917
  395MOL0     C54388   9.808  10.039   8.633 -1.0585  0.3835  0.9603
  395MOL0     N54389   9.684   9.969   8.660  0.8865 -0.0772 -1.4664
  395MOL0     C54390   9.663   9.882   8.772 -0.2008 -0.2567  0.4516
  395MOL0     C54391   9.550   9.807   8.748 -0.1475  0.5459  0.7081
  395MOL0     C54392   9.515   9.682   8.824  0.1944 -0.1409 -0.4845
  395MOL0     C54393   9.432   9.731   8.947 -0.0346 -0.4536 -0.5497
  395MOL0     C54394   9.392   9.619   9.038  0.3196 -0.3389  0.1945
  395MOL0     C54395   9.370   9.671   9.178 -0.2462  0.1614 -0.2939
  395MOL0     O54396   9.312   9.806   9.182  0.0857 -0.5197 -0.6841
  395MOL0     C54397   9.296   9.871   9.305 -0.6109 -0.0269 -0.2586
  395MOL0     C54398   9.230   9.995   9.311 -0.3442 -0.3373  1.4366
  395MOL0     C54399   9.196  10.059   9.430  0.4980  1.0461  0.4818
  395MOL0     C54400   9.136  10.195   9.433  1.0867  0.6837 -0.3794
  395MOL0     C54401   9.238   9.999   9.554  0.5695 -0.5422 -0.9299
  395MOL0     C54402   9.209  10.054   9.684 -0.3717  0.2984  0.0384
  395MOL0     O54403   9.076  10.084   9.709  1.0415 -0.0154  0.0283
  395MOL0     C54404   9.047  10.146   9.829 -0.3330 -0.0421 -0.4838
  395MOL0     C54405   8.969  10.073   9.923 -0.4825 -0.8071  0.7622
  395MOL0     C54406   8.933  10.126  10.049 -0.4734  0.1686  0.5393
  395MOL0     C54407   8.992  10.249  10.081  0.4346  0.2702 -1.2814
  395MOL0     O54408   8.992  10.289  10.216 -0.4027  0.1224 -0.3252
  395MOL0     C54409   9.106  10.266  10.299  0.2194  0.6339  0.6140
  395MOL0     C54410   9.070  10.298  10.440  1.0402  0.2031 -0.6082
  395MOL0     C54411   9.035  10.442  10.470 -0.4957 -0.1845  0.9233
  395MOL0     C54412   8.992  10.475  10.609 -0.0989  0.0532  0.1965
  395MOL0     C54413   8.964  10.624  10.627 -0.2663  0.2114 -0.2545
  395MOL0     C54414   9.058  10.700  10.727  1.2233  0.8202  1.1640
  395MOL0     C54415   9.010  10.672  10.878  0.1585  0.2845  0.6308
  395MOL0     C54416   8.894  10.763  10.917  0.2928  0.1189  0.7605
  395MOL0    Cl54417   8.727  10.697  10.892 -0.3761 -0.5020  0.1302
  395MOL0     C54418   9.067  10.325   9.987 -0.0981  0.2380 -0.9866
  395MOL0     C54419   9.098  10.274   9.860 -0.1329 -0.1489  0.2384
  395MOL0     O54420   9.306  10.062   9.765 -0.5855  0.7414 -0.4457
  395MOL0     C54421   9.319   9.886   9.547  1.1122  0.0474 -0.0940
  395MOL0     C54422   9.333   9.813   9.422 -0.0691 -0.0011 -0.8448
  395MOL0     N54423   9.500   9.849   8.630 -0.4964  0.0803 -0.2092
  395MOL0     N54424   9.583   9.935   8.572 -0.5038  0.0442 -0.4153
  395MOL0     C54425  10.403   9.248   8.847 -1.1184 -0.0412  0.2696
  395MOL0     C54426  10.507   9.218   8.947  0.2307 -0.5222  0.6186
  395MOL0     C54427  10.862   9.328   9.253 -0.3338  0.1092 -0.3900
  395MOL0     C54428  10.867   9.191   9.306 -0.0426 -0.3209 -0.0416
  395MOL0     C54429  10.933   9.159   9.429  0.9599 -0.3640  1.3062
  395MOL0     C54430  11.002   9.259   9.498  0.1395  0.1956 -0.0190
  395MOL0     O54431  11.055   9.239   9.629  0.3320  0.8522 -0.1408
  395MOL0     C54432  11.196   9.270   9.637  0.5000  0.9172  0.1425
  395MOL0     C54433  11.275   9.146   9.572  0.8462  0.5323 -0.4073
  395MOL0     C54434  11.417   9.163   9.614 -0.6079  0.1246  0.5779
  395MOL0     C54435  11.509   9.055   9.537  0.7240 -0.8788 -0.1128
  395MOL0     C54436  11.478   8.917   9.589 -0.1219  0.1230 -0.3342
  395MOL0     C54437  11.451   8.810   9.644 -0.1315 -0.8141  0.2448
  395MOL0     C54438  11.007   9.381   9.431 -0.6802  0.4496 -0.4282
  395MOL0     C54439  10.935   9.425   9.322  0.0942 -0.5173  0.4693
  395MOL0     C54440  10.943   9.574   9.293 -0.9233 -0.5025  0.2736
  395MOL0     H54441  10.715   9.474   8.875 -0.7170 -0.5297  0.6656
  395MOL0     H54442  10.544   9.525   8.709 -1.3122  0.2632 -0.5741
  395MOL0     H54443  10.372   9.541   8.578  0.0299  0.2333 -1.9583
  395MOL0     H54444  10.229   9.540   8.689  2.3036  2.9352 -1.0977
  395MOL0     H54445  10.258   9.385   8.425 -1.2058 -0.6159 -1.3952
  395MOL0     H54446  10.109   9.394   8.506  0.6525 -0.2106  0.5894
  395MOL0     H54447  10.252   9.642   8.407  1.7121 -2.4255 -1.3239
  395MOL0     H54448  10.136   9.543   8.313 -0.9948 -2.0082  1.8957
  395MOL0     H54449   9.950   9.599   8.491  0.0340  0.1013 -1.9546
  395MOL0     H54450  10.053   9.705   8.585 -1.6150  1.0599  0.8341
  395MOL0     H54451   9.966   9.744   8.301 -0.4304 -1.7718  1.1133
  395MOL0     H54452  10.092   9.847   8.381 -0.3915  1.6803  0.8449
  395MOL0     H54453   9.846   9.932   8.374 -1.4754  1.6552  0.7706
  395MOL0     H54454   9.797   9.790   8.476 -0.7186  1.9855 -0.1574
  395MOL0     H54455  10.017   9.992   8.561 -0.9280  1.2241 -0.7547
  395MOL0     H54456   9.940   9.875   8.662 -1.2387  3.3047  3.0587
  395MOL0     H54457   9.844  10.089   8.723 -0.2717  0.9417  0.3485
  395MOL0     H54458   9.793  10.114   8.555  1.9617 -2.1471 -2.4525
  395MOL0     H54459   9.732   9.858   8.852 -0.0109  2.0309  1.0482
  395MOL0     H54460   9.606   9.627   8.849 -0.5805 -0.1453  2.7448
  395MOL0     H54461   9.454   9.628   8.751 -1.9541  5.0843 -3.1255
  395MOL0     H54462   9.491   9.803   9.005 -0.5179  0.1381 -0.7747
  395MOL0     H54463   9.347   9.786   8.904  0.5118 -0.6643 -1.9216
  395MOL0     H54464   9.302   9.574   8.995 -0.4512  0.5797  0.8180
  395MOL0     H54465   9.479   9.553   9.045  2.0274  1.8358  0.5191
  395MOL0     H54466   9.316   9.595   9.236 -1.0411  0.6930 -0.3186
  395MOL0     H54467   9.463   9.687   9.233 -0.8072 -0.3512  0.8446
  395MOL0     H54468   9.217  10.052   9.220 -0.9162 -1.3774  0.8356
  395MOL0     H54469   9.114  10.233   9.333  0.3226  0.6498 -0.2271
  395MOL0     H54470   9.202  10.266   9.484  3.8421 -1.6409 -0.4527
  395MOL0     H54471   9.038  10.181   9.479  1.2141  1.2177  0.0639
  395MOL0     H54472   8.935   9.973   9.897  0.8221 -1.7335  2.3887
  395MOL0     H54473   8.874  10.062  10.114 -3.2462  3.7344  1.8692
  395MOL0     H54474   9.138  10.162  10.286  0.5596  0.4212  2.7525
  395MOL0     H54475   9.190  10.330  10.271  1.3463 -0.8909  0.4202
  395MOL0     H54476   8.989  10.236  10.479 -2.2579  3.8834 -1.0423
  395MOL0     H54477   9.159  10.268  10.495  0.1283 -1.4791  0.0326
  395MOL0     H54478   8.963  10.486  10.401  1.4315 -1.1135 -1.8362
  395MOL0     H54479   9.131  10.491  10.449 -0.8146  1.7415  3.4425
  395MOL0     H54480   9.075  10.447  10.675 -0.2323 -1.4756 -0.2486
  395MOL0     H54481   8.901  10.417  10.628 -1.5689  2.1987  0.0414
  395MOL0     H54482   8.962  10.680  10.533 -0.5131 -1.7807 -1.5081
  395MOL0     H54483   8.858  10.635  10.651 -0.2985  1.5943 -0.9271
  395MOL0     H54484   9.048  10.807  10.708 -1.0054  0.3956 -0.4199
  395MOL0     H54485   9.161  10.666  10.712 -0.1843 -3.7647  0.0932
  395MOL0     H54486   9.093  10.702  10.942  0.8141  0.8060 -0.4358
  395MOL0     H54487   8.988  10.566  10.895  3.9289 -0.6709  0.3120
  395MOL0     H54488   8.910  10.858  10.865  0.7411 -0.6064 -0.4349
  395MOL0     H54489   8.891  10.792  11.023  0.2460 -0.7875  1.0166
  395MOL0     H54490   9.116  10.417  10.016 -1.2228  0.4314  0.4076
  395MOL0     H54491   9.160  10.327   9.790 -2.0241  3.2007  0.8592
  395MOL0     H54492   9.364   9.842   9.636 -1.3001 -2.1404  0.1762
  395MOL0     H54493   9.371   9.712   9.418 -1.3991 -0.7153  2.0914
  395MOL0     H54494  10.304   9.204   8.831 -0.6635  0.1280 -4.2907
  395MOL0     H54495  10.492   9.142   9.022 -2.6044 -0.8033 -0.0896
  395MOL0     H54496  10.803   9.120   9.256 -0.8470  0.1725  0.2578
  395MOL0     H54497  10.930   9.055   9.459  1.0776 -1.3489 -1.8000
  395MOL0     H54498  11.218   9.363   9.584  0.5001  2.6941  3.0818
  395MOL0     H54499  11.219   9.281   9.743 -0.8567  2.8993  0.2765
  395MOL0     H54500  11.264   9.152   9.463 -3.3036  0.9310 -0.1000
  395MOL0     H54501  11.234   9.051   9.607  2.1555 -0.4341 -1.3980
  395MOL0     H54502  11.458   9.263   9.598  1.7928 -0.4646  2.4347
  395MOL0     H54503  11.431   9.145   9.721  1.8824 -1.9464  0.0172
  395MOL0     H54504  11.612   9.083   9.563  0.6779 -2.5044  2.0556
  395MOL0     H54505  11.504   9.061   9.428 -0.0682 -0.3727 -0.0551
  395MOL0     H54506  11.446   8.719   9.700  1.5606 -0.1344  1.5984
  395MOL0     H54507  11.063   9.452   9.492 -0.0410 -0.7340  0.4246
  395MOL0     H54508  10.984   9.598   9.195  0.1426  1.1734  1.0632
  395MOL0     H54509  10.842   9.616   9.295  0.5692  3.4650  0.7776
  395MOL0     H54510  10.998   9.641   9.360 -4.3375  3.2716 -0.3088
  396MOL0     O54511  10.222   0.125   1.722  0.2051 -0.2559  0.5309
  396MOL0     C54512  10.149   0.174   1.810 -0.4150 -0.4496  0.7663
  396MOL0     O54513  10.188   0.202   1.937 -0.1677 -0.6202  0.3356
  396MOL0     C54514  10.300   0.150   1.997  0.3815  0.4222 -0.2273
  396MOL0     C54515  10.264   0.125   2.127  0.6626 -0.7006 -0.3308
  396MOL0     C54516  10.347   0.072   2.221 -0.5135 -0.5085 -1.2534
  396MOL0     C54517  10.477   0.031   2.180 -0.3456  0.0490 -0.9558
  396MOL0     O54518  10.562  -0.038   2.269 -0.1358 -0.5306  0.4556
  396MOL0     C54519  10.591   0.030   2.393 -1.4090  0.0813  0.3257
  396MOL0     C54520  10.661  -0.080   2.473  0.2717 -0.7630 -0.3287
  396MOL0     C54521  10.686  -0.018   2.607 -0.7337 -0.2308 -0.9043
  396MOL0     C54522  10.688  -0.114   2.728 -0.5294  0.7393 -0.2586
  396MOL0     C54523  10.751  -0.050   2.856  0.2941  1.2342  0.5123
  396MOL0     C54524  10.661   0.059   2.932  0.6638 -0.0477 -0.4689
  396MOL0     C54525  10.527   0.007   2.984 -0.6148 -0.1740  0.1786
  396MOL0     C54526  10.552  -0.102   3.089  0.4053  0.2944  0.1233
  396MOL0     N54527  10.436  -0.155   3.158 -0.3191  1.4760  0.1616
  396MOL0     C54528  10.337  -0.242   3.100  0.6541  0.0810  0.8487
  396MOL0     C54529  10.252  -0.253   3.201 -0.6407 -0.1513 -0.1937
  396MOL0     C54530  10.125  -0.323   3.197  0.4237 -0.7170 -0.0501
  396MOL0     C54531  10.139  -0.457   3.118  1.2000  0.0004 -1.2014
  396MOL0     C54532  10.000  -0.527   3.130  0.5557 -1.2347 -0.3308
  396MOL0     C54533   9.992  -0.625   3.244  0.5505  0.2518 -1.1023
  396MOL0     O54534  10.099  -0.717   3.215  0.4542  0.0441 -0.0904
  396MOL0     C54535  10.052  -0.850   3.204 -0.2106 -0.1352  0.6616
  396MOL0     C54536   9.959  -0.924   3.277  0.2671  0.1022 -0.1151
  396MOL0     C54537   9.910  -1.048   3.247 -0.4278  0.3871  0.9965
  396MOL0     C54538   9.794  -1.095   3.339  0.1033  0.6617 -0.6726
  396MOL0     C54539   9.958  -1.117   3.137 -0.4215 -0.0222 -0.2873
  396MOL0     C54540   9.904  -1.245   3.087  0.5207  0.1122 -0.0875
  396MOL0     O54541   9.922  -1.272   2.955 -1.0229 -0.4050  0.0587
  396MOL0     C54542   9.902  -1.404   2.925  0.7061 -0.4679 -0.6547
  396MOL0     C54543   9.997  -1.502   2.948  0.3152 -0.3178 -0.3747
  396MOL0     C54544   9.974  -1.633   2.899  0.1376 -0.0171  0.6444
  396MOL0     C54545   9.858  -1.670   2.827 -0.5845  0.7384  0.4490
  396MOL0     O54546   9.851  -1.795   2.788 -0.3209 -0.2189  0.3316
  396MOL0     C54547   9.725  -1.866   2.809 -0.3556 -0.0586  0.0888
  396MOL0     C54548   9.742  -2.018   2.816  0.5086  0.6195  0.2881
  396MOL0     C54549   9.751  -2.087   2.679  0.5636  0.7535 -0.0709
  396MOL0     C54550   9.767  -2.241   2.702  0.4429 -1.2572 -0.4300
  396MOL0     C54551   9.817  -2.315   2.573 -0.0481 -0.3779  0.3299
  396MOL0     C54552   9.807  -2.467   2.593  0.0595 -0.1229  0.0714
  396MOL0     C54553   9.871  -2.549   2.479 -0.3505 -0.4702 -0.7914
  396MOL0     C54554   9.796  -2.528   2.349 -0.0413 -0.2289 -0.1526
  396MOL0    Cl54555   9.854  -2.632   2.201  0.3542 -0.1508 -0.0519
  396MOL0     C54556   9.761  -1.565   2.806  0.3058  1.1377 -0.3748
  396MOL0     C54557   9.781  -1.435   2.868  0.2004 -0.1970  0.0126
  396MOL0     O54558   9.850  -1.325   3.163  0.6765  0.1315 -0.9200
  396MOL0     C54559  10.053  -1.051   3.050  0.5780 -0.0299 -0.2254
  396MOL0     C54560  10.097  -0.916   3.085  0.8629  1.6321  0.9282
  396MOL0     N54561  10.307  -0.195   3.311 -0.6814 -0.1397 -0.0910
  396MOL0     N54562  10.414  -0.133   3.286 -0.1178  0.9796 -0.2861
  396MOL0     C54563  10.510   0.056   2.047 -0.7760 -0.7859 -0.3310
  396MOL0     C54564  10.423   0.113   1.956 -0.3527 -0.3286  0.6663
  396MOL0     C54565  10.013   0.223   1.758 -0.3009  0.1841 -0.0603
  396MOL0     C54566   9.919   0.250   1.856  0.4948  1.0323 -0.2946
  396MOL0     C54567   9.786   0.277   1.823  0.2959  0.0233  1.4127
  396MOL0     C54568   9.751   0.292   1.691 -0.1385  0.3018  0.2397
  396MOL0     O54569   9.621   0.321   1.665 -0.3424  0.6510 -0.0946
  396MOL0     C54570   9.553   0.220   1.580 -0.4963 -1.2957  0.2488
  396MOL0     C54571   9.431   0.164   1.650 -0.6460  0.1180 -0.3954
  396MOL0     C54572   9.332   0.098   1.549  0.7121  0.9389  0.0757
  396MOL0     C54573   9.198   0.047   1.628  1.0226  0.2874 -0.6354
  396MOL0     C54574   9.126  -0.038   1.527 -1.0053  0.6439  0.4793
  396MOL0     C54575   9.082  -0.115   1.448  0.0980  0.2888  0.4990
  396MOL0     C54576   9.849   0.273   1.581 -0.0408 -0.6337  0.0352
  396MOL0     C54577   9.981   0.237   1.620 -0.3157 -0.4866  0.0631
  396MOL0     C54578  10.067   0.212   1.499 -0.0366  0.5608 -0.5000
  396MOL0     H54579  10.163   0.154   2.154  0.8090  2.2949 -2.5843
  396MOL0     H54580  10.309   0.056   2.321  0.7941 -1.2827 -0.8604
  396MOL0     H54581  10.496   0.061   2.438 -0.8269  1.4270  0.6712
  396MOL0     H54582  10.648   0.117   2.361  0.2688  0.0349  2.8351
  396MOL0     H54583  10.595  -0.165   2.491 -1.1094  0.6054  1.4394
  396MOL0     H54584  10.756  -0.114   2.430  0.9596 -1.2798  1.5025
  396MOL0     H54585  10.770   0.051   2.593 -0.6856 -0.3303 -1.1081
  396MOL0     H54586  10.598   0.042   2.633 -1.3894  0.0049 -3.4016
  396MOL0     H54587  10.590  -0.148   2.761  0.7151  0.7725  4.1117
  396MOL0     H54588  10.754  -0.198   2.705 -2.0229 -1.4015  2.7555
  396MOL0     H54589  10.838   0.010   2.827 -0.7785  1.8889 -1.5200
  396MOL0     H54590  10.786  -0.135   2.917  2.1901 -0.4326 -2.6618
  396MOL0     H54591  10.714   0.087   3.023 -2.2296 -1.6426  1.8890
  396MOL0     H54592  10.647   0.146   2.866  2.4361  2.6312  2.4176
  396MOL0     H54593  10.477  -0.023   2.891  1.4479  2.0604 -1.8130
  396MOL0     H54594  10.483   0.098   3.025  1.9266 -0.0590  2.9677
  396MOL0     H54595  10.589  -0.194   3.044 -1.0749 -0.0865 -0.3797
  396MOL0     H54596  10.621  -0.069   3.166  0.0121 -1.3782  1.2315
  396MOL0     H54597  10.340  -0.295   3.005 -1.6623 -1.7561  1.7048
  396MOL0     H54598  10.052  -0.254   3.154  0.5879 -1.1901 -1.1174
  396MOL0     H54599  10.105  -0.350   3.301  2.7088 -0.4342  0.5176
  396MOL0     H54600  10.169  -0.442   3.014 -0.9797 -0.3336 -1.9345
  396MOL0     H54601  10.212  -0.517   3.172  1.1204  1.9495  1.2689
  396MOL0     H54602   9.916  -0.460   3.147  0.4269 -1.8843  2.0065
  396MOL0     H54603   9.977  -0.591   3.045 -1.6843 -0.6252 -0.2350
  396MOL0     H54604  10.011  -0.576   3.339  2.0740 -0.0496 -1.2324
  396MOL0     H54605   9.894  -0.670   3.258  1.0213 -1.8122 -3.5904
  396MOL0     H54606   9.930  -0.875   3.369  1.1639 -0.3050  0.3908
  396MOL0     H54607   9.731  -1.011   3.370  0.8110  1.0081 -0.1405
  396MOL0     H54608   9.843  -1.138   3.427 -0.4103  1.0056 -0.2102
  396MOL0     H54609   9.727  -1.173   3.303 -0.2364 -0.4382  2.0859
  396MOL0     H54610  10.083  -1.472   3.007 -0.2014 -1.1221  0.8247
  396MOL0     H54611  10.048  -1.712   2.902  0.1743  0.0382  1.2491
  396MOL0     H54612   9.685  -1.843   2.908  1.1573 -2.6718  1.4135
  396MOL0     H54613   9.656  -1.842   2.728  1.0796 -1.2088 -1.5610
  396MOL0     H54614   9.829  -2.039   2.879  2.6901  0.7075 -2.4502
  396MOL0     H54615   9.661  -2.065   2.872 -0.0136  0.8954 -0.2264
  396MOL0     H54616   9.837  -2.062   2.616 -0.3363 -0.1254 -1.7366
  396MOL0     H54617   9.660  -2.070   2.621  1.4814 -1.3938 -2.3395
  396MOL0     H54618   9.671  -2.281   2.735  1.5103 -1.5078  2.7019
  396MOL0     H54619   9.837  -2.267   2.782  0.2890 -1.8351 -0.4814
  396MOL0     H54620   9.753  -2.286   2.489  0.4145 -1.4780 -0.4344
  396MOL0     H54621   9.916  -2.286   2.536  0.5839  0.1208  2.2909
  396MOL0     H54622   9.705  -2.506   2.596 -0.3759  0.8758 -0.7838
  396MOL0     H54623   9.866  -2.503   2.678  1.2594 -2.3069 -1.5795
  396MOL0     H54624   9.869  -2.656   2.505  1.0693 -0.5970 -1.1126
  396MOL0     H54625   9.973  -2.512   2.466 -1.2563  2.3749 -0.3981
  396MOL0     H54626   9.811  -2.423   2.321  2.4901 -0.5277 -0.1435
  396MOL0     H54627   9.687  -2.538   2.357 -0.2125  1.9142  0.8292
  396MOL0     H54628   9.674  -1.598   2.750  1.2291 -0.9452 -0.6571
  396MOL0     H54629   9.700  -1.364   2.857 -2.3988 -2.6056  2.1976
  396MOL0     H54630  10.087  -1.096   2.957 -0.6231  0.4044 -0.8924
  396MOL0     H54631  10.171  -0.867   3.023  1.7410 -1.4672 -0.6833
  396MOL0     H54632  10.608   0.020   2.016  1.4370  2.6692  1.9415
  396MOL0     H54633  10.437   0.137   1.851 -0.4059  1.2399  0.9970
  396MOL0     H54634   9.920   0.222   1.961 -3.2858  0.8615 -0.1649
  396MOL0     H54635   9.707   0.287   1.897 -0.5718  1.3603  0.3671
  396MOL0     H54636   9.531   0.269   1.484  2.6083  1.5556  0.7734
  396MOL0     H54637   9.613   0.133   1.552 -1.7356 -1.6850 -1.3008
  396MOL0     H54638   9.388   0.249   1.705 -0.2631  0.0472  0.0154
  396MOL0     H54639   9.453   0.098   1.735 -1.7202  0.6796  0.3463
  396MOL0     H54640   9.301   0.173   1.476 -0.1626  0.0007 -0.5405
  396MOL0     H54641   9.369   0.009   1.498 -0.3908  0.0312  0.8294
  396MOL0     H54642   9.146   0.134   1.669  2.1565 -0.5755  2.9912
  396MOL0     H54643   9.210  -0.009   1.721  0.4218  1.1440 -0.0179
  396MOL0     H54644   9.039  -0.184   1.377 -1.2639  0.9746  0.6214
  396MOL0     H54645   9.825   0.276   1.475  2.0704 -3.2277 -0.6314
  396MOL0     H54646  10.162   0.266   1.507  0.1619  0.0390  0.8565
  396MOL0     H54647  10.089   0.105   1.502 -3.3677 -0.2320  1.6338
  396MOL0     H54648  10.022   0.244   1.404 -2.4442  0.8060  0.6261
  397MOL0     O54649   5.493   6.492   9.759  0.6085 -0.6124  0.8962
  397MOL0     C54650   5.547   6.553   9.852  0.3308 -0.4786  0.1324
  397MOL0     O54651   5.517   6.684   9.893 -0.5302 -0.0643 -0.4297
  397MOL0     C54652   5.396   6.727   9.858 -0.2744  0.1098  0.2716
  397MOL0     C54653   5.387   6.843   9.783 -0.5015 -0.5042 -0.0482
  397MOL0     C54654   5.261   6.903   9.754 -0.5152 -0.0179 -0.8295
  397MOL0     C54655   5.145   6.839   9.800 -0.2632 -0.1890  0.7057
  397MOL0     O54656   5.025   6.884   9.748  0.0092  0.5929 -0.3968
  397MOL0     C54657   4.900   6.845   9.809 -0.2606  0.4904  0.6148
  397MOL0     C54658   4.791   6.950   9.795  0.1800 -0.0747  0.1096
  397MOL0     C54659   4.677   6.908   9.876 -0.3117  0.6348  0.1785
  397MOL0     C54660   4.584   6.822   9.789  0.3255  0.8064 -1.1009
  397MOL0     C54661   4.463   6.768   9.874 -0.4201  0.0513  0.8702
  397MOL0     C54662   4.362   6.700   9.766  0.7083  0.0741  0.3739
  397MOL0     C54663   4.413   6.575   9.697  0.1524  0.1848 -0.0830
  397MOL0     C54664   4.327   6.518   9.575  0.1106 -0.4471 -0.8002
  397MOL0     N54665   4.200   6.459   9.618  1.2560  0.2223  0.0763
  397MOL0     C54666   4.081   6.458   9.549  1.3568  0.8791  0.0940
  397MOL0     C54667   3.983   6.409   9.630 -0.1980 -0.4730  0.6208
  397MOL0     C54668   3.834   6.410   9.598 -0.0921  0.4420  0.3803
  397MOL0     C54669   3.765   6.429   9.725 -0.1274  0.2846  0.6644
  397MOL0     C54670   3.621   6.466   9.712 -0.4025 -0.3711  0.6398
  397MOL0     C54671   3.556   6.486   9.853  0.1201  0.1228 -0.1102
  397MOL0     O54672   3.586   6.598   9.932  0.3713 -0.4371 -0.6693
  397MOL0     C54673   3.571   6.722   9.876  0.4728  1.0574 -0.9457
  397MOL0     C54674   3.656   6.817   9.905 -0.0599  0.0122 -0.3422
  397MOL0     C54675   3.650   6.949   9.854 -0.1877 -0.7130 -0.7167
  397MOL0     C54676   3.741   7.055   9.917  0.7431  0.5461  0.1554
  397MOL0     C54677   3.561   6.969   9.751  0.4182  0.1992 -0.6487
  397MOL0     C54678   3.533   7.100   9.690  0.2435  0.1728 -0.5461
  397MOL0     O54679   3.634   7.165   9.627  0.0132 -0.3011 -0.3089
  397MOL0     C54680   3.605   7.238   9.514 -0.3757 -0.6536  0.2424
  397MOL0     C54681   3.680   7.204   9.400 -1.2348 -0.6881  0.4627
  397MOL0     C54682   3.676   7.268   9.281 -0.4670  0.7166  0.3670
  397MOL0     C54683   3.583   7.365   9.261  1.0844  0.4628 -0.7310
  397MOL0     O54684   3.587   7.420   9.135 -0.5737 -0.4450  0.3630
  397MOL0     C54685   3.600   7.562   9.138  0.3178 -1.7500  1.0094
  397MOL0     C54686   3.641   7.615   8.999  0.8879 -0.8273  0.5628
  397MOL0     C54687   3.624   7.773   9.000 -0.0476 -0.3102  0.6352
  397MOL0     C54688   3.716   7.845   9.103  0.1970  0.7457  1.0475
  397MOL0     C54689   3.637   7.963   9.174  0.1704 -1.3781  0.1711
  397MOL0     C54690   3.658   8.097   9.082 -0.1502 -0.7131  0.5292
  397MOL0     C54691   3.791   8.168   9.106 -0.4780 -0.0545  0.4026
  397MOL0     C54692   3.810   8.231   9.240  0.8648  0.4744 -0.3764
  397MOL0    Cl54693   3.970   8.219   9.281  0.1048  0.1473  0.1626
  397MOL0     C54694   3.497   7.404   9.371 -0.6424 -0.2122  0.1924
  397MOL0     C54695   3.507   7.340   9.500  0.8171  1.5195 -0.5050
  397MOL0     O54696   3.418   7.138   9.690  0.5296 -0.0240 -0.6770
  397MOL0     C54697   3.461   6.873   9.721 -0.2917 -0.5098  0.2744
  397MOL0     C54698   3.464   6.750   9.792  0.1719  0.2158 -0.4302
  397MOL0     N54699   4.049   6.370   9.748 -0.7286  0.5157  0.4951
  397MOL0     N54700   4.173   6.407   9.741  0.4215 -0.2337  0.6115
  397MOL0     C54701   5.149   6.717   9.869 -0.3821  0.7427 -0.0931
  397MOL0     C54702   5.274   6.666   9.896 -0.1007  1.4142  1.2633
  397MOL0     C54703   5.666   6.496   9.920  0.5390 -0.4322 -0.0548
  397MOL0     C54704   5.741   6.572  10.017  0.4607  0.4490  1.4074
  397MOL0     C54705   5.872   6.532  10.072  0.5187  0.9194  0.8319
  397MOL0     C54706   5.927   6.419  10.007  0.9165 -0.8153  0.7056
  397MOL0     O54707   6.057   6.378  10.015  0.2759 -0.3863  0.4720
  397MOL0     C54708   6.151   6.473  10.064 -0.4133 -1.3467 -0.1427
  397MOL0     C54709   6.297   6.426  10.040  0.1136 -0.5646 -0.1051
  397MOL0     C54710   6.407   6.518  10.099  0.0454  0.6545 -0.3527
  397MOL0     C54711   6.535   6.431  10.116 -0.5613 -0.1212  0.0248
  397MOL0     C54712   6.615   6.502  10.203 -0.7403  0.3430 -0.3969
  397MOL0     C54713   6.711   6.557  10.256  1.0871 -0.2450  0.4347
  397MOL0     C54714   5.849   6.353   9.918  0.2841 -0.5436 -0.0926
  397MOL0     C54715   5.722   6.378   9.877 -0.6599 -0.7644 -0.5341
  397MOL0     C54716   5.687   6.292   9.760 -0.1323  0.0624  0.6091
  397MOL0     H54717   5.474   6.895   9.744 -1.5877 -0.8150 -3.2394
  397MOL0     H54718   5.249   6.999   9.704 -1.2739 -0.7209 -2.0560
  397MOL0     H54719   4.916   6.816   9.913 -0.9001  0.5775  0.7409
  397MOL0     H54720   4.869   6.753   9.758 -1.3546  0.2431  1.6731
  397MOL0     H54721   4.848   7.042   9.811  0.1556  0.3705 -2.0448
  397MOL0     H54722   4.761   6.952   9.690  0.4178 -2.1142 -0.0316
  397MOL0     H54723   4.712   6.875   9.974 -0.2157  2.4671  0.7979
  397MOL0     H54724   4.634   7.004   9.904  0.1576  0.5403  1.2790
  397MOL0     H54725   4.558   6.873   9.696 -0.8493  4.4102  0.9847
  397MOL0     H54726   4.644   6.734   9.763 -1.9052 -1.2788  0.2918
  397MOL0     H54727   4.418   6.857   9.920  2.2167  2.6578 -1.1170
  397MOL0     H54728   4.496   6.689   9.942 -1.1923 -0.7289  0.3579
  397MOL0     H54729   4.264   6.685   9.813  1.1714  1.0815  1.7079
  397MOL0     H54730   4.348   6.776   9.689  0.5042 -1.6554 -1.3894
  397MOL0     H54731   4.422   6.503   9.779  0.8886 -1.2425 -1.3598
  397MOL0     H54732   4.510   6.605   9.656  0.2535 -1.6635 -1.2958
  397MOL0     H54733   4.305   6.615   9.530  1.7801  1.4443  2.1200
  397MOL0     H54734   4.389   6.451   9.515  0.6191 -0.0187 -0.7569
  397MOL0     H54735   4.061   6.483   9.445 -1.3716 -0.7518  0.1248
  397MOL0     H54736   3.817   6.314   9.549 -0.5133  0.0136  1.3296
  397MOL0     H54737   3.816   6.491   9.526  0.6143  0.1483 -0.1366
  397MOL0     H54738   3.772   6.338   9.787 -1.2297 -0.4198 -0.2110
  397MOL0     H54739   3.820   6.507   9.779  1.4876 -1.5266  1.7660
  397MOL0     H54740   3.599   6.549   9.645 -4.0174 -1.7094 -0.0771
  397MOL0     H54741   3.572   6.379   9.667  0.0514 -0.1314 -0.3341
  397MOL0     H54742   3.448   6.471   9.843  0.5271 -1.7530 -2.5223
  397MOL0     H54743   3.578   6.403   9.921 -1.1181 -1.6961 -1.8449
  397MOL0     H54744   3.738   6.799   9.975 -0.5795  0.2648  0.3416
  397MOL0     H54745   3.738   7.062  10.027  0.4371 -1.2514  0.3028
  397MOL0     H54746   3.707   7.153   9.882  1.3443  0.7029  0.0068
  397MOL0     H54747   3.847   7.034   9.900  0.1792 -1.8588 -0.7590
  397MOL0     H54748   3.758   7.131   9.417 -1.0600 -0.7238 -0.4564
  397MOL0     H54749   3.736   7.239   9.196 -1.1783  0.0585  0.0781
  397MOL0     H54750   3.504   7.614   9.150  1.2458  0.4993 -0.5844
  397MOL0     H54751   3.657   7.608   9.219  1.9800  1.3365 -1.7002
  397MOL0     H54752   3.747   7.589   8.987  1.1933 -0.3135  1.9917
  397MOL0     H54753   3.595   7.560   8.916 -3.8058 -1.4428  3.2292
  397MOL0     H54754   3.521   7.789   9.032 -0.0532 -0.6797  0.8115
  397MOL0     H54755   3.631   7.807   8.896  1.6276 -0.8868  0.5356
  397MOL0     H54756   3.806   7.881   9.052  0.9699 -2.0120  0.2867
  397MOL0     H54757   3.751   7.771   9.176 -2.1012 -2.6131 -0.9339
  397MOL0     H54758   3.530   7.948   9.185 -0.2279  0.4964 -0.8319
  397MOL0     H54759   3.677   7.989   9.273 -3.0621  1.5309  0.8851
  397MOL0     H54760   3.578   8.168   9.102 -0.3561 -0.6067 -0.5975
  397MOL0     H54761   3.649   8.058   8.979  1.8973  0.0541  0.0111
  397MOL0     H54762   3.816   8.246   9.033  1.8882 -1.1900 -0.0991
  397MOL0     H54763   3.869   8.092   9.099  0.8476  1.0292  2.4178
  397MOL0     H54764   3.753   8.175   9.315  1.0943 -1.6585 -1.7108
  397MOL0     H54765   3.769   8.332   9.239 -0.7709 -0.1576 -1.1172
  397MOL0     H54766   3.427   7.486   9.360 -1.8737 -1.3435 -0.8200
  397MOL0     H54767   3.447   7.374   9.584 -1.5169  0.9557 -1.8517
  397MOL0     H54768   3.381   6.905   9.655 -0.6400 -2.8448 -0.5265
  397MOL0     H54769   3.394   6.669   9.777  0.6569 -0.4323  0.6900
  397MOL0     H54770   5.058   6.677   9.913 -0.8299  3.5063  1.7976
  397MOL0     H54771   5.274   6.571   9.948 -0.0496 -0.5030 -1.9893
  397MOL0     H54772   5.713   6.672  10.048  0.3824  0.6047  0.8385
  397MOL0     H54773   5.933   6.597  10.134 -0.3507  1.0841  1.5236
  397MOL0     H54774   6.126   6.573  10.025 -3.2347 -1.9256 -0.0006
  397MOL0     H54775   6.140   6.478  10.173 -3.5942  0.6456 -0.4376
  397MOL0     H54776   6.314   6.415   9.932 -2.3399 -1.5205 -0.4720
  397MOL0     H54777   6.305   6.328  10.088 -0.5133 -0.3025  0.5517
  397MOL0     H54778   6.421   6.612  10.045 -2.4574  0.7577 -0.9438
  397MOL0     H54779   6.372   6.537  10.201  2.1391 -3.1533  1.2444
  397MOL0     H54780   6.582   6.434  10.017 -3.8962  2.0160 -1.6805
  397MOL0     H54781   6.526   6.328  10.152  4.6777 -0.0039  2.7178
  397MOL0     H54782   6.797   6.606  10.297  1.0737 -0.2425  0.4594
  397MOL0     H54783   5.899   6.278   9.857  1.7089  1.0546 -0.9746
  397MOL0     H54784   5.688   6.359   9.673 -1.8960 -0.4295  0.1630
  397MOL0     H54785   5.753   6.206   9.752  1.5703  1.1676  1.9564
  397MOL0     H54786   5.583   6.260   9.762  0.3908 -1.8323 -0.4240
  398MOL0     O54787   0.176   1.075   9.595  0.0515 -0.0702 -0.9451
  398MOL0     C54788   0.272   1.008   9.636  0.4430 -0.4147 -0.5610
  398MOL0     O54789   0.394   1.054   9.683  0.2188 -0.4523 -0.6157
  398MOL0     C54790   0.403   1.189   9.686  0.5576 -0.1441  0.1568
  398MOL0     C54791   0.339   1.264   9.785  0.4522 -0.6908  0.0384
  398MOL0     C54792   0.367   1.398   9.790  0.5475 -0.6040 -0.2399
  398MOL0     C54793   0.459   1.463   9.692  0.6974 -0.3216  0.7290
  398MOL0     O54794   0.479   1.604   9.698 -0.1624  0.6150  0.3821
  398MOL0     C54795   0.417   1.685   9.796  0.2932 -0.1122 -0.1332
  398MOL0     C54796   0.476   1.828   9.779 -0.4073  1.1976  0.1318
  398MOL0     C54797   0.389   1.916   9.690 -0.1451 -0.4971  0.3071
  398MOL0     C54798   0.423   2.065   9.700  0.1430 -1.5569  0.3141
  398MOL0     C54799   0.333   2.147   9.606  0.3609 -1.0505  1.1072
  398MOL0     C54800   0.377   2.294   9.596 -0.0422 -0.6845  0.0074
  398MOL0     C54801   0.262   2.391   9.554  0.2857  0.2419  0.2985
  398MOL0     C54802   0.271   2.537   9.591 -1.1951 -0.9391  0.1589
  398MOL0     N54803   0.404   2.597   9.578  0.3970 -0.1942 -0.2665
  398MOL0     C54804   0.486   2.568   9.468 -1.5228  0.1463 -0.3936
  398MOL0     C54805   0.600   2.639   9.498 -0.3891 -0.7374 -0.3706
  398MOL0     C54806   0.727   2.625   9.414  1.3992 -0.2160  0.5917
  398MOL0     C54807   0.849   2.713   9.463  1.0543 -0.1699 -0.7992
  398MOL0     C54808   0.960   2.717   9.359 -0.3340 -0.4324 -0.3013
  398MOL0     C54809   1.100   2.761   9.415 -0.2385  0.2931 -0.1799
  398MOL0     O54810   1.202   2.714   9.329 -0.2766 -0.3801  0.6037
  398MOL0     C54811   1.231   2.581   9.307 -0.5616 -0.6031  0.6039
  398MOL0     C54812   1.248   2.549   9.169  0.6348 -0.1276 -0.3781
  398MOL0     C54813   1.242   2.422   9.116 -0.8447 -0.0865  0.9039
  398MOL0     C54814   1.268   2.400   8.973  0.4964  0.1183 -0.5188
  398MOL0     C54815   1.213   2.313   9.202 -0.2957 -0.0385  0.1038
  398MOL0     C54816   1.211   2.160   9.164  0.0192 -0.5259  0.0861
  398MOL0     O54817   1.261   2.119   9.040  0.1505  0.0309  0.6138
  398MOL0     C54818   1.239   1.986   8.998 -0.0088 -0.2958  0.8328
  398MOL0     C54819   1.117   1.952   8.937 -0.2952  0.7524 -0.1463
  398MOL0     C54820   1.085   1.818   8.909 -0.0313 -0.5426 -0.4817
  398MOL0     C54821   1.178   1.713   8.941  0.0476  0.7894  0.8807
  398MOL0     O54822   1.155   1.576   8.926 -0.1196  0.1590  0.6583
  398MOL0     C54823   1.032   1.541   8.865 -0.0586  0.4063  0.3359
  398MOL0     C54824   0.915   1.522   8.965 -0.1879  0.1401  0.3970
  398MOL0     C54825   0.804   1.428   8.914 -0.7784 -0.4353 -0.2988
  398MOL0     C54826   0.713   1.375   9.031  0.8504  0.9837 -0.4597
  398MOL0     C54827   0.776   1.250   9.099  0.7551 -0.0786  0.9187
  398MOL0     C54828   0.728   1.218   9.243  0.0933 -0.9812 -0.3420
  398MOL0     C54829   0.812   1.092   9.290  0.0048 -0.2651 -0.8356
  398MOL0     C54830   0.795   1.067   9.440  0.1650  0.2551  0.4607
  398MOL0    Cl54831   0.899   0.928   9.470 -0.1688 -0.0498 -0.7010
  398MOL0     C54832   1.296   1.752   9.012  0.4137  0.3201 -0.0439
  398MOL0     C54833   1.328   1.883   9.041 -0.2495 -0.6571  0.0913
  398MOL0     O54834   1.149   2.085   9.238 -0.1248 -0.0084  0.0038
  398MOL0     C54835   1.192   2.347   9.341  0.4037 -0.6588  0.5372
  398MOL0     C54836   1.202   2.478   9.393  0.0469  0.0833  0.3288
  398MOL0     N54837   0.578   2.714   9.621 -0.9616 -0.5337  0.0955
  398MOL0     N54838   0.457   2.689   9.663 -0.2213  0.3608 -0.5773
  398MOL0     C54839   0.510   1.385   9.588  0.9079  0.1339  0.3126
  398MOL0     C54840   0.485   1.248   9.590 -0.7568  0.1052  0.3883
  398MOL0     C54841   0.265   0.857   9.611 -0.1809  0.1392  0.9059
  398MOL0     C54842   0.364   0.774   9.676 -0.2700 -0.9436  0.7442
  398MOL0     C54843   0.366   0.633   9.654  0.5846 -0.8367  0.6495
  398MOL0     C54844   0.291   0.572   9.553  0.4944 -0.5924 -1.5416
  398MOL0     O54845   0.295   0.442   9.542  0.2952  0.1125 -0.0837
  398MOL0     C54846   0.176   0.379   9.511  0.1091 -0.1217  0.1082
  398MOL0     C54847   0.193   0.237   9.559 -0.5110 -0.1447 -0.1163
  398MOL0     C54848   0.196   0.225   9.713 -0.0586 -1.0252 -0.1175
  398MOL0     C54849   0.190   0.092   9.769  0.7031 -0.9528 -0.7709
  398MOL0     C54850   0.273  -0.008   9.699  0.0674 -0.1351 -0.6354
  398MOL0     C54851   0.351  -0.082   9.646  0.0484  0.5641 -0.5527
  398MOL0     C54852   0.209   0.654   9.484  0.2578 -0.3321 -0.8036
  398MOL0     C54853   0.191   0.795   9.505  1.0792 -0.1523  0.1739
  398MOL0     C54854   0.087   0.861   9.418 -0.3989 -0.1154  0.7186
  398MOL0     H54855   0.289   1.220   9.871  1.8201 -3.2471 -0.3630
  398MOL0     H54856   0.333   1.454   9.876 -2.7286 -2.1601 -0.3722
  398MOL0     H54857   0.432   1.654   9.900 -1.7066 -0.1071  0.1888
  398MOL0     H54858   0.308   1.689   9.785  0.1054  1.6606  1.7180
  398MOL0     H54859   0.475   1.870   9.880  2.9354 -2.2684  1.8760
  398MOL0     H54860   0.580   1.828   9.744 -0.1627 -4.3125  0.0238
  398MOL0     H54861   0.395   1.872   9.591 -4.2216 -0.6758 -0.0142
  398MOL0     H54862   0.284   1.910   9.719 -0.4458  0.7170 -0.4362
  398MOL0     H54863   0.400   2.100   9.801  2.5556  3.6678 -0.6002
  398MOL0     H54864   0.530   2.081   9.686 -0.1721  1.9031  0.9657
  398MOL0     H54865   0.227   2.135   9.626 -0.4879 -0.3639 -2.3027
  398MOL0     H54866   0.342   2.105   9.505 -4.6753  1.6170 -0.8057
  398MOL0     H54867   0.400   2.325   9.698  1.7615 -2.3376  0.1771
  398MOL0     H54868   0.468   2.304   9.535  1.2187 -1.5628  1.6627
  398MOL0     H54869   0.178   2.346   9.608  1.4189  1.5827  3.3739
  398MOL0     H54870   0.226   2.378   9.451  1.2543 -3.7272  0.2945
  398MOL0     H54871   0.206   2.587   9.519  0.9194 -2.6940 -3.2069
  398MOL0     H54872   0.236   2.563   9.692  0.3775  2.2443  0.0090
  398MOL0     H54873   0.458   2.501   9.388 -3.6119  3.5048 -2.7335
  398MOL0     H54874   0.703   2.656   9.312 -0.2717  1.7485  1.5159
  398MOL0     H54875   0.764   2.523   9.398  0.0814 -1.1978  3.1986
  398MOL0     H54876   0.818   2.815   9.486 -1.4472 -1.1035  0.3439
  398MOL0     H54877   0.876   2.671   9.560  0.2372  2.2841  0.5748
  398MOL0     H54878   0.977   2.616   9.323  0.3230 -0.9933  1.4536
  398MOL0     H54879   0.927   2.783   9.278 -4.2402 -0.0832  1.3519
  398MOL0     H54880   1.097   2.869   9.430 -1.4800  0.0828  1.3611
  398MOL0     H54881   1.118   2.722   9.516  0.8897  1.2955  0.0206
  398MOL0     H54882   1.255   2.641   9.111 -2.0376  0.2444 -0.2658
  398MOL0     H54883   1.208   2.315   8.939 -1.7497  0.5736  2.0115
  398MOL0     H54884   1.374   2.380   8.952  1.7480  0.0446  4.6566
  398MOL0     H54885   1.235   2.484   8.911 -0.4895  0.6521  0.6929
  398MOL0     H54886   1.053   2.038   8.916 -0.9586  0.3194  0.0527
  398MOL0     H54887   0.987   1.790   8.870 -0.8496 -0.1871  1.2283
  398MOL0     H54888   0.995   1.605   8.785  0.9998 -1.2696 -1.6025
  398MOL0     H54889   1.050   1.446   8.813 -0.7951  0.0063  0.7823
  398MOL0     H54890   0.948   1.481   9.061  0.8751  1.4145  0.6025
  398MOL0     H54891   0.874   1.623   8.979 -0.2000  0.3420 -1.0182
  398MOL0     H54892   0.855   1.350   8.857 -1.7638 -0.2115 -1.5140
  398MOL0     H54893   0.741   1.481   8.842 -0.9097  1.8862  1.4085
  398MOL0     H54894   0.613   1.352   8.993  0.8171 -1.6904  1.0471
  398MOL0     H54895   0.714   1.448   9.113  2.5506 -0.4521  0.8767
  398MOL0     H54896   0.763   1.161   9.037 -0.8342 -0.0111  1.1259
  398MOL0     H54897   0.885   1.262   9.095  0.7612 -0.4162 -0.9401
  398MOL0     H54898   0.624   1.191   9.261 -0.4364  1.9580  1.7958
  398MOL0     H54899   0.741   1.302   9.312 -0.0139 -2.0489  1.0113
  398MOL0     H54900   0.918   1.117   9.274 -0.6461  1.9140 -2.1243
  398MOL0     H54901   0.776   1.006   9.232  2.1725 -2.0055  0.2289
  398MOL0     H54902   0.691   1.036   9.452 -0.8985  1.8844 -3.1761
  398MOL0     H54903   0.832   1.148   9.504 -0.0070 -1.3040  2.6189
  398MOL0     H54904   1.363   1.676   9.051  1.4297 -1.4443 -4.6523
  398MOL0     H54905   1.420   1.901   9.096 -0.4256  3.3882 -0.6745
  398MOL0     H54906   1.167   2.279   9.423  1.2516 -0.9648  0.5538
  398MOL0     H54907   1.174   2.496   9.497 -0.7170  3.6999 -0.3837
  398MOL0     H54908   0.575   1.440   9.521 -1.9556  5.6108  1.4673
  398MOL0     H54909   0.507   1.192   9.499 -2.8534  0.5029 -0.4247
  398MOL0     H54910   0.406   0.822   9.764  0.8791 -0.7737  0.1263
  398MOL0     H54911   0.425   0.575   9.724  1.1707  1.1018  1.8432
  398MOL0     H54912   0.088   0.431   9.552  2.2617  2.7022  1.5183
  398MOL0     H54913   0.144   0.368   9.407  1.8719 -0.9660 -0.3731
  398MOL0     H54914   0.286   0.195   9.519  0.0060 -1.2365  2.0493
  398MOL0     H54915   0.112   0.173   9.522  0.4036 -0.3734 -1.7995
  398MOL0     H54916   0.294   0.266   9.740 -0.3491 -0.3177 -0.1157
  398MOL0     H54917   0.111   0.282   9.751  1.7018  1.2397  0.6320
  398MOL0     H54918   0.082   0.073   9.771  0.1223  1.1801  4.5102
  398MOL0     H54919   0.225   0.102   9.872 -3.1178  0.5818  0.5741
  398MOL0     H54920   0.423  -0.152   9.609 -0.5546  0.5246 -1.6744
  398MOL0     H54921   0.144   0.613   9.407  1.2579 -0.8092 -1.4113
  398MOL0     H54922   0.062   0.806   9.326 -3.0307  0.6006  0.9260
  398MOL0     H54923  -0.007   0.888   9.467 -0.7934  1.2194 -0.6969
  398MOL0     H54924   0.115   0.957   9.373 -3.4243  1.3169  1.6517
  399MOL0     O54925  11.157  10.553  10.032 -0.5928 -0.2307  0.1338
  399MOL0     C54926  11.052  10.626  10.021  0.6060 -0.8675 -0.2788
  399MOL0     O54927  10.985  10.691  10.126  0.0768  0.8259  0.5662
  399MOL0     C54928  10.858  10.745  10.101  0.1693  0.8436 -0.1529
  399MOL0     C54929  10.739  10.668  10.093 -0.4536  0.3194  0.4685
  399MOL0     C54930  10.616  10.722  10.036 -0.7007 -0.7414  0.8124
  399MOL0     C54931  10.619  10.853   9.986 -0.9721 -0.6289 -1.1625
  399MOL0     O54932  10.504  10.889   9.927  0.5475  0.0610 -0.1686
  399MOL0     C54933  10.493  11.021   9.862 -0.2934 -0.5331  0.7489
  399MOL0     C54934  10.348  11.057   9.833 -0.4645  0.4650 -0.5380
  399MOL0     C54935  10.294  10.942   9.740 -0.0718 -0.3025 -0.8809
  399MOL0     C54936  10.188  10.996   9.639 -0.1585  0.0729 -0.2960
  399MOL0     C54937  10.163  10.910   9.513  0.1002 -1.0474  1.1917
  399MOL0     C54938  10.064  10.966   9.412 -0.6683  1.1174  0.4539
  399MOL0     C54939   9.921  10.943   9.455  0.1877 -0.5403  1.0578
  399MOL0     C54940   9.863  10.801   9.494  0.1883  0.6323  0.8295
  399MOL0     N54941   9.826  10.721   9.381 -0.2962 -0.1607  0.8187
  399MOL0     C54942   9.915  10.665   9.286  0.3514  0.4992 -0.5356
  399MOL0     C54943   9.833  10.592   9.208  1.0010  0.1580  0.1718
  399MOL0     C54944   9.908  10.505   9.107  0.6783  0.7804 -0.8171
  399MOL0     C54945   9.900  10.366   9.175  0.2964 -0.9104 -0.5110
  399MOL0     C54946   9.992  10.274   9.122  0.0415  1.0017  0.1337
  399MOL0     C54947  10.017  10.148   9.204 -0.7458 -0.2402 -0.3512
  399MOL0     O54948  10.139  10.157   9.263  0.0214 -0.6131 -0.1793
  399MOL0     C54949  10.201  10.059   9.323 -0.0697 -0.1726  0.9951
  399MOL0     C54950  10.150   9.927   9.324  0.7632 -0.1373 -0.2023
  399MOL0     C54951  10.216   9.829   9.402  0.2157 -0.1260  0.2913
  399MOL0     C54952  10.148   9.691   9.409 -0.9742 -0.1092  0.3455
  399MOL0     C54953  10.341   9.859   9.463 -0.4463 -0.4958 -0.0937
  399MOL0     C54954  10.402   9.768   9.571 -0.0571  0.3699  0.6716
  399MOL0     O54955  10.371   9.637   9.560  0.4045 -0.4642  0.7811
  399MOL0     C54956  10.400   9.542   9.646 -0.5690  0.5347  0.2788
  399MOL0     C54957  10.290   9.481   9.716 -0.6587  0.6034 -0.0258
  399MOL0     C54958  10.318   9.374   9.795 -0.3034  0.4574 -0.1459
  399MOL0     C54959  10.447   9.321   9.807  0.3846 -0.2255 -0.3076
  399MOL0     O54960  10.464   9.230   9.906 -0.2649 -0.1781 -0.5837
  399MOL0     C54961  10.411   9.106   9.869  0.9720  1.1396 -0.5180
  399MOL0     C54962  10.476   8.998   9.941 -0.3455  1.6699 -0.9185
  399MOL0     C54963  10.427   8.857   9.904  0.6377 -0.4628  0.4269
  399MOL0     C54964  10.492   8.740   9.992 -1.0820 -0.0729  0.7400
  399MOL0     C54965  10.431   8.605   9.943  0.5235 -0.4795 -0.2808
  399MOL0     C54966  10.508   8.546   9.822  0.8483  0.2856 -0.9677
  399MOL0     C54967  10.471   8.394   9.811  1.0408 -1.3303  0.2756
  399MOL0     C54968  10.526   8.342   9.679  0.6921 -0.1978  0.3543
  399MOL0    Cl54969  10.700   8.333   9.653 -0.2792 -0.1643 -0.0546
  399MOL0     C54970  10.561   9.378   9.748  1.1650  0.3060  0.2915
  399MOL0     C54971  10.534   9.489   9.662 -0.2508 -0.4089  0.2542
  399MOL0     O54972  10.441   9.821   9.673  0.0858 -0.2711  0.0741
  399MOL0     C54973  10.395   9.994   9.455 -0.5016  0.7401 -0.4239
  399MOL0     C54974  10.323  10.088   9.378  0.5453 -0.2080 -0.0271
  399MOL0     N54975   9.699  10.610   9.241  0.0807  0.2954  0.6391
  399MOL0     N54976   9.697  10.696   9.335  0.9786  0.9336 -0.1061
  399MOL0     C54977  10.738  10.928   9.997  0.8110  0.1501  0.8122
  399MOL0     C54978  10.849  10.876  10.067 -0.0839 -0.9324  0.3461
  399MOL0     C54979  11.006  10.637   9.881  1.1890  0.6567  0.1613
  399MOL0     C54980  11.046  10.757   9.821 -0.1144  0.5476 -0.4447
  399MOL0     C54981  10.982  10.786   9.697  0.7353 -0.6647 -0.5827
  399MOL0     C54982  10.889  10.704   9.630  0.5068  0.0067 -0.1643
  399MOL0     O54983  10.820  10.731   9.509  0.4008 -0.1992  0.3505
  399MOL0     C54984  10.819  10.862   9.468  0.8298  0.0130 -0.5773
  399MOL0     C54985  10.722  10.955   9.545 -0.6697  0.0026  0.9554
  399MOL0     C54986  10.720  11.097   9.487  0.3591 -0.7129  0.5645
  399MOL0     C54987  10.616  11.123   9.375  0.5314 -0.1083 -0.6411
  399MOL0     C54988  10.670  11.094   9.241  1.2447 -0.5300  0.1802
  399MOL0     C54989  10.710  11.082   9.133  0.1099 -0.0111  0.5527
  399MOL0     C54990  10.850  10.592   9.698  0.1383  0.2377  0.9261
  399MOL0     C54991  10.917  10.547   9.812  0.3666  0.1449 -0.1267
  399MOL0     C54992  10.869  10.422   9.891  0.6541  0.2219 -0.0944
  399MOL0     H54993  10.748  10.563  10.117 -1.0611 -0.4378 -2.3186
  399MOL0     H54994  10.531  10.656  10.026 -0.6940 -0.3801 -2.6548
  399MOL0     H54995  10.555  11.039   9.774  0.4582 -0.9861  1.1767
  399MOL0     H54996  10.537  11.094   9.930  1.9122  0.0534 -1.1933
  399MOL0     H54997  10.291  11.058   9.926  0.8560 -1.0299  0.3346
  399MOL0     H54998  10.349  11.151   9.777  2.1632 -0.4285 -2.1996
  399MOL0     H54999  10.366  10.887   9.679  1.8822 -0.4099  1.3772
  399MOL0     H55000  10.252  10.869   9.810  0.5248  0.9183  0.8066
  399MOL0     H55001  10.098  11.013   9.700 -0.2985 -0.1229 -0.4441
  399MOL0     H55002  10.229  11.087   9.595  0.1443 -0.0372 -0.2383
  399MOL0     H55003  10.142  10.809   9.549  3.2715 -2.8275 -1.4536
  399MOL0     H55004  10.256  10.903   9.456  0.3841  1.5725  1.2351
  399MOL0     H55005  10.084  11.070   9.385  0.1269  0.7207 -0.5580
  399MOL0     H55006  10.073  10.898   9.326  0.2862  0.5521  0.9904
  399MOL0     H55007   9.862  10.988   9.375  2.5079  0.7720 -0.0315
  399MOL0     H55008   9.894  10.995   9.547 -0.3037 -0.1399  0.6916
  399MOL0     H55009   9.933  10.753   9.562  0.1451  3.1918  2.8506
  399MOL0     H55010   9.768  10.827   9.542 -1.1958  0.9007 -1.8641
  399MOL0     H55011  10.023  10.673   9.291  0.3630  3.3671 -2.7128
  399MOL0     H55012  10.009  10.544   9.093  1.0556  2.3184  4.2045
  399MOL0     H55013   9.859  10.494   9.010  0.9100 -0.2648 -0.8319
  399MOL0     H55014   9.914  10.373   9.284  2.4786  1.9096 -0.8564
  399MOL0     H55015   9.798  10.330   9.155 -0.3160  0.3505  0.1908
  399MOL0     H55016   9.969  10.250   9.018  3.9722  2.4765 -1.2685
  399MOL0     H55017  10.076  10.342   9.105 -0.1466  1.4528  0.8969
  399MOL0     H55018   9.939  10.141   9.280 -0.2107  2.0002  0.4719
  399MOL0     H55019  10.020  10.059   9.140  0.4717 -2.1836  2.2034
  399MOL0     H55020  10.056   9.908   9.273  1.7389  0.1366 -2.2115
  399MOL0     H55021  10.144   9.653   9.512  3.5799 -0.5926  0.5377
  399MOL0     H55022  10.203   9.610   9.359 -2.3878 -1.2379  0.5316
  399MOL0     H55023  10.046   9.701   9.370 -1.1785 -1.6489  0.4033
  399MOL0     H55024  10.185   9.503   9.702 -1.0893 -0.9112  0.6083
  399MOL0     H55025  10.238   9.320   9.844  0.0232 -1.1045 -1.2465
  399MOL0     H55026  10.303   9.092   9.877  0.9622 -1.1736 -3.1299
  399MOL0     H55027  10.429   9.079   9.764  0.0445 -0.3217 -0.3321
  399MOL0     H55028  10.580   8.999   9.909  0.8198 -1.1854  2.1899
  399MOL0     H55029  10.475   9.016  10.049 -0.2237 -0.6951 -0.4724
  399MOL0     H55030  10.460   8.842   9.800  1.7213  0.7124  0.5812
  399MOL0     H55031  10.318   8.852   9.910  0.5788  0.4181  0.2216
  399MOL0     H55032  10.476   8.747  10.100 -0.7180 -0.4273  0.8229
  399MOL0     H55033  10.599   8.729   9.969 -1.6265  0.1301 -2.2189
  399MOL0     H55034  10.442   8.533  10.025  1.3005 -1.1317 -0.9422
  399MOL0     H55035  10.328   8.629   9.914  0.8742  2.1214  0.3990
  399MOL0     H55036  10.617   8.540   9.836  0.8296 -1.1846 -1.2560
  399MOL0     H55037  10.477   8.601   9.732 -2.4175  0.3945  0.1192
  399MOL0     H55038  10.363   8.374   9.807  0.3519  1.7726 -0.0065
  399MOL0     H55039  10.511   8.346   9.901  2.1597  1.8616  1.6340
  399MOL0     H55040  10.482   8.406   9.602 -2.2812 -0.5842  1.6023
  399MOL0     H55041  10.489   8.239   9.676  2.5977 -0.9653  1.1968
  399MOL0     H55042  10.662   9.340   9.760  1.3648  1.0474  1.0293
  399MOL0     H55043  10.614   9.546   9.616 -1.1344 -0.3027 -1.2235
  399MOL0     H55044  10.481  10.016   9.517 -2.0404  0.7447  1.8033
  399MOL0     H55045  10.363  10.187   9.394  0.1054 -0.2041  1.2042
  399MOL0     H55046  10.747  11.025   9.948 -0.6861 -1.1454 -2.3602
  399MOL0     H55047  10.940  10.934  10.078  0.6272 -1.5100 -1.9024
  399MOL0     H55048  11.110  10.824   9.878  2.0250 -0.6818 -1.2804
  399MOL0     H55049  11.008  10.877   9.645 -2.6452  0.4997 -0.4615
  399MOL0     H55050  10.917  10.911   9.477  0.2035  1.1693  0.2284
  399MOL0     H55051  10.791  10.869   9.362 -1.2527  2.1916  0.0253
  399MOL0     H55052  10.772  10.968   9.642  3.4515  0.4705 -1.0336
  399MOL0     H55053  10.620  10.917   9.561 -0.9532  1.0390  1.7693
  399MOL0     H55054  10.694  11.155   9.576  2.5118  0.6005  0.4051
  399MOL0     H55055  10.816  11.130   9.448 -0.9558  0.5723 -1.8369
  399MOL0     H55056  10.588  11.228   9.389  0.1704 -0.5066  2.2412
  399MOL0     H55057  10.513  11.087   9.384 -0.0583  1.7621  0.8086
  399MOL0     H55058  10.746  11.086   9.032 -0.3543 -2.0636  0.2689
  399MOL0     H55059  10.776  10.530   9.649  0.4119  0.1810  0.5780
  399MOL0     H55060  10.924  10.414   9.985  0.7109 -1.9994 -0.2584
  399MOL0     H55061  10.767  10.448   9.920  0.9935  2.5986 -0.8119
  399MOL0     H55062  10.890  10.332   9.832  3.0298  0.8580 -0.3167
  400MOL0     O55063   2.700   6.076   8.908 -0.6455  0.9648  0.5387
  400MOL0     C55064   2.654   6.065   9.024 -0.3440 -0.4733  0.9393
  400MOL0     O55065   2.683   5.966   9.104  0.1102  0.0153 -0.2025
  400MOL0     C55066   2.758   5.852   9.079  0.0666  0.7464 -0.7128
  400MOL0     C55067   2.734   5.769   8.968 -0.1864 -0.3958 -0.5663
  400MOL0     C55068   2.779   5.638   8.960  0.5604  0.4407  0.1555
  400MOL0     C55069   2.860   5.585   9.063  0.2970  0.0497 -0.8340
  400MOL0     O55070   2.928   5.470   9.063  0.6493  0.0407 -0.3597
  400MOL0     C55071   2.922   5.380   8.952  0.6640  0.1866  0.4366
  400MOL0     C55072   2.974   5.236   8.980  0.0841 -0.3154  0.0958
  400MOL0     C55073   2.969   5.142   8.858  0.4431 -0.3433 -1.0091
  400MOL0     C55074   3.013   5.001   8.892  0.5561  0.5814 -0.5319
  400MOL0     C55075   3.141   4.955   8.816  0.0427 -0.3550 -0.5562
  400MOL0     C55076   3.130   4.957   8.664  0.0163 -0.5720 -0.2400
  400MOL0     C55077   3.224   4.868   8.596 -1.0239 -0.6449 -0.0663
  400MOL0     C55078   3.245   4.898   8.445 -0.0217 -0.4346  0.3785
  400MOL0     N55079   3.387   4.880   8.382 -0.1258  0.6624  0.0290
  400MOL0     C55080   3.507   4.931   8.427 -0.3440  0.1265  0.2832
  400MOL0     C55081   3.597   4.900   8.328 -0.5860  0.7984  0.3187
  400MOL0     C55082   3.740   4.936   8.333 -0.8412  0.4202  0.0788
  400MOL0     C55083   3.822   4.814   8.368  0.0132 -0.1306 -0.3400
  400MOL0     C55084   3.975   4.846   8.356  0.4457 -0.2940 -0.4822
  400MOL0     C55085   4.051   4.729   8.420  0.1482  0.0577  0.5068
  400MOL0     O55086   4.028   4.608   8.346  0.4563  0.1338  0.3513
  400MOL0     C55087   4.080   4.487   8.380 -0.5739  0.4551  0.7860
  400MOL0     C55088   4.167   4.478   8.490  0.0300 -1.5306  0.1902
  400MOL0     C55089   4.209   4.351   8.523  0.8144 -0.5896  0.3917
  400MOL0     C55090   4.276   4.337   8.657 -0.1653 -0.2769  0.9419
  400MOL0     C55091   4.204   4.240   8.431  0.5722  0.6282 -0.0810
  400MOL0     C55092   4.275   4.110   8.456 -0.3080 -0.3565  0.3662
  400MOL0     O55093   4.273   4.036   8.574  0.0759  0.0575  0.1108
  400MOL0     C55094   4.166   4.037   8.659 -0.3718  0.6509  0.7032
  400MOL0     C55095   4.194   4.011   8.795  0.0267  0.4955  0.5553
  400MOL0     C55096   4.094   3.998   8.899 -0.8067 -0.2491  0.3732
  400MOL0     C55097   3.965   4.013   8.855  0.7431 -0.2260 -0.0015
  400MOL0     O55098   3.868   4.005   8.942  0.3093  0.9227 -0.0795
  400MOL0     C55099   3.861   3.884   9.023 -0.1474  0.7341 -0.3308
  400MOL0     C55100   3.724   3.892   9.095 -0.5666  0.3779 -0.4850
  400MOL0     C55101   3.585   3.863   9.020 -0.3025  0.2076 -0.1098
  400MOL0     C55102   3.491   3.763   9.093 -0.8297  0.9388  0.2558
  400MOL0     C55103   3.460   3.792   9.242 -0.1178 -0.0826  0.2932
  400MOL0     C55104   3.356   3.687   9.289  0.8240 -0.8716 -0.2038
  400MOL0     C55105   3.317   3.700   9.429  1.2857  0.1545 -0.3364
  400MOL0     C55106   3.172   3.639   9.449  0.2749  0.5877  0.2288
  400MOL0    Cl55107   3.146   3.654   9.624 -0.0202 -0.4718 -0.8121
  400MOL0     C55108   3.935   4.050   8.723  0.3940  0.1972 -0.8769
  400MOL0     C55109   4.032   4.055   8.629  0.2364  0.1103  0.8294
  400MOL0     O55110   4.328   4.076   8.349  0.1201 -0.1724 -0.3685
  400MOL0     C55111   4.124   4.244   8.321  0.0814 -0.0948 -0.2822
  400MOL0     C55112   4.058   4.373   8.298 -1.0258 -0.7782 -0.5532
  400MOL0     N55113   3.535   4.829   8.238  0.0305  0.1271 -0.3723
  400MOL0     N55114   3.413   4.822   8.264 -0.0531  0.5965 -0.5703
  400MOL0     C55115   2.885   5.668   9.174  0.6916  1.0004 -0.9493
  400MOL0     C55116   2.814   5.784   9.202 -0.3515 -0.4593  0.8569
  400MOL0     C55117   2.552   6.169   9.075 -0.6930  0.0841  0.5611
  400MOL0     C55118   2.469   6.138   9.184  0.2264  0.2416 -0.0932
  400MOL0     C55119   2.362   6.211   9.222  0.2659  0.0691 -0.5954
  400MOL0     C55120   2.340   6.347   9.177  0.3724  0.2885  0.5195
  400MOL0     O55121   2.237   6.420   9.229  0.3164  0.0902  0.2133
  400MOL0     C55122   2.214   6.566   9.213 -0.6860  1.2510 -0.8701
  400MOL0     C55123   2.113   6.578   9.106  0.2020  0.9680  0.2757
  400MOL0     C55124   2.081   6.715   9.047 -0.3917 -0.2919  0.3073
  400MOL0     C55125   2.205   6.800   9.026 -0.6285 -0.0950 -0.0762
  400MOL0     C55126   2.306   6.728   8.948 -0.4226  0.4222 -0.3552
  400MOL0     C55127   2.400   6.682   8.885 -0.3645 -0.0495 -0.4120
  400MOL0     C55128   2.430   6.384   9.082  0.3533  0.3658  0.1220
  400MOL0     C55129   2.528   6.300   9.019 -0.3642  0.0360  0.1497
  400MOL0     C55130   2.609   6.357   8.909  0.1510 -0.4916  0.3692
  400MOL0     H55131   2.667   5.806   8.891 -0.2329 -1.1898 -0.9185
  400MOL0     H55132   2.751   5.584   8.870 -5.3611  3.4769 -0.3713
  400MOL0     H55133   2.978   5.430   8.874  1.3157  0.2404  0.9276
  400MOL0     H55134   2.826   5.373   8.899  1.6284  1.5102 -1.5759
  400MOL0     H55135   3.077   5.239   9.017 -0.1624 -1.7620  0.9870
  400MOL0     H55136   2.907   5.194   9.056  2.4585 -1.3426  1.7056
  400MOL0     H55137   2.872   5.141   8.807  0.9033  1.3299 -1.9873
  400MOL0     H55138   3.033   5.178   8.778  3.2285  4.7578  2.9265
  400MOL0     H55139   3.037   4.991   8.999  0.1295  1.8159 -0.3121
  400MOL0     H55140   2.931   4.933   8.865 -1.0402  2.1765  0.1491
  400MOL0     H55141   3.158   4.852   8.847  0.7625  0.0860  0.5767
  400MOL0     H55142   3.233   5.007   8.842  0.9615 -2.7684  1.4443
  400MOL0     H55143   3.033   4.917   8.631  0.9700 -1.5177 -2.0755
  400MOL0     H55144   3.134   5.058   8.623  1.1265  0.6007  2.5317
  400MOL0     H55145   3.191   4.764   8.608 -2.5824 -0.1062  0.5827
  400MOL0     H55146   3.320   4.864   8.648 -1.0105 -1.0646 -0.1168
  400MOL0     H55147   3.175   4.835   8.389  0.4649  0.2804 -1.1028
  400MOL0     H55148   3.225   5.003   8.420  1.3811 -0.0158  0.8879
  400MOL0     H55149   3.531   4.986   8.518  0.5891  0.9065 -0.4236
  400MOL0     H55150   3.761   5.016   8.405 -2.4066 -0.3595  1.4786
  400MOL0     H55151   3.766   4.963   8.230 -1.9128 -1.9526 -0.8697
  400MOL0     H55152   3.807   4.801   8.476  1.5584 -0.9282 -0.1990
  400MOL0     H55153   3.791   4.716   8.330  2.6736 -1.6088  1.0208
  400MOL0     H55154   3.978   4.858   8.247  0.4778  0.6168 -0.3885
  400MOL0     H55155   4.008   4.937   8.407  1.6296 -1.3458  0.7147
  400MOL0     H55156   4.156   4.760   8.418  1.1059 -2.7552 -2.6830
  400MOL0     H55157   4.035   4.716   8.528 -1.3582 -2.8342  0.0390
  400MOL0     H55158   4.176   4.562   8.557 -2.5502  1.3286 -2.6910
  400MOL0     H55159   4.353   4.413   8.672 -1.1706  2.0314 -3.7651
  400MOL0     H55160   4.329   4.243   8.673 -1.1284 -1.2508 -1.1680
  400MOL0     H55161   4.203   4.354   8.737 -1.9381  1.9708 -0.9923
  400MOL0     H55162   4.295   3.993   8.829 -1.1517 -1.7322  3.2115
  400MOL0     H55163   4.114   3.978   9.004 -1.2317  0.5836  0.6213
  400MOL0     H55164   3.845   3.791   8.968 -1.9498 -0.3577  1.8699
  400MOL0     H55165   3.946   3.887   9.091 -0.7261 -0.9810  0.5268
  400MOL0     H55166   3.735   3.818   9.175  0.9552 -0.6092 -1.5394
  400MOL0     H55167   3.721   3.990   9.144 -2.6678 -0.2012  0.6842
  400MOL0     H55168   3.619   3.818   8.927 -0.0221  0.4252 -0.1164
  400MOL0     H55169   3.538   3.960   9.002  1.7427  0.7871 -3.0144
  400MOL0     H55170   3.544   3.667   9.089 -2.6273 -0.0904 -3.7905
  400MOL0     H55171   3.395   3.751   9.041  1.4530 -4.0932 -3.6149
  400MOL0     H55172   3.544   3.780   9.311 -2.1914 -1.1508  2.8239
  400MOL0     H55173   3.407   3.888   9.245  0.7027  0.3661  1.9550
  400MOL0     H55174   3.393   3.585   9.281  1.4097 -0.6236 -0.7199
  400MOL0     H55175   3.263   3.707   9.234 -0.3261 -1.3996  1.4649
  400MOL0     H55176   3.309   3.804   9.462  0.4024 -0.3323  1.0763
  400MOL0     H55177   3.388   3.653   9.498 -2.7453 -3.0935  2.0256
  400MOL0     H55178   3.155   3.534   9.423  1.1226 -0.1038  2.2487
  400MOL0     H55179   3.102   3.703   9.393 -0.9129  0.3476  1.3651
  400MOL0     H55180   3.835   4.079   8.693  0.2034  3.4481  2.2749
  400MOL0     H55181   4.001   4.066   8.526  2.4454 -1.9325 -0.1637
  400MOL0     H55182   4.101   4.163   8.253 -0.8707  0.5191 -0.7036
  400MOL0     H55183   3.977   4.383   8.226 -3.0937  1.5076  1.8940
  400MOL0     H55184   2.933   5.625   9.262  2.3956  2.8595 -0.9090
  400MOL0     H55185   2.798   5.831   9.299  0.3129  1.8397 -0.0784
  400MOL0     H55186   2.488   6.042   9.232  1.2578  0.3702 -0.2216
  400MOL0     H55187   2.297   6.168   9.298  1.7782 -0.0678  0.6500
  400MOL0     H55188   2.180   6.604   9.310 -0.5374 -3.4169  1.2572
  400MOL0     H55189   2.311   6.612   9.191  0.5171 -1.8270 -2.6443
  400MOL0     H55190   2.024   6.533   9.150  0.0280  1.9601  0.9758
  400MOL0     H55191   2.147   6.521   9.019 -1.0707  0.4405  0.1123
  400MOL0     H55192   2.036   6.708   8.947 -1.4390 -0.1608  0.7562
  400MOL0     H55193   2.004   6.765   9.106 -1.7129  1.5215 -2.6887
  400MOL0     H55194   2.238   6.830   9.125  1.3115 -2.2738  0.0249
  400MOL0     H55195   2.174   6.882   8.961 -0.4481 -0.0867 -0.1541
  400MOL0     H55196   2.484   6.658   8.823 -2.6269 -0.4049 -3.5863
  400MOL0     H55197   2.429   6.486   9.043 -0.3958 -0.1027 -1.1334
  400MOL0     H55198   2.718   6.358   8.925  0.0749 -0.2074  0.9016
  400MOL0     H55199   2.588   6.323   8.807  0.5982 -0.6723  0.3328
  400MOL0     H55200   2.589   6.464   8.897 -1.7719 -1.0940 -2.9581
  401MOL0     O55201   9.841   9.282   7.992  0.6612 -0.3788  0.4335
  401MOL0     C55202   9.869   9.385   8.054  0.1069  0.2039  1.0080
  401MOL0     O55203   9.991   9.437   8.077  0.0573  0.1613  0.5388
  401MOL0     C55204  10.095   9.353   8.048 -0.1063  0.6700  0.8916
  401MOL0     C55205  10.121   9.332   7.907 -0.5533  0.5081  0.1936
  401MOL0     C55206  10.224   9.247   7.864 -0.3322 -0.0429  0.0234
  401MOL0     C55207  10.308   9.179   7.962  0.0962  0.0091  0.4314
  401MOL0     O55208  10.397   9.078   7.925 -0.5598  0.9316  0.2534
  401MOL0     C55209  10.424   9.061   7.785  0.2178  0.2132  0.5327
  401MOL0     C55210  10.531   8.950   7.758  0.6299  0.1371  0.2859
  401MOL0     C55211  10.472   8.806   7.796 -0.0629 -0.3288  1.1738
  401MOL0     C55212  10.586   8.705   7.808  0.2953 -0.5547  0.2725
  401MOL0     C55213  10.534   8.569   7.848 -0.0015  0.4521  1.5144
  401MOL0     C55214  10.641   8.471   7.875 -0.8974 -1.1502 -0.6138
  401MOL0     C55215  10.582   8.341   7.932  0.6423 -0.1626 -0.4534
  401MOL0     C55216  10.669   8.216   7.931 -0.8469  0.1894  0.1580
  401MOL0     N55217  10.692   8.178   7.791  0.0097  0.1559  0.0982
  401MOL0     C55218  10.596   8.139   7.701 -0.0405  0.6615 -0.2182
  401MOL0     C55219  10.673   8.106   7.592  0.3081  0.3190 -0.9397
  401MOL0     C55220  10.620   8.044   7.461 -0.1784 -0.4579  0.4560
  401MOL0     C55221  10.655   7.892   7.444 -0.7224  0.9492 -0.0034
  401MOL0     C55222  10.632   7.845   7.300  0.3405 -0.0102  0.2816
  401MOL0     C55223  10.629   7.693   7.298  0.8306  0.1787 -0.2029
  401MOL0     O55224  10.757   7.634   7.334  0.5673  0.2945 -0.2099
  401MOL0     C55225  10.801   7.529   7.251 -0.3821 -0.2130 -0.8425
  401MOL0     C55226  10.935   7.514   7.218  0.8851  0.2737  0.2159
  401MOL0     C55227  10.985   7.406   7.136  0.4235  0.0212 -0.3647
  401MOL0     C55228  11.131   7.398   7.128  0.0191 -0.3549 -0.6186
  401MOL0     C55229  10.888   7.328   7.064 -0.6269 -0.0880 -0.6128
  401MOL0     C55230  10.932   7.231   6.965 -0.5294 -0.9677  0.0616
  401MOL0     O55231  11.062   7.234   6.926 -0.9395 -0.3773 -0.0298
  401MOL0     C55232  11.101   7.136   6.836 -0.4722 -0.2629  0.4682
  401MOL0     C55233  11.175   7.025   6.881  0.1549 -0.7683 -0.0961
  401MOL0     C55234  11.210   6.919   6.803  0.9026 -1.2843  0.9179
  401MOL0     C55235  11.186   6.934   6.665 -0.1011  0.5405  0.3276
  401MOL0     O55236  11.229   6.841   6.570  0.5521  0.1382  0.2151
  401MOL0     C55237  11.331   6.746   6.610 -0.5425 -0.1121 -0.0005
  401MOL0     C55238  11.360   6.652   6.492 -0.3200  1.3123  0.5942
  401MOL0     C55239  11.237   6.580   6.446  0.5674 -0.2199 -0.2014
  401MOL0     C55240  11.207   6.464   6.546 -0.0958 -1.0200 -0.6470
  401MOL0     C55241  11.107   6.365   6.481 -0.0242 -1.2057  0.8975
  401MOL0     C55242  11.127   6.214   6.505 -0.0128  0.2393  0.1635
  401MOL0     C55243  11.144   6.196   6.659 -0.3865 -0.0724 -0.6643
  401MOL0     C55244  11.219   6.069   6.695 -0.1938 -0.2118 -0.3511
  401MOL0    Cl55245  11.195   5.918   6.587  0.1514  0.0538  0.1597
  401MOL0     C55246  11.091   7.029   6.610 -0.9440  0.7264  0.4502
  401MOL0     C55247  11.049   7.128   6.701 -0.7266  0.0266 -0.8971
  401MOL0     O55248  10.845   7.164   6.917 -0.1605  0.5676  0.5182
  401MOL0     C55249  10.758   7.330   7.117  0.3109 -0.0213 -0.0980
  401MOL0     C55250  10.714   7.433   7.201 -0.3001  0.7360  0.2390
  401MOL0     N55251  10.813   8.133   7.621  0.1766  0.4832  0.1960
  401MOL0     N55252  10.818   8.174   7.741 -0.0429 -0.6719  0.9446
  401MOL0     C55253  10.284   9.197   8.094 -0.5162  0.3038 -0.3036
  401MOL0     C55254  10.177   9.281   8.137 -0.6621 -0.4767 -0.4747
  401MOL0     C55255   9.748   9.462   8.105 -0.0026  0.9089 -0.3659
  401MOL0     C55256   9.768   9.516   8.232 -0.0544 -0.8954 -0.0520
  401MOL0     C55257   9.669   9.608   8.276 -0.4559 -0.0766 -0.4033
  401MOL0     C55258   9.549   9.625   8.203 -0.2394  0.6466  0.1555
  401MOL0     O55259   9.451   9.684   8.278  1.1248 -0.0219  0.0711
  401MOL0     C55260   9.352   9.758   8.195  0.2033 -0.1766  0.5168
  401MOL0     C55261   9.264   9.850   8.292 -0.0908  0.0530 -0.1877
  401MOL0     C55262   9.172   9.946   8.215  0.2414  0.2508  0.5748
  401MOL0     C55263   9.242  10.080   8.163  0.3369  0.6266 -0.4412
  401MOL0     C55264   9.335  10.047   8.064  0.4669 -0.6923  1.5344
  401MOL0     C55265   9.435  10.028   8.001 -0.5417 -0.4978  0.4250
  401MOL0     C55266   9.531   9.578   8.075 -0.7018  0.4290  0.5180
  401MOL0     C55267   9.630   9.495   8.028 -0.0827 -0.0978 -0.2870
  401MOL0     C55268   9.617   9.457   7.887  0.2065  0.5958  0.2988
  401MOL0     H55269  10.068   9.384   7.828  0.3693  0.3838 -0.5320
  401MOL0     H55270  10.238   9.251   7.756  2.9872 -1.0095  0.3049
  401MOL0     H55271  10.456   9.159   7.747 -0.0190 -0.0532 -0.3831
  401MOL0     H55272  10.331   9.029   7.738  0.6725  0.0450 -0.2789
  401MOL0     H55273  10.560   8.962   7.653 -1.8004  0.5704 -0.4211
  401MOL0     H55274  10.623   8.960   7.816  1.0307  2.2889 -0.6183
  401MOL0     H55275  10.422   8.824   7.892 -2.2479 -0.3618  0.0874
  401MOL0     H55276  10.393   8.774   7.728  0.2039 -2.4481  1.7672
  401MOL0     H55277  10.631   8.698   7.709 -2.6039  0.2939 -1.2253
  401MOL0     H55278  10.664   8.732   7.880  0.0843  0.1316  0.2444
  401MOL0     H55279  10.461   8.533   7.774 -0.9060  1.5093  1.8707
  401MOL0     H55280  10.477   8.586   7.939  3.3150  0.6144  3.7177
  401MOL0     H55281  10.693   8.445   7.782  0.4920 -4.1694  0.8544
  401MOL0     H55282  10.712   8.507   7.950  0.3065 -0.7757 -1.8955
  401MOL0     H55283  10.492   8.315   7.875  1.6589  0.8832 -2.6814
  401MOL0     H55284  10.564   8.356   8.039  2.5251 -0.2898 -0.0820
  401MOL0     H55285  10.766   8.230   7.980 -0.2050  1.3214 -1.3792
  401MOL0     H55286  10.612   8.138   7.983 -1.1606  0.1572 -0.2299
  401MOL0     H55287  10.488   8.136   7.714 -0.1024 -2.0722 -0.7570
  401MOL0     H55288  10.670   8.092   7.376 -1.3597  1.2631  0.6885
  401MOL0     H55289  10.513   8.062   7.450 -0.5188 -2.6220 -0.2442
  401MOL0     H55290  10.760   7.877   7.471 -1.7702 -0.8683  3.7861
  401MOL0     H55291  10.598   7.837   7.519  0.3798  1.6300  1.4014
  401MOL0     H55292  10.543   7.890   7.255 -1.0065  0.5332  3.2636
  401MOL0     H55293  10.716   7.883   7.240  1.4087 -2.3217  0.2089
  401MOL0     H55294  10.567   7.650   7.377 -1.1713 -2.4663 -2.9762
  401MOL0     H55295  10.588   7.654   7.204  0.4439  0.7191 -0.2660
  401MOL0     H55296  11.006   7.588   7.254  1.0410  0.0428  0.3854
  401MOL0     H55297  11.154   7.293   7.144  2.1381  0.1942  0.2881
  401MOL0     H55298  11.181   7.458   7.205 -3.2994  3.5085 -1.0754
  401MOL0     H55299  11.172   7.433   7.033 -0.8292  0.0097 -0.8596
  401MOL0     H55300  11.199   7.008   6.986 -0.2889 -0.7272  0.0168
  401MOL0     H55301  11.266   6.836   6.845 -0.1634 -1.8339  1.2968
  401MOL0     H55302  11.421   6.803   6.631 -0.1531 -1.1483  1.2670
  401MOL0     H55303  11.298   6.679   6.690 -0.7220  0.1180  0.1192
  401MOL0     H55304  11.386   6.705   6.400 -0.7679 -1.1033 -0.9973
  401MOL0     H55305  11.436   6.581   6.526  0.3110  0.6146 -2.1049
  401MOL0     H55306  11.242   6.547   6.342  1.6838 -1.2446  0.1528
  401MOL0     H55307  11.151   6.648   6.439  1.1006  0.3501 -1.6041
  401MOL0     H55308  11.177   6.489   6.648  1.7462  1.6810 -0.6732
  401MOL0     H55309  11.298   6.407   6.568  0.8148  1.3748  2.4385
  401MOL0     H55310  11.008   6.388   6.521  0.2868 -0.4835  1.2660
  401MOL0     H55311  11.117   6.382   6.373 -3.8457  1.8242  0.7981
  401MOL0     H55312  11.224   6.191   6.460  0.6277  0.6506  1.2690
  401MOL0     H55313  11.046   6.152   6.465  0.3165 -0.5585  0.6880
  401MOL0     H55314  11.044   6.183   6.700  0.0453 -1.4181  0.0344
  401MOL0     H55315  11.202   6.271   6.713 -1.5433  1.4546 -1.4921
  401MOL0     H55316  11.205   6.035   6.798  0.7107  0.5618  0.0397
  401MOL0     H55317  11.324   6.096   6.680 -0.6783  2.0828  0.0596
  401MOL0     H55318  11.054   7.027   6.508 -1.2467  1.5700  0.5365
  401MOL0     H55319  10.981   7.207   6.673 -0.4630 -0.0494 -1.7759
  401MOL0     H55320  10.698   7.248   7.080  4.0332 -1.6374 -3.2382
  401MOL0     H55321  10.613   7.413   7.235 -0.0702 -0.4225  0.3016
  401MOL0     H55322  10.341   9.139   8.166 -0.3633  1.3980  0.4780
  401MOL0     H55323  10.140   9.282   8.239 -1.0266 -0.3646 -0.6061
  401MOL0     H55324   9.856   9.505   8.295 -0.5095 -2.5812  0.3392
  401MOL0     H55325   9.672   9.667   8.367 -1.1542  1.3516 -1.2741
  401MOL0     H55326   9.399   9.815   8.115  0.3732  3.0421  2.7242
  401MOL0     H55327   9.280   9.689   8.150 -0.9834  1.5411 -0.3013
  401MOL0     H55328   9.331   9.916   8.349  0.3354  1.8077 -2.5914
  401MOL0     H55329   9.195   9.787   8.349 -1.7168  1.2167 -0.8007
  401MOL0     H55330   9.139   9.897   8.123 -0.1377  2.6810 -0.6756
  401MOL0     H55331   9.091   9.974   8.284 -1.0903  0.6866 -1.0817
  401MOL0     H55332   9.292  10.131   8.245 -3.3290  1.5937  1.3910
  401MOL0     H55333   9.175  10.158   8.127  0.9490  1.4803  0.2330
  401MOL0     H55334   9.524  10.015   7.943 -0.7361 -1.2440  0.2832
  401MOL0     H55335   9.450   9.616   8.013 -1.5678 -1.7140  0.2524
  401MOL0     H55336   9.512   9.475   7.863  0.3436  0.2423 -0.5890
  401MOL0     H55337   9.685   9.512   7.822  2.0953 -2.4898 -0.5073
  401MOL0     H55338   9.632   9.351   7.869  1.9365  0.8229  0.1852
  402MOL0     O55339   9.958   1.949   4.298  0.4677 -0.2275 -0.3557
  402MOL0     C55340  10.042   1.960   4.213 -0.0261 -0.9613 -0.4641
  402MOL0     O55341  10.122   1.863   4.170  0.5270  0.6054  0.6001
  402MOL0     C55342  10.122   1.741   4.233  0.4644  0.6555 -0.7163
  402MOL0     C55343  10.001   1.672   4.255  0.3124 -0.2847  0.1229
  402MOL0     C55344   9.993   1.542   4.301  0.0738  0.0253  0.2502
  402MOL0     C55345  10.103   1.480   4.344 -0.4696 -0.2672 -0.0493
  402MOL0     O55346  10.090   1.352   4.379 -0.7731 -0.2337 -0.6886
  402MOL0     C55347  10.201   1.257   4.351 -0.3631  0.2753  0.2078
  402MOL0     C55348  10.136   1.113   4.384 -0.1482  0.3701  0.4731
  402MOL0     C55349  10.035   1.078   4.273 -0.1569 -0.0169 -0.4651
  402MOL0     C55350   9.936   0.966   4.321 -0.3382 -0.0939 -0.7051
  402MOL0     C55351   9.825   0.939   4.217  0.0682  1.2290  0.6002
  402MOL0     C55352   9.859   0.838   4.106 -0.5743  0.5096 -0.1011
  402MOL0     C55353   9.742   0.832   4.007  0.3033  0.8165 -0.8247
  402MOL0     C55354   9.659   0.957   3.961  0.1780 -1.2169  0.9150
  402MOL0     N55355   9.543   0.927   3.866 -0.3084 -0.9058 -0.1593
  402MOL0     C55356   9.440   0.852   3.901 -0.0452  0.2718 -0.1362
  402MOL0     C55357   9.359   0.857   3.800  0.2705 -0.7199 -0.7554
  402MOL0     C55358   9.226   0.789   3.770 -1.2965  0.1491  0.1058
  402MOL0     C55359   9.187   0.780   3.618 -0.4794  0.0968 -1.1272
  402MOL0     C55360   9.266   0.683   3.530 -0.2825 -0.2500  0.2164
  402MOL0     C55361   9.194   0.626   3.410 -0.6855  0.7602 -0.5167
  402MOL0     O55362   9.067   0.574   3.440  0.5925  0.3940 -0.6046
  402MOL0     C55363   9.002   0.520   3.330  0.2545  0.0011  0.0974
  402MOL0     C55364   8.879   0.476   3.376  0.3801 -0.0104  0.9085
  402MOL0     C55365   8.782   0.419   3.285 -0.2616 -0.2497  0.1587
  402MOL0     C55366   8.652   0.354   3.336 -0.4528 -0.1251  0.0143
  402MOL0     C55367   8.825   0.405   3.148 -0.5852 -0.0250 -0.3189
  402MOL0     C55368   8.754   0.340   3.040 -0.2184  0.2615  0.6281
  402MOL0     O55369   8.760   0.399   2.907  0.1920 -0.4830 -0.2356
  402MOL0     C55370   8.708   0.334   2.809  0.3955 -0.1254 -0.3133
  402MOL0     C55371   8.780   0.303   2.694  0.4403 -0.2392  0.2718
  402MOL0     C55372   8.713   0.234   2.593 -0.1680 -0.0350  0.1241
  402MOL0     C55373   8.582   0.197   2.598  1.0680 -0.1807 -0.3068
  402MOL0     O55374   8.540   0.127   2.488 -0.3439  0.4137 -0.1964
  402MOL0     C55375   8.406   0.071   2.483  1.0672  0.2181 -0.9890
  402MOL0     C55376   8.396  -0.015   2.354 -0.1339 -0.1201 -0.6564
  402MOL0     C55377   8.237  -0.035   2.335 -0.6729  0.4150 -0.6140
  402MOL0     C55378   8.209  -0.128   2.213  0.0209  0.3143  0.1668
  402MOL0     C55379   8.060  -0.166   2.186  0.6064 -0.2900 -0.1661
  402MOL0     C55380   8.060  -0.243   2.056  0.7271 -0.4417 -0.4733
  402MOL0     C55381   7.920  -0.299   2.043  0.7330  0.5908 -0.3311
  402MOL0     C55382   7.904  -0.342   1.895 -0.4900  0.3695  0.4903
  402MOL0    Cl55383   7.744  -0.411   1.870  0.5446  0.1164 -0.4250
  402MOL0     C55384   8.502   0.225   2.711 -0.4462 -0.3061 -0.0925
  402MOL0     C55385   8.573   0.292   2.816  0.4013 -0.5065  0.2669
  402MOL0     O55386   8.707   0.232   3.069 -0.2527  0.1630  0.1046
  402MOL0     C55387   8.960   0.441   3.111  0.0361  0.6734  0.6038
  402MOL0     C55388   9.043   0.504   3.202  0.1210  0.4746 -0.0214
  402MOL0     N55389   9.421   0.942   3.701 -0.1924 -1.3678  0.1520
  402MOL0     N55390   9.536   0.973   3.739 -0.6410  0.0843 -0.9550
  402MOL0     C55391  10.229   1.551   4.343 -0.2706  0.1519  0.1880
  402MOL0     C55392  10.237   1.682   4.289 -0.6889  0.4823 -0.5156
  402MOL0     C55393  10.056   2.099   4.162 -0.5202 -0.2250  1.2216
  402MOL0     C55394   9.944   2.181   4.170  1.1338 -0.6282 -0.6918
  402MOL0     C55395   9.931   2.310   4.114 -0.1370 -0.1969 -0.1051
  402MOL0     C55396  10.035   2.374   4.055  0.3124  0.2557 -0.7021
  402MOL0     O55397  10.029   2.499   4.003 -0.1261  0.1589  0.3326
  402MOL0     C55398   9.919   2.533   3.927  0.5388 -0.1856  0.1162
  402MOL0     C55399   9.946   2.665   3.849  0.8556  0.4134  0.4577
  402MOL0     C55400  10.057   2.745   3.916  0.2087  0.0917 -0.6938
  402MOL0     C55401  10.056   2.891   3.880  0.8292  0.0482  0.6367
  402MOL0     C55402   9.952   2.966   3.966 -0.5270 -0.0841  0.2189
  402MOL0     C55403   9.862   2.985   4.047  0.1792 -0.8570  0.8495
  402MOL0     C55404  10.150   2.307   4.048 -0.4988  0.1141  0.0823
  402MOL0     C55405  10.161   2.168   4.087 -0.2051 -0.5892 -0.2884
  402MOL0     C55406  10.287   2.095   4.071  0.2448 -0.9293 -0.2911
  402MOL0     H55407   9.921   1.737   4.222 -0.2493 -1.8371 -1.7867
  402MOL0     H55408   9.913   1.470   4.286 -1.0578  1.2348  0.3132
  402MOL0     H55409  10.298   1.264   4.401 -0.9783 -0.6772  1.6096
  402MOL0     H55410  10.229   1.257   4.245 -1.0687 -1.6940 -0.0326
  402MOL0     H55411  10.220   1.043   4.379 -1.9274 -1.8621  0.0594
  402MOL0     H55412  10.100   1.117   4.487  2.2917 -2.8577  1.6268
  402MOL0     H55413   9.975   1.168   4.257 -3.1723 -1.2591  2.5970
  402MOL0     H55414  10.088   1.055   4.180  4.0052  3.9041  0.5479
  402MOL0     H55415   9.984   0.876   4.360  1.6360  1.4771  0.7447
  402MOL0     H55416   9.894   1.015   4.410  0.7613  0.6127 -0.5487
  402MOL0     H55417   9.800   1.033   4.168  1.0888 -0.3530 -3.3349
  402MOL0     H55418   9.736   0.897   4.266 -0.0369 -0.7915 -1.1473
  402MOL0     H55419   9.956   0.860   4.060  0.0510 -1.4118  0.2217
  402MOL0     H55420   9.878   0.745   4.159  1.0036  1.8384  1.8286
  402MOL0     H55421   9.664   0.772   4.056 -2.0135  2.7617 -1.9078
  402MOL0     H55422   9.762   0.773   3.917  1.5502  0.0756 -0.0936
  402MOL0     H55423   9.608   0.992   4.051 -0.2810 -3.4460  1.5858
  402MOL0     H55424   9.715   1.039   3.914 -0.8953  1.3755  3.8750
  402MOL0     H55425   9.442   0.800   3.997 -0.6668 -1.9181 -1.2494
  402MOL0     H55426   9.138   0.843   3.805 -0.8479  1.3541 -0.5712
  402MOL0     H55427   9.225   0.691   3.818 -0.8372  0.3379  0.5094
  402MOL0     H55428   9.080   0.756   3.615 -0.9021  1.8500 -0.9453
  402MOL0     H55429   9.189   0.881   3.576  0.2440 -0.4182 -2.3807
  402MOL0     H55430   9.343   0.747   3.487 -1.5196  1.8078  0.9509
  402MOL0     H55431   9.315   0.603   3.586  2.9078  1.6550  0.3919
  402MOL0     H55432   9.188   0.705   3.333  0.2422  1.2444 -0.1103
  402MOL0     H55433   9.249   0.541   3.370 -2.2119 -1.1014  1.1710
  402MOL0     H55434   8.848   0.486   3.480 -1.3440  2.3534  0.2614
  402MOL0     H55435   8.604   0.405   3.420 -1.1014  3.4174 -2.3373
  402MOL0     H55436   8.647   0.245   3.350  0.6352 -0.0188  1.5677
  402MOL0     H55437   8.573   0.373   3.263  0.5857  2.3135 -0.5463
  402MOL0     H55438   8.886   0.327   2.683 -0.1116  3.1167  1.1060
  402MOL0     H55439   8.777   0.207   2.510 -0.9132 -3.7304  0.5915
  402MOL0     H55440   8.395   0.016   2.576 -0.0698  2.8573  0.5441
  402MOL0     H55441   8.338   0.156   2.480  0.7435 -0.0528 -1.6454
  402MOL0     H55442   8.446   0.041   2.274  2.0077  0.9847  1.2941
  402MOL0     H55443   8.438  -0.113   2.378  1.0949  0.8899  1.7986
  402MOL0     H55444   8.192   0.065   2.329  1.3508  1.3704 -0.6125
  402MOL0     H55445   8.192  -0.088   2.419 -2.3562  0.6965 -1.2904
  402MOL0     H55446   8.259  -0.223   2.232 -1.2402  0.0657  2.7033
  402MOL0     H55447   8.251  -0.079   2.124 -1.0992  0.8000 -0.1127
  402MOL0     H55448   8.026  -0.228   2.270  0.4693  0.4360  0.3258
  402MOL0     H55449   8.007  -0.071   2.181  0.5870 -0.2603  0.5227
  402MOL0     H55450   8.138  -0.319   2.059  1.5178  0.2705 -2.0436
  402MOL0     H55451   8.087  -0.167   1.982  2.3788  0.6368  1.1461
  402MOL0     H55452   7.851  -0.216   2.061 -0.8057 -1.0769  2.0752
  402MOL0     H55453   7.905  -0.372   2.124 -0.9765  0.0710 -1.0518
  402MOL0     H55454   7.983  -0.415   1.873  1.9722  3.1291 -0.4462
  402MOL0     H55455   7.914  -0.259   1.824 -2.4488  0.5093  0.3433
  402MOL0     H55456   8.401   0.185   2.709 -0.0197 -1.4185 -1.4431
  402MOL0     H55457   8.509   0.304   2.903  2.3560  0.3616  1.6643
  402MOL0     H55458   8.989   0.401   3.015 -3.4581 -1.7047  0.3742
  402MOL0     H55459   9.142   0.537   3.172  0.2610  0.6097  0.5752
  402MOL0     H55460  10.319   1.503   4.380  0.0968  0.1071 -0.7373
  402MOL0     H55461  10.337   1.725   4.283 -1.0211  1.0733 -3.3391
  402MOL0     H55462   9.856   2.160   4.230  1.6292  1.6440  0.9591
  402MOL0     H55463   9.836   2.360   4.130 -0.5755 -1.3447  1.0689
  402MOL0     H55464   9.898   2.459   3.850  1.6887 -0.4987  0.0853
  402MOL0     H55465   9.828   2.548   3.986 -0.7248  1.6412 -2.1287
  402MOL0     H55466   9.848   2.713   3.852 -0.4333 -2.0456  0.3721
  402MOL0     H55467   9.989   2.649   3.750  1.7204  2.0011  0.5459
  402MOL0     H55468  10.047   2.744   4.025  3.2595 -2.6864 -0.2824
  402MOL0     H55469  10.161   2.723   3.890  1.1628  2.1403  1.0976
  402MOL0     H55470  10.027   2.903   3.775  1.8737 -0.6746  0.2466
  402MOL0     H55471  10.150   2.942   3.902  0.8531  0.5611 -0.5391
  402MOL0     H55472   9.771   2.999   4.103  0.3040  3.0501  0.3591
  402MOL0     H55473  10.236   2.361   4.011 -1.9414  0.2255 -3.4555
  402MOL0     H55474  10.325   2.053   4.164  2.2371  2.2566  0.4799
  402MOL0     H55475  10.265   2.011   4.005 -3.3735 -0.1363 -0.2806
  402MOL0     H55476  10.369   2.157   4.032  0.9087  0.3148  2.8332
  403MOL0     O55477   8.163   5.355   1.256  0.2706  0.9168 -0.5491
  403MOL0     C55478   8.236   5.267   1.214 -0.4383 -0.0450  0.2236
  403MOL0     O55479   8.215   5.129   1.240 -1.0113  0.3551  0.5061
  403MOL0     C55480   8.134   5.076   1.345 -0.9802  0.5094 -0.3504
  403MOL0     C55481   8.050   5.143   1.431  0.3198  0.0442 -0.0645
  403MOL0     C55482   7.985   5.071   1.528  0.1456  1.2575  0.6668
  403MOL0     C55483   7.999   4.928   1.534 -0.8333 -0.0443 -0.1345
  403MOL0     O55484   7.911   4.869   1.625  0.4513 -0.1195  0.3597
  403MOL0     C55485   7.942   4.747   1.679 -0.7165  0.4524 -0.0999
  403MOL0     C55486   7.874   4.625   1.610  0.6415  0.1153  1.0175
  403MOL0     C55487   7.723   4.657   1.594 -0.8228 -0.8085  0.3054
  403MOL0     C55488   7.644   4.527   1.603 -0.4617 -0.4008 -0.4824
  403MOL0     C55489   7.492   4.543   1.590  0.4895 -0.2890 -0.0641
  403MOL0     C55490   7.429   4.660   1.674 -0.4837  0.3092  0.2100
  403MOL0     C55491   7.276   4.627   1.677  0.6828  0.5468 -0.4883
  403MOL0     C55492   7.196   4.732   1.775 -1.1256 -0.1294  0.2813
  403MOL0     N55493   7.235   4.721   1.922  1.0018  0.1890  0.3242
  403MOL0     C55494   7.199   4.606   1.992  0.3996 -0.4241 -0.1287
  403MOL0     C55495   7.220   4.642   2.120  0.0669  0.0355 -0.1086
  403MOL0     C55496   7.199   4.545   2.240 -0.2542  0.5465  0.7060
  403MOL0     C55497   7.182   4.612   2.373  0.1380  0.4565 -0.1834
  403MOL0     C55498   7.065   4.708   2.388  0.4029  0.2644  0.5397
  403MOL0     C55499   7.069   4.777   2.529  0.5486 -0.1069  0.2586
  403MOL0     O55500   7.052   4.680   2.634  0.3387  0.7113  0.1010
  403MOL0     C55501   7.063   4.731   2.754  1.0529 -0.2477  1.2174
  403MOL0     C55502   6.960   4.744   2.839 -0.3035 -0.0407 -0.8010
  403MOL0     C55503   6.978   4.817   2.964  0.7530  1.4922  0.7309
  403MOL0     C55504   6.856   4.825   3.050  0.4017  0.2807  0.6240
  403MOL0     C55505   7.096   4.885   2.993  0.3277 -0.1003  0.7293
  403MOL0     C55506   7.107   4.968   3.116 -0.4846  0.1364  0.6308
  403MOL0     O55507   7.003   5.049   3.145  0.0522  0.1433  1.0017
  403MOL0     C55508   7.021   5.127   3.254  0.3323 -0.3483 -0.2386
  403MOL0     C55509   7.023   5.071   3.385 -0.3029  0.6056  0.1534
  403MOL0     C55510   7.071   5.149   3.488 -0.0990 -0.2820  0.6969
  403MOL0     C55511   7.119   5.276   3.476  0.0030  0.1713  1.0656
  403MOL0     O55512   7.166   5.331   3.594 -0.0378  0.3258  0.4125
  403MOL0     C55513   7.225   5.464   3.572 -0.2145  0.4141  0.3320
  403MOL0     C55514   7.281   5.513   3.708 -0.4596 -0.6325  0.6345
  403MOL0     C55515   7.333   5.657   3.686  0.2581  0.2072  0.3573
  403MOL0     C55516   7.318   5.742   3.806  0.3804 -0.8950 -0.5452
  403MOL0     C55517   7.355   5.885   3.778  0.3383 -0.4902 -1.1679
  403MOL0     C55518   7.356   5.982   3.903 -0.0461 -0.0940  0.4754
  403MOL0     C55519   7.366   6.125   3.874  0.3037  0.2919 -0.3213
  403MOL0     C55520   7.350   6.211   4.004 -1.1949  0.8170 -0.1093
  403MOL0    Cl55521   7.190   6.276   4.034  0.6903 -0.2739  0.2744
  403MOL0     C55522   7.098   5.339   3.357  0.5455  0.2343  0.5533
  403MOL0     C55523   7.056   5.261   3.250 -0.1731 -0.0273  0.3146
  403MOL0     O55524   7.207   4.960   3.189  0.1468  0.8132  0.4830
  403MOL0     C55525   7.210   4.867   2.905  0.8617 -0.1714 -0.2286
  403MOL0     C55526   7.191   4.786   2.791 -0.1689  0.2098 -0.3239
  403MOL0     N55527   7.251   4.775   2.120 -0.0295  0.3170  0.7594
  403MOL0     N55528   7.254   4.824   2.000  0.7066 -0.6043 -0.6026
  403MOL0     C55529   8.084   4.861   1.449 -0.5809  0.1322  0.3576
  403MOL0     C55530   8.160   4.936   1.367 -0.9608  0.0104 -0.4190
  403MOL0     C55531   8.341   5.299   1.114 -0.0592  0.0568 -0.3860
  403MOL0     C55532   8.432   5.204   1.076  0.4846  0.1040 -0.4746
  403MOL0     C55533   8.538   5.233   0.993 -0.2677  0.8423 -0.0559
  403MOL0     C55534   8.559   5.355   0.930  0.0924  0.0099  0.7288
  403MOL0     O55535   8.650   5.375   0.832  0.1517  0.6164  0.5659
  403MOL0     C55536   8.673   5.270   0.736 -0.5707  0.6966  0.3696
  403MOL0     C55537   8.820   5.207   0.762  0.7998 -0.0445  0.6579
  403MOL0     C55538   8.925   5.316   0.779  0.2829  0.6058  0.0696
  403MOL0     C55539   9.067   5.249   0.808  0.3092 -0.0043 -0.0273
  403MOL0     C55540   9.087   5.151   0.918  0.5865  1.3690 -0.6792
  403MOL0     C55541   9.109   5.075   1.001 -1.0986  0.8285  0.6458
  403MOL0     C55542   8.468   5.460   0.959 -0.7092  0.5778 -0.2970
  403MOL0     C55543   8.364   5.427   1.046  0.1874 -0.1200  0.2302
  403MOL0     C55544   8.261   5.545   1.057  0.1025 -0.7286  0.3840
  403MOL0     H55545   8.026   5.249   1.429  0.0753  0.1302  2.9021
  403MOL0     H55546   7.908   5.098   1.600 -0.4902 -2.1314  1.4463
  403MOL0     H55547   7.907   4.755   1.782 -1.0607  2.9278 -0.3463
  403MOL0     H55548   8.048   4.719   1.680 -0.7836  0.1909  1.0184
  403MOL0     H55549   7.918   4.614   1.510 -1.9009  0.5171 -0.2091
  403MOL0     H55550   7.883   4.534   1.670 -2.3854  0.0774  1.5546
  403MOL0     H55551   7.690   4.725   1.673 -2.5814 -0.5511 -0.6022
  403MOL0     H55552   7.702   4.715   1.503 -1.2938 -1.4822 -0.0247
  403MOL0     H55553   7.677   4.451   1.532  2.6047  1.4323 -1.1652
  403MOL0     H55554   7.648   4.485   1.704 -1.6637  0.6340  0.0258
  403MOL0     H55555   7.434   4.451   1.599 -0.5779  0.5885  3.2823
  403MOL0     H55556   7.486   4.572   1.485  3.1305  0.3600 -0.1231
  403MOL0     H55557   7.478   4.656   1.772 -0.4382 -1.7773  0.1459
  403MOL0     H55558   7.435   4.758   1.625 -3.0876 -0.0699 -1.0191
  403MOL0     H55559   7.262   4.526   1.715 -0.2732 -0.6453 -3.7129
  403MOL0     H55560   7.231   4.632   1.578 -0.3566 -1.5533 -0.1621
  403MOL0     H55561   7.202   4.837   1.744 -5.8997 -0.6405 -3.5640
  403MOL0     H55562   7.092   4.700   1.768 -0.8846 -1.5631  2.4269
  403MOL0     H55563   7.163   4.510   1.957  1.2247 -0.9188  0.3408
  403MOL0     H55564   7.289   4.483   2.235 -0.6292  0.0994 -1.6212
  403MOL0     H55565   7.112   4.481   2.222 -0.2117  0.3037  1.3130
  403MOL0     H55566   7.174   4.534   2.450 -0.6611 -1.4559 -2.1123
  403MOL0     H55567   7.274   4.666   2.397  1.3020 -1.7485  0.5823
  403MOL0     H55568   7.084   4.792   2.321 -0.5519  0.3522  0.3646
  403MOL0     H55569   6.969   4.662   2.365  1.5632 -1.4856 -1.0921
  403MOL0     H55570   7.154   4.844   2.543  0.2184  0.6455 -1.0781
  403MOL0     H55571   6.973   4.829   2.533 -0.8868 -2.5746 -0.0560
  403MOL0     H55572   6.863   4.699   2.818  0.1341 -0.1955 -2.7116
  403MOL0     H55573   6.881   4.822   3.156  0.2099  1.1358  0.7066
  403MOL0     H55574   6.787   4.742   3.031  2.1374 -0.9984 -0.3775
  403MOL0     H55575   6.800   4.917   3.026 -2.7751 -1.1936  1.7952
  403MOL0     H55576   6.999   4.966   3.399  0.7349  0.4423  0.8832
  403MOL0     H55577   7.076   5.108   3.588  1.5310 -0.8583  0.4105
  403MOL0     H55578   7.307   5.443   3.502  1.6598 -1.6778  2.9176
  403MOL0     H55579   7.154   5.532   3.524 -2.0785 -1.1875  0.6836
  403MOL0     H55580   7.199   5.513   3.780 -0.3433 -1.8384  0.7965
  403MOL0     H55581   7.366   5.462   3.755 -1.4345 -1.2737  1.7539
  403MOL0     H55582   7.269   5.700   3.608  1.7364 -0.8147 -1.4990
  403MOL0     H55583   7.438   5.667   3.657  0.5107 -1.1907  0.7203
  403MOL0     H55584   7.389   5.692   3.872  0.9449 -0.7261 -1.0240
  403MOL0     H55585   7.216   5.727   3.843 -2.0847 -1.7329 -6.5244
  403MOL0     H55586   7.457   5.879   3.739  0.5868  2.3014 -1.1355
  403MOL0     H55587   7.303   5.937   3.698  0.1340  1.6426  0.2781
  403MOL0     H55588   7.436   5.949   3.971  2.1809  5.2031  0.9021
  403MOL0     H55589   7.264   5.969   3.961  0.5161 -2.6563  0.9595
  403MOL0     H55590   7.281   6.152   3.811 -1.9657 -2.0528  1.5329
  403MOL0     H55591   7.460   6.151   3.823  0.1122 -1.3662 -1.6242
  403MOL0     H55592   7.414   6.296   3.980 -0.2266 -0.3294 -1.8902
  403MOL0     H55593   7.382   6.156   4.093  0.4512  0.2230 -1.0137
  403MOL0     H55594   7.119   5.443   3.333  1.9197 -0.0782  0.2742
  403MOL0     H55595   7.042   5.317   3.158 -0.9919  0.7140  0.8673
  403MOL0     H55596   7.303   4.920   2.917 -0.1473  1.6126  0.0574
  403MOL0     H55597   7.280   4.768   2.731  0.6369 -0.1081  0.9371
  403MOL0     H55598   8.096   4.753   1.461  0.0273  0.2156  0.5249
  403MOL0     H55599   8.235   4.877   1.315  0.8546 -0.6098  2.6880
  403MOL0     H55600   8.429   5.110   1.130 -0.5977  1.4298  1.9674
  403MOL0     H55601   8.606   5.152   0.969 -0.4256  0.8894 -0.6576
  403MOL0     H55602   8.618   5.177   0.750  1.8411 -0.7662  0.7690
  403MOL0     H55603   8.663   5.304   0.633  0.0431 -0.4957 -0.1038
  403MOL0     H55604   8.845   5.160   0.666 -0.4765 -1.4756  0.9768
  403MOL0     H55605   8.815   5.128   0.837  0.5315 -1.0055 -0.3450
  403MOL0     H55606   8.921   5.384   0.694 -1.1407  2.9429  1.9026
  403MOL0     H55607   8.902   5.375   0.868 -3.1071  0.8354 -0.8214
  403MOL0     H55608   9.137   5.333   0.821  0.4865 -0.6383  4.6408
  403MOL0     H55609   9.099   5.195   0.718  0.2328 -2.9945  1.6278
  403MOL0     H55610   9.121   4.990   1.064 -5.7242 -1.2007 -0.8011
  403MOL0     H55611   8.460   5.551   0.900 -1.9512  1.4728  1.1545
  403MOL0     H55612   8.163   5.513   1.023  0.5355 -0.2086 -1.4297
  403MOL0     H55613   8.244   5.565   1.164 -4.5535 -2.0586  0.1081
  403MOL0     H55614   8.304   5.626   0.997  1.0585 -2.5596 -1.5531
  404MOL0     O55615   1.575   3.119   2.962  0.1546  0.1728 -0.2400
  404MOL0     C55616   1.677   3.078   2.903  0.2224 -0.5129  0.1618
  404MOL0     O55617   1.719   2.949   2.903  0.2083  0.4903  0.0590
  404MOL0     C55618   1.647   2.856   2.976  0.4287 -0.1250  0.9162
  404MOL0     C55619   1.531   2.807   2.918  0.4394 -0.5343 -0.6405
  404MOL0     C55620   1.452   2.710   2.988 -0.9084  0.8809 -0.3032
  404MOL0     C55621   1.483   2.668   3.114  0.7952 -0.0151 -0.1008
  404MOL0     O55622   1.388   2.571   3.170  0.9235 -0.4571  0.0794
  404MOL0     C55623   1.419   2.513   3.303 -0.2330  1.1746  0.1877
  404MOL0     C55624   1.292   2.446   3.355  0.8671 -0.2748  0.2945
  404MOL0     C55625   1.304   2.383   3.491 -0.4780  0.3156  0.2123
  404MOL0     C55626   1.161   2.342   3.555 -0.0362 -0.0929  1.4260
  404MOL0     C55627   1.116   2.457   3.647  0.1754  0.1155  0.0383
  404MOL0     C55628   0.962   2.438   3.685  0.3787  0.4291 -0.5336
  404MOL0     C55629   0.914   2.290   3.732  0.1420  0.2414 -0.7797
  404MOL0     C55630   0.760   2.275   3.779 -1.0320 -0.7851 -0.8355
  404MOL0     N55631   0.684   2.207   3.667 -0.4345  0.6147  1.2835
  404MOL0     C55632   0.571   2.126   3.667  0.7604  0.0413 -0.2364
  404MOL0     C55633   0.515   2.126   3.547 -0.0525 -0.1707  0.6140
  404MOL0     C55634   0.394   2.046   3.520 -0.0537  0.9540  0.1131
  404MOL0     C55635   0.439   1.906   3.481 -0.7936  0.9089  0.7530
  404MOL0     C55636   0.332   1.830   3.404  0.3021  0.1903  0.3460
  404MOL0     C55637   0.211   1.793   3.495  0.3122 -0.5726  1.1258
  404MOL0     O55638   0.106   1.891   3.476 -0.0136 -0.2571  0.1333
  404MOL0     C55639  -0.018   1.844   3.478  0.6636  0.5426 -0.6698
  404MOL0     C55640  -0.066   1.772   3.587  0.5499 -0.7999 -0.3915
  404MOL0     C55641  -0.196   1.738   3.604 -0.0033 -0.6929 -0.3141
  404MOL0     C55642  -0.236   1.679   3.731 -0.2238 -0.2680  0.0540
  404MOL0     C55643  -0.287   1.779   3.506  0.8182 -0.0713 -0.5528
  404MOL0     C55644  -0.419   1.730   3.506 -0.6289  1.0058 -0.7359
  404MOL0     O55645  -0.512   1.820   3.478 -0.5147  0.4378 -0.4398
  404MOL0     C55646  -0.638   1.779   3.440 -1.7637  0.2284  0.0393
  404MOL0     C55647  -0.663   1.722   3.314  0.1791 -0.2317 -0.3139
  404MOL0     C55648  -0.796   1.705   3.269 -0.0062 -0.7537  0.3153
  404MOL0     C55649  -0.902   1.755   3.332 -0.1437 -0.9336 -0.1620
  404MOL0     O55650  -1.027   1.747   3.280 -0.1603 -0.6799 -0.2958
  404MOL0     C55651  -1.070   1.613   3.240 -0.1994  0.9373  0.4776
  404MOL0     C55652  -1.112   1.510   3.351 -0.9843 -0.5538  0.5820
  404MOL0     C55653  -1.180   1.384   3.302 -0.4575 -0.9208 -0.2210
  404MOL0     C55654  -1.209   1.307   3.430  0.0084  0.5388 -1.0616
  404MOL0     C55655  -1.280   1.179   3.389  0.7691 -0.2879 -0.4071
  404MOL0     C55656  -1.191   1.064   3.330  0.5729 -0.0347  0.0173
  404MOL0     C55657  -1.263   0.949   3.243 -0.2252 -0.6375 -0.3837
  404MOL0     C55658  -1.384   0.884   3.312  0.2857  0.1230  0.0064
  404MOL0    Cl55659  -1.461   0.760   3.205  0.3010 -0.8475 -0.4864
  404MOL0     C55660  -0.883   1.812   3.465  0.0785 -0.4184  0.2582
  404MOL0     C55661  -0.752   1.811   3.524  0.2776 -0.0228 -0.7236
  404MOL0     O55662  -0.450   1.617   3.549  0.3021  0.4904 -0.3598
  404MOL0     C55663  -0.238   1.863   3.403  1.2228  0.0051 -0.2992
  404MOL0     C55664  -0.109   1.896   3.381  0.3739  0.2358  0.5229
  404MOL0     N55665   0.610   2.191   3.469 -0.0985  0.0234  0.1653
  404MOL0     N55666   0.707   2.244   3.532  0.8397 -0.0181 -0.1617
  404MOL0     C55667   1.601   2.721   3.172 -0.8620  0.2146  0.3390
  404MOL0     C55668   1.685   2.807   3.106  0.1350 -0.2495  0.0736
  404MOL0     C55669   1.763   3.187   2.843  0.2295  0.3590  0.9021
  404MOL0     C55670   1.868   3.152   2.753 -0.6781  0.8040  0.0577
  404MOL0     C55671   1.953   3.245   2.711 -0.3762 -0.5808  0.2178
  404MOL0     C55672   1.949   3.379   2.748 -1.1117 -0.8030 -0.7185
  404MOL0     O55673   2.042   3.473   2.707  0.0348 -0.7552  0.6329
  404MOL0     C55674   2.024   3.521   2.575  0.2475 -1.0429 -0.8095
  404MOL0     C55675   1.948   3.655   2.585  0.3593  0.8043  1.4932
  404MOL0     C55676   2.021   3.750   2.669 -0.2340 -0.5685  0.7973
  404MOL0     C55677   1.941   3.882   2.685  0.2810 -1.1072 -0.4375
  404MOL0     C55678   2.009   3.966   2.785 -0.1927 -0.0842 -0.5149
  404MOL0     C55679   2.063   4.043   2.864 -0.6057  0.4664  0.7012
  404MOL0     C55680   1.854   3.416   2.841 -0.0118  0.4885 -0.4403
  404MOL0     C55681   1.758   3.323   2.887 -0.0376 -0.9860  0.8062
  404MOL0     C55682   1.666   3.380   2.997  0.6786 -0.2682 -0.2166
  404MOL0     H55683   1.499   2.835   2.818 -2.3576 -0.3599  0.2277
  404MOL0     H55684   1.357   2.670   2.954  0.5241 -4.1428  0.8347
  404MOL0     H55685   1.452   2.581   3.382  0.2263  0.4760  0.6160
  404MOL0     H55686   1.505   2.449   3.279 -0.4802  0.1788  1.8080
  404MOL0     H55687   1.227   2.534   3.357  1.6029  0.3416 -1.2986
  404MOL0     H55688   1.252   2.381   3.276 -0.9455  3.1626 -1.8774
  404MOL0     H55689   1.349   2.288   3.461 -3.2199 -1.3897  1.1414
  404MOL0     H55690   1.369   2.444   3.554  0.4584 -2.5037  2.1885
  404MOL0     H55691   1.105   2.319   3.463  1.0767  2.8023 -0.0854
  404MOL0     H55692   1.170   2.251   3.615 -1.9794 -1.4440 -0.1730
  404MOL0     H55693   1.131   2.553   3.597 -2.5266  1.0179  0.7993
  404MOL0     H55694   1.178   2.460   3.737 -0.5924  1.5096  0.5485
  404MOL0     H55695   0.941   2.505   3.769 -0.2764 -1.3318  0.7720
  404MOL0     H55696   0.901   2.463   3.598 -6.2943  4.4795  4.2769
  404MOL0     H55697   0.984   2.253   3.808 -1.1955  1.3011  1.0695
  404MOL0     H55698   0.919   2.220   3.648 -1.5913 -0.0358 -0.6875
  404MOL0     H55699   0.761   2.207   3.864  1.7915 -1.3375 -1.1917
  404MOL0     H55700   0.722   2.377   3.791  1.2018 -0.0400  0.5683
  404MOL0     H55701   0.530   2.085   3.759  1.5738  1.1079  0.6266
  404MOL0     H55702   0.354   2.087   3.428  2.1826  1.3026 -0.7689
  404MOL0     H55703   0.322   2.031   3.601  0.2032 -1.3041  0.0035
  404MOL0     H55704   0.529   1.901   3.420 -0.9751  0.6544  0.5081
  404MOL0     H55705   0.470   1.846   3.567 -1.3058  0.2419  0.4735
  404MOL0     H55706   0.287   1.888   3.322 -3.1205 -1.2548  1.0166
  404MOL0     H55707   0.379   1.748   3.350  2.1630  1.7021 -0.4275
  404MOL0     H55708   0.171   1.706   3.442  0.0597  0.5059 -0.5114
  404MOL0     H55709   0.231   1.772   3.601 -1.0882 -0.0432  1.5266
  404MOL0     H55710   0.004   1.744   3.665  0.6366 -0.2856 -0.2787
  404MOL0     H55711  -0.330   1.717   3.773 -0.7376 -2.0562  0.6363
  404MOL0     H55712  -0.164   1.706   3.809 -0.5402 -0.1983  0.3240
  404MOL0     H55713  -0.245   1.570   3.743 -0.1010 -0.1057  2.0642
  404MOL0     H55714  -0.585   1.703   3.242  0.9523  0.2901  0.3556
  404MOL0     H55715  -0.810   1.666   3.168 -1.6278  1.0201 -0.2025
  404MOL0     H55716  -1.160   1.626   3.179 -1.2753  1.0706  2.0369
  404MOL0     H55717  -1.003   1.571   3.165 -0.1566  1.0190  0.4699
  404MOL0     H55718  -1.020   1.480   3.402 -1.4680 -2.4491  0.3926
  404MOL0     H55719  -1.191   1.558   3.409  1.3281  0.8274  2.7869
  404MOL0     H55720  -1.117   1.327   3.233 -0.7548 -1.0774 -0.3671
  404MOL0     H55721  -1.273   1.407   3.248 -0.9528 -0.4495  0.8068
  404MOL0     H55722  -1.274   1.369   3.493  0.0939  1.1482 -1.5592
  404MOL0     H55723  -1.117   1.269   3.476 -0.0058  0.7030 -0.8966
  404MOL0     H55724  -1.340   1.139   3.471 -1.4068 -0.6158 -2.0756
  404MOL0     H55725  -1.350   1.212   3.312  0.5307  0.7968  0.2625
  404MOL0     H55726  -1.145   1.015   3.416 -2.7802 -0.2642  1.8404
  404MOL0     H55727  -1.122   1.099   3.252  2.2412 -3.0751 -0.0041
  404MOL0     H55728  -1.188   0.878   3.209  0.0647  1.4748 -4.9056
  404MOL0     H55729  -1.297   1.002   3.154  1.6146 -1.3833 -1.5725
  404MOL0     H55730  -1.453   0.965   3.340  2.0690  2.2227 -1.3727
  404MOL0     H55731  -1.342   0.831   3.398  2.3462 -1.9018 -2.1127
  404MOL0     H55732  -0.956   1.862   3.526  1.4891  0.1837  1.5081
  404MOL0     H55733  -0.743   1.844   3.627 -0.6112 -1.0944 -0.2728
  404MOL0     H55734  -0.311   1.882   3.324  1.9168  0.7836 -0.7762
  404MOL0     H55735  -0.062   1.947   3.298  0.2845  3.3389  2.2042
  404MOL0     H55736   1.640   2.683   3.266  2.2554  2.1470 -0.0126
  404MOL0     H55737   1.764   2.851   3.167 -2.7144  1.3816  2.8646
  404MOL0     H55738   1.877   3.053   2.710  2.1803  1.8977 -2.1707
  404MOL0     H55739   2.037   3.233   2.643 -0.9582  2.3749 -1.1500
  404MOL0     H55740   2.123   3.537   2.532 -0.3520 -1.2395 -2.3228
  404MOL0     H55741   1.973   3.451   2.508  1.1541 -1.6552 -0.8689
  404MOL0     H55742   1.846   3.625   2.614  0.7175 -4.1757 -1.2865
  404MOL0     H55743   1.937   3.694   2.483  0.2089 -1.6827  0.4849
  404MOL0     H55744   2.048   3.707   2.766 -0.6807 -0.5736  0.9189
  404MOL0     H55745   2.111   3.773   2.611 -0.3133  2.3578  1.6649
  404MOL0     H55746   1.839   3.872   2.724  0.4148  2.0441  1.0238
  404MOL0     H55747   1.939   3.930   2.587  1.6589 -1.1143 -0.4875
  404MOL0     H55748   2.116   4.106   2.931 -2.9644  2.4452  0.8592
  404MOL0     H55749   1.855   3.519   2.873 -1.6083  0.4474 -0.1719
  404MOL0     H55750   1.695   3.484   3.016 -1.6071  0.3310  0.4015
  404MOL0     H55751   1.558   3.388   2.977  1.1414  3.3914 -2.2566
  404MOL0     H55752   1.692   3.335   3.093 -4.0586  3.6674  3.4092
  405MOL0     O55753   3.104   0.680   0.981  0.1503 -0.2854  0.2094
  405MOL0     C55754   3.082   0.598   0.881 -1.1900  0.7116 -1.0253
  405MOL0     O55755   3.026   0.476   0.892 -1.0063 -0.2091 -0.2175
  405MOL0     C55756   3.014   0.417   1.018 -0.3064 -0.0587  0.8421
  405MOL0     C55757   3.111   0.313   1.058 -0.8056 -0.0398  0.1014
  405MOL0     C55758   3.090   0.240   1.178 -0.1330  1.0334 -1.0643
  405MOL0     C55759   2.961   0.250   1.244 -0.2265  0.5539 -0.1033
  405MOL0     O55760   2.929   0.152   1.327  0.3998  0.1983  0.3475
  405MOL0     C55761   2.859   0.186   1.448 -0.4296  0.0998 -0.5319
  405MOL0     C55762   2.958   0.149   1.557  0.0384  0.5582  0.4492
  405MOL0     C55763   2.929   0.210   1.698 -0.0164  0.1574 -0.5679
  405MOL0     C55764   3.052   0.211   1.794  0.4753  0.2002  0.5618
  405MOL0     C55765   3.090   0.068   1.837 -0.5078  0.9522 -0.0172
  405MOL0     C55766   2.978  -0.043   1.866  0.2628  0.4827  0.2084
  405MOL0     C55767   3.050  -0.174   1.912  0.3610  0.2232  0.5789
  405MOL0     C55768   2.955  -0.296   1.939 -0.3149 -0.1768 -0.6302
  405MOL0     N55769   3.034  -0.407   1.997  0.2691 -0.6476  0.2273
  405MOL0     C55770   3.149  -0.463   1.948 -0.2092 -0.1445 -0.6778
  405MOL0     C55771   3.180  -0.563   2.031 -0.0067  0.7566 -0.0803
  405MOL0     C55772   3.298  -0.656   2.006 -0.1468  0.5609  0.3259
  405MOL0     C55773   3.273  -0.738   1.880  0.0778  0.1819 -0.6432
  405MOL0     C55774   3.138  -0.814   1.866 -0.2372 -0.6680 -0.5310
  405MOL0     C55775   3.134  -0.923   1.761 -0.6911 -0.5600 -0.2181
  405MOL0     O55776   3.013  -0.995   1.765 -0.5152  0.2341  0.0340
  405MOL0     C55777   2.992  -1.105   1.678  0.0562  0.0375  0.1382
  405MOL0     C55778   3.075  -1.149   1.567  0.6589  0.0332  0.4037
  405MOL0     C55779   3.039  -1.262   1.487 -0.3637 -0.6239  1.0492
  405MOL0     C55780   3.133  -1.306   1.373  0.7151  0.3276 -0.7410
  405MOL0     C55781   2.920  -1.331   1.520  0.5179 -0.2101  0.3202
  405MOL0     C55782   2.864  -1.444   1.440  0.3929 -0.5584  0.6766
  405MOL0     O55783   2.789  -1.531   1.520 -0.8222 -0.1539  0.2926
  405MOL0     C55784   2.756  -1.645   1.454  0.4444 -0.2155  0.3419
  405MOL0     C55785   2.628  -1.656   1.409 -0.8334 -0.0511 -0.1859
  405MOL0     C55786   2.581  -1.759   1.327  0.2740  0.2120  0.3197
  405MOL0     C55787   2.678  -1.855   1.286 -0.1721 -0.8699  0.3204
  405MOL0     O55788   2.659  -1.954   1.193  0.3902  0.0677 -0.4022
  405MOL0     C55789   2.552  -1.944   1.089  0.2666  0.4521  0.0353
  405MOL0     C55790   2.430  -2.032   1.098 -0.7335 -0.3041 -0.6588
  405MOL0     C55791   2.471  -2.174   1.056  0.0330 -0.2817  0.0979
  405MOL0     C55792   2.344  -2.261   1.078 -0.2544  0.6478  0.0118
  405MOL0     C55793   2.375  -2.411   1.050  0.1124  0.4165 -0.1500
  405MOL0     C55794   2.412  -2.462   0.906  0.1771  0.6063  0.8240
  405MOL0     C55795   2.296  -2.412   0.819 -0.2604 -0.2926 -0.1401
  405MOL0     C55796   2.296  -2.438   0.669 -0.1370 -0.2041  0.4392
  405MOL0    Cl55797   2.381  -2.591   0.634  0.1243  0.1811 -0.3603
  405MOL0     C55798   2.810  -1.852   1.338 -0.0095 -0.4329 -0.2223
  405MOL0     C55799   2.842  -1.748   1.429 -0.3203 -0.3768 -0.1536
  405MOL0     O55800   2.887  -1.454   1.319  0.2788 -0.3206 -0.7374
  405MOL0     C55801   2.835  -1.283   1.619 -0.1623 -0.1599 -0.5377
  405MOL0     C55802   2.865  -1.164   1.691  0.5296 -0.1106 -0.1368
  405MOL0     N55803   3.083  -0.575   2.130 -0.5440  0.6689 -0.0740
  405MOL0     N55804   2.995  -0.487   2.099 -0.1033  0.7900  0.4687
  405MOL0     C55805   2.875   0.353   1.207 -0.8517 -0.0511  0.9805
  405MOL0     C55806   2.897   0.433   1.100  0.6139  0.5005  0.5513
  405MOL0     C55807   3.126   0.628   0.752 -0.6241  0.3197 -0.6900
  405MOL0     C55808   3.182   0.526   0.678  0.2695  0.1146 -0.2147
  405MOL0     C55809   3.222   0.546   0.549 -0.2247  0.0260  0.4657
  405MOL0     C55810   3.221   0.671   0.484  0.3932  0.3644 -1.3977
  405MOL0     O55811   3.278   0.688   0.364  0.0769  0.0436 -0.7341
  405MOL0     C55812   3.255   0.794   0.274 -1.1286  0.4063  0.0919
  405MOL0     C55813   3.364   0.902   0.275 -0.9730  0.0371 -0.1565
  405MOL0     C55814   3.503   0.845   0.256  0.3173  1.3332  0.6651
  405MOL0     C55815   3.506   0.753   0.135  0.5755 -0.9453 -0.2908
  405MOL0     C55816   3.643   0.731   0.093 -0.0085  0.0746  0.7896
  405MOL0     C55817   3.751   0.707   0.041 -0.1828  0.6018 -0.7837
  405MOL0     C55818   3.174   0.776   0.562 -0.0409  0.5858 -0.6978
  405MOL0     C55819   3.123   0.760   0.690  0.1707 -0.5249  0.4162
  405MOL0     C55820   3.052   0.869   0.762  0.1470  0.1482  0.3570
  405MOL0     H55821   3.189   0.283   0.989 -1.4421 -2.2864  0.2818
  405MOL0     H55822   3.150   0.150   1.192 -3.2142 -1.1314 -0.8216
  405MOL0     H55823   2.765   0.132   1.463  0.6250 -1.4512  0.7525
  405MOL0     H55824   2.845   0.295   1.450  1.2900  0.3333  1.4702
  405MOL0     H55825   2.966   0.040   1.561 -1.8060  0.1717 -2.7196
  405MOL0     H55826   3.060   0.180   1.533 -0.3839 -0.7342 -3.9739
  405MOL0     H55827   2.898   0.315   1.698 -1.2230 -0.1806 -0.0139
  405MOL0     H55828   2.841   0.158   1.735 -1.3430  1.1991 -2.1314
  405MOL0     H55829   3.137   0.258   1.744  2.2341 -2.5829  0.6732
  405MOL0     H55830   3.025   0.275   1.878  2.4318  5.6423 -2.4859
  405MOL0     H55831   3.137   0.071   1.936 -0.7881 -0.2840  0.1714
  405MOL0     H55832   3.146   0.023   1.754 -2.0093  0.9792 -1.0857
  405MOL0     H55833   2.906  -0.010   1.941  0.0983 -0.6476  0.5682
  405MOL0     H55834   2.914  -0.063   1.780 -1.5744 -1.1447  1.8601
  405MOL0     H55835   3.096  -0.171   2.011  0.3094  2.8932  0.5761
  405MOL0     H55836   3.128  -0.205   1.842 -1.5139 -3.0759 -0.2755
  405MOL0     H55837   2.873  -0.263   2.004  1.6468  2.6350  0.6174
  405MOL0     H55838   2.913  -0.331   1.844  3.3895  1.0921 -2.9200
  405MOL0     H55839   3.206  -0.438   1.859  0.0876  1.8299  0.0263
  405MOL0     H55840   3.314  -0.727   2.088 -2.6652 -1.2447 -0.6307
  405MOL0     H55841   3.386  -0.599   1.975  0.3523  0.1358  0.9488
  405MOL0     H55842   3.289  -0.668   1.797  1.6432  1.1510  0.4245
  405MOL0     H55843   3.352  -0.814   1.879 -0.0526  0.0447 -1.8062
  405MOL0     H55844   3.126  -0.860   1.965 -1.4733 -0.2718 -0.4779
  405MOL0     H55845   3.048  -0.751   1.863 -0.2507 -0.7280 -1.5224
  405MOL0     H55846   3.151  -0.865   1.670 -0.0463  0.9422  0.8039
  405MOL0     H55847   3.218  -0.993   1.762 -0.1035 -0.2773 -5.1296
  405MOL0     H55848   3.164  -1.089   1.547  2.2769 -0.9246  3.9411
  405MOL0     H55849   3.096  -1.265   1.278  0.2945 -1.3888 -1.3447
  405MOL0     H55850   3.129  -1.414   1.385  4.8197 -0.0082 -0.9735
  405MOL0     H55851   3.233  -1.273   1.403  0.4457  0.6229 -0.1582
  405MOL0     H55852   2.568  -1.572   1.442 -1.0451  0.1743 -1.1183
  405MOL0     H55853   2.480  -1.769   1.291  0.1802  2.1160 -0.0319
  405MOL0     H55854   2.509  -1.843   1.086  0.0035  0.3994 -4.4331
  405MOL0     H55855   2.590  -1.955   0.987  1.8424 -0.4598  0.6779
  405MOL0     H55856   2.396  -2.024   1.202 -3.2457 -1.0218 -1.3743
  405MOL0     H55857   2.352  -1.991   1.033  1.1372  4.9750 -0.0925
  405MOL0     H55858   2.556  -2.223   1.104  2.0407  0.5660 -2.3618
  405MOL0     H55859   2.500  -2.173   0.951 -0.5015 -1.6214 -0.0814
  405MOL0     H55860   2.253  -2.233   1.023 -0.9241 -1.1031  0.1626
  405MOL0     H55861   2.327  -2.232   1.182  0.4884  0.8171  0.0897
  405MOL0     H55862   2.465  -2.443   1.104  1.1212  0.9060 -1.4702
  405MOL0     H55863   2.291  -2.473   1.083  0.8661 -1.1163 -0.9643
  405MOL0     H55864   2.414  -2.571   0.913  0.7189  0.5180 -0.3717
  405MOL0     H55865   2.509  -2.439   0.860  0.7893 -2.5293  0.3086
  405MOL0     H55866   2.297  -2.303   0.835 -2.5806 -0.5835  2.7991
  405MOL0     H55867   2.207  -2.453   0.867 -1.2963 -0.0107 -1.7504
  405MOL0     H55868   2.346  -2.352   0.624 -2.3203  0.9396  0.0757
  405MOL0     H55869   2.192  -2.439   0.636  0.2131  2.3546 -0.9638
  405MOL0     H55870   2.889  -1.921   1.308  0.0415 -1.2408  1.6147
  405MOL0     H55871   2.937  -1.753   1.480 -0.7682 -1.5552  0.6055
  405MOL0     H55872   2.738  -1.328   1.639 -0.7296  1.6278  1.0242
  405MOL0     H55873   2.792  -1.126   1.761  0.0479  1.7811 -1.5947
  405MOL0     H55874   2.776   0.365   1.249 -2.0271 -0.4058 -1.5260
  405MOL0     H55875   2.819   0.505   1.077  0.0503 -0.3702 -0.2826
  405MOL0     H55876   3.195   0.424   0.714  2.3447  0.5318  0.3226
  405MOL0     H55877   3.269   0.461   0.501  3.4633  3.0386 -1.8465
  405MOL0     H55878   3.245   0.751   0.174  1.1807  1.0233 -0.4462
  405MOL0     H55879   3.166   0.857   0.288 -0.4554  1.3593  0.1197
  405MOL0     H55880   3.366   0.960   0.368  2.5657 -0.6793  0.3617
  405MOL0     H55881   3.348   0.982   0.202  0.1745  0.1677 -0.2764
  405MOL0     H55882   3.569   0.929   0.231  5.3273 -2.6087 -1.1264
  405MOL0     H55883   3.543   0.799   0.347  0.5203  2.3072  1.0782
  405MOL0     H55884   3.442   0.790   0.054 -1.8701  0.1676  2.0022
  405MOL0     H55885   3.471   0.654   0.167  0.9616 -0.8983  0.2950
  405MOL0     H55886   3.846   0.681  -0.003  0.3964 -2.0067  1.6947
  405MOL0     H55887   3.173   0.870   0.508 -0.3298  0.6413 -0.5947
  405MOL0     H55888   3.133   0.931   0.801  0.8511 -1.6608  1.9454
  405MOL0     H55889   2.988   0.914   0.685 -0.2019  2.2969  1.7842
  405MOL0     H55890   2.994   0.840   0.850  0.3910 -3.8652 -0.6187
  406MOL0     O55891   7.669   0.527   1.929 -0.1348  0.2939 -0.5739
  406MOL0     C55892   7.697   0.647   1.902 -0.2893  0.2188 -0.4379
  406MOL0     O55893   7.607   0.757   1.924  0.4054  0.3229 -1.0988
  406MOL0     C55894   7.487   0.737   1.982 -0.3388  0.3915 -0.5630
  406MOL0     C55895   7.493   0.725   2.121  0.3373 -0.9491 -0.4573
  406MOL0     C55896   7.370   0.712   2.187  0.8569 -0.6281 -0.4988
  406MOL0     C55897   7.252   0.713   2.105  0.9392 -0.6653 -1.1010
  406MOL0     O55898   7.133   0.706   2.173  0.3394  0.1790 -0.6966
  406MOL0     C55899   7.092   0.572   2.220 -0.2962  1.2027 -0.7928
  406MOL0     C55900   6.960   0.591   2.299  0.0425  0.0572 -0.5667
  406MOL0     C55901   6.931   0.732   2.367  0.0849 -0.8158 -0.2621
  406MOL0     C55902   7.021   0.765   2.499 -0.0054 -0.3114  0.3470
  406MOL0     C55903   6.975   0.906   2.553  0.0463 -0.0865 -0.5272
  406MOL0     C55904   7.067   0.932   2.668  0.9862  0.7861 -0.2593
  406MOL0     C55905   7.197   1.000   2.620 -0.2847  0.0384 -1.3556
  406MOL0     C55906   7.311   0.972   2.730  0.1711  0.1949 -0.3593
  406MOL0     N55907   7.365   0.838   2.723 -0.7944  0.2667 -0.4485
  406MOL0     C55908   7.382   0.749   2.831  0.5760  0.0425  0.1025
  406MOL0     C55909   7.444   0.649   2.777 -0.6081  0.5109 -0.9638
  406MOL0     C55910   7.476   0.517   2.846  0.1781  0.2426  0.2473
  406MOL0     C55911   7.608   0.510   2.915  0.1044 -0.0149  0.1654
  406MOL0     C55912   7.664   0.616   3.004 -0.5391  0.4519 -0.0212
  406MOL0     C55913   7.746   0.570   3.126 -0.5190  1.5951  0.1010
  406MOL0     O55914   7.663   0.541   3.233  0.0064  0.3450  0.2708
  406MOL0     C55915   7.697   0.436   3.318  0.1086 -0.3548  0.6940
  406MOL0     C55916   7.770   0.450   3.433  0.4826 -0.2392 -0.1541
  406MOL0     C55917   7.793   0.336   3.515  0.0108  0.3939  0.0882
  406MOL0     C55918   7.870   0.356   3.643 -0.2726 -0.3307  0.1830
  406MOL0     C55919   7.748   0.205   3.471 -0.0846 -1.6268  0.5309
  406MOL0     C55920   7.783   0.081   3.540  0.2336 -0.5579  0.3432
  406MOL0     O55921   7.674  -0.008   3.556 -0.6939  0.0140  0.8681
  406MOL0     C55922   7.694  -0.111   3.649  1.0811  0.9347  0.0466
  406MOL0     C55923   7.692  -0.083   3.789 -0.3207 -0.3857 -0.4135
  406MOL0     C55924   7.705  -0.191   3.889 -0.5142  0.3895 -0.0547
  406MOL0     C55925   7.716  -0.321   3.843 -0.2007  0.8097  0.0124
  406MOL0     O55926   7.714  -0.420   3.942  0.3507 -0.2966  0.2580
  406MOL0     C55927   7.821  -0.515   3.938  0.4052  0.3925  0.3357
  406MOL0     C55928   7.825  -0.596   4.066  0.3124  0.1822 -0.4302
  406MOL0     C55929   7.823  -0.502   4.190  1.2900  0.5588  0.4447
  406MOL0     C55930   7.926  -0.397   4.172 -0.3872 -0.2785 -0.1154
  406MOL0     C55931   7.923  -0.324   4.301 -0.7483 -1.1992 -0.1673
  406MOL0     C55932   8.029  -0.210   4.299 -0.2226 -0.4930  0.5744
  406MOL0     C55933   8.029  -0.134   4.431 -0.2343  0.8410 -0.7506
  406MOL0     C55934   8.134  -0.024   4.435  0.4612 -0.3423  0.1230
  406MOL0    Cl55935   8.148   0.018   4.613  0.5544 -1.1471 -0.0162
  406MOL0     C55936   7.716  -0.347   3.698 -0.2145  0.3746  0.3625
  406MOL0     C55937   7.705  -0.243   3.597 -0.1227  1.0303 -0.1969
  406MOL0     O55938   7.898   0.064   3.590  0.6056  1.0083 -0.5477
  406MOL0     C55939   7.673   0.194   3.357 -1.0686  0.2485 -0.2607
  406MOL0     C55940   7.655   0.307   3.284 -0.2598  0.0957  0.5472
  406MOL0     N55941   7.475   0.674   2.646  0.2644  0.5559  0.0819
  406MOL0     N55942   7.426   0.787   2.616  0.4453 -0.3610  0.4245
  406MOL0     C55943   7.254   0.720   1.971 -0.1539 -0.7231  0.4070
  406MOL0     C55944   7.370   0.731   1.909 -0.5973  0.1605 -0.5718
  406MOL0     C55945   7.843   0.675   1.861 -0.4325  0.1514 -0.6326
  406MOL0     C55946   7.943   0.575   1.897  0.0211 -0.8942  0.3181
  406MOL0     C55947   8.071   0.613   1.887  0.1037 -0.4643 -0.1721
  406MOL0     C55948   8.118   0.726   1.828 -0.1779 -0.0455 -0.2357
  406MOL0     O55949   8.258   0.748   1.824  0.3354  0.6067 -0.1402
  406MOL0     C55950   8.306   0.851   1.733  0.2357 -0.4891  0.7219
  406MOL0     C55951   8.456   0.848   1.707  0.5119 -0.6676  0.0580
  406MOL0     C55952   8.500   0.712   1.650 -0.4515 -0.0697 -1.3074
  406MOL0     C55953   8.644   0.717   1.626  0.4368 -0.1432 -1.3618
  406MOL0     C55954   8.732   0.693   1.745  0.2470  0.3535  0.8592
  406MOL0     C55955   8.803   0.678   1.836 -0.7398  0.9226  0.2989
  406MOL0     C55956   8.029   0.813   1.778 -0.8353  0.2209  0.0463
  406MOL0     C55957   7.887   0.799   1.806 -0.3215 -0.1223 -0.0920
  406MOL0     C55958   7.788   0.882   1.739  1.0535  0.3586  0.1993
  406MOL0     H55959   7.591   0.733   2.167  1.2179 -2.4053 -1.9419
  406MOL0     H55960   7.352   0.704   2.293 -0.6260 -0.4373 -0.7211
  406MOL0     H55961   7.168   0.538   2.292 -1.5968 -0.2388 -0.0258
  406MOL0     H55962   7.064   0.495   2.148 -1.6627  1.6887 -0.8091
  406MOL0     H55963   6.891   0.581   2.214 -2.3696 -1.7282  1.4519
  406MOL0     H55964   6.930   0.513   2.369 -0.4027 -0.0312 -0.8505
  406MOL0     H55965   6.937   0.816   2.296  0.0072 -2.0336 -1.7768
  406MOL0     H55966   6.824   0.737   2.389  0.5079 -0.1979  1.8125
  406MOL0     H55967   7.016   0.687   2.575  3.6864 -0.3107  0.7754
  406MOL0     H55968   7.130   0.767   2.488 -0.0353  1.9952  0.1678
  406MOL0     H55969   6.871   0.898   2.586 -0.1191 -1.4354 -1.3056
  406MOL0     H55970   6.980   0.977   2.470 -0.2332  0.6650  0.0957
  406MOL0     H55971   7.031   1.007   2.739 -0.0365 -1.1679  1.4094
  406MOL0     H55972   7.073   0.841   2.729 -0.2638  0.2632 -0.8721
  406MOL0     H55973   7.190   1.109   2.620 -3.5661 -0.0108  1.3327
  406MOL0     H55974   7.245   0.961   2.530  0.4159 -0.0949 -0.9353
  406MOL0     H55975   7.391   1.047   2.734  0.1784  0.1380  0.9800
  406MOL0     H55976   7.265   0.978   2.829  0.1396  1.4319 -0.4281
  406MOL0     H55977   7.349   0.748   2.935 -2.9593 -3.4603 -0.8060
  406MOL0     H55978   7.461   0.440   2.770  1.6580 -1.0463  1.2002
  406MOL0     H55979   7.394   0.502   2.917 -0.5151  0.8842 -0.4073
  406MOL0     H55980   7.615   0.415   2.971  0.3857  1.3525  2.6098
  406MOL0     H55981   7.678   0.510   2.831  1.5248 -1.3667  1.2799
  406MOL0     H55982   7.724   0.684   2.944  1.7290  1.0520  2.7149
  406MOL0     H55983   7.574   0.665   3.041 -0.4280  1.1032 -0.6016
  406MOL0     H55984   7.817   0.490   3.104 -1.0927  0.8338  0.9258
  406MOL0     H55985   7.812   0.651   3.158 -0.2605  2.3254 -2.1187
  406MOL0     H55986   7.816   0.547   3.451  1.0938 -0.1639 -1.9915
  406MOL0     H55987   7.819   0.300   3.722 -1.7902  0.2105 -0.3630
  406MOL0     H55988   7.888   0.461   3.670  1.3355 -0.5262 -0.0285
  406MOL0     H55989   7.972   0.319   3.633 -0.0224  0.5068 -0.5172
  406MOL0     H55990   7.687   0.020   3.823  1.2314 -0.3300 -0.2847
  406MOL0     H55991   7.696  -0.163   3.994  1.1667 -1.8990  0.7924
  406MOL0     H55992   7.801  -0.582   3.853 -1.3602 -0.3527  1.2803
  406MOL0     H55993   7.911  -0.455   3.922 -1.4436  2.6304 -2.7618
  406MOL0     H55994   7.737  -0.661   4.072  1.3200 -1.2972 -1.1083
  406MOL0     H55995   7.910  -0.664   4.071  0.8031  0.7268 -1.2016
  406MOL0     H55996   7.853  -0.571   4.270  1.7142 -0.5116 -0.6086
  406MOL0     H55997   7.725  -0.457   4.211  1.2324  0.9107 -0.5273
  406MOL0     H55998   7.921  -0.319   4.096  1.9086  0.8000  0.7531
  406MOL0     H55999   8.020  -0.451   4.154 -0.2864 -0.3167  0.5067
  406MOL0     H56000   7.829  -0.272   4.322  1.4604  3.2024 -0.0454
  406MOL0     H56001   7.938  -0.387   4.388  1.0298 -0.6612 -0.0501
  406MOL0     H56002   8.003  -0.134   4.225 -0.4536  0.8236  1.9795
  406MOL0     H56003   8.127  -0.257   4.284 -0.6947 -1.0114 -1.2594
  406MOL0     H56004   8.055  -0.204   4.511 -0.6153  0.1556 -1.2106
  406MOL0     H56005   7.929  -0.090   4.444  0.3385  1.2246  3.7032
  406MOL0     H56006   8.095   0.067   4.388 -0.3994 -0.4390  0.6295
  406MOL0     H56007   8.228  -0.063   4.394 -1.0267 -2.5435 -1.4512
  406MOL0     H56008   7.716  -0.450   3.665 -0.5120 -0.8187  3.7063
  406MOL0     H56009   7.696  -0.267   3.491 -2.4534  2.8572 -0.4935
  406MOL0     H56010   7.645   0.098   3.315  1.9826 -1.1016  0.4623
  406MOL0     H56011   7.577   0.310   3.209 -3.3317 -3.4172  3.1914
  406MOL0     H56012   7.164   0.727   1.910  1.3884  0.6264 -1.8924
  406MOL0     H56013   7.374   0.729   1.801  0.4874 -1.4378 -0.5346
  406MOL0     H56014   7.923   0.470   1.918 -0.4728 -0.7116  0.7764
  406MOL0     H56015   8.149   0.544   1.918 -0.4647 -1.3268 -0.6347
  406MOL0     H56016   8.255   0.858   1.636 -0.1023 -1.1312  0.8444
  406MOL0     H56017   8.285   0.943   1.788 -1.5448 -1.4246  1.6982
  406MOL0     H56018   8.500   0.875   1.804 -3.2543 -0.3042  1.8448
  406MOL0     H56019   8.490   0.921   1.632  2.7943 -0.6549  1.0191
  406MOL0     H56020   8.464   0.624   1.704 -0.7789  0.5729 -0.4401
  406MOL0     H56021   8.457   0.720   1.550  0.0187  2.7282 -1.3527
  406MOL0     H56022   8.676   0.808   1.575  3.1288  0.1096  0.5359
  406MOL0     H56023   8.653   0.627   1.564  0.6947 -1.1043  0.0106
  406MOL0     H56024   8.873   0.646   1.911  0.3127  0.9218 -0.6510
  406MOL0     H56025   8.061   0.900   1.721 -2.7685  3.1410  3.0612
  406MOL0     H56026   7.732   0.940   1.813  2.0865  4.7080 -2.0457
  406MOL0     H56027   7.834   0.953   1.669 -0.0302 -0.8848 -1.8670
  406MOL0     H56028   7.717   0.824   1.680  1.8009  1.7899 -2.2553
  407MOL0     O56029   8.139   9.208   8.799  0.4838  0.0708  0.3406
  407MOL0     C56030   8.239   9.152   8.764 -0.3446 -0.1193  0.0381
  407MOL0     O56031   8.246   9.064   8.662  1.3898  0.1913 -0.3629
  407MOL0     C56032   8.133   8.980   8.645 -0.0157  0.3134 -0.3509
  407MOL0     C56033   8.132   8.914   8.526 -0.1158  0.2110 -0.1217
  407MOL0     C56034   8.031   8.824   8.487 -0.6159  0.2965 -0.0131
  407MOL0     C56035   7.923   8.795   8.574 -0.5889  0.4840  0.4278
  407MOL0     O56036   7.816   8.707   8.549  0.6985  0.3042 -1.2879
  407MOL0     C56037   7.858   8.582   8.497  0.8476 -0.3482  0.0865
  407MOL0     C56038   7.906   8.477   8.605 -0.9015 -0.2462  0.0660
  407MOL0     C56039   7.799   8.444   8.703  0.6725  0.0169 -0.2069
  407MOL0     C56040   7.771   8.548   8.816 -1.8851  0.2445  0.0275
  407MOL0     C56041   7.899   8.586   8.903  0.2016 -0.5881  0.5261
  407MOL0     C56042   7.980   8.475   8.979  1.4393  0.1608  0.1423
  407MOL0     C56043   7.890   8.388   9.061  1.0953 -0.3146 -0.1276
  407MOL0     C56044   7.965   8.283   9.134  0.3522 -0.0556 -0.0741
  407MOL0     N56045   7.995   8.322   9.274 -0.2460 -0.4000  0.1171
  407MOL0     C56046   8.119   8.367   9.307  0.6284 -0.0354 -0.1744
  407MOL0     C56047   8.113   8.371   9.444 -0.5159  0.2730  0.0558
  407MOL0     C56048   8.229   8.413   9.525 -0.0668 -1.2633  0.2745
  407MOL0     C56049   8.284   8.281   9.592 -0.6087 -0.0064 -0.3969
  407MOL0     C56050   8.417   8.320   9.673 -0.3758 -0.7864  0.6322
  407MOL0     C56051   8.541   8.301   9.579  0.3063 -0.2397  0.2768
  407MOL0     O56052   8.531   8.360   9.450  0.5491 -0.0852 -0.1504
  407MOL0     C56053   8.492   8.299   9.336  0.3783  0.1794 -0.6406
  407MOL0     C56054   8.466   8.384   9.231  0.1750 -0.6051  0.6200
  407MOL0     C56055   8.431   8.325   9.099 -0.1144 -0.2191 -0.4631
  407MOL0     C56056   8.403   8.415   8.983  0.9515  0.0496  0.7694
  407MOL0     C56057   8.438   8.183   9.087 -1.2163  0.0806 -0.5364
  407MOL0     C56058   8.435   8.118   8.957  0.7267  0.4846 -0.2188
  407MOL0     O56059   8.479   7.987   8.953 -0.0514 -0.4625  0.6341
  407MOL0     C56060   8.610   7.973   8.973  0.0272  0.2998  0.8263
  407MOL0     C56061   8.719   8.058   8.946  0.6026  0.4372  0.5420
  407MOL0     C56062   8.846   8.017   8.972 -0.2475 -0.4127 -0.0721
  407MOL0     C56063   8.871   7.901   9.038  1.5437  0.3380  0.0597
  407MOL0     O56064   8.995   7.881   9.087 -0.3912  0.0241 -0.0580
  407MOL0     C56065   9.016   7.922   9.221 -0.7879 -0.3476 -0.6129
  407MOL0     C56066   9.121   7.848   9.293 -0.6414 -0.3266 -0.4106
  407MOL0     C56067   9.138   7.894   9.441  0.7186 -0.0216 -0.4103
  407MOL0     C56068   9.227   7.792   9.531 -0.3205  0.2605  0.2050
  407MOL0     C56069   9.256   7.839   9.674 -0.8012  0.1832 -0.1910
  407MOL0     C56070   9.121   7.856   9.747  0.9066 -0.5705  0.3952
  407MOL0     C56071   9.150   7.869   9.898  0.0658  0.4360 -0.3851
  407MOL0     C56072   9.226   7.996   9.937 -1.0091 -0.0231  0.9601
  407MOL0    Cl56073   9.238   8.007  10.112  0.0006  0.3396  0.0428
  407MOL0     C56074   8.773   7.808   9.061  0.1571  0.4397  0.3288
  407MOL0     C56075   8.643   7.848   9.022 -0.1210  0.4189  0.4041
  407MOL0     O56076   8.390   8.171   8.858 -0.4374  0.3205 -0.7159
  407MOL0     C56077   8.457   8.104   9.201 -0.2859  0.4522 -0.0139
  407MOL0     C56078   8.479   8.166   9.324 -0.7131  0.4956  0.1399
  407MOL0     N56079   7.990   8.341   9.489 -0.4332  0.4474  0.7018
  407MOL0     N56080   7.918   8.304   9.388  0.1545 -0.0538 -0.0852
  407MOL0     C56081   7.933   8.861   8.696 -1.0903 -0.2837  0.1847
  407MOL0     C56082   8.041   8.941   8.741 -0.3043  0.2809  0.6298
  407MOL0     C56083   8.377   9.208   8.807  0.4743  0.1464  0.6645
  407MOL0     C56084   8.469   9.222   8.706  0.5740 -0.4424 -0.4445
  407MOL0     C56085   8.595   9.281   8.745 -0.3673  0.6272  0.8791
  407MOL0     C56086   8.627   9.307   8.885 -1.0741 -0.1392  0.2055
  407MOL0     O56087   8.756   9.357   8.904 -0.1138 -0.4799 -0.5153
  407MOL0     C56088   8.762   9.469   8.989 -0.1399 -0.3486  0.1862
  407MOL0     C56089   8.902   9.529   9.000  0.0139 -1.2729  0.1951
  407MOL0     C56090   8.898   9.665   9.079 -0.0431  0.5294 -0.4600
  407MOL0     C56091   9.014   9.763   9.036 -0.5624 -0.4356  0.4157
  407MOL0     C56092   9.003   9.823   8.899 -0.4300  0.3927  0.5344
  407MOL0     C56093   8.965   9.848   8.786  0.5355  0.6262 -0.0854
  407MOL0     C56094   8.530   9.289   8.981 -1.0056 -0.3576  0.4311
  407MOL0     C56095   8.411   9.242   8.944 -0.4836  0.8289 -0.6180
  407MOL0     C56096   8.315   9.199   9.052 -0.1545  0.3155 -0.6385
  407MOL0     H56097   8.212   8.929   8.454  0.3410  1.3720  0.6151
  407MOL0     H56098   8.034   8.771   8.393 -0.3584 -0.8363  0.6130
  407MOL0     H56099   7.941   8.589   8.426 -0.8473 -0.4711 -1.9988
  407MOL0     H56100   7.774   8.531   8.449  0.4541  0.0588  0.3317
  407MOL0     H56101   7.934   8.381   8.560 -0.1360 -0.2365  0.4993
  407MOL0     H56102   7.993   8.522   8.655 -2.4617  1.1809  1.6423
  407MOL0     H56103   7.705   8.433   8.648  1.3577  3.3248 -2.2971
  407MOL0     H56104   7.824   8.349   8.751  1.8392  0.7432  0.6702
  407MOL0     H56105   7.732   8.636   8.764 -2.8322 -1.7342 -2.8756
  407MOL0     H56106   7.697   8.511   8.888 -1.4358 -1.9694 -0.5816
  407MOL0     H56107   7.866   8.661   8.976 -0.9051  1.6684 -2.0867
  407MOL0     H56108   7.961   8.640   8.830 -0.8158 -1.7186 -1.2649
  407MOL0     H56109   8.038   8.423   8.902  0.1174  2.2265 -2.4379
  407MOL0     H56110   8.042   8.529   9.051 -3.2385  3.3361  2.3634
  407MOL0     H56111   7.827   8.323   9.000 -0.0533 -0.3724  1.0797
  407MOL0     H56112   7.820   8.424   9.136  0.3619 -6.0676  2.5033
  407MOL0     H56113   7.905   8.191   9.131  0.6944 -0.3794  1.7374
  407MOL0     H56114   8.052   8.246   9.079  0.7991 -0.4201  0.8494
  407MOL0     H56115   8.201   8.398   9.244  2.6118  0.5298  2.4908
  407MOL0     H56116   8.199   8.478   9.608  2.1352 -1.4443  1.2991
  407MOL0     H56117   8.308   8.463   9.468 -0.7146  1.8411  1.8333
  407MOL0     H56118   8.209   8.247   9.664  0.8121 -2.1523  0.1615
  407MOL0     H56119   8.294   8.200   9.519 -1.9647  2.9207 -4.1622
  407MOL0     H56120   8.419   8.427   9.696  0.8811  0.2612 -3.4539
  407MOL0     H56121   8.417   8.266   9.768 -2.0991 -0.7015  0.7118
  407MOL0     H56122   8.635   8.337   9.622 -0.1745  0.1858  0.9874
  407MOL0     H56123   8.561   8.193   9.578  0.4161 -0.2577  1.8749
  407MOL0     H56124   8.471   8.493   9.234 -0.9863 -0.4970  4.1789
  407MOL0     H56125   8.379   8.510   9.032  1.6557  1.6343 -1.7673
  407MOL0     H56126   8.314   8.377   8.932  1.6135  1.6525 -1.7460
  407MOL0     H56127   8.481   8.442   8.912 -1.2687  0.7747 -1.5614
  407MOL0     H56128   8.705   8.157   8.903 -2.8893 -0.9461 -1.9354
  407MOL0     H56129   8.931   8.081   8.950  1.7435 -1.2322  4.2034
  407MOL0     H56130   9.047   8.027   9.216 -4.5243  1.0209  1.1500
  407MOL0     H56131   8.923   7.925   9.277 -1.2665  2.2715 -1.4085
  407MOL0     H56132   9.088   7.744   9.302  0.0130 -0.5224 -0.1459
  407MOL0     H56133   9.209   7.846   9.228 -1.0999  1.1341 -1.1004
  407MOL0     H56134   9.036   7.891   9.480  0.8788  4.2992  0.8159
  407MOL0     H56135   9.181   7.994   9.435 -0.0602  0.4785  1.6395
  407MOL0     H56136   9.321   7.793   9.475 -1.5525 -0.0086 -1.9988
  407MOL0     H56137   9.188   7.690   9.526  0.2968 -0.0845  1.8221
  407MOL0     H56138   9.326   7.786   9.739  0.9004  2.8313  0.2979
  407MOL0     H56139   9.318   7.928   9.659 -0.1145  0.0036  1.3801
  407MOL0     H56140   9.048   7.781   9.716 -2.1503  1.7118  1.6524
  407MOL0     H56141   9.075   7.948   9.709  3.1017  0.5152  0.1786
  407MOL0     H56142   9.191   7.780   9.945 -0.8105  1.1975  2.0141
  407MOL0     H56143   9.048   7.884   9.935 -0.2335  0.9341 -1.3622
  407MOL0     H56144   9.180   8.084   9.890 -0.2682 -1.2667 -2.4446
  407MOL0     H56145   9.328   7.981   9.898 -2.2908  0.7623 -3.2023
  407MOL0     H56146   8.787   7.711   9.107  0.0600 -1.7836 -3.8529
  407MOL0     H56147   8.563   7.778   9.045 -0.3644  0.5069 -0.1666
  407MOL0     H56148   8.451   7.997   9.186  0.0842  0.7319 -2.7224
  407MOL0     H56149   8.486   8.102   9.412  0.2308  2.5104  1.5877
  407MOL0     H56150   7.864   8.828   8.773 -0.8464 -1.0258  0.0935
  407MOL0     H56151   8.039   8.970   8.845 -2.2642  0.3797  0.6129
  407MOL0     H56152   8.453   9.196   8.602  0.8340  2.0166 -1.1615
  407MOL0     H56153   8.679   9.298   8.679 -0.8837  0.4005  0.1434
  407MOL0     H56154   8.691   9.546   8.958 -0.3582 -0.2363  0.9694
  407MOL0     H56155   8.730   9.436   9.087  0.6714 -0.5893  0.3774
  407MOL0     H56156   8.937   9.541   8.897  1.3707  1.4107  0.8802
  407MOL0     H56157   8.970   9.464   9.054  2.1612  1.2478  0.7323
  407MOL0     H56158   8.808   9.724   9.060  0.1280  1.7790  2.1283
  407MOL0     H56159   8.905   9.636   9.184 -2.6162 -0.8752 -0.5961
  407MOL0     H56160   9.108   9.708   9.044 -0.8920 -1.1238 -0.3012
  407MOL0     H56161   9.014   9.838   9.115 -4.0784 -1.6937  1.8143
  407MOL0     H56162   8.934   9.884   8.690  2.3314  0.1599 -0.8855
  407MOL0     H56163   8.549   9.316   9.084 -0.5867 -1.2136  0.5830
  407MOL0     H56164   8.229   9.266   9.048  0.2459  0.7914 -1.6207
  407MOL0     H56165   8.283   9.095   9.036 -1.8721  0.4065  1.7105
  407MOL0     H56166   8.373   9.204   9.144  0.0751  3.4110 -0.8667
  408MOL0     O56167  10.993   9.760   8.161  0.0196  0.4765 -0.2369
  408MOL0     C56168  11.082   9.681   8.181  0.0799  0.4721  0.3378
  408MOL0     O56169  11.133   9.652   8.307 -0.2207  0.2450 -0.1376
  408MOL0     C56170  11.061   9.659   8.422 -0.1121  0.3016  0.3591
  408MOL0     C56171  10.986   9.546   8.465  0.1815 -0.0551  1.0619
  408MOL0     C56172  10.915   9.561   8.583 -0.1631  0.9539 -0.0029
  408MOL0     C56173  10.910   9.671   8.658  0.3581 -0.5608  0.1102
  408MOL0     O56174  10.820   9.687   8.765  0.6305  0.4980  0.1509
  408MOL0     C56175  10.810   9.810   8.840 -1.0125 -0.5663  0.2861
  408MOL0     C56176  10.924   9.816   8.945  0.2359 -0.5474 -0.2405
  408MOL0     C56177  10.930   9.959   9.010  0.8392  0.0664 -0.2337
  408MOL0     C56178  10.813   9.984   9.108 -0.0885 -0.2992 -0.1453
  408MOL0     C56179  10.835  10.111   9.187 -0.2409 -0.8653 -0.2129
  408MOL0     C56180  10.717  10.144   9.273  1.4018 -0.2247  0.8084
  408MOL0     C56181  10.738  10.274   9.360  0.3112  0.3088  1.1625
  408MOL0     C56182  10.860  10.278   9.457  0.5573 -0.3882  0.2060
  408MOL0     N56183  10.832  10.171   9.549 -0.2363  0.4106  1.0713
  408MOL0     C56184  10.869  10.037   9.538  0.1716  0.1523 -0.0364
  408MOL0     C56185  10.791   9.970   9.629 -0.0470  0.4262  0.8693
  408MOL0     C56186  10.782   9.823   9.634  0.6941  0.3773  0.3182
  408MOL0     C56187  10.903   9.756   9.691 -0.7470  0.1385  0.1793
  408MOL0     C56188  10.887   9.612   9.740  0.0776  0.0943  0.0686
  408MOL0     C56189  10.973   9.576   9.860  0.2548 -0.1688  0.3045
  408MOL0     O56190  11.116   9.568   9.817  0.2292  0.6437  0.1278
  408MOL0     C56191  11.203   9.540   9.913 -0.4750  0.2958 -0.7134
  408MOL0     C56192  11.333   9.525   9.881  0.3834  0.0481  0.0578
  408MOL0     C56193  11.435   9.489   9.966 -0.0326  0.1766  0.2500
  408MOL0     C56194  11.573   9.477   9.909  0.5712  0.1293  0.4172
  408MOL0     C56195  11.410   9.461  10.112 -0.6854  0.0521  0.2498
  408MOL0     C56196  11.512   9.414  10.219 -0.3259  0.3169  0.6335
  408MOL0     O56197  11.485   9.317  10.307 -0.1311  0.2177 -0.4834
  408MOL0     C56198  11.581   9.247  10.379 -0.4392  0.0197  0.2712
  408MOL0     C56199  11.523   9.185  10.484 -0.3740  0.0624 -0.0751
  408MOL0     C56200  11.605   9.109  10.567 -0.0887  0.2385 -0.3528
  408MOL0     C56201  11.740   9.091  10.538  0.2991 -0.4007 -0.6045
  408MOL0     O56202  11.807   9.008  10.627  0.0399  0.3381  0.2378
  408MOL0     C56203  11.950   8.986  10.625  0.0056 -0.7065  0.3533
  408MOL0     C56204  12.002   8.842  10.660  0.0908  0.0068 -0.2020
  408MOL0     C56205  11.979   8.843  10.809 -0.3014 -0.3748  0.1716
  408MOL0     C56206  12.066   8.738  10.880  0.1562  0.4808 -0.1391
  408MOL0     C56207  12.030   8.726  11.029  0.2144  1.1322  0.1493
  408MOL0     C56208  12.128   8.645  11.109 -0.0552  0.8192 -0.0733
  408MOL0     C56209  12.102   8.656  11.265 -0.1391  0.2239  0.1277
  408MOL0     C56210  12.194   8.554  11.335  0.6898 -0.0884 -0.2527
  408MOL0    Cl56211  12.107   8.483  11.481 -0.1122  0.2258 -0.3886
  408MOL0     C56212  11.794   9.154  10.429  0.9792 -0.3811  0.8555
  408MOL0     C56213  11.716   9.239  10.347 -0.1893  0.0774 -0.1482
  408MOL0     O56214  11.622   9.459  10.201 -0.1594 -1.1298 -0.3155
  408MOL0     C56215  11.279   9.484  10.146 -0.3253 -0.1210 -0.2141
  408MOL0     C56216  11.178   9.513  10.046  0.4154 -0.6827 -1.9987
  408MOL0     N56217  10.701  10.067   9.682  0.1586 -1.0546  0.0426
  408MOL0     N56218  10.729  10.183   9.637 -0.1915 -0.2297 -0.0144
  408MOL0     C56219  10.999   9.774   8.619 -0.0369  0.1508  1.0398
  408MOL0     C56220  11.081   9.768   8.502  0.8036 -0.2849 -0.0895
  408MOL0     C56221  11.144   9.623   8.057 -0.4209 -0.1264 -0.2243
  408MOL0     C56222  11.144   9.702   7.937 -0.4112  1.1205  0.1202
  408MOL0     C56223  11.204   9.662   7.824  0.2411  0.2146  0.1498
  408MOL0     C56224  11.274   9.548   7.826  0.1176 -0.1328  0.5611
  408MOL0     O56225  11.346   9.513   7.715  0.2145 -0.5307  0.0125
  408MOL0     C56226  11.274   9.421   7.627  0.3369 -0.4873  0.0746
  408MOL0     C56227  11.209   9.498   7.512 -0.8510  0.4885 -0.2913
  408MOL0     C56228  11.297   9.543   7.398  0.1760 -0.0790  0.3182
  408MOL0     C56229  11.376   9.671   7.430 -0.0363 -0.2842  0.0018
  408MOL0     C56230  11.451   9.719   7.309 -0.7394 -0.2638 -0.2117
  408MOL0     C56231  11.512   9.767   7.217  0.7032 -0.5622 -0.0214
  408MOL0     C56232  11.283   9.472   7.944  0.4269 -0.1810 -0.1093
  408MOL0     C56233  11.216   9.503   8.062  0.3897  0.2899  0.4660
  408MOL0     C56234  11.223   9.401   8.169 -0.9183 -1.0020 -0.2713
  408MOL0     H56235  10.977   9.447   8.421 -1.6591 -0.3020  1.9079
  408MOL0     H56236  10.849   9.477   8.603 -2.0345  2.3639 -0.0027
  408MOL0     H56237  10.712   9.802   8.888 -0.9351  0.2965  0.6009
  408MOL0     H56238  10.815   9.897   8.774  4.6659 -0.7346  0.0186
  408MOL0     H56239  10.922   9.751   9.032 -1.1079  1.1804  1.0916
  408MOL0     H56240  11.020   9.795   8.896  0.1892 -2.1388  0.3124
  408MOL0     H56241  11.027   9.956   9.061  0.5615  1.1303  0.3738
  408MOL0     H56242  10.939  10.044   8.941 -1.8148  1.8322  1.4169
  408MOL0     H56243  10.723   9.986   9.047 -0.0748 -0.4800 -0.1711
  408MOL0     H56244  10.800   9.900   9.178 -1.7862 -0.8085 -1.0246
  408MOL0     H56245  10.848  10.194   9.116  0.0348  0.2225  1.0581
  408MOL0     H56246  10.926  10.108   9.248  0.9688  2.1628 -1.6206
  408MOL0     H56247  10.627  10.167   9.215  2.0377  0.8093  0.1901
  408MOL0     H56248  10.703  10.051   9.328 -1.1471 -1.3856 -1.5694
  408MOL0     H56249  10.652  10.285   9.426 -1.0862  2.4150 -0.8482
  408MOL0     H56250  10.731  10.355   9.286  0.9164 -2.1145 -1.7822
  408MOL0     H56251  10.956  10.270   9.405 -0.5806 -0.5803 -1.9619
  408MOL0     H56252  10.858  10.372   9.513  0.8230 -1.2343  1.6870
  408MOL0     H56253  10.933   9.979   9.472  0.3199 -1.1588  1.2093
  408MOL0     H56254  10.753   9.772   9.541  0.5975 -0.8310  0.9935
  408MOL0     H56255  10.700   9.798   9.703  1.1148 -1.3862  0.2397
  408MOL0     H56256  10.984   9.757   9.618 -1.7518 -1.2284 -1.0141
  408MOL0     H56257  10.934   9.811   9.780  1.1790 -0.7182  0.0942
  408MOL0     H56258  10.783   9.584   9.758  0.4600 -2.0573 -0.6908
  408MOL0     H56259  10.912   9.533   9.668  1.2367  0.7531 -0.2661
  408MOL0     H56260  10.949   9.652   9.935 -1.0382 -0.2285 -0.0269
  408MOL0     H56261  10.947   9.477   9.896 -0.4109 -0.8658 -1.9315
  408MOL0     H56262  11.345   9.537   9.774 -1.4687 -0.8291 -0.2853
  408MOL0     H56263  11.647   9.540   9.960  1.2495 -0.9788  0.8346
  408MOL0     H56264  11.562   9.523   9.810  1.5404 -0.0918  0.1949
  408MOL0     H56265  11.612   9.375   9.906  0.8680  0.2621 -1.1015
  408MOL0     H56266  11.416   9.200  10.486 -0.2574  0.9724 -0.4220
  408MOL0     H56267  11.563   9.054  10.651 -2.0633 -0.2552 -1.6133
  408MOL0     H56268  11.988   9.012  10.525 -0.5823  1.3803  0.6264
  408MOL0     H56269  12.007   9.055  10.688  0.1216  1.0314 -1.5221
  408MOL0     H56270  11.942   8.764  10.612  0.8216 -0.2415 -0.7407
  408MOL0     H56271  12.107   8.824  10.634  1.1840  0.5113  3.3201
  408MOL0     H56272  11.877   8.803  10.813 -1.2320  1.6769 -1.4577
  408MOL0     H56273  11.989   8.939  10.859 -0.9658 -0.3995  0.3649
  408MOL0     H56274  12.171   8.769  10.875 -0.2802  1.9737 -0.5683
  408MOL0     H56275  12.061   8.635  10.841 -2.5174 -0.3062  2.0079
  408MOL0     H56276  12.028   8.822  11.082  0.6893 -0.4163  3.2022
  408MOL0     H56277  11.929   8.684  11.033  0.4535  0.6381  2.0632
  408MOL0     H56278  12.234   8.668  11.094  0.8759 -2.3103  1.0641
  408MOL0     H56279  12.114   8.545  11.068  1.2577  0.7893 -0.4951
  408MOL0     H56280  11.996   8.641  11.285 -0.1386  0.5257  0.3669
  408MOL0     H56281  12.128   8.749  11.316 -1.5195  1.6480 -1.6684
  408MOL0     H56282  12.283   8.613  11.355  1.8309 -0.9783 -2.3459
  408MOL0     H56283  12.224   8.469  11.273  0.2846 -1.1775  0.9886
  408MOL0     H56284  11.898   9.151  10.396  0.8522  2.1153  0.0801
  408MOL0     H56285  11.765   9.284  10.261  4.0814 -1.0878  1.3704
  408MOL0     H56286  11.248   9.486  10.250 -0.2722 -0.1394 -0.1981
  408MOL0     H56287  11.087   9.520  10.105  1.0899 -2.2031 -0.6889
  408MOL0     H56288  11.000   9.868   8.674  1.4436 -0.8057  2.7730
  408MOL0     H56289  11.148   9.849   8.473  1.3396 -1.5023 -2.4813
  408MOL0     H56290  11.082   9.791   7.945 -0.9605  0.6223  1.7624
  408MOL0     H56291  11.191   9.719   7.733 -0.5183 -1.3566 -0.7593
  408MOL0     H56292  11.335   9.335   7.597  0.8149 -0.7062  1.5825
  408MOL0     H56293  11.200   9.365   7.685 -0.6912  0.2717 -0.4801
  408MOL0     H56294  11.145   9.579   7.548 -1.9533 -0.7728  0.6676
  408MOL0     H56295  11.151   9.417   7.469  1.3425 -1.0727 -0.4993
  408MOL0     H56296  11.371   9.464   7.378 -1.6511 -1.2172 -2.5370
  408MOL0     H56297  11.243   9.570   7.307 -0.2313  1.8257  1.0800
  408MOL0     H56298  11.452   9.652   7.506  1.2463  1.1428 -0.8674
  408MOL0     H56299  11.305   9.736   7.482  0.3259 -1.8232  2.6019
  408MOL0     H56300  11.557   9.805   7.127 -3.1312  0.9265 -1.5169
  408MOL0     H56301  11.354   9.392   7.924 -0.7995 -1.1824 -0.5426
  408MOL0     H56302  11.172   9.431   8.262  2.0825 -1.0991  1.5440
  408MOL0     H56303  11.170   9.309   8.143 -1.6648 -1.2517  1.8855
  408MOL0     H56304  11.327   9.372   8.188 -1.0907  0.1606  3.1808
  409MOL0     O56305   8.267   2.615   4.151  0.9809 -0.5609  0.1000
  409MOL0     C56306   8.365   2.683   4.173  0.5401 -0.7294  0.3541
  409MOL0     O56307   8.471   2.688   4.093  0.0331 -0.5116  0.1624
  409MOL0     C56308   8.470   2.649   3.961 -0.1276  0.3326  0.2539
  409MOL0     C56309   8.425   2.517   3.927  0.1428  0.3982  0.2482
  409MOL0     C56310   8.438   2.470   3.795  0.2353  0.5347  0.8691
  409MOL0     C56311   8.500   2.547   3.703 -0.1348  0.9703  0.6496
  409MOL0     O56312   8.523   2.507   3.573 -0.9631 -0.0142 -0.3149
  409MOL0     C56313   8.443   2.407   3.521  0.2867  0.9408 -0.3319
  409MOL0     C56314   8.465   2.402   3.370 -0.2021 -0.4565 -0.2570
  409MOL0     C56315   8.360   2.331   3.288  0.2766 -0.5806 -1.2086
  409MOL0     C56316   8.406   2.330   3.144 -0.2688  0.4464 -0.3931
  409MOL0     C56317   8.297   2.278   3.042  0.5652 -0.1108 -0.2158
  409MOL0     C56318   8.347   2.271   2.895  0.0863  0.3909 -0.6404
  409MOL0     C56319   8.250   2.226   2.785 -0.2238  0.2195 -0.7874
  409MOL0     C56320   8.142   2.321   2.764  0.6351 -0.0048  0.6890
  409MOL0     N56321   8.070   2.274   2.636  1.0979 -0.9846 -0.1449
  409MOL0     C56322   8.101   2.275   2.505  0.0605  0.2191 -0.0921
  409MOL0     C56323   7.988   2.228   2.443 -1.4623  0.4817 -0.2374
  409MOL0     C56324   7.970   2.222   2.291 -0.6152 -0.1677 -0.4881
  409MOL0     C56325   7.870   2.314   2.224 -0.0039 -0.3917 -0.9296
  409MOL0     C56326   7.783   2.257   2.117  0.6778  0.1189  0.1364
  409MOL0     C56327   7.849   2.234   1.987  0.2765 -0.5694  0.9151
  409MOL0     O56328   7.756   2.253   1.880  0.1575  0.4007 -0.0572
  409MOL0     C56329   7.752   2.148   1.789  0.3806 -0.3468 -0.3787
  409MOL0     C56330   7.651   2.051   1.802 -0.1452  0.3899 -0.7281
  409MOL0     C56331   7.632   1.951   1.700  0.2336  0.0714  0.4937
  409MOL0     C56332   7.515   1.854   1.717  0.0362  0.7092 -0.5357
  409MOL0     C56333   7.704   1.949   1.587 -0.2667 -0.3389  0.0020
  409MOL0     C56334   7.681   1.852   1.476  0.3317 -0.8861 -1.3761
  409MOL0     O56335   7.716   1.899   1.359 -0.6276  0.3019 -0.0811
  409MOL0     C56336   7.674   1.815   1.256 -0.1049  0.0069  0.7532
  409MOL0     C56337   7.548   1.834   1.198  0.1818 -0.7986 -0.0881
  409MOL0     C56338   7.497   1.758   1.087 -0.5548  0.1024  0.2044
  409MOL0     C56339   7.586   1.675   1.013 -0.3545  0.5015 -0.0311
  409MOL0     O56340   7.535   1.614   0.904  0.4622 -0.1387 -0.9933
  409MOL0     C56341   7.622   1.580   0.793  0.0787 -0.6734 -0.3089
  409MOL0     C56342   7.653   1.696   0.705 -0.0815 -0.8986 -0.2767
  409MOL0     C56343   7.531   1.733   0.614 -0.3057 -0.1908 -0.0067
  409MOL0     C56344   7.561   1.877   0.578  0.7485 -0.9471  0.6726
  409MOL0     C56345   7.454   1.952   0.498  1.1687 -0.1194  0.8024
  409MOL0     C56346   7.393   1.889   0.374 -0.3772  0.5794  0.2323
  409MOL0     C56347   7.510   1.875   0.273 -0.2651 -1.3313 -0.7683
  409MOL0     C56348   7.448   1.885   0.142  0.8908 -0.0999  0.8083
  409MOL0    Cl56349   7.332   1.753   0.111 -0.2309  0.5040 -0.3135
  409MOL0     C56350   7.718   1.662   1.068  0.1394  0.3515  0.6018
  409MOL0     C56351   7.756   1.728   1.189  0.0968  0.5020  1.0106
  409MOL0     O56352   7.676   1.732   1.504 -0.2492 -0.8309  0.2793
  409MOL0     C56353   7.801   2.052   1.570 -0.5573  0.3726 -0.8596
  409MOL0     C56354   7.831   2.149   1.674 -0.3261 -0.3603  0.1770
  409MOL0     N56355   7.893   2.192   2.533 -0.3578 -0.1398  0.1648
  409MOL0     N56356   7.943   2.215   2.647  0.1682 -0.1052 -0.4402
  409MOL0     C56357   8.557   2.669   3.736 -0.5274  0.1658  0.0037
  409MOL0     C56358   8.529   2.723   3.861 -0.6103 -0.2627 -0.3182
  409MOL0     C56359   8.370   2.750   4.303 -0.1364 -0.6154 -0.1461
  409MOL0     C56360   8.463   2.855   4.309 -0.3550  0.7238  0.3983
  409MOL0     C56361   8.456   2.945   4.411  0.6183 -0.3113  0.5647
  409MOL0     C56362   8.352   2.929   4.509 -0.7208  0.7253  0.4250
  409MOL0     O56363   8.331   3.010   4.616 -0.9774 -0.3173  0.4248
  409MOL0     C56364   8.445   3.079   4.671  0.6745  0.1665 -0.2553
  409MOL0     C56365   8.436   3.078   4.821 -0.0430 -0.3971  0.6031
  409MOL0     C56366   8.303   3.112   4.895  0.0848 -0.0865  0.6832
  409MOL0     C56367   8.320   3.158   5.044  0.6414  0.0887  0.0572
  409MOL0     C56368   8.338   3.050   5.140 -1.3127  0.0336  1.1347
  409MOL0     C56369   8.368   2.950   5.205 -0.2934 -0.3326  0.3686
  409MOL0     C56370   8.265   2.823   4.505  0.2247  0.3611 -0.2747
  409MOL0     C56371   8.270   2.731   4.406  0.3769  0.0688 -1.2918
  409MOL0     C56372   8.162   2.627   4.405 -1.5759 -0.8147 -0.2202
  409MOL0     H56373   8.384   2.449   4.001  2.4504 -0.4168  0.8762
  409MOL0     H56374   8.391   2.378   3.764 -2.8233  2.1067  0.4627
  409MOL0     H56375   8.335   2.411   3.539 -0.1849 -2.6039 -1.6095
  409MOL0     H56376   8.488   2.311   3.546  2.5742  0.9499 -3.7154
  409MOL0     H56377   8.468   2.507   3.339  1.2654 -0.5616 -0.5320
  409MOL0     H56378   8.567   2.368   3.350  1.9858  4.1733  1.4634
  409MOL0     H56379   8.346   2.229   3.326  1.9227  0.3249  2.2336
  409MOL0     H56380   8.267   2.388   3.297  0.3543 -0.3683 -1.7347
  409MOL0     H56381   8.439   2.432   3.121 -1.9136  1.5839  1.8430
  409MOL0     H56382   8.496   2.269   3.133  1.3870  2.8829 -1.1403
  409MOL0     H56383   8.214   2.348   3.056 -1.1665 -1.9737 -0.6988
  409MOL0     H56384   8.260   2.181   3.077  1.7617 -0.8208 -0.8341
  409MOL0     H56385   8.394   2.361   2.855  1.8164 -0.5003 -0.7240
  409MOL0     H56386   8.436   2.207   2.888 -0.0768  0.3298 -2.5762
  409MOL0     H56387   8.213   2.125   2.801 -0.4541  0.1274 -1.8242
  409MOL0     H56388   8.312   2.219   2.696 -1.6971  0.0579 -1.8409
  409MOL0     H56389   8.083   2.300   2.854  0.7938 -2.1396  0.3537
  409MOL0     H56390   8.171   2.426   2.761 -1.0727  0.4695 -1.5791
  409MOL0     H56391   8.195   2.310   2.463  2.3861 -1.4483  3.2164
  409MOL0     H56392   7.951   2.116   2.271  0.5564 -0.7611  1.3121
  409MOL0     H56393   8.068   2.241   2.244 -0.3515  0.7772  0.4221
  409MOL0     H56394   7.812   2.353   2.308  0.1203  0.2238 -1.1198
  409MOL0     H56395   7.920   2.403   2.182  3.2288 -0.5588  2.1254
  409MOL0     H56396   7.741   2.160   2.147 -1.3730  1.1102  0.6770
  409MOL0     H56397   7.704   2.328   2.090  0.8633  0.1099 -0.4418
  409MOL0     H56398   7.926   2.311   1.976 -0.1635 -0.0797  1.1927
  409MOL0     H56399   7.907   2.142   1.984  3.7465  1.3971  2.0664
  409MOL0     H56400   7.599   2.053   1.897  1.2377  1.4531  0.0343
  409MOL0     H56401   7.463   1.866   1.813  0.4184  0.5432 -0.3079
  409MOL0     H56402   7.552   1.751   1.722 -0.4006  0.5152 -1.1386
  409MOL0     H56403   7.442   1.854   1.635 -0.5121  2.5248 -0.0874
  409MOL0     H56404   7.476   1.902   1.244 -0.6011 -1.8519  0.2832
  409MOL0     H56405   7.396   1.759   1.049 -0.3155 -2.4825 -0.6992
  409MOL0     H56406   7.709   1.527   0.832  0.5067  0.8778  0.9313
  409MOL0     H56407   7.561   1.514   0.731 -3.0293  2.9110 -1.4475
  409MOL0     H56408   7.678   1.775   0.776 -2.9929 -1.9161  2.0419
  409MOL0     H56409   7.740   1.678   0.641 -0.6144  1.7526 -1.9371
  409MOL0     H56410   7.437   1.731   0.671 -0.1055 -1.0329  0.3142
  409MOL0     H56411   7.541   1.667   0.528  3.1055 -0.8629  0.7628
  409MOL0     H56412   7.658   1.877   0.527  0.6726 -1.4058  0.5264
  409MOL0     H56413   7.583   1.927   0.673 -2.9721  1.4709  0.4658
  409MOL0     H56414   7.362   1.965   0.556 -0.3916 -3.6335 -0.6062
  409MOL0     H56415   7.487   2.052   0.469  0.0932  0.2496  0.8017
  409MOL0     H56416   7.308   1.943   0.331 -0.6092  0.2552  0.2819
  409MOL0     H56417   7.353   1.792   0.406  0.7167 -0.3260 -1.0394
  409MOL0     H56418   7.557   1.776   0.277  2.3563 -0.1926 -1.4491
  409MOL0     H56419   7.596   1.940   0.292  1.3269 -2.0415 -4.5986
  409MOL0     H56420   7.527   1.874   0.068  1.1455  0.9753  0.9005
  409MOL0     H56421   7.410   1.987   0.128 -0.2008 -0.7540 -1.5428
  409MOL0     H56422   7.801   1.609   1.022 -1.9351 -3.4114  0.7622
  409MOL0     H56423   7.861   1.723   1.217 -0.3498 -1.1367  2.6150
  409MOL0     H56424   7.869   2.051   1.485 -0.2974  1.1138 -0.6639
  409MOL0     H56425   7.898   2.232   1.652  0.5187 -0.9983  0.2636
  409MOL0     H56426   8.608   2.723   3.656 -0.1925  0.3372  0.3257
  409MOL0     H56427   8.573   2.820   3.881 -0.2205 -0.7396  1.2116
  409MOL0     H56428   8.538   2.870   4.232  0.6721 -0.9550  1.0338
  409MOL0     H56429   8.524   3.029   4.417  0.4778  0.1530 -2.7026
  409MOL0     H56430   8.540   3.033   4.644  0.1062 -2.0190  1.1867
  409MOL0     H56431   8.438   3.171   4.611 -3.3065 -2.6385 -4.8928
  409MOL0     H56432   8.508   3.155   4.852  1.0531 -0.3756 -1.7359
  409MOL0     H56433   8.468   2.978   4.849 -1.2435 -1.4884 -1.6877
  409MOL0     H56434   8.255   3.195   4.842 -0.2479 -0.0046  1.1115
  409MOL0     H56435   8.226   3.034   4.900 -0.4416  0.2192 -1.3708
  409MOL0     H56436   8.227   3.214   5.060  0.3048 -0.5702  0.4946
  409MOL0     H56437   8.405   3.226   5.057  1.7356 -1.0592 -0.8794
  409MOL0     H56438   8.398   2.867   5.265  0.0290 -0.9691 -0.6530
  409MOL0     H56439   8.208   2.811   4.597  0.7712 -0.1330  0.0122
  409MOL0     H56440   8.117   2.627   4.505 -0.2971  0.9963  0.3999
  409MOL0     H56441   8.090   2.662   4.331 -0.6876  2.9233  0.4909
  409MOL0     H56442   8.215   2.536   4.373  1.6285  0.8875 -0.2009
  410MOL0     O56443   9.154   2.564   0.307 -0.3150 -0.2348  0.2681
  410MOL0     C56444   9.036   2.550   0.258  0.5142 -0.1725 -0.0477
  410MOL0     O56445   8.976   2.642   0.182  0.1043 -0.1189 -0.6274
  410MOL0     C56446   9.049   2.746   0.130 -0.2869  0.8215 -0.3914
  410MOL0     C56447   9.015   2.884   0.145 -0.1248  0.5430  0.2851
  410MOL0     C56448   9.086   2.972   0.055  1.4667 -0.4778  0.5265
  410MOL0     C56449   9.190   2.930  -0.029 -0.3059  0.6511  0.8282
  410MOL0     O56450   9.250   3.038  -0.082  0.1301  0.4501  0.4472
  410MOL0     C56451   9.397   3.021  -0.096  1.6055  0.3073 -0.1305
  410MOL0     C56452   9.455   3.158  -0.092 -0.2107 -0.0907 -1.3843
  410MOL0     C56453   9.593   3.162  -0.158 -0.6829 -0.3774  0.5271
  410MOL0     C56454   9.702   3.094  -0.076  1.3013  0.4155 -1.1572
  410MOL0     C56455   9.823   3.081  -0.161  0.2252 -0.9744 -0.1332
  410MOL0     C56456   9.929   2.997  -0.102 -0.0182 -0.8168  0.2528
  410MOL0     C56457  10.040   2.992  -0.198  0.2325  0.4981  0.0132
  410MOL0     C56458  10.145   2.883  -0.155 -0.9817  0.4675  0.0569
  410MOL0     N56459  10.274   2.891  -0.237 -0.7468 -0.2236  0.2401
  410MOL0     C56460  10.332   3.004  -0.297 -0.1118 -0.1747 -0.3887
  410MOL0     C56461  10.453   2.963  -0.345  0.0560 -0.1633  0.3110
  410MOL0     C56462  10.568   3.042  -0.400 -0.2320  0.8625 -0.1076
  410MOL0     C56463  10.606   3.167  -0.336 -0.2917  0.4044  0.1061
  410MOL0     C56464  10.736   3.223  -0.399  0.4514 -0.4175  0.1504
  410MOL0     C56465  10.831   3.315  -0.315 -0.3505  0.5099 -0.9115
  410MOL0     O56466  10.778   3.447  -0.303  0.6917  0.1893 -0.0467
  410MOL0     C56467  10.680   3.487  -0.215 -1.3275  0.1744  0.3458
  410MOL0     C56468  10.629   3.612  -0.240  1.0764 -0.0622 -0.0791
  410MOL0     C56469  10.542   3.681  -0.142 -0.1306 -0.2546  0.5469
  410MOL0     C56470  10.503   3.817  -0.172  0.0614 -0.5471 -0.8619
  410MOL0     C56471  10.508   3.613  -0.027  0.6864  0.0211 -0.2680
  410MOL0     C56472  10.405   3.665   0.063 -0.5875 -0.2350  0.0444
  410MOL0     O56473  10.392   3.588   0.174  0.0283  0.2889  0.3102
  410MOL0     C56474  10.314   3.605   0.283 -0.2673 -0.2442  0.4051
  410MOL0     C56475  10.326   3.504   0.382  0.1841 -1.0489  0.0753
  410MOL0     C56476  10.257   3.509   0.507  0.3400  1.2027  0.6199
  410MOL0     C56477  10.177   3.623   0.534  0.3406  0.3282  0.4810
  410MOL0     O56478  10.109   3.637   0.649 -0.7618  0.2168 -0.3965
  410MOL0     C56479  10.215   3.637   0.749  0.8245 -0.5342 -0.9014
  410MOL0     C56480  10.166   3.692   0.887  0.8198 -0.2641  0.7579
  410MOL0     C56481  10.236   3.643   1.013 -0.2960  0.6212 -0.5346
  410MOL0     C56482  10.383   3.694   1.032  0.0367  0.4675  0.5561
  410MOL0     C56483  10.459   3.638   1.157 -0.5077 -0.3870  0.1809
  410MOL0     C56484  10.609   3.693   1.156 -0.4696 -1.0213 -1.0105
  410MOL0     C56485  10.678   3.648   1.280 -0.5743 -0.9441  0.0357
  410MOL0     C56486  10.652   3.507   1.323 -0.0214 -0.2658  0.5823
  410MOL0    Cl56487  10.532   3.494   1.463 -0.3804 -0.5198 -0.4299
  410MOL0     C56488  10.166   3.724   0.440  0.2610 -0.3620  0.2308
  410MOL0     C56489  10.225   3.711   0.315 -0.7036 -0.3477  0.1184
  410MOL0     O56490  10.326   3.751   0.034  0.3426 -0.2621  1.1296
  410MOL0     C56491  10.567   3.481   0.003 -0.4144  0.4056 -0.5161
  410MOL0     C56492  10.643   3.414  -0.095 -1.0148 -0.5859  0.0219
  410MOL0     N56493  10.453   2.818  -0.333 -0.0656 -1.1503 -0.7098
  410MOL0     N56494  10.348   2.780  -0.268  0.3724 -0.0045 -0.3778
  410MOL0     C56495   9.232   2.797  -0.032  0.0577  0.7469  0.7082
  410MOL0     C56496   9.152   2.708   0.038  1.1151 -0.4472 -0.0892
  410MOL0     C56497   8.948   2.429   0.299  0.1230  0.6878  0.3822
  410MOL0     C56498   8.848   2.387   0.206  0.5683 -0.3870 -0.0176
  410MOL0     C56499   8.764   2.287   0.242 -0.5696 -0.1322  0.4019
  410MOL0     C56500   8.783   2.205   0.352  0.2001  0.2884  0.0614
  410MOL0     O56501   8.719   2.082   0.369  0.3413 -0.1701  0.2351
  410MOL0     C56502   8.612   2.038   0.274 -1.3916 -0.3859 -0.0268
  410MOL0     C56503   8.474   2.116   0.299 -0.5231  0.1696  0.1958
  410MOL0     C56504   8.394   2.113   0.172 -0.3812 -1.7502 -0.7574
  410MOL0     C56505   8.279   2.013   0.141 -0.4220 -1.3537  0.3773
  410MOL0     C56506   8.336   1.886   0.123 -0.0662  0.1809 -0.0928
  410MOL0     C56507   8.402   1.790   0.101 -0.3076 -0.4108  0.2810
  410MOL0     C56508   8.883   2.238   0.447 -0.0116  0.0275 -0.0903
  410MOL0     C56509   8.962   2.357   0.420 -0.9236  0.6282  0.0929
  410MOL0     C56510   9.067   2.393   0.525  0.0874 -0.4464  0.0428
  410MOL0     H56511   8.932   2.902   0.213  1.5725  0.0626  2.5933
  410MOL0     H56512   9.063   3.078   0.050  3.0442 -0.1774 -2.3453
  410MOL0     H56513   9.410   2.978  -0.195  0.0617  1.8104 -1.0444
  410MOL0     H56514   9.443   2.960  -0.018  1.2740 -0.8415 -0.8146
  410MOL0     H56515   9.396   3.218  -0.161  0.9819  2.2614 -0.4709
  410MOL0     H56516   9.449   3.203   0.008 -1.0294 -1.6118 -0.7155
  410MOL0     H56517   9.578   3.117  -0.257 -3.8062  3.5675 -1.0610
  410MOL0     H56518   9.625   3.266  -0.170 -3.7517  0.7326  1.1595
  410MOL0     H56519   9.724   3.159   0.010 -0.6603 -1.2650  0.7414
  410MOL0     H56520   9.671   2.994  -0.045  3.7923 -0.1953 -0.4319
  410MOL0     H56521   9.865   3.181  -0.170 -0.4682 -0.6871 -0.2253
  410MOL0     H56522   9.791   3.034  -0.254 -1.4976  2.6722 -1.5631
  410MOL0     H56523   9.969   3.033  -0.007  1.3140 -0.6526 -0.3402
  410MOL0     H56524   9.890   2.896  -0.088 -1.6640 -0.1088  0.8941
  410MOL0     H56525  10.096   3.086  -0.208  3.4873 -1.5510 -3.9510
  410MOL0     H56526  10.008   2.957  -0.296  4.6888  0.8521 -1.8014
  410MOL0     H56527  10.184   2.901  -0.054  2.6285 -0.2216 -1.0484
  410MOL0     H56528  10.100   2.783  -0.159 -2.5379  1.1900 -1.2647
  410MOL0     H56529  10.307   3.109  -0.285 -0.1997 -0.3180  0.8118
  410MOL0     H56530  10.544   3.074  -0.502 -1.2354 -0.6899 -0.4003
  410MOL0     H56531  10.650   2.970  -0.394 -0.7546  0.3452  1.1337
  410MOL0     H56532  10.522   3.236  -0.343 -1.5053 -1.1232 -0.8105
  410MOL0     H56533  10.616   3.161  -0.227  1.5385  1.3427  0.0381
  410MOL0     H56534  10.804   3.141  -0.424 -1.5642 -1.7832 -1.2839
  410MOL0     H56535  10.714   3.282  -0.488 -0.0234 -0.4707  0.2294
  410MOL0     H56536  10.843   3.276  -0.213 -3.9290  0.9343 -0.1728
  410MOL0     H56537  10.930   3.335  -0.355  0.6425  1.6987  1.8689
  410MOL0     H56538  10.661   3.652  -0.336  1.3080  1.9470  0.7845
  410MOL0     H56539  10.398   3.820  -0.202  0.3558 -2.0941 -2.1500
  410MOL0     H56540  10.551   3.861  -0.260 -1.1777 -0.6792 -1.6265
  410MOL0     H56541  10.524   3.879  -0.084  2.1761 -2.4594  0.1115
  410MOL0     H56542  10.396   3.422   0.368  0.4116 -0.9296  0.4984
  410MOL0     H56543  10.255   3.430   0.582 -0.5858  0.0421 -0.5813
  410MOL0     H56544  10.229   3.531   0.770 -0.2838 -0.4255  0.5807
  410MOL0     H56545  10.308   3.679   0.710 -0.1532  0.8359 -1.8734
  410MOL0     H56546  10.185   3.798   0.869  0.3529 -0.1107  1.1507
  410MOL0     H56547  10.061   3.693   0.918  0.8680  3.1288  1.1679
  410MOL0     H56548  10.238   3.536   0.994 -0.6498  1.0954 -3.8344
  410MOL0     H56549  10.173   3.662   1.100 -2.6445 -1.0878 -1.7580
  410MOL0     H56550  10.375   3.802   1.046 -1.3342  0.3719  0.6070
  410MOL0     H56551  10.437   3.675   0.938  1.0002 -1.3064  1.4240
  410MOL0     H56552  10.403   3.662   1.248  1.7298 -3.6196  2.6490
  410MOL0     H56553  10.469   3.529   1.148  1.1201 -0.0780 -3.1366
  410MOL0     H56554  10.616   3.802   1.164 -0.0074 -1.1728  1.1909
  410MOL0     H56555  10.665   3.668   1.065 -3.1424 -3.2808 -2.1763
  410MOL0     H56556  10.675   3.722   1.360  1.6219 -3.2568  2.4629
  410MOL0     H56557  10.783   3.652   1.250 -0.3951 -1.3288  0.5915
  410MOL0     H56558  10.738   3.476   1.385 -0.5253 -1.9491  0.4964
  410MOL0     H56559  10.631   3.438   1.241 -3.3518  0.9033  0.3113
  410MOL0     H56560  10.095   3.803   0.463  1.1775  0.0174  1.9907
  410MOL0     H56561  10.191   3.786   0.244 -0.7629 -0.0068  0.5052
  410MOL0     H56562  10.540   3.428   0.094 -0.4691  1.0194 -0.1714
  410MOL0     H56563  10.693   3.322  -0.066 -2.1834 -1.0840  0.5151
  410MOL0     H56564   9.312   2.768  -0.099 -1.1479  1.1210 -0.9501
  410MOL0     H56565   9.174   2.602   0.038  0.0150 -0.7457  2.0584
  410MOL0     H56566   8.828   2.450   0.120  1.4969  0.3695  0.2978
  410MOL0     H56567   8.684   2.256   0.176 -0.7285 -1.4546  1.1958
  410MOL0     H56568   8.661   2.048   0.177  2.6063 -0.4623  1.7790
  410MOL0     H56569   8.591   1.931   0.276  1.3021 -1.0750 -2.5793
  410MOL0     H56570   8.497   2.218   0.331 -1.6014  1.6621 -3.3062
  410MOL0     H56571   8.413   2.078   0.382 -1.8318  3.4370  0.8777
  410MOL0     H56572   8.347   2.211   0.162  1.5873 -0.7595 -0.7409
  410MOL0     H56573   8.469   2.106   0.093  2.9353 -2.1751  2.2221
  410MOL0     H56574   8.226   2.047   0.051  0.5169 -0.5032  0.1242
  410MOL0     H56575   8.207   2.004   0.223 -4.0155  1.4295 -2.1295
  410MOL0     H56576   8.467   1.710   0.071  0.0242 -0.4482  1.0709
  410MOL0     H56577   8.903   2.170   0.529 -2.2430 -0.4270  0.1433
  410MOL0     H56578   9.163   2.380   0.473  0.0867 -0.0227 -0.0650
  410MOL0     H56579   9.056   2.496   0.560  2.6398 -0.2685  0.5780
  410MOL0     H56580   9.056   2.330   0.614  5.0961 -0.0343  1.2832
  411MOL0     O56581   3.463   9.411   6.852  0.5182  0.0570 -1.1410
  411MOL0     C56582   3.571   9.468   6.847 -0.2970 -0.9868 -0.2653
  411MOL0     O56583   3.617   9.533   6.734 -0.0063 -1.2482  0.4803
  411MOL0     C56584   3.590   9.499   6.604  0.2248 -1.0503 -0.5501
  411MOL0     C56585   3.599   9.612   6.523  0.4643 -0.6498  0.1162
  411MOL0     C56586   3.587   9.587   6.386  0.3652 -0.4089 -1.0792
  411MOL0     C56587   3.551   9.459   6.342  0.0657  0.4682  0.6899
  411MOL0     O56588   3.529   9.421   6.210 -0.1270  0.7398 -0.2000
  411MOL0     C56589   3.622   9.452   6.113 -0.0986 -0.3392  0.8789
  411MOL0     C56590   3.637   9.354   5.996  0.0053 -0.2969 -0.3298
  411MOL0     C56591   3.724   9.228   6.033  0.1753 -0.9232  0.2330
  411MOL0     C56592   3.658   9.145   6.144 -0.4314  0.3111 -0.4462
  411MOL0     C56593   3.680   8.992   6.117 -0.0575 -0.7385  0.1688
  411MOL0     C56594   3.619   8.907   6.235  0.3412 -1.1794  0.2701
  411MOL0     C56595   3.673   8.770   6.268  0.4013 -0.0691 -0.5859
  411MOL0     C56596   3.646   8.681   6.145 -0.5174  0.3410  0.5930
  411MOL0     N56597   3.686   8.542   6.174 -0.0827  0.1340 -0.0714
  411MOL0     C56598   3.815   8.501   6.189  0.6055 -0.7753 -1.0530
  411MOL0     C56599   3.813   8.373   6.236  0.9516 -0.0995 -0.4241
  411MOL0     C56600   3.938   8.282   6.250 -0.3212 -0.3587 -0.5654
  411MOL0     C56601   4.017   8.291   6.125  0.4699  0.6802  0.8094
  411MOL0     C56602   4.136   8.200   6.138  0.2593 -0.4826  0.4032
  411MOL0     C56603   4.088   8.060   6.099 -0.2150  0.4711 -0.1042
  411MOL0     O56604   4.024   7.988   6.211  0.5422 -0.0714  0.0952
  411MOL0     C56605   4.011   7.850   6.187  0.1417  0.5316 -0.2837
  411MOL0     C56606   4.118   7.770   6.180  0.1138  0.1741 -1.1215
  411MOL0     C56607   4.104   7.625   6.182  0.8701 -0.1253 -0.6108
  411MOL0     C56608   4.223   7.539   6.188  0.7560 -0.2466  0.9345
  411MOL0     C56609   3.970   7.571   6.177 -0.3137  0.0722 -0.0237
  411MOL0     C56610   3.945   7.422   6.187  0.5938  0.8840  0.6464
  411MOL0     O56611   3.952   7.338   6.073 -0.3753 -0.2007 -1.4065
  411MOL0     C56612   3.887   7.221   6.086 -0.5102  0.1449  0.4270
  411MOL0     C56613   3.961   7.103   6.087 -0.2768 -0.5125  0.6497
  411MOL0     C56614   3.898   6.981   6.071  0.5607  0.1414  0.4592
  411MOL0     C56615   3.758   6.976   6.050 -0.0157  0.9569  0.0552
  411MOL0     O56616   3.693   6.860   6.005  0.0956  0.3719 -0.3869
  411MOL0     C56617   3.761   6.770   5.915 -0.4788 -0.4599 -0.2667
  411MOL0     C56618   3.644   6.707   5.854  0.2624  0.8639  0.1358
  411MOL0     C56619   3.677   6.625   5.733 -0.9208  0.5376  0.2283
  411MOL0     C56620   3.556   6.548   5.675 -0.2042  1.5099 -0.1211
  411MOL0     C56621   3.592   6.485   5.538  0.3560  0.4612 -0.5963
  411MOL0     C56622   3.459   6.432   5.474 -0.7185 -1.1847  0.2965
  411MOL0     C56623   3.492   6.347   5.346 -0.6743  1.4304  0.1454
  411MOL0     C56624   3.365   6.275   5.291  0.0886  0.5619  0.1302
  411MOL0    Cl56625   3.274   6.171   5.405 -0.2604  0.0382  0.0932
  411MOL0     C56626   3.683   7.100   6.045  0.2705 -0.2702 -0.5557
  411MOL0     C56627   3.751   7.217   6.065  0.6697 -0.7869 -0.1883
  411MOL0     O56628   3.902   7.386   6.303  0.1077 -0.3759  1.1195
  411MOL0     C56629   3.864   7.659   6.199 -0.2992  0.5015  0.0560
  411MOL0     C56630   3.882   7.793   6.194  0.3690 -0.5399 -0.5539
  411MOL0     N56631   3.682   8.331   6.253 -0.9126  0.7678  0.1204
  411MOL0     N56632   3.600   8.434   6.215 -0.4034 -0.2036 -0.4123
  411MOL0     C56633   3.544   9.349   6.429  0.0027 -0.7811  1.2222
  411MOL0     C56634   3.567   9.374   6.562 -0.7654 -0.7125  1.8158
  411MOL0     C56635   3.665   9.480   6.978  0.4879 -0.9205 -0.6343
  411MOL0     C56636   3.795   9.528   6.965  0.2651 -0.0833 -0.6086
  411MOL0     C56637   3.896   9.535   7.065  0.2241  0.0067 -0.3916
  411MOL0     C56638   3.860   9.504   7.198  0.9293  0.2650 -0.0254
  411MOL0     O56639   3.948   9.508   7.303 -0.4009  0.0290 -0.1173
  411MOL0     C56640   4.079   9.549   7.271 -0.7020  0.3087 -0.6341
  411MOL0     C56641   4.142   9.530   7.417  0.0265 -0.5219 -0.6660
  411MOL0     C56642   4.289   9.563   7.430  0.7900  0.4513  0.6540
  411MOL0     C56643   4.333   9.675   7.342 -0.1697 -0.2617 -0.3586
  411MOL0     C56644   4.264   9.794   7.364  0.5516 -0.4442 -0.4046
  411MOL0     C56645   4.184   9.888   7.365  0.1185  0.0366 -0.5151
  411MOL0     C56646   3.728   9.457   7.213  0.8599 -0.2804 -0.7098
  411MOL0     C56647   3.633   9.440   7.113  0.4701 -0.3048  0.0040
  411MOL0     C56648   3.507   9.367   7.144 -0.2294 -1.2246 -0.4319
  411MOL0     H56649   3.628   9.713   6.553  0.6014 -1.5006  3.1737
  411MOL0     H56650   3.606   9.672   6.321  1.4440 -3.3790 -5.1074
  411MOL0     H56651   3.721   9.469   6.156  0.6561  1.1981 -1.2308
  411MOL0     H56652   3.583   9.543   6.065  3.9811  0.6334 -1.0197
  411MOL0     H56653   3.536   9.326   5.965  0.5324 -0.4104 -2.0216
  411MOL0     H56654   3.696   9.397   5.915 -1.0471  1.5096 -0.1996
  411MOL0     H56655   3.732   9.172   5.940 -1.6682  0.9242 -1.1152
  411MOL0     H56656   3.821   9.266   6.069 -0.4695  0.9725  0.1161
  411MOL0     H56657   3.697   9.171   6.243  1.3570  1.3496 -1.3760
  411MOL0     H56658   3.552   9.171   6.154 -0.4415 -0.2100  1.0284
  411MOL0     H56659   3.786   8.967   6.114 -0.2935 -1.9561  1.0733
  411MOL0     H56660   3.626   8.965   6.026 -1.9541  2.1171  0.3094
  411MOL0     H56661   3.626   8.962   6.329 -0.5945 -0.6497  0.0436
  411MOL0     H56662   3.512   8.901   6.210  0.2913  0.6745 -0.0881
  411MOL0     H56663   3.611   8.737   6.352  1.6192 -5.3839 -1.4175
  411MOL0     H56664   3.777   8.790   6.295 -0.1465  3.0295 -0.4643
  411MOL0     H56665   3.541   8.689   6.116 -0.9274 -1.5254  1.4123
  411MOL0     H56666   3.707   8.720   6.063  2.4787 -3.1544  0.9243
  411MOL0     H56667   3.904   8.563   6.184 -0.5276  0.9593 -0.4345
  411MOL0     H56668   3.915   8.179   6.275 -0.8631  0.2768  1.7439
  411MOL0     H56669   4.003   8.317   6.331 -1.1950 -1.7559  0.7824
  411MOL0     H56670   3.965   8.262   6.033  0.8464  2.2638  0.0802
  411MOL0     H56671   4.061   8.390   6.112  1.5087  0.0368 -0.7523
  411MOL0     H56672   4.214   8.241   6.073 -2.4478  1.2211 -2.0112
  411MOL0     H56673   4.173   8.201   6.241 -3.2879  0.5837  1.8185
  411MOL0     H56674   4.016   8.073   6.017  0.7651  1.0398 -0.8923
  411MOL0     H56675   4.174   8.004   6.063  1.3117  1.2451  2.1701
  411MOL0     H56676   4.213   7.823   6.179 -0.7109  1.9126  1.2546
  411MOL0     H56677   4.261   7.549   6.290 -1.3770 -2.2691  2.0231
  411MOL0     H56678   4.287   7.586   6.112  0.4790 -1.9366 -0.4061
  411MOL0     H56679   4.193   7.440   6.154 -2.6755  1.1452 -0.5522
  411MOL0     H56680   4.069   7.098   6.080 -0.4254 -2.4588 -4.0785
  411MOL0     H56681   3.954   6.888   6.074 -1.9657 -1.5858 -0.9934
  411MOL0     H56682   3.814   6.839   5.849 -0.8064  1.5486  1.4700
  411MOL0     H56683   3.824   6.700   5.971 -1.3918 -2.5639 -1.7228
  411MOL0     H56684   3.582   6.654   5.927  2.1049 -1.1930  0.3159
  411MOL0     H56685   3.576   6.778   5.806 -2.2386 -1.8513 -0.6783
  411MOL0     H56686   3.754   6.551   5.756  0.1580  1.4651 -0.3104
  411MOL0     H56687   3.709   6.704   5.665 -0.4942  2.0104  2.0708
  411MOL0     H56688   3.473   6.619   5.668  1.6908  4.0715  1.7187
  411MOL0     H56689   3.520   6.471   5.743 -1.3389 -1.0289 -3.3063
  411MOL0     H56690   3.636   6.562   5.474  0.9656  1.2226  0.7072
  411MOL0     H56691   3.660   6.402   5.558 -0.1153  0.6466  2.0836
  411MOL0     H56692   3.398   6.521   5.452  0.9234 -0.5320 -2.1148
  411MOL0     H56693   3.414   6.368   5.550  2.2795 -0.8941  2.4951
  411MOL0     H56694   3.565   6.269   5.368 -2.1488 -0.1093 -0.2819
  411MOL0     H56695   3.539   6.412   5.272  0.6489 -0.6471 -0.9250
  411MOL0     H56696   3.399   6.217   5.205 -0.4144  0.2615  0.1339
  411MOL0     H56697   3.312   6.361   5.248 -1.1753  0.1037  0.7301
  411MOL0     H56698   3.576   7.104   6.027  0.2197 -3.2256 -1.4448
  411MOL0     H56699   3.702   7.314   6.053  4.2942  1.2778  0.2415
  411MOL0     H56700   3.761   7.626   6.208 -0.2469  0.0323 -0.8916
  411MOL0     H56701   3.795   7.859   6.195  0.2822 -0.6408 -1.2563
  411MOL0     H56702   3.503   9.255   6.395 -1.6663 -0.5192  2.3775
  411MOL0     H56703   3.565   9.286   6.626 -2.5882 -3.2220 -1.3568
  411MOL0     H56704   3.829   9.571   6.871 -1.8085  2.0363 -0.4891
  411MOL0     H56705   3.996   9.563   7.032  0.7095 -0.3713  0.7169
  411MOL0     H56706   4.143   9.488   7.206  2.4789  0.4931  2.0395
  411MOL0     H56707   4.080   9.654   7.242  1.0000  0.4567 -0.1331
  411MOL0     H56708   4.122   9.431   7.458 -3.4044  1.0387  1.8857
  411MOL0     H56709   4.090   9.589   7.493  0.7939 -2.0897  1.1664
  411MOL0     H56710   4.318   9.582   7.534 -3.0472  2.1046  1.6127
  411MOL0     H56711   4.337   9.469   7.402 -0.6066  0.2337 -1.2037
  411MOL0     H56712   4.327   9.648   7.236 -2.5269 -1.6993  0.0575
  411MOL0     H56713   4.438   9.694   7.363 -0.4486  1.4236 -0.3458
  411MOL0     H56714   4.111   9.966   7.372  2.2211  1.9328  1.6511
  411MOL0     H56715   3.695   9.419   7.309 -0.0553 -0.5655 -1.1261
  411MOL0     H56716   3.418   9.429   7.161  1.9878  1.3973  2.8645
  411MOL0     H56717   3.490   9.288   7.070 -2.1674 -1.0678 -0.2058
  411MOL0     H56718   3.518   9.311   7.237  2.5386  2.3705  1.6570
  412MOL0     O56719  10.081   2.643   8.048  0.1967 -0.7590 -0.1951
  412MOL0     C56720  10.055   2.670   7.928 -0.3419 -0.2136 -0.4722
  412MOL0     O56721   9.969   2.598   7.857  0.0821 -0.0300  0.1623
  412MOL0     C56722   9.944   2.463   7.883 -0.1625  0.0809 -0.7102
  412MOL0     C56723   9.815   2.415   7.903  0.0037 -0.7196  0.6200
  412MOL0     C56724   9.782   2.283   7.943  0.2653 -0.1725  1.1094
  412MOL0     C56725   9.887   2.190   7.953  0.0823  0.0792  0.1385
  412MOL0     O56726   9.870   2.054   7.974  1.0155  0.1357  0.0584
  412MOL0     C56727   9.738   2.000   7.975 -0.6817 -0.1560 -0.1573
  412MOL0     C56728   9.745   1.853   7.955 -0.6991  0.5728  0.0690
  412MOL0     C56729   9.777   1.828   7.811  0.4578  0.2778  0.0053
  412MOL0     C56730   9.793   1.676   7.804 -0.1659  0.1578  0.0234
  412MOL0     C56731   9.802   1.638   7.656 -0.4080 -0.4139  0.5738
  412MOL0     C56732   9.831   1.494   7.626 -0.1597  1.2095  0.1818
  412MOL0     C56733   9.847   1.465   7.473  0.9630  0.9161 -0.5294
  412MOL0     C56734   9.817   1.310   7.466 -0.3934  0.4830  0.9424
  412MOL0     N56735   9.826   1.251   7.336  0.2982 -0.2962 -0.1615
  412MOL0     C56736   9.735   1.263   7.230  0.7058  0.4219  0.2786
  412MOL0     C56737   9.779   1.167   7.141 -0.2014 -0.2414  0.3482
  412MOL0     C56738   9.715   1.118   7.013 -0.8875 -0.2698 -0.5843
  412MOL0     C56739   9.817   1.109   6.893 -0.3608 -0.3595 -0.8112
  412MOL0     C56740   9.732   1.106   6.770  0.2031  0.6430  0.2004
  412MOL0     C56741   9.796   1.082   6.630  0.2124 -0.0818 -0.4116
  412MOL0     O56742   9.861   0.955   6.646  0.2844 -0.5166  0.1626
  412MOL0     C56743   9.954   0.925   6.544 -0.1263 -0.0699  0.7766
  412MOL0     C56744   9.964   0.983   6.410 -0.3523  0.4124 -0.4068
  412MOL0     C56745  10.079   0.976   6.330  0.8727 -0.6770  0.4975
  412MOL0     C56746  10.050   1.023   6.188 -0.1119 -0.7672 -0.7142
  412MOL0     C56747  10.180   0.901   6.365 -0.1848  0.2829  0.4428
  412MOL0     C56748  10.289   0.864   6.266 -0.1676  0.0618  0.1418
  412MOL0     O56749  10.402   0.939   6.266 -0.0513  0.0439 -0.4796
  412MOL0     C56750  10.506   0.901   6.190 -0.3942  0.7220 -0.8122
  412MOL0     C56751  10.487   0.900   6.054 -0.4480  0.5470  0.6568
  412MOL0     C56752  10.598   0.853   5.978 -0.4875 -0.1847  0.4018
  412MOL0     C56753  10.721   0.833   6.032 -0.3998  0.2022 -0.1757
  412MOL0     O56754  10.837   0.802   5.953  0.4402 -0.1569 -0.5505
  412MOL0     C56755  10.830   0.749   5.820  0.5888  0.0225  0.3183
  412MOL0     C56756  10.864   0.859   5.713 -0.3116 -0.6286 -0.3300
  412MOL0     C56757  10.851   0.797   5.570 -1.1784 -0.4324 -0.6999
  412MOL0     C56758  10.720   0.844   5.490 -0.3588  0.9167 -0.1172
  412MOL0     C56759  10.725   0.757   5.355 -0.5723  0.3720  0.2404
  412MOL0     C56760  10.595   0.769   5.282 -0.4612  0.1382  0.5066
  412MOL0     C56761  10.572   0.669   5.166  0.5547  0.2572 -0.0936
  412MOL0     C56762  10.441   0.685   5.097 -0.0194  0.4576 -0.2860
  412MOL0    Cl56763  10.421   0.857   5.048  0.9557 -0.0464  0.4278
  412MOL0     C56764  10.743   0.856   6.165 -0.1803 -0.6258  0.1272
  412MOL0     C56765  10.630   0.879   6.250 -0.3651 -0.4582  0.2937
  412MOL0     O56766  10.265   0.770   6.189  0.7124 -0.8375  0.1705
  412MOL0     C56767  10.178   0.839   6.493  0.0876  0.2692  0.1212
  412MOL0     C56768  10.070   0.858   6.582 -0.5804  0.0017 -0.5179
  412MOL0     N56769   9.914   1.138   7.173  0.7699 -0.1472 -0.0786
  412MOL0     N56770   9.941   1.190   7.293  1.1758  0.1860  0.5677
  412MOL0     C56771  10.014   2.234   7.936  0.1257 -0.1386 -0.7861
  412MOL0     C56772  10.044   2.371   7.913  0.1882 -0.1636 -0.2985
  412MOL0     C56773  10.125   2.785   7.856  0.2706 -0.2364 -1.0824
  412MOL0     C56774  10.061   2.819   7.732  0.0948 -0.6596  0.9675
  412MOL0     C56775  10.112   2.931   7.666 -0.3484  0.3038  0.4533
  412MOL0     C56776  10.217   3.000   7.724  0.3090 -0.9247 -0.5861
  412MOL0     O56777  10.282   3.110   7.663  0.0912  0.0798 -0.3648
  412MOL0     C56778  10.259   3.156   7.535 -0.5392 -0.6513 -1.1277
  412MOL0     C56779  10.377   3.232   7.463  0.8380 -0.3681  0.0942
  412MOL0     C56780  10.456   3.339   7.542  0.0956  0.0919  0.6318
  412MOL0     C56781  10.581   3.389   7.473 -0.6565  0.0659 -0.4384
  412MOL0     C56782  10.687   3.282   7.472 -0.6997 -0.7564 -0.3686
  412MOL0     C56783  10.764   3.187   7.463  0.5251  0.1090 -0.3126
  412MOL0     C56784  10.285   2.961   7.841  1.1341  0.0377 -0.0514
  412MOL0     C56785  10.238   2.849   7.907 -0.7476  0.4714 -0.4202
  412MOL0     C56786  10.339   2.809   8.016  0.1677  0.6415  0.7304
  412MOL0     H56787   9.736   2.488   7.892  1.0306  0.4294  0.5361
  412MOL0     H56788   9.681   2.248   7.960  0.2960 -0.4304  0.7643
  412MOL0     H56789   9.669   2.040   7.901 -0.8540 -1.6736 -0.8662
  412MOL0     H56790   9.692   2.008   8.074  0.8018 -1.7098  0.7230
  412MOL0     H56791   9.816   1.803   8.021 -1.1303 -0.1632 -0.0108
  412MOL0     H56792   9.649   1.804   7.973  1.3248 -3.7763  0.4058
  412MOL0     H56793   9.699   1.856   7.739 -3.7507  2.1770  4.7634
  412MOL0     H56794   9.865   1.888   7.784 -1.1833  3.4314  1.1525
  412MOL0     H56795   9.883   1.649   7.860  0.9095  1.1251 -1.1519
  412MOL0     H56796   9.709   1.626   7.851 -0.4331  0.6166  0.0401
  412MOL0     H56797   9.880   1.705   7.620 -1.4175 -0.1552 -1.2445
  412MOL0     H56798   9.712   1.666   7.599 -0.0227  0.1331  0.2333
  412MOL0     H56799   9.911   1.454   7.688 -1.8863 -3.1102 -0.0010
  412MOL0     H56800   9.740   1.444   7.662  0.6286 -0.5580 -0.1515
  412MOL0     H56801   9.938   1.507   7.429  1.6318 -0.3031 -0.3580
  412MOL0     H56802   9.764   1.517   7.423  1.0713  1.5931 -0.0153
  412MOL0     H56803   9.873   1.245   7.533 -3.8482 -0.7298  2.9345
  412MOL0     H56804   9.715   1.287   7.500 -0.9278 -0.3028 -1.0789
  412MOL0     H56805   9.643   1.320   7.231 -1.6777 -3.0296 -1.6158
  412MOL0     H56806   9.637   1.194   7.008 -0.6008  0.1201  0.5369
  412MOL0     H56807   9.681   1.017   7.034  1.5397 -1.3376 -1.3650
  412MOL0     H56808   9.881   1.198   6.890  0.4794 -0.9120  0.1265
  412MOL0     H56809   9.863   1.010   6.902 -2.4252 -1.6681 -3.2438
  412MOL0     H56810   9.666   1.019   6.781 -0.4042  0.8252 -1.7410
  412MOL0     H56811   9.672   1.197   6.769 -1.7608 -0.5918 -1.0844
  412MOL0     H56812   9.714   1.071   6.558 -1.1401  1.1086  0.8724
  412MOL0     H56813   9.857   1.162   6.589  0.2460  0.0337 -0.1349
  412MOL0     H56814   9.883   1.043   6.370 -1.1560  0.0476  0.6341
  412MOL0     H56815  10.112   1.111   6.166 -2.2778  0.7352 -1.1394
  412MOL0     H56816   9.947   1.057   6.171  0.2284 -1.1685 -4.3509
  412MOL0     H56817  10.076   0.938   6.124 -0.5083 -1.1636 -0.3503
  412MOL0     H56818  10.399   0.926   5.997  2.7916  1.5610 -4.4821
  412MOL0     H56819  10.576   0.838   5.873 -0.8488 -0.8348  0.5636
  412MOL0     H56820  10.906   0.671   5.811  1.5365  0.9872 -0.1894
  412MOL0     H56821  10.741   0.696   5.784  1.4552 -1.1990 -0.1043
  412MOL0     H56822  10.791   0.938   5.730 -1.1781 -1.6863  1.0092
  412MOL0     H56823  10.967   0.884   5.739 -0.1190 -3.5916  2.2866
  412MOL0     H56824  10.860   0.689   5.580 -1.9194 -0.5047 -0.7595
  412MOL0     H56825  10.939   0.829   5.514 -1.9141  0.6147 -1.2817
  412MOL0     H56826  10.709   0.951   5.468 -1.8714  0.6733 -0.6533
  412MOL0     H56827  10.633   0.811   5.547  0.1980  0.2063  0.3439
  412MOL0     H56828  10.806   0.799   5.295 -1.7896  2.4014 -0.0661
  412MOL0     H56829  10.736   0.651   5.378 -2.4746  0.6826  3.0365
  412MOL0     H56830  10.584   0.867   5.236 -2.3612 -0.5755 -0.6845
  412MOL0     H56831  10.515   0.761   5.355 -0.3672 -1.2734  0.4971
  412MOL0     H56832  10.581   0.570   5.213  1.8480  0.6897  0.6137
  412MOL0     H56833  10.654   0.667   5.094  0.4122 -1.8998 -0.2769
  412MOL0     H56834  10.361   0.662   5.168  1.9761 -3.8108  0.8726
  412MOL0     H56835  10.436   0.618   5.010 -0.6502  0.7244 -0.4665
  412MOL0     H56836  10.837   0.823   6.208 -0.2643  0.6683  1.3664
  412MOL0     H56837  10.645   0.886   6.357  1.4249 -0.5992  0.0955
  412MOL0     H56838  10.265   0.784   6.526 -0.5106 -0.0815  1.1677
  412MOL0     H56839  10.059   0.816   6.682 -3.0114  2.6831  0.4915
  412MOL0     H56840  10.099   2.167   7.924 -0.8880 -0.9147 -5.6163
  412MOL0     H56841  10.145   2.409   7.906 -0.0440  0.6884  0.7654
  412MOL0     H56842   9.972   2.776   7.688  1.5614 -2.7979 -0.0909
  412MOL0     H56843  10.070   2.975   7.576  0.6918 -0.2236 -0.3105
  412MOL0     H56844  10.224   3.075   7.472  0.6729 -1.3047 -0.9921
  412MOL0     H56845  10.172   3.223   7.538 -0.9784 -1.1228 -2.5115
  412MOL0     H56846  10.348   3.281   7.369  2.8255  4.4468  1.6463
  412MOL0     H56847  10.444   3.150   7.437  1.2380  1.1570 -4.6755
  412MOL0     H56848  10.391   3.427   7.546  0.6934  0.5425  0.6230
  412MOL0     H56849  10.477   3.300   7.642  0.4150 -0.6996  0.2614
  412MOL0     H56850  10.619   3.480   7.519 -0.1705  0.5318 -1.7243
  412MOL0     H56851  10.567   3.427   7.371  2.8094  2.9455 -0.0150
  412MOL0     H56852  10.806   3.089   7.452 -1.7165 -0.9150 -0.2553
  412MOL0     H56853  10.378   3.008   7.872  1.3375 -0.7547  0.5662
  412MOL0     H56854  10.398   2.718   8.006  0.0313  0.4989  1.1749
  412MOL0     H56855  10.417   2.878   8.051 -1.4857  4.8965 -3.0089
  412MOL0     H56856  10.267   2.792   8.097 -2.3753 -0.9122 -1.7068
  413MOL0     O56857  10.078   5.154   4.982 -0.0668  0.3789 -0.1670
  413MOL0     C56858  10.064   5.280   4.998  0.1363  0.9671  1.5575
  413MOL0     O56859  10.072   5.337   5.120  0.4952 -1.2076  0.4527
  413MOL0     C56860  10.116   5.267   5.226  0.1321 -0.1040 -0.2202
  413MOL0     C56861  10.034   5.260   5.339  0.7828 -0.0468 -0.7095
  413MOL0     C56862  10.080   5.188   5.448 -0.0169 -1.6665 -0.7182
  413MOL0     C56863  10.209   5.138   5.454 -0.1334  1.5459 -0.1223
  413MOL0     O56864  10.250   5.060   5.563  0.3316  0.0493  0.6067
  413MOL0     C56865  10.284   5.115   5.687 -0.5064  0.1774 -0.6943
  413MOL0     C56866  10.236   5.032   5.802 -0.1736 -0.3938 -0.3369
  413MOL0     C56867  10.086   4.994   5.776  0.8625 -0.8183  0.5132
  413MOL0     C56868  10.000   4.988   5.897  0.3473 -0.0105  0.8118
  413MOL0     C56869   9.861   4.947   5.864  0.5109 -0.6986 -0.6432
  413MOL0     C56870   9.775   4.920   5.986 -0.3247 -0.6562 -0.1661
  413MOL0     C56871   9.730   5.054   6.055  0.2041 -0.3944  0.7607
  413MOL0     C56872   9.600   5.046   6.135  0.5333  1.2562  0.3107
  413MOL0     N56873   9.619   5.133   6.246 -0.0713 -0.3735 -0.6100
  413MOL0     C56874   9.636   5.274   6.241 -0.1339  0.0239 -0.1918
  413MOL0     C56875   9.628   5.309   6.370  0.3259  0.8885  0.2363
  413MOL0     C56876   9.643   5.457   6.411 -0.2196 -0.5667  0.0064
  413MOL0     C56877   9.537   5.502   6.514 -0.8924  0.1214  0.3140
  413MOL0     C56878   9.586   5.492   6.659  0.4791  0.2558 -0.1223
  413MOL0     C56879   9.491   5.404   6.743  0.4709  0.7128 -0.3732
  413MOL0     O56880   9.521   5.406   6.889 -0.0125 -0.4224  0.7713
  413MOL0     C56881   9.462   5.512   6.960 -1.4211  1.5654 -1.0424
  413MOL0     C56882   9.503   5.530   7.100 -0.1525  0.4601  0.5441
  413MOL0     C56883   9.450   5.624   7.186  0.2022 -0.4344  0.1382
  413MOL0     C56884   9.492   5.627   7.334  0.0684 -0.5369  0.0050
  413MOL0     C56885   9.352   5.711   7.135  0.9786  0.1318  0.2834
  413MOL0     C56886   9.268   5.802   7.216 -0.4758  0.1742 -0.2360
  413MOL0     O56887   9.228   5.752   7.339  0.3226 -0.0968  0.0149
  413MOL0     C56888   9.158   5.836   7.422  0.2558 -0.7278  0.6704
  413MOL0     C56889   9.201   5.960   7.462  0.1460  1.4564  0.2640
  413MOL0     C56890   9.120   6.038   7.550  0.3538  0.8410  0.1992
  413MOL0     C56891   8.993   5.994   7.589 -0.5653 -0.4734  0.3807
  413MOL0     O56892   8.922   6.075   7.686 -0.5117  0.1803  0.0477
  413MOL0     C56893   8.783   6.070   7.659 -0.3365  0.1114  0.1916
  413MOL0     C56894   8.727   6.214   7.677 -0.0519 -0.0374  0.1888
  413MOL0     C56895   8.789   6.302   7.570 -0.8144 -0.6295 -0.1803
  413MOL0     C56896   8.736   6.443   7.577 -0.1668 -0.3985  0.1908
  413MOL0     C56897   8.610   6.431   7.491  0.1481  0.1019 -0.2100
  413MOL0     C56898   8.502   6.534   7.515 -0.3274  0.0359 -0.0452
  413MOL0     C56899   8.541   6.677   7.469  0.6328 -1.4099 -0.3037
  413MOL0     C56900   8.647   6.749   7.555  0.1000 -0.8224 -0.6721
  413MOL0    Cl56901   8.642   6.925   7.512 -0.1625  0.1190  0.0935
  413MOL0     C56902   8.957   5.854   7.563 -0.2166 -0.1517  0.1613
  413MOL0     C56903   9.040   5.781   7.477 -0.7786  0.3405 -0.7644
  413MOL0     O56904   9.239   5.915   7.173  0.1818  0.2440  0.1112
  413MOL0     C56905   9.318   5.696   7.001  0.2823 -0.7989 -0.1938
  413MOL0     C56906   9.379   5.607   6.919  0.5655 -0.7654 -1.0668
  413MOL0     N56907   9.625   5.198   6.451  0.2480  0.3496 -0.5663
  413MOL0     N56908   9.618   5.096   6.379  0.9469  0.2613  0.4873
  413MOL0     C56909  10.281   5.126   5.333 -0.8733  0.0414 -0.1525
  413MOL0     C56910  10.239   5.200   5.225  0.1380 -0.1970  0.0267
  413MOL0     C56911  10.038   5.360   4.876  0.2526  0.7765 -0.4691
  413MOL0     C56912  10.036   5.287   4.752 -0.2026 -0.4865 -0.1229
  413MOL0     C56913  10.023   5.352   4.630 -0.4037 -0.7992  0.4725
  413MOL0     C56914  10.014   5.497   4.633 -0.1115 -0.3265  0.2553
  413MOL0     O56915  10.010   5.568   4.519  0.4126 -0.2113  0.9310
  413MOL0     C56916  10.051   5.519   4.390  0.0069  0.2207 -0.5749
  413MOL0     C56917  10.105   5.620   4.299  0.0637 -0.0843 -0.0488
  413MOL0     C56918  10.242   5.667   4.355 -0.4711 -0.2361 -0.0976
  413MOL0     C56919  10.305   5.779   4.279 -0.3707  0.0923  0.2746
  413MOL0     C56920  10.212   5.897   4.264  0.6293  0.4134 -0.4218
  413MOL0     C56921  10.137   5.996   4.250 -1.2837  0.3862  0.2302
  413MOL0     C56922  10.019   5.566   4.752  0.5810 -0.4551 -0.6049
  413MOL0     C56923  10.026   5.500   4.873  0.7694 -0.5703  0.3535
  413MOL0     C56924   9.999   5.585   4.994 -0.8896  0.5434 -0.4878
  413MOL0     H56925   9.946   5.323   5.335  1.5582  1.0225 -1.5669
  413MOL0     H56926  10.002   5.191   5.524 -1.0019 -0.0247 -1.7430
  413MOL0     H56927  10.234   5.211   5.700  0.6907  1.1112 -2.4827
  413MOL0     H56928  10.392   5.135   5.690 -0.3400 -0.8060  0.8931
  413MOL0     H56929  10.297   4.941   5.810  2.8913  1.5482  0.0665
  413MOL0     H56930  10.242   5.093   5.893  3.5472  0.0264 -0.7195
  413MOL0     H56931  10.042   5.054   5.696 -1.5986 -2.5912  0.4193
  413MOL0     H56932  10.083   4.893   5.735  0.5725 -0.4750 -0.3370
  413MOL0     H56933  10.045   4.919   5.969  0.3452  0.3440  1.1534
  413MOL0     H56934  10.007   5.081   5.953 -1.5674  1.4582 -1.2223
  413MOL0     H56935   9.854   4.855   5.804 -0.6372 -1.6216  0.8473
  413MOL0     H56936   9.810   5.026   5.808  0.0651 -0.8018 -0.3826
  413MOL0     H56937   9.684   4.864   5.963 -1.0945  0.0042  1.1302
  413MOL0     H56938   9.832   4.862   6.059 -0.7899  1.7075  2.2381
  413MOL0     H56939   9.697   5.120   5.974 -0.5781 -0.1345  1.2874
  413MOL0     H56940   9.814   5.096   6.110  0.7300  1.2241 -1.1780
  413MOL0     H56941   9.505   5.056   6.082  1.1180  2.3294 -0.5705
  413MOL0     H56942   9.601   4.944   6.176 -0.7980  0.1398 -2.1766
  413MOL0     H56943   9.667   5.344   6.164  4.8838  1.7022  2.8674
  413MOL0     H56944   9.623   5.516   6.321 -1.6086 -1.3563 -0.2402
  413MOL0     H56945   9.746   5.483   6.437 -0.6676 -1.4616  3.0282
  413MOL0     H56946   9.509   5.605   6.491  3.6822  1.4232 -0.5715
  413MOL0     H56947   9.460   5.427   6.494  0.8075 -1.7488  0.4133
  413MOL0     H56948   9.681   5.439   6.663 -1.2418 -3.1087 -0.6463
  413MOL0     H56949   9.598   5.589   6.709  2.1284 -0.7988  1.6466
  413MOL0     H56950   9.390   5.435   6.715  1.1258  2.5654 -0.8323
  413MOL0     H56951   9.506   5.301   6.712 -0.9846  0.5061 -0.4924
  413MOL0     H56952   9.578   5.464   7.143 -0.3027  0.3580  0.6491
  413MOL0     H56953   9.499   5.729   7.375  0.3592 -0.2856 -0.6531
  413MOL0     H56954   9.589   5.581   7.355  0.3689  0.5902  1.2400
  413MOL0     H56955   9.422   5.575   7.398  0.3288 -1.8126 -0.7182
  413MOL0     H56956   9.296   6.000   7.429 -0.3327  0.2002 -3.0238
  413MOL0     H56957   9.144   6.143   7.563  0.1016  1.0569 -0.9630
  413MOL0     H56958   8.755   6.030   7.561  0.1244 -1.8942  0.8229
  413MOL0     H56959   8.733   5.999   7.726 -1.2335 -1.5603 -2.1069
  413MOL0     H56960   8.618   6.206   7.674 -0.0271 -1.6888  1.7650
  413MOL0     H56961   8.766   6.266   7.764  0.9621  1.0653 -0.8797
  413MOL0     H56962   8.767   6.255   7.473  1.0806 -1.6344 -0.1858
  413MOL0     H56963   8.898   6.307   7.580 -1.0391  0.0265  2.8602
  413MOL0     H56964   8.805   6.513   7.529  0.9779 -1.9298 -0.4983
  413MOL0     H56965   8.723   6.469   7.682  0.9715  2.2394 -0.2346
  413MOL0     H56966   8.645   6.441   7.389 -3.0327 -1.3724 -1.5937
  413MOL0     H56967   8.559   6.334   7.495  0.6322 -0.2337 -1.6027
  413MOL0     H56968   8.486   6.540   7.623 -3.0222  0.7942 -0.3987
  413MOL0     H56969   8.404   6.508   7.472  0.2544 -0.5039 -1.0784
  413MOL0     H56970   8.452   6.739   7.458  0.0409 -2.3320 -0.7743
  413MOL0     H56971   8.581   6.670   7.367  0.0310 -1.1580 -0.5562
  413MOL0     H56972   8.746   6.709   7.533  1.6414  2.0994  0.3580
  413MOL0     H56973   8.627   6.740   7.662  3.0876 -2.5872 -0.1560
  413MOL0     H56974   8.862   5.832   7.610 -1.3447  3.6867  0.0352
  413MOL0     H56975   9.022   5.676   7.455  1.6502 -1.0202  2.8246
  413MOL0     H56976   9.241   5.759   6.956 -2.1124 -1.0909  3.1212
  413MOL0     H56977   9.351   5.602   6.814  1.3141 -2.8617 -1.2232
  413MOL0     H56978  10.371   5.068   5.347  0.1328  1.4852 -0.3337
  413MOL0     H56979  10.295   5.205   5.132  1.0064 -1.1977  0.4846
  413MOL0     H56980  10.044   5.179   4.751  0.7862 -0.4846 -3.6801
  413MOL0     H56981  10.034   5.308   4.531 -1.6866  0.2100 -0.1585
  413MOL0     H56982  10.124   5.439   4.405  1.4999  1.5633 -0.4554
  413MOL0     H56983   9.954   5.490   4.349 -0.2948 -2.0522  1.5250
  413MOL0     H56984  10.031   5.701   4.287  1.2857  1.0841  0.0546
  413MOL0     H56985  10.124   5.582   4.199 -1.0243 -3.2314  0.8283
  413MOL0     H56986  10.228   5.704   4.457 -0.3194  5.4486 -1.8065
  413MOL0     H56987  10.316   5.586   4.350  1.4253  1.4039  0.0461
  413MOL0     H56988  10.328   5.746   4.177  2.4559 -1.0707  1.1913
  413MOL0     H56989  10.394   5.811   4.333  0.3639  0.1819 -0.9613
  413MOL0     H56990  10.083   6.087   4.235  0.2507  1.1829 -0.7952
  413MOL0     H56991  10.011   5.674   4.740  0.3584 -0.6532 -2.4779
  413MOL0     H56992  10.091   5.601   5.050 -0.5290 -2.4280 -0.0765
  413MOL0     H56993   9.970   5.688   4.971  1.8343  1.3815 -0.5589
  413MOL0     H56994   9.931   5.532   5.062  1.1535 -3.7345 -1.4452
  414MOL0     O56995  10.695   9.772  11.436  0.3568  0.0671  0.5892
  414MOL0     C56996  10.697   9.883  11.377  0.0761 -0.5000  0.7650
  414MOL0     O56997  10.815   9.964  11.374 -0.2637 -0.2717  0.6084
  414MOL0     C56998  10.919   9.932  11.448 -0.6471  0.0739 -0.8183
  414MOL0     C56999  11.046   9.936  11.387  0.4840  0.0188  0.5268
  414MOL0     C57000  11.162   9.911  11.452  0.5150 -0.2813  0.4670
  414MOL0     C57001  11.158   9.868  11.590  0.8726 -1.2613 -0.8103
  414MOL0     O57002  11.253   9.843  11.679 -0.0260  0.5797 -0.4323
  414MOL0     C57003  11.371   9.779  11.634 -0.0320 -0.4750  0.3521
  414MOL0     C57004  11.476   9.893  11.617  1.6538  0.1269 -0.9978
  414MOL0     C57005  11.613   9.835  11.589  0.3554  0.0344 -0.1438
  414MOL0     C57006  11.692   9.945  11.520  0.0601  0.5961 -0.5230
  414MOL0     C57007  11.839   9.920  11.493 -1.0114 -0.1952  0.7798
  414MOL0     C57008  11.908  10.035  11.418  0.3069  0.0725  0.3026
  414MOL0     C57009  12.061  10.012  11.438 -0.0061 -0.5574 -0.1876
  414MOL0     C57010  12.145  10.096  11.341  0.5050 -0.5318  0.7970
  414MOL0     N57011  12.091  10.232  11.327 -0.0615 -0.2148  0.2656
  414MOL0     C57012  12.002  10.280  11.231 -1.0253  0.2736 -0.4302
  414MOL0     C57013  11.952  10.403  11.278 -1.0123  0.1224  0.6305
  414MOL0     C57014  11.853  10.481  11.213  0.5625  0.5974  0.6056
  414MOL0     C57015  11.720  10.474  11.284  0.5682  0.9206  0.6309
  414MOL0     C57016  11.606  10.556  11.218  0.0486  0.2810 -0.4863
  414MOL0     C57017  11.475  10.545  11.291  0.5306  1.1263 -0.0015
  414MOL0     O57018  11.406  10.421  11.260  0.0997 -0.4509  0.8182
  414MOL0     C57019  11.268  10.428  11.277  1.3690 -0.4474  0.2294
  414MOL0     C57020  11.189  10.529  11.351 -0.6589 -0.4380  0.5052
  414MOL0     C57021  11.048  10.539  11.344  0.9312 -0.1530  0.3888
  414MOL0     C57022  10.981  10.662  11.398 -0.8539 -1.7608 -0.9575
  414MOL0     C57023  10.977  10.428  11.292  0.4545  0.2748 -0.4793
  414MOL0     C57024  10.831  10.429  11.273 -0.1049  0.2522 -0.2337
  414MOL0     O57025  10.776  10.555  11.239  0.1833  0.3848 -0.6906
  414MOL0     C57026  10.645  10.580  11.234  0.4369  0.8312 -0.2435
  414MOL0     C57027  10.595  10.621  11.358  0.4403  0.1266 -0.7040
  414MOL0     C57028  10.462  10.642  11.368 -0.0581 -0.6737 -0.5140
  414MOL0     C57029  10.377  10.628  11.255 -0.4585  0.6319 -0.6921
  414MOL0     O57030  10.247  10.667  11.259  0.8004 -0.0267 -0.8462
  414MOL0     C57031  10.200  10.781  11.335 -0.9770 -0.2291 -0.4185
  414MOL0     C57032  10.233  10.910  11.270 -0.4977 -0.2471  1.1827
  414MOL0     C57033  10.196  10.910  11.116 -0.5082  1.4081  0.0859
  414MOL0     C57034  10.045  10.890  11.086  0.6757 -0.0340 -0.2116
  414MOL0     C57035  10.011  10.921  10.933 -0.4730  0.6053 -0.6639
  414MOL0     C57036   9.864  10.957  10.914 -0.0425 -0.5634  0.3069
  414MOL0     C57037   9.847  11.019  10.771 -0.3085 -0.0949 -0.5216
  414MOL0     C57038   9.910  10.942  10.647  0.9427  0.1130 -0.1237
  414MOL0    Cl57039   9.859  10.777  10.629  0.0539  0.0323  0.5878
  414MOL0     C57040  10.426  10.592  11.135 -0.5102  0.5282 -0.0210
  414MOL0     C57041  10.560  10.562  11.123 -0.3232  0.0738  0.0810
  414MOL0     O57042  10.768  10.325  11.285 -0.3039  1.1484  0.6690
  414MOL0     C57043  11.051  10.335  11.223  0.3432  0.0716  0.1866
  414MOL0     C57044  11.188  10.340  11.210  0.7375  0.3650  0.4866
  414MOL0     N57045  12.002  10.414  11.404  0.3171 -0.1080 -0.1118
  414MOL0     N57046  12.079  10.311  11.436  0.4443  0.0808 -0.7772
  414MOL0     C57047  11.031   9.873  11.649  0.0238 -0.1159 -0.6107
  414MOL0     C57048  10.913   9.896  11.577 -0.1262 -0.4501 -0.0657
  414MOL0     C57049  10.573   9.959  11.331 -0.4373  1.0680  0.4392
  414MOL0     C57050  10.591  10.067  11.239  0.5937  0.6946  0.4397
  414MOL0     C57051  10.490  10.112  11.162  0.2775  0.0683  0.2319
  414MOL0     C57052  10.359  10.069  11.191 -0.2863  0.2653 -0.4788
  414MOL0     O57053  10.248  10.131  11.138  0.6728  0.1477  0.0339
  414MOL0     C57054  10.255  10.167  10.999  0.3572 -0.2353 -0.4835
  414MOL0     C57055  10.132  10.250  10.957  0.2394 -0.2561 -0.1630
  414MOL0     C57056  10.135  10.390  11.024  0.6047 -0.0785  0.4970
  414MOL0     C57057  10.034  10.486  10.962 -0.3867  0.1799 -0.2710
  414MOL0     C57058   9.892  10.444  10.993  0.5132 -0.9075 -0.4922
  414MOL0     C57059   9.790  10.418  11.048 -0.2882  0.0866  0.1154
  414MOL0     C57060  10.328   9.957  11.273 -1.0550 -0.3676  0.8563
  414MOL0     C57061  10.446   9.900  11.331  0.8391 -0.6125 -0.6478
  414MOL0     C57062  10.411   9.763  11.405 -0.3546 -0.2620  0.2740
  414MOL0     H57063  11.028   9.961  11.283 -2.9928 -4.0280 -0.1018
  414MOL0     H57064  11.260   9.918  11.405  0.4669  0.1401  0.4257
  414MOL0     H57065  11.375   9.728  11.537  0.4223  1.1420 -0.5100
  414MOL0     H57066  11.416   9.709  11.704  0.7954 -0.7043 -0.3876
  414MOL0     H57067  11.451   9.960  11.534 -0.2959  3.0606  1.7217
  414MOL0     H57068  11.488   9.950  11.709  2.6561 -0.3386 -0.8331
  414MOL0     H57069  11.658   9.808  11.685  4.0233  1.2106 -1.3652
  414MOL0     H57070  11.620   9.746  11.525  4.4134  1.2798 -1.8129
  414MOL0     H57071  11.639   9.951  11.425 -1.2734  1.2139  0.2280
  414MOL0     H57072  11.679  10.041  11.571  0.7117  0.7900 -0.7137
  414MOL0     H57073  11.866   9.834  11.433  2.8471  0.2495  1.6414
  414MOL0     H57074  11.882   9.911  11.594  2.0422  1.7950 -0.2051
  414MOL0     H57075  11.884  10.039  11.312  0.5594 -0.3313  0.2276
  414MOL0     H57076  11.868  10.131  11.454  2.8466  0.5202  2.2200
  414MOL0     H57077  12.089   9.907  11.430  3.1494 -0.1405  2.8102
  414MOL0     H57078  12.082  10.046  11.540 -1.1275 -0.0741 -0.0996
  414MOL0     H57079  12.247  10.098  11.380  0.3925 -2.8782  1.4073
  414MOL0     H57080  12.152  10.054  11.240 -1.5416  1.7442 -0.3822
  414MOL0     H57081  11.970  10.244  11.134 -1.6571  0.3295 -0.2429
  414MOL0     H57082  11.842  10.428  11.118 -0.3188 -1.9060  2.0103
  414MOL0     H57083  11.885  10.586  11.210  0.7419  0.5248 -0.5434
  414MOL0     H57084  11.698  10.367  11.286  1.5028  0.6093 -1.9863
  414MOL0     H57085  11.746  10.501  11.386  0.1904  0.4069  0.8692
  414MOL0     H57086  11.637  10.661  11.215 -0.0557  0.7327  4.7438
  414MOL0     H57087  11.591  10.519  11.116  1.9793 -1.3917 -0.2235
  414MOL0     H57088  11.476  10.557  11.400 -0.2852 -0.6179  0.2438
  414MOL0     H57089  11.418  10.630  11.253 -0.0868  1.4643  1.6009
  414MOL0     H57090  11.233  10.621  11.388  0.8730 -0.2637 -1.5885
  414MOL0     H57091  11.052  10.704  11.470  0.4615 -0.6416 -2.8218
  414MOL0     H57092  10.883  10.645  11.444 -1.1943 -0.2058 -1.0754
  414MOL0     H57093  10.974  10.730  11.313  1.2067 -0.1683  0.0784
  414MOL0     H57094  10.665  10.641  11.438  1.2212  0.5088 -1.4591
  414MOL0     H57095  10.432  10.677  11.467  1.7012 -3.2442  1.0319
  414MOL0     H57096  10.093  10.773  11.315 -0.5044  0.7993 -4.2384
  414MOL0     H57097  10.228  10.785  11.440  0.6379 -3.0225 -0.6560
  414MOL0     H57098  10.163  10.981  11.316  0.1792  0.1632  1.5916
  414MOL0     H57099  10.335  10.938  11.296 -0.6246  0.5268  0.8932
  414MOL0     H57100  10.247  10.841  11.048 -2.2091  1.8834 -1.7483
  414MOL0     H57101  10.215  11.014  11.089 -0.3763  2.1828  2.8052
  414MOL0     H57102   9.988  10.965  11.142 -2.1643 -3.3470  1.6762
  414MOL0     H57103  10.009  10.791  11.116 -0.9402  0.3724 -0.6981
  414MOL0     H57104  10.059  11.015  10.908  1.1910  0.8737  2.9281
  414MOL0     H57105  10.045  10.847  10.860 -0.7140  1.0460 -1.2387
  414MOL0     H57106   9.847  11.033  10.991  1.8006 -1.3496  1.5756
  414MOL0     H57107   9.793  10.875  10.924 -2.8569  1.1848 -3.1567
  414MOL0     H57108   9.884  11.121  10.763  0.5767 -0.2933  0.6664
  414MOL0     H57109   9.739  11.026  10.753 -0.5765  0.6235  1.1043
  414MOL0     H57110  10.019  10.935  10.652  1.0483 -3.6457 -3.1552
  414MOL0     H57111   9.880  10.992  10.554 -2.6807 -0.1434  0.7606
  414MOL0     H57112  10.358  10.582  11.050 -1.3731  1.0867  0.5794
  414MOL0     H57113  10.595  10.551  11.021  1.1043  1.7581  0.3461
  414MOL0     H57114  11.007  10.253  11.167  1.9650 -0.1108 -0.8971
  414MOL0     H57115  11.238  10.262  11.154 -0.8821  0.4714 -1.1746
  414MOL0     H57116  11.022   9.841  11.753  0.7966  2.1513  0.2097
  414MOL0     H57117  10.819   9.875  11.626  0.0546  1.4608  1.2129
  414MOL0     H57118  10.687  10.102  11.203  1.0063 -0.9738 -0.1742
  414MOL0     H57119  10.505  10.190  11.088  0.4171 -2.4155 -2.5395
  414MOL0     H57120  10.348  10.224  10.988  1.2000 -1.6592 -1.0154
  414MOL0     H57121  10.271  10.076  10.940  0.8615 -3.7622  4.4369
  414MOL0     H57122  10.040  10.198  10.984  0.9705 -0.5578  1.9134
  414MOL0     H57123  10.135  10.278  10.851  2.4509 -0.2963 -0.1621
  414MOL0     H57124  10.116  10.371  11.130 -0.2760  0.0037  0.3598
  414MOL0     H57125  10.237  10.430  11.025  1.6692 -2.5508  2.8750
  414MOL0     H57126  10.041  10.496  10.854  2.6592  1.3624 -0.0611
  414MOL0     H57127  10.051  10.581  11.013 -0.1527 -1.5781  3.2644
  414MOL0     H57128   9.694  10.386  11.083 -2.3370  2.7815 -2.4992
  414MOL0     H57129  10.227   9.916  11.273 -0.7433 -1.1873 -0.5649
  414MOL0     H57130  10.446   9.771  11.508 -0.2407 -0.0262  0.2192
  414MOL0     H57131  10.307   9.734  11.394 -0.1171 -1.0250 -0.0123
  414MOL0     H57132  10.474   9.676  11.382 -2.7057 -1.0275 -4.6023
  415MOL0     O57133   5.299   3.892   9.917 -0.0121  0.4043  0.7874
  415MOL0     C57134   5.176   3.916   9.914 -0.8451  0.8101  0.2690
  415MOL0     O57135   5.120   3.992   9.819  0.0718 -0.6915 -0.1533
  415MOL0     C57136   5.196   4.029   9.708  0.8928 -0.2482  0.3379
  415MOL0     C57137   5.288   4.133   9.705  0.6024 -0.5572 -0.1197
  415MOL0     C57138   5.351   4.158   9.586  1.1295  0.7205 -0.4213
  415MOL0     C57139   5.317   4.098   9.463  0.0568  1.0648 -0.2058
  415MOL0     O57140   5.387   4.140   9.353 -0.0170  0.1911 -0.4090
  415MOL0     C57141   5.350   4.078   9.230 -0.1395 -0.0788 -0.2380
  415MOL0     C57142   5.454   4.123   9.131  0.5673  0.5270 -0.8753
  415MOL0     C57143   5.428   4.076   8.990 -0.6202 -0.2823  0.1634
  415MOL0     C57144   5.559   4.060   8.907  0.0683  0.2036 -0.6580
  415MOL0     C57145   5.531   4.038   8.757 -0.2197  0.8962  0.1518
  415MOL0     C57146   5.663   4.057   8.687  0.1735 -0.7974  0.5162
  415MOL0     C57147   5.637   4.049   8.539  0.1508  0.4512 -0.1138
  415MOL0     C57148   5.752   4.046   8.446 -0.4063  0.2781  0.5005
  415MOL0     N57149   5.726   4.054   8.303  0.6443 -0.0105  0.4213
  415MOL0     C57150   5.637   3.960   8.245 -0.8071 -0.7118  0.4247
  415MOL0     C57151   5.647   3.997   8.112 -0.8222 -1.1384 -1.1138
  415MOL0     C57152   5.595   3.919   7.994 -0.4363 -0.0938 -0.9187
  415MOL0     C57153   5.454   3.935   7.968  0.2881  0.6232 -0.2008
  415MOL0     C57154   5.402   3.843   7.847  0.0464  0.1297 -0.1845
  415MOL0     C57155   5.272   3.770   7.903 -0.1159 -0.1326  0.7625
  415MOL0     O57156   5.164   3.865   7.902  0.5749  0.5417  0.1239
  415MOL0     C57157   5.052   3.821   7.975  0.0146  0.8005 -0.1374
  415MOL0     C57158   4.947   3.912   7.971 -0.3084  0.3875 -0.6954
  415MOL0     C57159   4.838   3.899   8.053 -0.1433 -0.6715  1.2397
  415MOL0     C57160   4.749   4.025   8.073  0.4608 -0.5771  0.7440
  415MOL0     C57161   4.806   3.768   8.105 -0.8373  0.1212  0.4893
  415MOL0     C57162   4.678   3.738   8.183 -1.1167 -1.0899  0.7108
  415MOL0     O57163   4.680   3.644   8.275  1.0723  0.2535 -0.2345
  415MOL0     C57164   4.573   3.600   8.348 -0.1431 -0.0696  0.0138
  415MOL0     C57165   4.491   3.692   8.405  1.1901  0.2950  0.6974
  415MOL0     C57166   4.390   3.666   8.496  0.4076 -0.0959  0.4043
  415MOL0     C57167   4.364   3.527   8.523  0.4727 -0.0638 -0.9260
  415MOL0     O57168   4.272   3.482   8.616  0.8286  0.0115  0.9113
  415MOL0     C57169   4.192   3.577   8.682  0.6939  0.0552 -0.4861
  415MOL0     C57170   4.065   3.510   8.747 -0.3531  0.4570 -0.0972
  415MOL0     C57171   4.004   3.583   8.870  0.5620  0.3364  0.2286
  415MOL0     C57172   3.921   3.494   8.947  0.7469 -0.0774 -0.1106
  415MOL0     C57173   3.835   3.399   8.865 -1.4533 -0.1522  0.7241
  415MOL0     C57174   3.731   3.339   8.953  0.0381 -0.5435 -0.3958
  415MOL0     C57175   3.777   3.249   9.071  0.6071 -0.0783  0.1652
  415MOL0     C57176   3.684   3.263   9.196  0.5182 -0.2096 -0.3313
  415MOL0    Cl57177   3.717   3.425   9.271 -0.3333 -0.4574  0.3455
  415MOL0     C57178   4.440   3.434   8.464  0.3288  0.8765  0.2145
  415MOL0     C57179   4.545   3.467   8.369  0.8901  0.4240 -0.0181
  415MOL0     O57180   4.585   3.813   8.152 -0.5204  0.0172 -0.7196
  415MOL0     C57181   4.901   3.670   8.092  0.4558  0.0889 -0.2609
  415MOL0     C57182   5.027   3.690   8.031 -0.8424 -0.9596 -0.9941
  415MOL0     N57183   5.713   4.121   8.099 -0.3185  0.1638 -0.1848
  415MOL0     N57184   5.774   4.145   8.209  0.7900  0.1895  0.4313
  415MOL0     C57185   5.218   4.001   9.470 -0.4851  0.2996 -0.6588
  415MOL0     C57186   5.150   3.964   9.587 -0.3434 -0.7233  0.4457
  415MOL0     C57187   5.090   3.876  10.031  1.4249  0.1677  0.8384
  415MOL0     C57188   4.960   3.829  10.007  0.2335  1.4261  0.6406
  415MOL0     C57189   4.874   3.783  10.110  0.5924 -0.0298 -0.2160
  415MOL0     C57190   4.917   3.797  10.244 -0.1556  0.1887  0.1393
  415MOL0     O57191   4.835   3.771  10.354 -0.5789  0.0845 -0.8893
  415MOL0     C57192   4.686   3.771  10.334 -0.0445 -0.0883 -0.2744
  415MOL0     C57193   4.601   3.729  10.459 -1.1073 -0.4798  1.1745
  415MOL0     C57194   4.567   3.584  10.458 -0.5638 -0.0950 -0.3193
  415MOL0     C57195   4.469   3.527  10.567 -0.6803 -1.1849 -0.5206
  415MOL0     C57196   4.336   3.588  10.551 -0.3829  0.5677 -0.9149
  415MOL0     C57197   4.234   3.643  10.551 -0.0891 -0.1557  0.5244
  415MOL0     C57198   5.052   3.832  10.272  0.8467  0.0154 -0.2728
  415MOL0     C57199   5.138   3.866  10.167  0.1424  0.9571 -0.1252
  415MOL0     C57200   5.272   3.927  10.206  0.4464 -0.6408  0.8705
  415MOL0     H57201   5.302   4.191   9.796  1.6641 -0.1284 -0.5368
  415MOL0     H57202   5.432   4.230   9.591  3.0416 -1.3294 -0.3195
  415MOL0     H57203   5.249   4.103   9.200 -0.4143 -3.0574 -2.3034
  415MOL0     H57204   5.361   3.969   9.237  0.8585  0.0409  0.4277
  415MOL0     H57205   5.450   4.232   9.127 -2.0279  0.5518  0.4912
  415MOL0     H57206   5.546   4.085   9.176 -0.8022 -1.7793  0.1621
  415MOL0     H57207   5.370   3.984   8.995 -1.4925  0.2763  0.4705
  415MOL0     H57208   5.363   4.145   8.936  0.0620  0.7440  0.6224
  415MOL0     H57209   5.629   4.142   8.924  0.0245  0.6893 -2.5810
  415MOL0     H57210   5.614   3.975   8.950 -0.2135  0.5940  0.5202
  415MOL0     H57211   5.468   4.114   8.711 -0.8346  0.2116 -0.1556
  415MOL0     H57212   5.477   3.944   8.745 -0.7230  1.3148 -0.9948
  415MOL0     H57213   5.714   4.150   8.714 -0.7478 -0.2961  0.5502
  415MOL0     H57214   5.737   3.982   8.716 -0.0196 -1.5176 -0.8021
  415MOL0     H57215   5.573   4.128   8.498 -1.2089 -3.0968 -5.9798
  415MOL0     H57216   5.573   3.960   8.533 -1.0313  1.1377  1.5202
  415MOL0     H57217   5.818   4.132   8.462 -0.6874  0.6884 -0.4777
  415MOL0     H57218   5.810   3.954   8.461  0.1745  0.1266 -2.2019
  415MOL0     H57219   5.573   3.884   8.288 -3.8299  0.4890 -1.6266
  415MOL0     H57220   5.616   3.813   8.010 -2.6276 -0.3487  0.8184
  415MOL0     H57221   5.654   3.950   7.907  1.0711  1.3597  0.5369
  415MOL0     H57222   5.404   3.901   8.059  1.0420  2.3156  0.9156
  415MOL0     H57223   5.434   4.040   7.943 -3.7183 -0.0885 -0.6109
  415MOL0     H57224   5.387   3.919   7.770  0.8325  0.0212 -0.4553
  415MOL0     H57225   5.473   3.770   7.808 -1.1237 -1.9380  1.3628
  415MOL0     H57226   5.254   3.696   7.825  3.5638  0.2236 -0.6327
  415MOL0     H57227   5.292   3.716   7.997  1.2667 -0.9258  0.0433
  415MOL0     H57228   4.970   4.003   7.915  1.0509 -0.0501 -0.8931
  415MOL0     H57229   4.818   4.109   8.059  2.7963 -2.5180 -0.1199
  415MOL0     H57230   4.706   4.018   8.173  0.8443 -2.9189  0.8136
  415MOL0     H57231   4.669   4.033   7.999  0.7797  1.4317  0.5726
  415MOL0     H57232   4.516   3.795   8.381  0.1301  0.9669  2.2890
  415MOL0     H57233   4.350   3.748   8.555  1.0421  0.2367  0.3786
  415MOL0     H57234   4.257   3.612   8.763 -0.1095 -0.6630  0.4860
  415MOL0     H57235   4.168   3.666   8.624 -3.2032 -0.9486 -0.7251
  415MOL0     H57236   3.994   3.506   8.664  1.9788 -3.3599 -2.1906
  415MOL0     H57237   4.088   3.405   8.766  0.3287  0.6875  0.3685
  415MOL0     H57238   3.930   3.654   8.830  0.0960 -0.0027  0.4860
  415MOL0     H57239   4.070   3.646   8.930  0.3993 -0.5061  1.3084
  415MOL0     H57240   3.858   3.559   9.009  1.4964  0.6127 -0.0538
  415MOL0     H57241   3.983   3.441   9.020  0.8639  0.1880 -0.0168
  415MOL0     H57242   3.789   3.444   8.777  1.6793  0.8522 -0.5323
  415MOL0     H57243   3.898   3.319   8.824  0.4312  3.3909 -4.1126
  415MOL0     H57244   3.653   3.287   8.897 -0.0565 -0.3730 -0.4233
  415MOL0     H57245   3.671   3.419   8.997  0.4921  1.1074 -2.5895
  415MOL0     H57246   3.874   3.281   9.108 -0.5445  3.2250  0.6928
  415MOL0     H57247   3.783   3.146   9.035  2.5373 -0.7644  2.1992
  415MOL0     H57248   3.693   3.188   9.275  5.0726  1.0063  0.6193
  415MOL0     H57249   3.582   3.263   9.156  0.6456 -0.7543 -0.6758
  415MOL0     H57250   4.425   3.328   8.479  2.9595  0.4895  0.6131
  415MOL0     H57251   4.606   3.382   8.341  1.3565  0.4059  0.9924
  415MOL0     H57252   4.876   3.579   8.145  0.3935  1.3425  1.9801
  415MOL0     H57253   5.096   3.608   8.044  0.4383 -0.0056 -1.6097
  415MOL0     H57254   5.167   3.975   9.378 -1.2777  0.6111 -0.3126
  415MOL0     H57255   5.072   3.890   9.596 -2.0197  1.0301  0.9739
  415MOL0     H57256   4.930   3.814   9.904 -0.8615 -4.7985  1.4935
  415MOL0     H57257   4.780   3.739  10.079 -0.3646  1.6006  0.2573
  415MOL0     H57258   4.643   3.864  10.298 -2.8506 -1.9297 -2.1240
  415MOL0     H57259   4.667   3.700  10.253 -0.6596 -2.1102  1.5355
  415MOL0     H57260   4.509   3.786  10.449 -1.1425 -0.7266 -0.0732
  415MOL0     H57261   4.654   3.766  10.547 -4.6278 -0.4705  3.4596
  415MOL0     H57262   4.520   3.557  10.363  1.2219  0.4325 -1.3923
  415MOL0     H57263   4.659   3.525  10.464 -0.2010  0.5501  0.6134
  415MOL0     H57264   4.507   3.544  10.668 -0.3488 -1.6679 -0.5567
  415MOL0     H57265   4.460   3.418  10.556  1.4822 -1.3215 -1.3953
  415MOL0     H57266   4.136   3.686  10.537 -0.7879 -2.2948 -2.0003
  415MOL0     H57267   5.081   3.839  10.376  2.7326 -1.2211 -0.6705
  415MOL0     H57268   5.351   3.852  10.196  1.8937  0.9810 -0.5614
  415MOL0     H57269   5.302   4.014  10.147 -1.1201 -0.0536  0.8874
  415MOL0     H57270   5.259   3.975  10.304 -2.3796  0.0174  0.2543
  416MOL0     O57271   0.662   3.737   9.473  0.4524  0.3164 -0.4856
  416MOL0     C57272   0.615   3.851   9.477 -0.3019 -0.0365 -0.0792
  416MOL0     O57273   0.528   3.899   9.571 -0.1679  0.0801 -0.3658
  416MOL0     C57274   0.496   3.821   9.681  0.2130 -0.3584  0.3648
  416MOL0     C57275   0.371   3.758   9.699  0.1374 -0.7631  1.1040
  416MOL0     C57276   0.344   3.660   9.799  0.2541 -0.0157  0.1071
  416MOL0     C57277   0.445   3.612   9.876  0.5471  0.6264 -0.2726
  416MOL0     O57278   0.447   3.501   9.962  0.4736 -0.2339 -0.6581
  416MOL0     C57279   0.325   3.425   9.986 -0.1234 -0.3456 -0.5413
  416MOL0     C57280   0.348   3.299  10.074 -0.2323  0.1153  0.8851
  416MOL0     C57281   0.436   3.192   9.997  0.2143  0.9660 -0.8238
  416MOL0     C57282   0.459   3.070  10.092  0.1244 -1.1207  0.7376
  416MOL0     C57283   0.556   2.970  10.021  0.7399  0.2185 -0.2859
  416MOL0     C57284   0.686   3.003   9.965 -1.4388 -0.8723 -0.0897
  416MOL0     C57285   0.775   2.882   9.930 -0.1513  0.0275 -0.0731
  416MOL0     C57286   0.921   2.934   9.920  0.2689 -0.7479  0.0155
  416MOL0     N57287   1.014   2.824   9.881 -0.3013 -0.3583  0.6079
  416MOL0     C57288   1.149   2.842   9.890 -1.1602 -0.4244  0.0142
  416MOL0     C57289   1.203   2.739   9.814  0.1595 -0.1107  0.6112
  416MOL0     C57290   1.348   2.719   9.794 -0.5729  0.2740 -0.5657
  416MOL0     C57291   1.435   2.679   9.925 -0.4678 -0.3522  0.2211
  416MOL0     C57292   1.407   2.525   9.957 -0.1047 -0.1887 -0.0881
  416MOL0     C57293   1.481   2.492  10.089 -0.0860  0.3215 -0.2734
  416MOL0     O57294   1.435   2.584  10.192  0.1858  0.5828  0.0069
  416MOL0     C57295   1.488   2.579  10.318 -1.5584 -0.5577  0.4585
  416MOL0     C57296   1.560   2.473  10.377 -0.0819 -0.7270  0.4394
  416MOL0     C57297   1.590   2.477  10.514  0.3261  0.9295  0.9760
  416MOL0     C57298   1.689   2.366  10.562  0.3457 -0.7864 -0.4652
  416MOL0     C57299   1.560   2.587  10.595 -0.5321 -0.0481 -0.6903
  416MOL0     C57300   1.616   2.593  10.733  0.8042 -1.1758  0.8508
  416MOL0     O57301   1.533   2.636  10.836 -0.0431 -0.9568 -0.0762
  416MOL0     C57302   1.591   2.642  10.959  0.0129 -1.0789 -0.4466
  416MOL0     C57303   1.674   2.754  11.001 -0.4331  0.3743  0.1816
  416MOL0     C57304   1.752   2.737  11.113  0.3519 -0.2531  0.6064
  416MOL0     C57305   1.745   2.623  11.191  0.8182 -0.2375 -0.8227
  416MOL0     O57306   1.857   2.603  11.278  0.0988 -1.2428 -0.0666
  416MOL0     C57307   1.900   2.464  11.287 -0.1406 -0.7956 -0.2657
  416MOL0     C57308   2.033   2.451  11.368 -0.2792 -0.7583 -0.2919
  416MOL0     C57309   2.150   2.524  11.302  0.5145 -0.0694 -1.2011
  416MOL0     C57310   2.273   2.520  11.405  1.3264 -0.1891 -0.6972
  416MOL0     C57311   2.390   2.601  11.367 -0.1745  0.5407 -0.3081
  416MOL0     C57312   2.513   2.579  11.457  0.0186 -0.2699  0.2709
  416MOL0     C57313   2.631   2.636  11.361  0.9110  0.5993 -0.2620
  416MOL0     C57314   2.767   2.644  11.432  0.0275 -0.3471 -0.5055
  416MOL0    Cl57315   2.762   2.737  11.584  0.1637 -0.3240 -0.2504
  416MOL0     C57316   1.656   2.514  11.154 -0.7718 -0.3003  0.7336
  416MOL0     C57317   1.578   2.524  11.040 -0.0716  0.1317 -0.0726
  416MOL0     O57318   1.740   2.580  10.740  0.1755  0.5226 -0.2261
  416MOL0     C57319   1.489   2.696  10.545 -0.7029  0.0091  0.4727
  416MOL0     C57320   1.462   2.696  10.407  0.0691  0.1880 -0.9324
  416MOL0     N57321   1.104   2.658   9.758  0.2362 -0.4159 -0.6020
  416MOL0     N57322   0.996   2.713   9.798 -0.0281 -0.0216  0.7241
  416MOL0     C57323   0.573   3.671   9.865 -0.0678  0.0609  1.2303
  416MOL0     C57324   0.597   3.771   9.765 -0.2240 -0.2741  0.4728
  416MOL0     C57325   0.689   3.945   9.396 -0.1528 -1.3418  0.9969
  416MOL0     C57326   0.703   4.073   9.440  0.0050 -0.8106  0.0969
  416MOL0     C57327   0.773   4.178   9.369  0.3968  0.2701  0.9061
  416MOL0     C57328   0.803   4.147   9.243 -0.0205  0.5839 -0.4954
  416MOL0     O57329   0.873   4.248   9.174 -0.3931  0.6776  0.4813
  416MOL0     C57330   0.981   4.207   9.089  0.5490 -0.2959  0.4377
  416MOL0     C57331   1.098   4.194   9.176 -0.4413  0.6585 -0.3464
  416MOL0     C57332   1.194   4.082   9.126  0.6008 -1.2926  0.3397
  416MOL0     C57333   1.327   4.070   9.216 -1.4063 -0.2667  0.3428
  416MOL0     C57334   1.450   4.134   9.167  0.2307  0.4101 -0.0258
  416MOL0     C57335   1.551   4.184   9.120 -0.3961 -0.2838  0.4692
  416MOL0     C57336   0.788   4.021   9.191  0.0468 -1.3489 -0.3690
  416MOL0     C57337   0.739   3.916   9.269  0.4641 -0.3492 -0.2719
  416MOL0     C57338   0.716   3.783   9.200  0.1804 -0.5649  0.1234
  416MOL0     H57339   0.294   3.803   9.637 -1.9440 -0.6178  3.6065
  416MOL0     H57340   0.243   3.625   9.815  1.0807 -1.1762  3.4173
  416MOL0     H57341   0.281   3.379   9.897 -2.4169  0.9941 -0.1591
  416MOL0     H57342   0.244   3.483  10.031  1.3115  0.3601  1.2403
  416MOL0     H57343   0.388   3.315  10.174 -0.4450 -2.2156  1.3995
  416MOL0     H57344   0.251   3.254  10.096  1.7077 -5.4120 -0.3062
  416MOL0     H57345   0.373   3.161   9.913 -2.7099 -3.1654  2.4220
  416MOL0     H57346   0.531   3.240   9.972  1.8506  1.0117  4.3391
  416MOL0     H57347   0.506   3.113  10.181 -3.0475  0.2380  1.8654
  416MOL0     H57348   0.366   3.026  10.129 -0.4466  0.3875  1.1765
  416MOL0     H57349   0.503   2.931   9.934  1.8276  0.7518 -1.2117
  416MOL0     H57350   0.563   2.893  10.099  1.6082  2.0435  1.5355
  416MOL0     H57351   0.680   3.073   9.881 -0.8429 -1.0749 -0.3120
  416MOL0     H57352   0.739   3.054  10.046 -0.2681 -3.6792  1.0276
  416MOL0     H57353   0.742   2.838   9.836  0.1601  1.4288 -0.8654
  416MOL0     H57354   0.767   2.813  10.015  0.6059  1.2475  1.0258
  416MOL0     H57355   0.930   3.011   9.842  0.1756  0.2502  0.9668
  416MOL0     H57356   0.961   2.980  10.011  1.7862 -0.2575 -0.8605
  416MOL0     H57357   1.194   2.924   9.946 -3.0569  0.6315  0.0915
  416MOL0     H57358   1.394   2.809   9.753 -1.1405  1.4026  1.1742
  416MOL0     H57359   1.349   2.642   9.716 -0.3308  0.2271 -0.5199
  416MOL0     H57360   1.539   2.699   9.899  0.4133 -2.1772  2.0515
  416MOL0     H57361   1.402   2.733  10.015  1.0345 -2.3561  2.0845
  416MOL0     H57362   1.305   2.502   9.986  0.0402 -0.4579  0.2134
  416MOL0     H57363   1.438   2.451   9.883 -4.0580 -0.0147 -2.1467
  416MOL0     H57364   1.443   2.393  10.116 -2.1061  0.2679 -2.8905
  416MOL0     H57365   1.590   2.495  10.081  0.7825 -0.7471  5.7931
  416MOL0     H57366   1.598   2.397  10.309 -0.4571 -1.6699  1.2624
  416MOL0     H57367   1.673   2.316  10.658  2.9759 -2.2257 -0.6880
  416MOL0     H57368   1.789   2.409  10.568 -0.5158  1.1169  1.8694
  416MOL0     H57369   1.688   2.288  10.485 -0.2483 -2.7302  1.4117
  416MOL0     H57370   1.686   2.837  10.932  1.4001  0.8152  0.9849
  416MOL0     H57371   1.826   2.815  11.130 -0.5205  0.6552  0.3237
  416MOL0     H57372   1.827   2.404  11.342  0.2784 -0.6054  0.5108
  416MOL0     H57373   1.920   2.415  11.191 -0.3381  1.1713 -1.3645
  416MOL0     H57374   2.019   2.502  11.463  0.2182  0.5366 -0.8783
  416MOL0     H57375   2.052   2.344  11.369 -0.7374 -0.8397  0.6531
  416MOL0     H57376   2.100   2.621  11.296 -1.4647 -1.0137 -0.6812
  416MOL0     H57377   2.178   2.507  11.197 -1.5766 -0.5927 -1.7113
  416MOL0     H57378   2.313   2.420  11.423  1.6553  0.0295 -0.2052
  416MOL0     H57379   2.220   2.563  11.490 -3.3554  0.9283 -3.7842
  416MOL0     H57380   2.419   2.566  11.267 -0.7272  1.6858 -0.8820
  416MOL0     H57381   2.362   2.706  11.366 -0.4280  0.4894  0.5957
  416MOL0     H57382   2.534   2.476  11.487  3.1102  0.1233 -0.2403
  416MOL0     H57383   2.495   2.636  11.549 -2.0793 -1.7995  0.9029
  416MOL0     H57384   2.610   2.741  11.337  2.1119  0.4509 -2.1301
  416MOL0     H57385   2.643   2.580  11.269 -2.8386 -0.7907 -0.0843
  416MOL0     H57386   2.846   2.687  11.369 -0.3311  1.4010  0.1847
  416MOL0     H57387   2.803   2.549  11.472 -1.1708  0.2288  2.1835
  416MOL0     H57388   1.647   2.426  11.217 -1.4040 -0.6598  0.1455
  416MOL0     H57389   1.518   2.445  10.997  1.4324 -0.8847 -0.4048
  416MOL0     H57390   1.474   2.777  10.615 -0.6717 -0.7130  1.3269
  416MOL0     H57391   1.396   2.780  10.389  1.9354  2.6188  2.3866
  416MOL0     H57392   0.644   3.636   9.939  0.1327 -0.4195  0.8085
  416MOL0     H57393   0.695   3.818   9.756  1.3605 -3.0341  2.0348
  416MOL0     H57394   0.675   4.076   9.545 -2.4856 -0.4032 -0.5141
  416MOL0     H57395   0.809   4.274   9.403  3.2241  0.1760 -1.4308
  416MOL0     H57396   0.965   4.116   9.030 -0.1265  1.1097 -1.6218
  416MOL0     H57397   0.999   4.288   9.018 -0.0101 -0.6024 -0.0683
  416MOL0     H57398   1.065   4.165   9.276  1.7312  4.2340  1.6036
  416MOL0     H57399   1.146   4.291   9.188 -1.2639  0.9022  1.4091
  416MOL0     H57400   1.146   3.984   9.128  1.7200 -1.8483  1.2193
  416MOL0     H57401   1.217   4.098   9.020  1.4664 -2.5771  0.3015
  416MOL0     H57402   1.342   3.962   9.223 -0.8731 -0.3097 -1.1580
  416MOL0     H57403   1.314   4.113   9.316 -0.6342 -2.1736  1.3234
  416MOL0     H57404   1.648   4.216   9.087 -0.6510 -1.9142 -2.1999
  416MOL0     H57405   0.816   3.994   9.089  1.7367  2.4528 -1.0756
  416MOL0     H57406   0.777   3.702   9.241  0.7137 -0.0175  0.4279
  416MOL0     H57407   0.614   3.745   9.214 -0.1703  0.1784 -0.3968
  416MOL0     H57408   0.739   3.778   9.093 -1.9121  3.8099 -0.7251
  417MOL0     O57409   5.915   7.066   2.764  0.1450 -0.4427  0.2141
  417MOL0     C57410   6.002   7.050   2.681  0.5683  0.4507 -0.0142
  417MOL0     O57411   6.096   6.949   2.688 -0.4290  0.0867  0.6232
  417MOL0     C57412   6.104   6.873   2.801  0.4796  0.2673  0.0966
  417MOL0     C57413   6.136   6.919   2.930 -0.3519 -1.2698  0.3245
  417MOL0     C57414   6.143   6.834   3.038 -0.3820  0.0697 -0.1897
  417MOL0     C57415   6.128   6.699   3.017  1.2258  0.1572  0.9010
  417MOL0     O57416   6.148   6.607   3.110 -0.3877  0.6124 -0.1537
  417MOL0     C57417   6.199   6.644   3.239  0.2505  0.6809  0.0122
  417MOL0     C57418   6.240   6.506   3.294 -0.1933  0.2945  0.7007
  417MOL0     C57419   6.327   6.512   3.428 -1.3384  0.0489 -0.4427
  417MOL0     C57420   6.484   6.517   3.417 -0.1578 -0.2177 -0.5010
  417MOL0     C57421   6.546   6.601   3.530 -0.6072  0.4680  1.1702
  417MOL0     C57422   6.692   6.631   3.496  0.4831  0.1157 -0.4041
  417MOL0     C57423   6.768   6.702   3.609 -0.3945 -0.4590  0.4537
  417MOL0     C57424   6.907   6.754   3.583  0.7649  1.0394 -0.0888
  417MOL0     N57425   6.950   6.838   3.696 -0.5209 -0.3458 -0.2332
  417MOL0     C57426   6.881   6.948   3.746  0.3127 -0.6597 -0.2742
  417MOL0     C57427   6.961   7.002   3.844 -0.3128 -0.7925  1.1211
  417MOL0     C57428   6.915   7.121   3.915  0.0462  1.0520 -0.5547
  417MOL0     C57429   6.849   7.088   4.052  0.4648 -0.0425 -0.1193
  417MOL0     C57430   6.826   7.206   4.146  0.0951 -0.3767  0.4244
  417MOL0     C57431   6.721   7.300   4.090  0.4214  0.8583 -1.0344
  417MOL0     O57432   6.600   7.228   4.080 -0.5816 -0.6397  0.7130
  417MOL0     C57433   6.493   7.281   4.014  0.0698  0.0174  0.6778
  417MOL0     C57434   6.382   7.200   4.018  0.4874  0.1762  0.2421
  417MOL0     C57435   6.259   7.235   3.960  0.0751 -0.2412 -1.3019
  417MOL0     C57436   6.141   7.130   3.962  0.4790 -0.4854 -0.8010
  417MOL0     C57437   6.249   7.375   3.915  0.2751  0.8181  0.3765
  417MOL0     C57438   6.124   7.440   3.867 -0.8985  1.2294 -0.5763
  417MOL0     O57439   6.010   7.375   3.903  0.7595 -1.0197 -0.4298
  417MOL0     C57440   5.886   7.416   3.874  0.1161  0.7788 -0.3969
  417MOL0     C57441   5.848   7.535   3.937  0.2760  0.3023  0.5375
  417MOL0     C57442   5.715   7.575   3.927 -0.0461  0.1992  0.2009
  417MOL0     C57443   5.633   7.516   3.830  0.1348  0.2839  0.8943
  417MOL0     O57444   5.511   7.564   3.802 -0.3176 -0.6630 -0.3097
  417MOL0     C57445   5.407   7.480   3.857 -0.7811 -0.4022 -0.4230
  417MOL0     C57446   5.417   7.463   4.012 -0.0144  0.1562 -0.8775
  417MOL0     C57447   5.288   7.385   4.060 -0.7754  0.0331 -0.5812
  417MOL0     C57448   5.290   7.353   4.213 -1.2680 -0.9411  0.5567
  417MOL0     C57449   5.151   7.310   4.250  0.2838  0.7385 -0.2717
  417MOL0     C57450   5.059   7.434   4.260  0.1432  0.3605  0.6297
  417MOL0     C57451   4.961   7.406   4.372 -0.3716 -0.6133 -0.2414
  417MOL0     C57452   5.026   7.419   4.516 -0.3876 -0.4648 -0.9403
  417MOL0    Cl57453   4.874   7.405   4.613 -0.4056  0.0879  0.2031
  417MOL0     C57454   5.674   7.395   3.761  1.1597 -0.3065 -0.3304
  417MOL0     C57455   5.805   7.340   3.792  0.6251  0.9141  0.5489
  417MOL0     O57456   6.125   7.538   3.798 -0.2295 -0.6502 -0.1198
  417MOL0     C57457   6.362   7.460   3.922  0.2022  1.0070 -0.1680
  417MOL0     C57458   6.482   7.410   3.964  0.0128 -0.2207 -0.4616
  417MOL0     N57459   7.076   6.932   3.851 -0.1142 -0.4463  0.9715
  417MOL0     N57460   7.075   6.842   3.760 -0.3115  0.4083  0.4291
  417MOL0     C57461   6.105   6.643   2.891  0.8528  0.7181 -0.7506
  417MOL0     C57462   6.089   6.729   2.785  0.6542 -0.2058 -1.6302
  417MOL0     C57463   5.999   7.148   2.576  0.3283  0.4217  0.7630
  417MOL0     C57464   6.082   7.123   2.465 -0.4482 -0.2438 -0.2525
  417MOL0     C57465   6.090   7.203   2.355  0.2426 -0.0424  0.3783
  417MOL0     C57466   6.005   7.314   2.344 -0.1639 -0.0872 -0.1088
  417MOL0     O57467   5.986   7.387   2.227 -0.0407 -0.1220 -0.1412
  417MOL0     C57468   6.074   7.375   2.121 -0.6913 -0.0126  0.5252
  417MOL0     C57469   6.049   7.493   2.027  0.2635 -0.2611  0.1467
  417MOL0     C57470   5.916   7.483   1.949  0.1299 -1.1687 -0.3437
  417MOL0     C57471   5.856   7.619   1.901  0.3895  0.2235  0.5716
  417MOL0     C57472   5.961   7.684   1.823  0.3594  0.5699  0.5088
  417MOL0     C57473   6.055   7.739   1.770 -0.5295  0.1884 -0.1026
  417MOL0     C57474   5.908   7.332   2.452 -0.3239  1.1152  0.0053
  417MOL0     C57475   5.897   7.251   2.563 -0.1085 -0.3864  0.5432
  417MOL0     C57476   5.778   7.298   2.654 -0.3981 -0.1996  0.0338
  417MOL0     H57477   6.145   7.026   2.949 -4.1643 -0.6787 -0.3466
  417MOL0     H57478   6.165   6.891   3.128  1.2977  0.6772 -0.9465
  417MOL0     H57479   6.124   6.685   3.307 -0.2275 -0.0577 -0.0498
  417MOL0     H57480   6.289   6.705   3.226  0.1152  1.3703  1.9446
  417MOL0     H57481   6.146   6.456   3.319 -2.2608  1.6622 -3.3369
  417MOL0     H57482   6.287   6.440   3.221  0.0156  0.8455  0.3292
  417MOL0     H57483   6.291   6.598   3.485 -1.7629 -0.3525 -0.0919
  417MOL0     H57484   6.299   6.427   3.491  2.8129  0.2255  1.9713
  417MOL0     H57485   6.514   6.412   3.425 -2.9742 -1.0170  0.4111
  417MOL0     H57486   6.517   6.551   3.319  0.0916  0.4188 -0.2006
  417MOL0     H57487   6.541   6.542   3.622 -4.5833 -1.6194 -0.1274
  417MOL0     H57488   6.485   6.692   3.530 -0.6128  0.5133 -1.1052
  417MOL0     H57489   6.736   6.534   3.472  0.2069  0.4436 -2.3980
  417MOL0     H57490   6.681   6.679   3.399 -2.1351 -1.2417 -0.8767
  417MOL0     H57491   6.762   6.640   3.699 -1.7000 -4.0711 -1.8808
  417MOL0     H57492   6.714   6.795   3.630 -0.2926 -0.6264  1.5264
  417MOL0     H57493   6.976   6.670   3.572  1.9531  2.2104 -2.1372
  417MOL0     H57494   6.912   6.819   3.495 -0.7026  0.4087 -0.6816
  417MOL0     H57495   6.787   6.988   3.710  1.0586  1.5037  0.0109
  417MOL0     H57496   6.854   7.182   3.848 -0.0248  1.3379 -0.2362
  417MOL0     H57497   7.004   7.173   3.951  1.3555 -1.4679  0.0249
  417MOL0     H57498   6.746   7.054   4.036 -0.9861  2.1864  3.2226
  417MOL0     H57499   6.892   6.998   4.096 -3.4773 -2.1043 -0.0173
  417MOL0     H57500   6.789   7.178   4.245 -1.7336 -1.1800 -0.4367
  417MOL0     H57501   6.921   7.253   4.173  1.4375 -2.0419 -1.1392
  417MOL0     H57502   6.705   7.383   4.160 -0.9944 -0.8338  0.7964
  417MOL0     H57503   6.761   7.334   3.994  3.1433  0.6949 -0.0523
  417MOL0     H57504   6.386   7.107   4.075  0.5178 -0.4742 -0.7866
  417MOL0     H57505   6.066   7.160   4.036  1.0960 -1.4658  0.2619
  417MOL0     H57506   6.170   7.028   3.988  0.4177  0.5932  4.9280
  417MOL0     H57507   6.099   7.132   3.861 -1.9985  0.6888  0.1765
  417MOL0     H57508   5.918   7.586   4.001  0.0263  1.9642 -0.4702
  417MOL0     H57509   5.676   7.662   3.978 -0.8873 -0.7584  1.2463
  417MOL0     H57510   5.313   7.534   3.847 -1.3329 -1.4608 -1.0440
  417MOL0     H57511   5.403   7.379   3.815 -0.8038  1.0015 -4.1179
  417MOL0     H57512   5.506   7.402   4.030  0.8707  1.1936 -1.6571
  417MOL0     H57513   5.417   7.562   4.057 -0.4676 -0.7258  1.1704
  417MOL0     H57514   5.294   7.288   4.012  0.8831  0.1638 -0.7013
  417MOL0     H57515   5.198   7.443   4.038 -0.8978  0.4721  0.9617
  417MOL0     H57516   5.320   7.444   4.267  1.5965 -1.1817 -0.4545
  417MOL0     H57517   5.357   7.268   4.221  0.5176  0.5157  1.8579
  417MOL0     H57518   5.109   7.245   4.173 -0.4101  1.5848 -0.6226
  417MOL0     H57519   5.166   7.259   4.346 -1.6339  2.5144  1.0613
  417MOL0     H57520   4.995   7.460   4.175  0.3255 -0.1426  0.3331
  417MOL0     H57521   5.126   7.517   4.285  3.8063 -2.5229  1.2628
  417MOL0     H57522   4.910   7.310   4.359  2.2690 -2.3493  1.1904
  417MOL0     H57523   4.890   7.489   4.363  2.0685  1.4343 -2.5644
  417MOL0     H57524   5.083   7.510   4.537 -1.0378 -0.5207  1.3134
  417MOL0     H57525   5.100   7.338   4.516  1.7818  1.3938 -1.8748
  417MOL0     H57526   5.606   7.342   3.696  2.2653 -1.3844 -0.6430
  417MOL0     H57527   5.839   7.246   3.750  1.8321  1.2960  0.6262
  417MOL0     H57528   6.376   7.562   3.888  0.5270  0.5255 -1.5075
  417MOL0     H57529   6.575   7.463   3.943  1.8623 -2.8765  0.5298
  417MOL0     H57530   6.083   6.536   2.889 -2.0630  1.1743  1.0057
  417MOL0     H57531   6.058   6.683   2.692  0.8989 -1.9397 -0.8896
  417MOL0     H57532   6.144   7.033   2.465 -1.6552 -1.1075  0.3403
  417MOL0     H57533   6.147   7.163   2.272  0.1188  0.2832  0.1352
  417MOL0     H57534   6.176   7.377   2.160  0.4756 -1.8928 -2.1446
  417MOL0     H57535   6.074   7.282   2.064  0.9554  0.3452 -0.0969
  417MOL0     H57536   6.134   7.497   1.958 -1.1083 -0.2063 -1.6104
  417MOL0     H57537   6.045   7.583   2.089 -0.8847 -0.7104  0.7633
  417MOL0     H57538   5.937   7.422   1.861 -1.7486 -0.0006 -1.6826
  417MOL0     H57539   5.840   7.433   2.009  0.1032  0.0126  0.6462
  417MOL0     H57540   5.827   7.689   1.980  0.5416  3.4237 -1.9959
  417MOL0     H57541   5.771   7.602   1.835  0.2150  3.1494 -0.1226
  417MOL0     H57542   6.144   7.789   1.737 -0.4172  0.1508  0.1401
  417MOL0     H57543   5.845   7.420   2.445 -0.7011  0.9930  1.5473
  417MOL0     H57544   5.762   7.405   2.638  2.0839 -0.1654 -3.2849
  417MOL0     H57545   5.687   7.250   2.616 -0.2632 -1.7066  1.4837
  417MOL0     H57546   5.802   7.278   2.759  0.1841  2.5565  0.5146
  418MOL0     O57547   3.051  10.664   1.014  0.3169 -0.2358  0.8059
  418MOL0     C57548   3.019  10.749   1.095  0.3165  0.0673 -0.3823
  418MOL0     O57549   3.103  10.830   1.171  0.6842 -0.1726 -0.3262
  418MOL0     C57550   3.222  10.776   1.215 -0.1063  0.7424  0.2029
  418MOL0     C57551   3.335  10.860   1.238  0.7793 -0.9962  0.2899
  418MOL0     C57552   3.462  10.803   1.281  0.0052  0.8379  0.8665
  418MOL0     C57553   3.481  10.669   1.302  0.7555  0.4786  0.4015
  418MOL0     O57554   3.599  10.628   1.349 -0.4224  0.4541 -0.0977
  418MOL0     C57555   3.616  10.487   1.362  0.8305 -0.3128  0.4855
  418MOL0     C57556   3.757  10.464   1.407  0.4565  0.5735  0.2965
  418MOL0     C57557   3.848  10.406   1.309  0.0237  1.0015  0.4238
  418MOL0     C57558   3.807  10.266   1.263  0.5653 -0.1252 -0.4815
  418MOL0     C57559   3.911  10.164   1.210 -0.5204  0.1207 -0.3968
  418MOL0     C57560   3.979  10.211   1.082  0.0101  0.6537  0.1851
  418MOL0     C57561   4.083  10.101   1.044 -0.1206  0.4707 -0.5421
  418MOL0     C57562   4.164  10.139   0.920  0.1503  0.3956  0.7707
  418MOL0     N57563   4.258  10.249   0.951  0.4086  0.9907 -0.1755
  418MOL0     C57564   4.372  10.210   1.010 -0.5210 -0.1725 -0.4180
  418MOL0     C57565   4.433  10.325   1.046  0.0206  0.4693 -0.0004
  418MOL0     C57566   4.568  10.325   1.103 -0.0887  0.4428  0.0963
  418MOL0     C57567   4.698  10.286   1.019  0.2482 -0.5273 -0.1041
  418MOL0     C57568   4.790  10.201   1.101 -0.0209  0.4375  0.0939
  418MOL0     C57569   4.925  10.196   1.034  0.3944 -0.0330 -0.2434
  418MOL0     O57570   5.031  10.134   1.120  0.1417 -0.0793  0.5566
  418MOL0     C57571   5.159  10.137   1.081 -1.1350  0.4092  0.7229
  418MOL0     C57572   5.258  10.123   1.186  1.0259  0.7392 -0.1348
  418MOL0     C57573   5.396  10.106   1.156 -0.4887 -0.8128 -0.3089
  418MOL0     C57574   5.490  10.076   1.273 -0.2698  0.9909 -0.0737
  418MOL0     C57575   5.438  10.122   1.021 -0.5479 -0.3233  0.1932
  418MOL0     C57576   5.582  10.112   0.973  0.0917 -0.3369  0.0903
  418MOL0     O57577   5.667  10.054   1.055 -0.0199 -0.1149 -1.1172
  418MOL0     C57578   5.801  10.096   1.039  0.6529  1.0656 -1.3743
  418MOL0     C57579   5.889  10.059   0.932 -0.4729  1.0619  0.7955
  418MOL0     C57580   6.016  10.117   0.916  0.3138 -0.3914  0.7912
  418MOL0     C57581   6.062  10.217   1.001  0.4322  0.5467  0.2630
  418MOL0     O57582   6.194  10.264   0.982  0.8050 -0.6690 -0.1054
  418MOL0     C57583   6.287  10.313   1.087 -1.2770  0.0122  0.2823
  418MOL0     C57584   6.347  10.200   1.170  0.6109  0.0655  0.3780
  418MOL0     C57585   6.278  10.184   1.312  0.0030  0.3934 -0.2402
  418MOL0     C57586   6.361  10.073   1.382  0.3119  0.3163  1.2038
  418MOL0     C57587   6.330  10.040   1.529 -0.0984 -0.0163  0.3738
  418MOL0     C57588   6.430   9.940   1.585 -0.5499 -0.0225  0.2006
  418MOL0     C57589   6.470   9.824   1.501  0.2593 -0.5472 -0.2798
  418MOL0     C57590   6.538   9.715   1.580  0.8512 -0.2283 -1.0376
  418MOL0    Cl57591   6.688   9.763   1.674 -0.5168  0.2305  0.1056
  418MOL0     C57592   5.974  10.262   1.104  0.3186  0.5937  0.1987
  418MOL0     C57593   5.849  10.199   1.122 -0.8718 -0.8531 -0.2021
  418MOL0     O57594   5.615  10.165   0.864  0.5429  0.0075  0.3132
  418MOL0     C57595   5.344  10.155   0.918  0.1212 -0.6590 -0.0117
  418MOL0     C57596   5.203  10.155   0.949  0.5443  0.3278  0.1440
  418MOL0     N57597   4.344  10.430   1.015 -0.6784 -0.4591 -0.4017
  418MOL0     N57598   4.236  10.384   0.960  0.4848 -0.1374 -0.7712
  418MOL0     C57599   3.364  10.590   1.287 -0.4828  0.5684  0.2134
  418MOL0     C57600   3.240  10.636   1.242  0.0822 -0.6582 -1.1735
  418MOL0     C57601   2.871  10.764   1.119 -0.2163  0.0871  0.1649
  418MOL0     C57602   2.826  10.830   1.234  0.1018  1.0082  0.3991
  418MOL0     C57603   2.696  10.842   1.263 -0.5850  0.3720 -0.0165
  418MOL0     C57604   2.600  10.802   1.169 -0.0703  0.1877 -0.0815
  418MOL0     O57605   2.470  10.812   1.197 -0.1157  0.0028 -0.1434
  418MOL0     C57606   2.417  10.840   1.330 -0.4716 -0.0252 -0.1521
  418MOL0     C57607   2.429  10.715   1.407  0.4039  0.4805 -0.3069
  418MOL0     C57608   2.353  10.729   1.543  1.5061 -0.2198 -0.0973
  418MOL0     C57609   2.281  10.599   1.591 -0.5910 -0.1916  0.0834
  418MOL0     C57610   2.189  10.545   1.491 -0.5370  0.3818  0.2511
  418MOL0     C57611   2.113  10.507   1.401  0.8942  0.5564 -0.6841
  418MOL0     C57612   2.635  10.751   1.049  0.1863 -0.1295 -0.2345
  418MOL0     C57613   2.771  10.729   1.019  0.7189  0.8539  1.2052
  418MOL0     C57614   2.790  10.681   0.874 -0.4625 -1.6184  0.6042
  418MOL0     H57615   3.329  10.967   1.224  1.2131 -1.2574 -2.3710
  418MOL0     H57616   3.540  10.878   1.289 -1.6366  2.7119  0.2072
  418MOL0     H57617   3.601  10.447   1.261  1.1267 -0.4888  0.5116
  418MOL0     H57618   3.539  10.443   1.427 -0.9185 -1.3793 -2.1266
  418MOL0     H57619   3.813  10.554   1.434  2.3922 -0.0728 -1.2957
  418MOL0     H57620   3.748  10.399   1.495  0.2290  0.8925  0.5092
  418MOL0     H57621   3.856  10.481   1.230 -0.5144 -0.0464 -0.6482
  418MOL0     H57622   3.947  10.401   1.356  1.5235 -0.8149 -2.6337
  418MOL0     H57623   3.739  10.216   1.332 -1.4111 -0.8603 -2.8305
  418MOL0     H57624   3.741  10.297   1.182 -0.4235  3.3734  1.4450
  418MOL0     H57625   3.854  10.072   1.194 -0.5978 -0.2033  1.4726
  418MOL0     H57626   3.981  10.131   1.289 -0.2961  2.6913  0.5712
  418MOL0     H57627   3.905  10.227   1.003  0.4798 -0.2799 -0.4657
  418MOL0     H57628   4.032  10.307   1.087  0.1476  0.5272  2.5230
  418MOL0     H57629   4.036  10.002   1.041 -1.4226  1.0791 -1.2445
  418MOL0     H57630   4.160  10.094   1.121 -0.4425 -1.1585 -0.3302
  418MOL0     H57631   4.216  10.049   0.888  0.0573  0.2012  1.1646
  418MOL0     H57632   4.098  10.176   0.841  2.1209  1.7755 -0.3433
  418MOL0     H57633   4.400  10.107   1.032  0.9055  0.3245  0.2533
  418MOL0     H57634   4.559  10.255   1.187  1.7310  0.4987  0.3680
  418MOL0     H57635   4.593  10.422   1.148  0.4816 -0.0084  0.7733
  418MOL0     H57636   4.673  10.228   0.930  1.1060 -1.2920  0.1323
  418MOL0     H57637   4.742  10.380   0.987 -2.8451  0.6915 -1.1626
  418MOL0     H57638   4.794  10.238   1.204 -2.3510 -1.2918  0.8934
  418MOL0     H57639   4.755  10.100   1.123  1.1232  0.4580  2.2669
  418MOL0     H57640   4.929  10.139   0.941  1.1005  0.6152 -0.6187
  418MOL0     H57641   4.955  10.296   1.000 -0.5816  0.4995  0.4048
  418MOL0     H57642   5.219  10.132   1.287  3.3163  0.3777  0.8494
  418MOL0     H57643   5.577  10.141   1.257  0.4465  0.6027  1.9501
  418MOL0     H57644   5.527   9.974   1.281 -3.1327 -0.0173  2.2050
  418MOL0     H57645   5.440  10.093   1.369  1.6117  1.5936  0.8347
  418MOL0     H57646   5.858   9.966   0.884 -2.6173 -0.1181  4.0770
  418MOL0     H57647   6.076  10.079   0.833 -0.5625  2.7204 -1.4317
  418MOL0     H57648   6.371  10.343   1.025 -1.0302 -0.9736  0.1131
  418MOL0     H57649   6.235  10.389   1.146 -2.6373 -0.1735 -0.6255
  418MOL0     H57650   6.337  10.109   1.110 -0.0899  0.5358 -0.2336
  418MOL0     H57651   6.452  10.223   1.192  0.6543  0.1937  0.0390
  418MOL0     H57652   6.169  10.172   1.313 -0.4476  3.4337  1.6338
  418MOL0     H57653   6.307  10.273   1.369  1.5472 -0.1609 -0.1203
  418MOL0     H57654   6.469  10.091   1.383  0.1769  1.3375  0.2160
  418MOL0     H57655   6.350   9.991   1.310 -4.0263  3.5685 -2.4441
  418MOL0     H57656   6.331  10.133   1.587  0.5873  0.5922 -0.5942
  418MOL0     H57657   6.230   9.995   1.537 -0.2967  0.3385 -0.0712
  418MOL0     H57658   6.387   9.894   1.674  0.4574  0.7462  1.1150
  418MOL0     H57659   6.513  10.004   1.616 -0.8551 -0.8907  3.0957
  418MOL0     H57660   6.535   9.860   1.421  2.0842 -1.6697  0.6299
  418MOL0     H57661   6.384   9.772   1.456  0.2042  0.6278 -1.6190
  418MOL0     H57662   6.561   9.633   1.511  0.9116  0.0223 -1.3124
  418MOL0     H57663   6.477   9.657   1.650 -0.3243  0.2238 -1.6719
  418MOL0     H57664   6.004  10.339   1.174 -0.2957  1.1597 -0.1523
  418MOL0     H57665   5.780  10.232   1.199  1.0882 -0.8861  1.6570
  418MOL0     H57666   5.378  10.175   0.817  4.5793  1.1434  1.6081
  418MOL0     H57667   5.132  10.176   0.870  0.0171  0.5927  0.6746
  418MOL0     H57668   3.368  10.482   1.294 -0.0444  0.6836  3.1148
  418MOL0     H57669   3.168  10.556   1.229  0.7711 -1.4543 -0.1876
  418MOL0     H57670   2.904  10.865   1.301  3.2188 -2.4591 -1.1371
  418MOL0     H57671   2.658  10.899   1.347 -0.6511  0.1724  0.0906
  418MOL0     H57672   2.463  10.933   1.363 -1.5502  1.3880 -2.3929
  418MOL0     H57673   2.310  10.862   1.320 -0.0566  1.2223 -2.4825
  418MOL0     H57674   2.536  10.692   1.416 -0.0615 -0.9858  3.0011
  418MOL0     H57675   2.379  10.641   1.343  3.0585 -0.5679 -1.3302
  418MOL0     H57676   2.420  10.768   1.620 -1.3944  0.2273  2.3301
  418MOL0     H57677   2.277  10.808   1.539  1.3365 -0.1503  2.8174
  418MOL0     H57678   2.229  10.614   1.686 -0.0553 -1.2678  0.5758
  418MOL0     H57679   2.367  10.532   1.605  1.1212  1.0825 -3.2570
  418MOL0     H57680   2.054  10.479   1.317 -1.3169 -2.9842  1.8013
  418MOL0     H57681   2.554  10.728   0.980  0.6165  0.6481 -1.0169
  418MOL0     H57682   2.865  10.749   0.832  0.8429 -3.7170 -0.6091
  418MOL0     H57683   2.835  10.582   0.877 -0.1924 -1.6036 -1.4140
  418MOL0     H57684   2.708  10.691   0.803  0.6326  1.2396 -0.4271
  419MOL0     O57685   3.556   1.562   6.319  0.3722 -0.3651  0.0182
  419MOL0     C57686   3.494   1.600   6.221 -0.6013 -0.2373 -0.3665
  419MOL0     O57687   3.538   1.616   6.090  0.7742 -0.1212 -0.0295
  419MOL0     C57688   3.648   1.547   6.047 -0.9412 -0.6616 -1.1062
  419MOL0     C57689   3.721   1.589   5.934  0.5937 -0.7340 -0.3937
  419MOL0     C57690   3.831   1.513   5.885  0.2228  0.0404 -0.5343
  419MOL0     C57691   3.862   1.387   5.930  0.3874 -0.1237 -0.7028
  419MOL0     O57692   3.949   1.295   5.881  0.0196 -0.4564  0.0468
  419MOL0     C57693   4.064   1.355   5.825 -0.7449  0.5310 -0.5503
  419MOL0     C57694   4.179   1.256   5.853  0.0702  0.4329 -0.9455
  419MOL0     C57695   4.220   1.229   6.005 -0.6258  0.7712  1.2891
  419MOL0     C57696   4.337   1.133   6.026  0.6852  0.3339 -0.5961
  419MOL0     C57697   4.401   1.153   6.165 -0.0273 -0.3720  0.4831
  419MOL0     C57698   4.470   1.018   6.197  1.0189  0.0025  0.1151
  419MOL0     C57699   4.511   1.031   6.344  0.0071  1.1959  0.4494
  419MOL0     C57700   4.395   1.019   6.441  0.2069  0.0279 -0.9930
  419MOL0     N57701   4.333   0.888   6.430  0.4214 -0.2641 -1.0605
  419MOL0     C57702   4.359   0.782   6.512  0.4531  0.6149 -0.1951
  419MOL0     C57703   4.258   0.693   6.489  0.9940  0.3325  0.4175
  419MOL0     C57704   4.227   0.566   6.563 -1.5282 -0.5312  0.3814
  419MOL0     C57705   4.320   0.456   6.495  0.3797  0.0441  0.1523
  419MOL0     C57706   4.287   0.324   6.557  0.5494  0.3222  0.6561
  419MOL0     C57707   4.402   0.236   6.518 -0.8588  0.9773  0.2842
  419MOL0     O57708   4.361   0.110   6.550 -0.1016 -0.5401 -0.4895
  419MOL0     C57709   4.377   0.062   6.676  0.6972  0.2282 -0.6186
  419MOL0     C57710   4.438   0.132   6.784 -0.0907  0.6300 -0.6119
  419MOL0     C57711   4.441   0.081   6.912  0.5858  0.3542  0.3997
  419MOL0     C57712   4.518   0.158   7.003  0.0176  0.4199 -0.2695
  419MOL0     C57713   4.373  -0.047   6.941  1.1787 -0.1316  0.2020
  419MOL0     C57714   4.362  -0.122   7.069  0.9087 -0.9418  1.3690
  419MOL0     O57715   4.267  -0.226   7.085 -0.6734 -1.4201  1.4783
  419MOL0     C57716   4.251  -0.262   7.216 -0.7161 -0.4837  0.4467
  419MOL0     C57717   4.172  -0.195   7.307  1.0118 -0.4103  0.0614
  419MOL0     C57718   4.152  -0.249   7.434 -0.0015  0.5733  0.0988
  419MOL0     C57719   4.196  -0.381   7.461  0.4450 -0.3883  0.4900
  419MOL0     O57720   4.148  -0.430   7.581  0.4396 -0.1647  0.5411
  419MOL0     C57721   4.065  -0.547   7.574 -0.2684  0.6506 -0.5112
  419MOL0     C57722   3.935  -0.504   7.522 -0.7271  0.3375 -1.3183
  419MOL0     C57723   3.845  -0.422   7.625 -0.4150  0.0833 -0.0035
  419MOL0     C57724   3.718  -0.363   7.561 -0.2664 -0.0526  0.7591
  419MOL0     C57725   3.625  -0.298   7.669  0.1955 -1.0032  0.7355
  419MOL0     C57726   3.512  -0.218   7.602 -0.5380 -0.1554  0.7689
  419MOL0     C57727   3.457  -0.097   7.682  0.6118  0.2745  0.5008
  419MOL0     C57728   3.404  -0.120   7.823  0.2190  0.6687  0.1248
  419MOL0    Cl57729   3.307   0.024   7.874  0.2788 -0.4350  0.6119
  419MOL0     C57730   4.284  -0.450   7.373 -0.4161 -0.4932  1.1734
  419MOL0     C57731   4.310  -0.388   7.255 -0.3753  0.5733 -0.6541
  419MOL0     O57732   4.450  -0.089   7.142 -0.2614  0.5758  0.2656
  419MOL0     C57733   4.300  -0.098   6.828 -0.3991 -0.3970 -0.0523
  419MOL0     C57734   4.305  -0.055   6.700 -1.7991 -0.1247 -0.2332
  419MOL0     N57735   4.174   0.750   6.389  0.2630  0.0405  0.5830
  419MOL0     N57736   4.218   0.864   6.361 -0.0446 -0.3528  0.0526
  419MOL0     C57737   3.776   1.332   6.027 -0.9148 -0.3389 -0.4068
  419MOL0     C57738   3.673   1.416   6.082 -0.4553 -0.2288  0.0070
  419MOL0     C57739   3.356   1.645   6.242 -0.7951 -0.2045 -0.6695
  419MOL0     C57740   3.288   1.679   6.124  0.4040 -0.3539 -0.4437
  419MOL0     C57741   3.148   1.705   6.133  0.0210  0.7762  0.0920
  419MOL0     C57742   3.076   1.699   6.245 -0.4430 -0.7704  0.3806
  419MOL0     O57743   2.938   1.702   6.245 -0.3499  0.6724  0.0197
  419MOL0     C57744   2.875   1.767   6.363 -1.2231  0.3652  0.6028
  419MOL0     C57745   2.733   1.800   6.334 -0.3269  0.6387  0.4653
  419MOL0     C57746   2.666   1.851   6.477 -0.6139  0.1133  0.0773
  419MOL0     C57747   2.580   1.737   6.525  0.3453  0.0490 -0.2040
  419MOL0     C57748   2.504   1.786   6.637  0.1758  1.6900 -0.6172
  419MOL0     C57749   2.415   1.821   6.713  0.2381 -0.1479  1.0821
  419MOL0     C57750   3.149   1.672   6.367  0.1974  0.3225  0.3217
  419MOL0     C57751   3.286   1.658   6.367  0.1339  0.7190 -0.5793
  419MOL0     C57752   3.355   1.625   6.497  0.0174  0.0639 -0.1713
  419MOL0     H57753   3.697   1.678   5.877 -1.4661 -1.2582 -0.4261
  419MOL0     H57754   3.888   1.548   5.800  2.9343 -1.9297  0.3181
  419MOL0     H57755   4.077   1.448   5.881 -0.8793  0.3830 -0.2757
  419MOL0     H57756   4.047   1.369   5.717 -1.0981 -3.7086 -1.2053
  419MOL0     H57757   4.168   1.158   5.805  0.6020 -0.4512  0.6572
  419MOL0     H57758   4.261   1.306   5.801  1.1881 -0.9516 -0.5794
  419MOL0     H57759   4.242   1.330   6.040 -1.2440  1.8706 -1.2263
  419MOL0     H57760   4.131   1.197   6.061 -0.8137 -0.2308  0.4479
  419MOL0     H57761   4.303   1.030   6.020 -0.2517  0.6382 -0.7408
  419MOL0     H57762   4.405   1.147   5.941  0.0578  0.9499 -1.0097
  419MOL0     H57763   4.320   1.179   6.234  1.2806  2.3782  1.1116
  419MOL0     H57764   4.470   1.238   6.155  0.0671 -0.5252 -0.2289
  419MOL0     H57765   4.406   0.932   6.177 -0.3003  1.0117 -0.1064
  419MOL0     H57766   4.560   1.018   6.136  0.8059  1.0043 -0.2166
  419MOL0     H57767   4.560   1.128   6.356  0.3064  0.9882  0.9532
  419MOL0     H57768   4.585   0.953   6.365 -1.8655 -0.9182 -0.4058
  419MOL0     H57769   4.446   1.015   6.538 -2.0205 -0.3824  0.2442
  419MOL0     H57770   4.323   1.101   6.441  1.3815  1.3797  3.5143
  419MOL0     H57771   4.424   0.792   6.598 -2.1345 -0.7155  2.0894
  419MOL0     H57772   4.123   0.536   6.547 -1.0455 -1.8192 -0.5793
  419MOL0     H57773   4.248   0.565   6.670  0.0226 -1.3054  0.1076
  419MOL0     H57774   4.313   0.467   6.386 -4.3289  5.6921  0.4772
  419MOL0     H57775   4.420   0.484   6.528  0.8171 -0.2292 -0.8976
  419MOL0     H57776   4.279   0.328   6.666  1.0240 -1.7243  0.7895
  419MOL0     H57777   4.195   0.298   6.504 -0.4463 -0.2909  2.5629
  419MOL0     H57778   4.422   0.237   6.410 -0.9850  0.3187  0.2554
  419MOL0     H57779   4.495   0.268   6.567 -0.5944  2.4862 -1.1013
  419MOL0     H57780   4.489   0.225   6.762  2.9714 -1.2329 -2.1280
  419MOL0     H57781   4.458   0.168   7.094  1.1876  1.7382  0.3907
  419MOL0     H57782   4.530   0.263   6.976  2.9984 -0.1285 -1.4032
  419MOL0     H57783   4.606   0.094   7.020 -0.0731  0.5803  0.8796
  419MOL0     H57784   4.122  -0.101   7.284  0.6264 -0.3749  1.0289
  419MOL0     H57785   4.102  -0.201   7.518  0.5950  0.4366  0.5400
  419MOL0     H57786   4.105  -0.626   7.509 -0.7507 -0.2919  0.3174
  419MOL0     H57787   4.050  -0.600   7.668  1.0807 -0.3687 -0.8221
  419MOL0     H57788   3.946  -0.459   7.424 -0.7651  0.3614 -1.3111
  419MOL0     H57789   3.885  -0.601   7.506 -2.3752  0.7108  1.0170
  419MOL0     H57790   3.907  -0.341   7.663  0.0081 -0.0245 -0.4498
  419MOL0     H57791   3.817  -0.483   7.712 -0.3444  1.0942  0.7375
  419MOL0     H57792   3.659  -0.433   7.502  2.7363 -2.1279 -0.0179
  419MOL0     H57793   3.747  -0.299   7.477 -1.0415 -2.2126 -1.2413
  419MOL0     H57794   3.584  -0.377   7.733  3.4337 -0.2628  4.0718
  419MOL0     H57795   3.675  -0.231   7.739 -1.4057 -1.8944  2.8254
  419MOL0     H57796   3.440  -0.287   7.559  0.5501  0.5341 -2.4647
  419MOL0     H57797   3.552  -0.174   7.510 -2.3820 -2.4360 -1.2827
  419MOL0     H57798   3.380  -0.040   7.628  0.3852  0.6119  1.1652
  419MOL0     H57799   3.531  -0.017   7.690 -1.9129  2.9991 -1.1784
  419MOL0     H57800   3.487  -0.149   7.889  0.6079  0.1972 -0.5606
  419MOL0     H57801   3.348  -0.213   7.834  1.5403 -0.1972 -0.2102
  419MOL0     H57802   4.318  -0.552   7.391  0.7513 -0.2608  0.4071
  419MOL0     H57803   4.383  -0.443   7.197 -0.8846 -0.6154 -0.2005
  419MOL0     H57804   4.252  -0.194   6.844  0.7884 -1.1709 -0.9198
  419MOL0     H57805   4.252  -0.106   6.620 -1.9695  1.3421 -1.0846
  419MOL0     H57806   3.806   1.233   6.058 -0.8950 -0.1899  0.0648
  419MOL0     H57807   3.614   1.359   6.154 -0.8267 -1.1452 -1.0063
  419MOL0     H57808   3.329   1.669   6.025  1.5491 -2.2567  0.1596
  419MOL0     H57809   3.089   1.715   6.042  0.7404 -0.6555 -0.5733
  419MOL0     H57810   2.885   1.702   6.451 -2.7595  0.1182  0.6201
  419MOL0     H57811   2.928   1.861   6.381  2.3589 -1.0940 -1.1818
  419MOL0     H57812   2.677   1.717   6.290 -0.7395  0.4778  1.2786
  419MOL0     H57813   2.736   1.873   6.252 -0.1063  0.6862  0.5145
  419MOL0     H57814   2.745   1.864   6.552  0.6800 -2.1884 -0.7604
  419MOL0     H57815   2.624   1.947   6.450  0.7189  0.8199  0.4071
  419MOL0     H57816   2.643   1.653   6.554 -0.4294 -0.2463  0.6531
  419MOL0     H57817   2.511   1.697   6.451 -1.6086  1.2668  0.8783
  419MOL0     H57818   2.328   1.843   6.772 -1.6005  0.5407 -1.6765
  419MOL0     H57819   3.093   1.675   6.459 -0.0544  1.5538  0.1365
  419MOL0     H57820   3.289   1.675   6.569 -0.8331 -0.7726 -0.3585
  419MOL0     H57821   3.361   1.519   6.523  1.4812  0.4947  1.4568
  419MOL0     H57822   3.453   1.671   6.514 -0.6207  1.2670  0.4404
  420MOL0     O57823   8.858   1.812   2.037 -0.5556 -0.7457  0.0998
  420MOL0     C57824   8.801   1.882   1.958  0.1367 -0.4288  0.1248
  420MOL0     O57825   8.748   2.005   1.987 -0.5018  0.2855 -0.7541
  420MOL0     C57826   8.780   2.071   2.103  1.3470 -0.5623 -0.2223
  420MOL0     C57827   8.896   2.065   2.173  0.8522  0.1054  0.8032
  420MOL0     C57828   8.924   2.148   2.277  0.4422  0.2281  0.6193
  420MOL0     C57829   8.830   2.228   2.328  0.0146 -0.8493 -0.8114
  420MOL0     O57830   8.850   2.310   2.433  0.1295 -0.1543 -0.3896
  420MOL0     C57831   8.866   2.251   2.566 -0.7708 -0.0925 -0.2711
  420MOL0     C57832   8.734   2.234   2.635 -0.3164  0.6947  0.3329
  420MOL0     C57833   8.726   2.102   2.712  0.4716 -0.9877  0.8134
  420MOL0     C57834   8.703   1.990   2.606 -0.5950 -0.2436  0.4743
  420MOL0     C57835   8.678   1.858   2.682 -0.1002 -0.2363  0.3664
  420MOL0     C57836   8.646   1.734   2.597 -0.4252 -0.7369 -0.0614
  420MOL0     C57837   8.611   1.606   2.684  0.5779 -0.6184  0.7042
  420MOL0     C57838   8.463   1.609   2.746  0.7780  0.3331 -0.0572
  420MOL0     N57839   8.465   1.671   2.871  0.5770  0.3564 -1.5792
  420MOL0     C57840   8.430   1.801   2.900  0.7516 -0.5730 -0.5503
  420MOL0     C57841   8.497   1.826   3.019  0.8553  0.5597  0.2638
  420MOL0     C57842   8.494   1.949   3.097 -0.9852  0.3720  0.0057
  420MOL0     C57843   8.428   1.922   3.241 -0.7907 -1.4746  0.0571
  420MOL0     C57844   8.280   1.903   3.220  0.1228  1.0664 -0.3949
  420MOL0     C57845   8.201   1.901   3.346 -0.6402  1.3407 -0.7276
  420MOL0     O57846   8.213   2.018   3.419  0.5464  0.1865 -0.4066
  420MOL0     C57847   8.224   2.000   3.547 -1.1441  0.6631 -0.1667
  420MOL0     C57848   8.143   1.942   3.635 -0.7008  0.3028  0.1358
  420MOL0     C57849   8.158   1.955   3.773 -0.0684  0.4109  0.6837
  420MOL0     C57850   8.051   1.882   3.857  0.0766 -1.3795 -0.2153
  420MOL0     C57851   8.265   2.028   3.825  0.4262  1.1429 -0.3359
  420MOL0     C57852   8.296   2.044   3.969  1.5476  1.2440  0.1395
  420MOL0     O57853   8.248   1.956   4.053  0.0998  0.7083  0.3684
  420MOL0     C57854   8.266   1.961   4.189  0.1263 -0.9101 -0.0317
  420MOL0     C57855   8.354   1.875   4.242 -0.2371 -0.3129 -0.1929
  420MOL0     C57856   8.360   1.868   4.386 -0.0061 -0.7314  0.5859
  420MOL0     C57857   8.292   1.965   4.467  0.3003  0.4868  0.8936
  420MOL0     O57858   8.286   1.961   4.607  0.2010 -1.0675 -0.1854
  420MOL0     C57859   8.343   2.066   4.682  0.0979 -1.1031  0.0519
  420MOL0     C57860   8.492   2.038   4.696  0.0858 -0.3941 -0.0276
  420MOL0     C57861   8.567   2.173   4.707  1.3618  0.0983 -0.0782
  420MOL0     C57862   8.712   2.148   4.732 -0.1990  0.2171  0.0139
  420MOL0     C57863   8.800   2.266   4.682  0.8087 -0.1310 -0.0519
  420MOL0     C57864   8.839   2.235   4.538  0.5370 -0.7810  0.0190
  420MOL0     C57865   8.936   2.339   4.482  0.6864 -0.9472 -0.0131
  420MOL0     C57866   8.948   2.335   4.329 -0.4307  0.1643  0.0800
  420MOL0    Cl57867   9.059   2.197   4.281 -0.1217  0.1621 -0.3373
  420MOL0     C57868   8.215   2.058   4.398  1.1980  0.2491  0.2099
  420MOL0     C57869   8.200   2.052   4.262  0.1131  0.3873  0.0921
  420MOL0     O57870   8.346   2.148   4.007 -0.4962  0.1467  1.0871
  420MOL0     C57871   8.353   2.093   3.733  0.1587 -0.1390  0.2277
  420MOL0     C57872   8.332   2.073   3.595 -0.9084 -0.3229 -0.5351
  420MOL0     N57873   8.576   1.723   3.053 -0.1984 -0.4488 -0.0347
  420MOL0     N57874   8.546   1.626   2.971 -0.4815  0.5879 -0.2430
  420MOL0     C57875   8.706   2.235   2.262 -0.2827 -0.8690 -0.4848
  420MOL0     C57876   8.675   2.161   2.148 -0.8786  0.1475  1.2661
  420MOL0     C57877   8.764   1.825   1.827 -0.3259  0.2970 -0.6288
  420MOL0     C57878   8.626   1.806   1.804  0.2073 -0.8879  0.5245
  420MOL0     C57879   8.579   1.767   1.680 -0.4827  0.3067 -0.6819
  420MOL0     C57880   8.669   1.734   1.584 -0.0436 -0.0531  0.3448
  420MOL0     O57881   8.636   1.667   1.465  0.5022 -0.0709  0.0597
  420MOL0     C57882   8.558   1.743   1.374  0.1378 -0.4710  0.2687
  420MOL0     C57883   8.631   1.722   1.236 -0.7896  0.0875 -1.0652
  420MOL0     C57884   8.552   1.795   1.128 -0.4167  0.5036 -0.3578
  420MOL0     C57885   8.624   1.924   1.082  0.0457  0.0578 -0.2920
  420MOL0     C57886   8.612   2.020   1.183 -0.0161 -0.2693 -0.3129
  420MOL0     C57887   8.589   2.103   1.269 -0.4219 -1.6404 -0.0849
  420MOL0     C57888   8.807   1.762   1.606 -0.9743  0.0742 -0.9049
  420MOL0     C57889   8.857   1.800   1.727 -0.9170  0.1723  0.1669
  420MOL0     C57890   9.013   1.826   1.742 -1.0334  1.1441 -0.4032
  420MOL0     H57891   8.977   1.999   2.143  2.3936  0.7418  3.2886
  420MOL0     H57892   9.026   2.148   2.315  0.8155  0.6337 -0.3558
  420MOL0     H57893   8.922   2.328   2.621 -4.1535  3.0641 -0.8652
  420MOL0     H57894   8.935   2.166   2.568 -2.5495 -1.6286 -1.1297
  420MOL0     H57895   8.722   2.318   2.705  4.6212  0.7693  1.4777
  420MOL0     H57896   8.659   2.244   2.556  0.6458  0.7933 -0.6010
  420MOL0     H57897   8.809   2.090   2.782 -2.0302 -0.2762  4.1750
  420MOL0     H57898   8.635   2.116   2.770  0.4670  0.6023  0.4503
  420MOL0     H57899   8.609   2.010   2.554 -0.4844 -2.1317 -0.5583
  420MOL0     H57900   8.793   1.977   2.544 -0.3821  0.4422  0.6370
  420MOL0     H57901   8.604   1.872   2.761  2.4967 -1.3034  3.1501
  420MOL0     H57902   8.769   1.827   2.734  0.7675 -2.0307 -1.9759
  420MOL0     H57903   8.570   1.752   2.522 -0.4444 -1.1360 -0.1384
  420MOL0     H57904   8.736   1.718   2.536 -2.2405 -0.8590 -2.8447
  420MOL0     H57905   8.691   1.576   2.752  0.7187 -1.8783  0.0194
  420MOL0     H57906   8.603   1.525   2.610 -1.4050  0.2643 -0.1410
  420MOL0     H57907   8.405   1.678   2.685  1.3866  1.9650  1.1273
  420MOL0     H57908   8.420   1.509   2.761 -1.5852  1.2598 -0.1566
  420MOL0     H57909   8.370   1.870   2.841 -0.1957 -2.4643 -1.9124
  420MOL0     H57910   8.450   2.034   3.043  0.6432 -0.5966 -3.1262
  420MOL0     H57911   8.601   1.970   3.108 -0.6518 -0.9065 -0.6927
  420MOL0     H57912   8.482   1.844   3.297  2.7628  0.5377 -0.2789
  420MOL0     H57913   8.452   2.006   3.306 -0.0061 -0.6321 -1.2811
  420MOL0     H57914   8.241   1.975   3.147  2.2858  4.3921  1.4434
  420MOL0     H57915   8.276   1.804   3.175 -0.3520  2.0451 -2.6127
  420MOL0     H57916   8.099   1.883   3.310 -0.4827 -0.1195 -0.5254
  420MOL0     H57917   8.212   1.810   3.406 -0.2184  1.6160 -0.3882
  420MOL0     H57918   8.047   1.898   3.612 -2.3366  3.0055  1.2305
  420MOL0     H57919   8.021   1.956   3.932  0.5406 -2.0872  0.6879
  420MOL0     H57920   8.089   1.798   3.915  1.3443 -0.6497  0.0508
  420MOL0     H57921   7.958   1.858   3.806 -0.8115 -1.0902  1.2066
  420MOL0     H57922   8.407   1.804   4.180  1.4585 -0.1523  1.0131
  420MOL0     H57923   8.409   1.788   4.440 -2.2521 -2.0221  0.8716
  420MOL0     H57924   8.321   2.162   4.634 -1.7283 -2.1721 -1.3903
  420MOL0     H57925   8.298   2.063   4.781 -1.5885 -1.9078 -0.6899
  420MOL0     H57926   8.494   1.968   4.780 -4.3967 -0.2450  0.4742
  420MOL0     H57927   8.533   2.001   4.602  1.0594 -0.5443  0.4486
  420MOL0     H57928   8.518   2.228   4.788 -2.2942 -0.8889 -1.4472
  420MOL0     H57929   8.546   2.225   4.614  0.3750  2.7542  1.5128
  420MOL0     H57930   8.741   2.060   4.674  0.6516  0.2674  0.3493
  420MOL0     H57931   8.724   2.113   4.835 -2.9011 -0.5407  0.1324
  420MOL0     H57932   8.739   2.356   4.696 -0.1413 -0.7939  0.1504
  420MOL0     H57933   8.887   2.275   4.748  1.5132 -0.2780 -0.9299
  420MOL0     H57934   8.749   2.236   4.475 -0.6475 -1.3170  1.6302
  420MOL0     H57935   8.880   2.134   4.531 -1.4214 -1.5041 -2.7232
  420MOL0     H57936   9.028   2.354   4.540  1.1738  3.4962 -1.5255
  420MOL0     H57937   8.893   2.435   4.512  0.8218 -1.0155  0.4114
  420MOL0     H57938   8.985   2.435   4.307 -1.7305  0.7395  0.4303
  420MOL0     H57939   8.855   2.314   4.276  0.1844 -1.8789 -0.2825
  420MOL0     H57940   8.161   2.132   4.457 -0.2091 -0.9012  0.4255
  420MOL0     H57941   8.131   2.118   4.211  1.1567  1.4183 -0.0215
  420MOL0     H57942   8.437   2.149   3.772 -0.8259  2.1769 -0.7944
  420MOL0     H57943   8.400   2.136   3.538 -2.0886 -1.2104 -3.0590
  420MOL0     H57944   8.621   2.292   2.296 -0.8520 -2.9140  1.7455
  420MOL0     H57945   8.593   2.165   2.077  1.3276 -3.2267 -1.8869
  420MOL0     H57946   8.554   1.835   1.880  1.0692  1.2839  0.5961
  420MOL0     H57947   8.472   1.752   1.675 -0.5107 -2.4454  3.3586
  420MOL0     H57948   8.456   1.706   1.380 -0.0049 -0.4442 -1.5143
  420MOL0     H57949   8.560   1.849   1.402 -0.8620  0.0504 -1.4881
  420MOL0     H57950   8.642   1.616   1.213  0.1201  0.4091 -2.2384
  420MOL0     H57951   8.726   1.773   1.254 -2.5636  3.1845  0.4666
  420MOL0     H57952   8.545   1.738   1.034  0.4530  0.5693 -0.4749
  420MOL0     H57953   8.449   1.807   1.163  0.0231 -1.7916  2.0096
  420MOL0     H57954   8.572   1.956   0.990  0.8638 -0.1312 -0.8310
  420MOL0     H57955   8.719   1.901   1.033  0.2421 -1.3917  0.7066
  420MOL0     H57956   8.594   2.180   1.343  0.3953  0.0616 -1.8324
  420MOL0     H57957   8.889   1.732   1.541  1.6187 -1.2297  2.6521
  420MOL0     H57958   9.046   1.897   1.818  2.8191  2.0230 -2.6352
  420MOL0     H57959   9.048   1.730   1.782 -1.9839  0.7302 -0.5212
  420MOL0     H57960   9.069   1.857   1.653 -0.5499  1.9607  0.1720
  421MOL0     O57961   4.174   2.996   8.510 -0.0442  0.1479  0.2273
  421MOL0     C57962   4.077   2.934   8.552 -1.0855 -0.6635  0.5742
  421MOL0     O57963   4.087   2.806   8.592  0.0905  0.1768  0.6351
  421MOL0     C57964   4.203   2.736   8.590  0.1789 -0.3715  0.4752
  421MOL0     C57965   4.291   2.760   8.692  0.0472  0.3782 -0.3235
  421MOL0     C57966   4.406   2.674   8.699 -0.4360  0.7279 -0.0303
  421MOL0     C57967   4.421   2.558   8.623  0.2737 -1.1748 -0.3772
  421MOL0     O57968   4.512   2.464   8.625 -0.7056 -0.4700 -0.1344
  421MOL0     C57969   4.616   2.469   8.726 -0.1487  0.0007  0.6252
  421MOL0     C57970   4.720   2.567   8.683  0.8090 -0.2340  0.6464
  421MOL0     C57971   4.796   2.527   8.557 -1.5416 -0.2474  0.8066
  421MOL0     C57972   4.911   2.620   8.522  0.3364 -0.3491  0.3282
  421MOL0     C57973   5.005   2.576   8.408 -0.7414  0.0129  0.4448
  421MOL0     C57974   5.121   2.682   8.396 -0.3655 -0.6830 -0.1483
  421MOL0     C57975   5.231   2.664   8.502  0.2547  0.6007  0.2599
  421MOL0     C57976   5.236   2.770   8.610  0.1597 -0.6803  1.1421
  421MOL0     N57977   5.329   2.719   8.710  0.7726  0.5755 -0.5993
  421MOL0     C57978   5.360   2.797   8.820  0.7329  0.5233 -0.6265
  421MOL0     C57979   5.464   2.735   8.885  0.2167 -0.0184 -0.7024
  421MOL0     C57980   5.527   2.782   9.015  0.7492  0.5703  0.1733
  421MOL0     C57981   5.658   2.858   8.992  1.0477 -0.3918  0.2375
  421MOL0     C57982   5.707   2.894   9.123 -0.1149 -0.4731 -0.1137
  421MOL0     C57983   5.817   3.004   9.111 -0.0077 -0.4328  0.6884
  421MOL0     O57984   5.862   3.050   9.234 -0.2559 -0.3498 -1.4533
  421MOL0     C57985   5.947   3.153   9.241 -0.2567 -0.3950 -0.0321
  421MOL0     C57986   5.930   3.240   9.346 -0.5309 -1.3819  0.0063
  421MOL0     C57987   6.016   3.349   9.368 -0.7022  0.0004 -0.5551
  421MOL0     C57988   6.005   3.414   9.505 -0.7407 -0.3455  0.7712
  421MOL0     C57989   6.112   3.371   9.272 -0.0471  0.4181 -0.1924
  421MOL0     C57990   6.225   3.458   9.297 -0.6424  0.1390  0.0058
  421MOL0     O57991   6.348   3.393   9.299 -0.0024  0.7859  0.4499
  421MOL0     C57992   6.457   3.474   9.299 -0.3356  0.4425  0.0477
  421MOL0     C57993   6.479   3.567   9.400  0.1969 -0.7072 -0.0036
  421MOL0     C57994   6.581   3.656   9.384 -0.0152 -0.2262 -0.3043
  421MOL0     C57995   6.668   3.643   9.278  0.3135 -0.8641  0.6007
  421MOL0     O57996   6.776   3.726   9.270 -0.4793 -0.5163  0.2017
  421MOL0     C57997   6.880   3.708   9.177 -0.3472  0.9550 -0.1830
  421MOL0     C57998   6.985   3.827   9.202  0.3730  0.7151  0.4235
  421MOL0     C57999   7.079   3.837   9.083 -0.4278 -0.7115 -0.9764
  421MOL0     C58000   7.194   3.938   9.113  0.1094  0.6623 -0.4646
  421MOL0     C58001   7.250   3.976   8.978 -0.9614 -0.1080  0.0263
  421MOL0     C58002   7.355   4.089   8.989 -0.0605  0.3034  0.3341
  421MOL0     C58003   7.431   4.122   8.861  0.0632  0.2481  0.9578
  421MOL0     C58004   7.481   4.263   8.868 -0.8943  0.6928  0.0055
  421MOL0    Cl58005   7.589   4.321   8.734 -0.4399 -0.4147  0.0233
  421MOL0     C58006   6.640   3.553   9.179  0.2265 -1.0046  0.0356
  421MOL0     C58007   6.530   3.474   9.183  0.8500  0.1196 -0.1710
  421MOL0     O58008   6.208   3.569   9.335 -0.7035  0.0556  0.6921
  421MOL0     C58009   6.121   3.290   9.157  1.2796 -0.2862  0.7055
  421MOL0     C58010   6.040   3.178   9.148  0.0427  0.1353  0.3903
  421MOL0     N58011   5.513   2.637   8.803  0.0002 -0.1686 -0.7377
  421MOL0     N58012   5.435   2.635   8.701 -0.0377  0.1062 -0.1054
  421MOL0     C58013   4.322   2.534   8.526 -0.6695 -0.3526  0.2095
  421MOL0     C58014   4.206   2.616   8.516 -0.7279 -0.3328 -0.2592
  421MOL0     C58015   3.953   3.015   8.565  0.0031  0.5731 -0.3482
  421MOL0     C58016   3.881   2.989   8.683  0.2912  0.3913 -0.3492
  421MOL0     C58017   3.768   3.055   8.713  0.6543  0.5984  0.5004
  421MOL0     C58018   3.717   3.147   8.624  1.3551  0.1637 -0.0794
  421MOL0     O58019   3.615   3.223   8.651 -0.0147 -0.0973  0.3414
  421MOL0     C58020   3.483   3.175   8.613 -0.5787 -0.9034 -0.3381
  421MOL0     C58021   3.418   3.059   8.699 -0.1977  0.3433 -0.1403
  421MOL0     C58022   3.424   3.088   8.856  0.4130 -0.6207 -0.4582
  421MOL0     C58023   3.427   2.956   8.938 -1.4022 -0.4289 -0.3105
  421MOL0     C58024   3.420   2.990   9.079  0.5424 -0.1604 -0.9086
  421MOL0     C58025   3.432   3.011   9.197  0.4024 -0.5541 -0.4294
  421MOL0     C58026   3.780   3.179   8.508 -0.6798  0.5115  0.3784
  421MOL0     C58027   3.901   3.120   8.476  0.3420 -0.2549 -0.9869
  421MOL0     C58028   3.973   3.161   8.354 -0.1727 -0.6144 -0.2035
  421MOL0     H58029   4.290   2.852   8.749  0.6031  0.4075 -0.3548
  421MOL0     H58030   4.481   2.702   8.772 -1.2657  0.2337  1.0323
  421MOL0     H58031   4.660   2.372   8.747 -2.5756 -1.4205 -0.4693
  421MOL0     H58032   4.572   2.497   8.823  1.8864 -1.8630  2.1641
  421MOL0     H58033   4.679   2.668   8.681  0.8898 -0.2096  0.0422
  421MOL0     H58034   4.792   2.565   8.766 -0.2415  0.1568  1.5878
  421MOL0     H58035   4.841   2.428   8.567  2.8387  1.5118  0.5362
  421MOL0     H58036   4.720   2.540   8.480  0.1861  1.5918 -0.7103
  421MOL0     H58037   4.865   2.712   8.485  0.6842 -0.2718  0.0814
  421MOL0     H58038   4.953   2.644   8.621  0.6869  0.4283  0.0060
  421MOL0     H58039   4.952   2.571   8.313 -0.2211  2.2377 -0.0088
  421MOL0     H58040   5.051   2.479   8.431  1.7256  0.0734 -3.3182
  421MOL0     H58041   5.179   2.661   8.307  0.7235  2.6327 -0.3503
  421MOL0     H58042   5.080   2.784   8.397 -0.3607 -0.6779  1.0104
  421MOL0     H58043   5.325   2.665   8.445 -0.3249 -3.6111 -1.1365
  421MOL0     H58044   5.226   2.561   8.537  0.7900  0.7928  0.9074
  421MOL0     H58045   5.281   2.865   8.577 -2.1461 -0.2922 -1.1575
  421MOL0     H58046   5.142   2.795   8.658 -0.6639  0.9964 -1.1434
  421MOL0     H58047   5.308   2.890   8.841 -0.6466  0.4127 -3.1266
  421MOL0     H58048   5.541   2.698   9.083 -0.5510  0.9006  0.8889
  421MOL0     H58049   5.463   2.859   9.060 -0.2450  1.3417 -2.3866
  421MOL0     H58050   5.737   2.805   8.938  1.3954  0.0909  0.2666
  421MOL0     H58051   5.646   2.948   8.930  0.8309 -1.1353 -0.8177
  421MOL0     H58052   5.621   2.932   9.178  0.1841 -0.9261  0.6793
  421MOL0     H58053   5.746   2.808   9.179 -0.2352  0.2211  1.0788
  421MOL0     H58054   5.896   2.962   9.048  0.1848  1.8890 -0.7194
  421MOL0     H58055   5.779   3.093   9.061 -0.0994  0.4236  2.2243
  421MOL0     H58056   5.865   3.220   9.430 -1.3980  1.3737  0.0920
  421MOL0     H58057   5.904   3.401   9.542 -0.6461 -2.2828  0.4757
  421MOL0     H58058   6.013   3.522   9.493  0.9852 -0.4688  0.3992
  421MOL0     H58059   6.080   3.386   9.580  0.1746  2.4438  0.9930
  421MOL0     H58060   6.411   3.576   9.485  0.9902  1.0419  0.4965
  421MOL0     H58061   6.601   3.733   9.458  0.9093 -0.9142  0.1901
  421MOL0     H58062   6.930   3.615   9.206 -0.0748  0.6969 -1.4237
  421MOL0     H58063   6.848   3.710   9.073  2.2326  0.4314 -1.0560
  421MOL0     H58064   6.932   3.922   9.212  0.7734  1.2695 -2.0351
  421MOL0     H58065   7.040   3.795   9.291  1.4617 -2.8681 -1.3503
  421MOL0     H58066   7.023   3.870   8.996 -0.6598 -2.5340 -1.5541
  421MOL0     H58067   7.135   3.746   9.060  3.2516  0.1668  2.9536
  421MOL0     H58068   7.267   3.893   9.180  0.8285 -2.4803 -3.0844
  421MOL0     H58069   7.164   4.026   9.171 -1.8667 -0.5910  0.5082
  421MOL0     H58070   7.289   3.893   8.919  0.1234  0.1077  0.4205
  421MOL0     H58071   7.170   4.021   8.918 -0.7840 -0.3191 -0.3632
  421MOL0     H58072   7.426   4.065   9.068  1.7842  1.0179 -1.0206
  421MOL0     H58073   7.302   4.181   9.013  0.0054  0.5946 -0.5918
  421MOL0     H58074   7.369   4.102   8.773 -0.8321 -4.6390  2.3870
  421MOL0     H58075   7.522   4.064   8.843  0.7639  1.8267 -1.0061
  421MOL0     H58076   7.536   4.266   8.963 -2.4416 -0.6405  0.9986
  421MOL0     H58077   7.407   4.342   8.880 -0.0091  1.4821  0.4590
  421MOL0     H58078   6.707   3.565   9.095  1.8850 -0.4806  1.3653
  421MOL0     H58079   6.497   3.407   9.104 -0.3951  1.0164 -0.4339
  421MOL0     H58080   6.192   3.308   9.077 -1.6272 -0.1412 -1.9861
  421MOL0     H58081   6.041   3.111   9.062 -0.3182  0.1444  0.3767
  421MOL0     H58082   4.336   2.437   8.480  0.8988 -0.2504  0.4085
  421MOL0     H58083   4.127   2.578   8.451  1.5848 -0.8067 -3.0060
  421MOL0     H58084   3.925   2.920   8.755  0.4938  0.5001 -0.3693
  421MOL0     H58085   3.707   3.045   8.802 -0.4797  0.5672 -0.2489
  421MOL0     H58086   3.423   3.267   8.610  2.8352  1.5651 -4.1788
  421MOL0     H58087   3.491   3.144   8.508  2.4771 -2.3732  0.2357
  421MOL0     H58088   3.488   2.976   8.681  0.3326  0.9208 -0.8224
  421MOL0     H58089   3.320   3.034   8.659 -1.0918  1.3780  1.3321
  421MOL0     H58090   3.514   3.144   8.879 -1.3884  3.2044 -1.8644
  421MOL0     H58091   3.342   3.157   8.882  1.5608  0.2293  1.0624
  421MOL0     H58092   3.507   2.885   8.913  0.1261  1.2223 -0.2940
  421MOL0     H58093   3.333   2.905   8.912 -2.1709 -1.6898  4.1200
  421MOL0     H58094   3.425   3.018   9.304 -2.6309 -1.1848 -0.4736
  421MOL0     H58095   3.735   3.251   8.441 -1.1635  2.1559  2.3856
  421MOL0     H58096   4.007   3.071   8.303 -0.5090 -0.3894 -0.8342
  421MOL0     H58097   3.900   3.221   8.300 -0.4502 -0.2006  0.6141
  421MOL0     H58098   4.058   3.225   8.382 -2.7122  3.2626 -0.6547
  422MOL0     O58099  10.495   0.138   4.439  0.5593 -0.6959  0.6453
  422MOL0     C58100  10.403   0.134   4.519 -0.8886 -0.2279  0.7657
  422MOL0     O58101  10.393   0.212   4.626  0.1855 -0.2166  0.0026
  422MOL0     C58102  10.485   0.300   4.672 -0.4173  0.0284 -0.4917
  422MOL0     C58103  10.438   0.430   4.701  0.1584  0.2021 -0.0282
  422MOL0     C58104  10.527   0.532   4.742 -0.6918 -0.5506  0.2416
  422MOL0     C58105  10.664   0.492   4.765 -0.5258 -0.7595  0.1542
  422MOL0     O58106  10.774   0.579   4.796 -0.1701  0.1056 -0.2218
  422MOL0     C58107  10.755   0.722   4.816  0.3598  0.1563 -0.4409
  422MOL0     C58108  10.755   0.796   4.681  0.2554 -0.2422  0.4241
  422MOL0     C58109  10.901   0.782   4.626 -0.2044 -0.2027 -0.8733
  422MOL0     C58110  10.922   0.888   4.513  0.4363 -0.7249 -0.6453
  422MOL0     C58111  11.069   0.883   4.473 -0.2006  0.7006 -1.4486
  422MOL0     C58112  11.102   1.006   4.374  0.6908 -0.2565 -0.2887
  422MOL0     C58113  11.011   1.019   4.248 -0.3703  0.6908 -0.5341
  422MOL0     C58114  11.033   0.904   4.144 -0.1445 -0.9208 -0.0710
  422MOL0     N58115  10.965   0.937   4.020 -0.1995 -0.7150 -0.0475
  422MOL0     C58116  10.872   0.855   3.968  0.1480  0.2852  0.3141
  422MOL0     C58117  10.841   0.903   3.848  0.7697 -0.8715 -0.3975
  422MOL0     C58118  10.757   0.835   3.740  0.6972 -0.1220 -0.0305
  422MOL0     C58119  10.812   0.838   3.601 -0.1918  0.3059 -0.4879
  422MOL0     C58120  10.761   0.730   3.517 -0.1676 -0.5145 -0.0724
  422MOL0     C58121  10.613   0.724   3.467  0.0122  0.9663 -1.0887
  422MOL0     O58122  10.582   0.820   3.371 -0.1945 -0.4298 -0.5216
  422MOL0     C58123  10.671   0.843   3.270 -0.0008  0.4614 -1.2733
  422MOL0     C58124  10.719   0.966   3.252 -0.1495  0.2110  0.5658
  422MOL0     C58125  10.783   0.998   3.132  0.0277  0.2896  0.2723
  422MOL0     C58126  10.849   1.129   3.129 -0.4648 -0.0925  0.7944
  422MOL0     C58127  10.794   0.903   3.026 -1.0563 -0.4465  0.2110
  422MOL0     C58128  10.871   0.924   2.892 -0.0832 -0.4595  0.2218
  422MOL0     O58129  10.906   0.809   2.820 -0.0827 -0.6092 -0.1872
  422MOL0     C58130  10.964   0.816   2.696  0.5786 -0.2763 -0.2528
  422MOL0     C58131  11.059   0.919   2.668 -0.3588 -0.5314 -0.7443
  422MOL0     C58132  11.118   0.928   2.547 -0.5732 -0.2589  1.0873
  422MOL0     C58133  11.069   0.854   2.435 -0.1075 -0.8126 -0.1138
  422MOL0     O58134  11.125   0.887   2.307 -0.5666  0.0779 -0.0148
  422MOL0     C58135  11.080   0.827   2.195 -0.2665  0.6687  0.2843
  422MOL0     C58136  11.182   0.854   2.080  0.2884  0.3833  0.4668
  422MOL0     C58137  11.161   0.988   2.032  0.4669 -0.3568  0.8228
  422MOL0     C58138  11.245   1.026   1.902  0.0202  0.3334  1.2169
  422MOL0     C58139  11.225   1.183   1.864  0.1179  0.7145 -0.3193
  422MOL0     C58140  11.320   1.278   1.942  0.1621  0.3606 -0.2316
  422MOL0     C58141  11.366   1.394   1.854  0.2862  0.8659  1.4731
  422MOL0     C58142  11.474   1.468   1.912  0.4592 -0.1378  0.1937
  422MOL0    Cl58143  11.415   1.580   2.042  0.2056  0.0945  0.4078
  422MOL0     C58144  10.977   0.752   2.467 -0.5252  1.2717  0.2761
  422MOL0     C58145  10.929   0.726   2.597  0.3975  0.6175 -0.0220
  422MOL0     O58146  10.870   1.041   2.844 -0.7791 -0.3077 -0.2873
  422MOL0     C58147  10.738   0.782   3.050  0.1371 -0.1792  0.0049
  422MOL0     C58148  10.688   0.744   3.167 -0.2730 -0.2606 -1.2669
  422MOL0     N58149  10.900   1.029   3.835  0.5871  0.1216  0.0117
  422MOL0     N58150  10.994   1.021   3.923  0.1038  0.5586  0.5143
  422MOL0     C58151  10.706   0.360   4.738 -0.7698 -0.3639 -0.5569
  422MOL0     C58152  10.622   0.262   4.684  0.5120 -0.2621 -0.0474
  422MOL0     C58153  10.284   0.073   4.464 -0.3151  0.0574  0.2986
  422MOL0     C58154  10.261   0.068   4.321 -0.4181 -0.7999 -0.5029
  422MOL0     C58155  10.144   0.031   4.260 -0.5645 -1.0792 -0.9348
  422MOL0     C58156  10.040  -0.006   4.344  0.0228  0.5077 -0.0896
  422MOL0     O58157   9.927  -0.033   4.280  1.0146 -0.0769 -0.5858
  422MOL0     C58158   9.868  -0.165   4.321 -0.1278  1.0807  0.6029
  422MOL0     C58159   9.733  -0.162   4.398  0.5947 -0.1357 -0.1189
  422MOL0     C58160   9.638  -0.286   4.389 -0.1811  0.5458  0.2793
  422MOL0     C58161   9.499  -0.234   4.444 -0.8094 -0.1397 -0.0738
  422MOL0     C58162   9.406  -0.346   4.464 -1.0333  1.3750 -0.6176
  422MOL0     C58163   9.341  -0.449   4.464  0.5167  0.1788  0.4451
  422MOL0     C58164  10.056  -0.023   4.482 -0.3250  0.1866 -0.2742
  422MOL0     C58165  10.175   0.027   4.539 -0.2945 -0.0312  0.2138
  422MOL0     C58166  10.173   0.033   4.689  0.5151 -1.1600 -0.5880
  422MOL0     H58167  10.332   0.451   4.698  0.2670  0.6943 -3.3020
  422MOL0     H58168  10.493   0.634   4.758 -0.3494 -0.3603 -0.2267
  422MOL0     H58169  10.833   0.763   4.881  1.7002 -2.1473 -0.5203
  422MOL0     H58170  10.658   0.734   4.867  1.0098 -0.1843  0.9382
  422MOL0     H58171  10.673   0.754   4.623 -1.4238  0.4982  2.1438
  422MOL0     H58172  10.745   0.905   4.686 -0.1979 -0.1012 -2.2167
  422MOL0     H58173  10.976   0.801   4.703 -2.2643 -1.9641  1.7291
  422MOL0     H58174  10.916   0.681   4.588 -1.4653 -1.0550  0.8186
  422MOL0     H58175  10.856   0.864   4.429 -0.1434  0.6966 -0.6415
  422MOL0     H58176  10.892   0.988   4.548  1.7193 -0.3733 -0.5207
  422MOL0     H58177  11.095   0.785   4.431  1.1786  0.0055  0.8567
  422MOL0     H58178  11.135   0.898   4.558  0.4932 -1.5125 -1.5433
  422MOL0     H58179  11.077   1.088   4.441 -0.4622 -0.2749 -0.6783
  422MOL0     H58180  11.208   1.008   4.346  0.0799  3.0097 -3.0111
  422MOL0     H58181  11.044   1.108   4.194 -0.8716  1.8844  1.0609
  422MOL0     H58182  10.903   1.014   4.266 -0.9941  0.9389 -3.5689
  422MOL0     H58183  11.140   0.892   4.131 -0.2334  0.2007 -2.3293
  422MOL0     H58184  10.993   0.807   4.175 -1.7467  0.1083  1.3176
  422MOL0     H58185  10.830   0.758   3.992  0.6442 -1.5858 -4.9997
  422MOL0     H58186  10.653   0.867   3.745  1.2938  2.3835 -1.7537
  422MOL0     H58187  10.738   0.731   3.767 -3.6994  0.0419 -1.6836
  422MOL0     H58188  10.787   0.938   3.565  2.7572  0.8288 -1.3389
  422MOL0     H58189  10.921   0.834   3.599 -0.2255 -3.3253 -0.4858
  422MOL0     H58190  10.829   0.727   3.431  2.2038  0.0648  1.6708
  422MOL0     H58191  10.784   0.633   3.562  2.9609 -0.2019 -0.7573
  422MOL0     H58192  10.589   0.626   3.425  2.2871  0.1467 -0.5813
  422MOL0     H58193  10.553   0.738   3.557  2.1004  2.4562  0.1489
  422MOL0     H58194  10.712   1.047   3.324  1.1435  1.1448 -0.2957
  422MOL0     H58195  10.819   1.192   3.214 -1.2886 -0.5138  0.8309
  422MOL0     H58196  10.807   1.187   3.046 -0.4435 -2.7989 -1.2115
  422MOL0     H58197  10.957   1.122   3.122 -0.6414 -1.4821 -1.7689
  422MOL0     H58198  11.095   0.975   2.753  0.4813 -1.2575 -0.5965
  422MOL0     H58199  11.199   0.996   2.524  0.8931 -1.9748  0.9339
  422MOL0     H58200  11.082   0.718   2.202  0.9977  0.0485 -5.3086
  422MOL0     H58201  10.981   0.867   2.173  0.5881  2.6616 -0.1877
  422MOL0     H58202  11.287   0.852   2.109  1.6485  1.8655 -3.6338
  422MOL0     H58203  11.169   0.776   2.003  0.4957 -2.6680  3.3067
  422MOL0     H58204  11.189   1.056   2.113 -0.9020 -1.3983  2.2405
  422MOL0     H58205  11.054   1.014   2.027  1.2755  3.9720  2.0665
  422MOL0     H58206  11.198   0.972   1.820  2.1560  0.6511 -0.2821
  422MOL0     H58207  11.350   0.998   1.895 -0.8812 -3.6239  1.3313
  422MOL0     H58208  11.248   1.194   1.757  0.0773  1.6451 -0.2353
  422MOL0     H58209  11.118   1.202   1.873 -0.6292 -2.3512 -1.3808
  422MOL0     H58210  11.402   1.215   1.977 -0.8683 -1.4158 -0.8827
  422MOL0     H58211  11.266   1.305   2.033  1.7274  0.1897  0.7790
  422MOL0     H58212  11.283   1.463   1.834 -0.2324 -0.3641 -0.9986
  422MOL0     H58213  11.401   1.355   1.758 -0.8160 -3.4455  2.5689
  422MOL0     H58214  11.519   1.519   1.826 -2.1408  0.2839 -1.0137
  422MOL0     H58215  11.548   1.391   1.938  0.4191 -0.8991 -1.7554
  422MOL0     H58216  10.947   0.682   2.390  1.4170 -2.3948  2.5080
  422MOL0     H58217  10.869   0.641   2.628 -0.4452  1.7672  1.6467
  422MOL0     H58218  10.739   0.711   2.967  2.1695 -0.8454  0.5461
  422MOL0     H58219  10.637   0.649   3.178  0.9473 -0.6969  1.4889
  422MOL0     H58220  10.803   0.320   4.765 -1.8724 -0.9152  3.2266
  422MOL0     H58221  10.663   0.163   4.663  0.8280  0.2445 -2.0525
  422MOL0     H58222  10.336   0.086   4.245  0.4765  1.4558  0.8296
  422MOL0     H58223  10.135   0.030   4.152  0.7288  0.9329 -1.1088
  422MOL0     H58224   9.847  -0.224   4.232 -0.6258 -0.9271  1.9680
  422MOL0     H58225   9.944  -0.221   4.376  1.8949 -0.5917 -3.5013
  422MOL0     H58226   9.670  -0.080   4.361  0.1514 -0.1130  0.6639
  422MOL0     H58227   9.743  -0.145   4.505 -1.9331 -0.3012  0.2217
  422MOL0     H58228   9.630  -0.323   4.286 -1.2035  0.9248  0.2102
  422MOL0     H58229   9.680  -0.371   4.445 -0.0435 -1.4720 -2.6460
  422MOL0     H58230   9.449  -0.164   4.376 -0.5351  1.6003  1.4230
  422MOL0     H58231   9.518  -0.179   4.537 -0.8208  1.4575 -0.9923
  422MOL0     H58232   9.271  -0.529   4.452  0.6082  0.4914 -3.0470
  422MOL0     H58233   9.972  -0.056   4.542 -1.3417  2.0920 -0.5431
  422MOL0     H58234  10.076   0.008   4.733  1.3344 -0.4395  1.8134
  422MOL0     H58235  10.248  -0.035   4.732 -1.2278 -2.3888  0.6319
  422MOL0     H58236  10.183   0.135   4.727 -2.2433 -1.1653  0.3448
  423MOL0     O58237   0.006   9.048   8.870 -0.6086 -1.1493 -0.3726
  423MOL0     C58238   0.069   9.146   8.842 -0.3719  0.3384  0.2880
  423MOL0     O58239   0.184   9.184   8.916  0.0192 -0.2065  0.0347
  423MOL0     C58240   0.219   9.108   9.023  0.0080 -0.7264 -0.6894
  423MOL0     C58241   0.175   9.148   9.152  0.1847  0.1109 -0.1132
  423MOL0     C58242   0.191   9.076   9.273 -0.0672  0.0985  0.2073
  423MOL0     C58243   0.265   8.959   9.267 -0.4693 -0.0760  0.5070
  423MOL0     O58244   0.279   8.898   9.398 -0.1651  0.3338  0.9507
  423MOL0     C58245   0.310   8.756   9.391  0.4952  0.9266 -0.5081
  423MOL0     C58246   0.182   8.674   9.386  1.2118 -0.1998  1.0100
  423MOL0     C58247   0.211   8.520   9.359  0.3671  0.2478 -1.5550
  423MOL0     C58248   0.087   8.442   9.391  1.2643 -0.2773  0.0519
  423MOL0     C58249   0.102   8.298   9.372 -0.2336 -0.4149  0.1900
  423MOL0     C58250  -0.038   8.239   9.410  0.1479  0.9267 -0.3511
  423MOL0     C58251  -0.017   8.107   9.499  0.0232  0.0141  1.8724
  423MOL0     C58252  -0.144   8.027   9.495  0.2152 -0.4374  0.7647
  423MOL0     N58253  -0.173   7.968   9.359 -0.2047 -0.2582  0.1847
  423MOL0     C58254  -0.088   7.880   9.286 -0.0825 -0.4764 -0.1225
  423MOL0     C58255  -0.161   7.847   9.178  0.1079  0.3474 -0.0949
  423MOL0     C58256  -0.119   7.772   9.055  0.5328  0.4563 -1.1015
  423MOL0     C58257  -0.085   7.635   9.117 -0.5863 -0.1259 -0.6769
  423MOL0     C58258  -0.094   7.519   9.015 -0.8866 -0.5036 -0.0965
  423MOL0     C58259  -0.227   7.482   8.957  0.0046  0.4250  0.2927
  423MOL0     O58260  -0.240   7.333   8.935  0.3379  0.2007 -0.1743
  423MOL0     C58261  -0.358   7.282   8.889  0.2114  0.1728 -0.4605
  423MOL0     C58262  -0.370   7.143   8.867  0.2185  0.3608  0.4464
  423MOL0     C58263  -0.490   7.079   8.831 -1.1752  0.1845 -1.1259
  423MOL0     C58264  -0.475   6.930   8.814  0.1396 -0.1085  0.6768
  423MOL0     C58265  -0.598   7.158   8.804  0.2269 -0.2632 -0.7300
  423MOL0     C58266  -0.725   7.107   8.754  0.4896  0.7524 -0.3265
  423MOL0     O58267  -0.705   7.010   8.655 -0.7220 -0.2189 -0.0986
  423MOL0     C58268  -0.821   6.955   8.608  0.5860 -0.8568  1.0336
  423MOL0     C58269  -0.902   7.039   8.536  0.4730  0.8072  0.0996
  423MOL0     C58270  -1.016   6.977   8.465 -0.7103 -0.4345 -0.9962
  423MOL0     C58271  -1.050   6.847   8.486  0.0221 -0.5225 -0.7271
  423MOL0     O58272  -1.167   6.789   8.437  0.1410  0.3372 -0.7149
  423MOL0     C58273  -1.188   6.812   8.293  0.5636 -0.1413 -0.4633
  423MOL0     C58274  -1.219   6.675   8.246 -0.0566 -0.2818 -0.5649
  423MOL0     C58275  -1.205   6.661   8.094 -0.5950 -0.1895 -0.4062
  423MOL0     C58276  -1.055   6.633   8.059 -0.4113  0.9254 -0.5500
  423MOL0     C58277  -1.032   6.669   7.912 -0.4405  0.7243 -0.1319
  423MOL0     C58278  -0.907   6.603   7.854  0.5241  0.2735  0.2127
  423MOL0     C58279  -0.909   6.623   7.696 -0.0781  0.1080 -0.9096
  423MOL0     C58280  -0.786   6.572   7.621  0.2258 -0.2751  0.3127
  423MOL0    Cl58281  -0.646   6.666   7.667  0.2996  0.1973 -0.2102
  423MOL0     C58282  -0.967   6.770   8.558 -0.7419  0.4478  0.3479
  423MOL0     C58283  -0.845   6.820   8.607  0.4399 -0.4564  0.4363
  423MOL0     O58284  -0.827   7.141   8.807 -0.0562 -0.1739  0.3569
  423MOL0     C58285  -0.593   7.296   8.848 -0.6747  0.8538  0.2976
  423MOL0     C58286  -0.472   7.355   8.878  0.1353  0.3336  0.0113
  423MOL0     N58287  -0.285   7.907   9.183  0.8842 -0.2278  0.3570
  423MOL0     N58288  -0.294   7.979   9.293 -0.6600  0.2980 -0.2863
  423MOL0     C58289   0.317   8.912   9.142  0.2531  0.6059 -0.1527
  423MOL0     C58290   0.288   8.985   9.015  0.0107 -0.2176  0.6892
  423MOL0     C58291   0.046   9.222   8.720 -0.1006  0.7166  0.5444
  423MOL0     C58292   0.015   9.143   8.610  0.7255  0.5879 -0.1506
  423MOL0     C58293   0.007   9.203   8.483  0.5303 -0.5157 -0.8826
  423MOL0     C58294   0.034   9.339   8.468 -0.0428 -0.7683  0.1541
  423MOL0     O58295   0.023   9.386   8.338  0.3073  0.1173 -0.8911
  423MOL0     C58296  -0.007   9.529   8.323 -0.5832 -0.9854 -0.1359
  423MOL0     C58297   0.121   9.610   8.313 -0.7905  0.6846  0.3129
  423MOL0     C58298   0.207   9.559   8.194 -0.2024 -0.2802 -0.2393
  423MOL0     C58299   0.139   9.502   8.066 -0.4680  0.4727 -1.3085
  423MOL0     C58300   0.075   9.605   7.991  0.1638 -0.2629 -0.1921
  423MOL0     C58301   0.025   9.687   7.921  0.0912  1.0439  0.1870
  423MOL0     C58302   0.054   9.419   8.584 -0.3902 -0.6158  0.3102
  423MOL0     C58303   0.056   9.362   8.710 -0.0324 -1.0931  0.5884
  423MOL0     C58304   0.101   9.448   8.831  0.7423  0.0376 -0.1234
  423MOL0     H58305   0.117   9.238   9.173  1.0090  0.0411  2.9102
  423MOL0     H58306   0.156   9.119   9.366  4.3772  0.1337  2.1230
  423MOL0     H58307   0.346   8.728   9.490  2.8194  2.7722 -0.7477
  423MOL0     H58308   0.390   8.731   9.320  1.0426 -1.5919  0.8881
  423MOL0     H58309   0.114   8.680   9.471  1.1111  0.1333  0.9046
  423MOL0     H58310   0.118   8.707   9.304 -2.5090 -4.4977  1.8004
  423MOL0     H58311   0.224   8.488   9.255  1.0277 -1.8640 -0.8812
  423MOL0     H58312   0.292   8.481   9.421 -2.5272  0.4016  2.8171
  423MOL0     H58313   0.057   8.452   9.495 -1.4984 -0.6249 -0.6302
  423MOL0     H58314   0.022   8.488   9.316  2.9349  0.5124 -0.9653
  423MOL0     H58315   0.183   8.265   9.437  1.9712  1.4072 -1.4929
  423MOL0     H58316   0.123   8.275   9.267 -0.1189 -1.2599  0.3938
  423MOL0     H58317  -0.104   8.308   9.463 -1.0876  0.3671 -1.1201
  423MOL0     H58318  -0.094   8.217   9.319 -3.9283 -1.8850  2.5192
  423MOL0     H58319   0.015   8.131   9.601  0.2956  3.0122  1.1951
  423MOL0     H58320   0.062   8.047   9.453  0.2418  1.5910  0.0432
  423MOL0     H58321  -0.131   7.951   9.572  3.9380 -2.1963 -1.3080
  423MOL0     H58322  -0.230   8.089   9.523 -1.2066 -2.2914  0.6776
  423MOL0     H58323   0.018   7.860   9.299  0.5072  1.9199 -0.6843
  423MOL0     H58324  -0.027   7.821   9.021  1.9153 -2.0887 -1.1940
  423MOL0     H58325  -0.198   7.768   8.979  0.2897  0.3336 -0.8455
  423MOL0     H58326   0.020   7.649   9.142 -0.6898  2.1274 -1.2169
  423MOL0     H58327  -0.144   7.629   9.209  1.5299  0.5657  0.7995
  423MOL0     H58328  -0.036   7.559   8.932  0.4799 -1.0518  0.5558
  423MOL0     H58329  -0.044   7.431   9.056 -0.9299  0.8231  3.0942
  423MOL0     H58330  -0.302   7.511   9.031  1.6384  0.1130  2.1545
  423MOL0     H58331  -0.252   7.546   8.872  0.8109  3.7037  2.3403
  423MOL0     H58332  -0.277   7.087   8.876 -0.7716 -2.1147 -2.8905
  423MOL0     H58333  -0.563   6.885   8.860 -2.2582  2.3819 -1.1682
  423MOL0     H58334  -0.390   6.901   8.878  1.1003  1.9882  0.4150
  423MOL0     H58335  -0.460   6.903   8.709 -0.8302  0.9856  0.2519
  423MOL0     H58336  -0.872   7.142   8.518  1.0858  1.1444  2.6778
  423MOL0     H58337  -1.086   7.042   8.413 -1.6919 -2.4594 -2.3308
  423MOL0     H58338  -1.273   6.880   8.288  0.8391  0.1249 -2.0652
  423MOL0     H58339  -1.107   6.853   8.233 -0.3218 -0.6727 -2.0696
  423MOL0     H58340  -1.158   6.591   8.280  0.8011 -1.4100 -4.3454
  423MOL0     H58341  -1.322   6.657   8.279 -1.7949  3.6256 -3.0304
  423MOL0     H58342  -1.247   6.741   8.032  0.7420  0.8326 -0.0344
  423MOL0     H58343  -1.266   6.574   8.067 -1.0078 -0.3586  0.9644
  423MOL0     H58344  -1.017   6.534   8.082 -1.8074  0.5362  0.2125
  423MOL0     H58345  -0.997   6.713   8.107 -0.2710  1.2577 -1.2536
  423MOL0     H58346  -1.121   6.634   7.859  1.3653 -4.1025 -0.5000
  423MOL0     H58347  -1.029   6.777   7.898 -1.7504  0.5604 -1.9378
  423MOL0     H58348  -0.912   6.494   7.862 -1.2002  0.3666  0.7554
  423MOL0     H58349  -0.818   6.642   7.904  1.3189 -0.2345 -0.7678
  423MOL0     H58350  -0.930   6.731   7.687 -0.7654  0.2826  1.8792
  423MOL0     H58351  -0.999   6.586   7.645 -0.0649  1.4372 -1.9710
  423MOL0     H58352  -0.810   6.565   7.514 -0.4230  1.5691  0.3046
  423MOL0     H58353  -0.764   6.469   7.649  0.4440 -0.7242 -1.3928
  423MOL0     H58354  -1.001   6.667   8.557 -0.9581  0.5183  0.4414
  423MOL0     H58355  -0.771   6.753   8.648 -0.4851 -1.5146  0.4223
  423MOL0     H58356  -0.678   7.364   8.842 -0.6560  0.7650 -1.5700
  423MOL0     H58357  -0.486   7.455   8.920 -0.8580  0.2374 -0.0555
  423MOL0     H58358   0.387   8.831   9.126 -2.2633 -1.3997 -1.9605
  423MOL0     H58359   0.339   8.948   8.926  1.0959  1.0555  0.7568
  423MOL0     H58360  -0.003   9.037   8.623 -0.3014  1.0420  2.9738
  423MOL0     H58361   0.003   9.139   8.396  0.9290 -0.8648 -0.6449
  423MOL0     H58362  -0.064   9.540   8.230  0.7423 -3.1231 -1.2912
  423MOL0     H58363  -0.061   9.565   8.411  3.0063  1.4415  1.2935
  423MOL0     H58364   0.184   9.607   8.403  0.6844  0.7882 -0.6845
  423MOL0     H58365   0.094   9.716   8.308  1.0862  1.3682  2.6789
  423MOL0     H58366   0.263   9.649   8.167 -3.1310  1.1702 -1.8793
  423MOL0     H58367   0.282   9.488   8.231  0.0989  0.5022  0.7065
  423MOL0     H58368   0.075   9.417   8.094  1.5241 -0.4376  0.8933
  423MOL0     H58369   0.225   9.463   8.011 -1.9482 -1.8933 -2.0992
  423MOL0     H58370  -0.010   9.767   7.859 -1.9846  1.9794  2.4033
  423MOL0     H58371   0.081   9.523   8.574 -3.7885  0.4009  0.6554
  423MOL0     H58372   0.078   9.551   8.800  0.1595 -0.3419 -0.9958
  423MOL0     H58373   0.044   9.419   8.920  1.4521  2.7130  1.2987
  423MOL0     H58374   0.201   9.436   8.872  0.0467 -1.8815  1.1206
  424MOL0     O58375   2.729   9.712   7.242  0.9487 -0.5357  0.5817
  424MOL0     C58376   2.715   9.840   7.248 -0.1236  0.6539 -0.1363
  424MOL0     O58377   2.684   9.911   7.355  0.5634  0.1312 -0.4202
  424MOL0     C58378   2.679   9.843   7.464  0.0600  0.0319 -1.1217
  424MOL0     C58379   2.537   9.839   7.515 -0.7206 -0.3834  0.9065
  424MOL0     C58380   2.516   9.768   7.637 -0.0722  0.1370 -0.1206
  424MOL0     C58381   2.620   9.713   7.703  0.4614  0.3585 -0.2212
  424MOL0     O58382   2.591   9.660   7.822  0.4770  0.3972  0.1618
  424MOL0     C58383   2.643   9.744   7.933  0.4392  0.0069 -0.1468
  424MOL0     C58384   2.611   9.682   8.064  0.7678 -0.3588 -0.7951
  424MOL0     C58385   2.700   9.762   8.162 -0.3808 -0.4957 -0.5602
  424MOL0     C58386   2.834   9.676   8.189 -0.0058  0.0318 -0.1890
  424MOL0     C58387   2.804   9.591   8.317 -0.1256  1.1945 -0.7033
  424MOL0     C58388   2.916   9.497   8.362  0.2951  0.9152  0.9091
  424MOL0     C58389   2.875   9.447   8.511 -0.3555 -0.4800  0.6282
  424MOL0     C58390   2.990   9.355   8.557 -0.3018  0.6169 -0.5043
  424MOL0     N58391   2.980   9.216   8.507 -0.4555  0.1829  0.1081
  424MOL0     C58392   2.873   9.154   8.456  0.9794 -0.0064  0.3500
  424MOL0     C58393   2.919   9.044   8.384 -0.5979 -0.2089 -0.5680
  424MOL0     C58394   2.850   8.932   8.321  0.2200 -0.0615 -0.5052
  424MOL0     C58395   2.912   8.803   8.372 -0.1294 -0.0734 -0.4269
  424MOL0     C58396   2.835   8.681   8.338  0.1932 -0.4773 -0.4146
  424MOL0     C58397   2.885   8.562   8.411 -0.4567  0.1719 -0.0022
  424MOL0     O58398   2.810   8.537   8.526  0.0586  0.4941 -0.9704
  424MOL0     C58399   2.840   8.427   8.607  0.4070 -0.2719 -0.0613
  424MOL0     C58400   2.949   8.336   8.611  0.0917  0.2972 -0.0876
  424MOL0     C58401   2.932   8.219   8.672 -0.2302  0.5250  0.0456
  424MOL0     C58402   3.055   8.127   8.661 -0.4339  0.2817  0.5806
  424MOL0     C58403   2.819   8.177   8.744 -0.0583  0.1590  0.3221
  424MOL0     C58404   2.811   8.045   8.822 -0.1495 -0.3907 -1.0303
  424MOL0     O58405   2.822   7.930   8.760 -0.5089  0.0185  0.4169
  424MOL0     C58406   2.818   7.808   8.821 -0.1718  1.0825 -0.1517
  424MOL0     C58407   2.724   7.708   8.780 -0.1610  0.2141  0.5928
  424MOL0     C58408   2.729   7.585   8.839 -0.2779 -0.6358  0.2948
  424MOL0     C58409   2.828   7.555   8.932 -1.2093  0.5696 -0.2490
  424MOL0     O58410   2.826   7.430   8.993 -0.2183  0.0348 -0.0045
  424MOL0     C58411   2.911   7.402   9.105 -0.1866  0.0289 -0.1550
  424MOL0     C58412   3.041   7.339   9.049 -0.1503  0.8816 -0.3470
  424MOL0     C58413   3.113   7.239   9.144  1.6328  0.3804 -0.3385
  424MOL0     C58414   3.225   7.165   9.076 -0.2621  1.3240  0.0227
  424MOL0     C58415   3.335   7.246   9.016 -0.3799  0.2642 -0.5454
  424MOL0     C58416   3.449   7.156   8.947  1.5420  0.7791 -1.1868
  424MOL0     C58417   3.537   7.233   8.843 -0.3117  0.0012 -0.5258
  424MOL0     C58418   3.458   7.246   8.712 -0.6186 -0.2095  0.4660
  424MOL0    Cl58419   3.546   7.346   8.587  0.0644 -0.2818 -0.3314
  424MOL0     C58420   2.933   7.647   8.955  0.4323  0.3544 -0.1002
  424MOL0     C58421   2.925   7.773   8.896 -0.2198  0.1476  0.2312
  424MOL0     O58422   2.776   8.055   8.944  0.3309  0.1035  0.7124
  424MOL0     C58423   2.710   8.278   8.753  0.1270 -0.2119  0.0521
  424MOL0     C58424   2.725   8.397   8.679  1.4626  0.0884  0.2285
  424MOL0     N58425   3.060   9.047   8.416  0.7187  0.0453 -0.5043
  424MOL0     N58426   3.099   9.149   8.488  0.5711  0.5349  0.4344
  424MOL0     C58427   2.743   9.710   7.654  0.6583 -0.2333  0.6915
  424MOL0     C58428   2.781   9.769   7.530  0.2377 -0.2550 -0.1339
  424MOL0     C58429   2.740   9.909   7.124 -0.6762  0.1143  0.0867
  424MOL0     C58430   2.876   9.936   7.096  0.5089 -0.1750  1.1019
  424MOL0     C58431   2.924   9.990   6.975 -0.4538  0.1601  0.5860
  424MOL0     C58432   2.835  10.021   6.872  0.3502  0.0400 -0.7021
  424MOL0     O58433   2.881  10.086   6.766  0.0442 -0.1536 -0.1009
  424MOL0     C58434   2.798  10.100   6.651  0.4674 -0.7103 -0.1304
  424MOL0     C58435   2.875  10.120   6.523 -0.9441 -0.2363 -0.4598
  424MOL0     C58436   2.794  10.119   6.392 -0.1612 -0.0937  0.1514
  424MOL0     C58437   2.882  10.055   6.280  0.4022 -0.2622  0.1043
  424MOL0     C58438   3.007  10.111   6.230  0.4634 -0.0152 -0.7507
  424MOL0     C58439   3.100  10.160   6.178 -0.1590 -0.3487 -0.6702
  424MOL0     C58440   2.700   9.993   6.900  0.5453 -0.0514 -0.6392
  424MOL0     C58441   2.649   9.940   7.024  1.3249 -0.9888  0.6846
  424MOL0     C58442   2.493   9.920   7.039 -0.4348  0.3664  1.7157
  424MOL0     H58443   2.454   9.876   7.456 -1.4330 -1.1109  1.4243
  424MOL0     H58444   2.414   9.747   7.668 -0.0587 -0.6205 -0.5853
  424MOL0     H58445   2.585   9.836   7.931 -4.3279 -2.6428  0.9547
  424MOL0     H58446   2.750   9.766   7.927  1.3052 -3.4462  0.3380
  424MOL0     H58447   2.507   9.681   8.099  0.1621 -0.3684 -2.4943
  424MOL0     H58448   2.635   9.575   8.064 -0.0284 -0.5754  0.7889
  424MOL0     H58449   2.745   9.856   8.128  1.3110 -1.1960 -0.3934
  424MOL0     H58450   2.643   9.790   8.251  0.4873  2.7008 -0.8834
  424MOL0     H58451   2.856   9.602   8.112  0.3024 -2.0922  1.8278
  424MOL0     H58452   2.916   9.747   8.182 -1.0556  1.1971 -1.1901
  424MOL0     H58453   2.718   9.527   8.293  1.8018 -0.8482 -2.6482
  424MOL0     H58454   2.776   9.659   8.398  0.0254 -1.5583  1.8723
  424MOL0     H58455   2.930   9.406   8.303 -1.5164 -0.5086  2.5249
  424MOL0     H58456   3.002   9.564   8.376 -0.7770  2.3865  0.7076
  424MOL0     H58457   2.781   9.392   8.502  0.0952 -0.8986 -2.9500
  424MOL0     H58458   2.869   9.530   8.582  3.5999  0.0658  0.5507
  424MOL0     H58459   3.087   9.403   8.543  0.2034 -0.0157  0.7020
  424MOL0     H58460   2.977   9.351   8.666 -0.6608 -1.7732 -0.5749
  424MOL0     H58461   2.769   9.185   8.451  0.5784 -1.4268 -0.4474
  424MOL0     H58462   2.868   8.945   8.214  0.4611 -2.9435 -0.8967
  424MOL0     H58463   2.745   8.931   8.352  1.0794  1.4591  3.0455
  424MOL0     H58464   3.013   8.791   8.334  0.6862  2.1423  0.8239
  424MOL0     H58465   2.929   8.801   8.480 -1.3034 -1.7521 -0.2404
  424MOL0     H58466   2.729   8.695   8.360  0.4948  1.9072 -0.1587
  424MOL0     H58467   2.860   8.680   8.231 -0.0596 -1.9652 -0.4681
  424MOL0     H58468   2.887   8.470   8.353  3.5925 -0.3996  0.7264
  424MOL0     H58469   2.990   8.584   8.435  0.2768 -2.6139 -0.3230
  424MOL0     H58470   3.043   8.355   8.560  0.3023 -1.0629 -0.2379
  424MOL0     H58471   3.067   8.046   8.734  2.7130 -0.3729 -0.4745
  424MOL0     H58472   3.145   8.186   8.680 -0.2122  0.3170 -0.5256
  424MOL0     H58473   3.061   8.085   8.560 -0.3583 -0.4376  0.8758
  424MOL0     H58474   2.648   7.738   8.709  0.3360 -0.1286 -0.0886
  424MOL0     H58475   2.652   7.519   8.800 -0.5217  2.2215 -5.1269
  424MOL0     H58476   2.920   7.496   9.160 -0.6662  1.3101 -2.2001
  424MOL0     H58477   2.852   7.330   9.163  0.1117  0.1988  0.3660
  424MOL0     H58478   3.025   7.285   8.955 -0.2636 -2.8737  1.6483
  424MOL0     H58479   3.117   7.413   9.019 -0.1378  0.1367 -2.2745
  424MOL0     H58480   3.044   7.159   9.172  0.6914  0.2219 -2.8343
  424MOL0     H58481   3.145   7.292   9.234 -0.2590  0.4390  0.3436
  424MOL0     H58482   3.186   7.091   9.005  0.9149  0.7410 -0.0544
  424MOL0     H58483   3.284   7.106   9.147  0.1854 -1.2059 -2.2725
  424MOL0     H58484   3.284   7.297   8.933 -1.0335 -0.0972 -0.3762
  424MOL0     H58485   3.375   7.326   9.080  3.1613  0.0923 -2.3166
  424MOL0     H58486   3.398   7.067   8.908  0.2564  1.1957 -0.4991
  424MOL0     H58487   3.507   7.117   9.031 -2.7643 -3.7150  0.1602
  424MOL0     H58488   3.625   7.172   8.822  0.0264  0.7871 -1.4705
  424MOL0     H58489   3.573   7.328   8.882 -0.1597 -1.4080  3.1773
  424MOL0     H58490   3.364   7.296   8.737  1.5271  4.4015  0.4331
  424MOL0     H58491   3.439   7.151   8.662 -0.4499 -0.3877  0.7357
  424MOL0     H58492   3.021   7.624   9.014  0.6957 -1.4145 -1.1130
  424MOL0     H58493   2.999   7.848   8.918  0.6064 -0.7446  0.5768
  424MOL0     H58494   2.626   8.244   8.813 -0.7295  1.7747  0.0770
  424MOL0     H58495   2.648   8.474   8.680  1.1210 -0.1323 -2.2552
  424MOL0     H58496   2.830   9.666   7.703 -0.9966 -4.2218  0.4850
  424MOL0     H58497   2.888   9.764   7.515  0.9527 -0.5859  3.9621
  424MOL0     H58498   2.961   9.906   7.156  0.4969  4.5352  3.9811
  424MOL0     H58499   3.031  10.005   6.972 -0.2110 -1.2981  1.0487
  424MOL0     H58500   2.724  10.020   6.640 -0.7028  0.3062  0.1378
  424MOL0     H58501   2.734  10.189   6.656  1.3955 -0.0348 -0.0123
  424MOL0     H58502   2.957  10.047   6.514 -0.4147  0.1711  0.7786
  424MOL0     H58503   2.923  10.218   6.522  0.2472 -0.8013 -1.8307
  424MOL0     H58504   2.698  10.068   6.405 -2.3526  2.2415 -4.3838
  424MOL0     H58505   2.773  10.224   6.366 -0.1642 -0.5046 -1.6329
  424MOL0     H58506   2.813  10.062   6.195 -0.0228 -3.2504  0.0972
  424MOL0     H58507   2.907   9.953   6.308  2.5402  0.6608  1.8245
  424MOL0     H58508   3.197  10.176   6.135  0.3071 -2.5739 -0.5871
  424MOL0     H58509   2.627  10.034   6.831 -1.5477 -1.5226  0.5821
  424MOL0     H58510   2.434   9.970   6.962  0.1670 -0.8718  0.3983
  424MOL0     H58511   2.477   9.812   7.037  0.8586  0.1477  2.4105
  424MOL0     H58512   2.460   9.962   7.134 -1.8845  2.3419  0.4168
  425MOL0     O58513   3.391   9.237   0.413 -0.1202 -0.1637 -0.9751
  425MOL0     C58514   3.366   9.206   0.535  0.5719 -0.2045  0.4208
  425MOL0     O58515   3.256   9.255   0.597 -1.8071 -0.1620 -0.1491
  425MOL0     C58516   3.176   9.347   0.533 -0.3468  0.1929 -0.7643
  425MOL0     C58517   3.044   9.315   0.511  0.1436  0.0451  0.0828
  425MOL0     C58518   2.960   9.412   0.446 -0.5460  0.4116 -0.4797
  425MOL0     C58519   3.006   9.543   0.423  0.2255 -0.2924  0.1184
  425MOL0     O58520   2.914   9.631   0.375  0.6516  0.0615 -0.0195
  425MOL0     C58521   2.968   9.760   0.354  0.1560  0.2007  0.7517
  425MOL0     C58522   2.855   9.850   0.310  0.3983 -0.1104  0.1552
  425MOL0     C58523   2.748   9.851   0.418  0.5403 -0.4706 -0.2894
  425MOL0     C58524   2.631   9.944   0.375  0.1017 -0.3227  0.6013
  425MOL0     C58525   2.563   9.901   0.245 -0.4729 -0.4958 -0.5891
  425MOL0     C58526   2.410   9.922   0.237  0.8405 -0.2273  0.4967
  425MOL0     C58527   2.365  10.063   0.221 -0.2773  0.4025  0.4176
  425MOL0     C58528   2.221  10.099   0.217 -0.2676  0.0203  0.5912
  425MOL0     N58529   2.155  10.034   0.329 -0.2837  0.5802 -0.3886
  425MOL0     C58530   2.054   9.946   0.331 -0.0860 -0.1698  0.0668
  425MOL0     C58531   2.055   9.897   0.454 -1.2571  1.0824  0.0221
  425MOL0     C58532   1.977   9.787   0.514 -0.4696  0.1890  0.2388
  425MOL0     C58533   1.829   9.815   0.518 -0.3475 -0.9788 -0.2088
  425MOL0     C58534   1.744   9.728   0.608 -0.1425  0.3800  0.0079
  425MOL0     C58535   1.769   9.752   0.754  0.4320 -0.9087 -0.0891
  425MOL0     O58536   1.735   9.894   0.775 -0.0165 -0.1350 -0.0109
  425MOL0     C58537   1.728   9.933   0.910  0.2705 -0.0185  0.7137
  425MOL0     C58538   1.773   9.850   1.019  0.0353  0.0982 -0.4823
  425MOL0     C58539   1.771   9.889   1.158  0.0268  0.2588 -0.6829
  425MOL0     C58540   1.821   9.790   1.259  0.7864 -0.1089  0.8481
  425MOL0     C58541   1.728  10.018   1.190  1.0162 -0.7548  0.6683
  425MOL0     C58542   1.729  10.076   1.327 -0.1001 -0.1517  1.2039
  425MOL0     O58543   1.667  10.200   1.341  0.2485  0.6146  0.3370
  425MOL0     C58544   1.694  10.270   1.454  0.8889  0.3079 -0.3749
  425MOL0     C58545   1.798  10.357   1.465 -0.6057 -0.2654 -0.5359
  425MOL0     C58546   1.819  10.441   1.580 -1.7361  0.7722 -0.2617
  425MOL0     C58547   1.727  10.448   1.676 -0.2031 -0.2396 -0.5644
  425MOL0     O58548   1.746  10.541   1.773  0.6557 -0.2806 -0.6911
  425MOL0     C58549   1.653  10.567   1.882 -0.0343  0.3760 -0.5082
  425MOL0     C58550   1.714  10.689   1.958 -1.1107  0.2684  0.1491
  425MOL0     C58551   1.645  10.706   2.101 -0.8357  0.9846  0.2155
  425MOL0     C58552   1.710  10.818   2.183 -0.4014  0.1442 -0.5129
  425MOL0     C58553   1.669  10.816   2.329 -0.4239  1.0228 -0.0403
  425MOL0     C58554   1.715  10.926   2.427  0.0255  0.2251  0.0726
  425MOL0     C58555   1.828  10.892   2.523 -0.3522 -0.3607 -0.1155
  425MOL0     C58556   1.894  11.016   2.583 -0.1512 -0.3523 -0.1241
  425MOL0    Cl58557   1.783  11.108   2.680 -0.2641 -0.4970  0.0808
  425MOL0     C58558   1.604  10.367   1.666  0.2003  0.1327  0.4951
  425MOL0     C58559   1.595  10.282   1.559 -0.3347  0.9291 -0.1189
  425MOL0     O58560   1.790  10.011   1.416 -0.6683 -0.8356  0.1650
  425MOL0     C58561   1.693  10.109   1.079  0.5333  0.4908 -0.4627
  425MOL0     C58562   1.689  10.059   0.947  0.4846  0.1261  0.4317
  425MOL0     N58563   2.139   9.971   0.534  0.2569  0.6440  0.5104
  425MOL0     N58564   2.188  10.067   0.459  0.6716 -0.3341 -0.0937
  425MOL0     C58565   3.145   9.569   0.461  0.0177  0.2546  1.1880
  425MOL0     C58566   3.228   9.472   0.504 -0.0026  1.1298  0.2016
  425MOL0     C58567   3.460   9.118   0.620  0.3250  0.3802 -0.4456
  425MOL0     C58568   3.562   9.053   0.536 -0.3897  0.4318 -0.2171
  425MOL0     C58569   3.655   8.967   0.597  0.5203 -0.2439  0.3797
  425MOL0     C58570   3.663   8.948   0.736 -0.0630  0.0465  1.1163
  425MOL0     O58571   3.772   8.887   0.797  0.4064 -0.6883  0.5550
  425MOL0     C58572   3.779   8.828   0.926 -0.3474 -0.1135 -0.0572
  425MOL0     C58573   3.682   8.710   0.963  0.1645 -0.6802 -1.2585
  425MOL0     C58574   3.719   8.570   0.904 -0.0700  0.2886 -0.2189
  425MOL0     C58575   3.638   8.452   0.956 -0.2831  0.5028 -0.1179
  425MOL0     C58576   3.692   8.325   0.903  1.2148 -0.7120 -0.5436
  425MOL0     C58577   3.714   8.211   0.868  0.9432 -0.1374 -0.7180
  425MOL0     C58578   3.566   9.007   0.815 -1.0507  0.0018  0.4115
  425MOL0     C58579   3.465   9.091   0.761 -0.2096  0.5501 -0.8267
  425MOL0     C58580   3.370   9.149   0.864  0.0763 -0.8152  0.0791
  425MOL0     H58581   3.006   9.215   0.527  2.3079 -0.8147  0.1366
  425MOL0     H58582   2.863   9.378   0.412 -0.0740  0.8559 -2.3995
  425MOL0     H58583   3.035   9.761   0.267 -0.7180 -0.9744  0.0302
  425MOL0     H58584   3.015   9.806   0.441 -0.0459 -0.4193  1.2004
  425MOL0     H58585   2.887   9.952   0.284 -2.8250  1.7032  2.5582
  425MOL0     H58586   2.812   9.794   0.227 -0.2059  0.7964 -0.1648
  425MOL0     H58587   2.709   9.750   0.434  1.0113 -0.5342  0.4893
  425MOL0     H58588   2.785   9.890   0.513  0.7425 -4.4300  1.4626
  425MOL0     H58589   2.547   9.958   0.444 -0.2261  1.0777 -0.0566
  425MOL0     H58590   2.683  10.038   0.357  0.4543 -0.9416 -1.8622
  425MOL0     H58591   2.569   9.791   0.243  0.0520 -0.4612 -1.3891
  425MOL0     H58592   2.610   9.948   0.158 -1.6643  1.5819 -0.1714
  425MOL0     H58593   2.378   9.880   0.142  1.1014  5.0139 -2.3077
  425MOL0     H58594   2.355   9.883   0.323 -3.4238  0.3650 -1.6728
  425MOL0     H58595   2.415  10.093   0.129 -0.5753 -1.1220 -0.2693
  425MOL0     H58596   2.397  10.119   0.310 -0.1021  0.1115  0.5392
  425MOL0     H58597   2.212  10.208   0.218  1.2493  0.2992 -2.9927
  425MOL0     H58598   2.182  10.074   0.117  0.2672  1.9757 -0.1426
  425MOL0     H58599   2.002   9.922   0.239  1.6777  0.7996 -1.2463
  425MOL0     H58600   2.026   9.765   0.608  1.1709 -1.0963 -0.8658
  425MOL0     H58601   2.004   9.702   0.451  1.2433 -0.4726  1.8004
  425MOL0     H58602   1.825   9.920   0.548 -0.1714 -1.1579  0.4392
  425MOL0     H58603   1.805   9.812   0.411  1.6854 -1.6586 -0.6843
  425MOL0     H58604   1.636   9.744   0.594 -0.3820 -1.1847 -0.1542
  425MOL0     H58605   1.760   9.622   0.586 -2.0836 -0.0856  0.6005
  425MOL0     H58606   1.706   9.681   0.808  0.0160 -0.3011  0.2299
  425MOL0     H58607   1.873   9.729   0.781  0.9365  2.7796  1.7114
  425MOL0     H58608   1.806   9.748   1.002  0.6697 -0.2401  2.2836
  425MOL0     H58609   1.861   9.698   1.215  0.5775 -0.9856  2.4378
  425MOL0     H58610   1.736   9.765   1.324  0.2752  1.7372  0.9373
  425MOL0     H58611   1.908   9.826   1.314  1.8809 -1.9485  0.4203
  425MOL0     H58612   1.864  10.361   1.380 -0.7083  2.0386 -0.5641
  425MOL0     H58613   1.899  10.513   1.595 -0.1669 -1.0591  0.6210
  425MOL0     H58614   1.558  10.591   1.835 -0.1702 -1.2307 -1.1120
  425MOL0     H58615   1.661  10.481   1.948  1.3660  1.7647  1.2327
  425MOL0     H58616   1.822  10.673   1.969 -0.5895  2.5269 -0.9919
  425MOL0     H58617   1.696  10.780   1.900 -1.6175 -1.4903 -2.6893
  425MOL0     H58618   1.662  10.613   2.157 -0.9424  2.0319  2.0797
  425MOL0     H58619   1.538  10.724   2.084 -0.7420  1.0122 -0.3441
  425MOL0     H58620   1.682  10.916   2.141  2.3758  1.6832  0.9649
  425MOL0     H58621   1.819  10.818   2.174 -0.4813  0.1382 -1.6554
  425MOL0     H58622   1.561  10.822   2.341 -0.5258 -2.9403  3.2590
  425MOL0     H58623   1.709  10.729   2.381 -4.2232 -1.6826 -1.2090
  425MOL0     H58624   1.628  10.945   2.489 -0.7859 -3.2616  0.1828
  425MOL0     H58625   1.733  11.019   2.372 -1.2017  1.5698  1.8445
  425MOL0     H58626   1.909  10.845   2.467 -0.0611 -1.0735  0.8882
  425MOL0     H58627   1.793  10.825   2.602 -2.3935  1.0817  0.2897
  425MOL0     H58628   1.920  11.093   2.509 -1.2251 -0.0751 -0.2291
  425MOL0     H58629   1.990  10.992   2.629 -0.0015 -4.1398 -2.0477
  425MOL0     H58630   1.531  10.351   1.744  1.1043  0.4958  1.4440
  425MOL0     H58631   1.515  10.212   1.541  1.1640 -1.3599  1.5271
  425MOL0     H58632   1.653  10.207   1.101  0.8037  0.1689  1.7248
  425MOL0     H58633   1.666  10.137   0.874  0.4549  2.3831  2.7151
  425MOL0     H58634   3.184   9.667   0.438  1.8731 -0.4601  1.0960
  425MOL0     H58635   3.327   9.503   0.535  0.2466 -1.4865  2.3687
  425MOL0     H58636   3.580   9.064   0.430 -0.8030 -1.1904 -0.4807
  425MOL0     H58637   3.733   8.940   0.527 -0.5848  1.5926 -1.6642
  425MOL0     H58638   3.881   8.798   0.949 -0.6545 -2.2859 -1.2561
  425MOL0     H58639   3.751   8.914   0.988 -2.4640  1.8717 -3.4233
  425MOL0     H58640   3.580   8.729   0.930  0.4967  0.1346 -1.8341
  425MOL0     H58641   3.682   8.696   1.072 -3.3140  1.4744 -0.8500
  425MOL0     H58642   3.696   8.557   0.798  0.4474  0.7724 -0.3902
  425MOL0     H58643   3.826   8.554   0.892  0.0093  1.3650 -1.0248
  425MOL0     H58644   3.531   8.470   0.940  0.2709  1.5711 -3.5069
  425MOL0     H58645   3.643   8.445   1.065 -2.8559  2.8090  0.2629
  425MOL0     H58646   3.741   8.115   0.829 -0.7357  0.0089 -2.4170
  425MOL0     H58647   3.567   8.977   0.919 -0.7141 -0.5646  0.2515
  425MOL0     H58648   3.390   9.127   0.969  1.4300 -0.8584 -0.1608
  425MOL0     H58649   3.359   9.258   0.852 -2.0667 -0.9087  0.8293
  425MOL0     H58650   3.271   9.111   0.838 -0.4984  1.4685 -1.4164
  426MOL0     O58651   1.634   6.148   2.167 -0.0806 -0.3202 -0.3412
  426MOL0     C58652   1.701   6.081   2.089  0.9038  0.9191 -0.3935
  426MOL0     O58653   1.823   6.028   2.113 -0.7423 -0.6540  0.5896
  426MOL0     C58654   1.881   6.063   2.229 -1.0649  0.6905  1.2680
  426MOL0     C58655   1.947   6.181   2.239  0.7984  0.6258 -0.3868
  426MOL0     C58656   2.022   6.216   2.346  0.0703  0.1461  0.0643
  426MOL0     C58657   2.030   6.133   2.449 -0.5770  0.0613 -0.6678
  426MOL0     O58658   2.105   6.177   2.564  0.1205 -0.8743  0.3732
  426MOL0     C58659   2.121   6.087   2.670 -0.2783 -0.9233 -0.4075
  426MOL0     C58660   2.039   6.143   2.785  0.2013  0.1042 -0.9887
  426MOL0     C58661   1.975   6.023   2.864  0.5124 -0.0729 -0.5508
  426MOL0     C58662   1.907   6.071   2.999  0.4159 -1.1755 -0.0184
  426MOL0     C58663   1.870   5.955   3.082  0.7125  0.2203 -0.9152
  426MOL0     C58664   1.913   5.974   3.235 -1.2465 -0.9138 -0.1755
  426MOL0     C58665   1.846   6.083   3.309  0.4776  0.2004  0.1941
  426MOL0     C58666   1.848   6.062   3.468 -0.3774 -0.0977 -0.2753
  426MOL0     N58667   1.987   6.085   3.515 -1.1512  0.2048  0.9490
  426MOL0     C58668   2.094   5.987   3.522 -0.4798 -0.2113 -0.4511
  426MOL0     C58669   2.189   6.048   3.597  0.3357 -0.3513  0.8763
  426MOL0     C58670   2.314   5.988   3.655  0.1960 -0.0325  0.9450
  426MOL0     C58671   2.338   6.024   3.802 -0.1712 -0.7476  0.1296
  426MOL0     C58672   2.217   6.026   3.895  0.7957  0.4349  0.5161
  426MOL0     C58673   2.172   5.890   3.948  0.3115  0.0568  0.1107
  426MOL0     O58674   2.089   5.818   3.854  0.2882  0.2951 -0.0664
  426MOL0     C58675   1.983   5.738   3.909 -0.3810 -0.5273  0.4907
  426MOL0     C58676   1.968   5.607   3.853  1.2448 -0.3911 -0.8028
  426MOL0     C58677   1.853   5.532   3.883 -0.2132 -0.2729 -0.4834
  426MOL0     C58678   1.839   5.402   3.803  0.8416 -0.0937  0.2307
  426MOL0     C58679   1.763   5.586   3.987  0.0525 -0.2614  0.0943
  426MOL0     C58680   1.643   5.516   4.033 -0.3645 -0.4780  0.3123
  426MOL0     O58681   1.576   5.567   4.134 -0.0710  0.4679  0.3461
  426MOL0     C58682   1.461   5.503   4.176  0.2792 -0.0773  0.2123
  426MOL0     C58683   1.336   5.567   4.166  0.2553 -0.2007 -0.2916
  426MOL0     C58684   1.224   5.492   4.208  0.8377 -0.4615 -0.1451
  426MOL0     C58685   1.227   5.364   4.262 -0.0522  0.1421 -0.1722
  426MOL0     O58686   1.116   5.304   4.310  0.6387 -0.1327  0.5388
  426MOL0     C58687   1.130   5.182   4.371  0.0480  0.9209 -0.0695
  426MOL0     C58688   0.994   5.126   4.404  1.0169 -0.2816  0.1824
  426MOL0     C58689   0.884   5.219   4.483  0.6098 -0.6571  0.0630
  426MOL0     C58690   0.781   5.125   4.559 -0.5152  0.1034  0.0217
  426MOL0     C58691   0.657   5.187   4.635 -0.6778  0.6775  0.3921
  426MOL0     C58692   0.679   5.317   4.701 -0.4930  0.1639  0.8279
  426MOL0     C58693   0.570   5.341   4.805 -0.4863  0.2736  0.2215
  426MOL0     C58694   0.435   5.370   4.748  0.4376  1.0193  0.0987
  426MOL0    Cl58695   0.444   5.512   4.640  0.3343 -0.6305  0.4985
  426MOL0     C58696   1.356   5.311   4.276  0.2544 -0.8447  0.4730
  426MOL0     C58697   1.472   5.375   4.230 -1.0922 -0.4604  0.0618
  426MOL0     O58698   1.611   5.415   3.976 -0.5689 -0.0794  0.1395
  426MOL0     C58699   1.794   5.713   4.047  0.3084  0.3831 -0.6020
  426MOL0     C58700   1.897   5.798   4.000 -0.1328  0.2186  0.2859
  426MOL0     N58701   2.147   6.183   3.596 -0.0959 -0.5623  0.5565
  426MOL0     N58702   2.024   6.201   3.559  0.3159  0.6912 -0.3867
  426MOL0     C58703   1.954   6.018   2.448 -0.2039  0.6498  0.0168
  426MOL0     C58704   1.889   5.981   2.340  0.9203  0.5052  0.2317
  426MOL0     C58705   1.632   6.045   1.963  0.5277 -0.0316  0.5883
  426MOL0     C58706   1.661   5.917   1.909 -0.2115  0.2796 -1.2192
  426MOL0     C58707   1.587   5.879   1.791 -0.8204  0.3958 -0.4246
  426MOL0     C58708   1.497   5.957   1.733 -0.0891  0.6495  0.6576
  426MOL0     O58709   1.438   5.914   1.616 -0.1065 -0.3135 -0.3616
  426MOL0     C58710   1.317   5.841   1.644  0.1622 -0.1080 -0.1707
  426MOL0     C58711   1.281   5.763   1.515 -0.3566  0.2953 -0.1819
  426MOL0     C58712   1.383   5.663   1.470 -0.4078  0.1057  0.9087
  426MOL0     C58713   1.333   5.568   1.365 -0.1387 -0.5213 -1.0266
  426MOL0     C58714   1.245   5.454   1.419  0.0670 -0.3478  0.1293
  426MOL0     C58715   1.193   5.348   1.441 -0.0295  0.8447 -0.0841
  426MOL0     C58716   1.469   6.078   1.791  0.0502  0.5393 -0.0509
  426MOL0     C58717   1.526   6.124   1.909  0.1890 -0.8497  0.0594
  426MOL0     C58718   1.495   6.261   1.952 -0.0316  0.8749 -0.4508
  426MOL0     H58719   1.952   6.245   2.152  0.5103 -0.5619 -1.3071
  426MOL0     H58720   2.078   6.308   2.344 -0.3653  0.4123 -1.0750
  426MOL0     H58721   2.225   6.084   2.704 -0.0367  1.6836 -0.7361
  426MOL0     H58722   2.094   5.981   2.663 -1.4178 -0.6950  0.4010
  426MOL0     H58723   2.100   6.209   2.847 -2.6170  2.9017 -0.9391
  426MOL0     H58724   1.967   6.219   2.753  0.4528  0.2856 -1.1310
  426MOL0     H58725   1.904   5.964   2.805 -0.4969 -1.7799  2.1720
  426MOL0     H58726   2.054   5.954   2.895  0.8149 -0.2620 -1.6932
  426MOL0     H58727   1.973   6.143   3.048  0.9283 -2.1265  0.7250
  426MOL0     H58728   1.817   6.132   2.987  0.7892  0.2736  3.5364
  426MOL0     H58729   1.922   5.870   3.037 -3.1865 -2.8166 -0.2503
  426MOL0     H58730   1.764   5.926   3.078  1.1737 -1.8040  0.0784
  426MOL0     H58731   1.891   5.884   3.292  1.0655 -2.0606 -0.9679
  426MOL0     H58732   2.021   5.995   3.233 -1.7911  2.6609 -2.5318
  426MOL0     H58733   1.742   6.081   3.278  0.5613  0.8517 -0.1626
  426MOL0     H58734   1.881   6.183   3.281 -1.8238  0.7293 -0.9913
  426MOL0     H58735   1.780   6.132   3.516 -1.2734 -2.1999  1.6857
  426MOL0     H58736   1.821   5.962   3.503  0.5511 -0.1835  0.2266
  426MOL0     H58737   2.088   5.883   3.492 -0.7167  0.1093 -1.5453
  426MOL0     H58738   2.398   6.033   3.602 -0.2216  1.2424  1.3374
  426MOL0     H58739   2.312   5.882   3.629  0.1231  0.2823 -0.3625
  426MOL0     H58740   2.413   5.960   3.849 -1.1722 -1.8525  0.2828
  426MOL0     H58741   2.388   6.121   3.813  0.3198 -1.0826  1.0073
  426MOL0     H58742   2.239   6.099   3.973 -0.1725  0.6368  0.6208
  426MOL0     H58743   2.124   6.059   3.848  0.2215 -2.4397 -0.5716
  426MOL0     H58744   2.260   5.828   3.966  0.6666  1.0227  1.9543
  426MOL0     H58745   2.110   5.913   4.035 -3.5035 -2.4132 -1.6704
  426MOL0     H58746   2.048   5.579   3.785  1.8800  0.0711 -0.2624
  426MOL0     H58747   1.894   5.420   3.710  3.2568  1.4984  1.8565
  426MOL0     H58748   1.735   5.379   3.778  1.3856 -4.0238  0.8560
  426MOL0     H58749   1.881   5.309   3.843 -2.2866 -2.3871 -1.3812
  426MOL0     H58750   1.316   5.656   4.107 -2.1045  1.8544  3.2345
  426MOL0     H58751   1.124   5.534   4.202  1.5776  1.3840 -0.3462
  426MOL0     H58752   1.183   5.112   4.305 -0.1503 -0.5893  1.3166
  426MOL0     H58753   1.182   5.196   4.466  1.2638 -1.9422 -0.2296
  426MOL0     H58754   0.946   5.105   4.308 -0.5294  0.9512  0.6322
  426MOL0     H58755   1.008   5.033   4.459 -1.8807 -3.4293 -3.7743
  426MOL0     H58756   0.829   5.291   4.422 -1.2232 -1.9599  0.0949
  426MOL0     H58757   0.928   5.285   4.558  1.4054  0.8973 -1.7030
  426MOL0     H58758   0.843   5.069   4.630 -0.6633 -1.9102 -1.3364
  426MOL0     H58759   0.745   5.049   4.488  1.6266 -1.0382  0.0982
  426MOL0     H58760   0.581   5.200   4.557 -1.5638  1.2669  1.3370
  426MOL0     H58761   0.637   5.119   4.718  0.7212  0.9984  1.0188
  426MOL0     H58762   0.688   5.397   4.627  4.1086 -0.2290  0.6810
  426MOL0     H58763   0.777   5.318   4.749 -1.2439  1.3134  2.4246
  426MOL0     H58764   0.609   5.422   4.867  2.5763  1.4420 -2.9270
  426MOL0     H58765   0.566   5.256   4.874 -0.3662  1.8685  2.2804
  426MOL0     H58766   0.370   5.394   4.832  1.9024  0.4858  1.4263
  426MOL0     H58767   0.396   5.285   4.690 -1.5477  2.7328 -1.2173
  426MOL0     H58768   1.367   5.217   4.329 -2.5470 -0.2680  2.2987
  426MOL0     H58769   1.572   5.336   4.247 -0.4277  1.4650  0.7290
  426MOL0     H58770   1.747   5.758   4.133  1.5846 -0.7362  0.7483
  426MOL0     H58771   1.912   5.896   4.043  2.3057  0.4866 -1.0456
  426MOL0     H58772   1.947   5.948   2.531  1.0285 -1.2852 -1.4278
  426MOL0     H58773   1.828   5.891   2.340  1.3742  0.1955  0.1065
  426MOL0     H58774   1.739   5.855   1.952  1.2128  2.0039 -1.2030
  426MOL0     H58775   1.610   5.779   1.755 -3.3590 -0.8137  1.0535
  426MOL0     H58776   1.336   5.769   1.724  1.2300  1.5140  1.1082
  426MOL0     H58777   1.243   5.915   1.677  2.4582  3.4126 -2.2190
  426MOL0     H58778   1.262   5.821   1.424 -0.8494 -1.1303 -1.0306
  426MOL0     H58779   1.188   5.713   1.541 -0.3956  0.1305 -0.6198
  426MOL0     H58780   1.467   5.715   1.424 -0.8181  0.0286  0.0651
  426MOL0     H58781   1.416   5.594   1.549  1.6304 -1.6211 -1.3088
  426MOL0     H58782   1.421   5.531   1.312  0.4626 -0.7640  0.0985
  426MOL0     H58783   1.276   5.620   1.288 -1.7487  1.2011  1.1902
  426MOL0     H58784   1.128   5.266   1.462 -1.6429  2.2915  0.7343
  426MOL0     H58785   1.404   6.149   1.741 -0.8226 -0.8641 -0.9636
  426MOL0     H58786   1.427   6.272   2.036  2.7382  0.2918  2.0271
  426MOL0     H58787   1.587   6.301   1.996  0.3108  0.4929 -0.8007
  426MOL0     H58788   1.457   6.323   1.870  0.1273  0.8724 -0.5282
  427MOL0     O58789  10.200   9.368   6.766 -0.2945  0.3691  0.0902
  427MOL0     C58790  10.296   9.302   6.752 -0.9114  0.8833 -0.2635
  427MOL0     O58791  10.350   9.260   6.639 -0.9364 -0.4651  0.8208
  427MOL0     C58792  10.279   9.278   6.526  0.4071 -0.5776 -0.4261
  427MOL0     C58793  10.142   9.252   6.510  0.2387 -1.2186  0.9172
  427MOL0     C58794  10.069   9.293   6.397 -0.5763  0.2675  0.1038
  427MOL0     C58795  10.127   9.373   6.296  0.5777 -0.5258  0.4243
  427MOL0     O58796  10.067   9.406   6.177 -0.2444  0.0742  0.4502
  427MOL0     C58797   9.924   9.395   6.163 -0.0643 -0.7731  0.9359
  427MOL0     C58798   9.835   9.503   6.234  0.2765  0.1797  0.5948
  427MOL0     C58799   9.819   9.642   6.165 -0.3089  0.5425  0.2492
  427MOL0     C58800   9.700   9.723   6.228  0.3763 -1.5574 -0.0886
  427MOL0     C58801   9.649   9.830   6.128  0.5478 -0.2016 -0.5833
  427MOL0     C58802   9.762   9.931   6.094 -0.3573  0.0580 -0.0700
  427MOL0     C58803   9.731  10.062   6.013  0.0181 -0.5235  0.1925
  427MOL0     C58804   9.863  10.151   5.975  0.9061 -0.7302 -0.1271
  427MOL0     N58805   9.823  10.277   5.929 -0.2805 -0.1514 -0.1342
  427MOL0     C58806   9.751  10.366   6.009 -0.0485 -0.2712  0.0346
  427MOL0     C58807   9.747  10.478   5.935 -0.2834  0.2692  0.1496
  427MOL0     C58808   9.686  10.602   5.988 -0.2668 -0.1672 -0.6613
  427MOL0     C58809   9.801  10.707   5.992  0.1425  0.5002 -0.2421
  427MOL0     C58810   9.850  10.753   5.850 -0.2275  0.4091 -0.6893
  427MOL0     C58811   9.891  10.904   5.841 -0.5073  0.2497  0.6186
  427MOL0     O58812   9.764  10.969   5.811 -0.4929  0.0639 -0.7802
  427MOL0     C58813   9.778  11.097   5.751  0.8730 -0.4694 -0.1522
  427MOL0     C58814   9.879  11.167   5.686  0.0156 -0.1828 -0.8211
  427MOL0     C58815   9.860  11.295   5.628  0.0356 -0.6431 -0.0284
  427MOL0     C58816   9.975  11.348   5.540 -0.1009  0.8053 -0.2073
  427MOL0     C58817   9.728  11.355   5.633 -0.1683 -0.3345  0.2464
  427MOL0     C58818   9.710  11.492   5.577  1.0223 -0.6398  0.4655
  427MOL0     O58819   9.794  11.583   5.616 -1.2532 -0.0883  0.4035
  427MOL0     C58820   9.780  11.711   5.580  0.1484  0.3903  0.2722
  427MOL0     C58821   9.847  11.770   5.469 -0.2763 -0.5490 -0.9656
  427MOL0     C58822   9.810  11.897   5.431 -0.3472 -0.0744 -0.2661
  427MOL0     C58823   9.724  11.977   5.506  0.0703  0.0987  0.5373
  427MOL0     O58824   9.661  12.085   5.461 -0.1732 -0.1785  0.1995
  427MOL0     C58825   9.736  12.191   5.415  0.8198 -0.5893  0.0632
  427MOL0     C58826   9.658  12.304   5.374 -0.2598  0.0449  0.7794
  427MOL0     C58827   9.598  12.372   5.496  0.5389  0.1703  0.7811
  427MOL0     C58828   9.550  12.516   5.477 -0.5472  0.4459 -0.6502
  427MOL0     C58829   9.466  12.584   5.583  0.4448  0.1820  0.6325
  427MOL0     C58830   9.529  12.561   5.724 -0.1399 -0.3826 -0.3136
  427MOL0     C58831   9.463  12.638   5.844 -0.4115  0.2681  0.1066
  427MOL0     C58832   9.496  12.579   5.981 -0.1234  0.5988 -0.1025
  427MOL0    Cl58833   9.661  12.623   6.043  0.3538  0.3355 -0.1878
  427MOL0     C58834   9.678  11.929   5.623 -0.2135  0.3870  0.1179
  427MOL0     C58835   9.696  11.793   5.657 -0.4572  0.8837 -0.0780
  427MOL0     O58836   9.621  11.507   5.494  0.6613 -0.4816 -0.1221
  427MOL0     C58837   9.630  11.293   5.711  1.1904  0.3005  1.0248
  427MOL0     C58838   9.651  11.166   5.762 -0.2687 -0.5173 -0.2228
  427MOL0     N58839   9.827  10.458   5.827  0.4294  0.4152  0.2572
  427MOL0     N58840   9.879  10.342   5.819  0.0199  0.2822 -0.4415
  427MOL0     C58841  10.263   9.400   6.318 -0.2625 -0.2815  0.3208
  427MOL0     C58842  10.346   9.349   6.430 -0.1961 -0.0370 -0.0797
  427MOL0     C58843  10.357   9.258   6.888  0.5221 -0.4162  0.3056
  427MOL0     C58844  10.275   9.231   7.000  0.8823 -0.5100  0.8784
  427MOL0     C58845  10.317   9.174   7.114 -0.1023  0.4247 -0.9955
  427MOL0     C58846  10.454   9.142   7.127 -0.5820  0.0910  0.2265
  427MOL0     O58847  10.513   9.092   7.246  0.4373  0.4195  0.2283
  427MOL0     C58848  10.433   9.039   7.354  0.8186 -0.5865 -1.2198
  427MOL0     C58849  10.370   8.906   7.297  0.3953  0.0962  0.1616
  427MOL0     C58850  10.294   8.823   7.397  0.8054  0.7314 -0.0066
  427MOL0     C58851  10.164   8.893   7.452  0.1225  1.1443  0.4085
  427MOL0     C58852  10.138   8.864   7.592  0.5774  0.5296  0.4433
  427MOL0     C58853  10.110   8.841   7.708  0.7958 -0.0598  0.1121
  427MOL0     C58854  10.537   9.172   7.020  0.5482 -0.0706  0.4552
  427MOL0     C58855  10.491   9.222   6.900  0.0869 -0.3583 -0.2770
  427MOL0     C58856  10.586   9.248   6.787 -0.0432  1.1357  1.0684
  427MOL0     H58857  10.090   9.199   6.589 -0.1153 -0.3451  1.2771
  427MOL0     H58858   9.969   9.252   6.394 -0.5303  0.1607  0.0083
  427MOL0     H58859   9.896   9.295   6.197 -0.2137 -0.5769  1.4001
  427MOL0     H58860   9.894   9.402   6.058 -2.2873 -0.5511  1.5431
  427MOL0     H58861   9.737   9.455   6.232  0.2831  0.1798  0.2736
  427MOL0     H58862   9.869   9.511   6.338  2.9360 -0.6388 -0.1303
  427MOL0     H58863   9.915   9.694   6.157 -0.2034  0.5254  1.3150
  427MOL0     H58864   9.784   9.621   6.063  1.0290 -0.1830 -0.0882
  427MOL0     H58865   9.614   9.667   6.266 -0.6343 -0.2963 -0.4391
  427MOL0     H58866   9.736   9.791   6.306 -0.3101  0.4039 -1.3817
  427MOL0     H58867   9.581   9.881   6.197  1.4440 -0.1091  0.2550
  427MOL0     H58868   9.592   9.792   6.043  0.5890 -0.5918 -0.4402
  427MOL0     H58869   9.819   9.956   6.185  0.0862  2.1936 -0.8686
  427MOL0     H58870   9.831   9.877   6.028  5.7729  2.1132  3.7778
  427MOL0     H58871   9.674  10.132   6.074 -1.4039 -1.7336  0.3268
  427MOL0     H58872   9.663  10.040   5.930  0.5405 -2.7021  0.2856
  427MOL0     H58873   9.934  10.163   6.058 -0.2706  0.3189  0.7726
  427MOL0     H58874   9.902  10.099   5.888 -1.1616 -2.7925  0.0516
  427MOL0     H58875   9.708  10.337   6.104 -1.5798  1.1236 -0.2041
  427MOL0     H58876   9.643  10.578   6.086 -0.3416 -0.2395 -0.7110
  427MOL0     H58877   9.609  10.628   5.915 -0.2102  0.4966 -0.4840
  427MOL0     H58878   9.757  10.792   6.046  0.7734 -0.8519  2.5769
  427MOL0     H58879   9.885  10.671   6.052  0.2729  1.4866  0.1876
  427MOL0     H58880   9.936  10.686   5.838 -1.1188 -1.9920  3.8042
  427MOL0     H58881   9.777  10.721   5.776 -1.0063 -1.7660  0.9046
  427MOL0     H58882   9.943  10.938   5.931  1.0233 -0.2045 -0.0551
  427MOL0     H58883   9.964  10.917   5.761 -2.4397 -0.1821 -1.2979
  427MOL0     H58884   9.982  11.133   5.689  0.3051  0.7127  0.1671
  427MOL0     H58885   9.968  11.455   5.520  0.1921  0.6621 -1.1277
  427MOL0     H58886   9.972  11.288   5.448  1.4632  0.8199 -0.2918
  427MOL0     H58887  10.076  11.330   5.578 -0.3196  2.1399  1.0845
  427MOL0     H58888   9.909  11.713   5.401 -1.3821 -0.1999 -2.3052
  427MOL0     H58889   9.830  11.930   5.329  4.7086 -2.5686 -0.4021
  427MOL0     H58890   9.805  12.222   5.493 -0.5975 -0.2444  1.2295
  427MOL0     H58891   9.791  12.160   5.325 -0.2525 -1.4995 -0.3098
  427MOL0     H58892   9.729  12.371   5.326 -0.4314  1.0121  1.8212
  427MOL0     H58893   9.586  12.283   5.295 -0.7768 -1.7937  1.6657
  427MOL0     H58894   9.679  12.384   5.569  0.1416  1.3708  1.0379
  427MOL0     H58895   9.525  12.300   5.534  1.0629 -1.1168 -0.5126
  427MOL0     H58896   9.512  12.519   5.374  0.0130 -2.1137 -0.9792
  427MOL0     H58897   9.643  12.574   5.472 -1.6317  2.2152 -1.9367
  427MOL0     H58898   9.468  12.690   5.555 -1.3536  0.3697  1.0859
  427MOL0     H58899   9.359  12.564   5.589  0.4163  0.7674  3.9236
  427MOL0     H58900   9.632  12.595   5.718  0.0995 -1.2659 -1.4217
  427MOL0     H58901   9.532  12.455   5.753  0.4118  0.1036  1.5790
  427MOL0     H58902   9.355  12.624   5.835 -0.5463 -0.3330  2.1715
  427MOL0     H58903   9.487  12.745   5.847 -1.7788  0.5884 -0.0242
  427MOL0     H58904   9.487  12.471   5.992  1.2455  0.4937  0.1793
  427MOL0     H58905   9.417  12.623   6.043 -1.9899  0.1380 -2.0309
  427MOL0     H58906   9.605  11.981   5.685 -0.1593 -0.3168  0.7892
  427MOL0     H58907   9.641  11.746   5.738  1.3637 -0.8807  0.2175
  427MOL0     H58908   9.545  11.358   5.733  2.1491  2.4317 -1.0820
  427MOL0     H58909   9.562  11.125   5.809 -0.6963 -1.3188 -1.6572
  427MOL0     H58910  10.305   9.465   6.242  1.9004 -0.7227  1.0565
  427MOL0     H58911  10.450   9.379   6.436 -0.1604 -0.1307 -0.2160
  427MOL0     H58912  10.167   9.236   6.999  0.6461 -3.4826 -1.1012
  427MOL0     H58913  10.242   9.174   7.193  0.4220 -1.0630 -0.4603
  427MOL0     H58914  10.512   9.019   7.427  0.6958  0.8327 -0.6568
  427MOL0     H58915  10.365   9.108   7.405  1.5984 -0.2651 -0.5914
  427MOL0     H58916  10.446   8.844   7.250  0.5764  0.1087  0.4378
  427MOL0     H58917  10.309   8.930   7.209  0.6093 -0.7325 -0.2169
  427MOL0     H58918  10.273   8.721   7.366  1.7211  0.4105  0.3825
  427MOL0     H58919  10.357   8.819   7.487  2.8948 -1.0720 -1.4568
  427MOL0     H58920  10.090   8.842   7.389  3.4962  0.0605 -3.0715
  427MOL0     H58921  10.166   8.999   7.425  0.0905  0.2615 -3.8036
  427MOL0     H58922  10.093   8.829   7.813  2.7401 -1.5072  0.3141
  427MOL0     H58923  10.646   9.169   7.026  0.7012  0.3131 -1.3683
  427MOL0     H58924  10.575   9.350   6.748  1.6331  1.1547  0.5572
  427MOL0     H58925  10.692   9.233   6.813  0.9617  1.8072 -2.1826
  427MOL0     H58926  10.563   9.175   6.709 -2.5169  1.7547  1.1301
  428MOL0     O58927   1.591   2.839   1.803  0.1293  0.7318 -0.8418
  428MOL0     C58928   1.619   2.745   1.867  0.0304  0.6775  0.0776
  428MOL0     O58929   1.733   2.726   1.939 -0.6463  0.3924  0.0648
  428MOL0     C58930   1.832   2.825   1.937  0.0007 -0.0293 -0.2047
  428MOL0     C58931   1.896   2.877   2.051  0.0808  0.2062 -0.1094
  428MOL0     C58932   2.007   2.957   2.038  0.4153 -0.0618 -0.6963
  428MOL0     C58933   2.062   2.998   1.916  0.1884  0.1104 -0.6465
  428MOL0     O58934   2.174   3.068   1.892  0.9717 -0.2780 -0.2240
  428MOL0     C58935   2.266   3.072   2.004  0.4822 -0.2554  0.9221
  428MOL0     C58936   2.397   3.153   1.981 -0.0593  0.5941  0.1863
  428MOL0     C58937   2.460   3.108   1.848  0.5765 -0.2578 -0.0377
  428MOL0     C58938   2.583   3.182   1.807  0.1599 -0.1123  0.8022
  428MOL0     C58939   2.623   3.148   1.663  0.1322 -0.0781 -1.2007
  428MOL0     C58940   2.759   3.217   1.632 -0.4150 -0.1053 -0.3432
  428MOL0     C58941   2.740   3.367   1.594  0.3778 -1.0269 -0.9472
  428MOL0     C58942   2.868   3.438   1.538  0.5470 -0.5632  0.1939
  428MOL0     N58943   2.964   3.474   1.638  0.2248  0.0010  0.2506
  428MOL0     C58944   3.038   3.396   1.727  0.0748  0.4085  0.2584
  428MOL0     C58945   3.113   3.493   1.799 -0.0478 -0.4874  1.1372
  428MOL0     C58946   3.194   3.463   1.925  0.6374  0.0871  0.4666
  428MOL0     C58947   3.294   3.353   1.918 -0.3537  0.0245  1.1589
  428MOL0     C58948   3.370   3.330   2.048  0.4231 -0.4993 -0.0460
  428MOL0     C58949   3.286   3.301   2.182  1.4506  0.9159  0.7099
  428MOL0     O58950   3.176   3.207   2.174  0.8675 -0.5401  0.4276
  428MOL0     C58951   3.103   3.174   2.285 -0.4006 -0.2344 -0.0197
  428MOL0     C58952   3.122   3.244   2.401  0.2590 -1.1232 -0.5748
  428MOL0     C58953   3.057   3.199   2.519  0.0978 -0.7204  0.2027
  428MOL0     C58954   3.085   3.281   2.654  0.5583 -0.4869  0.4267
  428MOL0     C58955   2.976   3.086   2.519  0.9577  0.5939 -0.1653
  428MOL0     C58956   2.922   3.021   2.641  0.7404 -0.9906  0.0254
  428MOL0     O58957   3.005   2.980   2.743 -0.3455  0.7704 -0.2007
  428MOL0     C58958   2.957   2.975   2.871  0.0351 -0.3260  0.5007
  428MOL0     C58959   2.915   3.095   2.934 -0.5610 -0.2647  1.2590
  428MOL0     C58960   2.884   3.092   3.070  0.2499 -0.5824 -0.3273
  428MOL0     C58961   2.887   2.977   3.139  0.3035 -0.0528  0.0636
  428MOL0     O58962   2.844   2.982   3.272  0.1098  0.9154  0.6464
  428MOL0     C58963   2.813   2.859   3.347  0.4145 -0.2045 -0.2074
  428MOL0     C58964   2.708   2.874   3.459  0.8494 -0.7859  0.1279
  428MOL0     C58965   2.575   2.913   3.394  0.6894  0.6037  0.0456
  428MOL0     C58966   2.572   3.054   3.328 -0.2026 -0.6879 -1.1654
  428MOL0     C58967   2.443   3.125   3.325  0.4671 -0.4985 -0.1932
  428MOL0     C58968   2.411   3.203   3.456 -0.4630 -0.0208 -0.2707
  428MOL0     C58969   2.267   3.257   3.460 -0.9742 -0.1508  0.6623
  428MOL0     C58970   2.248   3.380   3.551  0.4183 -0.5189 -0.3034
  428MOL0    Cl58971   2.069   3.432   3.569 -0.3390  0.1558 -0.2685
  428MOL0     C58972   2.948   2.859   3.085  0.0837 -0.1641  1.1501
  428MOL0     C58973   2.985   2.864   2.948  0.2204 -0.6626 -0.7499
  428MOL0     O58974   2.800   3.013   2.646 -0.2071 -0.8898  0.0990
  428MOL0     C58975   2.968   3.011   2.397  0.8260  0.6208 -0.4600
  428MOL0     C58976   3.034   3.056   2.279  1.2457  0.8444  0.7423
  428MOL0     N58977   3.079   3.618   1.757  0.4677 -0.1519  1.1562
  428MOL0     N58978   2.990   3.600   1.657 -0.1208 -0.0165  0.2489
  428MOL0     C58979   1.996   2.958   1.801 -0.2226  0.3681  0.2759
  428MOL0     C58980   1.884   2.873   1.812  0.2774 -1.1106  0.4156
  428MOL0     C58981   1.524   2.622   1.868  0.0278  0.0429  0.1137
  428MOL0     C58982   1.572   2.490   1.900  0.5131  0.0535  0.3539
  428MOL0     C58983   1.485   2.377   1.882 -0.3571 -0.6829  0.6993
  428MOL0     C58984   1.350   2.391   1.847  0.1039 -0.2119 -0.2670
  428MOL0     O58985   1.266   2.288   1.850 -0.5875 -0.3968 -0.2490
  428MOL0     C58986   1.195   2.263   1.972  0.6527 -0.0302 -0.4685
  428MOL0     C58987   1.222   2.122   2.025 -0.6716  0.1886 -0.0643
  428MOL0     C58988   1.105   2.091   2.121  0.4819  0.0391 -0.1328
  428MOL0     C58989   1.134   1.981   2.217 -0.3131 -0.0901 -0.6100
  428MOL0     C58990   1.220   2.029   2.324 -0.3191 -0.4811  0.2946
  428MOL0     C58991   1.277   2.071   2.420 -0.5140 -0.4058  0.3258
  428MOL0     C58992   1.296   2.515   1.824  0.8322 -0.1844 -0.9614
  428MOL0     C58993   1.383   2.634   1.833  0.3459 -0.3045 -0.6298
  428MOL0     C58994   1.307   2.762   1.828 -0.2495 -0.2628  0.3895
  428MOL0     H58995   1.865   2.850   2.151  1.7174 -1.2385  0.0655
  428MOL0     H58996   2.053   2.972   2.135  0.5209 -0.8679 -0.6144
  428MOL0     H58997   2.299   2.972   2.035  0.8367 -1.4721 -2.9069
  428MOL0     H58998   2.213   3.117   2.088  0.8868 -2.4602  2.4520
  428MOL0     H58999   2.372   3.259   1.968 -3.1267  0.4529  3.4063
  428MOL0     H59000   2.467   3.145   2.064  2.4698 -1.2505 -1.9553
  428MOL0     H59001   2.488   3.003   1.858  1.9906  0.3284  3.7528
  428MOL0     H59002   2.384   3.111   1.769  1.3617 -1.4102 -0.8837
  428MOL0     H59003   2.575   3.291   1.817 -0.5895  0.4194 -3.6045
  428MOL0     H59004   2.664   3.148   1.873 -0.0567 -2.9149 -0.2347
  428MOL0     H59005   2.543   3.183   1.597 -0.2284 -1.8658 -1.7641
  428MOL0     H59006   2.627   3.040   1.649  3.3789 -0.3984  1.0855
  428MOL0     H59007   2.829   3.222   1.716  1.4490  3.9889 -1.8832
  428MOL0     H59008   2.810   3.163   1.551 -1.3021  0.1442 -1.0773
  428MOL0     H59009   2.713   3.418   1.687  0.9289  1.8753 -2.2541
  428MOL0     H59010   2.652   3.375   1.529 -0.7406 -2.2864  0.3499
  428MOL0     H59011   2.915   3.367   1.469  0.8492  1.0201 -1.3065
  428MOL0     H59012   2.842   3.531   1.486 -3.3831 -0.9989  1.0207
  428MOL0     H59013   3.031   3.289   1.735 -1.5381  0.4497 -0.3157
  428MOL0     H59014   3.125   3.436   2.006 -0.1517  0.5033 -0.0504
  428MOL0     H59015   3.255   3.549   1.953  0.4872  0.0644  0.8725
  428MOL0     H59016   3.239   3.268   1.876 -0.9534  0.5935  0.7941
  428MOL0     H59017   3.360   3.374   1.833 -1.2346 -2.8656 -0.3921
  428MOL0     H59018   3.451   3.259   2.031  0.7708 -0.1426  0.1015
  428MOL0     H59019   3.429   3.417   2.078 -2.6257  1.9036 -0.4655
  428MOL0     H59020   3.362   3.263   2.251 -0.5947 -0.6303  2.2485
  428MOL0     H59021   3.242   3.397   2.210 -0.7416 -0.0275  0.6806
  428MOL0     H59022   3.173   3.339   2.416  3.2011 -2.4992 -1.1088
  428MOL0     H59023   3.164   3.356   2.644 -0.5852  1.3230  3.7268
  428MOL0     H59024   3.123   3.231   2.743  0.5032  4.6728  3.7255
  428MOL0     H59025   2.995   3.335   2.682  1.2466  1.6274 -1.1875
  428MOL0     H59026   2.902   3.185   2.875  1.9719 -0.8845 -0.3875
  428MOL0     H59027   2.845   3.175   3.129  0.7149 -1.5734  1.4650
  428MOL0     H59028   2.771   2.782   3.282 -2.3540  1.0102 -0.0026
  428MOL0     H59029   2.905   2.829   3.398  0.7662  1.9600  0.5454
  428MOL0     H59030   2.696   2.786   3.522 -0.1330 -0.9390 -0.2645
  428MOL0     H59031   2.728   2.961   3.523 -2.1509  1.5254 -1.7767
  428MOL0     H59032   2.498   2.918   3.472  2.3208  1.4580  1.6695
  428MOL0     H59033   2.550   2.842   3.314  3.0397  0.5009 -0.6746
  428MOL0     H59034   2.604   3.049   3.223 -0.2718 -3.6812 -1.1239
  428MOL0     H59035   2.649   3.107   3.385  0.6645 -2.7993 -0.2810
  428MOL0     H59036   2.445   3.200   3.246 -1.3601  1.1362  1.1968
  428MOL0     H59037   2.363   3.051   3.315 -0.1529  0.1218  0.0769
  428MOL0     H59038   2.494   3.274   3.446 -0.5709 -0.1206 -2.1009
  428MOL0     H59039   2.424   3.149   3.551 -0.2404 -1.3729 -1.0341
  428MOL0     H59040   2.187   3.184   3.470 -0.2560 -1.8038 -3.6312
  428MOL0     H59041   2.242   3.297   3.361 -0.8349 -0.6318  0.4262
  428MOL0     H59042   2.293   3.466   3.503  0.9720  0.8641  2.4892
  428MOL0     H59043   2.294   3.364   3.649  2.1733 -0.8056 -1.1433
  428MOL0     H59044   2.969   2.765   3.136  1.0280  0.1482  1.3498
  428MOL0     H59045   3.042   2.798   2.883  2.0920 -0.2989  0.4234
  428MOL0     H59046   2.890   2.936   2.393  0.0890  1.1597  2.1622
  428MOL0     H59047   3.025   2.992   2.191  1.3250 -1.9795  2.6562
  428MOL0     H59048   2.039   2.994   1.709 -1.4656  1.6950  0.1814
  428MOL0     H59049   1.844   2.851   1.714  1.5827  1.9213 -0.9642
  428MOL0     H59050   1.675   2.484   1.935  0.6657  1.4198  0.1880
  428MOL0     H59051   1.522   2.276   1.899 -2.6602 -1.5476  0.9859
  428MOL0     H59052   1.228   2.330   2.052  0.6018  1.9527 -2.0394
  428MOL0     H59053   1.091   2.286   1.948  0.4326  0.1589  0.6345
  428MOL0     H59054   1.325   2.119   2.063 -0.2088 -0.0398 -1.3044
  428MOL0     H59055   1.220   2.066   1.932 -1.0218  5.5133 -3.7502
  428MOL0     H59056   1.062   2.172   2.181 -5.9031 -1.9314 -1.2849
  428MOL0     H59057   1.020   2.052   2.065  1.1540 -1.4435 -0.1494
  428MOL0     H59058   1.181   1.898   2.162 -0.6568 -0.7472  0.0828
  428MOL0     H59059   1.045   1.941   2.266 -1.2490  3.0060  0.4462
  428MOL0     H59060   1.337   2.108   2.501  1.3915 -0.8794 -0.8032
  428MOL0     H59061   1.189   2.509   1.807 -0.1378 -5.3855  3.9516
  428MOL0     H59062   1.326   2.835   1.907  3.0125  0.4942 -0.8871
  428MOL0     H59063   1.329   2.807   1.730 -0.4110 -1.8009 -0.3832
  428MOL0     H59064   1.200   2.740   1.830 -0.9368  2.3690 -1.6201
  429MOL0     O59065   3.054   4.429   2.641 -0.1367 -0.4561 -0.2515
  429MOL0     C59066   3.030   4.376   2.750  1.1790  0.3256  1.3568
  429MOL0     O59067   2.923   4.296   2.764  0.3810  0.5067 -0.0698
  429MOL0     C59068   2.844   4.271   2.658  0.8020  0.7273  0.3804
  429MOL0     C59069   2.773   4.370   2.584  0.4292  0.3551 -0.7557
  429MOL0     C59070   2.697   4.320   2.486  0.2913 -0.6685  1.0272
  429MOL0     C59071   2.700   4.191   2.437 -0.4126 -0.1991 -0.0537
  429MOL0     O59072   2.656   4.156   2.312  0.5563 -0.2210 -0.2218
  429MOL0     C59073   2.755   4.167   2.203 -0.1262  0.6760 -0.5255
  429MOL0     C59074   2.729   4.284   2.110 -0.1395 -0.5264  0.2303
  429MOL0     C59075   2.768   4.242   1.966 -0.5483 -0.1076  0.3776
  429MOL0     C59076   2.757   4.364   1.863  0.2474  0.3095 -1.0200
  429MOL0     C59077   2.609   4.421   1.861 -0.4241  1.3764 -0.6727
  429MOL0     C59078   2.595   4.554   1.780  0.1426 -0.5220 -0.1476
  429MOL0     C59079   2.643   4.668   1.861 -0.4626 -1.2192  0.0663
  429MOL0     C59080   2.638   4.791   1.770 -0.3362  0.2720 -0.0861
  429MOL0     N59081   2.739   4.799   1.664  0.8368  0.0309 -0.4147
  429MOL0     C59082   2.877   4.812   1.669 -0.5635 -0.4627  0.6371
  429MOL0     C59083   2.923   4.787   1.542 -0.0128 -0.9512  1.1364
  429MOL0     C59084   3.067   4.755   1.509 -1.4909  0.2730  0.2605
  429MOL0     C59085   3.098   4.607   1.529 -0.0908  0.3020 -0.7569
  429MOL0     C59086   3.002   4.505   1.485 -0.1068 -0.0804 -0.3854
  429MOL0     C59087   3.058   4.372   1.527 -0.5189  1.0068  0.8549
  429MOL0     O59088   3.151   4.336   1.433  0.0676 -0.0964  0.3376
  429MOL0     C59089   3.204   4.212   1.439  0.1224  0.3011  0.9185
  429MOL0     C59090   3.270   4.169   1.325 -0.0654  0.4429  0.9497
  429MOL0     C59091   3.326   4.031   1.313  0.4873 -0.0489  0.5840
  429MOL0     C59092   3.415   4.004   1.190  0.2078  0.1756 -0.0170
  429MOL0     C59093   3.298   3.937   1.416 -0.4115 -0.1117  0.6889
  429MOL0     C59094   3.336   3.799   1.407 -0.2457 -0.6469  0.6739
  429MOL0     O59095   3.369   3.738   1.522  0.5937 -0.3312 -0.2178
  429MOL0     C59096   3.428   3.609   1.513 -0.4593  0.4265  1.0947
  429MOL0     C59097   3.562   3.592   1.536  0.0819 -0.4915 -0.3179
  429MOL0     C59098   3.629   3.469   1.538  0.0436 -0.3572  0.0702
  429MOL0     C59099   3.550   3.356   1.506 -0.4208 -0.4661 -0.3315
  429MOL0     O59100   3.615   3.237   1.484  0.5080 -0.2922  0.0440
  429MOL0     C59101   3.586   3.177   1.350 -0.6434 -0.1668 -0.2011
  429MOL0     C59102   3.689   3.065   1.322  0.1984  0.5434  0.7982
  429MOL0     C59103   3.832   3.099   1.268 -0.5918  0.2792  0.0236
  429MOL0     C59104   3.937   2.988   1.295  1.7136 -0.0712  0.3225
  429MOL0     C59105   4.061   3.018   1.200 -1.1057  0.2326  0.2857
  429MOL0     C59106   4.172   2.907   1.220  0.8058  0.2343  0.3086
  429MOL0     C59107   4.159   2.769   1.148 -0.3319 -0.1348  0.0300
  429MOL0     C59108   4.242   2.656   1.207 -0.7072  1.1473  0.7213
  429MOL0    Cl59109   4.200   2.612   1.373  0.0047  0.5137  0.1842
  429MOL0     C59110   3.409   3.373   1.491  0.3349  0.7982  0.5825
  429MOL0     C59111   3.341   3.497   1.499  0.2843 -0.6358 -0.4680
  429MOL0     O59112   3.318   3.749   1.293 -0.1560  0.7746 -0.2814
  429MOL0     C59113   3.231   3.980   1.530  0.2480  0.6258  0.4978
  429MOL0     C59114   3.193   4.117   1.541  0.8219 -1.3149  0.4536
  429MOL0     N59115   2.816   4.776   1.460 -0.3485 -0.6339 -0.2103
  429MOL0     N59116   2.716   4.775   1.535 -0.3828 -0.3174  0.7580
  429MOL0     C59117   2.767   4.089   2.502 -0.9944 -0.3344  0.5168
  429MOL0     C59118   2.842   4.136   2.613 -0.3342  0.6212 -0.2429
  429MOL0     C59119   3.136   4.363   2.853  1.0688 -0.1135 -0.5009
  429MOL0     C59120   3.268   4.346   2.809 -0.5307 -0.2413 -0.5137
  429MOL0     C59121   3.369   4.318   2.897  0.4840 -0.5691 -0.3335
  429MOL0     C59122   3.342   4.303   3.031  0.2986 -0.0173  0.7287
  429MOL0     O59123   3.430   4.255   3.125  0.3794  0.1133  0.2134
  429MOL0     C59124   3.557   4.202   3.085 -0.3615 -0.0624  0.0068
  429MOL0     C59125   3.629   4.204   3.219 -0.5758 -1.5469  0.5200
  429MOL0     C59126   3.774   4.183   3.217  0.1987 -0.7559 -0.1642
  429MOL0     C59127   3.843   4.189   3.353 -0.6062  0.7703 -0.8368
  429MOL0     C59128   3.819   4.322   3.412  0.2067  0.5937  0.3191
  429MOL0     C59129   3.830   4.435   3.453  0.4671 -0.1255 -0.0095
  429MOL0     C59130   3.215   4.332   3.076  0.4845 -0.7267 -1.2207
  429MOL0     C59131   3.112   4.366   2.992  0.2764  0.0784 -0.0911
  429MOL0     C59132   2.974   4.370   3.064  0.5850 -0.4389  0.0735
  429MOL0     H59133   2.780   4.475   2.612  2.2259  0.4602 -1.4658
  429MOL0     H59134   2.631   4.388   2.433  0.1176 -1.4228  0.2522
  429MOL0     H59135   2.760   4.076   2.142  0.4648  0.2154  0.1802
  429MOL0     H59136   2.854   4.179   2.249 -1.6550  2.8271  2.5855
  429MOL0     H59137   2.620   4.297   2.111 -0.4219 -2.5934  0.8917
  429MOL0     H59138   2.783   4.367   2.156 -0.2950 -0.4069  0.1989
  429MOL0     H59139   2.876   4.225   1.955 -0.5746  0.7111 -1.7388
  429MOL0     H59140   2.712   4.154   1.933  0.1030 -0.0158 -1.0813
  429MOL0     H59141   2.833   4.439   1.882 -1.1167  0.9908  2.5069
  429MOL0     H59142   2.777   4.309   1.771  1.4194 -1.7578  0.3880
  429MOL0     H59143   2.565   4.432   1.961 -0.0658 -0.8505 -0.2050
  429MOL0     H59144   2.538   4.354   1.811  0.5091 -0.3061  0.1406
  429MOL0     H59145   2.658   4.564   1.691  1.5109  2.1796  1.0196
  429MOL0     H59146   2.488   4.568   1.759  0.0147 -0.1256  0.7313
  429MOL0     H59147   2.748   4.663   1.891 -0.2247 -2.5655 -0.8634
  429MOL0     H59148   2.576   4.685   1.946 -1.6430 -1.1001 -0.8705
  429MOL0     H59149   2.545   4.800   1.712 -0.7945 -4.5855 -0.5398
  429MOL0     H59150   2.661   4.879   1.831  0.6769  1.4114 -2.0138
  429MOL0     H59151   2.936   4.818   1.760 -3.0697 -2.0398  2.5156
  429MOL0     H59152   3.139   4.813   1.568  0.0918  0.4345 -1.7201
  429MOL0     H59153   3.087   4.784   1.406 -2.0394 -0.4048 -0.0453
  429MOL0     H59154   3.200   4.603   1.491 -0.7549 -2.8025 -2.5042
  429MOL0     H59155   3.106   4.589   1.637 -1.3568  0.9083 -0.5420
  429MOL0     H59156   2.905   4.513   1.535 -0.0743  1.1226 -0.4952
  429MOL0     H59157   2.980   4.519   1.379 -1.2944 -1.8026 -0.4085
  429MOL0     H59158   3.116   4.370   1.620 -1.5024  2.4438  1.5496
  429MOL0     H59159   2.973   4.307   1.550  0.5246 -0.1070  1.7041
  429MOL0     H59160   3.289   4.238   1.243 -0.4641  0.0438  0.5136
  429MOL0     H59161   3.496   3.931   1.204 -0.5227 -1.1751 -2.2451
  429MOL0     H59162   3.453   4.101   1.157 -2.1051  0.5880 -1.7100
  429MOL0     H59163   3.349   3.974   1.108 -0.6693  0.5927  0.5194
  429MOL0     H59164   3.615   3.682   1.563  0.4190 -1.3470  2.0540
  429MOL0     H59165   3.737   3.464   1.546  0.3109 -1.7401 -3.0001
  429MOL0     H59166   3.485   3.141   1.327 -1.4434  1.1766  1.0206
  429MOL0     H59167   3.601   3.261   1.282 -1.4578 -0.9173 -1.3360
  429MOL0     H59168   3.698   3.007   1.414  0.2476  1.2959  1.2703
  429MOL0     H59169   3.654   2.996   1.245  1.7997 -1.2681  1.6213
  429MOL0     H59170   3.857   3.191   1.322 -3.0362  1.0032  0.0320
  429MOL0     H59171   3.836   3.109   1.159  5.1528 -3.2657 -0.5262
  429MOL0     H59172   3.892   2.894   1.261  2.3383 -1.0321  2.0470
  429MOL0     H59173   3.955   2.996   1.402 -2.7468  1.3320  1.1656
  429MOL0     H59174   4.028   3.008   1.096  0.0291  0.2632 -0.0912
  429MOL0     H59175   4.108   3.116   1.214 -0.3174  0.3479 -2.5261
  429MOL0     H59176   4.172   2.887   1.328 -2.3936 -2.5202 -0.0293
  429MOL0     H59177   4.258   2.967   1.190 -0.2707  2.0950  0.8294
  429MOL0     H59178   4.186   2.778   1.043 -2.3003 -1.7185 -0.6932
  429MOL0     H59179   4.051   2.748   1.157 -1.1737  3.4655 -0.2043
  429MOL0     H59180   4.347   2.682   1.221 -0.2905 -0.5467  1.0249
  429MOL0     H59181   4.233   2.564   1.148  4.0874  0.5438  0.5523
  429MOL0     H59182   3.349   3.284   1.473  1.3319  0.7957 -3.7750
  429MOL0     H59183   3.233   3.508   1.492  0.1768  0.3197  1.7324
  429MOL0     H59184   3.218   3.914   1.614  0.2711 -0.4413 -0.3221
  429MOL0     H59185   3.140   4.143   1.632 -1.3389 -1.2193 -0.7734
  429MOL0     H59186   2.771   3.988   2.464 -2.5859 -0.0622 -0.5026
  429MOL0     H59187   2.906   4.070   2.672 -0.9650  0.7005  0.5577
  429MOL0     H59188   3.281   4.350   2.701 -1.4614  1.2353 -0.5998
  429MOL0     H59189   3.467   4.301   2.855  0.2500  2.3093 -2.3614
  429MOL0     H59190   3.554   4.101   3.044  1.2478  0.3681 -1.2581
  429MOL0     H59191   3.613   4.270   3.020 -0.9278  0.4091  0.0067
  429MOL0     H59192   3.588   4.133   3.292  2.7082 -4.2126  0.0014
  429MOL0     H59193   3.613   4.303   3.263 -0.9723 -2.2636  2.0529
  429MOL0     H59194   3.800   4.087   3.171  0.4482  0.3108 -2.3937
  429MOL0     H59195   3.823   4.255   3.151  1.5988 -0.9290  0.6520
  429MOL0     H59196   3.949   4.173   3.334 -0.9323 -1.1563 -1.2232
  429MOL0     H59197   3.811   4.103   3.414 -0.0552 -1.7813 -3.9089
  429MOL0     H59198   3.824   4.529   3.504  0.2593 -0.3445  0.3724
  429MOL0     H59199   3.214   4.320   3.184 -0.0191  0.7866 -1.0343
  429MOL0     H59200   2.908   4.288   3.033  3.0406 -1.9527 -1.4606
  429MOL0     H59201   2.978   4.362   3.174  0.2056  0.9635  0.2055
  429MOL0     H59202   2.933   4.467   3.035  0.2738 -0.3029  0.9393
  430MOL0     O59203   0.130   8.196   0.886  0.6937  0.2899  0.7477
  430MOL0     C59204   0.188   8.091   0.915  0.6272 -0.6922  0.2189
  430MOL0     O59205   0.168   8.015   1.030  1.0368 -0.0207  0.0927
  430MOL0     C59206   0.127   8.073   1.146 -0.6392  1.1536 -0.3219
  430MOL0     C59207   0.027   7.996   1.208  0.3996  0.5000  0.0363
  430MOL0     C59208  -0.030   8.042   1.326  0.2934  0.7008  0.3902
  430MOL0     C59209   0.017   8.162   1.389 -0.1665  0.9091 -0.1137
  430MOL0     O59210  -0.021   8.209   1.514 -0.0728 -0.0576 -0.0331
  430MOL0     C59211  -0.060   8.102   1.606  0.4229 -0.9691  0.0753
  430MOL0     C59212  -0.108   8.158   1.740 -1.1329  1.0010  0.2441
  430MOL0     C59213  -0.160   8.042   1.821 -0.2436 -0.6153 -0.3366
  430MOL0     C59214  -0.301   7.996   1.780  0.4025 -0.0266 -0.1217
  430MOL0     C59215  -0.307   7.839   1.744  0.7492 -0.4518  0.2045
  430MOL0     C59216  -0.452   7.808   1.706 -0.3635 -0.2928  0.1901
  430MOL0     C59217  -0.471   7.667   1.667  0.0977 -0.1809  0.6013
  430MOL0     C59218  -0.616   7.607   1.644  0.9809  0.0209 -0.0261
  430MOL0     N59219  -0.698   7.691   1.562 -0.5722 -0.3309 -0.5688
  430MOL0     C59220  -0.689   7.682   1.427 -0.5241 -0.1255 -0.3693
  430MOL0     C59221  -0.801   7.749   1.395  0.1781  0.2026 -0.7394
  430MOL0     C59222  -0.843   7.768   1.253 -0.1258  0.2553 -0.2911
  430MOL0     C59223  -0.776   7.901   1.209  0.1027  0.1013 -0.3008
  430MOL0     C59224  -0.851   7.962   1.097  0.5589  0.3139  0.0222
  430MOL0     C59225  -0.764   8.073   1.059 -0.3180 -0.2205 -0.2601
  430MOL0     O59226  -0.813   8.162   0.957  0.1887 -1.2249  0.5956
  430MOL0     C59227  -0.711   8.234   0.895  0.1598  0.2968  0.0635
  430MOL0     C59228  -0.693   8.368   0.932 -0.2938 -0.3786 -0.4043
  430MOL0     C59229  -0.594   8.454   0.880  0.2341  0.0956 -0.6536
  430MOL0     C59230  -0.590   8.595   0.936 -0.1448 -0.8015 -0.5292
  430MOL0     C59231  -0.512   8.396   0.778 -0.1460 -0.4259 -0.2732
  430MOL0     C59232  -0.400   8.472   0.719 -0.9602 -0.5212 -0.0811
  430MOL0     O59233  -0.367   8.440   0.590  0.2569 -0.0791 -0.1732
  430MOL0     C59234  -0.242   8.471   0.554  0.3129  0.5418  0.1251
  430MOL0     C59235  -0.230   8.525   0.427 -0.5405 -0.1412 -0.9825
  430MOL0     C59236  -0.112   8.573   0.374  0.3744  0.5399  0.4877
  430MOL0     C59237   0.009   8.548   0.442 -0.7214  0.0943  0.2460
  430MOL0     O59238   0.121   8.602   0.391 -0.2132  0.2575  0.4732
  430MOL0     C59239   0.212   8.673   0.485 -0.7957  0.4296 -0.0076
  430MOL0     C59240   0.177   8.827   0.490  0.0609 -0.0113 -0.2475
  430MOL0     C59241   0.060   8.865   0.580 -0.6032  0.1130  0.2316
  430MOL0     C59242   0.030   9.014   0.573 -0.1739 -0.7952 -0.0271
  430MOL0     C59243  -0.084   9.040   0.672  0.1117  0.1897  0.7540
  430MOL0     C59244  -0.176   9.160   0.635 -0.3163  0.9530 -1.1237
  430MOL0     C59245  -0.250   9.147   0.498 -1.0049 -0.1080  0.0125
  430MOL0     C59246  -0.369   9.048   0.516  0.7990 -0.4769 -0.7176
  430MOL0    Cl59247  -0.350   8.898   0.425  0.2956 -0.8079 -0.1081
  430MOL0     C59248  -0.002   8.479   0.566 -0.6414  0.4870 -0.1104
  430MOL0     C59249  -0.124   8.453   0.626 -0.7710  0.2816 -0.3982
  430MOL0     O59250  -0.348   8.566   0.782  0.4000  0.3301 -0.3143
  430MOL0     C59251  -0.537   8.266   0.731 -0.2116  0.2396 -0.0836
  430MOL0     C59252  -0.632   8.176   0.792  0.0480 -0.0336  0.8450
  430MOL0     N59253  -0.872   7.787   1.510  0.3002 -0.4304 -0.0911
  430MOL0     N59254  -0.803   7.761   1.606  0.2968  0.4469 -0.6484
  430MOL0     C59255   0.121   8.227   1.336  0.3964  1.3462  0.9453
  430MOL0     C59256   0.174   8.182   1.215 -0.6297 -0.2298  0.3746
  430MOL0     C59257   0.290   8.038   0.811 -0.1483 -0.1515  0.1939
  430MOL0     C59258   0.365   7.924   0.840  0.1189  0.3718 -0.7552
  430MOL0     C59259   0.463   7.869   0.761  0.4625 -0.5723 -0.2693
  430MOL0     C59260   0.474   7.925   0.635  0.0292  0.6631 -0.3237
  430MOL0     O59261   0.568   7.864   0.545  1.0116  0.5439 -0.1743
  430MOL0     C59262   0.577   7.912   0.407  0.2866  0.2761  0.5921
  430MOL0     C59263   0.697   7.850   0.348 -1.0635 -0.8615  0.1009
  430MOL0     C59264   0.683   7.701   0.308  1.2617 -0.4914  0.1239
  430MOL0     C59265   0.819   7.643   0.258 -0.1051 -0.3450 -0.3419
  430MOL0     C59266   0.791   7.502   0.237 -1.0286 -0.6210  0.4231
  430MOL0     C59267   0.790   7.382   0.247 -0.3378  0.1749  0.3676
  430MOL0     C59268   0.388   8.020   0.593  0.3276  0.2986  0.5172
  430MOL0     C59269   0.293   8.082   0.675 -0.6351  1.0056  0.3911
  430MOL0     C59270   0.206   8.191   0.606  0.5434  0.0959 -1.1156
  430MOL0     H59271  -0.001   7.899   1.169 -1.3358  2.0426 -2.9203
  430MOL0     H59272  -0.108   7.977   1.366 -1.2201  2.9171  1.2421
  430MOL0     H59273   0.026   8.040   1.632 -0.9536 -2.1403  2.1612
  430MOL0     H59274  -0.143   8.045   1.563  1.2566 -2.3661  0.2650
  430MOL0     H59275  -0.022   8.208   1.785 -0.6000  0.2160  0.1120
  430MOL0     H59276  -0.190   8.229   1.725 -0.9357  1.2307  0.2455
  430MOL0     H59277  -0.086   7.961   1.830 -0.1957 -0.5819 -0.4115
  430MOL0     H59278  -0.162   8.085   1.922  2.7320  5.2676 -2.3234
  430MOL0     H59279  -0.369   8.011   1.864 -2.0056 -2.3760 -1.4935
  430MOL0     H59280  -0.347   8.049   1.696 -1.4027 -1.5785 -0.1775
  430MOL0     H59281  -0.268   7.785   1.831  0.9480 -1.3146 -0.4054
  430MOL0     H59282  -0.229   7.828   1.667  0.6898  1.1228 -0.1157
  430MOL0     H59283  -0.514   7.835   1.792 -2.2133  1.9957 -1.7215
  430MOL0     H59284  -0.483   7.873   1.624  3.3057  0.1756 -1.0325
  430MOL0     H59285  -0.430   7.602   1.745 -1.6905 -0.0078  1.7410
  430MOL0     H59286  -0.425   7.655   1.568 -1.2707 -0.5214 -0.0092
  430MOL0     H59287  -0.614   7.507   1.600  0.0418  0.4095 -1.0035
  430MOL0     H59288  -0.675   7.585   1.734 -0.4529 -0.0035 -0.9408
  430MOL0     H59289  -0.610   7.633   1.372  1.0813 -0.3903  2.0552
  430MOL0     H59290  -0.953   7.771   1.252 -0.1307  0.0862 -0.2400
  430MOL0     H59291  -0.803   7.693   1.185  0.3720 -1.4453  1.7984
  430MOL0     H59292  -0.770   7.967   1.296  2.2161  1.5383 -1.4392
  430MOL0     H59293  -0.672   7.873   1.191  1.1685  2.0055  2.2392
  430MOL0     H59294  -0.864   7.887   1.017  1.5073  0.3968 -0.2198
  430MOL0     H59295  -0.952   7.983   1.133 -2.6728 -3.5045 -5.2700
  430MOL0     H59296  -0.769   8.136   1.148  1.8663 -0.5769  0.1731
  430MOL0     H59297  -0.661   8.039   1.041 -0.5260 -1.2847  0.4644
  430MOL0     H59298  -0.752   8.410   1.013 -0.4824 -1.3791 -0.0085
  430MOL0     H59299  -0.490   8.611   0.979  0.4231  1.3918 -2.4336
  430MOL0     H59300  -0.665   8.623   1.010  2.1441 -1.4306  2.2175
  430MOL0     H59301  -0.595   8.672   0.858 -0.9666  0.3606  0.6372
  430MOL0     H59302  -0.318   8.545   0.367  1.5242 -1.5045 -4.7830
  430MOL0     H59303  -0.119   8.605   0.270 -1.5657  1.3221  0.8258
  430MOL0     H59304   0.224   8.629   0.584  4.4179  0.4337 -0.3628
  430MOL0     H59305   0.308   8.665   0.433 -2.1170 -3.5340 -2.2803
  430MOL0     H59306   0.258   8.890   0.530 -1.0159  0.4200  1.3553
  430MOL0     H59307   0.156   8.850   0.385 -0.8148 -0.4674 -0.1793
  430MOL0     H59308   0.089   8.834   0.681 -3.7604 -1.3642  0.7980
  430MOL0     H59309  -0.028   8.807   0.552  1.2079 -3.4603  1.2795
  430MOL0     H59310   0.009   9.042   0.470  1.3340 -1.1982 -0.4766
  430MOL0     H59311   0.114   9.076   0.606 -1.4705  0.0415  1.9147
  430MOL0     H59312  -0.148   8.953   0.687  0.5837  0.2295  3.7937
  430MOL0     H59313  -0.039   9.054   0.771  2.3597  0.4720 -0.2331
  430MOL0     H59314  -0.107   9.244   0.625  2.5152 -0.6456  2.7141
  430MOL0     H59315  -0.246   9.179   0.717  1.6306 -4.6151  2.4103
  430MOL0     H59316  -0.178   9.126   0.418 -0.4002  1.2793  0.1528
  430MOL0     H59317  -0.295   9.245   0.478  0.4609  0.4799 -0.5538
  430MOL0     H59318  -0.466   9.090   0.489 -2.2477 -3.1407  4.3217
  430MOL0     H59319  -0.388   9.012   0.618 -2.6064 -1.2103 -1.4871
  430MOL0     H59320   0.088   8.452   0.621 -0.3982  0.7701 -0.3630
  430MOL0     H59321  -0.126   8.406   0.724 -3.1073 -2.5639 -1.6627
  430MOL0     H59322  -0.472   8.225   0.655 -2.2821 -2.3440 -0.5703
  430MOL0     H59323  -0.646   8.074   0.755 -1.5732  1.2169 -2.3969
  430MOL0     H59324   0.168   8.308   1.391  4.1597 -0.9618  1.4406
  430MOL0     H59325   0.258   8.237   1.174 -0.0915  1.6418  3.6244
  430MOL0     H59326   0.351   7.882   0.939  0.7852 -0.2324 -0.9038
  430MOL0     H59327   0.529   7.783   0.758  0.3402 -0.7533 -4.4750
  430MOL0     H59328   0.492   7.892   0.341  2.8455  0.0279 -2.8825
  430MOL0     H59329   0.585   8.021   0.403 -0.4255  0.2842 -1.4703
  430MOL0     H59330   0.777   7.872   0.420 -1.5942 -2.4442  1.2338
  430MOL0     H59331   0.718   7.905   0.256 -4.0408  0.5479  0.1327
  430MOL0     H59332   0.649   7.651   0.400  0.4068  1.7295  1.0787
  430MOL0     H59333   0.613   7.704   0.224  0.7546  3.4322  0.4944
  430MOL0     H59334   0.900   7.643   0.332 -2.7772 -4.3259  3.0315
  430MOL0     H59335   0.853   7.694   0.167 -1.4008  2.5468  0.6776
  430MOL0     H59336   0.786   7.278   0.273 -0.4497 -0.0677 -0.5664
  430MOL0     H59337   0.383   8.059   0.491  1.7062 -1.2068 -0.1691
  430MOL0     H59338   0.218   8.205   0.498  1.3937  2.1367 -0.7978
  430MOL0     H59339   0.100   8.164   0.616  0.8136 -0.6945 -0.2606
  430MOL0     H59340   0.215   8.288   0.657  0.4783  0.1063 -1.1237
  431MOL0     O59341  10.620   0.503   2.990 -0.2456 -0.4554 -0.2610
  431MOL0     C59342  10.534   0.434   2.938 -0.8971  0.2142 -0.6050
  431MOL0     O59343  10.435   0.374   3.005  0.2400 -0.7741  0.0192
  431MOL0     C59344  10.405   0.402   3.137 -0.2373  0.1522 -0.0138
  431MOL0     C59345  10.378   0.538   3.179  0.1069  0.0915  0.4889
  431MOL0     C59346  10.351   0.562   3.316 -0.5565 -0.0679  0.7012
  431MOL0     C59347  10.344   0.463   3.407  0.5430  0.2678  0.8970
  431MOL0     O59348  10.340   0.505   3.540  0.8283 -0.0666  0.4409
  431MOL0     C59349  10.312   0.405   3.644  0.0176 -1.2188 -0.4074
  431MOL0     C59350  10.441   0.356   3.706 -0.1624  0.6616  0.0412
  431MOL0     C59351  10.426   0.261   3.833  0.7235  0.3572  0.0576
  431MOL0     C59352  10.312   0.166   3.804  0.1534  1.2633  0.2941
  431MOL0     C59353  10.325   0.053   3.913  0.2266  0.5161  0.5898
  431MOL0     C59354  10.193  -0.034   3.911  0.3988  1.3070  0.0086
  431MOL0     C59355  10.172  -0.140   3.799  0.4684  0.2836 -0.1446
  431MOL0     C59356  10.055  -0.232   3.821 -0.2204 -0.4618 -0.4861
  431MOL0     N59357   9.994  -0.293   3.709  0.9331  0.0529  0.4611
  431MOL0     C59358   9.884  -0.235   3.645 -0.9239  1.3029 -0.9087
  431MOL0     C59359   9.879  -0.274   3.518  0.1746  0.7055  0.9211
  431MOL0     C59360   9.775  -0.240   3.411  0.3711  0.3643  0.6053
  431MOL0     C59361   9.815  -0.130   3.309 -1.3229 -0.0356  0.0817
  431MOL0     C59362   9.842  -0.005   3.403 -0.7267 -0.7150  0.1132
  431MOL0     C59363   9.933   0.087   3.321  0.2714 -0.1845 -0.3527
  431MOL0     O59364   9.875   0.123   3.190 -0.2709  0.5093  0.0160
  431MOL0     C59365   9.931   0.225   3.116 -0.8220  0.1962 -0.2719
  431MOL0     C59366   9.897   0.221   2.976  0.0796  0.6512 -0.0421
  431MOL0     C59367   9.935   0.321   2.888  0.0921 -1.2151 -1.1415
  431MOL0     C59368   9.897   0.302   2.741  0.4321 -0.4048  0.2025
  431MOL0     C59369  10.015   0.428   2.944 -0.4677 -0.5886 -1.0433
  431MOL0     C59370  10.069   0.547   2.863  0.0628  1.1174 -0.3650
  431MOL0     O59371  10.040   0.670   2.928  0.4490  0.2784  0.4145
  431MOL0     C59372  10.126   0.770   2.903 -0.0733  0.5431 -1.0637
  431MOL0     C59373  10.078   0.900   2.877  0.3544  0.2020  0.7085
  431MOL0     C59374  10.162   1.012   2.844  0.3492  0.1320  0.0271
  431MOL0     C59375  10.297   0.992   2.839 -1.1507 -0.8196 -0.6445
  431MOL0     O59376  10.381   1.091   2.809 -0.4337 -0.5651  0.1713
  431MOL0     C59377  10.437   1.144   2.931  0.2269  0.1921  0.8315
  431MOL0     C59378  10.521   1.266   2.898  0.0862 -0.1633 -0.8856
  431MOL0     C59379  10.440   1.366   2.812 -1.0649  1.0816  0.1264
  431MOL0     C59380  10.312   1.412   2.871 -0.3080  0.2049 -0.8042
  431MOL0     C59381  10.253   1.544   2.810 -0.9365  0.3915 -0.2924
  431MOL0     C59382  10.270   1.546   2.653  0.8161  0.9047 -0.0487
  431MOL0     C59383  10.193   1.653   2.571  0.7002  0.0201 -0.5051
  431MOL0     C59384  10.219   1.651   2.426  1.3898  0.4537  0.7341
  431MOL0    Cl59385  10.393   1.671   2.381 -0.3286  0.1549 -0.0356
  431MOL0     C59386  10.354   0.862   2.855  0.0162  0.4613 -1.1114
  431MOL0     C59387  10.266   0.756   2.891 -0.3677 -0.1723  0.3763
  431MOL0     O59388  10.129   0.524   2.760 -0.2241  0.2419 -0.6990
  431MOL0     C59389  10.057   0.424   3.079  1.1588 -0.1376  1.2091
  431MOL0     C59390  10.019   0.320   3.157  0.2191  1.0055 -0.7123
  431MOL0     N59391   9.978  -0.371   3.514 -0.6218  0.6604 -1.0711
  431MOL0     N59392  10.044  -0.387   3.626 -0.1067 -0.5898  0.5896
  431MOL0     C59393  10.344   0.326   3.364 -0.5938  0.0351  0.2904
  431MOL0     C59394  10.382   0.294   3.229  0.1414 -0.2293 -0.2257
  431MOL0     C59395  10.543   0.396   2.792  0.3046 -0.2470 -0.4632
  431MOL0     C59396  10.422   0.368   2.718 -0.1798  0.6512  0.5746
  431MOL0     C59397  10.434   0.360   2.580  0.2858 -1.0260 -0.5060
  431MOL0     C59398  10.562   0.373   2.523  0.3295  0.6333 -0.3277
  431MOL0     O59399  10.599   0.371   2.389 -0.0989 -0.5592  0.2103
  431MOL0     C59400  10.495   0.406   2.302  0.4416 -0.4852 -0.4064
  431MOL0     C59401  10.566   0.403   2.163 -0.1006 -0.7406 -0.1757
  431MOL0     C59402  10.618   0.539   2.106  0.1791  0.9911 -0.1041
  431MOL0     C59403  10.711   0.494   1.984 -1.1031  0.0249  0.2651
  431MOL0     C59404  10.773   0.619   1.935  0.2153  0.8018 -1.4044
  431MOL0     C59405  10.832   0.721   1.906 -0.4263  0.7971 -0.7888
  431MOL0     C59406  10.679   0.381   2.602 -0.0152 -1.3092 -0.9084
  431MOL0     C59407  10.675   0.390   2.736  0.7197 -0.6157 -0.1966
  431MOL0     C59408  10.816   0.392   2.812  0.5085 -0.0822 -0.9634
  431MOL0     H59409  10.372   0.617   3.105  2.1947  0.0271  0.1915
  431MOL0     H59410  10.310   0.658   3.345 -0.9987 -0.0497  0.0473
  431MOL0     H59411  10.236   0.331   3.615  0.3302 -0.2391 -4.3441
  431MOL0     H59412  10.267   0.457   3.729  1.2950  0.2738 -0.6136
  431MOL0     H59413  10.509   0.307   3.637 -2.2290  0.5783 -2.0752
  431MOL0     H59414  10.486   0.449   3.743  1.7887 -0.7176  1.2510
  431MOL0     H59415  10.508   0.194   3.860 -2.3509 -2.5364  3.5356
  431MOL0     H59416  10.409   0.313   3.928 -0.3125  0.3552 -0.1094
  431MOL0     H59417  10.225   0.232   3.811  0.3319  1.6662 -1.0029
  431MOL0     H59418  10.324   0.127   3.703 -0.3198 -2.1238  1.3916
  431MOL0     H59419  10.345   0.102   4.009  2.8698 -0.2402  0.5224
  431MOL0     H59420  10.411  -0.010   3.887  0.8000  1.8693 -1.0355
  431MOL0     H59421  10.197  -0.083   4.009 -1.9668  1.2001  0.1103
  431MOL0     H59422  10.102   0.026   3.928 -1.4414 -1.8218  2.2789
  431MOL0     H59423  10.260  -0.200   3.775 -0.1935 -0.5586 -0.5206
  431MOL0     H59424  10.150  -0.086   3.707  1.0047 -0.1092 -0.5118
  431MOL0     H59425  10.093  -0.312   3.885  0.9563  0.9326  0.6242
  431MOL0     H59426   9.974  -0.177   3.869  0.4559  0.6676 -0.6110
  431MOL0     H59427   9.814  -0.178   3.706 -0.0536  0.1831  1.2354
  431MOL0     H59428   9.688  -0.219   3.473 -0.8305  1.5140 -1.3685
  431MOL0     H59429   9.745  -0.328   3.355 -0.7683 -0.5112  2.5021
  431MOL0     H59430   9.905  -0.168   3.260 -0.5847  2.2797 -0.4989
  431MOL0     H59431   9.737  -0.108   3.235  0.0941  0.6015 -1.2783
  431MOL0     H59432   9.742   0.035   3.422 -1.3184 -0.8303 -2.3929
  431MOL0     H59433   9.893  -0.026   3.498 -2.7218  1.6418  1.8618
  431MOL0     H59434   9.951   0.177   3.380  2.2315 -1.7272  1.5392
  431MOL0     H59435  10.025   0.029   3.310  0.5037  0.3529 -1.4898
  431MOL0     H59436   9.840   0.135   2.941  1.0899  1.0995 -3.0820
  431MOL0     H59437   9.946   0.210   2.707  1.6792 -1.1281  3.5334
  431MOL0     H59438   9.908   0.395   2.684 -2.0511 -0.4024 -0.3961
  431MOL0     H59439   9.790   0.293   2.716  0.2980  2.0593 -0.3555
  431MOL0     H59440   9.970   0.898   2.862  0.7587 -1.7725 -3.3800
  431MOL0     H59441  10.121   1.109   2.817  1.2055  0.5312  0.1154
  431MOL0     H59442  10.362   1.162   3.009 -0.5548 -1.5989  0.5314
  431MOL0     H59443  10.506   1.066   2.962 -0.4341 -1.0811 -0.7854
  431MOL0     H59444  10.551   1.324   2.986  0.6652 -1.0676 -0.4639
  431MOL0     H59445  10.606   1.228   2.841  0.4873 -1.1145  0.2948
  431MOL0     H59446  10.416   1.329   2.712 -0.0043  2.0025 -0.4852
  431MOL0     H59447  10.507   1.450   2.792  2.3819 -1.8958 -2.1936
  431MOL0     H59448  10.325   1.421   2.980 -0.9518 -3.4867 -0.3160
  431MOL0     H59449  10.240   1.330   2.869 -0.5243  0.3931 -0.8242
  431MOL0     H59450  10.149   1.563   2.839 -1.1032  2.1063 -1.7992
  431MOL0     H59451  10.313   1.624   2.855 -1.4847 -0.4121  1.9883
  431MOL0     H59452  10.223   1.452   2.622 -2.6529  2.3227  0.3813
  431MOL0     H59453  10.372   1.553   2.616  2.5369  0.0434  3.9815
  431MOL0     H59454  10.215   1.756   2.599  3.1063 -0.5901  0.1041
  431MOL0     H59455  10.086   1.631   2.580  0.5117  1.5230  1.5920
  431MOL0     H59456  10.164   1.729   2.373 -0.3866 -1.2580 -0.0676
  431MOL0     H59457  10.175   1.559   2.387  2.9166 -0.4862  1.1567
  431MOL0     H59458  10.462   0.852   2.845  0.5628  1.3905  2.5079
  431MOL0     H59459  10.301   0.653   2.896 -0.4399 -0.4101 -2.6238
  431MOL0     H59460  10.121   0.501   3.122 -0.4643  0.6050  2.3784
  431MOL0     H59461  10.069   0.319   3.254  3.7256 -1.2126 -2.3480
  431MOL0     H59462  10.335   0.240   3.429 -2.4685  0.1643  0.2399
  431MOL0     H59463  10.379   0.191   3.194 -1.9290 -0.5268  0.7120
  431MOL0     H59464  10.320   0.376   2.753 -0.5877  0.8064 -0.6108
  431MOL0     H59465  10.347   0.348   2.517  2.1656  0.6788 -3.6687
  431MOL0     H59466  10.421   0.325   2.300  3.1023 -3.1029 -0.4213
  431MOL0     H59467  10.449   0.504   2.317  2.1335  0.4180 -0.9280
  431MOL0     H59468  10.500   0.355   2.090  0.1330 -0.4994 -0.5519
  431MOL0     H59469  10.655   0.340   2.156  1.2781  0.9655  1.1247
  431MOL0     H59470  10.536   0.601   2.070  1.0706  0.8508 -2.5718
  431MOL0     H59471  10.672   0.596   2.183 -0.1352  0.5492  0.4520
  431MOL0     H59472  10.673   0.436   1.899  2.6479 -3.0440  0.4194
  431MOL0     H59473  10.797   0.441   2.026 -0.6559 -1.1430 -2.0117
  431MOL0     H59474  10.875   0.816   1.882 -0.8902  1.1039 -0.4172
  431MOL0     H59475  10.775   0.375   2.551 -0.0578  0.6534 -1.2921
  431MOL0     H59476  10.900   0.352   2.753  3.0460  2.1234  0.9029
  431MOL0     H59477  10.839   0.496   2.836 -2.0615  0.1488  0.8835
  431MOL0     H59478  10.806   0.333   2.904 -0.6459 -2.0506 -2.2783
  432MOL0     O59479   6.078   0.657   2.333  0.2116  0.2874  0.1902
  432MOL0     C59480   6.037   0.761   2.278 -0.6255  0.6392 -0.4853
  432MOL0     O59481   5.926   0.772   2.196 -0.3219  0.4783  0.1537
  432MOL0     C59482   5.846   0.672   2.156  0.8510 -0.6424 -0.5997
  432MOL0     C59483   5.828   0.667   2.016  0.7946  0.3158  0.5426
  432MOL0     C59484   5.734   0.580   1.956 -0.1842  0.1090 -0.4873
  432MOL0     C59485   5.674   0.478   2.035  0.2500  0.0102 -0.6067
  432MOL0     O59486   5.588   0.385   1.986  0.1801 -0.0479  0.0151
  432MOL0     C59487   5.510   0.438   1.882  0.1994  0.0495  0.0210
  432MOL0     C59488   5.379   0.354   1.865 -0.3055 -0.5071  0.6760
  432MOL0     C59489   5.398   0.205   1.863  0.7916 -0.1337  0.0010
  432MOL0     C59490   5.275   0.137   1.790 -0.4170  0.1243  0.3285
  432MOL0     C59491   5.300   0.117   1.635  0.4624  2.2624  0.4815
  432MOL0     C59492   5.164   0.096   1.565 -0.6838 -0.1871 -0.1936
  432MOL0     C59493   5.093  -0.043   1.601 -0.3128 -0.7060  0.8360
  432MOL0     C59494   5.194  -0.156   1.613  0.6415  0.0478  0.0292
  432MOL0     N59495   5.275  -0.195   1.498 -0.2677  0.0979  0.1269
  432MOL0     C59496   5.247  -0.170   1.371  0.1133 -0.5837 -0.2319
  432MOL0     C59497   5.343  -0.234   1.299 -0.4138 -0.5818  0.0726
  432MOL0     C59498   5.364  -0.230   1.156 -0.2515  0.0702  0.2546
  432MOL0     C59499   5.343  -0.093   1.088 -0.2711  0.4858  0.7049
  432MOL0     C59500   5.444   0.014   1.152 -0.4134  0.7270 -0.3161
  432MOL0     C59501   5.489   0.130   1.068  0.3677 -0.1675  1.0116
  432MOL0     O59502   5.590   0.208   1.127  0.7175  0.2049 -0.0366
  432MOL0     C59503   5.654   0.311   1.064  1.1499  0.1098 -1.4004
  432MOL0     C59504   5.619   0.373   0.939  0.6572  0.4864  1.0408
  432MOL0     C59505   5.708   0.474   0.883  0.3579  0.3135  0.5859
  432MOL0     C59506   5.663   0.534   0.747 -0.4589  0.1905 -0.3330
  432MOL0     C59507   5.819   0.518   0.961  0.9611  0.4636  0.2248
  432MOL0     C59508   5.917   0.613   0.914 -0.1678 -0.5160 -0.0013
  432MOL0     O59509   5.978   0.592   0.797 -0.4418  0.5600  0.0611
  432MOL0     C59510   6.118   0.629   0.796  0.2640  0.1995  0.1238
  432MOL0     C59511   6.160   0.758   0.771  0.4095 -0.0769  0.7079
  432MOL0     C59512   6.297   0.786   0.754  0.1402  0.4777  0.2866
  432MOL0     C59513   6.397   0.689   0.773  0.5559 -0.5450  0.3974
  432MOL0     O59514   6.530   0.729   0.758 -0.2067 -1.0496 -0.5869
  432MOL0     C59515   6.613   0.616   0.745 -0.5542  1.4673  0.2093
  432MOL0     C59516   6.751   0.657   0.696 -0.4693 -0.6526 -0.2680
  432MOL0     C59517   6.833   0.760   0.774 -0.2862 -0.5630 -0.3220
  432MOL0     C59518   6.901   0.687   0.898  1.0694  0.1312  0.1621
  432MOL0     C59519   6.962   0.777   1.008 -0.4125 -0.1572  0.4624
  432MOL0     C59520   7.086   0.844   0.947  0.7072  0.3473 -0.7539
  432MOL0     C59521   7.150   0.942   1.052 -0.2958 -0.0859  0.5925
  432MOL0     C59522   7.268   1.010   0.984  0.2237  0.4062 -0.5119
  432MOL0    Cl59523   7.212   1.164   0.907 -0.5069 -0.4983 -0.0392
  432MOL0     C59524   6.349   0.558   0.814  0.4869 -0.4499  0.0118
  432MOL0     C59525   6.208   0.528   0.827 -0.9953  0.2354  0.5641
  432MOL0     O59526   5.941   0.706   1.000 -0.4257 -0.4085  0.1868
  432MOL0     C59527   5.847   0.459   1.083  0.0406 -0.2251  0.4810
  432MOL0     C59528   5.771   0.352   1.134 -0.5498  0.5202  0.5255
  432MOL0     N59529   5.425  -0.296   1.396 -0.3755  0.0813  0.5190
  432MOL0     N59530   5.391  -0.263   1.516 -0.3230  0.2490 -0.3118
  432MOL0     C59531   5.695   0.480   2.179  0.6359 -0.1982 -0.0061
  432MOL0     C59532   5.783   0.574   2.241 -0.4026 -0.2505 -0.4691
  432MOL0     C59533   6.122   0.880   2.304  0.5715  0.5011  0.0783
  432MOL0     C59534   6.061   0.991   2.256  0.2796 -0.7535 -0.5257
  432MOL0     C59535   6.111   1.120   2.284  0.0795 -0.4348  0.0112
  432MOL0     C59536   6.238   1.128   2.347 -0.2853 -0.1350 -0.0698
  432MOL0     O59537   6.309   1.246   2.371  0.1592  0.5069  0.6695
  432MOL0     C59538   6.384   1.289   2.256  0.5561  0.9297  0.1212
  432MOL0     C59539   6.371   1.437   2.235  0.1768  0.0075 -0.4906
  432MOL0     C59540   6.402   1.526   2.359  0.2678 -0.6505 -0.3431
  432MOL0     C59541   6.558   1.526   2.387  0.6236 -0.1742 -1.1537
  432MOL0     C59542   6.581   1.579   2.520 -0.7796 -1.5632 -0.4845
  432MOL0     C59543   6.597   1.604   2.639  0.7198 -0.1543 -0.0411
  432MOL0     C59544   6.304   1.017   2.385 -0.0088  0.7707  0.7711
  432MOL0     C59545   6.249   0.887   2.362 -0.0330 -1.1576  0.4537
  432MOL0     C59546   6.329   0.775   2.421  0.4428  0.0225  0.3226
  432MOL0     H59547   5.887   0.739   1.959  0.4800  0.8889  0.9287
  432MOL0     H59548   5.743   0.568   1.849 -0.2126 -2.0243 -0.2924
  432MOL0     H59549   5.565   0.435   1.787  1.8488  0.9118  0.9051
  432MOL0     H59550   5.472   0.536   1.911 -0.4364 -0.8094  2.3205
  432MOL0     H59551   5.309   0.378   1.945 -2.1927 -0.8722 -0.7893
  432MOL0     H59552   5.329   0.393   1.776  1.2133 -0.4561 -0.2007
  432MOL0     H59553   5.498   0.177   1.830  1.0760 -0.4049  1.0315
  432MOL0     H59554   5.413   0.173   1.967  5.0437  2.3475  0.3810
  432MOL0     H59555   5.256   0.042   1.842  2.6165 -0.8373 -0.1192
  432MOL0     H59556   5.186   0.200   1.785 -1.3005 -1.1691 -1.8051
  432MOL0     H59557   5.361   0.028   1.621 -1.2703  1.0406  0.4290
  432MOL0     H59558   5.361   0.199   1.596  4.8613 -0.4624  0.9699
  432MOL0     H59559   5.102   0.181   1.595 -1.1566 -1.6615  3.5766
  432MOL0     H59560   5.177   0.103   1.457 -2.7144 -0.0791 -0.4848
  432MOL0     H59561   5.023  -0.070   1.521 -1.8365 -1.2969  2.3332
  432MOL0     H59562   5.032  -0.022   1.689 -1.5916 -0.4485 -0.0873
  432MOL0     H59563   5.249  -0.133   1.705 -0.4646 -0.0923  0.7381
  432MOL0     H59564   5.137  -0.249   1.625  0.9074 -0.4533 -2.2072
  432MOL0     H59565   5.162  -0.107   1.346  0.7096  0.9136  1.3400
  432MOL0     H59566   5.313  -0.308   1.100 -0.1468  0.6540 -0.6886
  432MOL0     H59567   5.472  -0.245   1.148 -0.5869 -3.4700  0.9099
  432MOL0     H59568   5.355  -0.093   0.980  0.5826  2.7118  0.7516
  432MOL0     H59569   5.245  -0.050   1.111 -0.7296  0.6889 -1.4204
  432MOL0     H59570   5.399   0.063   1.239 -2.4149 -0.4302 -0.6498
  432MOL0     H59571   5.537  -0.036   1.181 -0.5149 -0.0740 -1.3117
  432MOL0     H59572   5.528   0.079   0.980 -0.2952  2.6410 -1.0608
  432MOL0     H59573   5.397   0.179   1.033  0.2452 -3.5046 -4.6497
  432MOL0     H59574   5.524   0.342   0.897  1.2848  1.2840 -1.1185
  432MOL0     H59575   5.758   0.556   0.698 -0.4078  0.9712  0.0965
  432MOL0     H59576   5.590   0.616   0.751  0.0257  0.5942  2.3213
  432MOL0     H59577   5.620   0.454   0.685  1.1318 -0.0843 -1.1259
  432MOL0     H59578   6.085   0.832   0.747  1.9979  1.2493 -0.3805
  432MOL0     H59579   6.325   0.890   0.737 -0.9024  0.4861 -1.6180
  432MOL0     H59580   6.627   0.546   0.828 -0.6169  1.9810  0.6528
  432MOL0     H59581   6.579   0.550   0.664  2.2260  3.6487 -3.0464
  432MOL0     H59582   6.813   0.570   0.676 -2.6169 -1.8696 -2.0989
  432MOL0     H59583   6.730   0.705   0.599  0.8129 -1.0771 -0.7734
  432MOL0     H59584   6.777   0.852   0.793 -1.8329 -1.7743  1.2690
  432MOL0     H59585   6.917   0.780   0.707 -0.6368 -2.9272 -1.5608
  432MOL0     H59586   6.972   0.616   0.856  0.0280 -1.5703  1.1539
  432MOL0     H59587   6.824   0.630   0.951  0.0489  2.3896  1.2658
  432MOL0     H59588   6.889   0.854   1.035 -2.0126 -0.8296 -1.7432
  432MOL0     H59589   6.985   0.715   1.095  3.5762  0.5826  0.1188
  432MOL0     H59590   7.048   0.908   0.867  0.3544  0.3586 -0.5788
  432MOL0     H59591   7.159   0.767   0.920  1.5764 -0.4009  3.1948
  432MOL0     H59592   7.195   0.892   1.138  2.3945  1.5248  0.2131
  432MOL0     H59593   7.078   1.013   1.094 -0.7629 -0.4987  0.5118
  432MOL0     H59594   7.314   0.941   0.914 -0.7164 -0.9110  0.1205
  432MOL0     H59595   7.344   1.039   1.057  2.4778 -2.2148 -1.6634
  432MOL0     H59596   6.408   0.478   0.856  0.5592 -0.8291 -0.7853
  432MOL0     H59597   6.165   0.430   0.845 -3.1952  0.9980 -0.1505
  432MOL0     H59598   5.935   0.488   1.139 -1.5090  3.5502  1.2520
  432MOL0     H59599   5.804   0.307   1.227  2.8097  2.2032  0.3021
  432MOL0     H59600   5.660   0.396   2.238  1.3546 -0.2408  0.3701
  432MOL0     H59601   5.820   0.567   2.343 -4.1822  0.3601  1.1473
  432MOL0     H59602   5.969   0.983   2.200  1.3996 -3.7909 -2.1631
  432MOL0     H59603   6.062   1.210   2.250  0.6128 -0.2807 -0.3670
  432MOL0     H59604   6.491   1.281   2.280  0.3172  1.1073  1.2815
  432MOL0     H59605   6.357   1.221   2.175 -1.6579 -1.0109  2.3020
  432MOL0     H59606   6.269   1.450   2.198 -0.8509 -2.6280  1.1459
  432MOL0     H59607   6.435   1.456   2.148 -0.0158  0.2952 -0.5691
  432MOL0     H59608   6.371   1.630   2.343  1.8358 -0.4456 -2.6170
  432MOL0     H59609   6.341   1.496   2.445 -1.8534  1.6685 -0.9275
  432MOL0     H59610   6.604   1.593   2.314  1.3824 -1.6214 -2.0551
  432MOL0     H59611   6.599   1.425   2.388  2.1454  0.3539  2.1802
  432MOL0     H59612   6.611   1.614   2.745 -0.0143 -1.5990  0.2254
  432MOL0     H59613   6.404   1.031   2.426  0.9123  2.9003 -1.8630
  432MOL0     H59614   6.416   0.816   2.473  1.6425 -0.6393 -1.0963
  432MOL0     H59615   6.272   0.720   2.497 -1.7483  3.6714  1.5710
  432MOL0     H59616   6.354   0.715   2.334 -1.8954 -0.0906 -0.3469
  433MOL0     O59617   8.856   0.113   8.681 -0.4673 -0.4186 -0.9140
  433MOL0     C59618   8.737   0.099   8.714 -0.1123  0.7186 -0.4838
  433MOL0     O59619   8.660   0.204   8.749 -0.4794 -0.4472  0.5330
  433MOL0     C59620   8.699   0.332   8.730 -0.3586  0.2043 -0.3262
  433MOL0     C59621   8.696   0.388   8.600  0.2887 -0.0539 -0.9580
  433MOL0     C59622   8.759   0.507   8.574 -0.4256  0.8284 -0.1943
  433MOL0     C59623   8.801   0.593   8.676  0.3430  0.0713  0.2951
  433MOL0     O59624   8.861   0.711   8.636 -1.5309  0.5333  0.0967
  433MOL0     C59625   8.950   0.771   8.728 -0.5917 -0.5167  0.1542
  433MOL0     C59626   9.038   0.866   8.654 -0.9050 -0.0304 -0.8706
  433MOL0     C59627   9.137   0.791   8.567 -0.0484 -0.0954 -0.2134
  433MOL0     C59628   9.236   0.891   8.510  1.0503  0.9540  0.2159
  433MOL0     C59629   9.332   0.821   8.420 -0.2737 -0.7126  0.0034
  433MOL0     C59630   9.425   0.915   8.340  0.3541 -0.4107  0.3085
  433MOL0     C59631   9.497   0.840   8.224 -0.2091  0.3317 -0.0765
  433MOL0     C59632   9.600   0.754   8.282  0.1766  0.5100 -0.7349
  433MOL0     N59633   9.719   0.731   8.194  0.8915  0.7119 -0.0540
  433MOL0     C59634   9.713   0.648   8.086  0.2433  0.1289 -0.2130
  433MOL0     C59635   9.827   0.675   8.007  0.0025 -0.2428  0.0207
  433MOL0     C59636   9.850   0.634   7.864 -0.1644 -0.0383  0.2537
  433MOL0     C59637   9.731   0.669   7.773 -0.2352 -0.6591 -0.2333
  433MOL0     C59638   9.679   0.815   7.799 -0.4164 -0.1494  0.4981
  433MOL0     C59639   9.787   0.914   7.749 -1.3087  0.2363  0.7043
  433MOL0     O59640   9.746   1.045   7.725  0.0308 -0.4995  0.2654
  433MOL0     C59641   9.717   1.123   7.834 -1.6607  0.1096 -0.3350
  433MOL0     C59642   9.769   1.103   7.968 -0.2883  1.4586  0.2613
  433MOL0     C59643   9.743   1.190   8.072 -0.4211 -0.5523  0.1783
  433MOL0     C59644   9.804   1.152   8.202 -0.8244  0.1432  0.3691
  433MOL0     C59645   9.668   1.305   8.051 -0.6566  0.1742  0.2685
  433MOL0     C59646   9.631   1.398   8.163 -0.9420 -0.0067 -1.0620
  433MOL0     O59647   9.633   1.361   8.297 -0.5083  0.7598 -0.1217
  433MOL0     C59648   9.607   1.452   8.392 -0.4738  0.0936  0.4158
  433MOL0     C59649   9.485   1.467   8.454  0.7072  0.0782 -0.1756
  433MOL0     C59650   9.453   1.575   8.536 -0.5015 -0.8824 -0.1535
  433MOL0     C59651   9.547   1.674   8.562  0.4259  0.0745 -0.7647
  433MOL0     O59652   9.506   1.778   8.647  0.2632 -0.0322 -0.9363
  433MOL0     C59653   9.601   1.838   8.735 -0.6829  0.8201 -0.7156
  433MOL0     C59654   9.645   1.739   8.853 -0.0110  0.7544 -0.5433
  433MOL0     C59655   9.516   1.688   8.924 -0.4509 -1.1949  0.5397
  433MOL0     C59656   9.458   1.790   9.029  0.4521 -0.5721 -0.4177
  433MOL0     C59657   9.301   1.791   9.043  0.1170  0.8478  0.3733
  433MOL0     C59658   9.237   1.832   8.911  0.5825  1.0746  0.5920
  433MOL0     C59659   9.092   1.886   8.924 -0.9931  0.8982  1.1170
  433MOL0     C59660   9.009   1.896   8.801  0.7936  0.9474  0.4086
  433MOL0    Cl59661   9.005   1.754   8.690 -0.2699 -0.2668 -0.0615
  433MOL0     C59662   9.674   1.658   8.513 -0.0140  0.1956  0.1059
  433MOL0     C59663   9.706   1.552   8.424  0.4511  0.3968 -0.3776
  433MOL0     O59664   9.584   1.503   8.129  0.2417  0.4026  0.2652
  433MOL0     C59665   9.611   1.324   7.924  0.4637  0.2103  0.0778
  433MOL0     C59666   9.645   1.239   7.815  1.6116 -0.4344 -0.1440
  433MOL0     N59667   9.891   0.778   8.082  0.8415  0.5607  1.5097
  433MOL0     N59668   9.824   0.814   8.195  0.4094 -0.8332  0.1532
  433MOL0     C59669   8.790   0.548   8.806 -0.2185 -0.2032 -0.7454
  433MOL0     C59670   8.746   0.415   8.839  0.1826 -0.4761  0.7233
  433MOL0     C59671   8.667  -0.030   8.712 -0.1432  0.3120 -0.8802
  433MOL0     C59672   8.533  -0.046   8.754  0.8996 -0.7085 -0.8516
  433MOL0     C59673   8.470  -0.165   8.769  0.1047  0.3773 -0.9264
  433MOL0     C59674   8.529  -0.282   8.730 -0.0001 -0.3282 -0.6804
  433MOL0     O59675   8.464  -0.398   8.743 -0.5286 -0.5401 -0.0343
  433MOL0     C59676   8.522  -0.521   8.696 -0.5180  0.6063 -0.3128
  433MOL0     C59677   8.419  -0.636   8.731 -0.3424 -0.3714 -0.0958
  433MOL0     C59678   8.322  -0.641   8.610  0.7152  0.4797 -0.3970
  433MOL0     C59679   8.188  -0.730   8.636 -0.3518  0.0476  0.9438
  433MOL0     C59680   8.118  -0.720   8.506  0.7766  0.0573  0.3921
  433MOL0     C59681   8.070  -0.710   8.400 -0.1497 -0.2543 -1.2579
  433MOL0     C59682   8.662  -0.269   8.679  0.3799  0.1587 -0.7083
  433MOL0     C59683   8.732  -0.150   8.672  0.5247  0.1568  0.1305
  433MOL0     C59684   8.872  -0.165   8.639 -0.5247 -0.2067 -0.2718
  433MOL0     H59685   8.650   0.331   8.520 -0.6757  1.6484 -1.6589
  433MOL0     H59686   8.785   0.546   8.476 -0.9516  0.0005 -0.6748
  433MOL0     H59687   9.014   0.695   8.773  1.1963  1.6722  1.5163
  433MOL0     H59688   8.907   0.821   8.815  1.4587 -0.8999  1.4615
  433MOL0     H59689   8.974   0.931   8.593 -1.2171 -0.1336 -0.6596
  433MOL0     H59690   9.092   0.932   8.723 -2.6104  1.1997 -0.6392
  433MOL0     H59691   9.194   0.715   8.622  1.4169 -1.3576 -3.2499
  433MOL0     H59692   9.077   0.729   8.500 -1.6897 -0.2817  1.3557
  433MOL0     H59693   9.190   0.968   8.448  0.6006 -1.3517 -2.5187
  433MOL0     H59694   9.301   0.934   8.587 -0.4277  1.3128  1.3041
  433MOL0     H59695   9.269   0.771   8.346 -1.2338 -0.5268  0.6797
  433MOL0     H59696   9.384   0.745   8.480  0.9125  1.6106  2.1005
  433MOL0     H59697   9.364   0.994   8.296  0.9314 -0.5484 -0.7762
  433MOL0     H59698   9.485   0.951   8.424  1.4758 -0.1296 -0.5816
  433MOL0     H59699   9.557   0.907   8.161 -0.8295  0.2376 -0.7798
  433MOL0     H59700   9.431   0.790   8.152 -2.4060 -1.1858  2.7779
  433MOL0     H59701   9.632   0.804   8.374 -1.1888  1.7999 -0.9068
  433MOL0     H59702   9.545   0.663   8.309  3.8443 -2.3082 -1.9366
  433MOL0     H59703   9.630   0.580   8.069  0.4874 -0.5305  1.0560
  433MOL0     H59704   9.878   0.529   7.852  1.9804  0.4339  0.8075
  433MOL0     H59705   9.934   0.691   7.825 -1.0687  0.9871 -0.2466
  433MOL0     H59706   9.757   0.672   7.667 -0.0991  1.3376 -0.1880
  433MOL0     H59707   9.652   0.594   7.777  0.4695 -1.3820  1.5487
  433MOL0     H59708   9.584   0.828   7.747 -0.4855 -1.9857  0.1030
  433MOL0     H59709   9.658   0.836   7.905 -0.1078  2.2322  0.1297
  433MOL0     H59710   9.871   0.908   7.818 -1.4295 -0.7022  0.7738
  433MOL0     H59711   9.817   0.876   7.651 -1.9369 -1.3006  1.0707
  433MOL0     H59712   9.820   1.010   7.988 -1.0500  0.7098 -1.1012
  433MOL0     H59713   9.842   1.234   8.263  2.3526 -1.7861  1.2251
  433MOL0     H59714   9.887   1.082   8.190 -0.6149  0.5583 -0.6794
  433MOL0     H59715   9.725   1.105   8.261  0.3767  0.5689  2.4034
  433MOL0     H59716   9.417   1.385   8.437  0.2983  0.7730 -2.3558
  433MOL0     H59717   9.354   1.586   8.578  0.1821 -0.6248  1.4950
  433MOL0     H59718   9.682   1.871   8.669 -1.3928  2.6736 -0.7063
  433MOL0     H59719   9.555   1.927   8.779 -1.9427  0.0095 -0.3685
  433MOL0     H59720   9.683   1.647   8.806  0.3009  0.9331 -0.6395
  433MOL0     H59721   9.718   1.779   8.923  0.3621  1.0953 -1.1180
  433MOL0     H59722   9.546   1.596   8.975  1.7719 -0.4549  0.6704
  433MOL0     H59723   9.451   1.656   8.841 -1.9444  0.2510  1.1190
  433MOL0     H59724   9.503   1.889   9.015 -0.1987 -0.5414 -2.7740
  433MOL0     H59725   9.492   1.750   9.124  0.0700  1.3651  0.5890
  433MOL0     H59726   9.266   1.691   9.069 -0.3439  0.6988 -0.7582
  433MOL0     H59727   9.265   1.853   9.125 -3.4132 -1.2414  0.6059
  433MOL0     H59728   9.224   1.740   8.852 -3.9875  2.6788 -1.3357
  433MOL0     H59729   9.304   1.913   8.883  2.3040  0.6662  3.2530
  433MOL0     H59730   9.099   1.985   8.969 -0.9231  1.9755 -1.1192
  433MOL0     H59731   9.032   1.832   8.998  0.5090  0.5485  2.1183
  433MOL0     H59732   9.056   1.974   8.741 -0.6836  0.1588 -1.9294
  433MOL0     H59733   8.913   1.935   8.837  1.3985 -1.1413  4.9878
  433MOL0     H59734   9.752   1.732   8.527  2.0380 -1.6261 -1.0089
  433MOL0     H59735   9.797   1.549   8.365 -1.2324 -2.3552 -3.1663
  433MOL0     H59736   9.540   1.399   7.891  1.5163  0.0966 -2.8003
  433MOL0     H59737   9.586   1.273   7.731  3.8199 -0.6172 -1.8710
  433MOL0     H59738   8.810   0.605   8.896 -2.0818  0.5087 -0.7436
  433MOL0     H59739   8.723   0.388   8.941 -1.3582  2.2915  1.1923
  433MOL0     H59740   8.477   0.045   8.777  4.0659  1.7263 -2.0452
  433MOL0     H59741   8.366  -0.180   8.795 -0.1842  0.3298 -2.0544
  433MOL0     H59742   8.560  -0.518   8.593 -1.4039 -1.5067 -0.7446
  433MOL0     H59743   8.611  -0.539   8.757  2.0664  3.0022 -3.0417
  433MOL0     H59744   8.374  -0.622   8.830 -0.1748 -1.0708  0.0860
  433MOL0     H59745   8.453  -0.739   8.748  1.2585  0.5519  2.9342
  433MOL0     H59746   8.285  -0.539   8.592 -1.5541 -0.1580  0.3508
  433MOL0     H59747   8.377  -0.677   8.523  0.3596 -2.9726  0.6796
  433MOL0     H59748   8.128  -0.689   8.717 -0.2584 -0.5942  1.3457
  433MOL0     H59749   8.199  -0.838   8.654  0.6466  0.4287  2.8756
  433MOL0     H59750   8.061  -0.676   8.299 -1.8509 -0.8170 -1.3199
  433MOL0     H59751   8.720  -0.355   8.648 -0.5663 -0.6328 -0.3479
  433MOL0     H59752   8.900  -0.094   8.560  0.5550  0.0030  0.2714
  433MOL0     H59753   8.934  -0.145   8.727  1.0317  1.7730 -1.7098
  433MOL0     H59754   8.900  -0.267   8.608  1.5168  0.5871 -1.2515
  434MOL0     O59755   5.321  10.542  10.646  0.8421 -0.4212  0.5106
  434MOL0     C59756   5.381  10.514  10.743 -0.8630 -1.0158 -0.0673
  434MOL0     O59757   5.502  10.570  10.777 -0.4736  0.0314 -0.8741
  434MOL0     C59758   5.576  10.642  10.688  0.8824  0.0398  0.4137
  434MOL0     C59759   5.587  10.783  10.695 -0.3605 -0.5406 -0.3674
  434MOL0     C59760   5.670  10.857  10.600 -0.3753  0.4278 -0.1945
  434MOL0     C59761   5.722  10.787  10.487  0.1782 -0.9623  0.3130
  434MOL0     O59762   5.769  10.840  10.375 -0.2104 -0.2857 -0.4463
  434MOL0     C59763   5.780  10.982  10.355 -0.2199 -0.1346 -0.0607
  434MOL0     C59764   5.797  11.018  10.210 -0.0697  0.0300 -0.1283
  434MOL0     C59765   5.944  10.994  10.151  0.5227  0.4046  0.1065
  434MOL0     C59766   5.959  11.020  10.001 -0.1467  0.0734  0.2796
  434MOL0     C59767   6.101  10.993   9.953 -0.2758  0.1335 -0.4978
  434MOL0     C59768   6.119  11.020   9.804 -0.3419 -0.4999 -0.3649
  434MOL0     C59769   6.270  10.990   9.751  0.1926 -0.5498  0.1091
  434MOL0     C59770   6.307  11.063   9.618  0.1949 -0.7453  1.1622
  434MOL0     N59771   6.437  11.017   9.570 -0.1690  0.2156 -1.0300
  434MOL0     C59772   6.571  11.056   9.603 -0.4767 -0.4244  0.2889
  434MOL0     C59773   6.646  10.993   9.513  0.2999 -0.4578 -1.4572
  434MOL0     C59774   6.795  10.992   9.494 -0.8079  0.2429  0.2198
  434MOL0     C59775   6.840  10.987   9.348 -0.4335  0.6198 -0.2964
  434MOL0     C59776   6.982  10.922   9.353 -0.8241  0.8087 -0.1348
  434MOL0     C59777   7.037  10.884   9.216 -0.3549 -0.5182  0.4354
  434MOL0     O59778   6.933  10.810   9.143  0.2201 -0.5995 -0.9313
  434MOL0     C59779   6.969  10.760   9.018  0.6742 -0.1356 -0.9154
  434MOL0     C59780   7.081  10.787   8.945  0.3678  0.1844 -0.5344
  434MOL0     C59781   7.112  10.736   8.814  0.5584  0.0097  0.9008
  434MOL0     C59782   7.225  10.800   8.733  0.0421  0.2511 -0.4619
  434MOL0     C59783   7.035  10.633   8.764  0.9155 -0.5745 -0.1931
  434MOL0     C59784   7.054  10.553   8.638  0.0102  0.1515  0.3235
  434MOL0     O59785   6.978  10.444   8.616 -0.5646  0.0025 -0.3677
  434MOL0     C59786   7.001  10.367   8.506 -1.1043  0.5184 -0.0867
  434MOL0     C59787   7.130  10.304   8.480  0.6789 -1.0161 -0.8094
  434MOL0     C59788   7.146  10.230   8.364 -0.2940 -0.1464  0.2279
  434MOL0     C59789   7.047  10.212   8.273  0.1865  0.9307 -0.6055
  434MOL0     O59790   7.049  10.116   8.174  0.2094  0.4507 -0.1420
  434MOL0     C59791   7.156  10.023   8.170  0.0785 -0.7537 -0.3702
  434MOL0     C59792   7.146   9.944   8.042  0.0728 -0.0158 -0.5181
  434MOL0     C59793   7.172  10.039   7.924  0.3823  0.6713  0.3907
  434MOL0     C59794   7.171   9.964   7.792 -0.3840  0.0637  0.9682
  434MOL0     C59795   7.182  10.049   7.664 -0.0654 -0.0672  0.2162
  434MOL0     C59796   7.298  10.149   7.668 -0.7397 -0.5254 -0.1613
  434MOL0     C59797   7.331  10.206   7.529 -0.0903 -0.0018 -0.0249
  434MOL0     C59798   7.456  10.293   7.522  0.0154 -0.1692  0.1513
  434MOL0    Cl59799   7.525  10.322   7.357 -0.2901 -0.2263 -0.3025
  434MOL0     C59800   6.916  10.264   8.305  0.0909  0.5600 -0.1087
  434MOL0     C59801   6.895  10.339   8.420 -0.8026  1.0730  0.0872
  434MOL0     O59802   7.133  10.594   8.555 -0.1324 -0.2657  0.4582
  434MOL0     C59803   6.924  10.590   8.846 -0.3240 -0.8682 -0.1567
  434MOL0     C59804   6.889  10.661   8.960 -0.0134 -0.2072  0.8848
  434MOL0     N59805   6.566  10.907   9.448  0.6043 -0.3915  0.3854
  434MOL0     N59806   6.445  10.921   9.484 -0.2744  0.1555  0.0162
  434MOL0     C59807   5.700  10.651  10.477  0.1844  0.1115 -0.8333
  434MOL0     C59808   5.642  10.579  10.581  1.0284 -0.0255  0.1581
  434MOL0     C59809   5.295  10.445  10.848  0.2784  0.9933 -0.0880
  434MOL0     C59810   5.321  10.496  10.981  0.0905 -0.1510 -0.0950
  434MOL0     C59811   5.240  10.452  11.080  0.2331  0.4180  0.2334
  434MOL0     C59812   5.137  10.363  11.064  0.2860  0.3248  0.2292
  434MOL0     O59813   5.067  10.344  11.177 -0.7846  0.0443  0.5839
  434MOL0     C59814   4.949  10.257  11.178  0.2357  0.6635  1.3084
  434MOL0     C59815   4.899  10.218  11.316 -0.1353  0.3527 -0.1567
  434MOL0     C59816   4.812  10.313  11.401  0.3153 -1.4544  0.8329
  434MOL0     C59817   4.712  10.238  11.490  0.3312 -0.1672 -0.4656
  434MOL0     C59818   4.784  10.159  11.582 -0.7481 -0.7437 -1.1455
  434MOL0     C59819   4.839  10.073  11.652 -0.5664  0.8891 -0.3009
  434MOL0     C59820   5.119  10.300  10.938 -0.0833 -0.1248 -0.4198
  434MOL0     C59821   5.194  10.345  10.826 -0.2099 -0.3507 -0.2652
  434MOL0     C59822   5.183  10.273  10.696  0.4621 -0.2756 -0.5138
  434MOL0     H59823   5.540  10.819  10.786 -0.5292  0.0662 -0.6909
  434MOL0     H59824   5.681  10.964  10.614 -0.6166  0.4116  0.1054
  434MOL0     H59825   5.864  11.014  10.418 -0.8747  2.5977 -0.4524
  434MOL0     H59826   5.693  11.033  10.398  1.6240  1.0724  2.4965
  434MOL0     H59827   5.717  10.964  10.157 -0.3360  2.4794 -2.4073
  434MOL0     H59828   5.784  11.126  10.201 -0.1817 -0.1253 -2.5846
  434MOL0     H59829   6.022  11.049  10.205  0.0897  2.0460 -0.8661
  434MOL0     H59830   5.970  10.889  10.166 -4.7119 -1.2417 -0.3011
  434MOL0     H59831   5.892  10.959   9.940  0.7942  0.3299 -1.0586
  434MOL0     H59832   5.926  11.122   9.980 -0.1140 -0.1783 -1.0980
  434MOL0     H59833   6.123  10.886   9.958 -1.0742 -0.0717 -1.2355
  434MOL0     H59834   6.161  11.053  10.022 -2.5240  0.4575  1.2663
  434MOL0     H59835   6.044  10.963   9.748 -1.9096  1.8195 -0.7973
  434MOL0     H59836   6.099  11.126   9.784  2.5886  0.1916 -0.0335
  434MOL0     H59837   6.286  10.882   9.755  1.3756 -0.4658 -1.3626
  434MOL0     H59838   6.339  11.027   9.827 -2.3813  0.3963  2.1117
  434MOL0     H59839   6.222  11.065   9.549 -0.8561  0.8401  2.4082
  434MOL0     H59840   6.312  11.168   9.649 -3.2432 -0.8149  2.5115
  434MOL0     H59841   6.592  11.128   9.681 -0.2465 -2.5895  2.3098
  434MOL0     H59842   6.851  10.918   9.552  1.8136  1.5906 -0.4476
  434MOL0     H59843   6.832  11.089   9.529  2.1234 -1.2166  1.5178
  434MOL0     H59844   6.771  10.926   9.291  2.3002 -1.4218 -1.6640
  434MOL0     H59845   6.838  11.085   9.298  1.8008  0.2398 -1.2487
  434MOL0     H59846   7.039  10.994   9.413 -1.8398  0.8092  0.8561
  434MOL0     H59847   6.976  10.831   9.414  1.3144  1.1796  0.7467
  434MOL0     H59848   7.051  10.973   9.153 -0.6935  0.1175  1.2425
  434MOL0     H59849   7.136  10.838   9.215 -0.0447  0.0544 -2.0304
  434MOL0     H59850   7.148  10.862   8.987 -0.1768  1.2648 -1.5382
  434MOL0     H59851   7.301  10.723   8.722 -0.9405 -0.8445  0.0748
  434MOL0     H59852   7.264  10.889   8.783 -0.5236  0.4385 -0.3375
  434MOL0     H59853   7.194  10.827   8.632  4.0105 -0.4515 -2.0161
  434MOL0     H59854   7.209  10.313   8.553  1.4074  0.8380 -1.7539
  434MOL0     H59855   7.240  10.176   8.363  0.1492  0.6008  0.7587
  434MOL0     H59856   7.253  10.071   8.190 -0.5704 -0.3821  2.4053
  434MOL0     H59857   7.157   9.956   8.256  2.1448 -0.8683 -0.4427
  434MOL0     H59858   7.221   9.865   8.035 -0.4177 -0.5726  0.3634
  434MOL0     H59859   7.040   9.919   8.034 -1.2726  4.3924  0.4026
  434MOL0     H59860   7.276  10.072   7.930  0.9710 -0.4257 -2.2926
  434MOL0     H59861   7.105  10.125   7.922 -1.7147 -0.9018 -0.1259
  434MOL0     H59862   7.078   9.908   7.776 -0.3374  0.0216  0.8449
  434MOL0     H59863   7.255   9.894   7.797  0.2651  0.8126  0.6203
  434MOL0     H59864   7.198   9.981   7.580  5.5438  1.9038 -0.7368
  434MOL0     H59865   7.083  10.096   7.656 -1.3420 -1.7141  3.9214
  434MOL0     H59866   7.384  10.086   7.694  0.4836  1.4020  0.6246
  434MOL0     H59867   7.278  10.229   7.739 -1.4267 -2.7229  2.2820
  434MOL0     H59868   7.245  10.270   7.510 -2.0540 -2.1883  0.9132
  434MOL0     H59869   7.327  10.134   7.446 -4.6769  0.7201 -0.7425
  434MOL0     H59870   7.544  10.256   7.577  0.6033  3.9223  2.2995
  434MOL0     H59871   7.443  10.387   7.576 -2.5760 -0.9862  1.0807
  434MOL0     H59872   6.833  10.252   8.236  0.3400  0.5466 -0.4043
  434MOL0     H59873   6.795  10.374   8.442 -3.3679 -4.1226 -1.7572
  434MOL0     H59874   6.859  10.504   8.830 -1.0498 -0.0228 -1.9808
  434MOL0     H59875   6.808  10.629   9.025  1.7128  1.2731  4.0421
  434MOL0     H59876   5.732  10.611  10.381 -1.4666  0.1248 -1.4126
  434MOL0     H59877   5.637  10.470  10.575 -0.8494  0.0613 -0.4065
  434MOL0     H59878   5.403  10.560  11.013  0.2651  0.0519 -0.9094
  434MOL0     H59879   5.249  10.498  11.178 -1.5744  1.3945 -0.0268
  434MOL0     H59880   4.868  10.300  11.119  1.5851  0.3277 -0.8708
  434MOL0     H59881   4.969  10.158  11.137 -2.8971  1.1553 -1.7595
  434MOL0     H59882   4.995  10.201  11.365  0.7255  0.9244 -1.5984
  434MOL0     H59883   4.839  10.127  11.313  1.6895 -0.8719 -1.9561
  434MOL0     H59884   4.887  10.374  11.453  0.9657  0.8955 -2.4710
  434MOL0     H59885   4.750  10.377  11.337 -1.6169 -1.4731  2.6189
  434MOL0     H59886   4.659  10.171  11.421  2.0302 -3.2926  1.0125
  434MOL0     H59887   4.660  10.304  11.560  2.5522 -0.8597  2.0333
  434MOL0     H59888   4.897   9.995  11.698 -0.2624  1.1913 -0.1640
  434MOL0     H59889   5.047  10.223  10.913 -0.4821  0.8279 -2.4138
  434MOL0     H59890   5.177  10.166  10.716  1.7433  0.2053  3.0635
  434MOL0     H59891   5.095  10.314  10.645  1.1618  0.3399 -1.2674
  434MOL0     H59892   5.275  10.292  10.641  1.3603  1.5595  1.4635
  435MOL0     O59893   3.856   8.133  10.040  0.5063 -0.0768  0.0053
  435MOL0     C59894   3.760   8.081   9.982  0.4114 -0.6537  0.7929
  435MOL0     O59895   3.755   8.046   9.854  0.4228  0.3706 -0.5849
  435MOL0     C59896   3.873   8.054   9.789  0.5948  0.0137  0.1888
  435MOL0     C59897   3.925   8.173   9.737  0.3299 -0.6776  0.3416
  435MOL0     C59898   4.053   8.170   9.677  0.9338 -0.0448 -0.8801
  435MOL0     C59899   4.117   8.051   9.651  0.2092 -0.9753  0.5616
  435MOL0     O59900   4.231   8.041   9.578  0.0318 -0.5611  0.3411
  435MOL0     C59901   4.269   8.150   9.487  0.8371  0.5488  0.2586
  435MOL0     C59902   4.363   8.098   9.382 -0.2429  1.2769 -0.7852
  435MOL0     C59903   4.393   8.207   9.284 -0.5001 -0.1469 -0.2899
  435MOL0     C59904   4.467   8.139   9.171 -0.5228 -0.8589  0.5140
  435MOL0     C59905   4.458   8.238   9.053  1.0675 -0.2285 -0.3917
  435MOL0     C59906   4.321   8.239   8.985 -0.1913  0.3757  0.1620
  435MOL0     C59907   4.241   8.114   8.969  1.4279  1.0642 -0.0926
  435MOL0     C59908   4.321   8.017   8.868 -0.4162 -0.0956 -0.8458
  435MOL0     N59909   4.296   8.062   8.731 -0.2840  0.3559  0.1582
  435MOL0     C59910   4.364   8.170   8.671  0.6355 -0.6733  0.6872
  435MOL0     C59911   4.286   8.204   8.564  0.0183  0.6751  0.6986
  435MOL0     C59912   4.303   8.319   8.473 -1.0681 -0.2934  0.5008
  435MOL0     C59913   4.336   8.288   8.325 -0.3750  0.4833 -0.4983
  435MOL0     C59914   4.485   8.240   8.301  1.1903  0.5308  0.3364
  435MOL0     C59915   4.519   8.222   8.154  0.1338 -0.6779  0.7773
  435MOL0     O59916   4.456   8.334   8.077  0.1056 -0.7350 -0.2787
  435MOL0     C59917   4.543   8.394   7.987 -0.4303  0.5401 -0.3447
  435MOL0     C59918   4.548   8.532   7.976 -0.5518  0.6498  0.8171
  435MOL0     C59919   4.622   8.600   7.879  0.1178  0.7761 -0.6533
  435MOL0     C59920   4.610   8.749   7.865  0.4757  0.6054 -0.1807
  435MOL0     C59921   4.688   8.526   7.774  0.4151 -0.7667  0.3494
  435MOL0     C59922   4.773   8.592   7.665  0.4963  1.1787 -0.7418
  435MOL0     O59923   4.773   8.520   7.546  0.4519 -0.5090  0.1590
  435MOL0     C59924   4.861   8.559   7.441  0.9260 -0.8037 -0.9391
  435MOL0     C59925   4.821   8.627   7.323  0.1936 -0.2989 -0.1618
  435MOL0     C59926   4.919   8.678   7.238 -0.4390 -0.8822  0.7006
  435MOL0     C59927   5.059   8.676   7.278  0.4598  0.0934 -0.3297
  435MOL0     O59928   5.156   8.743   7.216 -0.3407 -0.3065 -0.2408
  435MOL0     C59929   5.141   8.805   7.092 -1.1293  0.3021  1.2387
  435MOL0     C59930   5.282   8.827   7.024 -0.0722  0.0725 -0.3324
  435MOL0     C59931   5.388   8.872   7.133 -0.8272  0.0701 -0.6194
  435MOL0     C59932   5.354   8.991   7.218  0.1010  0.1134 -0.1303
  435MOL0     C59933   5.475   9.050   7.296 -0.0667  0.6321 -0.1050
  435MOL0     C59934   5.581   8.960   7.360 -0.4265 -0.1286  0.2749
  435MOL0     C59935   5.668   9.056   7.447 -1.1255  0.8950 -0.4715
  435MOL0     C59936   5.780   8.983   7.515 -0.0429 -0.2791 -0.1185
  435MOL0    Cl59937   5.870   8.882   7.393 -0.1951  0.6660 -0.2793
  435MOL0     C59938   5.092   8.606   7.384 -0.4342 -1.1026 -1.2089
  435MOL0     C59939   4.997   8.544   7.467 -0.0363 -0.3798  0.4202
  435MOL0     O59940   4.835   8.692   7.688  0.6472  0.1549 -0.1450
  435MOL0     C59941   4.678   8.383   7.786 -0.4698  0.2451  0.1017
  435MOL0     C59942   4.607   8.319   7.884  1.0200 -0.0849 -0.5205
  435MOL0     N59943   4.172   8.126   8.568  0.7407  0.7567 -0.5218
  435MOL0     N59944   4.178   8.037   8.669  0.9799  0.4441  0.1468
  435MOL0     C59945   4.075   7.932   9.716 -0.8414 -0.6993  0.0978
  435MOL0     C59946   3.952   7.941   9.780  0.6368  0.7148 -1.6023
  435MOL0     C59947   3.650   8.023  10.067  0.0038 -0.5806 -0.5222
  435MOL0     C59948   3.522   8.022  10.019  1.1296 -0.3757 -0.1136
  435MOL0     C59949   3.412   7.962  10.098  0.0649  0.6525  0.7844
  435MOL0     C59950   3.444   7.903  10.211  0.1489  0.1445 -0.7306
  435MOL0     O59951   3.354   7.828  10.293  0.4768 -0.2093 -0.4170
  435MOL0     C59952   3.244   7.749  10.237  0.1014  0.2934 -1.3260
  435MOL0     C59953   3.160   7.686  10.337 -0.1002  0.3535 -1.3020
  435MOL0     C59954   3.222   7.554  10.410 -0.0825  0.3295  0.6712
  435MOL0     C59955   3.200   7.421  10.338  0.6241  1.2094 -0.2252
  435MOL0     C59956   3.049   7.385  10.316 -0.9042 -0.8908  0.4887
  435MOL0     C59957   2.936   7.361  10.302  0.2111 -0.2840 -0.6088
  435MOL0     C59958   3.572   7.899  10.260 -0.1845  0.1344 -0.6390
  435MOL0     C59959   3.681   7.956  10.190  0.9736  1.0699 -0.3770
  435MOL0     C59960   3.818   7.935  10.252  0.3642  0.1047 -0.7628
  435MOL0     H59961   3.874   8.264   9.768  1.2611 -0.3472  0.9732
  435MOL0     H59962   4.080   8.269   9.640  0.1376  0.8453  0.8286
  435MOL0     H59963   4.302   8.238   9.542  0.5233  0.4525  0.5993
  435MOL0     H59964   4.175   8.173   9.436  0.6093 -2.1476 -0.7427
  435MOL0     H59965   4.450   8.055   9.431 -2.2984 -2.9531 -0.3458
  435MOL0     H59966   4.309   8.016   9.334 -4.0265  2.2902  1.2950
  435MOL0     H59967   4.298   8.245   9.243 -3.1237 -2.9235  2.5970
  435MOL0     H59968   4.448   8.291   9.326 -0.6390 -1.6209  3.1145
  435MOL0     H59969   4.572   8.118   9.191 -0.0132  0.8097 -0.2481
  435MOL0     H59970   4.435   8.039   9.142 -1.2689 -1.3352  2.7763
  435MOL0     H59971   4.535   8.232   8.975  0.1228 -1.3952 -1.2712
  435MOL0     H59972   4.463   8.336   9.102 -1.0442 -0.1523 -0.2266
  435MOL0     H59973   4.254   8.299   9.049 -2.0030 -0.0827 -1.2317
  435MOL0     H59974   4.320   8.297   8.892  0.2244  0.6650  0.3314
  435MOL0     H59975   4.139   8.139   8.938  0.3846  3.1299  4.2717
  435MOL0     H59976   4.222   8.070   9.067  0.0559  0.2062 -0.7237
  435MOL0     H59977   4.430   8.023   8.881 -0.6032  1.5240  0.1761
  435MOL0     H59978   4.287   7.914   8.887 -4.2383  0.8868 -1.5528
  435MOL0     H59979   4.458   8.209   8.708  0.7086  0.7209 -0.8438
  435MOL0     H59980   4.383   8.378   8.520 -0.9170 -0.7574  0.8305
  435MOL0     H59981   4.210   8.376   8.481 -0.7909 -0.0404  2.4967
  435MOL0     H59982   4.261   8.219   8.287 -0.4850 -0.7827  1.8496
  435MOL0     H59983   4.338   8.388   8.280  3.3610  1.1053  0.7014
  435MOL0     H59984   4.555   8.316   8.338  0.7028  0.0367  2.3786
  435MOL0     H59985   4.502   8.145   8.353 -2.8218 -0.5463  0.0282
  435MOL0     H59986   4.628   8.228   8.155  0.1814 -1.4960  0.5892
  435MOL0     H59987   4.486   8.129   8.107 -1.5363  1.8271 -3.5638
  435MOL0     H59988   4.491   8.596   8.042 -2.2960 -1.5464  1.5708
  435MOL0     H59989   4.704   8.779   7.911 -1.1683  3.1304  1.7445
  435MOL0     H59990   4.527   8.796   7.918 -2.2212 -2.4918 -1.2779
  435MOL0     H59991   4.602   8.787   7.763  1.0886  2.3591  0.4024
  435MOL0     H59992   4.718   8.646   7.293  0.8851 -2.9425 -5.4146
  435MOL0     H59993   4.886   8.743   7.158  2.3827  0.7742  0.7690
  435MOL0     H59994   5.078   8.741   7.030  0.8000 -0.0035 -0.5500
  435MOL0     H59995   5.100   8.905   7.110  2.1025  1.8398  0.9148
  435MOL0     H59996   5.313   8.737   6.970 -0.9028  0.2528 -1.1296
  435MOL0     H59997   5.270   8.905   6.948 -0.7381 -0.3149 -0.6368
  435MOL0     H59998   5.475   8.901   7.072 -0.8896  0.1962 -0.6485
  435MOL0     H59999   5.418   8.794   7.203 -1.6638  1.1455  0.9859
  435MOL0     H60000   5.284   8.960   7.295  1.0944  0.1709  0.8264
  435MOL0     H60001   5.307   9.070   7.159 -1.6361  1.1250  2.4170
  435MOL0     H60002   5.518   9.126   7.229 -2.8907  2.7905  0.3332
  435MOL0     H60003   5.433   9.089   7.389 -1.7303  0.5542 -0.7875
  435MOL0     H60004   5.623   8.906   7.274 -2.2182  1.1756 -1.4885
  435MOL0     H60005   5.538   8.879   7.420 -1.9188 -0.7335 -1.5234
  435MOL0     H60006   5.623   9.098   7.538  2.5471  2.2071  0.9552
  435MOL0     H60007   5.702   9.134   7.379 -1.2347  2.1709  0.8746
  435MOL0     H60008   5.742   8.913   7.590  0.9029  0.7240  1.3450
  435MOL0     H60009   5.858   9.040   7.566 -0.1435 -2.3037  2.5720
  435MOL0     H60010   5.199   8.603   7.400 -0.4010 -1.4028 -1.4733
  435MOL0     H60011   5.031   8.487   7.553  0.0606 -0.4337  0.3459
  435MOL0     H60012   4.720   8.318   7.711 -1.5005 -2.1457  1.4792
  435MOL0     H60013   4.609   8.211   7.874  0.3362 -0.3460  1.7085
  435MOL0     H60014   4.117   7.832   9.716  0.1290 -0.4198 -3.5398
  435MOL0     H60015   3.915   7.858   9.840  0.5920  2.4856  1.0163
  435MOL0     H60016   3.484   8.076   9.933 -2.9772  2.9850  3.4074
  435MOL0     H60017   3.308   7.949  10.070  0.6376 -0.2299 -1.1217
  435MOL0     H60018   3.176   7.820  10.188  0.7629  3.3308  1.8013
  435MOL0     H60019   3.271   7.663  10.175  0.3057 -2.0627  1.7897
  435MOL0     H60020   3.066   7.660  10.287 -0.4128  1.9461 -1.5955
  435MOL0     H60021   3.131   7.766  10.407 -0.4144 -0.1097 -0.8983
  435MOL0     H60022   3.330   7.558  10.428  0.0143  1.0070  0.0289
  435MOL0     H60023   3.183   7.548  10.512  1.1919 -1.4039  1.0926
  435MOL0     H60024   3.255   7.357  10.407  0.9668  1.0909 -0.6047
  435MOL0     H60025   3.249   7.405  10.241  2.0352 -0.7346  0.7350
  435MOL0     H60026   2.835   7.342  10.273 -0.2346  1.9256 -0.6495
  435MOL0     H60027   3.586   7.852  10.357  1.8286 -0.3461 -1.1222
  435MOL0     H60028   3.884   7.901  10.171 -2.9933  0.0749 -3.7235
  435MOL0     H60029   3.855   8.030  10.292  3.2622 -1.1730 -0.1740
  435MOL0     H60030   3.816   7.854  10.325  2.1440 -0.5357 -1.3600
  436MOL0     O60031   2.330   8.776   6.646 -0.2596  0.3005  0.3152
  436MOL0     C60032   2.316   8.894   6.662 -0.3244  0.3500  0.5707
  436MOL0     O60033   2.334   8.960   6.780 -0.6642  0.5409  0.1358
  436MOL0     C60034   2.399   8.892   6.881 -0.6705  0.6416  0.7991
  436MOL0     C60035   2.531   8.926   6.907  0.2534  0.7489 -0.4031
  436MOL0     C60036   2.601   8.863   7.010  0.9380  0.0575  0.1666
  436MOL0     C60037   2.547   8.744   7.063  0.6818 -0.8283 -0.3570
  436MOL0     O60038   2.599   8.677   7.169  0.6628 -0.5318 -0.3310
  436MOL0     C60039   2.729   8.617   7.147 -0.6909  0.5983 -0.5172
  436MOL0     C60040   2.811   8.616   7.276  0.0804  0.5317  0.3702
  436MOL0     C60041   2.962   8.600   7.259 -0.3013 -0.2769  0.0581
  436MOL0     C60042   3.045   8.588   7.382  0.2365  0.4508  0.2881
  436MOL0     C60043   3.190   8.577   7.333 -0.3556  0.2452  0.4612
  436MOL0     C60044   3.288   8.547   7.456  0.5985 -0.1514  0.0815
  436MOL0     C60045   3.292   8.629   7.588  0.2981  0.4555  0.3560
  436MOL0     C60046   3.317   8.777   7.556  0.3469 -0.0169  0.0892
  436MOL0     N60047   3.288   8.857   7.682 -0.1669 -0.0834  0.7003
  436MOL0     C60048   3.168   8.906   7.727 -0.5834  0.1780 -0.0445
  436MOL0     C60049   3.196   8.984   7.836  0.3251 -0.0481  0.2116
  436MOL0     C60050   3.100   9.055   7.920 -0.4192 -0.6531  0.6064
  436MOL0     C60051   3.142   9.204   7.939 -0.6503 -0.4131  0.0719
  436MOL0     C60052   3.132   9.295   7.816  0.1571  0.3988  0.5783
  436MOL0     C60053   2.992   9.337   7.780 -0.2198 -0.1070 -0.0866
  436MOL0     O60054   2.921   9.402   7.889 -0.6496  0.0599 -0.8710
  436MOL0     C60055   2.803   9.355   7.914 -0.3368 -1.1559  0.2692
  436MOL0     C60056   2.695   9.360   7.819  0.1376 -1.2800  0.1188
  436MOL0     C60057   2.569   9.308   7.843  0.2413 -0.7666  0.2431
  436MOL0     C60058   2.462   9.322   7.731 -0.2686  0.9817  1.3872
  436MOL0     C60059   2.528   9.276   7.972  0.1337  0.6487  0.3120
  436MOL0     C60060   2.398   9.207   8.001  0.4639 -1.1643 -0.5444
  436MOL0     O60061   2.319   9.159   7.905 -0.2006  0.3417  0.0024
  436MOL0     C60062   2.195   9.109   7.942  1.0989  0.2507  0.5870
  436MOL0     C60063   2.085   9.191   7.945  0.6464 -1.7647 -0.5792
  436MOL0     C60064   1.952   9.142   7.958 -0.2231 -0.8211  0.2512
  436MOL0     C60065   1.929   9.000   7.967  1.1579 -0.0264  0.2315
  436MOL0     O60066   1.806   8.949   7.964  0.7322 -0.1593 -0.3136
  436MOL0     C60067   1.769   8.828   8.030 -0.2574 -0.3804 -0.5742
  436MOL0     C60068   1.633   8.834   8.077 -0.5282  0.0343 -0.6601
  436MOL0     C60069   1.536   8.802   7.969 -0.8514  0.1668 -0.8375
  436MOL0     C60070   1.394   8.743   8.022 -1.4587  0.1668 -0.2426
  436MOL0     C60071   1.328   8.841   8.117 -0.5864 -0.0124 -0.6604
  436MOL0     C60072   1.210   8.789   8.202 -0.0458  0.0186 -0.0337
  436MOL0     C60073   1.239   8.664   8.287 -0.2190 -0.1665 -0.4991
  436MOL0     C60074   1.126   8.639   8.382  1.0523  0.5107  0.5348
  436MOL0    Cl60075   1.109   8.769   8.506 -0.1679 -0.1930  0.1071
  436MOL0     C60076   2.043   8.925   7.960 -0.4512 -0.1646 -0.1095
  436MOL0     C60077   2.173   8.970   7.950  0.2966 -0.1041  0.3832
  436MOL0     O60078   2.371   9.194   8.117 -0.1836 -0.4212  0.3913
  436MOL0     C60079   2.629   9.281   8.072  0.3034 -0.2617 -0.0315
  436MOL0     C60080   2.761   9.316   8.041 -0.5912  0.2035  0.2492
  436MOL0     N60081   3.326   8.994   7.848 -0.1584 -0.1051  0.7513
  436MOL0     N60082   3.381   8.926   7.751  0.5372  0.6508 -0.0815
  436MOL0     C60083   2.423   8.707   7.029  0.0161  0.3876 -0.0882
  436MOL0     C60084   2.342   8.788   6.949 -0.5665  0.6055  0.8828
  436MOL0     C60085   2.267   8.978   6.551  0.2850 -0.5008  0.0046
  436MOL0     C60086   2.246   9.119   6.575 -0.5607 -0.1284 -1.0018
  436MOL0     C60087   2.216   9.211   6.475 -0.9256 -0.0702  0.0030
  436MOL0     C60088   2.188   9.160   6.347  0.0345 -0.2295  0.3958
  436MOL0     O60089   2.175   9.250   6.244 -0.3285 -0.1620  0.2561
  436MOL0     C60090   2.058   9.329   6.263 -0.4541 -0.2924  0.6863
  436MOL0     C60091   2.079   9.468   6.300 -0.1087  0.0401 -0.4919
  436MOL0     C60092   2.134   9.553   6.181 -0.0425  0.4756  0.2716
  436MOL0     C60093   2.015   9.581   6.084  0.3439  1.1971  0.0068
  436MOL0     C60094   2.066   9.667   5.973  1.1377 -0.9307 -1.3929
  436MOL0     C60095   2.112   9.751   5.897  0.4548  0.6064  0.6792
  436MOL0     C60096   2.218   9.031   6.311  0.7833 -0.2752 -0.3637
  436MOL0     C60097   2.269   8.941   6.409  0.0428  0.3934 -0.3073
  436MOL0     C60098   2.305   8.802   6.363 -0.3267  0.5719 -0.3341
  436MOL0     H60099   2.575   9.012   6.859  2.8713  0.8726  1.9867
  436MOL0     H60100   2.702   8.875   7.048  0.3720 -1.6042  2.4421
  436MOL0     H60101   2.788   8.670   7.072 -0.2974 -0.7216 -1.1702
  436MOL0     H60102   2.713   8.516   7.108  0.3012 -0.6440  2.0825
  436MOL0     H60103   2.784   8.714   7.318  1.2708  0.3123  1.6937
  436MOL0     H60104   2.775   8.535   7.340  2.3901 -0.0225  1.0556
  436MOL0     H60105   2.979   8.502   7.213 -0.3787 -2.7810  4.7257
  436MOL0     H60106   2.987   8.684   7.193  1.5687 -0.0250  1.0281
  436MOL0     H60107   3.009   8.669   7.446  0.4461 -0.3929  1.5121
  436MOL0     H60108   3.020   8.499   7.441 -3.6524  1.0859 -0.1137
  436MOL0     H60109   3.219   8.674   7.292 -4.0281  2.9250  3.5480
  436MOL0     H60110   3.204   8.505   7.252  2.9265  0.9907  0.2229
  436MOL0     H60111   3.263   8.443   7.478 -1.9836  0.2167 -0.7192
  436MOL0     H60112   3.390   8.542   7.415  0.7326 -1.2885  0.5078
  436MOL0     H60113   3.372   8.589   7.652 -2.2014 -5.1282  0.6070
  436MOL0     H60114   3.193   8.619   7.634  0.2565 -0.2509  0.1242
  436MOL0     H60115   3.417   8.797   7.517  0.4492 -2.3185 -1.0015
  436MOL0     H60116   3.249   8.816   7.480 -0.6298 -1.2056  0.3139
  436MOL0     H60117   3.072   8.870   7.692 -0.8977 -0.2260  1.1770
  436MOL0     H60118   3.089   9.016   8.022 -2.8688 -0.9991  0.2726
  436MOL0     H60119   3.001   9.053   7.873  0.7940 -0.1324 -2.1396
  436MOL0     H60120   3.092   9.249   8.026 -1.0446  0.5541 -0.6347
  436MOL0     H60121   3.250   9.209   7.961 -0.8538  2.4699  0.7761
  436MOL0     H60122   3.180   9.391   7.838 -2.4881  1.7842  0.7158
  436MOL0     H60123   3.186   9.247   7.734  1.0436  0.6073  1.0360
  436MOL0     H60124   3.000   9.401   7.692 -0.0092 -0.5995 -0.4310
  436MOL0     H60125   2.933   9.253   7.742  0.6852 -1.4617  1.3410
  436MOL0     H60126   2.708   9.398   7.718  0.2483 -1.4861  0.0546
  436MOL0     H60127   2.386   9.395   7.759 -1.4319  0.7679 -0.9839
  436MOL0     H60128   2.412   9.226   7.712 -0.0991  1.2270 -0.3942
  436MOL0     H60129   2.519   9.338   7.640 -0.9985  0.3889  0.8090
  436MOL0     H60130   2.086   9.298   7.930 -3.1712 -1.4535  0.5396
  436MOL0     H60131   1.860   9.199   7.950 -0.0649 -0.5732  0.2063
  436MOL0     H60132   1.779   8.738   7.968  2.6290  0.6759 -1.7962
  436MOL0     H60133   1.838   8.821   8.115 -0.0167 -0.3052 -0.7647
  436MOL0     H60134   1.632   8.754   8.152  0.1780  0.9363  0.3557
  436MOL0     H60135   1.608   8.932   8.120 -0.1801 -0.2156  0.1294
  436MOL0     H60136   1.581   8.727   7.904  0.0361 -0.0255 -0.0274
  436MOL0     H60137   1.508   8.891   7.911  1.0048 -0.1406 -2.2817
  436MOL0     H60138   1.418   8.648   8.072  1.6032  0.8055 -0.2670
  436MOL0     H60139   1.331   8.718   7.937 -1.2211  0.0897 -0.3974
  436MOL0     H60140   1.411   8.872   8.182 -1.1249  3.1983 -1.3347
  436MOL0     H60141   1.281   8.926   8.067  2.0664  1.4780 -0.8335
  436MOL0     H60142   1.128   8.766   8.133 -2.8787 -2.9757  3.8467
  436MOL0     H60143   1.172   8.869   8.267 -2.1271 -1.7881  1.0910
  436MOL0     H60144   1.331   8.673   8.345 -2.1205  1.3433  2.5097
  436MOL0     H60145   1.248   8.581   8.215  0.0564 -0.2863 -0.3290
  436MOL0     H60146   1.131   8.541   8.430 -0.4646  0.6028  0.9316
  436MOL0     H60147   1.030   8.633   8.329  1.1765  0.0392  0.3596
  436MOL0     H60148   2.025   8.818   7.967 -2.1274 -0.1233 -2.5720
  436MOL0     H60149   2.257   8.903   7.938  1.0839  1.0168 -0.6536
  436MOL0     H60150   2.596   9.258   8.173  0.7667  1.9735  0.6707
  436MOL0     H60151   2.834   9.333   8.120  1.8191  1.0013 -1.9745
  436MOL0     H60152   2.401   8.609   7.071  0.4286  0.2570 -0.1766
  436MOL0     H60153   2.242   8.760   6.918 -0.4908 -0.4959  1.5583
  436MOL0     H60154   2.246   9.152   6.678 -2.1279  0.7360 -1.2423
  436MOL0     H60155   2.215   9.314   6.509 -0.4413  0.6529 -2.0316
  436MOL0     H60156   1.993   9.325   6.176 -0.6665  3.7266  0.4948
  436MOL0     H60157   1.999   9.290   6.347  1.3229 -2.3607  1.0842
  436MOL0     H60158   2.153   9.484   6.378 -0.2404  2.8820 -0.8425
  436MOL0     H60159   1.987   9.511   6.342  0.4930  1.3892 -0.4980
  436MOL0     H60160   2.185   9.639   6.225  1.0302  0.9985 -1.8160
  436MOL0     H60161   2.218   9.501   6.133  0.1610 -0.8492  1.9586
  436MOL0     H60162   1.929   9.635   6.123  0.2545  1.7772 -0.9418
  436MOL0     H60163   1.981   9.489   6.036 -1.4172  2.1531 -0.6594
  436MOL0     H60164   2.167   9.817   5.833  1.7959 -2.9351 -2.2023
  436MOL0     H60165   2.214   8.997   6.208  1.1488 -1.5880  0.0416
  436MOL0     H60166   2.406   8.782   6.400 -0.0029  5.0853  1.8672
  436MOL0     H60167   2.234   8.727   6.398 -0.4183  0.0497 -1.5771
  436MOL0     H60168   2.311   8.797   6.254 -2.9448 -1.5454 -0.4813
  437MOL0     O60169   6.577   7.469   2.265 -0.1289 -0.4059 -0.0121
  437MOL0     C60170   6.473   7.535   2.255 -0.6349  0.6081  0.0672
  437MOL0     O60171   6.374   7.516   2.347 -1.2184 -0.4518 -0.0533
  437MOL0     C60172   6.398   7.452   2.468 -0.0565  0.3763 -0.3506
  437MOL0     C60173   6.408   7.311   2.478 -0.4313 -1.2738  0.1577
  437MOL0     C60174   6.433   7.243   2.601  0.4548  1.1167  0.5824
  437MOL0     C60175   6.450   7.325   2.722 -0.5525  0.2860  0.9924
  437MOL0     O60176   6.474   7.275   2.847 -0.3165  0.6748 -1.2080
  437MOL0     C60177   6.443   7.135   2.888  0.4932 -0.8447  0.4243
  437MOL0     C60178   6.553   7.080   2.979  0.7179 -0.4757  0.7159
  437MOL0     C60179   6.541   7.096   3.133  0.4254  0.9756  0.1092
  437MOL0     C60180   6.417   7.026   3.195 -0.2066  0.4292 -0.5158
  437MOL0     C60181   6.430   6.967   3.338  0.5133  0.1806  0.3617
  437MOL0     C60182   6.462   7.070   3.441 -0.4026  0.7645 -0.5249
  437MOL0     C60183   6.360   7.189   3.438  0.7341  0.3209 -0.4051
  437MOL0     C60184   6.370   7.269   3.570 -0.0241 -0.3531 -0.2418
  437MOL0     N60185   6.494   7.348   3.587  0.0344 -0.0237 -0.2444
  437MOL0     C60186   6.502   7.485   3.578 -0.4031 -0.0073 -0.7748
  437MOL0     C60187   6.624   7.512   3.650  0.1151 -0.0731  0.2459
  437MOL0     C60188   6.686   7.652   3.651 -0.3637  0.1352 -0.4970
  437MOL0     C60189   6.784   7.669   3.771  0.3803 -0.5129 -0.2980
  437MOL0     C60190   6.779   7.818   3.814 -0.0253 -0.0478 -0.2455
  437MOL0     C60191   6.890   7.842   3.922  1.1985 -0.5712 -0.1230
  437MOL0     O60192   6.835   7.778   4.042  0.9317  1.3954  0.9465
  437MOL0     C60193   6.888   7.808   4.161  0.3955 -0.8734 -0.1800
  437MOL0     C60194   6.804   7.802   4.273  0.3445 -0.3856  0.3817
  437MOL0     C60195   6.855   7.842   4.396 -0.8755 -0.5769 -0.9768
  437MOL0     C60196   6.751   7.875   4.500 -0.0576 -0.4781 -0.0914
  437MOL0     C60197   6.991   7.889   4.406  0.3889 -0.4586  0.8544
  437MOL0     C60198   7.052   7.941   4.528  0.6396  0.1721 -0.9359
  437MOL0     O60199   7.169   8.009   4.514 -0.2893  0.0846  0.4685
  437MOL0     C60200   7.243   8.018   4.622  0.8686  1.2451 -0.4480
  437MOL0     C60201   7.228   8.133   4.693  0.5528 -0.7758 -0.2868
  437MOL0     C60202   7.301   8.146   4.813 -0.1974 -0.4429  0.0765
  437MOL0     C60203   7.399   8.049   4.845  0.7758 -0.3926 -0.6325
  437MOL0     O60204   7.470   8.053   4.960 -0.0667 -0.6880 -0.0938
  437MOL0     C60205   7.445   7.948   5.046  0.1305  0.6150 -1.4660
  437MOL0     C60206   7.444   8.005   5.197 -0.4279  0.6289 -0.2942
  437MOL0     C60207   7.567   8.092   5.227 -0.3349  0.0399 -0.2703
  437MOL0     C60208   7.622   8.066   5.370 -0.0972  0.1552 -0.4472
  437MOL0     C60209   7.705   7.936   5.396  0.7975  0.8813 -0.4371
  437MOL0     C60210   7.685   7.854   5.524 -0.5576  0.1711 -0.6638
  437MOL0     C60211   7.549   7.790   5.535  0.6649 -0.0751 -0.3409
  437MOL0     C60212   7.536   7.736   5.673  0.6516  0.2939  0.1006
  437MOL0    Cl60213   7.676   7.653   5.731  0.1562 -0.0411 -0.2053
  437MOL0     C60214   7.418   7.931   4.767  0.7947  0.5409 -0.1974
  437MOL0     C60215   7.328   7.918   4.659 -1.0352  0.1843  0.2724
  437MOL0     O60216   6.990   7.930   4.626 -0.8443 -0.5396 -0.1808
  437MOL0     C60217   7.074   7.874   4.294  0.7795 -0.3131 -0.3580
  437MOL0     C60218   7.021   7.843   4.174  0.2637  0.2963 -0.2238
  437MOL0     N60219   6.670   7.397   3.703 -0.5300  0.8263  0.5377
  437MOL0     N60220   6.588   7.308   3.681  0.5503  0.1503 -0.0291
  437MOL0     C60221   6.443   7.463   2.711  0.1742  0.2323  0.6738
  437MOL0     C60222   6.417   7.527   2.589 -0.3784 -0.2560 -1.1137
  437MOL0     C60223   6.451   7.617   2.133  0.3436  0.3671  0.0384
  437MOL0     C60224   6.542   7.589   2.025  0.0151  0.4184  0.2342
  437MOL0     C60225   6.551   7.675   1.916  0.1658 -0.3434 -0.4670
  437MOL0     C60226   6.447   7.773   1.898  0.0878 -0.0615  0.3286
  437MOL0     O60227   6.453   7.872   1.799 -0.5225  0.0200  0.0274
  437MOL0     C60228   6.543   7.869   1.686 -0.5342 -0.9947  0.5023
  437MOL0     C60229   6.502   7.754   1.589 -0.1316 -0.4925 -0.5365
  437MOL0     C60230   6.553   7.766   1.443 -0.7669  0.2252  0.4283
  437MOL0     C60231   6.697   7.726   1.430 -0.2680 -0.1814 -0.0767
  437MOL0     C60232   6.722   7.590   1.473 -0.3604  0.8780  0.3139
  437MOL0     C60233   6.753   7.482   1.519 -0.7625  0.2562 -0.3624
  437MOL0     C60234   6.351   7.783   1.997  0.1156  0.5905 -0.2747
  437MOL0     C60235   6.350   7.716   2.120 -0.1219 -0.4867  0.1877
  437MOL0     C60236   6.250   7.754   2.230  0.1837 -0.1448 -0.0074
  437MOL0     H60237   6.394   7.263   2.381 -3.4156 -1.1024  0.4107
  437MOL0     H60238   6.458   7.138   2.605 -0.6914  0.7769 -0.4673
  437MOL0     H60239   6.427   7.068   2.803  1.7631 -0.6178 -0.0144
  437MOL0     H60240   6.352   7.143   2.948  0.4575 -0.4950  0.3257
  437MOL0     H60241   6.553   6.972   2.966 -0.6697 -0.2383 -1.9810
  437MOL0     H60242   6.651   7.117   2.945 -0.3135  0.1371 -1.7815
  437MOL0     H60243   6.621   7.033   3.173 -1.6676  0.1701  3.4410
  437MOL0     H60244   6.556   7.199   3.165  1.3062  0.8741  0.0397
  437MOL0     H60245   6.331   7.094   3.190 -2.8079 -2.5411  0.1084
  437MOL0     H60246   6.388   6.950   3.122 -3.1586  1.6245 -0.7584
  437MOL0     H60247   6.509   6.891   3.327  0.0213 -0.0253 -2.2709
  437MOL0     H60248   6.336   6.915   3.360  0.6326 -1.4143 -2.4559
  437MOL0     H60249   6.458   7.011   3.533 -0.9742  0.1324 -0.9476
  437MOL0     H60250   6.565   7.106   3.428  1.7156 -2.8000  3.6228
  437MOL0     H60251   6.256   7.155   3.438  0.8063  0.0968 -0.6748
  437MOL0     H60252   6.366   7.249   3.346  2.0347  0.0942 -0.4950
  437MOL0     H60253   6.284   7.337   3.570 -0.8908 -1.4023  0.7603
  437MOL0     H60254   6.357   7.208   3.660 -1.1993  1.2630  0.7543
  437MOL0     H60255   6.441   7.549   3.514  1.4482 -0.8997 -3.6344
  437MOL0     H60256   6.603   7.722   3.644  0.4796  1.1537 -0.6798
  437MOL0     H60257   6.746   7.656   3.559  0.6963  2.2467  0.1933
  437MOL0     H60258   6.749   7.608   3.854 -2.7331  0.7950 -0.5359
  437MOL0     H60259   6.887   7.638   3.748  0.7840  1.3042 -1.1675
  437MOL0     H60260   6.808   7.891   3.738  0.7736 -0.0527  0.0451
  437MOL0     H60261   6.680   7.841   3.854  0.9302  2.7027  0.8252
  437MOL0     H60262   6.986   7.808   3.880  2.5248  1.1977  1.3093
  437MOL0     H60263   6.895   7.950   3.939  1.0039  0.0539 -3.4130
  437MOL0     H60264   6.700   7.773   4.260 -0.1888  0.8565  1.5830
  437MOL0     H60265   6.774   7.823   4.593  0.4257 -0.1552 -0.0262
  437MOL0     H60266   6.653   7.835   4.475 -0.3010  0.6574 -1.0855
  437MOL0     H60267   6.747   7.984   4.512  4.1292 -0.2789  0.9445
  437MOL0     H60268   7.158   8.210   4.661 -0.7836 -1.7956  0.1159
  437MOL0     H60269   7.277   8.230   4.878 -1.3643 -0.8075  0.1441
  437MOL0     H60270   7.350   7.894   5.033  0.6915 -0.5323 -0.9418
  437MOL0     H60271   7.525   7.874   5.049  1.0052  1.5745  0.3864
  437MOL0     H60272   7.358   8.074   5.192 -0.0148  1.0959 -4.7187
  437MOL0     H60273   7.419   7.932   5.275  2.0645  1.4220  1.3892
  437MOL0     H60274   7.544   8.199   5.229  0.1223  0.1327  0.8545
  437MOL0     H60275   7.641   8.069   5.150 -1.0160 -2.8845 -0.1496
  437MOL0     H60276   7.529   8.055   5.429  0.1098 -1.7095 -0.3974
  437MOL0     H60277   7.685   8.147   5.406  2.3910 -1.9572  0.2541
  437MOL0     H60278   7.670   7.867   5.319  0.6628 -1.3815  1.5496
  437MOL0     H60279   7.806   7.975   5.383 -0.1752  3.4664 -0.8342
  437MOL0     H60280   7.712   7.920   5.608 -0.5681  0.0051 -0.5300
  437MOL0     H60281   7.763   7.777   5.523  0.0779  0.7423  1.0276
  437MOL0     H60282   7.534   7.709   5.463  1.6663 -1.5083  1.0130
  437MOL0     H60283   7.466   7.858   5.515 -0.8518 -1.9273 -0.5690
  437MOL0     H60284   7.453   7.665   5.665  1.7042 -0.7693 -2.2023
  437MOL0     H60285   7.521   7.823   5.738 -1.3312 -0.3181  0.5177
  437MOL0     H60286   7.492   7.858   4.799  0.8190  1.6355  2.4930
  437MOL0     H60287   7.326   7.833   4.592  1.4831  1.0623 -1.0537
  437MOL0     H60288   7.181   7.887   4.307  0.4359  2.0074  0.7139
  437MOL0     H60289   7.086   7.855   4.088 -0.2571  3.0584 -0.3304
  437MOL0     H60290   6.451   7.528   2.797 -0.2856  1.6434 -0.3240
  437MOL0     H60291   6.398   7.634   2.601 -0.1904 -0.5059  2.3799
  437MOL0     H60292   6.599   7.497   2.021  0.4208  0.6921 -0.3472
  437MOL0     H60293   6.628   7.675   1.840  2.4396  7.0291  0.9906
  437MOL0     H60294   6.533   7.965   1.634 -0.6939 -0.4947  1.4257
  437MOL0     H60295   6.648   7.855   1.714 -0.2954  1.0756  0.8136
  437MOL0     H60296   6.393   7.750   1.583 -0.2012  1.4923 -1.3210
  437MOL0     H60297   6.519   7.653   1.628  0.4985 -1.1953 -2.5328
  437MOL0     H60298   6.500   7.697   1.377  0.3943 -1.6301  1.3491
  437MOL0     H60299   6.537   7.871   1.415  1.2446 -0.1733 -2.7832
  437MOL0     H60300   6.762   7.794   1.487  1.6337  0.3675 -2.7106
  437MOL0     H60301   6.733   7.746   1.329 -1.3274  0.3110 -0.3707
  437MOL0     H60302   6.787   7.395   1.572  0.0195  2.1314  2.4088
  437MOL0     H60303   6.277   7.862   1.986 -3.4655 -2.5605 -0.6966
  437MOL0     H60304   6.307   7.803   2.309  1.2883 -0.6595 -0.4723
  437MOL0     H60305   6.176   7.822   2.186  0.8999  2.1861  2.1290
  437MOL0     H60306   6.198   7.669   2.274 -0.8138 -0.1170 -1.0763
  438MOL0     O60307   6.219   1.209  10.466  0.7919 -0.7833  0.4694
  438MOL0     C60308   6.338   1.190  10.496 -1.1763 -0.1584 -0.9442
  438MOL0     O60309   6.414   1.272  10.566  0.3649  0.6908  0.1188
  438MOL0     C60310   6.378   1.401  10.618  0.4247  1.4685 -0.6698
  438MOL0     C60311   6.268   1.477  10.587  0.6363 -0.6787  0.2449
  438MOL0     C60312   6.248   1.600  10.642 -0.4419 -0.0028 -0.6183
  438MOL0     C60313   6.334   1.653  10.741 -0.7362  0.9281  0.9421
  438MOL0     O60314   6.304   1.775  10.790  0.6414 -0.4577 -0.4242
  438MOL0     C60315   6.238   1.764  10.918 -0.0897 -0.6147  0.0937
  438MOL0     C60316   6.220   1.905  10.973  0.4593 -0.6821  0.5432
  438MOL0     C60317   6.357   1.967  11.001 -0.4657  0.4995  1.2354
  438MOL0     C60318   6.325   2.094  11.078 -0.2493  0.5245 -0.0267
  438MOL0     C60319   6.442   2.189  11.096  0.2362 -0.2730  0.6199
  438MOL0     C60320   6.445   2.294  11.210 -0.2434  0.2228  0.0263
  438MOL0     C60321   6.380   2.235  11.327  0.7691 -0.2875 -0.3263
  438MOL0     C60322   6.379   2.313  11.466 -0.1138 -1.0436 -0.2733
  438MOL0     N60323   6.279   2.419  11.473  0.3805  0.1979  0.4995
  438MOL0     C60324   6.145   2.400  11.454  0.1295  0.0668 -0.8334
  438MOL0     C60325   6.107   2.523  11.496  0.7457 -0.5894  0.3125
  438MOL0     C60326   5.969   2.567  11.514  0.1041  0.6097  0.5244
  438MOL0     C60327   5.916   2.647  11.391  0.4789 -0.1571 -0.2947
  438MOL0     C60328   5.801   2.746  11.424 -0.4600 -0.0980 -1.7098
  438MOL0     C60329   5.722   2.813  11.311 -0.4120 -0.7179 -0.2165
  438MOL0     O60330   5.808   2.878  11.211 -0.8176 -0.3723  0.4223
  438MOL0     C60331   5.904   2.970  11.254 -0.6857  0.1275 -0.3492
  438MOL0     C60332   5.871   3.068  11.349 -0.1344 -0.3638  0.3167
  438MOL0     C60333   5.966   3.166  11.377  0.4014 -0.8680 -0.0969
  438MOL0     C60334   5.918   3.272  11.477 -0.6719  0.1094 -0.4360
  438MOL0     C60335   6.098   3.163  11.314 -0.6389  0.2597  0.3840
  438MOL0     C60336   6.207   3.254  11.344  0.7803  0.1885 -0.7446
  438MOL0     O60337   6.334   3.193  11.359 -0.1814 -0.3570 -0.0436
  438MOL0     C60338   6.435   3.277  11.327 -0.2487 -0.2015  0.6973
  438MOL0     C60339   6.485   3.286  11.193 -0.7825 -0.0195 -0.0649
  438MOL0     C60340   6.599   3.368  11.176  0.6526 -0.4926 -0.2909
  438MOL0     C60341   6.664   3.447  11.271 -0.3204 -0.0698  0.1038
  438MOL0     O60342   6.773   3.531  11.254 -0.1835  1.2622  0.1870
  438MOL0     C60343   6.827   3.561  11.124  0.0656  0.1904  0.4582
  438MOL0     C60344   6.972   3.508  11.096  0.0674 -0.3567 -0.0144
  438MOL0     C60345   6.974   3.364  11.060 -0.2142 -0.2713  0.0033
  438MOL0     C60346   7.068   3.325  10.940  0.0506  0.1769  0.4700
  438MOL0     C60347   7.220   3.300  10.978 -0.0388  0.6656 -0.8219
  438MOL0     C60348   7.325   3.329  10.862  0.8736  0.4391 -0.4122
  438MOL0     C60349   7.309   3.465  10.801 -0.6358 -0.0749  0.2073
  438MOL0     C60350   7.313   3.569  10.913  0.5060  0.2336  0.8900
  438MOL0    Cl60351   7.482   3.596  10.962 -0.0722  0.3003  0.1447
  438MOL0     C60352   6.610   3.433  11.398  0.0642 -0.1653  0.8538
  438MOL0     C60353   6.504   3.344  11.426  0.7555  1.1565  0.1392
  438MOL0     O60354   6.178   3.371  11.359 -0.4029  0.2701  1.0730
  438MOL0     C60355   6.127   3.044  11.245  0.3907  0.4870  0.0121
  438MOL0     C60356   6.026   2.954  11.208 -0.7685 -0.4163 -0.1817
  438MOL0     N60357   6.205   2.615  11.521  0.5256  1.1749 -1.1580
  438MOL0     N60358   6.306   2.548  11.509 -0.4359 -0.4099  0.1934
  438MOL0     C60359   6.446   1.581  10.777  0.5977 -0.1400 -0.1044
  438MOL0     C60360   6.469   1.456  10.710  0.5075 -0.2867  0.2200
  438MOL0     C60361   6.379   1.048  10.487 -0.8304 -0.0123 -1.4392
  438MOL0     C60362   6.506   1.020  10.552 -0.3190  0.1393  0.6814
  438MOL0     C60363   6.563   0.890  10.561 -0.0127 -0.2620  0.2871
  438MOL0     C60364   6.504   0.773  10.507  0.5776 -0.6589 -0.0072
  438MOL0     O60365   6.565   0.646  10.524  0.1484 -0.4450  0.0720
  438MOL0     C60366   6.471   0.533  10.518 -0.4100 -0.9123 -0.1686
  438MOL0     C60367   6.506   0.415  10.609 -0.2816 -0.2734  0.6329
  438MOL0     C60368   6.402   0.304  10.602 -0.4019  0.6823  0.5592
  438MOL0     C60369   6.393   0.229  10.460 -0.5021 -0.4393  0.4811
  438MOL0     C60370   6.370   0.089  10.471  0.2102  0.7422 -0.2926
  438MOL0     C60371   6.350  -0.025  10.502  0.1045 -0.2802 -0.5838
  438MOL0     C60372   6.388   0.806  10.437  0.6373 -0.1963 -0.3560
  438MOL0     C60373   6.318   0.933  10.444 -0.1072  0.9557  0.8575
  438MOL0     C60374   6.186   0.938  10.369  0.7866 -0.7759  0.4989
  438MOL0     H60375   6.194   1.450  10.512  0.0492  2.3655 -0.4211
  438MOL0     H60376   6.154   1.639  10.603 -0.3489  2.4374  1.3585
  438MOL0     H60377   6.293   1.712  10.997 -1.8331 -1.4395  0.7946
  438MOL0     H60378   6.139   1.719  10.917 -1.9361  3.1393 -1.1635
  438MOL0     H60379   6.165   1.966  10.901  0.7108  3.0169  3.1744
  438MOL0     H60380   6.173   1.909  11.072  2.0634 -1.8170  1.4050
  438MOL0     H60381   6.412   1.904  11.072 -2.0572 -4.4937 -1.4927
  438MOL0     H60382   6.421   1.996  10.917  0.9237 -0.2727  1.9673
  438MOL0     H60383   6.247   2.148  11.024 -1.2085 -0.2017  0.5891
  438MOL0     H60384   6.282   2.065  11.174  1.9399  0.8368  1.1206
  438MOL0     H60385   6.447   2.242  11.000  1.9819 -1.3129  0.0904
  438MOL0     H60386   6.533   2.129  11.087  0.1264 -0.3124 -0.3419
  438MOL0     H60387   6.549   2.328  11.217  0.5253 -1.9076 -0.1058
  438MOL0     H60388   6.392   2.387  11.188 -4.8757 -1.2431  3.4271
  438MOL0     H60389   6.441   2.147  11.345  1.0494  0.1933  1.1830
  438MOL0     H60390   6.277   2.209  11.303  0.6965 -1.4207  1.1504
  438MOL0     H60391   6.369   2.236  11.542  1.9245 -0.9050  0.1842
  438MOL0     H60392   6.477   2.360  11.482 -0.7965  0.2748  0.1558
  438MOL0     H60393   6.083   2.315  11.426  0.2663 -0.0385 -0.8196
  438MOL0     H60394   5.954   2.606  11.615 -1.8894 -1.1262  0.9724
  438MOL0     H60395   5.901   2.481  11.518  0.0227  0.6244 -0.4617
  438MOL0     H60396   5.992   2.719  11.360  1.5112 -0.3370  1.6980
  438MOL0     H60397   5.885   2.577  11.312 -1.6025 -0.1799  0.4663
  438MOL0     H60398   5.721   2.696  11.480  1.2853 -1.4262 -0.3062
  438MOL0     H60399   5.846   2.822  11.488  1.1884 -2.0522 -0.4421
  438MOL0     H60400   5.659   2.734  11.269  0.9441 -1.8280 -0.2314
  438MOL0     H60401   5.662   2.897  11.347 -1.2389  0.0911 -3.1932
  438MOL0     H60402   5.785   3.074  11.414 -0.8612 -1.5569 -0.4909
  438MOL0     H60403   5.939   3.236  11.578 -1.9596  0.3841 -0.0473
  438MOL0     H60404   5.810   3.284  11.461 -0.4146 -0.8497 -3.4174
  438MOL0     H60405   5.961   3.371  11.457 -1.2145  0.3523 -0.4254
  438MOL0     H60406   6.439   3.226  11.115 -0.4477 -1.3183  0.7113
  438MOL0     H60407   6.637   3.375  11.075  1.7899 -1.0122  0.0740
  438MOL0     H60408   6.767   3.524  11.040  1.9907 -0.4419 -0.7308
  438MOL0     H60409   6.846   3.668  11.115  3.9305 -0.3543  0.1813
  438MOL0     H60410   7.008   3.565  11.010  0.5484  1.2561  1.2141
  438MOL0     H60411   7.035   3.520  11.184  0.0379 -4.5135  0.7863
  438MOL0     H60412   6.878   3.330  11.021 -1.8046  2.4463  1.2761
  438MOL0     H60413   6.989   3.312  11.155 -4.0280 -1.0640  0.3424
  438MOL0     H60414   7.064   3.399  10.860 -0.0593 -0.4946 -0.1638
  438MOL0     H60415   7.030   3.236  10.888 -0.6805  1.2818 -0.9610
  438MOL0     H60416   7.249   3.353  11.070  2.2517 -1.0984 -0.4361
  438MOL0     H60417   7.222   3.194  11.002 -2.5353  0.3410 -1.7743
  438MOL0     H60418   7.303   3.261  10.779  3.2059 -0.3710 -0.4604
  438MOL0     H60419   7.431   3.312  10.886  0.8036 -2.9307 -1.9594
  438MOL0     H60420   7.209   3.479  10.759 -0.2137  0.5405 -0.6224
  438MOL0     H60421   7.388   3.485  10.728  0.6034 -0.3576  1.4453
  438MOL0     H60422   7.255   3.548  11.004 -0.6394 -2.5934 -0.3805
  438MOL0     H60423   7.276   3.662  10.870 -1.1280 -1.1871 -0.9441
  438MOL0     H60424   6.642   3.497  11.479 -0.1451  0.7805  0.1987
  438MOL0     H60425   6.473   3.320  11.527 -1.0696  0.7375 -0.4811
  438MOL0     H60426   6.232   3.033  11.221  0.7376  2.3774  0.5481
  438MOL0     H60427   6.050   2.871  11.143 -0.3654  1.5939 -2.7749
  438MOL0     H60428   6.513   1.626  10.849  1.4546 -0.5480 -0.6256
  438MOL0     H60429   6.561   1.401  10.725  3.3299  3.9461  0.3057
  438MOL0     H60430   6.557   1.097  10.608 -1.0052 -1.7959  4.2742
  438MOL0     H60431   6.657   0.883  10.615  0.6570  0.3733 -0.7683
  438MOL0     H60432   6.368   0.561  10.543 -0.0207 -0.5684  1.1374
  438MOL0     H60433   6.475   0.506  10.412 -2.7012  2.8324 -1.3859
  438MOL0     H60434   6.507   0.455  10.711  3.3101 -1.0539  1.0457
  438MOL0     H60435   6.610   0.395  10.583  0.5559  2.8710  1.0828
  438MOL0     H60436   6.428   0.226  10.674 -2.8065 -1.2743 -0.5586
  438MOL0     H60437   6.302   0.332  10.635 -0.6835 -1.9177  2.2387
  438MOL0     H60438   6.484   0.249  10.403  0.5355 -1.8434  1.5871
  438MOL0     H60439   6.311   0.272  10.401  1.3769 -0.8518 -2.6836
  438MOL0     H60440   6.337  -0.123  10.542 -0.4882  0.8296  2.2140
  438MOL0     H60441   6.343   0.719  10.389 -2.1553 -0.5217  2.4833
  438MOL0     H60442   6.167   0.853  10.303 -0.1707 -0.7109  0.6677
  438MOL0     H60443   6.121   0.930  10.457  0.8446 -2.0867  0.4466
  438MOL0     H60444   6.169   1.026  10.307 -0.1269 -0.4415  1.1858
  439MOL0     O60445   9.481   0.148   1.081 -0.0889  0.4704 -0.1754
  439MOL0     C60446   9.418   0.164   0.975 -0.0879 -0.2164 -0.6767
  439MOL0     O60447   9.464   0.184   0.850 -0.5725  0.5938  0.8072
  439MOL0     C60448   9.595   0.211   0.832  0.4243  0.0508  0.1085
  439MOL0     C60449   9.697   0.114   0.866  1.2553  1.1076  0.2601
  439MOL0     C60450   9.830   0.140   0.836  0.0439  0.0333 -0.3049
  439MOL0     C60451   9.867   0.261   0.768 -0.9400  0.5964 -0.3432
  439MOL0     O60452  10.009   0.274   0.765  0.1320  0.4043 -0.8409
  439MOL0     C60453  10.049   0.371   0.680  0.3620 -0.8921 -0.1318
  439MOL0     C60454  10.199   0.369   0.670 -0.7177 -0.8901  0.6174
  439MOL0     C60455  10.255   0.233   0.607  0.2075 -0.1795 -0.1900
  439MOL0     C60456  10.271   0.123   0.718 -0.4100  0.1110  0.0729
  439MOL0     C60457  10.333   0.007   0.643  0.4224  0.1083  0.1106
  439MOL0     C60458  10.374  -0.098   0.742  0.1588  0.3239 -0.5659
  439MOL0     C60459  10.474  -0.037   0.849 -0.0819  0.1853  1.6076
  439MOL0     C60460  10.565  -0.133   0.937 -0.9267  0.9338 -0.2868
  439MOL0     N60461  10.494  -0.252   0.988  0.2154  0.1928 -0.1912
  439MOL0     C60462  10.375  -0.261   1.056 -0.1992 -0.4088  0.6635
  439MOL0     C60463  10.366  -0.394   1.083  0.4700 -0.6823  0.1086
  439MOL0     C60464  10.249  -0.457   1.152  0.0583 -0.3161  0.2891
  439MOL0     C60465  10.305  -0.542   1.266  0.6511 -0.3897  0.4395
  439MOL0     C60466  10.197  -0.626   1.327  0.1495  0.0432 -0.2140
  439MOL0     C60467  10.237  -0.689   1.461 -0.0488 -0.7207 -0.1695
  439MOL0     O60468  10.339  -0.775   1.430  0.2034 -0.1400  0.3101
  439MOL0     C60469  10.411  -0.828   1.537  0.6666  0.1980  0.8315
  439MOL0     C60470  10.373  -0.952   1.577  0.2849 -0.0349  0.2199
  439MOL0     C60471  10.445  -1.020   1.676  0.0834 -0.5054  0.0385
  439MOL0     C60472  10.411  -1.162   1.716  0.0404 -0.4045 -0.3823
  439MOL0     C60473  10.546  -0.940   1.745  0.5022  0.0357  0.2161
  439MOL0     C60474  10.604  -0.987   1.876  0.3747  0.1676 -0.0888
  439MOL0     O60475  10.720  -0.927   1.911 -0.2388  0.8285  0.3511
  439MOL0     C60476  10.781  -0.950   2.028  0.0347 -0.6172  0.8464
  439MOL0     C60477  10.923  -0.978   2.025  0.4969 -0.1611 -0.4258
  439MOL0     C60478  10.982  -1.024   2.154 -0.7432  0.3564  0.3334
  439MOL0     C60479  10.902  -1.023   2.276  0.3536 -0.2730  0.9771
  439MOL0     O60480  10.971  -1.057   2.383  0.3492  0.2674 -0.2285
  439MOL0     C60481  10.911  -1.054   2.513  1.1450 -0.1451 -0.4107
  439MOL0     C60482  10.973  -1.136   2.621 -0.0579 -1.3560  1.0795
  439MOL0     C60483  10.936  -1.282   2.595 -1.1850 -0.9645  0.4787
  439MOL0     C60484  11.012  -1.379   2.692 -0.2951 -1.2387  0.2376
  439MOL0     C60485  10.983  -1.530   2.673 -0.0944  0.4811  0.3736
  439MOL0     C60486  11.053  -1.590   2.539 -0.3450 -0.3195 -0.5591
  439MOL0     C60487  11.207  -1.583   2.546  0.3889 -0.4631 -0.2114
  439MOL0     C60488  11.265  -1.604   2.406 -0.3054  0.1357  0.3299
  439MOL0    Cl60489  11.439  -1.583   2.421 -0.1576  0.1787 -0.1949
  439MOL0     C60490  10.765  -0.987   2.267  0.0829  0.0388 -0.1589
  439MOL0     C60491  10.704  -0.953   2.144 -0.6235  0.2304  0.5414
  439MOL0     O60492  10.557  -1.081   1.944 -0.2925 -0.1972 -0.0452
  439MOL0     C60493  10.576  -0.810   1.703  1.1642 -0.9096  0.3816
  439MOL0     C60494  10.517  -0.757   1.592 -0.3299 -0.0888  0.5654
  439MOL0     N60495  10.467  -0.454   1.012 -0.0336  1.4444 -0.6373
  439MOL0     N60496  10.552  -0.375   0.971 -0.2018  0.5058 -0.9383
  439MOL0     C60497   9.768   0.356   0.741 -0.5322 -0.3789 -0.3266
  439MOL0     C60498   9.630   0.335   0.776 -0.3971  0.2571  0.2827
  439MOL0     C60499   9.263   0.176   0.997  0.1595  0.1630 -0.3446
  439MOL0     C60500   9.214   0.126   1.123 -0.0670 -1.8867  0.0304
  439MOL0     C60501   9.078   0.126   1.157 -1.9234 -0.6258  0.6905
  439MOL0     C60502   8.988   0.182   1.063  0.8219 -1.0521 -0.5226
  439MOL0     O60503   8.852   0.195   1.096 -1.3212  1.0159  0.0888
  439MOL0     C60504   8.786   0.085   1.148 -0.3718  0.8023  0.5440
  439MOL0     C60505   8.686   0.125   1.263 -1.1367  0.3540 -0.1790
  439MOL0     C60506   8.753   0.168   1.393 -0.1958  0.2880 -0.0392
  439MOL0     C60507   8.663   0.268   1.470  0.2299 -0.0499  0.8475
  439MOL0     C60508   8.722   0.303   1.600  0.0035  0.7483 -0.2753
  439MOL0     C60509   8.753   0.335   1.710 -0.7096 -0.6018 -1.0281
  439MOL0     C60510   9.030   0.219   0.938  0.1320 -0.3843 -0.3962
  439MOL0     C60511   9.164   0.218   0.904  0.0409 -0.1949  0.0188
  439MOL0     C60512   9.197   0.256   0.761  0.5748  1.1478  0.3165
  439MOL0     H60513   9.658   0.017   0.895  0.7977  0.6862 -1.6211
  439MOL0     H60514   9.910   0.068   0.848 -0.1670 -0.3589 -1.1352
  439MOL0     H60515  10.019   0.472   0.710  1.4316 -0.1083 -1.5640
  439MOL0     H60516   9.997   0.353   0.586 -0.0901 -1.1798  0.1714
  439MOL0     H60517  10.240   0.451   0.610 -0.0707 -0.6725  1.3555
  439MOL0     H60518  10.238   0.382   0.771 -0.8106  0.0838  0.5325
  439MOL0     H60519  10.199   0.200   0.519  2.7964  0.8676 -2.3283
  439MOL0     H60520  10.356   0.248   0.570  1.6191  0.1343  3.3512
  439MOL0     H60521  10.318   0.169   0.806 -2.2713 -0.5315  1.4755
  439MOL0     H60522  10.170   0.092   0.748  0.8966 -1.1016  3.8288
  439MOL0     H60523  10.429   0.035   0.599  1.2166  0.7674  2.1272
  439MOL0     H60524  10.276  -0.039   0.562  1.4317  0.5795 -0.8771
  439MOL0     H60525  10.289  -0.140   0.797  1.9385  1.0062  2.9913
  439MOL0     H60526  10.436  -0.177   0.699  0.0666  0.3242 -0.6999
  439MOL0     H60527  10.420   0.017   0.928  0.5859  2.4714  0.5685
  439MOL0     H60528  10.533   0.040   0.799  0.7916 -1.1790  0.4653
  439MOL0     H60529  10.648  -0.168   0.875  1.1356  1.0096  2.2257
  439MOL0     H60530  10.605  -0.072   1.019  0.4859 -0.8447  0.4183
  439MOL0     H60531  10.303  -0.188   1.093 -0.8250 -1.7043  2.1216
  439MOL0     H60532  10.201  -0.526   1.082  1.6208  0.1015 -1.2781
  439MOL0     H60533  10.176  -0.386   1.190 -0.1446 -0.1150 -0.4774
  439MOL0     H60534  10.386  -0.603   1.225 -1.5439 -2.8220 -0.5554
  439MOL0     H60535  10.345  -0.472   1.340 -2.4441  1.2368  0.7588
  439MOL0     H60536  10.114  -0.555   1.337  2.7754  3.1149  1.7504
  439MOL0     H60537  10.160  -0.701   1.257  1.6492  1.6091 -2.8369
  439MOL0     H60538  10.276  -0.605   1.520  0.7647  0.3840 -2.1838
  439MOL0     H60539  10.154  -0.746   1.505 -0.0852 -2.7438 -2.6405
  439MOL0     H60540  10.292  -0.998   1.521  1.4103 -1.2776 -0.4559
  439MOL0     H60541  10.492  -1.228   1.748  0.3224  0.3939  0.5845
  439MOL0     H60542  10.374  -1.202   1.621 -2.4259  1.6896 -0.4363
  439MOL0     H60543  10.334  -1.174   1.792 -0.6757  1.0623 -0.8375
  439MOL0     H60544  10.965  -1.000   1.927 -1.4848 -2.8019 -0.7947
  439MOL0     H60545  11.079  -1.073   2.150  0.5597  2.7162  1.0975
  439MOL0     H60546  10.908  -0.946   2.534 -2.2716 -0.1397 -0.2488
  439MOL0     H60547  10.805  -1.082   2.511  1.5290 -1.8356  0.7831
  439MOL0     H60548  11.079  -1.109   2.622  0.1223 -1.9297  3.6192
  439MOL0     H60549  10.925  -1.111   2.716  1.6685  3.3733  0.9730
  439MOL0     H60550  10.977  -1.312   2.499  3.9629  2.6441  1.1318
  439MOL0     H60551  10.827  -1.298   2.601 -1.2278 -0.6297  0.6117
  439MOL0     H60552  10.980  -1.352   2.793  1.3229 -3.1944  1.3554
  439MOL0     H60553  11.119  -1.355   2.687 -0.5403 -0.1566 -0.1705
  439MOL0     H60554  11.017  -1.598   2.751  3.9639 -1.0274 -2.3820
  439MOL0     H60555  10.873  -1.529   2.670 -0.1081  2.0539  0.4213
  439MOL0     H60556  11.022  -1.533   2.451  0.5876 -2.7821 -2.6163
  439MOL0     H60557  11.011  -1.690   2.521 -3.0114  0.2418  1.7671
  439MOL0     H60558  11.235  -1.675   2.599  0.7451 -0.2907 -0.0967
  439MOL0     H60559  11.250  -1.495   2.594  0.7354 -0.8023  0.1143
  439MOL0     H60560  11.224  -1.523   2.345  2.6722  0.0930 -1.9442
  439MOL0     H60561  11.245  -1.702   2.361 -1.4997 -0.1987  1.5047
  439MOL0     H60562  10.696  -0.979   2.351 -0.2111 -0.0108 -0.3939
  439MOL0     H60563  10.605  -0.908   2.145 -0.1134  1.4070  0.8731
  439MOL0     H60564  10.646  -0.749   1.760  0.5668 -0.1055  0.2797
  439MOL0     H60565  10.544  -0.660   1.551  0.3470 -0.8095 -0.7512
  439MOL0     H60566   9.793   0.454   0.701  1.9681  0.6068  3.1668
  439MOL0     H60567   9.555   0.412   0.764 -0.3237  0.1448 -1.1951
  439MOL0     H60568   9.276   0.091   1.205 -4.1647 -1.5011  3.6630
  439MOL0     H60569   9.042   0.082   1.249 -2.9798 -1.0700  0.0866
  439MOL0     H60570   8.743   0.022   1.070 -0.0097  0.0871  0.9094
  439MOL0     H60571   8.854   0.022   1.207  0.0472  1.7688  1.1172
  439MOL0     H60572   8.618   0.040   1.276 -0.3448 -0.2429  0.1146
  439MOL0     H60573   8.626   0.208   1.223 -0.4265  1.2258  0.5578
  439MOL0     H60574   8.769   0.081   1.457 -2.7319 -2.5810 -2.9490
  439MOL0     H60575   8.847   0.212   1.357 -1.0366  1.5265 -0.8126
  439MOL0     H60576   8.564   0.230   1.498  1.3756 -1.8196  2.8090
  439MOL0     H60577   8.647   0.356   1.408  0.5820 -2.2202 -2.5716
  439MOL0     H60578   8.786   0.376   1.803  2.4623 -0.8115 -1.9704
  439MOL0     H60579   8.954   0.244   0.865 -0.8309 -2.3258 -0.1164
  439MOL0     H60580   9.108   0.257   0.698 -1.3425 -2.6698  2.6098
  439MOL0     H60581   9.242   0.355   0.772  0.8600  1.2245 -1.3305
  439MOL0     H60582   9.256   0.184   0.704 -1.9805 -1.3900  0.6466
  440MOL0     O60583   5.545   7.705  10.751 -0.0281  0.2158 -0.3321
  440MOL0     C60584   5.587   7.709  10.643 -0.0871  0.1437  0.5314
  440MOL0     O60585   5.545   7.634  10.538  0.3275  1.1665 -0.5050
  440MOL0     C60586   5.426   7.572  10.558  0.0080  0.0762  0.5360
  440MOL0     C60587   5.315   7.633  10.614  0.1922  0.6683  0.3679
  440MOL0     C60588   5.195   7.561  10.625 -0.3130  0.9241  0.2252
  440MOL0     C60589   5.196   7.424  10.581 -0.1589 -0.1698  0.2040
  440MOL0     O60590   5.074   7.359  10.589 -0.3388  0.4495  0.0492
  440MOL0     C60591   5.065   7.295  10.721  0.3115 -1.3105  0.1256
  440MOL0     C60592   4.924   7.310  10.766  0.4598 -0.1582 -0.5090
  440MOL0     C60593   4.897   7.267  10.910  0.1617 -0.1111  0.5019
  440MOL0     C60594   4.907   7.118  10.933  0.0451  0.8790  0.1014
  440MOL0     C60595   4.779   7.052  10.888  0.5894  0.5785 -0.1247
  440MOL0     C60596   4.775   6.904  10.936  0.3173  0.7727 -0.0738
  440MOL0     C60597   4.662   6.838  10.869  0.5029  1.0727 -0.7070
  440MOL0     C60598   4.693   6.689  10.870  0.2156 -1.0516 -0.3880
  440MOL0     N60599   4.577   6.608  10.822  0.6530 -0.5564 -0.1352
  440MOL0     C60600   4.503   6.624  10.703  0.0044 -0.2367 -0.4475
  440MOL0     C60601   4.405   6.523  10.717 -0.5281 -0.2310 -0.0208
  440MOL0     C60602   4.296   6.498  10.621 -0.4034  0.1230 -0.5103
  440MOL0     C60603   4.229   6.637  10.582 -0.1873 -0.2967 -0.1978
  440MOL0     C60604   4.126   6.683  10.692 -0.4717 -0.0001  0.6129
  440MOL0     C60605   4.072   6.831  10.667 -0.1110  0.0317 -0.4240
  440MOL0     O60606   3.941   6.860  10.719 -0.1721  0.4805 -0.9756
  440MOL0     C60607   3.922   6.858  10.851  0.0512 -0.0654 -0.4782
  440MOL0     C60608   3.808   6.789  10.907  0.0703  1.3027  0.2882
  440MOL0     C60609   3.775   6.799  11.044 -0.8325 -0.0712 -0.7552
  440MOL0     C60610   3.658   6.712  11.095 -0.0551  0.5142  0.5534
  440MOL0     C60611   3.859   6.890  11.128 -0.3729  0.6680  0.0437
  440MOL0     C60612   3.842   6.897  11.278  0.8151  1.4290 -0.4329
  440MOL0     O60613   3.750   6.806  11.332  0.5208  1.1025  0.3295
  440MOL0     C60614   3.754   6.777  11.465 -0.5336  0.6231  0.1254
  440MOL0     C60615   3.849   6.683  11.508 -0.5037  0.7029  0.0007
  440MOL0     C60616   3.840   6.642  11.640 -0.1366 -1.1550 -0.1558
  440MOL0     C60617   3.748   6.695  11.732 -0.4983  0.2129  0.2936
  440MOL0     O60618   3.751   6.669  11.866  0.1439 -0.1630 -0.1370
  440MOL0     C60619   3.668   6.561  11.913  0.0814  0.0013 -0.9059
  440MOL0     C60620   3.514   6.578  11.890 -0.1348  0.4283 -1.0418
  440MOL0     C60621   3.457   6.677  11.988 -0.8731 -0.7858 -0.2379
  440MOL0     C60622   3.335   6.730  11.928  0.2920 -0.1507 -0.3914
  440MOL0     C60623   3.277   6.843  12.016  0.1910  0.5095 -0.4821
  440MOL0     C60624   3.200   6.952  11.930  0.2407  0.5154 -0.7677
  440MOL0     C60625   3.134   7.066  12.002 -0.7432  0.7424 -0.8708
  440MOL0     C60626   3.060   7.159  11.922 -0.0704 -0.7259  1.2117
  440MOL0    Cl60627   3.168   7.241  11.802 -0.3529 -0.3231 -0.2127
  440MOL0     C60628   3.655   6.787  11.689  0.3568 -0.8400 -0.8350
  440MOL0     C60629   3.659   6.837  11.560 -0.8335  1.1681  0.4984
  440MOL0     O60630   3.897   6.984  11.342  0.3133  0.2826  0.7515
  440MOL0     C60631   3.966   6.963  11.070  0.2187  1.0772  0.2179
  440MOL0     C60632   4.004   6.939  10.936  1.1537 -0.0089  0.3599
  440MOL0     N60633   4.417   6.455  10.838  0.0718  0.4419  0.2527
  440MOL0     N60634   4.533   6.497  10.883 -0.1294 -0.9095 -0.0470
  440MOL0     C60635   5.314   7.362  10.532  0.4986  0.4514 -0.5757
  440MOL0     C60636   5.422   7.438  10.509 -1.2735 -0.2178 -0.0213
  440MOL0     C60637   5.714   7.784  10.620  0.6972 -0.1985  0.7440
  440MOL0     C60638   5.782   7.767  10.502  0.1378 -0.0002  0.4974
  440MOL0     C60639   5.882   7.858  10.465 -0.2707  0.2470 -0.0079
  440MOL0     C60640   5.906   7.974  10.539 -0.0617  0.1300  0.4368
  440MOL0     O60641   5.974   8.084  10.488  0.6820  0.1050 -0.3612
  440MOL0     C60642   6.044   8.080  10.364 -0.6719  0.8148  0.2827
  440MOL0     C60643   6.016   8.211  10.289  0.5666 -0.6612 -0.1582
  440MOL0     C60644   6.099   8.333  10.330 -0.3287  0.4881  0.6203
  440MOL0     C60645   6.057   8.469  10.264 -0.0932  0.7803  0.4200
  440MOL0     C60646   6.025   8.475  10.125 -0.0292 -0.1551 -0.5568
  440MOL0     C60647   5.995   8.465  10.013 -0.1189  0.7221  0.1055
  440MOL0     C60648   5.836   7.987  10.662  1.2432  0.2306 -0.1425
  440MOL0     C60649   5.739   7.901  10.703  0.9057  0.2729  0.3863
  440MOL0     C60650   5.673   7.929  10.836  0.2993 -0.5478 -0.1662
  440MOL0     H60651   5.308   7.735  10.650 -1.3647  0.3570  1.0230
  440MOL0     H60652   5.109   7.605  10.676 -0.3591  0.1517  0.8333
  440MOL0     H60653   5.125   7.334  10.803 -0.9019  1.6673 -0.2691
  440MOL0     H60654   5.088   7.191  10.697  1.8257 -0.4696 -2.4688
  440MOL0     H60655   4.882   7.411  10.767 -1.6960 -1.0133  0.2970
  440MOL0     H60656   4.870   7.249  10.693  0.3579 -1.6336  0.7542
  440MOL0     H60657   4.977   7.318  10.963  0.8772 -2.6270  2.0434
  440MOL0     H60658   4.799   7.310  10.936 -0.8259 -1.8471 -0.1426
  440MOL0     H60659   4.991   7.063  10.889 -2.5622 -1.1503 -2.7901
  440MOL0     H60660   4.915   7.105  11.041 -3.0186  1.5022  0.4899
  440MOL0     H60661   4.768   7.057  10.779 -0.5957 -0.8959 -0.1151
  440MOL0     H60662   4.701   7.108  10.941  0.5099  2.2973 -1.9123
  440MOL0     H60663   4.865   6.849  10.907 -0.9999 -1.4319 -0.2408
  440MOL0     H60664   4.768   6.885  11.044 -1.7261  0.8587 -0.1446
  440MOL0     H60665   4.644   6.860  10.763 -1.0249 -3.9790 -1.7546
  440MOL0     H60666   4.571   6.847  10.930  1.5133  0.6824  0.9380
  440MOL0     H60667   4.771   6.665  10.797 -0.0781 -1.1961 -0.6570
  440MOL0     H60668   4.705   6.666  10.976  0.0710  0.2193 -0.0802
  440MOL0     H60669   4.515   6.699  10.626 -1.4238 -0.3407 -0.7977
  440MOL0     H60670   4.226   6.419  10.652  2.0244 -1.6031  0.8925
  440MOL0     H60671   4.339   6.454  10.531  3.0490 -3.0958  2.3916
  440MOL0     H60672   4.306   6.713  10.564 -1.0310  1.2063  2.0706
  440MOL0     H60673   4.165   6.618  10.495  1.6398 -2.7387 -1.1175
  440MOL0     H60674   4.047   6.607  10.688 -0.5703  0.1459 -2.0368
  440MOL0     H60675   4.173   6.686  10.791 -1.3821  2.5936  1.0166
  440MOL0     H60676   4.145   6.904  10.703 -2.1708  0.8058  2.5292
  440MOL0     H60677   4.084   6.857  10.561  0.5789  0.6333 -0.2024
  440MOL0     H60678   3.757   6.718  10.842 -1.9664  0.3256  2.7986
  440MOL0     H60679   3.690   6.628  11.157  2.8506  0.3730 -0.9922
  440MOL0     H60680   3.606   6.665  11.011  3.6997 -1.5318 -0.8318
  440MOL0     H60681   3.599   6.786  11.151  3.1777  4.0829 -0.3454
  440MOL0     H60682   3.910   6.631  11.435 -0.4837  0.6720  0.0391
  440MOL0     H60683   3.908   6.562  11.669  1.3220  0.1173  0.0717
  440MOL0     H60684   3.703   6.479  11.849 -2.2871 -0.8156 -1.2419
  440MOL0     H60685   3.693   6.543  12.018 -2.9091 -0.5969 -0.2149
  440MOL0     H60686   3.476   6.604  11.791 -1.1442 -1.3007 -1.1520
  440MOL0     H60687   3.478   6.478  11.914  2.1426  0.1167  1.4974
  440MOL0     H60688   3.539   6.746  12.005 -0.3621 -1.0451 -1.5482
  440MOL0     H60689   3.435   6.629  12.085  0.6486 -1.1665 -0.0639
  440MOL0     H60690   3.264   6.647  11.918 -2.7615  2.4022 -1.5257
  440MOL0     H60691   3.373   6.775  11.836  0.6157  3.4794  1.3393
  440MOL0     H60692   3.212   6.789  12.085 -1.4608  2.7769 -0.1186
  440MOL0     H60693   3.349   6.879  12.090 -2.2335 -1.1373  2.9407
  440MOL0     H60694   3.123   6.897  11.875 -1.7457  2.0664  0.3597
  440MOL0     H60695   3.256   6.996  11.847 -1.2575  1.7409 -1.1731
  440MOL0     H60696   3.202   7.122  12.066  0.9540 -2.8783  0.7966
  440MOL0     H60697   3.055   7.018  12.061 -1.0993  0.7504 -1.3340
  440MOL0     H60698   3.008   7.235  11.981  1.4648  1.7964 -0.5043
  440MOL0     H60699   2.994   7.091  11.867  1.6314 -1.1317 -0.4425
  440MOL0     H60700   3.590   6.829  11.766  0.3358 -5.1152  1.7817
  440MOL0     H60701   3.590   6.914  11.527 -0.2924  1.0277 -1.0392
  440MOL0     H60702   4.019   7.031  11.136 -0.1794  1.2703  0.3489
  440MOL0     H60703   4.082   6.996  10.888  1.9748 -2.7979 -1.9331
  440MOL0     H60704   5.315   7.258  10.501  1.2162  0.0616  0.6868
  440MOL0     H60705   5.505   7.387  10.461 -1.3924 -1.2064  0.7934
  440MOL0     H60706   5.768   7.674  10.447 -2.2340  0.4431  0.2453
  440MOL0     H60707   5.931   7.826  10.373  0.1796 -0.9183  0.6149
  440MOL0     H60708   6.152   8.075  10.379 -0.6888  0.7642  0.3896
  440MOL0     H60709   6.013   8.002  10.294 -1.6180 -2.1425  3.6908
  440MOL0     H60710   5.908   8.225  10.283  0.3931 -1.1005  1.5126
  440MOL0     H60711   6.057   8.192  10.190  3.9710 -0.6624  1.1247
  440MOL0     H60712   6.088   8.347  10.438 -1.4914  2.5429  0.2948
  440MOL0     H60713   6.206   8.319  10.314  0.2379 -0.4747  4.4127
  440MOL0     H60714   6.136   8.542  10.284  1.1998 -0.5279  0.2740
  440MOL0     H60715   5.968   8.500  10.319 -2.1011 -1.3722 -1.3955
  440MOL0     H60716   5.958   8.464   9.912 -1.4776 -0.0660  0.5844
  440MOL0     H60717   5.828   8.083  10.712 -1.2004 -1.2298  2.5788
  440MOL0     H60718   5.579   7.985  10.826  0.7274 -0.1360 -2.4216
  440MOL0     H60719   5.662   7.846  10.906  1.8303 -1.0261 -0.4587
  440MOL0     H60720   5.739   7.996  10.892  1.4070 -2.2653  0.6536
  441MOL0     O60721   6.885   3.748   5.073  0.2393 -0.0207 -0.1465
  441MOL0     C60722   6.759   3.755   5.062 -0.6059 -0.7431 -0.7679
  441MOL0     O60723   6.672   3.648   5.058 -0.2967 -0.1026 -0.3832
  441MOL0     C60724   6.721   3.523   5.023 -0.7730 -0.8167  0.5745
  441MOL0     C60725   6.697   3.405   5.095  1.2223 -0.2883  0.1776
  441MOL0     C60726   6.730   3.284   5.047  0.4977  0.2277  0.9470
  441MOL0     C60727   6.799   3.281   4.916 -0.7048 -0.4941  0.1903
  441MOL0     O60728   6.823   3.165   4.858 -0.0547  0.8824 -0.1727
  441MOL0     C60729   6.805   3.041   4.932 -0.3206  0.8379  0.3377
  441MOL0     C60730   6.866   2.918   4.853  0.3756 -0.2768 -0.7247
  441MOL0     C60731   7.009   2.937   4.810  0.6961  0.3635 -0.7294
  441MOL0     C60732   7.060   2.811   4.729 -0.2423 -0.3345  0.1665
  441MOL0     C60733   7.204   2.825   4.679  0.3456  0.4487 -0.4910
  441MOL0     C60734   7.309   2.855   4.783 -1.2822 -0.2495 -0.2583
  441MOL0     C60735   7.439   2.929   4.738 -0.1255 -0.4972  0.2884
  441MOL0     C60736   7.414   3.060   4.656  0.8184 -0.0236 -0.1717
  441MOL0     N60737   7.313   3.147   4.720  0.2389  0.2097  0.3404
  441MOL0     C60738   7.315   3.191   4.855 -0.3896 -0.4350  0.1293
  441MOL0     C60739   7.225   3.294   4.850 -1.0102  0.0656  0.5064
  441MOL0     C60740   7.182   3.389   4.965  0.5191  0.7149 -0.6526
  441MOL0     C60741   7.127   3.310   5.096  0.5343 -0.2158  0.2919
  441MOL0     C60742   7.049   3.400   5.193 -0.1217  0.0767  0.2754
  441MOL0     C60743   7.069   3.356   5.336  0.1587  0.2088  0.3648
  441MOL0     O60744   7.033   3.223   5.364 -0.5813 -0.9074  0.1110
  441MOL0     C60745   6.906   3.181   5.377  0.6752 -0.3634 -0.4067
  441MOL0     C60746   6.897   3.045   5.344  0.2495  0.1944  0.1475
  441MOL0     C60747   6.781   2.974   5.327  0.6683 -0.5279  0.0802
  441MOL0     C60748   6.795   2.834   5.282  0.0705 -0.0343  0.3726
  441MOL0     C60749   6.655   3.039   5.358 -0.1977 -0.5580  0.4955
  441MOL0     C60750   6.530   2.981   5.326  0.3539 -0.2967 -0.3965
  441MOL0     O60751   6.424   3.053   5.381 -0.6966 -0.3347 -0.1230
  441MOL0     C60752   6.305   3.014   5.326 -0.2444  0.0849  0.0777
  441MOL0     C60753   6.219   2.917   5.389 -0.4641  0.6649  0.7099
  441MOL0     C60754   6.089   2.898   5.326 -0.1830  0.8813 -0.2313
  441MOL0     C60755   6.058   2.944   5.191  0.4349  0.0541 -0.7779
  441MOL0     O60756   5.940   2.913   5.133 -0.0483 -0.2648  0.2558
  441MOL0     C60757   5.935   2.861   5.002  0.0867 -0.1140 -0.7734
  441MOL0     C60758   5.783   2.865   4.978 -0.1475 -0.2310 -0.2894
  441MOL0     C60759   5.763   2.792   4.843  0.9677 -0.1998  0.1170
  441MOL0     C60760   5.843   2.846   4.720 -0.4426  0.1364 -0.5196
  441MOL0     C60761   5.789   2.775   4.592  0.4096  0.2055 -0.2342
  441MOL0     C60762   5.857   2.814   4.467 -0.2177  0.6883 -0.3095
  441MOL0     C60763   5.891   2.692   4.377 -0.0570  0.0278 -0.5702
  441MOL0     C60764   6.011   2.618   4.439  0.4594  0.1627 -0.6947
  441MOL0    Cl60765   6.072   2.493   4.334  0.0988 -0.1318 -0.2901
  441MOL0     C60766   6.164   3.020   5.122  0.3844  0.5788 -1.3110
  441MOL0     C60767   6.273   3.060   5.202  0.4730  0.1566 -0.1571
  441MOL0     O60768   6.520   2.878   5.249 -0.8398 -0.4513 -0.5709
  441MOL0     C60769   6.664   3.171   5.411  0.1397 -0.2218 -0.4410
  441MOL0     C60770   6.783   3.246   5.406  0.2178  0.0159 -0.3251
  441MOL0     N60771   7.157   3.299   4.731 -0.5282  0.6928 -0.0142
  441MOL0     N60772   7.215   3.221   4.648  0.4825  0.9408 -0.6985
  441MOL0     C60773   6.838   3.394   4.853 -0.3008  0.4702  0.6639
  441MOL0     C60774   6.807   3.517   4.912 -0.8573 -0.2358 -0.7699
  441MOL0     C60775   6.701   3.886   5.079 -0.6036  0.5083  0.3130
  441MOL0     C60776   6.559   3.883   5.073 -0.4127  0.0105 -0.2288
  441MOL0     C60777   6.480   4.003   5.080 -0.1431  0.0273 -0.7727
  441MOL0     C60778   6.551   4.132   5.094 -0.2403 -0.1352 -0.2984
  441MOL0     O60779   6.490   4.252   5.081 -0.0093  0.5812  0.2096
  441MOL0     C60780   6.350   4.252   5.078  1.3495  0.1153  0.0307
  441MOL0     C60781   6.321   4.408   5.057  0.6846  1.2688 -0.3322
  441MOL0     C60782   6.346   4.487   5.181 -0.1313 -0.6488  0.4112
  441MOL0     C60783   6.221   4.474   5.277 -0.0586  0.7993  0.4027
  441MOL0     C60784   6.259   4.513   5.415  0.3307  0.1808 -0.0747
  441MOL0     C60785   6.307   4.547   5.517 -0.0789  0.0943  0.7474
  441MOL0     C60786   6.685   4.126   5.100  0.8228  0.4998 -0.0975
  441MOL0     C60787   6.766   4.013   5.103  0.6381  0.2352  0.5632
  441MOL0     C60788   6.914   4.026   5.105 -0.4083  0.6056 -0.2213
  441MOL0     H60789   6.646   3.408   5.191  1.4620 -1.2407  0.3405
  441MOL0     H60790   6.693   3.192   5.090 -3.9622  0.0794 -2.3650
  441MOL0     H60791   6.698   3.018   4.933 -0.5223  1.7335  0.9195
  441MOL0     H60792   6.844   3.057   5.032 -0.6431  0.9154  0.4531
  441MOL0     H60793   6.864   2.830   4.918 -4.0224  1.3069  1.6875
  441MOL0     H60794   6.810   2.895   4.762  1.1327 -0.9479 -1.0304
  441MOL0     H60795   7.036   3.027   4.753  2.7730  0.6716  0.6343
  441MOL0     H60796   7.059   2.959   4.904  1.3491  4.0232 -1.7695
  441MOL0     H60797   7.047   2.728   4.799 -0.0064  0.5546  1.2841
  441MOL0     H60798   6.999   2.796   4.639 -1.7861 -2.6957  1.4927
  441MOL0     H60799   7.209   2.899   4.599 -1.6718  0.9756 -0.1676
  441MOL0     H60800   7.226   2.726   4.636 -2.4945 -0.1655 -0.7047
  441MOL0     H60801   7.267   2.910   4.867  1.9560  0.5091  1.0237
  441MOL0     H60802   7.348   2.758   4.817  0.2912  0.9056  1.4872
  441MOL0     H60803   7.500   2.853   4.687  1.0169 -0.9947  2.2937
  441MOL0     H60804   7.508   2.958   4.817  0.9599 -0.6559 -0.5777
  441MOL0     H60805   7.502   3.122   4.637 -1.7566  3.6087 -1.4421
  441MOL0     H60806   7.372   3.038   4.558 -0.5310 -1.1044  0.6022
  441MOL0     H60807   7.371   3.150   4.938 -1.7447 -0.2873  1.1581
  441MOL0     H60808   7.090   3.446   4.949 -1.8994 -3.2315 -2.0945
  441MOL0     H60809   7.265   3.451   5.000 -0.3253  1.5154 -0.0128
  441MOL0     H60810   7.057   3.233   5.062  0.8834 -0.4136  0.0100
  441MOL0     H60811   7.210   3.261   5.148  0.3935 -2.2010 -1.2121
  441MOL0     H60812   7.071   3.507   5.191 -0.8062  0.2257 -1.2245
  441MOL0     H60813   6.942   3.400   5.169  0.3465  1.0066 -2.1988
  441MOL0     H60814   7.170   3.374   5.375  1.0314  0.2582 -1.8026
  441MOL0     H60815   7.008   3.418   5.403 -0.9799  1.1357 -1.4710
  441MOL0     H60816   6.988   2.995   5.313  1.0079  2.0607 -0.7771
  441MOL0     H60817   6.889   2.791   5.318  0.6505 -0.7428 -1.8300
  441MOL0     H60818   6.790   2.824   5.174 -0.8478 -2.7331  0.5857
  441MOL0     H60819   6.720   2.770   5.330  1.0718  0.4051  2.6711
  441MOL0     H60820   6.234   2.880   5.490 -3.7853  2.4395  1.9906
  441MOL0     H60821   6.006   2.839   5.364  0.1789  0.7138  0.3106
  441MOL0     H60822   5.991   2.916   4.926  0.6048  1.7741  0.8913
  441MOL0     H60823   5.969   2.758   5.010 -1.8255 -0.8623 -1.6135
  441MOL0     H60824   5.720   2.819   5.055 -1.2623  0.4623 -0.7675
  441MOL0     H60825   5.761   2.969   4.952  4.7206  1.5528  1.5751
  441MOL0     H60826   5.657   2.811   4.825  0.9826 -0.9776 -0.8891
  441MOL0     H60827   5.779   2.685   4.856  3.1927  0.0367 -0.2454
  441MOL0     H60828   5.950   2.829   4.737 -1.2013 -3.7984  1.8057
  441MOL0     H60829   5.812   2.950   4.716 -2.6802 -0.3677  1.5328
  441MOL0     H60830   5.798   2.667   4.602  0.8774  0.3307  0.7720
  441MOL0     H60831   5.679   2.777   4.590  0.3148 -1.4559  1.4247
  441MOL0     H60832   5.954   2.857   4.494  1.5119 -3.2598  0.3639
  441MOL0     H60833   5.793   2.890   4.421 -2.1301 -0.2466  0.6805
  441MOL0     H60834   5.913   2.735   4.279  0.4576 -1.5129 -1.1575
  441MOL0     H60835   5.808   2.622   4.379  0.3119 -0.5684  3.5027
  441MOL0     H60836   5.986   2.564   4.531  0.4641 -0.8396 -1.2648
  441MOL0     H60837   6.082   2.700   4.453 -3.8276  3.9135  2.0480
  441MOL0     H60838   6.158   3.074   5.028  2.0198 -0.5081 -2.0844
  441MOL0     H60839   6.339   3.133   5.155  0.3165  0.0427 -0.5530
  441MOL0     H60840   6.572   3.224   5.433  1.4475  1.4642  1.3982
  441MOL0     H60841   6.782   3.351   5.433  0.8115 -0.0733  0.0456
  441MOL0     H60842   6.889   3.389   4.757 -1.8955  0.3769 -0.2068
  441MOL0     H60843   6.836   3.608   4.861 -0.5969  0.1460  0.0429
  441MOL0     H60844   6.502   3.791   5.088  1.1832 -0.8450  0.7876
  441MOL0     H60845   6.374   3.998   5.102  0.0127  0.5961  0.1661
  441MOL0     H60846   6.316   4.197   4.989 -2.0194  1.4308  0.3474
  441MOL0     H60847   6.301   4.210   5.166 -1.0123  0.5907 -0.9795
  441MOL0     H60848   6.216   4.408   5.029  0.6807  1.8026 -0.3305
  441MOL0     H60849   6.377   4.454   4.975  2.1390 -0.8623 -0.6359
  441MOL0     H60850   6.440   4.455   5.227  2.0514  0.9825 -2.5328
  441MOL0     H60851   6.350   4.594   5.158  2.3072 -0.7409  0.1826
  441MOL0     H60852   6.179   4.374   5.277  1.5554  0.0834  0.7611
  441MOL0     H60853   6.147   4.547   5.242 -0.6347  0.4320  0.8462
  441MOL0     H60854   6.334   4.575   5.617 -0.6688 -3.1272  1.9406
  441MOL0     H60855   6.755   4.209   5.095 -0.2766  1.4895  0.5486
  441MOL0     H60856   6.956   4.126   5.109 -1.8449  1.2806 -1.0587
  441MOL0     H60857   6.957   3.964   5.185 -0.0724  1.4439  0.2577
  441MOL0     H60858   6.954   3.982   5.013  1.6612 -0.4098  1.0845
  442MOL0     O60859  11.376   4.808   5.167 -0.5429 -0.7236 -0.2241
  442MOL0     C60860  11.453   4.806   5.071 -0.7857 -0.0211  0.2763
  442MOL0     O60861  11.482   4.914   4.996 -0.7906  0.3521  0.6176
  442MOL0     C60862  11.441   5.033   5.041  0.7872  0.3556 -0.2135
  442MOL0     C60863  11.508   5.085   5.153  0.3332  0.0450  0.4987
  442MOL0     C60864  11.470   5.215   5.200 -0.4843  0.3117 -0.8820
  442MOL0     C60865  11.364   5.295   5.147 -0.3314 -0.4933 -0.6963
  442MOL0     O60866  11.331   5.423   5.184  0.6690 -0.2648 -0.4791
  442MOL0     C60867  11.406   5.487   5.285  0.6975 -0.0859  0.7001
  442MOL0     C60868  11.378   5.636   5.282 -0.6719 -0.1265  0.3140
  442MOL0     C60869  11.431   5.720   5.400  0.5757  0.4448 -0.4295
  442MOL0     C60870  11.333   5.832   5.443 -0.7716  0.1439 -0.2465
  442MOL0     C60871  11.387   5.941   5.537  0.7986  0.3025 -0.1928
  442MOL0     C60872  11.262   6.048   5.550  0.3098  0.0743  0.2288
  442MOL0     C60873  11.299   6.134   5.676 -0.4910  0.1008 -1.7038
  442MOL0     C60874  11.417   6.245   5.661  0.1137 -0.1348 -2.1395
  442MOL0     N60875  11.407   6.322   5.536 -0.2914  0.1486  0.8121
  442MOL0     C60876  11.474   6.282   5.421  0.5975  0.1569 -0.2596
  442MOL0     C60877  11.471   6.403   5.348  0.1115  0.5243 -0.4310
  442MOL0     C60878  11.512   6.431   5.209  0.2118  0.9208 -0.4373
  442MOL0     C60879  11.655   6.508   5.210  1.0905 -0.3476 -0.2373
  442MOL0     C60880  11.772   6.437   5.285 -0.0139 -0.0336  0.0839
  442MOL0     C60881  11.806   6.314   5.208  0.2579  1.4402 -0.4580
  442MOL0     O60882  11.703   6.212   5.246 -0.2813 -0.2438  0.5752
  442MOL0     C60883  11.690   6.095   5.177  0.9158  1.1239 -0.4204
  442MOL0     C60884  11.650   6.084   5.046 -0.8715 -0.4657 -0.5455
  442MOL0     C60885  11.644   5.964   4.976  1.2746  0.1772  0.1781
  442MOL0     C60886  11.614   5.979   4.828 -0.8971 -0.4064  0.4768
  442MOL0     C60887  11.679   5.846   5.047  0.4189 -0.4200 -0.3208
  442MOL0     C60888  11.672   5.711   4.983  0.0973 -0.9158 -0.1297
  442MOL0     O60889  11.669   5.612   5.072 -0.8866 -0.3722  0.8811
  442MOL0     C60890  11.691   5.482   5.027  0.4850 -0.0094 -0.8314
  442MOL0     C60891  11.793   5.401   5.091  0.4982  0.7339 -0.1074
  442MOL0     C60892  11.801   5.263   5.053 -0.6697  0.1497  0.5912
  442MOL0     C60893  11.728   5.216   4.948 -0.5741  0.6026  0.3231
  442MOL0     O60894  11.762   5.092   4.906 -0.4562  0.1864  0.3936
  442MOL0     C60895  11.758   5.077   4.764 -0.1294  0.7097  1.2126
  442MOL0     C60896  11.877   5.007   4.721  0.2868  0.6108  0.0509
  442MOL0     C60897  11.869   4.965   4.574 -0.3920 -0.3578 -0.2889
  442MOL0     C60898  11.807   4.826   4.548  0.2962 -0.0993 -0.7163
  442MOL0     C60899  11.917   4.725   4.501 -0.7918  0.3114 -0.6366
  442MOL0     C60900  12.015   4.680   4.606 -0.7140  0.1288 -0.4670
  442MOL0     C60901  12.105   4.565   4.559 -0.2714  0.6870  0.1976
  442MOL0     C60902  12.055   4.430   4.620 -0.8902 -0.0120 -0.0555
  442MOL0    Cl60903  12.183   4.310   4.607 -0.8769  0.2068 -0.1532
  442MOL0     C60904  11.628   5.289   4.899  0.1800  0.1256  0.6826
  442MOL0     C60905  11.597   5.423   4.942 -0.0216 -0.0179  0.3934
  442MOL0     O60906  11.655   5.707   4.862  0.4902 -0.9357 -0.2883
  442MOL0     C60907  11.714   5.857   5.183  0.5811 -1.0426 -0.2666
  442MOL0     C60908  11.728   5.983   5.244  0.9923 -0.4864 -0.2315
  442MOL0     N60909  11.420   6.502   5.428  1.3378  0.0620 -0.4056
  442MOL0     N60910  11.382   6.451   5.541 -0.3031 -0.1080 -0.3079
  442MOL0     C60911  11.297   5.241   5.037  0.1651  1.0140  0.3941
  442MOL0     C60912  11.333   5.113   4.983  0.1314  0.5991 -0.6590
  442MOL0     C60913  11.519   4.670   5.042  0.3808 -0.5757  0.0478
  442MOL0     C60914  11.641   4.688   4.964 -0.1832  0.1396 -0.7104
  442MOL0     C60915  11.715   4.576   4.937 -0.6532 -0.1405  0.2347
  442MOL0     C60916  11.674   4.446   4.988  0.4665 -0.0196  0.0874
  442MOL0     O60917  11.755   4.343   4.947  0.1785 -0.1840  0.1032
  442MOL0     C60918  11.767   4.228   5.020 -0.8476 -0.3893  0.0066
  442MOL0     C60919  11.887   4.151   4.973  0.1353  0.3519 -0.3672
  442MOL0     C60920  12.018   4.229   4.982  0.5060 -0.0516  0.4576
  442MOL0     C60921  12.141   4.157   5.031 -0.5166  0.2811  0.0684
  442MOL0     C60922  12.258   4.226   4.970  0.5046  0.4995 -0.5074
  442MOL0     C60923  12.364   4.265   4.920 -0.1379  0.0188 -0.2858
  442MOL0     C60924  11.560   4.438   5.071  0.0806  0.3612  0.3820
  442MOL0     C60925  11.477   4.545   5.099  0.3391 -0.2605  0.6886
  442MOL0     C60926  11.348   4.520   5.168  0.5653 -0.1489  0.0000
  442MOL0     H60927  11.579   5.018   5.199  1.7525  0.6248 -0.7527
  442MOL0     H60928  11.526   5.249   5.286  1.4232  2.2771 -2.7810
  442MOL0     H60929  11.510   5.486   5.252  0.1890  0.3951 -1.0025
  442MOL0     H60930  11.382   5.442   5.382 -1.3554 -1.4160 -0.3628
  442MOL0     H60931  11.416   5.690   5.195 -1.5497  2.0032  1.1687
  442MOL0     H60932  11.271   5.655   5.269 -0.2515  2.0192 -0.5201
  442MOL0     H60933  11.464   5.651   5.478 -0.8013  0.8256  0.5164
  442MOL0     H60934  11.526   5.771   5.380 -0.5534  3.1091  0.5008
  442MOL0     H60935  11.303   5.886   5.353  2.4050  0.5387 -1.1977
  442MOL0     H60936  11.242   5.792   5.489  3.1043 -4.9594  4.1750
  442MOL0     H60937  11.474   5.997   5.499 -0.5067  2.0822 -0.6899
  442MOL0     H60938  11.411   5.900   5.636  0.0311  0.5105  0.0854
  442MOL0     H60939  11.257   6.105   5.457 -1.8958  2.3119  1.6000
  442MOL0     H60940  11.169   5.996   5.573 -0.7754  1.1181 -1.5657
  442MOL0     H60941  11.321   6.061   5.755  0.7819 -0.2417 -2.3368
  442MOL0     H60942  11.221   6.202   5.710 -2.2575 -1.9505 -1.4721
  442MOL0     H60943  11.414   6.294   5.759  0.3422 -2.9955 -0.5902
  442MOL0     H60944  11.508   6.186   5.661 -0.6364 -1.3243 -2.1770
  442MOL0     H60945  11.520   6.186   5.400 -1.3350 -1.3473  1.8592
  442MOL0     H60946  11.436   6.501   5.173  0.4394  1.9151  0.9204
  442MOL0     H60947  11.514   6.336   5.155  0.9308 -0.6228  2.1280
  442MOL0     H60948  11.673   6.522   5.103  0.1156  0.2089 -0.3331
  442MOL0     H60949  11.646   6.601   5.267  2.7507  0.1199 -0.6779
  442MOL0     H60950  11.860   6.498   5.265 -0.3106 -0.6413 -3.9473
  442MOL0     H60951  11.761   6.409   5.390  1.9943 -3.3423 -0.4377
  442MOL0     H60952  11.813   6.339   5.102  0.6470 -0.8652 -1.0210
  442MOL0     H60953  11.902   6.269   5.236  0.6765  1.1554 -2.2405
  442MOL0     H60954  11.658   6.182   5.001  2.5945  0.3944  1.5959
  442MOL0     H60955  11.703   5.976   4.764 -0.5400  0.0971  0.9433
  442MOL0     H60956  11.562   6.074   4.813 -0.8969  0.2347  3.8646
  442MOL0     H60957  11.544   5.899   4.802 -0.8235  0.0592 -1.3106
  442MOL0     H60958  11.867   5.441   5.159  2.0614  1.4316 -2.0962
  442MOL0     H60959  11.884   5.202   5.087  1.2918  1.8480 -0.9269
  442MOL0     H60960  11.674   5.021   4.721 -0.6685  2.7278 -0.5714
  442MOL0     H60961  11.766   5.170   4.706  1.9919 -0.2017 -0.0583
  442MOL0     H60962  11.969   5.066   4.734  2.3390 -2.2975 -0.1916
  442MOL0     H60963  11.879   4.920   4.788  1.5618  0.8127  0.3128
  442MOL0     H60964  11.966   4.980   4.526 -0.5644  0.3920 -0.4136
  442MOL0     H60965  11.798   5.029   4.520 -1.0345 -0.2993  0.5989
  442MOL0     H60966  11.737   4.837   4.465  1.0765  0.9993 -1.2630
  442MOL0     H60967  11.749   4.790   4.633 -1.3469 -0.4740 -1.9596
  442MOL0     H60968  11.853   4.640   4.474 -1.7939  0.5034  1.0627
  442MOL0     H60969  11.985   4.757   4.421  0.5469 -3.0677 -1.0419
  442MOL0     H60970  11.963   4.642   4.695 -2.4062 -0.3324 -1.5878
  442MOL0     H60971  12.082   4.763   4.631 -1.0493  0.8740 -1.8955
  442MOL0     H60972  12.211   4.574   4.582 -0.0213  0.0526 -0.6354
  442MOL0     H60973  12.091   4.555   4.450 -0.7169  1.1261  0.2119
  442MOL0     H60974  11.965   4.401   4.565 -0.1767 -0.4355 -1.0317
  442MOL0     H60975  12.017   4.444   4.721 -1.6694 -2.0546 -0.0271
  442MOL0     H60976  11.571   5.253   4.814  1.3003  0.7044 -0.3472
  442MOL0     H60977  11.504   5.475   4.921  0.2512 -0.1996 -1.4285
  442MOL0     H60978  11.744   5.769   5.239 -1.5933 -1.8526 -0.2540
  442MOL0     H60979  11.767   5.975   5.345  3.6572  1.2765 -1.0381
  442MOL0     H60980  11.220   5.296   4.983 -0.4998  0.7728  1.0889
  442MOL0     H60981  11.269   5.081   4.902 -3.9762 -0.7497  2.7757
  442MOL0     H60982  11.672   4.789   4.940  1.2414  0.4338  1.9796
  442MOL0     H60983  11.810   4.595   4.889 -2.0900  2.7089 -1.7173
  442MOL0     H60984  11.788   4.250   5.125  1.1325 -0.8818 -0.2542
  442MOL0     H60985  11.674   4.172   5.010 -1.5695  0.8211 -0.2617
  442MOL0     H60986  11.877   4.118   4.869  1.0091  2.1538 -1.0570
  442MOL0     H60987  11.895   4.068   5.044  1.8978  1.1528  0.4314
  442MOL0     H60988  12.026   4.290   4.892 -1.0283  0.8455  0.8921
  442MOL0     H60989  11.994   4.305   5.057  1.6643  0.1192  0.6665
  442MOL0     H60990  12.134   4.058   4.985 -0.4098 -1.9843  4.3864
  442MOL0     H60991  12.149   4.148   5.140 -1.8553 -0.1217  0.1511
  442MOL0     H60992  12.456   4.304   4.881 -0.4428  2.5561  1.2901
  442MOL0     H60993  11.521   4.339   5.093  0.5545 -0.0101 -0.3895
  442MOL0     H60994  11.364   4.547   5.272  0.0793 -2.6372  0.7762
  442MOL0     H60995  11.257   4.564   5.124  1.2443  0.3336 -0.9571
  442MOL0     H60996  11.332   4.413   5.181  1.0834 -0.0958  1.1998
  443MOL0     O60997   9.784   8.466   9.710  0.5493  0.1297  0.1650
  443MOL0     C60998   9.904   8.494   9.704 -0.3352 -0.3261  0.1898
  443MOL0     O60999  10.007   8.405   9.712  0.4026  0.5216 -0.2669
  443MOL0     C61000   9.992   8.268   9.684 -0.4422  0.3627  0.6577
  443MOL0     C61001   9.886   8.186   9.741  0.4374 -0.1252 -0.5548
  443MOL0     C61002   9.883   8.046   9.721 -0.2558  0.3465 -0.2355
  443MOL0     C61003   9.981   7.977   9.649  0.3180  0.2218 -0.2492
  443MOL0     O61004   9.990   7.833   9.627 -0.9806  0.4073  0.5151
  443MOL0     C61005  10.003   7.764   9.754  0.1828 -0.4438  0.7403
  443MOL0     C61006  10.035   7.617   9.743  0.8863  0.2187  0.3189
  443MOL0     C61007  10.060   7.546   9.881 -0.0743  0.2988 -0.2679
  443MOL0     C61008  10.047   7.391   9.884  0.3553  0.9582  0.4039
  443MOL0     C61009  10.061   7.320  10.019  0.1150 -0.3978 -1.3799
  443MOL0     C61010   9.949   7.339  10.125 -0.4065  0.0217  1.1199
  443MOL0     C61011   9.888   7.199  10.169  0.5472 -0.3982 -0.4236
  443MOL0     C61012   9.747   7.168  10.117 -0.5249 -0.8353 -0.0464
  443MOL0     N61013   9.643   7.210  10.206  0.4495 -0.4524  0.0277
  443MOL0     C61014   9.610   7.338  10.253  0.1152  0.6348  0.2703
  443MOL0     C61015   9.502   7.311  10.333  0.1783 -0.0424 -0.2956
  443MOL0     C61016   9.431   7.412  10.415 -0.6238  0.4687  0.3887
  443MOL0     C61017   9.313   7.461  10.337  0.6830 -0.4828  0.2987
  443MOL0     C61018   9.269   7.601  10.380 -0.0951  0.6212  0.2104
  443MOL0     C61019   9.179   7.678  10.280 -0.2539  0.4843 -0.5353
  443MOL0     O61020   9.069   7.591  10.268  0.3988 -0.3874  0.0531
  443MOL0     C61021   8.960   7.631  10.200  0.1163 -0.3273  0.3911
  443MOL0     C61022   8.881   7.525  10.149 -0.7935 -0.1261  0.4481
  443MOL0     C61023   8.750   7.552  10.087 -0.3525  0.1110  0.1808
  443MOL0     C61024   8.672   7.432  10.050  0.3756  0.4511  0.3958
  443MOL0     C61025   8.706   7.682  10.060 -0.1178  0.0031  0.1077
  443MOL0     C61026   8.582   7.725   9.982  0.3013  0.5606 -0.0387
  443MOL0     O61027   8.583   7.851   9.932 -0.3652  0.9732  0.2585
  443MOL0     C61028   8.508   7.874   9.820 -1.0946 -0.2165  0.0302
  443MOL0     C61029   8.555   7.821   9.702  0.3082 -0.4299 -0.3436
  443MOL0     C61030   8.472   7.826   9.590 -0.5493  0.9557 -0.2038
  443MOL0     C61031   8.354   7.903   9.587 -0.3524 -0.4963  0.1043
  443MOL0     O61032   8.288   7.902   9.467  0.1713  0.2284 -0.6487
  443MOL0     C61033   8.150   7.932   9.455 -0.4357  0.0712 -0.2421
  443MOL0     C61034   8.117   7.966   9.315 -0.0136 -0.1673  0.0987
  443MOL0     C61035   8.130   7.850   9.216 -0.7409 -0.3146  0.0995
  443MOL0     C61036   8.136   7.899   9.069 -0.3401 -0.5997 -0.2968
  443MOL0     C61037   8.172   7.792   8.971 -0.8212  0.8655  0.3780
  443MOL0     C61038   8.124   7.799   8.825  1.2311 -0.3525  0.0236
  443MOL0     C61039   8.192   7.913   8.746 -0.5943  0.1545  0.0606
  443MOL0     C61040   8.120   7.940   8.619  0.5519 -0.1183 -0.7789
  443MOL0    Cl61041   7.978   8.041   8.660  0.1395  0.2089 -0.2566
  443MOL0     C61042   8.315   7.967   9.708 -0.5535  0.3067  0.0054
  443MOL0     C61043   8.394   7.949   9.824  0.3261  0.8204 -0.3998
  443MOL0     O61044   8.500   7.636   9.948 -0.3945  0.1497 -0.2670
  443MOL0     C61045   8.801   7.786  10.101  0.5508  0.9435  0.3890
  443MOL0     C61046   8.919   7.761  10.167 -0.4060 -0.5000  0.4029
  443MOL0     N61047   9.469   7.181  10.341 -0.4537  0.2956  0.6987
  443MOL0     N61048   9.552   7.117  10.255 -0.6999  0.0279 -0.3149
  443MOL0     C61049  10.082   8.058   9.601  0.0358  0.0815 -0.0095
  443MOL0     C61050  10.092   8.196   9.617 -0.1267  0.5209  0.1319
  443MOL0     C61051   9.946   8.642   9.691 -0.3008 -0.6720  0.0886
  443MOL0     C61052   9.843   8.738   9.679 -0.2644 -0.0333 -0.2369
  443MOL0     C61053   9.866   8.879   9.677  0.6755  0.7085  0.3872
  443MOL0     C61054   9.996   8.921   9.663  0.3498  0.8150  1.1539
  443MOL0     O61055  10.024   9.055   9.649  0.5581  0.1887  0.9626
  443MOL0     C61056   9.932   9.131   9.557 -0.0939 -0.5727  0.0131
  443MOL0     C61057   9.921   9.059   9.420  0.2597 -0.5878  0.6857
  443MOL0     C61058  10.053   9.066   9.340  1.1776  0.4584  0.2165
  443MOL0     C61059  10.007   9.070   9.188  0.8037 -0.7832 -0.2278
  443MOL0     C61060  10.112   9.044   9.096 -0.0971 -0.9986  0.0495
  443MOL0     C61061  10.194   9.026   9.011  1.1440  0.5893  0.9848
  443MOL0     C61062  10.095   8.832   9.657 -0.2875  0.2147  0.5125
  443MOL0     C61063  10.071   8.698   9.671 -1.1054 -0.6208  0.0449
  443MOL0     C61064  10.182   8.604   9.644 -0.1376 -0.3217  0.5138
  443MOL0     H61065   9.810   8.233   9.802  0.6515 -1.8848  1.1617
  443MOL0     H61066   9.796   7.999   9.764  0.1402  0.4750  0.7389
  443MOL0     H61067   9.920   7.791   9.820 -0.3420  4.9773 -1.6054
  443MOL0     H61068  10.097   7.797   9.798  0.5682 -2.2098  1.3029
  443MOL0     H61069   9.950   7.563   9.700  0.5954  0.5319  0.4920
  443MOL0     H61070  10.121   7.606   9.677  0.4511  0.6827 -0.3428
  443MOL0     H61071  10.155   7.590   9.914 -1.2346  2.7006  0.0437
  443MOL0     H61072   9.983   7.577   9.952 -1.7008 -1.1958 -1.3043
  443MOL0     H61073   9.956   7.372   9.826  0.1769  0.8403  0.7185
  443MOL0     H61074  10.122   7.348   9.817 -2.0225 -0.5819 -1.4807
  443MOL0     H61075  10.153   7.340  10.075  0.6585 -2.4425 -1.4653
  443MOL0     H61076  10.067   7.216   9.987  0.3025 -0.4725 -1.1046
  443MOL0     H61077  10.000   7.391  10.207  0.1881 -0.4514  1.0546
  443MOL0     H61078   9.872   7.406  10.084  1.8698  1.6704 -0.7748
  443MOL0     H61079   9.898   7.191  10.278 -5.2169 -0.0865  0.4266
  443MOL0     H61080   9.949   7.116  10.132 -1.0831 -1.4949 -0.7581
  443MOL0     H61081   9.742   7.227  10.025  3.4884 -1.3382 -0.7843
  443MOL0     H61082   9.754   7.059  10.104  2.4110 -0.8093  0.6642
  443MOL0     H61083   9.664   7.433  10.248 -0.9984  1.3088  0.7179
  443MOL0     H61084   9.494   7.498  10.438  1.0997  0.9008 -4.6621
  443MOL0     H61085   9.396   7.371  10.510  0.2290  1.6184  1.2249
  443MOL0     H61086   9.333   7.467  10.229  0.6680  1.8246  0.3764
  443MOL0     H61087   9.229   7.393  10.347 -0.6114  1.2270  1.6209
  443MOL0     H61088   9.215   7.582  10.473  1.3252 -0.9625  0.7620
  443MOL0     H61089   9.359   7.661  10.394  0.4695  0.5817 -2.6815
  443MOL0     H61090   9.162   7.775  10.327 -0.6020  0.0903  0.1765
  443MOL0     H61091   9.227   7.689  10.183 -0.9780 -0.9891 -1.0969
  443MOL0     H61092   8.908   7.422  10.173  0.8713  0.7573  2.6755
  443MOL0     H61093   8.720   7.336  10.072 -0.7171  0.1523  1.6246
  443MOL0     H61094   8.663   7.437   9.941  4.4661  6.6129 -0.1575
  443MOL0     H61095   8.576   7.432  10.103 -0.1535 -0.3573 -0.5273
  443MOL0     H61096   8.650   7.768   9.705  0.6518  0.0605  3.8703
  443MOL0     H61097   8.505   7.775   9.500  0.8031 -0.3032  0.9584
  443MOL0     H61098   8.095   7.846   9.492  2.5677 -0.9374  2.3392
  443MOL0     H61099   8.123   8.014   9.522 -0.8640 -0.3542  0.1068
  443MOL0     H61100   8.009   7.985   9.320 -0.0181 -0.2689  0.4317
  443MOL0     H61101   8.163   8.060   9.282  1.5528 -1.4969 -1.6867
  443MOL0     H61102   8.052   7.778   9.242 -0.0685 -0.5136  1.6522
  443MOL0     H61103   8.228   7.802   9.231 -0.2056 -0.3718 -2.8604
  443MOL0     H61104   8.204   7.984   9.052 -2.0402  1.4995  2.4526
  443MOL0     H61105   8.038   7.930   9.034 -0.4967  0.1904  0.7619
  443MOL0     H61106   8.282   7.789   8.977 -0.8734  0.0182  1.0947
  443MOL0     H61107   8.138   7.694   9.005 -0.1765 -0.0985 -1.5879
  443MOL0     H61108   8.016   7.793   8.812  1.5736 -4.2295 -2.8212
  443MOL0     H61109   8.159   7.705   8.782  0.2767 -0.4283 -0.6216
  443MOL0     H61110   8.294   7.886   8.718 -1.3347  0.4145 -3.3404
  443MOL0     H61111   8.206   8.002   8.808 -0.3642 -1.3322  2.2577
  443MOL0     H61112   8.097   7.845   8.570  0.2410 -1.5763  1.9861
  443MOL0     H61113   8.188   7.995   8.553  1.5442  0.8759  0.9918
  443MOL0     H61114   8.216   8.009   9.711 -0.7329 -0.1079  0.0384
  443MOL0     H61115   8.350   7.983   9.917 -2.9007 -0.3511 -1.3702
  443MOL0     H61116   8.775   7.887  10.070  0.0971  0.4590 -0.8890
  443MOL0     H61117   8.978   7.843  10.207 -0.4236  0.5453 -1.6081
  443MOL0     H61118  10.163   7.999   9.558  0.0014 -2.5812  3.1547
  443MOL0     H61119  10.176   8.237   9.563  0.5413 -2.1655 -1.0642
  443MOL0     H61120   9.737   8.714   9.676 -0.1462 -0.4827 -0.9886
  443MOL0     H61121   9.780   8.946   9.676  1.3474  1.6185  1.5036
  443MOL0     H61122   9.833   9.142   9.601  0.0503  2.0008 -0.1422
  443MOL0     H61123   9.969   9.234   9.549 -1.4018  0.1457  2.3221
  443MOL0     H61124   9.836   9.105   9.367 -0.0902  0.1536  1.8641
  443MOL0     H61125   9.891   8.954   9.423  3.2807 -1.6094 -0.9700
  443MOL0     H61126  10.112   9.154   9.367  1.4114 -0.1951  1.9304
  443MOL0     H61127  10.113   8.978   9.365 -1.7608 -1.6524  0.2708
  443MOL0     H61128   9.959   9.166   9.166 -1.7832 -1.7074  0.9634
  443MOL0     H61129   9.925   9.002   9.165 -0.0501  1.3517 -4.5038
  443MOL0     H61130  10.267   9.002   8.935  1.4193 -0.3477  1.5263
  443MOL0     H61131  10.194   8.865   9.629 -0.0626 -2.4596 -2.3876
  443MOL0     H61132  10.271   8.658   9.612 -1.9434  1.8611 -1.1364
  443MOL0     H61133  10.206   8.548   9.735 -2.9478  1.1087  2.2541
  443MOL0     H61134  10.162   8.531   9.564 -1.9587  2.2456 -1.5166
  444MOL0     O61135   4.372   6.347   6.215  0.1466 -0.1806 -0.3885
  444MOL0     C61136   4.302   6.422   6.286 -0.3863 -0.3828 -0.2638
  444MOL0     O61137   4.263   6.556   6.255 -0.6595  0.7260 -0.4405
  444MOL0     C61138   4.343   6.631   6.163 -0.3125  0.5378  0.7366
  444MOL0     C61139   4.486   6.627   6.155  0.3686  0.3252  0.0303
  444MOL0     C61140   4.555   6.706   6.064 -0.4133 -0.1833  0.8899
  444MOL0     C61141   4.485   6.793   5.980 -0.5651 -0.4130 -0.4039
  444MOL0     O61142   4.550   6.882   5.895  0.0920  0.7826  0.5415
  444MOL0     C61143   4.689   6.877   5.878 -0.3868 -0.2016 -0.5947
  444MOL0     C61144   4.744   6.973   5.774 -0.2852  0.2684 -0.1068
  444MOL0     C61145   4.740   7.125   5.808 -0.6835 -1.2489  0.3862
  444MOL0     C61146   4.780   7.204   5.694 -0.6776  0.0566 -0.6725
  444MOL0     C61147   4.797   7.355   5.724  0.1919 -0.3439  0.1813
  444MOL0     C61148   4.889   7.419   5.620  0.3918 -0.0067 -0.3190
  444MOL0     C61149   4.899   7.565   5.675  0.1963 -0.0394  0.1287
  444MOL0     C61150   4.966   7.648   5.571  0.1245  0.4931 -0.5537
  444MOL0     N61151   5.037   7.759   5.634  0.0026 -0.5347  0.2491
  444MOL0     C61152   4.983   7.883   5.662 -0.1918  0.5517  0.1663
  444MOL0     C61153   5.083   7.949   5.725 -1.0634  0.3557  0.6266
  444MOL0     C61154   5.083   8.080   5.790 -0.5057 -0.4634 -0.5286
  444MOL0     C61155   5.017   8.076   5.929 -0.2782  0.3563 -0.0139
  444MOL0     C61156   5.021   8.216   5.998  0.1636  0.2530  0.5498
  444MOL0     C61157   4.924   8.227   6.116 -0.2995 -0.3953 -0.2538
  444MOL0     O61158   4.964   8.136   6.218  0.2907 -0.1435 -0.4284
  444MOL0     C61159   4.906   8.145   6.350  0.1020 -0.6987  0.2861
  444MOL0     C61160   4.985   8.085   6.444  0.1358  0.5555 -1.3555
  444MOL0     C61161   4.945   8.098   6.580  0.6635 -0.1331  0.0123
  444MOL0     C61162   5.039   8.018   6.681  0.1023  0.1340  0.3804
  444MOL0     C61163   4.828   8.177   6.613 -0.6037  0.8156 -1.3643
  444MOL0     C61164   4.786   8.207   6.759 -0.0879  0.9723  0.0434
  444MOL0     O61165   4.676   8.289   6.781 -0.4749 -0.0296 -0.1090
  444MOL0     C61166   4.615   8.292   6.903 -0.8419  0.4335 -0.8126
  444MOL0     C61167   4.671   8.366   7.014  0.1231 -0.1077 -0.0600
  444MOL0     C61168   4.623   8.356   7.144 -0.6730  0.3946 -0.5166
  444MOL0     C61169   4.515   8.269   7.170  0.6080 -1.1302  0.0070
  444MOL0     O61170   4.463   8.255   7.297 -0.0172 -0.3341 -0.6085
  444MOL0     C61171   4.374   8.370   7.327  0.0870 -0.6883 -0.1543
  444MOL0     C61172   4.286   8.339   7.455  0.0932  0.1143  1.1317
  444MOL0     C61173   4.373   8.330   7.584  0.0956  0.5347 -0.2624
  444MOL0     C61174   4.287   8.276   7.698  0.3524  0.4610  0.2958
  444MOL0     C61175   4.160   8.360   7.725 -0.4075  0.7743 -0.0819
  444MOL0     C61176   4.128   8.346   7.872  0.1948 -0.8628  0.4321
  444MOL0     C61177   4.025   8.458   7.908 -0.4715 -0.4097 -0.4347
  444MOL0     C61178   4.041   8.495   8.061  0.7880 -0.0261  0.1043
  444MOL0    Cl61179   4.202   8.592   8.074 -0.2450  0.2005  0.0151
  444MOL0     C61180   4.447   8.205   7.063 -0.4646 -0.3889 -0.6714
  444MOL0     C61181   4.502   8.207   6.929  0.2467 -0.6071  0.2783
  444MOL0     O61182   4.847   8.137   6.849 -0.3814 -0.0354  0.1185
  444MOL0     C61183   4.751   8.215   6.513  0.6510  0.9401  0.2481
  444MOL0     C61184   4.795   8.215   6.381  0.5928 -0.1111  0.6196
  444MOL0     N61185   5.202   7.870   5.717 -0.3223 -0.5793 -0.1136
  444MOL0     N61186   5.166   7.750   5.670  0.1464  0.3807  0.2163
  444MOL0     C61187   4.355   6.815   5.995  0.5192  0.6388 -0.0680
  444MOL0     C61188   4.283   6.732   6.075  0.1936 -0.5771 -0.2406
  444MOL0     C61189   4.246   6.360   6.417 -1.2450 -0.2419  0.7197
  444MOL0     C61190   4.161   6.436   6.495 -0.8897  0.2938  0.2784
  444MOL0     C61191   4.092   6.387   6.603 -0.2630  0.9308  0.2267
  444MOL0     C61192   4.110   6.263   6.647  0.7398  0.7905 -0.7411
  444MOL0     O61193   4.062   6.209   6.769  0.5167  0.1204  1.0503
  444MOL0     C61194   4.023   6.304   6.875 -0.0302  1.0621  0.3800
  444MOL0     C61195   4.137   6.381   6.938  0.0087 -0.1559  0.1252
  444MOL0     C61196   4.072   6.480   7.042 -1.3745  1.2858 -0.2278
  444MOL0     C61197   4.174   6.588   7.091  0.4129  0.1569  0.2834
  444MOL0     C61198   4.185   6.690   6.982 -1.2687  0.3624 -1.7686
  444MOL0     C61199   4.182   6.777   6.898 -0.0622  0.8263 -0.0414
  444MOL0     C61200   4.204   6.184   6.583  0.5620 -0.2437 -0.1123
  444MOL0     C61201   4.284   6.231   6.471  0.4539 -0.1530 -0.6046
  444MOL0     C61202   4.394   6.139   6.429 -0.3942  0.4837 -0.0017
  444MOL0     H61203   4.540   6.552   6.212 -0.4525  2.0086  3.2709
  444MOL0     H61204   4.664   6.700   6.066 -0.3032 -0.2342 -1.6709
  444MOL0     H61205   4.703   6.774   5.844 -3.6764 -1.0078  0.1378
  444MOL0     H61206   4.741   6.888   5.974  1.4516 -0.3526 -1.5179
  444MOL0     H61207   4.846   6.934   5.774 -1.1203 -2.2785  2.4331
  444MOL0     H61208   4.684   6.956   5.684 -2.1909  0.6911  1.0401
  444MOL0     H61209   4.636   7.150   5.831  0.1520 -0.1518  3.5548
  444MOL0     H61210   4.795   7.140   5.902 -2.4346 -0.4972  1.3297
  444MOL0     H61211   4.875   7.168   5.653 -0.1530  1.0994 -0.4337
  444MOL0     H61212   4.714   7.188   5.608  1.4680 -1.9114 -2.0947
  444MOL0     H61213   4.846   7.374   5.820  0.6158  1.1313 -0.3052
  444MOL0     H61214   4.698   7.400   5.721  0.2232 -0.2715  0.2304
  444MOL0     H61215   4.987   7.373   5.608  1.2133  0.8763  2.2338
  444MOL0     H61216   4.841   7.420   5.522 -2.8321  0.2058  1.1162
  444MOL0     H61217   4.962   7.553   5.763  1.9092  0.0562 -1.0419
  444MOL0     H61218   4.805   7.608   5.711  0.7160  1.3959 -0.1715
  444MOL0     H61219   5.035   7.595   5.504 -1.2883 -2.4621  0.1384
  444MOL0     H61220   4.886   7.676   5.501 -0.6481 -0.1031  0.0714
  444MOL0     H61221   4.879   7.911   5.669 -0.0116  1.0240  1.1941
  444MOL0     H61222   5.030   8.157   5.733 -0.8790 -0.7767 -0.6145
  444MOL0     H61223   5.183   8.122   5.791  0.4905 -2.1061  4.9294
  444MOL0     H61224   4.913   8.043   5.921  0.3304 -1.6156 -0.0934
  444MOL0     H61225   5.075   8.015   5.998 -1.0513  2.4679  2.7223
  444MOL0     H61226   5.123   8.236   6.031 -0.6648  4.8195  0.9769
  444MOL0     H61227   4.995   8.288   5.919 -3.9904 -2.1915 -0.6741
  444MOL0     H61228   4.924   8.330   6.152 -2.2376 -0.9783  1.6595
  444MOL0     H61229   4.822   8.201   6.088 -1.6031  3.3776  0.4975
  444MOL0     H61230   5.073   8.034   6.408 -1.9996 -3.4195 -1.5635
  444MOL0     H61231   5.079   8.097   6.745  1.2559  0.8143 -1.1267
  444MOL0     H61232   5.122   7.960   6.640 -0.2009 -0.7377  0.9747
  444MOL0     H61233   4.979   7.949   6.740  0.3062  0.7463  1.3263
  444MOL0     H61234   4.748   8.440   6.993 -2.7795  3.3092  0.4086
  444MOL0     H61235   4.656   8.415   7.229 -0.6274  0.1163 -0.3398
  444MOL0     H61236   4.431   8.462   7.338 -0.7069 -0.4597  2.7486
  444MOL0     H61237   4.298   8.376   7.249  0.8222  0.8330 -0.7871
  444MOL0     H61238   4.203   8.410   7.459 -1.1302 -1.2441  0.6319
  444MOL0     H61239   4.236   8.245   7.433 -0.6331  0.7788 -0.1669
  444MOL0     H61240   4.399   8.427   7.627  1.1091 -0.6662  2.0077
  444MOL0     H61241   4.459   8.265   7.568 -0.2756 -0.6322  2.0838
  444MOL0     H61242   4.355   8.290   7.783  0.1559  0.1982  0.4976
  444MOL0     H61243   4.271   8.170   7.676 -1.4297  0.4454  1.4793
  444MOL0     H61244   4.185   8.461   7.691  0.2007  0.0037 -2.0830
  444MOL0     H61245   4.075   8.328   7.663  0.4684 -1.1349 -0.3582
  444MOL0     H61246   4.214   8.362   7.936 -0.5926  2.9574  0.8360
  444MOL0     H61247   4.081   8.249   7.891  0.8522 -1.2308  0.1776
  444MOL0     H61248   3.926   8.414   7.890 -0.1200 -1.5846  0.3990
  444MOL0     H61249   4.039   8.549   7.850  0.5322  0.3069  0.8936
  444MOL0     H61250   4.059   8.399   8.110  1.3105 -0.7681 -1.4820
  444MOL0     H61251   3.958   8.551   8.107 -0.8421 -2.6870  0.5788
  444MOL0     H61252   4.366   8.135   7.080 -0.3729 -0.2875  0.2713
  444MOL0     H61253   4.463   8.135   6.857  3.4979 -1.3491 -0.9331
  444MOL0     H61254   4.654   8.260   6.530 -0.5408 -1.0713 -0.9166
  444MOL0     H61255   4.726   8.262   6.312  0.8292 -0.5699  0.0655
  444MOL0     H61256   4.309   6.893   5.934  1.0823  2.3776  1.6424
  444MOL0     H61257   4.177   6.751   6.087  0.5223 -0.1099  2.4797
  444MOL0     H61258   4.123   6.531   6.458  0.1961  0.5815 -0.1568
  444MOL0     H61259   4.014   6.447   6.649 -2.2180  1.5053 -3.4572
  444MOL0     H61260   3.937   6.367   6.849  0.8766  1.3780 -2.1300
  444MOL0     H61261   3.973   6.249   6.956  2.4188  1.2862  2.1498
  444MOL0     H61262   4.197   6.434   6.863  1.3520  1.2934  2.0989
  444MOL0     H61263   4.214   6.312   6.976  0.8080  0.7769  0.2440
  444MOL0     H61264   3.982   6.528   7.002 -1.8629 -0.1406 -0.8987
  444MOL0     H61265   4.042   6.425   7.131 -1.1390  1.6035  0.0512
  444MOL0     H61266   4.267   6.533   7.106 -1.2025 -3.8401 -2.2974
  444MOL0     H61267   4.148   6.630   7.189 -0.1984  0.1626  0.1280
  444MOL0     H61268   4.172   6.853   6.822 -0.9597 -1.1759 -2.0540
  444MOL0     H61269   4.223   6.084   6.621  0.9053  0.8911  2.9572
  444MOL0     H61270   4.482   6.203   6.440  0.8991 -1.4690  1.7047
  444MOL0     H61271   4.399   6.059   6.504  1.0411  1.4490  0.9969
  444MOL0     H61272   4.385   6.094   6.330 -0.4874 -1.1005  0.6856
  445MOL0     O61273  11.080   3.793  11.301  0.3089 -0.0049  0.8085
  445MOL0     C61274  10.962   3.809  11.331 -0.3045 -0.0577 -0.0869
  445MOL0     O61275  10.861   3.817  11.242  0.2968  0.0001 -0.5014
  445MOL0     C61276  10.883   3.787  11.111 -0.1879  0.0689  0.9231
  445MOL0     C61277  10.833   3.877  11.020  0.8850  0.0056  0.6982
  445MOL0     C61278  10.840   3.849  10.883 -0.0120 -0.3004 -0.2691
  445MOL0     C61279  10.894   3.726  10.841  0.1108 -0.1269 -0.2460
  445MOL0     O61280  10.901   3.698  10.705  0.2002  0.3579 -0.2001
  445MOL0     C61281  10.779   3.713  10.628 -1.0857 -0.4401 -0.3052
  445MOL0     C61282  10.693   3.588  10.653  0.5457  0.2587 -0.3050
  445MOL0     C61283  10.613   3.600  10.789 -0.6223  0.3836  0.7339
  445MOL0     C61284  10.511   3.480  10.786 -1.0151 -0.7676 -1.0881
  445MOL0     C61285  10.454   3.466  10.927  0.0079 -0.1022  0.4245
  445MOL0     C61286  10.313   3.537  10.946 -0.1325  0.5449  0.0964
  445MOL0     C61287  10.257   3.484  11.072 -0.2109  0.1427 -0.4470
  445MOL0     C61288  10.316   3.549  11.190 -0.1033 -0.0419 -0.9818
  445MOL0     N61289  10.275   3.492  11.321  0.3344 -0.4169  0.0921
  445MOL0     C61290  10.156   3.516  11.386 -0.0126 -0.4442  0.3794
  445MOL0     C61291  10.140   3.402  11.469 -0.8551 -0.0083  0.5526
  445MOL0     C61292  10.039   3.348  11.556  0.0471  0.0436  0.0168
  445MOL0     C61293  10.030   3.457  11.666  0.2627  0.7741  0.2786
  445MOL0     C61294   9.895   3.471  11.736  0.1728 -0.6188  0.4142
  445MOL0     C61295   9.906   3.553  11.867 -0.1114 -0.0126  0.8947
  445MOL0     O61296   9.781   3.532  11.927 -0.2623 -0.0609 -0.1889
  445MOL0     C61297   9.744   3.646  11.988  0.0278 -0.2953  0.4217
  445MOL0     C61298   9.662   3.733  11.918  0.8103 -0.3775 -0.0641
  445MOL0     C61299   9.608   3.849  11.978 -0.3659 -0.6128  0.5785
  445MOL0     C61300   9.509   3.936  11.898 -0.4924  1.1415  0.7537
  445MOL0     C61301   9.654   3.891  12.108  0.2790  0.1288  0.7466
  445MOL0     C61302   9.616   4.013  12.183 -0.4986 -0.1301  0.6951
  445MOL0     O61303   9.702   4.051  12.284 -0.8844  0.0705 -0.3224
  445MOL0     C61304   9.724   4.182  12.334  0.3110  0.7672  0.8429
  445MOL0     C61305   9.806   4.189  12.444 -0.5400 -0.2323 -0.0845
  445MOL0     C61306   9.875   4.313  12.473 -0.3989 -0.2524  0.4118
  445MOL0     C61307   9.840   4.429  12.402 -1.5444  0.2164 -0.9172
  445MOL0     O61308   9.903   4.548  12.444 -0.5871  0.6007 -0.2608
  445MOL0     C61309   9.819   4.662  12.470 -0.0912  0.3237 -0.0279
  445MOL0     C61310   9.916   4.763  12.528 -0.9047  0.4539 -0.0725
  445MOL0     C61311   9.848   4.892  12.542 -0.6116  0.9136  0.1473
  445MOL0     C61312   9.954   4.996  12.555 -0.0914 -0.6221 -0.6530
  445MOL0     C61313   9.915   5.119  12.643 -0.8888  0.2519  0.0473
  445MOL0     C61314   9.808   5.215  12.576  0.4319 -0.2386  0.2231
  445MOL0     C61315   9.862   5.269  12.448 -0.3405  0.1786 -0.8184
  445MOL0     C61316   9.769   5.368  12.382 -0.8842  0.0802  0.4901
  445MOL0    Cl61317   9.862   5.434  12.231  0.0578  0.4673 -0.4098
  445MOL0     C61318   9.760   4.420  12.289  1.0054 -0.8167 -0.0249
  445MOL0     C61319   9.706   4.294  12.254 -0.1586 -0.1766  0.8195
  445MOL0     O61320   9.531   4.078  12.135 -0.2219 -0.5307 -0.8374
  445MOL0     C61321   9.745   3.807  12.173 -0.9384  0.2483  0.1273
  445MOL0     C61322   9.794   3.685  12.111  0.4165  0.4332 -0.2610
  445MOL0     N61323  10.247   3.315  11.449 -0.0725  0.9040 -0.4459
  445MOL0     N61324  10.331   3.376  11.366 -0.2407 -0.1793 -0.2019
  445MOL0     C61325  10.959   3.638  10.926 -0.9321  1.2897  0.1050
  445MOL0     C61326  10.954   3.675  11.060  0.9758  0.3304 -1.3359
  445MOL0     C61327  10.942   3.821  11.476 -0.0484 -0.6746  0.5809
  445MOL0     C61328  10.826   3.894  11.502  0.7606  0.2970 -0.3336
  445MOL0     C61329  10.787   3.909  11.639  0.9393 -0.5938  0.0024
  445MOL0     C61330  10.859   3.866  11.755 -0.1533 -0.7632 -0.1797
  445MOL0     O61331  10.811   3.882  11.883 -0.4943 -0.3007  0.3130
  445MOL0     C61332  10.713   3.780  11.918  0.2452 -0.3955 -0.1458
  445MOL0     C61333  10.630   3.818  12.036  0.8209  0.5689  0.7504
  445MOL0     C61334  10.551   3.943  12.009  0.2768 -0.8238 -0.3831
  445MOL0     C61335  10.455   3.969  12.116  0.0042  0.2305 -0.2381
  445MOL0     C61336  10.410   4.106  12.128 -0.3471  0.2859  0.5586
  445MOL0     C61337  10.343   4.202  12.140  0.4326 -0.8660 -0.1405
  445MOL0     C61338  10.975   3.791  11.724 -0.4233  0.4237  0.8435
  445MOL0     C61339  11.024   3.774  11.586  0.4119 -0.1737 -0.4525
  445MOL0     C61340  11.156   3.710  11.561 -0.4937  0.1184  0.4637
  445MOL0     H61341  10.782   3.971  11.036 -3.9472 -2.2726  0.4606
  445MOL0     H61342  10.802   3.925  10.815  3.3940  2.3994  0.5466
  445MOL0     H61343  10.800   3.708  10.521  0.8636 -0.2786  0.0292
  445MOL0     H61344  10.730   3.810  10.640  2.4678  1.5332 -0.3530
  445MOL0     H61345  10.616   3.570  10.578 -2.7242  0.4503  2.7264
  445MOL0     H61346  10.760   3.503  10.666  0.0189 -0.2513 -0.9237
  445MOL0     H61347  10.677   3.583  10.876  0.6156 -4.3691 -0.8060
  445MOL0     H61348  10.560   3.696  10.794  0.2846  0.9428 -0.1041
  445MOL0     H61349  10.445   3.497  10.700  0.9177  1.6295 -2.2230
  445MOL0     H61350  10.571   3.391  10.766  0.3428 -0.0859 -0.1973
  445MOL0     H61351  10.518   3.501  11.008  0.4398 -1.3878  0.6550
  445MOL0     H61352  10.441   3.357  10.927 -0.2886 -0.2384 -3.7709
  445MOL0     H61353  10.325   3.645  10.936  1.2571  0.2335 -2.8924
  445MOL0     H61354  10.254   3.500  10.862 -0.4632  4.3418 -1.5210
  445MOL0     H61355  10.271   3.376  11.062  0.3299  0.2027 -0.3574
  445MOL0     H61356  10.149   3.503  11.076 -0.0989  0.6135  0.6548
  445MOL0     H61357  10.425   3.542  11.195 -0.1299  0.4262  0.8012
  445MOL0     H61358  10.278   3.652  11.188  1.2846  0.4717 -1.4989
  445MOL0     H61359  10.086   3.595  11.357 -0.5908 -1.0771  0.0293
  445MOL0     H61360  10.080   3.253  11.591 -3.0498 -2.2713 -2.1149
  445MOL0     H61361   9.946   3.342  11.499 -0.1586  0.3540  0.3156
  445MOL0     H61362  10.106   3.432  11.740  0.5870  1.9417  0.3587
  445MOL0     H61363  10.064   3.554  11.628  5.6262 -1.4183 -1.4159
  445MOL0     H61364   9.818   3.524  11.679  0.1068 -0.4918  0.6192
  445MOL0     H61365   9.863   3.370  11.761  1.4190 -1.0856  0.1712
  445MOL0     H61366   9.989   3.507  11.921 -1.6006 -4.8625 -0.4409
  445MOL0     H61367   9.940   3.653  11.841  0.5075 -0.4079  0.1516
  445MOL0     H61368   9.628   3.706  11.819 -0.3999 -0.1976  0.2890
  445MOL0     H61369   9.544   4.037  11.875  0.1982  1.1489  1.7946
  445MOL0     H61370   9.422   3.933  11.964 -0.6105 -5.0995  0.9027
  445MOL0     H61371   9.488   3.881  11.805  1.2465 -0.2245  1.1202
  445MOL0     H61372   9.832   4.100  12.501 -1.1777  1.3300  2.8116
  445MOL0     H61373   9.936   4.316  12.563 -1.8221 -0.1174  1.4040
  445MOL0     H61374   9.778   4.692  12.373 -2.7196 -1.6809  0.3354
  445MOL0     H61375   9.735   4.642  12.537 -0.5695  0.1493 -0.6724
  445MOL0     H61376   9.948   4.724  12.625  1.0739 -1.6258 -1.4415
  445MOL0     H61377   9.999   4.764  12.457 -0.6627 -2.2568  0.0581
  445MOL0     H61378   9.798   4.898  12.639  1.3366  4.1366  1.1367
  445MOL0     H61379   9.786   4.922  12.458  0.7003  0.8767 -0.8740
  445MOL0     H61380  10.014   5.017  12.466  2.3270 -0.4684  0.9288
  445MOL0     H61381  10.016   4.949  12.632 -0.6414  0.0410  0.2200
  445MOL0     H61382   9.894   5.078  12.742  4.6717 -1.5128  0.8707
  445MOL0     H61383  10.005   5.176  12.669 -1.2546  0.7112  0.3232
  445MOL0     H61384   9.790   5.294  12.649  0.1362  0.1985 -0.3099
  445MOL0     H61385   9.718   5.157  12.556  0.2529  0.3431 -0.7019
  445MOL0     H61386   9.867   5.186  12.378  0.1934 -2.9266  2.5863
  445MOL0     H61387   9.960   5.313  12.469  1.0074 -3.3897  1.2471
  445MOL0     H61388   9.731   5.446  12.448  0.6019  0.9367  0.3871
  445MOL0     H61389   9.680   5.313  12.349 -0.9913  1.2694 -1.3383
  445MOL0     H61390   9.723   4.510  12.241  3.7700  1.0532  1.0929
  445MOL0     H61391   9.661   4.298  12.155  3.5960  3.9392 -1.1133
  445MOL0     H61392   9.789   3.824  12.271 -1.7942  0.3824  0.4974
  445MOL0     H61393   9.869   3.620  12.154  1.0293  0.9920 -0.4594
  445MOL0     H61394  10.993   3.537  10.902  0.0147  1.5740  0.1979
  445MOL0     H61395  11.005   3.611  11.131  0.7986 -0.5200 -1.9548
  445MOL0     H61396  10.764   3.935  11.423  1.6986  0.1378 -1.1734
  445MOL0     H61397  10.697   3.964  11.666 -0.0776 -2.2425  0.1325
  445MOL0     H61398  10.648   3.761  11.833 -0.6501 -0.5759  0.5610
  445MOL0     H61399  10.767   3.686  11.928 -1.1638 -1.3034 -0.7553
  445MOL0     H61400  10.699   3.842  12.117  1.5844  3.7943 -0.6939
  445MOL0     H61401  10.561   3.738  12.066  1.9086 -2.5564 -3.9851
  445MOL0     H61402  10.621   4.027  12.017 -2.6377  1.6588  1.0748
  445MOL0     H61403  10.501   3.935  11.912  2.5115 -0.4017 -1.6447
  445MOL0     H61404  10.504   3.941  12.210  2.0882 -1.0848 -1.6332
  445MOL0     H61405  10.369   3.903  12.105 -0.4338  0.1249  2.8817
  445MOL0     H61406  10.286   4.288  12.169  2.0865  0.7215 -1.3338
  445MOL0     H61407  11.053   3.770  11.797  0.0005 -2.1428 -0.2483
  445MOL0     H61408  11.163   3.651  11.469 -1.1360  1.5723 -0.5411
  445MOL0     H61409  11.234   3.785  11.552  2.3674 -2.2223  3.3731
  445MOL0     H61410  11.168   3.640  11.644  0.7593 -0.3181 -0.0651
  446MOL0     O61411   3.723   1.360   8.129 -0.1878 -0.9846 -0.2352
  446MOL0     C61412   3.748   1.390   8.246  0.3254  0.4679  0.5599
  446MOL0     O61413   3.826   1.319   8.331 -0.5045 -0.5091  0.3399
  446MOL0     C61414   3.902   1.217   8.271 -0.1708 -0.0513 -1.1924
  446MOL0     C61415   4.036   1.213   8.297  0.5496  0.4928  0.5316
  446MOL0     C61416   4.113   1.112   8.239  0.0670  0.0845  0.1810
  446MOL0     C61417   4.056   1.010   8.161 -0.3849 -0.2112  0.6760
  446MOL0     O61418   4.118   0.908   8.111 -0.2316 -0.1087  0.4746
  446MOL0     C61419   4.217   0.938   8.014 -0.3580 -1.0385 -0.4224
  446MOL0     C61420   4.245   0.802   7.946  0.0063 -0.0699 -0.2337
  446MOL0     C61421   4.118   0.748   7.879  0.2008 -0.4692 -1.0079
  446MOL0     C61422   4.144   0.636   7.787 -0.6292  0.1480  0.7846
  446MOL0     C61423   4.018   0.591   7.714 -0.2456 -0.1064  0.2723
  446MOL0     C61424   3.913   0.534   7.824  0.3408  0.3842 -0.4409
  446MOL0     C61425   3.791   0.473   7.761 -0.6580 -0.4818  0.1261
  446MOL0     C61426   3.702   0.572   7.691  0.4504  0.3166 -0.0920
  446MOL0     N61427   3.660   0.706   7.751  0.0753 -0.7521  0.8029
  446MOL0     C61428   3.576   0.718   7.863  0.1701 -0.1289  0.5310
  446MOL0     C61429   3.575   0.855   7.877  0.0915  0.5276  0.2184
  446MOL0     C61430   3.498   0.941   7.973 -0.4254 -0.0087 -0.0205
  446MOL0     C61431   3.391   1.031   7.909  0.2578 -0.2910  0.6524
  446MOL0     C61432   3.278   1.087   8.000  0.0068 -0.9262 -0.2215
  446MOL0     C61433   3.326   1.205   8.087 -0.1805 -0.0300 -0.1711
  446MOL0     O61434   3.230   1.241   8.183  0.2475  0.3742 -0.0035
  446MOL0     C61435   3.220   1.167   8.299 -0.8854 -1.0048  0.7033
  446MOL0     C61436   3.117   1.210   8.376  0.2056 -0.3085 -0.0692
  446MOL0     C61437   3.094   1.164   8.506  0.2825 -0.7689  0.1106
  446MOL0     C61438   2.985   1.223   8.597 -0.1612 -0.1483 -0.1367
  446MOL0     C61439   3.177   1.062   8.551  0.1001 -0.3023 -0.9405
  446MOL0     C61440   3.166   1.010   8.686  0.0402 -0.6975 -0.1589
  446MOL0     O61441   3.081   0.903   8.679  0.3527 -0.7088 -0.1356
  446MOL0     C61442   3.064   0.819   8.789 -0.6842 -0.4238 -0.0156
  446MOL0     C61443   3.130   0.705   8.780 -0.7163  0.0017  0.2120
  446MOL0     C61444   3.127   0.610   8.877  0.1464 -1.1101 -0.8105
  446MOL0     C61445   3.047   0.633   8.990 -0.0234 -0.0943  1.1416
  446MOL0     O61446   3.025   0.544   9.083  0.1989  0.2172 -0.2896
  446MOL0     C61447   3.024   0.410   9.042 -0.8938  0.1797 -0.7150
  446MOL0     C61448   2.941   0.327   9.143  0.1972 -0.4663 -0.0652
  446MOL0     C61449   2.971   0.177   9.115 -0.3584 -0.4074 -0.2192
  446MOL0     C61450   2.923   0.084   9.225 -0.6608 -0.7112  0.7396
  446MOL0     C61451   2.965  -0.059   9.194  0.4492  0.3632  0.0411
  446MOL0     C61452   2.978  -0.147   9.324  0.1498  0.8931  1.3330
  446MOL0     C61453   3.071  -0.102   9.436  0.5117  0.6015  0.8223
  446MOL0     C61454   3.224  -0.104   9.414 -0.2991 -0.5179 -0.1137
  446MOL0    Cl61455   3.287  -0.275   9.412  0.3060  0.6179 -0.3196
  446MOL0     C61456   2.976   0.749   9.003 -0.8147 -0.4516 -0.3243
  446MOL0     C61457   2.979   0.844   8.901  0.0742  0.1107 -0.2089
  446MOL0     O61458   3.217   1.058   8.786  0.2789 -0.4266  0.0826
  446MOL0     C61459   3.271   1.014   8.466  0.8620  0.5840  0.0599
  446MOL0     C61460   3.307   1.078   8.348 -0.8964  0.1983 -0.2123
  446MOL0     N61461   3.645   0.925   7.781 -0.1460  0.8690  0.6148
  446MOL0     N61462   3.684   0.834   7.704 -0.1574  0.3872 -1.0148
  446MOL0     C61463   3.912   1.012   8.140  0.0201  0.1478  0.4024
  446MOL0     C61464   3.845   1.122   8.187  0.5620  0.3882  0.2625
  446MOL0     C61465   3.722   1.532   8.285 -0.3270  1.2366 -0.1931
  446MOL0     C61466   3.825   1.624   8.309  0.7817  0.0968 -0.1169
  446MOL0     C61467   3.792   1.752   8.344  0.5678  0.7592 -0.3981
  446MOL0     C61468   3.660   1.803   8.347  0.2050 -0.8222 -0.0344
  446MOL0     O61469   3.622   1.928   8.395 -0.3494  0.3740 -0.6847
  446MOL0     C61470   3.670   1.956   8.524  0.5508  0.6853  0.6344
  446MOL0     C61471   3.656   1.828   8.615 -0.7763 -0.1907 -0.7592
  446MOL0     C61472   3.508   1.830   8.664  0.0489 -0.0112  0.0675
  446MOL0     C61473   3.506   1.801   8.812 -0.4615 -0.2738  0.8149
  446MOL0     C61474   3.534   1.920   8.902 -0.2764 -0.0337  0.3065
  446MOL0     C61475   3.546   2.017   8.981 -0.9467 -0.0482  0.7684
  446MOL0     C61476   3.557   1.716   8.325 -0.4007  0.0568  0.1769
  446MOL0     C61477   3.589   1.585   8.275  1.0379  0.2147 -0.0258
  446MOL0     C61478   3.477   1.501   8.225 -0.7757 -0.5800 -0.1516
  446MOL0     H61479   4.082   1.292   8.355  3.0916  0.2473 -0.9724
  446MOL0     H61480   4.221   1.115   8.226 -0.1337  3.3121 -1.7481
  446MOL0     H61481   4.305   0.975   8.067 -2.0543 -0.2399  2.0176
  446MOL0     H61482   4.192   1.015   7.940 -1.6046 -2.4745 -1.5689
  446MOL0     H61483   4.323   0.820   7.872 -1.7356  0.1776 -2.1215
  446MOL0     H61484   4.290   0.731   8.016  3.1700 -0.5691 -2.5638
  446MOL0     H61485   4.058   0.705   7.960  1.5934 -0.2889  0.1483
  446MOL0     H61486   4.061   0.827   7.831 -2.3410 -1.3276  0.3891
  446MOL0     H61487   4.210   0.680   7.711  0.8998  0.1937  2.0802
  446MOL0     H61488   4.197   0.551   7.830 -1.0398 -1.3193 -1.4447
  446MOL0     H61489   4.038   0.513   7.641 -0.6072  0.5697 -0.5732
  446MOL0     H61490   3.983   0.675   7.654 -0.2207 -0.8722 -0.8247
  446MOL0     H61491   3.959   0.451   7.878 -3.4465 -0.0223  2.5775
  446MOL0     H61492   3.886   0.614   7.894 -2.6749  0.1280 -1.1708
  446MOL0     H61493   3.728   0.443   7.845 -0.7997  2.0160  0.9871
  446MOL0     H61494   3.817   0.394   7.689  2.3854 -2.7589  3.3650
  446MOL0     H61495   3.755   0.597   7.598 -0.3887  3.6991  0.2053
  446MOL0     H61496   3.608   0.521   7.668 -1.0319  1.3318  3.1231
  446MOL0     H61497   3.546   0.647   7.940 -0.4937  0.3369  0.7128
  446MOL0     H61498   3.571   1.003   8.026 -1.3527  2.3306 -1.3429
  446MOL0     H61499   3.461   0.874   8.052  4.8996 -2.2179  1.0238
  446MOL0     H61500   3.436   1.110   7.847  0.2059  0.8715  2.0411
  446MOL0     H61501   3.352   0.958   7.837 -0.2058 -0.3794  0.9935
  446MOL0     H61502   3.189   1.110   7.941 -0.0383 -2.8781 -0.9994
  446MOL0     H61503   3.249   1.004   8.065 -0.3983  0.1667  1.0143
  446MOL0     H61504   3.424   1.185   8.131  0.6783 -0.2209 -2.0737
  446MOL0     H61505   3.342   1.291   8.022  1.4667 -2.4606 -3.2650
  446MOL0     H61506   3.052   1.289   8.341 -0.1425 -0.4695  0.2108
  446MOL0     H61507   2.942   1.319   8.567  0.1065  0.2710  0.7648
  446MOL0     H61508   3.028   1.247   8.695  0.7476  2.2511 -1.0658
  446MOL0     H61509   2.903   1.153   8.616  0.5384 -1.3923 -1.5144
  446MOL0     H61510   3.195   0.694   8.694  1.0711  4.4852  0.7146
  446MOL0     H61511   3.188   0.521   8.866 -0.6826 -1.9800  1.1292
  446MOL0     H61512   2.979   0.402   8.943 -3.2413  0.0008  0.3017
  446MOL0     H61513   3.122   0.364   9.052 -0.7804  0.6470  0.5638
  446MOL0     H61514   2.965   0.343   9.248  0.7677  0.0568 -0.2706
  446MOL0     H61515   2.836   0.343   9.118  0.7911  3.8454 -0.4239
  446MOL0     H61516   3.079   0.165   9.104 -0.1703  1.3972 -0.6275
  446MOL0     H61517   2.934   0.147   9.017  0.7356 -0.7182 -0.5558
  446MOL0     H61518   2.815   0.077   9.234 -0.6608  1.3401  3.8788
  446MOL0     H61519   2.963   0.122   9.320  1.6569 -1.2365  0.0411
  446MOL0     H61520   2.904  -0.109   9.119  2.0549 -2.0373  0.2302
  446MOL0     H61521   3.067  -0.067   9.156  0.7468  2.8634  0.1716
  446MOL0     H61522   3.006  -0.243   9.279 -1.9170  0.1647  1.4585
  446MOL0     H61523   2.877  -0.156   9.365 -0.8689  1.3000 -0.9188
  446MOL0     H61524   3.043  -0.169   9.517 -0.4674 -1.0848 -0.8146
  446MOL0     H61525   3.027  -0.004   9.456 -1.9942  0.2191 -1.9766
  446MOL0     H61526   3.265  -0.051   9.501 -0.9272  3.1468 -1.8266
  446MOL0     H61527   3.250  -0.043   9.327  0.7173  1.4921  1.4987
  446MOL0     H61528   2.909   0.760   9.087  0.0196 -1.6881  0.5403
  446MOL0     H61529   2.916   0.932   8.906 -0.1385 -0.0600  0.2648
  446MOL0     H61530   3.322   0.925   8.503  1.4821  1.3343  1.0734
  446MOL0     H61531   3.386   1.043   8.283 -2.9923  0.0307 -2.8293
  446MOL0     H61532   3.869   0.928   8.086  1.4286  0.2812 -1.0091
  446MOL0     H61533   3.740   1.133   8.162  1.0721 -0.4874 -2.5798
  446MOL0     H61534   3.927   1.588   8.318  0.0782 -2.4029 -1.2331
  446MOL0     H61535   3.876   1.813   8.375  1.5365  0.6659 -2.7105
  446MOL0     H61536   3.776   1.981   8.517 -0.0541  2.9793 -2.7451
  446MOL0     H61537   3.612   2.042   8.562 -0.7943 -0.3762  1.0939
  446MOL0     H61538   3.722   1.846   8.700 -1.9506 -2.2863  0.6983
  446MOL0     H61539   3.693   1.731   8.583  0.7217 -0.0221  0.3626
  446MOL0     H61540   3.456   1.922   8.639 -3.2876 -1.9666 -0.8148
  446MOL0     H61541   3.463   1.742   8.617  4.9481 -4.7308  2.9296
  446MOL0     H61542   3.575   1.724   8.848  0.5243 -0.1415 -0.7216
  446MOL0     H61543   3.408   1.760   8.839 -1.2754  0.0512 -1.4374
  446MOL0     H61544   3.554   2.095   9.054 -0.2970 -0.3731  1.0492
  446MOL0     H61545   3.458   1.753   8.351 -0.4256  1.1668 -1.3887
  446MOL0     H61546   3.381   1.552   8.233 -0.7485 -0.1242 -2.1896
  446MOL0     H61547   3.492   1.485   8.118  1.2974 -0.9252  0.1389
  446MOL0     H61548   3.470   1.404   8.275 -0.3271 -1.5624 -1.9369
  447MOL0     O61549   5.525   4.762   9.439  0.5652 -0.0367 -0.2282
  447MOL0     C61550   5.520   4.864   9.373  0.1315 -0.1295  0.7946
  447MOL0     O61551   5.621   4.908   9.303  1.0804  0.8137  0.4919
  447MOL0     C61552   5.743   4.868   9.331 -0.2323  0.6101 -0.1929
  447MOL0     C61553   5.782   4.876   9.464  0.2731 -0.4725  0.5546
  447MOL0     C61554   5.920   4.845   9.494  0.1245 -0.3745 -0.0609
  447MOL0     C61555   6.018   4.812   9.400 -0.0724 -0.8288 -0.6224
  447MOL0     O61556   6.151   4.793   9.450 -0.1621 -0.8541 -0.4197
  447MOL0     C61557   6.243   4.699   9.386  0.4278  0.1570  0.0417
  447MOL0     C61558   6.169   4.567   9.356 -0.3611 -0.6329  0.3887
  447MOL0     C61559   6.277   4.453   9.337  1.7477 -0.1520  0.1142
  447MOL0     C61560   6.207   4.314   9.336  0.2087 -0.3377 -0.6363
  447MOL0     C61561   6.253   4.216   9.230  0.0698  0.5799  0.5736
  447MOL0     C61562   6.392   4.141   9.258  0.9155  0.5446  0.2788
  447MOL0     C61563   6.410   4.019   9.168  0.4331  0.4644  0.8517
  447MOL0     C61564   6.555   3.984   9.148 -0.1406  0.1252 -0.0726
  447MOL0     N61565   6.628   4.095   9.085  0.1999 -0.7322 -0.6803
  447MOL0     C61566   6.631   4.139   8.957  1.0662  0.6716  0.7353
  447MOL0     C61567   6.731   4.239   8.948 -0.8131  0.4723  0.2664
  447MOL0     C61568   6.790   4.300   8.829 -0.1370 -0.7719  0.9110
  447MOL0     C61569   6.931   4.252   8.806  0.4259  0.4147  1.9431
  447MOL0     C61570   7.041   4.335   8.875 -0.2753  0.8903 -1.0376
  447MOL0     C61571   7.060   4.470   8.821  0.2070 -0.1191  0.0237
  447MOL0     O61572   7.194   4.516   8.863  0.0900  0.0249  0.0035
  447MOL0     C61573   7.274   4.598   8.781  0.2065  0.4238 -0.1891
  447MOL0     C61574   7.235   4.655   8.660  0.6930  0.9656 -0.1447
  447MOL0     C61575   7.329   4.732   8.586 -0.7000 -0.5886 -0.2416
  447MOL0     C61576   7.294   4.787   8.444 -0.9301  0.2398  0.2188
  447MOL0     C61577   7.464   4.746   8.635  0.2584 -0.4547 -0.2126
  447MOL0     C61578   7.574   4.819   8.565 -0.4150  0.5292 -0.2043
  447MOL0     O61579   7.675   4.859   8.655 -0.1295 -0.7400 -0.8166
  447MOL0     C61580   7.761   4.963   8.612 -0.1355  0.5294  0.0761
  447MOL0     C61581   7.741   5.100   8.632  0.2398 -0.7602  1.0010
  447MOL0     C61582   7.838   5.189   8.584 -1.0754 -0.7602  0.0120
  447MOL0     C61583   7.961   5.144   8.529 -0.5364  0.0310 -0.5250
  447MOL0     O61584   8.047   5.237   8.489  0.1513  0.2411 -0.8864
  447MOL0     C61585   8.158   5.264   8.570 -0.2627  0.9462 -0.1972
  447MOL0     C61586   8.257   5.353   8.497  0.3161 -0.3865  0.0151
  447MOL0     C61587   8.362   5.443   8.577  1.3538 -0.0965  0.4029
  447MOL0     C61588   8.299   5.558   8.648 -0.2238 -0.3450 -0.4245
  447MOL0     C61589   8.225   5.663   8.561 -0.9259  0.1295  0.1574
  447MOL0     C61590   8.182   5.781   8.647  0.4309  0.6803 -0.1963
  447MOL0     C61591   8.287   5.863   8.713 -0.6956 -0.7888  1.1872
  447MOL0     C61592   8.303   5.990   8.630 -0.0064 -0.0088  0.1258
  447MOL0    Cl61593   8.403   6.109   8.737 -0.2104 -0.1542 -0.4136
  447MOL0     C61594   7.985   5.016   8.517  0.1616 -0.0105 -1.0479
  447MOL0     C61595   7.875   4.925   8.542 -0.3698  0.0391 -0.2165
  447MOL0     O61596   7.578   4.839   8.444 -0.1707  0.8469 -0.2743
  447MOL0     C61597   7.496   4.683   8.757 -1.5682 -0.2606 -0.0948
  447MOL0     C61598   7.406   4.619   8.830  0.5947  0.0303 -0.9917
  447MOL0     N61599   6.785   4.259   9.069 -0.5331 -0.5511  0.4284
  447MOL0     N61600   6.715   4.186   9.145 -0.0984  0.1186  0.4995
  447MOL0     C61601   5.967   4.813   9.264 -0.0102 -0.2130 -0.2750
  447MOL0     C61602   5.837   4.844   9.231 -0.9212  0.0071 -0.6839
  447MOL0     C61603   5.382   4.940   9.371 -0.1610 -0.9279  0.2650
  447MOL0     C61604   5.288   4.914   9.467 -0.0898  0.2907 -1.1633
  447MOL0     C61605   5.170   4.992   9.480  0.1928 -0.0169 -0.6961
  447MOL0     C61606   5.128   5.080   9.385  0.0137 -0.3033  0.1954
  447MOL0     O61607   5.014   5.161   9.411  0.1479 -0.9748  0.2385
  447MOL0     C61608   4.986   5.278   9.332  0.3410  0.8120 -0.0084
  447MOL0     C61609   5.071   5.409   9.360  0.6180  0.5720 -0.6581
  447MOL0     C61610   4.988   5.514   9.433  0.3828  0.7422  0.0213
  447MOL0     C61611   5.069   5.656   9.437 -0.5634  0.3674 -0.1206
  447MOL0     C61612   4.982   5.760   9.484  0.6749  0.6489  0.3761
  447MOL0     C61613   4.903   5.843   9.519 -0.3014 -0.2874  0.0462
  447MOL0     C61614   5.219   5.097   9.288 -0.9671  0.5926  0.4038
  447MOL0     C61615   5.350   5.036   9.279  0.0528 -0.4145 -0.0160
  447MOL0     C61616   5.448   5.098   9.179  0.6070  0.0180  0.5968
  447MOL0     H61617   5.701   4.891   9.534 -1.0431 -0.8093 -0.8414
  447MOL0     H61618   5.948   4.865   9.596  1.8512  3.3150 -1.0895
  447MOL0     H61619   6.323   4.681   9.459 -1.2749  2.0986  2.5556
  447MOL0     H61620   6.289   4.741   9.296  3.1469 -1.6498  0.4474
  447MOL0     H61621   6.105   4.529   9.436 -0.6492 -0.7326  0.1109
  447MOL0     H61622   6.103   4.574   9.270  0.7859 -1.1280 -0.5566
  447MOL0     H61623   6.339   4.468   9.248  3.1122 -2.5654  0.5618
  447MOL0     H61624   6.355   4.450   9.413 -0.7555  0.7616  2.9100
  447MOL0     H61625   6.216   4.269   9.435 -1.9383  0.8624  0.1952
  447MOL0     H61626   6.101   4.327   9.314 -0.0043  0.2492  0.6318
  447MOL0     H61627   6.253   4.271   9.135 -3.6503 -1.4064 -0.7720
  447MOL0     H61628   6.179   4.136   9.224 -0.0837  0.7617 -0.0906
  447MOL0     H61629   6.476   4.211   9.265 -0.0002  1.5155  2.3902
  447MOL0     H61630   6.387   4.099   9.359  1.1668  1.3774  0.6428
  447MOL0     H61631   6.359   4.038   9.074 -1.4761 -2.7793  1.0810
  447MOL0     H61632   6.356   3.937   9.215  1.0160  0.4723  1.5689
  447MOL0     H61633   6.593   3.944   9.242 -1.4545 -0.4227  0.2460
  447MOL0     H61634   6.572   3.903   9.076  2.1838  1.9122 -1.7211
  447MOL0     H61635   6.575   4.089   8.879 -0.1823  2.7118  0.2617
  447MOL0     H61636   6.791   4.409   8.834  2.7403 -0.5497 -1.3721
  447MOL0     H61637   6.740   4.270   8.736 -0.2323  0.6473  0.4840
  447MOL0     H61638   6.924   4.147   8.837 -4.7143 -0.9194 -2.1783
  447MOL0     H61639   6.950   4.252   8.698  0.2375  0.2508  1.9093
  447MOL0     H61640   7.015   4.347   8.981 -0.1147  1.8013 -1.0871
  447MOL0     H61641   7.133   4.278   8.864  2.1933  4.1589  0.9337
  447MOL0     H61642   7.038   4.456   8.714 -2.1689 -1.5038  0.6118
  447MOL0     H61643   6.986   4.546   8.849  0.7115  0.9277 -1.3575
  447MOL0     H61644   7.134   4.635   8.624 -0.3202  2.4764  1.6608
  447MOL0     H61645   7.352   4.736   8.367 -3.3745  2.5801 -3.4724
  447MOL0     H61646   7.322   4.893   8.437  1.8271 -0.3591  0.7312
  447MOL0     H61647   7.192   4.765   8.412 -0.5654 -0.9285 -0.1669
  447MOL0     H61648   7.643   5.133   8.666  0.0926 -0.7902  0.6110
  447MOL0     H61649   7.829   5.297   8.591 -0.8621 -0.8490  2.5818
  447MOL0     H61650   8.121   5.305   8.664 -1.4610  2.3640 -1.2443
  447MOL0     H61651   8.207   5.168   8.590 -3.7676 -1.0365 -0.1545
  447MOL0     H61652   8.318   5.291   8.431  2.8203  0.3456  1.4986
  447MOL0     H61653   8.184   5.413   8.443 -0.4247 -1.3899 -0.1177
  447MOL0     H61654   8.421   5.486   8.496 -2.1731  2.0628 -1.2509
  447MOL0     H61655   8.412   5.376   8.648 -0.7680  1.6748  3.7792
  447MOL0     H61656   8.369   5.605   8.717 -1.6000  1.5318 -0.2243
  447MOL0     H61657   8.222   5.534   8.723  0.5951  1.9259  1.2639
  447MOL0     H61658   8.295   5.686   8.480 -1.2737 -1.4447 -0.6281
  447MOL0     H61659   8.136   5.614   8.520  0.7087  0.5356 -4.4259
  447MOL0     H61660   8.124   5.743   8.732  2.9831 -0.2228  1.2282
  447MOL0     H61661   8.125   5.849   8.584  3.2686  1.6167 -1.9112
  447MOL0     H61662   8.378   5.805   8.694 -3.3057 -4.7513 -0.5364
  447MOL0     H61663   8.268   5.891   8.817  1.6378  1.7511  1.0331
  447MOL0     H61664   8.208   6.038   8.603  0.7773  1.8622  0.5237
  447MOL0     H61665   8.350   5.958   8.537  1.4108 -3.8523  1.9899
  447MOL0     H61666   8.084   4.989   8.482  3.0441  1.7933  4.4483
  447MOL0     H61667   7.877   4.816   8.542 -2.4333 -0.0474 -1.0191
  447MOL0     H61668   7.596   4.673   8.798 -1.1900 -1.4097 -1.2364
  447MOL0     H61669   7.433   4.588   8.930  0.3857 -1.1759 -1.2988
  447MOL0     H61670   6.041   4.795   9.187  1.1034  2.9487 -0.1026
  447MOL0     H61671   5.815   4.836   9.125  0.0749 -2.3153 -0.7661
  447MOL0     H61672   5.295   4.836   9.542  0.0383 -0.3708 -1.8413
  447MOL0     H61673   5.099   4.954   9.553  1.2976 -0.3870  0.2022
  447MOL0     H61674   5.002   5.244   9.229 -0.5943 -1.7405  0.6279
  447MOL0     H61675   4.879   5.295   9.339 -0.1299 -1.8274  0.2952
  447MOL0     H61676   5.100   5.457   9.266  0.7678  0.5874 -0.6048
  447MOL0     H61677   5.157   5.371   9.417  0.2389 -0.0082 -0.4621
  447MOL0     H61678   4.892   5.524   9.383  0.7243  0.7849 -0.6394
  447MOL0     H61679   4.968   5.481   9.536  0.7597 -0.6069 -0.3208
  447MOL0     H61680   5.095   5.673   9.332 -3.6577  1.3236 -0.8356
  447MOL0     H61681   5.146   5.632   9.511 -0.2964 -0.1674 -0.5635
  447MOL0     H61682   4.826   5.913   9.545  1.4861  1.3927  1.0523
  447MOL0     H61683   5.185   5.163   9.208 -0.2338  1.2597  0.6338
  447MOL0     H61684   5.500   5.020   9.124 -1.4580 -0.7432 -0.3787
  447MOL0     H61685   5.406   5.171   9.109  1.8524  0.8014  0.6372
  447MOL0     H61686   5.514   5.160   9.240 -0.9422 -0.3180  2.7242
  448MOL0     O61687  11.348   6.484   3.864 -0.2181  0.2716  0.1185
  448MOL0     C61688  11.276   6.421   3.944 -0.6671 -0.3185 -0.0592
  448MOL0     O61689  11.264   6.285   3.952  0.5729  0.4895 -0.2743
  448MOL0     C61690  11.332   6.198   3.876  1.1499  0.0250 -0.3583
  448MOL0     C61691  11.362   6.209   3.739 -1.0579 -0.1416 -0.4588
  448MOL0     C61692  11.449   6.117   3.675  0.9044 -0.3040  0.0006
  448MOL0     C61693  11.514   6.026   3.754 -0.3756 -0.3401  0.2414
  448MOL0     O61694  11.591   5.928   3.699  0.0739 -0.5258 -0.2683
  448MOL0     C61695  11.719   5.945   3.631  0.4189 -0.6209 -0.3195
  448MOL0     C61696  11.754   5.815   3.567 -0.7177 -0.1936  0.1703
  448MOL0     C61697  11.907   5.819   3.555 -0.5842 -0.5764 -0.0567
  448MOL0     C61698  11.950   5.679   3.507  0.3216 -0.1972 -0.4592
  448MOL0     C61699  11.878   5.643   3.377  0.0595  1.0792  0.0123
  448MOL0     C61700  11.951   5.527   3.312 -0.5233  0.3090 -0.5445
  448MOL0     C61701  11.964   5.400   3.407  0.2504 -0.0055  0.9455
  448MOL0     C61702  11.831   5.345   3.470 -1.5948 -0.2733  0.1410
  448MOL0     N61703  11.747   5.279   3.372  0.3619  0.0624  0.3044
  448MOL0     C61704  11.625   5.332   3.330 -0.0020  0.4491  0.1388
  448MOL0     C61705  11.559   5.225   3.274 -0.5485 -0.1539  0.1840
  448MOL0     C61706  11.416   5.227   3.230  0.0352 -0.2185 -1.2839
  448MOL0     C61707  11.316   5.225   3.346 -0.3270 -0.0872  0.1688
  448MOL0     C61708  11.179   5.153   3.301 -0.3208  0.8665 -0.1190
  448MOL0     C61709  11.087   5.119   3.420  0.3177  0.4207 -0.9318
  448MOL0     O61710  11.033   5.236   3.477  0.7682  0.4916  0.1486
  448MOL0     C61711  10.914   5.214   3.558 -0.4662 -0.4508  1.0885
  448MOL0     C61712  10.864   5.091   3.607  0.5006 -0.3391  0.0393
  448MOL0     C61713  10.743   5.092   3.679  0.6581 -0.0047  0.7192
  448MOL0     C61714  10.684   4.955   3.724  0.7276 -0.3739  0.4523
  448MOL0     C61715  10.674   5.218   3.695 -0.2635  0.3267 -0.1709
  448MOL0     C61716  10.536   5.222   3.755 -0.8384 -0.1869 -0.0939
  448MOL0     O61717  10.517   5.313   3.862  0.4866  0.0347 -0.3573
  448MOL0     C61718  10.391   5.359   3.886  0.4457 -0.2750  0.4147
  448MOL0     C61719  10.356   5.491   3.851  0.4965 -0.1726  0.0319
  448MOL0     C61720  10.228   5.540   3.873  0.2839 -0.3852 -0.0915
  448MOL0     C61721  10.130   5.457   3.937 -0.5609 -0.2494  0.4783
  448MOL0     O61722  10.001   5.514   3.937 -0.7233  0.7108 -0.2511
  448MOL0     C61723   9.893   5.441   3.992  0.5155 -0.1216 -0.4676
  448MOL0     C61724   9.759   5.502   3.960  1.0058  0.4886  0.8205
  448MOL0     C61725   9.746   5.617   3.846  0.7653  1.1365 -0.1088
  448MOL0     C61726   9.839   5.739   3.837 -0.7668 -0.2596  1.1265
  448MOL0     C61727   9.856   5.825   3.962 -0.4024 -0.1581 -0.2284
  448MOL0     C61728   9.725   5.867   4.031 -0.6700 -0.4667 -0.0770
  448MOL0     C61729   9.757   5.878   4.175  0.3849  0.2892 -0.5983
  448MOL0     C61730   9.649   5.926   4.269  0.5646 -0.2983  0.0304
  448MOL0    Cl61731   9.541   5.791   4.301 -0.2294  0.6233 -0.6108
  448MOL0     C61732  10.168   5.328   3.972  0.8262 -0.8041  0.9634
  448MOL0     C61733  10.290   5.276   3.940 -1.3820 -0.3718 -0.0957
  448MOL0     O61734  10.449   5.149   3.707 -0.3919 -0.0239  0.0800
  448MOL0     C61735  10.736   5.332   3.664 -0.2127  0.1701 -1.2080
  448MOL0     C61736  10.860   5.335   3.598  0.8488 -0.4692  0.3538
  448MOL0     N61737  11.641   5.116   3.294  0.2590  0.7944  0.4685
  448MOL0     N61738  11.750   5.146   3.350 -0.1960  0.1382  0.2199
  448MOL0     C61739  11.472   6.007   3.887 -0.8435  1.6856  0.1557
  448MOL0     C61740  11.398   6.101   3.953  0.1351  0.1328  0.7045
  448MOL0     C61741  11.204   6.516   4.032 -0.2705 -0.4638 -0.7431
  448MOL0     C61742  11.243   6.663   4.029 -0.3333  0.5716  0.4933
  448MOL0     C61743  11.170   6.760   4.103  0.6848  0.5665 -0.1888
  448MOL0     C61744  11.059   6.716   4.189 -0.4527 -0.3229  0.7247
  448MOL0     O61745  10.984   6.800   4.272  0.1404  0.0200 -0.5441
  448MOL0     C61746  10.991   6.951   4.273  0.0185  0.0287 -0.8698
  448MOL0     C61747  10.939   7.037   4.153 -0.5328  0.5943 -0.4103
  448MOL0     C61748  10.806   6.977   4.087  0.3749  0.0534 -0.0326
  448MOL0     C61749  10.748   7.061   3.987  0.4230 -0.5658  0.0643
  448MOL0     C61750  10.607   7.023   3.969  0.4992 -0.3211  0.0452
  448MOL0     C61751  10.491   6.995   3.968  0.4025 -0.3909  0.4695
  448MOL0     C61752  11.027   6.580   4.193  0.8394  0.3776  0.6268
  448MOL0     C61753  11.092   6.478   4.111  0.1885 -0.3839  0.1793
  448MOL0     C61754  11.019   6.344   4.108 -0.2276 -0.7167  0.0574
  448MOL0     H61755  11.336   6.296   3.680 -1.0075  0.0269 -0.2358
  448MOL0     H61756  11.460   6.125   3.567  0.6944  2.7401  0.1064
  448MOL0     H61757  11.799   5.964   3.702  0.9975 -4.2396  0.1691
  448MOL0     H61758  11.718   6.019   3.550 -0.0224 -0.5548 -0.2562
  448MOL0     H61759  11.728   5.723   3.621 -0.8391 -2.9343 -4.0720
  448MOL0     H61760  11.702   5.814   3.470  0.6814 -0.8462 -0.6090
  448MOL0     H61761  11.933   5.903   3.490 -1.0593 -0.7977 -0.5403
  448MOL0     H61762  11.957   5.841   3.649  0.4878  1.2210 -0.9980
  448MOL0     H61763  12.057   5.691   3.486  0.7670  1.4998  2.3183
  448MOL0     H61764  11.916   5.615   3.589 -3.8903  0.6121 -1.3393
  448MOL0     H61765  11.859   5.721   3.303 -4.5703 -0.2157 -0.4844
  448MOL0     H61766  11.776   5.608   3.394 -0.2198  0.6827 -2.2129
  448MOL0     H61767  11.895   5.498   3.223 -0.3018 -2.1810  0.0426
  448MOL0     H61768  12.049   5.566   3.282  0.2550 -0.1253  1.2691
  448MOL0     H61769  12.041   5.437   3.475  0.5173  2.1566 -0.4171
  448MOL0     H61770  12.007   5.316   3.353 -1.6557 -0.6568  0.3805
  448MOL0     H61771  11.871   5.273   3.541 -0.2092  1.8067  1.5778
  448MOL0     H61772  11.782   5.422   3.531 -0.3237  0.0360  0.7934
  448MOL0     H61773  11.595   5.435   3.347  0.4385  1.1275 -2.7080
  448MOL0     H61774  11.405   5.138   3.166 -0.2131 -0.9417 -0.2586
  448MOL0     H61775  11.389   5.310   3.164  0.6441  0.9317 -0.1291
  448MOL0     H61776  11.362   5.175   3.431 -0.1893  0.1644  0.2426
  448MOL0     H61777  11.297   5.328   3.378  0.1250  0.7682 -2.1565
  448MOL0     H61778  11.118   5.219   3.238  1.1855  1.2319 -1.2596
  448MOL0     H61779  11.203   5.057   3.254 -0.2422 -0.3435  2.2534
  448MOL0     H61780  11.009   5.050   3.387 -1.2300  1.7655 -0.2718
  448MOL0     H61781  11.148   5.070   3.496 -0.0318 -0.8381 -1.4417
  448MOL0     H61782  10.911   4.997   3.578  4.1084  1.0771  0.7797
  448MOL0     H61783  10.759   4.876   3.727  1.5245  0.2755 -1.1553
  448MOL0     H61784  10.598   4.925   3.663 -0.6854  0.0621  2.1282
  448MOL0     H61785  10.634   4.977   3.819 -0.4061 -2.4095  0.3747
  448MOL0     H61786  10.416   5.570   3.806 -1.4444  0.8268 -0.9193
  448MOL0     H61787  10.202   5.640   3.839 -0.4025 -0.5488 -0.0491
  448MOL0     H61788   9.899   5.338   3.956  3.0065 -0.0551 -0.3974
  448MOL0     H61789   9.910   5.442   4.100  1.6709  2.6578 -0.5796
  448MOL0     H61790   9.692   5.420   3.932 -0.0078  1.7013 -0.4893
  448MOL0     H61791   9.728   5.544   4.056  3.1279  2.4295  0.7305
  448MOL0     H61792   9.641   5.648   3.848  0.9844  2.0814 -1.5961
  448MOL0     H61793   9.757   5.555   3.757 -0.6678 -1.1479  1.1878
  448MOL0     H61794   9.789   5.810   3.770  0.9615  0.5073  0.5947
  448MOL0     H61795   9.936   5.715   3.792 -1.0587  0.9885 -0.2798
  448MOL0     H61796   9.924   5.757   4.014 -0.9685 -1.8617 -1.6030
  448MOL0     H61797   9.904   5.920   3.936 -0.2577 -0.2440 -0.2700
  448MOL0     H61798   9.645   5.793   4.020 -0.2419 -0.8716 -0.5800
  448MOL0     H61799   9.699   5.964   3.988  2.7852  0.5502 -0.1640
  448MOL0     H61800   9.845   5.943   4.174  0.5285  0.0925 -0.7316
  448MOL0     H61801   9.792   5.784   4.217  0.1891 -0.0038 -1.0849
  448MOL0     H61802   9.588   6.005   4.225  0.6743 -0.3812 -0.2707
  448MOL0     H61803   9.693   5.943   4.368 -1.4085 -1.3910  1.1574
  448MOL0     H61804  10.081   5.279   4.015 -1.4372  1.9629 -0.0968
  448MOL0     H61805  10.313   5.171   3.958  3.4427  0.2321 -1.5004
  448MOL0     H61806  10.687   5.424   3.695  3.3092  1.1671  2.2209
  448MOL0     H61807  10.899   5.425   3.554 -0.0055  0.2254  0.9681
  448MOL0     H61808  11.520   5.922   3.934  0.3806  0.0539 -3.6378
  448MOL0     H61809  11.381   6.113   4.059  0.7518 -0.4826  0.8838
  448MOL0     H61810  11.328   6.703   3.975 -0.1656 -1.8065 -1.1401
  448MOL0     H61811  11.204   6.862   4.086 -0.3290  0.4925 -3.2588
  448MOL0     H61812  10.934   6.991   4.358 -1.0403  0.8528 -1.9389
  448MOL0     H61813  11.094   6.985   4.284 -1.4749  5.3938 -0.4114
  448MOL0     H61814  11.021   7.036   4.081  0.8083 -0.0502  1.0610
  448MOL0     H61815  10.928   7.141   4.187  1.3243  0.9078 -0.6501
  448MOL0     H61816  10.826   6.877   4.046  1.0741 -0.1586  0.7994
  448MOL0     H61817  10.742   6.976   4.175  1.4509  2.1324  0.8441
  448MOL0     H61818  10.790   7.051   3.887 -1.6569 -2.0343 -0.7377
  448MOL0     H61819  10.749   7.166   4.017 -3.7280 -0.5069  0.7057
  448MOL0     H61820  10.392   6.954   3.964 -1.6573  3.9481  0.7163
  448MOL0     H61821  10.928   6.555   4.228  0.5245  1.9652  0.9674
  448MOL0     H61822  11.083   6.268   4.153  0.6854  0.3522  0.6324
  448MOL0     H61823  10.932   6.361   4.171  0.6586 -3.1206  2.0921
  448MOL0     H61824  11.004   6.304   4.008  1.2413 -0.5858 -0.2478
  449MOL0     O61825   9.328   3.057   1.826 -0.5019 -0.0578 -0.3287
  449MOL0     C61826   9.249   3.050   1.731 -0.1603 -0.8338  0.3492
  449MOL0     O61827   9.209   3.162   1.665 -0.1510  0.2808  0.4094
  449MOL0     C61828   9.306   3.266   1.642 -0.0480  0.3195 -0.5360
  449MOL0     C61829   9.444   3.248   1.662 -2.0970 -0.1122  0.2876
  449MOL0     C61830   9.535   3.358   1.643 -0.3176  0.1823  0.6666
  449MOL0     C61831   9.492   3.487   1.605  0.4433 -0.1086 -0.4378
  449MOL0     O61832   9.599   3.571   1.567 -0.4285  0.2303  0.5898
  449MOL0     C61833   9.610   3.694   1.636  0.6991 -0.0216 -0.3182
  449MOL0     C61834   9.741   3.759   1.598 -0.3817 -0.3741  1.0019
  449MOL0     C61835   9.863   3.682   1.648 -0.1572 -0.4612 -0.4091
  449MOL0     C61836   9.990   3.756   1.585  0.3518  0.0993  0.4731
  449MOL0     C61837  10.111   3.715   1.668  0.4840  0.3251 -0.2849
  449MOL0     C61838  10.237   3.749   1.594  0.9029  0.6363  0.0214
  449MOL0     C61839  10.272   3.899   1.580  0.6920  0.3101  0.5434
  449MOL0     C61840  10.424   3.922   1.553 -0.3606  0.2491 -0.1136
  449MOL0     N61841  10.450   4.039   1.470 -0.3935 -0.2040  0.3837
  449MOL0     C61842  10.459   4.050   1.337  0.6295 -0.5194 -0.1279
  449MOL0     C61843  10.475   4.187   1.324 -0.1707  0.4532 -0.4005
  449MOL0     C61844  10.497   4.241   1.190  0.4017 -1.4649  0.4535
  449MOL0     C61845  10.646   4.259   1.152  0.4683 -0.1808 -0.0213
  449MOL0     C61846  10.714   4.372   1.231 -0.2482 -1.1115 -0.1900
  449MOL0     C61847  10.641   4.508   1.233 -0.4609  0.0259 -0.1905
  449MOL0     O61848  10.714   4.613   1.302  0.1687 -0.6770  0.5722
  449MOL0     C61849  10.633   4.722   1.335  0.3795  0.0153 -0.3667
  449MOL0     C61850  10.517   4.764   1.271  0.2565  0.3698  0.1908
  449MOL0     C61851  10.449   4.885   1.303 -0.1155 -0.2028 -0.0573
  449MOL0     C61852  10.323   4.913   1.221  0.3384 -0.6926  0.1266
  449MOL0     C61853  10.498   4.975   1.398 -0.9560  0.1627 -0.2087
  449MOL0     C61854  10.443   5.113   1.430 -0.1715  0.2038 -1.0282
  449MOL0     O61855  10.384   5.193   1.329  0.2058  0.0023  0.5777
  449MOL0     C61856  10.367   5.322   1.340 -0.2525  0.9444 -0.3249
  449MOL0     C61857  10.469   5.407   1.346 -0.8466 -0.4041  0.2674
  449MOL0     C61858  10.449   5.539   1.362 -0.4313  0.1493 -0.1724
  449MOL0     C61859  10.328   5.589   1.389 -0.4171 -0.3228  0.4937
  449MOL0     O61860  10.293   5.722   1.392 -0.1632 -1.2591 -0.9060
  449MOL0     C61861  10.397   5.822   1.392 -1.2650 -0.6237 -0.1658
  449MOL0     C61862  10.328   5.964   1.383  0.6700 -0.6302  0.9375
  449MOL0     C61863  10.428   6.074   1.363  0.1922  0.1678 -0.3164
  449MOL0     C61864  10.520   6.076   1.490 -0.5283 -0.7044 -0.0581
  449MOL0     C61865  10.581   6.221   1.513  0.7840  0.3776  0.2438
  449MOL0     C61866  10.481   6.325   1.573  0.1382  0.6376 -0.1747
  449MOL0     C61867  10.539   6.455   1.591  0.6346  0.5526  0.3031
  449MOL0     C61868  10.434   6.564   1.608 -0.3637  0.0761  0.6822
  449MOL0    Cl61869  10.357   6.613   1.461  0.7352  0.1929  0.3752
  449MOL0     C61870  10.213   5.506   1.401 -0.3880  0.5170  0.5767
  449MOL0     C61871  10.246   5.367   1.377 -0.2189 -0.4028 -0.2369
  449MOL0     O61872  10.475   5.161   1.543 -0.3467 -0.1808  0.1306
  449MOL0     C61873  10.609   4.923   1.479  0.2900  0.4997  0.1012
  449MOL0     C61874  10.671   4.802   1.437 -0.2017 -0.2715 -0.4357
  449MOL0     N61875  10.464   4.256   1.445 -0.7360  0.3056 -0.1280
  449MOL0     N61876  10.440   4.163   1.528  0.0519 -0.3376 -0.6512
  449MOL0     C61877   9.357   3.506   1.597 -0.1477  0.7392 -0.5651
  449MOL0     C61878   9.268   3.392   1.610  0.4245 -0.1765 -0.3561
  449MOL0     C61879   9.169   2.924   1.710 -0.8745  0.7319  0.2876
  449MOL0     C61880   9.045   2.943   1.659 -0.6510 -0.6466 -0.8745
  449MOL0     C61881   8.961   2.838   1.625 -0.1085 -0.6749 -0.3625
  449MOL0     C61882   9.001   2.710   1.645 -0.1754  0.6382 -0.2838
  449MOL0     O61883   8.915   2.615   1.599  0.1543 -0.1714  1.2507
  449MOL0     C61884   8.947   2.476   1.599  0.0951 -0.2477 -0.0065
  449MOL0     C61885   8.899   2.432   1.740  0.3061 -0.2614  0.1357
  449MOL0     C61886   8.891   2.277   1.770  0.0433 -0.4226  0.7371
  449MOL0     C61887   8.978   2.226   1.887 -0.9127 -0.0738 -0.5128
  449MOL0     C61888   9.125   2.251   1.870  0.5714 -0.5744 -0.2472
  449MOL0     C61889   9.234   2.308   1.851  0.2327  1.1602  0.2773
  449MOL0     C61890   9.127   2.687   1.694 -0.7362 -0.6298 -0.0327
  449MOL0     C61891   9.213   2.792   1.725 -0.9011  0.0688 -1.5044
  449MOL0     C61892   9.351   2.756   1.783  0.4494  0.4116 -0.4739
  449MOL0     H61893   9.485   3.151   1.686  0.3523  0.7786 -0.0866
  449MOL0     H61894   9.643   3.358   1.652 -0.3659 -0.3095  1.3215
  449MOL0     H61895   9.604   3.685   1.745 -2.7444  1.5963 -0.2309
  449MOL0     H61896   9.532   3.767   1.612  0.7195  0.4958  1.0780
  449MOL0     H61897   9.741   3.755   1.489  1.1174 -2.4330  1.0307
  449MOL0     H61898   9.756   3.864   1.628  2.0310  0.8026 -3.3891
  449MOL0     H61899   9.876   3.675   1.757  0.5048  0.4631 -0.4152
  449MOL0     H61900   9.856   3.580   1.610  0.1240 -0.3821 -0.6779
  449MOL0     H61901   9.990   3.740   1.477  0.2316  0.8844  0.3557
  449MOL0     H61902   9.986   3.865   1.590  2.1163  0.1853  0.7027
  449MOL0     H61903  10.108   3.607   1.683 -1.0800  0.5843  1.6816
  449MOL0     H61904  10.124   3.755   1.770  2.8092 -0.5582 -0.1771
  449MOL0     H61905  10.320   3.693   1.638  2.0548  0.5267 -2.1369
  449MOL0     H61906  10.230   3.695   1.499  1.2998 -0.2939  0.5015
  449MOL0     H61907  10.249   3.944   1.678 -1.6502 -1.2027  0.7791
  449MOL0     H61908  10.203   3.950   1.513 -0.1395  2.2252  2.6962
  449MOL0     H61909  10.483   3.918   1.645  1.8127  0.4894 -1.4227
  449MOL0     H61910  10.449   3.827   1.505  0.2066  0.3585 -0.0448
  449MOL0     H61911  10.459   3.967   1.267  2.1624 -0.5540 -0.1171
  449MOL0     H61912  10.433   4.327   1.167  0.8796 -1.6850 -2.0283
  449MOL0     H61913  10.472   4.168   1.113  0.9196 -0.6644 -0.4984
  449MOL0     H61914  10.702   4.169   1.178  3.2213  1.1675 -0.9636
  449MOL0     H61915  10.655   4.280   1.045 -0.7257 -0.4861 -0.2014
  449MOL0     H61916  10.742   4.341   1.332  0.0056 -3.5636 -0.9303
  449MOL0     H61917  10.809   4.394   1.182 -0.5179  4.3371  1.1294
  449MOL0     H61918  10.610   4.546   1.135  3.7387 -0.0096 -1.7242
  449MOL0     H61919  10.547   4.496   1.288 -2.2521  1.9620 -2.5543
  449MOL0     H61920  10.480   4.707   1.187 -0.2924 -0.4938  1.0020
  449MOL0     H61921  10.365   4.945   1.126 -0.2658  0.6138  0.2768
  449MOL0     H61922  10.253   4.988   1.261  1.5657  1.4272 -1.5004
  449MOL0     H61923  10.268   4.819   1.212 -1.3162  0.4065 -2.4148
  449MOL0     H61924  10.572   5.376   1.327 -0.0123  2.7540 -0.8836
  449MOL0     H61925  10.533   5.608   1.359 -0.7198  0.4800 -1.7660
  449MOL0     H61926  10.464   5.831   1.477 -3.0270  1.4064  1.1280
  449MOL0     H61927  10.462   5.807   1.305 -0.3466  1.9491 -0.0207
  449MOL0     H61928  10.264   5.965   1.294  0.9769  2.8402  0.6238
  449MOL0     H61929  10.265   5.981   1.471 -0.8412  0.4683 -0.2958
  449MOL0     H61930  10.385   6.174   1.352 -1.1730 -0.5689 -2.1843
  449MOL0     H61931  10.492   6.036   1.282  0.3727 -0.1623 -0.0214
  449MOL0     H61932  10.598   5.999   1.491 -0.2030 -0.5118 -2.8553
  449MOL0     H61933  10.449   6.056   1.571 -3.0255  1.1400 -1.6550
  449MOL0     H61934  10.672   6.217   1.574  1.4054  1.4201 -0.5583
  449MOL0     H61935  10.614   6.250   1.413 -1.4182 -3.5058 -1.8242
  449MOL0     H61936  10.443   6.281   1.665  0.4305 -1.0604 -0.8109
  449MOL0     H61937  10.407   6.339   1.494 -1.6136 -1.1395  1.0644
  449MOL0     H61938  10.605   6.476   1.507 -0.3149 -2.5544 -1.3941
  449MOL0     H61939  10.605   6.473   1.676 -2.0516  2.2533  2.1770
  449MOL0     H61940  10.492   6.644   1.656 -0.3270  1.2347 -1.1811
  449MOL0     H61941  10.356   6.536   1.679 -1.5185 -2.6068 -1.4886
  449MOL0     H61942  10.118   5.543   1.438  0.1920 -0.8115  3.7591
  449MOL0     H61943  10.167   5.292   1.387 -0.2834 -0.4734 -1.1595
  449MOL0     H61944  10.661   4.983   1.553  2.0327 -0.0225 -0.6541
  449MOL0     H61945  10.762   4.764   1.484 -0.0718  0.6819  0.1295
  449MOL0     H61946   9.308   3.597   1.567  0.6638  0.8188 -1.6936
  449MOL0     H61947   9.163   3.388   1.581  0.5463 -0.8743 -0.7065
  449MOL0     H61948   9.003   3.041   1.641  0.7278 -0.2077 -1.8822
  449MOL0     H61949   8.863   2.850   1.582 -0.1688 -0.0254 -0.0510
  449MOL0     H61950   8.891   2.434   1.516  2.5983 -0.3268 -1.7835
  449MOL0     H61951   9.047   2.439   1.572  0.3611  0.1028  0.4657
  449MOL0     H61952   8.803   2.476   1.768  0.7718 -0.4362  2.1794
  449MOL0     H61953   8.972   2.471   1.811  1.1763 -0.9253 -0.3706
  449MOL0     H61954   8.788   2.252   1.795 -1.1120  2.3895 -0.7599
  449MOL0     H61955   8.920   2.221   1.681 -1.4713  0.9039 -0.6463
  449MOL0     H61956   8.962   2.119   1.902 -1.5252 -0.0752 -1.1011
  449MOL0     H61957   8.943   2.280   1.975  0.6412  0.9937 -0.5200
  449MOL0     H61958   9.327   2.348   1.816  1.1315 -2.4233 -1.8894
  449MOL0     H61959   9.165   2.591   1.726 -3.6671 -0.7454  3.9749
  449MOL0     H61960   9.420   2.815   1.722 -1.9601 -0.0853 -3.9933
  449MOL0     H61961   9.334   2.784   1.887 -1.7351 -2.6689  0.1484
  449MOL0     H61962   9.374   2.649   1.770 -3.9883 -0.4067 -4.7562
  450MOL0     O61963   2.488   6.820  11.329 -0.3286  0.4261 -0.4868
  450MOL0     C61964   2.501   6.890  11.430 -0.3843 -0.4808  0.8505
  450MOL0     O61965   2.615   6.955  11.451 -0.1215 -0.1933 -0.5077
  450MOL0     C61966   2.694   6.983  11.342 -0.5963 -1.2936  1.1610
  450MOL0     C61967   2.798   6.903  11.316  0.1366  0.0633  0.2011
  450MOL0     C61968   2.885   6.922  11.207  0.7903 -0.8482  1.0423
  450MOL0     C61969   2.872   7.039  11.134 -0.4283 -0.3825  0.8448
  450MOL0     O61970   2.944   7.070  11.016 -0.2341  0.0911  0.0877
  450MOL0     C61971   3.049   6.978  10.979  0.0805 -0.1803  1.3420
  450MOL0     C61972   3.136   7.020  10.860 -0.6050  0.1325  0.8843
  450MOL0     C61973   3.037   7.010  10.742 -0.7974 -0.1785  0.8643
  450MOL0     C61974   3.106   7.073  10.623  0.1615  0.7262 -1.7266
  450MOL0     C61975   3.017   7.068  10.504 -0.4151  0.4813  0.5468
  450MOL0     C61976   3.034   6.929  10.434  0.1477  0.1348  0.1165
  450MOL0     C61977   2.923   6.889  10.325  0.3689 -0.7952  0.3107
  450MOL0     C61978   2.931   6.744  10.267 -1.0701 -0.1062 -0.8788
  450MOL0     N61979   2.902   6.651  10.370 -0.0784 -0.7909  0.2721
  450MOL0     C61980   2.771   6.635  10.434  0.2334  0.3357  0.3963
  450MOL0     C61981   2.803   6.543  10.530 -0.0946 -0.2308  0.5914
  450MOL0     C61982   2.706   6.498  10.640 -0.8268  0.0296 -0.0039
  450MOL0     C61983   2.557   6.500  10.592  0.1268  0.2242 -0.1566
  450MOL0     C61984   2.506   6.358  10.642  0.1967  0.2324 -0.7290
  450MOL0     C61985   2.364   6.333  10.598  0.0287  0.8436 -0.9586
  450MOL0     O61986   2.324   6.196  10.624 -0.1169  0.3043 -0.0664
  450MOL0     C61987   2.210   6.160  10.553  0.1829  0.4451 -0.8301
  450MOL0     C61988   2.083   6.213  10.581  0.8827  0.0219  1.4019
  450MOL0     C61989   1.976   6.179  10.493  0.4782 -0.5822  0.9968
  450MOL0     C61990   1.838   6.244  10.525  1.5000 -0.8179  0.0495
  450MOL0     C61991   1.989   6.084  10.390  0.2427  0.3305  0.0430
  450MOL0     C61992   1.878   6.039  10.290  0.0727 -0.3019  1.1722
  450MOL0     O61993   1.915   5.946  10.203  0.0453  0.1448 -0.4154
  450MOL0     C61994   1.823   5.925  10.101  0.3916  0.0442  0.3844
  450MOL0     C61995   1.774   5.802  10.086 -0.1398  1.0852 -1.1679
  450MOL0     C61996   1.698   5.757   9.982 -0.9055  0.4576 -0.6859
  450MOL0     C61997   1.660   5.851   9.886  0.0225  0.3886  1.1179
  450MOL0     O61998   1.583   5.813   9.777  0.4948  0.5698  0.4332
  450MOL0     C61999   1.490   5.915   9.725 -0.2161 -0.0915  0.3664
  450MOL0     C62000   1.541   6.004   9.603 -0.6962  0.2817 -0.0930
  450MOL0     C62001   1.609   5.923   9.489  0.1830 -0.2073 -0.0182
  450MOL0     C62002   1.499   5.827   9.414 -0.1028  0.0742 -0.8185
  450MOL0     C62003   1.557   5.759   9.283 -0.9453 -0.0744  0.5875
  450MOL0     C62004   1.600   5.858   9.168  0.0408  0.3108 -0.3110
  450MOL0     C62005   1.649   5.786   9.040  0.1390  0.4064 -0.9228
  450MOL0     C62006   1.698   5.875   8.934 -0.4576 -0.0874  0.1610
  450MOL0    Cl62007   1.723   5.769   8.785 -0.0742 -0.2934 -0.4078
  450MOL0     C62008   1.706   5.982   9.895 -0.5292  0.0465 -0.1480
  450MOL0     C62009   1.781   6.022  10.004  0.2919  0.4788  0.2241
  450MOL0     O62010   1.771   6.101  10.292  0.3509 -0.5206  0.1410
  450MOL0     C62011   2.117   6.026  10.366  0.3602 -0.0301  0.5399
  450MOL0     C62012   2.225   6.059  10.447  0.0992 -0.5263 -0.3122
  450MOL0     N62013   2.932   6.493  10.516 -0.4013 -0.5935 -0.7434
  450MOL0     N62014   2.991   6.563  10.423 -0.2347  0.4174  0.0119
  450MOL0     C62015   2.763   7.120  11.159 -0.1849 -0.0404 -0.2200
  450MOL0     C62016   2.683   7.103  11.273 -0.0975 -1.1093 -0.2888
  450MOL0     C62017   2.391   6.912  11.529  0.0441 -0.0862  0.4102
  450MOL0     C62018   2.427   6.995  11.643  0.5298 -0.2102 -0.1402
  450MOL0     C62019   2.329   7.022  11.731  0.2142  0.1393  0.2587
  450MOL0     C62020   2.212   6.947  11.744 -0.4167  0.2071  0.2111
  450MOL0     O62021   2.114   6.967  11.831 -0.0112 -0.0779 -0.5953
  450MOL0     C62022   2.142   6.992  11.973  0.7492  0.0325 -0.4538
  450MOL0     C62023   2.176   7.143  12.005  0.3933 -0.0621  0.8780
  450MOL0     C62024   2.133   7.171  12.149  0.2732 -0.1872  0.2414
  450MOL0     C62025   2.129   7.318  12.195 -0.8913 -0.2076 -0.4209
  450MOL0     C62026   2.059   7.401  12.091 -0.1540 -0.1155 -0.0747
  450MOL0     C62027   2.010   7.453  11.995  0.3724 -0.0784 -0.1986
  450MOL0     C62028   2.181   6.866  11.636  0.1486  0.6323 -0.8612
  450MOL0     C62029   2.269   6.850  11.527  0.1111 -0.1792  0.3294
  450MOL0     C62030   2.213   6.769  11.409 -0.6015 -0.4144  0.0083
  450MOL0     H62031   2.815   6.818  11.382  0.0371 -0.3269 -0.2641
  450MOL0     H62032   2.966   6.850  11.198 -1.0016 -2.6415 -3.1162
  450MOL0     H62033   2.991   6.889  10.955 -3.0745  1.6289  1.7203
  450MOL0     H62034   3.119   6.956  11.061 -0.1966  1.9326  2.2198
  450MOL0     H62035   3.181   7.119  10.876  0.6081 -0.1074 -0.7726
  450MOL0     H62036   3.212   6.944  10.842  0.7496  2.0447 -2.4619
  450MOL0     H62037   3.018   6.905  10.720 -0.4645 -0.1413  0.3869
  450MOL0     H62038   2.943   7.063  10.757 -0.5887  0.2630  0.6519
  450MOL0     H62039   3.127   7.178  10.646 -0.6217  0.5710 -0.1851
  450MOL0     H62040   3.201   7.022  10.601  0.3837  0.6843 -0.7239
  450MOL0     H62041   3.052   7.137  10.426  0.0617 -2.6644 -2.2375
  450MOL0     H62042   2.910   7.075  10.526 -0.1454 -1.1589  2.6569
  450MOL0     H62043   3.137   6.923  10.399 -1.3983 -2.0433 -4.9789
  450MOL0     H62044   3.030   6.847  10.506  0.6201 -2.9313 -3.0781
  450MOL0     H62045   2.919   6.965  10.246  1.8278  1.8494  2.5817
  450MOL0     H62046   2.828   6.892  10.379 -0.3770  0.5668 -0.9843
  450MOL0     H62047   2.870   6.739  10.176 -0.3421  1.6106 -1.4957
  450MOL0     H62048   3.034   6.735  10.234 -0.6787  4.7067 -1.6649
  450MOL0     H62049   2.679   6.693  10.434 -0.5000 -0.7979  1.0379
  450MOL0     H62050   2.713   6.552  10.735 -0.6251 -1.7575  1.0414
  450MOL0     H62051   2.739   6.400  10.675 -2.6994  0.0078  1.9143
  450MOL0     H62052   2.500   6.582  10.634 -1.9816 -0.8706 -0.7434
  450MOL0     H62053   2.548   6.501  10.483 -3.0865 -2.0172 -0.0635
  450MOL0     H62054   2.559   6.273  10.599  0.7132 -0.4227  1.1281
  450MOL0     H62055   2.517   6.371  10.750  1.6520  2.5064 -1.0836
  450MOL0     H62056   2.293   6.400  10.649  2.2255 -0.0627  3.8327
  450MOL0     H62057   2.360   6.339  10.489  0.6328 -0.7346 -1.0980
  450MOL0     H62058   2.064   6.287  10.658 -0.9174 -0.6324  1.6372
  450MOL0     H62059   1.852   6.299  10.619 -0.3212  1.0029 -0.6692
  450MOL0     H62060   1.747   6.186  10.544  0.6103  0.0283 -1.4640
  450MOL0     H62061   1.814   6.304  10.437  0.2235 -2.1045 -0.5192
  450MOL0     H62062   1.805   5.728  10.159  2.6178 -0.6354 -3.8742
  450MOL0     H62063   1.649   5.662   9.967  1.9076 -0.8880 -2.2009
  450MOL0     H62064   1.401   5.858   9.697 -0.3025  0.6833 -1.0148
  450MOL0     H62065   1.457   5.980   9.807 -2.8361  0.7640 -1.2602
  450MOL0     H62066   1.456   6.045   9.548 -0.2310 -0.4496 -1.4243
  450MOL0     H62067   1.604   6.088   9.634 -0.7438 -0.6540  2.7856
  450MOL0     H62068   1.691   5.864   9.530  0.4706  0.8239  0.9298
  450MOL0     H62069   1.653   5.993   9.419  1.5127 -1.0683 -0.0835
  450MOL0     H62070   1.410   5.868   9.366 -0.0501 -1.3027 -2.1648
  450MOL0     H62071   1.468   5.745   9.480  0.5423 -0.2806 -0.9510
  450MOL0     H62072   1.643   5.698   9.313  1.0693  2.8349  1.1328
  450MOL0     H62073   1.474   5.697   9.248 -1.2008  1.2352 -1.2599
  450MOL0     H62074   1.676   5.927   9.204 -0.8074  1.1129 -0.0249
  450MOL0     H62075   1.512   5.916   9.140  0.1146 -0.2191 -1.7483
  450MOL0     H62076   1.566   5.740   8.986  1.4290 -0.3100 -2.3641
  450MOL0     H62077   1.722   5.708   9.063  1.9283  2.6959  1.8203
  450MOL0     H62078   1.792   5.920   8.966 -0.3768  0.8914 -1.3527
  450MOL0     H62079   1.629   5.957   8.914  0.9186  1.3702  1.1628
  450MOL0     H62080   1.682   6.055   9.819  2.3349  0.6341 -0.6092
  450MOL0     H62081   1.822   6.123  10.000 -1.4800  1.3066  1.4533
  450MOL0     H62082   2.134   5.951  10.290 -0.7355  1.0414 -0.8293
  450MOL0     H62083   2.316   6.004  10.428 -1.0503 -3.2616  1.5972
  450MOL0     H62084   2.755   7.216  11.109 -0.9047  2.0798  3.6188
  450MOL0     H62085   2.596   7.168  11.283  1.1629  0.8602 -1.3939
  450MOL0     H62086   2.529   7.029  11.658 -0.1444  1.1559  1.5440
  450MOL0     H62087   2.357   7.085  11.815  0.6959 -1.2610  1.1920
  450MOL0     H62088   2.057   6.964  12.035  0.3035  2.8246  0.3507
  450MOL0     H62089   2.214   6.915  12.001  0.0690 -0.0274  1.2470
  450MOL0     H62090   2.110   7.209  11.948 -1.5012 -2.8822 -0.4585
  450MOL0     H62091   2.279   7.166  11.979 -0.0233  0.3263 -0.5264
  450MOL0     H62092   2.032   7.130  12.161  0.5408 -0.5297  1.4466
  450MOL0     H62093   2.204   7.118  12.214  1.9031  1.8645  0.2187
  450MOL0     H62094   2.232   7.354  12.195 -0.6926 -0.5511  2.1746
  450MOL0     H62095   2.085   7.337  12.293  0.9093  0.1458  0.3686
  450MOL0     H62096   1.966   7.490  11.905  0.5418  1.1897  0.2264
  450MOL0     H62097   2.087   6.813  11.643 -1.0241  2.8435  2.1306
  450MOL0     H62098   2.104   6.760  11.408 -0.5964 -1.0761 -2.6677
  450MOL0     H62099   2.226   6.824  11.316 -0.4584 -1.6056 -0.7048
  450MOL0     H62100   2.264   6.673  11.395  0.2639 -0.0650  0.6922
  451MOL0     O62101   8.314   4.007  11.066 -0.5109  0.5314 -0.4408
  451MOL0     C62102   8.265   4.079  10.980  0.0025 -0.3514  0.7205
  451MOL0     O62103   8.134   4.120  10.975  0.0706 -1.0300  1.0416
  451MOL0     C62104   8.046   4.064  11.057  0.3520  0.2915 -0.5254
  451MOL0     C62105   7.960   3.961  11.005  0.7901 -0.0903 -0.5555
  451MOL0     C62106   7.860   3.907  11.089 -0.2491 -0.1852 -0.9660
  451MOL0     C62107   7.829   3.965  11.216  0.4267  0.3363  0.0784
  451MOL0     O62108   7.727   3.919  11.301  0.0321  0.1742  0.6206
  451MOL0     C62109   7.605   3.906  11.233 -0.3730 -0.0745  0.2959
  451MOL0     C62110   7.492   3.886  11.341 -1.0528  0.3762  0.7684
  451MOL0     C62111   7.523   3.779  11.448  0.7004 -0.3733  0.8008
  451MOL0     C62112   7.585   3.838  11.575  0.0920 -0.2528 -0.6851
  451MOL0     C62113   7.622   3.737  11.681 -0.3838 -0.3382  0.2033
  451MOL0     C62114   7.774   3.697  11.681  0.9961  0.6122  0.6464
  451MOL0     C62115   7.826   3.633  11.813  0.0155  1.6787  0.2779
  451MOL0     C62116   7.769   3.494  11.844 -0.7626 -0.9174 -0.5928
  451MOL0     N62117   7.816   3.417  11.965 -0.0754  0.3643  0.0953
  451MOL0     C62118   7.932   3.438  12.040 -0.3781  0.7439 -0.9720
  451MOL0     C62119   7.951   3.326  12.111 -0.1217 -0.8946 -0.6737
  451MOL0     C62120   8.060   3.289  12.190 -0.0940  0.0038 -0.2129
  451MOL0     C62121   8.155   3.191  12.109 -0.6501 -0.0928  0.8379
  451MOL0     C62122   8.074   3.066  12.103 -0.2898  0.0399  0.7526
  451MOL0     C62123   8.164   2.950  12.056  0.2365  0.2630  0.4115
  451MOL0     O62124   8.216   2.969  11.920  0.2195  0.1513  0.0357
  451MOL0     C62125   8.289   2.867  11.862 -0.5532 -0.4418 -0.0082
  451MOL0     C62126   8.298   2.737  11.910  0.2880 -0.4129 -0.1982
  451MOL0     C62127   8.359   2.647  11.826 -0.0885  0.2504  1.1035
  451MOL0     C62128   8.383   2.505  11.886  0.6763 -0.3974 -0.8286
  451MOL0     C62129   8.423   2.680  11.701 -0.5460 -0.5590 -0.7660
  451MOL0     C62130   8.507   2.594  11.628 -0.4588 -0.3041 -0.5342
  451MOL0     O62131   8.598   2.666  11.552  0.6064 -0.3423  0.6863
  451MOL0     C62132   8.669   2.596  11.460  0.0810 -0.5398  0.5058
  451MOL0     C62133   8.807   2.621  11.433 -0.1449 -0.4670  0.3649
  451MOL0     C62134   8.885   2.559  11.329 -0.6572  0.2343 -0.2885
  451MOL0     C62135   8.818   2.472  11.248 -0.8394 -0.7714 -0.0753
  451MOL0     O62136   8.869   2.401  11.142  0.0954 -0.6869  0.1244
  451MOL0     C62137   8.966   2.466  11.061  1.0106 -0.3015  0.0524
  451MOL0     C62138   8.974   2.399  10.917  0.6249 -0.2842  0.2030
  451MOL0     C62139   9.007   2.247  10.914 -0.1045 -0.7587  0.7777
  451MOL0     C62140   9.015   2.207  10.765  0.3899  0.2307  0.3745
  451MOL0     C62141   9.036   2.054  10.761 -0.2159 -0.6524  0.3185
  451MOL0     C62142   9.056   2.006  10.616  1.1676 -0.2265  0.6028
  451MOL0     C62143   9.094   1.854  10.621 -0.9318  0.2267  0.3510
  451MOL0     C62144   8.977   1.765  10.589 -0.2433  0.9416 -0.1827
  451MOL0    Cl62145   9.025   1.591  10.574  0.2548  0.2864 -0.2618
  451MOL0     C62146   8.685   2.451  11.263 -0.6195 -0.4826 -0.5136
  451MOL0     C62147   8.610   2.514  11.364 -0.9067  0.1077 -0.6656
  451MOL0     O62148   8.504   2.471  11.645 -0.8129  0.1868  0.8167
  451MOL0     C62149   8.399   2.805  11.657 -0.1637 -0.2484  0.0812
  451MOL0     C62150   8.339   2.902  11.741 -0.4267  0.5667 -0.1516
  451MOL0     N62151   7.837   3.252  12.098  0.2711 -1.1881  0.2351
  451MOL0     N62152   7.760   3.299  12.006  0.2040  1.1613 -0.2387
  451MOL0     C62153   7.907   4.070  11.255  0.3182  0.3702 -0.7198
  451MOL0     C62154   8.009   4.126  11.176  0.6245 -0.9332 -0.8417
  451MOL0     C62155   8.362   4.123  10.873  0.7421  0.5951  0.6125
  451MOL0     C62156   8.343   4.250  10.833 -0.6861  0.3652 -0.7515
  451MOL0     C62157   8.441   4.315  10.754 -1.3825 -0.9187  0.0550
  451MOL0     C62158   8.546   4.246  10.696  0.0888 -0.5826 -0.3206
  451MOL0     O62159   8.629   4.313  10.604  0.0815  0.3713  0.2076
  451MOL0     C62160   8.609   4.279  10.461  0.4543  0.2205 -0.4171
  451MOL0     C62161   8.687   4.369  10.362  0.1907 -0.0589  0.3705
  451MOL0     C62162   8.604   4.488  10.326 -1.2208  0.0676  0.2208
  451MOL0     C62163   8.688   4.588  10.236  0.3692  0.4636  0.6973
  451MOL0     C62164   8.748   4.543  10.110 -0.5094  0.3379  0.3567
  451MOL0     C62165   8.815   4.514  10.017  0.2488  1.0026 -0.0419
  451MOL0     C62166   8.552   4.109  10.716  0.3319 -0.1215  0.8293
  451MOL0     C62167   8.462   4.046  10.805 -0.5512  0.8421  0.2954
  451MOL0     C62168   8.476   3.907  10.837  0.4903  0.4717 -0.1954
  451MOL0     H62169   7.962   3.919  10.905  1.3442 -3.9868  0.8922
  451MOL0     H62170   7.796   3.824  11.061 -0.2636 -1.2717  1.9776
  451MOL0     H62171   7.609   3.816  11.170  0.9401 -0.1964  0.5202
  451MOL0     H62172   7.583   3.996  11.175  4.4703  2.3848  1.7614
  451MOL0     H62173   7.463   3.980  11.388  0.8106  2.4783 -1.9657
  451MOL0     H62174   7.416   3.849  11.271 -0.9977  1.7376 -0.0393
  451MOL0     H62175   7.428   3.726  11.466  0.2766 -0.0492 -0.3974
  451MOL0     H62176   7.590   3.700  11.414  0.1257 -0.8783  0.8149
  451MOL0     H62177   7.661   3.914  11.552  1.4815 -1.8187 -1.4592
  451MOL0     H62178   7.505   3.901  11.616  2.1934  2.2840 -0.2188
  451MOL0     H62179   7.569   3.641  11.681 -0.0049 -0.5564 -1.2431
  451MOL0     H62180   7.595   3.790  11.773 -2.0886 -1.4852  0.4129
  451MOL0     H62181   7.788   3.633  11.595  0.7934 -1.3294  2.0008
  451MOL0     H62182   7.832   3.788  11.662 -1.2834  2.1345  0.6290
  451MOL0     H62183   7.821   3.712  11.888 -0.1200  3.0239 -1.1051
  451MOL0     H62184   7.934   3.619  11.806 -0.1498  0.9036 -0.8964
  451MOL0     H62185   7.660   3.493  11.854 -0.5663 -1.4647  2.1133
  451MOL0     H62186   7.784   3.434  11.753  0.7669  3.0076 -3.2145
  451MOL0     H62187   7.999   3.523  12.046 -0.0562  0.4572 -0.3587
  451MOL0     H62188   8.040   3.251  12.291  4.8965  0.6810  1.3461
  451MOL0     H62189   8.115   3.381  12.212  2.3714 -1.3148 -0.4956
  451MOL0     H62190   8.185   3.219  12.008  0.9172 -0.9361  1.0343
  451MOL0     H62191   8.243   3.179  12.173  0.9651  3.2992 -0.5132
  451MOL0     H62192   8.026   3.048  12.200  0.3909 -2.4620  0.6943
  451MOL0     H62193   7.994   3.066  12.027 -0.0284 -1.7576  0.4217
  451MOL0     H62194   8.254   2.933  12.117  1.0409 -5.2298 -1.7451
  451MOL0     H62195   8.095   2.867  12.075  0.4402  0.4719  2.2646
  451MOL0     H62196   8.250   2.697  11.999 -1.5306 -2.7482 -2.1071
  451MOL0     H62197   8.485   2.466  11.873  1.9832  2.3731  0.2833
  451MOL0     H62198   8.321   2.427  11.841  0.1046 -1.0490  1.0053
  451MOL0     H62199   8.363   2.509  11.993  1.7467  3.4873 -0.6269
  451MOL0     H62200   8.864   2.695  11.487  2.8525 -1.9230 -0.5449
  451MOL0     H62201   8.991   2.580  11.318 -0.4702 -1.8410 -3.2664
  451MOL0     H62202   8.935   2.570  11.046  0.6451 -0.2462  1.0991
  451MOL0     H62203   9.061   2.474  11.114  0.9173  3.8358 -0.0993
  451MOL0     H62204   8.875   2.410  10.872  1.4517  1.4805 -1.3225
  451MOL0     H62205   9.055   2.442  10.856  0.8606  2.4402  2.2122
  451MOL0     H62206   8.929   2.180  10.951  1.4694 -1.8628  2.2134
  451MOL0     H62207   9.098   2.232  10.973  1.6507 -1.9161 -1.9705
  451MOL0     H62208   9.099   2.250  10.710 -0.3276  0.6689 -0.3894
  451MOL0     H62209   8.919   2.222  10.715 -0.4532  4.2085  2.7761
  451MOL0     H62210   9.121   2.028  10.825  0.8999  0.0195 -0.8458
  451MOL0     H62211   8.955   1.992  10.801  1.3623 -2.6657  0.5662
  451MOL0     H62212   9.137   2.060  10.566  0.6018  0.1979  0.1131
  451MOL0     H62213   8.967   2.026  10.555  1.4629 -1.2007 -0.1735
  451MOL0     H62214   9.131   1.841  10.723 -1.6213  2.5572  0.9774
  451MOL0     H62215   9.176   1.827  10.555 -1.0889  1.0572 -0.2041
  451MOL0     H62216   8.932   1.791  10.492  0.5574  1.5243 -0.4198
  451MOL0     H62217   8.912   1.776  10.675  0.3913  0.7066  0.3365
  451MOL0     H62218   8.634   2.372  11.210 -4.2857  1.3655 -0.0465
  451MOL0     H62219   8.503   2.497  11.368 -0.3156 -5.2882  0.0867
  451MOL0     H62220   8.426   2.821  11.553  1.7792 -1.7700  0.2949
  451MOL0     H62221   8.333   3.001  11.698  2.6823 -0.1005 -2.5436
  451MOL0     H62222   7.889   4.110  11.355  0.0585 -1.8150  0.1484
  451MOL0     H62223   8.053   4.221  11.205  0.8002 -1.6066  1.2506
  451MOL0     H62224   8.274   4.315  10.885 -1.7117 -0.5495 -0.9567
  451MOL0     H62225   8.447   4.421  10.732  0.3138 -1.5727 -3.4002
  451MOL0     H62226   8.620   4.173  10.438  1.9954  0.0601  0.9158
  451MOL0     H62227   8.502   4.291  10.440 -1.4351 -1.1566  6.1135
  451MOL0     H62228   8.710   4.315  10.270  1.2632  0.5183  0.2764
  451MOL0     H62229   8.784   4.393  10.408  0.3024 -2.1860  1.3719
  451MOL0     H62230   8.522   4.458  10.261  1.6930 -0.2495 -3.6750
  451MOL0     H62231   8.559   4.540  10.411  0.1257 -1.9294  2.2883
  451MOL0     H62232   8.773   4.624  10.294 -1.2391 -0.5218  3.8844
  451MOL0     H62233   8.625   4.676  10.223 -0.5991  0.0182  2.2376
  451MOL0     H62234   8.879   4.482   9.938 -0.8150 -1.1597 -0.1160
  451MOL0     H62235   8.636   4.056  10.671 -0.8906 -0.2711 -1.4071
  451MOL0     H62236   8.484   3.876  10.941 -2.7405 -1.9338 -0.5018
  451MOL0     H62237   8.384   3.855  10.811  2.3809 -1.7766 -3.1209
  451MOL0     H62238   8.562   3.861  10.786 -0.6160 -0.6441 -1.1281
  452MOL0     O62239   0.232   2.529  11.101 -0.2791 -0.0322 -0.5546
  452MOL0     C62240   0.200   2.418  11.070  0.1157 -0.7701 -0.4846
  452MOL0     O62241   0.252   2.342  10.962  0.0626  0.2582  0.2577
  452MOL0     C62242   0.341   2.397  10.879 -0.2979 -0.5549 -0.1091
  452MOL0     C62243   0.463   2.444  10.937  0.0641  0.5509  0.7578
  452MOL0     C62244   0.546   2.531  10.855  0.2624 -0.2711 -0.4631
  452MOL0     C62245   0.525   2.559  10.726 -0.4207  0.8736  0.4375
  452MOL0     O62246   0.618   2.628  10.655  0.3471  0.7630  1.0598
  452MOL0     C62247   0.584   2.672  10.520 -0.0902 -0.5349 -0.0941
  452MOL0     C62248   0.675   2.779  10.462  0.1394  0.0675 -0.4099
  452MOL0     C62249   0.818   2.728  10.444  0.0820 -0.4048  0.3276
  452MOL0     C62250   0.858   2.738  10.296 -0.3743 -0.8474  0.3426
  452MOL0     C62251   1.008   2.723  10.271 -0.1354  0.0863 -0.5795
  452MOL0     C62252   1.065   2.569  10.286  0.3165 -0.5510 -0.6073
  452MOL0     C62253   1.004   2.480  10.178  0.4103  1.1245  0.0050
  452MOL0     C62254   1.059   2.332  10.170  0.3111  0.5173  0.6363
  452MOL0     N62255   0.963   2.234  10.111 -0.5600  0.9211 -0.1973
  452MOL0     C62256   0.824   2.221  10.126 -0.0630 -0.8036  0.3132
  452MOL0     C62257   0.792   2.103  10.063  0.3575 -0.3135  0.1266
  452MOL0     C62258   0.656   2.042  10.066  0.1378  0.9964  0.7075
  452MOL0     C62259   0.645   1.955  10.194 -0.6760 -0.3559 -0.8125
  452MOL0     C62260   0.528   1.853  10.190  0.6429  0.2327  0.1591
  452MOL0     C62261   0.470   1.819  10.329  0.2868 -0.3550  0.9539
  452MOL0     O62262   0.541   1.713  10.395  0.9319  0.0566 -0.0863
  452MOL0     C62263   0.495   1.640  10.501 -0.3862 -1.0307  0.2095
  452MOL0     C62264   0.369   1.648  10.554 -0.1530 -0.6250 -0.0342
  452MOL0     C62265   0.341   1.582  10.670  0.5516  0.0874 -0.3387
  452MOL0     C62266   0.197   1.607  10.723  0.2369  0.7470  0.1502
  452MOL0     C62267   0.441   1.510  10.742 -0.2041  0.3309  0.2176
  452MOL0     C62268   0.420   1.453  10.881 -0.7431 -0.9448 -1.1853
  452MOL0     O62269   0.313   1.486  10.968 -0.4187 -0.3494 -0.1115
  452MOL0     C62270   0.299   1.440  11.094  0.9865 -0.9087 -0.0803
  452MOL0     C62271   0.172   1.440  11.150 -1.1882 -0.6758  0.9191
  452MOL0     C62272   0.139   1.392  11.276 -0.3194  0.2178 -0.0300
  452MOL0     C62273   0.246   1.344  11.348  0.7042  0.2426 -0.9081
  452MOL0     O62274   0.224   1.294  11.472  0.4361 -0.5256 -0.0476
  452MOL0     C62275   0.306   1.353  11.578  0.4667  0.0343  0.5716
  452MOL0     C62276   0.239   1.367  11.711  0.0182 -0.6575  1.0933
  452MOL0     C62277   0.347   1.386  11.822 -0.8363  0.0018 -0.6367
  452MOL0     C62278   0.417   1.518  11.809  0.8896  0.1925 -0.6373
  452MOL0     C62279   0.478   1.568  11.940 -0.0582 -0.0580 -0.6127
  452MOL0     C62280   0.370   1.627  12.037 -0.1227 -0.4581  1.5985
  452MOL0     C62281   0.448   1.680  12.159  0.0202 -0.1031 -0.0942
  452MOL0     C62282   0.352   1.717  12.272  0.1439 -0.2755 -0.2142
  452MOL0    Cl62283   0.243   1.853  12.244 -0.0800 -0.1399  0.0933
  452MOL0     C62284   0.378   1.346  11.303  0.1357  0.0489  0.8053
  452MOL0     C62285   0.401   1.392  11.179 -0.4336 -1.4304 -0.3660
  452MOL0     O62286   0.512   1.380  10.916  0.2229 -0.4739 -0.3778
  452MOL0     C62287   0.569   1.504  10.680  0.0046 -0.3045 -0.5648
  452MOL0     C62288   0.597   1.566  10.562 -0.1725 -0.3470 -0.1775
  452MOL0     N62289   0.907   2.047  10.007 -0.4004  0.8706 -0.0017
  452MOL0     N62290   1.003   2.116  10.053 -0.2159  0.0918 -0.3243
  452MOL0     C62291   0.423   2.484  10.669  0.8523 -0.2992  0.6590
  452MOL0     C62292   0.330   2.405  10.737  0.2273 -0.1438 -0.7674
  452MOL0     C62293   0.092   2.357  11.151 -0.5452  0.4395 -0.5508
  452MOL0     C62294   0.047   2.237  11.103 -0.4023  0.6020 -1.0336
  452MOL0     C62295  -0.044   2.159  11.180 -0.4348 -0.4491  0.2070
  452MOL0     C62296  -0.117   2.215  11.278 -0.3706 -0.0226 -0.3529
  452MOL0     O62297  -0.209   2.148  11.350 -0.5661  0.6321 -0.7354
  452MOL0     C62298  -0.243   2.014  11.325 -0.8981 -0.4280  0.6182
  452MOL0     C62299  -0.330   1.974  11.442 -1.3934  0.5915 -0.1656
  452MOL0     C62300  -0.365   1.830  11.430 -0.6986 -0.4295 -0.3849
  452MOL0     C62301  -0.464   1.771  11.529 -0.6038  0.0002  0.4648
  452MOL0     C62302  -0.403   1.768  11.666 -0.1234  0.1977 -0.3434
  452MOL0     C62303  -0.356   1.746  11.779  0.1926  0.2783 -0.2169
  452MOL0     C62304  -0.074   2.347  11.326  0.3440  0.0453  0.1507
  452MOL0     C62305   0.027   2.415  11.265 -0.4704 -0.0454  0.6933
  452MOL0     C62306   0.061   2.553  11.324 -0.2576 -0.3859 -0.3188
  452MOL0     H62307   0.481   2.425  11.043  1.5765  2.6710  0.9596
  452MOL0     H62308   0.638   2.573  10.894 -0.1908  2.1669 -1.8473
  452MOL0     H62309   0.485   2.717  10.509  0.1373  0.7268  2.3571
  452MOL0     H62310   0.596   2.585  10.455  0.2913 -1.3269  0.9918
  452MOL0     H62311   0.641   2.806  10.361  0.6461 -4.0684 -1.8972
  452MOL0     H62312   0.669   2.863  10.532 -0.6656  2.5223 -3.2195
  452MOL0     H62313   0.879   2.791  10.510 -1.4579  0.8231  0.6387
  452MOL0     H62314   0.836   2.627  10.481 -1.2833 -0.8361 -0.1047
  452MOL0     H62315   0.809   2.659  10.238 -1.3951 -2.6565  3.4471
  452MOL0     H62316   0.826   2.837  10.261 -1.0255 -0.8077  1.0280
  452MOL0     H62317   1.062   2.773  10.353  2.8645 -0.2773 -2.1969
  452MOL0     H62318   1.043   2.766  10.177  0.6946 -0.3540 -0.4854
  452MOL0     H62319   1.174   2.569  10.278  0.3634  2.0627 -0.8939
  452MOL0     H62320   1.044   2.542  10.390 -0.4833 -0.0831 -0.6371
  452MOL0     H62321   1.023   2.531  10.083  1.1900 -1.3124 -1.2583
  452MOL0     H62322   0.895   2.471  10.183  0.3255  0.6852 -1.7473
  452MOL0     H62323   1.155   2.326  10.118 -0.1383 -1.2224 -0.0692
  452MOL0     H62324   1.083   2.302  10.273 -0.2451  1.8321  1.1835
  452MOL0     H62325   0.755   2.284  10.180  0.6671  2.1113 -1.9138
  452MOL0     H62326   0.647   1.982   9.974 -1.2818  2.5791 -0.2328
  452MOL0     H62327   0.571   2.109  10.052 -1.3083 -0.6274  1.3159
  452MOL0     H62328   0.736   1.897  10.208 -0.3154 -0.0642 -1.8454
  452MOL0     H62329   0.629   2.025  10.276 -0.6907 -1.9534  0.6089
  452MOL0     H62330   0.451   1.902  10.130  0.9593 -0.3793 -0.7610
  452MOL0     H62331   0.544   1.761  10.133 -3.3059 -0.8562  0.4754
  452MOL0     H62332   0.475   1.912  10.387  1.6604  1.3591 -1.7226
  452MOL0     H62333   0.366   1.787  10.320  0.2259  0.4437 -2.5372
  452MOL0     H62334   0.298   1.705  10.496 -0.3554 -0.1254  0.7013
  452MOL0     H62335   0.152   1.679  10.653 -0.7172  1.1233  1.1407
  452MOL0     H62336   0.198   1.672  10.811 -4.4721 -1.6320  2.3101
  452MOL0     H62337   0.135   1.519  10.739 -1.3023  1.4515 -1.5160
  452MOL0     H62338   0.088   1.485  11.097  1.8893  5.7377  0.4703
  452MOL0     H62339   0.036   1.372  11.304 -1.0829  5.1338  1.6287
  452MOL0     H62340   0.388   1.282  11.590  0.2777 -0.4156 -0.6902
  452MOL0     H62341   0.353   1.448  11.549  1.8203 -0.6987  0.3221
  452MOL0     H62342   0.167   1.450  11.708  1.1987  0.3746 -0.8457
  452MOL0     H62343   0.179   1.280  11.740  1.0387 -2.7535 -2.4822
  452MOL0     H62344   0.412   1.298  11.822 -1.5778 -0.6149  1.8209
  452MOL0     H62345   0.291   1.387  11.916  2.1674  2.9081  1.3150
  452MOL0     H62346   0.346   1.594  11.775  2.1821  1.6625 -0.1609
  452MOL0     H62347   0.487   1.506  11.726  0.5265 -0.1964 -0.8922
  452MOL0     H62348   0.540   1.492  11.989 -0.2710 -1.4775 -2.4226
  452MOL0     H62349   0.548   1.642  11.902  0.6334 -0.2540  0.2365
  452MOL0     H62350   0.305   1.543  12.062 -1.1996 -1.0568 -2.5806
  452MOL0     H62351   0.315   1.713  11.998  1.7001  0.1558  0.2230
  452MOL0     H62352   0.507   1.771  12.139 -0.7225  0.1645 -1.1797
  452MOL0     H62353   0.509   1.604  12.208  0.0361  0.7573  1.2761
  452MOL0     H62354   0.409   1.752  12.359 -1.5981 -0.2977  0.9870
  452MOL0     H62355   0.281   1.637  12.294  0.5834 -0.9504 -1.1994
  452MOL0     H62356   0.447   1.295  11.370 -2.4013 -0.6871  3.0500
  452MOL0     H62357   0.499   1.393  11.133 -0.7081 -1.1606 -0.9538
  452MOL0     H62358   0.652   1.449  10.724 -0.4971  0.1554  1.0567
  452MOL0     H62359   0.697   1.555  10.522  0.8193  0.1141  2.0413
  452MOL0     H62360   0.424   2.480  10.560  0.2464  0.8106  0.6044
  452MOL0     H62361   0.243   2.360  10.690 -0.6910 -1.1723  1.7034
  452MOL0     H62362   0.095   2.184  11.022 -0.2223  1.0619 -1.2340
  452MOL0     H62363  -0.074   2.061  11.146 -4.1867 -0.1983  2.2434
  452MOL0     H62364  -0.299   2.000  11.231 -2.5516  0.6474  1.3888
  452MOL0     H62365  -0.159   1.944  11.317 -0.6812 -0.1273  0.2612
  452MOL0     H62366  -0.425   2.028  11.444  0.2915  3.8141 -0.5462
  452MOL0     H62367  -0.274   2.006  11.530  1.3807 -0.1450 -1.5741
  452MOL0     H62368  -0.414   1.805  11.336  0.6966 -0.1212 -1.2226
  452MOL0     H62369  -0.271   1.774  11.435 -0.2988  0.2849  0.1352
  452MOL0     H62370  -0.484   1.668  11.499 -2.1751  0.2168  0.7229
  452MOL0     H62371  -0.551   1.836  11.529 -1.4629 -1.1274  0.5276
  452MOL0     H62372  -0.307   1.732  11.873 -1.3400  2.0392  0.9350
  452MOL0     H62373  -0.136   2.382  11.408 -0.9443 -0.6875 -0.4700
  452MOL0     H62374  -0.009   2.569  11.407 -1.9165 -0.2101 -1.7131
  452MOL0     H62375   0.166   2.548  11.356 -0.7213 -0.5621  1.2460
  452MOL0     H62376   0.033   2.629  11.251 -4.2482 -2.2450 -1.0070
  453MOL0     O62377   1.903  10.063   9.640  0.0438  0.1103 -0.1928
  453MOL0     C62378   1.786  10.031   9.615 -0.4268 -0.2091 -0.1053
  453MOL0     O62379   1.699  10.103   9.542 -0.1862  0.6272 -0.1341
  453MOL0     C62380   1.730  10.220   9.477  0.2232  0.6340  0.4715
  453MOL0     C62381   1.634  10.317   9.457 -0.0889 -0.4951 -0.4184
  453MOL0     C62382   1.671  10.431   9.382 -0.3840  0.5481  0.5581
  453MOL0     C62383   1.799  10.456   9.345 -0.1044 -0.4221  0.1885
  453MOL0     O62384   1.816  10.572   9.271  1.3568  0.4168 -0.3041
  453MOL0     C62385   1.942  10.637   9.287  0.5235 -0.5820 -0.2401
  453MOL0     C62386   1.917  10.780   9.257  0.4526 -0.7150 -0.6810
  453MOL0     C62387   1.858  10.816   9.118  0.0422 -0.3781 -0.2933
  453MOL0     C62388   1.949  10.917   9.045  0.2822 -0.0882 -0.6224
  453MOL0     C62389   1.888  10.957   8.917  0.0649  0.8816 -0.3108
  453MOL0     C62390   1.989  11.011   8.818  0.1776 -0.1572  0.4234
  453MOL0     C62391   1.927  11.036   8.677  1.0843  0.4689 -0.7729
  453MOL0     C62392   1.937  10.918   8.588 -0.4614  0.1771 -0.5936
  453MOL0     N62393   1.901  10.951   8.445  0.1669  0.5379  0.3734
  453MOL0     C62394   1.956  11.054   8.369 -0.6332 -0.1706  0.5475
  453MOL0     C62395   1.952  11.007   8.239 -0.1028 -0.2255  0.0209
  453MOL0     C62396   2.007  11.076   8.117 -0.4976 -0.4420  1.1979
  453MOL0     C62397   1.933  11.202   8.069  0.0619  1.0026 -0.0419
  453MOL0     C62398   1.927  11.218   7.916 -0.0736 -0.2536  0.8178
  453MOL0     C62399   2.050  11.193   7.828 -0.2018 -0.2586 -0.6146
  453MOL0     O62400   2.033  11.234   7.694 -0.3362  0.8455 -0.3874
  453MOL0     C62401   1.975  11.155   7.596  0.4062  0.3061 -0.0787
  453MOL0     C62402   1.935  11.212   7.480  0.2502  0.7369 -0.4833
  453MOL0     C62403   1.885  11.141   7.370  0.5571  0.7746 -0.3373
  453MOL0     C62404   1.835  11.215   7.247 -0.0886 -0.6254  0.9519
  453MOL0     C62405   1.868  10.999   7.393 -0.4529 -0.7339 -0.1678
  453MOL0     C62406   1.819  10.908   7.293 -0.1526  0.2261 -0.2841
  453MOL0     O62407   1.704  10.943   7.226 -0.3345  0.4658 -0.2754
  453MOL0     C62408   1.609  10.849   7.235 -0.4834 -0.2682  0.0514
  453MOL0     C62409   1.529  10.842   7.342 -0.2257  0.1205 -0.7333
  453MOL0     C62410   1.421  10.758   7.332  0.7586 -0.4780  0.5815
  453MOL0     C62411   1.391  10.694   7.214 -0.3207  0.3857  1.3040
  453MOL0     O62412   1.278  10.611   7.207  0.6095  0.4667  0.6475
  453MOL0     C62413   1.307  10.477   7.161 -0.8636 -0.1412  0.9442
  453MOL0     C62414   1.420  10.405   7.235  0.7820 -0.2539  0.3817
  453MOL0     C62415   1.426  10.411   7.387 -0.4065 -1.1849  0.6921
  453MOL0     C62416   1.337  10.296   7.442 -0.1072 -0.9600  0.0552
  453MOL0     C62417   1.320  10.282   7.603  0.2027 -0.0800 -0.3820
  453MOL0     C62418   1.172  10.261   7.643 -0.1446  0.2759  0.1324
  453MOL0     C62419   1.091  10.388   7.636 -0.3696  0.8221 -0.0707
  453MOL0     C62420   0.969  10.360   7.723 -0.1832  0.6581 -0.4036
  453MOL0    Cl62421   1.011  10.352   7.901  0.2881  0.0479  0.3888
  453MOL0     C62422   1.472  10.710   7.098  0.2300  0.6305 -0.2203
  453MOL0     C62423   1.583  10.786   7.107 -0.3284 -0.4282  0.1103
  453MOL0     O62424   1.867  10.793   7.296  0.2860 -0.4145  0.0787
  453MOL0     C62425   1.897  10.941   7.519 -0.8563 -1.4169 -0.3019
  453MOL0     C62426   1.953  11.021   7.616  0.1525  0.5521  1.1161
  453MOL0     N62427   1.903  10.880   8.240  0.1619 -0.2089 -0.0936
  453MOL0     N62428   1.869  10.848   8.360  0.3364  0.7184  0.0349
  453MOL0     C62429   1.897  10.358   9.363  0.9296  0.2107  1.4013
  453MOL0     C62430   1.857  10.246   9.429 -0.1042  0.7694  0.0957
  453MOL0     C62431   1.745   9.898   9.667 -0.7244 -0.1046  0.4364
  453MOL0     C62432   1.609   9.867   9.649  0.0684  0.4764 -1.3351
  453MOL0     C62433   1.563   9.745   9.689  0.1430 -0.1907  0.0168
  453MOL0     C62434   1.646   9.650   9.752  0.7405 -1.0581  0.6879
  453MOL0     O62435   1.591   9.536   9.794  0.0278 -0.0185 -0.3954
  453MOL0     C62436   1.661   9.409   9.779  0.7058 -0.5067  0.2287
  453MOL0     C62437   1.682   9.388   9.624 -0.2605 -0.3547  0.4072
  453MOL0     C62438   1.759   9.266   9.597  0.7047 -0.1128 -0.1648
  453MOL0     C62439   1.755   9.224   9.455  0.3755  0.0792 -0.4228
  453MOL0     C62440   1.877   9.157   9.414  1.0232  0.0739 -1.3197
  453MOL0     C62441   1.972   9.085   9.390  0.3334  0.9183  0.5898
  453MOL0     C62442   1.786   9.683   9.765  0.3363 -0.1280  0.0666
  453MOL0     C62443   1.834   9.799   9.716 -0.9925 -0.2705 -0.2010
  453MOL0     C62444   1.987   9.808   9.713 -0.2939 -0.5122 -0.5230
  453MOL0     H62445   1.535  10.301   9.499  0.5241 -1.6497  0.6814
  453MOL0     H62446   1.597  10.505   9.352  0.4837  1.6051  0.9645
  453MOL0     H62447   2.015  10.603   9.213  0.9340 -1.0078  0.3446
  453MOL0     H62448   1.975  10.642   9.391 -0.7392 -0.5944  0.1822
  453MOL0     H62449   1.852  10.825   9.333  1.7619  0.1694 -0.0407
  453MOL0     H62450   2.011  10.833   9.274 -0.1355  0.2921 -0.4789
  453MOL0     H62451   1.868  10.735   9.046 -0.2025 -0.6065 -0.0741
  453MOL0     H62452   1.757  10.854   9.136 -1.0017 -3.3844  0.8787
  453MOL0     H62453   1.976  11.005   9.104 -0.7084  0.4502 -0.9522
  453MOL0     H62454   2.047  10.873   9.024  0.5979 -1.6619  3.2622
  453MOL0     H62455   1.816  11.031   8.953 -0.9489  0.2798 -1.0237
  453MOL0     H62456   1.832  10.874   8.872  2.0727 -1.1689  0.7521
  453MOL0     H62457   2.016  11.111   8.853 -0.5526  0.3896 -0.5304
  453MOL0     H62458   2.070  10.937   8.817 -0.4476 -0.9275  2.3194
  453MOL0     H62459   1.987  11.115   8.630  0.5833  1.2594 -0.1183
  453MOL0     H62460   1.825  11.076   8.680  1.1824  0.6704  0.0157
  453MOL0     H62461   2.034  10.867   8.591 -0.2015  0.6046 -1.5029
  453MOL0     H62462   1.879  10.840   8.638 -1.2477  1.6991  0.9789
  453MOL0     H62463   1.994  11.149   8.404 -1.1346 -0.0017  0.6446
  453MOL0     H62464   1.997  11.009   8.031  1.4931  0.7015 -0.0156
  453MOL0     H62465   2.115  11.095   8.120 -0.5835  0.9356 -1.2075
  453MOL0     H62466   1.828  11.193   8.099 -0.8565  1.9185 -2.6832
  453MOL0     H62467   1.979  11.285   8.123  1.6066 -0.4972  1.0232
  453MOL0     H62468   1.846  11.154   7.881 -0.4234  0.8819 -0.5470
  453MOL0     H62469   1.893  11.320   7.896 -2.4658 -0.9098  1.1335
  453MOL0     H62470   2.134  11.250   7.869 -2.0148  2.4260 -0.3521
  453MOL0     H62471   2.076  11.087   7.834 -0.5484 -0.3608 -0.9174
  453MOL0     H62472   1.945  11.319   7.467  3.4431  0.6233  0.1906
  453MOL0     H62473   1.872  11.317   7.229 -0.2977 -0.4281  1.6063
  453MOL0     H62474   1.726  11.217   7.245 -0.1054  1.6794  0.0561
  453MOL0     H62475   1.865  11.147   7.166 -0.1593 -1.6969  1.8124
  453MOL0     H62476   1.541  10.896   7.435 -0.7342  1.5055 -1.4405
  453MOL0     H62477   1.357  10.748   7.419  0.3239  0.5104  0.3822
  453MOL0     H62478   1.215  10.421   7.176 -2.4184  2.2616  1.0040
  453MOL0     H62479   1.340  10.476   7.056 -0.8330 -2.4523  0.9328
  453MOL0     H62480   1.417  10.301   7.200  1.5132 -0.3409  0.5688
  453MOL0     H62481   1.517  10.440   7.198  1.6948  0.6203  3.3614
  453MOL0     H62482   1.394  10.505   7.433 -0.4213 -1.0862  0.4775
  453MOL0     H62483   1.530  10.395   7.418  0.5155 -1.1300 -2.1525
  453MOL0     H62484   1.363  10.195   7.408  0.0432 -0.8853 -0.0534
  453MOL0     H62485   1.238  10.315   7.399  0.4677  1.1493 -0.4543
  453MOL0     H62486   1.366  10.184   7.624 -2.9123 -1.1423  2.5168
  453MOL0     H62487   1.365  10.366   7.656  0.7638  0.0761 -1.1046
  453MOL0     H62488   1.168  10.220   7.744  0.4724  0.2580  0.1580
  453MOL0     H62489   1.120  10.189   7.580 -2.4770  0.7641  1.3963
  453MOL0     H62490   1.055  10.419   7.538 -0.3783 -1.5505 -0.8983
  453MOL0     H62491   1.151  10.470   7.676  1.3286 -0.2304 -0.3415
  453MOL0     H62492   0.915  10.272   7.687  3.5424 -1.7018 -0.7606
  453MOL0     H62493   0.901  10.446   7.720 -1.0692 -0.0022 -4.3517
  453MOL0     H62494   1.434  10.673   7.003 -2.4253  0.1948  0.9136
  453MOL0     H62495   1.652  10.809   7.026  0.3556  1.3691  1.1553
  453MOL0     H62496   1.884  10.835   7.540 -1.9958 -1.1674  0.3320
  453MOL0     H62497   1.992  10.968   7.702  1.2820  1.8806  1.4457
  453MOL0     H62498   1.992  10.364   9.311  0.3138 -0.0266  0.1946
  453MOL0     H62499   1.939  10.179   9.452 -0.8991 -0.2053  0.1653
  453MOL0     H62500   1.546   9.940   9.599 -1.4612 -2.2287 -3.6563
  453MOL0     H62501   1.460   9.713   9.674  0.9302 -2.3584 -1.3306
  453MOL0     H62502   1.755   9.406   9.835  1.4105  0.4982 -0.8578
  453MOL0     H62503   1.601   9.318   9.793 -2.2387  1.2118 -0.5191
  453MOL0     H62504   1.731   9.475   9.580 -1.1891  0.8169  1.6170
  453MOL0     H62505   1.582   9.374   9.583 -2.0704 -0.5109  4.4085
  453MOL0     H62506   1.862   9.264   9.634  0.8404 -2.7749 -0.5030
  453MOL0     H62507   1.702   9.184   9.640 -0.7647 -0.6510 -2.9046
  453MOL0     H62508   1.737   9.311   9.390 -1.2908 -1.5357 -2.2524
  453MOL0     H62509   1.663   9.170   9.432 -0.9401  2.6272 -1.6268
  453MOL0     H62510   2.051   9.014   9.374  1.4911  2.2039  0.5072
  453MOL0     H62511   1.856   9.612   9.806 -0.4103 -0.1593  1.3438
  453MOL0     H62512   2.019   9.703   9.716 -1.3795 -1.0737 -4.0395
  453MOL0     H62513   2.032   9.833   9.616 -0.1268  0.2479 -0.2587
  453MOL0     H62514   2.042   9.864   9.789 -1.4935 -0.5185  0.3686
  454MOL0     O62515   1.456  10.408   6.516 -0.0399  0.3713  1.0121
  454MOL0     C62516   1.497  10.525   6.507  0.1727  0.4733  0.4214
  454MOL0     O62517   1.450  10.612   6.411 -0.2757  0.1820 -0.2533
  454MOL0     C62518   1.371  10.555   6.310  0.7682  0.4816  0.9753
  454MOL0     C62519   1.419  10.472   6.206  0.9475  0.5536  0.9403
  454MOL0     C62520   1.328  10.422   6.116  1.1719  0.2817  1.0004
  454MOL0     C62521   1.193  10.459   6.118  1.1565 -0.4107  0.3999
  454MOL0     O62522   1.110  10.383   6.033 -0.4199 -0.4298 -0.5473
  454MOL0     C62523   0.992  10.449   6.000  0.2420 -0.1408  0.7571
  454MOL0     C62524   0.903  10.363   5.904  0.7053 -0.1795  0.0233
  454MOL0     C62525   0.755  10.419   5.890  1.6829 -0.0910 -0.4623
  454MOL0     C62526   0.669  10.301   5.817 -0.3313 -0.2092 -0.5209
  454MOL0     C62527   0.712  10.246   5.683 -0.6551  0.4425 -0.7407
  454MOL0     C62528   0.687  10.350   5.569 -0.0743  0.5962 -0.4337
  454MOL0     C62529   0.689  10.289   5.431 -0.7166 -0.2328 -0.0624
  454MOL0     C62530   0.567  10.202   5.381  0.2189  1.0480  0.4447
  454MOL0     N62531   0.501  10.265   5.268 -0.0467 -0.0942  0.9079
  454MOL0     C62532   0.466  10.401   5.262  0.1320  1.1651 -0.4985
  454MOL0     C62533   0.383  10.418   5.150  0.4900 -0.1970  0.2093
  454MOL0     C62534   0.311  10.552   5.107 -0.1168 -0.9765 -0.6843
  454MOL0     C62535   0.161  10.535   5.068 -0.4313  0.4506 -0.1408
  454MOL0     C62536   0.065  10.642   5.113  0.0074 -0.0803  0.4112
  454MOL0     C62537  -0.070  10.626   5.053  0.7177 -0.0350 -1.0327
  454MOL0     O62538  -0.145  10.729   5.117  0.2914 -0.0038 -0.0807
  454MOL0     C62539  -0.266  10.707   5.184  0.4607  0.8693  0.7579
  454MOL0     C62540  -0.325  10.824   5.232 -0.6646  0.3511 -0.2343
  454MOL0     C62541  -0.440  10.813   5.308 -0.3944 -0.3535 -0.2608
  454MOL0     C62542  -0.494  10.945   5.361  0.5971  0.8556  0.7439
  454MOL0     C62543  -0.506  10.692   5.344 -0.1771 -0.7344 -0.5735
  454MOL0     C62544  -0.612  10.675   5.450 -0.3202 -0.2585 -0.3061
  454MOL0     O62545  -0.606  10.547   5.520  0.3360 -0.1168  0.5780
  454MOL0     C62546  -0.715  10.516   5.594 -0.3145  0.7681  0.2043
  454MOL0     C62547  -0.832  10.468   5.533 -0.5009 -0.6697 -0.1963
  454MOL0     C62548  -0.946  10.427   5.597 -0.2484 -0.9763  0.4111
  454MOL0     C62549  -0.957  10.447   5.729  0.7851  0.4995  0.0001
  454MOL0     O62550  -1.081  10.412   5.788  0.0290 -0.8539 -0.3214
  454MOL0     C62551  -1.113  10.499   5.904  0.1681 -0.3475  0.1459
  454MOL0     C62552  -1.248  10.441   5.952  0.4605  0.5325  0.6168
  454MOL0     C62553  -1.226  10.318   6.040  0.2859  0.0690 -0.0905
  454MOL0     C62554  -1.349  10.226   6.076 -0.1156 -0.2329  0.3286
  454MOL0     C62555  -1.301  10.104   6.159 -0.1674 -0.6100  0.0238
  454MOL0     C62556  -1.420  10.006   6.183  0.2222  0.7528  0.3990
  454MOL0     C62557  -1.392   9.869   6.266 -0.5499  0.3081  1.1630
  454MOL0     C62558  -1.280   9.798   6.201  0.0642 -0.0847 -0.6070
  454MOL0    Cl62559  -1.311   9.733   6.033 -0.0440 -0.1136  0.2769
  454MOL0     C62560  -0.837  10.494   5.803 -0.8791 -0.2829 -0.1088
  454MOL0     C62561  -0.719  10.528   5.738  0.2568 -0.3061  0.5601
  454MOL0     O62562  -0.691  10.773   5.473  0.0544  0.6314 -0.2568
  454MOL0     C62563  -0.449  10.584   5.287  0.3869  0.2797 -0.3597
  454MOL0     C62564  -0.322  10.581   5.218 -0.7493  0.1831 -0.1696
  454MOL0     N62565   0.385  10.300   5.084  0.0043 -0.3928  0.4907
  454MOL0     N62566   0.462  10.215   5.148 -0.0999 -0.1523  0.3708
  454MOL0     C62567   1.152  10.550   6.215  0.4667  0.5752 -0.0482
  454MOL0     C62568   1.238  10.597   6.308  0.6769 -0.7141  0.5924
  454MOL0     C62569   1.589  10.584   6.602 -0.5267 -0.4154  0.8339
  454MOL0     C62570   1.686  10.685   6.556 -0.0444  0.0385  0.1076
  454MOL0     C62571   1.787  10.732   6.642  0.8495  0.2086 -0.7477
  454MOL0     C62572   1.786  10.684   6.781 -0.1362 -0.0533  0.3644
  454MOL0     O62573   1.876  10.721   6.879 -0.0177  0.5215  0.3938
  454MOL0     C62574   1.990  10.794   6.851  0.8387  0.5492  0.3983
  454MOL0     C62575   2.054  10.796   6.985 -0.4840 -0.2254  0.5535
  454MOL0     C62576   2.089  10.657   7.036 -0.2066 -0.0114  0.9551
  454MOL0     C62577   2.170  10.665   7.163  0.6462 -0.6639 -0.9660
  454MOL0     C62578   2.310  10.682   7.140  0.2998  0.0415 -0.3991
  454MOL0     C62579   2.422  10.708   7.104 -0.0401  0.5515 -0.0581
  454MOL0     C62580   1.691  10.597   6.830 -0.2174  0.4304  0.6637
  454MOL0     C62581   1.596  10.549   6.741 -0.1146  1.2248 -0.9296
  454MOL0     C62582   1.492  10.455   6.795 -0.8608 -0.0889  0.7535
  454MOL0     H62583   1.525  10.454   6.194  0.7479 -1.0596  1.4534
  454MOL0     H62584   1.345  10.346   6.040 -2.9642  0.1972 -0.0896
  454MOL0     H62585   1.015  10.541   5.945 -0.0637 -1.9457 -2.7027
  454MOL0     H62586   0.933  10.473   6.089 -1.1798 -3.5172  0.8621
  454MOL0     H62587   0.951  10.367   5.805  1.7992  0.1699  0.5554
  454MOL0     H62588   0.902  10.261   5.944  1.7890  0.7182  2.5330
  454MOL0     H62589   0.710  10.434   5.989 -0.8751  1.2190 -1.7114
  454MOL0     H62590   0.746  10.517   5.841  0.2993 -1.1197 -2.3521
  454MOL0     H62591   0.668  10.214   5.884 -3.6882 -0.4836 -0.7171
  454MOL0     H62592   0.572  10.352   5.808 -0.4450 -0.1012  1.0459
  454MOL0     H62593   0.668  10.150   5.655  2.4170 -1.2128 -0.3821
  454MOL0     H62594   0.818  10.222   5.693  0.0145  2.9863 -1.0455
  454MOL0     H62595   0.592  10.401   5.588 -1.4998 -2.3646  1.0392
  454MOL0     H62596   0.774  10.416   5.565  0.7049 -0.3707 -0.0460
  454MOL0     H62597   0.778  10.226   5.421  0.2634  0.5240  2.9556
  454MOL0     H62598   0.713  10.375   5.369  2.1310  1.0090  2.5205
  454MOL0     H62599   0.592  10.102   5.344 -3.7406  0.3052 -0.7278
  454MOL0     H62600   0.499  10.185   5.465  0.7437 -1.5030  0.4429
  454MOL0     H62601   0.491  10.472   5.341  1.3183  0.2222 -0.0008
  454MOL0     H62602   0.357  10.600   5.020 -1.4059  3.4346  0.7785
  454MOL0     H62603   0.310  10.617   5.196  0.1823  0.0174 -1.3933
  454MOL0     H62604   0.155  10.538   4.958  2.5856  1.2155 -0.3862
  454MOL0     H62605   0.123  10.443   5.112 -1.3877  0.2803 -1.2546
  454MOL0     H62606   0.052  10.644   5.222  0.9364 -1.3280  0.5621
  454MOL0     H62607   0.115  10.732   5.079 -0.3646 -0.4839 -1.2887
  454MOL0     H62608  -0.082  10.640   4.945  0.2344 -3.5866 -1.5513
  454MOL0     H62609  -0.115  10.527   5.063 -0.6060  0.1926 -3.8795
  454MOL0     H62610  -0.265  10.911   5.207  1.4026 -1.0714 -0.4204
  454MOL0     H62611  -0.476  10.957   5.468 -1.2934 -1.5947  1.4260
  454MOL0     H62612  -0.601  10.956   5.340  0.9467  1.8106 -0.7564
  454MOL0     H62613  -0.450  11.026   5.301  0.0451 -0.0062 -0.8933
  454MOL0     H62614  -0.820  10.459   5.425  0.9019 -2.9321  0.0792
  454MOL0     H62615  -1.024  10.384   5.535  1.0641  0.8787 -2.7535
  454MOL0     H62616  -1.050  10.487   5.993 -1.6188 -0.8717  1.3999
  454MOL0     H62617  -1.121  10.604   5.877  3.4073 -0.4265 -1.6484
  454MOL0     H62618  -1.301  10.517   6.010  0.9611  0.0684  1.7097
  454MOL0     H62619  -1.320  10.408   5.877 -0.0180  2.8518 -0.0367
  454MOL0     H62620  -1.184  10.358   6.133 -0.3920 -1.1643  0.7761
  454MOL0     H62621  -1.151  10.256   5.991 -2.8836 -1.2548 -3.7239
  454MOL0     H62622  -1.399  10.184   5.989 -0.4583 -4.0663  2.1469
  454MOL0     H62623  -1.426  10.276   6.137  0.2510 -0.9339  1.4003
  454MOL0     H62624  -1.214  10.063   6.106 -0.0458 -1.6208  0.9501
  454MOL0     H62625  -1.273  10.131   6.262 -0.3767 -2.5556  0.6418
  454MOL0     H62626  -1.461   9.973   6.087  2.5934 -1.4394  0.0347
  454MOL0     H62627  -1.499  10.068   6.225  1.2539  1.3214  1.5469
  454MOL0     H62628  -1.476   9.802   6.285  0.0581 -1.0998 -0.8221
  454MOL0     H62629  -1.359   9.898   6.366 -0.5468 -0.2962  1.3426
  454MOL0     H62630  -1.245   9.714   6.262 -0.5583  1.0861  1.4892
  454MOL0     H62631  -1.191   9.861   6.191 -0.0407 -0.3186 -7.0219
  454MOL0     H62632  -0.836  10.509   5.910  1.9654  1.6863 -0.3248
  454MOL0     H62633  -0.640  10.567   5.802 -1.0020 -0.5950  2.3470
  454MOL0     H62634  -0.506  10.491   5.294  0.8424 -0.1331 -1.6672
  454MOL0     H62635  -0.284  10.482   5.196  0.0145  0.2663  0.6906
  454MOL0     H62636   1.050  10.587   6.213  0.7569  1.4100 -2.3278
  454MOL0     H62637   1.219  10.680   6.375 -0.6467 -0.2413 -0.3298
  454MOL0     H62638   1.696  10.720   6.454  2.7985 -0.2146  0.2021
  454MOL0     H62639   1.873  10.796   6.624  1.8034 -0.0490  2.2050
  454MOL0     H62640   2.049  10.741   6.775 -1.3870 -1.1171 -0.2622
  454MOL0     H62641   1.969  10.893   6.810 -1.3257 -0.4577 -1.0890
  454MOL0     H62642   1.994  10.845   7.062  0.4585  0.2833  0.9785
  454MOL0     H62643   2.151  10.847   6.981 -0.3748 -0.3864  1.1121
  454MOL0     H62644   2.001  10.598   7.062  0.2254 -0.1893  2.0545
  454MOL0     H62645   2.144  10.606   6.956  1.2356 -2.0917  3.1180
  454MOL0     H62646   2.153  10.580   7.231 -0.5548  2.9212  3.7954
  454MOL0     H62647   2.127  10.754   7.211 -0.5857 -1.7148 -0.0363
  454MOL0     H62648   2.525  10.735   7.090  0.5537 -1.6615 -0.3771
  454MOL0     H62649   1.692  10.570   6.935 -1.0480  1.0243  0.8353
  454MOL0     H62650   1.393  10.474   6.753  0.0235 -0.7297 -1.8129
  454MOL0     H62651   1.530  10.358   6.762 -0.4935  0.5314 -0.7316
  454MOL0     H62652   1.487  10.442   6.904  0.6587 -3.7189  0.5502
  455MOL0     O62653   0.595  10.718   6.866  0.4518  0.0681  0.3206
  455MOL0     C62654   0.635  10.710   6.980  0.3731  0.4176  0.0172
  455MOL0     O62655   0.762  10.666   7.011  0.5946 -0.2947 -0.0026
  455MOL0     C62656   0.830  10.584   6.924  0.1793 -1.0506  0.2408
  455MOL0     C62657   0.772  10.500   6.824  0.0938 -0.0724  0.3385
  455MOL0     C62658   0.851  10.419   6.741  0.3421  0.5873  0.2579
  455MOL0     C62659   0.986  10.419   6.757  0.2522  0.3283  0.2644
  455MOL0     O62660   1.059  10.329   6.685 -0.4048 -0.1785  0.7420
  455MOL0     C62661   1.087  10.381   6.561 -0.4170 -0.7320  0.6982
  455MOL0     C62662   1.129  10.258   6.472  0.2021 -0.8636  0.2397
  455MOL0     C62663   1.019  10.158   6.448 -0.0408  0.0705 -0.0247
  455MOL0     C62664   0.912  10.229   6.357  0.8058 -0.7581 -0.3974
  455MOL0     C62665   0.797  10.138   6.328  0.9888  0.8945  0.5015
  455MOL0     C62666   0.736  10.165   6.187  0.0050 -0.4213  0.4432
  455MOL0     C62667   0.593  10.097   6.175 -0.0195  0.7853  0.2185
  455MOL0     C62668   0.578   9.938   6.158  0.2568 -0.0780 -0.6070
  455MOL0     N62669   0.435   9.905   6.144  1.2276  0.9038  0.2952
  455MOL0     C62670   0.365   9.920   6.031 -0.4581  0.2592  0.0090
  455MOL0     C62671   0.234   9.929   6.071  1.3758  0.1842  0.7518
  455MOL0     C62672   0.129   9.952   5.967 -0.1006 -0.5892  0.3133
  455MOL0     C62673   0.052  10.090   5.978 -0.3355 -0.0092 -0.1207
  455MOL0     C62674   0.107  10.193   5.889  0.7965 -0.3508 -0.1362
  455MOL0     C62675   0.041  10.329   5.896  0.5350 -0.3890  0.7714
  455MOL0     O62676   0.073  10.370   6.027  0.7051 -0.5866 -0.1102
  455MOL0     C62677   0.190  10.442   6.037 -0.0758  0.0407 -0.3318
  455MOL0     C62678   0.211  10.559   5.964 -0.3577 -0.1441 -0.1719
  455MOL0     C62679   0.336  10.633   5.975  0.1113  1.0919  0.7360
  455MOL0     C62680   0.344  10.749   5.884 -0.5303  0.7646 -0.1198
  455MOL0     C62681   0.434  10.589   6.070 -0.6401  1.0090 -0.5309
  455MOL0     C62682   0.556  10.665   6.125  0.2208 -0.4863 -0.3260
  455MOL0     O62683   0.616  10.611   6.234 -0.2076  0.4092 -0.0107
  455MOL0     C62684   0.727  10.674   6.293 -0.3998  0.4508 -0.1717
  455MOL0     C62685   0.803  10.785   6.254 -0.5111  0.6039  0.4720
  455MOL0     C62686   0.904  10.827   6.330  1.2207 -0.0441  0.1674
  455MOL0     C62687   0.945  10.773   6.452 -0.1263  0.2330  0.6110
  455MOL0     O62688   1.064  10.828   6.505  0.3817 -0.0125  0.0276
  455MOL0     C62689   1.091  10.812   6.641 -0.0719 -0.1066 -0.5963
  455MOL0     C62690   1.218  10.881   6.685  0.0330 -0.4680 -0.9803
  455MOL0     C62691   1.239  10.902   6.840 -0.1588  0.0375  0.1451
  455MOL0     C62692   1.186  11.041   6.887  0.5924 -0.8006  0.1212
  455MOL0     C62693   1.213  11.057   7.036 -1.0814  0.2072 -0.2056
  455MOL0     C62694   1.127  10.968   7.127 -0.0885  0.1365 -0.8338
  455MOL0     C62695   1.177  10.988   7.269 -0.7421 -0.3126 -0.2046
  455MOL0     C62696   1.113  10.889   7.366  0.0848 -0.3695  0.2934
  455MOL0    Cl62697   1.182  10.901   7.541  0.6467  0.3581  0.4785
  455MOL0     C62698   0.865  10.663   6.493  0.5599 -0.2484  0.5247
  455MOL0     C62699   0.766  10.613   6.413 -0.0329  0.1729 -0.5669
  455MOL0     O62700   0.602  10.767   6.065  0.1852  0.1551 -0.4563
  455MOL0     C62701   0.401  10.464   6.135 -0.4670 -1.1450  0.2241
  455MOL0     C62702   0.295  10.389   6.111 -0.5142 -0.7383  1.0835
  455MOL0     N62703   0.226   9.909   6.209 -0.5078  0.2688  1.0304
  455MOL0     N62704   0.349   9.888   6.251  0.5351 -0.4779 -0.0498
  455MOL0     C62705   1.051  10.493   6.854 -0.0190  1.1226 -0.0045
  455MOL0     C62706   0.971  10.575   6.938  0.0041 -0.0888  0.3119
  455MOL0     C62707   0.545  10.746   7.097 -0.6416 -0.5705  1.3084
  455MOL0     C62708   0.416  10.703   7.091 -0.7899  0.3175 -0.0067
  455MOL0     C62709   0.329  10.748   7.188  0.5454 -0.9918  0.3107
  455MOL0     C62710   0.379  10.815   7.300  0.7270  0.4154 -0.9533
  455MOL0     O62711   0.279  10.857   7.380  0.8816 -0.0939  0.0538
  455MOL0     C62712   0.311  10.903   7.515  1.3833  0.4101  0.3476
  455MOL0     C62713   0.194  10.916   7.604 -1.0085  0.2545 -0.5561
  455MOL0     C62714   0.233  11.021   7.715 -0.7975 -0.6986 -0.5084
  455MOL0     C62715   0.123  11.031   7.826 -0.4180  0.9280 -0.0619
  455MOL0     C62716   0.163  11.126   7.940 -0.1032  0.2059  0.3831
  455MOL0     C62717   0.195  11.206   8.029  0.3700 -0.3128  0.8239
  455MOL0     C62718   0.509  10.843   7.307 -0.5704 -0.2987  0.2954
  455MOL0     C62719   0.600  10.805   7.212  0.5128 -0.0849 -0.2034
  455MOL0     C62720   0.750  10.860   7.222  0.7410 -0.4961  0.2328
  455MOL0     H62721   0.665  10.506   6.812  0.0542 -0.8366  0.2180
  455MOL0     H62722   0.796  10.348   6.680  0.7407 -0.4627  1.0888
  455MOL0     H62723   1.170  10.451   6.559  0.8798 -2.2107 -1.7875
  455MOL0     H62724   1.005  10.427   6.506  0.6159 -1.5145 -1.6127
  455MOL0     H62725   1.170  10.300   6.381 -1.0033  1.0643  0.5335
  455MOL0     H62726   1.212  10.210   6.524  0.5018  0.0111  0.5816
  455MOL0     H62727   1.055  10.075   6.387  0.2717  1.2993 -1.5902
  455MOL0     H62728   0.980  10.142   6.549  1.7893 -0.0912  0.6935
  455MOL0     H62729   0.879  10.327   6.391  0.3380 -1.4754  1.3317
  455MOL0     H62730   0.960  10.248   6.261  1.5985  0.2544  0.1769
  455MOL0     H62731   0.719  10.145   6.404 -0.1240 -0.5405 -0.4501
  455MOL0     H62732   0.829  10.033   6.330  1.3098  0.9970  1.3531
  455MOL0     H62733   0.739  10.271   6.163  2.7942 -0.5274  0.0907
  455MOL0     H62734   0.795  10.113   6.111  0.2221  4.4327 -3.1888
  455MOL0     H62735   0.532  10.144   6.097 -1.7083 -2.3158 -0.4946
  455MOL0     H62736   0.548  10.121   6.272  1.5292  0.9868  0.9039
  455MOL0     H62737   0.637   9.909   6.071  2.6081 -0.2851  0.9424
  455MOL0     H62738   0.615   9.877   6.241  1.5006  0.6631 -0.5870
  455MOL0     H62739   0.408   9.912   5.932 -2.3211 -1.4882 -0.7235
  455MOL0     H62740   0.052   9.875   5.985 -1.6680  1.3664  2.6146
  455MOL0     H62741   0.174   9.938   5.869 -0.7904  2.0286 -0.4563
  455MOL0     H62742  -0.049  10.077   5.939  0.5960 -1.7118 -2.1835
  455MOL0     H62743   0.063  10.119   6.082  2.3213 -2.5137  0.4346
  455MOL0     H62744   0.214  10.201   5.910  0.9495 -1.8347 -0.2058
  455MOL0     H62745   0.097  10.148   5.790  0.0858 -2.3908  0.8027
  455MOL0     H62746   0.076  10.392   5.814  0.3820  2.0440  2.4754
  455MOL0     H62747  -0.067  10.341   5.884  0.8788  1.5731 -0.7464
  455MOL0     H62748   0.138  10.591   5.890  0.7267  0.4354 -1.0218
  455MOL0     H62749   0.404  10.825   5.935  0.1891 -0.7767  1.4565
  455MOL0     H62750   0.244  10.785   5.859 -0.6447  0.0897 -0.6765
  455MOL0     H62751   0.397  10.700   5.802 -2.2893 -1.9578  0.2096
  455MOL0     H62752   0.775  10.848   6.171 -1.3213  0.8644  0.9320
  455MOL0     H62753   0.952  10.918   6.295 -0.3215 -0.7758 -4.4325
  455MOL0     H62754   1.006  10.852   6.696  0.0019 -1.5310  0.6270
  455MOL0     H62755   1.099  10.706   6.670 -1.9968 -0.3135 -0.7032
  455MOL0     H62756   1.314  10.840   6.653  0.2936  0.3095 -1.2143
  455MOL0     H62757   1.215  10.978   6.635 -1.2729 -1.6692 -3.4157
  455MOL0     H62758   1.346  10.892   6.863  0.1884 -0.8881 -1.7022
  455MOL0     H62759   1.181  10.832   6.901  1.4710 -2.1677 -0.6882
  455MOL0     H62760   1.080  11.044   6.858  0.3196  0.7581  1.1567
  455MOL0     H62761   1.225  11.122   6.825  1.2421 -0.1616  1.3361
  455MOL0     H62762   1.319  11.034   7.051 -1.9332 -2.8561  2.2540
  455MOL0     H62763   1.211  11.162   7.067  1.2553  0.4763 -0.7298
  455MOL0     H62764   1.134  10.863   7.100  1.2643  0.1384 -0.5382
  455MOL0     H62765   1.021  10.995   7.120 -0.4337 -1.4039 -1.8938
  455MOL0     H62766   1.176  11.094   7.296  2.4344 -0.0285 -0.8873
  455MOL0     H62767   1.285  10.979   7.277 -0.7350  0.4265  0.6332
  455MOL0     H62768   1.132  10.785   7.337  2.9210  0.5587 -1.6518
  455MOL0     H62769   1.006  10.906   7.375  0.1174  0.7051 -1.0350
  455MOL0     H62770   0.902  10.607   6.579  0.0636 -4.9907 -2.0283
  455MOL0     H62771   0.711  10.525   6.447 -1.0948  1.2961  0.7819
  455MOL0     H62772   0.482  10.427   6.198  1.3216  0.3976 -1.0557
  455MOL0     H62773   0.281  10.283   6.130 -0.6420 -0.8769  0.2661
  455MOL0     H62774   1.158  10.492   6.869 -0.2294  1.2186  1.6241
  455MOL0     H62775   1.014  10.635   7.018 -2.2344  1.5303  0.3927
  455MOL0     H62776   0.376  10.638   7.014  2.2474  1.0166 -2.3534
  455MOL0     H62777   0.222  10.733   7.190  0.2662  0.8101  1.5612
  455MOL0     H62778   0.388  10.844   7.565  2.2616  0.5361 -0.8102
  455MOL0     H62779   0.360  11.000   7.505 -1.3657  1.9391  0.5792
  455MOL0     H62780   0.170  10.818   7.647  2.7957  0.7656  3.4424
  455MOL0     H62781   0.111  10.959   7.549 -0.8106  2.0131  0.4522
  455MOL0     H62782   0.326  10.993   7.766 -0.7641 -1.5518 -1.0007
  455MOL0     H62783   0.241  11.114   7.658 -2.8915 -0.2356 -0.1089
  455MOL0     H62784   0.130  10.935   7.878 -1.7274  0.2253 -1.1326
  455MOL0     H62785   0.024  11.046   7.782 -1.1610 -0.5761  1.0096
  455MOL0     H62786   0.233  11.288   8.087 -0.0393 -0.2928  1.0680
  455MOL0     H62787   0.552  10.895   7.392  0.3386 -0.2780 -0.1583
  455MOL0     H62788   0.823  10.780   7.201 -0.9785 -1.6709 -1.6718
  455MOL0     H62789   0.755  10.945   7.154 -3.2524  1.0821  1.6614
  455MOL0     H62790   0.777  10.916   7.311 -1.0349  3.1229 -1.3086
  456MOL0     O62791   6.315   6.018   2.232 -0.5027 -0.1115 -0.2529
  456MOL0     C62792   6.361   6.111   2.294  0.6889  0.5842  0.0416
  456MOL0     O62793   6.356   6.125   2.440 -0.7866  0.0615 -0.2910
  456MOL0     C62794   6.297   6.025   2.507 -0.5739  0.0654 -0.3210
  456MOL0     C62795   6.374   5.925   2.556  0.4137 -0.0915  0.5781
  456MOL0     C62796   6.315   5.803   2.605 -0.2185  0.2277 -0.6305
  456MOL0     C62797   6.178   5.787   2.596  0.8379  0.6356 -0.4788
  456MOL0     O62798   6.132   5.661   2.637 -0.0969 -0.3304 -0.5295
  456MOL0     C62799   5.994   5.664   2.669 -0.3092  0.3619  0.3593
  456MOL0     C62800   5.949   5.554   2.761 -0.8464  0.2054 -0.6650
  456MOL0     C62801   5.810   5.524   2.713  0.1443 -0.1550  1.0232
  456MOL0     C62802   5.734   5.416   2.803  0.0891  0.0654  0.3784
  456MOL0     C62803   5.746   5.448   2.948 -1.0451 -0.4682 -0.0956
  456MOL0     C62804   5.677   5.574   3.000 -0.0325 -0.0341  0.3373
  456MOL0     C62805   5.644   5.553   3.144  0.2077 -0.9153  0.3616
  456MOL0     C62806   5.754   5.505   3.238 -0.8270 -0.5974 -1.5552
  456MOL0     N62807   5.863   5.608   3.254 -0.0425  0.4447 -0.3488
  456MOL0     C62808   5.865   5.746   3.284 -0.2253  0.6937  0.1889
  456MOL0     C62809   5.985   5.791   3.243 -0.4934 -0.4092 -0.3111
  456MOL0     C62810   6.030   5.933   3.263  1.1328 -0.6943  0.1028
  456MOL0     C62811   6.021   6.024   3.142 -0.4269 -0.0882 -0.0763
  456MOL0     C62812   6.070   6.166   3.172 -0.7318 -0.2927  0.8708
  456MOL0     C62813   6.128   6.231   3.048 -0.0570  0.1240  1.0183
  456MOL0     O62814   6.018   6.242   2.956 -0.4362 -0.5333  0.6795
  456MOL0     C62815   6.034   6.286   2.829 -0.7368 -0.1231  0.1435
  456MOL0     C62816   5.917   6.330   2.771 -0.2917  0.1761 -0.6765
  456MOL0     C62817   5.915   6.389   2.643 -0.1458  0.7092  0.0309
  456MOL0     C62818   5.778   6.407   2.583 -0.1187  0.5584 -0.1323
  456MOL0     C62819   6.035   6.403   2.573  0.2903  0.2981  0.2112
  456MOL0     C62820   6.041   6.449   2.427 -0.5836 -0.1307 -0.7248
  456MOL0     O62821   5.978   6.565   2.401 -0.0887 -0.3146  0.1051
  456MOL0     C62822   5.987   6.643   2.288 -0.5505 -0.4311  0.1035
  456MOL0     C62823   5.929   6.774   2.300 -0.3501 -0.4185 -0.4914
  456MOL0     C62824   5.928   6.859   2.187  0.2630  0.4760  0.7581
  456MOL0     C62825   5.972   6.819   2.064 -1.3441 -0.5363  0.8423
  456MOL0     O62826   5.945   6.905   1.958  0.8160  0.3102  0.2717
  456MOL0     C62827   6.016   6.889   1.842  0.5200 -0.4265  0.6867
  456MOL0     C62828   5.981   7.007   1.759  0.4431  0.3805 -0.3381
  456MOL0     C62829   5.942   6.961   1.614 -0.8243  0.1575  1.2567
  456MOL0     C62830   5.890   7.072   1.524  0.4617  1.3700  0.2506
  456MOL0     C62831   5.828   7.007   1.391  0.0199  0.8446 -0.3545
  456MOL0     C62832   5.681   7.040   1.362  0.9354  0.5309 -0.7889
  456MOL0     C62833   5.655   7.182   1.335 -0.3878 -0.0577  0.3174
  456MOL0     C62834   5.513   7.212   1.287 -0.8181  0.3690  0.3856
  456MOL0    Cl62835   5.496   7.126   1.125  0.0271  0.2198 -0.0252
  456MOL0     C62836   6.032   6.685   2.046  0.5321  0.2945  0.4327
  456MOL0     C62837   6.040   6.606   2.166 -0.3569 -0.3037 -0.2182
  456MOL0     O62838   6.102   6.373   2.349 -0.6759 -0.6598 -0.6389
  456MOL0     C62839   6.152   6.367   2.640 -0.8534  0.1333 -0.6890
  456MOL0     C62840   6.156   6.310   2.767 -0.7342  0.4359  0.3137
  456MOL0     N62841   6.053   5.686   3.186 -1.5582  0.1466 -0.2357
  456MOL0     N62842   5.988   5.577   3.200  0.1988  0.1995  0.0064
  456MOL0     C62843   6.106   5.891   2.546  0.3000 -0.0530  0.3257
  456MOL0     C62844   6.161   6.014   2.515  0.6503  0.0069  0.0954
  456MOL0     C62845   6.439   6.217   2.223 -0.0649  0.3618 -0.4278
  456MOL0     C62846   6.438   6.357   2.250  0.9805  0.3439 -0.1025
  456MOL0     C62847   6.508   6.449   2.179 -0.6934 -0.3636  1.1106
  456MOL0     C62848   6.599   6.406   2.087 -0.3678 -0.6247  0.0198
  456MOL0     O62849   6.679   6.478   2.008  0.4897 -0.7932  0.7525
  456MOL0     C62850   6.664   6.626   1.997 -0.1822  0.5502  0.4963
  456MOL0     C62851   6.729   6.697   2.123 -1.3028  0.2294  0.0321
  456MOL0     C62852   6.881   6.697   2.118 -0.2017  0.4900 -0.1984
  456MOL0     C62853   6.949   6.759   1.987 -0.1379 -0.2130 -0.6249
  456MOL0     C62854   6.899   6.894   1.959  0.1237  0.2266 -0.2486
  456MOL0     C62855   6.858   7.002   1.920 -0.0480  0.2832  0.9426
  456MOL0     C62856   6.614   6.274   2.066 -0.7636  0.5521 -0.6772
  456MOL0     C62857   6.539   6.175   2.132 -0.7819 -0.1595 -0.5210
  456MOL0     C62858   6.574   6.036   2.090 -0.1147  0.8261 -0.8247
  456MOL0     H62859   6.481   5.934   2.539  0.4308  0.8583  1.0987
  456MOL0     H62860   6.385   5.722   2.623 -0.0675  0.0693 -1.8473
  456MOL0     H62861   5.955   5.667   2.567  1.4848 -1.4299 -0.4594
  456MOL0     H62862   5.978   5.759   2.720 -0.5913  0.3882  0.2175
  456MOL0     H62863   6.014   5.467   2.747 -0.5323 -0.5846  4.0332
  456MOL0     H62864   5.960   5.576   2.868 -2.4288 -2.2128  0.0674
  456MOL0     H62865   5.744   5.610   2.721  1.2973  0.5768  5.5600
  456MOL0     H62866   5.824   5.482   2.613  0.5401 -1.2064  1.4980
  456MOL0     H62867   5.628   5.429   2.781  0.1888  3.0566  1.1489
  456MOL0     H62868   5.772   5.314   2.801 -3.4875 -1.4056 -0.4753
  456MOL0     H62869   5.850   5.441   2.981 -0.9342 -1.6672 -0.6284
  456MOL0     H62870   5.697   5.361   2.992  2.4440 -1.6614  1.8664
  456MOL0     H62871   5.746   5.658   2.991  2.0594 -1.4907  1.8379
  456MOL0     H62872   5.579   5.589   2.954  0.1764 -0.9596 -0.4456
  456MOL0     H62873   5.567   5.475   3.145  0.4119 -1.2191 -2.0405
  456MOL0     H62874   5.590   5.638   3.185  2.6811  0.6703  0.5619
  456MOL0     H62875   5.705   5.497   3.336  2.9744  1.1005  0.7093
  456MOL0     H62876   5.807   5.415   3.205 -1.6819 -2.2074  1.0785
  456MOL0     H62877   5.783   5.804   3.327 -1.5664 -0.1471 -1.1191
  456MOL0     H62878   6.132   5.931   3.303  0.0213  2.4013  3.6208
  456MOL0     H62879   5.969   5.982   3.339 -0.8291 -3.5867  0.5500
  456MOL0     H62880   6.071   5.968   3.062  3.1998  1.4617  0.9085
  456MOL0     H62881   5.916   6.025   3.111 -0.7585 -1.7222  0.9192
  456MOL0     H62882   5.988   6.230   3.209 -0.9325  0.8481 -1.4027
  456MOL0     H62883   6.144   6.168   3.253 -1.0881  0.8989  1.1962
  456MOL0     H62884   6.173   6.330   3.064  0.4845  0.1297 -0.4421
  456MOL0     H62885   6.211   6.169   3.012  0.2624  0.7670  0.6349
  456MOL0     H62886   5.829   6.314   2.833  1.7162 -1.4586  1.9852
  456MOL0     H62887   5.713   6.438   2.664  1.2002 -0.7570  1.5123
  456MOL0     H62888   5.736   6.325   2.523 -1.4905  0.9765  0.2391
  456MOL0     H62889   5.778   6.489   2.511  0.6422 -2.4118 -3.8654
  456MOL0     H62890   5.891   6.801   2.398  0.1574 -0.6086 -0.2412
  456MOL0     H62891   5.884   6.958   2.185 -1.7510 -0.2847 -3.0754
  456MOL0     H62892   6.124   6.874   1.848  0.6745  0.2781 -0.0454
  456MOL0     H62893   5.980   6.797   1.796 -0.4519  0.4175 -0.2961
  456MOL0     H62894   5.901   7.068   1.802 -0.4689 -1.5570  0.8204
  456MOL0     H62895   6.070   7.072   1.758  0.8269 -0.1390 -0.1493
  456MOL0     H62896   5.858   6.893   1.630 -2.3454  2.0195  1.5205
  456MOL0     H62897   6.012   6.904   1.552  1.7466  1.5662  2.6831
  456MOL0     H62898   5.959   7.153   1.497  1.0721 -0.0918 -2.9603
  456MOL0     H62899   5.814   7.128   1.579 -0.2547 -0.8555  1.6584
  456MOL0     H62900   5.890   7.037   1.305  1.1999  0.6837  0.4251
  456MOL0     H62901   5.837   6.899   1.401  0.1231  0.8698 -0.1766
  456MOL0     H62902   5.617   7.016   1.448  0.6931  0.4118 -1.0027
  456MOL0     H62903   5.660   6.976   1.276 -2.2774  1.8001 -1.0696
  456MOL0     H62904   5.728   7.217   1.261  0.8585  2.0856  2.4212
  456MOL0     H62905   5.673   7.240   1.426  2.3616  0.8989 -0.7125
  456MOL0     H62906   5.506   7.319   1.264  0.8227 -0.0306 -2.4885
  456MOL0     H62907   5.448   7.180   1.369  0.4150 -1.9018  0.5460
  456MOL0     H62908   6.077   6.642   1.957  1.5031  2.0693  0.0078
  456MOL0     H62909   6.094   6.512   2.161 -0.2479 -0.4981  2.9149
  456MOL0     H62910   6.241   6.370   2.578  0.9932 -2.0466  1.6106
  456MOL0     H62911   6.250   6.266   2.798  0.5959 -0.7726 -4.6404
  456MOL0     H62912   5.998   5.890   2.541  0.2140 -0.0801  1.8248
  456MOL0     H62913   6.103   6.097   2.476 -0.4636  0.7486  3.0755
  456MOL0     H62914   6.358   6.389   2.317  0.4728 -0.2484 -0.4153
  456MOL0     H62915   6.500   6.556   2.198 -0.6674 -0.0912 -0.3107
  456MOL0     H62916   6.709   6.652   1.901  2.1119 -0.0136  1.3440
  456MOL0     H62917   6.558   6.650   1.996 -0.1789  0.7484  2.2889
  456MOL0     H62918   6.711   6.647   2.218  2.1556  0.1893  0.7906
  456MOL0     H62919   6.700   6.803   2.125 -0.4879  0.5871 -2.8621
  456MOL0     H62920   6.907   6.749   2.211 -1.3020 -1.6816  1.4382
  456MOL0     H62921   6.914   6.593   2.121 -0.3888  0.3497 -1.9636
  456MOL0     H62922   6.935   6.694   1.900 -1.3303  1.3992 -1.6746
  456MOL0     H62923   7.057   6.777   1.999 -0.4991  2.7273 -1.1417
  456MOL0     H62924   6.832   7.105   1.912  0.5210  0.6152  2.8545
  456MOL0     H62925   6.678   6.251   1.982 -0.6206  0.6233 -0.5892
  456MOL0     H62926   6.497   5.974   2.042 -0.2751  1.9211 -2.0438
  456MOL0     H62927   6.664   6.033   2.028  0.1283 -0.1994 -0.4385
  456MOL0     H62928   6.596   5.980   2.181  1.1756 -0.0087 -1.6148
  457MOL0     O62929   7.970   2.762   2.731  1.0228 -0.1710  0.7273
  457MOL0     C62930   7.954   2.674   2.812 -0.9538 -0.7204  0.0688
  457MOL0     O62931   7.861   2.576   2.806  0.3280  0.3321  0.0841
  457MOL0     C62932   7.771   2.577   2.700  0.2955  0.2719 -0.3707
  457MOL0     C62933   7.641   2.635   2.711  0.0426 -0.1013  0.4420
  457MOL0     C62934   7.561   2.651   2.600 -0.3864 -0.6339  0.5798
  457MOL0     C62935   7.605   2.617   2.476 -1.3729  0.4891 -0.9364
  457MOL0     O62936   7.504   2.615   2.376 -0.4369 -0.3213  0.7319
  457MOL0     C62937   7.532   2.577   2.240  0.2230  1.2842 -0.8247
  457MOL0     C62938   7.493   2.429   2.224 -0.0773 -0.4788 -0.0942
  457MOL0     C62939   7.356   2.386   2.294 -0.2915  0.5456 -0.4796
  457MOL0     C62940   7.304   2.255   2.236 -0.0113 -0.3458  0.6666
  457MOL0     C62941   7.244   2.283   2.098  0.3188  0.2459  0.1491
  457MOL0     C62942   7.173   2.153   2.045 -0.3680 -1.1099 -0.9570
  457MOL0     C62943   7.258   2.054   1.969  0.5544  0.3122  0.3545
  457MOL0     C62944   7.289   2.101   1.827 -0.7982 -0.3531  0.3586
  457MOL0     N62945   7.194   2.192   1.764  0.2532  0.2324  0.2696
  457MOL0     C62946   7.080   2.155   1.693 -0.2688  0.8980 -0.5131
  457MOL0     C62947   7.029   2.278   1.665 -0.5533 -0.1488 -0.4560
  457MOL0     C62948   6.899   2.312   1.608 -0.7803 -0.1280  0.5222
  457MOL0     C62949   6.798   2.211   1.651  1.0599  0.4502  0.6622
  457MOL0     C62950   6.655   2.256   1.623 -0.1393  0.4083 -0.0119
  457MOL0     C62951   6.564   2.134   1.611 -0.5836  0.7197  0.1545
  457MOL0     O62952   6.553   2.051   1.725  0.1792 -0.1425 -0.2998
  457MOL0     C62953   6.457   1.952   1.739 -0.2265 -0.3199 -0.1079
  457MOL0     C62954   6.465   1.894   1.861  0.3942  0.3214  0.2566
  457MOL0     C62955   6.382   1.778   1.883 -0.9030 -0.0885 -0.0018
  457MOL0     C62956   6.394   1.717   2.017  0.2146  0.1865 -0.3947
  457MOL0     C62957   6.286   1.721   1.788 -0.0617 -0.6316  0.4235
  457MOL0     C62958   6.191   1.611   1.804 -0.4175  0.2349  0.6083
  457MOL0     O62959   6.198   1.529   1.913  0.1535 -0.6975  0.1473
  457MOL0     C62960   6.133   1.413   1.908  1.4462  0.1421  0.3249
  457MOL0     C62961   6.021   1.390   1.991  0.1795 -0.1431 -0.2525
  457MOL0     C62962   5.945   1.270   1.981  0.5098  0.3278 -0.0156
  457MOL0     C62963   5.964   1.183   1.866  0.8274 -0.2659 -0.0947
  457MOL0     O62964   5.896   1.065   1.858  0.0087 -0.6145  0.9560
  457MOL0     C62965   5.864   1.010   1.729  0.3944  0.4981 -0.5916
  457MOL0     C62966   5.789   0.874   1.739 -0.9506  0.5108 -0.0206
  457MOL0     C62967   5.707   0.854   1.612  0.1579  0.0139 -0.2999
  457MOL0     C62968   5.640   0.716   1.611 -0.0591  0.8999 -0.2616
  457MOL0     C62969   5.562   0.693   1.484  0.6628  0.0581 -0.8485
  457MOL0     C62970   5.492   0.555   1.498  0.5703 -0.2693  0.0564
  457MOL0     C62971   5.425   0.524   1.365 -0.0675 -0.5162 -0.0587
  457MOL0     C62972   5.361   0.390   1.369 -0.3481 -0.5023  0.6819
  457MOL0    Cl62973   5.255   0.341   1.228 -0.1204 -0.0576  0.2130
  457MOL0     C62974   6.075   1.212   1.784  0.0138 -0.2725  0.4770
  457MOL0     C62975   6.162   1.317   1.803 -0.4525 -0.5874 -0.3973
  457MOL0     O62976   6.111   1.592   1.713 -0.0767 -0.2368  0.1594
  457MOL0     C62977   6.286   1.795   1.667 -0.0112 -0.2992 -0.3407
  457MOL0     C62978   6.379   1.898   1.637  0.0761  0.1885  0.4426
  457MOL0     N62979   7.104   2.379   1.717 -1.1368  0.2912 -0.3305
  457MOL0     N62980   7.198   2.321   1.776  0.5327 -1.1832 -0.2086
  457MOL0     C62981   7.734   2.564   2.473 -0.2393  0.7804  0.4465
  457MOL0     C62982   7.821   2.529   2.583  0.6221  0.7458 -0.1156
  457MOL0     C62983   8.029   2.665   2.933  1.3678 -0.8547 -0.7887
  457MOL0     C62984   7.954   2.661   3.054  0.0511 -0.4362  0.0948
  457MOL0     C62985   8.021   2.656   3.179  0.0343  0.1620  0.1410
  457MOL0     C62986   8.161   2.662   3.180 -0.4578 -0.1228  0.2753
  457MOL0     O62987   8.223   2.644   3.302  0.3299  0.0943 -0.1273
  457MOL0     C62988   8.227   2.750   3.400  0.1447 -0.0856  0.4995
  457MOL0     C62989   8.140   2.709   3.527  0.0656 -0.5573  1.1826
  457MOL0     C62990   8.141   2.823   3.632 -0.8445 -0.2073  0.4727
  457MOL0     C62991   8.270   2.808   3.714  0.6520 -0.3567 -0.2018
  457MOL0     C62992   8.244   2.863   3.842  0.3636 -0.2716  0.4622
  457MOL0     C62993   8.213   2.907   3.956 -0.2101  0.5492  0.2663
  457MOL0     C62994   8.236   2.676   3.061 -0.0838  0.3294  0.6661
  457MOL0     C62995   8.165   2.679   2.937 -0.5320  0.1518  0.3534
  457MOL0     C62996   8.250   2.689   2.809 -0.4285 -0.3082  0.7610
  457MOL0     H62997   7.617   2.657   2.814 -0.3349  0.8885  0.1531
  457MOL0     H62998   7.462   2.697   2.604 -0.6381 -0.6796 -2.7024
  457MOL0     H62999   7.636   2.576   2.206  0.5571 -2.5241 -0.1104
  457MOL0     H63000   7.479   2.644   2.172  0.3978  0.8164 -1.4249
  457MOL0     H63001   7.503   2.394   2.121  2.3896 -2.2897  0.6521
  457MOL0     H63002   7.560   2.375   2.292 -1.6195  0.2546  2.1065
  457MOL0     H63003   7.372   2.377   2.402 -1.0767 -2.3760 -0.5450
  457MOL0     H63004   7.273   2.456   2.277 -2.3806 -1.3265  1.3015
  457MOL0     H63005   7.385   2.183   2.220 -1.4794 -1.9292  0.0826
  457MOL0     H63006   7.231   2.220   2.309  0.6783  1.0494  2.0885
  457MOL0     H63007   7.320   2.315   2.025 -0.3687  0.2439 -0.5889
  457MOL0     H63008   7.165   2.358   2.105 -0.2234 -0.4733  2.2818
  457MOL0     H63009   7.141   2.093   2.131 -1.0728  0.2732 -0.2187
  457MOL0     H63010   7.082   2.187   1.994 -0.2797 -2.6875 -2.2343
  457MOL0     H63011   7.199   1.962   1.971  1.4007 -0.2313  1.3049
  457MOL0     H63012   7.350   2.038   2.026  1.5715 -1.2585 -1.6041
  457MOL0     H63013   7.380   2.161   1.822 -0.8589 -0.3399 -2.1730
  457MOL0     H63014   7.311   2.017   1.759 -0.5185 -1.1944  1.4648
  457MOL0     H63015   7.049   2.054   1.668  1.6213 -0.3644  1.8100
  457MOL0     H63016   6.911   2.301   1.500  0.4528  4.0189  0.0694
  457MOL0     H63017   6.876   2.416   1.631 -1.4288 -0.2026  0.2258
  457MOL0     H63018   6.817   2.120   1.595  0.5689  1.3580 -1.0375
  457MOL0     H63019   6.805   2.206   1.760 -0.5621 -0.2641  0.7508
  457MOL0     H63020   6.623   2.324   1.703 -1.0059 -0.2735  0.2401
  457MOL0     H63021   6.656   2.297   1.522  0.9961  1.2998  0.3349
  457MOL0     H63022   6.465   2.152   1.567 -1.3846 -0.1206  1.5370
  457MOL0     H63023   6.607   2.077   1.528 -1.2849 -1.4691  1.2140
  457MOL0     H63024   6.533   1.933   1.937  0.0202 -3.7013  3.0225
  457MOL0     H63025   6.440   1.618   2.019 -2.4378 -1.1198  0.6670
  457MOL0     H63026   6.294   1.698   2.058  1.6053 -6.3054  1.1150
  457MOL0     H63027   6.437   1.782   2.093 -0.4588 -0.1895  0.3247
  457MOL0     H63028   5.982   1.465   2.059 -0.5905 -0.0150 -0.8136
  457MOL0     H63029   5.863   1.230   2.039  1.5922 -0.9945  0.6713
  457MOL0     H63030   5.800   1.081   1.676  2.4720  2.0477 -1.1522
  457MOL0     H63031   5.946   0.998   1.658  0.0053 -0.6441 -0.8659
  457MOL0     H63032   5.863   0.795   1.743  1.0851  2.3617  2.0815
  457MOL0     H63033   5.722   0.875   1.826 -0.8603 -1.3663  0.1140
  457MOL0     H63034   5.771   0.833   1.526 -0.6889 -5.3322 -0.0254
  457MOL0     H63035   5.639   0.936   1.588  2.5915  1.7275 -1.8680
  457MOL0     H63036   5.567   0.698   1.691 -1.9731  1.5741 -1.7780
  457MOL0     H63037   5.718   0.640   1.604  0.0161  1.0492 -1.0546
  457MOL0     H63038   5.477   0.762   1.476 -0.1958 -0.7987  0.5826
  457MOL0     H63039   5.618   0.698   1.390  0.6647 -3.8343 -1.2078
  457MOL0     H63040   5.419   0.566   1.578  0.2902 -0.7310 -0.1329
  457MOL0     H63041   5.555   0.469   1.522  1.3594  0.3739  0.3743
  457MOL0     H63042   5.488   0.534   1.276 -0.3887 -0.2193 -0.2586
  457MOL0     H63043   5.350   0.602   1.353  1.2093  0.9433  1.0891
  457MOL0     H63044   5.300   0.383   1.460 -1.4895 -1.1994 -0.0983
  457MOL0     H63045   5.439   0.314   1.367 -0.5485 -0.7224 -1.6857
  457MOL0     H63046   6.108   1.144   1.707 -1.4129  2.2627 -2.5890
  457MOL0     H63047   6.245   1.328   1.734  0.6049  2.4500  1.1827
  457MOL0     H63048   6.214   1.773   1.589  0.9236 -0.0292 -1.2947
  457MOL0     H63049   6.363   1.943   1.539 -0.3082 -2.0528 -0.5933
  457MOL0     H63050   7.761   2.532   2.373 -0.9473 -1.2666  0.8632
  457MOL0     H63051   7.913   2.473   2.564 -1.1223 -1.4741 -2.7925
  457MOL0     H63052   7.846   2.653   3.061  0.0441 -2.7969 -1.5104
  457MOL0     H63053   7.968   2.640   3.272 -2.1634  1.4591 -0.8214
  457MOL0     H63054   8.330   2.771   3.429 -0.2382  1.0823  1.0825
  457MOL0     H63055   8.191   2.842   3.354 -1.8123 -1.2563 -0.4453
  457MOL0     H63056   8.185   2.615   3.561  4.0636 -0.3790 -2.7505
  457MOL0     H63057   8.034   2.707   3.499  0.0696  0.2984  1.0844
  457MOL0     H63058   8.129   2.925   3.595  1.2217  0.4092  1.3599
  457MOL0     H63059   8.048   2.809   3.687 -1.9298  0.5629 -1.0686
  457MOL0     H63060   8.358   2.856   3.670  0.9342 -0.8574 -0.1903
  457MOL0     H63061   8.290   2.702   3.734  3.8981  0.0662 -0.7313
  457MOL0     H63062   8.193   2.973   4.037  1.2422  0.4814  0.7146
  457MOL0     H63063   8.344   2.684   3.071  0.1610 -2.5352  1.0137
  457MOL0     H63064   8.355   2.660   2.820  0.3350  0.7347 -2.6791
  457MOL0     H63065   8.205   2.625   2.733 -0.4559  1.0237 -0.3830
  457MOL0     H63066   8.237   2.791   2.771 -2.7273 -0.1196  1.8673
  458MOL0     O63067   9.417  10.373   6.024 -0.5602 -0.3494 -0.6048
  458MOL0     C63068   9.293  10.375   6.037  0.0768  0.7716 -1.1122
  458MOL0     O63069   9.223  10.482   6.083 -0.1529 -0.3411 -1.6010
  458MOL0     C63070   9.293  10.566   6.168  0.5873 -0.4347  0.5653
  458MOL0     C63071   9.348  10.680   6.100 -0.5108 -0.0581  1.0074
  458MOL0     C63072   9.425  10.771   6.172  0.5889  0.2890  0.1763
  458MOL0     C63073   9.446  10.759   6.306 -0.5509  0.1676  0.4501
  458MOL0     O63074   9.515  10.858   6.366 -0.0602  0.6332 -0.4047
  458MOL0     C63075   9.627  10.797   6.434 -0.3761  0.7453 -0.2835
  458MOL0     C63076   9.754  10.862   6.386 -0.3704 -1.0346 -0.3507
  458MOL0     C63077   9.787  10.994   6.468 -0.5151 -0.4882  1.1294
  458MOL0     C63078   9.897  11.074   6.386 -0.4778 -0.7546 -0.6129
  458MOL0     C63079   9.965  11.180   6.475 -0.2818  0.7209 -1.0465
  458MOL0     C63080   9.984  11.318   6.399 -0.2614  1.4783 -0.1584
  458MOL0     C63081  10.095  11.308   6.294  0.1180  0.0959 -0.2326
  458MOL0     C63082  10.230  11.310   6.361  0.8155  0.1342  0.6191
  458MOL0     N63083  10.322  11.396   6.289 -0.0831  0.0251 -0.6784
  458MOL0     C63084  10.437  11.358   6.237 -0.0175  0.5521  0.6460
  458MOL0     C63085  10.496  11.462   6.197  0.2413 -0.3228  0.3382
  458MOL0     C63086  10.619  11.469   6.108  0.4504 -1.1762 -0.1683
  458MOL0     C63087  10.704  11.588   6.177  0.8617  0.5309 -0.3674
  458MOL0     C63088  10.851  11.599   6.127  0.9390 -0.6145 -0.2529
  458MOL0     C63089  10.939  11.470   6.147 -0.2843  0.3684 -0.2287
  458MOL0     O63090  10.940  11.424   6.282  0.1628  0.4111  0.7331
  458MOL0     C63091  11.033  11.479   6.368  0.3090 -0.2356 -0.3159
  458MOL0     C63092  10.994  11.552   6.478 -0.1974 -0.0070 -0.1591
  458MOL0     C63093  11.088  11.595   6.564  0.9429 -0.4793  0.5657
  458MOL0     C63094  11.030  11.675   6.672  0.5113  0.1413 -0.9669
  458MOL0     C63095  11.223  11.569   6.527  0.0733 -0.2307  0.1452
  458MOL0     C63096  11.336  11.621   6.613 -0.1645 -0.0952 -0.3987
  458MOL0     O63097  11.464  11.592   6.564  0.1890 -0.7721 -0.7175
  458MOL0     C63098  11.582  11.619   6.642 -0.2588  0.1438 -0.0910
  458MOL0     C63099  11.640  11.739   6.650 -0.0754  0.1908 -0.7140
  458MOL0     C63100  11.758  11.766   6.726 -0.0783  0.4772  0.3469
  458MOL0     C63101  11.820  11.659   6.789  0.7443 -0.7417 -0.2424
  458MOL0     O63102  11.937  11.661   6.862 -0.6018  0.3401 -0.3673
  458MOL0     C63103  11.979  11.793   6.897  0.1363  0.9187 -0.1769
  458MOL0     C63104  12.093  11.802   7.002 -1.7698 -0.0106 -0.9834
  458MOL0     C63105  12.230  11.780   6.929  0.1149  1.0688  0.3371
  458MOL0     C63106  12.362  11.747   7.003 -0.3087 -0.5780 -0.6433
  458MOL0     C63107  12.398  11.869   7.082  0.0357 -0.7187 -0.2292
  458MOL0     C63108  12.509  11.848   7.185  0.6934 -0.3393  0.3740
  458MOL0     C63109  12.640  11.816   7.117  0.0541  0.0567  0.3131
  458MOL0     C63110  12.692  11.916   7.012  0.8608  0.4712 -0.3474
  458MOL0    Cl63111  12.747  12.067   7.100  0.0929  0.1042  0.7653
  458MOL0     C63112  11.760  11.530   6.782 -0.1643 -0.4468  0.3181
  458MOL0     C63113  11.636  11.517   6.710 -0.1333  0.3858 -0.6950
  458MOL0     O63114  11.317  11.666   6.729 -0.1136 -0.4894 -0.0005
  458MOL0     C63115  11.263  11.497   6.413  0.1653 -0.5141 -0.9164
  458MOL0     C63116  11.163  11.455   6.334  0.1717  0.2325 -0.8848
  458MOL0     N63117  10.432  11.575   6.235 -0.2011 -0.0042  0.6874
  458MOL0     N63118  10.325  11.535   6.298  0.0927 -0.5756  0.3185
  458MOL0     C63119   9.380  10.650   6.374  0.0188  0.6935  0.0875
  458MOL0     C63120   9.311  10.544   6.305  0.1688  0.0032 -0.2201
  458MOL0     C63121   9.230  10.268   5.963 -0.5911  0.1910 -0.0142
  458MOL0     C63122   9.155  10.301   5.853 -0.4466  0.1210  0.0923
  458MOL0     C63123   9.100  10.205   5.781  0.7406  0.3166  1.1026
  458MOL0     C63124   9.137  10.072   5.789 -0.6275  0.6255  0.2523
  458MOL0     O63125   9.080   9.981   5.701  0.4848 -0.5517 -0.5708
  458MOL0     C63126   9.123   9.845   5.690 -0.0867  0.6271  0.2671
  458MOL0     C63127   9.245   9.815   5.620 -0.2414  1.2390  0.0064
  458MOL0     C63128   9.261   9.661   5.609 -0.5194  0.9016  0.3314
  458MOL0     C63129   9.414   9.639   5.561  0.3289  0.8614 -0.2396
  458MOL0     C63130   9.455   9.498   5.547 -0.2974  0.1522  0.0948
  458MOL0     C63131   9.506   9.394   5.524  0.8302 -0.5725  0.5483
  458MOL0     C63132   9.220  10.040   5.901 -0.9013  0.0271 -0.9858
  458MOL0     C63133   9.257  10.130   5.994 -0.2171 -0.7104  0.0224
  458MOL0     C63134   9.329  10.088   6.125  1.0324  0.5074  0.5986
  458MOL0     H63135   9.323  10.683   5.994 -2.0911  0.6784  1.3719
  458MOL0     H63136   9.451  10.868   6.131 -1.5660  0.9798  0.3039
  458MOL0     H63137   9.633  10.689   6.414 -0.4603  0.8673 -0.9646
  458MOL0     H63138   9.623  10.806   6.543  2.6811 -2.6218  0.2952
  458MOL0     H63139   9.840  10.797   6.404 -0.6427 -1.3954 -0.3459
  458MOL0     H63140   9.753  10.885   6.279  1.0533  0.6009 -0.0616
  458MOL0     H63141   9.699  11.059   6.464  0.3839  0.7105 -0.3600
  458MOL0     H63142   9.813  10.977   6.572  0.2636  3.3027  1.6860
  458MOL0     H63143   9.972  11.010   6.339  0.1175 -1.6594  1.4592
  458MOL0     H63144   9.841  11.123   6.306 -2.1544 -1.2833  0.1792
  458MOL0     H63145  10.065  11.140   6.500 -1.9445 -5.3004 -2.3544
  458MOL0     H63146   9.915  11.197   6.571 -1.9507  1.2063 -1.9653
  458MOL0     H63147   9.890  11.337   6.346  0.1246 -0.2322 -1.5893
  458MOL0     H63148   9.988  11.394   6.476  0.0626  0.0549  1.2847
  458MOL0     H63149  10.084  11.392   6.225  0.7205 -0.5945 -1.2124
  458MOL0     H63150  10.087  11.216   6.234  2.6143  0.2563 -0.9063
  458MOL0     H63151  10.226  11.333   6.468  1.5988  0.1476  0.6460
  458MOL0     H63152  10.263  11.205   6.361 -1.6324 -0.7155 -0.7453
  458MOL0     H63153  10.470  11.255   6.223  1.4539  1.2852 -1.8995
  458MOL0     H63154  10.609  11.480   6.000 -2.7865 -0.9237  0.0787
  458MOL0     H63155  10.658  11.367   6.120 -2.9231 -2.6650 -0.5738
  458MOL0     H63156  10.661  11.685   6.150  2.8837  0.7696 -3.1968
  458MOL0     H63157  10.708  11.578   6.286 -2.1377  1.5777 -0.0676
  458MOL0     H63158  10.864  11.631   6.023  1.0098 -3.7925 -1.3226
  458MOL0     H63159  10.901  11.674   6.189  2.7518 -3.5469  2.1740
  458MOL0     H63160  10.901  11.388   6.085 -1.8285  0.1467  0.9349
  458MOL0     H63161  11.034  11.491   6.098  0.5688 -0.4737  0.9971
  458MOL0     H63162  10.888  11.565   6.497 -0.1158 -2.6807  3.1464
  458MOL0     H63163  11.072  11.634   6.764  0.2964  1.4814 -0.2396
  458MOL0     H63164  10.921  11.670   6.681  0.5462 -2.4504 -1.3996
  458MOL0     H63165  11.051  11.783   6.672  0.3117  0.1798 -1.3747
  458MOL0     H63166  11.599  11.831   6.609 -0.4267  0.5359  0.3578
  458MOL0     H63167  11.781  11.871   6.740  0.3626  0.6780 -1.5568
  458MOL0     H63168  12.019  11.852   6.814 -0.6258 -0.2028 -1.3709
  458MOL0     H63169  11.890  11.827   6.951 -0.3524 -3.1420  1.9362
  458MOL0     H63170  12.081  11.900   7.049 -4.5962 -1.2854  1.2322
  458MOL0     H63171  12.092  11.722   7.075 -0.1100  0.1747 -0.7237
  458MOL0     H63172  12.242  11.870   6.867 -5.0615  2.1438  0.4282
  458MOL0     H63173  12.214  11.698   6.859  0.9092 -0.6594  2.0767
  458MOL0     H63174  12.438  11.718   6.930  4.5964  4.3126  1.7690
  458MOL0     H63175  12.340  11.657   7.061  0.8408 -2.4368 -2.9275
  458MOL0     H63176  12.419  11.950   7.012 -0.7451  0.2415  0.6108
  458MOL0     H63177  12.306  11.901   7.131  1.2018 -1.6264  2.7910
  458MOL0     H63178  12.487  11.766   7.254  1.0085 -2.3963 -1.8397
  458MOL0     H63179  12.523  11.942   7.239  2.0118 -0.5391  0.4097
  458MOL0     H63180  12.633  11.720   7.065 -0.8922  0.4438 -0.3064
  458MOL0     H63181  12.713  11.801   7.198 -0.8752 -1.6171  0.8982
  458MOL0     H63182  12.620  11.946   6.934  0.8434  0.5000 -0.3203
  458MOL0     H63183  12.770  11.864   6.955  0.0624 -1.1702  0.0004
  458MOL0     H63184  11.803  11.444   6.833  0.4721 -1.1191 -1.2889
  458MOL0     H63185  11.584  11.422   6.701  0.6873 -0.1292 -0.1805
  458MOL0     H63186  11.367  11.474   6.389  1.6166  4.1987 -0.2309
  458MOL0     H63187  11.191  11.397   6.247  0.5464 -1.0116  0.0362
  458MOL0     H63188   9.388  10.632   6.481 -1.2275  1.1375  0.2720
  458MOL0     H63189   9.256  10.465   6.356 -1.0891  1.6794  1.2020
  458MOL0     H63190   9.119  10.402   5.838 -0.4276  0.4123  1.8123
  458MOL0     H63191   9.034  10.221   5.696  1.1562 -0.9659  0.5094
  458MOL0     H63192   9.121   9.814   5.795  1.2308 -3.3759 -0.7217
  458MOL0     H63193   9.054   9.783   5.633  0.5942 -1.4035  1.5482
  458MOL0     H63194   9.329   9.864   5.670  0.0673  2.9924 -2.0956
  458MOL0     H63195   9.243   9.862   5.522 -0.0176  0.2357 -0.4961
  458MOL0     H63196   9.236   9.607   5.700 -0.6053 -3.7180 -2.1523
  458MOL0     H63197   9.204   9.627   5.522 -0.0556  3.3269 -1.0454
  458MOL0     H63198   9.474   9.696   5.631 -1.3578  1.3123  0.9069
  458MOL0     H63199   9.417   9.669   5.456  0.8293  2.4584  0.2037
  458MOL0     H63200   9.579   9.316   5.517  1.3710 -0.2690  2.1892
  458MOL0     H63201   9.248   9.937   5.916  1.8843  1.1171  2.7124
  458MOL0     H63202   9.327   9.979   6.136 -0.2504  0.2170 -1.8828
  458MOL0     H63203   9.430  10.129   6.138  0.4414  2.2556 -0.0304
  458MOL0     H63204   9.275  10.126   6.213  1.0020  2.0364 -0.0395
  459MOL0     O63205   8.269   6.807   6.539  0.3486  0.8107 -0.5958
  459MOL0     C63206   8.224   6.712   6.478  1.3712 -0.1512  0.6225
  459MOL0     O63207   8.187   6.588   6.534 -0.2661 -0.1661  0.2836
  459MOL0     C63208   8.216   6.574   6.669  0.1836 -0.5136 -0.5565
  459MOL0     C63209   8.136   6.626   6.776  0.2065 -0.7738  1.0017
  459MOL0     C63210   8.149   6.587   6.913 -0.1979  0.7448  0.9319
  459MOL0     C63211   8.251   6.487   6.941  0.7522 -0.3577 -0.1755
  459MOL0     O63212   8.253   6.445   7.074 -0.0652 -0.1216  0.4536
  459MOL0     C63213   8.156   6.345   7.108  0.1904  0.1813 -0.0696
  459MOL0     C63214   8.102   6.357   7.248 -0.8023  0.5490  0.3101
  459MOL0     C63215   7.998   6.247   7.267  0.1401  0.2350 -0.4090
  459MOL0     C63216   7.983   6.214   7.421  0.1297  0.1315 -0.2932
  459MOL0     C63217   7.921   6.073   7.448 -0.4367 -0.8274  0.1905
  459MOL0     C63218   7.796   6.047   7.373  0.1061  0.2039  0.9277
  459MOL0     C63219   7.723   5.920   7.420 -1.1343  1.2093  0.1259
  459MOL0     C63220   7.597   5.971   7.486  0.2515  0.9270  0.4175
  459MOL0     N63221   7.495   5.863   7.500  0.0624 -0.3094 -1.3195
  459MOL0     C63222   7.378   5.839   7.423  0.1159 -0.4295 -0.1349
  459MOL0     C63223   7.308   5.733   7.479 -0.5759  0.6055  0.9573
  459MOL0     C63224   7.187   5.653   7.421  0.6586 -0.4557  0.0857
  459MOL0     C63225   7.064   5.723   7.469  0.6381  0.3205  0.4005
  459MOL0     C63226   6.947   5.637   7.431  0.7110  0.6676  0.0045
  459MOL0     C63227   6.827   5.716   7.462 -0.3490  1.2237 -0.4902
  459MOL0     O63228   6.774   5.804   7.358  0.0958  0.6703 -0.2053
  459MOL0     C63229   6.696   5.747   7.255  0.8532 -0.5463 -0.3518
  459MOL0     C63230   6.652   5.843   7.161  0.9025  0.2129  0.1783
  459MOL0     C63231   6.555   5.808   7.055  0.9328  0.1129 -0.3833
  459MOL0     C63232   6.498   5.922   6.967 -0.2054 -0.8632  0.5331
  459MOL0     C63233   6.511   5.673   7.037 -0.3923 -0.1888 -0.1325
  459MOL0     C63234   6.404   5.636   6.943  0.0441  0.7593 -1.3214
  459MOL0     O63235   6.333   5.532   6.996 -0.3827  0.4475  0.4323
  459MOL0     C63236   6.218   5.495   6.935  0.8888  0.2129  0.4600
  459MOL0     C63237   6.103   5.559   6.973  1.0965 -0.2344  0.0825
  459MOL0     C63238   5.981   5.519   6.910 -0.4050 -0.8368 -0.3522
  459MOL0     C63239   5.980   5.419   6.810 -0.4715  0.0525  0.3123
  459MOL0     O63240   5.870   5.377   6.738  0.2519 -0.1840 -0.4238
  459MOL0     C63241   5.794   5.482   6.674 -0.7161  0.7901  0.5497
  459MOL0     C63242   5.676   5.428   6.584 -0.7343  0.4645  0.3035
  459MOL0     C63243   5.721   5.301   6.493  0.6736  1.3620 -0.2206
  459MOL0     C63244   5.851   5.328   6.407 -0.3663 -0.4713 -0.6215
  459MOL0     C63245   5.852   5.228   6.290  0.1089  0.6139 -0.2596
  459MOL0     C63246   5.982   5.234   6.226 -0.0096  0.1205  0.2956
  459MOL0     C63247   6.003   5.121   6.121 -0.0338  0.9064  0.2646
  459MOL0     C63248   6.093   5.008   6.161  0.3955 -0.1912  0.7250
  459MOL0    Cl63249   5.992   4.893   6.266  0.0246  0.3130 -0.1529
  459MOL0     C63250   6.104   5.354   6.783  0.8727  0.1703 -0.3882
  459MOL0     C63251   6.219   5.393   6.845 -0.2768  0.6214  1.0716
  459MOL0     O63252   6.378   5.696   6.843 -0.0497  0.1016 -0.2659
  459MOL0     C63253   6.568   5.585   7.131  0.4157  0.1514  0.2932
  459MOL0     C63254   6.662   5.610   7.242 -0.3350 -0.9861  0.6492
  459MOL0     N63255   7.376   5.704   7.595  0.2336 -0.1328  0.1608
  459MOL0     N63256   7.482   5.788   7.610  0.1992  0.0966 -0.3046
  459MOL0     C63257   8.323   6.438   6.838  0.1332  0.1723  0.1179
  459MOL0     C63258   8.304   6.470   6.701  0.0170  0.0222 -0.1944
  459MOL0     C63259   8.185   6.726   6.338 -0.1335 -0.5235 -0.6716
  459MOL0     C63260   8.209   6.614   6.259  0.2491  0.8835  0.3568
  459MOL0     C63261   8.162   6.619   6.128 -0.8849 -0.1201  0.0115
  459MOL0     C63262   8.079   6.723   6.081 -0.2386 -0.5015  0.0802
  459MOL0     O63263   8.022   6.732   5.952 -0.4665 -0.3364 -0.5547
  459MOL0     C63264   7.972   6.615   5.897  0.9051  0.7978 -1.4357
  459MOL0     C63265   7.896   6.651   5.769 -0.2397  0.3038 -0.1220
  459MOL0     C63266   7.773   6.564   5.737  0.1139 -1.0511 -0.1535
  459MOL0     C63267   7.811   6.423   5.690 -0.0393  0.2620  0.3175
  459MOL0     C63268   7.866   6.343   5.798  0.3782  0.6771  0.2474
  459MOL0     C63269   7.915   6.277   5.885 -0.1220  0.0306 -0.1008
  459MOL0     C63270   8.068   6.831   6.164  0.7357 -0.7073 -0.2351
  459MOL0     C63271   8.109   6.832   6.297 -0.8884  0.8021  0.1725
  459MOL0     C63272   8.064   6.953   6.385  0.4678 -0.0698  1.2523
  459MOL0     H63273   8.054   6.689   6.742  0.7451 -0.9138 -0.6221
  459MOL0     H63274   8.082   6.640   6.980  0.6297  4.1658 -0.7252
  459MOL0     H63275   8.175   6.240   7.084  0.3771 -0.0501  1.0066
  459MOL0     H63276   8.078   6.373   7.037  0.5065  0.4947 -0.2937
  459MOL0     H63277   8.183   6.353   7.322 -0.3800  2.0760 -0.0425
  459MOL0     H63278   8.043   6.449   7.256 -0.7855  0.5975 -0.1226
  459MOL0     H63279   7.899   6.274   7.229 -1.8036 -1.6502  2.8187
  459MOL0     H63280   8.019   6.156   7.212  1.5652 -0.5379  1.3216
  459MOL0     H63281   8.078   6.221   7.474 -0.4473 -0.9272  0.9429
  459MOL0     H63282   7.907   6.285   7.453 -0.0475 -0.1980  0.0204
  459MOL0     H63283   7.899   6.058   7.555 -0.2186  0.9240  0.5056
  459MOL0     H63284   7.977   5.986   7.412 -1.6221 -0.8811 -1.6419
  459MOL0     H63285   7.729   6.134   7.369  1.9927  1.8264  2.4972
  459MOL0     H63286   7.834   6.025   7.273  0.9983  6.7205 -0.5868
  459MOL0     H63287   7.774   5.860   7.497 -0.7175 -0.4230 -1.3636
  459MOL0     H63288   7.708   5.863   7.328 -1.7085 -0.0877  0.9903
  459MOL0     H63289   7.627   6.022   7.578  2.2741  1.4900 -0.5088
  459MOL0     H63290   7.542   6.038   7.419 -2.1813 -0.7704  0.5977
  459MOL0     H63291   7.343   5.885   7.331 -1.4354  0.3566  0.7974
  459MOL0     H63292   7.203   5.548   7.450 -1.6995 -1.0905 -0.7098
  459MOL0     H63293   7.192   5.648   7.312  0.0437 -1.8329  0.0915
  459MOL0     H63294   7.067   5.729   7.579  0.7256  0.8658  0.3711
  459MOL0     H63295   7.051   5.826   7.434 -0.4356 -0.2154 -0.8667
  459MOL0     H63296   6.956   5.620   7.323 -2.3625  2.6784 -0.7075
  459MOL0     H63297   6.951   5.541   7.484  2.4339  0.5829 -0.2298
  459MOL0     H63298   6.738   5.660   7.494 -2.2261  6.1208  4.5557
  459MOL0     H63299   6.856   5.773   7.550  0.3590  0.5342 -0.2613
  459MOL0     H63300   6.688   5.946   7.166  1.2312  0.0570  1.1862
  459MOL0     H63301   6.393   5.943   6.989  0.0714  1.1037  0.2298
  459MOL0     H63302   6.512   5.890   6.864 -0.0621 -1.4452  0.7300
  459MOL0     H63303   6.553   6.017   6.972 -1.0782 -0.3886  1.8917
  459MOL0     H63304   6.082   5.632   7.050 -2.0848 -1.1242  0.2158
  459MOL0     H63305   5.882   5.551   6.943 -0.6069  1.4710 -2.8971
  459MOL0     H63306   5.740   5.543   6.747 -3.3177 -2.4777  1.6251
  459MOL0     H63307   5.870   5.541   6.622  3.8950 -4.8571 -0.1596
  459MOL0     H63308   5.602   5.403   6.660  0.1120 -3.1003  0.1312
  459MOL0     H63309   5.639   5.517   6.533  3.3119  2.4000  0.3339
  459MOL0     H63310   5.631   5.285   6.433  1.5641  1.6453 -1.6667
  459MOL0     H63311   5.722   5.207   6.549  0.1970  0.4883 -1.6377
  459MOL0     H63312   5.928   5.309   6.481 -0.4107 -2.1030 -0.9500
  459MOL0     H63313   5.871   5.431   6.378 -2.6515  0.3233  0.3517
  459MOL0     H63314   5.841   5.129   6.335  2.0332  0.5151  0.0715
  459MOL0     H63315   5.770   5.259   6.224 -1.3660 -1.3403  0.5553
  459MOL0     H63316   6.054   5.220   6.308 -0.3177 -0.6982  0.4373
  459MOL0     H63317   5.993   5.332   6.180  1.6739 -0.8112 -1.4395
  459MOL0     H63318   6.042   5.181   6.039  0.9742  3.7581  2.6578
  459MOL0     H63319   5.910   5.069   6.094  1.4722 -1.3864 -0.7790
  459MOL0     H63320   6.185   5.043   6.208  0.8525 -2.1868  1.4129
  459MOL0     H63321   6.123   4.957   6.069  1.6715  1.2827  0.2775
  459MOL0     H63322   6.094   5.271   6.713 -1.3566 -0.7956  0.9639
  459MOL0     H63323   6.304   5.329   6.822 -3.1062 -2.6609 -1.4105
  459MOL0     H63324   6.550   5.478   7.130  3.4866 -0.4671  0.7612
  459MOL0     H63325   6.707   5.528   7.297  0.4676  0.3752  2.1040
  459MOL0     H63326   8.389   6.357   6.868 -2.1320 -1.4591  0.9608
  459MOL0     H63327   8.360   6.415   6.626  1.1636  0.4483  0.3175
  459MOL0     H63328   8.249   6.520   6.295 -6.4394 -3.6181 -1.9877
  459MOL0     H63329   8.191   6.533   6.068  0.3779  0.3667 -0.1156
  459MOL0     H63330   8.059   6.557   5.864  2.2900  3.0230 -1.9769
  459MOL0     H63331   7.910   6.567   5.973  2.3926  0.3420 -0.4556
  459MOL0     H63332   7.971   6.644   5.690  3.4834 -2.3301  3.2561
  459MOL0     H63333   7.856   6.753   5.766 -3.0997 -0.6523  1.5787
  459MOL0     H63334   7.712   6.555   5.827  1.1830 -0.4058  0.6752
  459MOL0     H63335   7.713   6.612   5.659 -1.8941  2.6022  3.2933
  459MOL0     H63336   7.890   6.434   5.616  1.6628 -2.4724  1.5330
  459MOL0     H63337   7.721   6.382   5.642  1.1880 -0.8251 -1.1435
  459MOL0     H63338   7.961   6.236   5.973 -1.2292 -2.1927 -0.4817
  459MOL0     H63339   7.997   6.907   6.131  2.6621  0.2228 -2.5890
  459MOL0     H63340   8.015   6.914   6.474  0.7177 -0.3740  1.2559
  459MOL0     H63341   8.152   7.017   6.395  0.6222  1.0847 -4.2909
  459MOL0     H63342   7.984   7.011   6.337  0.0986 -2.1395 -0.8282
  460MOL0     O63343   6.113   9.255   5.573 -0.5347 -0.1386 -0.4676
  460MOL0     C63344   6.105   9.230   5.455  1.3479 -1.0238  0.2019
  460MOL0     O63345   6.207   9.177   5.376  0.7837 -0.2985  0.2397
  460MOL0     C63346   6.303   9.113   5.441  0.7827 -0.4105  0.3431
  460MOL0     C63347   6.267   9.020   5.538  0.0086  0.4444  0.0182
  460MOL0     C63348   6.360   8.948   5.611 -0.0100 -0.2020  0.1590
  460MOL0     C63349   6.494   8.988   5.597  0.5817 -0.9696 -0.0063
  460MOL0     O63350   6.596   8.942   5.673  0.7900  0.2619  0.5730
  460MOL0     C63351   6.574   8.865   5.791  0.3285  0.0174  0.0816
  460MOL0     C63352   6.705   8.849   5.870 -0.7423  0.1080  0.4441
  460MOL0     C63353   6.696   8.775   5.993  0.3068  0.2299  0.5368
  460MOL0     C63354   6.605   8.842   6.096  0.0525  0.0475 -0.8208
  460MOL0     C63355   6.528   8.739   6.175 -0.5698 -0.6842 -0.4997
  460MOL0     C63356   6.612   8.658   6.269 -0.0352 -0.3952 -0.3144
  460MOL0     C63357   6.531   8.625   6.391  0.5895  0.7448 -0.2601
  460MOL0     C63358   6.599   8.534   6.497 -0.0202  0.0984 -0.2324
  460MOL0     N63359   6.531   8.412   6.512  0.1091 -0.4299  0.4050
  460MOL0     C63360   6.537   8.296   6.436  0.0561  0.4723 -0.8121
  460MOL0     C63361   6.439   8.209   6.475 -0.2466  0.3494  0.3617
  460MOL0     C63362   6.405   8.077   6.411  0.2816 -0.6617  0.5282
  460MOL0     C63363   6.534   7.984   6.411  0.3576  0.5522  0.0200
  460MOL0     C63364   6.487   7.833   6.395 -0.6845 -0.7148 -0.4773
  460MOL0     C63365   6.408   7.812   6.261 -0.9398  0.4832  0.5780
  460MOL0     O63366   6.473   7.875   6.153  0.2871  0.3374 -0.1704
  460MOL0     C63367   6.408   7.891   6.031 -0.2427  1.2867 -0.8146
  460MOL0     C63368   6.487   7.949   5.931  1.4882  0.7820  0.2353
  460MOL0     C63369   6.440   7.967   5.803  0.3312  0.0114 -0.0137
  460MOL0     C63370   6.527   8.045   5.719 -0.3180  0.4204  0.3322
  460MOL0     C63371   6.307   7.916   5.763  0.8003 -0.8103  0.1690
  460MOL0     C63372   6.241   7.921   5.625 -0.9132 -0.1929  0.6302
  460MOL0     O63373   6.104   7.916   5.620 -0.2431  0.4421 -0.3432
  460MOL0     C63374   6.027   7.999   5.545  0.0353  0.1963  0.1682
  460MOL0     C63375   5.898   7.966   5.522 -0.0293 -0.2156 -0.5155
  460MOL0     C63376   5.819   8.026   5.433 -0.1564  0.8650 -0.9340
  460MOL0     C63377   5.856   8.136   5.360 -0.3828  0.8120  0.1401
  460MOL0     O63378   5.773   8.190   5.266  0.1528  0.9201 -0.6441
  460MOL0     C63379   5.830   8.238   5.141 -0.0889 -0.1126  0.3471
  460MOL0     C63380   5.712   8.244   5.046  0.8606  0.6033 -0.5211
  460MOL0     C63381   5.743   8.273   4.905 -0.0675 -0.1209  0.9129
  460MOL0     C63382   5.619   8.291   4.825  0.1257  0.1785 -0.5290
  460MOL0     C63383   5.547   8.420   4.861 -0.9602 -0.4402  0.1815
  460MOL0     C63384   5.629   8.551   4.819  0.3012  0.4846  0.9099
  460MOL0     C63385   5.646   8.578   4.670 -0.4621  0.1545  0.2550
  460MOL0     C63386   5.715   8.718   4.653 -0.7909 -0.5171  0.2389
  460MOL0    Cl63387   5.746   8.750   4.481 -0.3076 -0.2641  0.0810
  460MOL0     C63388   5.975   8.182   5.382  0.1133  0.3954 -0.0777
  460MOL0     C63389   6.068   8.109   5.466  0.6779  0.4332 -0.0499
  460MOL0     O63390   6.318   7.949   5.526 -0.6008  0.8285 -0.5192
  460MOL0     C63391   6.239   7.864   5.870 -1.1061  0.3773 -0.2720
  460MOL0     C63392   6.287   7.842   5.997 -0.2567  0.5144 -0.1559
  460MOL0     N63393   6.367   8.274   6.573  0.1513 -0.4728 -0.4765
  460MOL0     N63394   6.429   8.389   6.599 -0.2320  0.1723  0.0389
  460MOL0     C63395   6.528   9.089   5.509 -0.4964 -0.1219  0.4915
  460MOL0     C63396   6.437   9.142   5.422  0.5815 -0.0003 -0.0385
  460MOL0     C63397   5.969   9.257   5.394 -0.3426 -0.1246  0.3262
  460MOL0     C63398   5.877   9.341   5.453 -0.1545 -1.3536  0.3405
  460MOL0     C63399   5.756   9.373   5.395 -0.0188 -0.4635 -0.5184
  460MOL0     C63400   5.724   9.313   5.269  0.2575 -0.5507  0.1178
  460MOL0     O63401   5.617   9.348   5.194  0.4530  0.0465 -0.2819
  460MOL0     C63402   5.501   9.416   5.255 -0.7732 -0.4198  0.1064
  460MOL0     C63403   5.494   9.577   5.258 -0.0691  0.7321  0.0673
  460MOL0     C63404   5.504   9.636   5.122 -0.8477 -0.8196  0.2290
  460MOL0     C63405   5.452   9.786   5.124  0.2789 -0.6885  0.4956
  460MOL0     C63406   5.497   9.849   5.002  0.1991  0.8938  0.0014
  460MOL0     C63407   5.515   9.901   4.893 -0.5462  1.0935 -0.4904
  460MOL0     C63408   5.811   9.222   5.213 -0.8932  0.8131 -0.3385
  460MOL0     C63409   5.929   9.194   5.274 -0.5257  0.4445  0.1539
  460MOL0     C63410   5.996   9.079   5.212  0.1183  0.4940 -0.7145
  460MOL0     H63411   6.161   8.999   5.554 -0.1621  0.0595 -1.4991
  460MOL0     H63412   6.328   8.876   5.686  2.0491  2.3157  3.7460
  460MOL0     H63413   6.562   8.759   5.764  3.0972  0.0126 -1.5718
  460MOL0     H63414   6.488   8.894   5.851  0.6277  0.4923  0.2858
  460MOL0     H63415   6.766   8.784   5.807 -2.7773  0.1590 -1.7512
  460MOL0     H63416   6.759   8.942   5.891 -0.8888  1.1627 -3.1728
  460MOL0     H63417   6.654   8.675   5.976  1.5553 -0.5441  1.7862
  460MOL0     H63418   6.799   8.760   6.026  0.3098 -3.1651 -0.6605
  460MOL0     H63419   6.655   8.917   6.158 -0.2652 -1.4995  1.4060
  460MOL0     H63420   6.526   8.899   6.046 -1.6090 -3.5538 -2.6295
  460MOL0     H63421   6.480   8.677   6.099 -1.4920 -0.9193  0.2386
  460MOL0     H63422   6.440   8.788   6.218 -1.2075  1.1074 -3.5991
  460MOL0     H63423   6.642   8.564   6.221  0.7740  0.1623 -0.9098
  460MOL0     H63424   6.705   8.701   6.306  1.3628 -3.4593  0.0519
  460MOL0     H63425   6.439   8.576   6.357 -0.5527  1.0889  2.1001
  460MOL0     H63426   6.502   8.722   6.432  0.5510  0.4464  0.4235
  460MOL0     H63427   6.703   8.508   6.478 -0.5384 -0.3644 -2.9637
  460MOL0     H63428   6.588   8.590   6.590 -3.4226 -1.7320  0.6347
  460MOL0     H63429   6.602   8.281   6.351  1.1755 -0.5649  0.2019
  460MOL0     H63430   6.365   8.102   6.312  0.2555  0.4334  0.7927
  460MOL0     H63431   6.323   8.028   6.464 -0.2292 -1.2531 -0.7792
  460MOL0     H63432   6.609   8.010   6.336 -1.8961 -0.7642 -2.8829
  460MOL0     H63433   6.576   8.008   6.509 -1.2606 -0.1657  0.9244
  460MOL0     H63434   6.573   7.767   6.382 -1.5873 -1.8788 -0.7218
  460MOL0     H63435   6.421   7.801   6.476 -1.2876 -0.8389 -1.0165
  460MOL0     H63436   6.397   7.705   6.243 -1.2137  0.6524 -0.2885
  460MOL0     H63437   6.308   7.856   6.270 -0.9281  0.7309 -0.3956
  460MOL0     H63438   6.585   7.988   5.956  1.0020  1.4803  1.1420
  460MOL0     H63439   6.495   8.079   5.620  0.9576 -0.4307 -0.4090
  460MOL0     H63440   6.607   7.975   5.691 -0.0600  1.1926 -0.9650
  460MOL0     H63441   6.565   8.125   5.783  2.9466 -0.8544  0.1985
  460MOL0     H63442   5.857   7.886   5.583  0.3273  1.4311  2.0695
  460MOL0     H63443   5.717   7.989   5.425 -0.4642  0.4042  3.1174
  460MOL0     H63444   5.864   8.342   5.141  1.3612 -0.4994 -2.1646
  460MOL0     H63445   5.907   8.169   5.103  0.7419  0.3472  1.1580
  460MOL0     H63446   5.666   8.145   5.052  0.0973  1.0422  1.4979
  460MOL0     H63447   5.648   8.318   5.094 -2.4693 -1.7289 -1.0615
  460MOL0     H63448   5.803   8.190   4.866  1.0784  0.7189  0.8248
  460MOL0     H63449   5.812   8.357   4.905  0.6312 -0.6061  3.2473
  460MOL0     H63450   5.551   8.208   4.846 -0.1441  0.4480 -0.3294
  460MOL0     H63451   5.657   8.289   4.723  3.3616 -1.0391  0.5819
  460MOL0     H63452   5.447   8.418   4.818 -0.7692  1.6992 -0.4595
  460MOL0     H63453   5.536   8.420   4.970  4.5550 -3.4609  1.1203
  460MOL0     H63454   5.721   8.551   4.877  0.0530  0.7832  1.3127
  460MOL0     H63455   5.571   8.638   4.852 -0.7924  0.8197 -1.5855
  460MOL0     H63456   5.545   8.568   4.631 -0.3712  1.1758 -0.2686
  460MOL0     H63457   5.713   8.502   4.627 -3.2490 -1.8612 -0.7782
  460MOL0     H63458   5.810   8.727   4.706 -0.1475  3.0488 -1.2179
  460MOL0     H63459   5.651   8.796   4.694  0.0101 -0.0415  0.5985
  460MOL0     H63460   6.011   8.267   5.326  0.8366 -2.0516 -3.5996
  460MOL0     H63461   6.166   8.149   5.489  0.6942  2.3112 -2.8664
  460MOL0     H63462   6.138   7.830   5.847 -1.8344  0.7324  2.0801
  460MOL0     H63463   6.215   7.784   6.054 -1.0537 -0.6144 -2.2055
  460MOL0     H63464   6.634   9.113   5.512 -1.0663  2.7611 -0.0287
  460MOL0     H63465   6.457   9.209   5.338 -0.9600  0.6115  0.0544
  460MOL0     H63466   5.897   9.383   5.551 -0.2064  0.5391 -0.4267
  460MOL0     H63467   5.685   9.438   5.446 -2.0486 -3.0225  0.1551
  460MOL0     H63468   5.407   9.383   5.209  0.1823  0.1545 -2.4265
  460MOL0     H63469   5.502   9.387   5.360 -0.3974 -1.9845 -0.2982
  460MOL0     H63470   5.570   9.607   5.331  0.9785 -3.3033  0.8753
  460MOL0     H63471   5.396   9.606   5.297 -1.2866  0.7192 -2.7606
  460MOL0     H63472   5.613   9.631   5.112 -0.1210  0.3971  4.9488
  460MOL0     H63473   5.453   9.573   5.049 -2.8169  0.3277  0.5311
  460MOL0     H63474   5.471   9.840   5.217 -0.9727 -2.7606  2.0580
  460MOL0     H63475   5.343   9.772   5.120  0.5236 -3.1597  0.6584
  460MOL0     H63476   5.517   9.934   4.791  0.2963  3.9195  0.3419
  460MOL0     H63477   5.780   9.164   5.126  0.9335 -1.3595  0.3848
  460MOL0     H63478   5.926   9.018   5.155 -1.5568 -0.0035  1.6977
  460MOL0     H63479   6.078   9.110   5.147  2.6464 -0.0910  1.9706
  460MOL0     H63480   6.037   9.012   5.288  0.5304  1.9714  0.4228
  461MOL0     O63481   7.979   0.473   7.642  0.2590  0.1927 -1.1929
  461MOL0     C63482   7.990   0.358   7.586 -0.1021 -0.4854 -0.4594
  461MOL0     O63483   8.105   0.289   7.570 -0.3530 -0.0129 -0.0034
  461MOL0     C63484   8.224   0.364   7.571  0.0678  0.4065 -0.0440
  461MOL0     C63485   8.295   0.375   7.694 -0.3262  0.1112  0.0577
  461MOL0     C63486   8.423   0.438   7.694 -0.4567  1.0303  0.5589
  461MOL0     C63487   8.463   0.500   7.574 -0.8844  0.6984  0.1251
  461MOL0     O63488   8.586   0.570   7.574  0.0102  0.7592  0.2068
  461MOL0     C63489   8.617   0.676   7.478 -0.3807  0.8121 -0.5198
  461MOL0     C63490   8.511   0.786   7.502 -0.5275 -0.3118 -0.2770
  461MOL0     C63491   8.554   0.915   7.433  0.1109 -0.3606  0.7017
  461MOL0     C63492   8.500   0.923   7.290 -0.3336  1.1027  0.3484
  461MOL0     C63493   8.518   1.051   7.226  0.6303  0.5411  1.3410
  461MOL0     C63494   8.450   1.046   7.080  0.2904  0.0091 -0.6075
  461MOL0     C63495   8.456   1.175   6.998  0.0969 -0.4976  0.3934
  461MOL0     C63496   8.375   1.163   6.864 -0.1448 -0.5755 -0.4432
  461MOL0     N63497   8.423   1.056   6.785 -0.6854 -0.1457  0.7017
  461MOL0     C63498   8.554   1.029   6.749  0.6049  1.5425 -0.8540
  461MOL0     C63499   8.558   0.919   6.677 -0.4872 -0.5955  0.5060
  461MOL0     C63500   8.666   0.852   6.596 -0.9605  1.1683 -0.1516
  461MOL0     C63501   8.688   0.937   6.463 -0.1799  0.5012 -0.1224
  461MOL0     C63502   8.782   0.860   6.370 -0.0593  0.1265 -0.4830
  461MOL0     C63503   8.769   0.921   6.231 -0.3366 -0.4180  1.2393
  461MOL0     O63504   8.786   1.062   6.232  0.7115 -0.0370  0.2475
  461MOL0     C63505   8.913   1.116   6.243  0.2654  0.7279 -0.5696
  461MOL0     C63506   8.912   1.255   6.228  0.8995  0.1033  0.2234
  461MOL0     C63507   9.034   1.324   6.242 -0.0186 -0.6566  0.1356
  461MOL0     C63508   9.038   1.473   6.215 -1.0832  0.0640 -0.2277
  461MOL0     C63509   9.156   1.263   6.252 -0.9900  1.3137 -0.4590
  461MOL0     C63510   9.283   1.331   6.267  0.0440  0.3965 -0.7926
  461MOL0     O63511   9.367   1.267   6.346  0.0960  0.1049  0.2832
  461MOL0     C63512   9.475   1.335   6.387  0.3492 -0.2475 -0.9295
  461MOL0     C63513   9.479   1.423   6.499  0.4861  0.3386 -0.1981
  461MOL0     C63514   9.591   1.475   6.550  0.3005 -0.3463  1.2222
  461MOL0     C63515   9.717   1.444   6.497  0.2639  0.1212  0.3946
  461MOL0     O63516   9.840   1.476   6.547  0.4315 -0.6639 -0.5479
  461MOL0     C63517   9.835   1.563   6.662 -0.2055 -0.2311 -0.7283
  461MOL0     C63518   9.979   1.600   6.689  0.0272  0.0177 -0.2867
  461MOL0     C63519   9.984   1.735   6.758 -0.9895  0.4711 -0.1508
  461MOL0     C63520  10.125   1.783   6.778 -0.4379  0.5303  0.1461
  461MOL0     C63521  10.207   1.813   6.647 -0.5281 -0.3507  0.1027
  461MOL0     C63522  10.332   1.891   6.688 -0.1021 -0.0539  0.6398
  461MOL0     C63523  10.300   2.036   6.734 -0.8290  0.4623 -0.4822
  461MOL0     C63524  10.215   2.113   6.631  0.8151  0.7884 -0.5323
  461MOL0    Cl63525  10.185   2.293   6.677  0.4859 -0.0634  0.7632
  461MOL0     C63526   9.720   1.357   6.384  1.1276  0.2360  0.3079
  461MOL0     C63527   9.603   1.303   6.327 -0.6206 -0.3004 -1.1415
  461MOL0     O63528   9.318   1.432   6.207 -0.7553 -0.6354  0.3150
  461MOL0     C63529   9.153   1.113   6.258 -0.4943  0.7700 -0.3299
  461MOL0     C63530   9.036   1.041   6.260  0.0512  0.2366  0.9863
  461MOL0     N63531   8.428   0.881   6.663  0.5970  0.2046  0.2483
  461MOL0     N63532   8.343   0.965   6.719  0.6527  0.3105  0.0365
  461MOL0     C63533   8.393   0.492   7.455 -0.3334 -0.1323  0.7226
  461MOL0     C63534   8.272   0.423   7.452  0.7180  1.0347 -0.1935
  461MOL0     C63535   7.857   0.294   7.547  0.1587 -1.1041 -0.3362
  461MOL0     C63536   7.852   0.158   7.535  0.5041  0.3481 -0.8378
  461MOL0     C63537   7.727   0.092   7.502  0.2527 -0.2547 -0.1462
  461MOL0     C63538   7.611   0.163   7.496  1.1073 -0.1999 -0.9676
  461MOL0     O63539   7.496   0.099   7.477 -0.0042  0.3037  0.2767
  461MOL0     C63540   7.395   0.171   7.404  0.0319 -0.3453 -0.4228
  461MOL0     C63541   7.326   0.089   7.300 -0.4818  0.3704  0.1585
  461MOL0     C63542   7.217   0.011   7.349  0.2398 -0.0965  0.5119
  461MOL0     C63543   7.158  -0.086   7.243  0.1460  0.1781 -0.3366
  461MOL0     C63544   7.090  -0.018   7.126 -0.3344 -0.2168 -0.1038
  461MOL0     C63545   7.035   0.031   7.028  0.8967  0.0460  0.0803
  461MOL0     C63546   7.621   0.302   7.527  0.0493 -0.2326 -0.2352
  461MOL0     C63547   7.739   0.369   7.541 -0.1659 -0.8659 -0.2593
  461MOL0     C63548   7.738   0.527   7.533  0.9309  0.2154  0.3877
  461MOL0     H63549   8.243   0.323   7.773 -0.6318 -2.0233 -1.4368
  461MOL0     H63550   8.500   0.439   7.771 -0.1490  2.6014  0.2512
  461MOL0     H63551   8.606   0.643   7.374 -1.2694  2.8255 -1.1157
  461MOL0     H63552   8.722   0.703   7.498 -0.3895  1.0744 -0.8197
  461MOL0     H63553   8.408   0.753   7.487 -1.4682  1.7141  1.2999
  461MOL0     H63554   8.507   0.816   7.607 -1.9138 -0.9074 -0.1376
  461MOL0     H63555   8.519   1.004   7.486 -0.0208  0.0116 -0.0083
  461MOL0     H63556   8.662   0.922   7.417  0.0694  2.2033  1.1913
  461MOL0     H63557   8.558   0.847   7.236  0.4099  1.1641  1.0305
  461MOL0     H63558   8.395   0.895   7.288 -1.1849  3.8341  1.4778
  461MOL0     H63559   8.623   1.075   7.208  0.4085 -0.4291 -1.8956
  461MOL0     H63560   8.476   1.133   7.285 -0.8446 -0.5961  1.9280
  461MOL0     H63561   8.491   0.967   7.017 -1.5719 -0.6680 -1.0194
  461MOL0     H63562   8.347   1.012   7.095  0.3848 -2.0318 -3.6574
  461MOL0     H63563   8.559   1.207   6.980 -0.8149  2.8836  0.5451
  461MOL0     H63564   8.410   1.250   7.064  1.0992 -0.2826  0.8656
  461MOL0     H63565   8.272   1.139   6.891  0.0866 -0.4871  0.5518
  461MOL0     H63566   8.380   1.258   6.811 -1.5272 -1.5441 -2.4339
  461MOL0     H63567   8.643   1.088   6.766  3.9785 -3.2870  0.5637
  461MOL0     H63568   8.631   0.752   6.567  0.3713  0.8260 -0.6373
  461MOL0     H63569   8.757   0.843   6.656 -1.0113 -1.3276 -0.3240
  461MOL0     H63570   8.589   0.944   6.417 -0.7508  1.0042  1.1470
  461MOL0     H63571   8.732   1.034   6.487  2.3532  0.0646 -2.5151
  461MOL0     H63572   8.884   0.880   6.402 -0.9516  2.6433  1.0448
  461MOL0     H63573   8.767   0.752   6.366  0.0775  0.1290 -1.0490
  461MOL0     H63574   8.835   0.877   6.155 -2.3969  0.2344 -1.0382
  461MOL0     H63575   8.672   0.889   6.193  0.4570 -1.4646 -0.0198
  461MOL0     H63576   8.821   1.310   6.212  0.7683 -0.5878 -1.6439
  461MOL0     H63577   8.945   1.527   6.197 -0.2675  1.7356  0.3828
  461MOL0     H63578   9.094   1.487   6.122 -1.5279  2.9790 -0.1543
  461MOL0     H63579   9.096   1.508   6.301 -0.2010 -1.2528 -0.2487
  461MOL0     H63580   9.391   1.453   6.556  1.2194  1.7882  0.2161
  461MOL0     H63581   9.599   1.547   6.631  4.8128  2.9079 -1.6203
  461MOL0     H63582   9.789   1.657   6.628  4.4585  2.0732 -1.4593
  461MOL0     H63583   9.781   1.529   6.751  1.5588 -1.3430 -0.0287
  461MOL0     H63584  10.029   1.526   6.752  1.6363  1.3899  0.1431
  461MOL0     H63585  10.029   1.590   6.592  0.9436  1.6347 -0.0247
  461MOL0     H63586   9.940   1.724   6.858 -4.0313 -1.7804 -1.5925
  461MOL0     H63587   9.927   1.811   6.704 -0.6477 -0.4346 -1.8357
  461MOL0     H63588  10.180   1.706   6.832 -1.2534 -0.3389 -0.2288
  461MOL0     H63589  10.126   1.875   6.838  0.0267  1.1581 -0.8001
  461MOL0     H63590  10.234   1.718   6.599 -2.2848  0.1533 -2.0455
  461MOL0     H63591  10.155   1.865   6.566  0.8320 -0.1874 -0.7015
  461MOL0     H63592  10.410   1.894   6.612  0.0336  0.0334  0.7828
  461MOL0     H63593  10.374   1.847   6.779  0.8281  1.3755  0.9385
  461MOL0     H63594  10.388   2.099   6.717  0.4442 -0.8043  1.1270
  461MOL0     H63595  10.262   2.046   6.836  1.8895  0.2794  0.6533
  461MOL0     H63596  10.112   2.078   6.624  1.2493 -1.2717  1.7837
  461MOL0     H63597  10.265   2.101   6.535  1.2244  0.6446 -0.3026
  461MOL0     H63598   9.816   1.336   6.339  0.8955  0.9351 -0.5399
  461MOL0     H63599   9.602   1.225   6.252 -4.1289 -4.0676  2.3231
  461MOL0     H63600   9.244   1.055   6.266 -1.3735 -0.4691  1.2098
  461MOL0     H63601   9.051   0.934   6.267  2.7288  0.6092  1.8975
  461MOL0     H63602   8.426   0.523   7.356 -0.3044 -2.0755  0.0677
  461MOL0     H63603   8.212   0.421   7.361 -1.6625  2.1081  1.2374
  461MOL0     H63604   7.930   0.082   7.537 -0.7436 -0.9947  1.5040
  461MOL0     H63605   7.718  -0.016   7.503 -0.9073 -0.1658 -0.1538
  461MOL0     H63606   7.322   0.214   7.473 -2.0289 -1.2921 -1.8903
  461MOL0     H63607   7.437   0.251   7.343 -1.1141  0.6681  0.0789
  461MOL0     H63608   7.400   0.024   7.250 -0.3004 -1.0711  2.1724
  461MOL0     H63609   7.286   0.157   7.224  2.4204 -0.1663 -2.0482
  461MOL0     H63610   7.247  -0.044   7.439 -1.0418  2.3605  2.6017
  461MOL0     H63611   7.132   0.076   7.373 -0.6698  0.6224 -3.8990
  461MOL0     H63612   7.092  -0.149   7.303 -1.0195  2.1671  0.6069
  461MOL0     H63613   7.233  -0.148   7.195 -0.1263  0.0021 -0.5373
  461MOL0     H63614   7.009   0.055   6.927  1.2870 -0.4438 -0.1368
  461MOL0     H63615   7.535   0.368   7.523  0.2195 -0.0266 -0.5127
  461MOL0     H63616   7.706   0.572   7.627  0.6092 -2.0309  1.4398
  461MOL0     H63617   7.834   0.568   7.500  0.4745  0.7076 -0.3704
  461MOL0     H63618   7.656   0.548   7.463 -0.6215  0.0774  2.0685
  462MOL0     O63619   7.795   0.556   9.778  0.1549  0.5055  0.3918
  462MOL0     C63620   7.813   0.644   9.864  0.3913  0.3613  0.3613
  462MOL0     O63621   7.923   0.724   9.865  0.5786  0.3075 -0.0717
  462MOL0     C63622   8.019   0.728   9.763 -1.2908  0.3014  0.1288
  462MOL0     C63623   7.993   0.723   9.624  0.0410  0.2638  0.3071
  462MOL0     C63624   8.093   0.742   9.526  0.7021 -0.3945  0.5895
  462MOL0     C63625   8.230   0.733   9.560  1.0487 -0.3963  0.2708
  462MOL0     O63626   8.321   0.724   9.455 -0.2975 -0.1431  0.0092
  462MOL0     C63627   8.421   0.623   9.476  0.6593 -0.4429 -0.0554
  462MOL0     C63628   8.368   0.481   9.491 -0.6632  0.2256 -0.2864
  462MOL0     C63629   8.483   0.384   9.516  0.5495  0.2609 -0.2162
  462MOL0     C63630   8.429   0.253   9.576 -1.3446 -0.2109  0.8923
  462MOL0     C63631   8.533   0.143   9.595 -1.0045 -0.4526  0.6518
  462MOL0     C63632   8.598   0.098   9.465  0.5916 -0.4252  1.0272
  462MOL0     C63633   8.704  -0.014   9.481 -0.1690 -0.0126  0.4344
  462MOL0     C63634   8.658  -0.128   9.565 -0.0840 -0.0830 -1.7156
  462MOL0     N63635   8.768  -0.212   9.601 -0.2794 -0.0099  0.7353
  462MOL0     C63636   8.801  -0.341   9.555  1.0610  0.1750  0.7619
  462MOL0     C63637   8.915  -0.369   9.616 -1.5814 -0.1694  0.6065
  462MOL0     C63638   8.975  -0.500   9.621 -0.1636 -0.6021 -0.4505
  462MOL0     C63639   8.994  -0.561   9.493  0.2328 -0.1346  1.0474
  462MOL0     C63640   9.103  -0.495   9.400  0.4381 -0.0027 -0.2981
  462MOL0     C63641   9.111  -0.569   9.265 -0.3610  0.2095 -0.1910
  462MOL0     O63642   9.162  -0.703   9.281  0.6315  0.0965 -0.4061
  462MOL0     C63643   9.218  -0.759   9.172 -0.6085  0.7093  0.6739
  462MOL0     C63644   9.159  -0.749   9.047  0.1195 -0.3148 -0.5809
  462MOL0     C63645   9.219  -0.805   8.936 -0.8418  0.9426  0.2725
  462MOL0     C63646   9.130  -0.819   8.808  0.1439 -0.1979  0.9622
  462MOL0     C63647   9.350  -0.865   8.946 -0.2088 -0.7528 -0.4593
  462MOL0     C63648   9.429  -0.919   8.830 -1.2138  0.6418  0.0882
  462MOL0     O63649   9.553  -0.960   8.859 -0.1823  0.4330 -0.0348
  462MOL0     C63650   9.627  -1.016   8.762 -0.0492  0.3579  0.9720
  462MOL0     C63651   9.761  -0.969   8.743 -0.3818  0.9280  0.2343
  462MOL0     C63652   9.849  -1.038   8.659  0.2632  0.5793  0.6253
  462MOL0     C63653   9.799  -1.137   8.570 -0.0333 -0.2967  0.1502
  462MOL0     O63654   9.877  -1.201   8.479  0.3838  1.1908 -0.3602
  462MOL0     C63655  10.006  -1.154   8.435  0.4676 -0.1469 -0.7520
  462MOL0     C63656  10.066  -1.256   8.340 -0.2351 -0.1118 -1.2928
  462MOL0     C63657   9.975  -1.314   8.233 -0.9927  0.7612  0.0851
  462MOL0     C63658  10.040  -1.417   8.144 -0.2028  0.2018  0.2436
  462MOL0     C63659   9.936  -1.502   8.076  1.0260 -0.2383  0.3068
  462MOL0     C63660  10.013  -1.610   7.998  0.3974 -0.6129  0.1330
  462MOL0     C63661   9.921  -1.672   7.885  0.0177  0.7317 -0.9564
  462MOL0     C63662   9.787  -1.730   7.938  0.8126  0.2551 -0.7165
  462MOL0    Cl63663   9.690  -1.776   7.800 -0.1337  0.0254  0.3334
  462MOL0     C63664   9.662  -1.176   8.577 -0.1463  0.9174 -0.3751
  462MOL0     C63665   9.587  -1.125   8.685  0.7971  0.3872 -0.1659
  462MOL0     O63666   9.378  -0.913   8.721  0.0912  0.5562  0.2196
  462MOL0     C63667   9.413  -0.847   9.069 -0.1196 -0.3376 -0.3934
  462MOL0     C63668   9.346  -0.795   9.182  0.7481  0.5731  0.2069
  462MOL0     N63669   8.950  -0.268   9.701  0.4376  0.2890  0.3646
  462MOL0     N63670   8.865  -0.172   9.695  0.7010  0.3477 -0.1096
  462MOL0     C63671   8.262   0.750   9.693 -0.2044 -1.0455 -0.5095
  462MOL0     C63672   8.165   0.738   9.792  0.4138 -0.2597  0.1879
  462MOL0     C63673   7.709   0.670   9.957 -1.0966  0.1096 -0.4069
  462MOL0     C63674   7.692   0.799  10.014  1.0409 -1.1168  0.0931
  462MOL0     C63675   7.584   0.832  10.103  0.2568 -0.2016 -0.2171
  462MOL0     C63676   7.514   0.738  10.166  0.5602  0.7562 -0.1239
  462MOL0     O63677   7.412   0.746  10.255 -1.4560  0.1256  0.4617
  462MOL0     C63678   7.423   0.861  10.329  0.2511 -0.6064 -0.3158
  462MOL0     C63679   7.324   0.961  10.269  0.4056  0.0566  0.3510
  462MOL0     C63680   7.311   1.073  10.375 -0.5563 -1.2037  0.5814
  462MOL0     C63681   7.274   1.042  10.520  0.4335  0.2542 -0.1078
  462MOL0     C63682   7.145   0.971  10.515 -0.0033 -0.9516 -0.3444
  462MOL0     C63683   7.042   0.906  10.525 -0.2391  0.4840  1.3610
  462MOL0     C63684   7.545   0.603  10.135  0.3361 -0.0713 -0.4880
  462MOL0     C63685   7.627   0.573  10.021  0.5053  0.1618  0.8256
  462MOL0     C63686   7.642   0.428   9.998  0.1156  0.6203 -0.2919
  462MOL0     H63687   7.888   0.707   9.604 -0.1523  1.2544  0.4599
  462MOL0     H63688   8.078   0.742   9.419  0.3390 -4.0759  0.5172
  462MOL0     H63689   8.474   0.638   9.571  1.4632 -0.9273 -0.4142
  462MOL0     H63690   8.485   0.616   9.388  0.9002  0.1797  0.0701
  462MOL0     H63691   8.307   0.468   9.581 -0.5195 -2.0298 -0.4611
  462MOL0     H63692   8.312   0.460   9.400  0.2787 -1.0580 -0.6005
  462MOL0     H63693   8.553   0.362   9.434  0.9029 -2.1050  0.6339
  462MOL0     H63694   8.541   0.434   9.594  0.4894  1.0858 -0.6842
  462MOL0     H63695   8.387   0.270   9.675 -2.1275  0.5769  0.4408
  462MOL0     H63696   8.344   0.223   9.515 -1.0867  1.7000 -0.5016
  462MOL0     H63697   8.482   0.055   9.636 -3.6062  1.3276  1.5051
  462MOL0     H63698   8.610   0.184   9.661  2.6949 -0.4038 -3.2186
  462MOL0     H63699   8.513   0.069   9.403 -0.6729  5.1242 -0.4442
  462MOL0     H63700   8.650   0.178   9.411 -1.0526  0.1703  0.2473
  462MOL0     H63701   8.785   0.041   9.530 -1.4779  0.9143  1.6427
  462MOL0     H63702   8.740  -0.054   9.386 -0.0509  0.8328  0.1170
  462MOL0     H63703   8.630  -0.084   9.661  1.6987  0.0523 -1.2319
  462MOL0     H63704   8.576  -0.183   9.517 -0.8913 -1.1094  0.7159
  462MOL0     H63705   8.750  -0.399   9.479 -1.6752  2.5798  0.5688
  462MOL0     H63706   8.900  -0.557   9.677  0.4567  0.5375  1.6689
  462MOL0     H63707   9.068  -0.514   9.677  0.1473 -2.2048 -1.3132
  462MOL0     H63708   9.026  -0.662   9.519 -0.8049 -0.5310  0.8065
  462MOL0     H63709   8.895  -0.570   9.448  0.4668 -0.9444  0.6765
  462MOL0     H63710   9.068  -0.395   9.374  1.4729 -0.2210 -2.7453
  462MOL0     H63711   9.194  -0.487   9.459 -0.8436  2.5909  1.5237
  462MOL0     H63712   9.009  -0.577   9.225 -0.7193  0.1902  0.7023
  462MOL0     H63713   9.174  -0.513   9.195 -0.4142 -1.2669 -1.4722
  462MOL0     H63714   9.057  -0.711   9.041 -0.8176 -2.7898 -2.3127
  462MOL0     H63715   9.181  -0.768   8.726  1.3270 -0.8366  1.2823
  462MOL0     H63716   9.026  -0.786   8.820 -0.0315 -1.0856  1.9406
  462MOL0     H63717   9.136  -0.925   8.783  0.3483 -0.6122  2.6867
  462MOL0     H63718   9.783  -0.874   8.790 -2.9613  2.2042 -0.9064
  462MOL0     H63719   9.953  -1.008   8.656  0.7422 -0.3535  3.7946
  462MOL0     H63720   9.995  -1.054   8.394  0.6368  1.2989  2.4299
  462MOL0     H63721  10.067  -1.142   8.525 -2.0311 -1.0763  1.1893
  462MOL0     H63722  10.145  -1.211   8.280  0.3086  0.2925 -0.2904
  462MOL0     H63723  10.100  -1.338   8.404  0.1915  2.8822  2.6392
  462MOL0     H63724   9.935  -1.229   8.176  0.5084  2.6158  1.6374
  462MOL0     H63725   9.900  -1.370   8.290 -0.4665  1.2424  1.2851
  462MOL0     H63726  10.114  -1.481   8.192  0.2383  0.0032 -0.6722
  462MOL0     H63727  10.093  -1.357   8.069  1.8457  0.7326  2.0197
  462MOL0     H63728   9.869  -1.545   8.150  0.6606  1.9270  1.3174
  462MOL0     H63729   9.867  -1.445   8.013  2.2321  0.7872 -0.1471
  462MOL0     H63730  10.040  -1.696   8.060 -1.8878 -1.4229  0.1111
  462MOL0     H63731  10.094  -1.561   7.943 -0.6918  1.7227  0.5170
  462MOL0     H63732   9.984  -1.741   7.828  3.8893  0.2559  3.2609
  462MOL0     H63733   9.892  -1.593   7.816 -1.7702 -0.5947 -1.8214
  462MOL0     H63734   9.736  -1.659   8.004 -1.4418 -0.6145 -1.4286
  462MOL0     H63735   9.795  -1.819   8.000 -1.0209 -0.5148 -1.5410
  462MOL0     H63736   9.618  -1.262   8.527 -0.7260  0.1627  1.3539
  462MOL0     H63737   9.491  -1.166   8.714  0.9798 -0.1586 -0.3219
  462MOL0     H63738   9.517  -0.877   9.074 -0.1369 -0.2704  0.3375
  462MOL0     H63739   9.402  -0.806   9.274 -2.1342  0.1324  2.0310
  462MOL0     H63740   8.367   0.754   9.722 -0.3596 -1.9382  0.2224
  462MOL0     H63741   8.197   0.749   9.895 -1.7729  0.2849  0.8597
  462MOL0     H63742   7.753   0.885   9.989  6.2312 -4.3767 -0.0667
  462MOL0     H63743   7.560   0.935  10.125 -1.5445  0.4985 -4.5957
  462MOL0     H63744   7.392   0.830  10.429  0.6268 -0.0032 -0.0065
  462MOL0     H63745   7.524   0.901  10.341 -0.6903  2.0104 -0.3913
  462MOL0     H63746   7.229   0.916  10.237 -0.4367  0.5876  2.0189
  462MOL0     H63747   7.372   1.002  10.180 -1.4918  1.5418 -0.0441
  462MOL0     H63748   7.408   1.122  10.382  0.4067 -3.1822  2.0171
  462MOL0     H63749   7.227   1.132  10.337 -0.3295 -2.5594 -2.2452
  462MOL0     H63750   7.266   1.141  10.566 -0.9375  1.4049 -2.6078
  462MOL0     H63751   7.341   0.979  10.579 -1.8783 -0.6658  1.6867
  462MOL0     H63752   6.965   0.832  10.532  1.0144 -1.7096 -3.7842
  462MOL0     H63753   7.491   0.521  10.182  1.2956  0.2760  1.3114
  462MOL0     H63754   7.563   0.392   9.931 -0.8727  1.5595  0.3472
  462MOL0     H63755   7.735   0.388   9.954 -0.6699  0.1974 -1.6451
  462MOL0     H63756   7.629   0.378  10.094  0.1252  0.4904 -0.3565
  463MOL0     O63757   8.136   8.134   9.979 -0.6880  0.3110 -0.2017
  463MOL0     C63758   8.044   8.204   9.954  0.9050 -0.0395  0.5240
  463MOL0     O63759   8.030   8.339   9.990 -0.0887 -0.0928  0.4803
  463MOL0     C63760   8.142   8.394  10.047 -0.5155  0.3434 -0.7006
  463MOL0     C63761   8.240   8.451   9.961 -0.3442 -0.1949  0.5075
  463MOL0     C63762   8.356   8.507  10.010  0.2127 -0.3327 -0.5895
  463MOL0     C63763   8.370   8.507  10.153  0.5453 -0.2445 -0.2017
  463MOL0     O63764   8.473   8.571  10.225 -0.5655  0.0572 -0.6313
  463MOL0     C63765   8.538   8.671  10.146  0.0731 -0.3177  0.6755
  463MOL0     C63766   8.678   8.638  10.093  0.5015  1.0950 -0.7655
  463MOL0     C63767   8.751   8.744  10.004 -0.0950  0.3335 -0.9869
  463MOL0     C63768   8.856   8.683   9.918  0.1002  0.0706  0.0345
  463MOL0     C63769   8.908   8.781   9.821  0.8259  0.0900 -0.1707
  463MOL0     C63770   8.992   8.892   9.875  0.0183 -0.1817  1.0138
  463MOL0     C63771   9.026   8.987   9.763  0.1356 -0.3557  1.0049
  463MOL0     C63772   9.130   9.097   9.796 -0.0133 -0.0839 -0.3991
  463MOL0     N63773   9.079   9.179   9.906 -0.1920  0.1418 -0.5107
  463MOL0     C63774   9.131   9.168  10.030 -0.1624 -0.6689 -0.2707
  463MOL0     C63775   9.090   9.275  10.108 -0.3052  0.4834 -0.2303
  463MOL0     C63776   9.096   9.284  10.254  0.1073 -0.0459  0.6215
  463MOL0     C63777   9.135   9.427  10.298 -0.1294  0.6973 -0.1293
  463MOL0     C63778   9.136   9.430  10.450 -0.4886 -1.0064 -0.0038
  463MOL0     C63779   9.218   9.328  10.531  0.4381  0.8441  0.2504
  463MOL0     O63780   9.124   9.221  10.575  0.4897 -0.2690  0.4967
  463MOL0     C63781   9.163   9.119  10.667 -1.7847 -0.4176 -0.4915
  463MOL0     C63782   9.066   9.025  10.702 -0.2526 -0.7898  0.3398
  463MOL0     C63783   9.076   8.919  10.801 -0.4074  0.1027 -0.5956
  463MOL0     C63784   8.954   8.843  10.834 -0.3320  0.6847  0.5810
  463MOL0     C63785   9.204   8.909  10.866  0.0429 -0.4574 -0.9141
  463MOL0     C63786   9.242   8.802  10.955 -0.8954  0.9059  0.7807
  463MOL0     O63787   9.182   8.791  11.072  0.5193  0.2249  0.2148
  463MOL0     C63788   9.214   8.674  11.145 -0.2874  0.3854 -0.4349
  463MOL0     C63789   9.230   8.543  11.089 -0.7280  0.5117  0.0595
  463MOL0     C63790   9.281   8.444  11.185  0.3281  0.5567  0.2891
  463MOL0     C63791   9.329   8.468  11.312 -0.1873 -0.5530 -0.7911
  463MOL0     O63792   9.360   8.367  11.393 -0.2330 -0.4648 -0.0812
  463MOL0     C63793   9.474   8.391  11.481  0.9395 -0.4329  0.7892
  463MOL0     C63794   9.547   8.259  11.508  0.2506 -0.3382 -0.3657
  463MOL0     C63795   9.658   8.281  11.623  0.0637  0.2169 -0.4837
  463MOL0     C63796   9.605   8.288  11.765  0.1227  0.0837 -0.2061
  463MOL0     C63797   9.698   8.349  11.867 -0.1217 -0.6344 -0.4028
  463MOL0     C63798   9.814   8.261  11.912  0.2393 -0.2730 -0.3016
  463MOL0     C63799   9.790   8.134  11.983  0.2538  0.1560 -0.2248
  463MOL0     C63800   9.916   8.091  12.059  0.0432  0.5105  0.2011
  463MOL0    Cl63801   9.994   7.980  11.935  0.2250 -0.1364  0.3088
  463MOL0     C63802   9.305   8.600  11.363 -0.0771 -0.0015  0.4623
  463MOL0     C63803   9.249   8.692  11.281  0.5313  0.8223 -1.0724
  463MOL0     O63804   9.340   8.737  10.910 -0.2344 -0.1601 -0.4200
  463MOL0     C63805   9.304   9.003  10.828 -0.4502  0.8341 -0.4850
  463MOL0     C63806   9.289   9.104  10.730  0.5881 -0.1221 -0.0761
  463MOL0     N63807   9.026   9.359  10.009 -0.2544  0.5657  0.4727
  463MOL0     N63808   9.028   9.303   9.900  0.4899  0.3770 -0.4883
  463MOL0     C63809   8.262   8.464  10.242  0.7736  0.2682  0.2853
  463MOL0     C63810   8.154   8.408  10.183 -0.0208 -0.0891  0.8360
  463MOL0     C63811   7.928   8.149   9.869 -0.5835 -0.5057 -0.3622
  463MOL0     C63812   7.904   8.013   9.881  0.6260  0.2778 -0.4508
  463MOL0     C63813   7.795   7.950   9.824 -1.3631  0.5130 -1.4493
  463MOL0     C63814   7.697   8.021   9.760 -1.3141 -0.7630  0.0700
  463MOL0     O63815   7.580   7.978   9.706  0.0029  0.1881 -0.3408
  463MOL0     C63816   7.501   7.875   9.769  0.4153 -0.1625  0.0978
  463MOL0     C63817   7.478   7.767   9.669 -0.3808 -0.4499  0.0008
  463MOL0     C63818   7.401   7.654   9.738 -0.2658 -0.1722 -0.3300
  463MOL0     C63819   7.452   7.517   9.700  0.8016 -0.1523  0.9918
  463MOL0     C63820   7.583   7.495   9.751 -0.7508 -0.1125 -1.0131
  463MOL0     C63821   7.695   7.490   9.796  0.4243 -0.0976  0.0472
  463MOL0     C63822   7.721   8.162   9.747  0.8289 -0.3699 -0.8667
  463MOL0     C63823   7.834   8.228   9.802  0.1379 -0.6219  0.3314
  463MOL0     C63824   7.867   8.373   9.765  0.0947 -0.5103 -0.3178
  463MOL0     H63825   8.210   8.439   9.858 -1.6780 -1.0762  0.9748
  463MOL0     H63826   8.418   8.554   9.934  1.7504 -1.7530 -0.2681
  463MOL0     H63827   8.552   8.761  10.206  2.9216  2.1641 -3.1620
  463MOL0     H63828   8.477   8.709  10.063 -0.3255  2.1831  2.0072
  463MOL0     H63829   8.740   8.609  10.177 -1.3749  0.4490  0.4626
  463MOL0     H63830   8.662   8.556  10.022  4.4671  0.0626 -0.7016
  463MOL0     H63831   8.673   8.792   9.944  0.0148  2.7852  0.6827
  463MOL0     H63832   8.798   8.828  10.056  0.1548  0.1723 -0.9521
  463MOL0     H63833   8.928   8.643   9.991 -0.9778  1.2476  1.8173
  463MOL0     H63834   8.810   8.605   9.856 -1.1525  1.2873 -0.6034
  463MOL0     H63835   8.820   8.812   9.764  0.8590  1.3108  0.4185
  463MOL0     H63836   8.963   8.721   9.747  0.0964 -1.2778  0.3562
  463MOL0     H63837   8.946   8.946   9.958  2.7340  1.0371  1.8282
  463MOL0     H63838   9.074   8.837   9.921  0.0786  1.6245  3.2751
  463MOL0     H63839   8.939   9.051   9.748  0.4523 -0.2797 -0.6298
  463MOL0     H63840   9.054   8.918   9.683  0.8597  0.7313  0.3003
  463MOL0     H63841   9.227   9.053   9.823 -1.0706 -2.0363  0.4188
  463MOL0     H63842   9.153   9.163   9.712  1.1714  0.0573  0.0170
  463MOL0     H63843   9.174   9.086  10.088  0.9813  0.6769  0.8583
  463MOL0     H63844   9.175   9.213  10.278 -0.2666 -0.9845 -0.8102
  463MOL0     H63845   9.001   9.256  10.299  0.6053 -1.1795  1.0056
  463MOL0     H63846   9.239   9.442  10.270  0.5973  1.0756  2.4734
  463MOL0     H63847   9.076   9.513  10.264 -0.6979 -0.5296 -2.4358
  463MOL0     H63848   9.177   9.528  10.475  3.0885 -1.5412 -2.8987
  463MOL0     H63849   9.031   9.422  10.479 -0.3620  0.3300  0.9023
  463MOL0     H63850   9.291   9.274  10.470 -1.8719 -1.7109 -0.4353
  463MOL0     H63851   9.254   9.383  10.619  1.8278  3.7973 -1.9689
  463MOL0     H63852   8.972   9.054  10.657 -0.0051 -0.4338  0.0452
  463MOL0     H63853   8.886   8.851  10.749  0.1572 -3.3571 -0.4126
  463MOL0     H63854   8.908   8.886  10.923 -2.9253  0.5027 -0.5837
  463MOL0     H63855   8.978   8.738  10.852 -1.3244  0.4907  0.8620
  463MOL0     H63856   9.216   8.515  10.986  0.2341  0.5362 -0.0870
  463MOL0     H63857   9.256   8.350  11.137  0.7895 -0.1841  1.4637
  463MOL0     H63858   9.542   8.462  11.434 -2.1594  1.5104 -1.0789
  463MOL0     H63859   9.446   8.443  11.573  0.3357 -2.1246  1.6121
  463MOL0     H63860   9.477   8.193  11.560  0.6963 -0.1886  0.4476
  463MOL0     H63861   9.584   8.212  11.416 -0.6980 -0.4335 -0.7104
  463MOL0     H63862   9.733   8.357  11.600  0.8280 -0.7427 -1.2015
  463MOL0     H63863   9.721   8.192  11.617  3.8920  2.7207 -0.8137
  463MOL0     H63864   9.571   8.194  11.809 -0.4568  1.1483  1.7299
  463MOL0     H63865   9.522   8.359  11.759  0.2168  0.1154 -1.5087
  463MOL0     H63866   9.750   8.435  11.824  1.9214 -0.9234  1.3012
  463MOL0     H63867   9.638   8.384  11.951 -0.2770 -1.2764 -0.2413
  463MOL0     H63868   9.883   8.323  11.971 -1.0907 -0.6759  1.7968
  463MOL0     H63869   9.871   8.240  11.821 -0.3978 -0.2180 -0.7182
  463MOL0     H63870   9.756   8.070  11.902  4.9747 -1.6524 -1.0942
  463MOL0     H63871   9.707   8.145  12.053  0.5839  0.3075  0.1513
  463MOL0     H63872   9.891   8.030  12.147  2.0284  0.9161  1.0909
  463MOL0     H63873   9.990   8.167  12.084  1.1573 -0.8532  1.2426
  463MOL0     H63874   9.331   8.631  11.464  1.3286 -1.0009  0.4398
  463MOL0     H63875   9.226   8.790  11.323 -1.4645  0.2947 -0.7948
  463MOL0     H63876   9.396   8.999  10.885 -1.7556  2.0238  1.8503
  463MOL0     H63877   9.374   9.166  10.702 -1.6324  1.7798 -3.2407
  463MOL0     H63878   8.277   8.461  10.350  0.3414 -1.2676  0.3251
  463MOL0     H63879   8.066   8.377  10.238 -1.8052  3.7576  0.4649
  463MOL0     H63880   7.961   7.958   9.955 -2.1520  0.6517  2.1761
  463MOL0     H63881   7.776   7.844   9.841 -1.0480  0.4226 -1.6543
  463MOL0     H63882   7.550   7.833   9.858  1.9238  0.0786 -0.5784
  463MOL0     H63883   7.404   7.914   9.800 -1.3428 -1.9017 -2.7353
  463MOL0     H63884   7.571   7.730   9.626  0.0612  0.0262  0.5401
  463MOL0     H63885   7.423   7.797   9.579  1.3500 -2.2844 -1.7719
  463MOL0     H63886   7.403   7.666   9.847 -0.4010 -1.1211 -0.2158
  463MOL0     H63887   7.297   7.667   9.708 -1.0373 -2.5756  1.0075
  463MOL0     H63888   7.463   7.518   9.591 -0.9423  1.0723  0.7835
  463MOL0     H63889   7.381   7.436   9.720 -1.9317  1.7151 -0.5848
  463MOL0     H63890   7.789   7.504   9.844  1.3484 -2.3477 -0.9869
  463MOL0     H63891   7.638   8.212   9.698 -0.4714 -2.6506 -1.1723
  463MOL0     H63892   7.967   8.396   9.728 -0.4058  0.5606 -1.0512
  463MOL0     H63893   7.804   8.414   9.686  0.8346 -0.1435 -0.7269
  463MOL0     H63894   7.848   8.433   9.855 -0.8057  0.0489 -0.8579
  464MOL0     O63895  10.074   3.952   5.090  0.6859 -1.8284  0.5340
  464MOL0     C63896  10.066   3.923   5.214  0.2300  0.6270  0.8847
  464MOL0     O63897  10.009   3.816   5.269 -0.0280  0.1201  0.3018
  464MOL0     C63898   9.993   3.707   5.182  0.3452 -0.0001 -0.3141
  464MOL0     C63899  10.103   3.644   5.126  0.2383  1.0009 -0.4059
  464MOL0     C63900  10.087   3.549   5.018 -0.5285  0.1832 -0.5756
  464MOL0     C63901   9.964   3.514   4.984  0.1978  0.6785  0.7794
  464MOL0     O63902   9.953   3.423   4.879 -1.1255  0.7994 -0.7442
  464MOL0     C63903   9.831   3.403   4.810  0.1686 -0.2632  0.3694
  464MOL0     C63904   9.873   3.318   4.682  0.9603 -0.5994 -0.4719
  464MOL0     C63905   9.743   3.272   4.617  0.1772  0.0752 -0.7179
  464MOL0     C63906   9.690   3.157   4.698  0.7042  0.7315 -0.4218
  464MOL0     C63907   9.579   3.082   4.623 -0.1330 -0.0798  1.2162
  464MOL0     C63908   9.644   2.993   4.509  0.7094  0.3432 -0.0690
  464MOL0     C63909   9.533   2.882   4.472  0.8616  0.2166  0.0855
  464MOL0     C63910   9.578   2.800   4.339 -0.3445  0.1377 -1.4338
  464MOL0     N63911   9.624   2.664   4.363 -0.2844 -0.6273 -0.2835
  464MOL0     C63912   9.609   2.591   4.478  0.6469 -0.4279 -0.1349
  464MOL0     C63913   9.705   2.497   4.469  0.4095  0.5500 -0.2377
  464MOL0     C63914   9.715   2.382   4.565  0.0791  0.0981 -0.2973
  464MOL0     C63915   9.710   2.244   4.497  0.5367  0.3727  0.7224
  464MOL0     C63916   9.711   2.133   4.591 -1.1696 -0.6788 -0.1511
  464MOL0     C63917   9.660   2.002   4.529  0.3644  0.2102 -0.1112
  464MOL0     O63918   9.520   2.001   4.492  0.7054 -0.3807 -0.3788
  464MOL0     C63919   9.482   1.891   4.421 -0.0831  0.3687 -0.0797
  464MOL0     C63920   9.525   1.766   4.444 -0.3854  0.1420  0.2056
  464MOL0     C63921   9.495   1.659   4.356 -0.6378  0.0091 -0.0351
  464MOL0     C63922   9.554   1.526   4.392  0.3740  0.1525  0.1397
  464MOL0     C63923   9.428   1.684   4.239 -0.3313  0.4248  0.0172
  464MOL0     C63924   9.379   1.579   4.141  0.1766  0.3081 -0.3622
  464MOL0     O63925   9.325   1.625   4.032  0.6601  0.7317 -0.0803
  464MOL0     C63926   9.323   1.550   3.922 -0.7002 -0.3485  0.0343
  464MOL0     C63927   9.250   1.615   3.815 -0.5454  0.4627  0.2193
  464MOL0     C63928   9.251   1.567   3.687 -0.3416 -0.0875  0.6628
  464MOL0     C63929   9.328   1.454   3.655 -0.9465 -0.0798  0.4585
  464MOL0     O63930   9.331   1.423   3.525  0.2938 -0.1406  0.3815
  464MOL0     C63931   9.402   1.301   3.477 -0.4108 -1.1354 -0.3132
  464MOL0     C63932   9.438   1.338   3.336 -0.6358 -0.0653  0.0207
  464MOL0     C63933   9.526   1.224   3.277 -1.2332 -0.4048  0.8571
  464MOL0     C63934   9.462   1.084   3.282 -1.0198 -0.1597 -0.4384
  464MOL0     C63935   9.567   0.975   3.237  0.6979  0.1282 -0.0183
  464MOL0     C63936   9.505   0.839   3.261 -0.7928  0.3349  0.6734
  464MOL0     C63937   9.616   0.731   3.242  0.7963  0.1442  0.2249
  464MOL0     C63938   9.653   0.691   3.096  0.1828  0.3792 -0.5852
  464MOL0    Cl63939   9.504   0.660   2.992  0.4919  0.1241  0.4292
  464MOL0     C63940   9.394   1.383   3.757  0.0414  0.5780 -0.2493
  464MOL0     C63941   9.386   1.430   3.890 -0.2761  0.3151  0.2962
  464MOL0     O63942   9.356   1.460   4.183  0.0386 -0.5208  0.9029
  464MOL0     C63943   9.388   1.815   4.215 -0.5158  0.2555 -0.1972
  464MOL0     C63944   9.404   1.914   4.313  0.3457  0.4397  0.1030
  464MOL0     N63945   9.750   2.491   4.336 -0.6669  0.3336 -0.1898
  464MOL0     N63946   9.703   2.597   4.277  0.2864  0.7402  0.6789
  464MOL0     C63947   9.850   3.576   5.043 -0.2712  0.7443 -0.0601
  464MOL0     C63948   9.863   3.675   5.142  0.8638  0.6556  0.4920
  464MOL0     C63949  10.126   4.032   5.291 -0.0938 -0.4505 -0.1648
  464MOL0     C63950  10.112   4.169   5.254 -0.0532 -0.2526 -1.0276
  464MOL0     C63951  10.170   4.272   5.333 -0.0817 -0.2315  0.8572
  464MOL0     C63952  10.240   4.235   5.444 -0.0384  0.2798 -0.6126
  464MOL0     O63953  10.293   4.343   5.509 -0.4130  0.2403  0.2281
  464MOL0     C63954  10.285   4.355   5.649  0.1309  0.1232  0.5025
  464MOL0     C63955  10.256   4.505   5.694  0.3814  1.2460  1.3601
  464MOL0     C63956  10.257   4.505   5.841  0.7400  0.1944 -0.3325
  464MOL0     C63957  10.199   4.642   5.893  0.5153  0.4269 -1.3965
  464MOL0     C63958  10.182   4.631   6.034  0.0175 -0.0903 -0.1035
  464MOL0     C63959  10.189   4.623   6.156  0.3877 -0.3119  0.7340
  464MOL0     C63960  10.261   4.105   5.474 -0.0454  0.3751 -0.5083
  464MOL0     C63961  10.203   3.997   5.407  0.2083 -0.4091 -0.7143
  464MOL0     C63962  10.234   3.859   5.436  0.5921 -0.3514 -0.4958
  464MOL0     H63963  10.203   3.677   5.153  1.7677 -3.1034 -0.3809
  464MOL0     H63964  10.169   3.503   4.964 -0.5240  1.4985 -1.7432
  464MOL0     H63965   9.786   3.501   4.794  0.2941 -0.0674  1.1934
  464MOL0     H63966   9.756   3.348   4.867  0.7343 -2.0017 -0.4802
  464MOL0     H63967   9.945   3.375   4.624 -0.3411  1.6335 -0.0307
  464MOL0     H63968   9.920   3.225   4.715 -1.2957 -1.9376 -0.7728
  464MOL0     H63969   9.677   3.359   4.609  0.6826  0.4919 -0.4379
  464MOL0     H63970   9.777   3.245   4.516  1.8310 -0.5584 -0.0297
  464MOL0     H63971   9.770   3.087   4.726 -2.0360 -2.1822  0.6465
  464MOL0     H63972   9.632   3.198   4.782 -0.5841 -0.8787 -0.4908
  464MOL0     H63973   9.506   3.155   4.588 -0.4340  1.0611  3.9351
  464MOL0     H63974   9.531   3.012   4.692  3.7606 -3.3607  0.9806
  464MOL0     H63975   9.678   3.050   4.422 -0.5402  1.1945 -0.0433
  464MOL0     H63976   9.735   2.943   4.542 -0.8927 -1.0884  2.5063
  464MOL0     H63977   9.441   2.937   4.456  0.2150  0.1709  2.9626
  464MOL0     H63978   9.512   2.816   4.557  1.1389 -0.8709 -0.6634
  464MOL0     H63979   9.494   2.794   4.270 -1.2817  1.2008 -0.4241
  464MOL0     H63980   9.651   2.854   4.277  1.1563 -0.2817 -0.1152
  464MOL0     H63981   9.545   2.609   4.564  0.8775  1.6671 -0.3586
  464MOL0     H63982   9.625   2.377   4.627 -2.7255  2.0219 -3.8617
  464MOL0     H63983   9.807   2.392   4.623  1.1866 -0.7803 -1.8170
  464MOL0     H63984   9.617   2.243   4.440  0.0883 -0.4017  1.4556
  464MOL0     H63985   9.790   2.237   4.422 -0.7878  1.2653 -0.8420
  464MOL0     H63986   9.817   2.113   4.609 -0.6042 -1.8289 -3.9270
  464MOL0     H63987   9.649   2.170   4.674  0.1697  6.5776 -1.6847
  464MOL0     H63988   9.712   1.981   4.435 -0.1296 -1.7629  0.0176
  464MOL0     H63989   9.699   1.915   4.583 -1.4608 -0.9424 -0.5732
  464MOL0     H63990   9.567   1.755   4.543 -1.5846  2.4142  1.0327
  464MOL0     H63991   9.489   1.479   4.466  0.3907  3.2538  2.3215
  464MOL0     H63992   9.650   1.539   4.443 -0.2427 -0.4107  1.5051
  464MOL0     H63993   9.574   1.467   4.302 -0.1495  1.6742 -1.0192
  464MOL0     H63994   9.208   1.715   3.817 -0.2578  0.8079 -3.8731
  464MOL0     H63995   9.198   1.619   3.608 -3.5362 -2.2890  1.1927
  464MOL0     H63996   9.490   1.272   3.535 -0.0317  1.5088  0.5715
  464MOL0     H63997   9.328   1.220   3.480 -3.5692  1.4423 -1.8542
  464MOL0     H63998   9.348   1.361   3.279 -0.4189  1.4699  0.2654
  464MOL0     H63999   9.505   1.425   3.333  2.5565 -2.2743  1.3433
  464MOL0     H64000   9.624   1.215   3.326  0.0348  1.6316 -1.1304
  464MOL0     H64001   9.549   1.255   3.175  1.5605  0.7434  1.7353
  464MOL0     H64002   9.367   1.088   3.227 -2.6631  1.1876  2.2694
  464MOL0     H64003   9.428   1.061   3.383  0.9501  0.8495  0.4993
  464MOL0     H64004   9.620   0.993   3.143  3.6899 -0.0361  1.5098
  464MOL0     H64005   9.650   0.978   3.308  0.8828 -1.7000 -0.1140
  464MOL0     H64006   9.412   0.821   3.206 -0.9930  0.0826  1.0846
  464MOL0     H64007   9.481   0.831   3.367  2.3016  0.3247  1.4704
  464MOL0     H64008   9.587   0.638   3.292 -0.0277 -1.8066 -3.5200
  464MOL0     H64009   9.706   0.759   3.296  0.5679 -0.9971  1.2343
  464MOL0     H64010   9.714   0.601   3.106 -1.0354 -0.3501  0.6350
  464MOL0     H64011   9.706   0.775   3.050 -0.7066  1.3936  0.1973
  464MOL0     H64012   9.462   1.302   3.734  0.9522  1.5332 -1.0309
  464MOL0     H64013   9.448   1.385   3.967  1.0687  3.1696  1.0170
  464MOL0     H64014   9.316   1.844   4.139  0.4818 -1.4255 -1.8964
  464MOL0     H64015   9.363   2.015   4.303  1.8514  1.3533  2.3411
  464MOL0     H64016   9.747   3.547   5.023 -0.2296  1.2617 -1.0798
  464MOL0     H64017   9.779   3.727   5.188 -0.3912  1.2124 -2.2262
  464MOL0     H64018  10.057   4.211   5.171  2.3440  3.4504 -0.9366
  464MOL0     H64019  10.175   4.376   5.304 -1.1055  0.2711  2.3194
  464MOL0     H64020  10.217   4.283   5.693  0.4563 -0.3540  0.2323
  464MOL0     H64021  10.380   4.327   5.696  0.2289  1.9846  1.5152
  464MOL0     H64022  10.159   4.537   5.656  0.1780 -2.3578 -1.7159
  464MOL0     H64023  10.330   4.561   5.636 -0.2816 -0.5109 -1.3581
  464MOL0     H64024  10.213   4.424   5.899 -0.0917  2.3332  2.2138
  464MOL0     H64025  10.364   4.518   5.858  0.6217  1.2692 -0.3250
  464MOL0     H64026  10.105   4.665   5.842 -0.7847 -0.5011  0.4523
  464MOL0     H64027  10.271   4.724   5.898  2.3820 -1.1807 -0.7532
  464MOL0     H64028  10.200   4.623   6.262  2.0081 -0.2474  0.5904
  464MOL0     H64029  10.336   4.086   5.550  0.3369  0.7704 -0.7830
  464MOL0     H64030  10.140   3.816   5.471 -0.6376  2.6559  0.1631
  464MOL0     H64031  10.257   3.812   5.340 -3.4746  0.3728 -2.0299
  464MOL0     H64032  10.304   3.838   5.518 -0.9878 -1.0890  0.7087
  465MOL0     O64033   8.141   2.070   1.571  0.7189 -0.4602 -0.5567
  465MOL0     C64034   8.205   2.058   1.470  1.0343  0.0489  0.6148
  465MOL0     O64035   8.295   2.150   1.421 -0.2164 -0.3903 -0.2965
  465MOL0     C64036   8.334   2.256   1.500 -0.2526 -0.6323 -1.2417
  465MOL0     C64037   8.281   2.382   1.473 -0.1561 -0.0983 -0.1877
  465MOL0     C64038   8.330   2.488   1.542 -0.0988  0.1445  0.7586
  465MOL0     C64039   8.432   2.472   1.636  0.6098  0.5412  0.0634
  465MOL0     O64040   8.475   2.572   1.718 -0.3827  0.1309  0.7630
  465MOL0     C64041   8.523   2.682   1.645  0.1488  0.5516  0.3257
  465MOL0     C64042   8.545   2.798   1.743  0.7161 -0.7200  0.9519
  465MOL0     C64043   8.627   2.764   1.862  0.3228  0.0779  1.5616
  465MOL0     C64044   8.692   2.881   1.931 -0.3870 -1.1314 -0.5585
  465MOL0     C64045   8.755   2.846   2.058  1.2535 -0.5288 -1.0382
  465MOL0     C64046   8.885   2.780   2.026  0.3155  0.8420  0.3917
  465MOL0     C64047   8.965   2.749   2.154 -0.6447 -0.4881 -0.1763
  465MOL0     C64048   9.054   2.620   2.136  0.4431 -0.1490 -0.0095
  465MOL0     N64049   9.120   2.588   2.265 -0.6887  0.5101  0.1421
  465MOL0     C64050   9.127   2.475   2.342 -0.6985  0.2730 -0.3890
  465MOL0     C64051   9.182   2.515   2.465 -0.1128 -0.2655  0.1987
  465MOL0     C64052   9.236   2.431   2.578  0.3186  0.8805 -0.2580
  465MOL0     C64053   9.165   2.476   2.711 -0.0694  0.5475  0.6367
  465MOL0     C64054   9.247   2.432   2.827 -0.4450  0.1305 -0.0073
  465MOL0     C64055   9.193   2.452   2.963  0.3808 -1.0324 -0.4414
  465MOL0     O64056   9.065   2.381   2.982 -0.1616  0.7932 -0.5829
  465MOL0     C64057   9.035   2.352   3.111  0.7353  0.2819 -0.6498
  465MOL0     C64058   9.056   2.444   3.214 -0.3716  0.9348 -0.3194
  465MOL0     C64059   8.999   2.428   3.342 -0.4471 -0.1890  0.4110
  465MOL0     C64060   9.017   2.549   3.427  0.4731  0.0556  0.6444
  465MOL0     C64061   8.933   2.304   3.382  0.0621  0.3337 -0.8344
  465MOL0     C64062   8.889   2.271   3.521  0.8770  0.9140 -0.4973
  465MOL0     O64063   8.911   2.357   3.621 -0.1625  0.0983  0.4000
  465MOL0     C64064   8.878   2.312   3.743 -0.9515 -0.0948  0.2144
  465MOL0     C64065   8.988   2.259   3.819 -0.1894 -0.1472  0.8281
  465MOL0     C64066   8.960   2.176   3.928 -0.2180 -0.1733  0.6505
  465MOL0     C64067   8.831   2.164   3.978  1.3913 -0.6861  0.2716
  465MOL0     O64068   8.816   2.093   4.093  0.5003  0.8802  0.4920
  465MOL0     C64069   8.686   2.054   4.152 -0.5031  0.1825 -0.1126
  465MOL0     C64070   8.690   1.924   4.238 -0.4167  0.2406  0.1876
  465MOL0     C64071   8.803   1.928   4.341 -0.5994 -0.2468 -0.3242
  465MOL0     C64072   8.832   1.791   4.402 -0.4701  0.2740 -0.4451
  465MOL0     C64073   8.954   1.804   4.498 -0.7057  0.2347 -0.6137
  465MOL0     C64074   9.003   1.667   4.532  1.5100 -0.2337  0.1182
  465MOL0     C64075   9.137   1.624   4.452  0.8712 -0.1199 -0.9663
  465MOL0     C64076   9.156   1.466   4.468 -0.4794  0.3054  0.7967
  465MOL0    Cl64077   9.145   1.408   4.625  0.5277 -0.3530  0.4755
  465MOL0     C64078   8.720   2.235   3.908 -0.8594 -0.2072  0.0854
  465MOL0     C64079   8.742   2.302   3.788  0.0539 -0.9049  0.0831
  465MOL0     O64080   8.840   2.157   3.531 -0.5023  0.4086 -0.1150
  465MOL0     C64081   8.920   2.209   3.276 -0.2538 -0.4540  0.2216
  465MOL0     C64082   8.959   2.237   3.139 -0.1886  1.2655 -0.0565
  465MOL0     N64083   9.231   2.641   2.451  0.0109 -0.2720 -0.2757
  465MOL0     N64084   9.194   2.686   2.333  0.7627  0.2661  0.3319
  465MOL0     C64085   8.489   2.347   1.664 -0.1802 -0.4892  0.4848
  465MOL0     C64086   8.440   2.247   1.594  0.5905  0.0777  0.5235
  465MOL0     C64087   8.184   1.927   1.407 -0.3952 -0.2061  0.1016
  465MOL0     C64088   8.203   1.920   1.264  0.1898  0.2623 -0.4332
  465MOL0     C64089   8.183   1.803   1.194 -1.3209  0.1141  1.5858
  465MOL0     C64090   8.161   1.684   1.264  0.6944 -1.3954  0.5086
  465MOL0     O64091   8.141   1.554   1.212 -0.3167  0.3412 -0.1795
  465MOL0     C64092   8.143   1.528   1.076  0.1683  1.1440  0.6815
  465MOL0     C64093   8.228   1.401   1.040  0.2801  0.3666 -0.5049
  465MOL0     C64094   8.383   1.419   1.018 -0.3328 -0.1045  0.2724
  465MOL0     C64095   8.434   1.314   0.928  0.1847 -0.5037 -0.3419
  465MOL0     C64096   8.577   1.319   0.897 -0.0883 -0.7438 -0.6999
  465MOL0     C64097   8.694   1.349   0.876 -0.7159  0.9675 -0.1751
  465MOL0     C64098   8.144   1.689   1.407  0.3753 -0.3214  0.2915
  465MOL0     C64099   8.146   1.817   1.477  1.2791  0.1200  0.6311
  465MOL0     C64100   8.110   1.799   1.627 -1.1407  0.6814  0.3987
  465MOL0     H64101   8.215   2.393   1.387  2.8295 -2.3435 -3.0735
  465MOL0     H64102   8.307   2.589   1.511 -2.6312 -0.5101  0.1949
  465MOL0     H64103   8.461   2.731   1.569  1.1839  1.8287  0.2661
  465MOL0     H64104   8.611   2.654   1.586  1.1641  5.7607 -1.2433
  465MOL0     H64105   8.589   2.873   1.677  0.1868 -0.6093  0.7123
  465MOL0     H64106   8.451   2.842   1.777  0.7187  0.6757 -0.6734
  465MOL0     H64107   8.563   2.703   1.928 -1.0698 -1.5180 -1.0974
  465MOL0     H64108   8.706   2.706   1.815  0.8434  2.8775 -1.3369
  465MOL0     H64109   8.765   2.931   1.867  0.4759 -3.3566 -1.4419
  465MOL0     H64110   8.616   2.952   1.964  1.4421  0.9102 -0.5165
  465MOL0     H64111   8.693   2.782   2.121  2.1219 -1.7065 -1.3484
  465MOL0     H64112   8.793   2.935   2.110  1.4037 -0.8630 -0.5666
  465MOL0     H64113   8.859   2.686   1.976  6.4826 -1.9492  1.5558
  465MOL0     H64114   8.944   2.829   1.949 -0.3217  0.4001 -0.4008
  465MOL0     H64115   8.891   2.741   2.233 -2.5517  0.7277 -1.7373
  465MOL0     H64116   9.034   2.832   2.173 -0.3903 -0.9842  1.1529
  465MOL0     H64117   8.995   2.535   2.100  1.5578 -0.4769 -1.1400
  465MOL0     H64118   9.141   2.648   2.076 -0.3073  2.0895 -0.1647
  465MOL0     H64119   9.090   2.375   2.321  1.4904  0.0098 -3.8011
  465MOL0     H64120   9.345   2.437   2.582  0.5548 -2.1897  1.0049
  465MOL0     H64121   9.208   2.325   2.569 -1.4176  1.1153  1.6199
  465MOL0     H64122   9.158   2.585   2.716 -0.6383  0.7884 -3.2017
  465MOL0     H64123   9.061   2.444   2.714  0.7593 -3.0148 -2.2474
  465MOL0     H64124   9.255   2.323   2.816  3.5713 -0.0919  2.7059
  465MOL0     H64125   9.342   2.487   2.831 -0.5183  0.2307  0.4384
  465MOL0     H64126   9.275   2.422   3.030  0.8154 -2.6136 -1.6284
  465MOL0     H64127   9.174   2.557   2.984 -2.1173 -1.5328  0.1972
  465MOL0     H64128   9.101   2.539   3.186 -0.1310  0.7140 -0.6865
  465MOL0     H64129   9.042   2.645   3.381  0.4530  0.2819  1.1073
  465MOL0     H64130   9.116   2.537   3.474  0.9839 -1.3024 -0.6751
  465MOL0     H64131   8.938   2.559   3.501  0.6800 -0.4636  0.9461
  465MOL0     H64132   9.092   2.281   3.801 -0.8204  1.3072 -1.3135
  465MOL0     H64133   9.051   2.131   3.968  1.9547  0.9132 -2.6751
  465MOL0     H64134   8.661   2.136   4.219  2.3327  0.0070  1.3170
  465MOL0     H64135   8.607   2.044   4.077 -1.7099 -0.4534  1.1998
  465MOL0     H64136   8.592   1.925   4.286  0.6828  0.0246  2.6122
  465MOL0     H64137   8.719   1.847   4.166  2.1730 -0.9319  2.3215
  465MOL0     H64138   8.782   2.004   4.417  0.8845  1.2429 -1.3361
  465MOL0     H64139   8.895   1.954   4.288 -0.0850 -1.9878 -0.3617
  465MOL0     H64140   8.858   1.718   4.325  0.9916  1.2452 -0.9206
  465MOL0     H64141   8.748   1.751   4.459  0.8754 -0.5820  1.0020
  465MOL0     H64142   9.033   1.852   4.439 -0.7575  0.0551 -0.8290
  465MOL0     H64143   8.940   1.860   4.591  2.0332 -2.0293  1.3456
  465MOL0     H64144   8.928   1.593   4.506 -1.0626  2.9261 -2.2876
  465MOL0     H64145   9.027   1.655   4.639 -0.9686 -0.4533  0.7001
  465MOL0     H64146   9.215   1.676   4.507 -0.7397 -0.3836  1.7797
  465MOL0     H64147   9.135   1.654   4.347  1.3961 -2.8488 -1.8456
  465MOL0     H64148   9.252   1.429   4.432  1.1929  4.1987  0.7159
  465MOL0     H64149   9.073   1.420   4.414 -1.1403 -0.1858  2.1826
  465MOL0     H64150   8.619   2.232   3.947 -0.7134 -0.7674  0.4360
  465MOL0     H64151   8.657   2.340   3.731  1.3830  0.8322 -0.8377
  465MOL0     H64152   8.867   2.117   3.298 -1.0913 -0.1867 -0.6118
  465MOL0     H64153   8.941   2.171   3.055 -0.5201  2.0639 -0.6349
  465MOL0     H64154   8.580   2.340   1.723  1.4988  3.0081 -1.4055
  465MOL0     H64155   8.479   2.151   1.626  0.5126  0.5279  2.0127
  465MOL0     H64156   8.213   2.013   1.208 -0.8475  0.2615 -0.6255
  465MOL0     H64157   8.211   1.804   1.089 -1.1421 -0.0217  1.6330
  465MOL0     H64158   8.035   1.524   1.059  0.2106  0.4525  0.5586
  465MOL0     H64159   8.191   1.612   1.025  2.2682 -0.0825  0.5532
  465MOL0     H64160   8.189   1.374   0.941  0.1763 -1.3737 -0.0222
  465MOL0     H64161   8.211   1.322   1.114 -1.6809  2.1913  1.1000
  465MOL0     H64162   8.408   1.516   0.976  2.8716 -1.0560 -0.2817
  465MOL0     H64163   8.429   1.417   1.117  1.8414  0.4268 -0.6675
  465MOL0     H64164   8.372   1.322   0.838 -1.4491 -0.2280  0.7496
  465MOL0     H64165   8.417   1.220   0.982 -1.3367  0.2569  0.5686
  465MOL0     H64166   8.798   1.368   0.859  0.5098 -2.6489  2.2289
  465MOL0     H64167   8.135   1.599   1.469 -0.3232 -2.4079 -2.6244
  465MOL0     H64168   8.020   1.856   1.649 -0.1095  3.3167 -1.6669
  465MOL0     H64169   8.097   1.699   1.669  1.0203  1.8657  4.3518
  465MOL0     H64170   8.195   1.839   1.683 -0.4019  0.2661 -0.3919
  466MOL0     O64171   5.849   1.429   9.822 -1.1410 -0.6834  1.2019
  466MOL0     C64172   5.893   1.507   9.907  0.7370  0.1698 -0.8089
  466MOL0     O64173   6.021   1.513   9.954 -0.2596  0.2190 -0.9020
  466MOL0     C64174   6.087   1.397   9.981  0.4689 -0.9230  0.2973
  466MOL0     C64175   6.033   1.270   9.988 -0.2416  0.0367 -0.5163
  466MOL0     C64176   6.106   1.163  10.029 -0.3472  0.1013 -0.2725
  466MOL0     C64177   6.243   1.178  10.068 -0.4374 -0.4847 -0.0109
  466MOL0     O64178   6.304   1.062  10.096  0.1028 -0.5551 -0.4152
  466MOL0     C64179   6.450   1.079  10.096 -0.1910 -0.7422  1.2882
  466MOL0     C64180   6.513   0.942  10.106  0.2688  0.6248  0.0243
  466MOL0     C64181   6.648   0.948  10.176  1.1279 -0.5418 -0.1163
  466MOL0     C64182   6.714   0.811  10.157 -0.1848 -0.2734  0.2943
  466MOL0     C64183   6.863   0.820  10.166  0.3975  0.4374 -0.1971
  466MOL0     C64184   6.943   0.710  10.102  0.1068 -0.3897  0.0049
  466MOL0     C64185   6.910   0.574  10.173 -0.7148 -0.4718 -0.4035
  466MOL0     C64186   6.973   0.570  10.311 -0.2918 -0.0324 -0.7693
  466MOL0     N64187   6.969   0.440  10.383  0.5763 -0.0407 -0.4156
  466MOL0     C64188   6.991   0.411  10.514  0.6913  0.1670 -0.0255
  466MOL0     C64189   6.958   0.280  10.531  1.2749 -0.0719 -0.0910
  466MOL0     C64190   6.986   0.197  10.654  0.1823 -0.4076  0.0178
  466MOL0     C64191   6.854   0.156  10.720 -0.0942 -0.5482 -1.2231
  466MOL0     C64192   6.815   0.037  10.647 -0.1079  0.6276 -0.0072
  466MOL0     C64193   6.668   0.014  10.679  0.3124  1.3755 -0.2691
  466MOL0     O64194   6.619  -0.116  10.639  0.9154  0.7035  0.2213
  466MOL0     C64195   6.569  -0.202  10.747 -0.7459  0.2627  0.0874
  466MOL0     C64196   6.553  -0.165  10.882  0.6956 -0.0781 -0.1697
  466MOL0     C64197   6.475  -0.231  10.989  0.2460  0.3435  0.8959
  466MOL0     C64198   6.443  -0.170  11.124 -0.4679 -0.4530 -0.4871
  466MOL0     C64199   6.421  -0.347  10.944  0.4328  0.5549  0.2959
  466MOL0     C64200   6.354  -0.440  11.039 -0.4735 -0.0787  0.5030
  466MOL0     O64201   6.416  -0.465  11.157  0.3051 -1.2176  0.2363
  466MOL0     C64202   6.391  -0.584  11.219  0.7329 -0.0448  0.1419
  466MOL0     C64203   6.500  -0.663  11.245  0.5706  0.4194 -0.4172
  466MOL0     C64204   6.470  -0.784  11.314 -0.0951  0.2011 -0.7833
  466MOL0     C64205   6.336  -0.829  11.338 -0.4054  0.8202 -0.1420
  466MOL0     O64206   6.312  -0.958  11.397 -0.0339 -0.0520  0.0977
  466MOL0     C64207   6.403  -1.065  11.357  0.0896  0.4412  0.2166
  466MOL0     C64208   6.327  -1.203  11.360 -0.0712 -0.6070 -0.4051
  466MOL0     C64209   6.215  -1.217  11.253 -0.7060  0.0826  0.0219
  466MOL0     C64210   6.179  -1.363  11.217 -0.4579  0.2386 -0.4409
  466MOL0     C64211   6.144  -1.457  11.334 -0.4185 -0.0047 -0.0406
  466MOL0     C64212   6.036  -1.413  11.432 -0.1642  0.6333  0.3907
  466MOL0     C64213   5.964  -1.521  11.521  0.2749 -0.0964 -0.5613
  466MOL0     C64214   6.061  -1.554  11.629  0.2570 -0.2962  0.4978
  466MOL0    Cl64215   6.204  -1.659  11.577 -0.4877  0.0113 -0.0144
  466MOL0     C64216   6.237  -0.746  11.296 -0.3919  0.2459 -0.5945
  466MOL0     C64217   6.262  -0.622  11.248  0.6357  1.0215 -0.0971
  466MOL0     O64218   6.245  -0.486  10.996 -0.3610 -0.8011  0.1379
  466MOL0     C64219   6.442  -0.398  10.816 -0.3456 -0.9171  0.3942
  466MOL0     C64220   6.520  -0.325  10.715  0.2967 -0.4258 -0.1595
  466MOL0     N64221   6.920   0.232  10.399  0.0566 -0.0109  0.2424
  466MOL0     N64222   6.913   0.328  10.321  0.3589 -0.0131 -0.1394
  466MOL0     C64223   6.294   1.308  10.071 -0.4913  0.0564 -1.0944
  466MOL0     C64224   6.218   1.413  10.021  0.3524  0.0552  0.1311
  466MOL0     C64225   5.796   1.615   9.965 -0.7342  0.5798  0.2798
  466MOL0     C64226   5.849   1.703  10.064  0.2150 -0.7284 -0.3155
  466MOL0     C64227   5.768   1.808  10.116 -0.6350  0.2409 -0.7085
  466MOL0     C64228   5.636   1.825  10.080  0.5691  0.5410 -0.1819
  466MOL0     O64229   5.547   1.899  10.150  0.0369  0.4688  0.0319
  466MOL0     C64230   5.590   2.034  10.183  0.0056  0.6236 -0.7632
  466MOL0     C64231   5.611   2.052  10.346 -0.1925 -0.0670 -0.1551
  466MOL0     C64232   5.630   2.196  10.382  0.1720  0.6449  0.2547
  466MOL0     C64233   5.623   2.219  10.531  0.1724 -0.0285  0.1730
  466MOL0     C64234   5.659   2.362  10.556 -0.4914  0.8829 -0.3211
  466MOL0     C64235   5.685   2.486  10.561 -0.0291  0.5692  0.0917
  466MOL0     C64236   5.590   1.740   9.974 -1.5874  0.2811 -0.5751
  466MOL0     C64237   5.670   1.641   9.913  0.2465  0.2559  0.9861
  466MOL0     C64238   5.595   1.557   9.808 -0.4920  0.3054 -0.4321
  466MOL0     H64239   5.939   1.243   9.941  0.0606  1.2882 -1.9352
  466MOL0     H64240   6.053   1.068  10.034 -1.0272  0.4845 -0.0527
  466MOL0     H64241   6.472   1.132  10.189  0.0064  2.5637 -0.5042
  466MOL0     H64242   6.495   1.135  10.014  0.3899 -2.0452  0.6787
  466MOL0     H64243   6.448   0.868  10.154  2.6078 -2.3141 -1.0073
  466MOL0     H64244   6.517   0.909  10.001  0.7453  0.1391  0.1957
  466MOL0     H64245   6.700   1.035  10.133 -0.3813 -0.3028 -1.5761
  466MOL0     H64246   6.630   0.966  10.283  1.7806 -1.0747  0.0879
  466MOL0     H64247   6.675   0.735  10.226  2.6890  1.0351  3.6464
  466MOL0     H64248   6.686   0.784  10.054 -1.9634  0.6964  0.4925
  466MOL0     H64249   6.881   0.837  10.273 -0.9163 -1.4195  0.3622
  466MOL0     H64250   6.903   0.910  10.117 -1.2880  2.2803  1.6233
  466MOL0     H64251   6.922   0.700   9.995  2.3693 -0.5689 -0.4896
  466MOL0     H64252   7.049   0.738  10.109  0.9694 -3.4934  0.7731
  466MOL0     H64253   6.942   0.485  10.119  0.9122 -1.1634  1.5940
  466MOL0     H64254   6.802   0.559  10.183 -1.0731  1.6175 -0.6111
  466MOL0     H64255   7.075   0.609  10.314  0.0032 -0.7894  2.2703
  466MOL0     H64256   6.924   0.638  10.381 -2.3023 -2.4318  0.2975
  466MOL0     H64257   7.035   0.482  10.583 -0.9035 -0.1077  1.3178
  466MOL0     H64258   7.048   0.252  10.726 -0.6850 -1.1541  1.3936
  466MOL0     H64259   7.038   0.106  10.623  0.3809  0.0200 -0.9180
  466MOL0     H64260   6.867   0.138  10.827 -3.2841  0.7931 -0.4848
  466MOL0     H64261   6.776   0.233  10.713  0.2720  0.0275  0.4560
  466MOL0     H64262   6.825   0.059  10.540  0.5828  2.3024  0.3704
  466MOL0     H64263   6.881  -0.049  10.664 -1.0234 -0.4493 -1.6051
  466MOL0     H64264   6.644   0.044  10.781  0.0047 -0.3992  0.2266
  466MOL0     H64265   6.623   0.091  10.616  1.9215  1.9907 -0.7072
  466MOL0     H64266   6.595  -0.076  10.927 -0.9825  0.3436  0.6339
  466MOL0     H64267   6.479  -0.225  11.212  0.4713 -1.8554 -1.7066
  466MOL0     H64268   6.335  -0.158  11.139 -0.5362 -1.0868 -0.4578
  466MOL0     H64269   6.487  -0.071  11.132  2.4439 -1.6999 -0.0090
  466MOL0     H64270   6.603  -0.638  11.218 -0.1641  1.1727 -2.8246
  466MOL0     H64271   6.546  -0.850  11.354 -1.3349  0.7644  2.8116
  466MOL0     H64272   6.448  -1.042  11.260 -0.1643  0.7575  0.1695
  466MOL0     H64273   6.489  -1.072  11.424 -0.5663 -3.0948  0.9035
  466MOL0     H64274   6.400  -1.281  11.336  0.8962  0.1636 -0.0332
  466MOL0     H64275   6.300  -1.223  11.464  3.5648 -1.6080  0.4897
  466MOL0     H64276   6.251  -1.165  11.164  1.1027  0.3048  0.8225
  466MOL0     H64277   6.130  -1.167  11.300  0.9528  0.9726  2.2960
  466MOL0     H64278   6.266  -1.406  11.167 -0.9597  0.5028 -1.5585
  466MOL0     H64279   6.090  -1.357  11.154 -0.6900 -1.1682 -0.2686
  466MOL0     H64280   6.121  -1.558  11.297  1.0695 -0.1870 -0.5235
  466MOL0     H64281   6.229  -1.477  11.400  0.2289  3.0258  0.1615
  466MOL0     H64282   5.954  -1.367  11.376 -0.0341  2.3091  1.5002
  466MOL0     H64283   6.074  -1.330  11.493  2.9827 -0.5825  0.2661
  466MOL0     H64284   5.932  -1.614  11.473 -0.6002 -0.8899  1.4543
  466MOL0     H64285   5.883  -1.474  11.577  2.2834  1.9877  0.8201
  466MOL0     H64286   6.004  -1.622  11.692  0.9641 -1.2470  0.1264
  466MOL0     H64287   6.077  -1.470  11.698  0.0879 -0.7380  1.0885
  466MOL0     H64288   6.136  -0.786  11.307  0.4388 -1.5240  1.1943
  466MOL0     H64289   6.182  -0.555  11.217  1.6980  1.8415 -1.1698
  466MOL0     H64290   6.408  -0.500  10.802  1.6259 -1.6839  0.8811
  466MOL0     H64291   6.536  -0.369  10.617  0.0134  1.2974 -1.0151
  466MOL0     H64292   6.397   1.321  10.104 -0.3270 -0.0920 -1.5404
  466MOL0     H64293   6.257   1.514  10.012 -1.7017  1.0366  1.4505
  466MOL0     H64294   5.944   1.698  10.117 -0.6221 -1.2713  1.1722
  466MOL0     H64295   5.799   1.860  10.206 -1.8137 -0.5404  0.1638
  466MOL0     H64296   5.683   2.053  10.129 -3.1658  3.5369 -6.0184
  466MOL0     H64297   5.528   2.111  10.136 -0.8511  2.1464  2.5864
  466MOL0     H64298   5.706   2.004  10.371 -0.3583 -0.8759 -1.0164
  466MOL0     H64299   5.528   2.008  10.402 -1.1533  3.0167  1.0650
  466MOL0     H64300   5.730   2.217  10.342  0.8978 -1.1543  1.0440
  466MOL0     H64301   5.546   2.259  10.351 -1.6092  1.2585  5.3665
  466MOL0     H64302   5.681   2.142  10.582  0.1183  0.6370  1.2498
  466MOL0     H64303   5.520   2.222  10.568  0.3232 -1.0726  0.7044
  466MOL0     H64304   5.690   2.590  10.582  0.4226  0.6763 -0.5336
  466MOL0     H64305   5.486   1.755   9.946 -1.8814  0.6406  0.6620
  466MOL0     H64306   5.589   1.457   9.852  0.4569 -0.0684 -1.1125
  466MOL0     H64307   5.493   1.594   9.793 -1.0700 -1.8240 -2.4202
  466MOL0     H64308   5.655   1.557   9.716 -1.9579 -0.7255 -1.4323
  467MOL0     O64309   2.643   0.559   6.789  0.6780 -0.8632  0.3998
  467MOL0     C64310   2.752   0.536   6.842 -0.4736  0.1088 -0.8831
  467MOL0     O64311   2.832   0.447   6.793  0.1011  0.2614 -0.0941
  467MOL0     C64312   2.783   0.367   6.690 -0.0083 -1.8555 -0.9136
  467MOL0     C64313   2.749   0.238   6.721  0.4189  0.0830 -0.4528
  467MOL0     C64314   2.690   0.154   6.625 -0.3126 -0.0898 -0.3348
  467MOL0     C64315   2.662   0.206   6.500 -0.7355 -0.0323  0.7540
  467MOL0     O64316   2.608   0.138   6.395 -0.2595 -0.6375 -0.2195
  467MOL0     C64317   2.513   0.022   6.420  0.3332 -0.9545 -0.4089
  467MOL0     C64318   2.415   0.016   6.288 -0.9860 -1.0570  0.1558
  467MOL0     C64319   2.487   0.029   6.158  0.6435  0.5321 -0.3442
  467MOL0     C64320   2.399   0.002   6.040  0.5238 -0.0593  0.4976
  467MOL0     C64321   2.487  -0.001   5.914 -0.3257  0.1756 -0.4647
  467MOL0     C64322   2.415  -0.040   5.788  0.6888 -0.1080 -0.2825
  467MOL0     C64323   2.323   0.073   5.731  0.3218 -0.1620  0.0184
  467MOL0     C64324   2.244   0.028   5.608 -0.1275  0.1847  0.4326
  467MOL0     N64325   2.142   0.132   5.573  0.7145 -1.0009  0.7892
  467MOL0     C64326   2.022   0.161   5.644  1.1120  0.1863 -0.6149
  467MOL0     C64327   1.983   0.286   5.596  0.6765  0.4871 -0.4020
  467MOL0     C64328   1.850   0.348   5.636 -0.3666  0.2582 -0.8748
  467MOL0     C64329   1.742   0.331   5.533  0.5677  1.2812 -0.5209
  467MOL0     C64330   1.707   0.178   5.499  0.3282  0.3628 -0.0762
  467MOL0     C64331   1.742   0.155   5.356  0.7344  0.0751  0.3165
  467MOL0     O64332   1.663   0.226   5.264  0.0869 -1.0437  0.7830
  467MOL0     C64333   1.531   0.190   5.243 -0.1870 -0.5246 -0.0688
  467MOL0     C64334   1.466   0.272   5.155 -0.4526 -0.2946 -0.6120
  467MOL0     C64335   1.332   0.264   5.135  0.0901 -0.0348 -1.0684
  467MOL0     C64336   1.267   0.366   5.055 -0.3047  0.2355 -0.1432
  467MOL0     C64337   1.256   0.152   5.194  0.1808 -0.2625  0.3438
  467MOL0     C64338   1.109   0.132   5.185 -0.4885  0.3696 -0.4406
  467MOL0     O64339   1.063   0.022   5.117  0.9290  0.4977 -0.4172
  467MOL0     C64340   0.945   0.037   5.039 -0.1150 -0.8637 -0.7090
  467MOL0     C64341   0.921   0.150   4.961 -0.4652  0.8805 -0.0330
  467MOL0     C64342   0.800   0.181   4.921  0.0657  0.4677 -0.2566
  467MOL0     C64343   0.696   0.085   4.932 -0.7839  0.5078  0.4333
  467MOL0     O64344   0.582   0.128   4.874 -0.5554  0.4328 -0.5881
  467MOL0     C64345   0.477   0.042   4.841  0.1441  0.0978 -0.9666
  467MOL0     C64346   0.389   0.043   4.961 -0.2489 -0.4133  0.1274
  467MOL0     C64347   0.276  -0.051   4.958  0.5561 -0.0894 -1.1234
  467MOL0     C64348   0.171  -0.027   5.062 -0.0798  0.2100  0.4183
  467MOL0     C64349   0.052  -0.125   5.032 -0.2557  0.6117  0.5491
  467MOL0     C64350   0.090  -0.269   5.028  0.5836 -0.3419 -0.6947
  467MOL0     C64351  -0.030  -0.361   5.004 -0.6560 -0.0876  0.6999
  467MOL0     C64352  -0.022  -0.500   5.061 -0.3662 -0.3668  0.3144
  467MOL0    Cl64353   0.148  -0.557   5.085 -0.0928  0.0759  0.0174
  467MOL0     C64354   0.715  -0.036   4.984  0.4931  1.0865 -0.3982
  467MOL0     C64355   0.838  -0.051   5.054 -0.1766  0.2007 -0.8453
  467MOL0     O64356   1.035   0.213   5.243 -0.1550 -0.5088 -0.0186
  467MOL0     C64357   1.332   0.064   5.272 -0.6707  0.6326  0.2277
  467MOL0     C64358   1.467   0.084   5.301  1.1286  0.1068  0.5088
  467MOL0     N64359   2.057   0.314   5.490  0.5182  0.0337  0.2810
  467MOL0     N64360   2.159   0.236   5.489  0.2341  0.4999  0.1672
  467MOL0     C64361   2.702   0.338   6.468 -0.5154 -0.1780 -0.5076
  467MOL0     C64362   2.761   0.423   6.562 -1.0164  1.4194 -0.3754
  467MOL0     C64363   2.799   0.600   6.964  0.0750 -0.3415  0.3936
  467MOL0     C64364   2.705   0.630   7.063  0.7851 -0.3616 -0.4266
  467MOL0     C64365   2.732   0.701   7.180 -0.2738 -0.0638  0.0975
  467MOL0     C64366   2.864   0.738   7.209 -0.2385 -0.5377 -0.0061
  467MOL0     O64367   2.904   0.781   7.332  0.1564  0.4081 -0.1895
  467MOL0     C64368   3.013   0.879   7.338 -0.7440  0.8106  1.0565
  467MOL0     C64369   3.037   0.919   7.478  0.6359 -0.8713 -0.1910
  467MOL0     C64370   3.034   0.801   7.581  0.1233  0.8751 -0.0701
  467MOL0     C64371   3.116   0.669   7.536 -0.9684 -1.0229 -0.7625
  467MOL0     C64372   3.132   0.572   7.643  0.3989  0.6462 -0.1000
  467MOL0     C64373   3.135   0.490   7.737  0.1170  0.2863 -0.1822
  467MOL0     C64374   2.968   0.696   7.111  0.1820 -0.1665  0.0194
  467MOL0     C64375   2.938   0.634   6.992  0.8591 -0.8020  0.4336
  467MOL0     C64376   3.042   0.600   6.893 -0.6161 -0.2817 -0.6965
  467MOL0     H64377   2.771   0.195   6.818  1.1292 -1.0193 -1.0802
  467MOL0     H64378   2.673   0.047   6.638 -3.1054  0.5073  1.9065
  467MOL0     H64379   2.450   0.035   6.508  1.8527 -2.1778  0.9114
  467MOL0     H64380   2.560  -0.076   6.426  1.0033 -0.5646  1.4339
  467MOL0     H64381   2.354  -0.075   6.290 -1.7933 -0.5129  0.8972
  467MOL0     H64382   2.357   0.107   6.302  0.0148 -0.5149  0.9178
  467MOL0     H64383   2.535   0.127   6.148  2.7645 -0.6910 -3.8506
  467MOL0     H64384   2.563  -0.049   6.148  0.5677  0.6910 -2.6968
  467MOL0     H64385   2.350  -0.093   6.061 -2.4532  1.0828 -0.7810
  467MOL0     H64386   2.329   0.085   6.050  0.6238  0.3257 -1.5430
  467MOL0     H64387   2.567  -0.074   5.930  0.8881  1.6840  0.7813
  467MOL0     H64388   2.520   0.103   5.899 -0.8256  0.0826 -2.5752
  467MOL0     H64389   2.497  -0.071   5.722  2.0228  4.1643 -0.9848
  467MOL0     H64390   2.358  -0.130   5.812 -2.1691  0.4937 -3.9225
  467MOL0     H64391   2.378   0.163   5.704  0.8527  0.2601  2.3032
  467MOL0     H64392   2.255   0.106   5.810  2.4769  3.0040  0.7452
  467MOL0     H64393   2.307   0.020   5.518 -0.7703  0.4236 -0.0441
  467MOL0     H64394   2.194  -0.067   5.627  0.8074 -0.3846  0.1375
  467MOL0     H64395   1.977   0.108   5.727  0.1962  0.5501 -0.8646
  467MOL0     H64396   1.869   0.451   5.667 -1.7768 -0.2858  2.1610
  467MOL0     H64397   1.825   0.307   5.735 -0.3010 -0.9308 -1.3341
  467MOL0     H64398   1.644   0.374   5.559 -0.9347 -1.4984 -1.1730
  467MOL0     H64399   1.780   0.376   5.441 -0.1377  0.9308 -0.9913
  467MOL0     H64400   1.759   0.108   5.564  1.2790  1.2778  0.1735
  467MOL0     H64401   1.598   0.177   5.499  0.2830  1.3669 -1.3804
  467MOL0     H64402   1.840   0.183   5.317  0.1396 -0.1740 -1.4899
  467MOL0     H64403   1.734   0.048   5.335 -0.2477  0.5683 -2.1904
  467MOL0     H64404   1.515   0.351   5.100 -1.1048  0.2758 -0.3991
  467MOL0     H64405   1.320   0.459   5.077 -1.8290  0.8890  0.9783
  467MOL0     H64406   1.163   0.390   5.079  0.2352  0.8998  1.7385
  467MOL0     H64407   1.282   0.334   4.952  0.1347  2.2938 -0.7610
  467MOL0     H64408   0.995   0.230   4.957 -0.7663  1.4887  3.3767
  467MOL0     H64409   0.792   0.279   4.874  2.6182  0.2879 -1.1947
  467MOL0     H64410   0.429   0.095   4.759 -1.0600 -0.6304 -0.7583
  467MOL0     H64411   0.499  -0.064   4.820 -1.5652 -0.8846  1.6845
  467MOL0     H64412   0.449   0.021   5.049  1.0936 -0.0776 -0.6847
  467MOL0     H64413   0.341   0.139   4.983 -3.2876 -1.8886  0.6010
  467MOL0     H64414   0.322  -0.147   4.984 -1.6803 -0.7074  0.8885
  467MOL0     H64415   0.239  -0.063   4.855  3.3443 -1.5328 -2.0838
  467MOL0     H64416   0.138   0.077   5.055  1.8528  1.2508  4.2002
  467MOL0     H64417   0.209  -0.039   5.164  2.6187  2.8364 -0.1412
  467MOL0     H64418  -0.031  -0.101   5.100 -0.7867  2.3960 -0.6601
  467MOL0     H64419   0.017  -0.094   4.934  1.8371 -0.1194 -0.4811
  467MOL0     H64420   0.150  -0.289   5.117  0.1034 -0.8131 -0.4687
  467MOL0     H64421   0.157  -0.295   4.946  4.3668 -4.3844  3.1329
  467MOL0     H64422  -0.032  -0.356   4.895 -1.7182  2.4208  0.7695
  467MOL0     H64423  -0.116  -0.306   5.044  0.6299  1.2563  1.7434
  467MOL0     H64424  -0.072  -0.572   4.996  2.5775 -1.2204 -1.1839
  467MOL0     H64425  -0.068  -0.498   5.160 -1.2321  0.2323 -0.0981
  467MOL0     H64426   0.639  -0.112   4.972 -1.7106  2.9674  0.8198
  467MOL0     H64427   0.854  -0.128   5.129 -0.2408  1.6809  0.7448
  467MOL0     H64428   1.294  -0.029   5.314 -0.3432  0.1828 -0.4448
  467MOL0     H64429   1.514  -0.003   5.346  0.9066  0.7179  2.0004
  467MOL0     H64430   2.686   0.377   6.368 -1.0671  0.5294 -0.1569
  467MOL0     H64431   2.797   0.518   6.523  0.0783  1.4242  0.5905
  467MOL0     H64432   2.602   0.596   7.050 -0.5021  1.3772  3.7111
  467MOL0     H64433   2.660   0.721   7.258  1.4230  0.7211  1.5421
  467MOL0     H64434   3.100   0.849   7.279 -1.8403  1.6016 -1.0844
  467MOL0     H64435   2.977   0.971   7.291 -0.0950  0.4684 -0.1617
  467MOL0     H64436   2.964   0.998   7.500  1.2034  0.1933 -1.9356
  467MOL0     H64437   3.134   0.970   7.483 -1.0957  2.6881  1.4784
  467MOL0     H64438   3.080   0.833   7.675  2.6185 -0.3388 -0.7641
  467MOL0     H64439   2.930   0.772   7.598  0.9699 -2.5789 -0.1077
  467MOL0     H64440   3.216   0.700   7.504 -1.4879  0.7483 -0.7695
  467MOL0     H64441   3.059   0.626   7.453 -1.5390 -2.2547  0.2402
  467MOL0     H64442   3.120   0.422   7.818 -4.7632 -0.5652 -1.4627
  467MOL0     H64443   3.070   0.717   7.142  0.5499  0.3023 -1.4417
  467MOL0     H64444   3.131   0.655   6.925 -0.2692 -1.1044 -0.2007
  467MOL0     H64445   3.063   0.492   6.893  2.7461  0.2214 -2.2015
  467MOL0     H64446   3.010   0.621   6.791 -0.8521 -0.6084 -0.6909
  468MOL0     O64447   8.583   5.723  10.530  0.2124  0.3642 -0.2318
  468MOL0     C64448   8.673   5.710  10.451 -0.7667  0.4605 -0.8505
  468MOL0     O64449   8.735   5.811  10.387 -0.4698  0.3458  0.3730
  468MOL0     C64450   8.676   5.935  10.388 -0.0208  0.0837 -0.3983
  468MOL0     C64451   8.559   5.958  10.311 -0.4754  0.9961 -0.1219
  468MOL0     C64452   8.498   6.086  10.323  0.1985 -0.3556 -0.2712
  468MOL0     C64453   8.564   6.198  10.385 -0.1363  0.6766 -0.4603
  468MOL0     O64454   8.516   6.324  10.402  0.5878  0.6922  0.2561
  468MOL0     C64455   8.387   6.353  10.359  0.3149  0.5480 -0.8647
  468MOL0     C64456   8.356   6.510  10.381 -0.1631  0.0876  0.2866
  468MOL0     C64457   8.204   6.531  10.356  0.5893 -0.0443 -0.5770
  468MOL0     C64458   8.163   6.677  10.405 -0.7550  0.2476  1.0057
  468MOL0     C64459   7.998   6.692  10.406 -0.1835 -0.5183  0.7207
  468MOL0     C64460   7.943   6.753  10.281  1.1627 -0.7513  0.7381
  468MOL0     C64461   7.788   6.749  10.269 -0.3802 -0.4060 -0.7071
  468MOL0     C64462   7.730   6.887  10.287 -0.3635 -0.2744  0.7072
  468MOL0     N64463   7.585   6.886  10.276 -0.2206  0.3015 -0.8871
  468MOL0     C64464   7.516   6.819  10.175  0.0593 -0.4348  0.8302
  468MOL0     C64465   7.382   6.819  10.212 -0.2701  0.3698  0.5047
  468MOL0     C64466   7.266   6.776  10.121 -1.4511 -0.5258 -0.4283
  468MOL0     C64467   7.143   6.764  10.203 -1.5649  0.5676  0.4294
  468MOL0     C64468   7.029   6.729  10.119 -0.1011 -0.8516  0.1443
  468MOL0     C64469   6.992   6.820  10.005 -0.0565 -0.1147  0.1077
  468MOL0     O64470   6.993   6.962  10.058  0.3644 -0.1854 -0.7181
  468MOL0     C64471   6.970   7.064   9.975 -0.3299 -0.0341 -0.4516
  468MOL0     C64472   6.945   7.186  10.033 -0.2274 -0.7390 -0.3907
  468MOL0     C64473   6.946   7.303   9.961  0.8406  0.1202 -0.2999
  468MOL0     C64474   6.914   7.436  10.026 -0.3439  0.2206 -0.4044
  468MOL0     C64475   6.963   7.301   9.818  0.1159 -0.5200  0.3451
  468MOL0     C64476   6.956   7.422   9.722  0.0045  0.4392  0.2228
  468MOL0     O64477   6.954   7.391   9.588  0.0548 -0.3130 -0.2206
  468MOL0     C64478   6.983   7.488   9.496  0.7189  0.5562  0.3333
  468MOL0     C64479   7.111   7.497   9.459  0.2037 -0.6253 -1.0438
  468MOL0     C64480   7.152   7.578   9.351 -0.3022 -0.1937  0.6380
  468MOL0     C64481   7.054   7.647   9.280  0.5392 -0.1351  0.0713
  468MOL0     O64482   7.068   7.725   9.162  0.2384  0.6462 -0.1018
  468MOL0     C64483   7.199   7.742   9.129 -0.0313 -0.3971  0.5379
  468MOL0     C64484   7.218   7.846   9.023  1.0713 -0.4504 -1.0944
  468MOL0     C64485   7.362   7.879   8.994  0.0641  0.9220 -0.3665
  468MOL0     C64486   7.371   7.962   8.863  0.3201 -1.1148 -0.5925
  468MOL0     C64487   7.358   7.889   8.735 -1.1080 -0.2989  0.6632
  468MOL0     C64488   7.390   7.984   8.618 -0.1357  0.2132 -1.0634
  468MOL0     C64489   7.530   8.020   8.591 -0.4334 -0.3011  0.1958
  468MOL0     C64490   7.530   8.100   8.462  0.2526 -0.1392 -1.0448
  468MOL0    Cl64491   7.688   8.156   8.412  0.2034  0.2502 -0.1622
  468MOL0     C64492   6.917   7.640   9.326 -0.2386 -0.3554 -0.2310
  468MOL0     C64493   6.881   7.564   9.438  0.6927 -0.1481  0.7956
  468MOL0     O64494   6.935   7.530   9.770 -0.4065  0.0265 -0.2555
  468MOL0     C64495   6.970   7.171   9.754  0.9631  0.4150  0.5213
  468MOL0     C64496   6.974   7.054   9.840  0.6327  0.5365  0.5192
  468MOL0     N64497   7.374   6.880  10.340 -0.3080 -0.6045  0.4230
  468MOL0     N64498   7.497   6.917  10.375  0.0024  0.1315  0.3970
  468MOL0     C64499   8.683   6.175  10.448 -0.3356  0.6664  0.6940
  468MOL0     C64500   8.737   6.038  10.456  0.0448  0.4613 -0.2481
  468MOL0     C64501   8.731   5.572  10.427 -0.0931 -0.7123 -0.6300
  468MOL0     C64502   8.874   5.563  10.394  1.2565 -0.9807 -0.7654
  468MOL0     C64503   8.947   5.442  10.380 -0.2510  0.0261  1.0701
  468MOL0     C64504   8.866   5.331  10.390 -0.1304  0.5143 -0.0672
  468MOL0     O64505   8.918   5.210  10.360  0.2328  1.0216  0.0302
  468MOL0     C64506   9.012   5.161  10.449 -0.1402 -0.8699 -0.0024
  468MOL0     C64507   9.149   5.127  10.386  0.3455  0.1908  0.2401
  468MOL0     C64508   9.125   5.040  10.250  0.4437  0.3612 -0.1529
  468MOL0     C64509   9.246   4.969  10.190  0.2781  0.4495 -0.9546
  468MOL0     C64510   9.299   4.872  10.284  0.0509  0.0180 -0.1037
  468MOL0     C64511   9.336   4.795  10.370 -1.4098 -0.2487 -0.6368
  468MOL0     C64512   8.731   5.337  10.423  0.1133  0.5785  0.4237
  468MOL0     C64513   8.663   5.452  10.451 -0.5296 -0.3752 -0.0273
  468MOL0     C64514   8.513   5.465  10.499 -0.0534 -0.5299  0.1880
  468MOL0     H64515   8.516   5.882  10.247 -0.5268 -0.0583  1.1150
  468MOL0     H64516   8.405   6.095  10.269  2.1410  1.0713 -3.7113
  468MOL0     H64517   8.317   6.303  10.427 -0.3068  2.2319 -0.2108
  468MOL0     H64518   8.378   6.328  10.253  0.4691  0.7714 -0.9307
  468MOL0     H64519   8.364   6.533  10.488  0.4937  1.1236  0.0342
  468MOL0     H64520   8.415   6.573  10.313 -3.5077  1.4185 -1.6170
  468MOL0     H64521   8.179   6.516  10.250 -1.9684  1.9670 -0.3593
  468MOL0     H64522   8.150   6.469  10.428  1.6421  1.8784  2.0344
  468MOL0     H64523   8.204   6.697  10.505 -0.1185  1.5417  0.5037
  468MOL0     H64524   8.210   6.757  10.348 -0.7435 -0.5715 -0.1768
  468MOL0     H64525   7.974   6.767  10.482  0.5145 -0.2189  0.6500
  468MOL0     H64526   7.948   6.596  10.419  0.5020 -0.9639  0.1139
  468MOL0     H64527   7.966   6.860  10.277  1.7468 -0.8133  1.9031
  468MOL0     H64528   7.990   6.713  10.191 -1.3750  0.0560 -1.0664
  468MOL0     H64529   7.749   6.687  10.350 -1.0522  2.9022  1.7513
  468MOL0     H64530   7.754   6.704  10.175 -3.6811  0.4460 -0.0463
  468MOL0     H64531   7.758   6.930  10.384  0.1882  2.0976 -0.4275
  468MOL0     H64532   7.773   6.955  10.213 -0.4624 -0.9899 -0.0263
  468MOL0     H64533   7.555   6.800  10.075  0.9280 -2.9104  1.5541
  468MOL0     H64534   7.294   6.685  10.066 -0.2317 -0.9296  0.8318
  468MOL0     H64535   7.241   6.863  10.059  0.7725 -0.6086 -1.5458
  468MOL0     H64536   7.160   6.688  10.281 -0.3730  1.1919  0.7964
  468MOL0     H64537   7.125   6.858  10.256 -0.6320  1.4173 -0.7269
  468MOL0     H64538   7.043   6.632  10.072  0.8403 -0.7272  0.1466
  468MOL0     H64539   6.946   6.732  10.190  0.3849  0.8669  0.6917
  468MOL0     H64540   7.058   6.799   9.921 -0.3730  0.2360 -0.2330
  468MOL0     H64541   6.889   6.810   9.970 -0.7819  2.9094  1.0431
  468MOL0     H64542   6.917   7.195  10.138 -2.2343 -1.2902 -0.8307
  468MOL0     H64543   6.998   7.501   9.999  0.5553 -0.7101  0.0878
  468MOL0     H64544   6.913   7.439  10.135 -1.7330  2.2548 -0.4128
  468MOL0     H64545   6.816   7.477  10.002  0.2195  2.3738  0.7104
  468MOL0     H64546   7.184   7.435   9.510 -2.6856 -1.7222  2.0493
  468MOL0     H64547   7.255   7.583   9.317 -0.6127  1.1326 -0.1709
  468MOL0     H64548   7.258   7.788   9.209  0.3564  2.7884 -1.4044
  468MOL0     H64549   7.243   7.646   9.100 -2.4664 -2.2545  2.5591
  468MOL0     H64550   7.184   7.814   8.924  2.9395  0.2377 -1.9983
  468MOL0     H64551   7.171   7.943   9.039  2.7683  0.2492 -0.1490
  468MOL0     H64552   7.421   7.787   8.985 -0.2197  0.7100 -0.0991
  468MOL0     H64553   7.396   7.935   9.081  0.9606  0.1368 -0.1956
  468MOL0     H64554   7.470   8.009   8.863  0.1647 -0.7880 -0.1906
  468MOL0     H64555   7.301   8.045   8.877  0.7482 -1.0142  1.1398
  468MOL0     H64556   7.427   7.804   8.732 -0.7401  0.0061 -1.8517
  468MOL0     H64557   7.256   7.850   8.726 -2.4501  2.6300  2.0059
  468MOL0     H64558   7.344   8.080   8.642 -0.6162  0.2732 -2.1408
  468MOL0     H64559   7.343   7.959   8.522 -1.8743 -0.6170 -0.0532
  468MOL0     H64560   7.592   7.936   8.560 -1.6562  0.2302 -4.3923
  468MOL0     H64561   7.568   8.077   8.676 -1.6855  0.8297  0.0249
  468MOL0     H64562   7.461   8.183   8.480  0.3882  0.0088 -1.1892
  468MOL0     H64563   7.484   8.049   8.377 -0.8808 -2.0408  0.6162
  468MOL0     H64564   6.830   7.687   9.282 -1.5343 -1.9070  0.5908
  468MOL0     H64565   6.776   7.560   9.464  0.7811  1.3649  1.4894
  468MOL0     H64566   6.957   7.161   9.647  2.9853  0.3392  0.2389
  468MOL0     H64567   6.984   6.956   9.795 -0.7484  0.1312  1.0591
  468MOL0     H64568   8.730   6.261  10.496  0.0798  1.6116 -1.3028
  468MOL0     H64569   8.821   6.023  10.522  1.7464  2.3363 -1.8679
  468MOL0     H64570   8.927   5.657  10.386  2.3198 -1.6742 -2.2356
  468MOL0     H64571   9.047   5.427  10.341 -0.0442  2.1385  0.7061
  468MOL0     H64572   9.022   5.235  10.529 -0.9056 -0.7338 -0.0283
  468MOL0     H64573   8.965   5.069  10.485  0.7133 -2.2708 -2.2739
  468MOL0     H64574   9.211   5.078  10.462 -0.1842 -0.3533  0.3288
  468MOL0     H64575   9.197   5.222  10.361 -0.2326  0.2978 -0.5236
  468MOL0     H64576   9.040   4.979  10.283 -1.0885  3.3403  1.8728
  468MOL0     H64577   9.088   5.112  10.177 -2.5418  0.2852  1.1358
  468MOL0     H64578   9.326   5.042  10.176  0.6831  0.1215 -0.3788
  468MOL0     H64579   9.215   4.927  10.093  0.5848  0.8047 -1.2102
  468MOL0     H64580   9.385   4.724  10.434 -0.0270 -0.4410 -1.8320
  468MOL0     H64581   8.673   5.245  10.417 -2.4453  2.1407 -0.3440
  468MOL0     H64582   8.452   5.532  10.439 -0.6350  1.5898  2.9042
  468MOL0     H64583   8.474   5.363  10.499  1.2042 -1.0392  0.7626
  468MOL0     H64584   8.505   5.500  10.603  1.2396 -1.1919  0.5417
  469MOL0     O64585   4.089   2.829  10.966  0.4827 -0.1824  0.4627
  469MOL0     C64586   4.035   2.920  10.907  0.0844  0.1903 -0.0640
  469MOL0     O64587   4.007   2.915  10.772  0.3752 -0.0050 -0.5410
  469MOL0     C64588   3.982   2.791  10.716 -0.3585  0.2620  0.5302
  469MOL0     C64589   3.849   2.769  10.672 -0.5514  0.1566 -0.5479
  469MOL0     C64590   3.814   2.644  10.614  0.7640  0.3345  0.9388
  469MOL0     C64591   3.909   2.544  10.609 -0.4898  0.3609 -0.5918
  469MOL0     O64592   3.876   2.408  10.578  0.3782  0.9715  0.1305
  469MOL0     C64593   3.766   2.365  10.493  0.3781  0.2942  0.0560
  469MOL0     C64594   3.807   2.342  10.348 -0.1452  0.7918  0.7259
  469MOL0     C64595   3.699   2.305  10.255  0.5146 -0.4017 -0.1152
  469MOL0     C64596   3.729   2.319  10.109 -0.9225 -0.6840  0.2311
  469MOL0     C64597   3.605   2.275  10.021 -0.4998 -0.0786  0.4180
  469MOL0     C64598   3.512   2.393   9.983 -0.3166 -0.1837  0.2048
  469MOL0     C64599   3.401   2.340   9.887 -0.0359  0.6059 -1.2348
  469MOL0     C64600   3.287   2.267   9.965 -0.0041  0.2521 -0.4255
  469MOL0     N64601   3.215   2.190   9.866  0.1818  0.0413  1.0277
  469MOL0     C64602   3.091   2.145   9.880  0.4763  0.1753 -0.9676
  469MOL0     C64603   3.067   2.077   9.766 -0.2676 -1.1163  0.3703
  469MOL0     C64604   2.935   2.023   9.723 -0.7384  0.2369  0.2280
  469MOL0     C64605   2.825   2.129   9.729 -0.3199  0.0442 -1.1367
  469MOL0     C64606   2.803   2.194   9.598 -0.2391  0.6020 -0.0435
  469MOL0     C64607   2.932   2.276   9.563 -0.2410  0.3468 -0.4279
  469MOL0     O64608   2.944   2.392   9.640 -0.1970 -0.2405 -0.1396
  469MOL0     C64609   3.065   2.455   9.638  0.3073  0.3261 -0.2317
  469MOL0     C64610   3.093   2.558   9.718  0.8170  0.3760 -1.3354
  469MOL0     C64611   3.218   2.617   9.724  0.0830  0.1267 -0.1791
  469MOL0     C64612   3.242   2.723   9.822  0.2257  0.2885  0.5291
  469MOL0     C64613   3.316   2.584   9.629 -0.6624 -0.1106  0.4568
  469MOL0     C64614   3.456   2.646   9.610 -0.9101  0.6723  0.0335
  469MOL0     O64615   3.518   2.673   9.719 -0.1628 -0.6931 -0.7830
  469MOL0     C64616   3.611   2.775   9.706 -0.2045 -0.0752  0.5949
  469MOL0     C64617   3.576   2.911   9.701  1.0936 -0.0834 -0.1943
  469MOL0     C64618   3.677   3.006   9.683  1.0170  0.5982 -0.3794
  469MOL0     C64619   3.801   2.974   9.663 -0.7746  0.7593  0.0056
  469MOL0     O64620   3.899   3.068   9.644 -0.2762 -0.5475 -0.3461
  469MOL0     C64621   3.995   3.063   9.534 -0.4084 -0.4403 -0.1047
  469MOL0     C64622   3.933   3.063   9.394 -0.4894 -0.7926  0.2062
  469MOL0     C64623   3.886   2.930   9.343  0.2105  0.3844 -0.0857
  469MOL0     C64624   3.848   2.926   9.199  0.1929 -0.3704  0.3114
  469MOL0     C64625   3.827   2.778   9.159 -0.4464  0.5580  0.4053
  469MOL0     C64626   3.724   2.699   9.241 -0.1340  0.5902 -0.4333
  469MOL0     C64627   3.679   2.576   9.159 -0.7462  0.1980 -0.4990
  469MOL0     C64628   3.560   2.504   9.219  0.8550  0.0733  0.3880
  469MOL0    Cl64629   3.567   2.342   9.164  0.2121 -0.0408 -0.0137
  469MOL0     C64630   3.839   2.839   9.667 -0.6223  0.3631  0.1990
  469MOL0     C64631   3.747   2.739   9.699  0.4797  0.2708 -0.2409
  469MOL0     O64632   3.494   2.675   9.492  0.1479  0.2515 -0.2959
  469MOL0     C64633   3.281   2.488   9.532  1.0722 -0.2930 -0.0579
  469MOL0     C64634   3.168   2.412   9.551 -0.2972 -1.0960  0.4329
  469MOL0     N64635   3.182   2.063   9.688  0.2594  0.1047 -0.8678
  469MOL0     N64636   3.270   2.131   9.752 -0.1781 -0.0347  1.2715
  469MOL0     C64637   4.041   2.564  10.659  0.2436  0.1412  0.4259
  469MOL0     C64638   4.080   2.681  10.707 -0.4054  0.1681  0.1407
  469MOL0     C64639   4.005   3.038  10.983 -0.0380  0.2663 -0.5270
  469MOL0     C64640   4.089   3.051  11.099 -0.1728  0.3882  0.1440
  469MOL0     C64641   4.070   3.148  11.191  1.2015  0.2708 -0.1898
  469MOL0     C64642   3.982   3.257  11.161 -0.0781  0.2245  0.5676
  469MOL0     O64643   3.969   3.363  11.250  0.6737  0.4675 -0.9529
  469MOL0     C64644   3.843   3.431  11.268 -0.4205  0.0418  0.0786
  469MOL0     C64645   3.853   3.540  11.381 -1.5921  0.7317 -0.0607
  469MOL0     C64646   3.895   3.681  11.347  0.1590 -0.5593  0.2279
  469MOL0     C64647   3.783   3.759  11.301  0.8967 -0.4782 -0.2997
  469MOL0     C64648   3.726   3.711  11.176 -0.4224 -0.3361  0.8178
  469MOL0     C64649   3.678   3.674  11.072 -0.2077 -0.4215 -1.3003
  469MOL0     C64650   3.910   3.252  11.037 -0.1540  0.8429  0.7001
  469MOL0     C64651   3.916   3.141  10.958  0.0220 -0.0683  0.8093
  469MOL0     C64652   3.814   3.150  10.833 -0.5206 -0.3476 -0.7195
  469MOL0     H64653   3.767   2.837  10.688 -1.2296 -0.4970 -1.1637
  469MOL0     H64654   3.710   2.635  10.586  0.9537  0.4466  0.1770
  469MOL0     H64655   3.671   2.418  10.505 -0.3277 -0.2909 -2.4502
  469MOL0     H64656   3.741   2.266  10.533 -2.1322  0.2623 -1.3836
  469MOL0     H64657   3.845   2.439  10.315 -3.7693  1.6028 -1.6947
  469MOL0     H64658   3.891   2.273  10.336  3.0963  4.6387 -0.9764
  469MOL0     H64659   3.658   2.208  10.284 -1.4375  0.1616 -0.8489
  469MOL0     H64660   3.627   2.385  10.275  3.9613  2.3662  2.3892
  469MOL0     H64661   3.762   2.423  10.097  0.4788 -0.9819  1.2994
  469MOL0     H64662   3.811   2.251  10.084 -0.8832 -0.9677  1.1259
  469MOL0     H64663   3.543   2.213  10.087  1.3243 -0.6341  1.7017
  469MOL0     H64664   3.652   2.223   9.937 -0.0982 -0.2724  0.7544
  469MOL0     H64665   3.463   2.427  10.076  1.8372  0.2171  1.2511
  469MOL0     H64666   3.559   2.475   9.929 -2.6072  0.3574 -1.0983
  469MOL0     H64667   3.455   2.274   9.819  1.9606  1.2146 -0.3003
  469MOL0     H64668   3.349   2.426   9.842  1.1681  1.8431 -0.3461
  469MOL0     H64669   3.330   2.205  10.044  0.6766  0.0756 -0.9297
  469MOL0     H64670   3.222   2.339  10.016 -0.3966 -0.2903 -0.1512
  469MOL0     H64671   3.021   2.174   9.957  1.4077 -2.1306  0.8467
  469MOL0     H64672   2.912   1.933   9.780  3.3119 -1.3801 -0.3816
  469MOL0     H64673   2.935   1.975   9.625  0.1325  0.4444  0.1207
  469MOL0     H64674   2.741   2.066   9.757  2.0905 -2.6679  0.5879
  469MOL0     H64675   2.841   2.197   9.813 -0.8180 -1.3985  0.1505
  469MOL0     H64676   2.773   2.119   9.525  4.5007 -1.8462  0.1011
  469MOL0     H64677   2.719   2.264   9.600  0.0787  1.1792 -2.6129
  469MOL0     H64678   3.014   2.205   9.574 -0.8810 -0.0887  2.9283
  469MOL0     H64679   2.927   2.315   9.462 -1.4031  1.3384 -0.0088
  469MOL0     H64680   3.024   2.595   9.792  0.4617 -0.4785 -1.2300
  469MOL0     H64681   3.300   2.687   9.907  1.1919 -1.2030 -0.7313
  469MOL0     H64682   3.152   2.770   9.864  1.9655  6.1307 -1.3345
  469MOL0     H64683   3.302   2.798   9.770 -0.1707  0.1429 -0.1443
  469MOL0     H64684   3.475   2.949   9.710  1.5797  1.6901 -1.6391
  469MOL0     H64685   3.651   3.111   9.677 -2.4754 -0.2060 -2.0480
  469MOL0     H64686   4.077   3.134   9.545  2.1926 -3.1907 -0.3852
  469MOL0     H64687   4.061   2.977   9.551 -0.3066 -0.1826  0.8156
  469MOL0     H64688   3.849   3.134   9.399 -0.4298 -0.7518  0.6896
  469MOL0     H64689   4.014   3.099   9.330  0.5127 -1.4786  1.0537
  469MOL0     H64690   3.799   2.895   9.399 -0.7477 -1.7242 -2.6742
  469MOL0     H64691   3.967   2.858   9.359 -0.7910 -0.9009 -0.6870
  469MOL0     H64692   3.921   2.978   9.137  1.6567 -1.1026  1.3483
  469MOL0     H64693   3.750   2.970   9.182 -0.7263 -2.3811  0.0799
  469MOL0     H64694   3.802   2.792   9.053  0.3650  1.4787  0.3145
  469MOL0     H64695   3.919   2.722   9.175 -1.4015 -1.2334 -0.1251
  469MOL0     H64696   3.641   2.770   9.252  0.0956  0.6296  1.2460
  469MOL0     H64697   3.761   2.672   9.340  0.6770 -2.3821 -1.4618
  469MOL0     H64698   3.776   2.525   9.161  2.0089  4.8388 -0.4519
  469MOL0     H64699   3.663   2.604   9.055 -0.8641 -1.3785 -0.9248
  469MOL0     H64700   3.467   2.549   9.184  0.7186  0.1477  0.8422
  469MOL0     H64701   3.558   2.498   9.328  1.2059 -3.3732  0.3083
  469MOL0     H64702   3.943   2.814   9.647 -0.5421 -1.8763  2.8754
  469MOL0     H64703   3.775   2.634   9.707 -2.0781 -0.3970  0.9267
  469MOL0     H64704   3.349   2.469   9.449 -0.8595  1.1100 -2.0919
  469MOL0     H64705   3.150   2.350   9.464  1.8207 -1.3202  0.1113
  469MOL0     H64706   4.110   2.481  10.647  0.4017  0.3943 -0.4505
  469MOL0     H64707   4.183   2.688  10.741 -0.1383 -0.5978 -0.4743
  469MOL0     H64708   4.158   2.973  11.131 -0.6166 -0.6435 -1.2966
  469MOL0     H64709   4.121   3.130  11.286 -0.0962 -2.4347  0.0752
  469MOL0     H64710   3.800   3.467  11.174 -3.9863 -1.0679  1.0963
  469MOL0     H64711   3.766   3.364  11.308 -1.7950 -0.3516 -2.9891
  469MOL0     H64712   3.926   3.498  11.451  1.2557  1.5431 -2.3457
  469MOL0     H64713   3.759   3.537  11.437 -1.5014 -3.1464  0.0999
  469MOL0     H64714   3.939   3.732  11.433 -1.1656  4.0359 -1.4902
  469MOL0     H64715   3.971   3.671  11.269  0.4213  0.1075  0.3889
  469MOL0     H64716   3.828   3.856  11.281  2.2256 -1.3239 -1.7061
  469MOL0     H64717   3.716   3.761  11.388  2.4440  1.3814  0.9107
  469MOL0     H64718   3.646   3.642  10.975  1.2219  1.6240 -2.5277
  469MOL0     H64719   3.852   3.336  10.999 -1.6293  0.6815  2.4833
  469MOL0     H64720   3.739   3.228  10.846  0.5921  0.3779  2.3357
  469MOL0     H64721   3.876   3.166  10.745  0.0872 -2.1289 -0.6631
  469MOL0     H64722   3.772   3.051  10.813 -2.0940 -0.9252  4.0659
  470MOL0     O64723   3.303   8.455   1.251 -0.7811 -0.1376  0.3999
  470MOL0     C64724   3.415   8.426   1.299 -0.6403  0.5710  0.2439
  470MOL0     O64725   3.496   8.513   1.361 -0.2259 -0.2254 -0.0166
  470MOL0     C64726   3.454   8.640   1.395  0.6798 -0.0565 -0.5173
  470MOL0     C64727   3.430   8.743   1.297  0.6497  0.5951 -0.3130
  470MOL0     C64728   3.380   8.872   1.336 -0.7200  0.1861  0.0034
  470MOL0     C64729   3.345   8.898   1.470 -0.2415  0.2906  0.2569
  470MOL0     O64730   3.269   9.005   1.496 -0.2221 -0.6868 -0.3467
  470MOL0     C64731   3.195   9.008   1.616  0.3750  0.2715 -0.7103
  470MOL0     C64732   3.079   9.110   1.608 -0.3284 -0.2531 -0.0865
  470MOL0     C64733   3.029   9.133   1.468 -0.5355  0.5797  0.1514
  470MOL0     C64734   2.903   9.226   1.477 -0.5076  0.5395 -0.2280
  470MOL0     C64735   2.836   9.243   1.345 -0.8241 -0.9270 -0.7229
  470MOL0     C64736   2.928   9.270   1.227  0.2671  0.3898  0.6177
  470MOL0     C64737   2.844   9.273   1.098 -0.6903 -0.1680  0.1132
  470MOL0     C64738   2.926   9.334   0.983  0.3390 -0.5562 -0.1560
  470MOL0     N64739   2.846   9.328   0.854 -0.4627 -0.0678  0.7417
  470MOL0     C64740   2.810   9.434   0.781 -0.4493 -0.0764  0.9688
  470MOL0     C64741   2.721   9.389   0.699  0.9666 -0.4084  0.6938
  470MOL0     C64742   2.624   9.477   0.627 -0.4126  0.4073  0.1428
  470MOL0     C64743   2.493   9.489   0.696  0.5016 -0.2324  0.4083
  470MOL0     C64744   2.397   9.576   0.612 -0.0457 -0.3495  0.2725
  470MOL0     C64745   2.259   9.600   0.686 -0.2628 -0.9287  0.8312
  470MOL0     O64746   2.216   9.466   0.714 -0.1123 -0.7649 -0.2896
  470MOL0     C64747   2.091   9.454   0.759  0.2359 -0.0204  0.3198
  470MOL0     C64748   1.991   9.393   0.685  0.4780  0.0405 -0.0612
  470MOL0     C64749   1.866   9.367   0.744  0.1680 -0.0023 -1.1866
  470MOL0     C64750   1.777   9.290   0.657  0.4899  0.1474  0.1020
  470MOL0     C64751   1.839   9.405   0.876  0.6761  0.2526 -0.1095
  470MOL0     C64752   1.706   9.393   0.941 -0.8775 -0.2299 -0.0334
  470MOL0     O64753   1.625   9.289   0.903 -0.3378  0.1599 -1.4973
  470MOL0     C64754   1.497   9.297   0.947  0.0440  0.1097 -0.5624
  470MOL0     C64755   1.473   9.254   1.080  0.5449 -1.1674  0.1511
  470MOL0     C64756   1.350   9.267   1.133  0.0553  0.3395  0.0301
  470MOL0     C64757   1.247   9.321   1.060  0.2891  0.6036  0.4290
  470MOL0     O64758   1.115   9.332   1.106  0.2645  0.3002  0.0913
  470MOL0     C64759   1.104   9.403   1.228 -1.3780 -0.0795 -0.2503
  470MOL0     C64760   0.968   9.363   1.303 -0.4893 -0.0192  0.0972
  470MOL0     C64761   0.984   9.228   1.360 -0.0110 -0.1360  0.7186
  470MOL0     C64762   0.877   9.196   1.457  0.1150  0.9746  0.1442
  470MOL0     C64763   0.883   9.048   1.487  0.1507 -0.8617 -0.0844
  470MOL0     C64764   0.773   9.016   1.584 -0.7091 -1.0468 -0.7862
  470MOL0     C64765   0.758   8.865   1.595  0.5165 -0.5923 -0.8326
  470MOL0     C64766   0.676   8.806   1.714 -0.3991  0.0970  0.1965
  470MOL0    Cl64767   0.502   8.853   1.712 -0.3805  0.0005  0.0932
  470MOL0     C64768   1.268   9.363   0.924 -0.7607  0.2361 -0.0821
  470MOL0     C64769   1.397   9.361   0.865  0.4732 -0.0778 -0.3080
  470MOL0     O64770   1.681   9.475   1.028 -0.5546 -0.7303 -0.2983
  470MOL0     C64771   1.940   9.478   0.948  0.1105 -0.0261 -0.5311
  470MOL0     C64772   2.067   9.496   0.891  0.1482 -0.0290  0.0046
  470MOL0     N64773   2.710   9.254   0.704  0.1452  0.4356  0.1358
  470MOL0     N64774   2.789   9.215   0.802 -0.5327 -0.2326  0.5311
  470MOL0     C64775   3.386   8.804   1.569 -0.2805 -0.5402 -0.6677
  470MOL0     C64776   3.438   8.673   1.532 -0.5534 -1.0657  1.0350
  470MOL0     C64777   3.460   8.289   1.275 -0.2190  0.0825 -0.0192
  470MOL0     C64778   3.430   8.217   1.152 -0.2157 -0.2850 -1.1802
  470MOL0     C64779   3.467   8.091   1.129  0.4045 -0.0801  0.1139
  470MOL0     C64780   3.549   8.020   1.226 -0.8467  1.1502  0.8856
  470MOL0     O64781   3.621   7.900   1.209  0.8464  0.6384 -0.8273
  470MOL0     C64782   3.572   7.799   1.110 -0.5916 -0.8113 -0.2776
  470MOL0     C64783   3.674   7.690   1.085 -0.8041 -0.1119  0.1029
  470MOL0     C64784   3.785   7.716   0.972 -0.1733 -0.3257 -0.7906
  470MOL0     C64785   3.721   7.743   0.830 -0.4398  0.4616  0.6822
  470MOL0     C64786   3.688   7.612   0.770  0.4994  0.3837 -0.2002
  470MOL0     C64787   3.661   7.509   0.726  0.2833  0.6627 -0.0669
  470MOL0     C64788   3.580   8.082   1.347 -0.4061 -0.4795  0.0040
  470MOL0     C64789   3.533   8.214   1.368  0.1754 -0.6483 -0.2945
  470MOL0     C64790   3.565   8.275   1.499  0.7571  0.6282  0.2164
  470MOL0     H64791   3.445   8.716   1.193  0.2234 -0.3400 -0.1438
  470MOL0     H64792   3.337   8.939   1.263 -1.9542  1.1474  1.5430
  470MOL0     H64793   3.267   9.045   1.690  0.9847 -2.5418  0.2139
  470MOL0     H64794   3.150   8.913   1.647  0.8369 -0.1321 -1.2855
  470MOL0     H64795   3.000   9.087   1.680  2.1718 -2.2161  2.2417
  470MOL0     H64796   3.106   9.211   1.640  3.8310 -1.4945  0.9022
  470MOL0     H64797   3.111   9.164   1.402 -0.7665 -1.4101 -1.1612
  470MOL0     H64798   3.001   9.037   1.422  1.2344  1.3736 -2.8373
  470MOL0     H64799   2.825   9.189   1.543 -0.9226  3.9839  1.4235
  470MOL0     H64800   2.932   9.319   1.527  1.3842 -0.3937  0.4758
  470MOL0     H64801   2.765   9.325   1.361  1.8084  0.8813  3.1146
  470MOL0     H64802   2.784   9.150   1.322 -1.7209 -1.2507  2.2723
  470MOL0     H64803   2.984   9.363   1.237 -1.4243  1.6785 -1.1630
  470MOL0     H64804   2.989   9.179   1.217 -5.7454 -4.0400 -2.8317
  470MOL0     H64805   2.747   9.320   1.115 -0.9158 -0.5316 -0.1456
  470MOL0     H64806   2.825   9.169   1.070  1.9839 -0.2282 -1.8255
  470MOL0     H64807   2.967   9.434   1.004 -0.7133 -0.0128 -0.6306
  470MOL0     H64808   3.002   9.256   0.973 -1.2887 -1.9004 -3.8796
  470MOL0     H64809   2.840   9.537   0.795 -0.6491  0.0583  0.4413
  470MOL0     H64810   2.621   9.430   0.528  1.4211 -1.2327  0.8060
  470MOL0     H64811   2.670   9.576   0.619 -3.2653  1.8585  0.4776
  470MOL0     H64812   2.450   9.389   0.708 -0.4738 -0.4130 -3.1858
  470MOL0     H64813   2.506   9.542   0.791 -1.1909  0.7395  0.1588
  470MOL0     H64814   2.455   9.667   0.591 -0.5437 -0.7788 -3.8143
  470MOL0     H64815   2.378   9.528   0.516 -4.4014 -1.7309  1.5800
  470MOL0     H64816   2.275   9.664   0.773 -1.4596  0.1045  0.3149
  470MOL0     H64817   2.193   9.652   0.615  2.1545 -1.2492 -1.8606
  470MOL0     H64818   2.013   9.365   0.583 -0.3403 -0.1104 -0.2062
  470MOL0     H64819   1.773   9.185   0.689 -1.2079 -0.5755 -2.1839
  470MOL0     H64820   1.809   9.278   0.553 -1.2263  2.1419 -0.7225
  470MOL0     H64821   1.674   9.326   0.646  0.2546 -0.3304  0.6934
  470MOL0     H64822   1.547   9.198   1.137  0.1623 -0.9879  0.8273
  470MOL0     H64823   1.330   9.214   1.225  2.4785 -2.8089 -1.0851
  470MOL0     H64824   1.184   9.380   1.299 -1.5118 -0.2444 -0.1508
  470MOL0     H64825   1.095   9.511   1.216 -2.8035 -0.0851  0.4618
  470MOL0     H64826   0.948   9.438   1.380  1.6471 -0.1869  0.9005
  470MOL0     H64827   0.891   9.370   1.226 -0.4942 -0.1404  0.0906
  470MOL0     H64828   1.084   9.228   1.405  2.1836 -0.4335 -3.6385
  470MOL0     H64829   0.988   9.152   1.282  0.6973  1.2222 -0.6126
  470MOL0     H64830   0.777   9.206   1.415 -0.1558 -0.5864  0.3608
  470MOL0     H64831   0.888   9.267   1.539  0.7533  3.8390 -2.2689
  470MOL0     H64832   0.881   8.996   1.391 -1.7607  0.5439 -0.8725
  470MOL0     H64833   0.977   9.019   1.536 -0.5453 -0.9492  1.2591
  470MOL0     H64834   0.685   9.065   1.543  0.9160  4.2673  1.2418
  470MOL0     H64835   0.801   9.069   1.676 -1.8804  1.0539 -1.5812
  470MOL0     H64836   0.856   8.822   1.614  0.8390  0.2578 -0.5241
  470MOL0     H64837   0.704   8.842   1.503  1.7149 -2.9115 -1.0204
  470MOL0     H64838   0.714   8.828   1.814 -0.5265  1.1543  0.0213
  470MOL0     H64839   0.686   8.697   1.703 -1.4191  0.0482 -0.4033
  470MOL0     H64840   1.189   9.399   0.860  0.8727  3.8660 -0.3452
  470MOL0     H64841   1.409   9.394   0.762  0.1433  1.6318  0.1666
  470MOL0     H64842   1.940   9.505   1.053  2.6946  4.4299 -1.4252
  470MOL0     H64843   2.143   9.550   0.947  0.2668 -0.4054  0.2091
  470MOL0     H64844   3.349   8.810   1.671 -1.7475 -0.2170 -1.1925
  470MOL0     H64845   3.467   8.602   1.608 -1.9857 -2.4791  0.3261
  470MOL0     H64846   3.380   8.277   1.077 -1.3006  2.3452  1.4248
  470MOL0     H64847   3.445   8.054   1.029  0.8554 -1.3467  0.4661
  470MOL0     H64848   3.492   7.738   1.151  3.0488 -5.0661  1.4164
  470MOL0     H64849   3.547   7.849   1.016  5.4622  0.5263 -1.6363
  470MOL0     H64850   3.614   7.600   1.068 -0.0313 -0.6968  0.3986
  470MOL0     H64851   3.724   7.671   1.181  0.5132 -0.9078 -0.7079
  470MOL0     H64852   3.827   7.808   1.013 -0.8289  0.3244 -1.5751
  470MOL0     H64853   3.860   7.636   0.974  2.1229  1.7242  0.4015
  470MOL0     H64854   3.791   7.805   0.774 -1.5151  0.0193 -1.2572
  470MOL0     H64855   3.630   7.801   0.847 -0.2198 -0.0174  4.2313
  470MOL0     H64856   3.637   7.417   0.676  2.0948 -0.0406  0.2965
  470MOL0     H64857   3.655   8.042   1.414  1.3260 -0.7006 -1.9651
  470MOL0     H64858   3.482   8.341   1.524  1.9536  1.6886  1.4997
  470MOL0     H64859   3.575   8.198   1.576 -2.3632 -0.7884 -0.6104
  470MOL0     H64860   3.666   8.314   1.497  1.4039 -0.7403  2.5480
  471MOL0     O64861   7.310   6.601   1.708 -0.8119  0.1750 -0.2945
  471MOL0     C64862   7.432   6.636   1.694  1.1670 -0.5243  0.4820
  471MOL0     O64863   7.513   6.669   1.800  0.4829 -0.3095  0.2124
  471MOL0     C64864   7.454   6.685   1.916 -0.0574 -0.1057 -0.8767
  471MOL0     C64865   7.447   6.576   2.001  0.1577 -0.3734 -0.5977
  471MOL0     C64866   7.402   6.587   2.127 -0.0323 -0.0852 -1.3625
  471MOL0     C64867   7.354   6.708   2.178 -1.1701 -0.4140 -0.0957
  471MOL0     O64868   7.309   6.727   2.305  0.5462 -0.2791 -0.1094
  471MOL0     C64869   7.414   6.739   2.403  0.1033 -0.3344 -0.8030
  471MOL0     C64870   7.369   6.831   2.525 -0.3149 -0.3523  0.1836
  471MOL0     C64871   7.341   6.969   2.470 -0.7745 -0.2833  0.3098
  471MOL0     C64872   7.323   7.074   2.589 -0.6646 -0.8729 -0.2556
  471MOL0     C64873   7.451   7.091   2.680  0.4201  0.5207  0.4043
  471MOL0     C64874   7.572   7.149   2.605  0.1327 -0.7666  0.2029
  471MOL0     C64875   7.688   7.157   2.704 -0.2040  0.6757 -0.3401
  471MOL0     C64876   7.817   7.199   2.636  1.0572 -0.2296 -0.8100
  471MOL0     N64877   7.924   7.199   2.741 -0.0730 -0.4758  0.2972
  471MOL0     C64878   8.039   7.125   2.720  0.3290 -0.8838  0.3422
  471MOL0     C64879   8.115   7.161   2.829 -0.4857 -0.2034  0.2189
  471MOL0     C64880   8.250   7.114   2.865 -0.6851  0.2615 -1.3474
  471MOL0     C64881   8.336   7.100   2.746 -0.3017  0.4274 -0.0101
  471MOL0     C64882   8.417   7.219   2.725 -1.1003  0.1798  0.4258
  471MOL0     C64883   8.512   7.208   2.612 -0.3595 -0.3351 -0.0752
  471MOL0     O64884   8.615   7.104   2.643  0.3059 -0.4636 -0.1736
  471MOL0     C64885   8.690   7.045   2.546 -0.6908  0.4151  0.1122
  471MOL0     C64886   8.726   7.101   2.426  0.2784 -0.4297 -0.1085
  471MOL0     C64887   8.812   7.037   2.330  0.0122  0.4744  0.3496
  471MOL0     C64888   8.833   7.106   2.204  0.4288  0.4980  0.3053
  471MOL0     C64889   8.843   6.905   2.356  0.3182  0.1948 -0.5273
  471MOL0     C64890   8.915   6.821   2.258  0.4909  0.9452  1.0712
  471MOL0     O64891   8.910   6.689   2.279  0.7915 -0.2390  0.2023
  471MOL0     C64892   8.919   6.609   2.175 -0.6202  0.0270  0.5603
  471MOL0     C64893   9.045   6.608   2.106  1.0600  0.4292 -0.0513
  471MOL0     C64894   9.062   6.517   2.004  0.7265  0.1106 -0.4303
  471MOL0     C64895   8.949   6.427   1.967 -0.2526 -0.1286 -0.0849
  471MOL0     O64896   8.962   6.343   1.861  0.3823  0.6564  0.8557
  471MOL0     C64897   8.916   6.204   1.883 -0.3061  0.5910  0.1602
  471MOL0     C64898   8.971   6.097   1.790  0.1376 -0.8380 -0.1998
  471MOL0     C64899   8.878   5.979   1.765  0.1146 -0.4162 -0.5198
  471MOL0     C64900   8.803   5.932   1.888  0.2452  0.4947 -0.0125
  471MOL0     C64901   8.686   5.842   1.858  0.1939  0.5813  0.3882
  471MOL0     C64902   8.722   5.693   1.864  0.0481  0.4618  0.4089
  471MOL0     C64903   8.805   5.650   1.739  0.6023 -0.9953  0.0417
  471MOL0     C64904   8.795   5.502   1.693  0.4837  0.7788 -0.3078
  471MOL0    Cl64905   8.834   5.379   1.825  0.1034  0.2018 -0.2546
  471MOL0     C64906   8.823   6.441   2.036  0.2973  1.1029  0.2298
  471MOL0     C64907   8.811   6.529   2.137 -0.1174  0.0758  0.3289
  471MOL0     O64908   8.946   6.870   2.149 -0.0940 -0.1055 -0.8991
  471MOL0     C64909   8.808   6.847   2.478 -0.3716 -0.5414  0.1732
  471MOL0     C64910   8.738   6.921   2.574  0.8699  0.0755 -0.5987
  471MOL0     N64911   8.047   7.253   2.900  0.0648  0.4170 -0.3935
  471MOL0     N64912   7.933   7.280   2.845  0.0504  0.7579 -0.4252
  471MOL0     C64913   7.354   6.819   2.087  1.6663  0.5936 -0.4192
  471MOL0     C64914   7.404   6.810   1.956 -0.2458  0.4202 -0.2918
  471MOL0     C64915   7.506   6.644   1.563 -0.7225  0.5897  0.2646
  471MOL0     C64916   7.642   6.701   1.556 -0.1933 -0.6319  0.2459
  471MOL0     C64917   7.709   6.729   1.430  0.4716 -0.0101  0.0637
  471MOL0     C64918   7.650   6.672   1.314 -0.6486 -0.2955  0.3019
  471MOL0     O64919   7.715   6.689   1.192  0.1454 -0.4353 -0.0550
  471MOL0     C64920   7.677   6.619   1.074 -0.0395 -0.2664  0.4695
  471MOL0     C64921   7.755   6.674   0.963 -0.0416 -0.1278  1.0588
  471MOL0     C64922   7.746   6.596   0.832 -0.1349 -0.4907 -0.7478
  471MOL0     C64923   7.795   6.682   0.719  0.7569  0.6292 -0.5588
  471MOL0     C64924   7.719   6.806   0.690  0.3336  0.7444  0.0831
  471MOL0     C64925   7.658   6.909   0.665  0.1541 -0.1177  0.1773
  471MOL0     C64926   7.530   6.601   1.323 -0.1002 -0.1406 -0.7432
  471MOL0     C64927   7.455   6.588   1.445  0.2991 -1.0690 -0.0505
  471MOL0     C64928   7.328   6.508   1.436 -0.1789 -0.1333  0.0447
  471MOL0     H64929   7.477   6.474   1.979 -2.7916 -1.2930 -0.7996
  471MOL0     H64930   7.402   6.501   2.193  1.9406  1.4870  0.8375
  471MOL0     H64931   7.495   6.797   2.357  0.1155  2.1855  2.0932
  471MOL0     H64932   7.451   6.641   2.432 -0.4208 -0.4070 -0.3670
  471MOL0     H64933   7.280   6.778   2.560 -1.2828  0.7457 -0.5241
  471MOL0     H64934   7.446   6.830   2.603  0.3741  0.9924 -0.4438
  471MOL0     H64935   7.408   7.013   2.396 -0.6316 -0.3136  0.4214
  471MOL0     H64936   7.239   6.961   2.431 -1.9104  2.7789  2.1952
  471MOL0     H64937   7.298   7.172   2.546  3.9294  0.5642 -0.1907
  471MOL0     H64938   7.238   7.033   2.644 -1.8132 -1.5374 -2.4284
  471MOL0     H64939   7.480   6.998   2.730  1.0530  0.7723  0.5128
  471MOL0     H64940   7.425   7.166   2.755  1.1864 -0.1175  1.3310
  471MOL0     H64941   7.601   7.085   2.522  0.6457 -1.3255  0.8012
  471MOL0     H64942   7.545   7.245   2.561  1.7325 -1.2167 -1.9376
  471MOL0     H64943   7.705   7.054   2.737 -3.0684 -0.2621 -1.5054
  471MOL0     H64944   7.668   7.221   2.790 -0.5294  0.1193  0.0072
  471MOL0     H64945   7.844   7.139   2.549  0.3521  0.8585 -1.8144
  471MOL0     H64946   7.793   7.298   2.596 -3.2880 -0.8339 -0.1816
  471MOL0     H64947   8.061   7.055   2.641  1.0146 -0.9417  0.5767
  471MOL0     H64948   8.246   7.019   2.918 -2.2376  0.8240 -0.3948
  471MOL0     H64949   8.293   7.178   2.943 -0.2203 -0.7777 -0.7416
  471MOL0     H64950   8.402   7.014   2.758 -2.5676 -1.2647  0.9435
  471MOL0     H64951   8.275   7.073   2.659  0.8399 -2.5655 -0.0030
  471MOL0     H64952   8.356   7.306   2.701 -1.0707 -0.0383 -0.4744
  471MOL0     H64953   8.474   7.242   2.815 -3.6429  1.4556  1.8198
  471MOL0     H64954   8.462   7.169   2.524 -2.9650  2.0094  0.2463
  471MOL0     H64955   8.555   7.308   2.598  0.0270 -0.3941  0.5927
  471MOL0     H64956   8.669   7.192   2.410 -0.9959 -1.0122  0.8900
  471MOL0     H64957   8.789   7.206   2.199 -1.5571 -0.3779 -2.6539
  471MOL0     H64958   8.782   7.044   2.129  2.1637  0.3259 -0.7940
  471MOL0     H64959   8.937   7.110   2.170  0.3536 -2.0487 -0.4429
  471MOL0     H64960   9.118   6.678   2.144  0.2102  1.3035 -0.0024
  471MOL0     H64961   9.146   6.513   1.936 -0.3441  2.2598 -1.9801
  471MOL0     H64962   8.929   6.173   1.987 -2.9161 -1.1023  0.0851
  471MOL0     H64963   8.812   6.224   1.856 -0.9715 -4.5454 -2.1133
  471MOL0     H64964   9.000   6.141   1.694  1.1699  0.9506  0.8800
  471MOL0     H64965   9.063   6.063   1.836  0.0507 -0.7491  0.0400
  471MOL0     H64966   8.930   5.897   1.715  0.4376 -1.3417  1.2525
  471MOL0     H64967   8.795   6.012   1.703 -2.6442 -1.3140  2.3921
  471MOL0     H64968   8.774   6.020   1.946 -1.3605  0.7298 -1.1285
  471MOL0     H64969   8.870   5.877   1.956 -0.6103  0.4712  0.8254
  471MOL0     H64970   8.602   5.865   1.925  2.3542 -0.1887  3.6325
  471MOL0     H64971   8.646   5.864   1.759 -2.7266  2.9061  1.9264
  471MOL0     H64972   8.639   5.623   1.853  1.3132 -1.0012 -0.1006
  471MOL0     H64973   8.763   5.662   1.960 -1.0616  0.0310  0.7627
  471MOL0     H64974   8.909   5.659   1.772  0.8737 -2.3304 -0.4254
  471MOL0     H64975   8.781   5.718   1.656  1.5704  3.3464  2.9537
  471MOL0     H64976   8.843   5.486   1.596 -2.2772 -1.3052 -1.4528
  471MOL0     H64977   8.688   5.492   1.674 -0.1599 -0.2597  3.1044
  471MOL0     H64978   8.732   6.384   2.018  0.3171  2.1235 -4.1947
  471MOL0     H64979   8.711   6.547   2.173 -0.5885 -2.8887  0.7401
  471MOL0     H64980   8.828   6.746   2.510 -0.1401 -0.9008 -1.0226
  471MOL0     H64981   8.716   6.881   2.672  1.9726 -1.0038 -0.7572
  471MOL0     H64982   7.309   6.907   2.131  0.6293 -1.8944  4.1094
  471MOL0     H64983   7.403   6.905   1.903 -1.2160  1.1278  0.9510
  471MOL0     H64984   7.696   6.741   1.641  1.0042 -0.7692 -0.4328
  471MOL0     H64985   7.798   6.790   1.439  0.4187 -0.1905  2.4510
  471MOL0     H64986   7.696   6.514   1.099  0.1714 -0.1717  0.7154
  471MOL0     H64987   7.569   6.633   1.062 -0.1576  0.8245  2.4580
  471MOL0     H64988   7.862   6.682   0.984  0.1443  1.0237 -0.1922
  471MOL0     H64989   7.720   6.776   0.944  2.3029  0.6578  0.7033
  471MOL0     H64990   7.798   6.500   0.836  2.0373  0.6931  0.8035
  471MOL0     H64991   7.643   6.569   0.805  0.2240 -1.3419 -1.3505
  471MOL0     H64992   7.802   6.628   0.624 -1.2074  1.2407 -1.1158
  471MOL0     H64993   7.897   6.711   0.745  0.6200  0.3119  0.3598
  471MOL0     H64994   7.597   6.994   0.644  1.9086  2.2818  3.6736
  471MOL0     H64995   7.480   6.568   1.231 -0.6815  2.7136 -1.5345
  471MOL0     H64996   7.348   6.440   1.353  1.2012  0.5568 -0.2108
  471MOL0     H64997   7.316   6.447   1.527  1.8839  0.3381  0.6824
  471MOL0     H64998   7.252   6.584   1.415  0.8420  1.6088  2.2317
  472MOL0     O64999   6.754   9.424   4.168 -0.3171 -0.3449 -0.8538
  472MOL0     C65000   6.807   9.517   4.116  0.9290  0.5973  1.0847
  472MOL0     O65001   6.755   9.639   4.099  0.0437  0.5535 -0.6633
  472MOL0     C65002   6.807   9.726   4.003 -0.1290 -0.2363  0.7199
  472MOL0     C65003   6.835   9.674   3.873 -0.7356 -0.0011  0.2815
  472MOL0     C65004   6.887   9.749   3.776  0.7712  0.9470  0.0809
  472MOL0     C65005   6.908   9.890   3.804  1.2284  0.5147 -0.0713
  472MOL0     O65006   6.964   9.978   3.716  0.0614  0.9141  0.7791
  472MOL0     C65007   6.962   9.937   3.578 -0.2790  0.0134 -0.5358
  472MOL0     C65008   6.989  10.068   3.497  0.0660 -0.5077  0.0423
  472MOL0     C65009   7.132  10.137   3.498  1.0096 -0.4052 -0.9935
  472MOL0     C65010   7.196  10.136   3.635 -0.1664 -0.0391 -0.7542
  472MOL0     C65011   7.332  10.196   3.638  0.6082  0.0050  0.7544
  472MOL0     C65012   7.429  10.128   3.540 -0.2314 -0.4536  1.0203
  472MOL0     C65013   7.575  10.132   3.582  0.3957 -1.3236  0.0117
  472MOL0     C65014   7.619  10.072   3.713  0.7018  0.8515  0.7825
  472MOL0     N65015   7.641   9.928   3.704 -0.0822  0.3327 -0.5127
  472MOL0     C65016   7.723   9.864   3.614 -1.1156  0.2086 -0.1760
  472MOL0     C65017   7.734   9.734   3.658  1.3574 -0.8006 -0.2215
  472MOL0     C65018   7.821   9.626   3.611  0.3078 -0.5188 -0.0408
  472MOL0     C65019   7.742   9.519   3.534  0.6539  0.4917  0.5488
  472MOL0     C65020   7.705   9.562   3.396  0.5408  0.5186 -0.3324
  472MOL0     C65021   7.629   9.468   3.310  0.1841 -0.8356 -0.1959
  472MOL0     O65022   7.612   9.532   3.179  0.6898 -0.4820 -0.5025
  472MOL0     C65023   7.486   9.558   3.127 -0.5226 -0.0962  0.0298
  472MOL0     C65024   7.485   9.637   3.015  0.3152  0.0196 -0.4935
  472MOL0     C65025   7.370   9.662   2.946  0.5936  0.3010  0.4908
  472MOL0     C65026   7.374   9.770   2.837 -0.6053  0.4207  0.1135
  472MOL0     C65027   7.252   9.593   2.983  0.3042 -0.3116  0.3241
  472MOL0     C65028   7.120   9.601   2.911 -0.1097 -0.1716  0.0887
  472MOL0     O65029   7.041   9.488   2.904  0.5277 -0.1904  0.6372
  472MOL0     C65030   6.962   9.469   2.789 -0.3949 -0.6673 -0.3816
  472MOL0     C65031   6.872   9.364   2.801  0.2071 -0.2422  0.0985
  472MOL0     C65032   6.787   9.345   2.684 -0.1302  1.2552  0.5064
  472MOL0     C65033   6.802   9.406   2.557  1.0528  0.4076  0.8725
  472MOL0     O65034   6.741   9.359   2.436 -0.4128 -0.3157  0.5118
  472MOL0     C65035   6.613   9.286   2.442  1.3699  0.0211 -0.2271
  472MOL0     C65036   6.594   9.214   2.306  0.1564 -0.3014 -0.5639
  472MOL0     C65037   6.470   9.130   2.310  0.9969 -0.1460 -0.6285
  472MOL0     C65038   6.462   9.042   2.181 -0.6431 -0.8716 -0.8993
  472MOL0     C65039   6.352   8.926   2.187 -0.4415  0.8077  0.6149
  472MOL0     C65040   6.214   8.984   2.175 -0.0331  0.6741  0.3069
  472MOL0     C65041   6.096   8.886   2.208  0.4683  0.2073  0.8448
  472MOL0     C65042   5.961   8.940   2.154 -0.3464  0.0596 -0.1243
  472MOL0    Cl65043   5.974   8.967   1.972 -0.3940 -0.1082 -0.0979
  472MOL0     C65044   6.909   9.498   2.550 -0.6344 -0.4995 -0.2871
  472MOL0     C65045   6.982   9.533   2.671  0.2206  1.3514 -0.2131
  472MOL0     O65046   7.094   9.710   2.862 -0.4218 -0.4484 -0.0339
  472MOL0     C65047   7.253   9.517   3.105  0.1439 -0.5033  0.4622
  472MOL0     C65048   7.365   9.505   3.174 -0.1865  0.3599 -0.3951
  472MOL0     N65049   7.641   9.718   3.765  0.4202 -0.3780  0.4195
  472MOL0     N65050   7.603   9.833   3.796  0.1775 -0.3716  0.9042
  472MOL0     C65051   6.877   9.942   3.931 -0.1213  0.1576  0.7691
  472MOL0     C65052   6.829   9.858   4.031 -0.0143  0.0439  0.4856
  472MOL0     C65053   6.951   9.490   4.108  0.0793 -0.9705  0.5783
  472MOL0     C65054   6.992   9.385   4.019  0.3768  1.2990  0.0618
  472MOL0     C65055   7.128   9.347   4.000 -1.3411  0.3620 -0.1184
  472MOL0     C65056   7.225   9.416   4.069 -0.8072  0.3576  0.5955
  472MOL0     O65057   7.362   9.384   4.069 -0.4558 -0.3937  0.3239
  472MOL0     C65058   7.458   9.484   4.110  0.7904 -0.2513  0.5021
  472MOL0     C65059   7.592   9.449   4.060  0.8660  0.0512 -0.2510
  472MOL0     C65060   7.706   9.556   4.087  0.8236  0.6250 -0.4383
  472MOL0     C65061   7.732   9.565   4.240 -0.2706  0.4575  0.1427
  472MOL0     C65062   7.794   9.442   4.294  0.6107  0.0419  0.9377
  472MOL0     C65063   7.850   9.346   4.330 -0.5829 -0.2882 -0.9630
  472MOL0     C65064   7.179   9.508   4.159  0.2854 -0.7281 -0.3481
  472MOL0     C65065   7.045   9.554   4.181 -0.6478 -0.1256 -0.7691
  472MOL0     C65066   7.021   9.661   4.290 -0.2031  0.6268 -0.0078
  472MOL0     H65067   6.817   9.573   3.838  1.1300 -0.4179  0.4183
  472MOL0     H65068   6.910   9.702   3.681 -2.8061 -2.0625  0.4828
  472MOL0     H65069   6.867   9.897   3.541  1.7770 -3.0868 -2.9696
  472MOL0     H65070   7.040   9.863   3.560  0.7418  0.9246  0.0450
  472MOL0     H65071   6.975  10.036   3.393 -2.6054 -1.0441  0.5094
  472MOL0     H65072   6.924  10.150   3.527  1.1805 -0.1240  1.5302
  472MOL0     H65073   7.186  10.066   3.435  1.7487 -1.4265  0.7235
  472MOL0     H65074   7.133  10.236   3.452  2.3368 -0.1018 -0.3446
  472MOL0     H65075   7.135  10.197   3.702  1.7936  3.9915 -2.3010
  472MOL0     H65076   7.204  10.030   3.658 -4.5090 -1.3395 -3.8491
  472MOL0     H65077   7.355  10.185   3.744  1.8077  1.0084  0.6306
  472MOL0     H65078   7.308  10.299   3.610 -3.5984 -1.1620 -0.7392
  472MOL0     H65079   7.394  10.025   3.529 -1.2388 -0.1733  1.5167
  472MOL0     H65080   7.410  10.187   3.450 -1.5819 -1.8743  0.3289
  472MOL0     H65081   7.600  10.238   3.591  1.3973 -1.4641 -0.9618
  472MOL0     H65082   7.631  10.077   3.506 -2.8990 -1.9724 -2.2037
  472MOL0     H65083   7.712  10.121   3.740 -0.5888  4.5432 -0.7903
  472MOL0     H65084   7.543  10.093   3.789  1.6269  2.6021  1.2560
  472MOL0     H65085   7.791   9.914   3.546  0.0813  2.9926  2.8299
  472MOL0     H65086   7.887   9.582   3.686  2.0399 -0.7178 -1.6192
  472MOL0     H65087   7.890   9.665   3.537  0.2360 -0.7561 -0.2319
  472MOL0     H65088   7.796   9.424   3.523 -0.5852 -0.1059 -0.6075
  472MOL0     H65089   7.650   9.504   3.592 -0.7085 -2.2956 -2.0599
  472MOL0     H65090   7.635   9.646   3.406 -1.1943 -1.0862  1.9472
  472MOL0     H65091   7.791   9.595   3.337  0.3092  2.3780  0.3002
  472MOL0     H65092   7.680   9.372   3.301  0.3263 -0.7298 -0.5276
  472MOL0     H65093   7.537   9.446   3.365  0.9622 -1.4656  0.8941
  472MOL0     H65094   7.576   9.686   2.984  0.7103  1.7953  2.9220
  472MOL0     H65095   7.318   9.734   2.750 -0.3760 -2.8777  1.1685
  472MOL0     H65096   7.480   9.793   2.820 -0.1544  0.2697  2.3678
  472MOL0     H65097   7.325   9.859   2.876 -1.7364 -0.0897 -0.1188
  472MOL0     H65098   6.867   9.308   2.894 -0.2508  0.2616  0.3792
  472MOL0     H65099   6.720   9.262   2.700 -0.2262  1.1366 -0.4752
  472MOL0     H65100   6.601   9.213   2.522  1.1460 -0.7383 -0.9337
  472MOL0     H65101   6.536   9.363   2.454  1.1700  0.0305 -1.3823
  472MOL0     H65102   6.589   9.288   2.225 -0.3721  0.7589  0.4172
  472MOL0     H65103   6.682   9.154   2.286  1.3399  0.3941  2.1710
  472MOL0     H65104   6.379   9.188   2.321  0.9251  0.0467 -2.0522
  472MOL0     H65105   6.471   9.065   2.398 -0.4408  0.0417 -0.4514
  472MOL0     H65106   6.554   8.984   2.178 -0.3746 -0.4609 -0.7670
  472MOL0     H65107   6.454   9.094   2.085  0.8110 -1.6688 -1.4788
  472MOL0     H65108   6.380   8.861   2.104  1.0861  0.7864  1.1053
  472MOL0     H65109   6.373   8.869   2.278  1.8984  1.5789  0.6374
  472MOL0     H65110   6.197   9.032   2.078 -3.3852 -0.0225  0.4524
  472MOL0     H65111   6.221   9.068   2.245  1.6456  0.5910  0.2930
  472MOL0     H65112   6.081   8.871   2.316 -0.6786  2.6152  1.0743
  472MOL0     H65113   6.134   8.792   2.168  2.0210  0.8041  0.8449
  472MOL0     H65114   5.934   9.033   2.205  1.2458  0.8506 -0.6620
  472MOL0     H65115   5.883   8.865   2.173  2.8941 -3.4837  0.5177
  472MOL0     H65116   6.939   9.540   2.455  0.5022  1.3540  0.8218
  472MOL0     H65117   7.067   9.596   2.648  3.0172 -0.6161  3.5266
  472MOL0     H65118   7.165   9.459   3.131 -1.3834  1.5052  0.0644
  472MOL0     H65119   7.371   9.418   3.238  0.8898  0.1554 -0.7582
  472MOL0     H65120   6.897  10.048   3.945  0.8966  0.2857 -1.3853
  472MOL0     H65121   6.811   9.895   4.131 -1.7366  3.0054 -0.7922
  472MOL0     H65122   6.910   9.350   3.957  1.4869  1.6554 -1.6636
  472MOL0     H65123   7.156   9.271   3.928  2.8227  0.9810  0.6322
  472MOL0     H65124   7.436   9.585   4.075 -0.5736 -1.2805 -1.8727
  472MOL0     H65125   7.465   9.497   4.218  0.9730 -0.3066  0.4976
  472MOL0     H65126   7.584   9.444   3.951  3.8653 -0.4240 -0.5161
  472MOL0     H65127   7.639   9.358   4.099  3.3864  2.5908  3.3112
  472MOL0     H65128   7.796   9.532   4.031  0.4044 -1.1058 -0.4440
  472MOL0     H65129   7.664   9.650   4.051 -0.7894 -0.2744 -1.0476
  472MOL0     H65130   7.639   9.577   4.296  0.0473  0.4912  0.6688
  472MOL0     H65131   7.788   9.657   4.257 -0.2715  0.5397 -0.2870
  472MOL0     H65132   7.910   9.258   4.344 -2.3323 -1.0786  2.7629
  472MOL0     H65133   7.245   9.564   4.225 -4.3345  3.9904  0.9495
  472MOL0     H65134   7.042   9.764   4.259  1.0751  0.6163  0.7444
  472MOL0     H65135   6.916   9.649   4.320  0.2935  1.2811  2.1935
  472MOL0     H65136   7.075   9.650   4.385 -0.8144  2.1336  0.5556
  473MOL0     O65137   9.995  10.755   8.489 -0.4931  0.6578 -0.2367
  473MOL0     C65138   9.965  10.848   8.415 -1.3387 -1.4657 -0.4181
  473MOL0     O65139  10.055  10.947   8.376  0.3989  0.2685  0.3088
  473MOL0     C65140  10.173  10.952   8.436  0.0257  0.4947 -0.2411
  473MOL0     C65141  10.278  10.874   8.377  0.3112 -0.3439  0.9190
  473MOL0     C65142  10.411  10.889   8.426 -0.6037 -0.3407 -0.5847
  473MOL0     C65143  10.432  10.958   8.549  0.2063 -0.4218  0.2700
  473MOL0     O65144  10.547  10.984   8.616  0.0076 -0.0744 -0.1254
  473MOL0     C65145  10.649  11.048   8.546 -0.7370 -0.1345 -0.1900
  473MOL0     C65146  10.718  11.147   8.638  0.0837 -0.8054 -0.3033
  473MOL0     C65147  10.628  11.265   8.675 -0.2114 -0.6685  0.1961
  473MOL0     C65148  10.623  11.368   8.564 -0.1240  0.4408  1.0877
  473MOL0     C65149  10.566  11.495   8.597  0.3205  0.1875  0.0717
  473MOL0     C65150  10.650  11.592   8.679 -1.4363 -0.1336 -0.4681
  473MOL0     C65151  10.565  11.725   8.698  0.7235 -0.0680 -0.2071
  473MOL0     C65152  10.571  11.819   8.579 -0.7082 -0.0581 -0.0132
  473MOL0     N65153  10.695  11.896   8.581 -0.1567  0.5855  1.1179
  473MOL0     C65154  10.712  12.025   8.616 -0.2300  0.9041 -0.8907
  473MOL0     C65155  10.842  12.050   8.605 -0.2280 -0.0075 -0.2722
  473MOL0     C65156  10.903  12.184   8.648 -1.1740  0.0574 -0.1471
  473MOL0     C65157  10.985  12.170   8.775 -0.1059  0.5661 -1.6366
  473MOL0     C65158  11.120  12.088   8.776 -0.6866 -0.2564 -0.0138
  473MOL0     C65159  11.221  12.139   8.680  0.1358  0.3089  1.5011
  473MOL0     O65160  11.275  12.262   8.712 -0.0061 -0.3121  0.8406
  473MOL0     C65161  11.365  12.326   8.619  0.0972  0.5140 -0.1127
  473MOL0     C65162  11.405  12.460   8.648  0.2339 -0.8078  0.1716
  473MOL0     C65163  11.507  12.527   8.582  0.4467  0.3341  0.2917
  473MOL0     C65164  11.548  12.656   8.640 -0.2670 -0.4363 -0.0622
  473MOL0     C65165  11.566  12.459   8.473  0.4835 -0.0557  0.5285
  473MOL0     C65166  11.677  12.524   8.394  0.1163 -0.0581  0.9416
  473MOL0     O65167  11.715  12.476   8.271 -0.0134 -0.2222 -0.3587
  473MOL0     C65168  11.800  12.548   8.189 -0.0126  0.5155  0.0959
  473MOL0     C65169  11.874  12.477   8.096  0.2736 -0.0750 -0.1522
  473MOL0     C65170  11.956  12.537   7.997  0.2282  0.5344  0.0538
  473MOL0     C65171  11.968  12.673   7.987 -0.0544  0.3401 -0.0270
  473MOL0     O65172  12.058  12.718   7.899 -0.3474 -0.8803  0.2421
  473MOL0     C65173  12.018  12.825   7.816 -0.9920  0.6592  0.9669
  473MOL0     C65174  12.147  12.914   7.800 -0.0940  0.9994  0.6058
  473MOL0     C65175  12.143  12.984   7.651 -0.0435 -0.0289 -1.0193
  473MOL0     C65176  12.040  13.093   7.640  1.1505  0.1222 -0.6566
  473MOL0     C65177  12.052  13.190   7.758  0.3236 -0.4384 -0.6689
  473MOL0     C65178  11.927  13.284   7.752  0.3018 -1.0114  0.8703
  473MOL0     C65179  11.913  13.385   7.640  1.1459  1.0049 -0.5028
  473MOL0     C65180  11.803  13.492   7.653 -0.9134 -0.7430 -0.5031
  473MOL0    Cl65181  11.653  13.411   7.681 -0.0136  0.3355  0.4635
  473MOL0     C65182  11.886  12.745   8.081  0.4403 -1.5696 -0.1098
  473MOL0     C65183  11.805  12.680   8.171  0.3072 -0.2718 -1.0044
  473MOL0     O65184  11.752  12.600   8.456  0.7277  0.0266  0.1712
  473MOL0     C65185  11.510  12.342   8.432 -0.1270  0.1419 -0.4771
  473MOL0     C65186  11.408  12.273   8.502 -0.4687  0.5029  0.7233
  473MOL0     N65187  10.907  11.942   8.546  0.7909 -0.1549 -0.5505
  473MOL0     N65188  10.813  11.849   8.523 -0.0228 -0.2557 -0.5277
  473MOL0     C65189  10.331  11.022   8.612 -0.1429  0.1196  0.2701
  473MOL0     C65190  10.198  11.018   8.560 -0.3129  0.2113  0.5455
  473MOL0     C65191   9.829  10.873   8.396  1.0484  0.0059 -0.3453
  473MOL0     C65192   9.755  10.757   8.361 -0.1980 -0.3247 -0.3645
  473MOL0     C65193   9.618  10.755   8.337  0.4552  0.1754  0.7063
  473MOL0     C65194   9.557  10.882   8.322 -0.6353  0.3965 -0.7202
  473MOL0     O65195   9.422  10.892   8.287  0.3509 -0.3186 -0.1272
  473MOL0     C65196   9.350  10.780   8.247 -0.3854  0.9830  0.1338
  473MOL0     C65197   9.230  10.827   8.172 -0.6717 -0.2914  0.3689
  473MOL0     C65198   9.134  10.703   8.147 -0.2024  0.2115 -0.6476
  473MOL0     C65199   9.198  10.593   8.059  0.3371  0.1192 -0.6660
  473MOL0     C65200   9.097  10.494   8.026  0.6292 -0.1766 -0.5041
  473MOL0     C65201   9.024  10.404   7.987  0.2398  0.7308 -0.0721
  473MOL0     C65202   9.634  10.998   8.343 -0.2109 -0.5763 -0.0702
  473MOL0     C65203   9.771  11.001   8.368 -0.3080  0.7878  0.2644
  473MOL0     C65204   9.838  11.129   8.404 -0.4792 -0.5905 -0.0046
  473MOL0     H65205  10.249  10.810   8.293  1.8395  0.6250 -0.3940
  473MOL0     H65206  10.494  10.844   8.373  0.6938 -1.5549  2.2240
  473MOL0     H65207  10.627  11.099   8.452 -1.7160  1.0399  0.6310
  473MOL0     H65208  10.722  10.968   8.529 -0.8866  0.0044 -1.6364
  473MOL0     H65209  10.739  11.088   8.728  1.8067 -1.0596 -0.8271
  473MOL0     H65210  10.805  11.186   8.584 -1.4126  2.0383 -0.8664
  473MOL0     H65211  10.531  11.216   8.693 -0.7671 -0.6697 -2.4404
  473MOL0     H65212  10.674  11.311   8.763  0.6903 -0.3280 -0.4372
  473MOL0     H65213  10.720  11.369   8.513  0.7354 -3.5818  2.2914
  473MOL0     H65214  10.562  11.323   8.484  0.7205  1.5863 -0.2467
  473MOL0     H65215  10.481  11.466   8.660 -2.2507  1.6296 -2.5076
  473MOL0     H65216  10.531  11.555   8.513 -0.5939  1.2329  1.1591
  473MOL0     H65217  10.670  11.558   8.781 -1.0368 -0.9726 -0.8172
  473MOL0     H65218  10.751  11.607   8.641 -0.6221  2.8815  2.3825
  473MOL0     H65219  10.580  11.779   8.792 -0.1093  1.4292 -0.8962
  473MOL0     H65220  10.462  11.690   8.694  1.4724 -2.6149  1.1279
  473MOL0     H65221  10.564  11.764   8.484 -1.9688  0.7556 -0.4067
  473MOL0     H65222  10.480  11.879   8.581 -0.6624  0.0063  1.8003
  473MOL0     H65223  10.632  12.093   8.641 -1.9693 -1.0224 -0.9388
  473MOL0     H65224  10.830  12.259   8.678 -0.4984 -0.8593  4.6003
  473MOL0     H65225  10.968  12.207   8.564  2.3001 -1.8859  1.7774
  473MOL0     H65226  11.001  12.273   8.807 -0.9762 -0.2263  1.6686
  473MOL0     H65227  10.922  12.121   8.849 -0.2496  4.5907  1.2420
  473MOL0     H65228  11.159  12.075   8.877  1.5796 -1.6574 -0.9753
  473MOL0     H65229  11.107  11.984   8.743  3.8342 -1.7519  2.0929
  473MOL0     H65230  11.294  12.057   8.677 -1.1439 -0.9033 -2.0061
  473MOL0     H65231  11.179  12.142   8.579 -0.7707  3.6425  1.8726
  473MOL0     H65232  11.357  12.510   8.732  0.9687  0.7491 -0.2892
  473MOL0     H65233  11.467  12.704   8.695 -1.7786 -1.2673 -1.4746
  473MOL0     H65234  11.560  12.733   8.563  0.1326  1.3721  1.7441
  473MOL0     H65235  11.634  12.651   8.707 -1.2203 -0.3926  1.1855
  473MOL0     H65236  11.880  12.369   8.106 -0.5896 -0.1200 -0.0242
  473MOL0     H65237  12.019  12.486   7.925  1.3921  2.7845 -0.6420
  473MOL0     H65238  11.984  12.786   7.720  1.0801 -0.3227  0.5981
  473MOL0     H65239  11.936  12.883   7.861 -1.8153 -0.1398  0.5431
  473MOL0     H65240  12.170  12.971   7.890  0.8998 -0.8975  1.6233
  473MOL0     H65241  12.230  12.843   7.790  0.3088  1.6282 -0.7945
  473MOL0     H65242  12.127  12.909   7.573 -3.6458  1.6331 -2.1315
  473MOL0     H65243  12.234  13.042   7.640 -0.9125  2.0100  1.5468
  473MOL0     H65244  11.942  13.043   7.638  1.5653 -1.4877  4.7228
  473MOL0     H65245  12.045  13.156   7.550 -2.2715  3.1930  1.0144
  473MOL0     H65246  12.045  13.129   7.849  1.5264 -1.9055 -1.4963
  473MOL0     H65247  12.149  13.239   7.753  0.4266 -0.5913 -0.2389
  473MOL0     H65248  11.928  13.350   7.840 -0.0323 -1.2188  1.0327
  473MOL0     H65249  11.844  13.214   7.766 -0.2641 -0.2837  1.2470
  473MOL0     H65250  11.885  13.318   7.559 -2.4561 -0.1282  1.4583
  473MOL0     H65251  12.008  13.439   7.628 -0.1542  3.3387 -0.9283
  473MOL0     H65252  11.806  13.535   7.553  1.1726  0.2065 -0.0883
  473MOL0     H65253  11.821  13.575   7.722 -0.7362 -0.0229 -1.3963
  473MOL0     H65254  11.891  12.853   8.080  4.2009 -1.6098 -0.7409
  473MOL0     H65255  11.744  12.752   8.225  1.9389 -0.4064  1.1451
  473MOL0     H65256  11.554  12.286   8.350 -0.1307 -1.3211  0.4965
  473MOL0     H65257  11.379  12.175   8.467 -0.4880  0.6110  0.4296
  473MOL0     H65258  10.350  11.088   8.697  1.3192  2.1493 -1.5092
  473MOL0     H65259  10.124  11.085   8.603 -0.2390 -0.6032  2.0507
  473MOL0     H65260   9.807  10.663   8.379 -0.8508 -0.5330  0.5561
  473MOL0     H65261   9.553  10.669   8.340 -0.2571  0.5477 -1.8958
  473MOL0     H65262   9.416  10.723   8.183 -0.8516  1.7707 -1.0803
  473MOL0     H65263   9.323  10.720   8.335  2.5775  0.7965  1.0183
  473MOL0     H65264   9.259  10.870   8.075 -0.6461  1.3714  1.0754
  473MOL0     H65265   9.182  10.905   8.231 -0.7246 -2.0191  2.7655
  473MOL0     H65266   9.109  10.656   8.242  2.4316  2.5570  1.3671
  473MOL0     H65267   9.043  10.731   8.093 -0.4242  1.5608  0.3724
  473MOL0     H65268   9.278  10.542   8.113 -1.5055 -0.0127  2.1676
  473MOL0     H65269   9.229  10.623   7.958 -1.4943 -1.5970 -1.8160
  473MOL0     H65270   8.963  10.330   7.939  1.4100  0.3298 -0.9762
  473MOL0     H65271   9.584  11.094   8.336 -0.0629 -0.2671  2.2188
  473MOL0     H65272   9.767  11.212   8.409 -1.0433 -0.8818 -2.1776
  473MOL0     H65273   9.891  11.110   8.498  1.5675  1.4110 -0.6606
  473MOL0     H65274   9.911  11.146   8.325 -1.6298  0.5960 -0.8529
  474MOL0     O65275   5.113   5.989   6.385  0.2588  0.2146  0.5259
  474MOL0     C65276   5.167   6.060   6.302 -1.0621 -1.1428  0.3993
  474MOL0     O65277   5.123   6.184   6.258  0.5231 -0.4609  0.8340
  474MOL0     C65278   5.010   6.257   6.302 -0.2820  0.2171  0.7650
  474MOL0     C65279   4.898   6.217   6.373 -0.3496 -0.8766 -1.8588
  474MOL0     C65280   4.788   6.299   6.393 -0.0667  0.6333 -0.5071
  474MOL0     C65281   4.794   6.433   6.364 -0.0958  0.0588 -0.1450
  474MOL0     O65282   4.703   6.537   6.380 -0.2174 -0.2789 -0.1192
  474MOL0     C65283   4.610   6.516   6.483  0.1990  0.6712  0.5824
  474MOL0     C65284   4.670   6.529   6.623  0.3310  0.3160  0.0967
  474MOL0     C65285   4.681   6.679   6.659 -0.1505 -0.6884  1.0004
  474MOL0     C65286   4.561   6.741   6.717 -0.2232  0.5027 -0.6187
  474MOL0     C65287   4.576   6.882   6.766 -1.1108 -0.3522 -1.2993
  474MOL0     C65288   4.522   6.983   6.676 -0.3865  0.0741  1.3590
  474MOL0     C65289   4.535   7.122   6.738  0.0402 -0.1085 -1.4224
  474MOL0     C65290   4.677   7.180   6.752 -0.1343  0.2289  0.1955
  474MOL0     N65291   4.670   7.328   6.765  0.3378  0.1579  0.0617
  474MOL0     C65292   4.579   7.418   6.716 -0.0501  0.0256  0.1182
  474MOL0     C65293   4.616   7.544   6.749 -0.1623  0.0503  0.4125
  474MOL0     C65294   4.544   7.674   6.722 -0.5269 -1.0756 -0.1727
  474MOL0     C65295   4.484   7.679   6.582 -0.5361 -0.2457 -0.3391
  474MOL0     C65296   4.423   7.813   6.547  0.0520  0.2313 -0.3199
  474MOL0     C65297   4.361   7.810   6.411  0.0713  0.6449 -0.0673
  474MOL0     O65298   4.359   7.943   6.358 -0.7455 -0.1575 -0.7080
  474MOL0     C65299   4.435   7.969   6.246  0.0710 -0.7625 -0.4232
  474MOL0     C65300   4.471   8.099   6.212 -0.1767 -0.0149  0.7404
  474MOL0     C65301   4.529   8.145   6.091  0.2147 -0.3171  0.5409
  474MOL0     C65302   4.531   8.294   6.074 -0.9590 -0.1511  0.0700
  474MOL0     C65303   4.546   8.049   5.992  0.4958 -0.3288 -0.4929
  474MOL0     C65304   4.604   8.080   5.855  0.2634  0.5762 -1.0048
  474MOL0     O65305   4.581   8.198   5.799 -0.6966 -0.4386 -0.4542
  474MOL0     C65306   4.646   8.224   5.678  0.5159 -0.3242 -0.3893
  474MOL0     C65307   4.573   8.257   5.568 -0.4642  0.3472  0.6345
  474MOL0     C65308   4.641   8.288   5.446 -0.7858 -0.4417  0.6051
  474MOL0     C65309   4.790   8.293   5.440  0.4448  1.0321  0.3310
  474MOL0     O65310   4.835   8.328   5.317 -0.1919 -0.4719 -0.7908
  474MOL0     C65311   4.978   8.350   5.304  0.5008 -0.8334  0.2784
  474MOL0     C65312   5.002   8.388   5.159  0.7115  0.5204  0.7658
  474MOL0     C65313   4.927   8.513   5.105  0.4983  0.1418  0.0775
  474MOL0     C65314   4.966   8.564   4.963 -0.4494  0.4543  0.6803
  474MOL0     C65315   4.903   8.698   4.924  0.8432  0.0317  0.7632
  474MOL0     C65316   4.759   8.700   4.866  0.4835 -0.6162  0.5219
  474MOL0     C65317   4.715   8.847   4.839 -0.7431  0.9038 -0.0221
  474MOL0     C65318   4.770   8.902   4.712 -0.3581  0.4821  0.0436
  474MOL0    Cl65319   4.720   9.070   4.680 -0.6292 -0.1176 -0.1351
  474MOL0     C65320   4.863   8.263   5.550  0.3916 -0.1338  0.0064
  474MOL0     C65321   4.790   8.232   5.667 -0.5752 -0.2142  0.0122
  474MOL0     O65322   4.666   7.987   5.809  0.2370 -0.4970  0.8305
  474MOL0     C65323   4.525   7.912   6.023  0.3694 -0.6199 -0.1641
  474MOL0     C65324   4.464   7.878   6.139 -0.3444  0.1689 -0.0452
  474MOL0     N65325   4.730   7.529   6.824 -0.6072  0.4516 -0.5041
  474MOL0     N65326   4.760   7.405   6.830 -0.1224  0.2568  0.2017
  474MOL0     C65327   4.901   6.470   6.280  0.5722 -0.0783 -0.3107
  474MOL0     C65328   5.004   6.391   6.245  0.1472 -0.4063 -0.5821
  474MOL0     C65329   5.294   6.000   6.242  0.5533 -0.2741 -0.0094
  474MOL0     C65330   5.331   5.872   6.292 -0.1893  0.3167  0.0877
  474MOL0     C65331   5.451   5.813   6.252  0.2059 -0.8471  1.4983
  474MOL0     C65332   5.523   5.871   6.150 -0.4312  0.1032 -0.6752
  474MOL0     O65333   5.642   5.821   6.100  0.4194  0.0194 -1.1446
  474MOL0     C65334   5.721   5.730   6.166  0.7991  0.1764 -0.0785
  474MOL0     C65335   5.733   5.595   6.092  1.3537 -0.2098  0.3172
  474MOL0     C65336   5.826   5.595   5.974 -0.1598 -1.2240 -0.1754
  474MOL0     C65337   5.857   5.454   5.910  0.0764 -1.0103 -0.5955
  474MOL0     C65338   5.737   5.419   5.833 -1.1572 -0.0521 -0.0329
  474MOL0     C65339   5.638   5.378   5.777 -0.7037  0.1087  0.6336
  474MOL0     C65340   5.474   5.980   6.078  0.1402  0.5063  0.3588
  474MOL0     C65341   5.362   6.053   6.129 -0.8568 -0.7728  0.1726
  474MOL0     C65342   5.339   6.197   6.065 -0.0659  0.2610  0.4886
  474MOL0     H65343   4.881   6.110   6.384  0.6802 -0.8087  1.4426
  474MOL0     H65344   4.707   6.249   6.445  0.2922 -1.0605 -1.4823
  474MOL0     H65345   4.563   6.418   6.476 -1.7010  1.4392  1.6425
  474MOL0     H65346   4.525   6.581   6.460 -0.4443  0.4004  2.0828
  474MOL0     H65347   4.612   6.463   6.688 -1.2707 -0.5498 -2.0478
  474MOL0     H65348   4.769   6.483   6.620  1.3896  2.1511  3.0341
  474MOL0     H65349   4.767   6.685   6.727  1.5158 -0.5917 -0.9973
  474MOL0     H65350   4.701   6.736   6.567  0.0671  2.4240  2.8238
  474MOL0     H65351   4.478   6.730   6.646 -1.6341 -1.0427  1.1868
  474MOL0     H65352   4.536   6.675   6.800  0.6268 -1.1043 -1.5835
  474MOL0     H65353   4.682   6.905   6.780 -2.0409  3.5098  0.9077
  474MOL0     H65354   4.528   6.896   6.863  1.5050  3.9258 -0.3478
  474MOL0     H65355   4.567   6.980   6.576  2.0206  0.0152  2.3848
  474MOL0     H65356   4.415   6.964   6.664 -0.4706  1.8137 -1.7005
  474MOL0     H65357   4.500   7.115   6.841 -0.4266  1.8046 -1.3991
  474MOL0     H65358   4.462   7.193   6.699 -2.0769 -0.9375  0.7765
  474MOL0     H65359   4.731   7.143   6.839  0.0210 -1.5221 -0.5994
  474MOL0     H65360   4.738   7.144   6.669  1.7239 -0.2994  1.7312
  474MOL0     H65361   4.487   7.403   6.659 -0.0105 -1.3560  0.3898
  474MOL0     H65362   4.609   7.759   6.744  1.2870 -1.8234 -2.2240
  474MOL0     H65363   4.458   7.670   6.789  0.1187  0.6739  0.8141
  474MOL0     H65364   4.566   7.660   6.512  2.2215  2.1489  1.9914
  474MOL0     H65365   4.412   7.599   6.560  2.2328 -3.1473  0.3915
  474MOL0     H65366   4.354   7.823   6.631  3.3843 -2.6775  3.1604
  474MOL0     H65367   4.492   7.897   6.564  1.5411 -1.4187  2.8586
  474MOL0     H65368   4.413   7.738   6.348 -0.0687  2.3715 -2.3001
  474MOL0     H65369   4.258   7.772   6.418  0.2718 -0.1237 -1.0053
  474MOL0     H65370   4.445   8.186   6.271  3.0412  0.8981  0.9591
  474MOL0     H65371   4.477   8.352   6.149 -1.7207  2.4160 -2.2629
  474MOL0     H65372   4.477   8.324   5.983  2.1102  4.3842 -0.5804
  474MOL0     H65373   4.631   8.335   6.058 -1.3117  0.9945  0.6792
  474MOL0     H65374   4.465   8.265   5.573 -0.3227  2.0169  3.2459
  474MOL0     H65375   4.596   8.309   5.350  1.4731 -0.4612 -0.5241
  474MOL0     H65376   5.006   8.440   5.359 -1.4467  0.1200 -0.2119
  474MOL0     H65377   5.038   8.259   5.320  1.7555 -0.3372 -1.3893
  474MOL0     H65378   5.108   8.412   5.148  0.8991  0.8945  2.9365
  474MOL0     H65379   4.974   8.304   5.094  0.8104  0.6741  0.5240
  474MOL0     H65380   4.937   8.597   5.175  2.5586  0.8404 -0.9603
  474MOL0     H65381   4.821   8.486   5.103 -0.8319  4.1875 -4.8431
  474MOL0     H65382   4.938   8.486   4.892  0.7555 -0.5300  1.2247
  474MOL0     H65383   5.074   8.569   4.948 -0.5438  3.2606  0.4178
  474MOL0     H65384   4.909   8.767   5.008 -1.0297  3.3099 -1.5671
  474MOL0     H65385   4.957   8.736   4.837  2.3044 -0.1076  1.5930
  474MOL0     H65386   4.696   8.645   4.936  0.7019 -1.1176  0.3370
  474MOL0     H65387   4.753   8.644   4.772 -1.3973 -0.5187  0.5431
  474MOL0     H65388   4.750   8.912   4.920  1.8097 -1.1700  0.7013
  474MOL0     H65389   4.606   8.848   4.834 -0.7190 -0.6042 -3.7287
  474MOL0     H65390   4.729   8.850   4.625  1.3845 -0.2591 -0.3624
  474MOL0     H65391   4.878   8.893   4.698 -0.7154 -1.3591 -2.1778
  474MOL0     H65392   4.971   8.256   5.555  0.4875 -0.5968 -1.7309
  474MOL0     H65393   4.845   8.220   5.760 -0.0772  0.5073 -0.1798
  474MOL0     H65394   4.552   7.831   5.956  0.1994  0.9076 -2.1562
  474MOL0     H65395   4.437   7.773   6.146  1.4140 -0.5098 -2.1316
  474MOL0     H65396   4.908   6.573   6.245  2.3129 -0.3761 -0.9344
  474MOL0     H65397   5.087   6.422   6.182  1.3824 -1.3145  0.5308
  474MOL0     H65398   5.281   5.828   6.377  0.1189 -1.2018 -0.4831
  474MOL0     H65399   5.491   5.719   6.291 -1.2882 -1.8349  0.7296
  474MOL0     H65400   5.817   5.780   6.179 -0.3643  2.0665  1.7295
  474MOL0     H65401   5.688   5.701   6.266 -3.4513  0.0795 -1.3344
  474MOL0     H65402   5.639   5.551   6.057  0.4835  2.0198 -0.3594
  474MOL0     H65403   5.766   5.523   6.167  0.2515  0.1042  1.1348
  474MOL0     H65404   5.789   5.663   5.898 -1.1579 -1.1069  0.4060
  474MOL0     H65405   5.922   5.627   6.016 -0.4559 -1.4049  0.6609
  474MOL0     H65406   5.888   5.386   5.990  0.5215 -1.8158 -1.4263
  474MOL0     H65407   5.939   5.472   5.840  1.2922  2.7074  1.5265
  474MOL0     H65408   5.554   5.344   5.721 -0.3573  1.3675 -0.7072
  474MOL0     H65409   5.527   6.029   5.997 -0.1795  2.6693  1.3725
  474MOL0     H65410   5.375   6.287   6.116 -0.3251  0.6199  0.0473
  474MOL0     H65411   5.380   6.206   5.964  1.6069 -0.4305  1.0743
  474MOL0     H65412   5.231   6.200   6.048  0.2452 -1.1549 -2.2031
  475MOL0     O65413   4.084   6.357   5.152 -0.7261  0.3985  0.2975
  475MOL0     C65414   3.990   6.395   5.222 -0.2596  0.5850  0.4539
  475MOL0     O65415   3.910   6.318   5.308 -0.0139  0.1068 -0.6966
  475MOL0     C65416   3.928   6.181   5.297 -0.3763 -0.3707  0.2904
  475MOL0     C65417   4.029   6.104   5.358  0.9192  0.2025  0.4563
  475MOL0     C65418   4.031   5.968   5.337  0.7601 -0.9389  0.0421
  475MOL0     C65419   3.926   5.902   5.277  0.3467  0.5700  0.2791
  475MOL0     O65420   3.943   5.766   5.260  0.0674  0.0444  0.2218
  475MOL0     C65421   3.879   5.715   5.141  0.4630  0.0486 -0.0346
  475MOL0     C65422   3.910   5.565   5.120 -0.3461 -0.0051 -0.1179
  475MOL0     C65423   4.045   5.510   5.164  0.4532 -0.5992  1.0075
  475MOL0     C65424   4.048   5.368   5.128  0.2736  0.4489  0.6756
  475MOL0     C65425   4.194   5.319   5.149  0.3761  0.8542 -0.1745
  475MOL0     C65426   4.218   5.177   5.084  0.9241 -0.7696  1.3098
  475MOL0     C65427   4.371   5.168   5.084 -0.0099  1.1466 -0.5016
  475MOL0     C65428   4.438   5.109   4.965  0.0616 -0.4785  1.1154
  475MOL0     N65429   4.388   4.980   4.928  0.3245 -1.0542  0.0747
  475MOL0     C65430   4.379   4.863   5.012 -0.7165 -0.6551 -0.6242
  475MOL0     C65431   4.308   4.777   4.932 -1.1127  0.7789  0.7182
  475MOL0     C65432   4.282   4.630   4.958 -0.7613  0.3327 -0.2191
  475MOL0     C65433   4.403   4.547   4.989  0.2132  0.7489  0.7173
  475MOL0     C65434   4.469   4.498   4.852 -0.2489  0.6067  0.8323
  475MOL0     C65435   4.387   4.396   4.762  0.1712  0.4026 -0.0281
  475MOL0     O65436   4.410   4.258   4.819  0.5100  0.5216  0.3787
  475MOL0     C65437   4.305   4.201   4.898 -0.4068 -0.4020  1.0330
  475MOL0     C65438   4.174   4.244   4.905  0.3116  0.3058 -0.7438
  475MOL0     C65439   4.078   4.171   4.986  0.2095  0.2938  1.0461
  475MOL0     C65440   3.936   4.228   4.997 -0.5537 -0.6394 -0.7760
  475MOL0     C65441   4.105   4.052   5.043  0.1142  0.2615 -0.7356
  475MOL0     C65442   4.016   3.960   5.113 -0.3819 -0.4982 -0.4055
  475MOL0     O65443   3.895   3.933   5.054 -0.8549 -0.7726  0.2971
  475MOL0     C65444   3.798   3.879   5.127  0.4167  0.3379 -0.3118
  475MOL0     C65445   3.675   3.944   5.144  0.3256  0.1938 -1.2623
  475MOL0     C65446   3.568   3.882   5.215 -0.2184 -0.3092  0.0056
  475MOL0     C65447   3.590   3.757   5.277 -0.1199 -0.3725  1.1977
  475MOL0     O65448   3.514   3.676   5.347  0.5257  0.8321 -0.6796
  475MOL0     C65449   3.402   3.731   5.425 -0.0214  0.4175  0.7208
  475MOL0     C65450   3.456   3.776   5.563 -0.0297  0.0149  0.7985
  475MOL0     C65451   3.483   3.659   5.656 -0.1027  0.2274  0.3559
  475MOL0     C65452   3.553   3.711   5.779 -1.0959 -0.3332  0.4421
  475MOL0     C65453   3.589   3.601   5.877 -0.2764 -0.0563  0.2652
  475MOL0     C65454   3.670   3.656   5.995 -0.2562 -0.0027  0.5156
  475MOL0     C65455   3.607   3.763   6.081  0.2189  0.1269  0.6055
  475MOL0     C65456   3.712   3.823   6.165  0.0028  0.2491  0.2800
  475MOL0    Cl65457   3.638   3.949   6.266  0.2579 -0.4943  0.2232
  475MOL0     C65458   3.707   3.691   5.245 -0.1498  0.6339 -0.8395
  475MOL0     C65459   3.809   3.750   5.175 -0.8751  0.5569 -0.5403
  475MOL0     O65460   4.037   3.942   5.234 -0.4323 -0.0768  0.3984
  475MOL0     C65461   4.237   4.002   5.024 -0.3819  0.1902 -0.3536
  475MOL0     C65462   4.333   4.077   4.952 -0.1767 -0.5773  0.5181
  475MOL0     N65463   4.271   4.840   4.813 -0.3712 -0.5436 -0.7886
  475MOL0     N65464   4.326   4.953   4.807  0.5108  0.3763  0.8954
  475MOL0     C65465   3.828   5.979   5.207 -0.6758 -0.1302  0.3051
  475MOL0     C65466   3.829   6.119   5.219 -0.3999 -0.3943 -0.0905
  475MOL0     C65467   3.984   6.538   5.236  0.1928 -0.3317  0.2397
  475MOL0     C65468   3.872   6.602   5.292  0.3981  0.4777 -0.3231
  475MOL0     C65469   3.855   6.739   5.310  0.8406  1.5999  0.8363
  475MOL0     C65470   3.956   6.826   5.268  0.1768  0.3521 -0.4160
  475MOL0     O65471   3.953   6.959   5.291 -0.4772 -1.2879  1.0965
  475MOL0     C65472   3.846   7.014   5.377 -0.5462 -0.3104  0.6980
  475MOL0     C65473   3.860   7.171   5.384 -1.1767 -0.3459  0.0438
  475MOL0     C65474   3.794   7.241   5.506  0.0295 -0.2730 -0.1917
  475MOL0     C65475   3.825   7.392   5.509  0.4984 -0.0910  0.6925
  475MOL0     C65476   3.779   7.449   5.632 -0.1946  0.2936  0.3740
  475MOL0     C65477   3.744   7.490   5.743 -0.5164 -0.6176  0.1510
  475MOL0     C65478   4.069   6.772   5.213 -0.3444 -1.0246  0.3670
  475MOL0     C65479   4.090   6.632   5.191 -0.7936  0.9135 -0.1635
  475MOL0     C65480   4.221   6.597   5.124 -0.5169  0.4480  0.2029
  475MOL0     H65481   4.112   6.154   5.407  2.9102 -2.5269  0.1100
  475MOL0     H65482   4.118   5.917   5.378  0.1874  1.4466  4.9925
  475MOL0     H65483   3.910   5.779   5.058 -0.1011 -0.3054 -0.5294
  475MOL0     H65484   3.770   5.718   5.139  0.4395 -0.5397 -1.5915
  475MOL0     H65485   3.835   5.497   5.162  0.2425 -0.7227 -0.2055
  475MOL0     H65486   3.898   5.548   5.012 -1.1688 -0.3171  0.0137
  475MOL0     H65487   4.125   5.562   5.110 -2.1412  0.7360 -1.8214
  475MOL0     H65488   4.066   5.545   5.266 -1.7775  1.8591  0.7234
  475MOL0     H65489   3.982   5.319   5.200  1.7558 -0.9973  1.1064
  475MOL0     H65490   4.024   5.340   5.026  1.4552  1.9067 -0.0537
  475MOL0     H65491   4.218   5.316   5.256  1.3845 -0.2697 -0.4076
  475MOL0     H65492   4.260   5.390   5.098  1.0033  0.2737 -0.1920
  475MOL0     H65493   4.174   5.098   5.145  0.4797  0.2319  2.3186
  475MOL0     H65494   4.178   5.188   4.982  0.0872  1.4205  1.8121
  475MOL0     H65495   4.395   5.106   5.170  2.4983 -0.6587 -2.3484
  475MOL0     H65496   4.413   5.269   5.093 -2.4679  2.1612  0.5051
  475MOL0     H65497   4.431   5.174   4.878 -2.7835 -1.5611  0.4450
  475MOL0     H65498   4.540   5.075   4.986  0.0543 -0.9654  0.4006
  475MOL0     H65499   4.419   4.837   5.110 -2.7505 -1.9066 -0.0752
  475MOL0     H65500   4.227   4.601   4.868 -0.0241  2.3550 -1.3780
  475MOL0     H65501   4.221   4.615   5.048 -2.8820  0.1178 -1.6110
  475MOL0     H65502   4.481   4.601   5.043  0.5957 -0.9753  2.0033
  475MOL0     H65503   4.360   4.464   5.047 -1.6764 -0.1218 -1.7503
  475MOL0     H65504   4.498   4.579   4.784 -1.0371 -0.5463 -0.9479
  475MOL0     H65505   4.565   4.457   4.884 -1.1363 -0.2746  2.4687
  475MOL0     H65506   4.283   4.424   4.746 -0.1810  0.4259  2.1012
  475MOL0     H65507   4.428   4.405   4.660 -0.2414  0.9931 -0.1429
  475MOL0     H65508   4.129   4.335   4.866  1.7562  1.9996  1.3043
  475MOL0     H65509   3.859   4.169   4.947 -0.7495  1.0516 -2.5817
  475MOL0     H65510   3.941   4.333   4.967  1.8894 -1.1810 -2.6199
  475MOL0     H65511   3.914   4.233   5.104  2.3669  3.2681 -0.1418
  475MOL0     H65512   3.662   4.044   5.104  1.0278  1.6404  1.8322
  475MOL0     H65513   3.474   3.935   5.220  0.2900  0.5544  0.8200
  475MOL0     H65514   3.364   3.823   5.379 -0.4617  1.6661  3.3966
  475MOL0     H65515   3.327   3.651   5.431 -0.0019  0.2999 -0.3445
  475MOL0     H65516   3.545   3.837   5.543 -2.2169  4.2615  2.6211
  475MOL0     H65517   3.393   3.844   5.622  1.4926  0.9350  1.4146
  475MOL0     H65518   3.556   3.595   5.605  1.1173  1.4090  0.5394
  475MOL0     H65519   3.385   3.612   5.665 -1.6769  1.8584 -4.8774
  475MOL0     H65520   3.497   3.780   5.843  0.5753  0.3043  1.2987
  475MOL0     H65521   3.642   3.767   5.748 -0.7940  0.5734  2.7287
  475MOL0     H65522   3.499   3.546   5.904 -3.2931  3.2945 -1.9739
  475MOL0     H65523   3.653   3.527   5.828  2.1422  1.7146  0.5746
  475MOL0     H65524   3.758   3.704   5.951 -0.0619 -0.3180  0.5595
  475MOL0     H65525   3.695   3.576   6.065 -0.9975 -1.6778 -1.0594
  475MOL0     H65526   3.524   3.720   6.137  0.0589 -0.0337  0.2451
  475MOL0     H65527   3.554   3.840   6.026  1.2630  1.2444  1.1061
  475MOL0     H65528   3.786   3.868   6.099 -0.7680 -0.5431 -1.1840
  475MOL0     H65529   3.761   3.737   6.210 -1.2315 -1.7275 -1.9052
  475MOL0     H65530   3.710   3.588   5.279 -0.7926  1.7508  3.0540
  475MOL0     H65531   3.895   3.690   5.147  0.0482  2.0997 -1.1101
  475MOL0     H65532   4.266   3.908   5.069  0.3461  0.8778  0.6695
  475MOL0     H65533   4.425   4.030   4.920  1.5138  1.8014  1.5748
  475MOL0     H65534   3.749   5.930   5.153  1.0767  0.1034 -2.7127
  475MOL0     H65535   3.750   6.182   5.178  1.7992  1.4782 -1.6979
  475MOL0     H65536   3.790   6.543   5.333 -1.6543  2.9017 -0.7094
  475MOL0     H65537   3.763   6.771   5.358  1.8932  3.1329  1.9506
  475MOL0     H65538   3.752   6.996   5.325  1.2155 -2.0788 -2.1775
  475MOL0     H65539   3.845   6.964   5.474  0.6935 -0.4754  0.6490
  475MOL0     H65540   3.813   7.222   5.300 -1.2406 -0.7157 -0.1511
  475MOL0     H65541   3.964   7.203   5.379 -1.2996  0.0005 -0.3470
  475MOL0     H65542   3.686   7.227   5.494  0.4096 -2.3959 -1.8575
  475MOL0     H65543   3.828   7.192   5.598  0.4396 -3.1757 -1.7580
  475MOL0     H65544   3.764   7.435   5.429  0.3610  0.0308  0.8616
  475MOL0     H65545   3.932   7.414   5.494  0.2756  1.1282  0.7645
  475MOL0     H65546   3.693   7.518   5.833 -1.1143  1.6055 -0.8095
  475MOL0     H65547   4.145   6.834   5.168 -0.1960 -1.3464  0.1706
  475MOL0     H65548   4.297   6.674   5.137 -0.8807  0.9465 -0.5389
  475MOL0     H65549   4.261   6.507   5.172  0.3034  0.6120 -0.1513
  475MOL0     H65550   4.208   6.572   5.018 -3.0394 -1.4954  0.8779
  476MOL0     O65551   8.443  11.135   6.953 -0.6448  0.6292  0.0109
  476MOL0     C65552   8.349  11.090   7.018  0.4687 -0.2821 -0.0113
  476MOL0     O65553   8.343  11.099   7.152  0.5130 -0.2068  0.8892
  476MOL0     C65554   8.454  11.120   7.232 -0.5239  0.2367 -0.1504
  476MOL0     C65555   8.450  11.203   7.332 -0.7249  0.3236  0.1180
  476MOL0     C65556   8.555  11.223   7.418 -0.2993 -0.6960  0.0780
  476MOL0     C65557   8.681  11.155   7.393 -0.4112 -0.4044 -0.3635
  476MOL0     O65558   8.784  11.200   7.472  0.2795 -0.4923  0.0350
  476MOL0     C65559   8.907  11.138   7.465 -1.3832  0.4668  0.0261
  476MOL0     C65560   9.014  11.237   7.522  0.9799 -0.9327  0.0869
  476MOL0     C65561   9.031  11.352   7.428 -0.3612 -0.2947 -0.1681
  476MOL0     C65562   9.119  11.463   7.483  0.7028  0.4012  1.2831
  476MOL0     C65563   9.115  11.573   7.375  0.0162  1.0122  0.0031
  476MOL0     C65564   9.168  11.535   7.241 -0.2596  0.3047  0.9229
  476MOL0     C65565   9.324  11.507   7.233  0.4528 -0.2619 -0.0980
  476MOL0     C65566   9.409  11.630   7.224  1.3325 -0.8015  0.1588
  476MOL0     N65567   9.558  11.601   7.220  0.4223 -1.0212 -0.2830
  476MOL0     C65568   9.631  11.664   7.133  0.4028  0.1013 -0.4861
  476MOL0     C65569   9.757  11.625   7.171 -0.6128 -0.1981 -0.3468
  476MOL0     C65570   9.884  11.659   7.118 -0.6265 -0.3421  0.5097
  476MOL0     C65571   9.888  11.721   6.971  0.8082  0.4825 -0.1694
  476MOL0     C65572   9.833  11.609   6.869  0.7476 -1.0792 -0.8704
  476MOL0     C65573   9.926  11.497   6.828  0.2296 -0.1914 -1.3412
  476MOL0     O65574  10.043  11.551   6.773 -0.0791 -0.2698 -0.2542
  476MOL0     C65575  10.155  11.474   6.753  0.7860  0.6693  0.4146
  476MOL0     C65576  10.260  11.537   6.689 -0.6333  0.6890 -0.7897
  476MOL0     C65577  10.379  11.478   6.665  0.3856  0.6810 -0.3997
  476MOL0     C65578  10.483  11.563   6.593 -0.8039 -0.4476 -0.4907
  476MOL0     C65579  10.395  11.339   6.693 -0.2375 -0.1280 -0.2807
  476MOL0     C65580  10.514  11.247   6.659 -0.1390 -0.7323  0.5555
  476MOL0     O65581  10.634  11.311   6.671 -0.3933  0.3938 -0.2281
  476MOL0     C65582  10.743  11.225   6.677  0.5546  0.0067 -0.2768
  476MOL0     C65583  10.762  11.133   6.778 -0.2752 -0.0574 -0.3618
  476MOL0     C65584  10.894  11.083   6.783  0.5411  0.0897  0.4507
  476MOL0     C65585  10.993  11.117   6.688 -0.1147  0.1579 -0.0750
  476MOL0     O65586  11.115  11.048   6.700 -0.3962 -0.0376 -0.1528
  476MOL0     C65587  11.220  11.101   6.618 -0.4072 -0.3178 -0.2347
  476MOL0     C65588  11.350  11.026   6.657 -0.6358  0.0398  0.5830
  476MOL0     C65589  11.470  11.091   6.593  0.1775  0.1205 -0.0589
  476MOL0     C65590  11.593  11.012   6.615 -0.4965 -0.7153 -0.0856
  476MOL0     C65591  11.720  11.082   6.586 -0.7511 -0.7267 -0.4183
  476MOL0     C65592  11.841  10.987   6.578  0.3973  1.2545  0.3746
  476MOL0     C65593  11.965  11.073   6.548 -0.1906 -0.6537  0.0996
  476MOL0     C65594  12.099  11.012   6.554 -0.0905 -0.1617  0.3590
  476MOL0    Cl65595  12.076  10.868   6.442  0.2951 -0.0599 -0.0022
  476MOL0     C65596  10.971  11.215   6.591 -0.6961  0.8099  0.6494
  476MOL0     C65597  10.840  11.268   6.586  0.6693  1.0338  0.5155
  476MOL0     O65598  10.492  11.146   6.593  0.3332 -0.3698  0.8250
  476MOL0     C65599  10.291  11.275   6.754 -0.7384 -0.7107  0.3839
  476MOL0     C65600  10.170  11.339   6.780 -0.5651 -0.8622  0.3931
  476MOL0     N65601   9.758  11.544   7.280 -0.5945 -0.4970 -0.0523
  476MOL0     N65602   9.638  11.528   7.305  0.1015 -0.2683 -0.4833
  476MOL0     C65603   8.694  11.077   7.280  1.0065  0.0809 -0.1481
  476MOL0     C65604   8.576  11.066   7.201  0.0126 -0.0568  0.0418
  476MOL0     C65605   8.233  11.032   6.939 -0.0481 -0.6102 -0.0683
  476MOL0     C65606   8.255  10.981   6.807  0.4943 -1.2981 -0.2920
  476MOL0     C65607   8.150  10.926   6.741 -0.1229 -0.2896 -0.4594
  476MOL0     C65608   8.017  10.931   6.792  0.2318 -0.6259  0.7746
  476MOL0     O65609   7.912  10.869   6.720 -0.0790  0.5877  0.2475
  476MOL0     C65610   7.930  10.840   6.580  0.8128 -0.1726  0.6813
  476MOL0     C65611   7.796  10.860   6.516 -0.8692  0.8372  0.4676
  476MOL0     C65612   7.764  11.007   6.518  0.0579  0.2126 -0.2823
  476MOL0     C65613   7.628  11.030   6.453 -0.2589  0.2511  0.1586
  476MOL0     C65614   7.521  10.936   6.495  0.0747 -0.4075 -0.5940
  476MOL0     C65615   7.434  10.862   6.537 -0.0260 -0.1760 -0.4403
  476MOL0     C65616   7.995  10.982   6.921 -0.0960  0.7631  0.9929
  476MOL0     C65617   8.104  11.021   7.001 -0.7561 -0.2950  0.8711
  476MOL0     C65618   8.076  11.071   7.143 -0.0901 -0.4593  0.1608
  476MOL0     H65619   8.357  11.257   7.338  0.3090  2.2917 -0.7290
  476MOL0     H65620   8.560  11.289   7.505 -0.0743 -1.3066  0.5390
  476MOL0     H65621   8.932  11.112   7.362 -1.3886  1.8600 -0.3508
  476MOL0     H65622   8.910  11.043   7.520 -0.2968  1.2552  1.4066
  476MOL0     H65623   8.972  11.280   7.613 -0.3133 -0.1900 -0.8157
  476MOL0     H65624   9.105  11.185   7.550  1.1821 -1.0129 -0.6857
  476MOL0     H65625   9.084  11.304   7.345 -1.0335  0.6697 -1.1685
  476MOL0     H65626   8.945  11.396   7.378  1.2905  1.4102 -1.6418
  476MOL0     H65627   9.069  11.498   7.573 -0.2896  0.9239  0.5534
  476MOL0     H65628   9.215  11.413   7.501  1.4491  1.7266  1.1164
  476MOL0     H65629   9.152  11.671   7.409  0.3758  2.3888 -3.8417
  476MOL0     H65630   9.013  11.607   7.358 -0.3096  1.6611  2.7642
  476MOL0     H65631   9.115  11.446   7.206  0.7368 -0.6814  1.8382
  476MOL0     H65632   9.153  11.612   7.164  3.1394  0.3611  0.1538
  476MOL0     H65633   9.340  11.442   7.146 -0.1599 -0.4335 -0.0847
  476MOL0     H65634   9.363  11.457   7.322  0.4475 -1.6109 -0.8145
  476MOL0     H65635   9.381  11.694   7.140  3.6541 -0.0863 -0.1546
  476MOL0     H65636   9.403  11.687   7.317 -0.1423  1.5529 -1.2828
  476MOL0     H65637   9.603  11.734   7.055  0.5198  0.0305 -0.5924
  476MOL0     H65638   9.948  11.573   7.102 -1.5066 -1.0280  0.5793
  476MOL0     H65639   9.948  11.724   7.178  0.2527 -1.1190  0.4325
  476MOL0     H65640   9.819  11.805   6.960 -1.1187 -1.3026 -3.7671
  476MOL0     H65641   9.982  11.770   6.943 -0.0131  1.4917 -1.2726
  476MOL0     H65642   9.747  11.550   6.902  0.1411  1.0712  1.7959
  476MOL0     H65643   9.805  11.662   6.777 -2.9150 -1.1581  0.0186
  476MOL0     H65644   9.944  11.439   6.919  0.2567 -0.7234 -1.6845
  476MOL0     H65645   9.873  11.432   6.758 -0.5010 -1.3007  0.1689
  476MOL0     H65646  10.261  11.645   6.672  5.7647  0.9805 -1.0246
  476MOL0     H65647  10.542  11.613   6.670 -0.8733 -1.7043  0.4027
  476MOL0     H65648  10.433  11.638   6.530 -1.5630  0.0838  0.7014
  476MOL0     H65649  10.535  11.488   6.532 -0.1745 -2.4826  2.3787
  476MOL0     H65650  10.693  11.111   6.859  2.2872 -4.0612  1.0660
  476MOL0     H65651  10.901  11.009   6.862 -2.6908 -2.6636 -1.5315
  476MOL0     H65652  11.198  11.090   6.511 -0.4119  0.5831 -0.3318
  476MOL0     H65653  11.230  11.208   6.637 -4.4864 -0.1027  1.6882
  476MOL0     H65654  11.366  11.026   6.766 -0.7813 -1.0816  0.6204
  476MOL0     H65655  11.349  10.924   6.617  3.1409  0.6244 -1.4380
  476MOL0     H65656  11.487  11.186   6.645  0.9277 -1.2264  2.2589
  476MOL0     H65657  11.462  11.105   6.484 -0.1273  1.5707  0.1274
  476MOL0     H65658  11.596  10.925   6.550 -0.0987 -0.4328 -0.4513
  476MOL0     H65659  11.588  10.971   6.717 -3.0587  1.4437  0.7736
  476MOL0     H65660  11.703  11.147   6.500 -2.5331 -1.0893 -0.3903
  476MOL0     H65661  11.741  11.147   6.672 -0.6139 -1.1592 -0.1208
  476MOL0     H65662  11.821  10.908   6.505  1.0194  0.1811  1.3356
  476MOL0     H65663  11.857  10.928   6.669  2.1284  1.5940  0.3214
  476MOL0     H65664  11.972  11.157   6.618  0.1086 -1.0512  0.5511
  476MOL0     H65665  11.950  11.114   6.447  1.2964  0.7388  0.3915
  476MOL0     H65666  12.125  11.001   6.659  1.0775 -1.1648 -0.0134
  476MOL0     H65667  12.175  11.077   6.509  0.8067  0.2617  2.3966
  476MOL0     H65668  11.043  11.248   6.517 -1.1537 -1.7400 -1.0663
  476MOL0     H65669  10.813  11.353   6.524 -0.4179  0.9758  0.8919
  476MOL0     H65670  10.293  11.170   6.780  2.3456 -0.5858  0.9927
  476MOL0     H65671  10.091  11.287   6.834 -1.9823  0.5891 -0.1898
  476MOL0     H65672   8.785  11.041   7.235 -0.2550 -0.4058 -2.4332
  476MOL0     H65673   8.581  11.003   7.113  0.1139 -2.0435  1.3948
  476MOL0     H65674   8.352  10.998   6.762  1.5125  0.9197  2.4434
  476MOL0     H65675   8.171  10.878   6.645 -1.1649 -0.2206 -0.7414
  476MOL0     H65676   7.995  10.905   6.520 -2.4133  0.2852 -2.6768
  476MOL0     H65677   7.965  10.737   6.565  4.0478  0.8531  0.3728
  476MOL0     H65678   7.717  10.799   6.560 -0.1168 -1.0045 -0.5986
  476MOL0     H65679   7.795  10.820   6.414 -4.3903  0.4973  0.5142
  476MOL0     H65680   7.765  11.048   6.619 -0.5047  1.7322 -0.8636
  476MOL0     H65681   7.840  11.062   6.460  2.0932 -2.0021  0.1127
  476MOL0     H65682   7.639  11.019   6.345 -1.5942  2.9492 -0.3396
  476MOL0     H65683   7.599  11.134   6.473  0.6863  0.2847  1.5301
  476MOL0     H65684   7.357  10.799   6.577 -0.6623  0.8580  0.0193
  476MOL0     H65685   7.896  10.986   6.966 -1.1339  1.6706 -1.2168
  476MOL0     H65686   8.118  11.006   7.220 -1.2460 -0.0282  1.1900
  476MOL0     H65687   8.119  11.169   7.165 -0.5451 -0.3256  0.4739
  476MOL0     H65688   7.969  11.091   7.157  0.2179  1.8128 -0.2337
  477MOL0     O65689   2.184   2.854   8.491 -0.8085 -0.9864 -1.0422
  477MOL0     C65690   2.251   2.777   8.567  0.3497 -0.4354  0.1745
  477MOL0     O65691   2.194   2.691   8.663 -0.2328  0.0091  0.4699
  477MOL0     C65692   2.066   2.700   8.702 -0.6463 -0.2468  0.9582
  477MOL0     C65693   2.000   2.585   8.745  0.6526  0.2576  0.4546
  477MOL0     C65694   1.865   2.590   8.787 -0.9681  0.9950  0.9445
  477MOL0     C65695   1.795   2.710   8.792 -0.2257 -0.1101  0.0796
  477MOL0     O65696   1.666   2.716   8.839 -0.3452 -0.1386 -0.4308
  477MOL0     C65697   1.586   2.821   8.796  0.3240  0.2369  1.3732
  477MOL0     C65698   1.435   2.795   8.818 -0.5800  0.3559  0.4187
  477MOL0     C65699   1.354   2.910   8.766 -0.3952 -0.3536  0.0068
  477MOL0     C65700   1.360   3.039   8.860 -0.3853 -0.3272  0.4574
  477MOL0     C65701   1.258   3.142   8.842  0.1237  0.6978  0.2258
  477MOL0     C65702   1.106   3.105   8.873  0.2792 -0.6859  1.4148
  477MOL0     C65703   1.082   3.074   9.025  0.4133 -0.1057  0.0401
  477MOL0     C65704   1.056   3.199   9.114  0.8462 -0.1592  0.7263
  477MOL0     N65705   0.928   3.271   9.089 -0.2269  0.6331  0.3081
  477MOL0     C65706   0.819   3.230   9.029 -0.1865  0.3593 -0.0988
  477MOL0     C65707   0.721   3.326   9.049 -0.0797  0.7250 -0.7027
  477MOL0     C65708   0.577   3.330   8.986 -0.6320 -0.0379  0.4826
  477MOL0     C65709   0.593   3.394   8.854 -0.5019  0.9635  0.1165
  477MOL0     C65710   0.601   3.540   8.866 -0.6519 -0.6735 -0.6977
  477MOL0     C65711   0.659   3.614   8.748  0.0490  0.6728 -0.3304
  477MOL0     O65712   0.688   3.737   8.797  0.1451 -0.9720  0.2553
  477MOL0     C65713   0.705   3.849   8.715  0.6494  0.0603  0.0222
  477MOL0     C65714   0.720   3.839   8.578 -0.2245  0.2899 -0.1664
  477MOL0     C65715   0.730   3.955   8.498  0.5637 -0.1236 -0.9988
  477MOL0     C65716   0.746   3.935   8.348  0.2731  0.1231 -0.0096
  477MOL0     C65717   0.715   4.082   8.559  0.1740  0.5708 -0.2689
  477MOL0     C65718   0.725   4.209   8.491  0.6353 -0.1113 -0.8500
  477MOL0     O65719   0.762   4.317   8.561 -0.1595 -0.2269  1.1090
  477MOL0     C65720   0.773   4.434   8.494  0.2407  1.0316 -0.1499
  477MOL0     C65721   0.888   4.466   8.426 -0.3468  0.2454  0.4641
  477MOL0     C65722   0.909   4.587   8.359  0.8393  0.4418  0.8295
  477MOL0     C65723   0.802   4.682   8.359  0.5273  0.3123  0.6580
  477MOL0     O65724   0.807   4.815   8.300  0.0310  0.9131 -0.2746
  477MOL0     C65725   0.936   4.872   8.264 -0.1352 -0.5602 -0.3825
  477MOL0     C65726   0.909   5.025   8.253  1.2761  0.4044 -1.0801
  477MOL0     C65727   1.025   5.093   8.171  0.2432  0.0348 -0.9389
  477MOL0     C65728   1.039   5.245   8.195 -0.2311 -0.1410 -0.3413
  477MOL0     C65729   1.153   5.319   8.112  0.5407  0.6630 -0.2915
  477MOL0     C65730   1.159   5.465   8.143  0.1731 -0.2922 -0.6184
  477MOL0     C65731   1.305   5.522   8.118 -0.2651 -0.2201 -0.3139
  477MOL0     C65732   1.334   5.650   8.203  0.2471 -0.0517  0.0773
  477MOL0    Cl65733   1.481   5.705   8.165 -0.0231  0.5024  0.1049
  477MOL0     C65734   0.684   4.649   8.432  0.2045 -0.0882  0.4045
  477MOL0     C65735   0.676   4.530   8.495 -0.1411 -0.8299 -0.7634
  477MOL0     O65736   0.705   4.214   8.368  0.2832 -0.3726  0.7427
  477MOL0     C65737   0.682   4.094   8.698  0.5030  0.4709 -0.0966
  477MOL0     C65738   0.683   3.980   8.779 -0.3521  0.2939  0.6150
  477MOL0     N65739   0.761   3.403   9.156 -0.2380 -0.1728  0.0622
  477MOL0     N65740   0.888   3.366   9.173  0.3037 -0.5017  0.5166
  477MOL0     C65741   1.864   2.828   8.752 -0.2504  0.0836 -0.3369
  477MOL0     C65742   1.998   2.824   8.704 -0.2324  0.2433  0.8746
  477MOL0     C65743   2.397   2.778   8.546  0.4758  0.1831  0.8563
  477MOL0     C65744   2.458   2.876   8.475  0.3251  0.5110  0.3259
  477MOL0     C65745   2.596   2.883   8.462 -0.0533 -0.8856  0.3226
  477MOL0     C65746   2.684   2.792   8.527  0.2737 -0.0742  0.7624
  477MOL0     O65747   2.817   2.823   8.510 -0.9126  0.5783 -0.2657
  477MOL0     C65748   2.924   2.736   8.555  0.4656 -0.8947  0.3573
  477MOL0     C65749   3.046   2.829   8.591 -0.2488  0.9929  0.4211
  477MOL0     C65750   3.175   2.745   8.619  0.2499 -1.0846  0.2674
  477MOL0     C65751   3.166   2.690   8.759 -0.2583  0.8170  0.2488
  477MOL0     C65752   3.298   2.632   8.799  0.6095 -0.7801  1.1839
  477MOL0     C65753   3.410   2.600   8.817 -0.2793 -0.5656  0.5464
  477MOL0     C65754   2.625   2.683   8.587 -0.1747  0.4590 -0.2977
  477MOL0     C65755   2.483   2.677   8.588  1.0694  0.4797 -0.6677
  477MOL0     C65756   2.434   2.542   8.650 -0.5226  0.4441 -0.7528
  477MOL0     H65757   2.047   2.487   8.749 -0.7182 -0.6609 -2.4700
  477MOL0     H65758   1.812   2.500   8.816  0.4659  0.1025  0.9030
  477MOL0     H65759   1.604   2.839   8.690  0.9608  0.0573  1.4454
  477MOL0     H65760   1.620   2.910   8.850 -0.1736 -0.6213  3.1897
  477MOL0     H65761   1.405   2.714   8.752 -0.5149  1.0657 -0.4946
  477MOL0     H65762   1.413   2.754   8.917  1.2931 -3.2789 -0.4855
  477MOL0     H65763   1.383   2.936   8.664 -1.0533 -0.4681 -0.2116
  477MOL0     H65764   1.251   2.875   8.758 -0.5893 -0.6151  2.8041
  477MOL0     H65765   1.365   2.993   8.959  2.2943  0.7383  0.9076
  477MOL0     H65766   1.461   3.079   8.851  0.5345 -2.2304  1.6133
  477MOL0     H65767   1.258   3.188   8.743 -4.7443  1.8505  0.5176
  477MOL0     H65768   1.297   3.213   8.915 -0.6712  1.2919  0.0767
  477MOL0     H65769   1.040   3.188   8.844  0.0791 -1.6356 -1.0849
  477MOL0     H65770   1.068   3.020   8.815 -2.0376  0.6117  0.9070
  477MOL0     H65771   1.163   3.014   9.068 -1.6232 -0.6383  3.4890
  477MOL0     H65772   0.990   3.015   9.030  0.0299  0.5617  2.6124
  477MOL0     H65773   1.057   3.171   9.220  0.7506  1.2648  1.1200
  477MOL0     H65774   1.142   3.260   9.084 -0.3149  0.8023 -0.8453
  477MOL0     H65775   0.809   3.137   8.974 -1.4804 -0.5877  1.6374
  477MOL0     H65776   0.520   3.393   9.055  1.1636  1.2833  0.8545
  477MOL0     H65777   0.533   3.231   8.977  1.8025 -1.0693 -1.2765
  477MOL0     H65778   0.679   3.355   8.799 -1.4048  0.0446 -0.6841
  477MOL0     H65779   0.512   3.365   8.786  0.6527 -1.1838 -0.4192
  477MOL0     H65780   0.495   3.562   8.875  0.1598  3.6091  0.6357
  477MOL0     H65781   0.665   3.562   8.951 -0.0481 -0.4414 -1.1994
  477MOL0     H65782   0.760   3.577   8.726  0.7693  1.0430  2.0938
  477MOL0     H65783   0.592   3.613   8.662  1.8247  0.5570 -1.7627
  477MOL0     H65784   0.740   3.744   8.530 -0.6905  0.2725 -0.3306
  477MOL0     H65785   0.772   3.829   8.337  1.3015  0.0100  2.7616
  477MOL0     H65786   0.831   3.992   8.309  1.8541 -3.1071 -1.7289
  477MOL0     H65787   0.655   3.952   8.290  1.1530  1.6930 -1.0029
  477MOL0     H65788   0.968   4.393   8.420  0.5007  0.9418  2.5354
  477MOL0     H65789   0.996   4.620   8.303 -1.5843  3.0143 -1.7418
  477MOL0     H65790   1.018   4.847   8.332 -0.4325 -1.0595 -0.2010
  477MOL0     H65791   0.960   4.826   8.168  0.4966  0.3209 -0.6621
  477MOL0     H65792   0.807   5.041   8.219  0.7079  1.1469  0.8226
  477MOL0     H65793   0.909   5.067   8.354 -1.1371  1.2347 -1.3731
  477MOL0     H65794   1.016   5.095   8.062 -0.3668  0.0449 -0.8946
  477MOL0     H65795   1.125   5.051   8.188  1.1095  2.9272  2.1584
  477MOL0     H65796   1.046   5.267   8.302  2.2434 -2.0576 -0.0316
  477MOL0     H65797   0.952   5.303   8.163  1.1186  2.5154  0.4818
  477MOL0     H65798   1.247   5.275   8.145  0.3280 -0.6078 -1.2606
  477MOL0     H65799   1.122   5.295   8.009 -0.1831  0.5684 -0.0619
  477MOL0     H65800   1.136   5.487   8.248  0.3120  1.1280 -0.8706
  477MOL0     H65801   1.094   5.532   8.087  1.3272  2.8689  1.5155
  477MOL0     H65802   1.321   5.555   8.015 -1.7748 -1.5795 -1.0306
  477MOL0     H65803   1.374   5.439   8.129 -0.4138 -0.3286 -0.1929
  477MOL0     H65804   1.330   5.640   8.311 -0.5730  0.8860  0.1427
  477MOL0     H65805   1.263   5.729   8.175  0.8892  0.2586 -0.7191
  477MOL0     H65806   0.605   4.724   8.431 -0.4377 -0.7522 -0.2809
  477MOL0     H65807   0.582   4.504   8.544 -0.4866 -1.6382 -1.8190
  477MOL0     H65808   0.657   4.191   8.741 -1.2646  0.5525 -1.2123
  477MOL0     H65809   0.652   3.989   8.882  4.3044  1.2643  2.1617
  477MOL0     H65810   1.823   2.929   8.755  2.1550  1.2065 -1.7913
  477MOL0     H65811   2.049   2.917   8.679  0.6858 -0.4977 -0.0516
  477MOL0     H65812   2.407   2.950   8.413  0.0675  0.0419 -0.0355
  477MOL0     H65813   2.644   2.969   8.417  0.8199 -0.0781  2.6206
  477MOL0     H65814   2.896   2.665   8.634 -1.7206  1.1793  1.5531
  477MOL0     H65815   2.954   2.677   8.468 -0.6737 -0.0881 -0.6051
  477MOL0     H65816   3.001   2.895   8.666 -0.9511  1.4913 -0.4177
  477MOL0     H65817   3.073   2.890   8.505  1.1563 -3.1000 -2.3295
  477MOL0     H65818   3.174   2.656   8.556 -3.1231 -2.3753  1.8862
  477MOL0     H65819   3.265   2.805   8.605  0.0298 -0.8545 -0.1534
  477MOL0     H65820   3.094   2.609   8.753 -0.1824  0.8162 -3.6462
  477MOL0     H65821   3.144   2.776   8.822  3.7420  4.8423 -3.0637
  477MOL0     H65822   3.512   2.572   8.835 -0.5987 -2.0814  0.1855
  477MOL0     H65823   2.693   2.608   8.627  1.2808  1.8080 -0.1599
  477MOL0     H65824   2.389   2.549   8.750  0.2625  2.8125 -0.4821
  477MOL0     H65825   2.384   2.483   8.573  0.5346  0.0914 -1.1835
  477MOL0     H65826   2.523   2.482   8.670 -0.1805  0.4405 -2.2381
  478MOL0     O65827   2.661   4.548   8.842  0.6104  0.1757 -0.9116
  478MOL0     C65828   2.698   4.644   8.902 -0.3635  0.1946 -0.1375
  478MOL0     O65829   2.801   4.724   8.860 -0.2382 -0.4672 -0.2156
  478MOL0     C65830   2.865   4.673   8.745  0.5238 -0.6983 -0.2374
  478MOL0     C65831   2.968   4.582   8.766  0.2591  0.1126 -0.0903
  478MOL0     C65832   3.036   4.538   8.660 -0.3967 -0.4726 -0.0402
  478MOL0     C65833   2.999   4.559   8.532  0.7236  0.7391  0.0156
  478MOL0     O65834   3.090   4.502   8.438  0.3663  0.3587 -0.4038
  478MOL0     C65835   3.074   4.533   8.298  0.0572 -0.1393 -0.3719
  478MOL0     C65836   3.174   4.460   8.210 -0.3238 -1.1476 -0.4919
  478MOL0     C65837   3.113   4.373   8.101 -1.2985  0.3180 -0.1229
  478MOL0     C65838   3.223   4.321   8.003 -0.6601 -0.5384  0.7737
  478MOL0     C65839   3.165   4.239   7.883 -0.0319  0.9283  0.4324
  478MOL0     C65840   3.245   4.250   7.757 -0.1622 -0.2511  0.3581
  478MOL0     C65841   3.165   4.202   7.634 -0.3628 -0.5304 -0.1654
  478MOL0     C65842   3.112   4.060   7.640 -0.3965 -0.9353 -0.6750
  478MOL0     N65843   3.212   3.962   7.608  1.1231  0.5999  0.1675
  478MOL0     C65844   3.314   3.948   7.690 -0.4744  0.5783 -0.1360
  478MOL0     C65845   3.409   3.887   7.621 -0.4754  0.2040 -0.4203
  478MOL0     C65846   3.538   3.850   7.683  0.7169 -0.9665 -0.1289
  478MOL0     C65847   3.612   3.736   7.601 -0.2044 -0.6465  0.7310
  478MOL0     C65848   3.560   3.594   7.577 -0.1021  0.2832  0.3210
  478MOL0     C65849   3.665   3.485   7.608 -0.6653 -1.2217 -0.0121
  478MOL0     O65850   3.702   3.484   7.745  0.2979 -0.1885 -0.2071
  478MOL0     C65851   3.788   3.390   7.788 -0.4382 -0.1016 -0.6124
  478MOL0     C65852   3.891   3.422   7.883 -0.3830  0.3310  0.4107
  478MOL0     C65853   3.994   3.323   7.905  0.0720  0.7797 -0.2354
  478MOL0     C65854   4.107   3.379   7.988 -0.0080  0.4139  0.6741
  478MOL0     C65855   3.975   3.188   7.863 -0.4249  1.0276 -0.2616
  478MOL0     C65856   4.084   3.082   7.882  1.0907  0.3125  0.1762
  478MOL0     O65857   4.204   3.123   7.922  0.5892 -0.0826 -0.0156
  478MOL0     C65858   4.303   3.042   7.963 -0.5002 -0.2207 -0.6120
  478MOL0     C65859   4.411   3.014   7.875  0.4353  0.3676 -0.8858
  478MOL0     C65860   4.515   2.922   7.916 -0.4520 -0.0457  0.5507
  478MOL0     C65861   4.522   2.870   8.045 -0.7154 -0.2717 -0.7209
  478MOL0     O65862   4.612   2.769   8.074  0.4846 -0.5474  0.5625
  478MOL0     C65863   4.634   2.708   8.204  0.1970  0.3762  0.5415
  478MOL0     C65864   4.532   2.600   8.244 -0.7347 -0.4329  0.2719
  478MOL0     C65865   4.538   2.491   8.140 -0.3499  0.3337  0.4893
  478MOL0     C65866   4.458   2.362   8.191 -0.3474 -0.7880  1.0275
  478MOL0     C65867   4.474   2.230   8.102  0.0477 -0.6598 -0.3874
  478MOL0     C65868   4.613   2.177   8.081 -0.4779  0.1313 -0.0217
  478MOL0     C65869   4.675   2.132   8.210 -0.4480  0.3936  0.0951
  478MOL0     C65870   4.810   2.081   8.177 -0.2535  1.2262  0.4104
  478MOL0    Cl65871   4.928   2.169   8.285  0.4626 -0.0914  0.1944
  478MOL0     C65872   4.428   2.920   8.138  0.2813 -0.7760 -0.2599
  478MOL0     C65873   4.315   3.002   8.103 -0.7794 -0.3280  0.2598
  478MOL0     O65874   4.043   2.963   7.870 -0.2208  0.1545  0.2676
  478MOL0     C65875   3.864   3.160   7.790  1.0696  1.5107  0.2925
  478MOL0     C65876   3.767   3.255   7.750 -0.9547 -0.2564  0.5419
  478MOL0     N65877   3.351   3.858   7.498 -0.3090  0.2971 -0.1236
  478MOL0     N65878   3.232   3.904   7.488 -0.4100  0.5287  0.2006
  478MOL0     C65879   2.902   4.651   8.509  0.4481  0.0237 -0.6261
  478MOL0     C65880   2.825   4.701   8.616  0.1124 -0.2045  0.0068
  478MOL0     C65881   2.649   4.654   9.040  0.0617  0.8826 -0.3592
  478MOL0     C65882   2.552   4.559   9.082  0.5827  0.1955 -1.7886
  478MOL0     C65883   2.496   4.568   9.213 -0.3511  0.7302 -0.3867
  478MOL0     C65884   2.528   4.673   9.293  0.4408  0.6190  0.7214
  478MOL0     O65885   2.460   4.699   9.409 -0.1263 -0.9784 -0.0122
  478MOL0     C65886   2.345   4.788   9.392 -0.2157  0.3362 -0.4835
  478MOL0     C65887   2.232   4.727   9.322  0.4109 -0.6452  0.0067
  478MOL0     C65888   2.159   4.602   9.390 -0.9263 -1.1399 -0.9005
  478MOL0     C65889   2.040   4.560   9.310  0.0644 -0.0076  0.2599
  478MOL0     C65890   1.937   4.658   9.285 -0.7905 -0.2584 -0.4863
  478MOL0     C65891   1.844   4.735   9.280  0.3139 -0.1652 -0.2738
  478MOL0     C65892   2.614   4.772   9.250 -1.3221  0.3352  1.1524
  478MOL0     C65893   2.673   4.767   9.123 -0.1641  1.0497  0.0646
  478MOL0     C65894   2.777   4.873   9.090 -0.4090  0.2897 -0.4156
  478MOL0     H65895   2.985   4.568   8.872  1.0281  4.1867  0.5137
  478MOL0     H65896   3.118   4.468   8.676 -0.7001 -1.4234 -2.1521
  478MOL0     H65897   3.075   4.642   8.284  0.0268  0.6160  3.9978
  478MOL0     H65898   2.972   4.498   8.275  1.0178 -1.7543 -2.4979
  478MOL0     H65899   3.234   4.532   8.154 -0.2880 -1.0909 -0.3824
  478MOL0     H65900   3.249   4.410   8.273  3.2248  1.8846 -1.9284
  478MOL0     H65901   3.068   4.284   8.145 -0.6831 -0.6112 -1.3222
  478MOL0     H65902   3.034   4.419   8.041  0.1193 -0.7010 -2.9143
  478MOL0     H65903   3.281   4.410   7.979 -0.8121 -1.3095 -3.1846
  478MOL0     H65904   3.292   4.261   8.062  0.2992  0.0081  0.2317
  478MOL0     H65905   3.070   4.283   7.850  0.6140  1.7482 -0.3949
  478MOL0     H65906   3.142   4.137   7.915 -2.0427  1.1570 -0.1153
  478MOL0     H65907   3.278   4.353   7.744  0.0283 -0.3892 -0.3201
  478MOL0     H65908   3.332   4.188   7.782 -0.3328 -0.1549  1.2341
  478MOL0     H65909   3.231   4.215   7.548 -0.2428  3.2769  0.3584
  478MOL0     H65910   3.085   4.270   7.603  0.2195 -0.0842 -0.7117
  478MOL0     H65911   3.059   4.042   7.734 -0.6124  3.3424  0.2357
  478MOL0     H65912   3.032   4.046   7.567 -0.2695  0.2140 -1.0668
  478MOL0     H65913   3.329   3.984   7.791 -0.7982  0.9157 -0.2075
  478MOL0     H65914   3.514   3.801   7.777  2.9814 -0.2177  0.9215
  478MOL0     H65915   3.600   3.939   7.701 -0.1746 -0.4135  0.2859
  478MOL0     H65916   3.616   3.781   7.501  1.2022 -0.3887  0.8934
  478MOL0     H65917   3.711   3.736   7.646 -1.5756  0.5440  4.0257
  478MOL0     H65918   3.473   3.585   7.642 -1.2032  0.8112 -1.0314
  478MOL0     H65919   3.532   3.584   7.472 -0.9669  1.1179  0.4705
  478MOL0     H65920   3.624   3.391   7.570  2.5430 -2.5759 -0.5070
  478MOL0     H65921   3.746   3.528   7.548 -0.9385  0.1866  0.5825
  478MOL0     H65922   3.903   3.525   7.915 -0.8524  0.6612 -0.4322
  478MOL0     H65923   4.088   3.483   8.019 -0.6185 -0.5676  4.0416
  478MOL0     H65924   4.196   3.370   7.926 -0.4104  2.3275 -0.2771
  478MOL0     H65925   4.121   3.323   8.081  1.0872  1.0109  0.8814
  478MOL0     H65926   4.388   3.046   7.774 -1.6073  0.4058 -0.4437
  478MOL0     H65927   4.583   2.873   7.847 -0.1000 -2.5008  2.5348
  478MOL0     H65928   4.736   2.667   8.214  1.2855  2.8081  0.0092
  478MOL0     H65929   4.630   2.797   8.267  0.1015  0.7998 -0.0616
  478MOL0     H65930   4.545   2.560   8.345  0.5382  0.4039  0.4630
  478MOL0     H65931   4.434   2.646   8.235  0.6169  2.2184 -3.2659
  478MOL0     H65932   4.644   2.477   8.117 -0.5410  0.8275 -0.7531
  478MOL0     H65933   4.496   2.516   8.042  1.0797 -0.2513 -0.3073
  478MOL0     H65934   4.352   2.386   8.181 -0.3195 -1.5058 -1.5577
  478MOL0     H65935   4.476   2.336   8.296  1.9508 -1.9673  0.4078
  478MOL0     H65936   4.417   2.153   8.156 -0.1180  0.9311  1.8530
  478MOL0     H65937   4.428   2.234   8.003  2.6125 -0.1435 -1.6398
  478MOL0     H65938   4.670   2.263   8.047 -0.5462  1.2788  2.5009
  478MOL0     H65939   4.623   2.096   8.008  0.1128  3.6554 -4.2096
  478MOL0     H65940   4.611   2.057   8.256 -3.3830  1.5921 -1.7458
  478MOL0     H65941   4.679   2.220   8.275 -3.8513  1.9970 -1.6203
  478MOL0     H65942   4.844   2.108   8.077 -1.8749  0.0030 -0.5085
  478MOL0     H65943   4.812   1.972   8.185  0.8574  1.3880  5.2455
  478MOL0     H65944   4.432   2.872   8.235  1.1254  0.4979  0.3614
  478MOL0     H65945   4.243   3.033   8.179  2.2932 -0.3140  3.4170
  478MOL0     H65946   3.848   3.055   7.767  2.2237  1.2466  0.6032
  478MOL0     H65947   3.681   3.231   7.689  1.3839 -0.3669 -3.0046
  478MOL0     H65948   2.879   4.660   8.403 -2.8895 -2.2530 -0.2578
  478MOL0     H65949   2.742   4.768   8.598  0.9454  1.4996  2.0530
  478MOL0     H65950   2.537   4.468   9.024  2.6602 -0.4702 -1.3761
  478MOL0     H65951   2.419   4.498   9.248 -0.5502  0.6907 -0.8992
  478MOL0     H65952   2.311   4.829   9.488 -0.2628  0.9116 -0.7415
  478MOL0     H65953   2.381   4.876   9.337  0.6063  0.8993  0.9035
  478MOL0     H65954   2.259   4.717   9.216 -0.5550  0.6958 -0.3864
  478MOL0     H65955   2.156   4.805   9.322 -0.8935 -1.8732 -0.4828
  478MOL0     H65956   2.222   4.515   9.413 -1.2754 -1.5831 -1.5881
  478MOL0     H65957   2.133   4.638   9.490 -0.9127 -2.4734 -0.3877
  478MOL0     H65958   2.000   4.483   9.376 -1.1922  0.5085  0.1203
  478MOL0     H65959   2.071   4.507   9.219  2.3605  1.3871  0.1406
  478MOL0     H65960   1.766   4.807   9.267 -0.7595 -0.7937  2.1345
  478MOL0     H65961   2.638   4.851   9.321 -0.9042 -2.0144  3.8405
  478MOL0     H65962   2.740   4.936   9.009  0.2091 -2.1029 -2.6788
  478MOL0     H65963   2.798   4.934   9.178 -1.2936  2.1238 -1.4226
  478MOL0     H65964   2.871   4.826   9.062 -1.7853 -1.8876 -1.7242
  479MOL0     O65965   2.531   8.342   5.425 -0.2074  0.1957 -0.2908
  479MOL0     C65966   2.601   8.248   5.389  1.2021  0.8415 -0.2075
  479MOL0     O65967   2.669   8.242   5.273  0.2672 -0.2335  0.4482
  479MOL0     C65968   2.676   8.361   5.202  1.1665  0.0789  0.3206
  479MOL0     C65969   2.802   8.414   5.223  0.2425 -0.8745  0.3721
  479MOL0     C65970   2.819   8.549   5.176  0.2500  0.8482  0.2635
  479MOL0     C65971   2.723   8.626   5.109  0.6235 -0.1384 -0.5289
  479MOL0     O65972   2.728   8.754   5.052  0.0824  0.3382  0.3746
  479MOL0     C65973   2.867   8.799   5.057 -0.3177 -0.1147 -0.1863
  479MOL0     C65974   2.870   8.937   5.003 -0.2672  0.7530 -0.2876
  479MOL0     C65975   3.023   8.969   4.963  0.5752  0.5825 -0.1604
  479MOL0     C65976   3.058   8.944   4.815 -1.0768  0.5349 -0.1448
  479MOL0     C65977   3.208   8.974   4.783  1.2219  0.4010 -0.1960
  479MOL0     C65978   3.248   8.945   4.630  0.0125  0.9560  0.4416
  479MOL0     C65979   3.244   8.799   4.584  0.3693 -0.0847 -0.0982
  479MOL0     C65980   3.309   8.778   4.448 -0.8295 -0.5585  0.0051
  479MOL0     N65981   3.454   8.785   4.454 -0.6373  0.1848 -1.0680
  479MOL0     C65982   3.541   8.695   4.520 -0.5258  0.0936 -0.1442
  479MOL0     C65983   3.664   8.734   4.482 -0.2245 -0.2721  0.1474
  479MOL0     C65984   3.793   8.670   4.530  0.1094  0.5256  0.3548
  479MOL0     C65985   3.888   8.610   4.425  0.6659  0.9759 -0.2820
  479MOL0     C65986   3.817   8.499   4.338  0.9762 -0.4664  1.3109
  479MOL0     C65987   3.885   8.454   4.209  0.2585 -0.7871  0.5726
  479MOL0     O65988   4.024   8.423   4.235  0.4385  0.5651  0.1031
  479MOL0     C65989   4.103   8.392   4.126 -0.2177 -0.7660  0.0913
  479MOL0     C65990   4.063   8.383   3.988 -0.0657 -0.8273 -0.6560
  479MOL0     C65991   4.160   8.350   3.892 -0.7040  0.6650  0.1502
  479MOL0     C65992   4.107   8.337   3.747  1.0861  0.0304 -0.4943
  479MOL0     C65993   4.291   8.310   3.917  0.7210 -0.0551  1.1192
  479MOL0     C65994   4.392   8.281   3.804  0.7655 -1.1476 -0.1651
  479MOL0     O65995   4.487   8.195   3.835 -0.4508  0.0081 -0.0431
  479MOL0     C65996   4.559   8.113   3.749  0.1078  0.0657 -0.7864
  479MOL0     C65997   4.638   8.022   3.799 -1.1995  0.0145 -0.1804
  479MOL0     C65998   4.734   7.943   3.728 -0.4485 -0.7646 -0.0723
  479MOL0     C65999   4.735   7.958   3.588 -0.4507 -0.4720 -0.2614
  479MOL0     O66000   4.827   7.897   3.506  0.9426 -0.5530  0.1389
  479MOL0     C66001   4.892   7.786   3.571  0.0087 -0.1474 -0.1215
  479MOL0     C66002   4.951   7.699   3.461 -0.3359 -0.9750 -0.1104
  479MOL0     C66003   5.095   7.644   3.488  0.5585 -0.1560  0.0907
  479MOL0     C66004   5.143   7.564   3.370 -0.0657 -0.6674 -0.9501
  479MOL0     C66005   5.283   7.495   3.395 -0.5519 -0.1995 -0.7257
  479MOL0     C66006   5.400   7.578   3.349 -0.8007 -0.0365  0.7868
  479MOL0     C66007   5.535   7.524   3.390 -0.5101  0.6094 -0.1288
  479MOL0     C66008   5.576   7.391   3.314 -0.3084  0.2205 -0.7373
  479MOL0    Cl66009   5.558   7.393   3.131  0.0641 -0.3901 -0.1999
  479MOL0     C66010   4.634   8.032   3.531 -0.2585  0.0082  0.0455
  479MOL0     C66011   4.552   8.111   3.611  0.9119 -0.5234 -0.4438
  479MOL0     O66012   4.401   8.361   3.711 -0.6581 -0.0271  0.3437
  479MOL0     C66013   4.328   8.322   4.054  0.4946 -0.4961 -0.3783
  479MOL0     C66014   4.237   8.357   4.160 -0.8039 -0.1918  0.5300
  479MOL0     N66015   3.660   8.856   4.411  0.0626  0.4237  0.3261
  479MOL0     N66016   3.534   8.891   4.420 -0.0757 -0.6204 -0.1681
  479MOL0     C66017   2.604   8.560   5.079  0.3568 -0.1140  0.3304
  479MOL0     C66018   2.572   8.432   5.133 -0.0353 -0.2596 -0.0366
  479MOL0     C66019   2.586   8.133   5.478  0.7086 -0.4610  0.9302
  479MOL0     C66020   2.607   8.010   5.413 -0.7359 -0.1005 -0.1951
  479MOL0     C66021   2.577   7.891   5.472 -0.5731  0.3381  0.2236
  479MOL0     C66022   2.548   7.888   5.605 -0.7400 -0.1253  0.6615
  479MOL0     O66023   2.529   7.768   5.662  0.4733  0.2283  0.1180
  479MOL0     C66024   2.562   7.759   5.805  0.3147 -0.0893 -1.5921
  479MOL0     C66025   2.699   7.794   5.837  1.0792  0.3708 -0.1756
  479MOL0     C66026   2.811   7.695   5.794  0.6533 -0.0923 -0.3138
  479MOL0     C66027   2.947   7.763   5.818  0.2752 -0.2850 -0.5560
  479MOL0     C66028   2.975   7.796   5.955 -0.4615 -0.3083  0.3209
  479MOL0     C66029   3.004   7.832   6.074  0.5423  0.1826  0.2780
  479MOL0     C66030   2.526   8.009   5.674  0.7083  0.7428  0.3807
  479MOL0     C66031   2.546   8.131   5.608  0.5474 -0.1223 -0.6307
  479MOL0     C66032   2.524   8.251   5.689 -0.4069 -0.4133  0.6498
  479MOL0     H66033   2.885   8.364   5.272  1.8719  2.5524  1.4541
  479MOL0     H66034   2.919   8.592   5.183  1.2779 -1.1720 -1.0383
  479MOL0     H66035   2.933   8.729   5.004  2.2935 -0.4064  3.1476
  479MOL0     H66036   2.894   8.805   5.163 -2.3506  0.6368  0.3429
  479MOL0     H66037   2.794   8.940   4.924 -1.0898 -0.8114  0.4022
  479MOL0     H66038   2.836   9.011   5.075  1.9050  1.2867  0.2834
  479MOL0     H66039   3.027   9.074   4.991 -2.1368  0.3698  1.2739
  479MOL0     H66040   3.095   8.913   5.025 -0.4865 -0.4680  0.1688
  479MOL0     H66041   3.039   8.841   4.783 -0.1140  0.4563 -0.4991
  479MOL0     H66042   2.999   9.006   4.747  0.5715  3.5166  0.9620
  479MOL0     H66043   3.277   8.915   4.844 -1.3956 -2.2001  0.4730
  479MOL0     H66044   3.233   9.080   4.799 -0.9812  1.2275 -1.7265
  479MOL0     H66045   3.166   9.004   4.587  0.2606  1.3272  0.4732
  479MOL0     H66046   3.347   8.984   4.605  0.1076  1.0554  0.9739
  479MOL0     H66047   3.137   8.776   4.587 -0.6678  4.0834  0.0581
  479MOL0     H66048   3.292   8.731   4.655  1.8654 -3.2475 -3.7448
  479MOL0     H66049   3.303   8.682   4.397  1.6684  0.4858 -2.6029
  479MOL0     H66050   3.269   8.853   4.379 -0.0188  1.9522  2.0516
  479MOL0     H66051   3.511   8.616   4.589  0.5837 -0.9948 -0.8612
  479MOL0     H66052   3.764   8.594   4.604  2.7123  0.1582  1.0698
  479MOL0     H66053   3.847   8.740   4.593  3.4660 -2.0438  0.6003
  479MOL0     H66054   3.931   8.687   4.360  0.8984 -1.2010 -2.9290
  479MOL0     H66055   3.970   8.564   4.481  0.0659  0.5196  0.2320
  479MOL0     H66056   3.793   8.410   4.398  0.9758 -0.0693  1.9092
  479MOL0     H66057   3.721   8.540   4.305  0.1653 -0.8313  3.0757
  479MOL0     H66058   3.828   8.378   4.156  2.6173 -0.5369 -2.6182
  479MOL0     H66059   3.870   8.533   4.135  0.9488  0.2457  1.4873
  479MOL0     H66060   3.961   8.401   3.956  0.9246  3.3162 -2.1651
  479MOL0     H66061   4.125   8.239   3.702  0.9883 -0.7420  1.0753
  479MOL0     H66062   4.147   8.421   3.689  0.9025  0.1722 -0.4161
  479MOL0     H66063   3.998   8.338   3.743  0.8456 -1.6101  2.6870
  479MOL0     H66064   4.619   8.010   3.905 -3.3504 -2.7098 -0.7802
  479MOL0     H66065   4.801   7.882   3.789 -2.1191  0.1045  2.8661
  479MOL0     H66066   4.971   7.823   3.636  1.8062 -2.6391 -0.7589
  479MOL0     H66067   4.823   7.724   3.630 -2.5805  0.8110 -1.9432
  479MOL0     H66068   4.887   7.621   3.420 -0.9392  1.2512 -3.8469
  479MOL0     H66069   4.980   7.774   3.386  2.0193 -0.3133  1.3421
  479MOL0     H66070   5.084   7.572   3.570 -0.8625 -0.0120  0.0577
  479MOL0     H66071   5.166   7.723   3.513 -0.9854  1.6095 -0.8938
  479MOL0     H66072   5.163   7.628   3.283  0.8238  2.0728  1.1133
  479MOL0     H66073   5.076   7.482   3.346 -0.8272 -0.0761 -0.8910
  479MOL0     H66074   5.298   7.474   3.501 -1.2530 -2.1336 -0.9737
  479MOL0     H66075   5.287   7.396   3.349  2.1965 -0.3669 -0.2912
  479MOL0     H66076   5.393   7.677   3.395 -0.7004  0.2647  0.1626
  479MOL0     H66077   5.388   7.595   3.242  0.8463 -1.0237  0.4057
  479MOL0     H66078   5.534   7.507   3.498 -2.4154  1.3754  0.0061
  479MOL0     H66079   5.614   7.595   3.366  2.2443 -2.7100 -1.8755
  479MOL0     H66080   5.518   7.306   3.350 -0.8911  0.7940 -0.3116
  479MOL0     H66081   5.683   7.368   3.327 -0.0649  2.6203  3.0346
  479MOL0     H66082   4.615   8.021   3.425  1.1126  1.2846 -0.3706
  479MOL0     H66083   4.485   8.176   3.555  0.8031 -0.5670 -0.3639
  479MOL0     H66084   4.428   8.297   4.086  1.5919  3.9897  0.3908
  479MOL0     H66085   4.275   8.358   4.262  1.4846  1.2335 -0.2536
  479MOL0     H66086   2.531   8.610   5.017 -0.5134  0.7813  2.0144
  479MOL0     H66087   2.479   8.377   5.124 -0.4136  0.5815 -1.4780
  479MOL0     H66088   2.649   8.007   5.313 -0.8540  0.3490 -0.2608
  479MOL0     H66089   2.580   7.790   5.433 -0.3685  0.4137  0.0462
  479MOL0     H66090   2.496   7.818   5.869 -0.0428 -0.4092 -1.6595
  479MOL0     H66091   2.561   7.655   5.841  2.0993 -0.9778 -3.8595
  479MOL0     H66092   2.704   7.798   5.946  1.8222 -0.4207 -0.1670
  479MOL0     H66093   2.722   7.894   5.798  3.1785 -0.1775 -0.4880
  479MOL0     H66094   2.805   7.592   5.832 -2.2225 -0.9385 -2.6234
  479MOL0     H66095   2.811   7.684   5.685  2.8057 -3.4238 -0.1043
  479MOL0     H66096   2.950   7.847   5.747  0.7062  0.9554  0.8879
  479MOL0     H66097   3.031   7.702   5.782 -0.7615 -0.8634 -2.1232
  479MOL0     H66098   3.018   7.881   6.169  0.6887  1.5464 -0.4311
  479MOL0     H66099   2.483   8.018   5.773 -0.4137 -1.3304  0.1464
  479MOL0     H66100   2.461   8.324   5.637 -1.3529 -1.6187  0.0415
  479MOL0     H66101   2.475   8.230   5.785  0.0940 -0.1333  0.9711
  479MOL0     H66102   2.618   8.300   5.714 -1.6883  1.6852  1.6444
  480MOL0     O66103   3.652   6.346   4.968 -1.0171  0.3461 -0.6435
  480MOL0     C66104   3.623   6.360   4.852  1.1755  0.1814 -0.0292
  480MOL0     O66105   3.528   6.291   4.781 -0.0940  0.2895  0.4951
  480MOL0     C66106   3.456   6.176   4.821 -0.3215  0.2406 -0.7251
  480MOL0     C66107   3.454   6.061   4.735 -1.1047  0.2975  0.5704
  480MOL0     C66108   3.370   5.952   4.771 -0.3472  0.0991  0.7925
  480MOL0     C66109   3.310   5.938   4.893  0.0767 -0.7529 -0.0721
  480MOL0     O66110   3.234   5.823   4.906  0.2561  0.7006 -0.2576
  480MOL0     C66111   3.153   5.805   5.027 -1.0732  0.0246  0.8333
  480MOL0     C66112   3.092   5.666   5.027  0.2955 -0.5624 -0.0849
  480MOL0     C66113   3.195   5.552   5.035 -0.0918  0.2471  0.1001
  480MOL0     C66114   3.126   5.411   4.999  0.0643 -0.3026  0.5517
  480MOL0     C66115   3.231   5.299   4.977  0.4765  0.6690 -0.1657
  480MOL0     C66116   3.172   5.161   4.952  1.1302 -0.3427  0.6806
  480MOL0     C66117   3.273   5.061   4.900  0.4204  0.3783 -0.1757
  480MOL0     C66118   3.218   4.916   4.911 -0.5745 -0.4362 -0.2980
  480MOL0     N66119   3.329   4.817   4.915  0.6955 -0.7614 -0.9978
  480MOL0     C66120   3.404   4.787   5.025 -0.0712 -0.4464 -0.4689
  480MOL0     C66121   3.513   4.717   4.984  0.6296  0.1933 -0.2972
  480MOL0     C66122   3.612   4.662   5.079  0.3760 -0.3995 -0.0743
  480MOL0     C66123   3.653   4.520   5.055 -0.0924  0.9597  0.7246
  480MOL0     C66124   3.573   4.417   5.138  0.2610  1.2007  1.0773
  480MOL0     C66125   3.418   4.430   5.128  0.2060 -0.7019 -0.2659
  480MOL0     O66126   3.357   4.325   5.203  0.5093 -0.5560 -0.6070
  480MOL0     C66127   3.229   4.353   5.257  0.1847  0.2689 -0.3317
  480MOL0     C66128   3.141   4.463   5.243  0.0314  0.6152  0.0746
  480MOL0     C66129   3.021   4.477   5.311  0.7777 -0.6376  0.4702
  480MOL0     C66130   2.937   4.599   5.273 -0.1316  0.5797  0.1525
  480MOL0     C66131   2.980   4.378   5.399 -0.5693  0.3908  0.2575
  480MOL0     C66132   2.847   4.379   5.467  0.1968 -1.5600 -0.0982
  480MOL0     O66133   2.809   4.507   5.520 -0.1636 -0.0699  0.0797
  480MOL0     C66134   2.691   4.532   5.582  0.6070  0.6723  0.2972
  480MOL0     C66135   2.632   4.662   5.567  0.8391  0.8480  0.5036
  480MOL0     C66136   2.519   4.696   5.632 -0.4210  0.0563 -0.3621
  480MOL0     C66137   2.464   4.605   5.723 -1.1873  0.0260 -1.2337
  480MOL0     O66138   2.361   4.627   5.802 -0.0009 -0.4148 -0.0617
  480MOL0     C66139   2.289   4.750   5.794 -0.1782 -0.7403  0.4097
  480MOL0     C66140   2.156   4.744   5.852 -0.1188  0.1601  0.8775
  480MOL0     C66141   2.051   4.841   5.796 -1.0364 -0.2192 -0.3366
  480MOL0     C66142   1.913   4.821   5.867 -0.2702  0.4015 -0.4608
  480MOL0     C66143   1.808   4.903   5.802  0.3299 -0.0010  0.1788
  480MOL0     C66144   1.663   4.875   5.838 -0.0644 -0.1743  0.0757
  480MOL0     C66145   1.612   4.971   5.945  0.4468 -0.3403  0.5703
  480MOL0     C66146   1.482   4.931   6.000  0.1692 -0.0569  0.0746
  480MOL0    Cl66147   1.346   4.936   5.892 -0.2665 -0.3443 -0.0711
  480MOL0     C66148   2.528   4.479   5.746  0.5918 -0.6429 -0.5401
  480MOL0     C66149   2.634   4.441   5.672  0.4952 -0.1248 -0.0771
  480MOL0     O66150   2.785   4.273   5.483  1.3819  0.1220  0.2735
  480MOL0     C66151   3.061   4.269   5.420 -0.8932 -0.7742 -0.5125
  480MOL0     C66152   3.183   4.252   5.343 -0.2766 -0.1304 -0.6110
  480MOL0     N66153   3.494   4.686   4.849 -0.1522 -0.3016  0.5244
  480MOL0     N66154   3.384   4.745   4.815 -0.2449 -0.9958  0.2212
  480MOL0     C66155   3.305   6.057   4.962 -0.5622 -1.2312 -0.2440
  480MOL0     C66156   3.369   6.171   4.934 -1.1938 -0.9870  1.0531
  480MOL0     C66157   3.693   6.469   4.781  0.4035 -0.6875  0.2607
  480MOL0     C66158   3.802   6.531   4.853 -0.1590 -0.4871 -1.2593
  480MOL0     C66159   3.887   6.626   4.802 -0.5079 -0.4786 -0.4215
  480MOL0     C66160   3.862   6.682   4.677  0.1038 -0.4682  1.2526
  480MOL0     O66161   3.932   6.792   4.644  0.1717 -0.4011 -0.0683
  480MOL0     C66162   3.940   6.820   4.496  0.3889 -0.2280  0.4161
  480MOL0     C66163   4.071   6.876   4.460  0.2051  0.7657 -0.7980
  480MOL0     C66164   4.075   6.897   4.310 -0.3445 -0.0573  0.3365
  480MOL0     C66165   4.221   6.921   4.249  0.3519 -0.6213  0.5371
  480MOL0     C66166   4.302   6.800   4.269 -0.0652  0.2614  0.6935
  480MOL0     C66167   4.393   6.713   4.282  0.4684  0.1259  0.1004
  480MOL0     C66168   3.748   6.635   4.607 -0.0869  0.0825  0.6851
  480MOL0     C66169   3.674   6.524   4.653  0.7600  0.9976  0.5972
  480MOL0     C66170   3.567   6.469   4.555 -0.1244 -0.1334  0.6576
  480MOL0     H66171   3.521   6.067   4.650  0.6149  0.7020  1.9094
  480MOL0     H66172   3.364   5.874   4.696 -1.1390  1.5124 -0.6695
  480MOL0     H66173   3.072   5.879   5.029 -0.7359  0.4343  0.0186
  480MOL0     H66174   3.223   5.820   5.110 -0.9685  1.4209  0.5328
  480MOL0     H66175   3.016   5.660   5.105 -0.2969  0.5656 -0.5487
  480MOL0     H66176   3.043   5.659   4.929 -2.1772  1.5363  0.8785
  480MOL0     H66177   3.282   5.580   4.974  0.5038  0.3332  0.9612
  480MOL0     H66178   3.231   5.544   5.138 -0.4236 -2.8134  0.0691
  480MOL0     H66179   3.060   5.382   5.081  0.2483  0.1474  0.8590
  480MOL0     H66180   3.066   5.427   4.908  0.4798 -2.4153 -0.1612
  480MOL0     H66181   3.295   5.291   5.065  2.0362  1.9768 -1.1077
  480MOL0     H66182   3.279   5.325   4.882  0.6091 -0.7083 -0.4979
  480MOL0     H66183   3.128   5.120   5.043 -0.2789 -0.5890 -0.0636
  480MOL0     H66184   3.099   5.166   4.870 -0.8963 -1.2386  2.3473
  480MOL0     H66185   3.361   5.064   4.966  2.6114  2.7086 -2.9315
  480MOL0     H66186   3.311   5.076   4.799 -2.7197  1.3318 -1.3204
  480MOL0     H66187   3.167   4.909   5.008  0.7862  0.5995  0.5367
  480MOL0     H66188   3.137   4.903   4.838 -2.1650  1.6442  0.9805
  480MOL0     H66189   3.385   4.826   5.125  0.3582  0.5130 -0.7494
  480MOL0     H66190   3.581   4.671   5.184  0.6743 -2.6874  0.2509
  480MOL0     H66191   3.704   4.721   5.073 -0.3352  0.6633 -1.1548
  480MOL0     H66192   3.635   4.501   4.949 -0.9512 -0.0667  1.0394
  480MOL0     H66193   3.760   4.510   5.076  0.2854  3.9832  0.6685
  480MOL0     H66194   3.605   4.326   5.087 -1.8176  2.5561 -3.1132
  480MOL0     H66195   3.606   4.423   5.242  3.7730  5.2608  0.0278
  480MOL0     H66196   3.384   4.532   5.151  0.4837 -0.1216 -2.2720
  480MOL0     H66197   3.398   4.404   5.024  1.9663 -0.5609 -0.6815
  480MOL0     H66198   3.163   4.551   5.182  0.1036 -0.1148 -0.9819
  480MOL0     H66199   2.846   4.568   5.221  0.5704 -0.9361 -0.2313
  480MOL0     H66200   2.979   4.667   5.199 -1.4060  0.9606 -0.2576
  480MOL0     H66201   2.916   4.652   5.367  0.2198 -0.6846  0.9765
  480MOL0     H66202   2.674   4.741   5.506  2.5678 -2.0119 -2.3288
  480MOL0     H66203   2.488   4.799   5.615 -0.6905  0.3963  1.8815
  480MOL0     H66204   2.346   4.833   5.834  0.5498  0.2179 -2.3684
  480MOL0     H66205   2.284   4.773   5.687  2.5410 -0.0473  0.3704
  480MOL0     H66206   2.127   4.642   5.823 -3.4558  0.8309  1.5296
  480MOL0     H66207   2.163   4.748   5.961  2.8883 -3.0674  0.9969
  480MOL0     H66208   2.032   4.831   5.689 -1.2487 -0.9131 -0.2382
  480MOL0     H66209   2.083   4.945   5.810 -1.3204 -0.2179  0.3782
  480MOL0     H66210   1.918   4.844   5.974  0.4106  0.0053 -0.4049
  480MOL0     H66211   1.885   4.716   5.862 -1.5592  0.6946  0.1286
  480MOL0     H66212   1.827   5.010   5.805 -0.2792  0.2414 -2.3036
  480MOL0     H66213   1.820   4.883   5.695  1.6412  0.3521  0.2439
  480MOL0     H66214   1.664   4.775   5.883 -0.1730 -0.9909 -1.6463
  480MOL0     H66215   1.600   4.861   5.750  0.9332 -0.7041 -0.5852
  480MOL0     H66216   1.607   5.071   5.903  0.0793 -0.0037  1.3846
  480MOL0     H66217   1.685   4.977   6.027 -2.8275  1.1578  3.6695
  480MOL0     H66218   1.454   5.004   6.077 -0.7661  2.2703 -2.3028
  480MOL0     H66219   1.499   4.830   6.039  0.8281 -1.4212 -3.4052
  480MOL0     H66220   2.485   4.422   5.828  0.8469  0.0106  0.0634
  480MOL0     H66221   2.678   4.342   5.678  0.5623 -0.0331  1.4224
  480MOL0     H66222   3.026   4.196   5.492  0.4361  0.1475  1.1412
  480MOL0     H66223   3.232   4.158   5.365  0.1766  0.4472  1.0431
  480MOL0     H66224   3.251   6.069   5.055  1.9744 -0.1307  1.2035
  480MOL0     H66225   3.357   6.261   4.993 -3.0751  0.5310 -1.4387
  480MOL0     H66226   3.811   6.517   4.960 -4.8446  3.4392  0.0275
  480MOL0     H66227   3.968   6.664   4.864 -1.7376  0.8167  0.4666
  480MOL0     H66228   3.932   6.724   4.443  0.4520 -1.9562  3.3160
  480MOL0     H66229   3.862   6.881   4.449  1.3239  1.3465  0.8428
  480MOL0     H66230   4.144   6.808   4.504 -0.9665  1.0191  1.7288
  480MOL0     H66231   4.079   6.967   4.521 -0.6035 -0.1954  0.8343
  480MOL0     H66232   4.045   6.805   4.260  1.7108  0.0781 -1.2770
  480MOL0     H66233   4.012   6.985   4.290  0.0091 -0.0837 -0.9907
  480MOL0     H66234   4.259   7.018   4.283 -2.4367  1.9020 -2.7794
  480MOL0     H66235   4.217   6.946   4.143 -0.7960  1.9579  1.1028
  480MOL0     H66236   4.475   6.647   4.302 -1.3812 -1.9316  1.2803
  480MOL0     H66237   3.720   6.677   4.511  0.3273  0.9003  0.9082
  480MOL0     H66238   3.469   6.513   4.579 -0.9236 -0.7532 -1.2701
  480MOL0     H66239   3.598   6.495   4.454  0.1021 -0.8469  0.5421
  480MOL0     H66240   3.542   6.363   4.556 -1.7856 -0.0397 -4.1859
  481MOL0     O66241   5.108   0.335  11.421 -0.0947  0.4111  0.6109
  481MOL0     C66242   5.052   0.351  11.525  0.1625 -1.1621  0.5475
  481MOL0     O66243   5.047   0.259  11.634 -0.9513 -0.3880  0.2070
  481MOL0     C66244   5.133   0.153  11.620 -0.2124  0.3139  0.9268
  481MOL0     C66245   5.078   0.024  11.590 -0.1099 -0.8964 -0.6696
  481MOL0     C66246   5.154  -0.094  11.624  0.0670 -0.4864 -0.6457
  481MOL0     C66247   5.289  -0.084  11.673  0.3602  0.4297 -0.1667
  481MOL0     O66248   5.360  -0.193  11.719 -0.0714 -0.1245 -0.3462
  481MOL0     C66249   5.400  -0.290  11.619  0.6587  0.0608  0.2663
  481MOL0     C66250   5.461  -0.409  11.688 -1.3825  0.8165  1.1329
  481MOL0     C66251   5.528  -0.504  11.580  0.9533 -0.0990 -0.0623
  481MOL0     C66252   5.613  -0.599  11.661  0.2888  0.1598  0.5145
  481MOL0     C66253   5.703  -0.671  11.560 -0.0110  0.2338  0.2726
  481MOL0     C66254   5.769  -0.796  11.615 -0.0387  0.8055 -0.1292
  481MOL0     C66255   5.891  -0.834  11.516  0.1609 -0.1934 -0.3924
  481MOL0     C66256   5.969  -0.960  11.547  0.7976  0.0562 -0.6013
  481MOL0     N66257   6.013  -0.974  11.686  0.8847  0.1211 -0.6866
  481MOL0     C66258   5.964  -1.072  11.768 -0.0346  0.0322  0.1292
  481MOL0     C66259   6.013  -1.051  11.890 -0.0996 -0.1329 -0.3263
  481MOL0     C66260   5.976  -1.143  12.000  0.5089  0.3579  0.6221
  481MOL0     C66261   6.076  -1.111  12.121 -0.1144  0.1340 -1.1594
  481MOL0     C66262   6.215  -1.176  12.112  0.1493 -0.0037 -0.4513
  481MOL0     C66263   6.300  -1.151  12.230  0.3292 -0.9307  0.0708
  481MOL0     O66264   6.429  -1.192  12.184 -0.3701  0.7079  0.5542
  481MOL0     C66265   6.520  -1.197  12.289  0.1205  0.7822  0.6218
  481MOL0     C66266   6.523  -1.096  12.377  1.2602  0.1543  0.5839
  481MOL0     C66267   6.591  -1.116  12.499 -1.0729 -0.5006 -0.1839
  481MOL0     C66268   6.588  -0.991  12.601 -0.9472  0.2134  0.0813
  481MOL0     C66269   6.663  -1.232  12.527  0.4685  0.4468 -0.5691
  481MOL0     C66270   6.734  -1.254  12.662 -1.0536  0.0459  0.5785
  481MOL0     O66271   6.810  -1.371  12.664  0.7609 -0.0037 -1.0438
  481MOL0     C66272   6.881  -1.396  12.772 -0.0661 -0.3061 -0.6680
  481MOL0     C66273   6.993  -1.319  12.806  0.4748 -0.0154  0.1889
  481MOL0     C66274   7.070  -1.357  12.918 -0.0137  1.0453 -0.8483
  481MOL0     C66275   7.029  -1.467  13.004 -0.3972 -0.2594 -1.0698
  481MOL0     O66276   7.113  -1.497  13.104  0.0402 -0.2299 -0.7056
  481MOL0     C66277   7.076  -1.600  13.199  0.1900 -0.4586 -0.5214
  481MOL0     C66278   7.211  -1.615  13.276  0.0650 -0.6805  1.0619
  481MOL0     C66279   7.198  -1.723  13.386 -0.1054  0.8419  0.1325
  481MOL0     C66280   7.153  -1.653  13.507 -0.1309 -0.5849 -0.3317
  481MOL0     C66281   7.135  -1.769  13.610 -0.0855 -1.1887  0.3871
  481MOL0     C66282   7.063  -1.713  13.735 -0.1601 -0.6095 -0.4694
  481MOL0     C66283   7.067  -1.813  13.848 -0.5940  0.1476  0.2905
  481MOL0     C66284   7.195  -1.812  13.941  0.3954 -0.3640  0.4271
  481MOL0    Cl66285   7.344  -1.760  13.852  0.3795  0.2010  0.0449
  481MOL0     C66286   6.910  -1.542  12.968  0.4566 -0.5544  0.1263
  481MOL0     C66287   6.843  -1.502  12.851  0.2062 -0.1859  0.8003
  481MOL0     O66288   6.722  -1.182  12.760 -0.0610  0.3784 -0.7513
  481MOL0     C66289   6.666  -1.325  12.417 -0.5245  0.0621  0.4016
  481MOL0     C66290   6.596  -1.315  12.297 -1.3710  0.3735 -0.2857
  481MOL0     N66291   6.093  -0.936  11.878 -0.1401  0.2109 -0.1432
  481MOL0     N66292   6.088  -0.887  11.760 -0.6031 -0.6262  0.5628
  481MOL0     C66293   5.340   0.042  11.698  0.4613 -0.4350 -0.9794
  481MOL0     C66294   5.262   0.167  11.665  0.1318 -0.2679 -0.3021
  481MOL0     C66295   4.978   0.482  11.534  0.4694 -0.8731  0.6348
  481MOL0     C66296   4.931   0.546  11.419  0.2635  0.5398 -0.3039
  481MOL0     C66297   4.878   0.674  11.422  0.1979  0.6259 -0.2260
  481MOL0     C66298   4.861   0.740  11.548 -0.6422  0.6715  0.6643
  481MOL0     O66299   4.790   0.852  11.569 -0.4027  0.7378  0.1178
  481MOL0     C66300   4.743   0.936  11.456 -0.7494  0.5971  0.9626
  481MOL0     C66301   4.679   1.066  11.507  0.0212  0.1466 -0.2624
  481MOL0     C66302   4.777   1.152  11.583  0.1598 -0.2325 -0.7096
  481MOL0     C66303   4.737   1.300  11.553  0.2827  1.4040  0.1409
  481MOL0     C66304   4.799   1.402  11.644 -0.2801  0.2597  0.4862
  481MOL0     C66305   4.855   1.482  11.720  0.6378 -0.0188  0.8264
  481MOL0     C66306   4.893   0.668  11.662 -0.9784  0.1235 -0.1834
  481MOL0     C66307   4.952   0.541  11.656  0.5685 -0.0873  0.0806
  481MOL0     C66308   4.991   0.477  11.791  0.0853 -0.1735  1.1965
  481MOL0     H66309   4.974   0.015  11.558 -0.0838 -2.9152 -0.3136
  481MOL0     H66310   5.101  -0.186  11.605  2.2164 -1.7214 -0.9251
  481MOL0     H66311   5.476  -0.259  11.546 -1.0832 -0.9453 -2.1355
  481MOL0     H66312   5.314  -0.323  11.559 -0.8353 -1.8101  3.1757
  481MOL0     H66313   5.531  -0.377  11.766 -0.6967 -2.2987  1.9654
  481MOL0     H66314   5.395  -0.460  11.759 -1.1464 -0.0515  0.7483
  481MOL0     H66315   5.457  -0.571  11.530  3.4223 -1.4960 -1.9389
  481MOL0     H66316   5.586  -0.449  11.505  3.6090  1.7012  3.0722
  481MOL0     H66317   5.677  -0.550  11.735 -4.2012  3.5124  2.6839
  481MOL0     H66318   5.547  -0.668  11.713  0.2490 -0.0424  0.1916
  481MOL0     H66319   5.779  -0.604  11.519 -0.0150 -0.9783 -1.9339
  481MOL0     H66320   5.643  -0.711  11.477 -0.1644 -1.1784  1.0275
  481MOL0     H66321   5.810  -0.769  11.713  0.9122 -0.2153 -0.2324
  481MOL0     H66322   5.691  -0.870  11.635  1.4181 -1.6153 -2.6725
  481MOL0     H66323   5.960  -0.749  11.514 -0.7432  0.5791  0.3045
  481MOL0     H66324   5.847  -0.847  11.416  1.6095  0.5813 -1.1740
  481MOL0     H66325   5.918  -1.053  11.520 -0.4781 -0.0069  1.7010
  481MOL0     H66326   6.062  -0.957  11.491  2.5540  1.1146  2.1462
  481MOL0     H66327   5.897  -1.154  11.745 -0.2806  0.7769 -2.0242
  481MOL0     H66328   5.976  -1.248  11.969  2.3530  0.0612  1.4778
  481MOL0     H66329   5.874  -1.114  12.025  0.9841  0.3453  2.7371
  481MOL0     H66330   6.073  -1.004  12.142 -1.8412 -0.1660  0.3304
  481MOL0     H66331   6.034  -1.164  12.207 -1.9617 -1.9055 -3.2076
  481MOL0     H66332   6.214  -1.286  12.110  2.2924 -0.0521 -0.2067
  481MOL0     H66333   6.264  -1.149  12.018  0.0446  4.3076  0.5262
  481MOL0     H66334   6.295  -1.043  12.250 -0.8514 -0.8071 -0.7280
  481MOL0     H66335   6.264  -1.212  12.313  1.1446 -0.3290  0.8897
  481MOL0     H66336   6.466  -1.007  12.353  0.6785 -0.6585 -1.1927
  481MOL0     H66337   6.527  -1.016  12.689 -2.2569  2.4570 -0.0901
  481MOL0     H66338   6.540  -0.908  12.547  1.5360  1.0804 -0.9374
  481MOL0     H66339   6.684  -0.949  12.630 -0.9544  0.3747 -0.1260
  481MOL0     H66340   7.028  -1.241  12.739  1.0184 -2.2948 -2.3496
  481MOL0     H66341   7.168  -1.315  12.939 -0.2816  1.4965 -0.5025
  481MOL0     H66342   6.989  -1.568  13.257 -0.5723 -1.6759 -0.9621
  481MOL0     H66343   7.047  -1.700  13.166 -1.5625 -0.3757  0.6313
  481MOL0     H66344   7.288  -1.645  13.205  0.0208 -1.0535  1.1719
  481MOL0     H66345   7.251  -1.521  13.317 -0.9935  0.4023 -0.2750
  481MOL0     H66346   7.294  -1.767  13.416 -1.6523 -0.4138  3.8342
  481MOL0     H66347   7.130  -1.802  13.353  0.1449  1.8461 -3.0983
  481MOL0     H66348   7.066  -1.591  13.483  1.4095  1.4552 -0.9285
  481MOL0     H66349   7.234  -1.590  13.543  1.0387 -1.8404 -0.6964
  481MOL0     H66350   7.081  -1.845  13.552  1.6777 -2.4335  0.2682
  481MOL0     H66351   7.239  -1.799  13.624 -0.2053 -2.1326 -0.6327
  481MOL0     H66352   6.959  -1.695  13.706 -0.5645 -1.6993  0.2031
  481MOL0     H66353   7.116  -1.621  13.758  0.8808 -0.2622 -3.7357
  481MOL0     H66354   7.063  -1.913  13.803 -1.2781 -0.2810  1.2413
  481MOL0     H66355   6.980  -1.808  13.914  0.0624 -1.5569  1.3738
  481MOL0     H66356   7.215  -1.906  13.992 -0.9106 -1.0117 -0.1959
  481MOL0     H66357   7.180  -1.738  14.021 -1.0407 -0.5145  0.3233
  481MOL0     H66358   6.874  -1.619  13.035  2.8971  0.3183  2.6598
  481MOL0     H66359   6.744  -1.541  12.831 -0.9993  3.4450 -1.2927
  481MOL0     H66360   6.737  -1.407  12.427 -0.1091  0.6070  2.2378
  481MOL0     H66361   6.609  -1.377  12.210  0.1977  1.0314 -0.5618
  481MOL0     H66362   5.441   0.032  11.737 -0.3078 -2.6139  0.6351
  481MOL0     H66363   5.293   0.268  11.690  0.3734 -0.9659  2.5884
  481MOL0     H66364   4.949   0.511  11.318  3.5715  0.6357  0.1441
  481MOL0     H66365   4.844   0.717  11.328 -2.2634 -3.6399 -1.5582
  481MOL0     H66366   4.827   0.967  11.394 -0.1967  0.1327  1.4711
  481MOL0     H66367   4.675   0.886  11.387 -1.8727  0.0019  2.4341
  481MOL0     H66368   4.605   1.043  11.585 -2.3055  0.7057 -2.1684
  481MOL0     H66369   4.627   1.118  11.426  0.3267  0.3003 -0.3616
  481MOL0     H66370   4.747   1.129  11.685 -2.2267  0.7143 -1.1380
  481MOL0     H66371   4.876   1.130  11.542  1.3477 -2.5031  2.9119
  481MOL0     H66372   4.629   1.310  11.566  0.3452  2.5344 -0.1457
  481MOL0     H66373   4.763   1.329  11.451 -0.3336  0.7430 -0.2111
  481MOL0     H66374   4.925   1.548  11.767 -1.2450  1.6582  1.4264
  481MOL0     H66375   4.856   0.703  11.758  2.4317  0.4503  1.1866
  481MOL0     H66376   4.999   0.550  11.872  0.0764  1.7480 -0.4788
  481MOL0     H66377   4.909   0.410  11.820 -1.2272  0.6380 -0.4661
  481MOL0     H66378   5.084   0.419  11.793  0.6865  0.7190  0.3087
  482MOL0     O66379   5.366   1.288  10.996 -0.2768  0.2594  0.1476
  482MOL0     C66380   5.338   1.390  10.935  0.1895 -0.1038  0.5733
  482MOL0     O66381   5.276   1.395  10.810  0.3255  0.2052 -0.4037
  482MOL0     C66382   5.223   1.278  10.762 -0.2300  0.1484 -0.5486
  482MOL0     C66383   5.140   1.198  10.826  0.2988 -0.5106 -0.4489
  482MOL0     C66384   5.077   1.083  10.769  0.2573  0.2400  0.2778
  482MOL0     C66385   5.107   1.053  10.633  0.2717  0.0726  0.8504
  482MOL0     O66386   5.047   0.942  10.566 -0.5989  0.1567 -0.0402
  482MOL0     C66387   4.958   0.860  10.639 -0.0538  0.3447  0.4477
  482MOL0     C66388   4.864   0.786  10.537 -0.4677  0.2583  0.8811
  482MOL0     C66389   4.940   0.676  10.468  0.1591  0.1728 -0.7649
  482MOL0     C66390   4.853   0.593  10.376  0.5536 -0.7191 -0.0572
  482MOL0     C66391   4.946   0.482  10.318  0.2649  0.2659  0.4274
  482MOL0     C66392   4.863   0.376  10.239 -0.5830  0.3212 -0.4570
  482MOL0     C66393   4.799   0.438  10.113  0.2638 -0.0592  0.7810
  482MOL0     C66394   4.718   0.322  10.041 -0.1469  0.0323  0.1228
  482MOL0     N66395   4.804   0.239   9.952 -0.4082 -0.1877 -0.7973
  482MOL0     C66396   4.831   0.262   9.823 -0.6366 -0.6465 -0.0371
  482MOL0     C66397   4.918   0.170   9.783 -1.1011  0.3872 -0.7099
  482MOL0     C66398   4.989   0.150   9.654  0.3689  0.2289  0.9025
  482MOL0     C66399   4.974   0.000   9.607 -0.0891 -0.3854 -1.4420
  482MOL0     C66400   5.107  -0.077   9.629  0.1889  0.3043  1.0570
  482MOL0     C66401   5.233  -0.037   9.543  0.3267  0.0747 -0.5745
  482MOL0     O66402   5.189  -0.051   9.409 -0.4614 -0.1875  0.1212
  482MOL0     C66403   5.277  -0.038   9.297 -0.7409  0.1642  0.3138
  482MOL0     C66404   5.409   0.013   9.308  0.1035  0.8125 -0.1298
  482MOL0     C66405   5.490   0.017   9.185 -0.0965  1.0414 -0.6106
  482MOL0     C66406   5.628   0.082   9.197  0.1575  0.8206 -0.3629
  482MOL0     C66407   5.431  -0.015   9.055  0.6560 -0.9272 -0.1963
  482MOL0     C66408   5.520  -0.009   8.941 -0.2140 -0.2608  0.4092
  482MOL0     O66409   5.615  -0.102   8.936 -0.6172  0.6371  0.5959
  482MOL0     C66410   5.709  -0.117   8.826  0.8160 -0.3729 -0.0090
  482MOL0     C66411   5.844  -0.139   8.852  0.6427 -0.2319 -0.0056
  482MOL0     C66412   5.930  -0.165   8.753 -0.6266 -0.2777  0.1908
  482MOL0     C66413   5.888  -0.163   8.617  0.0666  0.5104 -0.5497
  482MOL0     O66414   5.973  -0.176   8.513  0.3417  0.0378  0.2064
  482MOL0     C66415   6.092  -0.242   8.531 -0.0841 -0.2145 -0.6371
  482MOL0     C66416   6.173  -0.211   8.396  0.0987  0.2240  0.2141
  482MOL0     C66417   6.197  -0.060   8.376 -0.3756  0.3110  0.1910
  482MOL0     C66418   6.289  -0.007   8.261  0.7230 -0.8109  0.3279
  482MOL0     C66419   6.223  -0.025   8.121 -0.1940  0.2286 -0.4019
  482MOL0     C66420   6.117   0.086   8.104  0.2393  0.1626  0.1096
  482MOL0     C66421   6.054   0.079   7.964 -0.0832 -0.1334  0.6255
  482MOL0     C66422   5.938  -0.022   7.964 -0.6107 -0.5428 -0.7354
  482MOL0    Cl66423   5.799   0.049   7.866 -0.0770 -0.1137 -0.3141
  482MOL0     C66424   5.759  -0.140   8.590  0.5694  0.5031 -0.1186
  482MOL0     C66425   5.662  -0.114   8.689  0.6569  0.2232 -0.6620
  482MOL0     O66426   5.502   0.078   8.857 -0.0072  0.2043  0.2747
  482MOL0     C66427   5.302  -0.057   9.045  0.2052  0.4199 -0.5726
  482MOL0     C66428   5.228  -0.080   9.170 -1.0311  0.9862  0.2825
  482MOL0     N66429   4.947   0.092   9.901 -0.0311 -0.2508 -0.0400
  482MOL0     N66430   4.871   0.131   9.992  0.6605 -1.2859 -0.0670
  482MOL0     C66431   5.200   1.128  10.570  0.3101  0.7128  0.2894
  482MOL0     C66432   5.256   1.241  10.630  1.1407  0.6786  0.6870
  482MOL0     C66433   5.368   1.525  10.991 -0.3009 -0.6198  0.0156
  482MOL0     C66434   5.475   1.537  11.088  0.3302 -0.0033  1.3368
  482MOL0     C66435   5.511   1.658  11.145  0.9263 -1.2023  0.0355
  482MOL0     C66436   5.429   1.770  11.100  0.6344 -0.2250  0.0072
  482MOL0     O66437   5.463   1.898  11.131 -0.2547 -0.6548  0.5029
  482MOL0     C66438   5.471   1.929  11.272  0.2190  0.1074 -0.1725
  482MOL0     C66439   5.477   2.083  11.282 -0.1029 -0.1294 -0.1281
  482MOL0     C66440   5.374   2.185  11.229  0.1017 -0.4584  0.2711
  482MOL0     C66441   5.236   2.161  11.299  0.4222  0.6340 -0.6223
  482MOL0     C66442   5.130   2.253  11.249  0.2348  0.5646  0.3193
  482MOL0     C66443   5.038   2.307  11.193 -0.1415 -0.6215 -0.9009
  482MOL0     C66444   5.325   1.756  11.006  0.2918 -0.0664 -0.5348
  482MOL0     C66445   5.292   1.637  10.949  0.2766 -0.2709  0.0540
  482MOL0     C66446   5.168   1.641  10.866  0.5399  0.7949  0.0868
  482MOL0     H66447   5.115   1.226  10.928 -1.1840 -1.3764 -0.5462
  482MOL0     H66448   5.020   1.015  10.832 -0.5412 -0.5244 -1.2232
  482MOL0     H66449   4.893   0.921  10.702 -1.8917 -1.6949  0.6533
  482MOL0     H66450   5.005   0.780  10.697  1.8166 -0.1657 -1.6224
  482MOL0     H66451   4.779   0.741  10.587 -1.4988  1.0282 -0.1264
  482MOL0     H66452   4.814   0.853  10.466  2.7968  1.6323 -0.3556
  482MOL0     H66453   5.012   0.737  10.413 -1.4166  0.0970 -3.0115
  482MOL0     H66454   4.979   0.608  10.544 -3.4634 -2.5922 -1.0831
  482MOL0     H66455   4.765   0.550  10.426 -0.7612  2.2758  0.4700
  482MOL0     H66456   4.803   0.653  10.299  0.1010 -1.3189 -0.2425
  482MOL0     H66457   4.999   0.432  10.400 -1.2289  1.5135  2.2267
  482MOL0     H66458   5.025   0.521  10.254 -1.3086  3.0989  0.0843
  482MOL0     H66459   4.938   0.298  10.229  0.2927  1.2127 -0.9742
  482MOL0     H66460   4.781   0.333  10.297  0.5230  0.4532  1.2688
  482MOL0     H66461   4.874   0.467  10.038  1.6217  0.4647  2.2938
  482MOL0     H66462   4.734   0.519  10.145 -1.9461 -2.1525  1.8682
  482MOL0     H66463   4.659   0.257  10.106 -0.6304  2.2371  1.9918
  482MOL0     H66464   4.641   0.379   9.987 -1.2600 -1.6168 -0.1141
  482MOL0     H66465   4.790   0.333   9.752 -1.8698  0.2128  1.4782
  482MOL0     H66466   5.094   0.171   9.675  0.7335  1.1285 -1.4507
  482MOL0     H66467   4.950   0.217   9.576 -0.1469 -0.5993  0.4263
  482MOL0     H66468   4.897  -0.057   9.661  1.7279 -1.9134 -0.3575
  482MOL0     H66469   4.936   0.001   9.504 -2.0494 -3.2570 -0.8694
  482MOL0     H66470   5.134  -0.071   9.735 -4.4980 -0.8945  2.5341
  482MOL0     H66471   5.088  -0.183   9.609  1.7512  0.1477  0.1929
  482MOL0     H66472   5.273   0.062   9.568  2.4426 -0.8732  0.0360
  482MOL0     H66473   5.313  -0.111   9.555 -0.0474 -0.6930 -2.4540
  482MOL0     H66474   5.449   0.035   9.407 -1.3153 -0.0858  0.6814
  482MOL0     H66475   5.693   0.031   9.126 -0.4257 -1.3635  0.5874
  482MOL0     H66476   5.675   0.069   9.296  0.2093  1.5454 -0.2796
  482MOL0     H66477   5.606   0.188   9.179 -2.7702  0.1455 -1.2539
  482MOL0     H66478   5.877  -0.141   8.956  1.7796  0.6608 -0.3231
  482MOL0     H66479   6.030  -0.165   8.795 -1.1909  4.4883  2.1629
  482MOL0     H66480   6.146  -0.199   8.616 -0.2665  2.5167 -1.7875
  482MOL0     H66481   6.079  -0.350   8.536 -2.9508  0.0252 -1.5568
  482MOL0     H66482   6.268  -0.263   8.380  0.1198  0.1252  0.6406
  482MOL0     H66483   6.103  -0.243   8.319  0.7404  0.5453 -0.5099
  482MOL0     H66484   6.236  -0.024   8.472 -2.0601 -1.9935  1.8881
  482MOL0     H66485   6.099  -0.016   8.356 -0.1778  0.7223  0.1260
  482MOL0     H66486   6.386  -0.055   8.255 -0.2637 -2.7295 -1.4048
  482MOL0     H66487   6.309   0.100   8.270 -0.3632 -0.7615  4.0677
  482MOL0     H66488   6.293  -0.012   8.038 -0.7360  3.8158 -0.4742
  482MOL0     H66489   6.181  -0.125   8.107  1.0977 -0.0108 -3.2162
  482MOL0     H66490   6.172   0.180   8.112  0.0268  0.2342  0.8458
  482MOL0     H66491   6.040   0.085   8.182 -0.9031  0.7731 -0.9747
  482MOL0     H66492   6.130   0.043   7.893 -1.8864 -6.4581  1.3200
  482MOL0     H66493   6.007   0.174   7.938  0.8676 -0.0497 -0.9123
  482MOL0     H66494   5.899  -0.026   8.066  2.1412 -2.2759  0.3613
  482MOL0     H66495   5.968  -0.119   7.925  0.2294 -2.1418  3.3436
  482MOL0     H66496   5.753  -0.141   8.482  2.7270 -2.7624 -0.3586
  482MOL0     H66497   5.564  -0.076   8.661  0.3195  0.0259  0.2148
  482MOL0     H66498   5.260  -0.080   8.948  1.3754 -1.1762 -0.7473
  482MOL0     H66499   5.126  -0.116   9.180 -0.5915 -0.9645 -1.5066
  482MOL0     H66500   5.241   1.103  10.473  2.3759  0.3679  1.1885
  482MOL0     H66501   5.323   1.310  10.581 -0.9881 -0.3644 -4.3165
  482MOL0     H66502   5.525   1.444  11.111 -2.9355 -2.1079  0.6518
  482MOL0     H66503   5.593   1.665  11.215  1.7230 -0.8555 -0.9076
  482MOL0     H66504   5.395   1.885  11.337  0.9161 -0.7986  0.0538
  482MOL0     H66505   5.564   1.879  11.303 -1.5597 -1.8465  2.4216
  482MOL0     H66506   5.569   2.102  11.227  0.5759 -2.2602  0.1824
  482MOL0     H66507   5.486   2.104  11.389  0.8476 -3.0598  0.4475
  482MOL0     H66508   5.408   2.288  11.246  2.1680 -0.8225 -1.2987
  482MOL0     H66509   5.353   2.167  11.123  2.0172 -1.6236  0.0448
  482MOL0     H66510   5.235   2.173  11.408 -2.8192 -0.8344 -0.3738
  482MOL0     H66511   5.206   2.060  11.271  3.0442 -0.3984  0.0018
  482MOL0     H66512   4.954   2.349  11.142 -1.6228 -2.3157 -0.0260
  482MOL0     H66513   5.269   1.849  10.997  1.3003  0.7245  0.8811
  482MOL0     H66514   5.100   1.559  10.890 -0.5558  1.3342 -0.9975
  482MOL0     H66515   5.108   1.733  10.857 -2.2837 -0.9945 -1.0339
  482MOL0     H66516   5.209   1.631  10.765  0.3713  0.7412  0.0229
  483MOL0     O66517   3.014  10.324  11.379  0.3242 -0.2455  0.3706
  483MOL0     C66518   3.095  10.407  11.330  0.4505 -0.9334 -0.3261
  483MOL0     O66519   3.193  10.476  11.400  0.1129  0.1426 -0.0567
  483MOL0     C66520   3.252  10.429  11.516 -0.5519 -0.6224  0.1079
  483MOL0     C66521   3.225  10.317  11.589 -0.5770 -0.4769  0.0243
  483MOL0     C66522   3.281  10.291  11.711  0.0617 -0.3351 -0.2707
  483MOL0     C66523   3.392  10.375  11.752  0.2520 -0.2801  1.1817
  483MOL0     O66524   3.430  10.357  11.884  0.0095 -0.3572  0.1760
  483MOL0     C66525   3.565  10.331  11.895 -0.4151  0.6391 -0.9696
  483MOL0     C66526   3.574  10.242  12.018 -0.6381  0.7924 -0.4136
  483MOL0     C66527   3.718  10.208  12.049  0.6196  0.2070  0.3462
  483MOL0     C66528   3.726  10.117  12.177  1.1790 -0.1515  1.0410
  483MOL0     C66529   3.861  10.044  12.199 -0.6209  0.5527 -0.3695
  483MOL0     C66530   3.837   9.956  12.322 -0.0825  1.0734  0.3473
  483MOL0     C66531   3.951   9.858  12.334 -0.5698  0.3508 -0.8007
  483MOL0     C66532   3.934   9.773  12.458  0.8324 -0.5639  0.4902
  483MOL0     N66533   4.047   9.687  12.470  0.0751 -0.9386  0.2453
  483MOL0     C66534   4.053   9.553  12.446 -0.2143  0.1167  0.4139
  483MOL0     C66535   4.183   9.526  12.469  1.2389 -0.9054 -0.7034
  483MOL0     C66536   4.255   9.396  12.474  0.0731  0.0225 -0.2982
  483MOL0     C66537   4.228   9.309  12.597 -0.6335  0.8505  0.2813
  483MOL0     C66538   4.288   9.172  12.597 -0.6503 -0.3736  0.1739
  483MOL0     C66539   4.288   9.124  12.739  1.0586  0.2871  0.9571
  483MOL0     O66540   4.278   8.988  12.726  0.2286  0.5389 -0.3794
  483MOL0     C66541   4.263   8.919  12.841  0.5170  0.0155 -0.3842
  483MOL0     C66542   4.259   8.969  12.975  0.3201 -0.1630 -0.7295
  483MOL0     C66543   4.253   8.885  13.083  0.0322 -0.4973  1.4172
  483MOL0     C66544   4.272   8.957  13.212 -0.9099 -0.1366 -0.5966
  483MOL0     C66545   4.241   8.742  13.065  0.5132  0.3973  0.0945
  483MOL0     C66546   4.213   8.646  13.187 -0.6524  0.2209  0.8391
  483MOL0     O66547   4.166   8.528  13.164 -0.7311  0.5995 -0.0548
  483MOL0     C66548   4.160   8.427  13.263  0.1296 -0.4360  0.4773
  483MOL0     C66549   4.257   8.402  13.359  0.5256 -0.8628 -0.2227
  483MOL0     C66550   4.261   8.283  13.425 -0.0914  1.1573 -0.1288
  483MOL0     C66551   4.159   8.185  13.408  0.2150  0.5849 -1.2797
  483MOL0     O66552   4.168   8.071  13.491  0.4663 -0.0525  0.1682
  483MOL0     C66553   4.123   7.945  13.452 -1.4562  0.0318  0.4835
  483MOL0     C66554   4.248   7.859  13.430 -0.7508  0.5713  0.2126
  483MOL0     C66555   4.234   7.762  13.312  0.4348 -0.3746 -0.8104
  483MOL0     C66556   4.349   7.660  13.301  0.8829  0.5800 -0.1897
  483MOL0     C66557   4.332   7.547  13.209 -0.4114  0.1500  0.2219
  483MOL0     C66558   4.212   7.454  13.228  0.2684 -0.0190 -0.0507
  483MOL0     C66559   4.227   7.324  13.148  0.0751 -0.3706 -0.1262
  483MOL0     C66560   4.251   7.199  13.235  0.4815  0.8241 -0.0506
  483MOL0    Cl66561   4.385   7.228  13.335 -0.5125  0.0121 -0.0105
  483MOL0     C66562   4.058   8.208  13.317 -0.8539 -0.6834  0.1776
  483MOL0     C66563   4.062   8.333  13.242 -0.1106  1.1615 -0.5398
  483MOL0     O66564   4.256   8.690  13.296 -0.0276 -0.4072 -0.0724
  483MOL0     C66565   4.241   8.699  12.934  0.0018  0.6428 -0.2524
  483MOL0     C66566   4.252   8.780  12.826  0.2537 -0.4184 -0.0265
  483MOL0     N66567   4.243   9.642  12.507 -0.1268 -0.1105  0.1010
  483MOL0     N66568   4.167   9.737  12.505 -1.6741 -0.0087  1.0306
  483MOL0     C66569   3.421  10.492  11.678 -0.1534 -0.6109  0.7133
  483MOL0     C66570   3.354  10.519  11.559  0.4739  0.5759 -0.4902
  483MOL0     C66571   3.085  10.458  11.186  0.0959  0.3434 -0.7160
  483MOL0     C66572   3.019  10.368  11.097 -0.3418 -0.9265 -0.3176
  483MOL0     C66573   2.998  10.396  10.965  0.3352  0.2807  0.1071
  483MOL0     C66574   3.042  10.517  10.909  0.7213  1.0392 -0.2722
  483MOL0     O66575   3.032  10.530  10.769  0.2615  0.1655 -0.4424
  483MOL0     C66576   3.127  10.610  10.701  0.4899  0.0823  0.6589
  483MOL0     C66577   3.267  10.562  10.713 -0.3681  0.0313  0.0594
  483MOL0     C66578   3.287  10.406  10.698 -1.2923  0.1329 -0.3765
  483MOL0     C66579   3.440  10.370  10.711  0.1699 -0.5852 -0.4360
  483MOL0     C66580   3.466  10.347  10.852  0.0678 -0.7116 -0.4414
  483MOL0     C66581   3.499  10.335  10.972 -0.8009 -0.0592 -0.5684
  483MOL0     C66582   3.113  10.606  10.997  0.4714  0.1839 -0.0056
  483MOL0     C66583   3.133  10.575  11.129 -0.3774 -0.8347  0.9123
  483MOL0     C66584   3.188  10.680  11.211 -0.8977  0.3585 -0.0881
  483MOL0     H66585   3.161  10.238  11.552  0.3730 -0.1125 -2.6044
  483MOL0     H66586   3.251  10.210  11.776  0.1058 -0.4458 -0.3900
  483MOL0     H66587   3.628  10.420  11.907  0.2601  0.3527 -2.2135
  483MOL0     H66588   3.606  10.275  11.811 -1.2641  0.4108 -1.2414
  483MOL0     H66589   3.522  10.285  12.104 -1.8542  1.1226 -1.2853
  483MOL0     H66590   3.516  10.152  11.993 -1.6801  0.1263  3.7274
  483MOL0     H66591   3.749  10.167  11.952  2.1308 -0.3537  1.0348
  483MOL0     H66592   3.792  10.288  12.063  1.1119  0.4353 -2.7945
  483MOL0     H66593   3.708  10.176  12.267  0.8497 -1.9000  2.1782
  483MOL0     H66594   3.642  10.048  12.168  1.4809 -0.6165  1.6279
  483MOL0     H66595   3.944  10.115  12.207 -2.0470  2.4994 -1.8532
  483MOL0     H66596   3.874   9.977  12.114 -0.5840  1.4392 -1.0742
  483MOL0     H66597   3.829  10.016  12.413  1.7586  1.3918  0.3416
  483MOL0     H66598   3.741   9.903  12.321  1.3304 -1.6092 -0.1966
  483MOL0     H66599   4.047   9.910  12.335 -0.5968  0.4003 -0.5199
  483MOL0     H66600   3.951   9.786  12.251  2.3890  1.4390 -1.8736
  483MOL0     H66601   3.928   9.842  12.542  1.7031  0.0600  0.0561
  483MOL0     H66602   3.843   9.713  12.444  1.8037 -1.7836 -0.9025
  483MOL0     H66603   3.976   9.478  12.435  0.6501 -0.6879 -0.3608
  483MOL0     H66604   4.362   9.414  12.483 -0.2087  0.6212  5.1568
  483MOL0     H66605   4.231   9.330  12.390 -2.4664  0.1884  0.2102
  483MOL0     H66606   4.252   9.369  12.686 -0.0977 -0.4240  1.0149
  483MOL0     H66607   4.120   9.294  12.594 -0.7020  1.1852  0.8091
  483MOL0     H66608   4.235   9.104  12.530 -0.7862  1.0180 -1.1997
  483MOL0     H66609   4.389   9.181  12.556 -0.1621  1.5221  1.6563
  483MOL0     H66610   4.382   9.155  12.784  1.7624  2.6414 -1.8156
  483MOL0     H66611   4.203   9.170  12.790 -0.3894 -2.8050  1.5615
  483MOL0     H66612   4.257   9.077  12.988  0.0116  0.0493 -2.3065
  483MOL0     H66613   4.286   9.064  13.198  0.5220  0.0552  1.7562
  483MOL0     H66614   4.363   8.913  13.256 -0.1478 -0.1534 -2.1231
  483MOL0     H66615   4.183   8.944  13.274 -0.8601  4.9952  0.9805
  483MOL0     H66616   4.331   8.477  13.385 -0.7957  0.9531 -1.4405
  483MOL0     H66617   4.338   8.264  13.499  0.1962 -2.4777 -1.1888
  483MOL0     H66618   4.060   7.890  13.523 -0.4830 -0.2827  1.1143
  483MOL0     H66619   4.068   7.950  13.357  0.9263  2.5832 -0.8893
  483MOL0     H66620   4.338   7.918  13.411  0.1219 -1.3225 -1.9049
  483MOL0     H66621   4.262   7.804  13.524 -1.8280 -2.4284 -1.2727
  483MOL0     H66622   4.218   7.817  13.218 -3.6821  1.5077  0.7650
  483MOL0     H66623   4.144   7.704  13.333  0.4418  0.2668  1.1827
  483MOL0     H66624   4.383   7.614  13.394  6.5921  1.9327 -1.2225
  483MOL0     H66625   4.439   7.714  13.271 -0.1494  2.6603  0.2488
  483MOL0     H66626   4.323   7.585  13.107 -0.4669 -3.4045 -1.2399
  483MOL0     H66627   4.419   7.481  13.214 -0.0192  0.7090  1.4271
  483MOL0     H66628   4.117   7.501  13.201 -1.9845 -4.5933 -1.1846
  483MOL0     H66629   4.204   7.420  13.332  0.3303  1.5415  0.4876
  483MOL0     H66630   4.316   7.333  13.086  0.2417  1.5545  0.3296
  483MOL0     H66631   4.137   7.305  13.088  0.3367 -1.3657 -0.2080
  483MOL0     H66632   4.265   7.113  13.170 -0.4917 -0.5962  1.5331
  483MOL0     H66633   4.168   7.173  13.302  0.0200  1.0508 -0.5246
  483MOL0     H66634   3.980   8.134  13.299 -2.5338  0.7072  1.3492
  483MOL0     H66635   3.980   8.348  13.173 -2.6867 -0.0362  2.0556
  483MOL0     H66636   4.228   8.593  12.914  2.5258  0.5456 -1.6719
  483MOL0     H66637   4.251   8.734  12.728  1.7392 -0.7270  0.0761
  483MOL0     H66638   3.493  10.567  11.709  0.4601 -0.1808 -1.5428
  483MOL0     H66639   3.382  10.611  11.509  3.9341  0.7741  1.5307
  483MOL0     H66640   2.983  10.279  11.146  2.3535 -1.0772  1.5901
  483MOL0     H66641   2.936  10.330  10.906 -0.5057 -0.3124  1.5826
  483MOL0     H66642   3.090  10.632  10.600 -0.1501 -2.0387  0.3722
  483MOL0     H66643   3.134  10.712  10.738 -1.4551  0.7869 -0.7395
  483MOL0     H66644   3.308  10.598  10.808  1.8877 -0.5892 -0.6172
  483MOL0     H66645   3.315  10.611  10.628 -0.1953 -0.4023 -0.0948
  483MOL0     H66646   3.230  10.355  10.776  1.8103 -1.5606  0.9590
  483MOL0     H66647   3.256  10.365  10.602  1.4820 -0.6749 -1.0193
  483MOL0     H66648   3.506  10.440  10.659  2.3934 -0.4488  2.3334
  483MOL0     H66649   3.455  10.275  10.658  1.0698 -1.4409  1.2867
  483MOL0     H66650   3.509  10.329  11.079  0.1024 -1.4554 -0.6990
  483MOL0     H66651   3.149  10.702  10.962  2.7603 -0.4026  0.5581
  483MOL0     H66652   3.292  10.658  11.238 -1.1824  1.4048  2.0909
  483MOL0     H66653   3.186  10.780  11.166 -0.2698  0.9482  1.1311
  483MOL0     H66654   3.125  10.695  11.299 -0.1515  0.2515  0.4779
  484MOL0     O66655   4.778   2.614   5.255  0.4873 -0.2781 -0.5696
  484MOL0     C66656   4.897   2.642   5.266  0.5362  0.5752  1.1245
  484MOL0     O66657   4.957   2.738   5.193  0.7923  0.3775 -0.6585
  484MOL0     C66658   4.889   2.859   5.181 -0.3266  0.2390  0.1413
  484MOL0     C66659   4.956   2.959   5.109 -0.2693 -0.9127  0.3435
  484MOL0     C66660   4.908   3.087   5.089 -0.9688  0.2458 -1.3805
  484MOL0     C66661   4.778   3.119   5.137  0.3333  1.0611  0.2818
  484MOL0     O66662   4.732   3.240   5.098  0.4470  0.1124  0.1756
  484MOL0     C66663   4.596   3.233   5.060  0.6573 -0.5088  0.4093
  484MOL0     C66664   4.578   3.350   4.970 -0.1253  0.1587 -0.2651
  484MOL0     C66665   4.439   3.343   4.912  0.6129  0.2149  0.7804
  484MOL0     C66666   4.395   3.470   4.848  0.7162 -0.2925  0.7020
  484MOL0     C66667   4.277   3.445   4.755  0.1756 -0.1025  0.3207
  484MOL0     C66668   4.256   3.555   4.643  0.7946 -0.0448  0.2924
  484MOL0     C66669   4.188   3.680   4.692  0.0005 -0.8719  0.6965
  484MOL0     C66670   4.279   3.777   4.769  0.5820 -0.5080 -0.3591
  484MOL0     N66671   4.382   3.840   4.699 -0.3498  0.5001  0.0104
  484MOL0     C66672   4.366   3.922   4.589 -1.6517 -0.0928 -0.0663
  484MOL0     C66673   4.485   3.981   4.576  0.1942 -0.1884  1.0995
  484MOL0     C66674   4.504   4.106   4.495  0.2956 -0.3463 -0.2965
  484MOL0     C66675   4.416   4.098   4.361  0.6731  0.2974  0.8769
  484MOL0     C66676   4.414   4.225   4.278 -0.0788 -0.2118  0.6598
  484MOL0     C66677   4.371   4.339   4.372  0.2545 -0.5822 -0.5123
  484MOL0     O66678   4.489   4.407   4.408 -0.3439  0.4482 -0.3950
  484MOL0     C66679   4.501   4.536   4.371  0.0126 -0.0512  0.2430
  484MOL0     C66680   4.509   4.642   4.464  0.5502  0.7809 -0.9907
  484MOL0     C66681   4.521   4.776   4.423  0.5990  0.2259 -0.1670
  484MOL0     C66682   4.508   4.861   4.546 -0.4753  0.9955  0.0154
  484MOL0     C66683   4.545   4.810   4.289  0.3205  0.2620 -0.4137
  484MOL0     C66684   4.580   4.954   4.239 -0.1447 -0.7522  0.3849
  484MOL0     O66685   4.627   5.056   4.332 -0.3398 -0.2153 -0.1030
  484MOL0     C66686   4.677   5.169   4.275 -1.2830 -0.4682 -0.1830
  484MOL0     C66687   4.813   5.165   4.246 -0.5045 -0.0368  0.0596
  484MOL0     C66688   4.873   5.269   4.176  0.0732 -0.6399 -0.5610
  484MOL0     C66689   4.795   5.379   4.130 -1.5451 -0.0537 -0.4711
  484MOL0     O66690   4.848   5.478   4.057  1.1167  0.2002 -0.4540
  484MOL0     C66691   4.984   5.508   4.071 -0.7788 -0.4544  1.8917
  484MOL0     C66692   4.998   5.653   4.011 -0.5675 -0.0123  0.1465
  484MOL0     C66693   4.968   5.657   3.856  0.5484  0.0194 -0.1561
  484MOL0     C66694   5.020   5.777   3.779  0.2796  0.5694 -0.3618
  484MOL0     C66695   4.989   5.761   3.629  0.5243  0.3878 -0.1043
  484MOL0     C66696   4.854   5.825   3.604  0.5894  0.2969  0.8577
  484MOL0     C66697   4.817   5.803   3.459 -0.1103  1.0516  0.1498
  484MOL0     C66698   4.671   5.835   3.453 -0.1014  0.3957  0.3809
  484MOL0    Cl66699   4.610   5.835   3.279  0.0111 -0.7859 -0.2630
  484MOL0     C66700   4.654   5.385   4.159  0.5111  0.0584  0.1066
  484MOL0     C66701   4.591   5.277   4.234 -0.6455  0.8930  0.5008
  484MOL0     O66702   4.581   4.973   4.117  0.4310  0.1031 -1.0700
  484MOL0     C66703   4.538   4.709   4.195  0.6980 -0.2214  0.3563
  484MOL0     C66704   4.514   4.570   4.236 -1.2764 -0.5876 -1.2566
  484MOL0     N66705   4.572   3.922   4.662 -0.7828  1.0002 -0.2632
  484MOL0     N66706   4.511   3.840   4.742  0.2944  0.1043  0.4733
  484MOL0     C66707   4.725   3.030   5.228  0.5386 -0.2260  0.1112
  484MOL0     C66708   4.778   2.906   5.251  0.1936  0.7044 -0.0703
  484MOL0     C66709   4.985   2.556   5.340  0.8178  0.1118  0.0237
  484MOL0     C66710   5.112   2.614   5.384 -0.1770  0.4723  0.7764
  484MOL0     C66711   5.197   2.539   5.463 -0.4873 -0.5166  1.0272
  484MOL0     C66712   5.164   2.418   5.511 -0.2980 -0.4190  1.1670
  484MOL0     O66713   5.244   2.347   5.586 -0.4660  0.5592 -0.8485
  484MOL0     C66714   5.358   2.396   5.650 -1.0422  0.0322 -0.3908
  484MOL0     C66715   5.456   2.294   5.718 -0.7874 -0.3485 -0.6592
  484MOL0     C66716   5.572   2.378   5.797 -1.2262 -0.7851 -0.5884
  484MOL0     C66717   5.671   2.306   5.889 -0.1143  0.6673  0.6384
  484MOL0     C66718   5.724   2.175   5.848 -0.4733 -0.3251 -0.1276
  484MOL0     C66719   5.789   2.082   5.806 -0.8151  0.1133  0.2334
  484MOL0     C66720   5.043   2.366   5.479 -0.0881  0.0837 -0.4879
  484MOL0     C66721   4.958   2.427   5.385 -0.3000  0.5086  0.6753
  484MOL0     C66722   4.846   2.348   5.338  1.1959 -0.2806 -0.0381
  484MOL0     H66723   5.043   2.932   5.050 -0.3189  2.0773 -1.2657
  484MOL0     H66724   4.967   3.159   5.033  0.0232 -0.5368 -1.3691
  484MOL0     H66725   4.532   3.247   5.147  3.2431  0.3302  2.2916
  484MOL0     H66726   4.574   3.139   5.006  1.6946  0.2434 -1.4093
  484MOL0     H66727   4.597   3.445   5.020  4.3133 -0.2362 -0.7542
  484MOL0     H66728   4.665   3.353   4.903 -0.7550  1.7833 -1.0672
  484MOL0     H66729   4.445   3.264   4.836  2.4931 -0.4235  1.5230
  484MOL0     H66730   4.368   3.314   4.990 -0.6242  0.6039 -0.1622
  484MOL0     H66731   4.362   3.540   4.925  1.4131  1.8233 -0.8492
  484MOL0     H66732   4.481   3.511   4.793 -2.3689  1.8720 -2.9756
  484MOL0     H66733   4.182   3.432   4.806  1.5771 -3.6450  2.3799
  484MOL0     H66734   4.296   3.352   4.702  0.5119 -1.1798  2.2312
  484MOL0     H66735   4.354   3.574   4.598  1.2697 -0.4649  1.1121
  484MOL0     H66736   4.190   3.523   4.563  3.0141  0.0478 -1.6700
  484MOL0     H66737   4.106   3.657   4.761  0.8242 -0.2075  1.9261
  484MOL0     H66738   4.146   3.742   4.612 -0.9623  2.6500  3.6417
  484MOL0     H66739   4.215   3.856   4.809 -0.7236  0.7084 -4.3550
  484MOL0     H66740   4.310   3.737   4.866 -4.7341  0.0663  1.9500
  484MOL0     H66741   4.277   3.944   4.531 -0.1168 -0.5708 -2.7683
  484MOL0     H66742   4.609   4.113   4.466 -0.6460 -2.4344 -5.0700
  484MOL0     H66743   4.475   4.190   4.560  1.5155  0.0902 -0.2788
  484MOL0     H66744   4.464   4.022   4.299 -0.8917 -1.5304  1.7995
  484MOL0     H66745   4.311   4.068   4.351  0.1471  2.6733 -2.1855
  484MOL0     H66746   4.514   4.250   4.242  1.8832 -2.6890  3.7861
  484MOL0     H66747   4.343   4.220   4.196  0.1848  0.2578  0.4034
  484MOL0     H66748   4.310   4.415   4.322  1.0131 -1.5969 -3.1530
  484MOL0     H66749   4.323   4.297   4.461  0.2387 -1.2577 -0.8305
  484MOL0     H66750   4.502   4.616   4.569  1.3340 -0.3171 -1.1845
  484MOL0     H66751   4.406   4.898   4.541 -0.2236  1.5389 -1.7439
  484MOL0     H66752   4.576   4.947   4.543 -2.8234  2.9299 -0.1039
  484MOL0     H66753   4.527   4.803   4.637 -1.3377  0.1256 -0.3398
  484MOL0     H66754   4.858   5.078   4.292 -2.4290 -0.4631  1.2689
  484MOL0     H66755   4.979   5.271   4.149  0.0875 -4.1238 -1.1810
  484MOL0     H66756   5.016   5.507   4.176  0.7591  0.8743  1.4636
  484MOL0     H66757   5.049   5.438   4.016  0.6316  1.1529  1.4303
  484MOL0     H66758   4.932   5.729   4.053  0.1046 -0.6106  2.4522
  484MOL0     H66759   5.101   5.690   4.023 -0.2979  0.5751 -3.0675
  484MOL0     H66760   4.859   5.653   3.844  0.1992 -0.5070  2.5100
  484MOL0     H66761   5.007   5.566   3.811  0.2028  0.4292 -1.3226
  484MOL0     H66762   5.129   5.771   3.774  0.4555  1.7624  1.3913
  484MOL0     H66763   4.991   5.875   3.816 -0.1432 -0.2758  1.6464
  484MOL0     H66764   5.061   5.820   3.572 -0.5465  3.1250  1.1924
  484MOL0     H66765   4.991   5.654   3.603 -1.8445  0.1158  0.5895
  484MOL0     H66766   4.847   5.929   3.637 -3.4252  0.1980  0.8343
  484MOL0     H66767   4.773   5.773   3.657 -0.4273  1.0796  0.0856
  484MOL0     H66768   4.824   5.697   3.435  1.9078  1.3363 -0.6958
  484MOL0     H66769   4.874   5.865   3.389 -1.2141  1.7118 -0.1865
  484MOL0     H66770   4.654   5.932   3.501 -0.7855  0.3862  0.1637
  484MOL0     H66771   4.625   5.754   3.509 -0.0309  1.3374  1.8495
  484MOL0     H66772   4.596   5.467   4.118 -0.4213 -1.3876 -1.6175
  484MOL0     H66773   4.490   5.276   4.273 -0.3391  1.0555  1.3087
  484MOL0     H66774   4.550   4.733   4.090 -0.2058  1.2526  0.5631
  484MOL0     H66775   4.499   4.496   4.158 -3.9829 -4.5991  2.5570
  484MOL0     H66776   4.637   3.060   5.284  1.0241  2.6133 -0.4774
  484MOL0     H66777   4.737   2.844   5.330 -1.0331 -1.3432 -2.2022
  484MOL0     H66778   5.148   2.710   5.347  1.2582 -0.9345 -1.7535
  484MOL0     H66779   5.288   2.589   5.494 -0.0569  0.3869 -1.4279
  484MOL0     H66780   5.428   2.440   5.578 -1.2270  1.8353  0.4641
  484MOL0     H66781   5.320   2.478   5.712 -3.6466 -0.7323 -0.8815
  484MOL0     H66782   5.493   2.225   5.641  0.7195  0.8427 -1.0418
  484MOL0     H66783   5.397   2.236   5.790  0.7828 -0.4105  0.6336
  484MOL0     H66784   5.621   2.436   5.719  0.9565 -0.9321  0.6127
  484MOL0     H66785   5.530   2.455   5.863  0.4174  3.6075 -4.1622
  484MOL0     H66786   5.629   2.300   5.989  0.0557  1.6251  0.7789
  484MOL0     H66787   5.761   2.368   5.892  2.2593 -2.2191 -2.1746
  484MOL0     H66788   5.853   2.002   5.772 -1.5575 -0.6497  0.5885
  484MOL0     H66789   5.021   2.265   5.513 -3.0619  0.6341 -0.5208
  484MOL0     H66790   4.859   2.241   5.353 -0.7309 -0.3572  1.3719
  484MOL0     H66791   4.762   2.382   5.399  0.3638  1.5524 -2.0691
  484MOL0     H66792   4.816   2.374   5.236 -2.3791  1.8327  1.3543
  485MOL0     O66793   7.624   9.631   6.372  0.7775 -0.6312 -0.0847
  485MOL0     C66794   7.505   9.634   6.391  0.0447 -0.1928 -0.2800
  485MOL0     O66795   7.405   9.538   6.365 -0.4416  0.2786 -0.6836
  485MOL0     C66796   7.434   9.413   6.319  0.0640 -0.0809 -0.0591
  485MOL0     C66797   7.335   9.356   6.232 -0.1540 -0.7920 -0.7543
  485MOL0     C66798   7.338   9.223   6.190  0.6436  0.1166 -0.8150
  485MOL0     C66799   7.436   9.138   6.246  0.3993  0.4108 -0.2495
  485MOL0     O66800   7.428   8.999   6.225  0.7466 -0.1144  0.1911
  485MOL0     C66801   7.540   8.909   6.266 -0.3793 -0.6205 -0.8518
  485MOL0     C66802   7.498   8.764   6.272 -0.0388 -0.5087 -0.3970
  485MOL0     C66803   7.486   8.691   6.137 -0.8973 -1.0440 -1.1916
  485MOL0     C66804   7.340   8.700   6.093  0.3315  0.1014 -0.2534
  485MOL0     C66805   7.310   8.624   5.960 -0.2325  0.9691 -0.3608
  485MOL0     C66806   7.257   8.483   5.985  0.0324  0.3945 -0.0458
  485MOL0     C66807   7.274   8.397   5.861 -0.4726 -0.2679  0.1066
  485MOL0     C66808   7.410   8.388   5.797  0.1231  0.9475 -0.7282
  485MOL0     N66809   7.508   8.332   5.893  0.6965  0.0411  0.9132
  485MOL0     C66810   7.608   8.397   5.959  0.9748  0.2589 -0.4408
  485MOL0     C66811   7.678   8.295   6.020  0.2833 -0.1804  0.7620
  485MOL0     C66812   7.816   8.325   6.072 -0.6700  0.7428  0.6830
  485MOL0     C66813   7.823   8.338   6.221 -0.0349 -0.4882  0.2503
  485MOL0     C66814   7.857   8.200   6.281 -0.3934  0.2601 -0.7753
  485MOL0     C66815   7.850   8.178   6.429 -0.8316 -0.3204  0.6367
  485MOL0     O66816   7.973   8.230   6.486 -0.8397 -0.5003  0.5522
  485MOL0     C66817   7.986   8.251   6.626  0.8360  0.4652 -0.2494
  485MOL0     C66818   8.092   8.319   6.675  0.4284 -0.3026 -0.2449
  485MOL0     C66819   8.101   8.347   6.811 -0.0838  0.2130 -0.7778
  485MOL0     C66820   8.217   8.435   6.860 -0.6790  0.5498 -0.7984
  485MOL0     C66821   8.013   8.288   6.903 -0.0682 -0.2079  0.5712
  485MOL0     C66822   8.013   8.315   7.051  0.6507  0.0695  0.3132
  485MOL0     O66823   7.978   8.447   7.107  0.1156 -0.3185 -0.3941
  485MOL0     C66824   8.008   8.465   7.234  0.2004  0.0214 -0.1105
  485MOL0     C66825   8.132   8.438   7.300 -0.0629 -0.4098  0.8149
  485MOL0     C66826   8.160   8.474   7.439  0.2243  0.1910  0.9537
  485MOL0     C66827   8.068   8.564   7.494  0.4473  0.5735 -0.3557
  485MOL0     O66828   8.089   8.621   7.614  0.8783 -0.0820 -0.6364
  485MOL0     C66829   8.215   8.640   7.680 -0.6185 -0.0955  0.1692
  485MOL0     C66830   8.296   8.743   7.603  0.2131  0.2207 -0.3970
  485MOL0     C66831   8.415   8.795   7.692 -0.0070  0.0886  0.4051
  485MOL0     C66832   8.546   8.763   7.620 -0.7526 -0.7679 -0.0195
  485MOL0     C66833   8.671   8.832   7.696  0.2751  0.1870  0.9026
  485MOL0     C66834   8.796   8.802   7.617  0.3389  0.1516  0.3315
  485MOL0     C66835   8.843   8.659   7.607  0.3305  0.2494  0.2452
  485MOL0     C66836   8.856   8.591   7.743  0.5404 -0.0950 -0.1746
  485MOL0    Cl66837   8.720   8.488   7.771 -0.0890 -0.3556 -0.5494
  485MOL0     C66838   7.959   8.602   7.432 -0.5976  0.0147 -0.3673
  485MOL0     C66839   7.920   8.541   7.307 -0.8058 -0.0927 -0.0865
  485MOL0     O66840   8.059   8.221   7.109  0.2019  0.9113 -0.3572
  485MOL0     C66841   7.915   8.206   6.855 -0.6516  0.0641  0.1740
  485MOL0     C66842   7.910   8.180   6.721 -0.8556  0.4738  0.0363
  485MOL0     N66843   7.627   8.171   5.988 -0.0488  0.2614  0.0801
  485MOL0     N66844   7.526   8.198   5.907 -0.1869 -0.2262 -0.0558
  485MOL0     C66845   7.536   9.193   6.324  0.6146  0.1828  0.4456
  485MOL0     C66846   7.542   9.330   6.361  0.2088  0.2749 -0.0728
  485MOL0     C66847   7.455   9.770   6.437 -0.0959 -0.7502  0.1605
  485MOL0     C66848   7.555   9.871   6.451  0.2807 -0.3340 -0.2199
  485MOL0     C66849   7.518  10.004   6.487 -0.4505 -0.2444  0.4279
  485MOL0     C66850   7.388  10.036   6.519  0.7168  0.1917  0.3410
  485MOL0     O66851   7.345  10.150   6.574 -0.2983  0.9675  0.3143
  485MOL0     C66852   7.422  10.266   6.556  0.2523 -0.4560  0.3095
  485MOL0     C66853   7.513  10.297   6.683  0.2214  0.2518 -0.1726
  485MOL0     C66854   7.605  10.409   6.653  0.5234 -0.3409 -0.5813
  485MOL0     C66855   7.735  10.393   6.736 -0.0242 -0.1732  0.5938
  485MOL0     C66856   7.698  10.356   6.872 -0.2480  0.2949  0.9951
  485MOL0     C66857   7.662  10.338   6.988 -0.3372 -0.1206  0.4306
  485MOL0     C66858   7.293   9.932   6.495 -0.0592 -0.4234 -0.6472
  485MOL0     C66859   7.320   9.801   6.472 -0.3050  0.4288  0.5429
  485MOL0     C66860   7.223   9.705   6.497  0.5481  0.1880 -0.1355
  485MOL0     H66861   7.260   9.425   6.194  0.4214 -0.8107 -1.9501
  485MOL0     H66862   7.265   9.191   6.117  1.0312 -0.5714 -0.9100
  485MOL0     H66863   7.572   8.939   6.366 -2.9638  0.1110 -0.1725
  485MOL0     H66864   7.619   8.924   6.191 -0.9107  4.1606 -0.7613
  485MOL0     H66865   7.569   8.699   6.323  0.4211 -0.4124 -0.9000
  485MOL0     H66866   7.404   8.765   6.327 -0.0100  0.0846 -0.3471
  485MOL0     H66867   7.556   8.724   6.060  1.2230 -0.4808  0.8783
  485MOL0     H66868   7.506   8.585   6.158 -0.7904 -0.9207 -0.6737
  485MOL0     H66869   7.279   8.653   6.170  0.0173 -0.6486 -0.9499
  485MOL0     H66870   7.304   8.802   6.076  2.5292  0.8110 -1.0063
  485MOL0     H66871   7.404   8.621   5.904  1.8088 -2.2735  2.8125
  485MOL0     H66872   7.237   8.681   5.902 -0.2885  1.5650  0.2727
  485MOL0     H66873   7.312   8.439   6.069 -1.1837  0.5828  0.8735
  485MOL0     H66874   7.151   8.478   6.011 -0.5025  2.6330 -1.4671
  485MOL0     H66875   7.202   8.431   5.785 -0.2394 -1.9158 -0.9067
  485MOL0     H66876   7.236   8.297   5.887 -2.4338 -0.0703 -1.6944
  485MOL0     H66877   7.390   8.308   5.725  0.6368 -0.6662  0.8384
  485MOL0     H66878   7.446   8.474   5.740 -1.2927  0.9396 -1.6672
  485MOL0     H66879   7.618   8.503   5.978 -0.2227 -0.0042  2.0777
  485MOL0     H66880   7.863   8.410   6.022 -0.0446 -0.9064 -1.7323
  485MOL0     H66881   7.879   8.240   6.045 -2.7530 -0.5384 -0.4529
  485MOL0     H66882   7.884   8.423   6.254 -1.7572  1.3248 -1.0078
  485MOL0     H66883   7.723   8.370   6.251 -0.8988 -2.8760  0.1003
  485MOL0     H66884   7.770   8.141   6.252 -1.5413  0.2477  2.3216
  485MOL0     H66885   7.957   8.171   6.245  0.0637  1.5900 -0.6411
  485MOL0     H66886   7.760   8.230   6.463 -0.7835  0.6930 -0.7122
  485MOL0     H66887   7.838   8.073   6.457  1.2262 -0.6474  0.4383
  485MOL0     H66888   8.161   8.371   6.611 -0.2490  2.5935  1.1912
  485MOL0     H66889   8.191   8.489   6.952 -1.5949  0.8082 -1.1927
  485MOL0     H66890   8.249   8.509   6.787  1.8808 -0.1226 -0.4652
  485MOL0     H66891   8.299   8.366   6.882 -1.0335  0.6662  1.0835
  485MOL0     H66892   8.207   8.397   7.234  0.5173  1.2511  0.4200
  485MOL0     H66893   8.252   8.445   7.489 -0.2712  1.4194  2.6780
  485MOL0     H66894   8.197   8.693   7.774 -1.6161  2.3236 -1.3159
  485MOL0     H66895   8.268   8.546   7.700 -2.2482 -1.2437 -0.7467
  485MOL0     H66896   8.336   8.690   7.516  2.3988 -1.7417  1.6660
  485MOL0     H66897   8.234   8.830   7.579 -0.1126  0.3235  0.7729
  485MOL0     H66898   8.401   8.765   7.796 -0.4058 -0.7515  0.1202
  485MOL0     H66899   8.411   8.904   7.693 -0.4390  0.0782  1.6860
  485MOL0     H66900   8.540   8.804   7.519  3.2401  2.9123  0.9724
  485MOL0     H66901   8.559   8.654   7.619 -2.4023 -1.0784  2.5574
  485MOL0     H66902   8.666   8.942   7.696 -0.4879  0.1909  3.0238
  485MOL0     H66903   8.679   8.801   7.801 -1.0757 -2.2088  0.3546
  485MOL0     H66904   8.879   8.856   7.663  1.2867  0.7649 -1.9227
  485MOL0     H66905   8.777   8.845   7.518  2.0689 -2.3972 -1.2284
  485MOL0     H66906   8.946   8.663   7.569  0.0358 -0.8354 -0.7175
  485MOL0     H66907   8.770   8.610   7.543 -3.3994  2.2015  2.6242
  485MOL0     H66908   8.882   8.659   7.825  4.1236 -2.3658  0.8135
  485MOL0     H66909   8.946   8.533   7.725  1.2366  1.3733 -1.7886
  485MOL0     H66910   7.894   8.678   7.475  1.6372  0.4961  2.4673
  485MOL0     H66911   7.830   8.570   7.254  0.2897 -0.1595 -2.0937
  485MOL0     H66912   7.842   8.161   6.923 -1.9290  0.0086 -1.1730
  485MOL0     H66913   7.832   8.118   6.679 -0.7244  0.0883  0.3597
  485MOL0     H66914   7.621   9.128   6.341 -1.9351 -3.2821  1.0282
  485MOL0     H66915   7.636   9.355   6.409 -0.2486 -0.9317  1.5547
  485MOL0     H66916   7.657   9.845   6.424 -0.4351 -2.2406 -1.2285
  485MOL0     H66917   7.604  10.070   6.496 -0.2719 -0.6279  1.6768
  485MOL0     H66918   7.462  10.262   6.455  0.4019  0.7153  0.3100
  485MOL0     H66919   7.360  10.356   6.554  4.2477  2.6687 -3.4670
  485MOL0     H66920   7.575  10.215   6.720  1.0730  1.5729  1.4994
  485MOL0     H66921   7.447  10.312   6.769 -0.5066 -0.8596 -0.5106
  485MOL0     H66922   7.638  10.417   6.549 -1.7386  1.8557 -1.2350
  485MOL0     H66923   7.554  10.504   6.672 -1.8829 -2.0718  2.6944
  485MOL0     H66924   7.797  10.483   6.739 -2.4110  1.5717  0.3633
  485MOL0     H66925   7.783  10.301   6.699 -1.6873  0.0314 -2.4186
  485MOL0     H66926   7.622  10.319   7.086  2.1450  0.0181  1.5438
  485MOL0     H66927   7.191   9.953   6.525  1.2971  2.3115  2.7309
  485MOL0     H66928   7.176   9.667   6.405 -0.7340 -0.1578  0.6421
  485MOL0     H66929   7.269   9.628   6.560  2.4578 -1.3721 -3.1699
  485MOL0     H66930   7.139   9.758   6.542 -0.5013 -2.1899  0.8768
  486MOL0     O66931   4.803   1.268   6.308 -0.4980 -0.0585  0.5052
  486MOL0     C66932   4.891   1.239   6.228 -0.2921 -0.3771  0.4602
  486MOL0     O66933   5.021   1.273   6.240  0.9784 -0.1334 -1.0319
  486MOL0     C66934   5.035   1.397   6.296  0.1226 -0.4990 -0.0383
  486MOL0     C66935   5.020   1.513   6.215 -0.7047  0.8274 -0.3520
  486MOL0     C66936   5.024   1.637   6.270  0.0857  0.3840 -0.1100
  486MOL0     C66937   5.049   1.653   6.410 -0.1076 -0.5222  0.2679
  486MOL0     O66938   5.080   1.782   6.458 -0.0671  0.4446 -0.5729
  486MOL0     C66939   5.135   1.871   6.363  0.1074 -1.0946  0.2353
  486MOL0     C66940   5.194   1.995   6.431  1.0039  0.3915 -0.0079
  486MOL0     C66941   5.261   1.971   6.566  0.4052  0.8283  0.4088
  486MOL0     C66942   5.323   2.094   6.622  0.6210 -0.6283 -0.3170
  486MOL0     C66943   5.391   2.085   6.759  0.1798 -0.0619  0.9872
  486MOL0     C66944   5.479   2.210   6.766 -0.2912  0.6270  0.9811
  486MOL0     C66945   5.491   2.271   6.902 -0.2232  0.0714  0.3630
  486MOL0     C66946   5.608   2.358   6.918 -0.0951  0.5493 -0.1946
  486MOL0     N66947   5.748   2.308   6.890 -0.7625  0.4215 -0.7326
  486MOL0     C66948   5.830   2.259   6.993 -0.7980  0.6475 -0.4297
  486MOL0     C66949   5.942   2.223   6.930  0.3333  0.4273  0.1487
  486MOL0     C66950   6.078   2.173   6.985 -0.1016  0.1287  1.0059
  486MOL0     C66951   6.073   2.049   7.073 -0.5035 -0.1736 -0.2022
  486MOL0     C66952   6.218   1.994   7.100  0.2941  0.2778  0.4070
  486MOL0     C66953   6.201   1.851   7.161 -0.1246 -0.7843  0.6253
  486MOL0     O66954   6.329   1.791   7.154  0.2293  0.5190  0.3284
  486MOL0     C66955   6.341   1.657   7.190  0.2415  0.6101 -0.2985
  486MOL0     C66956   6.247   1.580   7.271 -0.2375 -0.1224 -0.1759
  486MOL0     C66957   6.270   1.439   7.302 -0.3913 -0.7553  0.4354
  486MOL0     C66958   6.158   1.362   7.375  0.4651  0.1208 -0.0470
  486MOL0     C66959   6.388   1.374   7.261 -0.4522 -0.5771 -0.5457
  486MOL0     C66960   6.437   1.233   7.292  0.0252  0.4643 -0.2418
  486MOL0     O66961   6.560   1.217   7.267 -0.1825  0.6879 -0.6110
  486MOL0     C66962   6.615   1.087   7.279  1.0233  0.1861 -0.2101
  486MOL0     C66963   6.640   1.006   7.171  0.4327  0.2761  0.0984
  486MOL0     C66964   6.688   0.874   7.184 -1.5702 -0.7978  0.2641
  486MOL0     C66965   6.725   0.827   7.308  0.2897  0.1184  0.6437
  486MOL0     O66966   6.756   0.695   7.338 -0.1651 -1.3691 -0.9968
  486MOL0     C66967   6.884   0.664   7.284 -0.0496 -0.7825 -0.4982
  486MOL0     C66968   6.960   0.576   7.385 -1.2040  0.0904 -0.4035
  486MOL0     C66969   7.092   0.524   7.322 -0.1234 -0.5904 -0.0533
  486MOL0     C66970   7.206   0.631   7.309  0.5944 -1.1692  0.3795
  486MOL0     C66971   7.340   0.580   7.270 -0.1424 -0.4638 -0.1185
  486MOL0     C66972   7.447   0.683   7.264  0.3495 -0.8476 -0.2061
  486MOL0     C66973   7.440   0.791   7.142 -0.1124  0.5099 -0.4165
  486MOL0     C66974   7.532   0.906   7.143 -0.8104 -0.3424 -0.8447
  486MOL0    Cl66975   7.696   0.868   7.185 -0.4122 -0.3976  0.0793
  486MOL0     C66976   6.698   0.914   7.419  0.9430  0.0327  1.0240
  486MOL0     C66977   6.646   1.036   7.404 -0.9702  0.0025 -0.4452
  486MOL0     O66978   6.352   1.151   7.333 -0.4107  0.5715  1.4396
  486MOL0     C66979   6.486   1.462   7.204 -0.1325 -0.4860  0.9080
  486MOL0     C66980   6.457   1.590   7.166 -0.7631  0.5556  0.1875
  486MOL0     N66981   5.921   2.234   6.789  0.1611  0.8329 -0.9804
  486MOL0     N66982   5.808   2.284   6.767  0.1452  0.8386  0.2031
  486MOL0     C66983   5.061   1.536   6.490 -0.3296 -1.3891  0.9934
  486MOL0     C66984   5.054   1.411   6.428 -0.2088  0.1322 -0.0583
  486MOL0     C66985   4.869   1.116   6.142  1.0462 -0.7192 -0.6753
  486MOL0     C66986   4.934   1.002   6.188  0.4848  0.0673  0.5143
  486MOL0     C66987   4.932   0.900   6.100 -0.2507 -0.4918  0.5297
  486MOL0     C66988   4.885   0.902   5.968 -0.4157  0.2994 -0.0124
  486MOL0     O66989   4.905   0.803   5.870  0.3016  0.1568 -0.3866
  486MOL0     C66990   4.976   0.684   5.908  0.2926 -0.6650  0.2644
  486MOL0     C66991   4.883   0.584   5.987 -0.6447  0.3938 -0.3312
  486MOL0     C66992   4.977   0.483   6.041 -0.2365  0.5238  0.1367
  486MOL0     C66993   4.924   0.369   6.127 -0.7308  0.0765  0.1026
  486MOL0     C66994   4.791   0.321   6.088  0.0024  1.1440 -0.6666
  486MOL0     C66995   4.680   0.267   6.049 -0.5040 -0.2058  0.5431
  486MOL0     C66996   4.820   1.020   5.933 -0.6679 -0.2041 -0.0486
  486MOL0     C66997   4.809   1.131   6.014 -0.3668  0.0661 -1.1833
  486MOL0     C66998   4.763   1.264   5.960  0.7733 -0.0002 -0.5999
  486MOL0     H66999   5.013   1.509   6.107  0.3380  0.6042 -0.4201
  486MOL0     H67000   5.009   1.715   6.196  0.1203  0.9790  0.5054
  486MOL0     H67001   5.072   1.915   6.285  2.4667  0.6259 -0.8000
  486MOL0     H67002   5.218   1.822   6.311  2.5500  2.5220  0.4071
  486MOL0     H67003   5.264   2.047   6.366  3.4698 -0.9335  1.4657
  486MOL0     H67004   5.114   2.068   6.450 -0.5310 -1.4001  0.7389
  486MOL0     H67005   5.185   1.925   6.631  0.9638 -2.2943 -0.9835
  486MOL0     H67006   5.342   1.903   6.541 -0.3247  1.0125 -2.8233
  486MOL0     H67007   5.401   2.126   6.551  2.0109 -1.3353  0.8461
  486MOL0     H67008   5.249   2.173   6.637  0.7889 -0.6015  0.4015
  486MOL0     H67009   5.452   1.997   6.782 -0.2360 -0.8635 -0.8368
  486MOL0     H67010   5.318   2.080   6.841  0.2815 -0.7847  1.0348
  486MOL0     H67011   5.581   2.185   6.734 -0.7403  1.6795 -1.5318
  486MOL0     H67012   5.432   2.279   6.695 -4.1763 -1.9705  0.7295
  486MOL0     H67013   5.507   2.193   6.976 -1.5033  0.2909  0.8963
  486MOL0     H67014   5.405   2.334   6.928 -1.7334 -0.3260 -3.0275
  486MOL0     H67015   5.584   2.438   6.848 -0.5247  1.1228  0.5869
  486MOL0     H67016   5.599   2.405   7.017 -1.6859 -0.1118  0.0119
  486MOL0     H67017   5.806   2.251   7.098 -3.1158  0.9761 -0.8581
  486MOL0     H67018   6.136   2.249   7.038  1.7740 -1.0393  0.7304
  486MOL0     H67019   6.144   2.147   6.902 -1.3532  0.1985 -0.0316
  486MOL0     H67020   6.021   2.075   7.166 -2.4809  3.3366 -2.1118
  486MOL0     H67021   6.016   1.969   7.024  0.0329 -0.9570  0.4149
  486MOL0     H67022   6.271   1.983   7.005  0.6187 -1.7378  0.7870
  486MOL0     H67023   6.274   2.068   7.158 -2.5459  0.4378  3.2839
  486MOL0     H67024   6.173   1.869   7.265  0.0944  1.0538  0.4020
  486MOL0     H67025   6.125   1.791   7.109 -1.2067 -1.3220  2.7216
  486MOL0     H67026   6.161   1.623   7.320 -0.2855 -0.1955 -0.1950
  486MOL0     H67027   6.062   1.413   7.365 -1.0573 -1.9024  2.8909
  486MOL0     H67028   6.170   1.358   7.484 -2.2947  0.1661  0.3414
  486MOL0     H67029   6.148   1.264   7.328  3.1300  0.2106 -0.9606
  486MOL0     H67030   6.613   1.034   7.070  1.2044  2.0361  0.3446
  486MOL0     H67031   6.709   0.811   7.098  1.9902 -2.1840  1.9325
  486MOL0     H67032   6.875   0.608   7.190  1.8154 -0.1326 -1.1174
  486MOL0     H67033   6.942   0.754   7.264 -1.1627  0.1367  0.3044
  486MOL0     H67034   6.976   0.639   7.473  1.5179 -0.5005 -0.3946
  486MOL0     H67035   6.897   0.491   7.411  0.7190 -1.4505 -0.5684
  486MOL0     H67036   7.075   0.480   7.223  0.1673 -1.1094  0.1231
  486MOL0     H67037   7.132   0.439   7.378  1.1125  1.3468  2.2196
  486MOL0     H67038   7.211   0.681   7.406 -0.5727  1.5865 -0.8785
  486MOL0     H67039   7.180   0.706   7.234 -0.7495 -1.8351  0.1390
  486MOL0     H67040   7.373   0.504   7.341 -1.3105  1.6413  2.8713
  486MOL0     H67041   7.346   0.549   7.165  1.8195  1.6733 -0.7468
  486MOL0     H67042   7.540   0.626   7.260 -0.6346 -2.4475 -1.4973
  486MOL0     H67043   7.444   0.733   7.362  1.7154  0.4632 -0.7882
  486MOL0     H67044   7.336   0.824   7.137 -0.3251 -0.2939 -1.8277
  486MOL0     H67045   7.464   0.730   7.055  1.3967 -1.1880  1.1040
  486MOL0     H67046   7.501   0.983   7.215 -1.0172  0.7391 -2.0404
  486MOL0     H67047   7.521   0.961   7.049  0.6304 -0.6230 -1.1945
  486MOL0     H67048   6.725   0.897   7.522  0.2354 -1.6394  0.9597
  486MOL0     H67049   6.658   1.096   7.494 -0.1296  0.0564 -0.5866
  486MOL0     H67050   6.579   1.429   7.158 -0.3703 -1.7147  1.2617
  486MOL0     H67051   6.531   1.630   7.097  0.9751 -0.4201  1.4148
  486MOL0     H67052   5.092   1.555   6.592 -0.1578  2.6695  0.3632
  486MOL0     H67053   5.070   1.324   6.491 -0.8697 -0.1326 -0.2547
  486MOL0     H67054   4.996   0.996   6.277 -0.3385  0.2026  1.1159
  486MOL0     H67055   4.978   0.809   6.139  0.5484 -0.1272  0.4699
  486MOL0     H67056   5.001   0.629   5.816 -1.2556  1.5105 -1.5854
  486MOL0     H67057   5.066   0.703   5.967  1.4022 -2.0084 -0.9034
  486MOL0     H67058   4.807   0.547   5.918 -1.3098  0.9357  0.0997
  486MOL0     H67059   4.826   0.624   6.071 -1.1304  0.8504 -0.8691
  486MOL0     H67060   5.024   0.430   5.958 -4.5576 -1.1517 -1.5117
  486MOL0     H67061   5.050   0.530   6.108  0.4485 -1.8310  1.1833
  486MOL0     H67062   4.915   0.407   6.230 -0.1023  0.7148 -0.0710
  486MOL0     H67063   4.989   0.282   6.136 -3.5778 -2.1212  1.1196
  486MOL0     H67064   4.603   0.207   6.005  1.6698 -2.5282 -0.3402
  486MOL0     H67065   4.797   1.015   5.827 -0.7784 -2.0067  0.0241
  486MOL0     H67066   4.654   1.271   5.964  0.6949 -0.7632 -1.0876
  486MOL0     H67067   4.818   1.347   6.005  0.6461  0.3696 -1.1148
  486MOL0     H67068   4.779   1.276   5.852 -1.6037  2.2625 -0.8064
  487MOL0     O67069   3.533   4.517   2.724 -0.5413 -0.3435  0.1877
  487MOL0     C67070   3.592   4.614   2.672  0.0048  1.2723 -0.6678
  487MOL0     O67071   3.723   4.643   2.686 -0.7935 -0.5550  0.0081
  487MOL0     C67072   3.792   4.545   2.748 -0.4398  0.1992  0.9065
  487MOL0     C67073   3.863   4.450   2.675 -0.1889 -0.1219  0.3058
  487MOL0     C67074   3.946   4.358   2.735  0.0749 -0.1992  0.2903
  487MOL0     C67075   3.962   4.350   2.868 -0.3043 -0.4514 -0.4974
  487MOL0     O67076   4.045   4.274   2.943  0.7903  0.5867  0.1260
  487MOL0     C67077   4.162   4.224   2.880  0.0781 -0.1081  0.4822
  487MOL0     C67078   4.256   4.159   2.982  0.9029 -0.6849 -0.5170
  487MOL0     C67079   4.194   4.039   3.044 -0.1825  0.4543  0.9014
  487MOL0     C67080   4.132   3.930   2.947 -0.7999  0.1230  0.0355
  487MOL0     C67081   4.109   3.802   3.024  0.2208 -0.3766  0.1909
  487MOL0     C67082   4.027   3.789   3.144  0.3799  0.0037 -0.1501
  487MOL0     C67083   4.017   3.648   3.205  0.3854  0.0966 -0.0155
  487MOL0     C67084   3.911   3.636   3.314  0.8979  0.5855  0.1265
  487MOL0     N67085   3.765   3.654   3.278 -0.3326  1.2051  0.0523
  487MOL0     C67086   3.712   3.628   3.159 -0.0710 -0.6429  0.1955
  487MOL0     C67087   3.592   3.689   3.157 -0.4087 -0.4366  0.4995
  487MOL0     C67088   3.510   3.712   3.033  0.8221 -0.9526  0.2286
  487MOL0     C67089   3.360   3.704   3.053  0.1925 -0.9847 -0.4810
  487MOL0     C67090   3.276   3.693   2.926  0.1389 -0.6539 -0.3850
  487MOL0     C67091   3.284   3.803   2.824 -0.0650  0.2250 -0.8182
  487MOL0     O67092   3.187   3.770   2.726 -0.0010  0.2791 -0.2973
  487MOL0     C67093   3.178   3.860   2.621  0.2965 -0.4463  0.4547
  487MOL0     C67094   3.094   3.823   2.514 -0.3941  0.1536  0.8934
  487MOL0     C67095   3.070   3.890   2.400  0.1805 -0.7817 -1.2013
  487MOL0     C67096   2.963   3.831   2.310 -0.3716  0.2665  0.5624
  487MOL0     C67097   3.142   4.010   2.375  0.0477  0.2145 -0.6972
  487MOL0     C67098   3.150   4.081   2.244 -0.6538  0.7121  0.4894
  487MOL0     O67099   3.231   4.189   2.246 -0.2093 -0.1617 -0.2626
  487MOL0     C67100   3.262   4.258   2.129  0.9864 -0.2547 -0.2470
  487MOL0     C67101   3.400   4.281   2.100  1.4722 -1.4232  0.5532
  487MOL0     C67102   3.431   4.363   1.991  0.1378 -0.3316  0.5406
  487MOL0     C67103   3.334   4.427   1.906 -0.5811  0.0228 -0.3266
  487MOL0     O67104   3.366   4.513   1.800 -0.0871 -0.3653  0.3757
  487MOL0     C67105   3.494   4.578   1.787 -0.2364 -0.4473  0.3375
  487MOL0     C67106   3.478   4.726   1.832 -0.1035 -0.3579  0.3372
  487MOL0     C67107   3.351   4.791   1.772  0.1981  0.5085 -0.5530
  487MOL0     C67108   3.335   4.926   1.823 -0.0123  0.2708  0.5791
  487MOL0     C67109   3.236   5.017   1.750  0.0303 -0.5105 -0.6615
  487MOL0     C67110   3.206   5.150   1.830 -0.4154  0.4309 -1.1628
  487MOL0     C67111   3.131   5.244   1.731 -0.3169 -0.8812  0.3466
  487MOL0     C67112   2.982   5.203   1.723  0.2057  0.0527 -0.4039
  487MOL0    Cl67113   2.902   5.172   1.881 -0.2674 -0.7452  0.3521
  487MOL0     C67114   3.192   4.396   1.925 -0.0430  0.5724 -0.3351
  487MOL0     C67115   3.164   4.314   2.038  0.0449  0.0683 -0.8065
  487MOL0     O67116   3.094   4.039   2.143  0.4799 -0.3473  0.1585
  487MOL0     C67117   3.212   4.059   2.488  0.1706  0.5236 -0.3924
  487MOL0     C67118   3.229   3.986   2.613 -0.1904  0.1166  0.6347
  487MOL0     N67119   3.571   3.750   3.271 -0.3940  0.1417 -0.7119
  487MOL0     N67120   3.675   3.730   3.352 -0.0366  0.4883  0.7267
  487MOL0     C67121   3.877   4.442   2.945 -1.2474  1.1914  0.1546
  487MOL0     C67122   3.792   4.536   2.886 -1.0372 -0.4374  1.1333
  487MOL0     C67123   3.499   4.712   2.599  0.3148  0.2788 -0.9040
  487MOL0     C67124   3.371   4.659   2.562 -0.5393  0.0571 -0.9612
  487MOL0     C67125   3.277   4.717   2.482  0.3168 -0.2188 -0.3027
  487MOL0     C67126   3.301   4.850   2.442 -0.0292  0.2196  0.8851
  487MOL0     O67127   3.209   4.929   2.367 -0.0440  0.7791  0.2857
  487MOL0     C67128   3.095   4.860   2.309 -0.2912 -0.4957  0.0695
  487MOL0     C67129   3.152   4.785   2.184 -0.3924  0.3294 -0.1942
  487MOL0     C67130   3.038   4.716   2.100 -0.0241 -0.3301  0.8810
  487MOL0     C67131   2.940   4.623   2.176  0.3443  0.2264 -0.4921
  487MOL0     C67132   3.010   4.529   2.269  0.6624 -0.4007  0.0395
  487MOL0     C67133   3.061   4.441   2.328 -1.2070  0.4394  0.7369
  487MOL0     C67134   3.428   4.913   2.487 -0.8251  0.5763  0.2905
  487MOL0     C67135   3.528   4.849   2.567 -0.0132  0.0298  0.4124
  487MOL0     C67136   3.647   4.929   2.621  0.0448 -0.7902 -0.6233
  487MOL0     H67137   3.835   4.441   2.570  0.8681 -1.8410  0.1225
  487MOL0     H67138   4.010   4.305   2.665 -0.5185 -0.0001 -0.4232
  487MOL0     H67139   4.217   4.310   2.843  0.8143 -0.8235 -0.1291
  487MOL0     H67140   4.128   4.152   2.805 -0.9602  0.8207  0.0279
  487MOL0     H67141   4.346   4.128   2.927 -0.3603 -3.4450 -1.1891
  487MOL0     H67142   4.264   4.237   3.058 -0.8950 -1.8429  0.9266
  487MOL0     H67143   4.266   3.993   3.112 -0.4392 -1.4716 -0.0526
  487MOL0     H67144   4.109   4.070   3.105  0.5777  1.2052  1.6017
  487MOL0     H67145   4.037   3.964   2.905 -0.2228  2.3251  0.3617
  487MOL0     H67146   4.195   3.913   2.860 -2.5317  0.2874 -1.3143
  487MOL0     H67147   4.209   3.766   3.051 -1.1412 -4.6903  0.2692
  487MOL0     H67148   4.067   3.731   2.951  0.7521 -2.1644  1.5374
  487MOL0     H67149   4.055   3.858   3.224 -4.4747  1.1689  0.8536
  487MOL0     H67150   3.923   3.805   3.114 -0.2886 -1.5991  1.1479
  487MOL0     H67151   4.112   3.634   3.258 -1.5591  0.0697  3.8425
  487MOL0     H67152   4.008   3.581   3.119  0.5162  0.7476 -0.5466
  487MOL0     H67153   3.916   3.539   3.363 -2.5440 -0.0411 -0.5051
  487MOL0     H67154   3.940   3.714   3.386 -0.8384  1.3256  0.0668
  487MOL0     H67155   3.747   3.575   3.071  2.8499 -0.4092  1.1126
  487MOL0     H67156   3.538   3.636   2.960  1.1207 -1.0222  0.4106
  487MOL0     H67157   3.536   3.798   2.971 -3.3197 -1.1793 -2.1556
  487MOL0     H67158   3.329   3.627   3.124 -2.1658  0.4906  0.2037
  487MOL0     H67159   3.333   3.797   3.104  2.0979  0.6244 -2.2419
  487MOL0     H67160   3.294   3.597   2.877  3.5139 -0.6980  0.6699
  487MOL0     H67161   3.171   3.702   2.957  0.8899  1.4834  1.9250
  487MOL0     H67162   3.269   3.902   2.868 -1.1795  0.7207 -2.2178
  487MOL0     H67163   3.387   3.806   2.788  1.3944 -1.7235  2.7840
  487MOL0     H67164   3.037   3.731   2.527  0.5244 -0.8953 -1.7454
  487MOL0     H67165   2.899   3.757   2.359 -0.9662 -1.3952 -2.4667
  487MOL0     H67166   3.015   3.772   2.234  0.9513  1.7036  0.3047
  487MOL0     H67167   2.901   3.909   2.263  0.0718  1.3742  1.7411
  487MOL0     H67168   3.473   4.247   2.172  0.4601 -1.1604  1.7288
  487MOL0     H67169   3.535   4.389   1.979 -0.0662 -0.9571 -4.1217
  487MOL0     H67170   3.577   4.526   1.837  0.4137  1.8657  1.8451
  487MOL0     H67171   3.513   4.585   1.680 -2.5390  0.9397 -0.0487
  487MOL0     H67172   3.461   4.726   1.940  1.2705 -0.1192  0.5638
  487MOL0     H67173   3.569   4.783   1.810  0.1561 -1.2436 -1.0161
  487MOL0     H67174   3.268   4.720   1.781  1.2221 -0.7899 -0.8480
  487MOL0     H67175   3.372   4.792   1.664 -3.2265  0.3111 -1.3247
  487MOL0     H67176   3.436   4.966   1.823 -0.2179  0.8130  0.0884
  487MOL0     H67177   3.292   4.922   1.924  1.0001  1.2100  1.0722
  487MOL0     H67178   3.283   5.031   1.653  2.7630 -3.6735  0.0095
  487MOL0     H67179   3.138   4.972   1.737  0.4102 -2.0359  1.2371
  487MOL0     H67180   3.291   5.196   1.881 -0.7558  1.2712 -1.3419
  487MOL0     H67181   3.136   5.120   1.908  0.9292  0.9951  0.3162
  487MOL0     H67182   3.175   5.245   1.631 -2.7087  1.4667 -0.7983
  487MOL0     H67183   3.131   5.348   1.764 -0.3347  0.0459 -2.3060
  487MOL0     H67184   2.977   5.110   1.666  0.4721  0.3167 -0.8698
  487MOL0     H67185   2.917   5.270   1.667  2.1506  1.4870 -1.0668
  487MOL0     H67186   3.120   4.426   1.850  1.2601  1.9807 -1.0820
  487MOL0     H67187   3.062   4.290   2.070  0.0264  0.5568 -0.4869
  487MOL0     H67188   3.269   4.152   2.489 -1.5490  1.6832  2.5195
  487MOL0     H67189   3.279   4.036   2.695  0.2986 -0.6278  0.7927
  487MOL0     H67190   3.887   4.434   3.053  1.3105  1.5833  0.0139
  487MOL0     H67191   3.741   4.613   2.943 -0.9318  0.7122 -0.2651
  487MOL0     H67192   3.341   4.562   2.602 -0.8697  1.3129  2.1143
  487MOL0     H67193   3.197   4.658   2.438  2.3911 -1.7959 -2.2125
  487MOL0     H67194   3.056   4.786   2.379  3.2544 -3.2045 -0.5389
  487MOL0     H67195   3.016   4.933   2.289 -0.6139 -1.2720 -1.7101
  487MOL0     H67196   3.215   4.700   2.211 -0.9034 -0.4083 -1.2538
  487MOL0     H67197   3.206   4.853   2.118 -2.9820  0.6275 -2.1847
  487MOL0     H67198   2.971   4.793   2.062  0.9280 -0.7371 -1.8518
  487MOL0     H67199   3.084   4.665   2.015 -2.5557  2.1293 -2.2343
  487MOL0     H67200   2.891   4.563   2.099  1.4498  1.1161 -1.9492
  487MOL0     H67201   2.868   4.684   2.232  0.6908 -1.7387  2.3002
  487MOL0     H67202   3.090   4.361   2.394  1.1607  1.4493  0.9877
  487MOL0     H67203   3.430   5.018   2.458 -1.7326  0.3564 -0.6379
  487MOL0     H67204   3.732   4.905   2.556  1.1705  3.7366 -1.1897
  487MOL0     H67205   3.619   5.035   2.617 -1.7413 -1.1984  0.1502
  487MOL0     H67206   3.665   4.919   2.728 -0.3001  3.6884  0.0497
  488MOL0     O67207   9.738   2.740   0.222 -0.0711  0.3022 -0.5650
  488MOL0     C67208   9.642   2.798   0.164 -0.7088 -0.0694 -0.3674
  488MOL0     O67209   9.553   2.742   0.075  0.1906 -0.0072  0.3847
  488MOL0     C67210   9.582   2.621   0.035 -0.2901  0.3731 -0.2094
  488MOL0     C67211   9.651   2.618  -0.082  0.0428 -0.4036 -0.5850
  488MOL0     C67212   9.667   2.498  -0.151 -0.7720 -0.5567 -1.3692
  488MOL0     C67213   9.632   2.377  -0.089 -0.7984 -0.4879  0.2913
  488MOL0     O67214   9.641   2.248  -0.143 -0.1630 -0.2537  0.3600
  488MOL0     C67215   9.768   2.182  -0.182  0.0165 -1.5217 -1.0625
  488MOL0     C67216   9.727   2.063  -0.265 -0.2357  0.6534  1.3386
  488MOL0     C67217   9.849   2.010  -0.353  0.3515 -0.1493  0.3915
  488MOL0     C67218   9.956   1.962  -0.251 -0.8480  0.9592 -0.1194
  488MOL0     C67219  10.089   1.939  -0.328  0.0832 -0.1237 -0.5894
  488MOL0     C67220  10.084   1.817  -0.425 -0.3837  0.6440  0.8381
  488MOL0     C67221  10.047   1.678  -0.372 -0.2731  0.4176 -1.1136
  488MOL0     C67222  10.123   1.559  -0.454  0.3660 -0.9654  1.0860
  488MOL0     N67223  10.072   1.566  -0.594  0.3977  0.1682  0.2439
  488MOL0     C67224   9.979   1.491  -0.653  1.0391 -0.0914  0.5376
  488MOL0     C67225   9.970   1.522  -0.786 -0.4431 -0.1382 -0.1990
  488MOL0     C67226   9.880   1.474  -0.899  0.5238  0.1209  0.0035
  488MOL0     C67227   9.753   1.555  -0.915  0.9098 -0.4899  0.0314
  488MOL0     C67228   9.674   1.565  -0.791 -0.1781  0.4335  0.0958
  488MOL0     C67229   9.535   1.630  -0.824  0.1630  0.6970 -0.3002
  488MOL0     O67230   9.508   1.726  -0.714 -0.0201 -0.7393  0.3032
  488MOL0     C67231   9.461   1.686  -0.585 -0.2743 -0.8434  1.0995
  488MOL0     C67232   9.474   1.772  -0.483  0.1867  0.4823  0.3653
  488MOL0     C67233   9.422   1.742  -0.361  0.8694  0.5018 -0.8534
  488MOL0     C67234   9.433   1.842  -0.246 -0.6694 -0.9435 -1.2698
  488MOL0     C67235   9.370   1.609  -0.341 -0.6618 -0.3466  0.1463
  488MOL0     C67236   9.302   1.573  -0.217 -0.3794 -0.2093  0.7766
  488MOL0     O67237   9.324   1.447  -0.175  0.7258 -0.4943  0.0083
  488MOL0     C67238   9.287   1.409  -0.055  0.3760  0.0463 -0.3071
  488MOL0     C67239   9.268   1.483   0.065  0.0961  0.4496  0.4471
  488MOL0     C67240   9.225   1.424   0.184  0.2036 -0.5793 -0.6110
  488MOL0     C67241   9.219   1.288   0.199 -0.7921  0.8679  0.1078
  488MOL0     O67242   9.183   1.214   0.307 -0.8251  0.1117 -0.1109
  488MOL0     C67243   9.164   1.289   0.433  0.5848 -0.0219 -0.2142
  488MOL0     C67244   9.133   1.202   0.550 -0.6678 -0.0813 -0.7022
  488MOL0     C67245   9.193   1.262   0.681 -0.1804  0.2453  0.4051
  488MOL0     C67246   9.137   1.399   0.707 -0.1524 -0.1557 -1.0614
  488MOL0     C67247   9.223   1.530   0.693  0.0538 -0.6202  0.3994
  488MOL0     C67248   9.362   1.526   0.753 -0.1186 -0.3269 -0.5707
  488MOL0     C67249   9.443   1.662   0.741  0.1856 -0.4346 -0.4517
  488MOL0     C67250   9.589   1.650   0.782 -0.0436  0.9661  0.9875
  488MOL0    Cl67251   9.665   1.813   0.797  0.1299 -0.1376  0.5996
  488MOL0     C67252   9.236   1.220   0.078 -0.2965  0.2863 -0.4850
  488MOL0     C67253   9.268   1.274  -0.038 -0.0284  0.3758 -0.6429
  488MOL0     O67254   9.226   1.651  -0.170  0.2032 -0.0758  0.3661
  488MOL0     C67255   9.384   1.509  -0.442  0.5553  0.6173 -0.5302
  488MOL0     C67256   9.419   1.560  -0.571  0.3183  0.5348  0.9199
  488MOL0     N67257  10.074   1.615  -0.804  0.2098  0.3115  0.2051
  488MOL0     N67258  10.135   1.639  -0.692  0.1333 -0.8328 -0.7361
  488MOL0     C67259   9.560   2.385   0.036 -0.1768 -0.9861  0.4739
  488MOL0     C67260   9.527   2.504   0.089  0.4326  0.3514 -0.5653
  488MOL0     C67261   9.598   2.931   0.211 -0.7196  0.2989  0.0242
  488MOL0     C67262   9.461   2.936   0.251 -0.0944 -0.7884 -0.1058
  488MOL0     C67263   9.407   3.057   0.282  0.5075 -0.4503  0.4911
  488MOL0     C67264   9.486   3.167   0.299  0.3324  0.5148  0.7227
  488MOL0     O67265   9.428   3.275   0.347 -0.0864  0.1704 -0.2055
  488MOL0     C67266   9.495   3.388   0.374  0.7197 -0.0455  0.5974
  488MOL0     C67267   9.407   3.491   0.429  0.6229  0.2962  0.1871
  488MOL0     C67268   9.326   3.565   0.322 -0.9275 -0.7202 -0.1040
  488MOL0     C67269   9.206   3.650   0.371  0.6287 -1.0648  0.6060
  488MOL0     C67270   9.178   3.763   0.273 -0.3294  0.1887 -0.3300
  488MOL0     C67271   9.148   3.867   0.205  0.1501 -0.0770 -0.2937
  488MOL0     C67272   9.621   3.158   0.287 -0.3239 -0.0395 -1.1651
  488MOL0     C67273   9.678   3.040   0.248 -0.9007  0.1108  0.1436
  488MOL0     C67274   9.826   3.035   0.238  0.2078 -0.0093 -0.8509
  488MOL0     H67275   9.680   2.706  -0.139  0.8612 -1.4747 -1.8800
  488MOL0     H67276   9.709   2.497  -0.251 -3.4229 -0.4985 -2.5740
  488MOL0     H67277   9.819   2.160  -0.088 -1.6626  0.5355  0.4302
  488MOL0     H67278   9.833   2.248  -0.242 -1.7206  0.2714 -1.0768
  488MOL0     H67279   9.697   1.976  -0.206 -2.8733 -0.3350 -1.2171
  488MOL0     H67280   9.638   2.098  -0.319 -0.2832  0.6424  1.4110
  488MOL0     H67281   9.819   1.930  -0.422  1.2051  0.0665 -0.2462
  488MOL0     H67282   9.887   2.094  -0.411  0.1963 -1.6128 -1.9797
  488MOL0     H67283   9.963   2.032  -0.168 -2.2865 -0.0498  0.9009
  488MOL0     H67284   9.929   1.865  -0.208 -1.7025  1.7155  1.0944
  488MOL0     H67285  10.166   1.924  -0.252 -2.8415 -0.3897  2.6126
  488MOL0     H67286  10.102   2.031  -0.387 -1.5271 -0.7429 -1.9871
  488MOL0     H67287  10.010   1.853  -0.497 -0.9351  0.2477  1.1960
  488MOL0     H67288  10.180   1.803  -0.476 -0.2160 -0.5390  1.4573
  488MOL0     H67289   9.940   1.659  -0.366 -0.4788  1.5582 -1.0639
  488MOL0     H67290  10.078   1.671  -0.268 -2.0384  1.4512 -0.4812
  488MOL0     H67291  10.226   1.596  -0.452 -0.3950  1.5847 -0.8612
  488MOL0     H67292  10.102   1.464  -0.404 -2.7300 -2.2629 -2.2247
  488MOL0     H67293   9.908   1.419  -0.611  1.6393 -1.3271 -0.4910
  488MOL0     H67294   9.857   1.373  -0.863  0.6473  0.1427  0.1412
  488MOL0     H67295   9.924   1.464  -0.998  1.1475  1.3277  0.1470
  488MOL0     H67296   9.777   1.659  -0.938 -2.7707 -0.1969 -3.6533
  488MOL0     H67297   9.703   1.508  -1.000 -1.7086 -0.0068  1.2024
  488MOL0     H67298   9.665   1.465  -0.748  0.2416  1.0927  1.8115
  488MOL0     H67299   9.721   1.634  -0.720 -2.4085  0.4577  1.6229
  488MOL0     H67300   9.543   1.686  -0.917  0.2157 -0.8547 -1.2726
  488MOL0     H67301   9.464   1.547  -0.831 -1.1959  1.7054  0.9784
  488MOL0     H67302   9.520   1.867  -0.509  0.7985 -0.0388 -0.5433
  488MOL0     H67303   9.485   1.811  -0.155  1.0501  2.9572 -0.6987
  488MOL0     H67304   9.333   1.882  -0.229 -1.5573 -3.0635 -1.1780
  488MOL0     H67305   9.495   1.921  -0.291 -0.5593 -1.1931 -1.5546
  488MOL0     H67306   9.285   1.590   0.073  2.7774  0.2284 -1.1975
  488MOL0     H67307   9.214   1.497   0.263  1.3121 -0.8234 -0.2069
  488MOL0     H67308   9.253   1.349   0.457  0.9719 -1.8677  3.9207
  488MOL0     H67309   9.076   1.350   0.414 -1.1716 -3.0525 -2.8769
  488MOL0     H67310   9.024   1.194   0.558 -0.6277 -0.4865 -0.4775
  488MOL0     H67311   9.182   1.107   0.525 -2.6433 -0.9523 -1.5522
  488MOL0     H67312   9.302   1.255   0.683  0.3294  5.0830  0.7065
  488MOL0     H67313   9.142   1.201   0.756  0.7698 -1.1928 -0.0680
  488MOL0     H67314   9.113   1.400   0.814  2.7193  0.2021 -0.3302
  488MOL0     H67315   9.039   1.417   0.662 -0.5152 -0.8362 -0.5678
  488MOL0     H67316   9.227   1.560   0.588 -2.1637  0.5171  0.5800
  488MOL0     H67317   9.167   1.609   0.744 -0.9233  0.7263 -2.5344
  488MOL0     H67318   9.421   1.450   0.701 -0.7003  0.2861 -2.1880
  488MOL0     H67319   9.364   1.507   0.861  1.2490  2.3878 -0.0268
  488MOL0     H67320   9.387   1.731   0.804 -1.1552 -2.2574  0.4165
  488MOL0     H67321   9.437   1.712   0.644  2.7027  1.0372  0.0589
  488MOL0     H67322   9.651   1.585   0.719 -1.1590 -0.5995  1.4322
  488MOL0     H67323   9.584   1.592   0.875 -0.0596 -1.9175 -0.6977
  488MOL0     H67324   9.211   1.115   0.069 -1.3676  0.3951  0.8777
  488MOL0     H67325   9.270   1.206  -0.122 -2.7786 -1.3941  0.6074
  488MOL0     H67326   9.342   1.411  -0.424 -0.6447  1.1129 -0.4844
  488MOL0     H67327   9.418   1.487  -0.651 -0.9071  1.7398 -0.2276
  488MOL0     H67328   9.508   2.299   0.075 -2.8305 -0.0571 -0.8166
  488MOL0     H67329   9.454   2.505   0.169  1.7536  0.6026  0.6732
  488MOL0     H67330   9.396   2.849   0.249  0.6000 -1.3598  1.0215
  488MOL0     H67331   9.303   3.088   0.271  0.6726 -0.7647 -3.6107
  488MOL0     H67332   9.576   3.374   0.446  0.2978 -1.1553  0.8886
  488MOL0     H67333   9.546   3.418   0.282  1.2345 -4.4573 -0.8179
  488MOL0     H67334   9.471   3.557   0.489  2.0106 -0.9966  0.1947
  488MOL0     H67335   9.335   3.454   0.502 -0.2790  0.3266 -0.6721
  488MOL0     H67336   9.404   3.626   0.275  2.6353 -3.4852  1.7849
  488MOL0     H67337   9.288   3.495   0.248 -0.5490 -0.0359 -0.9658
  488MOL0     H67338   9.227   3.696   0.468 -1.6274  3.9868 -0.9988
  488MOL0     H67339   9.117   3.588   0.387  0.4973 -2.6555 -4.5279
  488MOL0     H67340   9.102   3.939   0.140  0.0011  0.0719 -0.0210
  488MOL0     H67341   9.682   3.247   0.303  0.0278 -0.5071  0.3028
  488MOL0     H67342   9.855   2.948   0.177 -1.4779  0.0666 -1.8447
  488MOL0     H67343   9.876   3.117   0.186 -1.5151 -1.2331 -4.9040
  488MOL0     H67344   9.873   3.027   0.336  0.9315 -1.3755 -1.2841
  489MOL0     O67345   5.195   8.498   5.847  0.6300 -0.3229 -0.5378
  489MOL0     C67346   5.270   8.593   5.810  0.0603  0.0603  0.2607
  489MOL0     O67347   5.353   8.586   5.713 -0.6343  0.6310  0.5794
  489MOL0     C67348   5.378   8.476   5.641  0.1687 -0.0295  0.6023
  489MOL0     C67349   5.270   8.404   5.584  0.3638  0.8298  0.1336
  489MOL0     C67350   5.286   8.291   5.504  0.0629  0.2482  0.1673
  489MOL0     C67351   5.419   8.258   5.471  0.6241 -0.2862 -0.0244
  489MOL0     O67352   5.461   8.154   5.396  0.1589 -0.0964  0.3247
  489MOL0     C67353   5.446   8.165   5.253  0.3503 -0.0528 -0.1597
  489MOL0     C67354   5.307   8.108   5.193 -0.3379  0.0158 -0.2705
  489MOL0     C67355   5.299   8.120   5.036 -0.3227  0.4432 -0.1070
  489MOL0     C67356   5.183   8.033   4.990 -0.3265  0.2201 -0.3867
  489MOL0     C67357   5.114   8.092   4.874 -0.5178 -0.0942 -1.2618
  489MOL0     C67358   5.199   8.139   4.750  0.4256 -0.1024  0.8782
  489MOL0     C67359   5.112   8.175   4.639  0.3458  0.4654  0.0050
  489MOL0     C67360   5.201   8.202   4.523 -0.3879 -0.0668 -0.2281
  489MOL0     N67361   5.109   8.223   4.400 -0.0773 -0.5045 -0.3164
  489MOL0     C67362   5.001   8.316   4.376 -0.1768  0.2557  0.5319
  489MOL0     C67363   4.944   8.275   4.260  0.1246  1.2675  0.3647
  489MOL0     C67364   4.818   8.313   4.193 -0.9768 -0.6650  0.2538
  489MOL0     C67365   4.841   8.378   4.055 -0.0270 -0.5215  0.2815
  489MOL0     C67366   4.724   8.353   3.948 -0.1218  0.0259  0.0169
  489MOL0     C67367   4.737   8.447   3.828 -0.3284  0.2612  0.3493
  489MOL0     O67368   4.676   8.569   3.876 -0.1181  0.3112  0.5183
  489MOL0     C67369   4.709   8.683   3.807 -0.8275 -0.3847 -0.0870
  489MOL0     C67370   4.708   8.809   3.865 -0.1609 -0.0522  0.4039
  489MOL0     C67371   4.754   8.926   3.787  0.9162 -0.3126 -0.6165
  489MOL0     C67372   4.733   9.055   3.858  0.1032 -0.0484  0.5387
  489MOL0     C67373   4.805   8.910   3.658  0.7584  0.0112 -0.9044
  489MOL0     C67374   4.879   9.017   3.581  0.4043 -0.2844 -0.0129
  489MOL0     O67375   4.922   8.996   3.450 -1.2010  0.1854 -0.4352
  489MOL0     C67376   4.954   9.086   3.349 -0.3263 -1.8205  0.1862
  489MOL0     C67377   4.886   9.081   3.225 -0.4548  0.3595 -0.9949
  489MOL0     C67378   4.922   9.162   3.120  0.4433  0.4245 -0.7398
  489MOL0     C67379   5.027   9.252   3.129  0.0959 -0.3153  0.0620
  489MOL0     O67380   5.052   9.344   3.033  0.0200 -0.0751  1.1170
  489MOL0     C67381   5.184   9.338   2.971 -0.4218 -1.1097  0.7969
  489MOL0     C67382   5.169   9.422   2.835  0.1010 -0.6199 -0.5816
  489MOL0     C67383   5.284   9.414   2.734 -1.4119 -0.7485  0.9427
  489MOL0     C67384   5.314   9.267   2.692 -0.2277  0.4630 -0.1188
  489MOL0     C67385   5.232   9.206   2.577  0.2257  0.1060  0.6844
  489MOL0     C67386   5.265   9.053   2.549  0.0964  0.4346  0.1018
  489MOL0     C67387   5.141   8.996   2.499  0.3532  0.2810  0.5132
  489MOL0     C67388   5.158   8.846   2.467 -0.0736 -0.9991  1.0506
  489MOL0    Cl67389   5.199   8.762   2.626 -0.2526 -0.0532  0.2011
  489MOL0     C67390   5.080   9.270   3.257  0.3434  0.2551  0.9089
  489MOL0     C67391   5.033   9.202   3.367  0.0982  0.7282 -0.2844
  489MOL0     O67392   4.897   9.124   3.638 -1.1079  0.0449  0.1261
  489MOL0     C67393   4.806   8.782   3.605 -0.2044  0.5711  0.0682
  489MOL0     C67394   4.752   8.677   3.675  0.7712 -0.5297  0.7522
  489MOL0     N67395   5.008   8.157   4.215  0.4056 -0.5059  0.0908
  489MOL0     N67396   5.110   8.132   4.296  0.4168 -0.0834 -0.7451
  489MOL0     C67397   5.522   8.328   5.526 -0.2151 -0.8845 -0.0153
  489MOL0     C67398   5.509   8.438   5.608 -0.0968 -0.4680 -0.2376
  489MOL0     C67399   5.253   8.712   5.895 -0.8061  0.1097 -0.8073
  489MOL0     C67400   5.291   8.834   5.843 -0.1993 -0.1413 -0.2416
  489MOL0     C67401   5.318   8.953   5.918  0.7243 -0.6957 -0.0362
  489MOL0     C67402   5.291   8.949   6.053 -0.4074 -1.0203  0.0643
  489MOL0     O67403   5.340   9.039   6.157 -0.1862  0.1217 -0.2343
  489MOL0     C67404   5.419   9.139   6.101  0.3000  0.0993 -0.4377
  489MOL0     C67405   5.472   9.230   6.210 -0.9676 -0.2173 -1.1173
  489MOL0     C67406   5.392   9.363   6.219  0.2763 -0.5166 -0.8142
  489MOL0     C67407   5.241   9.336   6.265 -0.0523  0.6532 -0.1820
  489MOL0     C67408   5.167   9.465   6.271  0.8614  0.1912 -0.1453
  489MOL0     C67409   5.126   9.579   6.285 -0.2775  0.1027 -0.0588
  489MOL0     C67410   5.246   8.833   6.105  0.5559 -1.0221 -0.0038
  489MOL0     C67411   5.228   8.715   6.036 -0.1200  0.2870  0.8998
  489MOL0     C67412   5.172   8.597   6.114  0.7855 -0.8748 -0.1129
  489MOL0     H67413   5.174   8.453   5.598  1.3284  2.5423  1.0830
  489MOL0     H67414   5.198   8.250   5.456  0.5797 -1.5826  0.7074
  489MOL0     H67415   5.521   8.110   5.194  0.3938  1.2593 -1.3733
  489MOL0     H67416   5.464   8.271   5.237 -0.6905  0.1071 -0.3464
  489MOL0     H67417   5.300   8.004   5.225 -2.0549  0.7208  1.8803
  489MOL0     H67418   5.218   8.158   5.231  0.8841  2.1984 -0.1264
  489MOL0     H67419   5.295   8.227   5.015  2.8865  0.8617  0.9098
  489MOL0     H67420   5.394   8.095   4.988 -0.8048 -1.5552 -0.1133
  489MOL0     H67421   5.218   7.935   4.956 -1.6825  0.0541 -1.3958
  489MOL0     H67422   5.113   8.027   5.074 -0.5282 -1.1015 -0.6388
  489MOL0     H67423   5.073   8.178   4.928 -1.3939  0.0027 -2.0592
  489MOL0     H67424   5.038   8.021   4.841 -2.7870  1.2450  0.7074
  489MOL0     H67425   5.261   8.226   4.773 -0.9891  0.7628  1.5373
  489MOL0     H67426   5.251   8.048   4.718 -2.3623 -2.8560  3.5110
  489MOL0     H67427   5.050   8.260   4.670 -0.4378 -0.1833  0.2423
  489MOL0     H67428   5.043   8.093   4.622 -0.7572  1.7491 -2.0976
  489MOL0     H67429   5.262   8.292   4.519 -0.1825 -0.1023  1.3147
  489MOL0     H67430   5.253   8.106   4.521 -0.0642  0.1085 -0.3071
  489MOL0     H67431   4.962   8.391   4.444 -4.2425  0.0194 -1.2278
  489MOL0     H67432   4.775   8.398   4.247 -1.3612  1.2725 -2.8349
  489MOL0     H67433   4.745   8.232   4.187 -0.6908 -0.9847  0.9263
  489MOL0     H67434   4.849   8.485   4.072 -0.5458 -0.3510 -0.5066
  489MOL0     H67435   4.930   8.340   4.004 -0.6776  0.6111 -1.8611
  489MOL0     H67436   4.731   8.247   3.919 -0.7531  0.3603 -1.4413
  489MOL0     H67437   4.626   8.372   3.994  0.9343  1.2072  1.9061
  489MOL0     H67438   4.841   8.475   3.809 -1.1217  3.7648  0.3630
  489MOL0     H67439   4.697   8.405   3.735 -1.4807 -1.0976  1.4246
  489MOL0     H67440   4.673   8.812   3.968  2.0725 -1.6310  1.2833
  489MOL0     H67441   4.695   9.134   3.793  2.8214 -0.0494 -1.1772
  489MOL0     H67442   4.825   9.097   3.899 -0.8190  4.4305 -1.4303
  489MOL0     H67443   4.651   9.051   3.931  0.8553  3.2709  1.7241
  489MOL0     H67444   4.803   9.012   3.238 -0.4650  0.7591  1.6954
  489MOL0     H67445   4.882   9.148   3.020  1.4875 -1.7689 -0.8935
  489MOL0     H67446   5.262   9.381   3.033 -0.2949 -0.9190  0.5062
  489MOL0     H67447   5.205   9.232   2.951  1.1261 -0.7688  0.4998
  489MOL0     H67448   5.078   9.390   2.784 -1.1759 -0.2230  1.3903
  489MOL0     H67449   5.162   9.528   2.863  2.8149 -0.9318  1.8002
  489MOL0     H67450   5.365   9.461   2.789 -0.4197 -0.8872 -0.3315
  489MOL0     H67451   5.260   9.474   2.646  0.2326  2.2436  2.4018
  489MOL0     H67452   5.303   9.196   2.775 -1.9138 -0.6654 -1.2599
  489MOL0     H67453   5.414   9.287   2.652 -0.8331  4.1652 -0.0978
  489MOL0     H67454   5.125   9.218   2.597  0.4200 -0.0959  1.9225
  489MOL0     H67455   5.250   9.274   2.493 -1.9247 -0.2110 -0.0917
  489MOL0     H67456   5.298   9.004   2.642 -1.7577  0.3062  0.7480
  489MOL0     H67457   5.347   9.031   2.480  2.2226  0.3062  2.4863
  489MOL0     H67458   5.106   9.048   2.409  0.3098  0.4020  0.5998
  489MOL0     H67459   5.060   9.002   2.573  0.1242 -0.2460  0.3106
  489MOL0     H67460   5.240   8.830   2.396 -1.0595 -1.3822 -0.0469
  489MOL0     H67461   5.065   8.803   2.427  0.2179 -0.5006 -0.2098
  489MOL0     H67462   5.150   9.352   3.266 -0.5153  1.1345 -0.0924
  489MOL0     H67463   5.067   9.237   3.464 -1.4620 -0.2360  0.6405
  489MOL0     H67464   4.859   8.778   3.510  4.1936 -1.7845  2.2796
  489MOL0     H67465   4.756   8.588   3.614 -3.2707  1.1181 -2.4024
  489MOL0     H67466   5.621   8.290   5.506 -0.2972 -2.1510  1.7462
  489MOL0     H67467   5.601   8.490   5.634  0.6064 -1.8458  0.1252
  489MOL0     H67468   5.316   8.831   5.737 -1.3208  0.4172 -0.5440
  489MOL0     H67469   5.359   9.042   5.870 -3.4872  0.5326 -1.8364
  489MOL0     H67470   5.491   9.075   6.051  0.0792  0.5504 -1.3430
  489MOL0     H67471   5.373   9.205   6.027  0.1196  0.6890  0.1913
  489MOL0     H67472   5.575   9.263   6.191 -0.7344  0.8345  1.5774
  489MOL0     H67473   5.479   9.179   6.306  0.2486 -1.7656 -1.9698
  489MOL0     H67474   5.439   9.418   6.301 -0.0252 -0.5366 -0.6267
  489MOL0     H67475   5.396   9.434   6.135  0.4737 -0.3705 -0.6806
  489MOL0     H67476   5.248   9.285   6.361  4.0608  1.7543  0.2560
  489MOL0     H67477   5.196   9.274   6.186  0.5641  1.1665 -0.9501
  489MOL0     H67478   5.089   9.676   6.314  0.0077  0.0109  0.6546
  489MOL0     H67479   5.215   8.837   6.209  3.1785 -1.8193  0.8837
  489MOL0     H67480   5.233   8.510   6.137  1.0833 -0.6272  0.0426
  489MOL0     H67481   5.128   8.638   6.205  2.2192 -1.8276  1.0371
  489MOL0     H67482   5.086   8.570   6.052  0.7170 -1.8030  0.3707
  490MOL0     O67483   3.050   7.675   1.017 -0.6503 -0.4604 -0.3526
  490MOL0     C67484   3.157   7.723   0.981  0.5018  0.8382  0.3211
  490MOL0     O67485   3.235   7.812   1.055 -0.1706  0.1299  1.0243
  490MOL0     C67486   3.194   7.884   1.160  0.8021  0.2504 -0.6503
  490MOL0     C67487   3.199   7.821   1.291 -1.2243  0.5659 -0.2134
  490MOL0     C67488   3.158   7.891   1.404  0.2834  0.3995 -0.6153
  490MOL0     C67489   3.124   8.028   1.397 -0.7522  0.5872 -0.2187
  490MOL0     O67490   3.089   8.084   1.517  0.5373  0.7112 -0.3737
  490MOL0     C67491   3.084   8.229   1.519  0.1022  0.5238  0.3803
  490MOL0     C67492   3.104   8.285   1.655  0.5328  0.5869  0.1080
  490MOL0     C67493   3.115   8.437   1.647 -0.0946 -0.7759 -0.3280
  490MOL0     C67494   3.008   8.503   1.557 -0.0098  0.6189  0.3356
  490MOL0     C67495   3.051   8.649   1.563  0.0551  0.9497  0.2497
  490MOL0     C67496   3.006   8.719   1.441  0.2880  0.0434 -0.2878
  490MOL0     C67497   2.851   8.734   1.435 -0.1301  0.0472  1.3377
  490MOL0     C67498   2.782   8.796   1.549  0.6770 -0.0218 -0.8297
  490MOL0     N67499   2.717   8.698   1.637  0.2718  0.2096 -0.6262
  490MOL0     C67500   2.747   8.675   1.773  0.2459 -0.1737  1.3306
  490MOL0     C67501   2.698   8.555   1.802 -0.7255  0.2745 -0.2833
  490MOL0     C67502   2.712   8.487   1.931  0.3977  0.2566 -0.0053
  490MOL0     C67503   2.656   8.564   2.053 -0.7108 -0.0789  0.4600
  490MOL0     C67504   2.623   8.476   2.173 -0.0731  0.1328  0.9393
  490MOL0     C67505   2.481   8.416   2.168  0.8007 -1.2313  0.8394
  490MOL0     O67506   2.431   8.385   2.287  1.1810  0.0180 -1.3734
  490MOL0     C67507   2.393   8.484   2.376  0.6539  0.0329 -0.0314
  490MOL0     C67508   2.346   8.612   2.337  0.5442  0.9398 -0.2699
  490MOL0     C67509   2.311   8.709   2.429  0.1945 -0.8278 -0.3480
  490MOL0     C67510   2.266   8.838   2.373 -0.1084  0.3068 -0.1568
  490MOL0     C67511   2.310   8.682   2.564 -0.4388 -0.2843 -0.0465
  490MOL0     C67512   2.284   8.772   2.675 -0.7282 -0.5759 -1.0193
  490MOL0     O67513   2.219   8.721   2.784 -0.3994 -0.0210 -0.0689
  490MOL0     C67514   2.208   8.799   2.893 -0.3861  1.2353 -0.0090
  490MOL0     C67515   2.095   8.871   2.919 -0.8293 -0.5848 -0.0722
  490MOL0     C67516   2.085   8.926   3.043  0.4713  0.3112  0.1545
  490MOL0     C67517   2.168   8.898   3.148  0.6341 -0.3488  0.4975
  490MOL0     O67518   2.152   8.967   3.270 -0.5557  0.6785  0.9144
  490MOL0     C67519   2.030   8.950   3.335  0.3539 -0.5354  0.7923
  490MOL0     C67520   1.995   8.810   3.375  0.9241  0.7664 -0.3853
  490MOL0     C67521   1.941   8.710   3.267  1.5336  0.3081 -0.0168
  490MOL0     C67522   1.887   8.569   3.319  0.1107 -0.6406 -0.9116
  490MOL0     C67523   1.868   8.457   3.219 -0.0042  0.3294 -0.0977
  490MOL0     C67524   1.821   8.326   3.286  0.8320 -0.6303  0.6913
  490MOL0     C67525   1.800   8.214   3.189  0.0842 -1.1826  0.0078
  490MOL0     C67526   1.876   8.087   3.233 -0.1298  0.1901  0.1018
  490MOL0    Cl67527   1.898   7.968   3.105  0.4375 -0.1750  0.2597
  490MOL0     C67528   2.276   8.811   3.128 -0.1224  0.1326  0.2953
  490MOL0     C67529   2.308   8.779   2.992  0.1598 -0.3853  0.0591
  490MOL0     O67530   2.325   8.883   2.661 -0.5603 -0.7439  1.4423
  490MOL0     C67531   2.344   8.553   2.601  1.4709  0.1398 -0.6795
  490MOL0     C67532   2.386   8.459   2.508 -0.5024  1.3600 -0.4653
  490MOL0     N67533   2.631   8.518   1.686  0.4156 -0.2384 -0.1042
  490MOL0     N67534   2.636   8.609   1.591  0.6362 -0.3608 -0.5515
  490MOL0     C67535   3.131   8.082   1.269 -0.3059 -0.3856 -0.0355
  490MOL0     C67536   3.154   8.015   1.150 -0.6144  0.2159 -0.3136
  490MOL0     C67537   3.202   7.671   0.852  0.0390  0.5482  0.1587
  490MOL0     C67538   3.294   7.745   0.783 -0.2870 -0.0785  0.2869
  490MOL0     C67539   3.324   7.720   0.648 -0.9677  0.6685 -0.7649
  490MOL0     C67540   3.275   7.608   0.580 -0.2670  0.0727  0.6304
  490MOL0     O67541   3.326   7.585   0.451  0.1403 -0.2967 -0.4818
  490MOL0     C67542   3.464   7.609   0.410 -0.6086 -0.7864 -0.4275
  490MOL0     C67543   3.475   7.628   0.255  0.3137 -0.2012 -0.1929
  490MOL0     C67544   3.410   7.506   0.191  0.5476 -0.3346  0.3200
  490MOL0     C67545   3.427   7.499   0.035 -1.1150  0.3834 -0.1279
  490MOL0     C67546   3.342   7.578  -0.052 -0.1224  0.6578 -0.0626
  490MOL0     C67547   3.266   7.643  -0.125 -0.1284 -0.1404  1.1382
  490MOL0     C67548   3.178   7.530   0.648  0.3253 -0.3661  0.5987
  490MOL0     C67549   3.147   7.552   0.785  0.5637  0.4930  0.6298
  490MOL0     C67550   3.053   7.457   0.855 -0.2313  0.2598  0.6270
  490MOL0     H67551   3.221   7.715   1.296  4.0035  1.3249 -1.3611
  490MOL0     H67552   3.170   7.841   1.500  0.5927  1.4692 -0.0713
  490MOL0     H67553   2.990   8.263   1.475  0.1972 -0.7044 -0.8063
  490MOL0     H67554   3.163   8.261   1.451 -0.1334  0.4887  0.0894
  490MOL0     H67555   3.021   8.255   1.720 -1.1333  1.7376 -1.3940
  490MOL0     H67556   3.194   8.242   1.701  1.0747 -0.3581 -1.7308
  490MOL0     H67557   3.114   8.476   1.749  0.0203 -1.3232 -0.1130
  490MOL0     H67558   3.216   8.453   1.606  1.3653 -1.5050  2.7412
  490MOL0     H67559   3.025   8.466   1.456  1.3644 -3.6726  1.8953
  490MOL0     H67560   2.904   8.501   1.590 -0.7946 -0.9477 -2.0147
  490MOL0     H67561   3.160   8.663   1.557  0.4931 -2.1723 -2.9968
  490MOL0     H67562   3.019   8.697   1.655 -1.8980  1.2155 -0.5333
  490MOL0     H67563   3.042   8.823   1.446  4.1489 -1.1281 -0.0866
  490MOL0     H67564   3.043   8.671   1.350 -1.9640 -0.5387 -0.9490
  490MOL0     H67565   2.811   8.637   1.403 -0.9987  0.4879  1.0543
  490MOL0     H67566   2.828   8.787   1.342  1.9570  0.1737  0.8434
  490MOL0     H67567   2.854   8.859   1.601  2.3290 -1.0094 -1.8097
  490MOL0     H67568   2.696   8.856   1.519 -0.7955 -0.2126  2.5807
  490MOL0     H67569   2.823   8.728   1.828  1.1122 -1.0825  1.0385
  490MOL0     H67570   2.817   8.468   1.955  0.3550 -0.1283 -0.1133
  490MOL0     H67571   2.667   8.388   1.922  2.8744 -1.1383  1.6740
  490MOL0     H67572   2.738   8.635   2.067 -0.4086 -0.6011  1.4291
  490MOL0     H67573   2.570   8.625   2.025  0.2813  0.6200 -1.2633
  490MOL0     H67574   2.698   8.395   2.176  0.6504  0.6712 -1.0853
  490MOL0     H67575   2.631   8.537   2.264  1.1579 -0.2125  1.0852
  490MOL0     H67576   2.415   8.486   2.116  2.1366  0.3927  1.2573
  490MOL0     H67577   2.468   8.325   2.109 -0.8355 -3.1900  3.9457
  490MOL0     H67578   2.335   8.638   2.232  0.4678  2.8518  0.1687
  490MOL0     H67579   2.248   8.835   2.265 -0.4188  3.2924 -0.2887
  490MOL0     H67580   2.335   8.921   2.389 -1.0464  1.0022  0.3983
  490MOL0     H67581   2.170   8.872   2.414 -1.0741 -3.4793  1.0647
  490MOL0     H67582   2.020   8.891   2.843 -0.9632 -0.4320  0.1015
  490MOL0     H67583   2.001   8.992   3.060  0.1653 -0.6122  2.7590
  490MOL0     H67584   2.027   9.017   3.421 -1.2522  1.0186 -0.3968
  490MOL0     H67585   1.958   8.990   3.263  0.4870 -1.4581  0.1217
  490MOL0     H67586   2.085   8.767   3.421  0.6109  2.4165  1.9442
  490MOL0     H67587   1.919   8.821   3.453 -1.0240 -1.4298 -1.8324
  490MOL0     H67588   2.039   8.686   3.224  2.6834  0.8078  2.1894
  490MOL0     H67589   1.870   8.752   3.195  1.9080 -2.0873 -1.9272
  490MOL0     H67590   1.786   8.589   3.357  0.1210 -0.1516 -1.1399
  490MOL0     H67591   1.944   8.523   3.400 -1.1239  1.5932  1.3540
  490MOL0     H67592   1.798   8.481   3.139 -0.2453 -3.2781 -1.1438
  490MOL0     H67593   1.962   8.425   3.175 -0.9802 -0.6510 -1.5303
  490MOL0     H67594   1.725   8.343   3.334 -0.2079 -3.5008 -0.1433
  490MOL0     H67595   1.897   8.282   3.352  1.0152 -2.9742 -0.9496
  490MOL0     H67596   1.828   8.250   3.089  2.4274 -0.8850  0.7126
  490MOL0     H67597   1.693   8.193   3.184 -0.5239  1.7220 -2.0044
  490MOL0     H67598   1.822   8.046   3.320 -1.4056  0.8255 -0.3686
  490MOL0     H67599   1.973   8.120   3.271  0.2716 -1.1387  0.2870
  490MOL0     H67600   2.350   8.783   3.202 -0.7144 -0.1283  0.8038
  490MOL0     H67601   2.398   8.730   2.956  2.1074  2.1964  1.0871
  490MOL0     H67602   2.354   8.547   2.709  0.4928  1.8348 -0.4608
  490MOL0     H67603   2.419   8.357   2.524  0.6467  1.1027 -3.8144
  490MOL0     H67604   3.129   8.190   1.260  1.8608 -0.2324  0.7530
  490MOL0     H67605   3.140   8.069   1.057 -0.4683  4.4091  1.8290
  490MOL0     H67606   3.337   7.832   0.832 -0.3216 -0.5652  1.2064
  490MOL0     H67607   3.383   7.794   0.594 -1.9221 -0.3254 -3.3438
  490MOL0     H67608   3.506   7.700   0.453 -1.8785 -0.4197  0.0829
  490MOL0     H67609   3.533   7.531   0.442  1.0404  0.2648 -1.3067
  490MOL0     H67610   3.580   7.639   0.229  0.5166 -0.3276  0.5609
  490MOL0     H67611   3.423   7.720   0.225 -1.3695 -0.3733  1.9271
  490MOL0     H67612   3.448   7.417   0.242  1.6620  0.1533  0.3681
  490MOL0     H67613   3.303   7.496   0.213  0.4997 -4.3154 -1.0111
  490MOL0     H67614   3.413   7.394   0.008  1.0173 -0.1944  0.7998
  490MOL0     H67615   3.534   7.518   0.021 -1.0055  0.0458  0.2116
  490MOL0     H67616   3.206   7.693  -0.198  2.7266 -1.0327 -2.1220
  490MOL0     H67617   3.127   7.451   0.594 -1.5195  1.2329 -0.1619
  490MOL0     H67618   3.088   7.438   0.957  1.2341  4.9178  1.2094
  490MOL0     H67619   2.952   7.498   0.855 -0.3242  0.0522 -0.0084
  490MOL0     H67620   3.037   7.360   0.806 -3.5169  0.9264  0.1151
  491MOL0     O67621   9.847   8.383   5.577  0.0315 -0.3917  0.7914
  491MOL0     C67622   9.760   8.336   5.656  0.2667  0.4151 -0.6213
  491MOL0     O67623   9.708   8.203   5.640  0.2385  0.3638  0.3639
  491MOL0     C67624   9.731   8.133   5.528  0.2753 -0.5831  0.9287
  491MOL0     C67625   9.865   8.100   5.492 -1.4446  0.0652 -0.3505
  491MOL0     C67626   9.882   8.002   5.391 -0.6604 -0.2506 -0.2643
  491MOL0     C67627   9.773   7.951   5.318  0.2769  0.3388  0.3927
  491MOL0     O67628   9.803   7.869   5.209 -0.3969  0.1517 -0.2012
  491MOL0     C67629   9.700   7.810   5.131 -0.0305  0.1652 -0.1320
  491MOL0     C67630   9.755   7.686   5.047 -0.0352 -1.0143  0.1517
  491MOL0     C67631   9.823   7.579   5.135 -0.1989  1.0229  0.3052
  491MOL0     C67632   9.888   7.476   5.049 -0.0448 -0.5727 -0.1237
  491MOL0     C67633   9.919   7.350   5.121 -0.0910  0.1685  0.9063
  491MOL0     C67634   9.964   7.249   5.009  1.1183 -0.9018 -0.3764
  491MOL0     C67635  10.095   7.274   4.924  0.0393 -0.1880 -0.3211
  491MOL0     C67636  10.158   7.140   4.856 -0.6801  0.9514 -0.5233
  491MOL0     N67637  10.067   7.072   4.768  0.1265  0.1392  0.5390
  491MOL0     C67638   9.954   7.126   4.694 -0.4353  0.7380  0.6440
  491MOL0     C67639   9.895   7.031   4.613 -0.9065 -0.4894 -0.8147
  491MOL0     C67640   9.772   7.042   4.523 -0.5668 -0.1123  0.1258
  491MOL0     C67641   9.741   7.180   4.470 -0.2223 -0.3544  0.5816
  491MOL0     C67642   9.832   7.250   4.371 -0.7317  0.1118 -0.6205
  491MOL0     C67643   9.968   7.300   4.422  0.1799  0.0080 -0.5204
  491MOL0     O67644   9.948   7.409   4.515  0.0607 -0.2895 -0.5307
  491MOL0     C67645  10.049   7.472   4.579 -0.0806 -0.2617 -0.0666
  491MOL0     C67646  10.014   7.584   4.658  0.1644  0.5500 -0.5083
  491MOL0     C67647  10.116   7.651   4.735  0.2525  0.3455  1.0231
  491MOL0     C67648  10.068   7.775   4.800 -0.2177 -0.0683 -0.1605
  491MOL0     C67649  10.248   7.604   4.723 -0.0979 -0.7583 -0.3137
  491MOL0     C67650  10.365   7.665   4.797 -0.4543  0.2834  0.0267
  491MOL0     O67651  10.345   7.713   4.923  0.4587  0.3926 -0.8592
  491MOL0     C67652  10.417   7.802   4.999 -0.0033  0.4491  0.0637
  491MOL0     C67653  10.527   7.863   4.944  0.3945  0.1278  0.1496
  491MOL0     C67654  10.586   7.968   5.011 -0.6562 -0.2563  0.0419
  491MOL0     C67655  10.545   8.009   5.139 -0.7009  0.5703 -0.0750
  491MOL0     O67656  10.613   8.116   5.186 -0.3813 -0.5321 -0.3934
  491MOL0     C67657  10.560   8.192   5.290  0.7199 -0.1477 -0.4602
  491MOL0     C67658  10.662   8.291   5.331  0.2532 -0.0084  0.0078
  491MOL0     C67659  10.625   8.350   5.467 -0.0464 -0.5806 -0.2129
  491MOL0     C67660  10.508   8.445   5.456 -0.3980  0.4042  0.5023
  491MOL0     C67661  10.477   8.506   5.592  0.5174  0.6434 -0.2173
  491MOL0     C67662  10.368   8.599   5.578  0.0249 -0.2619 -0.0835
  491MOL0     C67663  10.224   8.532   5.561  1.1924 -0.6477  0.8708
  491MOL0     C67664  10.113   8.642   5.552 -0.3872  0.2762  0.2461
  491MOL0    Cl67665  10.102   8.743   5.698 -0.4521 -0.2190 -0.2310
  491MOL0     C67666  10.433   7.941   5.196 -0.4091  0.3601 -0.3050
  491MOL0     C67667  10.370   7.838   5.124  0.2056 -0.7097  0.5688
  491MOL0     O67668  10.477   7.637   4.754  0.3415  0.0757 -0.3283
  491MOL0     C67669  10.281   7.493   4.647  1.0686  0.0163 -1.1917
  491MOL0     C67670  10.181   7.430   4.569  0.1743 -0.3755 -0.7860
  491MOL0     N67671   9.977   6.914   4.632  0.2350 -0.1774 -0.8284
  491MOL0     N67672  10.066   6.935   4.723 -0.3293  0.1740  0.7671
  491MOL0     C67673   9.641   7.989   5.362  0.1516  0.2170 -0.2408
  491MOL0     C67674   9.620   8.075   5.469 -0.5292  0.1660 -0.2516
  491MOL0     C67675   9.701   8.414   5.758 -0.5256 -0.2838 -1.0534
  491MOL0     C67676   9.561   8.423   5.749 -0.4795 -0.4967  0.9519
  491MOL0     C67677   9.491   8.521   5.825 -0.4635  1.8574  0.0537
  491MOL0     C67678   9.554   8.591   5.928  0.0876  0.7045 -0.4777
  491MOL0     O67679   9.469   8.674   6.002 -0.2368  0.0715 -0.7191
  491MOL0     C67680   9.519   8.810   6.006 -0.2758 -0.8750 -0.9184
  491MOL0     C67681   9.432   8.916   6.062 -0.6836  0.5725 -0.3261
  491MOL0     C67682   9.279   8.892   6.038 -0.9676  1.0968  0.7580
  491MOL0     C67683   9.250   8.890   5.883 -0.1601 -0.4407  0.2173
  491MOL0     C67684   9.113   8.861   5.847  0.2887  1.0568  0.8471
  491MOL0     C67685   8.997   8.830   5.812 -0.6492 -0.4076  0.1208
  491MOL0     C67686   9.688   8.581   5.938  0.4477 -0.2109  0.5926
  491MOL0     C67687   9.766   8.492   5.861 -0.6035  0.4422  0.1490
  491MOL0     C67688   9.914   8.501   5.882  1.2519 -0.0963  1.0568
  491MOL0     H67689   9.952   8.144   5.539  0.0062  1.3808 -3.9272
  491MOL0     H67690   9.979   7.970   5.354 -1.0775 -3.6492  1.2777
  491MOL0     H67691   9.648   7.887   5.073  0.3535  1.8064  1.6211
  491MOL0     H67692   9.630   7.765   5.201 -0.5362  2.0266  0.6224
  491MOL0     H67693   9.671   7.651   4.985  0.7627 -1.2554 -0.8212
  491MOL0     H67694   9.821   7.730   4.972 -1.3996 -1.2070 -1.2186
  491MOL0     H67695   9.906   7.612   5.199  1.0981  0.5170 -1.0472
  491MOL0     H67696   9.754   7.525   5.200  0.4221  0.3582  0.4209
  491MOL0     H67697   9.819   7.450   4.968  0.4092 -1.7292 -0.1569
  491MOL0     H67698   9.980   7.521   5.009 -0.1032 -0.1856  0.1700
  491MOL0     H67699   9.844   7.304   5.187 -0.6966  0.0976  0.1802
  491MOL0     H67700   9.994   7.375   5.196  0.0711  0.1933  0.7364
  491MOL0     H67701   9.977   7.148   5.049  2.6610 -2.1356 -3.6563
  491MOL0     H67702   9.883   7.243   4.936 -0.5460 -0.9583  1.3897
  491MOL0     H67703  10.174   7.325   4.980 -1.8916  0.2208  2.2371
  491MOL0     H67704  10.061   7.344   4.848  0.5968  1.0845  0.5590
  491MOL0     H67705  10.243   7.172   4.795 -0.0299  0.3492  0.0596
  491MOL0     H67706  10.208   7.089   4.938  2.2427  2.8192 -0.9820
  491MOL0     H67707   9.926   7.231   4.690 -1.4666  0.4293 -1.2741
  491MOL0     H67708   9.680   7.018   4.577 -1.4398  2.9734  0.2522
  491MOL0     H67709   9.802   6.986   4.435  0.3591 -0.2700  0.5280
  491MOL0     H67710   9.648   7.157   4.417 -1.7718 -3.1474  4.1357
  491MOL0     H67711   9.725   7.245   4.556  0.7567  0.6552  0.0320
  491MOL0     H67712   9.849   7.184   4.286 -1.7399 -2.0164  0.7349
  491MOL0     H67713   9.786   7.344   4.339  0.6552  0.2559 -2.3426
  491MOL0     H67714  10.017   7.222   4.481 -2.7074 -2.3214 -0.9541
  491MOL0     H67715  10.035   7.317   4.337  0.8337 -3.3809 -0.8352
  491MOL0     H67716   9.913   7.624   4.664 -0.0600 -0.1121  0.2662
  491MOL0     H67717  10.113   7.859   4.746 -1.4299  0.6557 -0.0674
  491MOL0     H67718  10.100   7.761   4.904 -2.0564 -1.1717  0.3129
  491MOL0     H67719   9.960   7.789   4.801 -0.7453 -3.1093  1.8519
  491MOL0     H67720  10.567   7.851   4.844  2.8925  1.8666  0.8544
  491MOL0     H67721  10.669   8.014   4.959 -1.9217  0.6161 -1.2853
  491MOL0     H67722  10.473   8.240   5.243  1.2512 -1.2603 -2.6695
  491MOL0     H67723  10.532   8.134   5.378 -3.1534  1.6780 -0.2716
  491MOL0     H67724  10.763   8.250   5.338  0.1286 -0.0190  3.1420
  491MOL0     H67725  10.690   8.365   5.256  4.0092 -2.1409 -0.9492
  491MOL0     H67726  10.705   8.421   5.490 -2.8047  2.4485  0.7084
  491MOL0     H67727  10.601   8.280   5.548 -1.2729  1.0177  0.8453
  491MOL0     H67728  10.429   8.385   5.411 -1.8135  1.8367  0.9816
  491MOL0     H67729  10.531   8.526   5.386 -0.5186  0.1599  0.1783
  491MOL0     H67730  10.447   8.432   5.668 -1.5565  0.8831 -0.7444
  491MOL0     H67731  10.559   8.560   5.640  0.3892  0.5486  0.1155
  491MOL0     H67732  10.388   8.666   5.494 -4.4394  1.7880  0.1859
  491MOL0     H67733  10.369   8.666   5.664  2.3456  0.1381 -0.3659
  491MOL0     H67734  10.200   8.465   5.645  1.5588 -1.3168  0.4432
  491MOL0     H67735  10.226   8.472   5.470 -1.2970 -1.2798  1.1353
  491MOL0     H67736  10.015   8.604   5.523 -0.0286 -0.4562 -0.0378
  491MOL0     H67737  10.152   8.712   5.478 -0.8703 -0.7951 -1.0638
  491MOL0     H67738  10.381   7.968   5.287 -1.0026 -1.5125 -0.0469
  491MOL0     H67739  10.277   7.791   5.155  0.6259 -0.6735  1.9355
  491MOL0     H67740  10.382   7.453   4.646  1.5749  0.8878  2.3597
  491MOL0     H67741  10.225   7.347   4.515  2.3192  1.8901 -2.7216
  491MOL0     H67742   9.548   7.938   5.339 -0.7417  0.0728  3.2359
  491MOL0     H67743   9.530   8.107   5.521  1.0035 -1.7989  4.0883
  491MOL0     H67744   9.504   8.369   5.674 -0.5977  1.4967 -0.4775
  491MOL0     H67745   9.382   8.526   5.825 -0.7223 -1.1860  1.0707
  491MOL0     H67746   9.617   8.812   6.055 -0.6551 -2.2074 -0.0447
  491MOL0     H67747   9.522   8.832   5.899 -2.3230 -0.3617 -0.9263
  491MOL0     H67748   9.450   9.017   6.027 -1.2265  0.2771 -1.5142
  491MOL0     H67749   9.459   8.909   6.168  3.8656 -2.3673 -1.4003
  491MOL0     H67750   9.241   8.796   6.074 -2.4450  1.3319 -0.1118
  491MOL0     H67751   9.215   8.972   6.075  0.2326  2.1383  0.6755
  491MOL0     H67752   9.307   8.806   5.842  2.0629  0.5274  1.1508
  491MOL0     H67753   9.294   8.975   5.829  1.1010 -0.9545  0.3844
  491MOL0     H67754   8.898   8.806   5.778 -1.0588 -1.9018  2.1661
  491MOL0     H67755   9.737   8.641   6.014  0.1046 -2.3881  2.6236
  491MOL0     H67756   9.948   8.605   5.884 -0.4506  0.4866  0.9728
  491MOL0     H67757   9.954   8.461   5.975  0.4358  0.1837  1.5312
  491MOL0     H67758   9.977   8.467   5.799 -0.4568  1.1666 -0.8541
  492MOL0     O67759   9.554   0.437   2.342 -0.5062 -0.7064  0.0396
  492MOL0     C67760   9.599   0.456   2.450 -0.2221  0.4328 -1.0955
  492MOL0     O67761   9.567   0.385   2.563  0.0744  0.5716 -0.2479
  492MOL0     C67762   9.490   0.268   2.551 -0.3998 -0.3406  0.1639
  492MOL0     C67763   9.504   0.188   2.658 -0.0310 -0.3714 -0.3537
  492MOL0     C67764   9.426   0.065   2.670 -0.5913 -0.2107 -0.2454
  492MOL0     C67765   9.332   0.034   2.576 -0.6278  0.1628 -0.0265
  492MOL0     O67766   9.264  -0.083   2.581  0.4986 -1.0262 -1.1494
  492MOL0     C67767   9.199  -0.133   2.456 -0.1369  0.4833 -0.2605
  492MOL0     C67768   9.144  -0.278   2.485  0.3394  0.1455 -0.4224
  492MOL0     C67769   9.097  -0.356   2.356 -0.0672 -0.1886  0.3677
  492MOL0     C67770   9.207  -0.390   2.268  0.3174 -0.4813  0.6195
  492MOL0     C67771   9.181  -0.461   2.137  0.9020  0.4642 -0.2654
  492MOL0     C67772   9.309  -0.525   2.084 -0.8159  0.1663  0.2080
  492MOL0     C67773   9.287  -0.583   1.946  0.2077  0.5051 -0.0254
  492MOL0     C67774   9.423  -0.625   1.886 -0.1077 -0.1140 -0.4650
  492MOL0     N67775   9.485  -0.733   1.959  1.3427 -0.0833 -0.4325
  492MOL0     C67776   9.425  -0.850   1.994  0.6493 -0.5944 -0.4208
  492MOL0     C67777   9.511  -0.911   2.073  0.0523 -0.0858 -0.2692
  492MOL0     C67778   9.500  -1.049   2.124  1.2238 -0.8663  0.5436
  492MOL0     C67779   9.354  -1.095   2.129  0.3829 -0.8630  0.2209
  492MOL0     C67780   9.318  -1.187   2.013 -0.4298 -0.2396 -0.1059
  492MOL0     C67781   9.178  -1.254   2.033 -0.8722  0.1550 -0.1974
  492MOL0     O67782   9.169  -1.336   2.153 -0.4080 -0.1681  0.5503
  492MOL0     C67783   9.115  -1.462   2.142  0.4937  0.8739  0.3388
  492MOL0     C67784   9.149  -1.564   2.238  0.4689  0.1002 -0.3320
  492MOL0     C67785   9.088  -1.690   2.250 -0.3367 -0.1553  0.3087
  492MOL0     C67786   9.132  -1.776   2.365  0.8529 -0.0241  0.7224
  492MOL0     C67787   8.985  -1.722   2.160  0.1841  0.0637 -0.2078
  492MOL0     C67788   8.900  -1.852   2.164  0.0759  0.2448 -0.0770
  492MOL0     O67789   8.766  -1.848   2.117  1.0271 -0.4120 -0.1239
  492MOL0     C67790   8.690  -1.960   2.115  0.3517 -0.2834 -0.6645
  492MOL0     C67791   8.689  -2.057   2.220  0.1361 -0.3379  0.1166
  492MOL0     C67792   8.594  -2.162   2.214 -0.7679  0.0939 -0.6712
  492MOL0     C67793   8.496  -2.166   2.110  0.0203 -0.6137  0.6514
  492MOL0     O67794   8.408  -2.266   2.086  0.7598  0.5516  0.3126
  492MOL0     C67795   8.375  -2.351   2.194 -0.0184 -0.6894 -0.6827
  492MOL0     C67796   8.313  -2.480   2.125  0.1815  0.1407  0.0913
  492MOL0     C67797   8.190  -2.437   2.046  0.8636 -0.1227  0.1489
  492MOL0     C67798   8.102  -2.550   2.017  0.2369  1.0819  0.2015
  492MOL0     C67799   7.977  -2.514   1.933 -0.1586 -0.4490  0.1402
  492MOL0     C67800   7.858  -2.616   1.944 -0.2130 -0.0425 -0.2559
  492MOL0     C67801   7.737  -2.573   1.862 -0.3655  0.4611  0.0570
  492MOL0     C67802   7.674  -2.696   1.791 -0.3439 -0.7827 -0.8839
  492MOL0    Cl67803   7.605  -2.795   1.917 -0.5269  0.1416 -0.5810
  492MOL0     C67804   8.497  -2.071   2.007 -0.4112 -0.5536  0.0910
  492MOL0     C67805   8.595  -1.970   2.007 -1.1534  0.1047  0.0138
  492MOL0     O67806   8.956  -1.947   2.217  0.1261 -0.1650  0.4274
  492MOL0     C67807   8.958  -1.626   2.059 -0.2753 -0.0862  1.0928
  492MOL0     C67808   9.023  -1.503   2.048  0.6401  0.1916  0.5250
  492MOL0     N67809   9.632  -0.840   2.084 -0.7256 -1.1582  0.1007
  492MOL0     N67810   9.608  -0.735   2.020 -0.6003  0.0142  0.4287
  492MOL0     C67811   9.316   0.126   2.471  0.1266 -0.4887 -0.5403
  492MOL0     C67812   9.397   0.240   2.454  0.0685  0.4886 -0.4350
  492MOL0     C67813   9.675   0.579   2.481  0.3383 -0.1938 -0.1173
  492MOL0     C67814   9.707   0.608   2.620  0.5640 -0.6758 -0.0599
  492MOL0     C67815   9.789   0.717   2.660 -0.2116 -0.4115  0.3521
  492MOL0     C67816   9.840   0.803   2.567  1.0443 -0.6110  0.4763
  492MOL0     O67817   9.909   0.917   2.606  0.2154  0.5959 -0.3839
  492MOL0     C67818   9.999   0.969   2.514  0.0646 -0.8315  0.1781
  492MOL0     C67819   9.949   1.104   2.444  0.0693  0.5491 -0.0189
  492MOL0     C67820   9.928   1.220   2.530  0.8507 -0.0918 -0.0826
  492MOL0     C67821   9.894   1.359   2.458 -0.4091 -0.1888  0.2707
  492MOL0     C67822   9.849   1.463   2.557 -0.4501  0.3062 -0.3172
  492MOL0     C67823   9.827   1.549   2.638  0.8553  0.5299  0.4232
  492MOL0     C67824   9.817   0.770   2.431 -0.2262 -0.6671  0.5293
  492MOL0     C67825   9.746   0.654   2.386 -0.1428  0.1444 -1.2693
  492MOL0     C67826   9.731   0.623   2.237  0.1250  0.0229 -0.4128
  492MOL0     H67827   9.572   0.218   2.738  0.5667 -1.6030 -0.3845
  492MOL0     H67828   9.454   0.004   2.755  3.1056  0.3428 -0.8820
  492MOL0     H67829   9.283  -0.133   2.386 -0.1137  1.2993 -0.2376
  492MOL0     H67830   9.122  -0.067   2.417  0.6233  1.9598  0.6736
  492MOL0     H67831   9.223  -0.336   2.534 -2.4184 -2.1495  1.7059
  492MOL0     H67832   9.056  -0.263   2.549  0.9700 -0.6572  0.6679
  492MOL0     H67833   9.037  -0.441   2.389 -2.3770  1.7287  1.4203
  492MOL0     H67834   9.029  -0.289   2.303  0.6619  2.2014  2.2305
  492MOL0     H67835   9.255  -0.293   2.248 -0.6096 -0.2175 -0.4631
  492MOL0     H67836   9.268  -0.457   2.329  0.7422  1.4163  2.3929
  492MOL0     H67837   9.133  -0.388   2.072 -2.5010  1.3274  2.8737
  492MOL0     H67838   9.110  -0.536   2.173  0.7942  1.9997  3.0307
  492MOL0     H67839   9.389  -0.450   2.086 -1.8699  1.3220 -0.0116
  492MOL0     H67840   9.348  -0.601   2.153  2.3160  2.4284  1.1405
  492MOL0     H67841   9.227  -0.517   1.882  1.3959 -0.6457 -2.4548
  492MOL0     H67842   9.233  -0.678   1.950  0.8079 -0.0212 -2.3847
  492MOL0     H67843   9.404  -0.664   1.785 -0.3200 -0.5626 -0.2541
  492MOL0     H67844   9.500  -0.548   1.884 -0.6143  0.4994  1.4418
  492MOL0     H67845   9.336  -0.887   1.944  0.5835  0.6757 -1.2604
  492MOL0     H67846   9.545  -1.044   2.224  2.0689  1.5020  0.1211
  492MOL0     H67847   9.555  -1.118   2.060  1.6189 -1.6820  1.7164
  492MOL0     H67848   9.345  -1.145   2.226 -1.0210 -2.7775 -0.8178
  492MOL0     H67849   9.276  -1.018   2.127  0.7144 -0.5385 -0.4741
  492MOL0     H67850   9.323  -1.139   1.915  1.4331 -0.6862 -0.2653
  492MOL0     H67851   9.401  -1.256   1.995 -0.0855  0.5367 -1.6445
  492MOL0     H67852   9.107  -1.171   2.042 -1.0582  0.0445 -0.6484
  492MOL0     H67853   9.151  -1.308   1.942  3.0867 -2.9479  0.2085
  492MOL0     H67854   9.211  -1.530   2.320 -0.0168  3.6260 -1.2288
  492MOL0     H67855   9.192  -1.857   2.322  1.9582  0.6912  0.8619
  492MOL0     H67856   9.045  -1.809   2.423  1.3720  1.1430  2.2354
  492MOL0     H67857   9.186  -1.715   2.439 -2.8968  2.6951  1.5065
  492MOL0     H67858   8.762  -2.062   2.300  1.7812 -1.3061 -1.3549
  492MOL0     H67859   8.605  -2.238   2.290 -3.1640 -1.2369 -1.5544
  492MOL0     H67860   8.460  -2.386   2.254 -0.5674  2.6445  2.3929
  492MOL0     H67861   8.303  -2.300   2.259  3.1697 -0.5219  3.1032
  492MOL0     H67862   8.392  -2.521   2.062  2.1618  0.1128  2.4263
  492MOL0     H67863   8.265  -2.545   2.199 -2.6606  0.1588 -1.5742
  492MOL0     H67864   8.221  -2.397   1.949 -1.8470  1.8756 -0.0122
  492MOL0     H67865   8.139  -2.355   2.098  2.2028  2.1780 -1.9073
  492MOL0     H67866   8.063  -2.593   2.110 -3.9201  1.3141 -1.2337
  492MOL0     H67867   8.152  -2.626   1.956  0.3421  1.7141 -0.5143
  492MOL0     H67868   7.944  -2.415   1.963  5.2039  1.1298  1.9264
  492MOL0     H67869   8.005  -2.508   1.827  0.3516  0.1454  0.2990
  492MOL0     H67870   7.831  -2.612   2.050 -1.6519  0.7895 -0.6216
  492MOL0     H67871   7.885  -2.719   1.918 -0.2878  0.2342 -1.5021
  492MOL0     H67872   7.761  -2.500   1.784 -4.8216  3.3411  0.9748
  492MOL0     H67873   7.662  -2.528   1.928  1.2938 -2.3436  4.2861
  492MOL0     H67874   7.757  -2.747   1.741  1.3513  1.9442 -1.0444
  492MOL0     H67875   7.592  -2.667   1.724  0.8318 -0.3911 -2.2262
  492MOL0     H67876   8.413  -2.072   1.938  0.1497 -0.8366 -0.5878
  492MOL0     H67877   8.587  -1.894   1.929 -0.4937  0.4002  0.2216
  492MOL0     H67878   8.883  -1.650   1.984  2.1666  1.2544 -2.0260
  492MOL0     H67879   8.996  -1.424   1.979  2.6675  0.6211  0.1546
  492MOL0     H67880   9.226   0.124   2.411 -0.2984 -1.2964  0.1001
  492MOL0     H67881   9.370   0.308   2.373 -3.4336  1.8104  1.6400
  492MOL0     H67882   9.639   0.561   2.690  0.7218  0.1715  0.6727
  492MOL0     H67883   9.800   0.735   2.766  1.7952  2.0465 -0.1821
  492MOL0     H67884  10.087   1.004   2.569 -0.1299  0.6946 -0.4175
  492MOL0     H67885  10.032   0.905   2.431 -0.1009  0.2464 -0.7413
  492MOL0     H67886   9.867   1.073   2.378 -0.7683 -0.1120  1.2934
  492MOL0     H67887  10.024   1.132   2.369  0.1505  2.6334  0.7865
  492MOL0     H67888   9.851   1.210   2.607 -0.0990 -0.3973 -1.0472
  492MOL0     H67889  10.019   1.250   2.583  1.1012 -1.5689  0.3723
  492MOL0     H67890   9.825   1.336   2.376 -0.3228  0.6661 -0.0563
  492MOL0     H67891   9.983   1.397   2.407 -1.2035  0.8480 -0.3947
  492MOL0     H67892   9.808   1.630   2.705  1.0220 -0.1141  1.2715
  492MOL0     H67893   9.862   0.826   2.349  0.1246  3.3265  3.1843
  492MOL0     H67894   9.738   0.516   2.219 -0.2119  0.3748 -3.0137
  492MOL0     H67895   9.634   0.652   2.193  1.8441  4.2695 -1.9934
  492MOL0     H67896   9.804   0.681   2.180  0.6657 -0.1196  0.1233
  493MOL0     O67897   1.304  11.535   0.938  0.3983  0.1477  0.6596
  493MOL0     C67898   1.202  11.468   0.938 -0.2775 -1.1060 -0.0891
  493MOL0     O67899   1.081  11.525   0.918  0.1578  0.6618  0.0677
  493MOL0     C67900   1.083  11.654   0.863  0.4947  0.0396 -0.2839
  493MOL0     C67901   1.033  11.772   0.933 -0.1957 -0.5858 -0.4812
  493MOL0     C67902   1.015  11.900   0.863 -0.6740  0.3528  0.4820
  493MOL0     C67903   1.056  11.908   0.727 -0.5445  0.3017  0.1980
  493MOL0     O67904   1.061  12.025   0.651 -0.8327 -0.4217  0.2905
  493MOL0     C67905   1.009  12.142   0.716 -0.6293  0.6202  0.5253
  493MOL0     C67906   1.013  12.254   0.616 -0.0083  0.4016  0.0670
  493MOL0     C67907   0.922  12.238   0.498 -0.3509 -0.1490  0.3417
  493MOL0     C67908   0.952  12.357   0.394  0.9947 -0.2796 -0.6380
  493MOL0     C67909   0.867  12.351   0.269  0.7454 -0.6543  0.6227
  493MOL0     C67910   0.873  12.482   0.192  0.4752  0.4122 -0.1464
  493MOL0     C67911   1.006  12.500   0.119 -0.0357  0.1337 -0.5575
  493MOL0     C67912   1.035  12.412  -0.005 -0.8907 -0.2033  0.4494
  493MOL0     N67913   1.146  12.472  -0.097 -0.7038  0.1207 -0.2981
  493MOL0     C67914   1.264  12.534  -0.046 -0.2196 -0.0375  0.1436
  493MOL0     C67915   1.333  12.577  -0.152  0.2350 -0.0159 -1.3969
  493MOL0     C67916   1.469  12.642  -0.136 -0.1576  0.7230  0.1216
  493MOL0     C67917   1.553  12.630  -0.260 -0.0421  0.0758 -0.8572
  493MOL0     C67918   1.696  12.667  -0.219 -0.1893  0.4943  0.6466
  493MOL0     C67919   1.810  12.640  -0.317  0.2605  1.0007 -0.4769
  493MOL0     O67920   1.925  12.678  -0.252 -0.1700 -0.1726 -0.1873
  493MOL0     C67921   2.049  12.657  -0.302 -0.7269 -0.4846  1.2060
  493MOL0     C67922   2.145  12.705  -0.216  0.5222  0.7829  0.5374
  493MOL0     C67923   2.280  12.695  -0.247  0.2284 -1.1447  0.6449
  493MOL0     C67924   2.362  12.741  -0.130  0.3119  0.3507 -0.2648
  493MOL0     C67925   2.324  12.648  -0.379  0.4016  0.1010 -0.6199
  493MOL0     C67926   2.467  12.642  -0.416  0.1746 -0.4171  0.6378
  493MOL0     O67927   2.487  12.599  -0.547 -0.0323 -0.2920  0.4080
  493MOL0     C67928   2.616  12.592  -0.602 -0.2467  0.0601  0.2719
  493MOL0     C67929   2.632  12.626  -0.741  0.6915  0.1790  0.4503
  493MOL0     C67930   2.764  12.637  -0.801  0.7752  0.9454  0.1883
  493MOL0     C67931   2.868  12.581  -0.728  0.3471  0.2058  0.6026
  493MOL0     O67932   2.986  12.575  -0.800  0.7156  0.2522  0.3244
  493MOL0     C67933   3.095  12.663  -0.766  0.9890 -0.0061  0.1143
  493MOL0     C67934   3.113  12.752  -0.884  0.0248  0.2024  0.1217
  493MOL0     C67935   3.231  12.845  -0.872 -0.2499  0.0900  0.2998
  493MOL0     C67936   3.365  12.756  -0.849 -0.7507  0.3046  0.2501
  493MOL0     C67937   3.493  12.837  -0.861 -0.1057 -0.3329 -0.3894
  493MOL0     C67938   3.623  12.775  -0.830 -0.8753  0.3048  0.4542
  493MOL0     C67939   3.635  12.759  -0.681 -0.1893  0.2826 -0.2700
  493MOL0     C67940   3.719  12.638  -0.655 -0.1839  0.9883  0.4374
  493MOL0    Cl67941   3.774  12.646  -0.479 -0.8284 -0.1101 -0.4622
  493MOL0     C67942   2.855  12.549  -0.590  0.1454  0.0624  0.6892
  493MOL0     C67943   2.732  12.549  -0.528  0.7302 -0.3791  0.1283
  493MOL0     O67944   2.562  12.662  -0.339  0.1230 -0.9229  0.1662
  493MOL0     C67945   2.221  12.604  -0.461 -0.6340 -0.5584  0.3523
  493MOL0     C67946   2.085  12.610  -0.431  0.0797 -0.2006 -0.4449
  493MOL0     N67947   1.264  12.546  -0.268 -0.2323  0.0181 -0.0177
  493MOL0     N67948   1.160  12.486  -0.236  0.8132  0.2234  0.1481
  493MOL0     C67949   1.088  11.790   0.661 -0.5989 -0.5344  0.4252
  493MOL0     C67950   1.101  11.673   0.727 -0.4913 -0.1751  0.3825
  493MOL0     C67951   1.216  11.324   0.967  0.4601  0.9402  0.8559
  493MOL0     C67952   1.295  11.294   1.071  0.2269 -0.1160  1.1317
  493MOL0     C67953   1.316  11.159   1.102 -0.0601 -0.2394  0.5312
  493MOL0     C67954   1.274  11.060   1.009  0.1355  0.3158 -1.7462
  493MOL0     O67955   1.313  10.929   1.039  0.5454 -0.8229  0.2254
  493MOL0     C67956   1.234  10.818   0.991  0.0110 -0.4383  0.1231
  493MOL0     C67957   1.289  10.767   0.849  0.9098 -0.4099 -0.9529
  493MOL0     C67958   1.445  10.758   0.860  0.0774  0.3757  0.7295
  493MOL0     C67959   1.507  10.673   0.740 -0.0679 -0.3810  0.3304
  493MOL0     C67960   1.481  10.727   0.604 -0.0475 -0.5067 -0.3791
  493MOL0     C67961   1.447  10.771   0.494 -0.3218  0.0674  0.2849
  493MOL0     C67962   1.190  11.092   0.905  1.8210  1.1191  0.2483
  493MOL0     C67963   1.157  11.222   0.889 -0.2179 -0.7132  0.4241
  493MOL0     C67964   1.085  11.255   0.765  0.1658  0.5264 -0.7599
  493MOL0     H67965   1.007  11.766   1.038  1.6771  1.0774  0.1210
  493MOL0     H67966   0.983  11.977   0.931  1.0603  2.7255 -1.2091
  493MOL0     H67967   1.065  12.164   0.807  0.5984  1.0662 -0.3039
  493MOL0     H67968   0.904  12.139   0.745 -0.1488  1.1505  2.4902
  493MOL0     H67969   0.983  12.346   0.668 -2.7707  1.3242 -2.8245
  493MOL0     H67970   1.118  12.260   0.586 -0.0447 -1.2300 -0.4771
  493MOL0     H67971   0.950  12.140   0.459  2.2077  0.5028  0.3481
  493MOL0     H67972   0.816  12.242   0.524 -0.6603  2.5671 -0.9771
  493MOL0     H67973   0.913  12.446   0.443 -2.3768 -0.8933 -1.8957
  493MOL0     H67974   1.058  12.355   0.367  0.4396 -4.5378 -3.5137
  493MOL0     H67975   0.770  12.305   0.292  1.0411 -1.3182  0.5614
  493MOL0     H67976   0.917  12.281   0.201 -0.0197 -2.0811  1.4796
  493MOL0     H67977   0.785  12.498   0.129  0.8068  0.3672 -0.6316
  493MOL0     H67978   0.870  12.555   0.273  3.5794 -3.1164  3.6195
  493MOL0     H67979   1.087  12.500   0.192  1.5223 -0.1682 -2.2033
  493MOL0     H67980   1.012  12.603   0.082  0.4061  2.0448  4.1661
  493MOL0     H67981   1.073  12.319   0.036  3.1972  1.0143 -0.0995
  493MOL0     H67982   0.942  12.394  -0.060 -1.1174  0.0447  0.7522
  493MOL0     H67983   1.284  12.544   0.060  1.8370  1.6389 -0.3286
  493MOL0     H67984   1.511  12.587  -0.052 -0.5695 -0.6144 -0.5174
  493MOL0     H67985   1.477  12.747  -0.105  2.8364  0.3507  0.8801
  493MOL0     H67986   1.550  12.529  -0.302  0.7068 -2.2470  3.9569
  493MOL0     H67987   1.514  12.698  -0.336  2.2175  0.0940 -2.1013
  493MOL0     H67988   1.693  12.776  -0.209 -1.2928  0.6372 -0.8799
  493MOL0     H67989   1.712  12.630  -0.117 -5.7652 -0.1541  1.5949
  493MOL0     H67990   1.819  12.532  -0.333  0.3508  1.2149 -2.1012
  493MOL0     H67991   1.790  12.698  -0.408 -2.1949 -1.8090 -1.9232
  493MOL0     H67992   2.099  12.747  -0.127 -0.8414  2.1038 -0.7321
  493MOL0     H67993   2.320  12.798  -0.048 -0.1386 -0.2999 -0.0358
  493MOL0     H67994   2.444  12.806  -0.163  0.1199  1.2309  0.9743
  493MOL0     H67995   2.398  12.654  -0.075  1.0603  0.1176 -1.0862
  493MOL0     H67996   2.541  12.641  -0.797 -0.2775 -1.9410  1.3418
  493MOL0     H67997   2.781  12.675  -0.902 -3.3981 -1.0756 -1.4997
  493MOL0     H67998   3.071  12.711  -0.671  0.7342 -0.2200  0.1602
  493MOL0     H67999   3.183  12.600  -0.750  0.6335 -0.3456  0.7882
  493MOL0     H68000   3.121  12.683  -0.969 -0.8737  1.7495 -1.2758
  493MOL0     H68001   3.035  12.825  -0.908  1.2065  2.7587  3.3324
  493MOL0     H68002   3.217  12.920  -0.793  2.0191 -0.0294  0.9073
  493MOL0     H68003   3.246  12.899  -0.966  1.4036 -2.2572 -0.8796
  493MOL0     H68004   3.359  12.669  -0.915 -3.1688  0.6260 -0.0590
  493MOL0     H68005   3.360  12.731  -0.742 -0.2496  3.9870  1.2924
  493MOL0     H68006   3.511  12.877  -0.961  1.5195  0.9907  0.3916
  493MOL0     H68007   3.475  12.921  -0.793  1.6057  0.8148 -1.2938
  493MOL0     H68008   3.697  12.848  -0.866  0.1438 -0.9471 -0.0614
  493MOL0     H68009   3.630  12.679  -0.881 -4.5371 -0.7260  1.6436
  493MOL0     H68010   3.537  12.735  -0.639  1.2775 -1.8365  2.2628
  493MOL0     H68011   3.678  12.851  -0.640 -2.0742  0.6487  1.0276
  493MOL0     H68012   3.814  12.632  -0.709 -0.3266 -2.6117  0.3819
  493MOL0     H68013   3.663  12.545  -0.670  0.3642  0.5610  1.0095
  493MOL0     H68014   2.946  12.520  -0.540  1.1338  1.0984 -0.4500
  493MOL0     H68015   2.726  12.516  -0.425  2.1910  3.6840  1.7233
  493MOL0     H68016   2.241  12.568  -0.562 -0.3297 -1.7331  0.8187
  493MOL0     H68017   2.016  12.578  -0.508 -1.1814 -1.2676  1.0521
  493MOL0     H68018   1.112  11.803   0.556 -0.1816  1.4679  0.7309
  493MOL0     H68019   1.123  11.584   0.668 -0.2786 -0.2528  0.5744
  493MOL0     H68020   1.345  11.363   1.138  5.4706  0.8499 -3.1473
  493MOL0     H68021   1.373  11.132   1.190 -0.6951  1.7867  1.6450
  493MOL0     H68022   1.237  10.740   1.068  1.8706  0.0664  0.6233
  493MOL0     H68023   1.132  10.853   0.978  0.3217  0.8180  0.9300
  493MOL0     H68024   1.262  10.836   0.769 -0.6833 -1.5818 -1.4755
  493MOL0     H68025   1.253  10.669   0.817  0.0018  0.1076 -1.5527
  493MOL0     H68026   1.503  10.850   0.875  3.3273 -1.2366 -0.8857
  493MOL0     H68027   1.475  10.697   0.945 -1.9174 -2.7596 -0.6053
  493MOL0     H68028   1.473  10.569   0.734 -1.5751  0.1799 -2.2496
  493MOL0     H68029   1.613  10.667   0.763  0.1352  1.4548  0.0173
  493MOL0     H68030   1.437  10.824   0.401 -0.9747  0.6443  0.6824
  493MOL0     H68031   1.153  11.006   0.849  3.6828  1.2659 -1.3124
  493MOL0     H68032   1.144  11.267   0.674 -0.0860 -3.7626 -1.7168
  493MOL0     H68033   1.023  11.166   0.750  1.4066 -0.4681 -0.1819
  493MOL0     H68034   1.015  11.337   0.782  0.6648  0.7585  0.2484
  494MOL0     O68035   4.083   4.844   3.861 -0.2582  0.0891  0.4654
  494MOL0     C68036   4.057   4.961   3.855 -0.4802  0.0982  0.2683
  494MOL0     O68037   3.934   5.014   3.858  0.2170  0.5866 -0.2309
  494MOL0     C68038   3.829   4.927   3.835 -0.3537 -0.5691  0.2877
  494MOL0     C68039   3.730   4.938   3.934 -0.5228  0.5021  0.1825
  494MOL0     C68040   3.628   4.843   3.920  0.5141 -0.0555 -0.7980
  494MOL0     C68041   3.606   4.757   3.814 -0.1079  0.0767  0.2737
  494MOL0     O68042   3.483   4.699   3.806  0.6734  0.6237 -0.1887
  494MOL0     C68043   3.476   4.590   3.716  1.1462 -0.8004  0.2103
  494MOL0     C68044   3.379   4.474   3.743  0.9673  0.3083 -0.4311
  494MOL0     C68045   3.393   4.377   3.623  0.2828 -0.2360 -0.9497
  494MOL0     C68046   3.282   4.260   3.629 -0.3799 -0.7079 -0.4583
  494MOL0     C68047   3.332   4.158   3.730  0.9622  0.8526  0.0627
  494MOL0     C68048   3.261   4.022   3.720  0.2572 -0.0779  0.0415
  494MOL0     C68049   3.341   3.911   3.788 -0.1935  0.0935 -0.1351
  494MOL0     C68050   3.266   3.778   3.774 -0.5695  0.1266  0.0946
  494MOL0     N68051   3.156   3.773   3.869  0.1273  0.2608  0.2341
  494MOL0     C68052   3.143   3.662   3.948 -0.7189 -0.3455 -0.6603
  494MOL0     C68053   3.024   3.695   4.019  0.1623 -1.2879 -0.2422
  494MOL0     C68054   2.958   3.602   4.118 -0.5279 -0.1391 -0.1440
  494MOL0     C68055   2.877   3.477   4.048  0.1715  0.0693  0.1364
  494MOL0     C68056   2.763   3.525   3.958  0.6956 -0.3044 -0.3078
  494MOL0     C68057   2.651   3.421   3.945 -0.7986  0.7451 -0.3428
  494MOL0     O68058   2.716   3.322   3.863  0.4932  0.3783  0.8430
  494MOL0     C68059   2.659   3.199   3.844 -0.4322  0.5354  0.4125
  494MOL0     C68060   2.522   3.191   3.835  0.0805  0.0536  0.3297
  494MOL0     C68061   2.460   3.071   3.821 -0.3080  0.8608  0.0664
  494MOL0     C68062   2.311   3.065   3.806  0.9227  0.3208  0.6746
  494MOL0     C68063   2.534   2.947   3.814 -0.4468  0.7378 -0.0046
  494MOL0     C68064   2.472   2.808   3.807 -0.1738  0.7813 -0.2111
  494MOL0     O68065   2.353   2.779   3.871  0.0757 -0.2293 -0.6859
  494MOL0     C68066   2.296   2.656   3.846  1.8019  0.4710  1.3956
  494MOL0     C68067   2.359   2.546   3.881 -0.2337  0.2324 -0.3737
  494MOL0     C68068   2.322   2.414   3.843  0.7869 -0.3056 -0.4748
  494MOL0     C68069   2.193   2.401   3.783  0.2402 -0.4586  0.6200
  494MOL0     O68070   2.152   2.283   3.734 -0.1293 -0.6109 -0.7625
  494MOL0     C68071   2.162   2.179   3.838  0.5361  0.6364  0.6316
  494MOL0     C68072   2.078   2.057   3.812  0.5020  0.7921  1.2270
  494MOL0     C68073   2.102   1.936   3.919 -0.3468 -0.5037 -0.4324
  494MOL0     C68074   2.246   1.884   3.916  0.6464 -0.1933  0.0853
  494MOL0     C68075   2.268   1.796   4.035 -0.4036  0.4797  0.2763
  494MOL0     C68076   2.421   1.769   4.054 -0.9871 -0.5363  0.2620
  494MOL0     C68077   2.435   1.663   4.162  0.1176 -0.2689  0.3006
  494MOL0     C68078   2.578   1.651   4.206 -0.2527 -0.5581 -0.5408
  494MOL0    Cl68079   2.590   1.553   4.354 -0.1710 -0.2384 -0.0410
  494MOL0     C68080   2.108   2.517   3.767  0.5720 -0.5189 -0.4941
  494MOL0     C68081   2.161   2.648   3.788 -0.2049 -0.1852 -0.2337
  494MOL0     O68082   2.532   2.732   3.731 -0.3686  0.7935 -0.4048
  494MOL0     C68083   2.668   2.961   3.826  0.0902 -0.0054 -0.5021
  494MOL0     C68084   2.729   3.086   3.825 -0.0864  0.6780 -0.1736
  494MOL0     N68085   2.976   3.819   3.983  0.5899  0.1825  1.9772
  494MOL0     N68086   3.038   3.852   3.873 -0.1707 -0.2928 -0.2401
  494MOL0     C68087   3.691   4.774   3.703 -0.2778 -0.0213 -0.6711
  494MOL0     C68088   3.808   4.858   3.717  0.3586 -0.1043  0.3352
  494MOL0     C68089   4.173   5.059   3.834 -0.5063 -0.2791  0.1024
  494MOL0     C68090   4.293   5.034   3.899  0.3663 -0.2129  0.0925
  494MOL0     C68091   4.397   5.122   3.895 -0.3490  0.1401  0.3301
  494MOL0     C68092   4.390   5.240   3.820 -0.3462 -0.0310 -0.0909
  494MOL0     O68093   4.492   5.329   3.806 -0.2914 -0.7334  0.3252
  494MOL0     C68094   4.632   5.278   3.810 -0.0862 -0.3332  0.1123
  494MOL0     C68095   4.738   5.384   3.771  0.8040 -0.0821 -0.4878
  494MOL0     C68096   4.728   5.443   3.629 -1.0397  0.1923 -0.3692
  494MOL0     C68097   4.700   5.324   3.529  0.4372 -0.4942 -0.6136
  494MOL0     C68098   4.716   5.368   3.388 -0.8575 -0.1067 -0.4064
  494MOL0     C68099   4.736   5.421   3.280  0.4654  0.2228 -0.3612
  494MOL0     C68100   4.275   5.257   3.740 -0.6676  0.2782  0.0970
  494MOL0     C68101   4.163   5.166   3.748 -0.3335 -0.0804  0.9093
  494MOL0     C68102   4.050   5.188   3.654  0.4468  0.0366  0.8169
  494MOL0     H68103   3.737   5.001   4.021  2.3558 -0.0431  0.4153
  494MOL0     H68104   3.549   4.850   3.994  0.6832 -3.0265 -0.1957
  494MOL0     H68105   3.573   4.547   3.688  1.1269  0.4765 -2.0321
  494MOL0     H68106   3.450   4.635   3.620  1.5125 -0.0341  0.4587
  494MOL0     H68107   3.408   4.426   3.836 -1.0210  2.3179  1.3357
  494MOL0     H68108   3.276   4.508   3.759  0.5889 -1.6025  1.6512
  494MOL0     H68109   3.393   4.434   3.529  1.1416  1.0769 -0.1885
  494MOL0     H68110   3.492   4.332   3.639  0.0886 -0.6099 -0.7993
  494MOL0     H68111   3.187   4.309   3.652  0.5261  3.9484 -4.8568
  494MOL0     H68112   3.284   4.212   3.531  2.2348  0.5936 -1.1228
  494MOL0     H68113   3.314   4.193   3.832  1.0576 -2.6054  1.4231
  494MOL0     H68114   3.437   4.149   3.701  0.8221  0.3478 -0.3025
  494MOL0     H68115   3.164   4.033   3.768 -0.2509  1.2499 -1.2151
  494MOL0     H68116   3.233   3.996   3.617 -1.8151 -0.2194  0.6041
  494MOL0     H68117   3.369   3.947   3.887  4.7986  0.8213 -1.5496
  494MOL0     H68118   3.437   3.903   3.736  0.9390 -0.9651  1.9911
  494MOL0     H68119   3.228   3.761   3.672  0.7610  0.9384 -0.5649
  494MOL0     H68120   3.332   3.699   3.810 -1.5698  0.4773  2.8859
  494MOL0     H68121   3.206   3.574   3.940  3.0444  2.2808 -4.0184
  494MOL0     H68122   2.884   3.668   4.164 -0.8431  0.7144 -1.7855
  494MOL0     H68123   3.035   3.560   4.184  1.3947  3.0753 -0.1308
  494MOL0     H68124   2.948   3.414   3.994  1.2174 -0.6001  2.2051
  494MOL0     H68125   2.843   3.414   4.130  1.9358  0.2926  1.0910
  494MOL0     H68126   2.722   3.612   4.011  1.4835 -1.1341  1.7567
  494MOL0     H68127   2.793   3.559   3.859 -2.5458  1.1096 -0.9569
  494MOL0     H68128   2.615   3.373   4.036  1.0047  0.4564  0.2551
  494MOL0     H68129   2.572   3.461   3.882  0.1223  1.3641 -1.1436
  494MOL0     H68130   2.472   3.287   3.822  1.4467  0.7229 -0.1159
  494MOL0     H68131   2.277   3.166   3.780 -1.1236 -0.4223  0.2305
  494MOL0     H68132   2.273   3.033   3.904  0.1805  0.2101  0.3630
  494MOL0     H68133   2.286   2.993   3.727 -0.9062  0.3414  1.1751
  494MOL0     H68134   2.454   2.561   3.932 -1.0676  2.4144  0.6454
  494MOL0     H68135   2.402   2.343   3.858  2.0185  1.3288  1.1165
  494MOL0     H68136   2.269   2.154   3.843  0.7155 -0.0054 -3.3496
  494MOL0     H68137   2.115   2.214   3.930  0.1919  2.0497 -0.0533
  494MOL0     H68138   1.971   2.078   3.805  0.4416 -0.0392 -1.5806
  494MOL0     H68139   2.110   2.013   3.717 -3.1086  0.9621 -0.2216
  494MOL0     H68140   2.033   1.853   3.903 -2.0454  0.5110  1.2403
  494MOL0     H68141   2.087   1.959   4.025 -0.8967 -1.8576 -0.1957
  494MOL0     H68142   2.320   1.964   3.911  2.6828 -1.8482  1.6022
  494MOL0     H68143   2.267   1.831   3.822  1.5562  0.4532 -0.0839
  494MOL0     H68144   2.224   1.843   4.124 -2.3454  2.3140 -1.5063
  494MOL0     H68145   2.214   1.702   4.016  1.9600 -0.4535 -2.4724
  494MOL0     H68146   2.474   1.861   4.082  2.7481 -1.6234 -2.4152
  494MOL0     H68147   2.471   1.733   3.963  0.7777 -0.2201  1.0665
  494MOL0     H68148   2.406   1.567   4.118 -0.7426 -0.4851  1.3107
  494MOL0     H68149   2.359   1.685   4.238 -1.7056  0.4663 -1.6543
  494MOL0     H68150   2.604   1.753   4.238 -1.4523  0.0729 -1.4671
  494MOL0     H68151   2.648   1.615   4.130  0.8320 -3.5409  1.7159
  494MOL0     H68152   2.004   2.507   3.739 -0.4072 -0.0767  2.5178
  494MOL0     H68153   2.102   2.735   3.761 -0.0337  0.2520  0.7524
  494MOL0     H68154   2.734   2.879   3.803  0.1792 -0.0915  0.0656
  494MOL0     H68155   2.837   3.085   3.816  0.0277 -0.2907  1.0608
  494MOL0     H68156   3.681   4.724   3.607  0.2203 -0.2477 -0.6069
  494MOL0     H68157   3.858   4.871   3.622 -2.4169 -0.7135 -1.3179
  494MOL0     H68158   4.301   4.942   3.956  0.4770  0.5729  1.3895
  494MOL0     H68159   4.483   5.089   3.951 -0.5620  0.2798  0.7407
  494MOL0     H68160   4.650   5.251   3.915 -1.4582  1.1186  0.7765
  494MOL0     H68161   4.650   5.196   3.741  3.0977  1.9350 -1.9997
  494MOL0     H68162   4.832   5.328   3.782 -0.3226 -1.7156  1.6514
  494MOL0     H68163   4.730   5.464   3.845  1.0291 -1.0971  0.6742
  494MOL0     H68164   4.640   5.507   3.625 -0.9182  0.6188  2.3318
  494MOL0     H68165   4.813   5.506   3.598 -0.7190  1.0884  2.1440
  494MOL0     H68166   4.593   5.302   3.542  0.6503 -0.8109  0.7273
  494MOL0     H68167   4.749   5.230   3.552  1.6917  0.0104 -1.1375
  494MOL0     H68168   4.753   5.472   3.188  0.2656 -2.7769 -2.1815
  494MOL0     H68169   4.258   5.352   3.690  1.2726  0.5879 -0.0744
  494MOL0     H68170   4.067   5.239   3.559 -1.5363 -2.0689 -0.8072
  494MOL0     H68171   4.007   5.092   3.622 -0.7839 -0.6228  4.0543
  494MOL0     H68172   3.973   5.253   3.697 -1.8732  0.1701 -3.0187
  495MOL0     O68173   8.167  10.169   5.798  0.3806 -0.7899 -0.2162
  495MOL0     C68174   8.104  10.262   5.859 -0.5761  0.1854  0.5634
  495MOL0     O68175   8.010  10.240   5.953  0.5547  0.2644  0.5019
  495MOL0     C68176   7.966  10.110   5.980 -0.3803 -0.0992  0.1170
  495MOL0     C68177   7.844  10.062   5.923  0.1105 -0.7404  0.6548
  495MOL0     C68178   7.796   9.938   5.956 -0.1101  0.2319 -0.6864
  495MOL0     C68179   7.870   9.867   6.051 -0.4964  0.7859  0.5901
  495MOL0     O68180   7.813   9.745   6.080  0.7466  0.8524 -0.1394
  495MOL0     C68181   7.887   9.657   6.168  0.2920 -0.2669 -0.0652
  495MOL0     C68182   7.993   9.599   6.077  0.1829 -0.3564  0.0412
  495MOL0     C68183   8.035   9.452   6.114 -0.5113  0.0962 -0.4243
  495MOL0     C68184   8.152   9.392   6.030 -0.9967  0.2783  0.6079
  495MOL0     C68185   8.184   9.244   6.052 -0.1276 -0.3770 -0.3987
  495MOL0     C68186   8.299   9.185   5.982 -0.1547 -0.8958 -0.1911
  495MOL0     C68187   8.324   9.042   6.032 -0.5981  0.2226  0.0098
  495MOL0     C68188   8.213   8.938   6.010  0.8892 -0.0594 -0.5498
  495MOL0     N68189   8.104   8.961   6.108 -0.1086 -0.0261 -0.2151
  495MOL0     C68190   8.113   8.985   6.245  0.0652 -0.7321 -0.5695
  495MOL0     C68191   7.987   8.996   6.288  0.1135 -0.8279  0.0491
  495MOL0     C68192   7.953   9.007   6.433 -1.3277  0.9954 -0.0472
  495MOL0     C68193   7.874   8.878   6.479  0.0874  0.1660 -0.9287
  495MOL0     C68194   7.966   8.760   6.507  0.5535 -0.2092 -0.2363
  495MOL0     C68195   7.900   8.644   6.572  0.7654 -0.0969 -0.8836
  495MOL0     O68196   7.786   8.594   6.508 -0.3470  0.2741  0.3256
  495MOL0     C68197   7.686   8.527   6.571 -0.2759  0.0141 -0.1668
  495MOL0     C68198   7.582   8.478   6.497 -0.4012  1.0646 -0.0566
  495MOL0     C68199   7.470   8.406   6.555 -0.9479 -0.1974 -0.9431
  495MOL0     C68200   7.363   8.357   6.461  0.2450  0.5891 -0.0626
  495MOL0     C68201   7.470   8.393   6.699 -0.3065 -0.3223  0.3738
  495MOL0     C68202   7.359   8.331   6.779 -0.6008  0.5686 -0.0783
  495MOL0     O68203   7.392   8.318   6.919  0.5808  0.5936  0.3327
  495MOL0     C68204   7.291   8.279   7.001 -0.5556  0.8784  1.1035
  495MOL0     C68205   7.180   8.349   7.014  0.2572  0.0922  0.5758
  495MOL0     C68206   7.088   8.297   7.108 -0.8848  0.0442 -1.0695
  495MOL0     C68207   7.113   8.180   7.186 -0.0168 -0.0148  1.2032
  495MOL0     O68208   7.012   8.131   7.260 -0.1065  0.6948 -0.7135
  495MOL0     C68209   7.030   8.102   7.393  0.1565  0.2433 -0.3505
  495MOL0     C68210   6.910   8.157   7.471 -0.2982  0.9017 -0.1995
  495MOL0     C68211   6.895   8.308   7.454  0.7012 -0.6930 -0.3715
  495MOL0     C68212   7.003   8.374   7.540 -0.8999  0.5026  0.5542
  495MOL0     C68213   7.113   8.429   7.447 -0.0144 -1.0605  0.2052
  495MOL0     C68214   7.228   8.488   7.538  0.0155  0.1997 -0.5591
  495MOL0     C68215   7.357   8.496   7.469 -0.2604  0.3222  0.3244
  495MOL0     C68216   7.450   8.610   7.501  0.1572  0.3746  0.6142
  495MOL0    Cl68217   7.580   8.599   7.370 -0.0388 -0.2871 -0.3041
  495MOL0     C68218   7.238   8.119   7.187 -0.0762  0.7996 -0.3434
  495MOL0     C68219   7.321   8.172   7.082 -0.8286 -1.2494  0.4383
  495MOL0     O68220   7.255   8.285   6.724  0.0702  0.0679  0.2216
  495MOL0     C68221   7.582   8.445   6.767 -0.6127  0.2736  0.0234
  495MOL0     C68222   7.690   8.507   6.707 -0.1939 -0.1467 -0.1798
  495MOL0     N68223   7.890   8.984   6.190 -0.8275  1.3474 -0.3269
  495MOL0     N68224   7.970   8.963   6.081 -0.1713 -0.1303 -0.0340
  495MOL0     C68225   7.990   9.915   6.118  0.5811 -0.2878  0.4606
  495MOL0     C68226   8.040  10.033   6.075 -0.7257  0.3473  0.4982
  495MOL0     C68227   8.147  10.404   5.845  0.4613 -0.3584 -0.0964
  495MOL0     C68228   8.114  10.489   5.953  0.4301 -0.5718  0.3509
  495MOL0     C68229   8.150  10.624   5.944  0.5009  0.6504 -0.5224
  495MOL0     C68230   8.225  10.671   5.839  0.6087 -0.6252 -1.1163
  495MOL0     O68231   8.283  10.797   5.835  0.0694 -0.3698 -0.2469
  495MOL0     C68232   8.245  10.896   5.931 -0.2555 -0.0240 -0.3203
  495MOL0     C68233   8.315  11.028   5.897 -0.0686  0.7720 -0.6540
  495MOL0     C68234   8.469  11.016   5.889 -0.1289 -0.7857  0.7765
  495MOL0     C68235   8.540  11.158   5.899  0.4205  1.7127 -0.2699
  495MOL0     C68236   8.482  11.251   5.792  0.0835 -0.1135 -0.4915
  495MOL0     C68237   8.448  11.338   5.708  0.3355  0.4554 -0.2242
  495MOL0     C68238   8.241  10.593   5.730  0.7009  0.4735 -0.4701
  495MOL0     C68239   8.216  10.457   5.732  0.1282 -0.4227 -0.2249
  495MOL0     C68240   8.270  10.365   5.623  0.0370 -1.3201  0.9855
  495MOL0     H68241   7.796  10.128   5.852 -2.6120 -1.5234  1.6205
  495MOL0     H68242   7.705   9.901   5.909  1.2330 -3.2980 -0.7999
  495MOL0     H68243   7.830   9.570   6.204 -1.9125  1.4960  0.9161
  495MOL0     H68244   7.921   9.706   6.259  1.5055 -1.1020 -0.0357
  495MOL0     H68245   7.956   9.601   5.974  0.9347 -0.6134 -0.2456
  495MOL0     H68246   8.082   9.662   6.072  0.2110 -0.4435 -0.7197
  495MOL0     H68247   8.060   9.458   6.221  2.7556  2.6425 -1.1688
  495MOL0     H68248   7.958   9.375   6.101  0.0977 -0.7116  0.6204
  495MOL0     H68249   8.121   9.418   5.928  0.4439 -1.0465 -0.2043
  495MOL0     H68250   8.244   9.448   6.050  1.5464 -4.3257  3.5366
  495MOL0     H68251   8.102   9.183   6.014  1.6491 -1.8216 -2.0902
  495MOL0     H68252   8.211   9.233   6.158  0.6739  1.7142 -0.3290
  495MOL0     H68253   8.270   9.175   5.877 -3.2721 -0.1374  0.5039
  495MOL0     H68254   8.390   9.239   6.008 -2.5092  2.3239  2.1519
  495MOL0     H68255   8.344   9.047   6.139 -3.4427  0.2330  0.6293
  495MOL0     H68256   8.416   9.007   5.983 -0.4130  1.5921 -0.6681
  495MOL0     H68257   8.176   8.949   5.908  0.3581 -2.6464 -0.7054
  495MOL0     H68258   8.251   8.837   6.029 -1.9824 -1.2489 -0.5486
  495MOL0     H68259   8.206   8.985   6.302  0.3860 -2.5511 -1.0163
  495MOL0     H68260   7.883   9.091   6.434 -1.6173  0.7670 -0.2987
  495MOL0     H68261   8.043   9.025   6.491 -0.8621  0.3234 -0.5517
  495MOL0     H68262   7.816   8.907   6.567 -1.9090  1.0266 -2.4464
  495MOL0     H68263   7.792   8.849   6.413  1.5643 -1.6639 -2.0739
  495MOL0     H68264   8.012   8.730   6.412 -0.0014 -1.5319 -0.1183
  495MOL0     H68265   8.049   8.787   6.573 -0.1811 -2.9346  2.0316
  495MOL0     H68266   7.974   8.564   6.583 -1.6226 -2.2760  0.3395
  495MOL0     H68267   7.865   8.674   6.671  0.8960  3.0746 -1.6803
  495MOL0     H68268   7.588   8.491   6.389 -1.3188  1.7123 -0.0466
  495MOL0     H68269   7.279   8.426   6.448  0.0373 -0.0446 -2.5280
  495MOL0     H68270   7.318   8.266   6.502  1.4782  0.1738  0.4094
  495MOL0     H68271   7.409   8.334   6.364  1.2198  1.0373  0.2785
  495MOL0     H68272   7.166   8.441   6.959 -0.4856  0.1433  0.8431
  495MOL0     H68273   6.995   8.349   7.130 -2.2856 -2.5672 -0.3299
  495MOL0     H68274   7.026   7.993   7.405  1.8288  0.2996  1.3143
  495MOL0     H68275   7.129   8.128   7.432  0.2631  0.8121 -0.9868
  495MOL0     H68276   6.813   8.117   7.443  0.6673 -2.0365  0.3675
  495MOL0     H68277   6.922   8.121   7.573 -4.4924  1.7718  0.7728
  495MOL0     H68278   6.794   8.326   7.492  0.5864 -0.8241 -0.6156
  495MOL0     H68279   6.892   8.343   7.351 -0.3301  0.4533  0.0202
  495MOL0     H68280   7.045   8.297   7.605 -1.9597 -1.4268 -0.9497
  495MOL0     H68281   6.962   8.461   7.594  2.5106  3.3540 -1.0154
  495MOL0     H68282   7.146   8.343   7.387 -0.8535 -2.7526  2.0512
  495MOL0     H68283   7.066   8.505   7.384 -1.5570 -1.1459  1.2238
  495MOL0     H68284   7.232   8.438   7.635  0.3792  0.0352 -0.6568
  495MOL0     H68285   7.202   8.589   7.569  0.4898  0.2414 -0.2868
  495MOL0     H68286   7.351   8.498   7.360 -0.3054  0.1030  0.3235
  495MOL0     H68287   7.392   8.397   7.499 -0.9809  0.3478  1.2934
  495MOL0     H68288   7.496   8.598   7.600 -0.3139 -0.7486  0.7174
  495MOL0     H68289   7.385   8.698   7.498  0.0736  0.3209  0.8434
  495MOL0     H68290   7.275   8.041   7.252 -0.3238  0.4327 -0.6404
  495MOL0     H68291   7.417   8.123   7.063 -0.1526  0.7296 -1.6763
  495MOL0     H68292   7.578   8.431   6.875  0.7731 -0.3977  0.0124
  495MOL0     H68293   7.773   8.526   6.775  2.7561 -0.6748 -3.3417
  495MOL0     H68294   8.040   9.850   6.188 -0.0046 -0.1686  0.9996
  495MOL0     H68295   8.139  10.076   6.088 -1.7517  2.6338  1.4888
  495MOL0     H68296   8.045  10.456   6.031 -0.0939  0.7879  0.5006
  495MOL0     H68297   8.124  10.695   6.022  0.9125  0.3772 -0.1356
  495MOL0     H68298   8.137  10.915   5.932 -0.4329 -0.9918 -0.3550
  495MOL0     H68299   8.280  10.862   6.029 -2.2217  1.5509  1.0340
  495MOL0     H68300   8.301  11.101   5.977 -1.8050  1.8942 -1.8987
  495MOL0     H68301   8.272  11.075   5.808  1.5955  0.3723 -1.7162
  495MOL0     H68302   8.507  10.953   5.970  0.0480 -0.9301  0.5835
  495MOL0     H68303   8.495  10.963   5.796  2.0556 -0.8122  1.3523
  495MOL0     H68304   8.648  11.142   5.887  0.2104 -0.5216  0.3275
  495MOL0     H68305   8.513  11.199   5.996  1.3351 -2.0652  1.7673
  495MOL0     H68306   8.397  11.401   5.637 -0.6203  0.6051  0.5682
  495MOL0     H68307   8.308  10.638   5.657  1.1549  1.4691  0.5369
  495MOL0     H68308   8.344  10.419   5.565 -0.7359 -1.1201  0.1632
  495MOL0     H68309   8.341  10.285   5.648  2.1055 -0.1189 -0.7026
  495MOL0     H68310   8.184  10.332   5.563  0.2813  0.4867 -0.4289
  496MOL0     O68311   8.982  11.120   4.352 -0.1851 -0.4258  0.2783
  496MOL0     C68312   8.862  11.101   4.381 -0.3358 -0.3982 -1.0644
  496MOL0     O68313   8.757  11.089   4.289 -0.5154  0.8546 -0.3608
  496MOL0     C68314   8.783  11.107   4.154 -0.1317  0.2176  0.1216
  496MOL0     C68315   8.739  11.012   4.064 -0.8235  0.1890 -0.4171
  496MOL0     C68316   8.752  11.023   3.922  0.6799  0.7953 -0.8286
  496MOL0     C68317   8.803  11.146   3.873  0.1343  1.1723  0.0892
  496MOL0     O68318   8.818  11.153   3.733 -0.5261  0.4048 -0.1703
  496MOL0     C68319   8.921  11.235   3.687  0.3703 -0.3225 -0.9788
  496MOL0     C68320   9.054  11.154   3.720 -0.0500  0.8936  1.2412
  496MOL0     C68321   9.058  11.024   3.639 -0.3719 -0.3642 -0.0069
  496MOL0     C68322   9.166  10.936   3.702  0.1994 -1.0701  0.3265
  496MOL0     C68323   9.203  10.814   3.618  0.8379  0.7091 -0.9074
  496MOL0     C68324   9.287  10.850   3.496 -1.0233 -0.2846  0.2700
  496MOL0     C68325   9.350  10.733   3.430  1.0560  0.2263  0.6656
  496MOL0     C68326   9.341  10.751   3.269 -0.5107  0.1792  0.3581
  496MOL0     N68327   9.203  10.740   3.209 -0.1101 -0.5768 -0.4919
  496MOL0     C68328   9.131  10.824   3.138 -0.0078 -0.2969 -0.0406
  496MOL0     C68329   9.021  10.762   3.101 -0.2918 -0.8766  0.3140
  496MOL0     C68330   8.911  10.822   3.027 -0.3678 -0.4777  0.2604
  496MOL0     C68331   8.938  10.808   2.874 -0.6655 -0.6484 -0.6901
  496MOL0     C68332   8.857  10.704   2.808  0.0892 -0.7761 -1.0350
  496MOL0     C68333   8.709  10.739   2.789 -0.1478 -0.1896 -0.5351
  496MOL0     O68334   8.636  10.736   2.914 -0.0993 -0.7270 -0.1216
  496MOL0     C68335   8.501  10.733   2.907  0.9320  0.5984  0.2117
  496MOL0     C68336   8.439  10.695   3.022  0.0724 -0.2681 -0.1573
  496MOL0     C68337   8.305  10.677   3.037  0.7949  0.0617 -0.1466
  496MOL0     C68338   8.274  10.636   3.180 -0.2527  0.1594 -0.0333
  496MOL0     C68339   8.221  10.707   2.923 -0.1873  0.1354  0.3193
  496MOL0     C68340   8.072  10.685   2.916 -0.4079  0.4660 -0.0551
  496MOL0     O68341   8.018  10.654   2.791  0.7813 -0.7455  0.5034
  496MOL0     C68342   7.883  10.633   2.764 -0.9604  0.6001  1.2217
  496MOL0     C68343   7.777  10.677   2.845 -0.0716  0.6029  0.0512
  496MOL0     C68344   7.637  10.663   2.804  0.0454 -0.2104 -0.6335
  496MOL0     C68345   7.612  10.593   2.690  0.6128  0.4953  0.9771
  496MOL0     O68346   7.478  10.577   2.657 -0.6458  0.4989 -0.4914
  496MOL0     C68347   7.430  10.666   2.557  0.0347  0.2145  0.5978
  496MOL0     C68348   7.277  10.665   2.552  0.6723  0.1975 -0.1559
  496MOL0     C68349   7.220  10.519   2.527 -1.5146 -0.7409 -0.4616
  496MOL0     C68350   7.084  10.518   2.452 -0.8118  0.0656 -0.3794
  496MOL0     C68351   6.970  10.588   2.528  0.1150 -0.6287  0.0879
  496MOL0     C68352   6.839  10.578   2.446  0.1516 -0.1522  0.8647
  496MOL0     C68353   6.753  10.456   2.486  0.1845  1.1133 -0.6547
  496MOL0     C68354   6.621  10.434   2.402 -0.0944 -0.7835  0.3199
  496MOL0    Cl68355   6.670  10.390   2.236 -0.2037 -0.0178  0.0198
  496MOL0     C68356   7.718  10.558   2.602  0.6096 -0.2079  0.0084
  496MOL0     C68357   7.850  10.574   2.642 -0.2529 -0.5488  0.2219
  496MOL0     O68358   8.008  10.681   3.017  0.6495  0.6497 -0.9169
  496MOL0     C68359   8.283  10.746   2.798 -0.0578 -0.6477 -0.7073
  496MOL0     C68360   8.421  10.760   2.797  0.3182 -0.8109  0.9205
  496MOL0     N68361   9.025  10.641   3.164 -0.5910  0.1197  0.1324
  496MOL0     N68362   9.136  10.629   3.225  0.0842  0.6561  0.0113
  496MOL0     C68363   8.847  11.242   3.968 -0.5279 -0.0800 -0.1991
  496MOL0     C68364   8.840  11.228   4.109 -0.2568 -0.2084  0.4799
  496MOL0     C68365   8.827  11.094   4.522  0.3885  0.5283  0.6452
  496MOL0     C68366   8.731  10.995   4.561  0.4126 -0.0400  0.4293
  496MOL0     C68367   8.685  10.986   4.693  0.5634 -0.2032  0.2076
  496MOL0     C68368   8.723  11.073   4.788 -0.7106 -0.5219 -0.1453
  496MOL0     O68369   8.658  11.068   4.905 -0.1643 -0.5798  0.2648
  496MOL0     C68370   8.663  10.942   4.967  0.7284  0.4895 -0.6986
  496MOL0     C68371   8.591  10.948   5.100 -0.2831 -0.1632 -0.4167
  496MOL0     C68372   8.631  10.832   5.185 -0.3218 -0.7386  0.3904
  496MOL0     C68373   8.699  10.877   5.314 -0.0521 -0.5846 -0.1014
  496MOL0     C68374   8.598  10.922   5.408  0.4865 -0.3063 -1.1131
  496MOL0     C68375   8.515  10.979   5.483  0.0493 -0.0275 -0.0191
  496MOL0     C68376   8.815  11.167   4.755 -1.4235 -1.0701  1.0453
  496MOL0     C68377   8.867  11.182   4.621  0.3066 -0.4872 -0.7743
  496MOL0     C68378   8.960  11.300   4.599  0.0122 -0.0348  0.3422
  496MOL0     H68379   8.685  10.922   4.092 -0.3925  0.6336  2.0671
  496MOL0     H68380   8.715  10.946   3.856  3.1446 -1.9567  0.7394
  496MOL0     H68381   8.914  11.327   3.746 -3.2791 -0.6133 -0.7686
  496MOL0     H68382   8.908  11.257   3.581 -0.6662 -0.0020 -0.7983
  496MOL0     H68383   9.141  11.213   3.689 -0.5325 -0.4505 -3.4105
  496MOL0     H68384   9.058  11.130   3.826 -1.4497  1.2006  1.3823
  496MOL0     H68385   8.962  10.972   3.628 -1.8566  2.2412 -0.5240
  496MOL0     H68386   9.081  11.062   3.538 -3.7078  1.7088 -0.1676
  496MOL0     H68387   9.254  10.996   3.723  0.3368 -2.1170  3.1066
  496MOL0     H68388   9.139  10.891   3.798 -0.1802 -2.0227 -0.2061
  496MOL0     H68389   9.112  10.766   3.579  0.7671  0.0057  0.0879
  496MOL0     H68390   9.257  10.749   3.687  2.5989  1.8656 -1.1443
  496MOL0     H68391   9.223  10.895   3.420 -0.1100 -2.4139 -1.9069
  496MOL0     H68392   9.370  10.911   3.531  1.1368 -2.9916  0.2498
  496MOL0     H68393   9.286  10.647   3.453 -0.5984  0.2758 -3.0367
  496MOL0     H68394   9.452  10.723   3.467  0.9040  1.9632  1.6408
  496MOL0     H68395   9.395  10.843   3.243  1.9769 -1.0551  0.8462
  496MOL0     H68396   9.403  10.670   3.229  0.3897  0.9158  0.2063
  496MOL0     H68397   9.161  10.925   3.113 -0.7550  0.1140  0.6960
  496MOL0     H68398   8.892  10.928   3.045 -0.5602  0.1388 -2.9921
  496MOL0     H68399   8.816  10.777   3.055 -2.5370  3.2090 -0.5116
  496MOL0     H68400   8.922  10.907   2.831 -0.8558  0.0953  0.9807
  496MOL0     H68401   9.043  10.781   2.862 -0.0305  0.7947  1.1309
  496MOL0     H68402   8.895  10.687   2.707 -2.3036 -0.4638 -2.0702
  496MOL0     H68403   8.866  10.604   2.852 -4.6676 -1.8029 -1.7965
  496MOL0     H68404   8.702  10.838   2.742  2.4782 -0.1359 -0.9561
  496MOL0     H68405   8.660  10.662   2.730 -0.1549 -0.8677  0.3242
  496MOL0     H68406   8.513  10.665   3.094 -0.7170 -0.1732  0.7104
  496MOL0     H68407   8.268  10.734   3.229 -0.1984  1.4164 -2.3930
  496MOL0     H68408   8.350  10.570   3.223  0.0923 -1.6331 -3.0965
  496MOL0     H68409   8.177  10.592   3.205  0.5173 -0.3118  2.4594
  496MOL0     H68410   7.803  10.739   2.930  0.7796  1.9547 -1.1425
  496MOL0     H68411   7.556  10.716   2.853  1.5452  2.6783 -1.0783
  496MOL0     H68412   7.459  10.771   2.571 -0.6473  0.4211  0.5258
  496MOL0     H68413   7.465  10.630   2.460 -1.9004 -2.5690  0.8229
  496MOL0     H68414   7.247  10.704   2.650  0.8463 -1.0388  0.4089
  496MOL0     H68415   7.234  10.732   2.478  1.6549 -0.6209 -1.5298
  496MOL0     H68416   7.214  10.468   2.624 -1.4875  1.9990  1.0672
  496MOL0     H68417   7.277  10.469   2.448 -1.0836  0.5485 -0.9861
  496MOL0     H68418   7.050  10.415   2.443  2.7455 -1.6231  2.9942
  496MOL0     H68419   7.103  10.555   2.350 -2.1625 -1.2421 -1.1515
  496MOL0     H68420   6.956  10.545   2.627 -1.0805 -1.9397 -0.6024
  496MOL0     H68421   6.994  10.695   2.532  1.2793 -0.8468 -0.5737
  496MOL0     H68422   6.856  10.558   2.340 -0.9975 -2.3533  1.0356
  496MOL0     H68423   6.774  10.664   2.465  1.2539  0.2367  3.2457
  496MOL0     H68424   6.728  10.472   2.591 -0.2098  1.8015 -0.8494
  496MOL0     H68425   6.821  10.370   2.489 -1.4755 -0.4041  4.9364
  496MOL0     H68426   6.564  10.526   2.419 -0.7541 -0.9053 -1.0683
  496MOL0     H68427   6.567  10.347   2.439 -0.5207 -1.2437 -1.2831
  496MOL0     H68428   7.694  10.515   2.505  0.5046 -0.6055  0.2109
  496MOL0     H68429   7.928  10.547   2.572 -1.1695 -1.8133 -0.3592
  496MOL0     H68430   8.220  10.758   2.710  1.4129 -0.1098 -1.7332
  496MOL0     H68431   8.466  10.793   2.703 -0.9119 -1.7316 -0.0260
  496MOL0     H68432   8.897  11.336   3.949 -0.1806 -0.7402 -2.8742
  496MOL0     H68433   8.874  11.294   4.188  0.6886 -2.2828  1.8918
  496MOL0     H68434   8.699  10.924   4.485  1.6391  2.7222 -2.9149
  496MOL0     H68435   8.598  10.922   4.699  0.0304  0.3157 -1.6086
  496MOL0     H68436   8.642  10.854   4.906  3.2388 -0.0260 -0.9376
  496MOL0     H68437   8.768  10.918   4.989  0.5449 -0.5173 -0.8897
  496MOL0     H68438   8.485  10.935   5.078 -0.5161 -2.6001  1.6840
  496MOL0     H68439   8.615  11.046   5.142 -0.6773  0.1256 -0.8494
  496MOL0     H68440   8.538  10.782   5.213 -0.9356  0.6578  0.9475
  496MOL0     H68441   8.689  10.754   5.136  0.7028 -1.0181  1.9518
  496MOL0     H68442   8.759  10.965   5.288  1.0451 -2.5016 -5.5155
  496MOL0     H68443   8.761  10.798   5.356  0.6431 -0.7826 -1.4296
  496MOL0     H68444   8.463  11.014   5.569  1.6000  0.8966  0.5943
  496MOL0     H68445   8.858  11.231   4.831  0.0396 -2.1557  1.1889
  496MOL0     H68446   8.958  11.365   4.687 -2.1477  5.0322 -2.9509
  496MOL0     H68447   9.062  11.268   4.576  0.0821  0.0633  0.5168
  496MOL0     H68448   8.921  11.363   4.518  1.4181 -0.4907 -0.7229
  497MOL0     O68449   8.896   8.025   3.326 -0.1827 -0.7133 -0.1909
  497MOL0     C68450   8.920   8.073   3.441  0.3862  1.1382 -0.3427
  497MOL0     O68451   8.837   8.167   3.496 -0.3272  0.0126  0.2925
  497MOL0     C68452   8.755   8.235   3.422 -0.2043 -0.2721  0.7955
  497MOL0     C68453   8.663   8.177   3.332  0.2417 -0.3056  0.1420
  497MOL0     C68454   8.596   8.257   3.242 -0.2524 -0.2052  0.8083
  497MOL0     C68455   8.628   8.391   3.235  0.0027 -0.0582  0.2638
  497MOL0     O68456   8.556   8.474   3.153 -0.2353 -0.3344 -0.5269
  497MOL0     C68457   8.558   8.455   3.016 -0.0617 -0.6333 -0.6751
  497MOL0     C68458   8.696   8.510   2.980  0.1592  0.0113  0.2997
  497MOL0     C68459   8.732   8.510   2.829  0.9564 -0.3572 -0.1728
  497MOL0     C68460   8.656   8.635   2.773  0.7342 -1.2892  0.0534
  497MOL0     C68461   8.638   8.619   2.619  0.7352  0.2741  1.0402
  497MOL0     C68462   8.581   8.750   2.553 -0.2635 -0.3240  0.8265
  497MOL0     C68463   8.544   8.724   2.404  0.1872  0.5569  0.5212
  497MOL0     C68464   8.500   8.855   2.333 -0.1214 -0.7112  0.5309
  497MOL0     N68465   8.622   8.931   2.326 -0.3125 -1.2322  0.0262
  497MOL0     C68466   8.726   8.914   2.249  1.0348  0.3053  0.8609
  497MOL0     C68467   8.817   9.012   2.273 -0.1128 -0.0976 -0.2529
  497MOL0     C68468   8.943   9.031   2.198  0.1475 -0.1378  0.3222
  497MOL0     C68469   8.981   9.175   2.159 -0.0028 -0.6752  0.7814
  497MOL0     C68470   8.879   9.223   2.048  0.2413  0.8966  0.0103
  497MOL0     C68471   8.928   9.361   1.998  0.1172 -0.0277 -0.0729
  497MOL0     O68472   9.002   9.340   1.879  0.2482 -0.2685 -0.2546
  497MOL0     C68473   9.117   9.407   1.837  0.4631 -0.2412 -0.5342
  497MOL0     C68474   9.142   9.529   1.894  0.9888 -0.4261 -0.5630
  497MOL0     C68475   9.252   9.612   1.850 -0.1387 -0.0046  0.7760
  497MOL0     C68476   9.270   9.748   1.918  0.5752  0.3506  0.2062
  497MOL0     C68477   9.336   9.558   1.738 -0.4476  1.1351  0.0417
  497MOL0     C68478   9.456   9.625   1.689  1.3428  0.1998  0.9790
  497MOL0     O68479   9.532   9.560   1.597 -1.0772 -0.1227  0.7970
  497MOL0     C68480   9.621   9.642   1.532 -0.1884  0.6165 -0.0881
  497MOL0     C68481   9.577   9.708   1.416 -0.5512 -0.6631 -0.5014
  497MOL0     C68482   9.669   9.781   1.335 -0.8003 -0.1900  0.2559
  497MOL0     C68483   9.804   9.793   1.383 -0.0734 -0.6478  0.5137
  497MOL0     O68484   9.898   9.880   1.324  0.4749  0.7413 -0.9025
  497MOL0     C68485   9.851   9.979   1.227 -0.0636 -0.2015 -0.3396
  497MOL0     C68486   9.976  10.053   1.190  0.5410 -0.2263 -0.0199
  497MOL0     C68487   9.961  10.194   1.128 -0.3228 -0.7693  0.2992
  497MOL0     C68488  10.072  10.285   1.180 -0.3469 -0.6564 -0.0453
  497MOL0     C68489  10.060  10.431   1.132 -0.5688 -0.3488  0.6222
  497MOL0     C68490  10.114  10.444   0.987  0.5707  0.2263  0.4658
  497MOL0     C68491  10.140  10.589   0.937 -0.1442  0.0434  0.3636
  497MOL0     C68492  10.006  10.668   0.928  0.2286  0.4876  0.7064
  497MOL0    Cl68493   9.951  10.737   1.086  0.3232 -0.2457 -0.0368
  497MOL0     C68494   9.844   9.743   1.508 -0.0276  0.3882  0.9860
  497MOL0     C68495   9.751   9.658   1.574 -0.7001  0.1591 -0.2539
  497MOL0     O68496   9.484   9.733   1.741 -0.2801 -0.4845  0.7454
  497MOL0     C68497   9.292   9.433   1.671 -0.0844 -0.6739  0.5322
  497MOL0     C68498   9.187   9.361   1.723 -0.5028 -0.0026 -0.5342
  497MOL0     N68499   8.765   9.091   2.373 -0.3901  0.1488  1.1204
  497MOL0     N68500   8.645   9.059   2.392 -0.1481  0.5719 -0.4091
  497MOL0     C68501   8.720   8.443   3.318 -1.0336  0.2250 -0.5661
  497MOL0     C68502   8.793   8.363   3.406 -0.1051  0.5485 -0.4902
  497MOL0     C68503   9.025   8.014   3.526 -0.4110 -0.2558  0.2274
  497MOL0     C68504   9.081   7.897   3.472  0.6851  0.1023 -0.3731
  497MOL0     C68505   9.181   7.828   3.554 -0.3309 -0.6059  0.5509
  497MOL0     C68506   9.241   7.883   3.667  0.6341 -0.4692 -0.4154
  497MOL0     O68507   9.330   7.806   3.733  0.6246  0.4757 -0.1294
  497MOL0     C68508   9.355   7.823   3.874 -0.8033  0.0022  0.0295
  497MOL0     C68509   9.445   7.710   3.928 -0.1267  0.7257  0.3724
  497MOL0     C68510   9.394   7.660   4.063  0.4957  0.0483 -0.2999
  497MOL0     C68511   9.474   7.553   4.133  1.1928  0.0826 -0.6536
  497MOL0     C68512   9.595   7.610   4.190  0.2095  0.2694 -0.3388
  497MOL0     C68513   9.693   7.662   4.238 -0.0681 -1.7227  0.3306
  497MOL0     C68514   9.193   8.011   3.705 -0.1450  0.3645 -1.2462
  497MOL0     C68515   9.085   8.073   3.638  0.5589 -0.4375 -0.1833
  497MOL0     C68516   9.032   8.204   3.716 -0.5305  0.3475  0.5135
  497MOL0     H68517   8.634   8.072   3.331 -0.1964 -0.1882  0.2704
  497MOL0     H68518   8.520   8.215   3.176 -0.4178  0.0686  0.8235
  497MOL0     H68519   8.475   8.512   2.972 -0.1512  1.9838  2.4598
  497MOL0     H68520   8.550   8.352   2.980  2.6185 -0.5965 -1.5483
  497MOL0     H68521   8.689   8.611   3.021 -4.8527 -0.3087  0.9286
  497MOL0     H68522   8.777   8.450   3.023  0.1843 -1.0856 -1.1926
  497MOL0     H68523   8.841   8.506   2.814  0.8085 -0.1008 -1.4805
  497MOL0     H68524   8.697   8.416   2.785  1.4048 -0.6174  0.0135
  497MOL0     H68525   8.559   8.661   2.816  1.1507  0.9912 -0.2572
  497MOL0     H68526   8.721   8.721   2.794  3.3599 -3.8212  3.3188
  497MOL0     H68527   8.570   8.535   2.602  0.9808 -0.0904  1.8360
  497MOL0     H68528   8.735   8.613   2.568 -0.7460  1.0562 -2.1179
  497MOL0     H68529   8.484   8.778   2.595 -1.1894  0.8943 -1.9104
  497MOL0     H68530   8.648   8.836   2.560 -0.4134 -0.0257 -0.9226
  497MOL0     H68531   8.471   8.645   2.389 -0.4559  1.1137  0.6487
  497MOL0     H68532   8.637   8.691   2.357  0.9861  1.8292  1.1554
  497MOL0     H68533   8.475   8.833   2.229  2.2335 -0.5400 -0.1240
  497MOL0     H68534   8.429   8.913   2.393  0.7323 -0.1147  0.9963
  497MOL0     H68535   8.731   8.841   2.169  1.5117  0.1088  1.0653
  497MOL0     H68536   8.947   8.971   2.107 -1.4174  1.3388 -0.7828
  497MOL0     H68537   9.028   8.990   2.254  0.3746  0.5802  0.5242
  497MOL0     H68538   8.965   9.251   2.236 -2.1313 -1.3850  1.1105
  497MOL0     H68539   9.080   9.169   2.112  0.4768  1.6675  1.3627
  497MOL0     H68540   8.871   9.148   1.969  2.8307  2.1874 -1.6109
  497MOL0     H68541   8.782   9.228   2.099  0.0778  4.0876 -0.4222
  497MOL0     H68542   8.838   9.420   1.981 -0.3497 -0.2029  1.6053
  497MOL0     H68543   8.992   9.407   2.073 -0.0200  0.8434 -0.4866
  497MOL0     H68544   9.087   9.573   1.976  1.7172  0.0848 -0.3420
  497MOL0     H68545   9.254   9.831   1.848 -0.7379  0.3919  0.5326
  497MOL0     H68546   9.373   9.756   1.955  1.6459  0.7624 -2.6602
  497MOL0     H68547   9.202   9.749   2.004 -1.8834 -1.5052 -1.6021
  497MOL0     H68548   9.471   9.707   1.390 -0.7955 -1.3058  0.4928
  497MOL0     H68549   9.637   9.816   1.238  2.2442 -1.6666 -1.4322
  497MOL0     H68550   9.806   9.928   1.141  0.5378  0.7927 -1.2637
  497MOL0     H68551   9.782  10.054   1.266  0.3443  0.5358 -0.9923
  497MOL0     H68552  10.028  10.055   1.286  1.6326 -1.2220 -0.5655
  497MOL0     H68553  10.047   9.994   1.131  1.1475 -0.8056  1.2620
  497MOL0     H68554   9.865  10.239   1.155  1.2589  2.2482  1.3799
  497MOL0     H68555   9.975  10.183   1.020 -2.7795  0.7341 -0.2721
  497MOL0     H68556  10.175  10.251   1.164 -0.4141 -3.7674  4.4462
  497MOL0     H68557  10.060  10.303   1.287  0.8310 -0.1694  0.0170
  497MOL0     H68558   9.954  10.453   1.143 -1.0958 -2.2031 -0.2099
  497MOL0     H68559  10.125  10.491   1.196 -0.5789 -1.4403  1.6888
  497MOL0     H68560  10.047  10.384   0.925  1.5702 -1.4678  0.9305
  497MOL0     H68561  10.202  10.379   0.974 -0.4567 -0.9079 -1.2371
  497MOL0     H68562  10.188  10.583   0.839  1.3271  0.3334  1.0386
  497MOL0     H68563  10.208  10.646   1.002  1.7424 -0.1844 -1.2966
  497MOL0     H68564   9.929  10.604   0.882  1.9402 -0.1679 -1.3905
  497MOL0     H68565  10.031  10.755   0.868  0.3773 -0.8822 -1.3288
  497MOL0     H68566   9.949   9.751   1.535 -0.1563 -0.6392  1.8478
  497MOL0     H68567   9.780   9.621   1.671 -0.9760 -0.1457 -0.2860
  497MOL0     H68568   9.341   9.390   1.585 -2.1097  0.5323 -1.3145
  497MOL0     H68569   9.153   9.268   1.678  1.8938 -1.5639  0.6579
  497MOL0     H68570   8.739   8.548   3.337  1.5932 -0.1589 -0.6921
  497MOL0     H68571   8.862   8.396   3.483  0.1225  2.4918 -1.4470
  497MOL0     H68572   9.047   7.849   3.381  0.9308  2.0403 -1.5622
  497MOL0     H68573   9.211   7.730   3.521  0.2998 -0.1744 -0.1731
  497MOL0     H68574   9.414   7.910   3.904 -1.9104  1.0199 -0.6208
  497MOL0     H68575   9.260   7.821   3.929 -0.1952 -0.7261  1.1007
  497MOL0     H68576   9.551   7.740   3.935 -0.0628  0.6254 -0.1105
  497MOL0     H68577   9.430   7.626   3.860 -2.6404 -0.1691  1.9265
  497MOL0     H68578   9.383   7.745   4.130 -0.3621 -0.9341  0.8453
  497MOL0     H68579   9.294   7.625   4.039  0.5415  1.3451 -2.7005
  497MOL0     H68580   9.494   7.467   4.068  1.3587  0.6085 -1.3144
  497MOL0     H68581   9.411   7.512   4.212  2.2545 -2.7567 -1.1583
  497MOL0     H68582   9.777   7.705   4.289  1.0959 -2.0342 -1.2392
  497MOL0     H68583   9.220   8.043   3.805 -2.5916 -1.3068  0.0802
  497MOL0     H68584   9.046   8.295   3.657 -0.4929  0.7676  1.1594
  497MOL0     H68585   8.928   8.171   3.729 -0.3776 -0.4492 -0.2055
  497MOL0     H68586   9.071   8.221   3.817 -0.1971  0.3782  0.3773
  498MOL0     O68587   3.301   5.005   3.213 -0.1069  0.5152  0.7740
  498MOL0     C68588   3.366   5.006   3.317 -0.4264 -0.0266 -0.4812
  498MOL0     O68589   3.334   4.940   3.435  0.2160  0.2858  0.1991
  498MOL0     C68590   3.240   4.840   3.430  0.3491  0.4194 -0.2795
  498MOL0     C68591   3.192   4.765   3.319 -0.1941 -0.3820  0.7146
  498MOL0     C68592   3.101   4.661   3.334  0.9834  0.2866  0.2619
  498MOL0     C68593   3.064   4.624   3.468 -0.0025 -1.1087 -0.2293
  498MOL0     O68594   2.985   4.515   3.474 -0.3488 -0.9210 -0.5182
  498MOL0     C68595   2.933   4.452   3.595 -1.1458 -0.0416  0.8130
  498MOL0     C68596   2.873   4.313   3.558 -0.2404  0.4836  0.0147
  498MOL0     C68597   2.958   4.216   3.465  0.5836  0.6198 -0.0649
  498MOL0     C68598   2.882   4.105   3.412  1.2209 -0.1559  0.3882
  498MOL0     C68599   2.964   4.014   3.332 -0.4589  1.2896 -0.3870
  498MOL0     C68600   2.883   3.895   3.273  1.2998 -0.1757 -1.2668
  498MOL0     C68601   2.964   3.769   3.228 -0.4625  1.0490 -0.0884
  498MOL0     C68602   2.883   3.650   3.196 -0.2725  0.2413  0.2387
  498MOL0     N68603   2.961   3.550   3.123  0.0320 -0.1997  0.3243
  498MOL0     C68604   3.056   3.468   3.184  0.2660 -0.3205 -0.0453
  498MOL0     C68605   3.105   3.386   3.086  0.1995  0.4523  0.0528
  498MOL0     C68606   3.212   3.273   3.101 -0.1506 -0.5687 -0.4942
  498MOL0     C68607   3.330   3.311   3.014  0.9638 -0.4431 -0.9548
  498MOL0     C68608   3.434   3.206   3.009  0.6100 -0.0726 -0.3505
  498MOL0     C68609   3.569   3.271   2.958  0.5504  0.3339 -0.7361
  498MOL0     O68610   3.623   3.355   3.065  0.3775 -0.6970 -0.2748
  498MOL0     C68611   3.666   3.285   3.179  0.6949  0.0989 -1.0848
  498MOL0     C68612   3.761   3.185   3.162  0.0625  0.2089 -0.0402
  498MOL0     C68613   3.817   3.109   3.271  0.4603  0.4456 -0.3321
  498MOL0     C68614   3.919   3.006   3.238 -0.9474 -1.0822 -0.7351
  498MOL0     C68615   3.765   3.128   3.404  0.2166 -0.8532 -0.1733
  498MOL0     C68616   3.803   3.047   3.522 -0.6826 -0.3238 -0.1119
  498MOL0     O68617   3.840   2.912   3.503 -0.9444  0.1545  0.6440
  498MOL0     C68618   3.833   2.828   3.615 -0.2314  0.6510  0.3792
  498MOL0     C68619   3.952   2.825   3.683 -0.9289  0.0179 -0.0812
  498MOL0     C68620   3.969   2.736   3.787  0.2715  0.0254 -0.2405
  498MOL0     C68621   3.871   2.643   3.823  0.4400 -0.6538  0.0625
  498MOL0     O68622   3.900   2.557   3.931  0.0390  0.5783  0.0234
  498MOL0     C68623   3.921   2.419   3.904 -0.3901 -0.1688  0.8785
  498MOL0     C68624   4.042   2.377   3.976 -0.8046 -0.2522 -0.6994
  498MOL0     C68625   4.068   2.230   3.931 -0.7528 -0.7513  1.1219
  498MOL0     C68626   4.198   2.176   3.984 -0.6672  0.1234 -0.4769
  498MOL0     C68627   4.200   2.022   3.965 -0.7878 -0.2382 -0.7465
  498MOL0     C68628   4.188   1.982   3.821  0.5005  0.1706  0.3186
  498MOL0     C68629   4.237   1.845   3.783 -0.0848  0.9539 -0.1808
  498MOL0     C68630   4.209   1.742   3.888 -0.0664 -0.7282  0.1753
  498MOL0    Cl68631   4.036   1.715   3.925 -0.4260  0.0176  0.2390
  498MOL0     C68632   3.755   2.641   3.752 -0.6425 -0.7003 -0.3559
  498MOL0     C68633   3.739   2.732   3.645 -0.1570 -0.3238  0.1529
  498MOL0     O68634   3.801   3.103   3.633  0.6184  0.2260 -0.8693
  498MOL0     C68635   3.678   3.235   3.424  0.5919 -0.4071 -0.0117
  498MOL0     C68636   3.630   3.312   3.316  0.4292 -0.2560  0.5105
  498MOL0     N68637   3.022   3.411   2.973 -0.2475 -0.0507 -0.1421
  498MOL0     N68638   2.934   3.505   2.993  0.9471 -0.1992  0.0522
  498MOL0     C68639   3.119   4.690   3.587 -0.0309 -0.5964 -0.2345
  498MOL0     C68640   3.207   4.801   3.563  0.1422  0.1988  0.0315
  498MOL0     C68641   3.492   5.088   3.318  0.7654 -0.7386 -0.2400
  498MOL0     C68642   3.593   5.039   3.396 -0.7593 -1.1002  0.4445
  498MOL0     C68643   3.715   5.111   3.413  0.4324 -0.6963  0.6256
  498MOL0     C68644   3.750   5.227   3.332 -0.2081 -0.8609 -0.3963
  498MOL0     O68645   3.863   5.291   3.345 -0.5249  0.0433  0.1456
  498MOL0     C68646   3.885   5.409   3.259  0.1190  0.0754  0.3375
  498MOL0     C68647   4.021   5.402   3.200 -0.2982  0.0392  0.4208
  498MOL0     C68648   4.135   5.422   3.300 -0.6662  0.5148 -0.6613
  498MOL0     C68649   4.174   5.570   3.299  0.8809  0.3500  0.0802
  498MOL0     C68650   4.269   5.582   3.407  0.8860  0.4789  1.1538
  498MOL0     C68651   4.353   5.597   3.491  0.7234 -0.0369 -0.5042
  498MOL0     C68652   3.644   5.267   3.250  0.1022 -0.4285  0.3753
  498MOL0     C68653   3.514   5.207   3.250 -0.7448 -0.1585 -0.5948
  498MOL0     C68654   3.404   5.280   3.180  0.5387 -0.0843  0.0457
  498MOL0     H68655   3.208   4.781   3.213  1.8190 -3.2313  0.4631
  498MOL0     H68656   3.064   4.617   3.242  0.3365  1.4777 -0.0666
  498MOL0     H68657   2.860   4.513   3.648 -3.2298 -0.0525 -1.8742
  498MOL0     H68658   3.025   4.429   3.651  0.5108  1.0700 -1.3032
  498MOL0     H68659   2.861   4.265   3.655 -0.7029 -0.4316 -0.4819
  498MOL0     H68660   2.776   4.315   3.507 -0.1940  0.4446 -0.0751
  498MOL0     H68661   2.998   4.274   3.380  2.2156 -0.2924  0.0286
  498MOL0     H68662   3.043   4.171   3.517  1.4228 -0.2345 -2.0712
  498MOL0     H68663   2.838   4.054   3.499 -4.2727  2.3857 -0.4456
  498MOL0     H68664   2.798   4.131   3.347  1.0212 -2.9703 -0.6185
  498MOL0     H68665   3.042   3.965   3.391 -2.9539 -2.6708 -0.0260
  498MOL0     H68666   3.002   4.070   3.246 -0.4892  1.3161 -0.3829
  498MOL0     H68667   2.804   3.858   3.338  2.4804 -0.4228  0.0849
  498MOL0     H68668   2.826   3.942   3.193 -2.7062  0.7262  1.8157
  498MOL0     H68669   3.041   3.744   3.301 -0.4347  1.6644  0.1064
  498MOL0     H68670   3.012   3.792   3.132  1.3941  2.8383  1.1778
  498MOL0     H68671   2.848   3.598   3.286  0.3539 -2.7608 -1.1311
  498MOL0     H68672   2.801   3.685   3.133  0.6839  1.3261 -0.4492
  498MOL0     H68673   3.083   3.463   3.289  0.8641 -1.5209 -0.2460
  498MOL0     H68674   3.160   3.183   3.068 -3.1350  1.6354 -2.3417
  498MOL0     H68675   3.241   3.285   3.206  3.9593  2.7784 -1.7046
  498MOL0     H68676   3.299   3.354   2.918 -1.3014 -0.4380 -0.2626
  498MOL0     H68677   3.375   3.395   3.068 -1.8984 -1.3526  3.2979
  498MOL0     H68678   3.450   3.152   3.103  0.5393 -5.2242 -2.9185
  498MOL0     H68679   3.404   3.130   2.935  1.3419 -0.1634 -0.5594
  498MOL0     H68680   3.636   3.191   2.925 -0.0481  0.1760 -1.5978
  498MOL0     H68681   3.543   3.336   2.873  2.1085  0.4066 -1.1942
  498MOL0     H68682   3.802   3.161   3.064 -0.4474 -2.0865  0.2578
  498MOL0     H68683   3.893   2.902   3.256 -1.9655 -0.5472  1.2675
  498MOL0     H68684   4.003   3.023   3.306 -1.6021  1.5027 -0.4656
  498MOL0     H68685   3.952   3.005   3.134 -2.3390  1.9675 -1.3377
  498MOL0     H68686   4.031   2.894   3.657 -0.2391 -0.8044 -0.2267
  498MOL0     H68687   4.060   2.725   3.846  0.5245  2.3989 -0.1007
  498MOL0     H68688   3.838   2.355   3.936  1.2222 -3.3333 -0.8461
  498MOL0     H68689   3.926   2.404   3.796 -0.9231 -0.2785  0.8662
  498MOL0     H68690   4.124   2.442   3.945 -1.7735  0.6977 -1.3356
  498MOL0     H68691   4.031   2.381   4.085  0.3074 -0.8248 -0.5561
  498MOL0     H68692   4.068   2.240   3.822 -0.0314 -0.0911  1.1795
  498MOL0     H68693   3.976   2.173   3.952 -2.5784  1.0958 -1.2735
  498MOL0     H68694   4.213   2.193   4.091  1.7357  0.0834 -0.7519
  498MOL0     H68695   4.283   2.230   3.941 -2.4903  1.0175 -3.2310
  498MOL0     H68696   4.296   1.979   3.996 -1.5507 -2.2729 -1.0336
  498MOL0     H68697   4.122   1.977   4.026 -0.9605  0.9340 -0.0653
  498MOL0     H68698   4.241   2.058   3.762  2.6669 -0.1821  1.6815
  498MOL0     H68699   4.084   1.992   3.788  0.4605 -0.5044  0.2310
  498MOL0     H68700   4.345   1.838   3.768 -0.1020  1.6376 -0.7132
  498MOL0     H68701   4.178   1.814   3.696  0.2527  1.6478 -0.6658
  498MOL0     H68702   4.258   1.760   3.984 -0.8242  0.8636  0.2903
  498MOL0     H68703   4.255   1.653   3.843  4.9340 -0.2498  3.5234
  498MOL0     H68704   3.688   2.557   3.766 -3.1531  1.3230  0.6239
  498MOL0     H68705   3.644   2.732   3.594 -0.0456 -0.6769 -0.0603
  498MOL0     H68706   3.642   3.263   3.522  3.7530  0.2687  1.0814
  498MOL0     H68707   3.582   3.408   3.333 -1.4747 -1.0505 -0.0744
  498MOL0     H68708   3.093   4.649   3.685 -2.8519 -0.4525 -0.8319
  498MOL0     H68709   3.269   4.840   3.643 -0.7296  2.8224 -0.4544
  498MOL0     H68710   3.570   4.959   3.466  4.2609 -1.6845  1.7740
  498MOL0     H68711   3.789   5.062   3.476 -0.0661  1.9593  3.5229
  498MOL0     H68712   3.821   5.431   3.173  0.5290  2.9273  0.6714
  498MOL0     H68713   3.893   5.495   3.325 -2.2871  1.3024 -0.8294
  498MOL0     H68714   4.014   5.480   3.124 -0.7330  2.0623  2.4256
  498MOL0     H68715   4.041   5.308   3.148 -0.2514  0.7979 -0.9911
  498MOL0     H68716   4.099   5.400   3.401 -1.0189 -0.7339 -1.0366
  498MOL0     H68717   4.219   5.354   3.282  0.1482  0.6306  2.1378
  498MOL0     H68718   4.087   5.633   3.319  1.2023  1.6850 -2.3344
  498MOL0     H68719   4.206   5.598   3.198 -1.7789 -1.9558 -1.5713
  498MOL0     H68720   4.434   5.604   3.560 -0.3301 -1.3020  0.9359
  498MOL0     H68721   3.644   5.354   3.185 -0.4403 -2.9657 -3.2923
  498MOL0     H68722   3.313   5.254   3.234  2.4837 -5.0875  1.5458
  498MOL0     H68723   3.411   5.389   3.178 -2.1751  0.2351  2.1603
  498MOL0     H68724   3.416   5.249   3.076  2.8067  1.8430 -0.3776
  499MOL0     O68725   0.808   9.589   9.061  0.3959  0.2514 -0.0557
  499MOL0     C68726   0.753   9.594   8.949  0.1897 -0.5991  0.3042
  499MOL0     O68727   0.618   9.580   8.925 -0.4134 -0.0147  0.1903
  499MOL0     C68728   0.544   9.524   9.026 -0.5661  0.0562  0.7858
  499MOL0     C68729   0.519   9.388   9.038  1.0918  0.9158 -0.9765
  499MOL0     C68730   0.446   9.351   9.157  0.4410 -0.2039 -0.5301
  499MOL0     C68731   0.388   9.439   9.243 -0.1369 -0.8709 -0.0278
  499MOL0     O68732   0.326   9.395   9.354 -0.5361 -0.2794  0.2790
  499MOL0     C68733   0.396   9.319   9.450 -1.0848 -0.2418 -1.0599
  499MOL0     C68734   0.306   9.316   9.571 -1.1544  0.0720  0.1014
  499MOL0     C68735   0.363   9.221   9.675  0.1763  0.7539  0.5018
  499MOL0     C68736   0.267   9.213   9.790 -0.5394 -0.5320 -0.3354
  499MOL0     C68737   0.267   9.096   9.885  0.0260  0.1693 -0.0118
  499MOL0     C68738   0.380   9.107   9.990 -0.4084  0.7292 -0.0637
  499MOL0     C68739   0.381   8.977  10.070  0.1377  0.2769 -0.1455
  499MOL0     C68740   0.515   8.973  10.128 -0.1544 -0.1253 -0.7045
  499MOL0     N68741   0.536   8.842  10.196 -0.4061 -0.1477  0.0863
  499MOL0     C68742   0.565   8.722  10.122  0.6779  0.4506 -0.2980
  499MOL0     C68743   0.610   8.628  10.211 -0.0364 -0.7744  0.0318
  499MOL0     C68744   0.656   8.486  10.190 -0.2866 -0.3303  0.2397
  499MOL0     C68745   0.808   8.494  10.169 -0.9844 -0.1344 -0.3598
  499MOL0     C68746   0.840   8.369  10.098  0.9578  0.9771  0.6279
  499MOL0     C68747   0.990   8.335  10.083 -0.2509  0.8718  0.0504
  499MOL0     O68748   1.009   8.202  10.017  0.1508 -0.0041  0.5976
  499MOL0     C68749   1.057   8.211   9.890 -0.4473  0.1238  0.2619
  499MOL0     C68750   0.949   8.221   9.803 -0.2348 -0.0055  1.2810
  499MOL0     C68751   0.985   8.229   9.664  0.3951 -0.6817 -0.6529
  499MOL0     C68752   0.865   8.230   9.573 -0.4101 -0.3984  0.4067
  499MOL0     C68753   1.125   8.212   9.624 -0.2460 -0.3278  0.3018
  499MOL0     C68754   1.170   8.199   9.482 -0.6323  0.3737 -0.0096
  499MOL0     O68755   1.298   8.160   9.449 -0.2261 -0.0663  0.1549
  499MOL0     C68756   1.348   8.146   9.320  0.4229  0.4962 -0.2607
  499MOL0     C68757   1.467   8.202   9.286 -0.8137  0.5365 -0.2427
  499MOL0     C68758   1.525   8.202   9.156  0.2242  0.0868  0.1127
  499MOL0     C68759   1.445   8.148   9.055  0.2630 -0.2847 -0.1503
  499MOL0     O68760   1.500   8.180   8.937  0.2608  0.2506 -0.2402
  499MOL0     C68761   1.488   8.070   8.848  0.7459 -0.2140  0.0058
  499MOL0     C68762   1.554   8.120   8.715 -0.0430 -0.5232  0.7181
  499MOL0     C68763   1.575   8.012   8.606 -1.3438  0.4095  0.2902
  499MOL0     C68764   1.657   8.068   8.492 -0.0472  0.3860  0.4312
  499MOL0     C68765   1.712   7.960   8.394 -0.1244  0.2362 -0.7780
  499MOL0     C68766   1.717   7.988   8.240 -0.9560 -0.3119  0.5338
  499MOL0     C68767   1.816   8.107   8.216 -0.1039  0.2290 -0.0464
  499MOL0     C68768   1.882   8.088   8.070 -0.2422 -0.3865 -0.2193
  499MOL0    Cl68769   2.001   7.957   8.088  0.0258 -0.4702 -0.3711
  499MOL0     C68770   1.329   8.086   9.087 -0.3747 -0.4637 -0.2897
  499MOL0     C68771   1.282   8.082   9.219 -0.6919 -0.1655  0.3028
  499MOL0     O68772   1.090   8.226   9.394  0.2098 -0.6965  0.0904
  499MOL0     C68773   1.214   8.192   9.722 -0.6002  0.0617 -1.6668
  499MOL0     C68774   1.190   8.196   9.856  0.1697  0.4626  0.9083
  499MOL0     N68775   0.593   8.681  10.333 -0.6989 -0.2112 -0.2513
  499MOL0     N68776   0.538   8.799  10.323  0.1117  0.0151 -0.3649
  499MOL0     C68777   0.398   9.576   9.208 -0.4168  0.4822 -0.0505
  499MOL0     C68778   0.472   9.611   9.099  0.7419 -0.3721  0.2238
  499MOL0     C68779   0.845   9.593   8.826 -0.5356 -1.0409 -0.6083
  499MOL0     C68780   0.802   9.516   8.719  0.4896 -0.1286  0.5779
  499MOL0     C68781   0.867   9.530   8.598  0.5870 -1.1305 -0.5802
  499MOL0     C68782   0.988   9.602   8.591  0.1347  0.1525  0.2660
  499MOL0     O68783   1.062   9.609   8.479 -0.1021  0.0006 -0.7795
  499MOL0     C68784   0.992   9.635   8.360 -0.6955 -0.0390 -0.7262
  499MOL0     C68785   0.894   9.750   8.364  0.3305  0.6092  0.1313
  499MOL0     C68786   0.811   9.779   8.236  0.0979  0.3004 -0.2671
  499MOL0     C68787   0.757   9.921   8.243 -0.3707  0.0588  0.4254
  499MOL0     C68788   0.713   9.957   8.104  0.4690 -0.2467 -0.3327
  499MOL0     C68789   0.667   9.951   7.992 -0.2524 -0.9438 -0.4001
  499MOL0     C68790   1.026   9.681   8.694 -0.5272  1.2646  0.3440
  499MOL0     C68791   0.963   9.667   8.818 -1.1412 -0.7429 -1.0772
  499MOL0     C68792   1.034   9.737   8.939 -0.4484  0.0830 -0.0627
  499MOL0     H68793   0.556   9.306   8.977 -1.9372 -0.8978 -0.5705
  499MOL0     H68794   0.431   9.247   9.183  1.8408 -0.1909  0.4795
  499MOL0     H68795   0.491   9.366   9.479 -1.6968  1.7683 -2.1900
  499MOL0     H68796   0.399   9.213   9.423  0.7377 -0.1939 -1.1835
  499MOL0     H68797   0.311   9.417   9.613  1.4618 -0.5593  1.5269
  499MOL0     H68798   0.204   9.291   9.541 -1.4157  1.0126  0.1787
  499MOL0     H68799   0.398   9.124   9.639  3.0994  1.7994  0.3343
  499MOL0     H68800   0.456   9.263   9.714  0.4426 -0.3540  1.0748
  499MOL0     H68801   0.283   9.303   9.851  2.2992 -1.9674  1.2678
  499MOL0     H68802   0.167   9.223   9.746 -1.1229  1.2571  1.2075
  499MOL0     H68803   0.275   8.999   9.836 -1.3076 -0.1505  0.3467
  499MOL0     H68804   0.164   9.100   9.921  0.2839 -0.3913  0.8281
  499MOL0     H68805   0.469   9.107   9.926 -2.5881  1.3008 -3.3697
  499MOL0     H68806   0.362   9.197  10.048 -2.4280 -1.2550  2.6679
  499MOL0     H68807   0.367   8.892  10.003  1.6588 -2.4153  2.7022
  499MOL0     H68808   0.305   8.973  10.148 -0.8086  0.0335 -1.0522
  499MOL0     H68809   0.595   8.977  10.053  0.3224 -0.6765 -0.2325
  499MOL0     H68810   0.522   9.059  10.195 -0.9520 -1.1336  0.7349
  499MOL0     H68811   0.564   8.715  10.014 -2.3281  2.9634 -0.5581
  499MOL0     H68812   0.605   8.455  10.099 -0.7746  4.7695 -1.5733
  499MOL0     H68813   0.616   8.416  10.263 -1.8906 -1.8093 -1.9307
  499MOL0     H68814   0.840   8.585  10.118 -2.8027  1.7410  1.6042
  499MOL0     H68815   0.854   8.492  10.268  0.5770 -1.4700 -1.0769
  499MOL0     H68816   0.805   8.280  10.151 -1.2589  1.0260 -0.6433
  499MOL0     H68817   0.796   8.357   9.998 -1.5387  0.0031  1.7562
  499MOL0     H68818   1.042   8.412  10.025  1.2707 -1.4552 -1.8799
  499MOL0     H68819   1.037   8.330  10.181 -2.6097 -3.7434  1.2249
  499MOL0     H68820   0.847   8.233   9.836 -0.1893  1.5565  0.9181
  499MOL0     H68821   0.768   8.231   9.623 -0.5753  2.7386  0.2049
  499MOL0     H68822   0.876   8.138   9.514 -1.1113 -0.4245  0.3089
  499MOL0     H68823   0.878   8.313   9.503 -0.4445 -1.6677 -1.1564
  499MOL0     H68824   1.521   8.259   9.361  2.7098 -0.3799 -1.8791
  499MOL0     H68825   1.623   8.245   9.135  2.1674 -2.4521  3.0956
  499MOL0     H68826   1.554   7.991   8.883 -0.7192 -0.8407  1.5237
  499MOL0     H68827   1.386   8.036   8.827  0.8261 -1.4122  1.3754
  499MOL0     H68828   1.481   8.197   8.686 -2.0622 -2.0037  1.5751
  499MOL0     H68829   1.654   8.151   8.744  1.0816 -1.4644 -1.8444
  499MOL0     H68830   1.479   7.983   8.562 -0.4381  1.4193 -2.6492
  499MOL0     H68831   1.627   7.924   8.645  1.0004  0.5750 -2.1435
  499MOL0     H68832   1.737   8.136   8.522 -0.5337  1.6761 -1.0686
  499MOL0     H68833   1.584   8.120   8.430  1.5694 -1.1662 -3.0698
  499MOL0     H68834   1.814   7.936   8.426  0.4532  1.7273 -1.4155
  499MOL0     H68835   1.649   7.870   8.397 -0.8852  0.5975 -3.5189
  499MOL0     H68836   1.623   8.016   8.191  1.2580  1.8606 -2.9660
  499MOL0     H68837   1.764   7.907   8.184  1.8266  1.4238  0.1503
  499MOL0     H68838   1.887   8.109   8.299 -0.6441 -1.2046  0.4921
  499MOL0     H68839   1.761   8.201   8.225  1.2070  1.0996 -0.8554
  499MOL0     H68840   1.925   8.185   8.045 -2.3543  0.2896 -1.5170
  499MOL0     H68841   1.796   8.068   8.005  0.0942 -2.1433 -0.1639
  499MOL0     H68842   1.264   8.045   9.010 -0.0283  0.3301 -1.0326
  499MOL0     H68843   1.185   8.045   9.250 -1.4049 -1.4251 -3.0390
  499MOL0     H68844   1.319   8.173   9.704  0.6987  2.7062  1.9604
  499MOL0     H68845   1.271   8.185   9.928  1.8304  1.2007 -0.7713
  499MOL0     H68846   0.361   9.649   9.280 -3.1600  1.6022 -2.4225
  499MOL0     H68847   0.483   9.717   9.082  0.2639  0.1150  2.5449
  499MOL0     H68848   0.715   9.451   8.724  0.0006  0.4663  0.0632
  499MOL0     H68849   0.818   9.481   8.515 -0.2731 -1.5252  0.1394
  499MOL0     H68850   1.059   9.652   8.276 -1.5684 -2.3538 -1.9615
  499MOL0     H68851   0.932   9.547   8.336 -1.3976  0.1757  0.1666
  499MOL0     H68852   0.950   9.840   8.388 -0.7217  1.2928  0.0856
  499MOL0     H68853   0.820   9.752   8.444 -0.5693  2.4382 -0.6843
  499MOL0     H68854   0.875   9.769   8.148  0.6119 -1.0830  0.2310
  499MOL0     H68855   0.727   9.710   8.227 -1.0494  1.5604  0.3461
  499MOL0     H68856   0.842   9.984   8.271  0.2349  0.1704 -1.4956
  499MOL0     H68857   0.691   9.942   8.327  3.9062  4.0654  3.2867
  499MOL0     H68858   0.626   9.944   7.893 -1.7595 -1.9584  0.2685
  499MOL0     H68859   1.119   9.735   8.678  1.3882 -1.7106  0.8104
  499MOL0     H68860   0.967   9.813   8.981 -1.9765 -0.1400 -1.9660
  499MOL0     H68861   1.068   9.672   9.020 -0.0271  0.8862  0.4204
  499MOL0     H68862   1.127   9.784   8.906 -1.2619  1.3181 -0.6789
  500MOL0     O68863   3.042   5.804   8.476  0.0197 -0.6164  0.7153
  500MOL0     C68864   3.002   5.817   8.586  0.1939  0.5350 -0.1203
  500MOL0     O68865   2.927   5.726   8.652  0.1709 -0.1748  0.1377
  500MOL0     C68866   2.914   5.605   8.595 -0.8720  0.2791 -1.1325
  500MOL0     C68867   3.016   5.509   8.582 -0.4146 -1.2883 -1.1416
  500MOL0     C68868   2.999   5.381   8.540 -0.3375  0.8686 -0.0358
  500MOL0     C68869   2.876   5.340   8.480  0.9049  0.4574  0.3404
  500MOL0     O68870   2.879   5.208   8.442 -0.1369 -0.1781 -0.0320
  500MOL0     C68871   2.766   5.164   8.375 -0.1076  0.2114  0.0689
  500MOL0     C68872   2.790   5.030   8.317  0.5088  0.0916  0.3421
  500MOL0     C68873   2.694   5.001   8.199 -0.1344 -0.4171 -0.0029
  500MOL0     C68874   2.696   4.855   8.149  0.2974  0.0616 -0.7022
  500MOL0     C68875   2.593   4.816   8.045 -0.9330 -0.7747 -0.2446
  500MOL0     C68876   2.446   4.857   8.067  0.1319  0.3074 -0.2708
  500MOL0     C68877   2.353   4.813   7.944  1.1919  0.4498  0.5313
  500MOL0     C68878   2.212   4.797   7.997 -0.2242 -0.2454  0.7962
  500MOL0     N68879   2.137   4.730   7.884 -1.7817 -0.7355 -0.8223
  500MOL0     C68880   2.013   4.775   7.851  0.2923 -0.3336  0.0435
  500MOL0     C68881   1.969   4.681   7.763 -0.6254  0.1254 -0.1340
  500MOL0     C68882   1.817   4.658   7.739 -0.7582  0.3169  0.5122
  500MOL0     C68883   1.708   4.752   7.776 -0.0745  0.1438 -0.8474
  500MOL0     C68884   1.705   4.887   7.690 -0.4916 -0.1384  0.3090
  500MOL0     C68885   1.639   4.866   7.547 -0.2089  0.1218  0.4177
  500MOL0     O68886   1.509   4.804   7.567 -0.0618 -0.0650 -0.0494
  500MOL0     C68887   1.401   4.880   7.591  0.2163 -0.9940  0.0047
  500MOL0     C68888   1.400   5.015   7.627  0.6687 -0.4420 -0.3985
  500MOL0     C68889   1.283   5.096   7.653  0.1460 -0.9686 -1.2179
  500MOL0     C68890   1.291   5.237   7.663 -1.2645  0.4243 -0.6349
  500MOL0     C68891   1.176   5.027   7.673 -0.0086 -0.2475  0.0879
  500MOL0     C68892   1.044   5.078   7.735 -0.8161 -0.2604  0.5574
  500MOL0     O68893   0.938   5.010   7.712  0.5002 -0.2634 -0.4049
  500MOL0     C68894   0.818   5.056   7.756  0.0633 -0.9291 -0.3771
  500MOL0     C68895   0.754   5.151   7.670  0.3441  0.0872 -0.6619
  500MOL0     C68896   0.621   5.204   7.702  0.0618 -0.6180  0.4050
  500MOL0     C68897   0.557   5.165   7.818 -0.7719 -0.3136  0.1772
  500MOL0     O68898   0.435   5.223   7.868 -1.2911  0.0296 -0.0160
  500MOL0     C68899   0.338   5.116   7.878 -0.3949 -0.5647 -0.8968
  500MOL0     C68900   0.267   5.099   7.737 -0.3015  0.7841 -0.5773
  500MOL0     C68901   0.131   5.018   7.746  0.8409 -1.1367 -0.3933
  500MOL0     C68902   0.153   4.871   7.764 -0.0618  0.4043 -0.9987
  500MOL0     C68903   0.030   4.793   7.797  0.1375 -0.1629 -1.0085
  500MOL0     C68904   0.050   4.652   7.845 -0.0359 -0.5207  1.1013
  500MOL0     C68905  -0.078   4.557   7.838  0.3501  0.4087  0.1616
  500MOL0     C68906  -0.057   4.409   7.894  0.3584  0.3345 -0.9219
  500MOL0    Cl68907   0.046   4.324   7.767  0.3461  0.2389 -0.1789
  500MOL0     C68908   0.632   5.077   7.901 -0.9387  0.2295 -0.7830
  500MOL0     C68909   0.764   5.030   7.878 -0.5199 -0.0039 -0.7011
  500MOL0     O68910   1.056   5.181   7.799 -0.4152 -0.8837 -0.8099
  500MOL0     C68911   1.165   4.889   7.631 -0.4437  0.4665  0.0889
  500MOL0     C68912   1.282   4.815   7.594 -0.1261 -0.8853 -0.1815
  500MOL0     N68913   2.066   4.585   7.754 -0.4628 -0.4416  0.1161
  500MOL0     N68914   2.170   4.613   7.821  0.2574  0.0692 -0.0298
  500MOL0     C68915   2.770   5.426   8.494  0.8109 -0.1850  0.4214
  500MOL0     C68916   2.792   5.551   8.543  0.0592 -0.2711  0.0013
  500MOL0     C68917   3.037   5.935   8.672  0.2592 -0.2991 -0.4128
  500MOL0     C68918   2.982   5.956   8.799  0.4312 -0.1433 -0.5027
  500MOL0     C68919   3.022   6.060   8.887  0.0476 -0.5970 -0.8039
  500MOL0     C68920   3.113   6.154   8.840  0.4500  0.5403 -0.8453
  500MOL0     O68921   3.156   6.267   8.910  0.0000 -0.3745 -0.2055
  500MOL0     C68922   3.151   6.266   9.058  0.2258  1.0304  0.5779
  500MOL0     C68923   3.033   6.346   9.107  0.1074 -0.3812 -0.6690
  500MOL0     C68924   3.040   6.496   9.086  0.1529  0.0751  1.3852
  500MOL0     C68925   2.914   6.574   9.053 -0.2314  0.6392 -0.3696
  500MOL0     C68926   2.830   6.573   9.176 -0.2670 -0.0760 -0.2817
  500MOL0     C68927   2.754   6.571   9.276 -0.3798 -1.0837  0.7107
  500MOL0     C68928   3.156   6.138   8.711 -0.9699 -0.7769 -0.1442
  500MOL0     C68929   3.131   6.031   8.625 -0.5702  0.4466 -0.2954
  500MOL0     C68930   3.172   6.065   8.478  0.6268  0.2482 -0.8437
  500MOL0     H68931   3.104   5.537   8.640 -1.3065 -1.0881  0.1418
  500MOL0     H68932   3.081   5.309   8.537  0.4539  1.7085 -4.2468
  500MOL0     H68933   2.747   5.233   8.292  0.7493  2.1638  1.4240
  500MOL0     H68934   2.680   5.159   8.444 -0.6434  0.5581 -0.5590
  500MOL0     H68935   2.895   5.020   8.285 -0.3865  0.3687 -3.1046
  500MOL0     H68936   2.770   4.951   8.390 -2.6602  0.0426 -0.4469
  500MOL0     H68937   2.595   5.029   8.237 -1.3513 -0.4687 -2.8810
  500MOL0     H68938   2.717   5.052   8.105 -2.3618 -5.9282 -4.0783
  500MOL0     H68939   2.798   4.820   8.134  1.8722  0.6613  5.6827
  500MOL0     H68940   2.668   4.796   8.237 -0.1709  1.3893  0.0801
  500MOL0     H68941   2.607   4.708   8.042 -1.3841 -0.8287 -0.4862
  500MOL0     H68942   2.617   4.846   7.943 -0.4079  0.8669  0.3300
  500MOL0     H68943   2.403   4.806   8.154 -0.2360 -1.1243 -1.2483
  500MOL0     H68944   2.436   4.965   8.083 -0.7856  0.5934 -2.3280
  500MOL0     H68945   2.388   4.720   7.898 -2.1885 -0.2358 -0.8823
  500MOL0     H68946   2.351   4.881   7.859  0.1071  0.7660  0.8033
  500MOL0     H68947   2.208   4.739   8.090 -0.3886  0.8929  1.5154
  500MOL0     H68948   2.156   4.888   8.022 -1.3382 -0.0578 -1.9209
  500MOL0     H68949   1.966   4.858   7.902  0.6343  1.7307 -2.7408
  500MOL0     H68950   1.813   4.556   7.779  2.8039  0.0720  0.5832
  500MOL0     H68951   1.801   4.635   7.633  1.9540 -1.2483  0.3460
  500MOL0     H68952   1.606   4.713   7.788  0.6105 -1.2266  1.1370
  500MOL0     H68953   1.745   4.794   7.870  0.4077 -0.0763 -0.9358
  500MOL0     H68954   1.646   4.966   7.737 -0.6101  0.9466 -1.5725
  500MOL0     H68955   1.804   4.927   7.667 -0.3826 -0.2872  0.5100
  500MOL0     H68956   1.637   4.964   7.499  0.8344 -1.3358 -2.8969
  500MOL0     H68957   1.703   4.803   7.485  0.1803  0.5162  0.4122
  500MOL0     H68958   1.486   5.081   7.627 -1.3596  2.5027  1.9166
  500MOL0     H68959   1.356   5.267   7.580  2.2524 -1.8879  1.0686
  500MOL0     H68960   1.341   5.267   7.756 -1.4047 -3.1400  0.7514
  500MOL0     H68961   1.193   5.285   7.655 -2.0224 -1.0965 -0.8299
  500MOL0     H68962   0.805   5.178   7.578 -0.3923 -2.5612 -1.9684
  500MOL0     H68963   0.576   5.276   7.634  1.1209  0.3482  0.6949
  500MOL0     H68964   0.385   5.020   7.902 -1.2398 -1.3670 -2.2932
  500MOL0     H68965   0.271   5.145   7.959  0.7210 -0.8902  0.1864
  500MOL0     H68966   0.248   5.195   7.689 -0.0205  0.1918 -1.9220
  500MOL0     H68967   0.333   5.055   7.662 -0.4650  0.5126 -0.5634
  500MOL0     H68968   0.063   5.042   7.664  1.1624  3.0817  0.3586
  500MOL0     H68969   0.077   5.059   7.832  2.7217 -1.8859  1.2308
  500MOL0     H68970   0.222   4.870   7.848  0.8521  0.3731 -1.7320
  500MOL0     H68971   0.202   4.831   7.675  0.5902 -0.7239 -0.1528
  500MOL0     H68972  -0.025   4.845   7.876 -1.8374  0.5948 -2.7670
  500MOL0     H68973  -0.028   4.805   7.704 -1.6359  5.0245  0.3853
  500MOL0     H68974   0.088   4.645   7.947  0.3379  2.6633  1.2564
  500MOL0     H68975   0.116   4.605   7.771 -0.3553 -0.8388  1.0163
  500MOL0     H68976  -0.124   4.558   7.739 -1.2595 -2.3208  0.7654
  500MOL0     H68977  -0.159   4.600   7.898  0.6583 -0.5227  1.3024
  500MOL0     H68978  -0.155   4.363   7.904 -0.4483  1.6194 -2.4062
  500MOL0     H68979   0.005   4.418   7.983 -0.5119 -0.3853 -0.2268
  500MOL0     H68980   0.598   5.040   7.998 -0.3932  0.1213 -0.6295
  500MOL0     H68981   0.823   4.984   7.957  0.9675 -1.4765 -2.5624
  500MOL0     H68982   1.072   4.836   7.650  0.3567 -0.2329  2.5337
  500MOL0     H68983   1.283   4.708   7.575  1.1170 -1.3602  2.1592
  500MOL0     H68984   2.670   5.393   8.468  0.8378  0.5207 -0.6310
  500MOL0     H68985   2.708   5.617   8.560 -0.8013 -1.8754  2.4882
  500MOL0     H68986   2.909   5.885   8.839 -2.4707  2.6747 -0.3572
  500MOL0     H68987   2.980   6.067   8.987 -1.3161 -0.7564 -1.3469
  500MOL0     H68988   3.141   6.166   9.103  1.0284  0.3441 -0.7026
  500MOL0     H68989   3.251   6.300   9.087  1.3118  1.6537 -3.3361
  500MOL0     H68990   3.015   6.315   9.211  0.3560  3.0632  0.5453
  500MOL0     H68991   2.947   6.317   9.047  0.1562 -0.9728 -0.4608
  500MOL0     H68992   3.092   6.538   9.172  1.0268 -1.9841  1.9090
  500MOL0     H68993   3.109   6.513   9.003  1.7043  1.5782  2.9007
  500MOL0     H68994   2.870   6.520   8.969  1.8613  0.2921 -1.3127
  500MOL0     H68995   2.930   6.677   9.020 -0.3824  1.4548  1.9177
  500MOL0     H68996   2.686   6.581   9.358  1.6733 -0.1796  2.4045
  500MOL0     H68997   3.217   6.222   8.680 -2.7752  1.1599  1.2884
  500MOL0     H68998   3.084   6.103   8.426 -0.4992  1.6198  1.8613
  500MOL0     H68999   3.249   6.143   8.471 -1.1434  2.2828  0.8961
  500MOL0     H69000   3.224   5.981   8.432 -0.8194  0.6712 -3.4235
  501MOL0     O69001   3.118   8.543   9.417  0.0542 -0.3049 -0.0970
  501MOL0     C69002   3.095   8.504   9.302  0.3531 -0.4953  1.1547
  501MOL0     O69003   3.194   8.492   9.203  0.7575  0.0205  0.2410
  501MOL0     C69004   3.319   8.524   9.234  0.4138  0.6111  0.2599
  501MOL0     C69005   3.376   8.614   9.147  0.9518 -0.2484  0.3616
  501MOL0     C69006   3.510   8.641   9.167 -0.1409 -0.1643 -0.0502
  501MOL0     C69007   3.592   8.574   9.254 -0.0905 -0.3393 -0.2125
  501MOL0     O69008   3.729   8.578   9.267 -0.5092 -0.1625 -0.3259
  501MOL0     C69009   3.804   8.657   9.174  0.5509  0.3340 -1.0103
  501MOL0     C69010   3.945   8.637   9.204 -0.4243 -0.0724  0.5683
  501MOL0     C69011   3.975   8.662   9.350  0.2807  0.2764 -0.6446
  501MOL0     C69012   4.125   8.626   9.369 -0.0282 -0.0607  0.4603
  501MOL0     C69013   4.145   8.631   9.524 -0.2827  0.5157 -0.3896
  501MOL0     C69014   4.285   8.595   9.559  0.7603  0.7114  0.4028
  501MOL0     C69015   4.293   8.508   9.687  0.0966 -0.2861 -0.4910
  501MOL0     C69016   4.440   8.494   9.738  0.4524  0.2479 -0.5982
  501MOL0     N69017   4.460   8.351   9.770 -0.2223  0.1105 -0.1781
  501MOL0     C69018   4.387   8.272   9.854  0.1197 -0.5107 -0.2210
  501MOL0     C69019   4.443   8.151   9.833 -0.4194  0.4401  0.5387
  501MOL0     C69020   4.391   8.030   9.906  0.5222 -0.4648 -1.0744
  501MOL0     C69021   4.492   7.981  10.011 -0.3445 -0.1351 -0.3754
  501MOL0     C69022   4.450   7.850  10.079  0.0745 -0.1788 -0.9508
  501MOL0     C69023   4.476   7.729   9.997  0.3457 -0.2799 -1.8399
  501MOL0     O69024   4.418   7.620  10.061  0.0678 -0.5874  0.1744
  501MOL0     C69025   4.278   7.597  10.050  0.4402 -0.4183 -0.0463
  501MOL0     C69026   4.214   7.590  10.164 -0.2375 -0.6155  0.4539
  501MOL0     C69027   4.071   7.571  10.161 -0.4740 -0.5569 -0.7923
  501MOL0     C69028   3.997   7.556  10.292 -0.4509 -0.1649 -0.2215
  501MOL0     C69029   4.002   7.571  10.039 -0.1261 -0.3207  0.6968
  501MOL0     C69030   3.846   7.577  10.029 -0.1884 -0.1651 -0.4326
  501MOL0     O69031   3.792   7.535   9.907 -0.0650 -0.6993  0.2691
  501MOL0     C69032   3.651   7.535   9.907 -0.2889  0.2663 -0.6468
  501MOL0     C69033   3.580   7.656   9.925  0.7833  0.1983 -0.8787
  501MOL0     C69034   3.449   7.659   9.889 -1.1349  0.0678  0.1741
  501MOL0     C69035   3.372   7.555   9.843 -0.2597 -0.6172 -1.0884
  501MOL0     O69036   3.244   7.579   9.808  0.2291  0.3124  0.0003
  501MOL0     C69037   3.147   7.477   9.843  0.7474  0.1978 -0.9344
  501MOL0     C69038   3.015   7.544   9.819  0.5111  0.8781  1.0652
  501MOL0     C69039   2.985   7.627   9.937 -0.2583  0.0722 -0.8844
  501MOL0     C69040   3.055   7.766   9.944  0.1771 -0.3302 -1.1959
  501MOL0     C69041   3.035   7.851   9.815  0.3023  0.0249 -0.6983
  501MOL0     C69042   2.876   7.890   9.782 -0.7869 -0.0637 -0.5595
  501MOL0     C69043   2.887   7.955   9.645 -0.5814  0.1501 -0.0462
  501MOL0     C69044   2.750   8.004   9.594  0.3939 -0.4130 -0.3721
  501MOL0    Cl69045   2.668   8.128   9.704 -0.0709  0.0046  0.2625
  501MOL0     C69046   3.441   7.436   9.837 -0.8968 -0.1383  0.1594
  501MOL0     C69047   3.580   7.422   9.864  0.2497  0.1208 -0.3847
  501MOL0     O69048   3.785   7.614  10.130  0.5824  0.8866  0.1801
  501MOL0     C69049   4.078   7.578   9.923  0.5658 -1.4145 -0.7713
  501MOL0     C69050   4.216   7.594   9.927 -0.0048 -0.1628 -0.5151
  501MOL0     N69051   4.540   8.153   9.743 -0.0988 -0.1037  0.1716
  501MOL0     N69052   4.552   8.278   9.703  0.4485 -0.9930 -0.3671
  501MOL0     C69053   3.529   8.475   9.338 -0.7887 -0.5804  1.0555
  501MOL0     C69054   3.393   8.454   9.332  0.0085 -0.0176  0.7250
  501MOL0     C69055   2.949   8.459   9.270 -0.0382 -0.3166  0.9063
  501MOL0     C69056   2.863   8.451   9.379  0.5518 -0.2771  0.3718
  501MOL0     C69057   2.747   8.378   9.365  0.9468  0.5445  0.0534
  501MOL0     C69058   2.705   8.314   9.248 -1.1956 -1.3879 -1.0838
  501MOL0     O69059   2.591   8.234   9.257  0.1799  0.4001 -0.3638
  501MOL0     C69060   2.552   8.145   9.143  0.0793  0.6108  0.2728
  501MOL0     C69061   2.403   8.093   9.157  0.0645  0.4283 -0.2898
  501MOL0     C69062   2.344   8.025   9.030 -0.0025 -0.1696  0.3905
  501MOL0     C69063   2.428   7.896   9.014 -0.0544  0.6027  0.1961
  501MOL0     C69064   2.360   7.829   8.906  1.0612 -0.1505  0.0675
  501MOL0     C69065   2.311   7.805   8.794 -0.5794 -1.2181 -0.6958
  501MOL0     C69066   2.779   8.340   9.127 -0.3754  0.5442 -0.7889
  501MOL0     C69067   2.901   8.407   9.136  0.3938 -0.0139  0.3569
  501MOL0     C69068   2.979   8.442   9.008  0.2845 -0.1175  0.1956
  501MOL0     H69069   3.320   8.669   9.072  1.2767 -0.0958  0.2269
  501MOL0     H69070   3.559   8.717   9.108 -2.6786  1.4692 -0.2057
  501MOL0     H69071   3.772   8.762   9.171 -0.0834  0.2296  0.9726
  501MOL0     H69072   3.785   8.627   9.070  1.3319 -1.5247 -0.6610
  501MOL0     H69073   3.973   8.534   9.178  2.5125 -0.3531  4.1197
  501MOL0     H69074   4.001   8.705   9.139 -1.6762  1.3230  0.8949
  501MOL0     H69075   3.952   8.767   9.368 -1.4844 -0.1024 -0.4314
  501MOL0     H69076   3.910   8.599   9.412 -0.2769  0.0448 -1.4354
  501MOL0     H69077   4.162   8.528   9.337  2.0137  0.0493  2.2439
  501MOL0     H69078   4.184   8.703   9.318 -0.0834  0.2350  0.8377
  501MOL0     H69079   4.074   8.562   9.570 -1.5067  1.3961 -0.8864
  501MOL0     H69080   4.117   8.733   9.553  0.1575  0.2318  1.1057
  501MOL0     H69081   4.323   8.540   9.473 -4.2015 -0.8521 -1.1845
  501MOL0     H69082   4.332   8.691   9.582 -2.9482  2.9645 -0.5333
  501MOL0     H69083   4.248   8.410   9.665 -1.6636  0.5966 -0.9585
  501MOL0     H69084   4.229   8.558   9.760 -0.4703 -1.2272 -0.3276
  501MOL0     H69085   4.523   8.521   9.671 -1.0253  2.8153 -1.5184
  501MOL0     H69086   4.442   8.557   9.828 -1.3232  0.7313 -0.8705
  501MOL0     H69087   4.317   8.309   9.929  2.1963  1.9134  0.6576
  501MOL0     H69088   4.374   7.952   9.832 -0.7976 -1.3336  0.0831
  501MOL0     H69089   4.294   8.053   9.951  0.2598  0.8638 -2.2459
  501MOL0     H69090   4.578   7.956   9.948 -0.7481  0.8195 -1.3188
  501MOL0     H69091   4.520   8.055  10.087  1.4117 -0.8044 -0.3001
  501MOL0     H69092   4.506   7.835  10.172  0.5420 -0.1699 -1.2287
  501MOL0     H69093   4.344   7.852  10.107  0.2064  1.8227 -0.4173
  501MOL0     H69094   4.435   7.735   9.895 -2.4613 -0.6109 -0.8144
  501MOL0     H69095   4.585   7.722   9.986  0.8193  1.9377  0.5697
  501MOL0     H69096   4.270   7.618  10.252 -2.1129  1.0408  1.2003
  501MOL0     H69097   3.932   7.469  10.280  2.7977 -2.6994 -0.7063
  501MOL0     H69098   3.941   7.644  10.325 -2.2407 -1.7213  1.0905
  501MOL0     H69099   4.061   7.535  10.379 -0.7726 -0.7023 -0.1100
  501MOL0     H69100   3.625   7.751   9.954  1.9868 -0.7689  0.6453
  501MOL0     H69101   3.390   7.750   9.901 -2.7780 -0.9192 -0.0790
  501MOL0     H69102   3.158   7.384   9.786 -0.0939  0.1165 -0.9698
  501MOL0     H69103   3.151   7.444   9.947 -2.5105 -0.9945 -1.0883
  501MOL0     H69104   3.020   7.601   9.726  0.6695 -0.5546  0.1516
  501MOL0     H69105   2.935   7.470   9.803  3.8258 -2.7268 -0.5508
  501MOL0     H69106   2.995   7.575  10.032  1.6390 -1.5043 -1.8788
  501MOL0     H69107   2.876   7.638   9.933 -0.1964  1.2453 -0.0461
  501MOL0     H69108   3.160   7.764   9.974 -1.1946 -0.2998  5.0443
  501MOL0     H69109   3.016   7.827  10.026 -1.0524 -0.5025 -1.6372
  501MOL0     H69110   3.102   7.938   9.820  1.3021 -0.6671  5.0392
  501MOL0     H69111   3.080   7.796   9.732 -2.0647 -0.3811 -1.8068
  501MOL0     H69112   2.832   7.955   9.858 -1.3599 -0.7047 -0.3351
  501MOL0     H69113   2.816   7.799   9.783  0.3784 -0.8499  0.1157
  501MOL0     H69114   2.931   7.882   9.576  0.2234  0.5081  0.0768
  501MOL0     H69115   2.956   8.038   9.660  3.0743 -3.2002  4.5827
  501MOL0     H69116   2.673   7.928   9.583 -1.5263  1.6003 -1.7777
  501MOL0     H69117   2.766   8.047   9.495  0.8442 -1.3790 -0.7308
  501MOL0     H69118   3.391   7.348   9.799  1.9927 -1.7107 -0.3425
  501MOL0     H69119   3.640   7.332   9.851 -0.2315 -0.0416 -1.6568
  501MOL0     H69120   4.024   7.565   9.829 -1.3406  2.5216 -0.4213
  501MOL0     H69121   4.262   7.613   9.831 -1.3739  1.0239 -0.9845
  501MOL0     H69122   3.600   8.437   9.410 -0.6996 -0.2898  1.1205
  501MOL0     H69123   3.347   8.386   9.403  0.3421  1.1536  2.1193
  501MOL0     H69124   2.896   8.485   9.477 -0.0875 -0.2424  0.5787
  501MOL0     H69125   2.695   8.345   9.455 -2.4109 -0.0597 -1.9150
  501MOL0     H69126   2.572   8.206   9.054 -3.6749  1.5418 -0.1255
  501MOL0     H69127   2.613   8.055   9.139 -0.7783  0.0338 -2.5738
  501MOL0     H69128   2.352   8.187   9.184 -0.5894  0.4802 -1.6062
  501MOL0     H69129   2.379   8.030   9.243 -1.4316  1.3368  0.0053
  501MOL0     H69130   2.235   8.018   9.042 -0.5202  3.7149 -0.9334
  501MOL0     H69131   2.368   8.090   8.946  0.2838 -0.6711  0.0797
  501MOL0     H69132   2.439   7.830   9.101  0.2331  3.1025  2.1774
  501MOL0     H69133   2.530   7.920   8.982  0.0055  0.4088  0.2414
  501MOL0     H69134   2.252   7.794   8.705 -2.2373 -2.5323  0.5176
  501MOL0     H69135   2.750   8.304   9.029 -1.3211  1.5274 -0.8711
  501MOL0     H69136   2.908   8.475   8.932  0.3150 -0.3238  0.0753
  501MOL0     H69137   3.057   8.515   9.031  0.3180  0.5117 -1.7624
  501MOL0     H69138   3.031   8.352   8.972  1.6024 -0.2077  2.1480
  502MOL0     O69139   0.397   5.133   1.864 -0.2633 -0.5402 -0.0998
  502MOL0     C69140   0.418   5.151   1.982  0.8511  1.1768  0.2122
  502MOL0     O69141   0.330   5.106   2.079  0.1077 -0.1837 -0.6320
  502MOL0     C69142   0.212   5.051   2.042  0.4390 -0.0165 -0.5181
  502MOL0     C69143   0.110   5.115   1.975 -0.6169  0.4601  0.0577
  502MOL0     C69144   0.004   5.039   1.930  0.1321 -0.4929  0.1319
  502MOL0     C69145  -0.006   4.901   1.954 -0.2236 -0.2967  0.2890
  502MOL0     O69146  -0.117   4.830   1.916 -0.0985  0.4199  0.3705
  502MOL0     C69147  -0.096   4.718   1.835  0.3133  0.0126 -0.8697
  502MOL0     C69148  -0.065   4.756   1.688 -0.5913 -0.7379  1.5331
  502MOL0     C69149  -0.148   4.867   1.630 -0.4128  0.1231 -0.6114
  502MOL0     C69150  -0.295   4.848   1.613 -0.5299  0.0035  0.8640
  502MOL0     C69151  -0.321   4.726   1.530  0.2633  0.2756 -0.1191
  502MOL0     C69152  -0.467   4.717   1.469  0.4270 -0.7376 -0.1150
  502MOL0     C69153  -0.505   4.575   1.414 -0.4420 -0.0235 -0.3030
  502MOL0     C69154  -0.595   4.511   1.512 -0.0877  0.0654  0.9915
  502MOL0     N69155  -0.522   4.464   1.625 -0.1178 -0.1167 -0.7220
  502MOL0     C69156  -0.543   4.508   1.748  0.5305 -0.7890  0.0917
  502MOL0     C69157  -0.439   4.460   1.825  0.1739  0.4403  1.0888
  502MOL0     C69158  -0.413   4.459   1.970 -0.0619  0.7818 -0.1570
  502MOL0     C69159  -0.401   4.332   2.045  0.2999 -0.1847 -0.4227
  502MOL0     C69160  -0.505   4.229   1.999  0.2182  0.3223  0.2451
  502MOL0     C69161  -0.441   4.110   1.932 -0.0750 -0.5202  0.0164
  502MOL0     O69162  -0.454   3.992   2.010  0.4110 -0.1530 -0.4107
  502MOL0     C69163  -0.358   3.986   2.108  0.0797  0.5276 -0.0513
  502MOL0     C69164  -0.229   3.979   2.076 -0.1194 -0.0435  0.5492
  502MOL0     C69165  -0.132   3.964   2.184  0.9042 -0.6411  0.1863
  502MOL0     C69166   0.011   3.962   2.131 -0.1659 -0.2429  0.3159
  502MOL0     C69167  -0.184   3.951   2.313 -0.8578 -0.2767 -0.2655
  502MOL0     C69168  -0.095   3.958   2.430 -0.2671  0.3483  0.1636
  502MOL0     O69169  -0.149   3.936   2.554 -0.5412 -0.2372  0.2771
  502MOL0     C69170  -0.068   3.956   2.670 -0.0918  0.2004 -0.1456
  502MOL0     C69171  -0.105   4.056   2.762 -0.2284  0.0366  0.5135
  502MOL0     C69172  -0.022   4.076   2.874  0.1093  0.1621 -1.0057
  502MOL0     C69173   0.098   4.006   2.891  0.4811 -0.1180 -0.1084
  502MOL0     O69174   0.168   4.023   3.007  0.2716 -0.1981 -0.2253
  502MOL0     C69175   0.249   4.135   3.004 -0.9410 -1.0713 -0.5223
  502MOL0     C69176   0.308   4.178   3.135  0.1993  0.2910 -0.9084
  502MOL0     C69177   0.369   4.060   3.207  0.0708 -0.1561  0.4356
  502MOL0     C69178   0.411   4.105   3.345  0.2319  1.2021 -0.3829
  502MOL0     C69179   0.483   3.979   3.419  0.2379 -0.3669  0.3971
  502MOL0     C69180   0.542   4.020   3.555  0.3310  0.3053  0.2856
  502MOL0     C69181   0.640   3.906   3.617  1.6484 -0.9415  0.3626
  502MOL0     C69182   0.561   3.775   3.642 -0.6987  0.0760 -0.1286
  502MOL0    Cl69183   0.665   3.678   3.739  0.0554  0.5023 -0.6329
  502MOL0     C69184   0.134   3.901   2.806  0.0240 -0.1648  0.2475
  502MOL0     C69185   0.050   3.879   2.691 -0.3813 -0.3851 -0.3631
  502MOL0     O69186   0.024   3.993   2.412 -0.5167  0.2784 -0.9387
  502MOL0     C69187  -0.317   3.947   2.339  0.8735 -0.0066  0.4261
  502MOL0     C69188  -0.407   3.970   2.235  0.5097 -0.6961 -0.0370
  502MOL0     N69189  -0.359   4.394   1.738 -0.5403 -0.2104 -0.9730
  502MOL0     N69190  -0.402   4.398   1.618  0.0202 -0.3803  0.0697
  502MOL0     C69191   0.088   4.840   2.036 -0.6412 -0.3954 -0.8901
  502MOL0     C69192   0.198   4.914   2.079  0.7592 -0.0587 -0.5054
  502MOL0     C69193   0.528   5.229   2.024 -0.8766 -0.1615  1.3363
  502MOL0     C69194   0.557   5.227   2.166  0.0764  1.0108 -0.1096
  502MOL0     C69195   0.653   5.308   2.224  0.3681 -1.1722 -0.9050
  502MOL0     C69196   0.742   5.379   2.148  0.3424 -0.8132 -1.0829
  502MOL0     O69197   0.829   5.459   2.226  0.1085  1.0934 -0.1121
  502MOL0     C69198   0.920   5.542   2.159 -0.3718 -0.1585 -0.3729
  502MOL0     C69199   1.031   5.449   2.090  0.7092  1.2288 -0.4837
  502MOL0     C69200   1.118   5.516   1.982  0.6666 -0.4610  1.0140
  502MOL0     C69201   1.056   5.564   1.853  0.2660 -0.3037  0.1551
  502MOL0     C69202   1.028   5.712   1.855 -0.0665  0.4718  0.6942
  502MOL0     C69203   1.003   5.829   1.842  0.0707 -0.3837 -0.1663
  502MOL0     C69204   0.723   5.372   2.012 -0.1507  0.5265  0.0706
  502MOL0     C69205   0.616   5.303   1.943 -0.9965  0.3803  0.4126
  502MOL0     C69206   0.609   5.313   1.802  0.2477  0.2790  0.0402
  502MOL0     H69207   0.105   5.221   1.950  2.2697 -0.1009 -3.9193
  502MOL0     H69208  -0.073   5.088   1.871  1.1936  0.8696 -0.2078
  502MOL0     H69209  -0.192   4.666   1.839 -0.3395  0.7380 -4.2821
  502MOL0     H69210  -0.008   4.661   1.866  2.3176  1.7749 -2.9548
  502MOL0     H69211   0.038   4.790   1.675 -1.2617  0.4594 -1.2543
  502MOL0     H69212  -0.089   4.667   1.629 -0.2247 -1.7318  2.8430
  502MOL0     H69213  -0.139   4.959   1.690 -1.6650 -0.2074  0.1108
  502MOL0     H69214  -0.108   4.900   1.534 -0.6649  4.4371  0.5532
  502MOL0     H69215  -0.337   4.844   1.714 -3.0623  0.2339 -0.1160
  502MOL0     H69216  -0.341   4.940   1.576 -0.8720 -0.4660  0.1064
  502MOL0     H69217  -0.302   4.635   1.586 -1.5114 -0.6672 -0.9577
  502MOL0     H69218  -0.244   4.729   1.452 -0.7270 -1.3166 -1.2063
  502MOL0     H69219  -0.526   4.769   1.545  0.3491  0.9075 -1.2418
  502MOL0     H69220  -0.475   4.788   1.386 -0.3846  0.1349  0.6716
  502MOL0     H69221  -0.413   4.516   1.415 -0.9474 -0.9259  2.5489
  502MOL0     H69222  -0.545   4.586   1.313  0.9899 -1.3367 -1.0486
  502MOL0     H69223  -0.652   4.596   1.552  0.6897  2.3265 -2.2920
  502MOL0     H69224  -0.654   4.431   1.465 -0.1333  1.6919 -1.9607
  502MOL0     H69225  -0.630   4.561   1.785  0.6989 -1.7316  2.0049
  502MOL0     H69226  -0.498   4.511   2.016 -1.3405 -0.5289 -0.9607
  502MOL0     H69227  -0.314   4.503   1.985 -0.8581  2.8131 -0.4333
  502MOL0     H69228  -0.301   4.289   2.044  0.0549 -0.7847  0.2984
  502MOL0     H69229  -0.412   4.351   2.152  3.8819  0.8339 -0.1103
  502MOL0     H69230  -0.552   4.192   2.091  0.4502 -1.7107 -0.4038
  502MOL0     H69231  -0.581   4.269   1.931 -0.5376  0.8942  1.3940
  502MOL0     H69232  -0.505   4.095   1.845 -0.5758  1.6464 -0.0540
  502MOL0     H69233  -0.339   4.133   1.902  0.1975 -2.0195 -0.2916
  502MOL0     H69234  -0.184   3.995   1.978 -0.5740 -0.8420  0.1959
  502MOL0     H69235   0.012   3.985   2.023 -2.2383 -0.4889  0.2120
  502MOL0     H69236   0.053   3.861   2.128 -0.3337 -0.2959 -0.9962
  502MOL0     H69237   0.081   4.032   2.178  0.3173  0.2034 -1.0005
  502MOL0     H69238  -0.190   4.114   2.729 -1.6184 -0.7948  2.4407
  502MOL0     H69239  -0.048   4.164   2.933 -0.8578 -0.9027  0.2122
  502MOL0     H69240   0.334   4.125   2.936  1.1076  4.9295  0.5347
  502MOL0     H69241   0.186   4.221   2.978  1.1438  1.2648  1.6169
  502MOL0     H69242   0.375   4.262   3.115  2.3203 -1.5554 -1.9695
  502MOL0     H69243   0.221   4.207   3.195  1.7098  0.5504  1.2788
  502MOL0     H69244   0.457   4.025   3.152 -0.4475  1.1258 -1.3092
  502MOL0     H69245   0.309   3.969   3.213 -2.3044  1.2441 -0.5869
  502MOL0     H69246   0.322   4.126   3.405 -0.6700  1.1121 -1.6626
  502MOL0     H69247   0.480   4.190   3.348  1.9380 -0.1525  1.2477
  502MOL0     H69248   0.402   3.911   3.448  0.7321 -0.8806  0.6028
  502MOL0     H69249   0.547   3.929   3.345  1.0810  1.9275 -0.5048
  502MOL0     H69250   0.461   4.045   3.623 -0.3827 -0.1679 -0.3699
  502MOL0     H69251   0.606   4.109   3.545  0.0118  0.3962 -1.1787
  502MOL0     H69252   0.682   3.948   3.709  0.9927 -0.1798  0.3142
  502MOL0     H69253   0.730   3.893   3.556  2.9068 -0.5501  2.0334
  502MOL0     H69254   0.550   3.720   3.548  0.9529  0.0888 -0.3653
  502MOL0     H69255   0.465   3.798   3.689  1.3432  0.5340  4.2960
  502MOL0     H69256   0.226   3.845   2.820 -1.2580 -1.9577  1.9144
  502MOL0     H69257   0.075   3.803   2.618 -0.3995 -1.4432  0.6990
  502MOL0     H69258  -0.365   3.921   2.432  0.1496 -0.0701  0.0458
  502MOL0     H69259  -0.515   3.966   2.248  0.2954  1.7885 -0.6731
  502MOL0     H69260   0.077   4.740   2.074 -3.3588  0.6833  1.4887
  502MOL0     H69261   0.263   4.862   2.148 -0.1691  1.4257  1.6138
  502MOL0     H69262   0.498   5.163   2.230 -0.4331 -0.6103 -2.0895
  502MOL0     H69263   0.674   5.300   2.330  4.2483 -3.3634 -1.6337
  502MOL0     H69264   0.870   5.612   2.092  0.0122 -0.2326 -0.7395
  502MOL0     H69265   0.970   5.610   2.228  2.8957  0.9299 -3.5293
  502MOL0     H69266   0.986   5.367   2.034  3.4476  0.0512 -1.1098
  502MOL0     H69267   1.096   5.409   2.169 -1.5625 -0.4724  0.6233
  502MOL0     H69268   1.176   5.596   2.030 -1.0221  1.1982  0.4465
  502MOL0     H69269   1.189   5.440   1.950  1.6000  1.3877 -1.7626
  502MOL0     H69270   0.964   5.511   1.829  0.1420  0.0071 -0.0561
  502MOL0     H69271   1.130   5.539   1.776 -1.3904 -2.6104 -0.7923
  502MOL0     H69272   0.971   5.928   1.819  0.7482 -0.0546  0.2865
  502MOL0     H69273   0.797   5.422   1.951 -0.5186 -2.8510 -3.5236
  502MOL0     H69274   0.693   5.377   1.773 -0.3095 -0.1934 -3.0032
  502MOL0     H69275   0.613   5.220   1.743 -2.3152  0.5486 -0.6765
  502MOL0     H69276   0.509   5.348   1.776  0.2089 -1.0107 -1.7643
  503MOL0     O69277   1.968   0.160   0.479  0.5403 -0.3793 -0.5611
  503MOL0     C69278   1.898   0.150   0.577 -0.8272  0.3241  0.4733
  503MOL0     O69279   1.895   0.247   0.676 -0.7219  0.0253 -0.1094
  503MOL0     C69280   1.994   0.340   0.694  0.3696 -1.2102  0.1797
  503MOL0     C69281   1.962   0.474   0.692 -0.9485 -0.4507  0.0454
  503MOL0     C69282   2.063   0.570   0.679 -0.9329  0.0117  0.5123
  503MOL0     C69283   2.197   0.537   0.661 -0.2075 -0.3978  0.8211
  503MOL0     O69284   2.293   0.623   0.611 -0.0153 -0.0888 -0.8021
  503MOL0     C69285   2.437   0.591   0.603  0.3092  0.9965  1.3632
  503MOL0     C69286   2.495   0.721   0.532 -0.3488  0.2778 -0.5662
  503MOL0     C69287   2.645   0.732   0.525 -0.4027 -0.0093  0.4073
  503MOL0     C69288   2.708   0.617   0.449 -0.7471  0.3934  0.7695
  503MOL0     C69289   2.868   0.637   0.444 -0.3952 -0.4765  0.5693
  503MOL0     C69290   2.925   0.583   0.310  1.1176 -0.3805  0.7281
  503MOL0     C69291   2.930   0.433   0.311  0.3732 -0.5334 -1.2843
  503MOL0     C69292   2.971   0.373   0.176 -0.4798  0.1710  0.2639
  503MOL0     N69293   3.112   0.402   0.141 -0.5792 -0.0953  0.8703
  503MOL0     C69294   3.224   0.337   0.190 -0.1491 -0.1019 -0.0010
  503MOL0     C69295   3.321   0.401   0.113  0.2129  0.4074  0.1665
  503MOL0     C69296   3.459   0.354   0.104  0.1725 -0.3595  0.7293
  503MOL0     C69297   3.507   0.340  -0.045  0.3751 -0.4517 -0.5325
  503MOL0     C69298   3.438   0.223  -0.123  0.1880 -0.1846 -0.4348
  503MOL0     C69299   3.449   0.257  -0.280  0.2939  0.2003 -0.9397
  503MOL0     O69300   3.346   0.193  -0.365  0.4531 -0.3182 -0.8531
  503MOL0     C69301   3.214   0.231  -0.375  0.4606  0.3677 -0.4515
  503MOL0     C69302   3.160   0.347  -0.315 -0.2804  0.5529 -0.3447
  503MOL0     C69303   3.029   0.387  -0.326  0.0220  1.3804  0.8808
  503MOL0     C69304   2.992   0.524  -0.273  0.0638 -0.1642 -0.5832
  503MOL0     C69305   2.942   0.302  -0.396  0.0546 -1.0115  0.0652
  503MOL0     C69306   2.800   0.335  -0.416  0.4141  0.0758 -0.3829
  503MOL0     O69307   2.749   0.462  -0.411  0.5655  0.3263  0.1216
  503MOL0     C69308   2.614   0.504  -0.407  1.1593 -0.0101  0.8791
  503MOL0     C69309   2.582   0.633  -0.352  0.3281 -0.3499  1.3337
  503MOL0     C69310   2.454   0.682  -0.344 -0.6231  0.3530  0.1252
  503MOL0     C69311   2.347   0.613  -0.401  0.6844  0.3245  0.5123
  503MOL0     O69312   2.218   0.658  -0.411  0.1409  0.5355  0.0629
  503MOL0     C69313   2.151   0.673  -0.283  0.2150 -0.0927 -0.1676
  503MOL0     C69314   2.121   0.540  -0.206  0.2040 -0.4218  0.4954
  503MOL0     C69315   2.045   0.454  -0.301  0.2096  0.0418  0.3660
  503MOL0     C69316   1.927   0.398  -0.230  0.5916  0.3656  1.1388
  503MOL0     C69317   1.845   0.314  -0.321  0.3796 -0.4531 -0.5609
  503MOL0     C69318   1.722   0.250  -0.240 -0.2540 -0.7060 -0.6371
  503MOL0     C69319   1.628   0.165  -0.325 -0.1417 -0.0425  0.3964
  503MOL0     C69320   1.520   0.090  -0.250 -0.3058  0.2198  0.5902
  503MOL0    Cl69321   1.400   0.199  -0.178 -0.5181 -0.0412 -0.1080
  503MOL0     C69322   2.371   0.487  -0.444 -0.3505  0.1085 -0.4298
  503MOL0     C69323   2.505   0.431  -0.445  0.5045  0.0912 -0.0984
  503MOL0     O69324   2.727   0.230  -0.420  0.0907  0.2524  0.3643
  503MOL0     C69325   2.992   0.177  -0.441 -0.8580  0.9068  0.3251
  503MOL0     C69326   3.128   0.144  -0.431  0.4076 -0.1464  0.1457
  503MOL0     N69327   3.269   0.504   0.044 -0.3142 -0.7446  0.5772
  503MOL0     N69328   3.141   0.501   0.049  0.2350  1.1541 -1.1146
  503MOL0     C69329   2.234   0.398   0.682  0.3320  0.0843 -0.2002
  503MOL0     C69330   2.130   0.305   0.693  0.3074  0.5051  0.5259
  503MOL0     C69331   1.813   0.031   0.603  0.7655  1.3726 -0.5143
  503MOL0     C69332   1.766   0.009   0.735 -0.2406 -0.7016  0.0044
  503MOL0     C69333   1.685  -0.105   0.764  0.5422  0.0386 -0.9768
  503MOL0     C69334   1.648  -0.193   0.664 -0.2455 -0.3451  0.4149
  503MOL0     O69335   1.567  -0.303   0.678 -0.2345 -0.0797 -0.5160
  503MOL0     C69336   1.525  -0.358   0.801 -0.1791 -0.5003  0.4406
  503MOL0     C69337   1.624  -0.440   0.881 -0.2448  0.3670 -1.0087
  503MOL0     C69338   1.699  -0.534   0.772  0.0535  0.1608 -0.2246
  503MOL0     C69339   1.790  -0.637   0.836  1.1280  0.0638 -0.1274
  503MOL0     C69340   1.839  -0.742   0.744  0.0755 -1.1753  0.1323
  503MOL0     C69341   1.902  -0.816   0.670  0.7687  0.0518  0.4450
  503MOL0     C69342   1.702  -0.179   0.535  0.0217 -0.7637 -0.1933
  503MOL0     C69343   1.788  -0.075   0.504 -0.4471 -0.6582 -0.3531
  503MOL0     C69344   1.856  -0.074   0.358  0.0969  0.1646 -1.3237
  503MOL0     H69345   1.858   0.506   0.693 -0.0343  2.9852  0.5873
  503MOL0     H69346   2.032   0.670   0.651 -1.8453 -0.7989 -1.5248
  503MOL0     H69347   2.452   0.502   0.540 -2.0045  2.1354 -0.9805
  503MOL0     H69348   2.472   0.573   0.705  0.5174 -0.3759  1.0795
  503MOL0     H69349   2.444   0.731   0.436 -3.4039 -1.0769  0.7839
  503MOL0     H69350   2.462   0.810   0.587  0.9801  0.2310  0.3560
  503MOL0     H69351   2.673   0.831   0.490  0.2870  1.1459  3.7990
  503MOL0     H69352   2.678   0.738   0.630 -0.1568  1.7039  0.2665
  503MOL0     H69353   2.687   0.518   0.491  3.3061 -0.1811  1.8587
  503MOL0     H69354   2.669   0.630   0.348 -1.3229  3.0066  1.2779
  503MOL0     H69355   2.918   0.596   0.532  2.9969 -0.1240 -1.0415
  503MOL0     H69356   2.884   0.745   0.448  2.2172 -0.7910  0.0874
  503MOL0     H69357   2.854   0.607   0.230 -0.2879  0.9381  2.2762
  503MOL0     H69358   3.020   0.628   0.283  0.3649  0.9812  0.2237
  503MOL0     H69359   2.830   0.398   0.338 -0.0918  2.7748  2.2304
  503MOL0     H69360   3.001   0.392   0.382 -0.5924 -1.1751 -0.6648
  503MOL0     H69361   2.965   0.265   0.193 -0.0453  0.3327  1.4716
  503MOL0     H69362   2.909   0.400   0.089 -2.6032 -2.4224  0.8373
  503MOL0     H69363   3.233   0.246   0.248 -2.1193 -1.2700 -1.3899
  503MOL0     H69364   3.468   0.260   0.160 -1.6503  1.1418  3.8454
  503MOL0     H69365   3.517   0.431   0.156 -0.0097  0.6223 -0.4778
  503MOL0     H69366   3.479   0.429  -0.102  0.3928  0.9845  1.5819
  503MOL0     H69367   3.617   0.337  -0.043  0.6746  1.3930  5.0416
  503MOL0     H69368   3.474   0.122  -0.103  4.0582  0.8659 -1.3849
  503MOL0     H69369   3.335   0.228  -0.085  0.6726  1.1862  0.8035
  503MOL0     H69370   3.459   0.364  -0.297 -0.4277  0.2062 -1.3684
  503MOL0     H69371   3.551   0.231  -0.311  1.8517  2.2056  2.0490
  503MOL0     H69372   3.219   0.418  -0.258 -1.8703 -0.2972  2.5395
  503MOL0     H69373   2.987   0.598  -0.353  0.5632 -0.1858 -0.6406
  503MOL0     H69374   3.056   0.555  -0.189  0.3850 -0.2830 -0.7829
  503MOL0     H69375   2.892   0.522  -0.227 -1.0014  4.3310 -2.2700
  503MOL0     H69376   2.655   0.694  -0.301 -0.9319  1.4125  1.1344
  503MOL0     H69377   2.436   0.782  -0.305  1.3182  0.6095  0.4454
  503MOL0     H69378   2.205   0.749  -0.226 -1.1475  1.6152 -1.0413
  503MOL0     H69379   2.057   0.714  -0.319  1.0000  1.0584 -0.9745
  503MOL0     H69380   2.210   0.480  -0.181  1.0236  1.0287  1.1420
  503MOL0     H69381   2.076   0.559  -0.109  0.1568  1.6295  0.1184
  503MOL0     H69382   2.116   0.380  -0.340 -0.4561 -0.8598  0.8260
  503MOL0     H69383   2.006   0.507  -0.388 -1.8925  0.1487  1.3131
  503MOL0     H69384   1.871   0.486  -0.198  3.7536  3.6948 -1.5512
  503MOL0     H69385   1.959   0.341  -0.142  0.8236 -0.7965  0.3224
  503MOL0     H69386   1.810   0.363  -0.412  1.1125  2.9758  0.8768
  503MOL0     H69387   1.905   0.229  -0.353 -0.9248 -2.0115  0.8910
  503MOL0     H69388   1.666   0.334  -0.198  0.5607 -0.1326 -0.6662
  503MOL0     H69389   1.757   0.190  -0.156  1.6413 -0.3118 -1.0903
  503MOL0     H69390   1.688   0.092  -0.382  1.4474  0.6714  1.0929
  503MOL0     H69391   1.571   0.234  -0.388 -0.3034 -0.2239  0.3436
  503MOL0     H69392   1.562   0.018  -0.179 -0.4019 -0.1205  0.3060
  503MOL0     H69393   1.474   0.019  -0.319 -0.5171 -1.6744  2.5653
  503MOL0     H69394   2.289   0.426  -0.482  0.8464 -0.8700 -1.5533
  503MOL0     H69395   2.510   0.329  -0.480  1.0201  0.7179 -1.9905
  503MOL0     H69396   2.935   0.102  -0.496  0.2261 -1.2559  1.9820
  503MOL0     H69397   3.174   0.054  -0.471  2.3682  0.5057  0.7993
  503MOL0     H69398   2.338   0.370   0.669  0.2525 -0.0513 -0.5742
  503MOL0     H69399   2.165   0.202   0.705 -0.8209  0.1436  0.8520
  503MOL0     H69400   1.789   0.087   0.807  4.9444 -3.0232  1.4091
  503MOL0     H69401   1.648  -0.122   0.864 -1.1395 -0.4295 -1.6474
  503MOL0     H69402   1.491  -0.277   0.866 -3.4628  0.0589 -1.7445
  503MOL0     H69403   1.438  -0.416   0.772  0.5703 -0.4138 -2.2236
  503MOL0     H69404   1.568  -0.494   0.958  2.1198 -2.3663 -1.0298
  503MOL0     H69405   1.692  -0.371   0.933 -2.0950  1.5366 -0.0533
  503MOL0     H69406   1.628  -0.575   0.700 -1.2094  3.7513 -1.2152
  503MOL0     H69407   1.755  -0.462   0.711  0.0462 -2.0961 -3.0898
  503MOL0     H69408   1.738  -0.694   0.914 -0.9548  2.5343  0.4613
  503MOL0     H69409   1.870  -0.575   0.877 -0.6669  3.9868 -1.9894
  503MOL0     H69410   1.957  -0.896   0.624 -0.6203 -0.0649 -1.0751
  503MOL0     H69411   1.673  -0.249   0.457  2.0655 -1.5296 -0.3335
  503MOL0     H69412   1.866   0.030   0.324 -0.7800  0.6631 -0.1471
  503MOL0     H69413   1.955  -0.119   0.369 -0.8478 -1.8468 -0.6692
  503MOL0     H69414   1.807  -0.127   0.276 -3.1103  0.9445 -0.0776
  504MOL0     O69415   2.838   9.851   2.801 -0.1036  0.9701 -0.0241
  504MOL0     C69416   2.866   9.802   2.695  0.3844  0.0274 -0.2385
  504MOL0     O69417   2.771   9.737   2.624 -0.4136  0.6425  0.6845
  504MOL0     C69418   2.641   9.760   2.644  0.2615  0.0190 -0.9924
  504MOL0     C69419   2.580   9.862   2.714  0.6673  0.6601  0.3961
  504MOL0     C69420   2.444   9.870   2.719  0.6318  0.6706  0.5516
  504MOL0     C69421   2.370   9.767   2.666  1.0199 -1.0847  0.0789
  504MOL0     O69422   2.229   9.770   2.659 -0.3003  0.3468 -0.8258
  504MOL0     C69423   2.177   9.688   2.769  0.0382  0.6109  0.1594
  504MOL0     C69424   2.049   9.748   2.813  0.0162 -0.7179  0.4786
  504MOL0     C69425   1.941   9.727   2.697 -0.0323 -0.0245 -0.6226
  504MOL0     C69426   1.822   9.814   2.734  0.3115 -0.8682  0.7195
  504MOL0     C69427   1.696   9.777   2.648  0.0047 -0.1630 -0.2544
  504MOL0     C69428   1.716   9.765   2.490  0.4333  0.0002 -0.2868
  504MOL0     C69429   1.757   9.904   2.433  0.5772  0.6451 -0.1743
  504MOL0     C69430   1.766   9.894   2.291  0.5269 -0.5737  0.5582
  504MOL0     N69431   1.822  10.010   2.237 -0.4727  0.4898  0.1060
  504MOL0     C69432   1.776  10.139   2.246 -0.1601 -0.0653 -0.4154
  504MOL0     C69433   1.873  10.218   2.197  1.0663  0.4549  0.1362
  504MOL0     C69434   1.879  10.368   2.190 -0.3142  0.1701  0.4797
  504MOL0     C69435   1.941  10.417   2.328 -0.9629 -0.3371  0.3176
  504MOL0     C69436   2.102  10.416   2.311 -0.3427  1.0699  0.0804
  504MOL0     C69437   2.169  10.421   2.446  0.5271  0.2770 -0.4294
  504MOL0     O69438   2.109  10.526   2.525  0.0945  0.7544  0.1537
  504MOL0     C69439   2.173  10.565   2.647  0.0392  0.0276  0.2039
  504MOL0     C69440   2.114  10.668   2.719 -0.5217  0.2229  0.7186
  504MOL0     C69441   2.162  10.723   2.835  0.6557 -0.1506 -0.7149
  504MOL0     C69442   2.101  10.850   2.901  0.4092  0.7838 -0.1001
  504MOL0     C69443   2.274  10.653   2.893  0.3883 -0.9037 -0.0663
  504MOL0     C69444   2.322  10.675   3.033 -0.2678 -0.2158  0.1293
  504MOL0     O69445   2.304  10.796   3.097  0.4186  0.8247 -0.4499
  504MOL0     C69446   2.334  10.824   3.224 -0.6573 -0.4807  0.1969
  504MOL0     C69447   2.316  10.742   3.330  0.0568 -0.8792 -0.4696
  504MOL0     C69448   2.342  10.776   3.465 -0.1494 -0.3586  0.6050
  504MOL0     C69449   2.384  10.907   3.498 -0.3875 -0.4284 -0.9284
  504MOL0     O69450   2.390  10.936   3.628  1.0756  0.2142  0.5677
  504MOL0     C69451   2.370  11.071   3.664 -0.2994  0.2846 -0.7229
  504MOL0     C69452   2.407  11.084   3.807 -0.2227  0.2713 -0.3566
  504MOL0     C69453   2.325  10.990   3.900 -0.2548 -0.1686 -0.4802
  504MOL0     C69454   2.356  11.021   4.051  0.9596  0.9709 -0.1424
  504MOL0     C69455   2.244  10.977   4.134 -0.2481 -0.5885  0.5900
  504MOL0     C69456   2.132  11.084   4.133 -0.2365 -0.1831  0.3290
  504MOL0     C69457   2.149  11.192   4.238  0.2521 -1.0694  0.1879
  504MOL0     C69458   2.031  11.182   4.333  0.4824 -0.0456  0.7251
  504MOL0    Cl69459   2.057  11.319   4.440  0.2628  0.2571  0.2031
  504MOL0     C69460   2.406  10.989   3.389  0.2448 -1.0856  0.2138
  504MOL0     C69461   2.383  10.953   3.252  1.2216 -0.9585  0.1441
  504MOL0     O69462   2.381  10.583   3.088  0.4926  0.6909  1.1183
  504MOL0     C69463   2.346  10.552   2.826  0.1258 -0.0020 -0.4383
  504MOL0     C69464   2.291  10.512   2.703 -0.4930 -0.4264  0.3653
  504MOL0     N69465   1.977  10.131   2.151  0.2439 -0.0507  0.2191
  504MOL0     N69466   1.947  10.006   2.179 -0.4563 -1.4931  0.0897
  504MOL0     C69467   2.426   9.658   2.596  0.1100  0.3520  0.5640
  504MOL0     C69468   2.567   9.665   2.579  0.1826 -0.6236 -0.4166
  504MOL0     C69469   3.002   9.817   2.640 -0.0838 -0.4662 -0.6813
  504MOL0     C69470   3.071   9.928   2.667  0.3004  0.0394 -0.6087
  504MOL0     C69471   3.179   9.961   2.590 -1.6751  0.1094  0.6905
  504MOL0     C69472   3.226   9.887   2.491 -0.4408  0.2226 -0.1550
  504MOL0     O69473   3.333   9.929   2.419 -0.5663  0.6632  0.2330
  504MOL0     C69474   3.381   9.848   2.309  0.0482  0.7531 -1.1289
  504MOL0     C69475   3.495   9.922   2.247 -1.1241  0.2560 -0.5336
  504MOL0     C69476   3.629   9.890   2.322  0.7786  0.3176 -0.4629
  504MOL0     C69477   3.744   9.982   2.287 -0.8207  0.1661 -0.3653
  504MOL0     C69478   3.784   9.942   2.153  0.0165 -0.6058  0.2283
  504MOL0     C69479   3.824   9.919   2.042  0.0565  0.4630  0.0392
  504MOL0     C69480   3.163   9.766   2.470  0.7947 -0.7345 -0.0472
  504MOL0     C69481   3.048   9.729   2.537  0.2060 -0.4545  0.9708
  504MOL0     C69482   2.980   9.599   2.506  0.3046 -0.2860  0.2025
  504MOL0     H69483   2.637   9.943   2.759  1.5944  0.9954 -1.3263
  504MOL0     H69484   2.395   9.940   2.786  1.2092  2.5979 -0.9598
  504MOL0     H69485   2.241   9.683   2.858  1.1102 -2.8972 -0.6289
  504MOL0     H69486   2.158   9.585   2.737 -2.2028  0.7515  0.8843
  504MOL0     H69487   1.996   9.712   2.901 -2.1556  1.8509  0.3638
  504MOL0     H69488   2.065   9.855   2.834  2.5448 -0.2382 -3.0315
  504MOL0     H69489   1.996   9.763   2.610 -0.4408 -1.2336 -1.3956
  504MOL0     H69490   1.916   9.622   2.679 -0.3128 -0.5458  2.2537
  504MOL0     H69491   1.800   9.812   2.842  0.8234  0.6753  0.8852
  504MOL0     H69492   1.854   9.919   2.726 -1.0770 -0.3764  1.2498
  504MOL0     H69493   1.607   9.839   2.660 -0.0285  0.4953 -3.1594
  504MOL0     H69494   1.668   9.677   2.683  3.9047 -0.1716  3.6320
  504MOL0     H69495   1.792   9.687   2.479 -1.8362 -2.2967 -0.5564
  504MOL0     H69496   1.634   9.718   2.435 -1.3559 -2.5006  4.0519
  504MOL0     H69497   1.857   9.927   2.470  1.0625 -1.7503  0.1576
  504MOL0     H69498   1.682   9.979   2.460  0.3029  0.0526  0.7681
  504MOL0     H69499   1.821   9.806   2.257 -0.5770  0.0446 -3.2474
  504MOL0     H69500   1.664   9.884   2.253 -0.9113  0.2512  3.8450
  504MOL0     H69501   1.677  10.162   2.282 -0.4338 -0.9915 -0.5337
  504MOL0     H69502   1.776  10.403   2.173 -0.6462 -0.7604  0.5187
  504MOL0     H69503   1.946  10.387   2.105  1.8093 -0.2191  1.9967
  504MOL0     H69504   1.920  10.523   2.350  0.1920  0.1917 -0.9799
  504MOL0     H69505   1.919  10.355   2.416 -0.8671 -2.5011 -1.1265
  504MOL0     H69506   2.120  10.324   2.256 -2.3143 -0.0265  1.1569
  504MOL0     H69507   2.133  10.501   2.249  1.0167  0.4626 -0.1121
  504MOL0     H69508   2.147  10.323   2.489  0.3659 -0.0259 -1.1831
  504MOL0     H69509   2.275  10.440   2.430  0.3988  3.0108  1.3671
  504MOL0     H69510   2.019  10.701   2.676 -0.6249 -1.6745 -0.6400
  504MOL0     H69511   2.177  10.925   2.877 -0.2275  0.6304 -3.0340
  504MOL0     H69512   2.069  10.839   3.005  1.7725  0.3797  0.3065
  504MOL0     H69513   2.019  10.875   2.833 -0.5127 -1.5168  0.0569
  504MOL0     H69514   2.270  10.646   3.310 -3.5606  0.6358 -0.1546
  504MOL0     H69515   2.331  10.697   3.539  2.6742 -0.4852  1.0157
  504MOL0     H69516   2.439  11.126   3.600 -0.1379 -0.0623 -0.8479
  504MOL0     H69517   2.266  11.101   3.647  0.6397  2.5038 -3.3538
  504MOL0     H69518   2.516  11.080   3.819 -0.2347 -1.6552 -0.5615
  504MOL0     H69519   2.377  11.186   3.832 -2.4697 -0.4776  0.2500
  504MOL0     H69520   2.338  10.883   3.880 -0.4472 -0.6017  1.5098
  504MOL0     H69521   2.219  11.006   3.880 -0.3835 -0.1007  0.2206
  504MOL0     H69522   2.370  11.130   4.055  4.0834  0.6826 -0.7606
  504MOL0     H69523   2.445  10.968   4.087 -0.9199  0.0850  3.7733
  504MOL0     H69524   2.199  10.886   4.093 -1.8278  0.0241  0.8734
  504MOL0     H69525   2.283  10.957   4.234 -1.5521 -0.2343  1.1882
  504MOL0     H69526   2.041  11.024   4.144  0.8929 -1.9551  0.5027
  504MOL0     H69527   2.127  11.138   4.038 -2.2487 -2.4631 -0.9812
  504MOL0     H69528   2.151  11.292   4.195 -0.3792 -1.4432 -0.7686
  504MOL0     H69529   2.239  11.182   4.299  0.4826  1.2835  0.2930
  504MOL0     H69530   2.013  11.089   4.387 -1.2706  0.0496  0.3647
  504MOL0     H69531   1.933  11.195   4.285  0.3517 -3.1111  0.0185
  504MOL0     H69532   2.455  11.086   3.391  0.6912 -1.0882 -3.3293
  504MOL0     H69533   2.416  11.017   3.171 -2.3711  1.0170  0.0810
  504MOL0     H69534   2.432  10.497   2.861  0.6841  0.3741 -1.1897
  504MOL0     H69535   2.340  10.439   2.638  0.9693 -1.1428  2.1838
  504MOL0     H69536   2.356   9.578   2.574 -0.1644  0.9590 -0.8508
  504MOL0     H69537   2.623   9.589   2.525  2.6722  2.1531 -2.0044
  504MOL0     H69538   3.039   9.996   2.745 -0.8607 -1.3430  0.1829
  504MOL0     H69539   3.228  10.056   2.610 -0.1995 -0.4208 -0.2465
  504MOL0     H69540   3.416   9.750   2.345  0.2674  1.4022  0.5226
  504MOL0     H69541   3.306   9.845   2.229 -1.3259  0.0223  0.1155
  504MOL0     H69542   3.485  10.031   2.243  4.4193  1.3360  3.4380
  504MOL0     H69543   3.504   9.885   2.145  2.1499  2.7426 -1.2871
  504MOL0     H69544   3.612   9.889   2.430 -2.3978 -3.7469 -0.7517
  504MOL0     H69545   3.660   9.786   2.307  0.6855 -0.8067  5.2044
  504MOL0     H69546   3.832   9.969   2.349  0.8438  3.2040 -1.8646
  504MOL0     H69547   3.704  10.083   2.300  0.7435  0.5501  1.9054
  504MOL0     H69548   3.847   9.908   1.938  0.3271 -1.3480  0.2603
  504MOL0     H69549   3.195   9.710   2.382 -0.5606  1.7167 -2.2154
  504MOL0     H69550   2.969   9.552   2.604 -0.6770  0.9131  0.6939
  504MOL0     H69551   2.884   9.610   2.456  0.9321 -2.2299 -1.5512
  504MOL0     H69552   3.037   9.538   2.436 -1.2545 -0.7574 -0.7000
  505MOL0     O69553   9.213   0.604  10.373  0.7185  0.2477 -0.4517
  505MOL0     C69554   9.227   0.709  10.309  0.7016  0.3990  1.4277
  505MOL0     O69555   9.119   0.772  10.251 -0.1251  0.3241 -0.3084
  505MOL0     C69556   8.996   0.770  10.322 -0.1888 -0.2909  0.2001
  505MOL0     C69557   8.982   0.852  10.435  0.2242 -1.1221 -0.0616
  505MOL0     C69558   8.859   0.862  10.501 -0.3225  0.2336 -0.3044
  505MOL0     C69559   8.745   0.777  10.450  0.0256 -0.6188  0.1810
  505MOL0     O69560   8.616   0.780  10.505 -0.0240 -0.1118 -0.3275
  505MOL0     C69561   8.580   0.874  10.617  0.1926  0.4697  0.0278
  505MOL0     C69562   8.528   1.010  10.576  0.5251  0.7327 -0.2898
  505MOL0     C69563   8.538   1.118  10.689  0.3015 -0.4806 -0.0649
  505MOL0     C69564   8.456   1.088  10.817 -0.0837 -0.4822 -0.7983
  505MOL0     C69565   8.463   1.179  10.942  0.2075 -0.8913 -0.2814
  505MOL0     C69566   8.421   1.113  11.072  0.7571 -0.9309  0.1338
  505MOL0     C69567   8.419   1.209  11.194 -0.0800  1.4905  0.1839
  505MOL0     C69568   8.309   1.182  11.292 -0.3586  0.2126 -0.3146
  505MOL0     N69569   8.330   1.056  11.373 -0.3581  0.3159 -0.0743
  505MOL0     C69570   8.265   0.935  11.363 -1.1412  0.5148 -0.3854
  505MOL0     C69571   8.318   0.849  11.447 -0.7643 -0.3205 -0.0850
  505MOL0     C69572   8.314   0.706  11.470 -0.6944  0.2841  1.0165
  505MOL0     C69573   8.413   0.625  11.380 -0.0636 -0.0764 -0.0840
  505MOL0     C69574   8.392   0.481  11.431 -0.3000  0.1115 -0.0994
  505MOL0     C69575   8.504   0.446  11.524  0.3479 -0.2953 -0.2553
  505MOL0     O69576   8.474   0.321  11.593 -0.4822  0.3797 -0.4496
  505MOL0     C69577   8.575   0.267  11.665  0.3062  0.1080  0.3980
  505MOL0     C69578   8.698   0.329  11.692  0.9400 -1.1563  0.4608
  505MOL0     C69579   8.794   0.283  11.776 -1.2284 -0.1374  0.5751
  505MOL0     C69580   8.935   0.343  11.768 -0.6010 -0.2121  0.9514
  505MOL0     C69581   8.759   0.174  11.857 -0.3098 -0.2067 -0.6332
  505MOL0     C69582   8.849   0.109  11.958  0.0438  0.7715 -0.4623
  505MOL0     O69583   8.812  -0.017  12.000  0.7060 -0.2542  1.6173
  505MOL0     C69584   8.877  -0.064  12.115  0.7592 -0.1674 -0.2312
  505MOL0     C69585   8.955  -0.176  12.109 -0.1504 -0.2264  0.6925
  505MOL0     C69586   9.027  -0.220  12.224  0.0161  0.0019 -0.2452
  505MOL0     C69587   9.002  -0.170  12.348  0.3552 -0.2834 -0.2846
  505MOL0     O69588   9.059  -0.232  12.453  0.4692  0.3875 -0.5836
  505MOL0     C69589   9.170  -0.167  12.518 -0.4020 -0.2681  1.0870
  505MOL0     C69590   9.224  -0.230  12.639  0.5337 -0.0871 -0.5066
  505MOL0     C69591   9.316  -0.346  12.607 -0.1043  1.0329  0.6142
  505MOL0     C69592   9.458  -0.298  12.571  0.0047  0.6096 -0.0997
  505MOL0     C69593   9.552  -0.412  12.537 -0.1237  1.1333  0.2878
  505MOL0     C69594   9.511  -0.471  12.400  0.2560 -0.1183 -1.0976
  505MOL0     C69595   9.607  -0.596  12.377 -0.2783 -0.4708  0.0249
  505MOL0     C69596   9.728  -0.534  12.292 -0.0227 -0.3943 -0.3505
  505MOL0    Cl69597   9.861  -0.642  12.251 -0.1888  0.0353  0.0458
  505MOL0     C69598   8.913  -0.062  12.361 -0.3683 -0.5388 -0.1471
  505MOL0     C69599   8.853  -0.016  12.241  0.5605 -0.4757  0.7449
  505MOL0     O69600   8.952   0.161  11.996 -0.3131 -0.3136 -0.8145
  505MOL0     C69601   8.637   0.109  11.840 -0.4739 -0.1847  0.7231
  505MOL0     C69602   8.549   0.151  11.742  0.4990  0.6822  0.9025
  505MOL0     N69603   8.424   0.913  11.503 -0.0439 -0.5998  0.3294
  505MOL0     N69604   8.429   1.035  11.461 -0.3377  0.0958  1.0311
  505MOL0     C69605   8.765   0.697  10.336  0.3596  0.2311 -0.2906
  505MOL0     C69606   8.888   0.691  10.277  0.5406  0.0934 -0.6997
  505MOL0     C69607   9.356   0.772  10.296 -0.6724  0.6517  0.3751
  505MOL0     C69608   9.349   0.898  10.216 -0.8017  0.2516 -0.1928
  505MOL0     C69609   9.468   0.969  10.212 -0.0043 -0.4192  0.3424
  505MOL0     C69610   9.592   0.916  10.241 -0.1466  1.9484 -0.3932
  505MOL0     O69611   9.695   0.997  10.227  0.2706  0.6518  0.7612
  505MOL0     C69612   9.799   0.965  10.131  0.0384  0.9579 -0.4992
  505MOL0     C69613   9.757   1.042  10.007 -0.3974 -1.4016 -0.9495
  505MOL0     C69614   9.712   1.188  10.040 -0.4661 -0.1869  0.5432
  505MOL0     C69615   9.718   1.288   9.920 -0.4825 -0.1468  0.0589
  505MOL0     C69616   9.663   1.414   9.978  0.0481 -0.3205  0.8886
  505MOL0     C69617   9.612   1.522  10.012 -0.5349  0.1837 -0.2718
  505MOL0     C69618   9.603   0.791  10.297 -0.1435 -0.0670  0.8617
  505MOL0     C69619   9.490   0.711  10.327  0.7222  0.2131 -0.1019
  505MOL0     C69620   9.510   0.568  10.388  0.1588 -0.8694  0.1362
  505MOL0     H69621   9.077   0.898  10.460 -1.2570  2.6908 -0.6602
  505MOL0     H69622   8.852   0.914  10.596 -0.4452  1.0386 -0.7535
  505MOL0     H69623   8.659   0.882  10.693 -0.1505  1.9925  0.2610
  505MOL0     H69624   8.501   0.818  10.669  0.4019 -1.1727 -1.3442
  505MOL0     H69625   8.592   1.051  10.498 -0.8054  1.6124 -0.9524
  505MOL0     H69626   8.427   1.003  10.536  0.6084  1.2495 -0.5970
  505MOL0     H69627   8.641   1.138  10.718  0.2460  1.9362 -1.3174
  505MOL0     H69628   8.482   1.208  10.663 -3.0159 -2.5501 -0.7059
  505MOL0     H69629   8.355   1.078  10.777 -0.1557  1.0008 -1.0582
  505MOL0     H69630   8.492   0.992  10.853  1.2199  0.6478  1.1221
  505MOL0     H69631   8.385   1.253  10.920  1.4589  1.5787  2.7974
  505MOL0     H69632   8.568   1.210  10.955  0.5909 -0.5915 -3.3117
  505MOL0     H69633   8.317   1.091  11.045  0.9935  0.1453 -1.8859
  505MOL0     H69634   8.467   1.016  11.093 -2.1940 -2.4980 -0.0927
  505MOL0     H69635   8.402   1.313  11.165  2.3292  1.2084 -2.7043
  505MOL0     H69636   8.514   1.195  11.246 -0.1618 -2.7928 -0.4918
  505MOL0     H69637   8.307   1.262  11.366 -0.4363 -1.0515  1.1070
  505MOL0     H69638   8.214   1.181  11.238  0.7001 -0.1394 -2.2351
  505MOL0     H69639   8.179   0.898  11.307  0.1930 -2.6560 -0.5615
  505MOL0     H69640   8.212   0.670  11.458 -0.1457 -0.4965 -2.3691
  505MOL0     H69641   8.351   0.695  11.573  0.1703  0.4527  0.7305
  505MOL0     H69642   8.395   0.639  11.273  0.5612  0.1111 -0.1710
  505MOL0     H69643   8.515   0.664  11.382  0.2752 -0.7582 -2.3746
  505MOL0     H69644   8.293   0.459  11.471  1.0233 -0.6956  3.0808
  505MOL0     H69645   8.399   0.408  11.350  0.2950 -0.8744  0.8087
  505MOL0     H69646   8.599   0.431  11.472  0.2967  0.0052 -0.4404
  505MOL0     H69647   8.521   0.529  11.593  1.8765  1.0419 -2.1607
  505MOL0     H69648   8.728   0.418  11.637 -0.0975  0.6869  2.6953
  505MOL0     H69649   8.945   0.413  11.851  0.8048  0.6504  0.0957
  505MOL0     H69650   8.948   0.401  11.676  0.2738 -1.0634  0.5100
  505MOL0     H69651   9.018   0.271  11.772 -1.1534 -1.0738 -1.3749
  505MOL0     H69652   8.965  -0.228  12.014 -1.7605  3.9608 -2.0519
  505MOL0     H69653   9.090  -0.309  12.223  0.0583  0.0356 -0.8257
  505MOL0     H69654   9.251  -0.176  12.445  1.9996 -4.3817  3.8370
  505MOL0     H69655   9.152  -0.060  12.534  0.5083 -0.0285  0.5754
  505MOL0     H69656   9.280  -0.155  12.696 -1.1179 -0.9510  2.4452
  505MOL0     H69657   9.143  -0.271  12.699  0.7916  0.9148  0.5662
  505MOL0     H69658   9.268  -0.410  12.533  3.0365 -3.7412  2.2475
  505MOL0     H69659   9.320  -0.399  12.703  0.6786  1.4708  0.8366
  505MOL0     H69660   9.510  -0.248  12.654  0.0298  1.5002 -0.6483
  505MOL0     H69661   9.455  -0.231  12.485  0.9325 -0.3314 -0.8853
  505MOL0     H69662   9.656  -0.380  12.522  1.3426 -2.3560  1.7212
  505MOL0     H69663   9.557  -0.483  12.620 -1.8731 -0.8920 -1.2342
  505MOL0     H69664   9.515  -0.391  12.325  0.0874 -0.1775 -1.1699
  505MOL0     H69665   9.409  -0.510  12.409 -1.0542  3.2861  0.3542
  505MOL0     H69666   9.558  -0.675  12.319  1.8113  0.1439 -2.7816
  505MOL0     H69667   9.645  -0.648  12.465 -0.3061  1.5400  1.2964
  505MOL0     H69668   9.772  -0.456  12.355 -1.0993 -1.8615  2.3672
  505MOL0     H69669   9.691  -0.490  12.199  0.1354 -0.9875 -0.6944
  505MOL0     H69670   8.894  -0.030  12.463  0.4613 -3.5828  1.0780
  505MOL0     H69671   8.798   0.078  12.233  3.4828  1.2822 -0.2574
  505MOL0     H69672   8.601   0.016  11.883 -0.8409  0.3731  1.6595
  505MOL0     H69673   8.457   0.098  11.718  1.9611 -0.7668 -2.1178
  505MOL0     H69674   8.669   0.648  10.322 -0.3084  0.4840  2.6227
  505MOL0     H69675   8.911   0.619  10.199  1.3769 -0.2116 -0.1857
  505MOL0     H69676   9.259   0.948  10.182 -2.1558 -2.0412 -0.1253
  505MOL0     H69677   9.467   1.066  10.163  1.0286 -1.4835 -1.9787
  505MOL0     H69678   9.900   0.982  10.169 -0.4812  2.3094  0.3621
  505MOL0     H69679   9.801   0.861  10.097  0.3187  1.0642 -0.8049
  505MOL0     H69680   9.669   0.993   9.963 -1.8282 -0.1587  0.3803
  505MOL0     H69681   9.840   1.048   9.937  2.0574  2.5461  1.9349
  505MOL0     H69682   9.612   1.197  10.085 -1.0147  0.0141 -0.6784
  505MOL0     H69683   9.776   1.228  10.119  0.2376 -0.5545  0.1619
  505MOL0     H69684   9.649   1.259   9.840 -0.7096  3.8890 -1.4746
  505MOL0     H69685   9.825   1.294   9.894 -0.0997  1.0083  1.7619
  505MOL0     H69686   9.567   1.617  10.034 -1.6912 -0.4006 -0.0210
  505MOL0     H69687   9.706   0.757  10.302  1.0473  2.5511 -2.4943
  505MOL0     H69688   9.476   0.483  10.328  0.7336 -1.4895  0.6646
  505MOL0     H69689   9.617   0.552  10.397  0.1067 -1.3058  0.0105
  505MOL0     H69690   9.478   0.552  10.492  0.4259 -0.8259  0.2254
  506MOL0     O69691   6.783   1.915   5.481  0.2633  0.3025  0.1346
  506MOL0     C69692   6.703   1.831   5.448  0.0990 -0.2195 -0.2313
  506MOL0     O69693   6.574   1.859   5.418 -0.1314  0.7488 -0.3412
  506MOL0     C69694   6.531   1.987   5.445 -0.3104  1.1737 -0.6001
  506MOL0     C69695   6.510   2.091   5.352  0.9814  0.6074  0.0967
  506MOL0     C69696   6.444   2.213   5.377  1.2255  0.1946  0.0205
  506MOL0     C69697   6.387   2.232   5.503 -0.0607 -0.3974 -1.2855
  506MOL0     O69698   6.323   2.348   5.525  0.0007 -0.5598  0.4800
  506MOL0     C69699   6.187   2.344   5.559  0.5879  0.7123  0.3258
  506MOL0     C69700   6.142   2.489   5.544  0.5271 -0.4094  0.2446
  506MOL0     C69701   6.085   2.531   5.398  0.2107 -0.5131 -0.6096
  506MOL0     C69702   6.210   2.548   5.303 -1.0326 -0.0118  0.8078
  506MOL0     C69703   6.163   2.589   5.164 -0.0284  0.2151  0.5501
  506MOL0     C69704   6.273   2.646   5.074  0.1068 -0.0331 -0.2200
  506MOL0     C69705   6.371   2.535   5.039  0.4936 -0.8045  0.2030
  506MOL0     C69706   6.492   2.586   4.955 -0.1747  0.0412  0.2568
  506MOL0     N69707   6.623   2.503   4.962 -0.5941 -0.0339  0.3015
  506MOL0     C69708   6.627   2.360   4.941 -0.4746 -0.5918 -0.4490
  506MOL0     C69709   6.758   2.332   4.934 -0.0616 -0.1790  0.4637
  506MOL0     C69710   6.835   2.205   4.891 -0.0420 -0.2277 -0.0610
  506MOL0     C69711   6.869   2.145   5.016 -0.5180  0.0997  0.9259
  506MOL0     C69712   6.930   2.004   5.004 -0.2424  0.6392  0.4037
  506MOL0     C69713   7.029   1.978   5.117 -0.9890 -0.2212  0.6590
  506MOL0     O69714   7.111   1.868   5.077  0.3036 -0.8787  0.2483
  506MOL0     C69715   7.209   1.838   5.167  0.4631  0.5060  0.2181
  506MOL0     C69716   7.326   1.908   5.152  0.4542  0.2885 -0.2943
  506MOL0     C69717   7.434   1.894   5.234 -0.4349 -1.0410 -0.5342
  506MOL0     C69718   7.557   1.990   5.208  0.8132  0.1215  0.0501
  506MOL0     C69719   7.423   1.799   5.343  0.1536  0.0072  0.5775
  506MOL0     C69720   7.537   1.780   5.439 -0.2431  0.4173 -0.4780
  506MOL0     O69721   7.528   1.671   5.524 -0.2844  0.6169 -0.4891
  506MOL0     C69722   7.519   1.540   5.471  0.5033  0.9138  0.0804
  506MOL0     C69723   7.458   1.438   5.552 -0.3058 -0.1404 -0.2180
  506MOL0     C69724   7.455   1.308   5.505  0.0287  0.3754  0.1594
  506MOL0     C69725   7.496   1.280   5.370 -0.2407  1.0575  0.0817
  506MOL0     O69726   7.486   1.151   5.329 -0.6543  0.0388 -0.6974
  506MOL0     C69727   7.551   1.111   5.207 -0.3161  0.8076  0.2500
  506MOL0     C69728   7.561   0.961   5.196  0.4364  0.3880  0.6319
  506MOL0     C69729   7.420   0.891   5.202 -0.0040  0.0574  0.8619
  506MOL0     C69730   7.439   0.747   5.206  0.0503 -0.4590 -0.0638
  506MOL0     C69731   7.329   0.667   5.129 -0.2792 -0.3024 -0.1827
  506MOL0     C69732   7.329   0.686   4.974 -1.1409  0.1239  0.3494
  506MOL0     C69733   7.334   0.545   4.897 -1.3519  0.2594 -0.3986
  506MOL0     C69734   7.203   0.504   4.859 -0.2065 -0.0542 -0.2275
  506MOL0    Cl69735   7.131   0.606   4.724 -0.3696 -0.1086 -0.2560
  506MOL0     C69736   7.559   1.387   5.293  0.0204 -0.4911  0.3414
  506MOL0     C69737   7.579   1.513   5.348  0.3098  0.5010 -0.0258
  506MOL0     O69738   7.614   1.869   5.456 -0.1457 -0.2378 -0.6969
  506MOL0     C69739   7.311   1.719   5.355  1.4044 -0.1122  0.0947
  506MOL0     C69740   7.201   1.734   5.267 -0.3007 -0.3430 -0.7061
  506MOL0     N69741   6.836   2.448   4.947  0.1687 -0.2660  0.8796
  506MOL0     N69742   6.753   2.543   4.983 -0.1019  0.2857  0.1959
  506MOL0     C69743   6.412   2.135   5.598 -0.2032 -0.5969  0.3815
  506MOL0     C69744   6.473   2.008   5.567 -0.0347  0.5656 -0.4003
  506MOL0     C69745   6.749   1.689   5.436  0.0071 -0.3736 -0.4378
  506MOL0     C69746   6.886   1.664   5.408 -0.3393 -1.2127 -0.0865
  506MOL0     C69747   6.930   1.528   5.397 -0.4211  0.3585 -0.4972
  506MOL0     C69748   6.843   1.416   5.420  0.1780  0.4701 -0.3464
  506MOL0     O69749   6.896   1.288   5.417  0.2594  0.4308 -0.5727
  506MOL0     C69750   6.828   1.200   5.322 -0.4453  0.1946 -0.2867
  506MOL0     C69751   6.825   1.056   5.386  0.3102 -0.6544  0.2880
  506MOL0     C69752   6.948   0.965   5.387 -0.5403  0.0747 -0.0778
  506MOL0     C69753   6.970   0.890   5.260  0.5963 -0.2531  0.5484
  506MOL0     C69754   6.908   0.751   5.268 -0.5252 -0.1065  0.7085
  506MOL0     C69755   6.867   0.634   5.260  0.5318 -0.4279 -0.8043
  506MOL0     C69756   6.719   1.448   5.455 -0.1181  0.5717 -0.3958
  506MOL0     C69757   6.672   1.579   5.471  0.9085  0.7712  0.4589
  506MOL0     C69758   6.522   1.586   5.498 -1.2098  0.1567  0.7998
  506MOL0     H69759   6.527   2.077   5.245 -1.4943 -0.3405 -0.2538
  506MOL0     H69760   6.444   2.284   5.295 -0.3649 -1.3014 -1.3593
  506MOL0     H69761   6.164   2.315   5.662  1.4813  1.8259  0.8508
  506MOL0     H69762   6.127   2.273   5.501  0.9618 -0.5331  1.4171
  506MOL0     H69763   6.067   2.516   5.618  0.4463 -1.2544  0.4828
  506MOL0     H69764   6.230   2.554   5.545 -1.0519  2.0329 -2.8364
  506MOL0     H69765   6.011   2.454   5.374 -1.1749  0.7301 -0.4947
  506MOL0     H69766   6.035   2.629   5.398  1.5004  0.2631  2.4933
  506MOL0     H69767   6.287   2.616   5.340 -0.1492  0.8451 -2.3410
  506MOL0     H69768   6.260   2.451   5.298 -0.5113  0.0208  3.6281
  506MOL0     H69769   6.089   2.664   5.194  1.4515  1.4243  1.3152
  506MOL0     H69770   6.117   2.505   5.112 -0.9684  2.7164 -3.0110
  506MOL0     H69771   6.245   2.704   4.986  4.4689 -0.4359 -2.1655
  506MOL0     H69772   6.321   2.714   5.145 -0.0924 -0.6902  0.5637
  506MOL0     H69773   6.316   2.459   4.982 -0.4023  0.7780 -1.1127
  506MOL0     H69774   6.406   2.476   5.125  1.5139 -0.5117 -0.0074
  506MOL0     H69775   6.466   2.577   4.849 -1.4842 -0.2131  0.5837
  506MOL0     H69776   6.511   2.692   4.978 -0.6540  0.4520 -1.1483
  506MOL0     H69777   6.550   2.286   4.917 -0.2199 -1.4496  1.1968
  506MOL0     H69778   6.932   2.240   4.854 -0.5475  2.7379  1.1379
  506MOL0     H69779   6.785   2.143   4.816 -2.2102  0.0869  1.0582
  506MOL0     H69780   6.939   2.215   5.062 -1.6014  1.5034  0.4991
  506MOL0     H69781   6.776   2.132   5.073 -3.0501 -3.1611 -3.3378
  506MOL0     H69782   6.853   1.927   4.996 -1.8316  2.1082  0.8933
  506MOL0     H69783   6.987   1.993   4.911  0.6947 -1.3639  1.1485
  506MOL0     H69784   7.094   2.065   5.134  0.9541 -1.1551 -1.3792
  506MOL0     H69785   6.977   1.937   5.204 -1.6675 -2.0360 -0.5411
  506MOL0     H69786   7.320   1.980   5.071  1.2172  2.1941  1.2501
  506MOL0     H69787   7.583   2.063   5.285  1.7159  0.3496 -0.4440
  506MOL0     H69788   7.541   2.042   5.113 -2.4772 -0.3191  0.2752
  506MOL0     H69789   7.641   1.921   5.197 -0.4735 -1.5569  0.4955
  506MOL0     H69790   7.413   1.473   5.645  2.3717  0.7205  0.8381
  506MOL0     H69791   7.422   1.231   5.573 -0.3719 -0.0799 -0.5409
  506MOL0     H69792   7.488   1.146   5.125 -1.1178 -1.1141  0.0084
  506MOL0     H69793   7.648   1.162   5.212 -1.2493  2.5779  1.6814
  506MOL0     H69794   7.605   0.943   5.097 -1.4680 -2.0491  0.1259
  506MOL0     H69795   7.613   0.913   5.279  2.1368 -1.9225 -1.6045
  506MOL0     H69796   7.363   0.934   5.120  1.1381 -0.2292 -0.1166
  506MOL0     H69797   7.366   0.925   5.291 -4.8672 -0.8919 -1.3932
  506MOL0     H69798   7.429   0.709   5.308 -0.4100 -1.2691 -0.4013
  506MOL0     H69799   7.539   0.718   5.170 -0.1825 -2.0408  0.4953
  506MOL0     H69800   7.349   0.562   5.153 -0.5534  0.0025  1.4864
  506MOL0     H69801   7.235   0.701   5.172  0.9873 -1.5305  3.9778
  506MOL0     H69802   7.423   0.736   4.951 -1.0304 -0.0375  0.4451
  506MOL0     H69803   7.236   0.734   4.942 -0.6555  2.8499  2.6451
  506MOL0     H69804   7.386   0.470   4.958  2.8103  0.5447 -3.1785
  506MOL0     H69805   7.391   0.560   4.805  2.0504 -0.3530  1.4028
  506MOL0     H69806   7.143   0.527   4.948  1.2133  0.8033  0.5588
  506MOL0     H69807   7.195   0.397   4.840  1.3546 -0.3059  0.4327
  506MOL0     H69808   7.599   1.370   5.193  0.1016 -0.2912  0.3410
  506MOL0     H69809   7.628   1.583   5.280  0.9806 -0.6626 -0.7704
  506MOL0     H69810   7.307   1.657   5.444 -1.8475  0.9696  0.8608
  506MOL0     H69811   7.108   1.678   5.265 -1.3163  1.1635  1.2513
  506MOL0     H69812   6.389   2.167   5.699  1.4180 -0.2237  0.6543
  506MOL0     H69813   6.482   1.927   5.639 -0.2544 -3.1511 -4.1515
  506MOL0     H69814   6.954   1.748   5.401  0.3808 -1.8692 -1.1852
  506MOL0     H69815   7.031   1.496   5.376 -0.1484  0.0455  1.1404
  506MOL0     H69816   6.725   1.223   5.294 -0.5070 -1.4539 -1.5083
  506MOL0     H69817   6.886   1.201   5.229  0.1985 -0.9433  0.0743
  506MOL0     H69818   6.755   0.994   5.329  1.8140 -2.6857  0.5089
  506MOL0     H69819   6.791   1.062   5.490 -0.9129 -2.1466  0.0121
  506MOL0     H69820   7.027   1.035   5.414 -0.8480  1.1047 -1.7362
  506MOL0     H69821   6.933   0.894   5.469 -2.6917 -2.3413 -2.3761
  506MOL0     H69822   7.079   0.882   5.249  0.6320  0.6376  0.1825
  506MOL0     H69823   6.932   0.956   5.182 -0.9948 -0.8685  0.7750
  506MOL0     H69824   6.854   0.529   5.243  1.2213 -0.6657  0.0518
  506MOL0     H69825   6.658   1.374   5.506  0.3470  1.5339  1.6607
  506MOL0     H69826   6.475   1.613   5.403  3.0485 -0.4353 -1.7046
  506MOL0     H69827   6.488   1.491   5.542 -2.7173  0.7997  1.1001
  506MOL0     H69828   6.500   1.652   5.582  1.1987  2.4646 -0.2708
  507MOL0     O69829   1.671   1.862   5.537 -0.0569 -0.6962 -0.1793
  507MOL0     C69830   1.797   1.855   5.541  0.2130  0.3122 -0.8065
  507MOL0     O69831   1.883   1.949   5.503 -0.3442 -0.6443 -0.3735
  507MOL0     C69832   1.846   2.080   5.487  0.1589 -0.4933  0.1327
  507MOL0     C69833   1.922   2.172   5.557  0.6274 -0.9464  0.2548
  507MOL0     C69834   1.901   2.303   5.530  0.0964 -0.4435 -0.0671
  507MOL0     C69835   1.787   2.348   5.466  0.4256  0.0731  0.0850
  507MOL0     O69836   1.769   2.478   5.480  0.5239  0.0273  0.7642
  507MOL0     C69837   1.652   2.536   5.413 -0.4306 -0.0658  0.6177
  507MOL0     C69838   1.643   2.692   5.430 -0.5359 -0.1375  0.3749
  507MOL0     C69839   1.503   2.750   5.440 -0.8914 -0.1968  0.9093
  507MOL0     C69840   1.415   2.700   5.553 -0.1335 -0.3355 -0.5328
  507MOL0     C69841   1.486   2.719   5.696  0.6332 -0.2089 -0.3640
  507MOL0     C69842   1.467   2.862   5.747 -0.0343  0.8108  0.9112
  507MOL0     C69843   1.522   2.872   5.895  0.1537  0.2170 -0.0453
  507MOL0     C69844   1.476   3.008   5.969 -0.4213  0.2550  0.5104
  507MOL0     N69845   1.554   3.122   5.923 -0.6959  0.2515 -0.5503
  507MOL0     C69846   1.550   3.183   5.803 -0.0073 -0.1635  0.0103
  507MOL0     C69847   1.663   3.260   5.802 -1.6643 -0.3683  0.4587
  507MOL0     C69848   1.723   3.320   5.683  0.6806 -0.3825  0.1912
  507MOL0     C69849   1.665   3.453   5.627  1.2189 -0.5843  1.2988
  507MOL0     C69850   1.725   3.495   5.490 -0.3944  0.6177 -0.5208
  507MOL0     C69851   1.644   3.476   5.361 -0.0411  0.0917  0.1607
  507MOL0     O69852   1.507   3.517   5.386 -0.8704 -0.3783 -0.2238
  507MOL0     C69853   1.483   3.648   5.422 -0.8450  0.7411  0.0393
  507MOL0     C69854   1.411   3.673   5.537 -0.2168 -0.2168  0.8008
  507MOL0     C69855   1.379   3.804   5.587  0.6876  1.1796  0.6578
  507MOL0     C69856   1.304   3.822   5.722 -0.9541 -0.5032 -0.0361
  507MOL0     C69857   1.427   3.907   5.517  0.1295 -0.6208  0.8306
  507MOL0     C69858   1.432   4.051   5.577  0.2060  0.4440 -0.3940
  507MOL0     O69859   1.411   4.144   5.486  0.5529  0.4606 -0.1707
  507MOL0     C69860   1.362   4.269   5.510 -0.2100 -0.1620 -0.3551
  507MOL0     C69861   1.242   4.289   5.589 -0.5228  0.4606  0.8917
  507MOL0     C69862   1.192   4.423   5.601 -0.0134  0.8798 -0.2325
  507MOL0     C69863   1.248   4.537   5.552 -0.4091 -0.0044  0.3896
  507MOL0     O69864   1.188   4.664   5.576 -0.2828  0.2011  0.2127
  507MOL0     C69865   1.260   4.782   5.572  0.8367  1.1390  0.2298
  507MOL0     C69866   1.226   4.855   5.437  0.0559  0.2074  0.5691
  507MOL0     C69867   1.265   5.004   5.445 -1.4092  0.1907 -0.4736
  507MOL0     C69868   1.203   5.099   5.338  0.6879 -0.2902  0.5080
  507MOL0     C69869   1.218   5.061   5.188  0.0622 -0.9287  0.4409
  507MOL0     C69870   1.186   5.181   5.090 -0.3455 -0.1226  0.0366
  507MOL0     C69871   1.193   5.138   4.945 -0.8289 -0.3247  0.4771
  507MOL0     C69872   1.095   5.214   4.849 -0.3429  0.7487  0.7444
  507MOL0    Cl69873   0.922   5.166   4.891  0.1322  0.5018 -0.1007
  507MOL0     C69874   1.362   4.517   5.476  1.1002  0.1688  1.0065
  507MOL0     C69875   1.417   4.390   5.450 -0.3848  0.9029  0.9897
  507MOL0     O69876   1.432   4.074   5.700 -0.8808 -0.1260  0.5101
  507MOL0     C69877   1.504   3.888   5.398 -0.2091 -0.2127 -0.6013
  507MOL0     C69878   1.530   3.753   5.348  1.2209  0.3724  0.0477
  507MOL0     N69879   1.739   3.254   5.922  0.4126 -1.0992  0.2618
  507MOL0     N69880   1.666   3.173   5.990  0.4199 -0.3693 -0.8855
  507MOL0     C69881   1.714   2.251   5.391 -0.1767 -0.4743 -0.9004
  507MOL0     C69882   1.750   2.116   5.387 -0.5398  0.3270 -0.9255
  507MOL0     C69883   1.843   1.712   5.566 -0.2087 -0.1182  0.1296
  507MOL0     C69884   1.761   1.597   5.544  0.7474 -0.9215 -0.1212
  507MOL0     C69885   1.813   1.469   5.541 -0.0526 -0.6095  0.2212
  507MOL0     C69886   1.942   1.445   5.576 -0.4659 -0.6297 -0.0642
  507MOL0     O69887   2.000   1.326   5.605 -0.3220 -0.2256 -0.6760
  507MOL0     C69888   1.979   1.206   5.528  0.0716  0.0491 -0.2554
  507MOL0     C69889   1.874   1.120   5.587 -0.1219 -0.4518  0.6243
  507MOL0     C69890   1.926   1.060   5.715  0.4248  0.0019 -0.3551
  507MOL0     C69891   1.830   0.946   5.765  0.8692  0.1676 -1.5999
  507MOL0     C69892   1.785   0.850   5.668 -0.0781 -0.3496 -0.5228
  507MOL0     C69893   1.773   0.751   5.591  0.2919 -0.0207 -0.2228
  507MOL0     C69894   2.019   1.548   5.619 -0.9042  1.2495  0.3968
  507MOL0     C69895   1.975   1.688   5.609 -0.4884 -0.0982 -0.0721
  507MOL0     C69896   2.078   1.791   5.634 -1.1036 -0.8490 -0.6807
  507MOL0     H69897   2.005   2.130   5.614  1.8332 -0.9943 -1.4519
  507MOL0     H69898   1.965   2.370   5.586  1.8559 -2.5857  0.6381
  507MOL0     H69899   1.556   2.490   5.440 -2.6048  1.5333 -3.4228
  507MOL0     H69900   1.659   2.509   5.307 -2.1913 -3.3145  1.1880
  507MOL0     H69901   1.709   2.716   5.514 -2.8325  1.7055  1.7918
  507MOL0     H69902   1.683   2.744   5.342 -0.6661 -1.1006 -0.2743
  507MOL0     H69903   1.516   2.858   5.440 -1.6787 -0.0857  1.5788
  507MOL0     H69904   1.444   2.736   5.349 -0.6883  1.9964  0.3853
  507MOL0     H69905   1.316   2.747   5.556  0.7369  1.7618  4.0366
  507MOL0     H69906   1.403   2.592   5.539  0.8851 -0.4822 -0.3181
  507MOL0     H69907   1.593   2.698   5.688  0.5463 -0.0520 -2.5475
  507MOL0     H69908   1.450   2.637   5.758  0.6990 -0.8976 -1.2318
  507MOL0     H69909   1.498   2.945   5.682 -0.9283  0.1347 -0.4243
  507MOL0     H69910   1.359   2.860   5.764 -0.1152 -7.4360  3.6339
  507MOL0     H69911   1.630   2.867   5.905  0.3839  0.3713 -2.0162
  507MOL0     H69912   1.479   2.784   5.943 -1.1762  0.7778 -0.1417
  507MOL0     H69913   1.372   3.025   5.941 -0.1334 -0.3465 -1.0138
  507MOL0     H69914   1.491   3.008   6.078  1.7684 -0.0752  0.2540
  507MOL0     H69915   1.480   3.173   5.721 -1.1508 -2.7655  1.1742
  507MOL0     H69916   1.709   3.237   5.613 -0.5953 -2.5179  2.7981
  507MOL0     H69917   1.832   3.335   5.685  0.4654  1.6084  2.8350
  507MOL0     H69918   1.557   3.434   5.623  1.3660 -1.6062  1.8114
  507MOL0     H69919   1.690   3.531   5.699  1.3574  1.3064 -0.6923
  507MOL0     H69920   1.755   3.600   5.493 -0.0568  0.6356 -2.7967
  507MOL0     H69921   1.817   3.438   5.473  2.7671  4.9240  0.2557
  507MOL0     H69922   1.693   3.519   5.273  0.2035  1.5923  0.9936
  507MOL0     H69923   1.634   3.371   5.331  0.1480 -0.3420  1.5507
  507MOL0     H69924   1.386   3.591   5.604 -1.7750  0.4466  1.0814
  507MOL0     H69925   1.382   3.837   5.797  1.8238 -1.5427 -2.5308
  507MOL0     H69926   1.234   3.739   5.739 -2.2875  0.3600 -1.1493
  507MOL0     H69927   1.240   3.910   5.722  1.1402  1.1095  1.2017
  507MOL0     H69928   1.185   4.211   5.640 -2.5097 -0.0563 -1.8594
  507MOL0     H69929   1.109   4.437   5.669  0.9058 -0.5964  1.2663
  507MOL0     H69930   1.231   4.842   5.659 -1.3120 -0.6461  0.8265
  507MOL0     H69931   1.368   4.769   5.585  1.0199  2.4531  0.1094
  507MOL0     H69932   1.263   4.799   5.351 -1.6863 -0.7031  0.3557
  507MOL0     H69933   1.120   4.827   5.430  0.3281 -0.7484  0.1657
  507MOL0     H69934   1.374   5.009   5.445 -1.2303 -1.8353  2.1252
  507MOL0     H69935   1.228   5.043   5.540 -3.5502 -1.6770 -0.4600
  507MOL0     H69936   1.251   5.197   5.348  0.6700 -0.3649  1.3916
  507MOL0     H69937   1.098   5.124   5.355  0.9629  2.4649 -1.1823
  507MOL0     H69938   1.314   5.010   5.174  1.1190  0.8123  1.0704
  507MOL0     H69939   1.133   4.996   5.162 -0.2350 -0.4790  0.2647
  507MOL0     H69940   1.269   5.250   5.105 -1.8786  1.5483  1.2653
  507MOL0     H69941   1.097   5.234   5.124  0.1889 -0.3615  1.9426
  507MOL0     H69942   1.199   5.029   4.939 -0.5984 -0.3057  0.3477
  507MOL0     H69943   1.292   5.172   4.915 -1.0703  0.7846  0.8955
  507MOL0     H69944   1.119   5.197   4.744 -1.5803  1.7605  0.2570
  507MOL0     H69945   1.119   5.321   4.853  1.0852  1.0515 -5.5608
  507MOL0     H69946   1.424   4.598   5.439  1.3682 -0.7094 -0.5851
  507MOL0     H69947   1.505   4.375   5.389 -0.9871  0.3767  0.2322
  507MOL0     H69948   1.546   3.977   5.352 -1.3639  0.4232 -0.4494
  507MOL0     H69949   1.596   3.735   5.263 -0.4286 -0.7152 -1.0720
  507MOL0     H69950   1.632   2.282   5.327 -1.5703  0.2759  1.1681
  507MOL0     H69951   1.702   2.036   5.331 -0.3678  0.4689 -1.2764
  507MOL0     H69952   1.654   1.607   5.531  0.9471  0.5781 -0.7834
  507MOL0     H69953   1.734   1.394   5.535 -0.6119 -0.4446  3.6382
  507MOL0     H69954   1.943   1.239   5.430 -0.6406 -2.2762 -0.8275
  507MOL0     H69955   2.073   1.156   5.504  0.8431  1.8482 -1.1945
  507MOL0     H69956   1.864   1.052   5.502 -1.3712  0.9982 -0.4461
  507MOL0     H69957   1.778   1.171   5.604  0.3589  0.6421  0.1631
  507MOL0     H69958   2.030   1.035   5.691  0.7591 -0.3237  1.2975
  507MOL0     H69959   1.930   1.126   5.802 -1.2028 -2.4907  1.7406
  507MOL0     H69960   1.747   0.980   5.828  1.7276 -3.2729  1.7127
  507MOL0     H69961   1.865   0.892   5.853 -3.4768  0.2361  0.4476
  507MOL0     H69962   1.747   0.653   5.556 -2.8104  1.2652 -1.9697
  507MOL0     H69963   2.117   1.524   5.659 -1.3314 -0.2579  0.6070
  507MOL0     H69964   2.149   1.744   5.704  0.5868 -0.1699 -1.8806
  507MOL0     H69965   2.128   1.823   5.543  1.9438  2.2653  1.8070
  507MOL0     H69966   2.047   1.887   5.676  5.3649  2.1771 -1.5152
  508MOL0     O69967   0.373   9.904  10.904 -0.1152  0.3991 -0.5221
  508MOL0     C69968   0.298   9.954  10.990 -0.0002  0.4835  0.7269
  508MOL0     O69969   0.273   9.891  11.112 -0.4902 -0.3794 -0.7240
  508MOL0     C69970   0.322   9.768  11.146 -0.2760 -0.1021  0.4900
  508MOL0     C69971   0.455   9.755  11.174  0.7101 -0.2626  0.5626
  508MOL0     C69972   0.509   9.630  11.206  0.7383 -0.1635  0.2611
  508MOL0     C69973   0.424   9.516  11.207 -0.9448 -0.1221 -0.3146
  508MOL0     O69974   0.474   9.388  11.238 -0.0671  0.4663  0.3776
  508MOL0     C69975   0.470   9.358  11.379  0.3163 -0.4078  0.1313
  508MOL0     C69976   0.543   9.223  11.405  0.0355 -0.7634 -0.2705
  508MOL0     C69977   0.477   9.106  11.322 -0.6409  0.0613  0.2844
  508MOL0     C69978   0.331   9.061  11.363  0.2241 -1.2384  1.0408
  508MOL0     C69979   0.303   9.027  11.504  0.0269  0.1556  0.4836
  508MOL0     C69980   0.390   8.908  11.541 -0.0923  0.7312  0.2033
  508MOL0     C69981   0.374   8.885  11.687 -0.6056  0.2846 -0.5694
  508MOL0     C69982   0.479   8.777  11.734  0.0609 -1.3167  0.4491
  508MOL0     N69983   0.608   8.839  11.763 -0.4785 -0.0816  0.0092
  508MOL0     C69984   0.712   8.842  11.676  0.3996  0.7743 -0.8458
  508MOL0     C69985   0.808   8.913  11.732 -0.4054 -1.3264  0.4977
  508MOL0     C69986   0.935   8.954  11.664  0.1987 -0.0566  0.1384
  508MOL0     C69987   0.913   9.075  11.575  0.2362  1.0264  0.1314
  508MOL0     C69988   1.049   9.128  11.514 -0.1361  0.7852 -0.0418
  508MOL0     C69989   1.015   9.210  11.393  0.0436 -0.4384 -0.4068
  508MOL0     O69990   0.982   9.339  11.435 -0.2781  0.1242  0.0268
  508MOL0     C69991   0.942   9.425  11.327  0.1719  1.7203 -0.0324
  508MOL0     C69992   0.965   9.557  11.341  0.5072 -0.3484 -1.0652
  508MOL0     C69993   0.932   9.654  11.244  0.4921  0.1541  0.4350
  508MOL0     C69994   0.950   9.796  11.289  0.0572  0.9329  0.1030
  508MOL0     C69995   0.869   9.607  11.127 -0.1036  0.2483 -0.3096
  508MOL0     C69996   0.824   9.691  11.024  0.3496 -0.0657  1.2173
  508MOL0     O69997   0.717   9.634  10.949 -0.1016 -0.8424 -0.5380
  508MOL0     C69998   0.675   9.687  10.833  1.3949 -0.8315 -0.0570
  508MOL0     C69999   0.543   9.675  10.802 -0.8140 -0.0727  0.5683
  508MOL0     C70000   0.506   9.740  10.681  0.0983 -0.4953  0.2679
  508MOL0     C70001   0.592   9.808  10.597 -0.3229 -0.1697 -0.2768
  508MOL0     O70002   0.544   9.882  10.491 -0.3821  0.7272 -0.4730
  508MOL0     C70003   0.404   9.924  10.494  0.9633  0.0014  0.3707
  508MOL0     C70004   0.371  10.031  10.388  0.5043  0.3004 -0.6111
  508MOL0     C70005   0.389   9.975  10.246  0.6798 -0.2007  0.3738
  508MOL0     C70006   0.394  10.102  10.149  0.1192 -0.1860  0.2364
  508MOL0     C70007   0.423  10.055  10.008  0.1791  0.7313 -1.0510
  508MOL0     C70008   0.432  10.166   9.902  0.1084 -0.4363 -0.8063
  508MOL0     C70009   0.419  10.130   9.760 -0.4710  0.1334  0.1847
  508MOL0     C70010   0.495  10.237   9.672  0.4591  0.3299 -0.8983
  508MOL0    Cl70011   0.456  10.394   9.737 -0.1425 -0.2001 -0.1595
  508MOL0     C70012   0.723   9.801  10.632  0.1524  0.5213 -0.1418
  508MOL0     C70013   0.768   9.746  10.744 -0.1625  0.5188 -0.3751
  508MOL0     O70014   0.869   9.807  11.008  0.0244  0.2710 -0.6047
  508MOL0     C70015   0.850   9.470  11.112 -0.2317 -0.1001  0.6007
  508MOL0     C70016   0.885   9.382  11.213  0.1817  0.5257  0.3075
  508MOL0     N70017   0.770   8.951  11.863  0.6959  0.8131 -0.1825
  508MOL0     N70018   0.655   8.894  11.879  0.3328  0.5028 -0.1045
  508MOL0     C70019   0.283   9.529  11.184 -1.0628 -0.7721  0.1904
  508MOL0     C70020   0.233   9.659  11.148  0.9562  0.1993  0.5949
  508MOL0     C70021   0.222  10.076  10.948  0.2592 -0.2379  0.5285
  508MOL0     C70022   0.285  10.144  10.840 -0.5749  0.6269 -0.4002
  508MOL0     C70023   0.238  10.263  10.800  0.0127 -0.7554 -1.2211
  508MOL0     C70024   0.134  10.333  10.862  0.1814  0.7171  0.9989
  508MOL0     O70025   0.067  10.441  10.810  0.0375  0.1306  0.1092
  508MOL0     C70026   0.155  10.547  10.758 -0.1129 -0.4170  0.2143
  508MOL0     C70027   0.244  10.619  10.861  0.2436 -0.4055  0.2855
  508MOL0     C70028   0.398  10.594  10.847  0.1200  1.0332  0.2522
  508MOL0     C70029   0.480  10.690  10.930  1.2454 -0.4683 -0.3009
  508MOL0     C70030   0.616  10.698  10.864  0.0607  0.3692  0.0065
  508MOL0     C70031   0.733  10.690  10.828  0.7288 -0.0812 -0.0102
  508MOL0     C70032   0.082  10.278  10.975 -0.0580 -1.1224 -0.6866
  508MOL0     C70033   0.119  10.146  11.015  0.0779 -1.2460  0.0431
  508MOL0     C70034   0.041  10.087  11.130 -0.4446 -0.7950 -0.5761
  508MOL0     H70035   0.518   9.842  11.162 -0.8542  0.5927 -2.3935
  508MOL0     H70036   0.616   9.624  11.219  0.6858  1.8254  2.1640
  508MOL0     H70037   0.366   9.339  11.406  0.5898 -1.3214  0.5650
  508MOL0     H70038   0.499   9.451  11.429 -0.8274  0.9717 -1.6629
  508MOL0     H70039   0.648   9.248  11.388 -0.1452  1.6176  1.6088
  508MOL0     H70040   0.532   9.185  11.507  1.8439 -1.4573 -0.2932
  508MOL0     H70041   0.484   9.135  11.217 -0.7083  1.7867  0.7184
  508MOL0     H70042   0.546   9.021  11.327 -1.7282 -0.8639 -0.0231
  508MOL0     H70043   0.270   9.141  11.321 -0.7512 -1.7058  1.5375
  508MOL0     H70044   0.306   8.974  11.302 -0.0228 -0.8356  0.5610
  508MOL0     H70045   0.196   9.010  11.516 -0.0998 -1.7230 -2.4219
  508MOL0     H70046   0.328   9.107  11.574 -1.7482  2.3604 -1.2215
  508MOL0     H70047   0.364   8.827  11.471  0.2654  0.3947  0.4553
  508MOL0     H70048   0.496   8.920  11.517  0.0200  0.6867  0.6751
  508MOL0     H70049   0.275   8.844  11.708 -0.3833 -0.4722 -0.9830
  508MOL0     H70050   0.403   8.974  11.744  1.7656 -0.6465 -0.1714
  508MOL0     H70051   0.445   8.745  11.833 -1.2388  2.3275  1.3347
  508MOL0     H70052   0.482   8.695  11.661 -2.4387  0.2412 -1.6206
  508MOL0     H70053   0.710   8.795  11.578  1.3639 -3.4965  0.9338
  508MOL0     H70054   0.982   8.880  11.599  1.0381 -0.2523  0.9597
  508MOL0     H70055   1.014   8.981  11.734  0.3467  0.4911 -0.2331
  508MOL0     H70056   0.850   9.034  11.496 -0.2301 -0.2815  1.1373
  508MOL0     H70057   0.857   9.159  11.618  0.5214  0.7235  1.1186
  508MOL0     H70058   1.120   9.170  11.586 -0.6185 -0.3921  1.1461
  508MOL0     H70059   1.093   9.040  11.466 -2.3091 -0.7437  0.6088
  508MOL0     H70060   1.092   9.218  11.315  1.0517  0.6803  0.6691
  508MOL0     H70061   0.920   9.172  11.353 -0.1839 -1.4508  1.0410
  508MOL0     H70062   1.002   9.591  11.438 -2.1477 -1.0351  0.2997
  508MOL0     H70063   0.856   9.852  11.280  0.5514  2.3344  2.7335
  508MOL0     H70064   1.026   9.840  11.223  2.5015  2.9878  3.9586
  508MOL0     H70065   1.006   9.808  11.382  2.4966  2.5837 -1.4642
  508MOL0     H70066   0.483   9.610  10.866  0.5964 -1.5371  0.4721
  508MOL0     H70067   0.405   9.725  10.645  0.4602 -0.9999 -0.5520
  508MOL0     H70068   0.336   9.841  10.475  2.0607 -0.7477 -0.3976
  508MOL0     H70069   0.376   9.971  10.589 -0.8549  1.9135 -1.0110
  508MOL0     H70070   0.273  10.076  10.407  1.5403  2.6731 -0.4811
  508MOL0     H70071   0.438  10.116  10.404  0.2225  0.7790 -1.8484
  508MOL0     H70072   0.312   9.903  10.217  2.5070 -0.8417 -3.3988
  508MOL0     H70073   0.483   9.921  10.243  1.1427  0.4738  1.7800
  508MOL0     H70074   0.478  10.168  10.174 -0.8787  0.8455  0.9806
  508MOL0     H70075   0.302  10.160  10.156  0.1099  0.5301 -3.7115
  508MOL0     H70076   0.502   9.980   9.999  1.7217  2.2195 -0.4152
  508MOL0     H70077   0.332  10.002   9.975  0.1469 -1.1515  1.6767
  508MOL0     H70078   0.532  10.211   9.903  1.9915 -4.1533 -2.0567
  508MOL0     H70079   0.357  10.239   9.934  1.9476  1.1702  0.0276
  508MOL0     H70080   0.313  10.116   9.735 -0.0891 -0.4608 -1.1586
  508MOL0     H70081   0.477  10.038   9.750  2.8231  1.8386  1.9427
  508MOL0     H70082   0.452  10.223   9.572  2.4054 -0.0736 -1.7040
  508MOL0     H70083   0.603  10.221   9.677  0.9593  3.2443  3.9617
  508MOL0     H70084   0.806   9.839  10.574  0.4673  0.7844  0.4726
  508MOL0     H70085   0.874   9.741  10.765 -0.5544  0.0495  1.7007
  508MOL0     H70086   0.812   9.422  11.023  0.6480  2.1216 -1.0620
  508MOL0     H70087   0.883   9.278  11.180  0.4901  0.4909  0.3835
  508MOL0     H70088   0.210   9.449  11.198 -2.4332  0.8071  2.8452
  508MOL0     H70089   0.128   9.680  11.130  0.9073  0.5349  1.2294
  508MOL0     H70090   0.366  10.103  10.780 -1.1786 -2.9947  1.0165
  508MOL0     H70091   0.271  10.302  10.704 -1.1519  0.9777 -0.9679
  508MOL0     H70092   0.225  10.497  10.691 -0.5941 -0.7686 -0.0303
  508MOL0     H70093   0.098  10.622  10.702 -0.2770 -2.2038 -2.1904
  508MOL0     H70094   0.213  10.596  10.963  0.3649  2.1674  0.9562
  508MOL0     H70095   0.220  10.724  10.842  2.0106  0.0201  0.2189
  508MOL0     H70096   0.421  10.492  10.879 -0.3829  0.5107 -0.9763
  508MOL0     H70097   0.438  10.597  10.745  1.3921 -1.0704  0.6102
  508MOL0     H70098   0.491  10.661  11.035 -0.2568  2.8704  0.9042
  508MOL0     H70099   0.424  10.784  10.937 -1.6026 -2.1005  0.8804
  508MOL0     H70100   0.831  10.700  10.787  0.9871 -0.3211  0.5447
  508MOL0     H70101  -0.001  10.324  11.028 -0.5136 -2.9108  0.2224
  508MOL0     H70102   0.059   9.983  11.157  3.6845 -0.0976  0.0343
  508MOL0     H70103   0.055  10.145  11.222 -0.0310 -0.2888 -0.9518
  508MOL0     H70104  -0.068  10.095  11.124 -0.7852 -1.1605  2.9311
  509MOL0     O70105   5.840  10.627   7.784  0.0755 -0.2256 -0.4428
  509MOL0     C70106   5.921  10.714   7.809 -0.8311 -0.2269  1.1827
  509MOL0     O70107   6.016  10.715   7.916 -0.5862 -0.0683  0.5278
  509MOL0     C70108   5.987  10.618   8.016  0.7592  1.0470 -0.2781
  509MOL0     C70109   5.871  10.628   8.094  0.0235 -0.0346 -0.8640
  509MOL0     C70110   5.847  10.549   8.209 -0.5162 -0.7864 -0.2530
  509MOL0     C70111   5.942  10.445   8.232  0.7185 -0.9765  0.0446
  509MOL0     O70112   5.908  10.350   8.336 -0.1630 -0.2342 -0.1737
  509MOL0     C70113   6.008  10.253   8.368 -0.3305  0.1071 -1.3006
  509MOL0     C70114   5.952  10.175   8.493 -0.2898  0.0700  0.0729
  509MOL0     C70115   5.893  10.267   8.591  0.1184 -0.3138 -0.0316
  509MOL0     C70116   6.010  10.354   8.644 -0.5566 -0.0237 -0.5970
  509MOL0     C70117   5.969  10.449   8.758 -0.3482 -0.2067  0.3614
  509MOL0     C70118   5.938  10.369   8.884  0.0250 -0.7866 -0.5770
  509MOL0     C70119   5.925  10.446   9.023  0.3499 -1.0114 -0.1895
  509MOL0     C70120   5.950  10.347   9.137 -0.0300 -0.8245  0.3566
  509MOL0     N70121   6.090  10.323   9.156 -0.4710  0.3454 -0.4172
  509MOL0     C70122   6.193  10.401   9.120 -0.6204 -0.4104  0.7586
  509MOL0     C70123   6.313  10.327   9.143  0.4161 -1.4711  0.5853
  509MOL0     C70124   6.455  10.380   9.102 -0.1657 -0.2812  0.3873
  509MOL0     C70125   6.509  10.481   9.201  1.1448 -1.0040  0.6830
  509MOL0     C70126   6.553  10.434   9.341 -0.6614  0.3453  0.1833
  509MOL0     C70127   6.635  10.540   9.417 -0.2820  1.1963  0.7935
  509MOL0     O70128   6.688  10.485   9.533 -0.9343  0.1858 -0.2127
  509MOL0     C70129   6.622  10.520   9.645 -0.1435  0.4862  0.0930
  509MOL0     C70130   6.569  10.428   9.727 -0.6978 -0.2320 -0.0509
  509MOL0     C70131   6.484  10.459   9.839  0.3534 -0.0334 -0.2664
  509MOL0     C70132   6.421  10.341   9.910 -0.2748  0.5771 -0.5802
  509MOL0     C70133   6.474  10.602   9.878  0.3543 -0.5863  0.4882
  509MOL0     C70134   6.423  10.649  10.010 -0.1615  1.0329 -0.7483
  509MOL0     O70135   6.386  10.778  10.005  0.6999 -0.1661 -0.0465
  509MOL0     C70136   6.352  10.842  10.121 -0.2052  0.4412  0.4061
  509MOL0     C70137   6.250  10.798  10.202  0.1231 -0.3182  0.5376
  509MOL0     C70138   6.212  10.870  10.314  0.7337 -0.6758  1.0055
  509MOL0     C70139   6.279  10.991  10.355 -0.9384  0.1718  1.2230
  509MOL0     O70140   6.250  11.055  10.475  0.1522 -0.0054  0.7062
  509MOL0     C70141   6.136  11.007  10.552  0.1545 -0.4938  0.0933
  509MOL0     C70142   6.121  11.095  10.675 -0.7440 -0.4227 -0.6073
  509MOL0     C70143   6.043  11.234  10.645 -0.4344  0.5375  0.2252
  509MOL0     C70144   6.093  11.346  10.736 -0.2230 -0.2127 -1.1374
  509MOL0     C70145   6.023  11.474  10.705 -0.8302 -0.0190  0.6829
  509MOL0     C70146   6.088  11.591  10.774  0.3437 -0.4250 -0.1824
  509MOL0     C70147   6.117  11.582  10.923  0.6340 -0.2014 -0.4042
  509MOL0     C70148   5.981  11.610  10.993  0.0122  1.0717 -1.0196
  509MOL0    Cl70149   5.944  11.783  10.985  0.6038  0.5275 -0.1945
  509MOL0     C70150   6.390  11.028  10.277 -0.6714 -0.9589  0.1790
  509MOL0     C70151   6.425  10.953  10.163  0.5138 -0.3389 -0.1090
  509MOL0     O70152   6.417  10.573  10.105 -0.1169  0.7422 -0.0679
  509MOL0     C70153   6.527  10.697   9.787  0.2432  0.8649 -0.3327
  509MOL0     C70154   6.605  10.656   9.681 -0.2614  0.1022  1.1564
  509MOL0     N70155   6.272  10.205   9.189  0.3786  0.7092  0.0884
  509MOL0     N70156   6.144  10.200   9.191  0.0444 -0.2954  0.3953
  509MOL0     C70157   6.056  10.428   8.147  0.8504  0.3168  0.1004
  509MOL0     C70158   6.081  10.518   8.043 -0.0261  0.7807 -0.1345
  509MOL0     C70159   5.923  10.837   7.723  1.1932  0.5550  1.1609
  509MOL0     C70160   6.005  10.934   7.759 -0.5343 -0.4011  0.4607
  509MOL0     C70161   5.990  11.061   7.696 -0.1116  0.1629  0.5655
  509MOL0     C70162   5.919  11.079   7.574 -0.3800 -0.5879 -0.5337
  509MOL0     O70163   5.917  11.206   7.517  0.9379 -0.4470 -0.2587
  509MOL0     C70164   5.845  11.224   7.392 -0.1896 -0.3767  0.4834
  509MOL0     C70165   5.902  11.348   7.337  0.2361  0.5096  1.5307
  509MOL0     C70166   5.801  11.404   7.237 -0.3933  0.3103  0.0109
  509MOL0     C70167   5.683  11.466   7.310  0.7314 -0.2323 -0.6394
  509MOL0     C70168   5.555  11.435   7.238 -0.0395  0.6995  0.3619
  509MOL0     C70169   5.449  11.433   7.183 -0.1917 -0.0979 -0.6427
  509MOL0     C70170   5.830  10.974   7.538  0.7556 -0.1425  0.6792
  509MOL0     C70171   5.838  10.854   7.608  0.0587  0.1086  0.7509
  509MOL0     C70172   5.738  10.750   7.545 -0.2190  0.2393 -0.5354
  509MOL0     H70173   5.790  10.694   8.067  0.0034  0.6254  0.6787
  509MOL0     H70174   5.751  10.565   8.257 -0.7365  4.7701 -1.8648
  509MOL0     H70175   6.111  10.285   8.388 -0.2515 -0.2207 -1.1836
  509MOL0     H70176   6.012  10.175   8.292  1.0038 -3.4324  2.0971
  509MOL0     H70177   5.880  10.110   8.440 -1.5567  1.1084  0.4699
  509MOL0     H70178   6.032  10.115   8.538 -2.2836 -2.2562  0.7618
  509MOL0     H70179   5.806  10.323   8.555 -1.4899 -1.5466  1.7583
  509MOL0     H70180   5.860  10.203   8.673 -1.3376  0.3993 -0.0125
  509MOL0     H70181   6.101  10.294   8.652  0.8326  1.7729 -2.1131
  509MOL0     H70182   6.041  10.421   8.564 -3.1606  4.0142  1.4525
  509MOL0     H70183   5.885  10.515   8.733  0.3225 -0.1586 -2.0701
  509MOL0     H70184   6.044  10.518   8.797  0.2210 -0.4244 -0.3221
  509MOL0     H70185   5.845  10.315   8.866 -0.4467 -0.4738  0.8520
  509MOL0     H70186   6.016  10.295   8.903  0.7461 -0.4024 -1.8754
  509MOL0     H70187   5.825  10.491   9.031  2.4396  3.8406  3.6814
  509MOL0     H70188   6.002  10.523   9.030  1.0552 -1.8615  4.7281
  509MOL0     H70189   5.918  10.393   9.231 -0.0616  0.6962 -0.3724
  509MOL0     H70190   5.910  10.247   9.114  0.7778 -0.6053 -2.2211
  509MOL0     H70191   6.184  10.507   9.094 -1.5254 -0.3542  1.2568
  509MOL0     H70192   6.450  10.430   9.005 -2.7936 -0.5510  0.3094
  509MOL0     H70193   6.518  10.292   9.084  2.1171  1.2221  0.6277
  509MOL0     H70194   6.590  10.542   9.159  1.8853 -1.7638  0.9724
  509MOL0     H70195   6.424  10.550   9.199  3.7453  2.6238  2.8476
  509MOL0     H70196   6.471  10.390   9.398  0.1406  2.2659  3.0108
  509MOL0     H70197   6.631  10.359   9.325 -2.0655 -0.8871 -1.2979
  509MOL0     H70198   6.718  10.545   9.346 -0.8094  1.2587  0.1778
  509MOL0     H70199   6.600  10.644   9.413 -0.3318  1.2356  1.8485
  509MOL0     H70200   6.575  10.323   9.701  0.5538  0.1467 -1.4262
  509MOL0     H70201   6.319  10.338   9.869  0.5447 -1.6289 -2.7805
  509MOL0     H70202   6.430  10.346  10.018 -1.7682  2.1184 -0.4881
  509MOL0     H70203   6.473  10.251   9.876  0.9034  2.2737 -3.6797
  509MOL0     H70204   6.190  10.710  10.182  2.8733 -1.9142 -1.4436
  509MOL0     H70205   6.139  10.828  10.383  1.6492  0.7479  2.9357
  509MOL0     H70206   6.040  11.002  10.499  0.6949 -2.3992 -0.8013
  509MOL0     H70207   6.168  10.905  10.578  0.2564 -1.2849 -2.7407
  509MOL0     H70208   6.082  11.031  10.754 -0.0506 -1.5438 -1.1538
  509MOL0     H70209   6.221  11.123  10.710 -2.2227  2.9715  1.4605
  509MOL0     H70210   5.937  11.221  10.667 -0.2573  3.5786  3.7701
  509MOL0     H70211   6.048  11.269  10.541 -1.4974 -2.3551 -0.9093
  509MOL0     H70212   6.198  11.361  10.711 -0.3105 -0.5455 -1.7293
  509MOL0     H70213   6.079  11.328  10.843 -2.2645  3.2274 -0.6707
  509MOL0     H70214   6.039  11.504  10.601 -1.6445 -1.3128  0.1573
  509MOL0     H70215   5.915  11.458  10.715 -1.2013  1.0334 -1.1294
  509MOL0     H70216   6.036  11.684  10.748 -0.9896 -1.2715 -0.6299
  509MOL0     H70217   6.186  11.604  10.727 -0.9343 -1.1655 -3.3210
  509MOL0     H70218   6.191  11.657  10.953  0.0862  0.9015 -1.7396
  509MOL0     H70219   6.169  11.489  10.949  1.4918 -0.0044 -1.3818
  509MOL0     H70220   6.000  11.591  11.099  0.9240 -1.4519 -1.5748
  509MOL0     H70221   5.903  11.544  10.955  1.4119 -1.7660  0.6879
  509MOL0     H70222   6.451  11.116  10.297  0.6183 -1.9566  0.8308
  509MOL0     H70223   6.510  10.996  10.111 -0.9676  2.4172 -0.4582
  509MOL0     H70224   6.518  10.805   9.798  1.1088  0.7209  2.7934
  509MOL0     H70225   6.652  10.731   9.618  0.3743 -1.9321 -0.9358
  509MOL0     H70226   6.131  10.355   8.174  0.5186  0.2622  0.9045
  509MOL0     H70227   6.170  10.507   7.981  0.1272  0.5925  0.1176
  509MOL0     H70228   6.079  10.935   7.838 -0.6885 -1.4076  0.6349
  509MOL0     H70229   6.050  11.146   7.730 -1.5633  1.3161  0.3736
  509MOL0     H70230   5.879  11.151   7.318  1.2580  0.7769 -0.0327
  509MOL0     H70231   5.736  11.219   7.403 -0.2606  2.2135  1.6566
  509MOL0     H70232   5.988  11.329   7.272 -0.3830  2.0070  0.1730
  509MOL0     H70233   5.927  11.423   7.413 -4.7694  2.8172  1.3091
  509MOL0     H70234   5.848  11.474   7.168 -0.9838  1.5464  0.8394
  509MOL0     H70235   5.773  11.320   7.173  0.1375 -0.0382  0.2281
  509MOL0     H70236   5.671  11.575   7.310 -1.7288 -0.4214 -2.3329
  509MOL0     H70237   5.676  11.432   7.414 -1.6485  0.6252 -0.4490
  509MOL0     H70238   5.351  11.413   7.144  0.0057 -2.7533 -0.0061
  509MOL0     H70239   5.758  10.989   7.459  0.6096 -1.6440  0.4985
  509MOL0     H70240   5.687  10.779   7.452 -1.8684  1.8724  0.8119
  509MOL0     H70241   5.801  10.664   7.520 -0.5307  1.0843 -5.2291
  509MOL0     H70242   5.655  10.729   7.612  0.0804  1.4655  0.2414
  510MOL0     O70243   3.554   7.923   3.777  0.2241 -0.1453 -0.3675
  510MOL0     C70244   3.551   8.039   3.811 -0.3148 -0.4947 -0.1331
  510MOL0     O70245   3.661   8.105   3.850 -0.4231  0.0770  0.0549
  510MOL0     C70246   3.784   8.043   3.842 -0.1318 -0.2296  0.3396
  510MOL0     C70247   3.844   8.016   3.717  0.3923  0.1780  0.6169
  510MOL0     C70248   3.979   7.979   3.708 -0.3571  0.2987  0.6399
  510MOL0     C70249   4.060   7.961   3.820  0.0808  0.7020 -0.6700
  510MOL0     O70250   4.187   7.916   3.804 -0.2118  0.3163  0.8119
  510MOL0     C70251   4.256   7.864   3.917 -0.7669 -0.5192 -0.8522
  510MOL0     C70252   4.374   7.783   3.853  0.5639  0.1513 -0.1968
  510MOL0     C70253   4.333   7.694   3.729  0.3338 -0.3384 -0.3562
  510MOL0     C70254   4.451   7.602   3.697 -0.1049  1.1840  0.3559
  510MOL0     C70255   4.425   7.503   3.583  0.3556  0.4841  0.3990
  510MOL0     C70256   4.395   7.558   3.440  0.1666  0.2729 -0.3130
  510MOL0     C70257   4.382   7.439   3.342  0.1343 -0.8092 -0.3726
  510MOL0     C70258   4.348   7.485   3.195  0.2605 -0.3857 -0.4334
  510MOL0     N70259   4.220   7.554   3.186  0.8929  0.9029 -0.0945
  510MOL0     C70260   4.103   7.503   3.225 -0.1709 -0.6525 -0.6083
  510MOL0     C70261   4.026   7.611   3.242  0.5360  0.6977  0.8544
  510MOL0     C70262   3.880   7.625   3.270 -0.1985  0.8349  0.4262
  510MOL0     C70263   3.867   7.652   3.423  0.4630 -0.1604  0.6795
  510MOL0     C70264   3.717   7.640   3.460 -0.7748 -0.8514 -0.7605
  510MOL0     C70265   3.721   7.639   3.612  0.7154 -1.0585 -0.2561
  510MOL0     O70266   3.799   7.538   3.656 -1.0405  0.0393 -1.0212
  510MOL0     C70267   3.862   7.550   3.771  0.3551  0.0484  0.0706
  510MOL0     C70268   3.950   7.441   3.780 -0.2442  0.1414  0.8073
  510MOL0     C70269   4.038   7.427   3.884 -0.0408  0.1874 -0.6775
  510MOL0     C70270   4.117   7.301   3.882 -0.6418 -0.0661  0.8991
  510MOL0     C70271   4.052   7.525   3.988 -0.0735 -0.0753  1.0489
  510MOL0     C70272   4.125   7.507   4.112  0.0412 -0.8766  0.4531
  510MOL0     O70273   4.230   7.418   4.103  0.2427  0.5507 -0.2077
  510MOL0     C70274   4.269   7.373   4.232  0.1505 -0.0515 -0.1240
  510MOL0     C70275   4.187   7.288   4.313 -0.5918 -0.0829  0.0963
  510MOL0     C70276   4.229   7.257   4.441 -0.0267  0.0041  0.2064
  510MOL0     C70277   4.348   7.304   4.489 -0.0236  0.9230  0.1424
  510MOL0     O70278   4.394   7.261   4.615 -0.1180  0.1839 -0.0584
  510MOL0     C70279   4.496   7.169   4.613 -0.2997 -0.1705 -0.3945
  510MOL0     C70280   4.566   7.155   4.751 -0.6008  0.0510 -0.0303
  510MOL0     C70281   4.688   7.071   4.729 -0.4749 -0.1169  0.6204
  510MOL0     C70282   4.741   7.040   4.872 -0.4630  0.3549  0.6565
  510MOL0     C70283   4.874   6.951   4.865  0.4551  0.9621  0.2696
  510MOL0     C70284   4.937   6.965   5.001  0.1421  0.0484 -0.7188
  510MOL0     C70285   5.061   6.879   5.022  0.5969 -0.2888  0.3488
  510MOL0     C70286   5.084   6.852   5.171 -0.2797 -0.3967  0.6502
  510MOL0    Cl70287   5.238   6.770   5.200 -0.0760  0.5221  0.1774
  510MOL0     C70288   4.431   7.382   4.410 -0.6174  0.8355 -0.2171
  510MOL0     C70289   4.396   7.413   4.275  0.6813  0.4025 -0.3270
  510MOL0     O70290   4.079   7.562   4.214  0.7054  0.3495 -0.1282
  510MOL0     C70291   3.967   7.634   3.973  0.1239  0.0886  0.2922
  510MOL0     C70292   3.866   7.639   3.873 -0.3368  0.1222 -0.5028
  510MOL0     N70293   4.097   7.724   3.214 -0.0651  0.0472 -0.0006
  510MOL0     N70294   4.212   7.682   3.171 -0.1189 -0.5002  0.1396
  510MOL0     C70295   4.002   7.988   3.953  0.8380 -0.0315 -1.3923
  510MOL0     C70296   3.866   8.032   3.958  0.0686 -0.8674 -0.1658
  510MOL0     C70297   3.420   8.121   3.780 -1.6213  0.7454 -1.1104
  510MOL0     C70298   3.298   8.056   3.784  0.5056 -0.2385 -0.1338
  510MOL0     C70299   3.181   8.122   3.761  0.4482  0.6833 -1.2443
  510MOL0     C70300   3.185   8.260   3.736  0.5637 -0.5811 -0.0474
  510MOL0     O70301   3.062   8.325   3.714 -0.3573 -0.2696  0.6158
  510MOL0     C70302   3.042   8.469   3.752  0.2631  0.2397  0.1802
  510MOL0     C70303   2.901   8.505   3.724  0.3747  0.2838  0.6753
  510MOL0     C70304   2.906   8.549   3.572 -0.7150  0.2952 -0.2097
  510MOL0     C70305   2.780   8.522   3.503  0.2313 -0.1714  0.5103
  510MOL0     C70306   2.662   8.581   3.557 -0.8673  0.0922 -0.7202
  510MOL0     C70307   2.576   8.647   3.614  0.1628 -0.7212  0.6900
  510MOL0     C70308   3.305   8.333   3.743 -0.4284 -0.2609 -0.0576
  510MOL0     C70309   3.426   8.270   3.767 -0.0015  0.0684 -1.0703
  510MOL0     C70310   3.552   8.349   3.775  0.0301  0.1098 -0.3029
  510MOL0     H70311   3.788   8.004   3.624  0.8116 -5.8953  0.7893
  510MOL0     H70312   4.022   7.953   3.612 -0.9160  2.1222 -0.1560
  510MOL0     H70313   4.189   7.801   3.977 -0.0542  0.6749  1.3266
  510MOL0     H70314   4.302   7.947   3.973 -0.4200 -0.9405 -0.5010
  510MOL0     H70315   4.448   7.848   3.805  1.6180 -1.4764 -0.8739
  510MOL0     H70316   4.416   7.719   3.932  2.9165 -0.4849 -1.8573
  510MOL0     H70317   4.249   7.634   3.766 -0.0679 -0.9444 -2.1438
  510MOL0     H70318   4.303   7.744   3.636 -2.2533 -1.3294 -0.1289
  510MOL0     H70319   4.533   7.669   3.671 -0.4791  2.3504  2.0347
  510MOL0     H70320   4.473   7.543   3.786 -3.1548 -1.8744 -0.6769
  510MOL0     H70321   4.340   7.440   3.613  1.0163 -0.7677 -0.2910
  510MOL0     H70322   4.512   7.437   3.573 -0.7663 -0.9873 -0.1214
  510MOL0     H70323   4.310   7.626   3.441  0.3871  0.5431  0.1571
  510MOL0     H70324   4.485   7.615   3.416  0.6218 -0.7869 -1.2293
  510MOL0     H70325   4.296   7.382   3.378  1.1978 -0.8408  2.3363
  510MOL0     H70326   4.478   7.387   3.355  1.2981  1.2505 -0.2774
  510MOL0     H70327   4.429   7.556   3.174  0.8506 -1.4626 -2.0111
  510MOL0     H70328   4.358   7.398   3.130  0.2117 -1.3678  0.8487
  510MOL0     H70329   4.080   7.399   3.247 -1.3157 -0.1753  0.6067
  510MOL0     H70330   3.832   7.531   3.237  0.9732 -0.5551  2.4656
  510MOL0     H70331   3.819   7.693   3.210  0.5698  1.3897  0.2686
  510MOL0     H70332   3.928   7.578   3.476 -0.6835 -0.2207  1.9835
  510MOL0     H70333   3.896   7.753   3.453 -1.6957  0.0385  2.4038
  510MOL0     H70334   3.661   7.724   3.417  1.1249  0.4850 -0.7383
  510MOL0     H70335   3.689   7.537   3.438  1.7515 -1.7910  0.0707
  510MOL0     H70336   3.739   7.741   3.649  0.5541 -0.7168 -1.0860
  510MOL0     H70337   3.626   7.621   3.663  1.8235 -2.2977  1.4831
  510MOL0     H70338   3.963   7.386   3.687  1.2875 -0.0269  1.1058
  510MOL0     H70339   4.105   7.235   3.968  0.0799 -0.3070  0.8312
  510MOL0     H70340   4.221   7.331   3.865  0.0778 -0.5124  4.0336
  510MOL0     H70341   4.090   7.244   3.792 -0.9169  1.6692 -0.1701
  510MOL0     H70342   4.090   7.256   4.278  0.9928 -3.1525 -2.0341
  510MOL0     H70343   4.170   7.188   4.501 -2.9103  1.0557 -1.2487
  510MOL0     H70344   4.449   7.073   4.591 -0.4431 -0.0437 -0.6501
  510MOL0     H70345   4.579   7.193   4.546  0.1916  0.9216  0.5832
  510MOL0     H70346   4.593   7.251   4.796  0.1090 -0.0360 -0.2548
  510MOL0     H70347   4.497   7.113   4.825 -1.1312  2.5621  1.0197
  510MOL0     H70348   4.773   7.113   4.675  1.4465 -2.0919  1.9536
  510MOL0     H70349   4.661   6.977   4.681  0.3693 -0.2636  0.4166
  510MOL0     H70350   4.678   6.985   4.942  1.5556  1.3766  3.4880
  510MOL0     H70351   4.768   7.136   4.918  1.7173 -0.8457  2.1008
  510MOL0     H70352   4.850   6.845   4.860 -1.9085  1.4095  0.9087
  510MOL0     H70353   4.936   6.975   4.778  1.4092 -2.5949 -0.2007
  510MOL0     H70354   4.869   6.936   5.082  0.7386 -0.2503 -0.3187
  510MOL0     H70355   4.951   7.073   5.005 -1.2779  0.2228  1.5386
  510MOL0     H70356   5.143   6.931   4.972 -0.8167  1.0652 -0.6561
  510MOL0     H70357   5.055   6.781   4.973 -1.3176  0.0660 -0.2125
  510MOL0     H70358   5.001   6.798   5.217  0.7158  0.2251  3.3459
  510MOL0     H70359   5.089   6.940   5.236  1.1514 -2.2463  3.2316
  510MOL0     H70360   4.525   7.422   4.448 -0.5924 -0.9130  1.7389
  510MOL0     H70361   4.472   7.461   4.213  2.3041  2.0328  2.6747
  510MOL0     H70362   3.971   7.706   4.054 -1.7631  0.4348  0.1229
  510MOL0     H70363   3.800   7.725   3.883 -1.2186 -0.5634 -0.2057
  510MOL0     H70364   4.065   7.971   4.040 -2.9995  0.1367  1.7081
  510MOL0     H70365   3.823   8.060   4.054 -1.9824  0.8795 -1.5253
  510MOL0     H70366   3.297   7.958   3.830  2.4705 -0.4854 -0.5632
  510MOL0     H70367   3.084   8.073   3.762 -0.2353  1.7961  2.6866
  510MOL0     H70368   3.057   8.485   3.860  0.6590  0.7875  0.0488
  510MOL0     H70369   3.115   8.525   3.694  0.1472  0.2322  0.0270
  510MOL0     H70370   2.868   8.578   3.799  0.4829  0.6955  0.3243
  510MOL0     H70371   2.846   8.411   3.732 -0.0581  0.3454 -1.1790
  510MOL0     H70372   2.929   8.655   3.563 -1.3688  0.3724 -1.1374
  510MOL0     H70373   2.980   8.498   3.509 -1.3397  3.8721 -4.3381
  510MOL0     H70374   2.765   8.415   3.483 -0.4911  0.2462 -1.3742
  510MOL0     H70375   2.779   8.560   3.401  0.0418  0.4809  0.7469
  510MOL0     H70376   2.492   8.704   3.647 -0.2770 -0.6761 -0.4443
  510MOL0     H70377   3.320   8.440   3.749  0.8045 -0.4228  0.0342
  510MOL0     H70378   3.532   8.456   3.764  0.7043  0.1974 -0.7385
  510MOL0     H70379   3.597   8.336   3.873  0.0643 -1.4916 -0.5118
  510MOL0     H70380   3.622   8.313   3.699 -0.7844 -0.1786 -0.9333
  511MOL0     O70381   4.686   1.775   7.964  0.5232 -0.4689  0.0667
  511MOL0     C70382   4.675   1.717   7.859 -0.8208  0.5843 -0.3477
  511MOL0     O70383   4.589   1.739   7.756  0.4724  0.0621  0.1698
  511MOL0     C70384   4.497   1.840   7.769  0.3319 -0.6398 -0.2984
  511MOL0     C70385   4.520   1.956   7.700  0.0859 -0.7653  0.3634
  511MOL0     C70386   4.432   2.062   7.693  0.1889  0.3568 -0.7166
  511MOL0     C70387   4.298   2.046   7.748 -0.7913 -0.5340  0.2136
  511MOL0     O70388   4.197   2.129   7.731 -0.7430 -0.5241  0.5186
  511MOL0     C70389   4.194   2.271   7.680  0.1639  0.7640 -0.3246
  511MOL0     C70390   4.090   2.352   7.762  0.0583 -0.3091 -0.3465
  511MOL0     C70391   4.146   2.383   7.906 -0.2255 -0.5977 -0.8025
  511MOL0     C70392   4.059   2.489   7.969 -0.3368  1.1778  0.3895
  511MOL0     C70393   4.144   2.549   8.080 -0.4790 -1.0161  0.5720
  511MOL0     C70394   4.100   2.683   8.121  0.3708 -0.1169  0.1496
  511MOL0     C70395   3.951   2.677   8.172  0.1574  0.1616  0.0862
  511MOL0     C70396   3.911   2.819   8.239 -0.3737 -0.0624 -0.2333
  511MOL0     N70397   3.773   2.827   8.294 -0.2886 -0.5459  0.0902
  511MOL0     C70398   3.671   2.893   8.236  0.5796 -0.3009  0.2781
  511MOL0     C70399   3.568   2.869   8.324  0.6158  0.0304  0.1640
  511MOL0     C70400   3.425   2.921   8.315  0.8365  0.4586 -0.2428
  511MOL0     C70401   3.363   2.829   8.208 -0.4064  0.4554 -0.0735
  511MOL0     C70402   3.214   2.834   8.207 -0.1677 -0.3107  0.4613
  511MOL0     C70403   3.148   2.712   8.139 -0.6701 -0.0313  0.3466
  511MOL0     O70404   3.190   2.729   7.995  0.0163  0.2064 -0.0038
  511MOL0     C70405   3.089   2.717   7.907 -0.1413  0.9255  0.6503
  511MOL0     C70406   3.058   2.594   7.851  0.0664 -0.3762  0.0086
  511MOL0     C70407   2.946   2.572   7.766  0.2606  0.7869  0.9842
  511MOL0     C70408   2.910   2.431   7.716 -0.3360 -0.1459  0.2437
  511MOL0     C70409   2.857   2.684   7.740 -0.2573  0.5093 -0.3690
  511MOL0     C70410   2.724   2.687   7.670  0.5679 -0.2020 -0.6306
  511MOL0     O70411   2.665   2.807   7.649  0.1443 -0.4894  0.3817
  511MOL0     C70412   2.546   2.834   7.587  0.6383 -0.4814  0.9230
  511MOL0     C70413   2.440   2.914   7.642 -0.3006  0.2628 -0.0084
  511MOL0     C70414   2.324   2.935   7.566  0.5969 -0.0819  1.0607
  511MOL0     C70415   2.308   2.896   7.438  0.6463  0.2229  0.3736
  511MOL0     O70416   2.191   2.926   7.375 -1.4849  0.0978  0.0845
  511MOL0     C70417   2.137   2.828   7.289  0.3607  0.0160  0.4331
  511MOL0     C70418   1.997   2.888   7.259  0.4952  0.3702 -0.3465
  511MOL0     C70419   1.917   2.785   7.169 -0.1310  0.4551 -0.0404
  511MOL0     C70420   1.968   2.796   7.019 -0.8003  0.2181 -0.2609
  511MOL0     C70421   1.908   2.705   6.913 -0.2601 -0.1636 -1.2206
  511MOL0     C70422   1.771   2.733   6.874 -0.3282  0.2455  0.7637
  511MOL0     C70423   1.731   2.626   6.774 -0.0608  0.5856  0.0058
  511MOL0     C70424   1.591   2.632   6.711  0.2725 -0.0032  0.3889
  511MOL0    Cl70425   1.467   2.593   6.847  0.4997 -0.1828  0.1359
  511MOL0     C70426   2.413   2.830   7.378 -0.8248  1.0179 -0.5820
  511MOL0     C70427   2.531   2.794   7.449 -0.5241 -0.6365  0.4299
  511MOL0     O70428   2.690   2.580   7.615  0.1378  0.2118  0.9385
  511MOL0     C70429   2.889   2.808   7.806  0.6735 -0.3605  0.4957
  511MOL0     C70430   3.002   2.822   7.887 -0.0426  0.1763 -0.2012
  511MOL0     N70431   3.613   2.785   8.433 -1.0438 -0.7615  0.0529
  511MOL0     N70432   3.741   2.769   8.416 -0.2964  0.4762 -0.3240
  511MOL0     C70433   4.271   1.921   7.808  0.3196 -0.4891 -0.2606
  511MOL0     C70434   4.368   1.824   7.817  0.0131  0.3365 -0.0610
  511MOL0     C70435   4.758   1.589   7.845  0.1784 -0.5910  0.0364
  511MOL0     C70436   4.720   1.498   7.747 -0.2241  0.1446 -0.3721
  511MOL0     C70437   4.792   1.374   7.732  0.1726 -1.0848  1.0485
  511MOL0     C70438   4.897   1.335   7.814 -0.4647 -1.3743  0.6247
  511MOL0     O70439   4.970   1.225   7.796  0.1323  0.1345  0.2693
  511MOL0     C70440   5.025   1.150   7.902 -0.4710  0.1762  0.0175
  511MOL0     C70441   5.150   1.071   7.852  0.2391 -0.6585 -0.6121
  511MOL0     C70442   5.106   0.937   7.784 -1.0338 -0.1919  0.5004
  511MOL0     C70443   5.039   0.953   7.645  0.2028  0.2671  0.5531
  511MOL0     C70444   5.131   0.996   7.537 -0.0842 -0.6196 -0.0331
  511MOL0     C70445   5.214   1.025   7.446 -0.0005  0.0063 -0.0952
  511MOL0     C70446   4.929   1.425   7.919 -0.1685  0.6075  0.3839
  511MOL0     C70447   4.867   1.552   7.934  0.0119 -0.1499  0.1503
  511MOL0     C70448   4.921   1.642   8.048  0.4175 -0.6191  0.4167
  511MOL0     H70449   4.620   1.973   7.662 -0.1525 -0.0064  0.0625
  511MOL0     H70450   4.432   2.153   7.634 -0.8856  0.5808 -0.3977
  511MOL0     H70451   4.151   2.274   7.579 -0.7431  1.6116  0.0598
  511MOL0     H70452   4.288   2.324   7.696  2.2265 -1.9897 -2.2951
  511MOL0     H70453   4.077   2.448   7.711  1.5738 -0.0040 -0.2167
  511MOL0     H70454   3.995   2.298   7.769  1.1200 -1.9853  2.8533
  511MOL0     H70455   4.153   2.296   7.972  0.2174 -0.9415 -1.2952
  511MOL0     H70456   4.248   2.416   7.888 -0.7669  0.5414 -1.9824
  511MOL0     H70457   4.030   2.560   7.891 -1.4740 -0.7237 -1.0143
  511MOL0     H70458   3.965   2.446   8.006  0.8899 -1.2333  0.9272
  511MOL0     H70459   4.248   2.558   8.051 -0.5641  0.1391  0.5755
  511MOL0     H70460   4.142   2.483   8.167 -1.3792 -2.2712 -0.3679
  511MOL0     H70461   4.174   2.729   8.187 -0.0474  1.8942 -0.6900
  511MOL0     H70462   4.112   2.754   8.039 -0.1847  2.0128  1.8213
  511MOL0     H70463   3.938   2.600   8.248  1.4347  2.8443  3.2742
  511MOL0     H70464   3.881   2.664   8.089 -1.0592 -1.0597  1.2454
  511MOL0     H70465   3.984   2.810   8.321  0.1007  3.3688 -0.1458
  511MOL0     H70466   3.931   2.900   8.168  1.7722 -0.1526  0.1888
  511MOL0     H70467   3.667   2.957   8.148 -0.9899  1.1911  1.3676
  511MOL0     H70468   3.424   3.028   8.293  1.0071  0.2500 -1.3345
  511MOL0     H70469   3.374   2.909   8.411  2.0184 -0.4799  0.2857
  511MOL0     H70470   3.404   2.847   8.108 -1.1569 -5.7123 -1.8559
  511MOL0     H70471   3.386   2.723   8.222  0.7589  0.5872 -0.8086
  511MOL0     H70472   3.173   2.848   8.308 -0.2438  2.3224  0.1392
  511MOL0     H70473   3.190   2.923   8.148 -0.4402 -0.8205 -0.1997
  511MOL0     H70474   3.188   2.627   8.196  0.2498 -0.8609 -1.4535
  511MOL0     H70475   3.039   2.721   8.137 -0.7241 -0.7361 -0.0796
  511MOL0     H70476   3.114   2.504   7.878 -0.1562 -0.4794  0.1292
  511MOL0     H70477   2.998   2.368   7.735 -0.8585 -0.8047  0.5031
  511MOL0     H70478   2.900   2.441   7.608 -4.4425  3.4202  0.6883
  511MOL0     H70479   2.826   2.391   7.773 -0.3260  1.0207  1.1196
  511MOL0     H70480   2.454   2.951   7.743  4.4207  1.8447 -0.9808
  511MOL0     H70481   2.238   2.990   7.602 -0.0167 -0.0501 -0.3774
  511MOL0     H70482   2.195   2.804   7.200  0.3571  2.2614 -0.2418
  511MOL0     H70483   2.132   2.738   7.351  1.6047  0.8093  1.7526
  511MOL0     H70484   1.942   2.893   7.354  0.3780  0.1954 -0.4061
  511MOL0     H70485   2.011   2.982   7.205  3.2386  0.2742  0.0591
  511MOL0     H70486   1.809   2.802   7.168  0.3033  5.3814  2.2653
  511MOL0     H70487   1.936   2.688   7.215 -1.0633 -0.6898 -1.9763
  511MOL0     H70488   2.074   2.777   7.000 -1.1380 -0.1288 -2.0089
  511MOL0     H70489   1.942   2.898   6.986 -3.0883  0.7902  2.8899
  511MOL0     H70490   1.970   2.707   6.823  1.4195 -1.5541 -0.1485
  511MOL0     H70491   1.918   2.602   6.947  1.2764  0.3217 -0.1326
  511MOL0     H70492   1.761   2.829   6.822 -0.9910  0.7011  1.7059
  511MOL0     H70493   1.703   2.734   6.959  0.6778  1.9789  1.6191
  511MOL0     H70494   1.745   2.527   6.818 -3.3628 -2.2169 -4.4692
  511MOL0     H70495   1.803   2.628   6.692 -0.4568  0.6458 -0.3365
  511MOL0     H70496   1.593   2.552   6.636  0.2931 -2.0276  2.4158
  511MOL0     H70497   1.574   2.732   6.672  1.7810  0.8062  1.7023
  511MOL0     H70498   2.409   2.791   7.277 -0.6658 -0.9101  0.1183
  511MOL0     H70499   2.609   2.742   7.395  3.4156  1.2160  3.8079
  511MOL0     H70500   2.819   2.890   7.812 -0.2885 -1.2346  2.1383
  511MOL0     H70501   3.022   2.920   7.928 -3.4142  0.2073  1.7620
  511MOL0     H70502   4.172   1.901   7.847  1.3175 -3.2373  1.0766
  511MOL0     H70503   4.353   1.728   7.866  1.2640 -0.6792 -1.5602
  511MOL0     H70504   4.631   1.501   7.686 -0.0271  1.3873 -0.6258
  511MOL0     H70505   4.758   1.311   7.650 -0.6130  0.8831 -0.2118
  511MOL0     H70506   5.064   1.225   7.971  0.8680 -1.1279  0.7244
  511MOL0     H70507   4.956   1.082   7.953 -0.4001  0.2468  0.2085
  511MOL0     H70508   5.199   1.034   7.942 -0.9933 -5.5992 -1.6412
  511MOL0     H70509   5.227   1.126   7.796  2.5586 -3.1702 -0.0934
  511MOL0     H70510   5.189   0.870   7.763 -1.3927 -0.8342  1.0858
  511MOL0     H70511   5.048   0.886   7.861  1.2589 -1.3806  1.5435
  511MOL0     H70512   4.966   1.035   7.652  1.5312  1.5585 -0.3355
  511MOL0     H70513   4.980   0.866   7.613  4.0775 -2.3086 -0.1939
  511MOL0     H70514   5.301   1.041   7.385  0.7653  1.0405  1.2218
  511MOL0     H70515   5.018   1.419   7.980  0.0247 -1.5990 -0.0244
  511MOL0     H70516   5.015   1.606   8.091  1.5872  0.0759 -1.4603
  511MOL0     H70517   4.945   1.740   8.005  2.4274 -1.4649 -0.5262
  511MOL0     H70518   4.851   1.648   8.131 -0.3515 -0.1394 -0.2534
  512MOL0     O70519   5.217   6.461   7.199 -0.4670 -0.0454 -0.4147
  512MOL0     C70520   5.318   6.424   7.259 -0.3465 -0.2788  0.0507
  512MOL0     O70521   5.447   6.478   7.263 -0.0180 -0.0247  0.1037
  512MOL0     C70522   5.488   6.552   7.155  0.9742  0.4325  0.1176
  512MOL0     C70523   5.555   6.477   7.055 -0.3165 -0.3489  0.1549
  512MOL0     C70524   5.592   6.539   6.934 -0.0517 -0.7109  1.1479
  512MOL0     C70525   5.575   6.676   6.911  1.2338 -0.5036  0.9407
  512MOL0     O70526   5.606   6.746   6.793  0.3448 -0.4797 -0.8217
  512MOL0     C70527   5.515   6.744   6.689 -0.4551 -1.0870 -0.7336
  512MOL0     C70528   5.587   6.711   6.555 -0.3340 -0.2359 -0.5661
  512MOL0     C70529   5.622   6.562   6.560  0.1105  0.2053  0.0913
  512MOL0     C70530   5.703   6.526   6.443 -0.2948  0.5713  0.1307
  512MOL0     C70531   5.760   6.383   6.451  0.1865 -0.5778  0.3891
  512MOL0     C70532   5.821   6.340   6.321 -0.5294  0.6681  0.1843
  512MOL0     C70533   5.864   6.191   6.320 -0.0613 -0.2890 -0.3527
  512MOL0     C70534   5.985   6.165   6.247 -0.1824 -0.3557 -0.2950
  512MOL0     N70535   5.969   6.196   6.099 -1.1385 -0.2331 -0.2552
  512MOL0     C70536   5.873   6.149   6.016  0.7774 -0.4299  0.6818
  512MOL0     C70537   5.905   6.198   5.892 -0.0040 -0.0255 -1.2517
  512MOL0     C70538   5.830   6.177   5.763 -0.3492 -0.3594 -0.6676
  512MOL0     C70539   5.897   6.072   5.678 -0.5328  0.1851 -0.1831
  512MOL0     C70540   5.941   5.940   5.751 -0.0159 -0.3187 -0.2958
  512MOL0     C70541   5.989   5.828   5.654 -0.2183  0.1796 -0.4401
  512MOL0     O70542   6.096   5.870   5.574  0.1004 -0.7096  0.4083
  512MOL0     C70543   6.095   5.870   5.438 -0.0176 -0.4663  0.2592
  512MOL0     C70544   6.214   5.893   5.377  0.1289 -0.3270 -0.8002
  512MOL0     C70545   6.227   5.907   5.245 -0.3075 -1.1164 -0.4347
  512MOL0     C70546   6.360   5.973   5.202  0.9762 -0.0746 -0.6045
  512MOL0     C70547   6.120   5.877   5.148  0.7041 -0.2599 -0.3705
  512MOL0     C70548   6.142   5.887   5.005  1.4212  0.1615 -0.0895
  512MOL0     O70549   6.029   5.860   4.936 -0.4171  0.0382  0.7536
  512MOL0     C70550   6.053   5.814   4.809  0.5109 -0.0370  0.1083
  512MOL0     C70551   6.146   5.715   4.776 -0.1846  0.3805  0.1614
  512MOL0     C70552   6.152   5.661   4.649 -0.9663 -1.1089  0.2939
  512MOL0     C70553   6.072   5.716   4.546 -0.1446 -0.2198  0.0494
  512MOL0     O70554   6.057   5.652   4.428 -0.1112 -0.0034  0.6276
  512MOL0     C70555   6.070   5.752   4.318 -0.9291  0.7334 -0.2790
  512MOL0     C70556   6.016   5.691   4.191  0.1477  0.4149 -0.1205
  512MOL0     C70557   6.035   5.774   4.068  0.0801 -0.2821 -0.1469
  512MOL0     C70558   5.956   5.724   3.945  0.0258 -0.1079  0.1327
  512MOL0     C70559   5.958   5.819   3.824  0.5914 -0.4481  0.3795
  512MOL0     C70560   6.104   5.834   3.767 -0.3106 -0.6338 -0.8532
  512MOL0     C70561   6.115   5.894   3.627 -0.1141 -0.2460  0.1929
  512MOL0     C70562   6.053   6.036   3.609 -1.2870  0.2509 -0.1408
  512MOL0    Cl70563   6.102   6.143   3.744 -0.2239 -0.3464 -0.2021
  512MOL0     C70564   5.982   5.823   4.579  0.7887  0.1349  0.9217
  512MOL0     C70565   5.967   5.870   4.709  0.1098  0.1169  0.0401
  512MOL0     O70566   6.246   5.913   4.953 -0.6317  0.0243 -0.2040
  512MOL0     C70567   5.995   5.842   5.205  0.3042 -0.3453  0.3211
  512MOL0     C70568   5.987   5.850   5.342 -0.5236  0.6611 -0.2447
  512MOL0     N70569   6.022   6.267   5.909 -0.0535  0.3375  1.2176
  512MOL0     N70570   6.050   6.274   6.028 -0.1089  0.5821 -0.0838
  512MOL0     C70571   5.514   6.752   7.019  0.5071  0.8693  0.8855
  512MOL0     C70572   5.463   6.688   7.136  0.1446  0.1972  0.5560
  512MOL0     C70573   5.298   6.320   7.365 -0.0325 -0.5140 -0.2453
  512MOL0     C70574   5.361   6.339   7.488  0.5888 -0.7763  0.6148
  512MOL0     C70575   5.327   6.259   7.593 -1.1478  0.4811 -0.8152
  512MOL0     C70576   5.230   6.173   7.601 -0.7515  1.9517 -0.0593
  512MOL0     O70577   5.196   6.106   7.713  0.6002 -0.4033  0.4560
  512MOL0     C70578   5.099   6.178   7.793 -0.3077 -1.1330  0.7044
  512MOL0     C70579   4.957   6.129   7.757  0.2776 -0.0758  0.3490
  512MOL0     C70580   4.941   5.973   7.788  0.5361 -1.5670 -0.7043
  512MOL0     C70581   4.894   5.875   7.682 -0.0113 -0.1867  0.5952
  512MOL0     C70582   4.775   5.918   7.602  0.5964  0.2054 -0.1850
  512MOL0     C70583   4.674   5.978   7.562 -0.6548  0.3287  0.5652
  512MOL0     C70584   5.157   6.162   7.484  0.2680 -0.2252 -0.3648
  512MOL0     C70585   5.187   6.242   7.369 -0.2991  0.7688 -0.0830
  512MOL0     C70586   5.077   6.236   7.261  0.4897  0.6201  0.4258
  512MOL0     H70587   5.594   6.377   7.065  5.1882  1.5796  1.5099
  512MOL0     H70588   5.653   6.484   6.862  3.3363  2.3681  1.3430
  512MOL0     H70589   5.474   6.844   6.670  0.7227  0.0120  1.9951
  512MOL0     H70590   5.427   6.678   6.695 -1.5507  0.0611 -2.8112
  512MOL0     H70591   5.523   6.741   6.471 -1.4753  1.8133  0.9432
  512MOL0     H70592   5.678   6.770   6.543  0.4223 -1.3524 -0.4834
  512MOL0     H70593   5.686   6.549   6.648  0.6261 -0.6794 -0.3964
  512MOL0     H70594   5.526   6.509   6.560  0.4471 -0.4214 -0.8288
  512MOL0     H70595   5.640   6.525   6.354 -1.4004  2.0801  0.8496
  512MOL0     H70596   5.787   6.596   6.439  2.2427 -2.1463  1.6434
  512MOL0     H70597   5.680   6.312   6.474 -0.2519 -0.2285 -0.0353
  512MOL0     H70598   5.836   6.376   6.529  1.5012 -1.0873 -0.9016
  512MOL0     H70599   5.738   6.342   6.250  0.6466  0.1576 -1.2533
  512MOL0     H70600   5.905   6.399   6.283  1.1591 -2.1312 -0.7987
  512MOL0     H70601   5.787   6.116   6.299  0.9283 -1.5932  0.4938
  512MOL0     H70602   5.895   6.175   6.424 -0.3828 -1.2541 -0.3977
  512MOL0     H70603   6.078   6.216   6.274  0.6919 -1.3403 -1.3323
  512MOL0     H70604   6.013   6.060   6.258 -0.4995 -0.3895  0.2259
  512MOL0     H70605   5.779   6.100   6.036 -0.9573  1.1139 -2.8397
  512MOL0     H70606   5.825   6.270   5.705 -0.4563 -0.8290 -1.4272
  512MOL0     H70607   5.726   6.148   5.779 -1.0846  2.0135 -0.7846
  512MOL0     H70608   5.827   6.052   5.596 -0.4576 -0.7855 -0.0281
  512MOL0     H70609   5.991   6.120   5.650  2.4531 -2.6740  3.9202
  512MOL0     H70610   6.015   5.963   5.829 -2.4731  1.7307  1.6189
  512MOL0     H70611   5.858   5.891   5.804 -0.7131 -0.7060 -1.6993
  512MOL0     H70612   6.028   5.749   5.719  1.0085  1.1411  0.0106
  512MOL0     H70613   5.898   5.794   5.602 -0.2600  1.4156 -1.1994
  512MOL0     H70614   6.305   5.911   5.434 -0.0536 -0.3454 -0.4994
  512MOL0     H70615   6.406   5.922   5.117  1.0099  1.8211 -1.7817
  512MOL0     H70616   6.427   5.975   5.288 -3.1501 -3.8611  3.2381
  512MOL0     H70617   6.339   6.072   5.159 -0.9216 -0.8006 -1.4965
  512MOL0     H70618   6.190   5.660   4.859  0.7317 -1.1129 -1.2528
  512MOL0     H70619   6.224   5.583   4.627 -0.0111  0.0677 -0.9157
  512MOL0     H70620   6.006   5.840   4.332 -2.1984 -0.1505 -0.3395
  512MOL0     H70621   6.172   5.791   4.317  0.0082 -1.5944  0.0497
  512MOL0     H70622   6.077   5.602   4.170 -0.6960 -0.7979  2.1773
  512MOL0     H70623   5.911   5.663   4.191  0.5446 -1.2384 -1.6697
  512MOL0     H70624   6.143   5.778   4.052  0.5289 -0.2605  2.4422
  512MOL0     H70625   5.986   5.870   4.086  0.0336 -0.4720  0.7731
  512MOL0     H70626   5.851   5.701   3.963 -0.0565 -2.0292 -2.2126
  512MOL0     H70627   5.993   5.628   3.908 -2.2454 -1.3228  0.8300
  512MOL0     H70628   5.884   5.793   3.747 -0.0989  0.4488  0.7242
  512MOL0     H70629   5.933   5.920   3.856  1.9824 -0.5308  1.8187
  512MOL0     H70630   6.156   5.741   3.791 -0.2838 -0.8162 -1.6043
  512MOL0     H70631   6.156   5.905   3.833  2.6817 -1.6845 -1.9060
  512MOL0     H70632   6.062   5.834   3.553 -0.3471 -1.0996  1.0198
  512MOL0     H70633   6.222   5.879   3.611 -0.0112  1.4237 -0.8194
  512MOL0     H70634   5.944   6.025   3.604 -1.5283  2.2721 -0.0592
  512MOL0     H70635   6.081   6.079   3.513  2.1868 -0.1937  0.5714
  512MOL0     H70636   5.912   5.873   4.513  1.6910  0.3505  0.1291
  512MOL0     H70637   5.891   5.943   4.737  0.1400 -0.5258  1.9845
  512MOL0     H70638   5.912   5.827   5.137  1.1703  0.4179 -0.9290
  512MOL0     H70639   5.899   5.827   5.401  1.1612  1.1534  2.6109
  512MOL0     H70640   5.495   6.856   6.997  0.3054  0.6258 -0.1328
  512MOL0     H70641   5.396   6.741   7.204  0.7881  0.8791  0.6710
  512MOL0     H70642   5.451   6.399   7.495  0.3469 -0.4676  1.1610
  512MOL0     H70643   5.387   6.265   7.684 -0.8916  0.4298 -0.9803
  512MOL0     H70644   5.109   6.170   7.901 -2.5994 -2.8772  0.8705
  512MOL0     H70645   5.105   6.284   7.767 -2.2431 -1.3303 -0.8701
  512MOL0     H70646   4.936   6.151   7.652  0.9786  2.0521  0.6135
  512MOL0     H70647   4.887   6.193   7.812  1.2459  1.6888 -0.3894
  512MOL0     H70648   5.038   5.942   7.829 -0.9563 -3.1301  1.9536
  512MOL0     H70649   4.867   5.968   7.869  1.7015  1.6750  0.6983
  512MOL0     H70650   4.889   5.777   7.729  1.7052  0.4661  2.2770
  512MOL0     H70651   4.985   5.879   7.621 -0.6509  0.3664 -0.3543
  512MOL0     H70652   4.594   6.040   7.525  0.8419  2.0394  0.0263
  512MOL0     H70653   5.072   6.094   7.476  1.3922 -1.4358 -4.6466
  512MOL0     H70654   5.019   6.329   7.259 -1.0252 -0.2554 -2.0946
  512MOL0     H70655   5.116   6.224   7.159  0.4171 -1.5959  0.6109
  512MOL0     H70656   5.020   6.145   7.283  1.9008 -0.1397  1.0714
  513MOL0     O70657   4.694   6.561   5.444  0.4460  0.6816 -0.4366
  513MOL0     C70658   4.602   6.638   5.453  0.7684 -0.7451 -0.6018
  513MOL0     O70659   4.474   6.613   5.490  0.6887 -0.6431  0.8364
  513MOL0     C70660   4.459   6.494   5.560  0.6791 -0.3807 -0.7732
  513MOL0     C70661   4.491   6.495   5.694 -0.5031  1.1125  0.5203
  513MOL0     C70662   4.481   6.376   5.772 -0.4860 -0.3128  0.6173
  513MOL0     C70663   4.437   6.258   5.718  0.0290  0.1568 -0.4770
  513MOL0     O70664   4.425   6.142   5.790  0.3470 -0.2704  0.0049
  513MOL0     C70665   4.398   6.144   5.929  0.6376 -0.3555 -0.0437
  513MOL0     C70666   4.358   5.998   5.974 -0.5719 -0.0363  0.1835
  513MOL0     C70667   4.235   5.935   5.915  0.4683  0.4481  0.0861
  513MOL0     C70668   4.108   6.010   5.969 -0.3704 -0.5450 -0.7793
  513MOL0     C70669   3.981   5.918   5.948  0.4791 -0.0906 -0.2904
  513MOL0     C70670   3.861   5.962   6.041 -0.3207  0.8075  0.2310
  513MOL0     C70671   3.828   6.117   6.041  0.1537 -1.2874 -0.0419
  513MOL0     C70672   3.805   6.178   5.899  0.1124 -0.4812 -0.0857
  513MOL0     N70673   3.708   6.102   5.825 -0.1501  0.8162  0.4863
  513MOL0     C70674   3.717   6.047   5.701  0.2999 -0.5428 -0.6277
  513MOL0     C70675   3.595   5.985   5.680 -0.1786 -0.3313 -0.0862
  513MOL0     C70676   3.566   5.901   5.559  0.0952 -0.9968  0.5085
  513MOL0     C70677   3.424   5.856   5.552  0.6817 -0.5098 -0.2572
  513MOL0     C70678   3.371   5.817   5.406 -0.1772 -0.4511 -0.3336
  513MOL0     C70679   3.406   5.683   5.351  0.5314 -0.8742 -0.3287
  513MOL0     O70680   3.531   5.624   5.405  0.1517 -0.4299  1.0681
  513MOL0     C70681   3.561   5.501   5.349 -0.0100 -0.7324 -0.1817
  513MOL0     C70682   3.560   5.457   5.218 -0.0045 -0.5167 -0.4197
  513MOL0     C70683   3.600   5.337   5.167 -0.6259 -0.3297  0.2165
  513MOL0     C70684   3.590   5.301   5.020 -0.0496  0.8851 -0.6005
  513MOL0     C70685   3.659   5.245   5.260  0.3417 -0.3997  0.3510
  513MOL0     C70686   3.707   5.110   5.216  0.4822 -0.1678 -0.5411
  513MOL0     O70687   3.829   5.085   5.268 -0.2425  0.0219 -0.9827
  513MOL0     C70688   3.867   4.955   5.255  0.9191  0.7087 -0.2386
  513MOL0     C70689   3.946   4.909   5.147 -0.5310 -0.0974 -0.0066
  513MOL0     C70690   3.987   4.775   5.143 -0.9681 -0.0474  0.4033
  513MOL0     C70691   3.957   4.678   5.243  0.8201  0.7544 -0.0253
  513MOL0     O70692   3.992   4.544   5.237  0.1437  0.1437 -0.2859
  513MOL0     C70693   4.035   4.486   5.360  0.0494 -0.6178 -0.1992
  513MOL0     C70694   4.095   4.352   5.320  0.5348  0.3434 -0.3542
  513MOL0     C70695   4.148   4.281   5.446  0.1575 -0.2135  0.3286
  513MOL0     C70696   4.267   4.341   5.522 -0.1936 -0.4891 -1.0767
  513MOL0     C70697   4.271   4.278   5.660 -0.0128 -0.2290 -0.1268
  513MOL0     C70698   4.395   4.324   5.741 -0.0574 -1.0385  0.5601
  513MOL0     C70699   4.419   4.229   5.862 -0.4311  0.1863  0.1855
  513MOL0     C70700   4.524   4.287   5.950 -0.1150 -0.1737  0.2839
  513MOL0    Cl70701   4.697   4.299   5.872  0.0244 -0.7467  0.1340
  513MOL0     C70702   3.877   4.723   5.351  1.0655 -0.4833  0.1935
  513MOL0     C70703   3.827   4.856   5.349  0.1760 -0.6740  0.3702
  513MOL0     O70704   3.639   5.034   5.149 -0.3606  0.1018 -0.4627
  513MOL0     C70705   3.670   5.288   5.397 -0.3673  0.2200  0.8995
  513MOL0     C70706   3.633   5.413   5.435  0.6056  0.5759  0.1335
  513MOL0     N70707   3.508   6.021   5.782 -0.1380  0.6344  1.0381
  513MOL0     N70708   3.581   6.085   5.874 -0.4566  0.3088 -0.1283
  513MOL0     C70709   4.407   6.254   5.578 -0.0838 -0.3872  0.1436
  513MOL0     C70710   4.414   6.373   5.496 -0.1877 -0.8687 -0.1602
  513MOL0     C70711   4.625   6.780   5.404 -0.1483 -0.8109 -0.1950
  513MOL0     C70712   4.522   6.855   5.345 -0.6723 -0.7289 -0.0901
  513MOL0     C70713   4.554   6.984   5.283 -0.0685  0.0841 -0.3318
  513MOL0     C70714   4.678   7.038   5.292 -0.0050  0.1425  0.1861
  513MOL0     O70715   4.716   7.159   5.236 -1.1751  0.3029 -0.6927
  513MOL0     C70716   4.614   7.235   5.165  0.4580 -0.0289 -0.5511
  513MOL0     C70717   4.506   7.294   5.260 -0.0231 -0.0207  1.0416
  513MOL0     C70718   4.554   7.402   5.369  0.7580 -0.9062  0.2006
  513MOL0     C70719   4.445   7.506   5.406  0.0383 -0.2430 -0.2635
  513MOL0     C70720   4.492   7.631   5.474 -0.7618  0.1681 -0.4097
  513MOL0     C70721   4.540   7.728   5.528  0.4893 -0.0274  0.1612
  513MOL0     C70722   4.778   6.969   5.360  0.3330  0.5810 -0.0588
  513MOL0     C70723   4.760   6.841   5.409  0.0772 -0.6270 -0.2145
  513MOL0     C70724   4.878   6.790   5.486 -0.6029  0.0770 -0.3531
  513MOL0     H70725   4.522   6.584   5.748 -0.7983  0.1554  2.3492
  513MOL0     H70726   4.494   6.379   5.880 -1.8627 -0.1330  0.7967
  513MOL0     H70727   4.311   6.202   5.962  2.6398  2.7368  0.2526
  513MOL0     H70728   4.490   6.182   5.974  0.4062 -0.5636  0.6192
  513MOL0     H70729   4.443   5.932   5.953 -1.5284 -0.9583 -0.9291
  513MOL0     H70730   4.344   5.995   6.082 -0.8574  0.6758  0.1717
  513MOL0     H70731   4.250   5.941   5.806  1.1488 -3.6809 -0.2372
  513MOL0     H70732   4.236   5.829   5.943 -2.8662  0.7672  1.9163
  513MOL0     H70733   4.131   6.035   6.073  1.5409 -1.4130 -0.9315
  513MOL0     H70734   4.105   6.099   5.906 -2.9187 -0.9638 -1.3409
  513MOL0     H70735   4.012   5.814   5.963  1.5939  0.0708 -1.3464
  513MOL0     H70736   3.937   5.918   5.848 -2.3093  0.7923  0.8339
  513MOL0     H70737   3.777   5.893   6.024  0.4050 -0.9220  3.0305
  513MOL0     H70738   3.891   5.944   6.145  1.3438  2.5054  0.0952
  513MOL0     H70739   3.907   6.176   6.088 -1.3130 -1.3177  2.7179
  513MOL0     H70740   3.742   6.132   6.108  0.8158  0.0180  0.5562
  513MOL0     H70741   3.789   6.286   5.894  3.2565  0.0378 -1.3460
  513MOL0     H70742   3.900   6.162   5.845  0.8677  4.8371 -0.8881
  513MOL0     H70743   3.800   6.044   5.632  0.4047 -0.1582 -0.5205
  513MOL0     H70744   3.627   5.810   5.565  0.8516 -1.0121 -3.7027
  513MOL0     H70745   3.602   5.973   5.484 -1.7690  0.7778  1.2261
  513MOL0     H70746   3.421   5.769   5.618 -2.4608 -0.7088 -0.5101
  513MOL0     H70747   3.366   5.938   5.594  1.8637  0.0639  0.3003
  513MOL0     H70748   3.262   5.831   5.405 -0.0370  0.8551  0.5923
  513MOL0     H70749   3.400   5.882   5.323 -0.5979 -0.0063 -0.1363
  513MOL0     H70750   3.323   5.612   5.363  0.8209 -0.9418  1.5738
  513MOL0     H70751   3.409   5.693   5.242  1.0977  0.4950 -0.1950
  513MOL0     H70752   3.511   5.523   5.147  2.0391  0.2683 -1.1607
  513MOL0     H70753   3.549   5.387   4.967  1.4081  1.0972 -1.4424
  513MOL0     H70754   3.509   5.226   5.017  0.0924  0.7117 -0.0886
  513MOL0     H70755   3.682   5.259   4.979  0.4588  1.0176  0.4037
  513MOL0     H70756   3.970   4.983   5.071  1.3769 -0.2205  0.4189
  513MOL0     H70757   4.064   4.746   5.071  0.8856 -0.3750  2.3868
  513MOL0     H70758   4.113   4.551   5.399 -0.3317  1.1993 -2.2237
  513MOL0     H70759   3.952   4.478   5.430 -2.0484 -1.0540 -2.5832
  513MOL0     H70760   4.031   4.281   5.267 -0.6962 -0.7980  2.4619
  513MOL0     H70761   4.175   4.376   5.249 -0.4174 -0.5718 -1.7988
  513MOL0     H70762   4.180   4.178   5.429  1.9561  0.1953  0.9958
  513MOL0     H70763   4.061   4.275   5.511  0.5631 -1.6095  0.7918
  513MOL0     H70764   4.266   4.449   5.538  1.3103 -0.8962  3.1552
  513MOL0     H70765   4.360   4.330   5.465  0.1527 -3.4397 -0.1249
  513MOL0     H70766   4.177   4.294   5.714 -0.8702 -0.7920 -1.4192
  513MOL0     H70767   4.260   4.169   5.663 -3.8246  0.0539  1.3390
  513MOL0     H70768   4.379   4.427   5.776 -1.0969 -1.4335  1.2982
  513MOL0     H70769   4.478   4.319   5.670 -0.2871 -2.3786  0.3631
  513MOL0     H70770   4.462   4.135   5.826  3.3947  1.4868  0.8110
  513MOL0     H70771   4.324   4.219   5.915 -1.3599 -0.2081 -1.4722
  513MOL0     H70772   4.530   4.226   6.041  0.1068 -2.6351 -1.2902
  513MOL0     H70773   4.499   4.389   5.979  2.2349 -0.1972  2.8428
  513MOL0     H70774   3.845   4.659   5.433  1.0895  0.5317  1.0066
  513MOL0     H70775   3.768   4.894   5.432 -0.6666 -0.7058 -0.2064
  513MOL0     H70776   3.709   5.217   5.470  0.4827 -1.5734 -1.1634
  513MOL0     H70777   3.624   5.448   5.538 -1.6339  1.7856 -0.3880
  513MOL0     H70778   4.377   6.156   5.541  0.9871 -0.3568 -0.8431
  513MOL0     H70779   4.384   6.374   5.392 -0.0960 -2.8201 -0.2264
  513MOL0     H70780   4.421   6.816   5.347 -1.6377  1.6409  0.2892
  513MOL0     H70781   4.473   7.026   5.224  0.5150 -1.3760 -2.2659
  513MOL0     H70782   4.657   7.319   5.110 -2.6061  1.5660 -0.7352
  513MOL0     H70783   4.558   7.171   5.096 -3.2088  0.8457  1.3317
  513MOL0     H70784   4.455   7.215   5.315 -1.0120  0.0422  0.2201
  513MOL0     H70785   4.435   7.351   5.200 -0.5012 -0.8583  0.7930
  513MOL0     H70786   4.593   7.354   5.459  3.5096 -0.3341 -0.6054
  513MOL0     H70787   4.641   7.453   5.326 -0.2637  0.6087 -0.1550
  513MOL0     H70788   4.356   7.459   5.449 -1.3688 -0.9344 -3.6230
  513MOL0     H70789   4.412   7.554   5.313  2.7612  2.0720 -0.1975
  513MOL0     H70790   4.573   7.817   5.576  2.4896 -1.2522  1.1663
  513MOL0     H70791   4.874   7.018   5.374  1.2766 -0.5021 -2.1802
  513MOL0     H70792   4.932   6.715   5.426  1.9918  1.3694  0.2550
  513MOL0     H70793   4.957   6.864   5.493  0.3174 -0.9041 -0.0803
  513MOL0     H70794   4.861   6.743   5.583  3.9557 -1.2265  0.0635
  514MOL0     O70795   5.825   8.217   5.792 -0.2667  0.4171 -0.4109
  514MOL0     C70796   5.727   8.220   5.866 -0.9521  0.3818 -0.5987
  514MOL0     O70797   5.652   8.109   5.901 -0.4579  0.5477  0.3808
  514MOL0     C70798   5.693   7.978   5.866  0.1691  0.4113  0.2662
  514MOL0     C70799   5.590   7.909   5.793  0.0855 -1.2166 -0.3191
  514MOL0     C70800   5.607   7.773   5.769 -0.1836  0.6768  0.4041
  514MOL0     C70801   5.726   7.705   5.803 -0.4207 -0.4882  0.5816
  514MOL0     O70802   5.741   7.575   5.762  0.3294  0.3225  0.5661
  514MOL0     C70803   5.745   7.471   5.861  0.2352  0.5683 -0.6395
  514MOL0     C70804   5.730   7.342   5.790  0.1563  0.3269  0.4331
  514MOL0     C70805   5.597   7.342   5.719  1.0040 -0.2358  1.2658
  514MOL0     C70806   5.554   7.217   5.658  0.0679  0.2618 -0.2255
  514MOL0     C70807   5.443   7.245   5.562 -0.7082  0.2777  1.2928
  514MOL0     C70808   5.407   7.150   5.448  0.4307  0.8999  0.8629
  514MOL0     C70809   5.405   7.002   5.505  0.0492 -0.0047  0.7071
  514MOL0     C70810   5.536   6.921   5.484 -0.4630  0.3825  0.9325
  514MOL0     N70811   5.550   6.808   5.574  0.2673  0.1661  0.1060
  514MOL0     C70812   5.554   6.676   5.538  0.5686  0.0499 -0.0153
  514MOL0     C70813   5.547   6.610   5.654 -0.2863  0.6093  0.2854
  514MOL0     C70814   5.584   6.462   5.680  0.3198 -1.3060  0.5948
  514MOL0     C70815   5.459   6.367   5.689 -1.0966 -0.6300 -0.4796
  514MOL0     C70816   5.413   6.321   5.546 -0.3518  0.2776 -0.5436
  514MOL0     C70817   5.321   6.201   5.545 -0.3977  0.4477  0.1765
  514MOL0     O70818   5.378   6.097   5.629 -0.3891  0.7274  0.3869
  514MOL0     C70819   5.316   5.975   5.652  0.2582  0.2471  0.2068
  514MOL0     C70820   5.387   5.872   5.705 -1.0556 -0.0122  0.1932
  514MOL0     C70821   5.334   5.744   5.723  0.7661 -0.1176  0.1319
  514MOL0     C70822   5.425   5.632   5.774  0.3776 -0.7846 -0.4005
  514MOL0     C70823   5.200   5.721   5.678  0.0373  0.2558  0.0048
  514MOL0     C70824   5.116   5.590   5.686  1.0420 -0.5397 -0.1981
  514MOL0     O70825   4.984   5.613   5.693  0.5056  0.5029  0.2646
  514MOL0     C70826   4.899   5.517   5.749  0.1234 -0.0219  0.6695
  514MOL0     C70827   4.934   5.415   5.839  0.4449  0.6003 -0.4933
  514MOL0     C70828   4.836   5.327   5.883 -0.4076 -0.5973 -0.2175
  514MOL0     C70829   4.706   5.335   5.850 -0.3836 -0.4505  0.9515
  514MOL0     O70830   4.621   5.238   5.891  0.2105 -0.3549 -0.5864
  514MOL0     C70831   4.503   5.282   5.964 -0.3115 -0.9720 -0.6240
  514MOL0     C70832   4.539   5.356   6.087 -0.9029  0.3754  0.9477
  514MOL0     C70833   4.447   5.473   6.114 -0.0749 -0.4532  0.2482
  514MOL0     C70834   4.513   5.564   6.229 -0.4022 -0.3478  0.1433
  514MOL0     C70835   4.440   5.699   6.243 -0.1839  0.3484  0.4175
  514MOL0     C70836   4.313   5.685   6.333  0.1841 -0.1128 -0.4447
  514MOL0     C70837   4.216   5.797   6.294  0.0981  0.3857 -0.2593
  514MOL0     C70838   4.094   5.783   6.373  0.3465 -0.6443 -0.4642
  514MOL0    Cl70839   4.013   5.627   6.311  0.3654 -0.2105 -0.0347
  514MOL0     C70840   4.661   5.444   5.771 -0.8897 -0.4289 -0.5742
  514MOL0     C70841   4.763   5.534   5.720  0.6806  0.5779  0.3810
  514MOL0     O70842   5.167   5.484   5.665  0.1926 -0.0493 -0.5906
  514MOL0     C70843   5.132   5.829   5.627  0.6340  0.0690  0.5625
  514MOL0     C70844   5.188   5.951   5.615 -1.0285 -0.0775  0.1771
  514MOL0     N70845   5.538   6.703   5.764  0.4024  0.0936  0.7744
  514MOL0     N70846   5.553   6.819   5.710 -0.7916  0.2660 -0.8697
  514MOL0     C70847   5.830   7.775   5.859 -0.1170 -0.0959  0.4282
  514MOL0     C70848   5.812   7.909   5.891  0.4225 -0.3410 -0.1244
  514MOL0     C70849   5.684   8.349   5.926 -0.0022  0.8844  0.8942
  514MOL0     C70850   5.784   8.445   5.942  0.2804  0.3916 -1.0622
  514MOL0     C70851   5.763   8.561   6.014 -0.0573 -0.6629 -0.0194
  514MOL0     C70852   5.635   8.591   6.059 -0.4057  0.3445  1.0191
  514MOL0     O70853   5.610   8.693   6.156  0.0541  0.1895  0.0334
  514MOL0     C70854   5.705   8.791   6.194 -0.4191  0.0445  0.0033
  514MOL0     C70855   5.688   8.854   6.339  0.3596  0.2517 -0.2014
  514MOL0     C70856   5.705   8.749   6.457 -0.1367  0.2575 -0.3027
  514MOL0     C70857   5.743   8.805   6.592  0.0822 -0.8266  0.4354
  514MOL0     C70858   5.692   8.719   6.694 -0.1447 -0.4581 -0.4465
  514MOL0     C70859   5.661   8.639   6.779  0.1590  0.7204  0.5429
  514MOL0     C70860   5.528   8.495   6.034 -0.2822 -0.4462 -1.7345
  514MOL0     C70861   5.554   8.376   5.957  0.4528 -0.1187 -0.1645
  514MOL0     C70862   5.439   8.280   5.945 -0.5191  0.5257 -0.3469
  514MOL0     H70863   5.506   7.971   5.764  1.3372  1.1483  0.7839
  514MOL0     H70864   5.529   7.715   5.720  0.5324 -2.5764  2.7559
  514MOL0     H70865   5.662   7.494   5.928  1.2352  5.1590 -0.6717
  514MOL0     H70866   5.835   7.457   5.921 -2.3959 -4.4550  2.9423
  514MOL0     H70867   5.810   7.321   5.720 -0.2838 -2.8368  0.7086
  514MOL0     H70868   5.721   7.252   5.851 -1.8815  0.7374  0.8162
  514MOL0     H70869   5.511   7.366   5.783 -0.9598 -1.3447 -0.8137
  514MOL0     H70870   5.600   7.419   5.641  0.2736 -2.1005 -0.7099
  514MOL0     H70871   5.645   7.189   5.604 -0.7322  3.1662 -3.4343
  514MOL0     H70872   5.533   7.131   5.723  2.7807 -0.9248 -0.7646
  514MOL0     H70873   5.447   7.350   5.532 -0.5600 -0.0330  0.2053
  514MOL0     H70874   5.346   7.246   5.614 -2.6575 -0.3975 -2.0278
  514MOL0     H70875   5.309   7.175   5.409  0.3392 -0.0612  0.4389
  514MOL0     H70876   5.475   7.160   5.363 -2.8278 -1.5795 -2.3547
  514MOL0     H70877   5.331   6.941   5.453  1.4524  0.3436 -1.8963
  514MOL0     H70878   5.381   7.001   5.611  0.2970  0.2953  0.7671
  514MOL0     H70879   5.537   6.880   5.382 -0.6475 -3.3524  2.2503
  514MOL0     H70880   5.627   6.981   5.492 -0.0128 -0.2104  0.3864
  514MOL0     H70881   5.572   6.637   5.439  2.0924 -0.7359  0.5365
  514MOL0     H70882   5.637   6.458   5.775  0.2253 -2.9825  0.5954
  514MOL0     H70883   5.654   6.430   5.602 -0.4211 -0.4622 -0.4586
  514MOL0     H70884   5.495   6.279   5.743  0.3208  0.2423  0.0751
  514MOL0     H70885   5.377   6.404   5.750 -2.3187 -0.9266 -1.8900
  514MOL0     H70886   5.357   6.401   5.496  1.9918  3.7031  1.8051
  514MOL0     H70887   5.499   6.311   5.479  0.0289  0.5140 -0.0976
  514MOL0     H70888   5.227   6.230   5.594  1.8258  1.5585  4.3232
  514MOL0     H70889   5.309   6.159   5.445  1.1919  1.9883 -0.7273
  514MOL0     H70890   5.489   5.899   5.733  0.7644 -3.2423 -2.5229
  514MOL0     H70891   5.391   5.594   5.871 -2.2096  0.4958 -0.7302
  514MOL0     H70892   5.528   5.668   5.782  0.0402  1.5069 -3.9440
  514MOL0     H70893   5.404   5.549   5.707 -2.6276 -1.1753  0.8988
  514MOL0     H70894   5.037   5.399   5.870  1.0092  2.8783 -0.9476
  514MOL0     H70895   4.854   5.240   5.946 -1.3753 -1.8759 -1.6189
  514MOL0     H70896   4.444   5.351   5.902 -1.1451 -0.7644  0.3693
  514MOL0     H70897   4.440   5.196   5.987  1.7768 -1.9407  1.9816
  514MOL0     H70898   4.543   5.295   6.178  1.4626 -2.7264 -1.0091
  514MOL0     H70899   4.639   5.394   6.069 -0.3158 -0.2558  2.7050
  514MOL0     H70900   4.349   5.433   6.142  0.8337 -3.0910 -0.0219
  514MOL0     H70901   4.435   5.537   6.027  0.8554  1.0214  1.1518
  514MOL0     H70902   4.616   5.587   6.199 -0.4948 -1.4095 -1.0930
  514MOL0     H70903   4.507   5.508   6.322 -0.4642 -1.3513 -0.4481
  514MOL0     H70904   4.507   5.775   6.283  1.3402  0.0515 -1.4494
  514MOL0     H70905   4.406   5.729   6.144 -0.5733 -2.0838 -0.2725
  514MOL0     H70906   4.341   5.685   6.438  0.9639 -3.1769 -0.5661
  514MOL0     H70907   4.282   5.583   6.312 -0.6148 -0.0428  0.3344
  514MOL0     H70908   4.185   5.789   6.189 -0.1290 -1.7288 -0.0679
  514MOL0     H70909   4.264   5.891   6.324  0.5812 -0.2993  1.2229
  514MOL0     H70910   4.026   5.861   6.338 -2.1094 -3.4746 -2.5175
  514MOL0     H70911   4.130   5.789   6.476  2.9075  0.3627 -1.3453
  514MOL0     H70912   4.556   5.456   5.749 -1.0809  1.5119  1.1358
  514MOL0     H70913   4.727   5.606   5.648 -0.9132 -1.0172 -0.4764
  514MOL0     H70914   5.035   5.813   5.580  1.2166 -0.9592 -0.3414
  514MOL0     H70915   5.130   6.021   5.555 -2.7343 -1.1245  0.5363
  514MOL0     H70916   5.919   7.720   5.889 -0.2862 -1.4124 -1.3526
  514MOL0     H70917   5.891   7.960   5.946 -1.3147  1.2813  0.9634
  514MOL0     H70918   5.888   8.421   5.921  0.4017  0.5741 -0.6778
  514MOL0     H70919   5.836   8.639   6.027 -2.2661  1.3752  0.9182
  514MOL0     H70920   5.809   8.757   6.191  0.3814  2.1806  1.4091
  514MOL0     H70921   5.695   8.877   6.128  0.4939  1.8710  2.1134
  514MOL0     H70922   5.590   8.902   6.341 -0.3456 -0.8995 -2.8671
  514MOL0     H70923   5.765   8.932   6.348  0.4934  0.0520  0.4442
  514MOL0     H70924   5.605   8.708   6.473  1.2049 -2.5193  1.9754
  514MOL0     H70925   5.777   8.668   6.440  0.0909  0.2897  0.4680
  514MOL0     H70926   5.694   8.903   6.600  0.3676 -0.6057 -0.3961
  514MOL0     H70927   5.851   8.824   6.589  0.7546 -4.1577 -2.4431
  514MOL0     H70928   5.623   8.575   6.856 -1.4966 -0.8107 -1.4100
  514MOL0     H70929   5.429   8.523   6.066 -0.8282 -3.2791 -0.6805
  514MOL0     H70930   5.449   8.212   6.030  1.6919 -0.9248 -1.6467
  514MOL0     H70931   5.337   8.318   5.950 -0.6630 -0.0299  2.7047
  514MOL0     H70932   5.457   8.226   5.852  4.1511 -0.1568  0.7036
  515MOL0     O70933   4.996   3.910   4.924 -0.5500 -0.2696  0.7457
  515MOL0     C70934   4.945   3.953   4.819 -0.0564 -0.1897 -0.1848
  515MOL0     O70935   4.932   3.887   4.706 -0.6115 -0.5481  0.1665
  515MOL0     C70936   4.951   3.753   4.710 -0.1172 -0.4706 -0.1540
  515MOL0     C70937   5.083   3.703   4.687  0.6429  0.4032 -0.5471
  515MOL0     C70938   5.104   3.566   4.697 -0.0768  0.2535  1.5232
  515MOL0     C70939   5.005   3.478   4.735 -0.1012 -1.2035  0.1692
  515MOL0     O70940   5.034   3.345   4.748 -0.4308 -0.4782 -0.8618
  515MOL0     C70941   5.105   3.280   4.637  1.3139 -0.2744  0.3122
  515MOL0     C70942   5.100   3.139   4.661  0.0713 -0.1982  0.5451
  515MOL0     C70943   4.948   3.091   4.663  0.1749 -0.5082  0.1693
  515MOL0     C70944   4.926   2.945   4.704 -0.8248  0.0160 -0.2092
  515MOL0     C70945   4.780   2.891   4.696 -0.5684 -0.0130  0.2321
  515MOL0     C70946   4.761   2.766   4.787  0.1947  0.0835 -0.2016
  515MOL0     C70947   4.620   2.728   4.813 -0.4201  0.2744 -0.2494
  515MOL0     C70948   4.569   2.658   4.685  0.2374 -0.1653 -1.0404
  515MOL0     N70949   4.430   2.618   4.700 -1.2038 -0.4501  0.7683
  515MOL0     C70950   4.385   2.542   4.803  0.8864  0.3588 -0.3431
  515MOL0     C70951   4.247   2.556   4.793  0.0177 -0.1215 -0.2346
  515MOL0     C70952   4.144   2.481   4.877 -0.1588  0.1267  0.2918
  515MOL0     C70953   4.159   2.321   4.841 -0.0388 -0.3950 -0.3202
  515MOL0     C70954   4.139   2.269   4.698  0.3168  0.8167 -0.6200
  515MOL0     C70955   4.165   2.116   4.688 -0.2823  0.6000 -0.4464
  515MOL0     O70956   4.294   2.102   4.742  0.5231  1.1236 -0.5488
  515MOL0     C70957   4.333   1.977   4.797  0.5174 -0.6880 -0.5715
  515MOL0     C70958   4.438   1.977   4.892 -0.5355  0.7237 -0.1559
  515MOL0     C70959   4.481   1.862   4.958 -0.6961 -0.2707 -0.9220
  515MOL0     C70960   4.577   1.883   5.075  0.1996  0.1225  0.4222
  515MOL0     C70961   4.419   1.735   4.931 -0.2598 -0.0239 -0.7583
  515MOL0     C70962   4.447   1.601   4.997  0.1293 -0.0354  0.3761
  515MOL0     O70963   4.408   1.491   4.927  0.3055 -0.2958  0.0356
  515MOL0     C70964   4.441   1.366   4.977  0.7816  0.4291  0.0516
  515MOL0     C70965   4.362   1.303   5.068  0.5913 -0.3338 -0.1976
  515MOL0     C70966   4.402   1.185   5.130 -0.3643  0.9306  0.2874
  515MOL0     C70967   4.517   1.116   5.090  0.0605 -0.7667 -0.4559
  515MOL0     O70968   4.561   0.993   5.125 -0.4741 -0.0509  1.1045
  515MOL0     C70969   4.454   0.894   5.159 -0.5706  0.4444  0.0126
  515MOL0     C70970   4.424   0.829   5.022  0.2524  0.5134 -0.0818
  515MOL0     C70971   4.541   0.763   4.961 -0.5876  0.7614 -0.3902
  515MOL0     C70972   4.492   0.664   4.857  0.1780  0.3380  0.3494
  515MOL0     C70973   4.615   0.585   4.815  0.2178 -0.3817  0.1915
  515MOL0     C70974   4.584   0.464   4.718 -0.1741  0.7672  0.3574
  515MOL0     C70975   4.519   0.336   4.792 -0.0340 -0.6140  0.1214
  515MOL0     C70976   4.623   0.260   4.888 -0.1841  1.2839 -0.3932
  515MOL0    Cl70977   4.573   0.082   4.890  0.1254 -0.1191  0.3577
  515MOL0     C70978   4.605   1.187   5.012  0.7688 -0.0854 -0.2748
  515MOL0     C70979   4.566   1.311   4.949 -0.3024  0.6287  0.3931
  515MOL0     O70980   4.487   1.602   5.108 -0.0450  0.6300  0.2215
  515MOL0     C70981   4.314   1.739   4.841 -0.5897 -0.6936 -0.6092
  515MOL0     C70982   4.265   1.857   4.785 -0.5356  0.1943  0.5852
  515MOL0     N70983   4.213   2.648   4.692 -0.2371  0.1485 -0.4202
  515MOL0     N70984   4.329   2.681   4.635  0.5829  0.1371  0.9921
  515MOL0     C70985   4.882   3.521   4.758 -0.4015 -0.2454  0.3670
  515MOL0     C70986   4.851   3.658   4.739  0.3911  0.2019 -0.8900
  515MOL0     C70987   4.921   4.096   4.800 -0.4118 -0.3864 -0.8974
  515MOL0     C70988   4.839   4.142   4.691  0.0534 -0.6919  0.2675
  515MOL0     C70989   4.810   4.278   4.672  0.0080  0.3387 -0.3627
  515MOL0     C70990   4.857   4.368   4.752  0.1731 -0.8133  0.4730
  515MOL0     O70991   4.808   4.488   4.723 -0.5334 -0.2873  0.4261
  515MOL0     C70992   4.890   4.590   4.785  1.2639 -0.4883 -0.1241
  515MOL0     C70993   4.862   4.729   4.712 -0.5558  0.3831 -0.7699
  515MOL0     C70994   4.972   4.826   4.743 -0.0896 -0.3547 -0.1077
  515MOL0     C70995   4.989   4.937   4.634  0.8053  0.5650  0.1742
  515MOL0     C70996   5.106   5.009   4.646 -0.2696 -0.4169 -0.4077
  515MOL0     C70997   5.206   5.085   4.659 -0.0136 -0.5229  0.3684
  515MOL0     C70998   4.935   4.328   4.864  0.6336  0.7492 -0.8056
  515MOL0     C70999   4.962   4.197   4.888 -0.1299 -0.6334 -0.2173
  515MOL0     C71000   5.049   4.165   5.001 -1.0295 -0.8978  0.3103
  515MOL0     H71001   5.166   3.770   4.670  0.5403  1.0408  1.2798
  515MOL0     H71002   5.207   3.533   4.694 -0.4482 -0.9182 -1.4149
  515MOL0     H71003   5.210   3.307   4.629  1.3557 -0.6692 -0.6000
  515MOL0     H71004   5.055   3.303   4.543  0.5219 -2.8223  0.0401
  515MOL0     H71005   5.148   3.085   4.578  0.8334  0.4441  0.5651
  515MOL0     H71006   5.159   3.122   4.751 -0.7150 -2.0700  0.7546
  515MOL0     H71007   4.901   3.147   4.744 -0.7653 -0.4347 -0.4163
  515MOL0     H71008   4.896   3.100   4.568  1.6896 -1.1121 -0.7601
  515MOL0     H71009   4.976   2.871   4.641  2.3872 -0.1152  2.2397
  515MOL0     H71010   4.959   2.927   4.807 -1.8968  0.3392  0.2082
  515MOL0     H71011   4.744   2.872   4.595  0.0149 -2.6271  0.4321
  515MOL0     H71012   4.715   2.967   4.740  0.7574  0.4253  1.5380
  515MOL0     H71013   4.823   2.688   4.743  1.0266 -0.0521  1.1558
  515MOL0     H71014   4.812   2.778   4.883 -0.2974 -0.1501  0.0918
  515MOL0     H71015   4.571   2.821   4.841  1.9767  1.7767 -0.7973
  515MOL0     H71016   4.612   2.659   4.897 -2.3424  1.4382  0.5882
  515MOL0     H71017   4.586   2.727   4.602  0.4623  1.2873  0.1728
  515MOL0     H71018   4.634   2.572   4.664  1.2679 -0.3069  2.2183
  515MOL0     H71019   4.439   2.481   4.874  0.8758  0.1154 -0.5446
  515MOL0     H71020   4.047   2.516   4.840  1.2623  1.4763 -2.5100
  515MOL0     H71021   4.159   2.502   4.983 -2.5678 -0.6711  0.8578
  515MOL0     H71022   4.260   2.295   4.872  0.1239  2.4170  2.0223
  515MOL0     H71023   4.102   2.268   4.919  1.9268  1.5226  2.6199
  515MOL0     H71024   4.041   2.304   4.664  0.9292  2.9266 -0.3663
  515MOL0     H71025   4.216   2.314   4.635 -1.3325  1.5201 -2.2320
  515MOL0     H71026   4.085   2.071   4.747 -1.0790  3.6153  0.9854
  515MOL0     H71027   4.182   2.078   4.587  2.9544  0.3132  0.0937
  515MOL0     H71028   4.466   2.077   4.924 -2.1768  0.6506  1.7225
  515MOL0     H71029   4.576   1.988   5.105 -1.4522 -0.5228  2.9221
  515MOL0     H71030   4.678   1.848   5.051 -0.9003 -2.1048 -1.3165
  515MOL0     H71031   4.540   1.843   5.169 -1.5135 -1.5801 -0.8923
  515MOL0     H71032   4.272   1.359   5.093  0.5890  1.6449 -3.9184
  515MOL0     H71033   4.328   1.146   5.199 -0.2499  0.3675  0.0967
  515MOL0     H71034   4.496   0.823   5.231 -0.4126  0.4577 -0.0651
  515MOL0     H71035   4.368   0.946   5.202  1.3570  2.4877  1.6420
  515MOL0     H71036   4.359   0.747   5.053  1.2789 -0.7180 -1.0509
  515MOL0     H71037   4.371   0.897   4.955 -0.1889 -0.3497 -0.6220
  515MOL0     H71038   4.587   0.715   5.048  0.7207 -0.0734 -1.5049
  515MOL0     H71039   4.608   0.839   4.921  0.8359  0.8271  1.9374
  515MOL0     H71040   4.455   0.720   4.771  1.7861 -1.1743 -1.4213
  515MOL0     H71041   4.429   0.593   4.911  1.0736  0.0560  1.0533
  515MOL0     H71042   4.683   0.652   4.763 -2.1535  1.4532 -0.7173
  515MOL0     H71043   4.665   0.551   4.906 -1.4177  1.3227  1.7997
  515MOL0     H71044   4.674   0.438   4.663 -0.9558  1.5803 -1.3954
  515MOL0     H71045   4.516   0.494   4.637 -1.6484  1.0075  1.6234
  515MOL0     H71046   4.503   0.276   4.702 -3.2651 -1.1395  0.8994
  515MOL0     H71047   4.424   0.360   4.841  0.5181  2.6123 -0.1862
  515MOL0     H71048   4.635   0.298   4.990  0.6894  0.1774 -0.0619
  515MOL0     H71049   4.727   0.256   4.855 -0.1988 -3.1731 -0.4580
  515MOL0     H71050   4.706   1.146   5.003  0.4083 -1.1161  0.2302
  515MOL0     H71051   4.631   1.373   4.887  0.3847  1.1378  1.5938
  515MOL0     H71052   4.244   1.656   4.833  0.2824 -1.7514  1.8534
  515MOL0     H71053   4.178   1.865   4.720  1.2432  0.2365 -1.9427
  515MOL0     H71054   4.821   3.443   4.803 -1.9653 -0.8054 -2.4737
  515MOL0     H71055   4.754   3.696   4.769  1.8099  2.3780  1.2855
  515MOL0     H71056   4.804   4.074   4.614  0.4678 -2.2552  1.3899
  515MOL0     H71057   4.737   4.310   4.598  0.5344  0.0849 -0.9957
  515MOL0     H71058   4.853   4.601   4.888  1.3931  0.0121 -0.1283
  515MOL0     H71059   4.996   4.565   4.790  0.8471 -3.2691 -2.6040
  515MOL0     H71060   4.764   4.776   4.724 -0.7438  0.8294 -3.4394
  515MOL0     H71061   4.873   4.714   4.604  3.0039  0.6036 -0.5628
  515MOL0     H71062   4.939   4.878   4.833 -2.1806 -0.3505 -0.8331
  515MOL0     H71063   5.070   4.782   4.764 -0.3737 -0.8295  0.2221
  515MOL0     H71064   4.895   4.993   4.644 -1.6485 -3.4822  3.5009
  515MOL0     H71065   4.983   4.888   4.537 -3.6492  1.4195 -0.2027
  515MOL0     H71066   5.286   5.156   4.669  1.4916 -2.2144  0.8332
  515MOL0     H71067   4.969   4.392   4.945  1.8384 -0.8282 -0.0206
  515MOL0     H71068   5.149   4.137   4.967 -1.4156 -1.1049 -0.6897
  515MOL0     H71069   5.058   4.256   5.062 -1.6623  0.3727 -1.4091
  515MOL0     H71070   5.001   4.096   5.071 -3.7274 -0.2951 -0.8019
  516MOL0     O71071   7.002   2.390   1.149  0.8560  0.0104 -0.5554
  516MOL0     C71072   7.126   2.403   1.131  0.6893  0.4531 -0.7028
  516MOL0     O71073   7.204   2.325   1.054  0.0841  0.0486  0.2608
  516MOL0     C71074   7.153   2.246   0.952  0.0177  0.5542 -0.3221
  516MOL0     C71075   7.146   2.108   0.961 -0.5065 -1.3481 -0.1151
  516MOL0     C71076   7.117   2.031   0.855  0.5654 -0.3438  0.5935
  516MOL0     C71077   7.079   2.094   0.735 -0.0530  0.1958  0.0289
  516MOL0     O71078   7.003   2.026   0.638 -0.5069  0.0171 -0.2123
  516MOL0     C71079   7.052   1.891   0.615 -0.6946  0.1767  0.1290
  516MOL0     C71080   7.015   1.835   0.476  0.5113  0.1385  0.6302
  516MOL0     C71081   6.862   1.809   0.462  1.0856 -0.5009 -0.2300
  516MOL0     C71082   6.818   1.679   0.401  1.2122  0.6177 -0.2192
  516MOL0     C71083   6.667   1.656   0.436  0.3307 -0.2920  0.3207
  516MOL0     C71084   6.569   1.756   0.371 -0.2748 -0.1952  0.5280
  516MOL0     C71085   6.416   1.716   0.374 -1.1815 -0.4206  0.3901
  516MOL0     C71086   6.381   1.664   0.237 -0.0348 -0.1077  0.2698
  516MOL0     N71087   6.459   1.550   0.200 -0.0314  0.0087 -0.0415
  516MOL0     C71088   6.574   1.544   0.123 -0.3323  0.1626  1.0122
  516MOL0     C71089   6.622   1.418   0.126  0.7013  0.1286 -0.6063
  516MOL0     C71090   6.747   1.371   0.055 -0.9258 -0.0407  0.1671
  516MOL0     C71091   6.816   1.256   0.124 -0.2937  0.4603 -0.6533
  516MOL0     C71092   6.958   1.308   0.165 -0.0537 -0.8422  0.3549
  516MOL0     C71093   7.035   1.204   0.244 -0.5467 -0.1774  0.1572
  516MOL0     O71094   6.996   1.072   0.206  1.0986  0.0731  0.3178
  516MOL0     C71095   7.028   0.966   0.288 -0.5347  0.8880  0.3398
  516MOL0     C71096   6.958   0.849   0.276 -0.2557  0.2937 -0.3643
  516MOL0     C71097   6.987   0.728   0.346  0.0063  0.3984 -0.1105
  516MOL0     C71098   6.921   0.606   0.303  0.1829 -0.4943 -0.0542
  516MOL0     C71099   7.083   0.733   0.449 -0.5990  0.2057 -0.2402
  516MOL0     C71100   7.143   0.618   0.524 -0.7402 -0.4397 -0.6992
  516MOL0     O71101   7.263   0.641   0.586 -0.2054 -0.1577  1.3373
  516MOL0     C71102   7.334   0.549   0.656  0.6979  0.0434 -0.2357
  516MOL0     C71103   7.391   0.602   0.767 -0.1008  0.3989  0.5679
  516MOL0     C71104   7.441   0.523   0.869 -0.2633  0.2075 -0.0161
  516MOL0     C71105   7.457   0.390   0.845 -0.6924 -0.0709  0.3677
  516MOL0     O71106   7.551   0.329   0.925 -0.3921 -0.5063  0.1051
  516MOL0     C71107   7.587   0.195   0.907 -0.0115  0.6612 -0.2847
  516MOL0     C71108   7.636   0.140   1.036 -0.3378 -0.0951 -0.9063
  516MOL0     C71109   7.533   0.132   1.158 -0.2559  0.7565 -0.4703
  516MOL0     C71110   7.426   0.018   1.139 -0.3397 -0.8051 -0.0707
  516MOL0     C71111   7.322   0.028   1.242  0.4648 -1.2439 -0.0769
  516MOL0     C71112   7.226  -0.080   1.223  0.1282  0.0556 -0.2599
  516MOL0     C71113   7.153  -0.107   1.353  0.0377 -0.0710  0.2765
  516MOL0     C71114   7.056  -0.224   1.324 -0.2395 -0.2337  0.8005
  516MOL0    Cl71115   6.942  -0.190   1.192  0.3362  0.3456 -0.1188
  516MOL0     C71116   7.413   0.336   0.724  0.8586 -0.1842  0.2092
  516MOL0     C71117   7.343   0.413   0.630 -0.1822 -0.1719  0.4642
  516MOL0     O71118   7.072   0.520   0.544  0.4437  0.8681 -0.0274
  516MOL0     C71119   7.147   0.858   0.475  0.2783 -0.4879  0.1773
  516MOL0     C71120   7.122   0.967   0.398  0.2124  0.2008  0.7207
  516MOL0     N71121   6.544   1.351   0.225  0.2498 -1.1481 -0.8686
  516MOL0     N71122   6.447   1.429   0.261  0.7938  0.4921  0.5616
  516MOL0     C71123   7.077   2.232   0.727  0.2585  1.0849  0.0397
  516MOL0     C71124   7.120   2.307   0.834  0.3416  0.1005  0.0863
  516MOL0     C71125   7.193   2.518   1.193 -0.5782  0.9119 -0.2309
  516MOL0     C71126   7.308   2.558   1.120 -1.3244  0.3674 -0.4732
  516MOL0     C71127   7.383   2.661   1.166  0.2717 -0.1718  0.1272
  516MOL0     C71128   7.359   2.719   1.286  0.4906  0.3430 -0.3676
  516MOL0     O71129   7.438   2.822   1.332  0.2901  0.3442 -0.5845
  516MOL0     C71130   7.572   2.790   1.350  0.5342  0.4925 -0.8055
  516MOL0     C71131   7.632   2.868   1.464  0.0012 -0.1133 -0.5060
  516MOL0     C71132   7.670   3.001   1.390  0.3338 -0.1323 -1.0256
  516MOL0     C71133   7.716   3.110   1.497 -1.2663 -0.9183  0.1116
  516MOL0     C71134   7.796   3.215   1.441 -0.8844 -0.5020 -0.1967
  516MOL0     C71135   7.862   3.312   1.404  0.3401  0.3820  0.2122
  516MOL0     C71136   7.256   2.671   1.364  1.3391  0.1939 -0.7831
  516MOL0     C71137   7.162   2.570   1.319  0.2610 -1.0155  0.2819
  516MOL0     C71138   7.052   2.515   1.401  0.2527  0.1685 -0.0339
  516MOL0     H71139   7.183   2.071   1.056  1.9930 -3.0710 -1.6274
  516MOL0     H71140   7.110   1.924   0.869 -3.5630 -0.4665 -1.1674
  516MOL0     H71141   7.014   1.837   0.703 -2.5666  3.3167  1.4215
  516MOL0     H71142   7.161   1.895   0.612 -0.5283 -2.1999  0.7892
  516MOL0     H71143   7.038   1.916   0.407  0.0839  1.2997  1.8131
  516MOL0     H71144   7.071   1.742   0.462 -0.4370 -0.5781  1.4335
  516MOL0     H71145   6.823   1.829   0.563  3.6945  0.4585  0.6824
  516MOL0     H71146   6.826   1.890   0.399  0.6882  0.6786  1.4409
  516MOL0     H71147   6.836   1.681   0.293 -1.6864 -4.3884 -1.1038
  516MOL0     H71148   6.877   1.593   0.434  2.7003  0.7927 -2.1773
  516MOL0     H71149   6.653   1.661   0.544 -0.0316  3.8339  0.2480
  516MOL0     H71150   6.659   1.551   0.405 -1.0256 -0.4106  1.0134
  516MOL0     H71151   6.569   1.844   0.436 -1.8592  0.0601  0.2084
  516MOL0     H71152   6.601   1.781   0.270 -3.1009 -2.0054 -0.9266
  516MOL0     H71153   6.344   1.796   0.391 -1.2260 -0.5671  0.9162
  516MOL0     H71154   6.406   1.631   0.442  2.0367 -0.9695  0.3664
  516MOL0     H71155   6.276   1.636   0.253  0.1754 -2.1356 -1.3978
  516MOL0     H71156   6.396   1.744   0.163  0.9819  0.2516  0.8514
  516MOL0     H71157   6.610   1.633   0.072  0.4223  0.0387  1.3188
  516MOL0     H71158   6.817   1.454   0.037 -0.8209 -0.2011 -0.1780
  516MOL0     H71159   6.708   1.328  -0.038  0.2349 -1.6567  0.3869
  516MOL0     H71160   6.761   1.211   0.207 -0.6935  1.6469 -0.2587
  516MOL0     H71161   6.832   1.166   0.064  1.6018 -0.1107  0.6263
  516MOL0     H71162   7.014   1.349   0.081  1.7027 -1.7900  1.0256
  516MOL0     H71163   6.940   1.381   0.244  1.8138 -1.6435  1.5832
  516MOL0     H71164   7.142   1.217   0.226  0.3703  1.2678  5.0471
  516MOL0     H71165   7.011   1.207   0.351 -2.1277 -1.8203 -0.0944
  516MOL0     H71166   6.882   0.858   0.200 -0.5319  2.1318  0.0983
  516MOL0     H71167   6.989   0.529   0.264 -1.7227 -1.5472 -1.4673
  516MOL0     H71168   6.871   0.629   0.208  0.5399  2.2567  0.3280
  516MOL0     H71169   6.850   0.565   0.375 -0.9803 -1.0547 -1.4858
  516MOL0     H71170   7.398   0.710   0.768 -1.0971  0.5342 -1.8488
  516MOL0     H71171   7.481   0.583   0.950 -0.5214  3.8869 -2.4054
  516MOL0     H71172   7.488   0.150   0.891 -0.1911  0.5614  1.0049
  516MOL0     H71173   7.654   0.180   0.823 -2.6293  1.1432 -2.6020
  516MOL0     H71174   7.670   0.037   1.022  0.4288  0.2586 -1.6972
  516MOL0     H71175   7.718   0.202   1.073 -0.0900 -0.2037 -1.2688
  516MOL0     H71176   7.496   0.235   1.171  0.9431  1.2679 -1.0059
  516MOL0     H71177   7.586   0.113   1.252 -1.1224  2.5289  0.4292
  516MOL0     H71178   7.475  -0.080   1.128  1.1435 -0.4272  2.3502
  516MOL0     H71179   7.373   0.031   1.044 -3.0923  0.6962  1.5541
  516MOL0     H71180   7.370   0.005   1.338 -2.0619  0.3389  1.6788
  516MOL0     H71181   7.260   0.117   1.248  0.9681 -0.6197 -2.7627
  516MOL0     H71182   7.283  -0.169   1.192  5.1523  2.1834  1.8461
  516MOL0     H71183   7.163  -0.059   1.136 -3.4179 -2.4840  1.4488
  516MOL0     H71184   7.081  -0.025   1.368 -0.9951 -0.2605 -2.8603
  516MOL0     H71185   7.216  -0.133   1.438  3.3480  1.9834 -1.3101
  516MOL0     H71186   7.009  -0.242   1.421 -0.5768 -1.3258  0.4495
  516MOL0     H71187   7.106  -0.319   1.303 -0.5401 -0.5521  1.4962
  516MOL0     H71188   7.438   0.238   0.684 -2.6192 -0.4002 -1.7624
  516MOL0     H71189   7.303   0.376   0.536  1.8560 -2.7654  0.5055
  516MOL0     H71190   7.220   0.854   0.555  0.3598 -0.5782  0.0965
  516MOL0     H71191   7.175   1.060   0.418 -1.8443  2.1356 -2.0225
  516MOL0     H71192   7.045   2.283   0.636 -1.2051  2.3108  1.1742
  516MOL0     H71193   7.127   2.415   0.824  4.0091  0.0442  0.6696
  516MOL0     H71194   7.331   2.520   1.021 -1.0761 -1.1662  0.1425
  516MOL0     H71195   7.454   2.709   1.100  0.1552  0.0939  0.1926
  516MOL0     H71196   7.580   2.685   1.381 -4.4888  0.2066  0.3037
  516MOL0     H71197   7.637   2.803   1.263  1.4697 -0.0776 -0.2127
  516MOL0     H71198   7.716   2.817   1.513  0.3672 -0.1061 -1.1170
  516MOL0     H71199   7.564   2.890   1.547  1.4220  0.4743  0.5468
  516MOL0     H71200   7.746   2.986   1.312 -0.1776  0.5451 -1.6716
  516MOL0     H71201   7.585   3.044   1.338  0.7723  1.2841 -0.6321
  516MOL0     H71202   7.760   3.054   1.579  0.5140 -1.8688 -1.4011
  516MOL0     H71203   7.630   3.150   1.551 -0.3420  1.2364  0.1033
  516MOL0     H71204   7.927   3.392   1.374 -1.3817  1.4398 -0.8187
  516MOL0     H71205   7.239   2.699   1.468 -0.6153 -3.4538  0.0640
  516MOL0     H71206   7.069   2.407   1.403 -3.1927 -0.4965 -0.4466
  516MOL0     H71207   7.059   2.554   1.504  3.0851 -1.1361  0.3716
  516MOL0     H71208   6.951   2.531   1.362 -0.4340 -0.7966  1.2711
  517MOL0     O71209   7.485   3.261   9.605  0.2280 -0.1350  0.0861
  517MOL0     C71210   7.601   3.227   9.642 -0.0683 -0.1653 -0.0215
  517MOL0     O71211   7.698   3.317   9.672  0.1370 -0.4245  0.5096
  517MOL0     C71212   7.666   3.448   9.700 -0.5909  0.5185  0.0795
  517MOL0     C71213   7.604   3.482   9.821  0.2357 -0.2289  0.8723
  517MOL0     C71214   7.627   3.609   9.874 -0.4495  0.0246  0.2040
  517MOL0     C71215   7.683   3.711   9.789 -0.1845  0.7541 -0.9835
  517MOL0     O71216   7.682   3.840   9.837 -0.0126  1.3163  0.9598
  517MOL0     C71217   7.587   3.930   9.774  0.4931 -0.1438 -0.5536
  517MOL0     C71218   7.661   4.034   9.684 -0.5613  0.2032  0.8712
  517MOL0     C71219   7.680   4.165   9.760 -0.4440  0.9420  0.0535
  517MOL0     C71220   7.558   4.255   9.738  0.0780 -0.4249 -0.1872
  517MOL0     C71221   7.583   4.413   9.751 -0.3795 -0.3769  0.1934
  517MOL0     C71222   7.469   4.470   9.826  0.9188  0.2178 -0.2137
  517MOL0     C71223   7.488   4.626   9.823 -0.5710 -0.2880 -0.0792
  517MOL0     C71224   7.363   4.707   9.836  1.2490 -0.1617 -0.2844
  517MOL0     N71225   7.289   4.694   9.971 -0.5210  0.2019  0.5037
  517MOL0     C71226   7.201   4.588  10.006 -0.9710  0.0518  0.2260
  517MOL0     C71227   7.186   4.614  10.136 -0.2073 -0.0228 -1.0685
  517MOL0     C71228   7.143   4.513  10.238 -0.1706  0.5027 -0.0287
  517MOL0     C71229   7.016   4.439  10.193  0.3633 -0.1558 -0.4468
  517MOL0     C71230   6.951   4.355  10.307 -0.5200  1.0691  1.1710
  517MOL0     C71231   6.810   4.403  10.351  0.5306 -0.0267  0.2522
  517MOL0     O71232   6.715   4.374  10.243  0.2211  0.4244  0.0616
  517MOL0     C71233   6.704   4.241  10.210  1.2723  0.9535 -0.2432
  517MOL0     C71234   6.711   4.196  10.079 -0.0415  0.1823  0.8411
  517MOL0     C71235   6.685   4.061  10.039 -0.4054  1.0349 -0.4010
  517MOL0     C71236   6.672   4.013   9.899  0.4496  0.2691  0.3940
  517MOL0     C71237   6.645   3.969  10.140  0.6844 -0.0130 -0.3424
  517MOL0     C71238   6.621   3.824  10.115 -0.2047 -0.6175  0.2033
  517MOL0     O71239   6.530   3.784  10.022  0.1112 -0.2527 -0.4134
  517MOL0     C71240   6.504   3.654  10.015  0.2327  1.1731  0.5184
  517MOL0     C71241   6.570   3.593   9.913 -0.5255  0.5746 -0.0865
  517MOL0     C71242   6.574   3.448   9.901  0.4124 -0.4492  0.5974
  517MOL0     C71243   6.507   3.373  10.006  0.0740 -0.8006  0.4101
  517MOL0     O71244   6.531   3.242  10.037  0.4529 -0.2153 -0.4519
  517MOL0     C71245   6.508   3.142   9.931 -0.2487 -0.6413 -0.0015
  517MOL0     C71246   6.546   3.010   9.988 -0.6397 -0.5601 -0.3758
  517MOL0     C71247   6.476   2.899   9.907 -0.2829 -0.2035 -0.1662
  517MOL0     C71248   6.549   2.758   9.940 -0.4046  0.1353  0.1222
  517MOL0     C71249   6.495   2.639   9.874  0.0363  0.6168 -0.5196
  517MOL0     C71250   6.582   2.515   9.895 -0.7453  0.0094  0.2426
  517MOL0     C71251   6.513   2.384   9.856 -0.5067  1.0837  0.0462
  517MOL0     C71252   6.452   2.334   9.984 -0.3514  0.0300 -0.2740
  517MOL0    Cl71253   6.574   2.267  10.106 -0.0317  0.0886 -0.0491
  517MOL0     C71254   6.445   3.445  10.111  0.4300  0.3384 -0.6034
  517MOL0     C71255   6.439   3.588  10.110  1.2474  0.5555 -0.0579
  517MOL0     O71256   6.691   3.756  10.184 -0.7315 -1.3382  0.2010
  517MOL0     C71257   6.638   4.015  10.276 -0.7818  0.0059 -0.7582
  517MOL0     C71258   6.665   4.147  10.308  0.0346 -0.5308 -0.2714
  517MOL0     N71259   7.253   4.729  10.179  0.3570 -0.5468 -0.6925
  517MOL0     N71260   7.308   4.771  10.079 -0.2672  0.3908  0.0081
  517MOL0     C71261   7.731   3.678   9.660 -0.4202 -0.0106  0.0802
  517MOL0     C71262   7.724   3.543   9.617 -1.4902 -0.4674  0.5943
  517MOL0     C71263   7.640   3.082   9.643  0.1606  0.3386  0.0526
  517MOL0     C71264   7.709   3.053   9.759 -0.6479  0.1560  0.0083
  517MOL0     C71265   7.758   2.922   9.782 -0.5744 -0.4191  0.2707
  517MOL0     C71266   7.741   2.822   9.682  0.6021 -0.4702 -0.4161
  517MOL0     O71267   7.798   2.700   9.706  0.2602 -0.1284  0.2327
  517MOL0     C71268   7.798   2.587   9.610 -0.7880 -0.0479 -0.3323
  517MOL0     C71269   7.903   2.615   9.506  0.0470 -0.1016  0.4054
  517MOL0     C71270   7.941   2.503   9.418 -0.7567  0.6779 -0.1377
  517MOL0     C71271   8.001   2.549   9.285  0.6799 -0.5235  0.3191
  517MOL0     C71272   7.897   2.622   9.203 -0.3922 -0.6866  0.4945
  517MOL0     C71273   7.826   2.675   9.115  0.3271 -1.3001 -0.4356
  517MOL0     C71274   7.669   2.851   9.563  0.7083  0.5824 -0.4542
  517MOL0     C71275   7.611   2.983   9.550 -0.0136  0.7300  0.5316
  517MOL0     C71276   7.531   2.993   9.422  0.1335 -0.4779 -0.8062
  517MOL0     H71277   7.546   3.407   9.874 -2.2523  0.7920 -0.2564
  517MOL0     H71278   7.599   3.618   9.978  2.1387  0.4617  0.9238
  517MOL0     H71279   7.530   3.989   9.846  1.3782  0.1784 -0.1049
  517MOL0     H71280   7.514   3.872   9.717  0.1874 -1.3335  0.9722
  517MOL0     H71281   7.753   3.993   9.641 -1.7683 -0.4256 -1.2513
  517MOL0     H71282   7.588   4.040   9.604 -0.3036 -1.5828  0.4517
  517MOL0     H71283   7.714   4.159   9.864  0.5848 -1.6494 -0.3402
  517MOL0     H71284   7.764   4.222   9.721 -0.8853  0.9425 -0.9127
  517MOL0     H71285   7.529   4.239   9.634  1.8139  1.0350 -0.9300
  517MOL0     H71286   7.474   4.221   9.800 -1.1123  3.7953  0.8258
  517MOL0     H71287   7.600   4.465   9.657 -3.3213 -0.8750 -0.7000
  517MOL0     H71288   7.666   4.425   9.822 -0.1168 -0.7077 -0.0494
  517MOL0     H71289   7.382   4.429   9.774  1.2693  1.6309 -2.0175
  517MOL0     H71290   7.461   4.432   9.929  1.3123 -0.7227 -0.5265
  517MOL0     H71291   7.540   4.660   9.733 -2.5079  1.3293 -0.6730
  517MOL0     H71292   7.558   4.653   9.903 -2.0319 -0.5354  1.3270
  517MOL0     H71293   7.369   4.813   9.810 -0.7330  0.1473  0.3119
  517MOL0     H71294   7.290   4.673   9.761  1.0049  1.7615 -0.9569
  517MOL0     H71295   7.162   4.503   9.952 -0.4430 -1.5091  2.1600
  517MOL0     H71296   7.120   4.563  10.333 -0.1080  2.5086 -1.0094
  517MOL0     H71297   7.214   4.431  10.251 -0.4914  0.6026  3.1422
  517MOL0     H71298   6.939   4.503  10.149 -0.4065  0.6751  1.9538
  517MOL0     H71299   7.030   4.363  10.115  0.7286 -2.3474  1.6512
  517MOL0     H71300   6.955   4.249  10.281  1.3675  1.2657  0.5063
  517MOL0     H71301   7.016   4.358  10.395 -1.4825 -2.3147  2.1489
  517MOL0     H71302   6.780   4.354  10.444 -2.8540 -0.5364 -0.9649
  517MOL0     H71303   6.810   4.509  10.376 -0.0624  0.0244  0.0473
  517MOL0     H71304   6.724   4.257   9.990  3.0061 -3.7518 -1.7571
  517MOL0     H71305   6.567   3.994   9.877  0.0742 -0.7383  2.7093
  517MOL0     H71306   6.726   3.919   9.885  0.2414  0.4677 -2.3036
  517MOL0     H71307   6.716   4.089   9.834  3.2716  0.1490  1.9808
  517MOL0     H71308   6.621   3.651   9.836 -0.6851  2.3907  1.0985
  517MOL0     H71309   6.637   3.409   9.822  1.9348  1.4118  0.8178
  517MOL0     H71310   6.401   3.140   9.907  0.1031  3.8677 -3.3365
  517MOL0     H71311   6.566   3.174   9.844  1.3840  1.3928  1.7026
  517MOL0     H71312   6.655   3.002   9.984 -0.6922 -0.9481 -2.8578
  517MOL0     H71313   6.514   3.005  10.092  0.5982  1.7142  0.1792
  517MOL0     H71314   6.497   2.922   9.802 -0.7006 -1.0314 -0.4366
  517MOL0     H71315   6.368   2.894   9.923 -0.3932  2.7931  0.6072
  517MOL0     H71316   6.543   2.752  10.049 -0.7699 -1.6655  0.0345
  517MOL0     H71317   6.649   2.760   9.898  0.0690  0.2560  1.2115
  517MOL0     H71318   6.391   2.615   9.900 -0.5841 -1.3456 -4.1565
  517MOL0     H71319   6.495   2.667   9.769  0.9128 -0.6717 -0.8884
  517MOL0     H71320   6.612   2.510  10.000  0.1599  0.4879  0.0206
  517MOL0     H71321   6.677   2.508   9.842 -0.2392 -0.7692  1.2185
  517MOL0     H71322   6.582   2.313   9.809 -1.9673  0.3353 -1.0399
  517MOL0     H71323   6.426   2.395   9.790  0.5373  1.0732 -1.3786
  517MOL0     H71324   6.397   2.244   9.954 -1.6876  0.6017  0.3867
  517MOL0     H71325   6.386   2.412  10.021  0.6898  2.6620 -3.4647
  517MOL0     H71326   6.400   3.413  10.205  0.5774  2.8414  0.4078
  517MOL0     H71327   6.399   3.653  10.187 -2.7105  2.4897 -3.3408
  517MOL0     H71328   6.609   3.956  10.363 -1.9526  2.4532  0.6189
  517MOL0     H71329   6.646   4.177  10.411 -2.3604  0.3732 -0.9114
  517MOL0     H71330   7.761   3.750   9.585 -2.7289  0.4088 -0.4904
  517MOL0     H71331   7.769   3.524   9.520 -0.7685  1.9740  0.3931
  517MOL0     H71332   7.726   3.117   9.845 -0.4648  1.2531 -0.8201
  517MOL0     H71333   7.820   2.902   9.869  0.8721 -0.3419 -0.7036
  517MOL0     H71334   7.833   2.505   9.673 -1.8292  1.5553  2.5742
  517MOL0     H71335   7.701   2.563   9.566 -0.5277 -1.4084 -0.1949
  517MOL0     H71336   7.993   2.648   9.558 -0.9377  1.4799  1.1924
  517MOL0     H71337   7.862   2.695   9.443  1.8117  0.2165 -0.3989
  517MOL0     H71338   8.035   2.466   9.460  0.0534  1.0699 -1.5378
  517MOL0     H71339   7.869   2.424   9.398  0.0410 -0.6074  1.8688
  517MOL0     H71340   8.030   2.460   9.228  1.5312  0.2014 -0.4147
  517MOL0     H71341   8.092   2.609   9.285  2.0352 -2.4988  0.2825
  517MOL0     H71342   7.773   2.723   9.036 -2.3102 -1.9601  0.8174
  517MOL0     H71343   7.660   2.774   9.487  1.0029 -2.1671  2.1081
  517MOL0     H71344   7.571   2.939   9.336  1.9850  1.8282 -1.5202
  517MOL0     H71345   7.437   2.956   9.462 -0.5151 -0.6168 -2.3877
  517MOL0     H71346   7.527   3.098   9.392  1.6458 -0.4868 -1.1116
  518MOL0     O71347  10.592   4.155  11.461 -0.3149 -0.0427  0.8765
  518MOL0     C71348  10.598   4.270  11.497  1.1725  0.1543  0.4076
  518MOL0     O71349  10.700   4.351  11.458 -0.0796  0.1529 -0.5406
  518MOL0     C71350  10.789   4.323  11.364 -0.6363  0.1995  0.8344
  518MOL0     C71351  10.790   4.391  11.242 -0.3373  0.4924 -0.5127
  518MOL0     C71352  10.878   4.345  11.136 -0.2775 -0.3567  0.2223
  518MOL0     C71353  10.971   4.239  11.156 -0.0404  0.1387  0.3837
  518MOL0     O71354  11.065   4.217  11.061 -0.0582 -0.1428 -0.6047
  518MOL0     C71355  11.170   4.121  11.081 -0.7281  1.3804 -0.1817
  518MOL0     C71356  11.257   4.111  10.952  0.1117  0.1906 -0.7196
  518MOL0     C71357  11.181   4.065  10.833 -0.2143 -0.7648 -0.5526
  518MOL0     C71358  11.186   3.918  10.816 -0.2690 -1.0308  0.2232
  518MOL0     C71359  11.168   3.896  10.663  0.1058 -0.3775 -0.3153
  518MOL0     C71360  11.199   3.759  10.620 -0.3348  0.0521 -0.0933
  518MOL0     C71361  11.338   3.742  10.562  0.0609 -0.6130 -0.0027
  518MOL0     C71362  11.340   3.696  10.422 -0.9730  0.3435  0.3620
  518MOL0     N71363  11.480   3.680  10.379 -0.4826 -0.1765 -0.2227
  518MOL0     C71364  11.580   3.774  10.359 -0.0187  0.8869  0.0139
  518MOL0     C71365  11.685   3.695  10.316 -0.1923 -0.1024  0.1028
  518MOL0     C71366  11.818   3.739  10.271 -0.5579 -0.5528 -0.2070
  518MOL0     C71367  11.833   3.888  10.229  0.1840  0.2058 -0.0356
  518MOL0     C71368  11.971   3.930  10.190 -0.0532 -0.6275  0.7243
  518MOL0     C71369  12.076   3.922  10.299  0.4364 -0.1305  0.1542
  518MOL0     O71370  12.040   3.973  10.426  0.1264  0.6744 -0.3741
  518MOL0     C71371  12.043   4.102  10.449  0.4916  0.1165  0.2265
  518MOL0     C71372  11.986   4.141  10.568  0.3108 -0.1785  0.1168
  518MOL0     C71373  11.975   4.275  10.605  0.3479 -0.3762 -0.0100
  518MOL0     C71374  11.933   4.294  10.755 -0.8675  0.1310  1.1617
  518MOL0     C71375  12.016   4.376  10.525 -0.1320  0.8388  0.1737
  518MOL0     C71376  12.004   4.520  10.559  0.1178 -0.5397 -0.8341
  518MOL0     O71377  12.088   4.602  10.485  0.3408  0.6129 -0.8259
  518MOL0     C71378  12.099   4.734  10.510 -0.0858 -0.3105  0.4183
  518MOL0     C71379  12.052   4.829  10.419 -0.6152 -0.9519  0.0332
  518MOL0     C71380  12.072   4.963  10.454 -0.6172  0.2566  0.1877
  518MOL0     C71381  12.143   5.003  10.564 -0.4806 -0.4932 -0.8965
  518MOL0     O71382  12.165   5.135  10.585  1.1015  0.3660  0.6770
  518MOL0     C71383  12.267   5.175  10.672  0.6375  0.3949  0.4774
  518MOL0     C71384  12.242   5.321  10.702 -0.5869  0.1550 -0.2673
  518MOL0     C71385  12.358   5.405  10.753  0.3043  0.4432 -0.3692
  518MOL0     C71386  12.430   5.349  10.882  0.2762 -0.8495  0.0674
  518MOL0     C71387  12.347   5.349  11.013  0.0401 -0.4096 -0.0759
  518MOL0     C71388  12.311   5.486  11.064  0.3903 -0.2448 -0.9572
  518MOL0     C71389  12.266   5.467  11.212  0.0637 -0.3750 -0.1786
  518MOL0     C71390  12.183   5.575  11.267  0.7398 -0.6964  0.3980
  518MOL0    Cl71391  12.040   5.591  11.167 -0.0452  0.0278 -0.1748
  518MOL0     C71392  12.200   4.902  10.651  0.2804  0.3124 -0.0801
  518MOL0     C71393  12.168   4.767  10.628  0.2091 -0.0834  0.0005
  518MOL0     O71394  11.917   4.551  10.643  0.0111 -0.4120  0.2417
  518MOL0     C71395  12.086   4.345  10.417  0.7768 -0.2510  0.1667
  518MOL0     C71396  12.090   4.210  10.370 -0.0541  0.8883  0.2154
  518MOL0     N71397  11.654   3.559  10.317  0.5264  0.1048  0.3180
  518MOL0     N71398  11.525   3.557  10.352 -0.6069  0.8275  0.5782
  518MOL0     C71399  10.970   4.182  11.280  0.0232  1.1196 -0.5061
  518MOL0     C71400  10.882   4.221  11.388  0.8513  0.2651 -0.7856
  518MOL0     C71401  10.493   4.333  11.571  0.1803  0.8020 -0.7111
  518MOL0     C71402  10.479   4.475  11.551  0.2340 -1.1063  0.1800
  518MOL0     C71403  10.385   4.544  11.614  0.4066 -0.3969 -0.7248
  518MOL0     C71404  10.299   4.480  11.706  0.4652  0.4213 -0.0933
  518MOL0     O71405  10.201   4.550  11.772  0.0428  0.9773 -0.2699
  518MOL0     C71406  10.213   4.560  11.921  0.7228 -0.7783  0.3420
  518MOL0     C71407  10.080   4.586  11.974  0.9932 -0.0191  0.9463
  518MOL0     C71408  10.073   4.600  12.129  0.1249  0.4879  1.0305
  518MOL0     C71409  10.156   4.712  12.189 -0.1357 -0.7832 -0.6246
  518MOL0     C71410  10.075   4.830  12.216  0.1556 -0.6739 -0.1422
  518MOL0     C71411  10.009   4.931  12.230  0.3478  0.8045 -0.0904
  518MOL0     C71412  10.316   4.340  11.729 -0.0648 -0.5137  0.3688
  518MOL0     C71413  10.409   4.264  11.660 -0.4230  0.4110 -0.5592
  518MOL0     C71414  10.438   4.120  11.706 -0.0707 -0.5566  0.0922
  518MOL0     H71415  10.718   4.469  11.223 -0.5178  0.4878  0.1530
  518MOL0     H71416  10.873   4.418  11.056 -1.1576 -0.9297 -0.2653
  518MOL0     H71417  11.123   4.031  11.122  1.8203  0.4701  0.9583
  518MOL0     H71418  11.240   4.147  11.161 -0.8729 -0.8934  0.7788
  518MOL0     H71419  11.301   4.209  10.930 -0.7042  0.7526  0.0840
  518MOL0     H71420  11.343   4.047  10.971 -0.9920 -1.2555 -0.4866
  518MOL0     H71421  11.075   4.089  10.841 -0.3531 -1.8813  1.5862
  518MOL0     H71422  11.231   4.120  10.752 -1.0942  0.3113 -0.3761
  518MOL0     H71423  11.286   3.889  10.848  0.1423  1.5518  1.5855
  518MOL0     H71424  11.111   3.871  10.881 -2.2971 -0.0209 -1.2920
  518MOL0     H71425  11.233   3.955  10.599  1.5334  0.0630  1.4655
  518MOL0     H71426  11.064   3.924  10.641  0.3735  0.1529 -0.9430
  518MOL0     H71427  11.206   3.694  10.708 -0.9879  0.7206  0.4653
  518MOL0     H71428  11.127   3.705  10.559  0.9661  0.3726 -1.9856
  518MOL0     H71429  11.387   3.657  10.610 -0.1359 -0.2346  0.8944
  518MOL0     H71430  11.406   3.826  10.581  1.0214 -0.9546 -1.6620
  518MOL0     H71431  11.291   3.598  10.411 -0.4968  0.1236  0.1322
  518MOL0     H71432  11.298   3.758  10.342 -3.5856 -1.7865 -0.0721
  518MOL0     H71433  11.577   3.882  10.357  1.9764  1.0805  2.3787
  518MOL0     H71434  11.857   3.690  10.182 -1.5206  1.6024 -1.9055
  518MOL0     H71435  11.882   3.712  10.356  0.0132 -0.3893 -0.5819
  518MOL0     H71436  11.765   3.923  10.151 -2.0109 -0.2887  1.5897
  518MOL0     H71437  11.813   3.955  10.313 -1.4217  0.9942 -1.0061
  518MOL0     H71438  12.002   3.881  10.097 -1.7821 -0.7374  0.1797
  518MOL0     H71439  11.951   4.037  10.179 -0.5745 -0.6867  1.0752
  518MOL0     H71440  12.104   3.817  10.313  0.0779  0.0959  3.2325
  518MOL0     H71441  12.166   3.974  10.267  1.4486 -1.1818  1.2062
  518MOL0     H71442  11.948   4.060  10.629  0.2305 -1.2580 -1.3349
  518MOL0     H71443  11.893   4.199  10.791 -4.5319  0.5699 -1.1740
  518MOL0     H71444  11.843   4.356  10.758  0.1332  1.8847 -1.3127
  518MOL0     H71445  12.010   4.325  10.826  0.9325 -2.0198  0.2850
  518MOL0     H71446  11.990   4.809  10.332 -0.8676  0.4439 -0.1260
  518MOL0     H71447  12.034   5.039  10.388 -1.7688  0.0220  0.5537
  518MOL0     H71448  12.256   5.123  10.768  0.1253 -1.7018 -0.6414
  518MOL0     H71449  12.363   5.153  10.624  1.2528  1.9154  0.9785
  518MOL0     H71450  12.211   5.366  10.607  2.0187 -3.8188 -3.3967
  518MOL0     H71451  12.169   5.350  10.778 -2.3977 -0.2123 -1.7964
  518MOL0     H71452  12.339   5.511  10.772  4.5437  1.2766  0.1788
  518MOL0     H71453  12.425   5.405  10.666 -0.4102 -0.4478 -0.9320
  518MOL0     H71454  12.522   5.400  10.912  0.5673 -2.9064  3.0893
  518MOL0     H71455  12.454   5.247  10.853  2.4148  0.1205 -1.8821
  518MOL0     H71456  12.269   5.273  11.020 -0.0696 -0.2178  0.9655
  518MOL0     H71457  12.414   5.306  11.088 -3.0118 -1.0338  2.4928
  518MOL0     H71458  12.223   5.521  11.008 -2.3225 -0.4791  2.7754
  518MOL0     H71459  12.399   5.549  11.049  0.8434 -0.8782 -0.9783
  518MOL0     H71460  12.347   5.463  11.286 -1.1118  0.2639  1.2127
  518MOL0     H71461  12.205   5.377  11.222  1.8186 -1.4480  1.4746
  518MOL0     H71462  12.246   5.662  11.248  0.5415 -0.0030  2.6284
  518MOL0     H71463  12.161   5.562  11.373  3.1545 -0.1342  1.0336
  518MOL0     H71464  12.270   4.908  10.733  0.0303 -4.1139  0.7274
  518MOL0     H71465  12.214   4.704  10.703 -1.2613 -1.5353 -0.2663
  518MOL0     H71466  12.135   4.431  10.372 -2.6823  3.3875  2.7609
  518MOL0     H71467  12.136   4.186  10.275  0.9628 -1.3235  1.1879
  518MOL0     H71468  11.049   4.111  11.303 -0.2912  0.8143 -0.3651
  518MOL0     H71469  10.891   4.186  11.490  0.0147 -1.1506 -1.1713
  518MOL0     H71470  10.546   4.529  11.484 -0.2453 -1.6231 -0.7410
  518MOL0     H71471  10.401   4.651  11.601  3.6696 -0.5454  0.8492
  518MOL0     H71472  10.246   4.462  11.956 -2.6162 -1.9236  0.6692
  518MOL0     H71473  10.280   4.641  11.950 -1.1408  0.3870  1.6256
  518MOL0     H71474  10.020   4.503  11.935 -2.4725  1.5605  2.4395
  518MOL0     H71475  10.034   4.670  11.920 -2.0347 -2.0304  0.1423
  518MOL0     H71476   9.969   4.605  12.162  0.2878 -0.1443  1.6731
  518MOL0     H71477  10.115   4.508  12.170 -0.2526 -0.0028  0.3350
  518MOL0     H71478  10.239   4.745  12.126 -0.0434  1.1324  0.4311
  518MOL0     H71479  10.191   4.672  12.285 -1.4828  2.2242  1.2857
  518MOL0     H71480   9.957   5.024  12.227  0.4631  0.8715 -2.8103
  518MOL0     H71481  10.253   4.300  11.808 -1.7785  2.0848  0.4353
  518MOL0     H71482  10.540   4.122  11.746 -0.4464  3.0788  1.1970
  518MOL0     H71483  10.383   4.085  11.794 -1.9400 -2.1569 -1.5887
  518MOL0     H71484  10.415   4.036  11.639 -2.2862 -0.5972  0.8197
  519MOL0     O71485   6.573   0.505   2.272  0.0123  0.6945  0.9008
  519MOL0     C71486   6.493   0.432   2.220  0.2506  0.3328 -0.4899
  519MOL0     O71487   6.490   0.380   2.091 -0.6153 -0.2031 -0.2796
  519MOL0     C71488   6.607   0.392   2.016  0.4276 -1.0710 -0.0572
  519MOL0     C71489   6.634   0.517   1.950 -0.0925  1.0846  0.2476
  519MOL0     C71490   6.761   0.536   1.889  0.5965 -0.0379 -0.2929
  519MOL0     C71491   6.854   0.432   1.883  1.5387 -0.8629  0.4804
  519MOL0     O71492   6.975   0.457   1.829 -0.3613  0.3295 -0.1443
  519MOL0     C71493   7.001   0.374   1.716  0.9488  0.5902 -0.2833
  519MOL0     C71494   7.144   0.382   1.682 -0.8870 -1.3081 -0.2568
  519MOL0     C71495   7.242   0.364   1.802  0.4394 -1.6305  0.1713
  519MOL0     C71496   7.252   0.217   1.847 -1.2062 -0.2447  0.7204
  519MOL0     C71497   7.363   0.193   1.947 -1.2187  0.6158  0.1039
  519MOL0     C71498   7.350   0.281   2.072 -0.2898  0.7599 -0.2754
  519MOL0     C71499   7.480   0.275   2.151 -0.5533  0.0318  0.7025
  519MOL0     C71500   7.492   0.377   2.262  1.3467 -0.2668 -0.4400
  519MOL0     N71501   7.389   0.360   2.359 -0.0608 -0.6162 -0.4504
  519MOL0     C71502   7.339   0.453   2.448 -0.4561 -0.0203  0.0509
  519MOL0     C71503   7.243   0.398   2.524  0.1163 -1.5621  1.1335
  519MOL0     C71504   7.169   0.446   2.640  0.4717 -1.0389 -0.0075
  519MOL0     C71505   7.019   0.399   2.648 -0.4721  0.2428  1.2957
  519MOL0     C71506   7.000   0.252   2.699 -0.5059  0.4126 -0.0379
  519MOL0     C71507   6.863   0.193   2.660 -0.8771 -0.1889 -0.0210
  519MOL0     O71508   6.770   0.237   2.751 -0.0564  1.0514  0.1335
  519MOL0     C71509   6.641   0.194   2.751  0.6066 -0.1909 -0.1329
  519MOL0     C71510   6.584   0.144   2.631  0.5504  0.4130 -0.4319
  519MOL0     C71511   6.461   0.077   2.635  0.0207 -0.2764  0.4135
  519MOL0     C71512   6.412   0.020   2.503 -0.1903  0.4849 -0.4474
  519MOL0     C71513   6.387   0.075   2.750  0.3941 -0.0758 -0.0249
  519MOL0     C71514   6.245   0.033   2.755  0.2994 -0.0165  0.0644
  519MOL0     O71515   6.199   0.025   2.879  0.5125  0.0854 -0.1552
  519MOL0     C71516   6.069  -0.010   2.924 -0.0083  0.0951 -0.0142
  519MOL0     C71517   6.039   0.014   3.055  0.4222 -0.1349  0.1076
  519MOL0     C71518   5.915  -0.017   3.113  0.0687  0.0196 -0.4668
  519MOL0     C71519   5.827  -0.089   3.037 -0.5451  0.5680 -1.1389
  519MOL0     O71520   5.703  -0.125   3.085  0.4999 -0.1496 -0.5219
  519MOL0     C71521   5.618  -0.019   3.137  0.2489 -0.3297  0.6903
  519MOL0     C71522   5.509  -0.093   3.210 -0.0422  0.2545 -0.0171
  519MOL0     C71523   5.433   0.001   3.299  0.3634 -0.0755  0.5251
  519MOL0     C71524   5.307  -0.059   3.363 -0.2377 -0.0965 -0.2518
  519MOL0     C71525   5.330  -0.148   3.481 -0.5833 -0.2283  0.0099
  519MOL0     C71526   5.193  -0.215   3.519 -0.4085 -0.2394  0.9098
  519MOL0     C71527   5.230  -0.328   3.614  0.8081 -0.5226 -0.8686
  519MOL0     C71528   5.103  -0.404   3.656 -0.7115 -1.3945 -0.3647
  519MOL0    Cl71529   5.153  -0.522   3.773  0.0755  0.0527  0.0991
  519MOL0     C71530   5.854  -0.129   2.909 -0.4249  0.0318  0.2811
  519MOL0     C71531   5.977  -0.086   2.845  0.4125  0.4146 -0.0958
  519MOL0     O71532   6.180   0.030   2.653 -0.6842  0.1816  0.5747
  519MOL0     C71533   6.443   0.135   2.866  0.0589  0.8123  0.0787
  519MOL0     C71534   6.571   0.184   2.864 -0.4878  0.2105  0.6131
  519MOL0     N71535   7.222   0.267   2.476  0.6998  0.0599 -0.5475
  519MOL0     N71536   7.312   0.244   2.383 -0.5847 -0.0042 -0.8176
  519MOL0     C71537   6.833   0.311   1.938  0.1211  0.0836 -1.5528
  519MOL0     C71538   6.713   0.292   2.015  0.2743 -0.7016 -0.2243
  519MOL0     C71539   6.376   0.390   2.296  0.1592 -0.3713  0.1490
  519MOL0     C71540   6.260   0.346   2.221  0.1155 -0.2693  0.0200
  519MOL0     C71541   6.135   0.322   2.287  0.0193  0.0921  0.3652
  519MOL0     C71542   6.123   0.331   2.429 -0.4717 -0.6571  0.3096
  519MOL0     O71543   6.007   0.288   2.484  0.2036  0.7584 -0.0929
  519MOL0     C71544   5.983   0.313   2.625 -0.5479  0.0675 -0.3098
  519MOL0     C71545   5.856   0.238   2.651  0.1924 -0.1949  0.0743
  519MOL0     C71546   5.730   0.288   2.569  0.1569 -0.5630 -0.2634
  519MOL0     C71547   5.651   0.175   2.504 -0.5496  0.3978 -0.3000
  519MOL0     C71548   5.575   0.094   2.606 -0.1045 -0.3708 -0.0676
  519MOL0     C71549   5.536   0.018   2.690 -0.7306 -0.4841  0.3414
  519MOL0     C71550   6.239   0.359   2.504  0.2010  0.1019  1.0100
  519MOL0     C71551   6.361   0.392   2.441  0.7873  0.0043 -0.2254
  519MOL0     C71552   6.480   0.440   2.535  0.2918 -0.0554 -0.1507
  519MOL0     H71553   6.552   0.586   1.962 -4.3578 -3.6184  1.4522
  519MOL0     H71554   6.783   0.628   1.837  1.1333  0.2805  0.4879
  519MOL0     H71555   6.931   0.402   1.637 -3.1375 -1.5693  2.1797
  519MOL0     H71556   6.981   0.267   1.732 -0.9841  0.5588 -2.4168
  519MOL0     H71557   7.171   0.298   1.616  2.6610 -1.1300  0.7677
  519MOL0     H71558   7.159   0.479   1.634 -0.4644 -0.7556  0.9479
  519MOL0     H71559   7.343   0.392   1.767  1.3409 -1.2777  2.8339
  519MOL0     H71560   7.213   0.433   1.882 -2.3754 -1.5469 -0.8386
  519MOL0     H71561   7.162   0.174   1.892 -1.5904  1.1028  1.3004
  519MOL0     H71562   7.281   0.161   1.757 -0.5102  3.7497 -1.8015
  519MOL0     H71563   7.455   0.217   1.892 -1.5703  0.4602 -0.5692
  519MOL0     H71564   7.380   0.091   1.983  2.6638  1.6076  1.6390
  519MOL0     H71565   7.336   0.386   2.042 -0.0122  0.6181 -0.9310
  519MOL0     H71566   7.271   0.255   2.143  1.2648 -0.6685  1.0049
  519MOL0     H71567   7.556   0.292   2.074 -1.0497 -1.3669 -0.1325
  519MOL0     H71568   7.505   0.178   2.195 -1.7650  0.2409  1.9183
  519MOL0     H71569   7.578   0.369   2.328 -0.2670 -1.4485  1.6078
  519MOL0     H71570   7.489   0.478   2.218 -2.5300 -1.2141 -2.9083
  519MOL0     H71571   7.369   0.557   2.452 -2.0052  0.5094 -1.3440
  519MOL0     H71572   7.174   0.553   2.659 -3.5010 -0.6845 -0.1231
  519MOL0     H71573   7.228   0.406   2.723  0.2415 -1.1631  0.0952
  519MOL0     H71574   6.966   0.463   2.720 -4.6693  0.9070 -1.9752
  519MOL0     H71575   6.974   0.419   2.550  1.6038 -3.5790 -0.6866
  519MOL0     H71576   7.079   0.183   2.666 -0.6628 -0.0514  0.5438
  519MOL0     H71577   7.006   0.254   2.808  1.5460  2.1337 -0.1158
  519MOL0     H71578   6.843   0.222   2.557  0.2394  2.7775  0.5151
  519MOL0     H71579   6.876   0.086   2.679 -0.0533 -0.3656 -1.3999
  519MOL0     H71580   6.641   0.139   2.539 -1.1286 -1.8434 -1.4520
  519MOL0     H71581   6.327   0.075   2.462 -0.7333 -0.1767 -0.2313
  519MOL0     H71582   6.378  -0.084   2.495 -1.6845  0.9203 -0.1194
  519MOL0     H71583   6.490   0.034   2.428  0.1080  0.8075 -0.0797
  519MOL0     H71584   6.118   0.066   3.109  1.1344 -0.6656 -0.4001
  519MOL0     H71585   5.895   0.009   3.216 -2.4433  0.8437 -1.0823
  519MOL0     H71586   5.684   0.047   3.193  0.4401  4.8625 -4.6817
  519MOL0     H71587   5.573   0.046   3.062  0.3846  0.6627  1.4490
  519MOL0     H71588   5.448  -0.164   3.153  0.7063 -0.1765 -0.3092
  519MOL0     H71589   5.567  -0.158   3.276 -0.2743 -1.2870 -1.2473
  519MOL0     H71590   5.402   0.085   3.235 -1.7708 -1.4843 -0.4121
  519MOL0     H71591   5.505   0.029   3.376  2.6260  0.9059 -1.7828
  519MOL0     H71592   5.256  -0.116   3.284 -0.5601  0.4575 -0.4492
  519MOL0     H71593   5.246   0.025   3.398  1.4739 -0.0681  2.9349
  519MOL0     H71594   5.403  -0.227   3.464 -0.5382  0.1127 -1.5351
  519MOL0     H71595   5.366  -0.093   3.569  1.8351  0.1755 -1.1525
  519MOL0     H71596   5.136  -0.241   3.429  0.2379  1.3558 -0.0102
  519MOL0     H71597   5.129  -0.137   3.560 -1.5828  1.4970 -3.5644
  519MOL0     H71598   5.281  -0.286   3.701  0.1387  1.0099 -1.1751
  519MOL0     H71599   5.287  -0.406   3.562 -1.7655 -2.3006 -1.2516
  519MOL0     H71600   5.054  -0.457   3.575 -1.3623 -2.9680  1.0093
  519MOL0     H71601   5.034  -0.336   3.707  2.1367  1.6791 -0.2464
  519MOL0     H71602   5.775  -0.168   2.847 -0.9790  3.1278 -1.1441
  519MOL0     H71603   6.007  -0.108   2.743  1.4637  2.0221 -0.1584
  519MOL0     H71604   6.399   0.142   2.965 -0.2721 -1.1041  0.1128
  519MOL0     H71605   6.613   0.216   2.959 -0.6949 -2.7950  1.8506
  519MOL0     H71606   6.925   0.254   1.954 -0.4092  0.2359  3.5071
  519MOL0     H71607   6.695   0.215   2.090  1.0819  0.0851  0.8074
  519MOL0     H71608   6.270   0.327   2.115 -1.3937 -0.4296 -0.1179
  519MOL0     H71609   6.049   0.296   2.226 -0.3062 -0.4439  1.0417
  519MOL0     H71610   6.060   0.271   2.691 -1.4517  0.3814  0.9814
  519MOL0     H71611   5.966   0.419   2.647  0.9913  0.3972 -0.5962
  519MOL0     H71612   5.840   0.231   2.759 -0.9531  1.5942  0.0534
  519MOL0     H71613   5.877   0.135   2.618  1.3878  0.6163 -1.9405
  519MOL0     H71614   5.659   0.353   2.621 -2.1811 -0.6221 -3.1161
  519MOL0     H71615   5.763   0.350   2.486 -0.1489 -0.6681 -0.4640
  519MOL0     H71616   5.717   0.110   2.447  1.0512  2.1402 -0.5374
  519MOL0     H71617   5.577   0.219   2.437 -2.3675  0.8534  1.8677
  519MOL0     H71618   5.509  -0.033   2.780 -1.0292  1.8113  1.6374
  519MOL0     H71619   6.229   0.376   2.611 -2.1635  1.2049  0.6739
  519MOL0     H71620   6.571   0.384   2.512  1.6398  2.2633 -0.7778
  519MOL0     H71621   6.503   0.546   2.528 -0.6884  0.0676 -2.8771
  519MOL0     H71622   6.445   0.409   2.634  1.8584 -2.9479 -0.3787
  520MOL0     O71623  10.600   7.948   8.183  0.5768  0.2034 -0.3126
  520MOL0     C71624  10.631   7.870   8.278 -1.2655 -0.3581  0.1720
  520MOL0     O71625  10.594   7.736   8.286  0.2482  0.2369 -0.8282
  520MOL0     C71626  10.486   7.702   8.212 -0.8136 -0.1643  0.6063
  520MOL0     C71627  10.493   7.611   8.114  0.0662  0.5074 -0.2979
  520MOL0     C71628  10.378   7.580   8.030 -0.2826  0.5079 -1.1002
  520MOL0     C71629  10.249   7.634   8.061 -0.1138  0.3694  0.8197
  520MOL0     O71630  10.131   7.599   7.997 -0.6765  0.0151  0.8413
  520MOL0     C71631  10.122   7.458   7.953 -0.0048 -0.9019  1.0047
  520MOL0     C71632   9.978   7.419   7.968 -1.2870  0.7256  0.6776
  520MOL0     C71633   9.943   7.415   8.113 -0.2354  0.1574 -1.0298
  520MOL0     C71634   9.797   7.375   8.124 -0.1892 -0.6127 -0.9992
  520MOL0     C71635   9.744   7.408   8.263 -1.0245  0.2696 -0.8998
  520MOL0     C71636   9.590   7.390   8.256  0.3426  0.0547 -0.7803
  520MOL0     C71637   9.518   7.487   8.357  0.1803  1.0121 -0.8137
  520MOL0     C71638   9.560   7.455   8.501 -0.2128 -0.5034 -0.3504
  520MOL0     N71639   9.469   7.509   8.600  0.2822 -0.1885 -0.1926
  520MOL0     C71640   9.481   7.636   8.649  0.4884 -0.1450  0.2751
  520MOL0     C71641   9.371   7.645   8.742 -0.0658  0.3418 -0.4958
  520MOL0     C71642   9.320   7.770   8.814 -0.8657 -0.7231 -0.0663
  520MOL0     C71643   9.307   7.907   8.739 -0.4141  0.0447  1.0824
  520MOL0     C71644   9.255   8.023   8.813 -0.3618  0.4503  0.2835
  520MOL0     C71645   9.332   8.055   8.947 -0.0267  0.3176 -0.0804
  520MOL0     O71646   9.470   8.007   8.941 -0.8859  0.3202 -0.6242
  520MOL0     C71647   9.571   8.093   8.895  0.4375  0.0337 -0.8406
  520MOL0     C71648   9.550   8.215   8.839  0.3131  0.1269  1.5464
  520MOL0     C71649   9.657   8.308   8.813  0.6501 -0.0139  0.5056
  520MOL0     C71650   9.628   8.441   8.745 -0.2953  0.0153 -0.7147
  520MOL0     C71651   9.792   8.258   8.836 -0.0185  0.8274  0.4343
  520MOL0     C71652   9.915   8.344   8.814 -0.2800 -0.3863 -0.3013
  520MOL0     O71653   9.911   8.441   8.724  0.2619 -0.6070  0.3182
  520MOL0     C71654  10.016   8.531   8.707 -0.3005  0.0790  0.1674
  520MOL0     C71655  10.002   8.658   8.759  0.1037  0.2481 -0.0281
  520MOL0     C71656  10.111   8.747   8.733  0.2801 -0.2319 -0.3118
  520MOL0     C71657  10.228   8.710   8.663  0.4628  0.0366 -0.3415
  520MOL0     O71658  10.325   8.806   8.641 -0.7560  0.0314 -0.0553
  520MOL0     C71659  10.449   8.759   8.595 -1.3321 -0.1486 -0.4603
  520MOL0     C71660  10.546   8.883   8.588  1.1545  0.3968 -0.5532
  520MOL0     C71661  10.524   8.972   8.469 -0.1679 -0.3715 -0.0370
  520MOL0     C71662  10.601   9.095   8.492  0.1232 -0.1604  0.0439
  520MOL0     C71663  10.594   9.185   8.369  0.0645 -0.2849 -0.8628
  520MOL0     C71664  10.626   9.332   8.410  0.3124  0.1061 -0.4786
  520MOL0     C71665  10.641   9.400   8.276 -0.3131  0.6455 -0.2061
  520MOL0     C71666  10.659   9.546   8.292  0.4985  0.9206  0.1649
  520MOL0    Cl71667  10.493   9.624   8.308 -0.1142  0.2172 -0.2454
  520MOL0     C71668  10.229   8.584   8.601  0.7539 -0.1851 -0.2586
  520MOL0     C71669  10.118   8.497   8.615  0.1411  0.2138  0.4739
  520MOL0     O71670  10.024   8.308   8.859  0.1243 -0.0496  0.7221
  520MOL0     C71671   9.815   8.127   8.889  0.0545 -0.2444  0.3119
  520MOL0     C71672   9.705   8.052   8.924  0.5551  0.5362  0.4920
  520MOL0     N71673   9.313   7.523   8.745  0.3251 -0.0081  0.0775
  520MOL0     N71674   9.359   7.450   8.658  0.1028  0.5353 -0.2620
  520MOL0     C71675  10.251   7.734   8.160 -0.4248  0.0901  0.0874
  520MOL0     C71676  10.361   7.770   8.234 -0.8357  0.2496 -0.9027
  520MOL0     C71677  10.712   7.917   8.396  0.3739  0.2468 -0.2475
  520MOL0     C71678  10.748   7.814   8.498  1.0239 -0.6801  0.1473
  520MOL0     C71679  10.833   7.849   8.608 -0.1812  0.3569 -0.0493
  520MOL0     C71680  10.884   7.975   8.621 -0.1386 -0.9926  0.5677
  520MOL0     O71681  10.946   7.999   8.746  0.0999  0.3898 -0.0342
  520MOL0     C71682  11.086   7.968   8.745 -0.1987 -0.7485 -0.8860
  520MOL0     C71683  11.149   8.009   8.877 -0.6088  0.6621  0.7805
  520MOL0     C71684  11.170   8.158   8.883  0.2767 -0.5552  0.9779
  520MOL0     C71685  11.244   8.205   9.016 -0.2970 -0.1424  0.4673
  520MOL0     C71686  11.387   8.164   9.008 -0.4780  0.3754 -0.5338
  520MOL0     C71687  11.503   8.131   9.025 -0.1783 -0.8518  0.0854
  520MOL0     C71688  10.833   8.079   8.536  0.2258  0.1139  0.0992
  520MOL0     C71689  10.765   8.052   8.416  0.5156 -0.5542  0.6635
  520MOL0     C71690  10.754   8.159   8.306 -1.0607  0.3051 -0.6926
  520MOL0     H71691  10.581   7.548   8.110 -0.8813 -0.9012  0.3922
  520MOL0     H71692  10.390   7.490   7.969  0.4835 -0.7023  0.7423
  520MOL0     H71693  10.178   7.383   8.011  1.2376 -1.5983 -0.9809
  520MOL0     H71694  10.156   7.449   7.850 -0.8296  1.2650  0.5046
  520MOL0     H71695   9.928   7.495   7.906 -0.8972  0.6708  0.2872
  520MOL0     H71696   9.957   7.322   7.922 -2.6701  1.6906 -0.8564
  520MOL0     H71697   9.998   7.342   8.172  1.3205  1.5169 -0.7389
  520MOL0     H71698   9.953   7.515   8.157 -1.4757  1.1354 -2.8246
  520MOL0     H71699   9.737   7.411   8.041 -0.3287 -2.0731 -1.5671
  520MOL0     H71700   9.781   7.267   8.112 -1.9880 -0.2176 -2.6837
  520MOL0     H71701   9.768   7.513   8.282 -0.6931  0.7760 -3.6648
  520MOL0     H71702   9.783   7.345   8.344 -0.3912  1.1639 -0.4956
  520MOL0     H71703   9.546   7.422   8.162 -4.4540 -0.6511  0.9108
  520MOL0     H71704   9.574   7.284   8.278  4.0215 -0.0328  2.7250
  520MOL0     H71705   9.409   7.480   8.355 -0.0603  3.7412 -0.6028
  520MOL0     H71706   9.548   7.589   8.333  2.1647  0.3974 -1.1321
  520MOL0     H71707   9.584   7.354   8.535  4.2155  1.5401  3.8985
  520MOL0     H71708   9.655   7.509   8.509  0.3972 -1.3973 -1.3412
  520MOL0     H71709   9.539   7.718   8.610 -1.7564  1.4025 -0.0082
  520MOL0     H71710   9.394   7.793   8.892 -2.1980  1.3448  0.6754
  520MOL0     H71711   9.233   7.732   8.868  1.8023 -3.0127  3.0492
  520MOL0     H71712   9.403   7.931   8.693 -0.7222 -4.5816 -2.7405
  520MOL0     H71713   9.243   7.900   8.650 -2.0937 -2.3144  2.3635
  520MOL0     H71714   9.257   8.118   8.759  1.3761  0.3976  0.1874
  520MOL0     H71715   9.151   8.001   8.838 -0.6597  2.0014  0.5085
  520MOL0     H71716   9.341   8.158   8.983  1.1314  0.2469 -0.1318
  520MOL0     H71717   9.285   8.010   9.035  1.2853  2.7938  2.0497
  520MOL0     H71718   9.454   8.244   8.797  1.5248 -0.4579 -1.9861
  520MOL0     H71719   9.690   8.522   8.784 -0.5665  1.4635 -3.0774
  520MOL0     H71720   9.529   8.472   8.780 -0.0418 -0.1472  0.1809
  520MOL0     H71721   9.638   8.417   8.639  4.5086 -4.1069  0.2892
  520MOL0     H71722   9.916   8.695   8.814  0.2150  2.8286 -1.4616
  520MOL0     H71723  10.113   8.848   8.770  2.4383 -0.2736 -0.1532
  520MOL0     H71724  10.481   8.690   8.675 -0.7984 -0.6440 -1.0869
  520MOL0     H71725  10.454   8.720   8.493  1.6663 -2.6361  0.4583
  520MOL0     H71726  10.517   8.945   8.674 -0.4956 -1.9877  0.7315
  520MOL0     H71727  10.648   8.843   8.595  0.4060 -1.2566  2.2650
  520MOL0     H71728  10.419   9.000   8.463 -0.2877 -0.3639  1.6440
  520MOL0     H71729  10.559   8.928   8.375  1.5692 -1.3816  1.0201
  520MOL0     H71730  10.708   9.080   8.511 -0.2135  0.1224  2.4780
  520MOL0     H71731  10.555   9.150   8.575 -4.4265 -2.0327 -0.9461
  520MOL0     H71732  10.663   9.153   8.290  1.9830  3.0553 -0.7223
  520MOL0     H71733  10.490   9.178   8.334 -0.5244  1.0303  0.4811
  520MOL0     H71734  10.719   9.341   8.465 -0.9376  0.2187  1.7132
  520MOL0     H71735  10.553   9.394   8.463 -0.3231  0.0652 -1.2664
  520MOL0     H71736  10.551   9.379   8.218  0.7376  0.0828 -1.6789
  520MOL0     H71737  10.729   9.360   8.226  1.2411  0.9690  2.0852
  520MOL0     H71738  10.709   9.591   8.206  2.6508 -1.2491  0.1763
  520MOL0     H71739  10.718   9.567   8.382  1.0744  1.5735 -0.3525
  520MOL0     H71740  10.315   8.559   8.540  0.3549  2.1441 -1.9237
  520MOL0     H71741  10.126   8.406   8.557  0.5762  0.1507  0.6266
  520MOL0     H71742   9.921   8.103   8.894  0.7444  2.0176 -1.6617
  520MOL0     H71743   9.724   7.958   8.975  0.7721 -0.5131 -1.4238
  520MOL0     H71744  10.161   7.794   8.173 -1.3134 -1.1485 -0.1348
  520MOL0     H71745  10.357   7.844   8.313  1.2854 -1.4950  0.9380
  520MOL0     H71746  10.697   7.719   8.496 -1.2765  0.4056  1.6745
  520MOL0     H71747  10.867   7.772   8.675  2.5041  1.7041  0.2724
  520MOL0     H71748  11.090   7.862   8.719  1.4143 -1.6764  2.6272
  520MOL0     H71749  11.138   8.020   8.664  0.0750 -1.5886 -1.2650
  520MOL0     H71750  11.247   7.962   8.886 -0.1190  0.8282 -2.5002
  520MOL0     H71751  11.088   7.970   8.958  0.9249 -0.2690  1.5312
  520MOL0     H71752  11.228   8.201   8.801  0.0609 -0.5020  0.8509
  520MOL0     H71753  11.074   8.209   8.893  1.9874  2.8830  1.2806
  520MOL0     H71754  11.212   8.155   9.108 -2.0257 -0.1875 -0.1272
  520MOL0     H71755  11.243   8.314   9.022 -3.1751 -0.0170 -0.8444
  520MOL0     H71756  11.601   8.088   9.023 -1.1768 -3.3417  0.9493
  520MOL0     H71757  10.833   8.181   8.571  0.7317  0.0590  0.2634
  520MOL0     H71758  10.813   8.242   8.345  0.8651 -0.0134 -2.7051
  520MOL0     H71759  10.805   8.130   8.213 -0.0865  1.3821 -0.5226
  520MOL0     H71760  10.650   8.184   8.285 -1.1046 -0.2562 -1.1663
  521MOL0     O71761   4.176  10.911   9.533 -0.1800 -0.9978 -0.3535
  521MOL0     C71762   4.241  11.015   9.564  0.3517 -0.5383 -0.6463
  521MOL0     O71763   4.378  11.033   9.560  0.3899 -0.0151  0.2192
  521MOL0     C71764   4.444  10.911   9.542  0.2683  0.2613 -0.8642
  521MOL0     C71765   4.509  10.890   9.421  0.8119  0.6992 -0.2993
  521MOL0     C71766   4.581  10.771   9.411 -0.0932 -0.4890 -0.1252
  521MOL0     C71767   4.595  10.669   9.507 -0.7534 -0.5990 -0.6788
  521MOL0     O71768   4.660  10.555   9.485 -0.5025  0.4392  0.2958
  521MOL0     C71769   4.687  10.464   9.594  0.3181  0.1179 -0.1400
  521MOL0     C71770   4.803  10.512   9.682  0.3727 -0.4469  0.1261
  521MOL0     C71771   4.841  10.408   9.789 -0.1593  0.3065  0.1185
  521MOL0     C71772   4.969  10.436   9.872 -0.3038  0.6862  0.9756
  521MOL0     C71773   5.098  10.397   9.801 -1.2037  0.7023 -0.0376
  521MOL0     C71774   5.213  10.358   9.898 -0.1070  0.0136  1.0635
  521MOL0     C71775   5.323  10.305   9.804 -0.6746 -0.4147 -0.1557
  521MOL0     C71776   5.425  10.415   9.790 -0.1278 -0.0397  0.6791
  521MOL0     N71777   5.517  10.354   9.696 -0.3612 -0.1689  0.5203
  521MOL0     C71778   5.618  10.267   9.732  0.2919  0.5157 -0.4213
  521MOL0     C71779   5.673  10.228   9.610 -0.7161 -1.2008 -0.0398
  521MOL0     C71780   5.774  10.114   9.582  1.0413 -0.8921 -0.1765
  521MOL0     C71781   5.874  10.149   9.463  0.5345  0.0287  0.2568
  521MOL0     C71782   5.984  10.034   9.449  0.2845  0.5346  0.6263
  521MOL0     C71783   5.939   9.911   9.371 -0.2452 -1.0837  0.1474
  521MOL0     O71784   5.997   9.793   9.423 -0.5607  0.0574 -0.0240
  521MOL0     C71785   6.116   9.748   9.370 -1.3622 -0.0424 -0.2199
  521MOL0     C71786   6.173   9.631   9.428  0.0337 -0.0640  0.0282
  521MOL0     C71787   6.288   9.576   9.385 -0.1916 -0.0002 -0.7568
  521MOL0     C71788   6.322   9.443   9.439 -0.2767  0.0639  0.1353
  521MOL0     C71789   6.373   9.651   9.295 -0.3385 -0.6420  0.2021
  521MOL0     C71790   6.509   9.616   9.269 -1.0341  0.5913  0.6453
  521MOL0     O71791   6.597   9.594   9.371  0.0001 -0.8999 -0.3561
  521MOL0     C71792   6.722   9.542   9.361 -0.8497 -0.5066  0.7029
  521MOL0     C71793   6.757   9.409   9.403  1.3609  0.8375 -0.8184
  521MOL0     C71794   6.888   9.359   9.371 -0.3141 -0.1712  0.0608
  521MOL0     C71795   6.980   9.433   9.298  0.4195  0.4810 -1.5076
  521MOL0     O71796   7.094   9.358   9.268  0.2711  0.7000  0.0578
  521MOL0     C71797   7.192   9.353   9.371 -0.7862  0.4977 -0.7602
  521MOL0     C71798   7.288   9.236   9.361 -1.1114 -1.0821  0.0290
  521MOL0     C71799   7.413   9.250   9.453 -0.2550  0.0746  0.5336
  521MOL0     C71800   7.388   9.323   9.587 -0.4213 -0.0976  1.1563
  521MOL0     C71801   7.499   9.318   9.682  0.5004  0.0149 -0.8021
  521MOL0     C71802   7.455   9.349   9.828  0.1037 -0.4426  0.4408
  521MOL0     C71803   7.377   9.246   9.906 -0.4347 -0.1203 -1.0618
  521MOL0     C71804   7.373   9.093   9.876 -0.1975  0.3053  0.0502
  521MOL0    Cl71805   7.529   9.024   9.907  0.3851 -0.2148 -0.0236
  521MOL0     C71806   6.945   9.559   9.252 -0.1494  0.1557  0.1174
  521MOL0     C71807   6.819   9.615   9.280 -0.0930 -0.6922 -0.6056
  521MOL0     O71808   6.542   9.610   9.142 -0.3514 -0.5384  0.4901
  521MOL0     C71809   6.321   9.762   9.234 -0.3704 -0.1358 -0.5494
  521MOL0     C71810   6.198   9.817   9.275 -0.5779 -0.8375 -0.4413
  521MOL0     N71811   5.597  10.295   9.509 -0.0859 -0.0277  1.4381
  521MOL0     N71812   5.508  10.369   9.553 -0.0976  0.1878 -0.4964
  521MOL0     C71813   4.524  10.692   9.632 -0.5945  0.0356  0.8101
  521MOL0     C71814   4.447  10.810   9.642  1.0131  0.3210 -0.8450
  521MOL0     C71815   4.180  11.146   9.595 -0.4613  0.5388  0.5562
  521MOL0     C71816   4.253  11.255   9.542  0.2534 -0.7591  0.1803
  521MOL0     C71817   4.210  11.389   9.560  0.3550 -0.3506 -0.0778
  521MOL0     C71818   4.088  11.401   9.626  0.0541 -0.2700 -0.2456
  521MOL0     O71819   4.030  11.532   9.645 -0.3621  0.2837  1.1726
  521MOL0     C71820   3.901  11.548   9.685  0.9076  0.2450  0.0584
  521MOL0     C71821   3.866  11.689   9.727 -0.7537 -1.0238  0.2089
  521MOL0     C71822   3.889  11.791   9.618 -0.6265 -0.2777  0.1335
  521MOL0     C71823   3.838  11.923   9.675 -0.3781 -0.1126  0.2008
  521MOL0     C71824   3.696  11.930   9.665  0.4831 -0.7813  0.1539
  521MOL0     C71825   3.575  11.952   9.658  0.5208  0.4754 -0.5701
  521MOL0     C71826   4.030  11.290   9.686  0.2497 -0.4399  0.3183
  521MOL0     C71827   4.069  11.160   9.670  0.3354 -0.5918 -0.3293
  521MOL0     C71828   3.990  11.058   9.748 -0.0240  0.1601  0.8301
  521MOL0     H71829   4.486  10.969   9.350  0.5656  0.5215 -0.4173
  521MOL0     H71830   4.614  10.753   9.308 -2.2987  3.7656 -1.7960
  521MOL0     H71831   4.708  10.362   9.559 -0.1230 -1.5351  3.8651
  521MOL0     H71832   4.593  10.445   9.646 -0.6027  0.3454 -1.6355
  521MOL0     H71833   4.888  10.510   9.613 -1.0762 -1.9240 -1.7297
  521MOL0     H71834   4.788  10.611   9.726 -2.0189 -0.0762 -1.3400
  521MOL0     H71835   4.759  10.404   9.862 -0.9922 -1.6419 -0.8625
  521MOL0     H71836   4.847  10.305   9.753 -0.6689 -0.0985  1.1155
  521MOL0     H71837   4.976  10.537   9.913 -1.8320  0.3014  2.2940
  521MOL0     H71838   4.965  10.371   9.960  3.5082 -2.6059 -0.9373
  521MOL0     H71839   5.126  10.475   9.730 -2.2038  0.0988 -1.1480
  521MOL0     H71840   5.082  10.305   9.744  0.2435 -0.5908  1.5524
  521MOL0     H71841   5.254  10.439   9.959  4.6476 -0.2854 -1.2210
  521MOL0     H71842   5.183  10.273   9.959 -0.3189  0.3004  1.3574
  521MOL0     H71843   5.278  10.284   9.707 -0.5720  0.0932 -0.3154
  521MOL0     H71844   5.367  10.214   9.846  2.4299  1.1053  0.1253
  521MOL0     H71845   5.383  10.510   9.756 -0.6853 -0.5950 -0.2082
  521MOL0     H71846   5.469  10.428   9.890  0.0109  3.4107  0.3012
  521MOL0     H71847   5.641  10.233   9.833 -0.0151 -3.0296 -1.4330
  521MOL0     H71848   5.712  10.029   9.552  1.0409 -0.9008 -0.1503
  521MOL0     H71849   5.821  10.083   9.676 -2.2761 -1.1572  1.5583
  521MOL0     H71850   5.816  10.161   9.371 -0.4026 -1.3405  0.6215
  521MOL0     H71851   5.928  10.243   9.477 -2.0058  1.2969  2.5502
  521MOL0     H71852   6.072  10.080   9.404 -1.1313  0.1049 -2.8859
  521MOL0     H71853   6.011   9.989   9.545  1.4145 -1.4859 -0.5835
  521MOL0     H71854   5.831   9.897   9.371 -0.1590 -1.7726  0.2013
  521MOL0     H71855   5.960   9.908   9.263  0.2308 -2.9316  0.2697
  521MOL0     H71856   6.126   9.578   9.509  2.4067 -0.7664  1.0277
  521MOL0     H71857   6.412   9.402   9.393  0.1980  0.9167  0.2892
  521MOL0     H71858   6.245   9.368   9.421  1.8802 -2.5022  0.9613
  521MOL0     H71859   6.337   9.450   9.547  1.1638  0.7027 -0.0856
  521MOL0     H71860   6.686   9.346   9.456  1.5853  1.5259  0.3383
  521MOL0     H71861   6.907   9.255   9.398  1.3846  0.3212  0.9092
  521MOL0     H71862   7.252   9.445   9.368 -0.1055  0.3415  3.0268
  521MOL0     H71863   7.142   9.337   9.467 -0.1349 -0.2716 -0.5394
  521MOL0     H71864   7.236   9.141   9.372 -0.6559 -1.5683 -1.7916
  521MOL0     H71865   7.312   9.226   9.255  0.0228  1.9921 -0.1129
  521MOL0     H71866   7.494   9.310   9.412 -0.2167  1.5351  2.5645
  521MOL0     H71867   7.455   9.149   9.461 -0.1048 -0.3204 -3.3709
  521MOL0     H71868   7.296   9.279   9.628 -1.0717 -0.2976 -0.4493
  521MOL0     H71869   7.378   9.431   9.569 -0.3051 -0.4457 -1.2401
  521MOL0     H71870   7.549   9.221   9.690  0.0752 -0.1148  0.4503
  521MOL0     H71871   7.574   9.392   9.651 -0.5235  0.0729 -3.3999
  521MOL0     H71872   7.400   9.443   9.822 -0.2030 -0.5197  1.6638
  521MOL0     H71873   7.537   9.395   9.885  1.0951 -0.3602 -0.9973
  521MOL0     H71874   7.274   9.283   9.899 -0.7848 -0.6788  0.6299
  521MOL0     H71875   7.399   9.262  10.012 -2.5494  0.9301 -0.7323
  521MOL0     H71876   7.336   9.068   9.776  0.0207  0.4964 -0.0774
  521MOL0     H71877   7.303   9.040   9.941  1.3442 -0.5842  1.0324
  521MOL0     H71878   7.023   9.610   9.197  2.2515 -1.0559  2.1977
  521MOL0     H71879   6.796   9.713   9.241  1.5155  0.8489  2.0434
  521MOL0     H71880   6.389   9.817   9.170 -1.6787 -2.2212 -3.9616
  521MOL0     H71881   6.176   9.914   9.232 -0.8664 -0.0414  1.3898
  521MOL0     H71882   4.537  10.621   9.713 -1.0016 -0.9686  0.0209
  521MOL0     H71883   4.401  10.831   9.738  0.3344  0.5313 -1.2165
  521MOL0     H71884   4.334  11.246   9.470 -1.1297  0.7067 -1.6587
  521MOL0     H71885   4.253  11.477   9.513 -2.1171  1.5318  0.9442
  521MOL0     H71886   3.826  11.528   9.607  1.0914 -1.2149  0.2311
  521MOL0     H71887   3.875  11.485   9.770  0.9681 -0.1752 -0.2341
  521MOL0     H71888   3.942  11.712   9.803 -0.5317  2.4136 -0.8660
  521MOL0     H71889   3.764  11.689   9.767 -0.6123 -3.4336  0.6969
  521MOL0     H71890   3.995  11.817   9.606 -0.7783  1.1226  1.5399
  521MOL0     H71891   3.838  11.764   9.525 -0.2177  0.1665 -0.2235
  521MOL0     H71892   3.876  12.009   9.619  2.0713 -0.3896  1.3146
  521MOL0     H71893   3.855  11.945   9.781 -2.2871  0.3339  0.4588
  521MOL0     H71894   3.470  11.974   9.665  0.3967  0.1976 -1.4423
  521MOL0     H71895   3.943  11.313   9.748  0.3218 -1.5913  0.8861
  521MOL0     H71896   3.899  11.036   9.691  1.2276  1.3373 -1.8402
  521MOL0     H71897   4.041  10.962   9.754  1.9014  1.1187  0.5442
  521MOL0     H71898   3.966  11.091   9.849 -2.9787  2.2309 -0.3814
  522MOL0     O71899   2.158   7.059   4.710  0.5890 -0.0049 -0.0189
  522MOL0     C71900   2.141   7.032   4.827 -0.3377 -0.2733  0.5581
  522MOL0     O71901   2.034   6.953   4.878  0.3935  0.0739  1.4000
  522MOL0     C71902   1.935   6.919   4.785  0.4463 -0.5674  0.3794
  522MOL0     C71903   1.810   6.971   4.807 -0.3287 -0.5849  0.3671
  522MOL0     C71904   1.710   6.933   4.709  0.1729  0.3299 -0.3174
  522MOL0     C71905   1.733   6.842   4.609  0.1317 -0.3875 -0.2536
  522MOL0     O71906   1.625   6.807   4.528  0.2097  0.3932 -0.1919
  522MOL0     C71907   1.652   6.789   4.387  0.5931  0.0048 -0.9002
  522MOL0     C71908   1.515   6.738   4.338 -0.3939 -0.4029 -1.0163
  522MOL0     C71909   1.517   6.745   4.182  0.2775  0.3210 -0.5188
  522MOL0     C71910   1.377   6.728   4.128  0.5221  0.1032  0.2311
  522MOL0     C71911   1.369   6.729   3.977  0.2895 -0.3501 -1.0233
  522MOL0     C71912   1.395   6.585   3.915  0.0245 -0.0777  0.1922
  522MOL0     C71913   1.287   6.475   3.955 -1.2434 -0.1126 -0.6299
  522MOL0     C71914   1.139   6.499   3.947 -1.3480 -1.2629 -0.0365
  522MOL0     N71915   1.065   6.377   3.957 -0.1908 -0.3732 -0.3221
  522MOL0     C71916   1.042   6.304   4.071 -0.1558  0.7150 -0.3053
  522MOL0     C71917   0.964   6.197   4.024 -0.0594  0.6989 -0.5405
  522MOL0     C71918   0.912   6.093   4.124  0.3932  0.3657 -0.6787
  522MOL0     C71919   0.769   6.130   4.173 -0.1937  1.0341 -0.2621
  522MOL0     C71920   0.671   6.129   4.058  0.5667 -0.9428  0.0698
  522MOL0     C71921   0.684   5.999   3.969 -0.4568 -0.2919 -1.3419
  522MOL0     O71922   0.575   5.981   3.877 -0.1308 -0.0043 -0.1903
  522MOL0     C71923   0.498   5.867   3.896 -0.3931  1.1422 -0.6076
  522MOL0     C71924   0.545   5.743   3.867  0.1094  0.5297 -0.2229
  522MOL0     C71925   0.469   5.629   3.864  0.5378 -1.5366 -0.5954
  522MOL0     C71926   0.543   5.510   3.799 -0.0423 -0.9412 -0.1942
  522MOL0     C71927   0.332   5.640   3.908 -0.3477  0.0411 -1.1096
  522MOL0     C71928   0.237   5.524   3.911  0.3089  0.4429 -0.2573
  522MOL0     O71929   0.104   5.558   3.911  0.7254 -0.1851  0.1247
  522MOL0     C71930   0.032   5.456   3.861  0.3354  0.4238 -1.0567
  522MOL0     C71931  -0.000   5.431   3.724 -0.1808  0.6124 -0.1280
  522MOL0     C71932  -0.087   5.328   3.679  0.1314 -0.0538 -0.3692
  522MOL0     C71933  -0.146   5.244   3.775 -0.3124 -0.8879  0.1788
  522MOL0     O71934  -0.208   5.132   3.733 -0.4598  0.3552 -0.1194
  522MOL0     C71935  -0.268   5.042   3.828 -0.6143  0.0509  0.6710
  522MOL0     C71936  -0.342   4.919   3.768 -0.5679 -1.2668  0.3422
  522MOL0     C71937  -0.444   4.857   3.868 -0.0392  1.0083  0.2548
  522MOL0     C71938  -0.471   4.708   3.851  1.1212  0.3376  0.1080
  522MOL0     C71939  -0.602   4.652   3.931  0.1841 -0.8957 -0.2867
  522MOL0     C71940  -0.570   4.574   4.065 -0.4802 -1.3278 -0.4708
  522MOL0     C71941  -0.479   4.442   4.049  0.4046 -0.6183 -0.3442
  522MOL0     C71942  -0.477   4.358   4.195  0.4977 -0.7070  0.6639
  522MOL0    Cl71943  -0.370   4.216   4.198 -0.0158  0.3076  0.2295
  522MOL0     C71944  -0.100   5.265   3.910  1.0902  0.9599  1.1548
  522MOL0     C71945  -0.013   5.370   3.958  0.4233 -0.9519 -0.4625
  522MOL0     O71946   0.284   5.410   3.927  0.4879  0.0519  0.5292
  522MOL0     C71947   0.283   5.774   3.948 -0.0381 -0.1150  0.3558
  522MOL0     C71948   0.373   5.885   3.942 -0.0811  0.4617  0.3085
  522MOL0     N71949   0.951   6.207   3.888 -0.1689  0.8888  0.3603
  522MOL0     N71950   1.010   6.316   3.850 -0.9535 -0.4708 -0.1943
  522MOL0     C71951   1.861   6.797   4.596 -0.3218 -0.1079  0.4099
  522MOL0     C71952   1.963   6.834   4.683 -0.1628  0.3654  0.3926
  522MOL0     C71953   2.250   7.070   4.922  1.0431  0.1138  0.5517
  522MOL0     C71954   2.211   7.106   5.050  0.4954 -0.0680  0.0924
  522MOL0     C71955   2.311   7.132   5.144  0.0222 -0.8428 -0.0531
  522MOL0     C71956   2.450   7.140   5.112 -0.0938  0.1682 -0.2478
  522MOL0     O71957   2.559   7.166   5.195  0.6611  0.0284 -0.8104
  522MOL0     C71958   2.539   7.199   5.338 -0.8751  0.5501 -0.5640
  522MOL0     C71959   2.657   7.248   5.428  0.1544  0.6352 -0.1817
  522MOL0     C71960   2.713   7.373   5.365 -0.2062 -0.3104 -0.3489
  522MOL0     C71961   2.824   7.434   5.456  0.6479 -0.3638 -0.1581
  522MOL0     C71962   2.890   7.547   5.390  0.7950  0.2863 -0.1266
  522MOL0     C71963   2.937   7.626   5.314 -0.1808 -0.6343  0.1554
  522MOL0     C71964   2.478   7.107   4.982 -0.4102 -0.8181  0.0158
  522MOL0     C71965   2.387   7.073   4.889  1.4256  0.0991 -0.2705
  522MOL0     C71966   2.430   7.023   4.752 -0.3723  0.2514 -0.3709
  522MOL0     H71967   1.791   7.048   4.881 -2.6274  0.3765 -1.1112
  522MOL0     H71968   1.612   6.973   4.733  1.0442  2.3828  0.0305
  522MOL0     H71969   1.731   6.716   4.366  1.3221  0.5251 -0.0679
  522MOL0     H71970   1.679   6.885   4.342 -4.5231  0.9747 -2.4930
  522MOL0     H71971   1.504   6.639   4.384  1.3747  0.3539  1.2799
  522MOL0     H71972   1.449   6.814   4.382  2.1503  0.3707  1.8132
  522MOL0     H71973   1.554   6.843   4.149  1.7531 -0.4515 -1.2316
  522MOL0     H71974   1.592   6.680   4.137 -0.4847 -0.5114 -0.6123
  522MOL0     H71975   1.325   6.642   4.171  1.0892  0.0907  0.9029
  522MOL0     H71976   1.316   6.818   4.138 -0.3723 -0.0917 -2.5363
  522MOL0     H71977   1.436   6.800   3.927  0.0971  1.0826  0.6474
  522MOL0     H71978   1.266   6.761   3.961  1.0899  2.2882 -1.4398
  522MOL0     H71979   1.389   6.593   3.806  3.4910 -0.7920 -0.1827
  522MOL0     H71980   1.499   6.554   3.930  1.2686  3.9471  0.9526
  522MOL0     H71981   1.303   6.441   4.057 -2.1028  3.1781  0.7065
  522MOL0     H71982   1.316   6.390   3.892 -2.6360 -2.0866  1.2722
  522MOL0     H71983   1.118   6.561   4.035  2.5024  4.1020 -2.3522
  522MOL0     H71984   1.118   6.554   3.854  0.0748  0.6568  0.7119
  522MOL0     H71985   1.066   6.311   4.177  1.3436 -0.7533 -0.5059
  522MOL0     H71986   0.959   6.085   4.222 -1.7726 -2.2924  0.2595
  522MOL0     H71987   0.928   5.995   4.079  0.4388  0.3359 -0.5975
  522MOL0     H71988   0.744   6.051   4.245  0.0473  2.1381  1.0937
  522MOL0     H71989   0.772   6.232   4.211  1.2541  0.2263  1.9930
  522MOL0     H71990   0.566   6.139   4.088 -0.1241 -3.6957 -1.0764
  522MOL0     H71991   0.694   6.215   3.995 -0.6031 -0.2748  0.5120
  522MOL0     H71992   0.775   5.998   3.910  2.0171 -3.5650  2.1053
  522MOL0     H71993   0.693   5.925   4.049 -1.9700  1.5342  0.6439
  522MOL0     H71994   0.648   5.738   3.836  0.3729 -3.2482  0.7778
  522MOL0     H71995   0.477   5.435   3.753 -1.4783  0.3622 -0.3348
  522MOL0     H71996   0.610   5.462   3.872 -0.1295  0.3383  0.7682
  522MOL0     H71997   0.586   5.539   3.703 -2.9495  0.7051 -1.1229
  522MOL0     H71998   0.037   5.499   3.648  0.6197  1.0911  0.6727
  522MOL0     H71999  -0.100   5.318   3.572 -2.0789 -0.2572 -0.1350
  522MOL0     H72000  -0.189   4.989   3.882 -1.3662 -2.7739 -0.8202
  522MOL0     H72001  -0.331   5.104   3.894 -1.5249 -0.1856  0.0465
  522MOL0     H72002  -0.390   4.971   3.685 -0.3359  1.1207  1.6252
  522MOL0     H72003  -0.269   4.847   3.730  0.1636  0.1616 -1.0712
  522MOL0     H72004  -0.541   4.902   3.844 -2.4300 -0.9113  5.0132
  522MOL0     H72005  -0.429   4.877   3.975  0.3672  5.8923 -0.4853
  522MOL0     H72006  -0.386   4.642   3.868  0.8450  0.1317  0.7002
  522MOL0     H72007  -0.508   4.693   3.749 -0.3988  1.4449  0.4688
  522MOL0     H72008  -0.670   4.735   3.952  2.5100  0.9813  0.2959
  522MOL0     H72009  -0.664   4.583   3.874  0.8840  0.5157 -2.9221
  522MOL0     H72010  -0.661   4.570   4.125 -0.3189  3.1410  0.4457
  522MOL0     H72011  -0.507   4.648   4.116 -0.6421 -2.2597  1.1407
  522MOL0     H72012  -0.380   4.481   4.022 -0.0978  0.6852 -0.3808
  522MOL0     H72013  -0.518   4.380   3.968 -2.0174  1.5437 -0.9636
  522MOL0     H72014  -0.574   4.340   4.242  0.9270  2.4015  3.0938
  522MOL0     H72015  -0.444   4.437   4.264  0.2833  0.8124 -0.9075
  522MOL0     H72016  -0.141   5.203   3.989 -3.5640  0.6145 -1.1468
  522MOL0     H72017   0.004   5.398   4.062  3.0015  1.4792 -1.4274
  522MOL0     H72018   0.180   5.789   3.980  0.3038  0.5680  1.1701
  522MOL0     H72019   0.336   5.982   3.974  1.0121  1.4108 -1.1875
  522MOL0     H72020   1.880   6.721   4.520  2.0370  1.2389 -0.4775
  522MOL0     H72021   2.066   6.803   4.669 -0.3556 -0.1566  0.0796
  522MOL0     H72022   2.108   7.108   5.085  1.0499 -4.7027  2.7976
  522MOL0     H72023   2.265   7.145   5.242 -1.7426 -0.2135 -0.9246
  522MOL0     H72024   2.465   7.280   5.336 -0.4976  0.9007 -0.5510
  522MOL0     H72025   2.485   7.121   5.392  1.1247 -0.6856 -0.2645
  522MOL0     H72026   2.734   7.172   5.416 -1.5871 -0.7997 -3.4360
  522MOL0     H72027   2.621   7.267   5.530 -0.2830 -0.8148 -0.0471
  522MOL0     H72028   2.767   7.349   5.273 -1.2140  2.6703 -1.8279
  522MOL0     H72029   2.639   7.451   5.344  0.0555  0.9823  2.9360
  522MOL0     H72030   2.894   7.351   5.473  0.0151 -1.1131 -1.0750
  522MOL0     H72031   2.788   7.477   5.550 -1.3827 -0.1753 -0.9577
  522MOL0     H72032   2.972   7.707   5.253 -2.4338 -1.2215 -2.0748
  522MOL0     H72033   2.580   7.101   4.947 -0.6789  0.1688 -0.9779
  522MOL0     H72034   2.398   7.086   4.669 -2.1053 -0.6878 -0.4718
  522MOL0     H72035   2.537   7.012   4.736  0.6482  1.8527  3.9280
  522MOL0     H72036   2.377   6.928   4.743  0.0781 -0.1550  0.9806
  523MOL0     O72037   7.426   0.686   6.058  0.0553 -0.0612 -0.2965
  523MOL0     C72038   7.394   0.778   6.134 -0.2140  0.5080  0.4428
  523MOL0     O72039   7.281   0.796   6.202  0.1280 -0.3420  0.1377
  523MOL0     C72040   7.180   0.726   6.146  0.0812 -0.1752  1.2114
  523MOL0     C72041   7.160   0.583   6.136 -0.8666  0.2092  0.2565
  523MOL0     C72042   7.062   0.535   6.056 -0.5899 -0.8225  0.1788
  523MOL0     C72043   6.981   0.618   5.974 -1.1148  0.8582  0.3966
  523MOL0     O72044   6.877   0.560   5.904 -0.2994  0.2020  0.1150
  523MOL0     C72045   6.811   0.643   5.804  0.0807  0.7547  0.4580
  523MOL0     C72046   6.712   0.563   5.718  0.3926  0.0588  0.2612
  523MOL0     C72047   6.769   0.433   5.661  0.0493  0.2376 -0.4277
  523MOL0     C72048   6.744   0.317   5.753 -0.5596 -0.4606 -0.6969
  523MOL0     C72049   6.821   0.194   5.715  0.6293 -0.1174 -0.1953
  523MOL0     C72050   6.733   0.110   5.606  0.7292  0.1795  0.6208
  523MOL0     C72051   6.795  -0.011   5.543 -0.1283 -0.9999 -0.3843
  523MOL0     C72052   6.708  -0.136   5.529 -0.0655  0.3365 -0.4835
  523MOL0     N72053   6.780  -0.260   5.494  0.2259  0.1828 -0.3437
  523MOL0     C72054   6.889  -0.254   5.414  0.8129  0.0457  0.3562
  523MOL0     C72055   6.926  -0.386   5.395  0.1106  0.3535 -0.3914
  523MOL0     C72056   7.033  -0.464   5.319  0.2626 -0.4611  0.4158
  523MOL0     C72057   7.038  -0.411   5.169  0.3353  0.4414 -1.0213
  523MOL0     C72058   7.128  -0.510   5.095  0.4011  0.9346  1.0052
  523MOL0     C72059   7.137  -0.459   4.953 -0.1587 -0.2190 -0.4574
  523MOL0     O72060   7.205  -0.335   4.968 -0.0670 -0.6608 -0.4230
  523MOL0     C72061   7.219  -0.268   4.844 -0.2641 -0.1229  0.0386
  523MOL0     C72062   7.255  -0.137   4.832  0.5841  0.3366 -0.8766
  523MOL0     C72063   7.283  -0.061   4.714  0.2703  1.1602 -0.3538
  523MOL0     C72064   7.316   0.079   4.740  0.0089  0.4514  0.3833
  523MOL0     C72065   7.263  -0.127   4.591 -0.0450  0.0945 -0.1014
  523MOL0     C72066   7.291  -0.060   4.464 -0.3333  0.3206 -0.8842
  523MOL0     O72067   7.331  -0.147   4.359  0.2029 -0.1491  0.5918
  523MOL0     C72068   7.296  -0.121   4.227  0.7560  0.2651  0.2805
  523MOL0     C72069   7.381  -0.163   4.123 -0.3128 -0.3448  1.3295
  523MOL0     C72070   7.357  -0.132   3.990 -0.1009 -0.0635 -0.3829
  523MOL0     C72071   7.247  -0.058   3.952  0.4106  0.7127  0.5950
  523MOL0     O72072   7.220  -0.010   3.823  0.3280  0.2243  0.2556
  523MOL0     C72073   7.327  -0.007   3.721 -0.0270  0.1341 -0.3536
  523MOL0     C72074   7.362   0.141   3.704 -0.7555  0.0644 -0.2442
  523MOL0     C72075   7.266   0.213   3.616  0.0974 -0.4050  0.0186
  523MOL0     C72076   7.310   0.347   3.572 -0.8596 -0.1748 -0.4496
  523MOL0     C72077   7.337   0.440   3.687  0.0643  0.1367 -0.3461
  523MOL0     C72078   7.359   0.581   3.622  0.5915  0.7007 -0.0138
  523MOL0     C72079   7.454   0.674   3.708 -0.0037  0.8746 -0.5870
  523MOL0     C72080   7.418   0.818   3.689  0.0092  0.0455  0.4611
  523MOL0    Cl72081   7.260   0.862   3.764  0.1423  0.0929 -0.2032
  523MOL0     C72082   7.152  -0.022   4.055 -0.3093 -1.1383 -0.2997
  523MOL0     C72083   7.179  -0.045   4.185  0.0942  0.5638 -0.4163
  523MOL0     O72084   7.246   0.058   4.455  0.8866 -0.5350 -0.9386
  523MOL0     C72085   7.229  -0.264   4.591  0.4475  0.6036 -0.6074
  523MOL0     C72086   7.205  -0.332   4.711 -0.3242  0.1033 -1.1581
  523MOL0     N72087   6.834  -0.469   5.461  0.2616 -0.0997  0.6524
  523MOL0     N72088   6.745  -0.392   5.514 -0.0006 -0.4601 -0.3303
  523MOL0     C72089   6.994   0.756   5.989  0.4149 -0.3623  0.7405
  523MOL0     C72090   7.100   0.811   6.072  1.1082 -0.8668 -0.2672
  523MOL0     C72091   7.506   0.883   6.155  0.4699  0.2540  0.8127
  523MOL0     C72092   7.621   0.872   6.070 -0.3163  0.1017 -0.1728
  523MOL0     C72093   7.723   0.971   6.070 -0.0071 -0.2109 -0.9084
  523MOL0     C72094   7.714   1.083   6.161 -1.2696  0.1769  0.3203
  523MOL0     O72095   7.813   1.179   6.193  0.9099 -0.1464 -0.5596
  523MOL0     C72096   7.906   1.215   6.091  0.4620  0.6098 -0.3459
  523MOL0     C72097   7.927   1.365   6.114 -0.5137 -1.1453  0.5167
  523MOL0     C72098   8.038   1.431   6.023  0.0818 -0.6011  0.1169
  523MOL0     C72099   8.017   1.585   6.005  0.1205  0.3176  0.8714
  523MOL0     C72100   8.067   1.661   6.117 -1.1290 -0.5687 -1.1133
  523MOL0     C72101   8.101   1.726   6.208 -0.1741  0.4913 -0.8934
  523MOL0     C72102   7.610   1.085   6.249  0.2471  0.2086 -0.5359
  523MOL0     C72103   7.505   0.992   6.244  0.0430  0.5095  0.7438
  523MOL0     C72104   7.393   1.034   6.335  1.1513 -0.3230 -0.2663
  523MOL0     H72105   7.224   0.516   6.193 -0.7499 -0.8061 -1.0371
  523MOL0     H72106   7.054   0.428   6.039 -3.3146 -0.5180 -1.0641
  523MOL0     H72107   6.883   0.696   5.741 -1.2711  0.9054 -1.0164
  523MOL0     H72108   6.758   0.730   5.846 -1.2200  1.5224 -2.5393
  523MOL0     H72109   6.621   0.552   5.777  0.8979 -0.5104  0.9550
  523MOL0     H72110   6.686   0.623   5.630 -3.5324 -1.5120  0.1635
  523MOL0     H72111   6.724   0.407   5.564 -1.3657  0.7547  0.0776
  523MOL0     H72112   6.876   0.454   5.648 -0.0822  0.4111 -1.2771
  523MOL0     H72113   6.776   0.343   5.854 -1.9593 -0.9780 -0.0890
  523MOL0     H72114   6.641   0.279   5.757 -0.7817  0.1686  2.4513
  523MOL0     H72115   6.830   0.127   5.801  0.0435 -0.9903 -0.7955
  523MOL0     H72116   6.915   0.214   5.663 -0.5376 -1.8006 -3.1869
  523MOL0     H72117   6.641   0.078   5.655 -2.3527  1.5985 -3.5501
  523MOL0     H72118   6.703   0.179   5.526  0.1085 -2.6763 -1.7900
  523MOL0     H72119   6.871  -0.041   5.615 -0.5741 -2.1786 -0.3877
  523MOL0     H72120   6.841   0.023   5.450  0.5818 -1.0215 -0.0482
  523MOL0     H72121   6.647  -0.149   5.619  2.4675 -1.5418  1.1091
  523MOL0     H72122   6.642  -0.123   5.442 -1.2434  0.1471  0.3597
  523MOL0     H72123   6.936  -0.168   5.367 -1.6651  2.4269  1.9054
  523MOL0     H72124   7.019  -0.572   5.318  0.3223 -0.4904  1.6856
  523MOL0     H72125   7.134  -0.439   5.355  0.2415 -1.1029  0.9331
  523MOL0     H72126   6.937  -0.421   5.128 -0.7269  0.3030  1.4206
  523MOL0     H72127   7.055  -0.303   5.168 -1.9536  0.8776 -0.1521
  523MOL0     H72128   7.226  -0.520   5.142  1.0163  1.3760 -0.1420
  523MOL0     H72129   7.080  -0.609   5.094  0.7693  0.6816 -1.8637
  523MOL0     H72130   7.189  -0.534   4.892  2.7686  0.4321  1.0704
  523MOL0     H72131   7.034  -0.441   4.921 -0.5506  0.2577  0.9844
  523MOL0     H72132   7.273  -0.086   4.926  1.0929 -1.0511 -0.1937
  523MOL0     H72133   7.238   0.139   4.692 -1.9175 -0.1915  2.5345
  523MOL0     H72134   7.416   0.090   4.697  0.2988 -5.7714 -1.3808
  523MOL0     H72135   7.322   0.102   4.847  2.6679 -1.2904  0.7132
  523MOL0     H72136   7.465  -0.231   4.139 -1.1445 -1.7473  0.0351
  523MOL0     H72137   7.432  -0.176   3.925 -0.7181  0.7772 -1.7163
  523MOL0     H72138   7.403  -0.075   3.760 -2.6617 -1.5632  2.3272
  523MOL0     H72139   7.288  -0.057   3.632 -0.3377 -0.0082 -0.1406
  523MOL0     H72140   7.355   0.173   3.808 -0.9586 -0.8744  0.0430
  523MOL0     H72141   7.463   0.146   3.662 -0.2844 -1.0035  0.6953
  523MOL0     H72142   7.176   0.229   3.676  1.1700  1.4388  1.2670
  523MOL0     H72143   7.234   0.158   3.528 -1.9512 -0.4631  0.7330
  523MOL0     H72144   7.228   0.388   3.512 -1.1774 -0.9500 -0.5549
  523MOL0     H72145   7.395   0.341   3.504 -2.0300 -1.8245 -1.8484
  523MOL0     H72146   7.262   0.447   3.766  2.3763  0.3221  1.9897
  523MOL0     H72147   7.434   0.416   3.733 -0.3325  0.1165  0.4925
  523MOL0     H72148   7.270   0.639   3.597  1.3162  0.7328 -2.8054
  523MOL0     H72149   7.413   0.576   3.527  0.3118  0.1999 -0.1483
  523MOL0     H72150   7.555   0.649   3.675 -0.0467 -1.2526  0.6648
  523MOL0     H72151   7.433   0.656   3.814  0.7101  0.6696 -0.4738
  523MOL0     H72152   7.421   0.839   3.581  2.1150  4.9415  1.1692
  523MOL0     H72153   7.492   0.893   3.720 -1.2504  1.8685 -0.7512
  523MOL0     H72154   7.062   0.025   4.019  0.3134  1.2886  1.0715
  523MOL0     H72155   7.111   0.004   4.254  3.2024  2.2779  1.6821
  523MOL0     H72156   7.213  -0.306   4.492  0.4034 -3.2224  0.8630
  523MOL0     H72157   7.160  -0.430   4.700  1.9344 -1.2084  0.4444
  523MOL0     H72158   6.930   0.828   5.939 -2.0203 -1.7692  1.6753
  523MOL0     H72159   7.116   0.918   6.062  1.0157 -0.4586  2.8506
  523MOL0     H72160   7.632   0.787   6.004 -2.6125  0.9645 -1.7997
  523MOL0     H72161   7.794   0.977   5.989  2.7577  0.5201  1.3883
  523MOL0     H72162   8.003   1.169   6.110  0.4385  0.8696  0.4210
  523MOL0     H72163   7.873   1.187   5.990 -0.3364 -0.8656  0.2900
  523MOL0     H72164   7.952   1.380   6.219  5.8146 -4.4945 -0.0581
  523MOL0     H72165   7.832   1.413   6.088 -0.0339 -0.5737 -0.2188
  523MOL0     H72166   8.141   1.415   6.057  0.3746  1.1348  0.1026
  523MOL0     H72167   8.024   1.380   5.927 -0.0223 -2.1367  0.9020
  523MOL0     H72168   7.909   1.603   5.995  0.1595 -0.6171 -2.3275
  523MOL0     H72169   8.060   1.616   5.909 -3.2027  2.5314 -0.0648
  523MOL0     H72170   8.135   1.778   6.296  1.6568  1.2659 -2.0102
  523MOL0     H72171   7.606   1.177   6.306 -1.2511  0.7615 -1.4596
  523MOL0     H72172   7.304   1.029   6.272  0.7116 -1.4757  0.4023
  523MOL0     H72173   7.381   0.947   6.401  4.7752 -0.6831  0.1567
  523MOL0     H72174   7.420   1.116   6.402 -0.2099 -0.5377  0.5830
  524MOL0     O72175   9.778   9.526   8.698 -0.3286 -0.4091 -0.1007
  524MOL0     C72176   9.850   9.437   8.743  0.1373  0.0079 -0.2272
  524MOL0     O72177   9.937   9.461   8.846  0.4903 -0.9469 -0.1114
  524MOL0     C72178   9.906   9.559   8.935  0.6569  1.2493  0.7769
  524MOL0     C72179   9.836   9.521   9.041  0.6555  0.1443  0.2329
  524MOL0     C72180   9.806   9.613   9.139  0.0757  0.3962 -0.5370
  524MOL0     C72181   9.835   9.749   9.119 -0.0893 -1.0028 -0.4962
  524MOL0     O72182   9.800   9.839   9.221 -0.1599  0.5693 -0.0782
  524MOL0     C72183   9.716   9.949   9.182 -0.1767  0.0532 -0.0473
  524MOL0     C72184   9.629  10.002   9.306 -0.3461 -0.3471  0.3247
  524MOL0     C72185   9.715  10.041   9.428  0.6209 -0.0347  0.5764
  524MOL0     C72186   9.622  10.100   9.530  0.8137 -0.5646  0.2895
  524MOL0     C72187   9.578  10.247   9.491  0.2598  0.2454 -0.1888
  524MOL0     C72188   9.480  10.316   9.606 -0.6961  0.2968  0.7652
  524MOL0     C72189   9.561  10.381   9.719 -0.9426 -0.4387  0.4713
  524MOL0     C72190   9.676  10.490   9.673  0.5028  0.2854  0.1397
  524MOL0     N72191   9.812  10.436   9.656  0.2360  0.3270 -0.8896
  524MOL0     C72192   9.881  10.376   9.760  0.5542  0.4829  0.0128
  524MOL0     C72193   9.994  10.331   9.711 -0.5061  0.1434  0.1847
  524MOL0     C72194  10.088  10.246   9.799  0.8082  0.8284 -0.3459
  524MOL0     C72195  10.039  10.111   9.778 -0.1104 -0.3188  0.2003
  524MOL0     C72196  10.159  10.013   9.782 -0.3518  0.0191  0.2328
  524MOL0     C72197  10.237   9.991   9.917  0.5379  0.0324 -1.0641
  524MOL0     O72198  10.153   9.973  10.032  0.5081  0.3469 -0.6119
  524MOL0     C72199  10.110   9.841  10.061 -0.2310  0.2456  0.8844
  524MOL0     C72200  10.045   9.816  10.181  0.2735 -0.2052  0.7967
  524MOL0     C72201  10.002   9.687  10.218  0.5680 -0.8075  0.1352
  524MOL0     C72202   9.953   9.657  10.359 -0.6982  1.0708  0.1704
  524MOL0     C72203  10.010   9.573  10.128 -0.4742 -0.2707 -0.4066
  524MOL0     C72204   9.990   9.424  10.155 -0.0763  0.0528 -1.7383
  524MOL0     O72205  10.044   9.328  10.077  0.2457  0.6606  0.3492
  524MOL0     C72206  10.028   9.193  10.100 -0.6329 -0.3951  0.7989
  524MOL0     C72207  10.135   9.122  10.143 -0.0035 -0.4439 -1.7355
  524MOL0     C72208  10.136   8.981  10.142  0.4489 -0.7221 -0.7550
  524MOL0     C72209  10.033   8.909  10.071  0.2925 -0.2651 -0.0057
  524MOL0     O72210  10.044   8.777  10.026 -0.2977  0.3301 -0.4709
  524MOL0     C72211  10.121   8.686  10.100 -0.2274 -1.1318 -0.3565
  524MOL0     C72212  10.072   8.550  10.029  0.5112 -1.0401  0.3450
  524MOL0     C72213  10.139   8.428  10.094  0.4801  0.8361 -0.2333
  524MOL0     C72214  10.078   8.298  10.036  0.2466  0.3363 -0.0542
  524MOL0     C72215  10.153   8.169  10.081  0.3937  0.2837  0.0657
  524MOL0     C72216  10.084   8.056  10.010  0.0091 -0.4784 -0.4044
  524MOL0     C72217  10.111   7.917  10.082  1.0610  0.2835  0.9888
  524MOL0     C72218  10.068   7.917  10.228  0.2172 -0.6980 -0.8381
  524MOL0    Cl72219  10.049   7.751  10.284  0.1338 -0.0492 -0.0646
  524MOL0     C72220   9.924   8.986  10.019 -0.4041 -0.3505  0.1851
  524MOL0     C72221   9.924   9.123  10.041 -0.4364  0.2866  0.0864
  524MOL0     O72222   9.927   9.397  10.252  0.5468 -0.0888 -0.7506
  524MOL0     C72223  10.058   9.601   9.998 -0.0440  0.2942  0.1076
  524MOL0     C72224  10.114   9.726   9.969 -0.7422 -0.5949 -0.5596
  524MOL0     N72225   9.994  10.357   9.575 -0.0457 -0.6271  0.1442
  524MOL0     N72226   9.880  10.422   9.540 -0.9292  0.2402  0.3899
  524MOL0     C72227   9.925   9.778   9.017 -0.2044 -0.2936  0.0355
  524MOL0     C72228   9.942   9.688   8.917  0.0101  0.2252 -0.1551
  524MOL0     C72229   9.852   9.309   8.678  0.6938  0.0658  0.0206
  524MOL0     C72230   9.965   9.229   8.697 -0.3061 -0.5488 -0.5354
  524MOL0     C72231  10.000   9.112   8.627 -1.2329 -0.1654 -0.2567
  524MOL0     C72232   9.916   9.070   8.524 -0.4833  1.0229  0.3539
  524MOL0     O72233   9.951   8.955   8.441 -0.2788 -0.5554  0.0861
  524MOL0     C72234  10.072   8.963   8.360  0.4914  0.0882 -0.6402
  524MOL0     C72235  10.084   8.837   8.274  0.2755 -1.0295  0.7093
  524MOL0     C72236  10.197   8.854   8.159  0.5704 -0.3355 -0.1362
  524MOL0     C72237  10.212   8.731   8.073  0.0837 -0.4569 -0.2245
  524MOL0     C72238  10.301   8.640   8.146  0.5577  1.1142  0.9113
  524MOL0     C72239  10.382   8.589   8.213 -1.0653  0.2585 -0.7375
  524MOL0     C72240   9.795   9.138   8.507 -0.3202 -0.0655 -0.8988
  524MOL0     C72241   9.760   9.264   8.581 -0.6297  1.0165 -0.1251
  524MOL0     C72242   9.630   9.341   8.545  0.2331 -0.0450 -0.4548
  524MOL0     H72243   9.801   9.418   9.047 -1.2484  0.7511  0.3545
  524MOL0     H72244   9.752   9.571   9.223 -0.6331  2.8524  0.2982
  524MOL0     H72245   9.645   9.908   9.110 -1.4327  3.3103 -0.8721
  524MOL0     H72246   9.776  10.030   9.139 -0.3580 -0.6348 -1.6586
  524MOL0     H72247   9.554  10.080   9.289  0.5699  0.3588 -0.5515
  524MOL0     H72248   9.565   9.915   9.327 -0.0346 -1.0453 -1.4929
  524MOL0     H72249   9.763   9.948   9.462 -0.2754 -1.0355 -0.8028
  524MOL0     H72250   9.792  10.113   9.399 -0.7619  1.0925 -0.4000
  524MOL0     H72251   9.526  10.047   9.534 -1.5160  2.4515 -4.6158
  524MOL0     H72252   9.665  10.106   9.630 -1.5994 -0.8303  1.4153
  524MOL0     H72253   9.504  10.240   9.410  0.6733  0.6439 -0.6098
  524MOL0     H72254   9.667  10.308   9.469  0.9930 -1.1474 -1.2786
  524MOL0     H72255   9.414  10.391   9.560  2.3127  2.7202  0.0976
  524MOL0     H72256   9.400  10.256   9.651 -2.3181  2.1167  0.4847
  524MOL0     H72257   9.619  10.299   9.761  0.1617 -0.5218 -1.1078
  524MOL0     H72258   9.482  10.419   9.784 -1.9686  0.5798 -1.2706
  524MOL0     H72259   9.639  10.543   9.585  1.2586  3.8857  1.7837
  524MOL0     H72260   9.677  10.573   9.745 -0.1112 -0.9244  1.6061
  524MOL0     H72261   9.854  10.378   9.865  0.8413 -1.5666  0.1703
  524MOL0     H72262  10.060  10.265   9.903 -2.9488 -0.4469 -0.9877
  524MOL0     H72263  10.196  10.258   9.782  1.1251 -1.9335 -0.6381
  524MOL0     H72264   9.974  10.070   9.856  0.4186 -4.1051 -1.1731
  524MOL0     H72265   9.986  10.099   9.683 -2.8301 -1.6911  1.7914
  524MOL0     H72266  10.103   9.925   9.751 -1.0037  0.8880 -1.1884
  524MOL0     H72267  10.240  10.036   9.712  0.6562 -0.8319  1.0892
  524MOL0     H72268  10.300   9.902   9.918 -1.0512 -1.1984  1.1859
  524MOL0     H72269  10.302  10.074   9.946  0.6056  0.4102 -2.2568
  524MOL0     H72270  10.041   9.891  10.260  1.8670 -1.2692  1.9739
  524MOL0     H72271   9.948   9.751  10.416  0.0941 -0.1017  2.2967
  524MOL0     H72272  10.026   9.590  10.405 -2.4655 -1.1765 -0.1289
  524MOL0     H72273   9.855   9.607  10.357  0.7286 -1.9301 -1.0586
  524MOL0     H72274  10.203   9.183  10.202 -1.8198 -1.5009  1.7629
  524MOL0     H72275  10.222   8.928  10.181  1.0433  1.6337  1.4099
  524MOL0     H72276  10.230   8.697  10.101 -0.3566  0.5839  1.6136
  524MOL0     H72277  10.087   8.693  10.204  0.1306 -3.2070 -0.0446
  524MOL0     H72278   9.966   8.529  10.039  0.6970 -1.7759  0.8279
  524MOL0     H72279  10.098   8.558   9.923  2.1258  1.3128  0.8236
  524MOL0     H72280  10.113   8.436  10.200  1.3672  4.4101 -0.1728
  524MOL0     H72281  10.247   8.426  10.079  0.4515  0.5640 -0.4165
  524MOL0     H72282  10.082   8.296   9.927  1.5467  2.4005 -0.1002
  524MOL0     H72283   9.972   8.286  10.063 -0.4903  2.9693 -1.4072
  524MOL0     H72284  10.257   8.164  10.047 -0.3491 -0.8213 -2.2511
  524MOL0     H72285  10.143   8.161  10.190  0.6838 -0.6081  0.0313
  524MOL0     H72286  10.127   8.060   9.909  2.8629  1.0798  0.7400
  524MOL0     H72287   9.976   8.071  10.013 -0.3278 -1.3524 -3.8083
  524MOL0     H72288  10.215   7.887  10.068  0.3438 -1.0827 -2.3106
  524MOL0     H72289  10.056   7.837  10.031 -0.3683  1.5056  0.5317
  524MOL0     H72290   9.973   7.972  10.241  0.2977  0.7167 -4.7862
  524MOL0     H72291  10.137   7.975  10.290 -1.0064 -0.1860  0.0849
  524MOL0     H72292   9.848   8.939   9.959 -1.3154  0.8846  0.3473
  524MOL0     H72293   9.845   9.175   9.987 -1.1585 -3.1749 -2.5127
  524MOL0     H72294  10.072   9.519   9.928  3.5032  0.6372  0.1910
  524MOL0     H72295  10.153   9.758   9.873  3.0612  0.6775  1.2269
  524MOL0     H72296   9.960   9.880   9.012 -0.1353 -0.3412 -0.5292
  524MOL0     H72297   9.996   9.721   8.828  1.5604  1.2282  1.0835
  524MOL0     H72298  10.026   9.256   8.783  0.6736 -1.1119 -1.0469
  524MOL0     H72299  10.087   9.052   8.656 -1.1516  0.4260  0.7846
  524MOL0     H72300  10.059   9.049   8.294  0.7640 -0.6458 -1.6725
  524MOL0     H72301  10.159   8.977   8.425  0.1326 -2.5486  0.5293
  524MOL0     H72302   9.983   8.828   8.234 -0.0436 -1.7413  1.6524
  524MOL0     H72303  10.089   8.748   8.338 -2.4010 -2.1066 -0.4331
  524MOL0     H72304  10.162   8.935   8.094  1.4523  0.3442  0.1966
  524MOL0     H72305  10.288   8.897   8.203 -0.1395  1.5413 -0.4134
  524MOL0     H72306  10.233   8.748   7.967  1.3335  2.7164  0.4167
  524MOL0     H72307  10.117   8.679   8.065 -1.1007  1.7707 -1.7749
  524MOL0     H72308  10.462   8.555   8.276  0.0193  0.1267 -2.1229
  524MOL0     H72309   9.725   9.102   8.432  0.1704  1.9733 -2.3974
  524MOL0     H72310   9.572   9.378   8.630 -3.2514 -1.7836 -1.8602
  524MOL0     H72311   9.641   9.423   8.474 -3.2407  2.0000  1.0779
  524MOL0     H72312   9.561   9.269   8.499 -2.2129  1.0218  1.2848
  525MOL0     O72313   0.723   0.592   1.814 -0.5006  0.2238  0.2467
  525MOL0     C72314   0.833   0.637   1.857  0.5389  0.2668  1.0103
  525MOL0     O72315   0.879   0.613   1.984  0.0555 -0.2777  0.6028
  525MOL0     C72316   0.897   0.487   2.019  0.2789  0.1333  0.8508
  525MOL0     C72317   0.883   0.378   1.932  1.0744  0.7154  0.2032
  525MOL0     C72318   0.902   0.245   1.982  0.4410 -0.6653  0.0036
  525MOL0     C72319   0.927   0.211   2.111  0.4615 -0.2052 -0.3971
  525MOL0     O72320   0.949   0.076   2.144  0.3191  0.0698 -0.4583
  525MOL0     C72321   0.981   0.026   2.278  0.2745 -0.0431  0.2929
  525MOL0     C72322   0.953  -0.127   2.290 -0.6620  0.0993  0.1995
  525MOL0     C72323   1.009  -0.186   2.414 -0.2469  0.2096  0.1595
  525MOL0     C72324   0.937  -0.318   2.468 -1.0622 -0.3589  0.1580
  525MOL0     C72325   1.015  -0.376   2.588  0.2159 -0.3773 -0.0682
  525MOL0     C72326   0.945  -0.505   2.638  0.0024 -0.2008 -0.0379
  525MOL0     C72327   1.012  -0.571   2.753  0.1361 -0.2305  0.6869
  525MOL0     C72328   0.935  -0.686   2.802  0.2124 -0.4397 -0.3536
  525MOL0     N72329   1.034  -0.791   2.843 -0.5176 -0.7817 -0.0287
  525MOL0     C72330   1.092  -0.783   2.958 -1.2097  0.4881 -0.3312
  525MOL0     C72331   1.185  -0.877   2.951 -0.3294  0.2408 -0.3677
  525MOL0     C72332   1.286  -0.909   3.058 -1.2359 -0.4203 -0.8740
  525MOL0     C72333   1.413  -0.825   3.031 -0.1669  0.9937  0.1456
  525MOL0     C72334   1.385  -0.676   3.083  0.8404  0.9729  0.1668
  525MOL0     C72335   1.511  -0.597   3.052  0.1554  0.3209 -0.5639
  525MOL0     O72336   1.622  -0.649   3.123  0.1698 -0.2302 -0.1824
  525MOL0     C72337   1.723  -0.557   3.134  0.3533  0.9466  0.0425
  525MOL0     C72338   1.809  -0.566   3.245 -0.1978 -0.1459 -0.0511
  525MOL0     C72339   1.927  -0.502   3.256 -1.0759  0.4114  0.0817
  525MOL0     C72340   2.009  -0.535   3.382 -0.6361  0.3879  0.1816
  525MOL0     C72341   1.967  -0.423   3.141  0.3935  0.2846  0.5190
  525MOL0     C72342   2.092  -0.343   3.133  0.3305  0.1762  0.3500
  525MOL0     O72343   2.145  -0.316   3.008  0.2427 -0.3168  0.2258
  525MOL0     C72344   2.258  -0.241   2.994 -0.2543 -0.1054  0.0579
  525MOL0     C72345   2.374  -0.300   2.936  1.2129  0.0742 -0.4372
  525MOL0     C72346   2.487  -0.221   2.907 -0.3914  0.3475 -0.5804
  525MOL0     C72347   2.497  -0.083   2.949 -0.0489  0.2537  0.5231
  525MOL0     O72348   2.607  -0.002   2.927 -0.3046 -0.2133  0.4993
  525MOL0     C72349   2.615   0.141   2.963 -1.1110 -0.3357 -0.3627
  525MOL0     C72350   2.731   0.194   2.883  0.5458 -0.7416 -0.1160
  525MOL0     C72351   2.781   0.334   2.915  0.2622  0.3595  0.1519
  525MOL0     C72352   2.934   0.356   2.902  0.3480 -0.5803 -0.6191
  525MOL0     C72353   3.004   0.354   3.039  0.2884  0.4572 -0.1064
  525MOL0     C72354   3.149   0.335   3.029  0.1931  0.6164  0.4697
  525MOL0     C72355   3.228   0.339   3.160  1.3148 -0.1400 -0.3675
  525MOL0     C72356   3.202   0.240   3.264  0.3694 -0.2190 -0.7966
  525MOL0    Cl72357   3.257   0.075   3.207  0.4091 -0.5537  0.3167
  525MOL0     C72358   2.371  -0.027   3.002 -0.8720  1.4820 -0.0022
  525MOL0     C72359   2.259  -0.110   3.028  0.0164  0.0332  0.1888
  525MOL0     O72360   2.125  -0.290   3.238  0.0904 -0.0412  0.1055
  525MOL0     C72361   1.888  -0.418   3.026 -0.1352  0.2818 -0.5349
  525MOL0     C72362   1.765  -0.489   3.021  0.1346 -0.1678 -0.5286
  525MOL0     N72363   1.197  -0.928   2.828 -0.4789  1.4129  1.1662
  525MOL0     N72364   1.085  -0.896   2.772 -0.3132  0.3904 -1.2630
  525MOL0     C72365   0.948   0.323   2.191 -0.2322 -0.8115 -0.8501
  525MOL0     C72366   0.932   0.458   2.144 -0.1271  0.0350 -0.2497
  525MOL0     C72367   0.886   0.748   1.776 -0.5899 -0.9838  0.4240
  525MOL0     C72368   0.836   0.765   1.647  0.6360  0.3641 -0.4612
  525MOL0     C72369   0.869   0.862   1.553  0.3563  1.0702 -0.6334
  525MOL0     C72370   0.959   0.962   1.592 -0.0699  0.4975 -0.6406
  525MOL0     O72371   1.000   1.050   1.491 -0.0223 -0.1096  0.5903
  525MOL0     C72372   1.048   1.180   1.537 -0.6610 -0.7844 -0.9806
  525MOL0     C72373   1.012   1.285   1.434  0.2808  0.5187  0.2503
  525MOL0     C72374   1.029   1.438   1.480  0.7060  0.8244 -0.1317
  525MOL0     C72375   1.096   1.522   1.372 -0.3644  1.1113 -0.6425
  525MOL0     C72376   1.236   1.469   1.365 -0.4629 -0.4164  0.9388
  525MOL0     C72377   1.340   1.410   1.334  0.5090  0.8961  0.4299
  525MOL0     C72378   0.999   0.959   1.728  0.1103 -0.2810 -0.1615
  525MOL0     C72379   0.970   0.852   1.823 -0.8286 -0.0639  1.0152
  525MOL0     C72380   1.026   0.866   1.956 -0.9167 -0.7846 -0.1207
  525MOL0     H72381   0.853   0.387   1.829 -2.4765 -1.3598  0.8838
  525MOL0     H72382   0.904   0.163   1.911  2.0092 -1.1425  0.5399
  525MOL0     H72383   0.914   0.077   2.347 -2.6441 -1.7680 -1.0508
  525MOL0     H72384   1.088   0.039   2.299  0.7141  0.0373 -1.7877
  525MOL0     H72385   0.845  -0.144   2.286 -0.3829 -1.8216 -0.2739
  525MOL0     H72386   0.998  -0.164   2.197 -1.1118  2.1268 -0.8701
  525MOL0     H72387   1.116  -0.194   2.393 -0.3958 -0.1781 -0.4552
  525MOL0     H72388   1.000  -0.122   2.503 -0.8148  1.7620 -0.9589
  525MOL0     H72389   0.830  -0.304   2.482 -1.2875 -1.4294 -0.4258
  525MOL0     H72390   0.956  -0.397   2.395 -2.3332 -1.9961  1.5374
  525MOL0     H72391   1.013  -0.301   2.667 -3.1924 -1.1821  0.8158
  525MOL0     H72392   1.119  -0.388   2.556 -0.3688 -1.6634 -1.6342
  525MOL0     H72393   0.852  -0.475   2.687  0.7778  1.1426  0.6721
  525MOL0     H72394   0.929  -0.580   2.561  2.9851 -2.0846  0.9753
  525MOL0     H72395   1.036  -0.502   2.833 -1.1312  2.3168 -0.9992
  525MOL0     H72396   1.113  -0.606   2.726  1.2589  0.8555  3.1859
  525MOL0     H72397   0.871  -0.656   2.886  2.9250 -1.1826  2.1471
  525MOL0     H72398   0.873  -0.729   2.723 -0.1407 -1.9533  0.6940
  525MOL0     H72399   1.064  -0.721   3.042  0.5874 -0.8709  1.3581
  525MOL0     H72400   1.317  -1.013   3.044 -0.8845 -0.1309 -2.3882
  525MOL0     H72401   1.253  -0.878   3.158 -0.7569 -2.2341 -0.1176
  525MOL0     H72402   1.493  -0.872   3.089 -3.3809 -3.4896  1.4849
  525MOL0     H72403   1.441  -0.809   2.927 -0.0590  1.9330  0.3112
  525MOL0     H72404   1.289  -0.637   3.049  0.0297  0.9347  2.2793
  525MOL0     H72405   1.379  -0.688   3.192  0.2898 -0.6067 -0.0135
  525MOL0     H72406   1.526  -0.585   2.944 -0.3959  1.3516 -0.5386
  525MOL0     H72407   1.494  -0.492   3.080 -0.9330 -0.1010  0.4385
  525MOL0     H72408   1.793  -0.626   3.334  2.4375  3.9795  3.5858
  525MOL0     H72409   1.943  -0.566   3.463 -0.5202  2.8453  1.3162
  525MOL0     H72410   2.057  -0.445   3.421 -2.4533  1.5750 -0.1603
  525MOL0     H72411   2.076  -0.620   3.374  3.3945  3.3766 -1.1740
  525MOL0     H72412   2.372  -0.401   2.897  0.5532 -0.1815  0.2279
  525MOL0     H72413   2.558  -0.285   2.855 -1.6985 -0.1161 -1.8575
  525MOL0     H72414   2.524   0.195   2.935  0.0669  0.8355 -2.1597
  525MOL0     H72415   2.641   0.152   3.069  1.2857 -3.5009 -0.4728
  525MOL0     H72416   2.815   0.127   2.902  2.7302  1.8438 -0.1136
  525MOL0     H72417   2.704   0.205   2.777 -3.6729  2.9297  1.0061
  525MOL0     H72418   2.762   0.346   3.022  0.4125  1.5113  0.0615
  525MOL0     H72419   2.726   0.410   2.860  0.0724 -0.3846 -0.7176
  525MOL0     H72420   2.954   0.451   2.853 -3.7052  0.1933 -1.0839
  525MOL0     H72421   2.979   0.276   2.841 -0.0448 -1.9142  0.7791
  525MOL0     H72422   2.973   0.433   3.108  0.9585 -0.5259  1.3874
  525MOL0     H72423   2.968   0.260   3.084 -1.5487 -0.1371 -2.5897
  525MOL0     H72424   3.183   0.416   2.963 -1.9359 -1.2073 -3.1791
  525MOL0     H72425   3.165   0.249   2.963  0.2273  2.7142 -2.4607
  525MOL0     H72426   3.218   0.439   3.205  2.5147 -0.0804 -0.2016
  525MOL0     H72427   3.335   0.330   3.140  1.1536  1.7794 -2.4463
  525MOL0     H72428   3.095   0.234   3.289  0.2036 -0.7568 -1.5999
  525MOL0     H72429   3.263   0.269   3.350 -1.5673  2.2728 -0.1225
  525MOL0     H72430   2.374   0.081   3.010  2.0110  1.3619  2.2872
  525MOL0     H72431   2.166  -0.068   3.064  0.5630  0.7789  0.7617
  525MOL0     H72432   1.922  -0.370   2.935  1.7008 -1.4271 -0.7955
  525MOL0     H72433   1.688  -0.475   2.947 -1.8145  0.4481  1.4946
  525MOL0     H72434   0.991   0.307   2.289 -0.7638 -0.8951 -0.6299
  525MOL0     H72435   0.946   0.546   2.205 -0.4821  1.4817 -2.1621
  525MOL0     H72436   0.750   0.705   1.620 -1.0224  2.3927  0.0616
  525MOL0     H72437   0.819   0.862   1.457 -0.1991  1.3014 -0.3461
  525MOL0     H72438   1.008   1.207   1.635 -0.8447  0.9302 -1.5017
  525MOL0     H72439   1.157   1.170   1.545 -0.8309 -1.1831  1.3370
  525MOL0     H72440   0.915   1.263   1.390  0.6894 -0.8782 -0.0229
  525MOL0     H72441   1.080   1.272   1.349  2.0579  1.8384  1.3979
  525MOL0     H72442   0.928   1.476   1.495 -0.1103 -1.4757  0.6418
  525MOL0     H72443   1.061   1.452   1.583  3.3889 -1.9543 -0.4459
  525MOL0     H72444   1.087   1.628   1.397  0.8341  1.1418 -0.2907
  525MOL0     H72445   1.042   1.498   1.280 -0.7891 -3.3538  0.5490
  525MOL0     H72446   1.427   1.353   1.312  0.3741  2.2180 -4.6714
  525MOL0     H72447   1.067   1.035   1.763  0.2749 -1.3485  1.9619
  525MOL0     H72448   1.084   0.957   1.975 -4.9968  1.7113  1.8114
  525MOL0     H72449   0.938   0.868   2.021  0.5850 -3.3184  2.1872
  525MOL0     H72450   1.089   0.777   1.969  0.0019 -0.7315 -3.4132
  526MOL0     O72451   4.692  10.384   4.165 -0.2060  0.0602 -0.4398
  526MOL0     C72452   4.717  10.273   4.210  1.3620  0.3782 -0.4976
  526MOL0     O72453   4.630  10.161   4.186 -0.3162  0.0349 -0.7892
  526MOL0     C72454   4.523  10.187   4.105  0.0077  0.3819  0.2098
  526MOL0     C72455   4.552  10.234   3.973  0.2124  0.5627  0.2496
  526MOL0     C72456   4.447  10.261   3.882 -0.9403  0.6265  0.1658
  526MOL0     C72457   4.315  10.234   3.935  0.6309 -0.2380  0.3326
  526MOL0     O72458   4.207  10.262   3.853 -0.5449 -0.2902  0.4802
  526MOL0     C72459   4.145  10.386   3.883 -0.0982 -0.6544  0.0166
  526MOL0     C72460   4.027  10.407   3.780 -0.7611  0.4082 -0.5226
  526MOL0     C72461   3.910  10.311   3.798  0.2955  0.2023 -0.5070
  526MOL0     C72462   3.807  10.356   3.686  0.1603 -0.3048 -1.2871
  526MOL0     C72463   3.675  10.284   3.700  1.1472 -0.1149 -0.2711
  526MOL0     C72464   3.582  10.365   3.794  0.5934 -0.1846 -0.8875
  526MOL0     C72465   3.430  10.322   3.780  0.2821  0.2758 -0.1470
  526MOL0     C72466   3.345  10.405   3.869  0.8815 -0.1967  0.0160
  526MOL0     N72467   3.203  10.364   3.878  0.6875 -0.1895 -0.7258
  526MOL0     C72468   3.107  10.417   3.967  0.2094 -1.2184  0.8077
  526MOL0     C72469   2.988  10.399   3.899  0.3395  0.5889 -0.2507
  526MOL0     C72470   2.846  10.455   3.945 -1.0460  0.0197  0.5594
  526MOL0     C72471   2.824  10.591   3.872  0.1762  0.3444 -0.2131
  526MOL0     C72472   2.723  10.674   3.954 -0.6218  1.2038 -0.2773
  526MOL0     C72473   2.589  10.685   3.884 -0.5960 -0.5457  0.1142
  526MOL0     O72474   2.525  10.553   3.870 -0.3668 -0.0385 -0.0486
  526MOL0     C72475   2.449  10.512   3.975  0.0767  0.5900  0.2219
  526MOL0     C72476   2.326  10.576   3.998  0.0997 -0.6482  0.2806
  526MOL0     C72477   2.238  10.537   4.101  0.7498  0.6299  0.3814
  526MOL0     C72478   2.106  10.599   4.120  0.0292 -0.0800  0.4505
  526MOL0     C72479   2.277  10.435   4.191 -0.1455  0.3631  0.1725
  526MOL0     C72480   2.190  10.382   4.297  0.7735 -0.4667 -0.4775
  526MOL0     O72481   2.265  10.325   4.391  0.4397 -0.3703 -0.0605
  526MOL0     C72482   2.208  10.295   4.506  0.3314 -0.4520  0.3197
  526MOL0     C72483   2.233  10.168   4.554 -0.6883 -0.2189 -0.5579
  526MOL0     C72484   2.195  10.125   4.676  0.0000  0.9646 -0.0982
  526MOL0     C72485   2.107  10.208   4.748 -1.1302  0.9530 -0.1701
  526MOL0     O72486   2.056  10.155   4.860 -0.6313 -0.1139  0.2825
  526MOL0     C72487   2.014  10.239   4.968 -0.8025 -0.3418 -0.6429
  526MOL0     C72488   2.014  10.172   5.111  1.4560 -0.7658 -0.2909
  526MOL0     C72489   1.959  10.026   5.115 -0.9173 -0.4546 -0.1491
  526MOL0     C72490   2.063   9.916   5.073 -0.0500  0.3032  0.0903
  526MOL0     C72491   2.002   9.769   5.074  0.6906  0.1112  1.4449
  526MOL0     C72492   1.895   9.739   4.964 -0.0574  0.1219 -0.5351
  526MOL0     C72493   1.870   9.583   4.966  0.0853  0.1520 -0.3975
  526MOL0     C72494   1.764   9.545   4.852 -0.0388 -0.0419  1.1637
  526MOL0    Cl72495   1.857   9.531   4.704  0.0071 -0.0609  0.2839
  526MOL0     C72496   2.095  10.343   4.706  0.6765 -0.2017 -0.6185
  526MOL0     C72497   2.146  10.387   4.589  0.7369  0.3554 -0.7639
  526MOL0     O72498   2.060  10.390   4.308 -0.3033  0.3949 -0.0948
  526MOL0     C72499   2.405  10.388   4.175 -0.1936 -0.3657  0.2834
  526MOL0     C72500   2.481  10.416   4.069 -0.5150 -0.5201 -0.9598
  526MOL0     N72501   3.006  10.337   3.779  0.1820 -0.2994  0.2569
  526MOL0     N72502   3.130  10.310   3.768  0.8344  0.2536  0.3084
  526MOL0     C72503   4.286  10.192   4.072  0.4470 -0.3463  0.3413
  526MOL0     C72504   4.391  10.158   4.150  0.8904 -1.1678 -0.1317
  526MOL0     C72505   4.819  10.244   4.310 -0.5993  0.4255  0.2530
  526MOL0     C72506   4.853  10.109   4.355 -0.0443 -0.1654 -0.3867
  526MOL0     C72507   4.944  10.077   4.450  0.0856  0.2709 -1.0759
  526MOL0     C72508   5.021  10.177   4.500 -0.4303 -0.6467 -0.1941
  526MOL0     O72509   5.095  10.146   4.608  0.4658  0.0106 -0.3696
  526MOL0     C72510   5.023  10.088   4.722 -0.1698 -0.3830 -0.1616
  526MOL0     C72511   5.055  10.147   4.860  1.6634 -0.2596 -0.5107
  526MOL0     C72512   5.185  10.089   4.913  0.2286  0.3282 -0.5462
  526MOL0     C72513   5.243  10.164   5.043  0.4035 -0.1887  0.3500
  526MOL0     C72514   5.153  10.158   5.161  0.9953  0.1629  0.0048
  526MOL0     C72515   5.070  10.153   5.254  0.0957  1.0443  0.5550
  526MOL0     C72516   5.007  10.310   4.458  0.4777  0.4406 -0.1848
  526MOL0     C72517   4.908  10.345   4.363  0.8260  0.5724 -0.4789
  526MOL0     C72518   4.910  10.496   4.333  0.5584  0.0952  0.3100
  526MOL0     H72519   4.652  10.264   3.942 -0.2089  0.0215 -1.7757
  526MOL0     H72520   4.479  10.294   3.783  1.7167 -2.7122 -0.2823
  526MOL0     H72521   4.208  10.474   3.867 -0.5536 -0.0331  1.4713
  526MOL0     H72522   4.091  10.388   3.978 -2.2466  0.8415 -1.1334
  526MOL0     H72523   3.999  10.513   3.781  4.8952  2.1957 -0.2512
  526MOL0     H72524   4.060  10.388   3.678 -2.1117 -2.8802 -0.4801
  526MOL0     H72525   3.932  10.204   3.789 -0.0831  0.0726  0.0652
  526MOL0     H72526   3.870  10.330   3.898  0.2266 -3.1996  0.2346
  526MOL0     H72527   3.803  10.465   3.693  2.5153 -0.2156 -0.2902
  526MOL0     H72528   3.860  10.333   3.592  1.6856  1.2905 -0.8689
  526MOL0     H72529   3.679  10.188   3.753 -0.2208  0.9805  1.9794
  526MOL0     H72530   3.634  10.273   3.599  3.5828 -0.5236 -1.2827
  526MOL0     H72531   3.608  10.342   3.897 -1.0410  0.2711 -0.3502
  526MOL0     H72532   3.584  10.471   3.768 -2.0158 -0.0584 -0.7673
  526MOL0     H72533   3.421  10.216   3.805  1.3183  0.5229  1.4233
  526MOL0     H72534   3.399  10.350   3.678  3.5073  0.2667 -1.2472
  526MOL0     H72535   3.396  10.413   3.966  0.4938 -2.4322  0.4580
  526MOL0     H72536   3.343  10.505   3.826  1.7047 -0.0885  0.2011
  526MOL0     H72537   3.139  10.453   4.064  2.4294 -1.2559  0.1547
  526MOL0     H72538   2.849  10.468   4.054 -3.1816 -0.9506  0.7844
  526MOL0     H72539   2.764  10.388   3.920 -1.1308 -0.3987  1.8977
  526MOL0     H72540   2.919  10.643   3.858 -0.1442  0.5963 -1.6325
  526MOL0     H72541   2.786  10.571   3.771  0.2188  1.1674 -0.4008
  526MOL0     H72542   2.714  10.633   4.055  0.3762  0.7605 -0.3583
  526MOL0     H72543   2.756  10.778   3.964  0.1804  0.7432  2.8514
  526MOL0     H72544   2.529  10.764   3.931  0.7676  1.2389 -1.0081
  526MOL0     H72545   2.605  10.712   3.779 -1.7918  3.3978  0.7812
  526MOL0     H72546   2.289  10.653   3.931 -0.6129  1.7290  3.1741
  526MOL0     H72547   2.091  10.624   4.226 -0.6913 -0.0840  0.3568
  526MOL0     H72548   2.025  10.533   4.087  2.6719 -2.7368 -1.1744
  526MOL0     H72549   2.098  10.692   4.064 -0.9644 -0.9218 -0.8626
  526MOL0     H72550   2.292  10.104   4.490 -0.4617 -0.5339 -0.0409
  526MOL0     H72551   2.200  10.018   4.693 -3.8470  0.4963 -0.9800
  526MOL0     H72552   2.065  10.335   4.972 -2.4592  0.5490  0.0963
  526MOL0     H72553   1.907  10.256   4.951 -0.7665 -0.3902 -0.9234
  526MOL0     H72554   2.115  10.174   5.152  0.6903  0.2386  1.6905
  526MOL0     H72555   1.952  10.227   5.182  1.2047 -3.4176  1.6919
  526MOL0     H72556   1.877  10.024   5.042 -0.4194  0.8817 -0.7908
  526MOL0     H72557   1.922  10.012   5.216 -1.4854  4.5783  0.6243
  526MOL0     H72558   2.148   9.915   5.142  0.4076  0.8920 -0.4547
  526MOL0     H72559   2.109   9.937   4.976  1.2566  0.3346  0.6925
  526MOL0     H72560   2.081   9.694   5.057 -1.7048 -2.3828  0.5481
  526MOL0     H72561   1.967   9.746   5.175  2.2808 -1.7240  1.6452
  526MOL0     H72562   1.940   9.774   4.870  2.3040 -1.2531 -0.0141
  526MOL0     H72563   1.802   9.792   4.982 -1.4690 -1.3175 -3.0574
  526MOL0     H72564   1.838   9.550   5.065 -1.3254  1.4853 -0.3662
  526MOL0     H72565   1.972   9.543   4.957  2.1906  4.3332  1.9429
  526MOL0     H72566   1.671   9.603   4.854  0.2538  0.5000 -0.0026
  526MOL0     H72567   1.739   9.442   4.880  1.2419  0.3155  3.8554
  526MOL0     H72568   2.038  10.420   4.757 -0.2576  0.3694 -2.4284
  526MOL0     H72569   2.134  10.488   4.550 -0.6963 -0.4899 -2.6707
  526MOL0     H72570   2.453  10.319   4.244 -1.2840 -0.7136  0.7151
  526MOL0     H72571   2.585  10.385   4.073  0.2554  1.9555 -0.0976
  526MOL0     H72572   4.189  10.168   4.114  0.5459 -1.9249 -0.2644
  526MOL0     H72573   4.377  10.104   4.243  3.6220 -0.4077  0.7926
  526MOL0     H72574   4.794  10.028   4.313 -2.8553  1.5873 -0.0651
  526MOL0     H72575   4.949   9.972   4.476  0.4963 -0.2542 -3.0703
  526MOL0     H72576   4.918  10.115   4.715  0.5706  2.3713 -2.5496
  526MOL0     H72577   5.047   9.982   4.712 -3.0718 -1.0089 -1.3295
  526MOL0     H72578   4.981  10.135   4.940  0.2710  0.3649 -1.6594
  526MOL0     H72579   5.068  10.255   4.847 -0.3997 -0.2684 -3.7996
  526MOL0     H72580   5.179   9.986   4.949 -3.2192  1.2236  2.0239
  526MOL0     H72581   5.253  10.109   4.830 -2.9799  0.5663 -3.3244
  526MOL0     H72582   5.263  10.268   5.017 -4.4648  0.6229 -1.1750
  526MOL0     H72583   5.347  10.135   5.059  1.2172  2.1599 -0.3856
  526MOL0     H72584   4.993  10.136   5.327 -0.1864  1.5061  0.3638
  526MOL0     H72585   5.069  10.382   4.511  0.6910  0.1397 -0.0228
  526MOL0     H72586   4.898  10.566   4.416  1.0705  0.1830  0.3137
  526MOL0     H72587   5.007  10.521   4.289  0.0062 -0.7208 -1.4859
  526MOL0     H72588   4.829  10.530   4.268  1.1538  1.3833  0.2274
  527MOL0     O72589   4.877  10.469   6.287 -0.2235 -0.8409  0.0017
  527MOL0     C72590   4.958  10.554   6.256  0.1154 -0.6021  0.2212
  527MOL0     O72591   5.018  10.650   6.333 -0.6728 -0.4257 -0.0721
  527MOL0     C72592   4.976  10.662   6.464  0.0694 -0.0694 -0.2722
  527MOL0     C72593   5.069  10.688   6.555 -0.6225  0.3892  0.3830
  527MOL0     C72594   5.036  10.689   6.697  0.1034  0.3144 -0.3441
  527MOL0     C72595   4.902  10.691   6.743 -1.3821  0.9496  0.7232
  527MOL0     O72596   4.853  10.698   6.869 -0.2009 -0.3903 -1.1046
  527MOL0     C72597   4.942  10.698   6.982 -0.5171  0.3870 -0.6257
  527MOL0     C72598   4.866  10.708   7.113  0.1042  0.9796 -0.1450
  527MOL0     C72599   4.854  10.856   7.159  0.0001 -0.4684  0.2536
  527MOL0     C72600   4.788  10.869   7.297 -0.4084  0.6644  0.1457
  527MOL0     C72601   4.814  11.015   7.354  0.6242  0.5661 -0.5344
  527MOL0     C72602   4.743  11.124   7.275  0.6017 -0.4829 -0.0470
  527MOL0     C72603   4.706  11.256   7.348  0.4177 -0.8579 -0.0501
  527MOL0     C72604   4.808  11.333   7.426 -0.2505 -0.0031 -0.0506
  527MOL0     N72605   4.819  11.292   7.563  0.5278 -0.3427  0.7729
  527MOL0     C72606   4.715  11.304   7.648  0.0438  0.6637 -0.2040
  527MOL0     C72607   4.759  11.224   7.754  0.5515 -0.3718 -0.3524
  527MOL0     C72608   4.668  11.208   7.878  0.5967  0.5844  0.3201
  527MOL0     C72609   4.719  11.275   8.004  0.6179 -0.2663 -0.1332
  527MOL0     C72610   4.732  11.424   7.978 -0.3779  0.1757 -0.2775
  527MOL0     C72611   4.754  11.502   8.112 -0.1819  0.1520  0.0808
  527MOL0     O72612   4.652  11.605   8.125 -0.4418  0.8631 -0.5111
  527MOL0     C72613   4.556  11.597   8.228 -0.6169  0.4971 -0.0227
  527MOL0     C72614   4.489  11.472   8.262  0.0815  0.3125  0.4241
  527MOL0     C72615   4.404  11.461   8.360  0.0162 -0.9830 -0.0985
  527MOL0     C72616   4.345  11.324   8.382 -0.0807 -0.5727 -0.8586
  527MOL0     C72617   4.361  11.582   8.428  0.4061  0.2267 -0.1314
  527MOL0     C72618   4.253  11.592   8.535 -1.4673 -0.1250  0.5184
  527MOL0     O72619   4.246  11.696   8.626 -0.1866  0.4784 -0.0930
  527MOL0     C72620   4.124  11.737   8.664  0.5499 -0.5125  0.0670
  527MOL0     C72621   4.088  11.749   8.798  0.1723  0.7526 -0.0664
  527MOL0     C72622   3.963  11.805   8.830 -0.1658  0.2389  0.4092
  527MOL0     C72623   3.872  11.845   8.729 -0.2450 -0.8898  0.1622
  527MOL0     O72624   3.744  11.904   8.755 -0.0176 -0.3087  0.6717
  527MOL0     C72625   3.689  11.905   8.887  0.0242  0.6958 -0.1097
  527MOL0     C72626   3.586  12.012   8.897 -1.2139  0.6800  0.6690
  527MOL0     C72627   3.632  12.145   8.842  0.8296  0.1769 -0.2614
  527MOL0     C72628   3.514  12.239   8.850 -0.8070  0.0579  0.3547
  527MOL0     C72629   3.546  12.387   8.817  0.5421 -0.7002  0.3650
  527MOL0     C72630   3.622  12.398   8.693  0.4725  0.8137  0.4478
  527MOL0     C72631   3.626  12.545   8.638 -0.3027  0.7723 -1.2783
  527MOL0     C72632   3.699  12.546   8.514  0.4676  0.1939 -0.5047
  527MOL0    Cl72633   3.664  12.718   8.489 -0.5524  0.6371 -0.1950
  527MOL0     C72634   3.903  11.830   8.592 -0.6645  0.0842  0.0933
  527MOL0     C72635   4.030  11.783   8.561 -0.2542  0.0863 -0.0686
  527MOL0     O72636   4.165  11.514   8.508  0.6668  0.0568  0.0304
  527MOL0     C72637   4.425  11.710   8.397 -0.4426 -0.6802  0.1707
  527MOL0     C72638   4.524  11.713   8.294  0.6454 -0.6850 -0.5667
  527MOL0     N72639   4.889  11.185   7.737  1.0300 -0.1330  0.7496
  527MOL0     N72640   4.921  11.212   7.615  0.3582 -0.5031 -0.1490
  527MOL0     C72641   4.811  10.678   6.645  0.5181  1.0952  0.0244
  527MOL0     C72642   4.838  10.654   6.508 -0.1855 -0.0096  0.4636
  527MOL0     C72643   5.005  10.559   6.105  0.6482 -0.0624  0.7207
  527MOL0     C72644   5.043  10.689   6.055 -0.6305  0.1612  0.1480
  527MOL0     C72645   5.102  10.712   5.925  0.1616 -0.1472 -0.6570
  527MOL0     C72646   5.113  10.597   5.852  0.2436  0.1091  0.0289
  527MOL0     O72647   5.141  10.609   5.719 -0.4152  0.3005  0.4485
  527MOL0     C72648   5.033  10.642   5.640  0.2453  1.0533  0.5435
  527MOL0     C72649   5.078  10.660   5.492 -0.2459 -0.7032 -0.1930
  527MOL0     C72650   5.074  10.545   5.397  0.2754 -1.5204  0.4178
  527MOL0     C72651   5.144  10.582   5.261  0.6101 -0.2713  0.8856
  527MOL0     C72652   5.082  10.705   5.196 -0.4251  0.1596 -1.0856
  527MOL0     C72653   5.055  10.801   5.132  0.4821  0.0781  0.5875
  527MOL0     C72654   5.080  10.468   5.902  0.6582 -0.3473 -0.0994
  527MOL0     C72655   5.030  10.445   6.024  0.4043  0.0226 -1.4043
  527MOL0     C72656   4.999  10.311   6.072 -0.3680  0.0310 -0.4206
  527MOL0     H72657   5.174  10.690   6.526 -0.7179 -3.4717 -0.7622
  527MOL0     H72658   5.113  10.709   6.772 -0.4590  1.3585 -0.0250
  527MOL0     H72659   5.007  10.783   6.962 -0.1081 -0.0946 -1.3523
  527MOL0     H72660   5.001  10.606   6.984  2.9077  2.4165  0.8608
  527MOL0     H72661   4.771  10.655   7.104  0.1639  0.8581 -0.0661
  527MOL0     H72662   4.928  10.655   7.186 -0.5294 -0.8144 -0.8567
  527MOL0     H72663   4.952  10.905   7.166  0.0559 -0.6882  1.0872
  527MOL0     H72664   4.795  10.907   7.083  1.7260 -0.1423 -0.9423
  527MOL0     H72665   4.682  10.847   7.282 -0.1800 -1.8262  1.5753
  527MOL0     H72666   4.828  10.795   7.367 -1.2753 -0.1634 -0.2045
  527MOL0     H72667   4.920  11.040   7.363  0.1803  1.9336  1.7109
  527MOL0     H72668   4.776  11.015   7.456  2.4341 -1.0098  0.1946
  527MOL0     H72669   4.800  11.140   7.184  0.3882 -0.3743 -0.1629
  527MOL0     H72670   4.652  11.069   7.247  0.2694 -0.8874  1.6634
  527MOL0     H72671   4.620  11.228   7.410 -0.4877 -1.4216 -1.5017
  527MOL0     H72672   4.678  11.322   7.265  1.6630 -1.7703 -1.2390
  527MOL0     H72673   4.904  11.311   7.379 -0.0980  2.3196 -0.9975
  527MOL0     H72674   4.787  11.441   7.418  1.6114  0.4413  0.5485
  527MOL0     H72675   4.625  11.360   7.625 -0.6948 -0.0274  0.8878
  527MOL0     H72676   4.649  11.101   7.892 -0.6140  0.6827 -0.4459
  527MOL0     H72677   4.568  11.248   7.860  0.6985  1.7325  2.0536
  527MOL0     H72678   4.646  11.249   8.080  1.6492 -2.4457  0.2073
  527MOL0     H72679   4.812  11.229   8.040 -0.3828 -2.5083 -0.2281
  527MOL0     H72680   4.828  11.442   7.930  0.9986  0.6119  2.4588
  527MOL0     H72681   4.652  11.453   7.910  1.8960 -0.1445 -3.2565
  527MOL0     H72682   4.742  11.435   8.198  1.0738  0.0653  0.2152
  527MOL0     H72683   4.857  11.535   8.128 -0.2867  2.7262 -3.4188
  527MOL0     H72684   4.520  11.385   8.204  2.8640 -0.2198  2.4756
  527MOL0     H72685   4.408  11.249   8.333  0.4382 -0.8106  0.1470
  527MOL0     H72686   4.243  11.311   8.345 -0.7983 -1.2667  1.2182
  527MOL0     H72687   4.347  11.314   8.491  1.0577 -5.3676 -1.0961
  527MOL0     H72688   4.152  11.705   8.875 -2.6091  0.0534  2.0194
  527MOL0     H72689   3.950  11.816   8.937 -0.9874  1.7304  0.1717
  527MOL0     H72690   3.644  11.809   8.914 -3.5165  2.8233  2.4818
  527MOL0     H72691   3.765  11.930   8.962  1.1362 -0.4566 -0.8200
  527MOL0     H72692   3.493  11.979   8.850  0.7330 -1.1093 -2.2311
  527MOL0     H72693   3.561  12.037   9.001 -2.4251  0.3966  0.4558
  527MOL0     H72694   3.668  12.124   8.741 -1.9856 -1.0920 -1.1234
  527MOL0     H72695   3.715  12.185   8.901 -1.8998  0.6945  3.6063
  527MOL0     H72696   3.482  12.233   8.954  3.0551 -4.2058  1.6462
  527MOL0     H72697   3.440  12.198   8.781 -0.5350 -0.3079  0.2726
  527MOL0     H72698   3.448  12.434   8.801  2.3865  3.3100 -0.2226
  527MOL0     H72699   3.588  12.437   8.905 -1.0275 -0.4163  1.0073
  527MOL0     H72700   3.573  12.329   8.623  3.2132 -0.0135 -0.8068
  527MOL0     H72701   3.722  12.362   8.716  1.5597  3.3257 -0.0166
  527MOL0     H72702   3.682  12.609   8.708 -0.0795 -1.4270  0.6777
  527MOL0     H72703   3.527  12.590   8.641 -0.9872 -0.6958 -0.9362
  527MOL0     H72704   3.640  12.483   8.445 -1.3451  0.4179  0.7744
  527MOL0     H72705   3.801  12.508   8.521 -0.1352 -1.4726 -0.1247
  527MOL0     H72706   3.832  11.864   8.518 -2.6888 -2.6948  0.6411
  527MOL0     H72707   4.061  11.800   8.458 -0.2748  1.7666  0.1753
  527MOL0     H72708   4.384  11.800   8.440 -3.8952 -1.9875 -0.1054
  527MOL0     H72709   4.575  11.804   8.265  1.0106 -1.2470 -1.7114
  527MOL0     H72710   4.708  10.659   6.676  1.0066  0.2665  1.1870
  527MOL0     H72711   4.756  10.643   6.438 -1.4273 -0.6724  1.9583
  527MOL0     H72712   5.036  10.776   6.120  1.1908  2.0252 -1.9993
  527MOL0     H72713   5.130  10.811   5.890 -1.1077  1.6409  2.8360
  527MOL0     H72714   4.957  10.563   5.646  0.6626 -0.1638 -4.8762
  527MOL0     H72715   4.998  10.742   5.669  2.1340  2.2433 -1.0816
  527MOL0     H72716   5.177  10.707   5.482  0.4676 -2.2116 -0.5615
  527MOL0     H72717   5.007  10.736   5.458 -2.1092 -2.3067 -0.0068
  527MOL0     H72718   5.145  10.470   5.432  1.3924 -0.1753  1.1586
  527MOL0     H72719   4.973  10.508   5.383  0.1926 -0.4803 -2.4923
  527MOL0     H72720   5.142  10.495   5.195  2.9596  0.1980  0.1001
  527MOL0     H72721   5.248  10.611   5.279  0.4179 -0.4630  2.3766
  527MOL0     H72722   5.028  10.888   5.075  1.8452 -1.2724 -2.3786
  527MOL0     H72723   5.090  10.390   5.828 -0.0720  2.2419 -3.1564
  527MOL0     H72724   4.891  10.299   6.082 -0.3593 -1.7079 -1.8214
  527MOL0     H72725   5.035  10.237   5.999  0.0233 -0.2900  0.0943
  527MOL0     H72726   5.045  10.286   6.167 -0.1093 -2.6326 -1.1561
  528MOL0     O72727   9.783   8.445  10.411 -0.4727  0.8390 -0.4915
  528MOL0     C72728   9.718   8.444  10.306  0.2628 -0.3432  0.4065
  528MOL0     O72729   9.654   8.551  10.251 -0.6586 -0.3879 -0.3122
  528MOL0     C72730   9.652   8.671  10.317  0.3604  0.7993  0.3946
  528MOL0     C72731   9.586   8.695  10.440 -0.4642  0.3545  0.6749
  528MOL0     C72732   9.585   8.818  10.506  0.7611  0.8596  0.0927
  528MOL0     C72733   9.669   8.924  10.447 -0.9892  0.2393 -0.1954
  528MOL0     O72734   9.671   9.045  10.514  0.3773 -0.0299  0.0867
  528MOL0     C72735   9.761   9.153  10.480  0.1896  0.7344 -1.0611
  528MOL0     C72736   9.679   9.276  10.454 -0.7416 -0.4895  0.3555
  528MOL0     C72737   9.611   9.253  10.323  0.5769  0.0494  0.3596
  528MOL0     C72738   9.537   9.368  10.251 -0.3702  0.4564  0.3681
  528MOL0     C72739   9.514   9.335  10.101  0.9871 -0.7524  0.4372
  528MOL0     C72740   9.435   9.455  10.033 -0.1996  0.0334  0.3011
  528MOL0     C72741   9.387   9.435   9.889  0.9173  0.6038  0.3638
  528MOL0     C72742   9.287   9.541   9.836 -0.0653  0.0429 -0.2623
  528MOL0     N72743   9.259   9.499   9.696  0.4114 -0.3056 -2.1181
  528MOL0     C72744   9.137   9.461   9.660 -0.0785 -0.9248  0.1375
  528MOL0     C72745   9.137   9.455   9.524  0.2448 -1.1531 -0.4630
  528MOL0     C72746   9.021   9.421   9.430  0.4647  1.0741  0.0436
  528MOL0     C72747   8.940   9.310   9.490  0.8452  0.4765 -0.1889
  528MOL0     C72748   8.820   9.299   9.392 -0.8980 -1.0434  0.6146
  528MOL0     C72749   8.734   9.178   9.425 -0.1283  0.2980 -0.9047
  528MOL0     O72750   8.667   9.203   9.545 -0.1990 -0.6493 -1.3955
  528MOL0     C72751   8.587   9.098   9.598 -0.1588 -0.6641  0.1904
  528MOL0     C72752   8.623   8.967   9.615  0.0713 -0.7678  0.4648
  528MOL0     C72753   8.531   8.860   9.638  0.1584  2.1003  0.9690
  528MOL0     C72754   8.576   8.715   9.641  0.6388 -0.1680 -0.3953
  528MOL0     C72755   8.395   8.898   9.661 -0.5065  0.8198  0.7220
  528MOL0     C72756   8.282   8.810   9.708 -0.0938 -0.1674  0.3529
  528MOL0     O72757   8.155   8.870   9.730 -0.7112 -0.3341  0.6296
  528MOL0     C72758   8.077   8.804   9.823  1.3730  1.2536  0.2253
  528MOL0     C72759   7.966   8.733   9.783  0.6554  0.7672  0.2778
  528MOL0     C72760   7.886   8.678   9.877  0.4060 -0.3799  0.7772
  528MOL0     C72761   7.895   8.704  10.018  0.8078  0.6012 -0.0119
  528MOL0     O72762   7.810   8.655  10.117  0.6286  0.4770 -0.7276
  528MOL0     C72763   7.708   8.558  10.072 -0.3723 -0.7088  1.0821
  528MOL0     C72764   7.626   8.526  10.190 -0.1205 -0.2186  0.1910
  528MOL0     C72765   7.520   8.418  10.154  0.3066  0.3820  0.5628
  528MOL0     C72766   7.390   8.480  10.114 -0.2982  0.0744 -0.3793
  528MOL0     C72767   7.267   8.378  10.111 -0.6732 -0.2961  0.8150
  528MOL0     C72768   7.287   8.244  10.032 -0.0419 -1.4642 -0.1310
  528MOL0     C72769   7.193   8.128  10.062  0.2640 -0.5797 -0.0407
  528MOL0     C72770   7.034   8.156  10.056 -0.7408 -0.1923  0.4374
  528MOL0    Cl72771   6.987   8.183   9.875  0.3550  0.0838 -0.3061
  528MOL0     C72772   8.015   8.760  10.053 -0.4446  0.3907 -0.1851
  528MOL0     C72773   8.107   8.811   9.962 -0.1602 -0.2089  0.6648
  528MOL0     O72774   8.312   8.694   9.726  0.3156 -0.6274  0.3795
  528MOL0     C72775   8.363   9.034   9.656  0.7434  0.5477  0.3738
  528MOL0     C72776   8.453   9.130   9.616 -0.4190 -0.2005 -0.2255
  528MOL0     N72777   9.270   9.480   9.494  0.3163 -0.6522  0.2382
  528MOL0     N72778   9.335   9.518   9.592 -0.5963 -0.3148 -0.5949
  528MOL0     C72779   9.729   8.901  10.322 -0.1358 -0.0494  1.4926
  528MOL0     C72780   9.732   8.774  10.263  0.3240 -0.7521  0.2291
  528MOL0     C72781   9.712   8.316  10.229  0.3404 -0.6429  0.6020
  528MOL0     C72782   9.731   8.196  10.307  0.5436 -0.0648  0.2583
  528MOL0     C72783   9.699   8.072  10.260  1.0385 -0.5498  0.9350
  528MOL0     C72784   9.670   8.053  10.119 -0.3018  0.7663  0.2076
  528MOL0     O72785   9.665   7.941  10.053 -0.2471  0.2070 -0.1149
  528MOL0     C72786   9.673   7.809  10.129  0.2417 -0.7115 -0.2938
  528MOL0     C72787   9.683   7.688  10.036 -0.7641  0.6123  0.9366
  528MOL0     C72788   9.539   7.639   9.992  0.4025 -0.2720  0.2906
  528MOL0     C72789   9.546   7.580   9.854 -0.1227  0.0802 -0.3577
  528MOL0     C72790   9.618   7.463   9.823  0.4168  0.7185 -0.1602
  528MOL0     C72791   9.673   7.360   9.789 -0.8515 -1.0778  0.2846
  528MOL0     C72792   9.643   8.170  10.043 -0.3418  0.8041  0.1138
  528MOL0     C72793   9.656   8.298  10.095  0.9201  0.5592 -0.1343
  528MOL0     C72794   9.604   8.403  10.002  0.0465  0.3764 -0.1838
  528MOL0     H72795   9.542   8.608  10.487  2.3725 -1.4323  0.2696
  528MOL0     H72796   9.536   8.839  10.600  1.7942 -0.8842  1.0812
  528MOL0     H72797   9.842   9.131  10.409  2.4572  1.1451  1.2681
  528MOL0     H72798   9.822   9.171  10.568  2.1405  3.0414 -2.7491
  528MOL0     H72799   9.604   9.288  10.533 -2.2121  3.4285 -1.3614
  528MOL0     H72800   9.736   9.369  10.463  0.3437 -1.2646  2.0710
  528MOL0     H72801   9.684   9.225  10.247 -1.0942  2.1406 -2.2193
  528MOL0     H72802   9.540   9.170  10.321  0.0320  0.3997 -3.6652
  528MOL0     H72803   9.437   9.374  10.295 -2.1205 -1.6542 -2.9337
  528MOL0     H72804   9.595   9.461  10.251 -0.1322  0.3154  1.2314
  528MOL0     H72805   9.474   9.238  10.071  0.5573 -0.3164 -0.4186
  528MOL0     H72806   9.610   9.339  10.048  0.1147  0.9368 -1.1663
  528MOL0     H72807   9.341   9.471  10.086 -1.2716  0.3034 -1.6066
  528MOL0     H72808   9.490   9.550  10.035 -4.4978  2.8884 -1.5747
  528MOL0     H72809   9.337   9.337   9.894 -1.1735  1.6706  2.6963
  528MOL0     H72810   9.470   9.424   9.819  0.5120  1.4637 -0.2611
  528MOL0     H72811   9.194   9.541   9.893 -1.0776  0.4944 -1.8548
  528MOL0     H72812   9.341   9.637   9.839  2.2343 -1.0728 -2.2431
  528MOL0     H72813   9.049   9.455   9.724 -0.6941  0.7276 -0.5099
  528MOL0     H72814   9.046   9.401   9.325  2.1062  0.7894  0.4635
  528MOL0     H72815   8.955   9.508   9.421  0.5938  1.2328  0.5986
  528MOL0     H72816   9.009   9.224   9.485  3.1766  2.2944 -1.4332
  528MOL0     H72817   8.896   9.325   9.589 -3.2438 -2.0693 -1.3532
  528MOL0     H72818   8.756   9.386   9.407 -1.9609 -1.0472 -3.0045
  528MOL0     H72819   8.840   9.288   9.285 -0.4022 -2.0861  0.8007
  528MOL0     H72820   8.663   9.155   9.345 -3.2281  2.1072  1.0700
  528MOL0     H72821   8.799   9.092   9.443 -0.5047  0.4714  1.6418
  528MOL0     H72822   8.727   8.939   9.597  0.2059  0.9254 -1.6995
  528MOL0     H72823   8.579   8.682   9.745 -1.2184  0.2582 -0.1720
  528MOL0     H72824   8.673   8.704   9.592 -0.1584  0.6314 -2.2862
  528MOL0     H72825   8.501   8.653   9.591 -0.9409 -0.9233  2.6703
  528MOL0     H72826   7.941   8.731   9.677  2.3377  0.3729 -0.1322
  528MOL0     H72827   7.795   8.633   9.840  0.0765 -0.2234  1.3701
  528MOL0     H72828   7.642   8.597   9.993  1.5449 -0.7224 -0.6118
  528MOL0     H72829   7.766   8.471  10.040  2.4308  0.5692  2.3819
  528MOL0     H72830   7.693   8.491  10.269  0.6073  1.6239  0.4290
  528MOL0     H72831   7.578   8.619  10.223  0.8006  0.2239  0.3153
  528MOL0     H72832   7.501   8.354  10.241  0.5447  2.9186  2.6224
  528MOL0     H72833   7.556   8.350  10.076  0.6497 -0.3119  1.3156
  528MOL0     H72834   7.403   8.511  10.010  1.2171 -1.3596 -0.6555
  528MOL0     H72835   7.375   8.569  10.175  0.4887  1.6839 -2.4286
  528MOL0     H72836   7.238   8.354  10.214 -0.5053 -2.5354  0.3989
  528MOL0     H72837   7.193   8.441  10.061  0.4955  0.4247 -0.0504
  528MOL0     H72838   7.390   8.209  10.035  0.2966 -0.6745 -1.5315
  528MOL0     H72839   7.261   8.273   9.930  1.4578  1.4975  0.2345
  528MOL0     H72840   7.209   8.100  10.167  1.4139 -0.6753 -0.2371
  528MOL0     H72841   7.215   8.042   9.998  2.3582 -1.2361  1.4529
  528MOL0     H72842   7.003   8.240  10.120  0.3027  0.0174  0.6967
  528MOL0     H72843   6.981   8.068  10.092  0.7950 -0.9911  0.8253
  528MOL0     H72844   8.057   8.772  10.152  3.0848  0.8510 -1.5774
  528MOL0     H72845   8.195   8.858  10.004  0.6115 -1.4844  0.5476
  528MOL0     H72846   8.259   9.065   9.663  0.2408 -0.9725 -0.1361
  528MOL0     H72847   8.411   9.227   9.593  1.1028  0.8370  1.1350
  528MOL0     H72848   9.782   8.984  10.276  0.0243 -2.2708 -2.9266
  528MOL0     H72849   9.794   8.760  10.175 -0.2726 -0.3936 -0.2578
  528MOL0     H72850   9.781   8.200  10.404  1.6338 -2.6972 -0.1089
  528MOL0     H72851   9.714   7.984  10.321 -1.0724 -1.5156  0.1533
  528MOL0     H72852   9.764   7.824  10.187  1.3424  0.4223 -2.2010
  528MOL0     H72853   9.597   7.799  10.207  0.1871 -0.4318 -0.3081
  528MOL0     H72854   9.744   7.609  10.079  2.2146  0.1001 -3.5448
  528MOL0     H72855   9.727   7.727   9.944 -0.2153 -0.4178  0.7528
  528MOL0     H72856   9.514   7.572  10.075  1.8370  2.2086  2.9047
  528MOL0     H72857   9.483   7.732   9.999  0.8201  0.1594 -1.7078
  528MOL0     H72858   9.581   7.657   9.786 -1.7418 -0.8511 -2.3538
  528MOL0     H72859   9.442   7.567   9.824 -0.8809  2.8456  0.7224
  528MOL0     H72860   9.712   7.266   9.756 -0.1266 -1.2232  1.4914
  528MOL0     H72861   9.611   8.165   9.939 -1.2641  0.6543  0.3991
  528MOL0     H72862   9.580   8.362   9.903 -4.2859 -2.4031  1.7491
  528MOL0     H72863   9.517   8.452  10.046 -0.1177 -0.2626  0.2022
  528MOL0     H72864   9.682   8.480   9.997  0.0095  0.4551  0.4008
  529MOL0     O72865   2.360   2.032   5.417  0.7697  0.1677 -0.6664
  529MOL0     C72866   2.403   2.091   5.323  0.0152 -0.4718  0.0573
  529MOL0     O72867   2.520   2.159   5.331  0.4734 -0.3971  0.2911
  529MOL0     C72868   2.585   2.192   5.453  1.1315 -0.0526 -0.4486
  529MOL0     C72869   2.523   2.191   5.582  0.2917  0.1524  0.8195
  529MOL0     C72870   2.607   2.225   5.694  0.3603  0.0025  0.2003
  529MOL0     C72871   2.739   2.254   5.676 -0.3806 -0.1047  0.5123
  529MOL0     O72872   2.814   2.306   5.779 -0.3806 -0.3467 -0.4777
  529MOL0     C72873   2.876   2.200   5.863 -0.6505 -1.0278  0.0010
  529MOL0     C72874   2.986   2.277   5.934 -0.0904 -0.6995 -1.0433
  529MOL0     C72875   3.100   2.189   5.985 -0.1866  0.6023  0.3432
  529MOL0     C72876   3.163   2.107   5.873 -0.1600 -0.5304  0.7029
  529MOL0     C72877   3.311   2.066   5.879  0.0855 -0.0392  0.1751
  529MOL0     C72878   3.349   2.014   6.019 -0.6238  0.5814 -0.3846
  529MOL0     C72879   3.502   1.961   6.017  1.0541  0.5705  0.1726
  529MOL0     C72880   3.610   2.059   6.049 -0.4929 -0.6354 -0.5763
  529MOL0     N72881   3.741   2.017   6.003  0.2363  1.0526  0.3787
  529MOL0     C72882   3.794   2.057   5.888  0.1918  0.1507  0.1691
  529MOL0     C72883   3.899   1.977   5.863 -0.8137 -0.5949 -1.1137
  529MOL0     C72884   3.989   1.988   5.745  1.0173 -0.1513 -0.5205
  529MOL0     C72885   4.099   2.096   5.781  0.8756  0.4095  0.7241
  529MOL0     C72886   4.218   2.089   5.680 -0.3029 -0.4689 -0.1639
  529MOL0     C72887   4.334   2.179   5.725 -0.3079 -0.0857  0.3137
  529MOL0     O72888   4.270   2.309   5.767  0.0506  1.3630 -0.2242
  529MOL0     C72889   4.349   2.399   5.832 -0.5916  0.1821  0.1235
  529MOL0     C72890   4.471   2.435   5.773  0.0213 -0.0863 -0.1592
  529MOL0     C72891   4.562   2.526   5.827  0.5338 -0.3411  0.0951
  529MOL0     C72892   4.690   2.544   5.759 -0.5392 -0.4180  0.2064
  529MOL0     C72893   4.530   2.579   5.956 -0.8893 -0.4598  0.2634
  529MOL0     C72894   4.623   2.669   6.034  0.8242  0.8162  0.3868
  529MOL0     O72895   4.751   2.647   6.010 -0.1358 -0.3290 -0.6780
  529MOL0     C72896   4.846   2.727   6.072 -0.0343 -0.2269  0.0487
  529MOL0     C72897   4.863   2.863   6.041  0.4077 -0.6967 -0.1326
  529MOL0     C72898   4.965   2.926   6.115 -0.3626  0.4074  1.1283
  529MOL0     C72899   5.034   2.870   6.223  0.4640  0.0289 -0.2890
  529MOL0     O72900   5.112   2.946   6.305  0.1218 -0.1890 -0.3734
  529MOL0     C72901   5.134   2.908   6.446  0.1330  0.5062  0.4548
  529MOL0     C72902   5.195   3.028   6.513 -1.2817  0.6610 -0.5258
  529MOL0     C72903   5.262   3.016   6.652 -0.0330  0.2955 -0.1063
  529MOL0     C72904   5.322   3.153   6.707 -0.3211  0.6313  0.4485
  529MOL0     C72905   5.387   3.123   6.846 -0.2229 -0.5687  0.9381
  529MOL0     C72906   5.438   3.256   6.920 -0.1538  0.7309  0.1264
  529MOL0     C72907   5.495   3.230   7.060 -0.5546 -0.1389  0.5850
  529MOL0     C72908   5.565   3.353   7.103 -0.3302 -0.2563 -1.4422
  529MOL0    Cl72909   5.647   3.323   7.261 -0.0811 -0.1345  0.1879
  529MOL0     C72910   5.012   2.736   6.239  0.0194  0.1762  0.0441
  529MOL0     C72911   4.923   2.662   6.160  0.3911  1.2867 -0.4170
  529MOL0     O72912   4.578   2.738   6.120  0.9208 -0.6570  0.4595
  529MOL0     C72913   4.401   2.548   6.015 -0.3349  0.6338 -0.6397
  529MOL0     C72914   4.327   2.451   5.954 -0.1356  0.3932  0.4772
  529MOL0     N72915   3.906   1.878   5.969  0.7642 -0.2944  0.2907
  529MOL0     N72916   3.811   1.918   6.051  0.5601 -0.1560 -0.0860
  529MOL0     C72917   2.795   2.255   5.553 -0.0200 -0.0710 -0.5703
  529MOL0     C72918   2.721   2.223   5.440 -0.0989  0.0452 -0.8231
  529MOL0     C72919   2.347   2.084   5.189 -0.0193  0.0456 -0.2376
  529MOL0     C72920   2.431   2.104   5.072 -0.4397 -0.1380 -0.0747
  529MOL0     C72921   2.380   2.109   4.937 -0.5464 -0.1710 -0.7148
  529MOL0     C72922   2.253   2.101   4.915  0.4425  0.3806  0.1709
  529MOL0     O72923   2.211   2.095   4.790 -0.0737 -0.1100 -0.5851
  529MOL0     C72924   2.084   2.028   4.752 -1.0173 -0.3807 -0.3532
  529MOL0     C72925   2.124   1.882   4.735  0.4920 -0.7645  0.1181
  529MOL0     C72926   2.004   1.788   4.680 -0.8771  0.0578  0.0673
  529MOL0     C72927   2.050   1.639   4.692 -0.8783 -0.0075  0.2703
  529MOL0     C72928   2.163   1.623   4.609 -1.0763 -0.2334  0.0308
  529MOL0     C72929   2.272   1.612   4.553  0.8485 -0.2714  0.7646
  529MOL0     C72930   2.167   2.076   5.027 -0.3203  0.8958 -0.5768
  529MOL0     C72931   2.210   2.072   5.158 -0.3333 -0.2499  0.0191
  529MOL0     C72932   2.112   2.055   5.275  0.2440  0.7788  0.0139
  529MOL0     H72933   2.419   2.166   5.596 -0.0995  0.4470 -1.2891
  529MOL0     H72934   2.574   2.252   5.794 -0.5004 -1.1076  0.2425
  529MOL0     H72935   2.915   2.120   5.800 -3.0872 -0.4009 -2.5099
  529MOL0     H72936   2.807   2.170   5.942  0.5855 -0.8794  1.1668
  529MOL0     H72937   3.037   2.344   5.863 -2.9988  1.9711 -0.8491
  529MOL0     H72938   2.932   2.329   6.014  1.0744  0.3832 -0.9330
  529MOL0     H72939   3.180   2.248   6.031  2.4181 -2.3887  0.0097
  529MOL0     H72940   3.060   2.112   6.051  1.3092  0.0970  0.7089
  529MOL0     H72941   3.110   2.012   5.879  1.0460 -1.4786 -1.9427
  529MOL0     H72942   3.146   2.154   5.776  0.3556  1.6435  1.5976
  529MOL0     H72943   3.373   2.149   5.845  1.5796 -1.9620 -2.1615
  529MOL0     H72944   3.327   1.986   5.805 -7.1824 -0.4211 -1.8030
  529MOL0     H72945   3.350   2.101   6.085  0.7396  0.5662 -0.3649
  529MOL0     H72946   3.282   1.949   6.076 -0.3115 -1.2403 -1.9953
  529MOL0     H72947   3.519   1.914   5.920 -2.5780 -1.9629  0.5682
  529MOL0     H72948   3.521   1.881   6.089  1.1276 -0.5171 -1.0267
  529MOL0     H72949   3.592   2.154   5.999  2.1419  0.4975  0.4128
  529MOL0     H72950   3.608   2.071   6.158 -0.2927  2.9528 -0.8526
  529MOL0     H72951   3.755   2.125   5.813  0.7105 -1.5595 -1.7375
  529MOL0     H72952   3.932   2.021   5.657 -1.9024  3.6967  2.4081
  529MOL0     H72953   4.032   1.891   5.722  2.1443  0.4187 -0.8837
  529MOL0     H72954   4.042   2.189   5.778 -1.9787 -1.2358 -1.9011
  529MOL0     H72955   4.134   2.070   5.881 -2.7227  0.6060  2.1532
  529MOL0     H72956   4.266   1.990   5.677  1.1939  0.2631 -1.8891
  529MOL0     H72957   4.205   2.114   5.574  3.0341  1.7010 -0.1809
  529MOL0     H72958   4.397   2.132   5.801  3.1586  1.8617 -1.1123
  529MOL0     H72959   4.405   2.197   5.644 -0.7704 -0.1031 -0.0934
  529MOL0     H72960   4.489   2.406   5.670  0.5292 -1.2649  0.2486
  529MOL0     H72961   4.719   2.649   5.763 -0.6780 -0.1921 -2.7560
  529MOL0     H72962   4.685   2.517   5.653 -1.0433  0.2458  0.0569
  529MOL0     H72963   4.769   2.481   5.801 -0.6054 -0.0701  0.8662
  529MOL0     H72964   4.792   2.913   5.976 -0.7063 -1.1653  0.6991
  529MOL0     H72965   4.983   3.026   6.078 -0.0034 -0.5272 -1.4787
  529MOL0     H72966   5.042   2.878   6.498  1.1987 -0.4592  1.8388
  529MOL0     H72967   5.211   2.831   6.453  1.5248  1.6211 -1.3696
  529MOL0     H72968   5.285   3.060   6.460 -0.9857 -0.0501 -0.4731
  529MOL0     H72969   5.132   3.117   6.504  1.7530  2.9089 -1.2214
  529MOL0     H72970   5.341   2.941   6.660  1.0039  1.3357 -0.3915
  529MOL0     H72971   5.171   2.992   6.709 -1.2478 -2.8722 -3.0566
  529MOL0     H72972   5.239   3.223   6.716 -1.2276 -0.0576 -1.8348
  529MOL0     H72973   5.394   3.200   6.639 -0.2371  0.5400  0.4728
  529MOL0     H72974   5.328   3.062   6.915  0.0507 -1.1106  0.6979
  529MOL0     H72975   5.471   3.057   6.823 -1.2181 -1.2002 -1.0778
  529MOL0     H72976   5.354   3.323   6.938  0.1886  1.1326  0.2591
  529MOL0     H72977   5.515   3.302   6.858 -1.2193  2.4667  0.0367
  529MOL0     H72978   5.565   3.146   7.058 -0.7123 -0.2643  0.2912
  529MOL0     H72979   5.411   3.214   7.129 -2.1863 -2.6786 -1.7793
  529MOL0     H72980   5.498   3.438   7.117 -2.2101 -2.0681  1.6900
  529MOL0     H72981   5.636   3.377   7.023  0.6845 -1.1265 -0.8243
  529MOL0     H72982   5.055   2.683   6.323 -2.0875 -0.9588  0.4730
  529MOL0     H72983   4.894   2.562   6.190 -2.6012  1.6377 -1.8253
  529MOL0     H72984   4.359   2.588   6.106 -0.2058  0.8103 -0.6563
  529MOL0     H72985   4.229   2.428   5.995 -0.6960  0.4695 -0.7706
  529MOL0     H72986   2.900   2.281   5.563 -0.6821  1.9700  2.9662
  529MOL0     H72987   2.785   2.235   5.353  2.1351  0.1161  0.7565
  529MOL0     H72988   2.538   2.122   5.076  0.1166 -2.8137 -0.5903
  529MOL0     H72989   2.457   2.114   4.861 -0.6629  1.1277 -0.7757
  529MOL0     H72990   2.008   2.032   4.831 -2.0155  0.3351 -1.3258
  529MOL0     H72991   2.036   2.070   4.663 -0.7097  1.1389  0.1709
  529MOL0     H72992   2.140   1.852   4.839  0.9346 -0.1464  0.2307
  529MOL0     H72993   2.215   1.867   4.677 -0.4697 -1.8468 -1.1656
  529MOL0     H72994   1.915   1.810   4.740  1.2681  0.4032  3.3819
  529MOL0     H72995   1.996   1.819   4.575  0.7351 -0.6248 -0.2842
  529MOL0     H72996   1.977   1.568   4.654 -0.5673 -0.7847  1.0840
  529MOL0     H72997   2.081   1.612   4.793 -0.5240 -1.3097 -0.1763
  529MOL0     H72998   2.372   1.613   4.515  0.1583 -0.8689 -1.1419
  529MOL0     H72999   2.059   2.070   5.018 -0.7530 -0.1302  3.5832
  529MOL0     H73000   2.121   2.133   5.352 -1.6536  0.6232  0.4262
  529MOL0     H73001   2.008   2.070   5.247  0.2209  3.6149  1.1944
  529MOL0     H73002   2.116   1.958   5.325  0.5125  1.4661  1.4043
  530MOL0     O73003   9.820   0.760   1.316  0.0854 -0.3174  0.0059
  530MOL0     C73004   9.775   0.644   1.288  0.5651 -1.1215 -0.7041
  530MOL0     O73005   9.850   0.529   1.285 -0.0420  0.5792 -0.4885
  530MOL0     C73006   9.974   0.556   1.331  0.5958  0.4076 -0.6103
  530MOL0     C73007  10.081   0.573   1.245 -0.0899 -0.2594 -0.8186
  530MOL0     C73008  10.202   0.613   1.290  0.0018 -0.9281  0.3501
  530MOL0     C73009  10.220   0.645   1.431  1.0444 -0.7014 -0.3054
  530MOL0     O73010  10.351   0.674   1.468 -0.1824 -0.3211  0.5978
  530MOL0     C73011  10.383   0.667   1.610 -0.3175 -0.4803 -0.8312
  530MOL0     C73012  10.386   0.530   1.674  0.0581  0.3704 -0.7506
  530MOL0     C73013  10.516   0.451   1.680 -0.3774  0.4872  0.1039
  530MOL0     C73014  10.561   0.370   1.549 -0.6850 -0.2660  0.0702
  530MOL0     C73015  10.678   0.270   1.560 -0.0046 -0.2217 -0.2870
  530MOL0     C73016  10.618   0.144   1.619  0.3881 -0.5980  0.6343
  530MOL0     C73017  10.721   0.032   1.645  0.0927 -0.1797 -0.9528
  530MOL0     C73018  10.662  -0.088   1.710  0.2331  0.1760 -0.2554
  530MOL0     N73019  10.545  -0.141   1.646  0.2802 -0.5148  0.1447
  530MOL0     C73020  10.412  -0.104   1.682  0.3880 -0.2693  0.1198
  530MOL0     C73021  10.339  -0.163   1.578  0.0388  0.3592 -0.2044
  530MOL0     C73022  10.192  -0.181   1.573 -0.6733 -0.3440  0.0879
  530MOL0     C73023  10.159  -0.308   1.651  1.1203 -0.5816 -0.9388
  530MOL0     C73024  10.013  -0.344   1.621 -0.3672 -0.3906  0.5612
  530MOL0     C73025   9.980  -0.480   1.687 -0.4217 -0.1760  0.3100
  530MOL0     O73026  10.091  -0.574   1.693  0.5770  0.3846  0.1781
  530MOL0     C73027  10.107  -0.654   1.805  1.0501  0.7562 -0.2997
  530MOL0     C73028  10.018  -0.681   1.901  0.4959 -0.5499 -0.5174
  530MOL0     C73029  10.047  -0.752   2.020 -0.0274  0.5363 -0.3323
  530MOL0     C73030   9.941  -0.751   2.122 -0.7166 -0.1035  0.2068
  530MOL0     C73031  10.176  -0.805   2.040  0.2551  0.8108  0.4786
  530MOL0     C73032  10.215  -0.883   2.152 -0.6870  0.1952  0.0529
  530MOL0     O73033  10.350  -0.884   2.187 -0.0648 -0.3126  0.3754
  530MOL0     C73034  10.378  -0.925   2.322 -0.0489 -0.6589 -0.2089
  530MOL0     C73035  10.356  -0.838   2.428  0.8196  1.0803  0.8742
  530MOL0     C73036  10.391  -0.863   2.555 -0.9355  0.1240 -0.3969
  530MOL0     C73037  10.459  -0.990   2.587 -0.3289 -0.0541  0.1555
  530MOL0     O73038  10.516  -1.007   2.710 -0.0581 -0.4482  0.3762
  530MOL0     C73039  10.513  -1.146   2.753 -0.3317  0.4487 -0.5079
  530MOL0     C73040  10.592  -1.143   2.892 -0.4482 -1.1943 -0.4259
  530MOL0     C73041  10.631  -1.284   2.927 -0.1532 -0.0320  0.2503
  530MOL0     C73042  10.700  -1.292   3.069  0.6401  0.3345  0.1412
  530MOL0     C73043  10.711  -1.430   3.120 -0.5025 -0.4934 -0.5946
  530MOL0     C73044  10.823  -1.506   3.054 -0.2747 -0.5803 -0.6325
  530MOL0     C73045  10.837  -1.653   3.089  0.5453  1.1384  0.4192
  530MOL0     C73046  10.910  -1.673   3.223  0.2093 -0.1453  0.4454
  530MOL0    Cl73047  10.921  -1.842   3.257 -0.3802 -0.1813  0.2158
  530MOL0     C73048  10.474  -1.079   2.481  0.0515 -0.5407 -0.3115
  530MOL0     C73049  10.435  -1.049   2.351 -1.1972 -0.2986 -0.8486
  530MOL0     O73050  10.125  -0.934   2.217  0.2775  0.1551 -0.1605
  530MOL0     C73051  10.277  -0.772   1.937  0.7445 -0.6624 -0.0671
  530MOL0     C73052  10.241  -0.689   1.831  0.2583 -0.4854  0.4124
  530MOL0     N73053  10.427  -0.246   1.516  0.1598  0.0185  0.1453
  530MOL0     N73054  10.549  -0.239   1.554 -0.2197  0.6073 -0.2058
  530MOL0     C73055  10.113   0.629   1.519  0.3878  0.1455 -0.1746
  530MOL0     C73056   9.982   0.581   1.469 -0.4219 -1.5900 -0.1463
  530MOL0     C73057   9.638   0.634   1.224 -0.6685 -0.7005 -0.9509
  530MOL0     C73058   9.624   0.537   1.126 -0.4787  0.5151  0.1933
  530MOL0     C73059   9.509   0.524   1.053 -0.9053 -0.0910  0.3736
  530MOL0     C73060   9.396   0.606   1.083  1.2171  0.3561  1.3110
  530MOL0     O73061   9.294   0.588   1.003  0.3650  0.1737 -0.0235
  530MOL0     C73062   9.166   0.568   1.067  0.2061  0.3099  0.3853
  530MOL0     C73063   9.055   0.621   0.983  0.8520 -0.5087 -0.2666
  530MOL0     C73064   9.037   0.582   0.842 -0.4580 -0.2718 -0.4692
  530MOL0     C73065   8.898   0.633   0.788 -0.9566 -0.7626 -1.7930
  530MOL0     C73066   8.839   0.533   0.702 -0.4439 -0.2919 -0.3780
  530MOL0     C73067   8.800   0.453   0.624  0.2435 -0.8249 -0.0581
  530MOL0     C73068   9.407   0.699   1.186  0.1590  0.1566 -1.2899
  530MOL0     C73069   9.523   0.710   1.263  0.0563 -0.1130  0.0987
  530MOL0     C73070   9.524   0.799   1.375 -0.6048 -0.6573  0.3032
  530MOL0     H73071  10.071   0.569   1.136 -2.0260  0.6976 -0.7229
  530MOL0     H73072  10.288   0.623   1.224  0.3840 -2.5402  0.5664
  530MOL0     H73073  10.314   0.728   1.668 -1.2502 -2.5997  0.4154
  530MOL0     H73074  10.483   0.707   1.632 -1.7649  3.1645 -0.3126
  530MOL0     H73075  10.366   0.544   1.781  1.4141 -3.5332  0.1871
  530MOL0     H73076  10.319   0.455   1.630  2.1671 -1.1646 -1.5115
  530MOL0     H73077  10.592   0.522   1.715  2.3833 -3.9215  4.2671
  530MOL0     H73078  10.512   0.380   1.763 -0.7192 -0.1093 -0.4230
  530MOL0     H73079  10.473   0.315   1.515 -1.0176 -1.8266  3.0947
  530MOL0     H73080  10.603   0.444   1.480  2.8929 -0.2297  2.0359
  530MOL0     H73081  10.757   0.316   1.621  2.1835 -0.2215 -2.9644
  530MOL0     H73082  10.710   0.254   1.457  0.0609  2.8263 -0.8304
  530MOL0     H73083  10.573   0.170   1.715  0.5255 -0.1433  0.5764
  530MOL0     H73084  10.545   0.110   1.546  1.4920  0.9462 -1.2818
  530MOL0     H73085  10.805   0.071   1.704 -0.8271 -2.3285  2.0161
  530MOL0     H73086  10.768  -0.004   1.553  1.2090 -1.4991  0.0917
  530MOL0     H73087  10.745  -0.160   1.712 -1.8149 -2.3727 -1.5568
  530MOL0     H73088  10.638  -0.080   1.817  2.6322 -4.3085  0.8531
  530MOL0     H73089  10.392  -0.049   1.773  0.7327 -1.2848  0.8370
  530MOL0     H73090  10.154  -0.196   1.472  1.1437  1.1565 -0.8849
  530MOL0     H73091  10.142  -0.091   1.611  2.9914  2.7505 -1.6709
  530MOL0     H73092  10.217  -0.391   1.611 -1.8142 -3.2267 -0.1397
  530MOL0     H73093  10.185  -0.285   1.755  0.7012  2.0448 -1.3574
  530MOL0     H73094   9.938  -0.271   1.654 -0.3651 -0.3994  0.5852
  530MOL0     H73095  10.005  -0.350   1.512  0.6021 -2.2180  0.5624
  530MOL0     H73096   9.960  -0.444   1.788  0.2741 -0.2288  0.4716
  530MOL0     H73097   9.905  -0.530   1.625  1.0642 -1.6470 -0.3689
  530MOL0     H73098   9.919  -0.637   1.898  1.2534  1.1846 -2.9427
  530MOL0     H73099   9.875  -0.838   2.118 -0.2089 -0.5767  1.5387
  530MOL0     H73100   9.876  -0.665   2.104 -0.2578  0.3297  0.5773
  530MOL0     H73101   9.978  -0.738   2.224  1.3154 -0.0862 -0.4867
  530MOL0     H73102  10.300  -0.747   2.410 -3.9016 -1.2829  1.7165
  530MOL0     H73103  10.374  -0.779   2.622 -2.0101 -1.5045  1.4941
  530MOL0     H73104  10.415  -1.181   2.787  0.5043  0.6715  2.4641
  530MOL0     H73105  10.567  -1.210   2.683 -0.0557  0.5504 -0.3882
  530MOL0     H73106  10.681  -1.081   2.881 -0.9362 -0.4669 -0.2814
  530MOL0     H73107  10.525  -1.105   2.969  0.3268  0.1906 -0.4142
  530MOL0     H73108  10.705  -1.323   2.855  2.1759  2.2774  1.2060
  530MOL0     H73109  10.549  -1.355   2.937  0.5573 -0.7182  1.4582
  530MOL0     H73110  10.632  -1.242   3.140 -0.3835 -0.0537 -0.5410
  530MOL0     H73111  10.799  -1.247   3.058 -0.2339  1.8974 -2.0798
  530MOL0     H73112  10.736  -1.440   3.226 -0.3678 -1.7740 -0.7337
  530MOL0     H73113  10.612  -1.476   3.115 -0.1606 -1.1288 -2.0371
  530MOL0     H73114  10.917  -1.460   3.084  0.8806 -2.9987 -0.3050
  530MOL0     H73115  10.816  -1.501   2.945  3.0855  0.9872 -0.9170
  530MOL0     H73116  10.868  -1.695   2.993 -1.7959  1.3500 -0.4903
  530MOL0     H73117  10.732  -1.683   3.096  0.2927  2.0409  0.6821
  530MOL0     H73118  10.850  -1.631   3.304 -2.3704 -1.6988 -0.5230
  530MOL0     H73119  11.014  -1.643   3.216  0.7816 -2.0004  0.5165
  530MOL0     H73120  10.527  -1.172   2.492  0.0216 -0.5221  0.0052
  530MOL0     H73121  10.458  -1.104   2.260 -0.3000  0.4583 -1.0938
  530MOL0     H73122  10.382  -0.796   1.952  0.6676 -0.2400  1.2969
  530MOL0     H73123  10.313  -0.649   1.760  0.1945 -0.8156  0.1597
  530MOL0     H73124  10.118   0.657   1.624 -2.6207 -2.1983  0.7342
  530MOL0     H73125   9.901   0.586   1.542  2.0896  2.8697  2.8237
  530MOL0     H73126   9.708   0.486   1.078 -2.4683 -1.7056 -1.1397
  530MOL0     H73127   9.504   0.455   0.970  0.5833  3.2456 -2.7494
  530MOL0     H73128   9.146   0.462   1.081 -0.4717  0.6055  1.9499
  530MOL0     H73129   9.156   0.619   1.164 -4.1400  0.3322  0.0976
  530MOL0     H73130   9.073   0.730   0.982  3.8519 -0.8409 -3.3807
  530MOL0     H73131   8.966   0.602   1.043  1.8629  1.4127  2.0074
  530MOL0     H73132   9.130   0.614   0.795 -0.1090  0.7052  0.8519
  530MOL0     H73133   9.030   0.473   0.839 -1.9733 -0.2639  1.2371
  530MOL0     H73134   8.919   0.728   0.736  0.4523 -0.5998 -0.9926
  530MOL0     H73135   8.829   0.656   0.869 -1.3333 -1.1255 -2.0101
  530MOL0     H73136   8.767   0.372   0.561  2.3737 -1.3872 -0.5529
  530MOL0     H73137   9.319   0.755   1.216 -1.3683 -1.0330 -3.2393
  530MOL0     H73138   9.609   0.863   1.350  2.4287 -3.4237  2.5514
  530MOL0     H73139   9.431   0.856   1.384 -0.8594 -1.0728  0.3716
  530MOL0     H73140   9.530   0.730   1.460  0.3059 -1.7543 -0.6112
  531MOL0     O73141   4.745   4.748   6.786  0.5719  0.3100 -0.2299
  531MOL0     C73142   4.796   4.641   6.814 -0.9260 -1.0859 -0.6732
  531MOL0     O73143   4.766   4.559   6.918 -0.1522 -0.0411 -0.0663
  531MOL0     C73144   4.654   4.606   6.992  0.0623  0.6766  0.1651
  531MOL0     C73145   4.534   4.533   6.983  0.2234  0.4150 -0.2126
  531MOL0     C73146   4.425   4.561   7.067  0.4793 -0.1403  0.9685
  531MOL0     C73147   4.434   4.668   7.163  0.2746 -0.5637  0.7834
  531MOL0     O73148   4.346   4.705   7.257  0.3570 -0.2162  0.3818
  531MOL0     C73149   4.236   4.614   7.279 -0.2541  0.6086  0.7886
  531MOL0     C73150   4.136   4.670   7.374 -0.0469 -0.4783 -0.2762
  531MOL0     C73151   4.013   4.592   7.384 -0.2092  0.3105  0.1700
  531MOL0     C73152   3.935   4.604   7.510  0.0397 -0.5904  0.2915
  531MOL0     C73153   3.798   4.542   7.493 -1.0231 -0.2468 -0.5281
  531MOL0     C73154   3.791   4.389   7.480  0.3231 -0.4658 -0.2349
  531MOL0     C73155   3.653   4.329   7.513  0.4294 -0.0615 -0.3873
  531MOL0     C73156   3.650   4.180   7.529 -0.0276  0.3704  0.0780
  531MOL0     N73157   3.715   4.098   7.427 -0.3171 -0.5997  0.5428
  531MOL0     C73158   3.663   4.003   7.348 -0.2228 -1.0079  0.4418
  531MOL0     C73159   3.763   3.924   7.295  1.3426  0.4686 -0.8893
  531MOL0     C73160   3.771   3.789   7.222 -0.5860 -0.8907 -0.2661
  531MOL0     C73161   3.680   3.683   7.264  0.8346 -0.0499 -0.3398
  531MOL0     C73162   3.660   3.570   7.159 -0.0497  0.2098 -0.8661
  531MOL0     C73163   3.772   3.470   7.158 -0.3116 -0.4336  0.1093
  531MOL0     O73164   3.775   3.398   7.287 -0.3643 -0.0927  0.4460
  531MOL0     C73165   3.861   3.291   7.293 -0.1812  1.0619  0.0937
  531MOL0     C73166   3.891   3.192   7.186 -0.3519 -1.0202  0.6068
  531MOL0     C73167   3.985   3.096   7.210  0.9157  0.2995  0.2512
  531MOL0     C73168   4.044   3.022   7.090  0.9793 -0.3321  0.0434
  531MOL0     C73169   4.036   3.070   7.341 -0.2524 -0.5916 -1.3836
  531MOL0     C73170   4.138   2.961   7.388 -0.5076  0.1894  0.3669
  531MOL0     O73171   4.194   2.968   7.517  0.6070 -0.6722  0.3176
  531MOL0     C73172   4.281   2.873   7.550  1.3585  0.0292 -0.5427
  531MOL0     C73173   4.406   2.858   7.499 -0.6194 -0.0258  0.1538
  531MOL0     C73174   4.492   2.752   7.529 -0.2240 -0.7910  0.3399
  531MOL0     C73175   4.445   2.651   7.612  0.8807  0.1734  0.6534
  531MOL0     O73176   4.510   2.543   7.655 -0.4462  0.0065  0.5272
  531MOL0     C73177   4.642   2.508   7.615 -0.3451 -0.6238  0.6949
  531MOL0     C73178   4.679   2.372   7.669  0.0474  0.3484 -1.4200
  531MOL0     C73179   4.810   2.322   7.639  0.6136 -0.1136  0.5217
  531MOL0     C73180   4.837   2.172   7.674  0.1055 -0.2223  0.4297
  531MOL0     C73181   4.977   2.130   7.622  0.8027  0.1933 -0.8387
  531MOL0     C73182   5.046   2.023   7.688 -0.0189  0.5600 -0.9049
  531MOL0     C73183   4.955   1.897   7.712 -0.7118 -0.3110 -0.9015
  531MOL0     C73184   5.045   1.772   7.710  0.9978  0.4764  0.2816
  531MOL0    Cl73185   5.168   1.762   7.854 -0.0820  0.0548 -0.0776
  531MOL0     C73186   4.309   2.657   7.657  0.4816  0.8981 -0.5935
  531MOL0     C73187   4.235   2.772   7.630  0.1087 -0.0621  0.2592
  531MOL0     O73188   4.159   2.870   7.310 -0.3620  0.4791  0.0763
  531MOL0     C73189   4.005   3.168   7.443  0.2270  0.2817  0.5524
  531MOL0     C73190   3.929   3.275   7.412 -0.1161  0.1555 -0.2419
  531MOL0     N73191   3.875   3.989   7.332  0.6554  0.5729 -0.5740
  531MOL0     N73192   3.846   4.084   7.412  0.2650 -0.5910 -0.5669
  531MOL0     C73193   4.548   4.746   7.160  0.1513  0.7022  0.3028
  531MOL0     C73194   4.657   4.711   7.085  0.1718  0.0343 -0.0313
  531MOL0     C73195   4.910   4.594   6.715 -0.0513  0.0610 -0.8908
  531MOL0     C73196   4.957   4.676   6.607  0.1785 -0.0893  0.7901
  531MOL0     C73197   5.046   4.639   6.508 -0.0439 -0.4414 -0.2431
  531MOL0     C73198   5.107   4.516   6.522  0.6678  0.0215  1.3152
  531MOL0     O73199   5.192   4.464   6.422  0.4464  0.7404  0.0996
  531MOL0     C73200   5.319   4.527   6.410  1.3249 -0.2126 -0.6806
  531MOL0     C73201   5.416   4.411   6.404  0.1069 -1.2781 -0.7019
  531MOL0     C73202   5.411   4.319   6.523 -0.3641  0.0695  0.0447
  531MOL0     C73203   5.523   4.216   6.526 -0.2886 -0.1384  1.1294
  531MOL0     C73204   5.523   4.121   6.415  0.6940 -0.5738  1.1783
  531MOL0     C73205   5.534   4.039   6.329  0.2910  0.2916 -0.0248
  531MOL0     C73206   5.056   4.426   6.609 -0.3927  0.6865 -0.7019
  531MOL0     C73207   4.966   4.457   6.709 -1.2439  0.3310  0.2000
  531MOL0     C73208   4.911   4.343   6.790  0.1766 -1.6625  0.9618
  531MOL0     H73209   4.524   4.448   6.916 -0.6065 -0.3814  0.8709
  531MOL0     H73210   4.331   4.510   7.050  1.1636 -0.6817 -1.5999
  531MOL0     H73211   4.276   4.524   7.327  2.8702  0.1549 -2.2253
  531MOL0     H73212   4.191   4.588   7.183  4.5158 -0.4721 -1.4827
  531MOL0     H73213   4.193   4.681   7.467  0.6672 -0.5960 -0.6894
  531MOL0     H73214   4.105   4.767   7.337  2.2376 -0.5882 -2.8048
  531MOL0     H73215   3.961   4.624   7.293  1.9821  0.5322 -1.0854
  531MOL0     H73216   4.036   4.486   7.369 -0.9374  0.2685 -0.7835
  531MOL0     H73217   3.991   4.557   7.591  3.6273  0.2491 -1.5296
  531MOL0     H73218   3.922   4.708   7.541  2.5970 -0.0739 -0.1761
  531MOL0     H73219   3.751   4.579   7.402 -2.0798  0.9456  0.4564
  531MOL0     H73220   3.741   4.567   7.583  0.8770 -2.1661  1.3165
  531MOL0     H73221   3.818   4.360   7.378 -1.0957  0.4803 -0.9038
  531MOL0     H73222   3.877   4.363   7.543  3.0884  2.5530 -2.4117
  531MOL0     H73223   3.589   4.359   7.429  0.9664  1.4561 -0.2755
  531MOL0     H73224   3.604   4.381   7.595 -0.9753 -0.0008 -1.2386
  531MOL0     H73225   3.708   4.160   7.620 -1.3861 -0.6537  0.7626
  531MOL0     H73226   3.544   4.152   7.537  0.6028 -1.8609  1.6540
  531MOL0     H73227   3.557   3.980   7.343 -0.1268 -1.2436 -3.3598
  531MOL0     H73228   3.871   3.748   7.236  0.3418  0.3410 -2.7157
  531MOL0     H73229   3.760   3.805   7.114  0.3855 -2.6247 -0.6609
  531MOL0     H73230   3.709   3.642   7.361  0.2470  0.9469  0.2743
  531MOL0     H73231   3.584   3.732   7.280 -0.6446 -3.1458  1.2735
  531MOL0     H73232   3.581   3.506   7.198  0.5821  0.7356  1.4270
  531MOL0     H73233   3.632   3.609   7.061 -0.0822  1.7620 -0.2758
  531MOL0     H73234   3.740   3.404   7.077  1.4575  1.2040 -2.0381
  531MOL0     H73235   3.871   3.509   7.132  0.2670 -3.4671 -3.0944
  531MOL0     H73236   3.858   3.206   7.083 -1.5716  0.2196  1.1226
  531MOL0     H73237   4.149   3.051   7.094  0.7609  0.4065  3.0160
  531MOL0     H73238   3.993   3.049   6.997 -0.7181 -3.9232 -0.2601
  531MOL0     H73239   4.039   2.912   7.091  1.1760 -0.3682 -1.5457
  531MOL0     H73240   4.437   2.926   7.421 -2.4918  0.6763 -0.0430
  531MOL0     H73241   4.587   2.751   7.479 -0.1590  1.2787  0.3750
  531MOL0     H73242   4.646   2.504   7.506 -0.3543  3.2015  0.4119
  531MOL0     H73243   4.719   2.575   7.656  1.8259 -2.5540 -0.0032
  531MOL0     H73244   4.666   2.377   7.777  0.0744 -1.9128 -1.2791
  531MOL0     H73245   4.604   2.298   7.643  1.9291 -2.3774  0.4205
  531MOL0     H73246   4.887   2.369   7.701  0.8092 -0.9489  0.9257
  531MOL0     H73247   4.830   2.355   7.536 -2.2897  5.0188  1.2423
  531MOL0     H73248   4.767   2.097   7.636  0.4355  0.3621 -1.4542
  531MOL0     H73249   4.828   2.166   7.783 -2.4215  0.6730  0.3440
  531MOL0     H73250   4.972   2.094   7.518 -0.4888 -2.4987  0.0494
  531MOL0     H73251   5.044   2.216   7.621 -0.3888  1.1518 -1.9520
  531MOL0     H73252   5.095   2.057   7.780 -3.4152 -0.6713  1.5475
  531MOL0     H73253   5.135   1.999   7.628 -0.1681  1.6514 -1.5903
  531MOL0     H73254   4.898   1.891   7.619  0.1384  0.8278 -1.5235
  531MOL0     H73255   4.887   1.911   7.796  0.3830  4.3634 -0.4846
  531MOL0     H73256   5.097   1.770   7.614  2.0931 -0.2839  0.8813
  531MOL0     H73257   4.987   1.679   7.717 -1.1253  1.6729 -0.4209
  531MOL0     H73258   4.275   2.575   7.720  2.1280 -3.2975 -4.5932
  531MOL0     H73259   4.137   2.779   7.677  0.3486  2.1687  0.4998
  531MOL0     H73260   4.036   3.160   7.547 -1.0969 -0.7785  0.9019
  531MOL0     H73261   3.923   3.359   7.481  0.6148 -1.1191  1.4614
  531MOL0     H73262   4.567   4.820   7.237 -0.6995  2.6220 -1.2382
  531MOL0     H73263   4.741   4.775   7.108 -2.0503  2.0977  3.0647
  531MOL0     H73264   4.895   4.763   6.589 -1.5731 -1.7002 -1.5820
  531MOL0     H73265   5.074   4.721   6.442  0.5964  0.6286  1.2973
  531MOL0     H73266   5.322   4.591   6.321  1.0363  0.1018 -0.4644
  531MOL0     H73267   5.352   4.589   6.494  2.1685 -0.4316 -0.8469
  531MOL0     H73268   5.511   4.464   6.388 -1.8088  2.3875 -0.9757
  531MOL0     H73269   5.392   4.351   6.316  2.4100 -1.8281 -1.0238
  531MOL0     H73270   5.411   4.371   6.619 -2.0487 -3.3525  2.0878
  531MOL0     H73271   5.319   4.260   6.522 -2.0297  2.3093  3.1946
  531MOL0     H73272   5.523   4.167   6.623 -0.2984 -0.7565  0.8190
  531MOL0     H73273   5.611   4.280   6.516 -1.3324  1.0052 -3.5467
  531MOL0     H73274   5.545   3.952   6.268  2.1573  0.4125  0.0904
  531MOL0     H73275   5.086   4.322   6.598 -1.1123  0.4734 -0.7078
  531MOL0     H73276   4.802   4.346   6.778 -0.2569  3.4440  3.3876
  531MOL0     H73277   4.951   4.252   6.745  0.4729  1.1511 -5.7153
  531MOL0     H73278   4.937   4.355   6.896  1.5803  0.9274  0.4164
  532MOL0     O73279   3.456   1.248   1.526  0.1925 -0.3454  0.2174
  532MOL0     C73280   3.462   1.136   1.579 -0.3426 -0.6999  0.7474
  532MOL0     O73281   3.528   1.026   1.531 -1.2007 -0.4710 -0.3145
  532MOL0     C73282   3.606   1.040   1.418 -0.2997  0.2642  0.2429
  532MOL0     C73283   3.579   0.939   1.329  0.2038 -0.3824  0.4526
  532MOL0     C73284   3.639   0.944   1.202 -0.6116 -0.2347 -0.4337
  532MOL0     C73285   3.742   1.037   1.184 -0.0967 -0.5484  0.8522
  532MOL0     O73286   3.802   1.051   1.056  0.1779  1.4066  0.0949
  532MOL0     C73287   3.931   1.115   1.043  0.0079  0.4308  0.4846
  532MOL0     C73288   4.029   1.044   0.951 -0.0023 -0.3073 -0.4852
  532MOL0     C73289   4.057   0.899   0.992 -0.2672  0.1701 -0.7185
  532MOL0     C73290   3.944   0.802   0.963  0.5001  0.6366  0.4676
  532MOL0     C73291   3.978   0.662   0.998 -0.1042  0.1684 -0.1781
  532MOL0     C73292   3.967   0.632   1.154  0.1378  0.7299 -0.7390
  532MOL0     C73293   3.979   0.479   1.175 -0.0084 -0.2677 -0.8048
  532MOL0     C73294   3.879   0.406   1.087 -0.1547 -0.7573  0.2689
  532MOL0     N73295   3.855   0.277   1.125  0.7276  0.5325  0.0514
  532MOL0     C73296   3.925   0.164   1.090  0.1238  0.7202  0.2026
  532MOL0     C73297   3.853   0.058   1.154 -0.2278 -0.5827  0.9289
  532MOL0     C73298   3.903  -0.080   1.157 -0.2092 -0.0569  0.5299
  532MOL0     C73299   3.883  -0.157   1.032 -0.6094  0.0810  1.2725
  532MOL0     C73300   3.971  -0.099   0.905  0.3666 -0.3150  0.1374
  532MOL0     C73301   3.980  -0.199   0.782 -0.5075  0.1960 -0.2453
  532MOL0     O73302   3.854  -0.218   0.722 -0.3128 -0.1002  0.4646
  532MOL0     C73303   3.811  -0.125   0.631 -0.4120  0.2523  0.5692
  532MOL0     C73304   3.687  -0.148   0.574  0.0146 -0.8926  0.8258
  532MOL0     C73305   3.627  -0.062   0.485  0.0461 -0.4685 -0.2154
  532MOL0     C73306   3.501  -0.108   0.422  0.2184  0.0839 -0.1870
  532MOL0     C73307   3.697   0.057   0.446  0.6259  0.2799 -0.6995
  532MOL0     C73308   3.637   0.170   0.379  0.2678 -0.7850 -0.2105
  532MOL0     O73309   3.709   0.253   0.290 -1.0695  0.9339  0.0298
  532MOL0     C73310   3.809   0.178   0.225  0.4020  0.2707  0.1568
  532MOL0     C73311   3.941   0.228   0.250 -0.6654 -0.4633  0.0046
  532MOL0     C73312   4.045   0.172   0.177 -0.3964  0.3400 -0.0837
  532MOL0     C73313   4.019   0.071   0.075 -0.6142 -1.3966  0.2092
  532MOL0     O73314   4.120   0.009   0.000  0.0466  0.4633 -0.1475
  532MOL0     C73315   4.247   0.071  -0.003  1.4441  1.0390 -0.6333
  532MOL0     C73316   4.343  -0.007  -0.097 -0.3811 -0.3138 -0.6714
  532MOL0     C73317   4.396  -0.133  -0.035 -0.2914 -0.4061 -0.6259
  532MOL0     C73318   4.515  -0.176  -0.119 -0.0198  0.5810 -0.5728
  532MOL0     C73319   4.577  -0.295  -0.046  0.5615  0.0184  0.1534
  532MOL0     C73320   4.678  -0.361  -0.133 -0.5716 -0.7728 -0.1709
  532MOL0     C73321   4.749  -0.461  -0.052 -0.1297 -1.0222 -0.3854
  532MOL0     C73322   4.877  -0.514  -0.118  0.3989  1.0005  0.0780
  532MOL0    Cl73323   5.027  -0.395  -0.115  0.0544 -0.0796 -0.4273
  532MOL0     C73324   3.893   0.029   0.050 -0.7029  0.2771  0.0745
  532MOL0     C73325   3.785   0.083   0.131  0.5763 -0.5908 -0.1546
  532MOL0     O73326   3.526   0.199   0.414 -0.2578 -0.2865  0.6635
  532MOL0     C73327   3.824   0.084   0.501  0.8766  0.6315 -0.3768
  532MOL0     C73328   3.882  -0.014   0.587  0.1095  0.1690 -0.0326
  532MOL0     N73329   3.753   0.106   1.228  0.1937  0.5679 -0.2007
  532MOL0     N73330   3.749   0.237   1.198 -0.3067  0.2812 -0.3757
  532MOL0     C73331   3.777   1.137   1.283  0.4255 -0.6076 -0.6201
  532MOL0     C73332   3.704   1.134   1.401 -1.0638  0.2510 -0.2787
  532MOL0     C73333   3.386   1.117   1.709 -0.7044  0.3505 -0.4819
  532MOL0     C73334   3.256   1.170   1.728  0.7878 -0.0977  0.1777
  532MOL0     C73335   3.170   1.144   1.832  0.6259  0.8945  1.2139
  532MOL0     C73336   3.218   1.064   1.934  0.0995 -0.3015 -1.7122
  532MOL0     O73337   3.149   1.040   2.056  0.1574 -0.5051  0.1767
  532MOL0     C73338   3.195   0.936   2.151  0.4718 -0.5002 -0.3528
  532MOL0     C73339   3.091   0.940   2.261  0.1987  0.7208 -0.4266
  532MOL0     C73340   3.151   0.906   2.398  0.0268  0.2950 -0.3024
  532MOL0     C73341   3.074   0.963   2.514  0.2350 -0.0428  0.1504
  532MOL0     C73342   3.137   0.923   2.641  1.0134 -0.8137 -0.1411
  532MOL0     C73343   3.185   0.873   2.747  0.5908 -0.0093  0.0513
  532MOL0     C73344   3.350   1.015   1.925 -0.3361 -0.4680  0.8766
  532MOL0     C73345   3.434   1.038   1.814  0.6771  0.4766  0.1735
  532MOL0     C73346   3.555   0.955   1.812 -0.1636  0.1074 -0.2549
  532MOL0     H73347   3.495   0.873   1.345 -1.2658  0.8707 -1.6572
  532MOL0     H73348   3.614   0.874   1.123  1.9806  2.4526 -3.9839
  532MOL0     H73349   3.981   1.109   1.140 -1.0480  0.6117  1.0559
  532MOL0     H73350   3.916   1.221   1.020  0.9694  0.1255 -1.7505
  532MOL0     H73351   3.993   1.040   0.848  2.3952  0.7568 -1.4364
  532MOL0     H73352   4.112   1.115   0.951 -1.3359  1.3185  0.5511
  532MOL0     H73353   4.151   0.860   0.952 -0.0942 -0.9306  0.6797
  532MOL0     H73354   4.073   0.895   1.100 -0.3450 -3.6160 -0.6943
  532MOL0     H73355   3.858   0.828   1.025 -1.5864 -1.3279 -1.4123
  532MOL0     H73356   3.918   0.813   0.857  1.2604 -0.2141  0.1746
  532MOL0     H73357   4.079   0.628   0.976  0.4360 -2.9065  5.2584
  532MOL0     H73358   3.901   0.613   0.938 -0.4795 -0.6509  0.9445
  532MOL0     H73359   4.049   0.685   1.203  0.4492 -0.4401  0.0463
  532MOL0     H73360   3.868   0.671   1.181  0.5394  2.5461 -1.7185
  532MOL0     H73361   3.956   0.457   1.279 -3.6751  1.1114 -1.1866
  532MOL0     H73362   4.081   0.444   1.156 -1.0170 -2.9470 -1.7198
  532MOL0     H73363   3.781   0.456   1.082  0.6120  0.6605 -3.3507
  532MOL0     H73364   3.914   0.409   0.984  0.2370  1.7928  0.4134
  532MOL0     H73365   4.013   0.160   1.027 -0.3170 -3.3098 -0.4771
  532MOL0     H73366   3.847  -0.130   1.237  1.0797  1.3949  2.4196
  532MOL0     H73367   4.007  -0.095   1.187 -0.6201 -1.2287  1.4796
  532MOL0     H73368   3.917  -0.261   1.040 -3.8686 -1.3918 -1.6521
  532MOL0     H73369   3.778  -0.157   1.003 -0.4371  0.6539  0.6085
  532MOL0     H73370   3.903  -0.021   0.869 -0.6738 -1.9001 -1.4942
  532MOL0     H73371   4.071  -0.064   0.929  1.4074 -2.6018 -0.5327
  532MOL0     H73372   4.045  -0.164   0.701 -1.0390  0.0206 -0.7510
  532MOL0     H73373   4.016  -0.293   0.825  1.5711  0.6192 -0.8946
  532MOL0     H73374   3.629  -0.234   0.606 -0.8899 -0.6001  0.0381
  532MOL0     H73375   3.487  -0.066   0.322 -2.6364 -0.8093 -0.2626
  532MOL0     H73376   3.413  -0.072   0.477 -1.0123 -0.9179 -1.3958
  532MOL0     H73377   3.499  -0.217   0.424  0.2592 -0.0096 -2.4767
  532MOL0     H73378   3.957   0.313   0.316 -2.5809  1.7108 -2.1269
  532MOL0     H73379   4.135   0.223   0.210 -0.5658  1.4876 -1.3074
  532MOL0     H73380   4.225   0.169  -0.048 -1.6621  0.0264 -1.5630
  532MOL0     H73381   4.283   0.071   0.100 -2.5488  0.0906  0.9229
  532MOL0     H73382   4.279  -0.046  -0.177 -0.9066 -2.4649  0.7006
  532MOL0     H73383   4.426   0.058  -0.125 -0.2318 -0.6298 -0.9627
  532MOL0     H73384   4.320  -0.212  -0.028 -1.3979  0.5884 -1.0615
  532MOL0     H73385   4.440  -0.116   0.063 -0.7737 -2.3952 -0.0109
  532MOL0     H73386   4.586  -0.097  -0.145 -1.0392  1.3173 -1.2312
  532MOL0     H73387   4.477  -0.209  -0.216  0.4338 -1.9961  0.0549
  532MOL0     H73388   4.621  -0.259   0.047  0.2941 -1.3362  0.8292
  532MOL0     H73389   4.503  -0.371  -0.017  2.2244 -2.4904 -1.7029
  532MOL0     H73390   4.761  -0.294  -0.157 -0.2858 -1.0710 -0.0196
  532MOL0     H73391   4.622  -0.402  -0.218 -1.4395  1.7964 -0.9278
  532MOL0     H73392   4.671  -0.536  -0.036 -1.5300  0.3949 -0.1959
  532MOL0     H73393   4.784  -0.429   0.047 -3.0058 -1.5948  0.9320
  532MOL0     H73394   4.852  -0.543  -0.220 -0.2155 -0.7272  0.6732
  532MOL0     H73395   4.891  -0.612  -0.071 -2.1655  0.5434  0.0435
  532MOL0     H73396   3.887  -0.048  -0.026 -4.0152 -1.4190  1.8739
  532MOL0     H73397   3.679   0.067   0.113  0.6347  1.4507 -3.1472
  532MOL0     H73398   3.881   0.175   0.486  1.0370  0.4248 -1.0352
  532MOL0     H73399   3.982   0.004   0.624 -0.5060 -3.6694  4.4730
  532MOL0     H73400   3.855   1.213   1.282 -0.8332  0.7696  0.7840
  532MOL0     H73401   3.723   1.205   1.481  0.3339  1.4200 -1.6001
  532MOL0     H73402   3.227   1.246   1.655  2.0829 -1.8345 -2.2616
  532MOL0     H73403   3.071   1.186   1.847 -0.3940 -1.3498  1.3018
  532MOL0     H73404   3.190   0.838   2.103  1.2465 -1.2580  1.0623
  532MOL0     H73405   3.295   0.947   2.193 -1.3443  0.5897  4.3500
  532MOL0     H73406   3.011   0.870   2.235  0.9413  0.0268 -0.8930
  532MOL0     H73407   3.048   1.041   2.258 -0.1429  0.5833 -0.2550
  532MOL0     H73408   3.149   0.797   2.406 -2.0604  0.1632 -1.6662
  532MOL0     H73409   3.249   0.952   2.412  0.3540 -1.0948  2.6364
  532MOL0     H73410   2.970   0.932   2.512  0.3358 -0.3523 -0.9000
  532MOL0     H73411   3.083   1.072   2.506  0.0742 -0.1012 -0.9475
  532MOL0     H73412   3.227   0.859   2.844 -3.1039 -3.8681  1.4026
  532MOL0     H73413   3.377   0.937   1.996  0.7381 -1.4957 -0.6119
  532MOL0     H73414   3.584   0.911   1.908 -0.7267  1.2685  0.4601
  532MOL0     H73415   3.537   0.878   1.736 -1.7696  0.1237  0.0802
  532MOL0     H73416   3.637   1.019   1.777 -1.4004  1.6370 -0.4627
  533MOL0     O73417   3.086  10.123   7.580 -0.2782  0.5656  0.1537
  533MOL0     C73418   3.149  10.046   7.506  0.0901 -0.2301  0.0401
  533MOL0     O73419   3.227   9.949   7.539  0.0914  0.7455 -0.5025
  533MOL0     C73420   3.206   9.901   7.665  0.5275  0.0888 -0.7250
  533MOL0     C73421   3.242   9.958   7.796  0.5807  0.0621 -0.3980
  533MOL0     C73422   3.228   9.887   7.922  1.5134 -0.4220  0.4435
  533MOL0     C73423   3.158   9.768   7.927  0.0345  0.4439 -1.1103
  533MOL0     O73424   3.139   9.703   8.047 -0.2439 -0.0953  0.1153
  533MOL0     C73425   3.179   9.576   8.069  0.2735  0.8029  0.4923
  533MOL0     C73426   3.272   9.584   8.191  0.2025  0.6751 -0.7206
  533MOL0     C73427   3.287   9.438   8.251 -0.3395 -0.4389 -0.4381
  533MOL0     C73428   3.397   9.357   8.182  0.9811  0.9074 -0.3986
  533MOL0     C73429   3.410   9.206   8.204 -0.7961  0.6304  0.1764
  533MOL0     C73430   3.519   9.154   8.099 -0.6981  0.2151  0.1313
  533MOL0     C73431   3.527   9.004   8.099 -0.8677 -0.1015 -0.3719
  533MOL0     C73432   3.638   8.945   8.008  0.0418  0.2106  0.5681
  533MOL0     N73433   3.640   8.798   8.011  0.4299 -0.1071  0.2962
  533MOL0     C73434   3.575   8.717   7.921 -0.7827  0.7931 -0.1128
  533MOL0     C73435   3.588   8.589   7.975 -0.1539 -0.6154  1.5168
  533MOL0     C73436   3.531   8.468   7.918  0.7180 -0.4901  0.3232
  533MOL0     C73437   3.639   8.401   7.839 -0.6909  1.2515  0.6577
  533MOL0     C73438   3.578   8.294   7.738 -0.0456 -0.0120  0.2883
  533MOL0     C73439   3.535   8.168   7.807 -0.1787  0.0309 -0.1053
  533MOL0     O73440   3.394   8.145   7.827  0.1623 -0.2258 -0.4044
  533MOL0     C73441   3.302   8.161   7.726  0.3737 -0.6451  0.2845
  533MOL0     C73442   3.165   8.168   7.759 -0.1032  0.2928 -0.3404
  533MOL0     C73443   3.061   8.171   7.666  0.7097 -0.5775 -0.3851
  533MOL0     C73444   2.922   8.190   7.729  0.3061 -0.0205 -0.5761
  533MOL0     C73445   3.097   8.177   7.528 -0.6464  0.8971  0.9037
  533MOL0     C73446   2.997   8.186   7.422  1.0065 -0.9106  0.4369
  533MOL0     O73447   2.865   8.210   7.455  0.3298  0.8525  0.1181
  533MOL0     C73448   2.765   8.232   7.366 -0.6128  0.3965  0.4905
  533MOL0     C73449   2.766   8.190   7.231  0.0773  1.9889 -0.5099
  533MOL0     C73450   2.645   8.181   7.160 -0.0524  0.3933  0.0259
  533MOL0     C73451   2.522   8.211   7.217 -0.8815 -0.7195  0.0400
  533MOL0     O73452   2.407   8.220   7.143 -0.5437  0.0690 -0.3771
  533MOL0     C73453   2.421   8.282   7.012  1.3516  0.1428  0.3414
  533MOL0     C73454   2.280   8.275   6.939  0.0557 -1.1379  0.8619
  533MOL0     C73455   2.159   8.261   7.029  0.5693  0.5365 -0.7335
  533MOL0     C73456   2.128   8.395   7.089  0.3651  0.1561  0.1615
  533MOL0     C73457   2.032   8.399   7.211  0.7541  0.3903  0.2347
  533MOL0     C73458   1.896   8.337   7.186  0.8056  0.6777  0.3550
  533MOL0     C73459   1.792   8.371   7.292 -1.3905  0.0999 -0.2364
  533MOL0     C73460   1.654   8.310   7.258 -0.0180 -1.6610  1.1753
  533MOL0    Cl73461   1.667   8.134   7.257 -0.0665  0.0689 -0.2134
  533MOL0     C73462   2.524   8.259   7.352 -0.5055 -0.7734  0.2604
  533MOL0     C73463   2.642   8.250   7.422  0.0510  0.5467 -0.8610
  533MOL0     O73464   3.045   8.186   7.305 -0.0807  0.6133 -0.0051
  533MOL0     C73465   3.231   8.171   7.496 -0.4290 -0.1496  0.2944
  533MOL0     C73466   3.331   8.169   7.595 -0.6079 -0.3597  0.0478
  533MOL0     N73467   3.665   8.591   8.090 -0.4834 -0.7393 -1.0317
  533MOL0     N73468   3.696   8.723   8.102  0.0997 -0.6174  0.0440
  533MOL0     C73469   3.121   9.713   7.808  0.2313 -1.3349  0.4312
  533MOL0     C73470   3.139   9.779   7.678  0.2237 -0.0639  0.0013
  533MOL0     C73471   3.147  10.096   7.366 -0.7379 -0.3084 -0.6520
  533MOL0     C73472   3.255  10.068   7.288  0.5970  0.7733 -1.0667
  533MOL0     C73473   3.267  10.129   7.164  0.3113  0.4480  0.2555
  533MOL0     C73474   3.153  10.197   7.104 -0.5427 -0.2800  0.1120
  533MOL0     O73475   3.167  10.258   6.980  0.5271  0.2097 -0.3276
  533MOL0     C73476   3.113  10.388   6.970  0.1082 -0.1559  0.4756
  533MOL0     C73477   3.219  10.468   6.920 -0.2655  0.2605 -0.3383
  533MOL0     C73478   3.175  10.614   6.901 -0.1504 -0.1840 -0.0403
  533MOL0     C73479   3.299  10.701   6.853 -0.3295  1.2187 -0.2170
  533MOL0     C73480   3.396  10.747   6.955  0.4390 -1.0502  0.4679
  533MOL0     C73481   3.465  10.812   7.032  0.9580 -1.3871 -0.0783
  533MOL0     C73482   3.042  10.209   7.184 -0.1215  0.3905 -0.1328
  533MOL0     C73483   3.029  10.145   7.301  0.2853 -0.8024 -0.2247
  533MOL0     C73484   2.886  10.156   7.366 -0.4058  0.2849  0.6585
  533MOL0     H73485   3.294  10.053   7.798 -0.3558  0.5760  0.5506
  533MOL0     H73486   3.279   9.931   8.007 -0.3982  3.4242 -0.1702
  533MOL0     H73487   3.237   9.538   7.984  0.9295 -0.1308  1.3417
  533MOL0     H73488   3.109   9.493   8.081 -2.0907  2.8775  2.0419
  533MOL0     H73489   3.369   9.612   8.147  1.8865 -3.9383 -0.4830
  533MOL0     H73490   3.234   9.651   8.269  1.1034 -0.3938  0.6893
  533MOL0     H73491   3.293   9.444   8.360 -3.1484 -2.1052 -0.0755
  533MOL0     H73492   3.195   9.380   8.235 -0.6037  0.0309 -0.6205
  533MOL0     H73493   3.378   9.367   8.074 -0.0209 -0.3870 -0.3661
  533MOL0     H73494   3.492   9.406   8.202 -1.2548  4.7107  2.1169
  533MOL0     H73495   3.314   9.155   8.192  0.7616 -2.7696  0.8981
  533MOL0     H73496   3.434   9.187   8.309  2.0243  1.9275 -0.1263
  533MOL0     H73497   3.488   9.184   7.998 -2.5843 -2.2192 -0.1159
  533MOL0     H73498   3.614   9.195   8.133 -0.9119  1.1123 -0.3196
  533MOL0     H73499   3.426   8.966   8.080 -1.1018 -0.8275  2.0035
  533MOL0     H73500   3.551   8.975   8.202  0.1396  0.3969 -0.4554
  533MOL0     H73501   3.618   8.990   7.910  0.7948 -2.0157 -0.6806
  533MOL0     H73502   3.734   8.988   8.038  0.2549  0.4673 -0.4590
  533MOL0     H73503   3.531   8.756   7.830  1.3869  1.9252 -0.7214
  533MOL0     H73504   3.445   8.479   7.851 -1.0988  1.1140  2.7382
  533MOL0     H73505   3.504   8.407   8.004 -4.4226  0.0857 -0.5696
  533MOL0     H73506   3.695   8.463   7.768 -0.5468  0.7055  0.2836
  533MOL0     H73507   3.705   8.353   7.912  0.1319  0.8845 -0.2872
  533MOL0     H73508   3.495   8.332   7.678 -0.6817 -3.5958 -1.3715
  533MOL0     H73509   3.651   8.266   7.661  1.2318  1.1196  1.0387
  533MOL0     H73510   3.566   8.072   7.764 -0.6458  0.4188 -1.3689
  533MOL0     H73511   3.577   8.174   7.908 -1.8792  1.7221  0.5577
  533MOL0     H73512   3.138   8.152   7.863 -0.7836  0.4268 -0.4946
  533MOL0     H73513   2.856   8.118   7.680  0.9274 -1.9482  1.2381
  533MOL0     H73514   2.883   8.291   7.715  0.7947  0.3286  0.4759
  533MOL0     H73515   2.918   8.153   7.832 -0.1819 -1.0710 -0.9555
  533MOL0     H73516   2.858   8.178   7.176  1.2848  5.0948  0.6179
  533MOL0     H73517   2.635   8.138   7.061 -1.6658 -0.2823  0.4669
  533MOL0     H73518   2.457   8.385   7.025  0.2427  0.3241  2.3615
  533MOL0     H73519   2.484   8.228   6.940 -0.0955  0.8345 -1.5229
  533MOL0     H73520   2.270   8.365   6.878  2.5003 -0.1406  1.7749
  533MOL0     H73521   2.283   8.194   6.865 -0.1635  0.5735 -1.1079
  533MOL0     H73522   2.186   8.190   7.108  0.2271  2.0487  0.7996
  533MOL0     H73523   2.071   8.221   6.979 -1.8073  1.2478  2.5872
  533MOL0     H73524   2.105   8.469   7.012  1.5927 -1.9294 -2.3642
  533MOL0     H73525   2.220   8.434   7.134  0.2523  1.7714 -0.9318
  533MOL0     H73526   2.086   8.343   7.287  3.3373  2.0584 -0.2230
  533MOL0     H73527   2.030   8.502   7.247  0.6630  0.3945  0.2163
  533MOL0     H73528   1.915   8.230   7.180  0.9924  0.5873  2.0290
  533MOL0     H73529   1.871   8.384   7.090  0.9342  3.6877  1.6794
  533MOL0     H73530   1.785   8.479   7.308  3.1964  0.5582  0.0900
  533MOL0     H73531   1.820   8.318   7.384  1.5916  0.9048 -0.5746
  533MOL0     H73532   1.619   8.345   7.161 -1.0120 -1.3701  1.6321
  533MOL0     H73533   1.577   8.353   7.322 -0.2165  1.7361 -1.1036
  533MOL0     H73534   2.430   8.295   7.393 -0.4683 -1.1120  0.6531
  533MOL0     H73535   2.641   8.305   7.515  0.6818  1.5324 -1.4198
  533MOL0     H73536   3.262   8.164   7.392 -1.5915  1.6132 -0.2223
  533MOL0     H73537   3.433   8.146   7.565  0.2380  3.0776 -0.2080
  533MOL0     H73538   3.072   9.616   7.819  1.0855 -1.6485  1.5922
  533MOL0     H73539   3.109   9.737   7.583  1.3942  0.8560 -0.8110
  533MOL0     H73540   3.333  10.009   7.334 -0.1604  1.6119  1.4773
  533MOL0     H73541   3.361  10.131   7.109 -0.0657  1.2851 -0.3825
  533MOL0     H73542   3.041  10.388   6.887  2.3934  3.2970 -1.7649
  533MOL0     H73543   3.067  10.432   7.059  1.3689  0.5455  0.8038
  533MOL0     H73544   3.262  10.426   6.828  2.1942  1.3620  0.2375
  533MOL0     H73545   3.290  10.463   7.003 -2.0020 -0.1982  1.1725
  533MOL0     H73546   3.098  10.618   6.823  0.3850 -1.5375 -0.6562
  533MOL0     H73547   3.127  10.646   6.994  0.3539 -1.5195  0.6980
  533MOL0     H73548   3.263  10.792   6.805 -1.9760  0.5077 -0.3939
  533MOL0     H73549   3.359  10.644   6.782 -0.0606  2.3966 -0.9672
  533MOL0     H73550   3.523  10.868   7.104 -0.0468  1.5807 -1.3974
  533MOL0     H73551   2.959  10.269   7.146 -0.5468  1.1681  1.9003
  533MOL0     H73552   2.869  10.061   7.417 -3.4840  1.0367  1.2504
  533MOL0     H73553   2.901  10.245   7.428  3.1215  1.2067 -1.2295
  533MOL0     H73554   2.801  10.165   7.297 -2.1276  0.4440  2.6806
  534MOL0     O73555   5.972   4.032   7.476  0.2391  0.2232  0.0469
  534MOL0     C73556   6.048   3.937   7.501  0.1538 -0.0330  0.3833
  534MOL0     O73557   6.190   3.935   7.471  0.3079  0.1829 -0.3201
  534MOL0     C73558   6.262   4.049   7.439 -0.1926  0.2662  0.4424
  534MOL0     C73559   6.222   4.172   7.500 -0.8105 -0.5461  0.1283
  534MOL0     C73560   6.303   4.287   7.471  0.1633  0.3791 -0.3230
  534MOL0     C73561   6.410   4.282   7.380  0.4622 -0.1163  0.4068
  534MOL0     O73562   6.493   4.387   7.357  0.1054  0.2569 -0.5517
  534MOL0     C73563   6.511   4.483   7.465 -0.8928  0.8069  0.0637
  534MOL0     C73564   6.418   4.609   7.464  0.2995  0.0422 -0.2721
  534MOL0     C73565   6.433   4.691   7.592 -0.0320 -0.1738 -0.3463
  534MOL0     C73566   6.571   4.764   7.599 -0.2271  0.0665  0.5929
  534MOL0     C73567   6.575   4.854   7.724 -0.4835 -0.9921 -0.1021
  534MOL0     C73568   6.714   4.931   7.750  0.1525  0.1664  0.3211
  534MOL0     C73569   6.765   5.013   7.629 -0.4733 -0.2343  0.0948
  534MOL0     C73570   6.668   5.125   7.585  0.4422  0.8314  0.7185
  534MOL0     N73571   6.623   5.216   7.693  0.2172 -0.4981  0.6274
  534MOL0     C73572   6.568   5.336   7.664  0.2129 -0.7084  0.0964
  534MOL0     C73573   6.588   5.417   7.766  0.8588  0.4322 -0.1579
  534MOL0     C73574   6.552   5.560   7.770 -0.5582  0.8009  0.0270
  534MOL0     C73575   6.582   5.618   7.903  0.0612  0.2233 -1.0043
  534MOL0     C73576   6.536   5.767   7.910  0.3964 -0.6860  0.1551
  534MOL0     C73577   6.590   5.832   8.035 -0.6794 -0.8503  0.5364
  534MOL0     O73578   6.593   5.976   8.017 -0.0094 -0.0191 -0.1825
  534MOL0     C73579   6.639   6.053   8.119  0.1992 -0.6536 -0.2422
  534MOL0     C73580   6.678   6.177   8.090 -0.3285 -0.3129  0.5277
  534MOL0     C73581   6.741   6.264   8.174  0.4222 -0.1492  0.7879
  534MOL0     C73582   6.801   6.387   8.098  0.6798  0.3098 -0.2756
  534MOL0     C73583   6.762   6.230   8.308 -0.1732 -0.2220 -0.9701
  534MOL0     C73584   6.812   6.326   8.407  0.7030 -0.3392 -0.4286
  534MOL0     O73585   6.829   6.278   8.537 -0.3334 -0.4969 -0.2561
  534MOL0     C73586   6.839   6.364   8.644  0.4626 -0.5611 -0.5968
  534MOL0     C73587   6.761   6.483   8.655 -0.6870 -0.0887  1.2043
  534MOL0     C73588   6.755   6.548   8.780  0.2814  0.1196  0.0780
  534MOL0     C73589   6.844   6.515   8.893  1.0928 -0.2498  0.4845
  534MOL0     O73590   6.851   6.577   9.015  0.0657  0.4563  0.0367
  534MOL0     C73591   6.774   6.689   9.049  0.4994 -0.1149 -0.1262
  534MOL0     C73592   6.807   6.742   9.192 -0.4245  0.3135  0.6305
  534MOL0     C73593   6.772   6.890   9.216 -0.3120  0.4981  0.9343
  534MOL0     C73594   6.750   6.927   9.360  0.0356  0.4172 -0.9936
  534MOL0     C73595   6.816   7.069   9.390 -0.7106  1.0854  0.7135
  534MOL0     C73596   6.722   7.183   9.374 -0.2478  0.1869  0.3711
  534MOL0     C73597   6.677   7.194   9.231 -0.1286 -0.2505 -0.0658
  534MOL0     C73598   6.626   7.326   9.213  0.4283  0.6203  0.3091
  534MOL0    Cl73599   6.474   7.354   9.297  0.1147 -0.1466 -0.1078
  534MOL0     C73600   6.914   6.388   8.885  0.3066  0.2424  0.4705
  534MOL0     C73601   6.915   6.325   8.757 -0.4314  0.5605 -0.4770
  534MOL0     O73602   6.826   6.441   8.371  0.1980 -0.1895  0.1031
  534MOL0     C73603   6.717   6.099   8.346  0.8876  1.1244 -0.6009
  534MOL0     C73604   6.650   6.013   8.255  1.0752  0.6938 -0.2581
  534MOL0     N73605   6.658   5.350   7.863 -0.1370  0.0208  0.2956
  534MOL0     N73606   6.691   5.236   7.813 -0.2224 -0.0036 -0.2301
  534MOL0     C73607   6.444   4.160   7.318 -0.5156 -0.1667 -0.0662
  534MOL0     C73608   6.378   4.042   7.353  0.9892  0.7559  0.4961
  534MOL0     C73609   5.981   3.816   7.552  0.0001 -0.8302 -1.4422
  534MOL0     C73610   6.043   3.691   7.536 -0.2863  0.3608 -0.6864
  534MOL0     C73611   5.979   3.575   7.574  1.8310 -0.5212  0.0984
  534MOL0     C73612   5.862   3.583   7.649  1.1703  0.8806 -0.4958
  534MOL0     O73613   5.812   3.472   7.709 -1.5044 -0.1514  0.7463
  534MOL0     C73614   5.739   3.405   7.605  0.1867  0.4582 -0.6965
  534MOL0     C73615   5.620   3.335   7.671  0.1582 -0.1414  0.1450
  534MOL0     C73616   5.506   3.431   7.720  0.0426  0.1023 -0.5962
  534MOL0     C73617   5.374   3.358   7.712  0.1766 -0.0344 -0.0402
  534MOL0     C73618   5.346   3.354   7.564 -0.1269  1.2775 -0.0327
  534MOL0     C73619   5.330   3.354   7.443  0.4311  0.2561  0.3019
  534MOL0     C73620   5.799   3.705   7.672  0.1916 -0.3536  0.6686
  534MOL0     C73621   5.849   3.818   7.610  0.4840 -0.0795 -0.6997
  534MOL0     C73622   5.758   3.934   7.612  0.2008  0.6498  0.4285
  534MOL0     H73623   6.144   4.183   7.575  0.0826  2.1876  0.7485
  534MOL0     H73624   6.278   4.378   7.525  2.2145 -0.2072  1.7891
  534MOL0     H73625   6.613   4.518   7.445 -0.8253  1.3373  1.2502
  534MOL0     H73626   6.520   4.437   7.563 -4.3173 -0.9578 -0.3149
  534MOL0     H73627   6.436   4.672   7.377 -0.4670  1.5877  0.6431
  534MOL0     H73628   6.318   4.564   7.459 -1.3323  3.3809 -0.7648
  534MOL0     H73629   6.352   4.765   7.598 -0.3504 -0.5628  0.1816
  534MOL0     H73630   6.417   4.627   7.678  4.1273 -2.4292 -1.0044
  534MOL0     H73631   6.655   4.694   7.596  0.6376  1.0806 -2.1330
  534MOL0     H73632   6.579   4.834   7.515  0.4516 -1.6939 -0.8851
  534MOL0     H73633   6.553   4.786   7.808 -0.4905 -2.9554 -1.6096
  534MOL0     H73634   6.501   4.934   7.712  3.0746  2.2462 -2.6660
  534MOL0     H73635   6.699   4.984   7.844  1.0455 -3.0428  2.4389
  534MOL0     H73636   6.784   4.853   7.782 -0.3279 -0.3032  0.2492
  534MOL0     H73637   6.802   4.947   7.550 -1.1729  0.9281 -1.2511
  534MOL0     H73638   6.857   5.064   7.657 -0.1589 -1.7340  2.0762
  534MOL0     H73639   6.713   5.180   7.501 -0.3874  3.1319  1.7025
  534MOL0     H73640   6.581   5.070   7.549  1.4326 -1.6094  1.8149
  534MOL0     H73641   6.531   5.361   7.566  2.1552 -2.3562 -1.1439
  534MOL0     H73642   6.445   5.572   7.748 -0.2807  1.3598 -1.0953
  534MOL0     H73643   6.612   5.621   7.701 -1.3647  0.8610 -0.6402
  534MOL0     H73644   6.532   5.558   7.979  4.1161 -2.5334 -0.1835
  534MOL0     H73645   6.690   5.620   7.924  0.6433 -1.6942 -3.3568
  534MOL0     H73646   6.571   5.816   7.818  1.0704 -0.0170  0.7564
  534MOL0     H73647   6.427   5.774   7.915  0.4206 -1.0277  1.6354
  534MOL0     H73648   6.535   5.787   8.119  1.8897 -1.2220  2.1456
  534MOL0     H73649   6.692   5.795   8.055 -0.4735 -0.6101 -0.0663
  534MOL0     H73650   6.656   6.203   7.987 -0.1267  1.1401  0.8353
  534MOL0     H73651   6.795   6.372   7.990  0.3434 -1.7525 -0.0008
  534MOL0     H73652   6.907   6.378   8.124  0.5544 -2.2233 -0.3774
  534MOL0     H73653   6.746   6.478   8.127 -0.0737 -0.4075  0.6091
  534MOL0     H73654   6.700   6.527   8.576  0.1627  2.0240  1.6567
  534MOL0     H73655   6.691   6.634   8.794 -1.1474 -0.9498  0.4322
  534MOL0     H73656   6.788   6.769   8.976 -0.1251  0.2458  0.1418
  534MOL0     H73657   6.666   6.670   9.048  0.6328 -0.9190 -0.3130
  534MOL0     H73658   6.751   6.676   9.260  2.1309 -3.8305 -0.8810
  534MOL0     H73659   6.913   6.732   9.217  0.0805  2.7792 -0.2863
  534MOL0     H73660   6.681   6.902   9.158 -0.7072 -0.0237  1.4399
  534MOL0     H73661   6.857   6.949   9.179 -1.6220  2.2447  0.5539
  534MOL0     H73662   6.806   6.848   9.411  2.1011  2.1584 -0.3754
  534MOL0     H73663   6.644   6.924   9.387  0.3223 -3.6250  0.3438
  534MOL0     H73664   6.833   7.067   9.498 -3.3020 -2.4331  1.2299
  534MOL0     H73665   6.912   7.082   9.339 -1.4113  1.1024 -0.6451
  534MOL0     H73666   6.786   7.269   9.395  1.4270 -1.5217  2.8163
  534MOL0     H73667   6.639   7.179   9.445 -2.1016  1.3634 -1.5956
  534MOL0     H73668   6.595   7.128   9.205 -1.5046  2.3002 -2.7877
  534MOL0     H73669   6.759   7.169   9.164  2.2739 -1.0634  2.9160
  534MOL0     H73670   6.599   7.340   9.108 -0.3253 -0.8884  0.2772
  534MOL0     H73671   6.701   7.399   9.245 -1.5938  2.2022  1.7001
  534MOL0     H73672   6.964   6.341   8.970 -2.1884 -2.1376  0.7705
  534MOL0     H73673   6.971   6.233   8.745  1.0982  1.2273  1.1452
  534MOL0     H73674   6.748   6.057   8.441  1.6865  0.7623 -1.0084
  534MOL0     H73675   6.624   5.913   8.289  3.4253 -0.4300 -1.4635
  534MOL0     H73676   6.538   4.156   7.264  1.7140 -2.9599  3.5567
  534MOL0     H73677   6.411   3.951   7.304 -2.2431 -0.8159  1.0083
  534MOL0     H73678   6.143   3.680   7.496 -0.2075 -1.7981 -0.0034
  534MOL0     H73679   6.033   3.483   7.556  3.2572  0.0842  1.1033
  534MOL0     H73680   5.698   3.480   7.537 -0.5559  1.2941  0.6302
  534MOL0     H73681   5.805   3.328   7.564  0.3401 -1.2078  2.4129
  534MOL0     H73682   5.661   3.281   7.757 -4.4270 -1.4442  1.8202
  534MOL0     H73683   5.591   3.273   7.585  3.7719 -0.7236 -0.8301
  534MOL0     H73684   5.522   3.463   7.823 -0.4826  1.7426 -0.9891
  534MOL0     H73685   5.503   3.526   7.665  1.8232  0.9814  0.7324
  534MOL0     H73686   5.286   3.408   7.753  0.1906 -0.7847  0.9353
  534MOL0     H73687   5.383   3.257   7.753 -2.4155 -0.3420 -0.0269
  534MOL0     H73688   5.318   3.363   7.337 -2.4255  0.2341  0.5231
  534MOL0     H73689   5.699   3.710   7.714 -1.9194  1.0225 -3.8876
  534MOL0     H73690   5.678   3.920   7.685 -0.3138  0.8461 -0.0924
  534MOL0     H73691   5.804   4.024   7.655  0.3429  1.1836 -0.7984
  534MOL0     H73692   5.711   3.944   7.514  0.8646  1.6721  0.1971
  535MOL0     O73693   1.678   7.154   6.415  0.0407  0.3368 -0.9593
  535MOL0     C73694   1.686   7.205   6.531 -0.2658  0.6873 -0.0461
  535MOL0     O73695   1.793   7.188   6.615  0.1678  0.2726 -0.5886
  535MOL0     C73696   1.900   7.103   6.587  0.9178 -0.3234  0.3455
  535MOL0     C73697   1.890   6.982   6.518  0.1487  0.3093  0.4031
  535MOL0     C73698   1.995   6.893   6.495  0.3747  0.6081 -0.0810
  535MOL0     C73699   2.122   6.922   6.546  1.4372 -0.7477 -0.2646
  535MOL0     O73700   2.234   6.849   6.512  0.1034  0.0967  0.5559
  535MOL0     C73701   2.215   6.717   6.464 -0.4149  0.4238  0.1566
  535MOL0     C73702   2.337   6.634   6.502 -0.8434  0.2288 -0.0320
  535MOL0     C73703   2.470   6.689   6.442  0.7235  0.7067  0.5331
  535MOL0     C73704   2.494   6.657   6.291  1.2528 -0.0406 -0.3929
  535MOL0     C73705   2.596   6.743   6.223 -0.0221 -0.7371  0.5171
  535MOL0     C73706   2.585   6.748   6.068  0.2372  1.1706  0.1129
  535MOL0     C73707   2.588   6.609   5.998  0.0927  0.4314 -0.2888
  535MOL0     C73708   2.723   6.529   5.975 -0.7290  0.4218  0.7172
  535MOL0     N73709   2.720   6.419   5.883  0.3678  0.2210  0.5076
  535MOL0     C73710   2.808   6.406   5.781 -0.2613 -0.0002 -0.9551
  535MOL0     C73711   2.750   6.324   5.693 -0.5196 -0.1852 -0.3175
  535MOL0     C73712   2.792   6.301   5.558  0.0248  0.0767 -0.6644
  535MOL0     C73713   2.881   6.420   5.499  0.3770  0.1234 -0.3862
  535MOL0     C73714   3.033   6.394   5.516  0.2737 -0.2398  0.8058
  535MOL0     C73715   3.104   6.519   5.456 -0.1832  0.5113  1.5184
  535MOL0     O73716   3.116   6.614   5.563  0.6924 -0.2659 -0.0394
  535MOL0     C73717   3.145   6.743   5.528 -0.3348  0.5740  1.2646
  535MOL0     C73718   3.254   6.799   5.596 -1.0303  0.0287 -0.1046
  535MOL0     C73719   3.330   6.916   5.556  0.7689 -0.3547  0.0249
  535MOL0     C73720   3.453   6.954   5.624 -0.5719 -0.4919 -0.8237
  535MOL0     C73721   3.265   6.987   5.444  0.2829  0.2193 -0.7546
  535MOL0     C73722   3.338   7.102   5.388  0.2432 -0.4521 -0.4333
  535MOL0     O73723   3.256   7.211   5.363 -0.8013 -0.5621 -0.7038
  535MOL0     C73724   3.307   7.312   5.286 -1.0525 -0.7118  0.4553
  535MOL0     C73725   3.211   7.389   5.209  0.0132 -0.1789  0.6258
  535MOL0     C73726   3.254   7.495   5.122 -1.1014  0.6326  0.5034
  535MOL0     C73727   3.391   7.517   5.109 -0.2199 -0.0905  0.4326
  535MOL0     O73728   3.430   7.614   5.018  0.0791  0.3076 -0.3472
  535MOL0     C73729   3.433   7.740   5.080 -0.0423 -1.2505  0.1883
  535MOL0     C73730   3.554   7.815   5.025  1.1572  0.5769  0.1042
  535MOL0     C73731   3.553   7.951   5.074 -0.4086 -0.0733  0.2806
  535MOL0     C73732   3.579   7.975   5.226 -0.5175  0.5398 -1.2028
  535MOL0     C73733   3.606   8.127   5.243 -0.0290 -0.0467 -0.1192
  535MOL0     C73734   3.733   8.152   5.322  0.2958 -0.0723 -0.2467
  535MOL0     C73735   3.725   8.304   5.356 -0.4983 -0.7171 -0.7159
  535MOL0     C73736   3.854   8.352   5.435  0.4287  0.0535 -0.1109
  535MOL0    Cl73737   3.838   8.522   5.464  0.0985  0.4550 -0.1766
  535MOL0     C73738   3.486   7.429   5.173  0.6833 -0.6667 -0.2245
  535MOL0     C73739   3.448   7.336   5.268  0.9501 -0.9159 -0.4696
  535MOL0     O73740   3.449   7.079   5.335  0.2959  0.2469 -0.9324
  535MOL0     C73741   3.145   6.939   5.391 -0.8986 -1.3574 -0.1406
  535MOL0     C73742   3.087   6.825   5.427  1.4674  0.5944 -0.2094
  535MOL0     N73743   2.637   6.266   5.747 -0.3942  0.5220 -0.3431
  535MOL0     N73744   2.623   6.325   5.870 -0.2432 -0.1701  0.2186
  535MOL0     C73745   2.144   7.053   6.606 -0.6381 -0.5538  0.0724
  535MOL0     C73746   2.031   7.139   6.625  0.6536  0.4281 -0.7254
  535MOL0     C73747   1.565   7.271   6.586 -0.0863  0.4659 -0.5316
  535MOL0     C73748   1.558   7.267   6.725 -0.5503  0.3501 -0.5421
  535MOL0     C73749   1.451   7.315   6.786  0.6641  0.3706 -0.9994
  535MOL0     C73750   1.333   7.343   6.722  0.3350 -0.0947  0.8073
  535MOL0     O73751   1.230   7.393   6.785 -0.6442 -0.2677  1.4602
  535MOL0     C73752   1.103   7.415   6.727  0.6212  0.4213 -0.5564
  535MOL0     C73753   1.011   7.452   6.849 -0.2972  0.2784 -0.3016
  535MOL0     C73754   0.870   7.497   6.798  0.9052 -0.2547 -0.4485
  535MOL0     C73755   0.792   7.568   6.920 -0.0557 -0.1537 -0.0789
  535MOL0     C73756   0.837   7.711   6.921 -0.1853  1.1600 -0.0019
  535MOL0     C73757   0.895   7.820   6.904  0.2542  0.1886 -0.2223
  535MOL0     C73758   1.342   7.347   6.578  0.6349  0.6921  0.6034
  535MOL0     C73759   1.462   7.322   6.513  0.2693  0.3117  0.4412
  535MOL0     C73760   1.464   7.332   6.361  0.5788  0.1122  0.0582
  535MOL0     H73761   1.790   6.956   6.485  1.3710 -1.1947 -2.4420
  535MOL0     H73762   1.984   6.803   6.437  1.9625  0.9099 -0.8886
  535MOL0     H73763   2.205   6.706   6.355  2.4947  0.0949 -0.1655
  535MOL0     H73764   2.132   6.665   6.513  1.4610 -1.9086  1.0536
  535MOL0     H73765   2.345   6.647   6.610  0.6600  1.1840 -0.2212
  535MOL0     H73766   2.328   6.526   6.486 -0.1267 -0.0098  1.1079
  535MOL0     H73767   2.471   6.797   6.456  1.5975  0.5155  2.1090
  535MOL0     H73768   2.556   6.648   6.496  3.0529  2.0596 -1.9269
  535MOL0     H73769   2.517   6.550   6.286  2.8999  0.2818 -0.1565
  535MOL0     H73770   2.402   6.673   6.233  2.5164  2.3751 -1.8777
  535MOL0     H73771   2.694   6.710   6.259  2.4291  4.0484 -0.8872
  535MOL0     H73772   2.583   6.846   6.259 -1.4195 -0.5450 -0.4509
  535MOL0     H73773   2.497   6.804   6.036 -0.2660  0.9002  0.9995
  535MOL0     H73774   2.677   6.797   6.033  0.4713 -1.2357 -3.1682
  535MOL0     H73775   2.553   6.623   5.895 -1.3692 -1.0725 -0.0213
  535MOL0     H73776   2.516   6.542   6.044  1.5942 -1.0066  0.0423
  535MOL0     H73777   2.805   6.597   5.949  1.7990 -3.2521 -1.8944
  535MOL0     H73778   2.753   6.491   6.073 -0.3740 -3.8256 -0.8638
  535MOL0     H73779   2.895   6.468   5.761  0.0700 -0.2421 -0.2806
  535MOL0     H73780   2.708   6.282   5.491 -0.2297 -2.5843  0.2622
  535MOL0     H73781   2.850   6.208   5.564  0.3985  0.3852  1.1129
  535MOL0     H73782   2.859   6.433   5.392  0.4549 -0.5224 -0.4881
  535MOL0     H73783   2.846   6.514   5.542 -1.3975 -0.6824  0.0334
  535MOL0     H73784   3.069   6.374   5.617 -0.3053  0.4261  1.1520
  535MOL0     H73785   3.059   6.309   5.453  1.3762  0.9174 -0.3779
  535MOL0     H73786   3.202   6.492   5.416  0.2242  0.3966  2.5800
  535MOL0     H73787   3.048   6.553   5.368 -0.5403 -3.5327 -0.0301
  535MOL0     H73788   3.283   6.748   5.687 -2.0106  0.5293  0.5148
  535MOL0     H73789   3.467   7.063   5.624  0.1678 -0.5740 -1.2753
  535MOL0     H73790   3.537   6.897   5.582 -0.9720  0.3162 -2.8234
  535MOL0     H73791   3.461   6.924   5.729  3.1716 -3.4131 -1.7278
  535MOL0     H73792   3.105   7.376   5.228 -0.3263  3.4251  1.9993
  535MOL0     H73793   3.184   7.561   5.071 -0.1664  0.6788 -0.7803
  535MOL0     H73794   3.332   7.779   5.063 -0.4539 -3.4871 -3.7174
  535MOL0     H73795   3.456   7.739   5.187  2.2353 -0.9758 -0.2638
  535MOL0     H73796   3.651   7.771   5.052 -0.4055 -2.7242  0.8520
  535MOL0     H73797   3.550   7.824   4.916  0.0362 -0.2468  0.0639
  535MOL0     H73798   3.451   7.986   5.055 -1.8129 -2.6351  2.5349
  535MOL0     H73799   3.617   8.003   5.001  1.1728  1.3010  2.5143
  535MOL0     H73800   3.673   7.924   5.248  0.1497  2.4126  0.5094
  535MOL0     H73801   3.505   7.930   5.294  0.7516  2.1226  1.3802
  535MOL0     H73802   3.620   8.166   5.142 -1.4886 -2.7192 -1.4618
  535MOL0     H73803   3.516   8.179   5.279  1.7810  4.0293 -0.8734
  535MOL0     H73804   3.816   8.126   5.256 -1.3354 -0.8864 -2.0787
  535MOL0     H73805   3.739   8.107   5.421 -0.7669  1.1531  0.4067
  535MOL0     H73806   3.641   8.317   5.425  0.2467  0.2102  0.0556
  535MOL0     H73807   3.723   8.372   5.271  3.6532  0.6787  0.0600
  535MOL0     H73808   3.945   8.328   5.380 -0.2095 -3.4898  0.1508
  535MOL0     H73809   3.863   8.296   5.528 -0.5820 -4.1259 -2.2733
  535MOL0     H73810   3.591   7.451   5.155  0.7843  1.8141  2.5860
  535MOL0     H73811   3.532   7.293   5.322  3.6639  0.6373 -3.1621
  535MOL0     H73812   3.095   6.994   5.311 -0.1903 -0.9866 -0.3344
  535MOL0     H73813   2.988   6.806   5.387  1.7583  0.3974 -0.8325
  535MOL0     H73814   2.235   7.085   6.656 -2.7695  1.8018  2.7998
  535MOL0     H73815   2.037   7.238   6.669  0.4849 -1.1560  3.2623
  535MOL0     H73816   1.639   7.241   6.792 -0.8060 -1.4743 -0.8807
  535MOL0     H73817   1.455   7.333   6.893 -0.6350 -3.1839 -0.2217
  535MOL0     H73818   1.112   7.509   6.672  2.4864  1.2009  0.9578
  535MOL0     H73819   1.054   7.341   6.663 -2.2689  1.9587 -0.2879
  535MOL0     H73820   1.045   7.538   6.908 -0.3118  0.6506 -0.8338
  535MOL0     H73821   1.007   7.364   6.914 -1.0644  0.2299 -0.4048
  535MOL0     H73822   0.867   7.568   6.715 -2.6132 -1.0862 -1.2080
  535MOL0     H73823   0.812   7.406   6.779 -1.5619  1.1011  0.1552
  535MOL0     H73824   0.807   7.534   7.023 -2.2469  1.6130  0.9131
  535MOL0     H73825   0.688   7.555   6.888  0.6253 -0.8168 -2.1640
  535MOL0     H73826   0.940   7.915   6.884  3.4645 -0.7235  1.9590
  535MOL0     H73827   1.262   7.377   6.512 -0.3380 -2.3436  0.2871
  535MOL0     H73828   1.457   7.229   6.324  1.6151 -0.2577  0.8604
  535MOL0     H73829   1.386   7.405   6.336  2.0222  1.2077 -1.4774
  535MOL0     H73830   1.552   7.379   6.316 -1.9426  3.3280 -2.0699
  536MOL0     O73831   6.376   3.239   5.948 -0.3617  0.1019 -0.5796
  536MOL0     C73832   6.502   3.219   5.934  0.0713  0.0925  0.5710
  536MOL0     O73833   6.591   3.320   5.945  0.1976 -0.9271 -0.6629
  536MOL0     C73834   6.537   3.444   5.986 -0.4884 -0.2019 -0.7731
  536MOL0     C73835   6.512   3.539   5.885 -0.2453  0.7419 -0.1852
  536MOL0     C73836   6.470   3.675   5.913 -0.2123  0.1290  1.0541
  536MOL0     C73837   6.437   3.707   6.045  0.0206 -0.2718  0.0822
  536MOL0     O73838   6.390   3.833   6.071  0.0501  0.2453  0.4850
  536MOL0     C73839   6.247   3.870   6.084 -0.5647  1.0047 -0.4338
  536MOL0     C73840   6.165   3.784   6.174 -0.2365  0.9686  0.3257
  536MOL0     C73841   6.094   3.875   6.275 -1.1424 -0.3720  0.2539
  536MOL0     C73842   6.023   3.789   6.390  0.9749 -0.3364 -0.2814
  536MOL0     C73843   5.924   3.872   6.476 -0.5277 -0.3592  0.5031
  536MOL0     C73844   5.862   3.793   6.588  0.8037 -0.2843 -0.6081
  536MOL0     C73845   5.755   3.713   6.523  0.5398 -0.9975 -0.1260
  536MOL0     C73846   5.755   3.591   6.605 -0.2759  0.7522  0.7230
  536MOL0     N73847   5.860   3.496   6.569 -0.3842 -0.3891  0.2993
  536MOL0     C73848   5.883   3.446   6.441 -0.1057  0.8883  1.5640
  536MOL0     C73849   6.004   3.380   6.450 -0.0128 -0.1414 -0.7135
  536MOL0     C73850   6.078   3.309   6.334  0.3050 -0.1526 -0.8509
  536MOL0     C73851   6.208   3.251   6.380 -0.7371 -0.9318 -0.2779
  536MOL0     C73852   6.268   3.148   6.286  0.3712 -0.5660  0.2096
  536MOL0     C73853   6.405   3.100   6.341 -0.3102 -0.1185  0.1036
  536MOL0     O73854   6.495   3.213   6.348 -0.7912 -0.0315  0.2050
  536MOL0     C73855   6.612   3.197   6.419  0.3221 -0.2742  0.1633
  536MOL0     C73856   6.681   3.070   6.449  0.0198 -0.4122 -0.1210
  536MOL0     C73857   6.788   3.060   6.538 -0.0006 -0.8920 -0.0488
  536MOL0     C73858   6.854   2.933   6.560  0.2813 -0.0170 -0.3267
  536MOL0     C73859   6.848   3.182   6.585 -0.3380  0.3112  0.4495
  536MOL0     C73860   6.964   3.190   6.682  0.1952 -0.9407  0.1814
  536MOL0     O73861   7.004   3.082   6.752  0.2720 -0.0754 -0.3471
  536MOL0     C73862   7.131   3.091   6.799  0.8906  0.2913  0.2366
  536MOL0     C73863   7.235   3.042   6.723  0.0021  0.5673 -0.1943
  536MOL0     C73864   7.360   3.053   6.768 -0.5200 -0.4711  0.1766
  536MOL0     C73865   7.400   3.126   6.884 -0.0231 -0.3952  0.1650
  536MOL0     O73866   7.540   3.131   6.902 -0.3360 -0.2510  0.5590
  536MOL0     C73867   7.588   3.175   7.035  0.6191 -0.0916  0.6312
  536MOL0     C73868   7.741   3.129   7.060  0.0773  0.3776 -0.5779
  536MOL0     C73869   7.799   3.161   7.196  0.5585  0.4288 -0.0310
  536MOL0     C73870   7.853   3.299   7.201  0.1715 -0.9111 -0.5453
  536MOL0     C73871   7.897   3.349   7.351  0.6444  0.3472  0.2361
  536MOL0     C73872   7.785   3.333   7.461  0.1930  0.6141  0.1423
  536MOL0     C73873   7.663   3.421   7.442  0.4429 -0.6607 -0.9058
  536MOL0     C73874   7.655   3.541   7.536 -0.0740 -0.6241 -0.3415
  536MOL0    Cl73875   7.650   3.487   7.715 -0.2459  0.1002 -0.0415
  536MOL0     C73876   7.302   3.196   6.943  1.1332  0.0897  0.5484
  536MOL0     C73877   7.168   3.168   6.909  0.3261 -0.3992  0.1355
  536MOL0     O73878   7.025   3.299   6.683 -0.3242 -0.6618 -0.0533
  536MOL0     C73879   6.800   3.303   6.534 -0.3636 -0.2067  0.0993
  536MOL0     C73880   6.686   3.312   6.453 -0.2298  1.4488  0.1933
  536MOL0     N73881   6.059   3.395   6.577  0.2261 -0.2993 -0.2760
  536MOL0     N73882   5.974   3.467   6.648  0.6524 -0.8898 -0.0797
  536MOL0     C73883   6.457   3.613   6.144 -0.1113 -0.2073  0.2920
  536MOL0     C73884   6.512   3.487   6.123  0.7570 -0.0916  0.2455
  536MOL0     C73885   6.537   3.088   5.887 -0.2112  0.7744  0.0436
  536MOL0     C73886   6.457   2.980   5.917 -0.1222  0.7218 -0.0081
  536MOL0     C73887   6.486   2.860   5.873  0.8179  0.1068  0.0567
  536MOL0     C73888   6.605   2.830   5.806  1.1709 -0.3759 -0.9791
  536MOL0     O73889   6.610   2.702   5.765  0.7575  0.7248 -0.1036
  536MOL0     C73890   6.716   2.632   5.695 -0.5719 -0.5062  0.2933
  536MOL0     C73891   6.718   2.481   5.738 -0.7822  0.9923  0.0478
  536MOL0     C73892   6.825   2.401   5.664 -0.5475 -0.4764  0.4439
  536MOL0     C73893   6.784   2.319   5.534  0.1401  1.0637 -0.9208
  536MOL0     C73894   6.727   2.409   5.432  1.0418  0.2055  0.1025
  536MOL0     C73895   6.697   2.475   5.337 -0.1474 -0.1811  0.4614
  536MOL0     C73896   6.696   2.932   5.778  0.1070  0.2507 -0.2145
  536MOL0     C73897   6.650   3.063   5.805 -1.0294 -0.9178 -0.5480
  536MOL0     C73898   6.735   3.182   5.759 -1.1133 -0.8011 -0.0255
  536MOL0     H73899   6.527   3.495   5.787 -2.1408  0.4143 -0.3579
  536MOL0     H73900   6.469   3.758   5.844  2.6256  1.5488  2.5893
  536MOL0     H73901   6.223   3.874   5.977 -0.0772  1.2443 -0.5388
  536MOL0     H73902   6.252   3.970   6.128  0.7692  0.7698 -0.0098
  536MOL0     H73903   6.089   3.736   6.112  0.5326 -0.6603  0.5882
  536MOL0     H73904   6.225   3.710   6.227 -2.9608 -1.1773  0.6175
  536MOL0     H73905   6.152   3.950   6.329 -1.1425  2.2379 -2.9843
  536MOL0     H73906   6.014   3.935   6.231 -0.6963  2.7872  3.3586
  536MOL0     H73907   5.969   3.698   6.361 -1.2476  0.1455  2.0027
  536MOL0     H73908   6.100   3.753   6.459  1.4296 -0.3473 -0.7867
  536MOL0     H73909   5.855   3.922   6.407 -1.4191  3.7822  4.0064
  536MOL0     H73910   5.984   3.955   6.516 -0.3374  2.2096 -4.3263
  536MOL0     H73911   5.936   3.734   6.643 -0.6843 -0.1103  1.7141
  536MOL0     H73912   5.807   3.855   6.659  1.6320  0.8136 -0.8934
  536MOL0     H73913   5.781   3.699   6.417  2.2041  1.7109 -0.1884
  536MOL0     H73914   5.657   3.760   6.534  0.7651 -0.3211 -0.8829
  536MOL0     H73915   5.760   3.598   6.714 -2.7373 -1.2968  1.0725
  536MOL0     H73916   5.658   3.542   6.585  0.9241 -1.3322 -0.3990
  536MOL0     H73917   5.816   3.439   6.356  3.3355 -1.3419 -1.2616
  536MOL0     H73918   6.106   3.393   6.270  0.9445  1.8064  1.8513
  536MOL0     H73919   6.019   3.237   6.276  1.1966 -1.8309  0.2614
  536MOL0     H73920   6.277   3.335   6.393 -0.0150 -0.6666 -4.4473
  536MOL0     H73921   6.190   3.211   6.480  3.8709  2.4945  2.3174
  536MOL0     H73922   6.194   3.069   6.270  1.5509 -1.5938 -0.3436
  536MOL0     H73923   6.283   3.194   6.188 -0.2361 -0.6298  0.0809
  536MOL0     H73924   6.392   3.052   6.439  0.8431  0.9058  0.7926
  536MOL0     H73925   6.449   3.020   6.279 -2.7574 -3.6929  2.5605
  536MOL0     H73926   6.638   2.980   6.407 -0.3615  1.0658 -3.1986
  536MOL0     H73927   6.824   2.871   6.475  1.0532  1.0449 -1.4030
  536MOL0     H73928   6.813   2.887   6.650 -0.4822  0.4074 -0.4511
  536MOL0     H73929   6.963   2.928   6.569  0.1536 -0.4124  1.4239
  536MOL0     H73930   7.210   2.976   6.641 -0.2458 -0.1561  0.4545
  536MOL0     H73931   7.447   2.995   6.737  1.7862  2.2729  1.0483
  536MOL0     H73932   7.575   3.282   7.051 -1.7422 -0.2176 -0.1442
  536MOL0     H73933   7.514   3.123   7.096 -2.7664 -0.4032 -3.2841
  536MOL0     H73934   7.741   3.020   7.050 -2.3713 -0.1978  3.4594
  536MOL0     H73935   7.814   3.158   6.984 -0.2859  0.0533 -1.0563
  536MOL0     H73936   7.883   3.090   7.201 -2.1332 -3.0639 -0.4224
  536MOL0     H73937   7.721   3.128   7.265 -1.1919 -1.1549 -2.5723
  536MOL0     H73938   7.771   3.360   7.163 -0.4963  1.1662  3.6010
  536MOL0     H73939   7.937   3.319   7.134  0.7970  2.1060  0.9585
  536MOL0     H73940   7.976   3.281   7.383  0.5468 -0.6231 -1.4783
  536MOL0     H73941   7.944   3.446   7.334 -0.7819  0.6733 -2.3040
  536MOL0     H73942   7.832   3.372   7.552 -1.8134 -1.3225  2.1485
  536MOL0     H73943   7.753   3.230   7.478  0.9413 -0.5217 -4.1680
  536MOL0     H73944   7.569   3.369   7.462 -0.4897  2.2230  3.7398
  536MOL0     H73945   7.663   3.447   7.336  0.0319 -1.3804 -1.0883
  536MOL0     H73946   7.572   3.610   7.520 -0.3256  0.6227  4.6476
  536MOL0     H73947   7.746   3.602   7.539 -0.4282 -0.0777  2.6981
  536MOL0     H73948   7.336   3.256   7.027  0.8717  0.6207  0.2866
  536MOL0     H73949   7.089   3.212   6.969 -0.3624 -0.8972 -0.3936
  536MOL0     H73950   6.858   3.392   6.555  1.3706 -1.2315 -0.1408
  536MOL0     H73951   6.651   3.406   6.412 -0.6096  1.9785  1.6684
  536MOL0     H73952   6.422   3.631   6.245 -1.2669 -0.3756 -0.0536
  536MOL0     H73953   6.534   3.415   6.201  1.5931  1.2418  1.2690
  536MOL0     H73954   6.368   2.991   5.979 -0.0575  0.6678  0.0937
  536MOL0     H73955   6.414   2.781   5.891 -1.6218  2.2000  0.0712
  536MOL0     H73956   6.699   2.649   5.588  2.9141 -0.1646 -0.3281
  536MOL0     H73957   6.814   2.675   5.718 -1.1735 -0.6156  3.6121
  536MOL0     H73958   6.624   2.426   5.744  0.4760 -1.1954  0.8855
  536MOL0     H73959   6.760   2.468   5.838 -1.3191  0.2291  0.1815
  536MOL0     H73960   6.898   2.471   5.623  0.3526 -2.3171 -1.2575
  536MOL0     H73961   6.891   2.345   5.731 -0.3315  0.0159  0.6469
  536MOL0     H73962   6.720   2.238   5.569  0.6759  0.7750 -0.6092
  536MOL0     H73963   6.874   2.277   5.488  0.5669 -1.0830  1.6173
  536MOL0     H73964   6.668   2.541   5.258 -1.5733 -0.6427  0.5719
  536MOL0     H73965   6.784   2.914   5.717 -0.2166  1.8466 -1.1937
  536MOL0     H73966   6.803   3.205   5.842  1.4356 -2.4624 -1.5066
  536MOL0     H73967   6.808   3.145   5.686  0.4739 -2.6656  2.3430
  536MOL0     H73968   6.686   3.276   5.731 -1.5246 -0.5511  1.4736
  537MOL0     O73969   2.612   6.861   2.002 -1.0579 -0.3114 -0.3390
  537MOL0     C73970   2.525   6.791   2.058 -0.8615 -0.3797 -0.0965
  537MOL0     O73971   2.398   6.843   2.076 -0.0778  0.4264  0.1801
  537MOL0     C73972   2.337   6.923   1.987  0.2777  0.2108 -0.0377
  537MOL0     C73973   2.360   6.918   1.846  0.5795 -0.1908 -0.0403
  537MOL0     C73974   2.324   7.006   1.751 -0.3177  0.2467 -0.5835
  537MOL0     C73975   2.260   7.124   1.794 -1.0136 -0.9695 -0.5081
  537MOL0     O73976   2.231   7.226   1.709  0.3439 -0.3239 -0.1682
  537MOL0     C73977   2.245   7.357   1.767  0.1052 -0.0513  0.9430
  537MOL0     C73978   2.299   7.457   1.654  1.5507 -1.0328  0.1741
  537MOL0     C73979   2.330   7.599   1.705  0.0878 -0.4410  1.0563
  537MOL0     C73980   2.475   7.594   1.774  0.6168  0.2525  0.0410
  537MOL0     C73981   2.568   7.693   1.699  0.1956  1.1552  0.2135
  537MOL0     C73982   2.705   7.690   1.748  0.0753 -0.8292  0.7156
  537MOL0     C73983   2.792   7.787   1.667 -0.0300  0.6354  0.1143
  537MOL0     C73984   2.947   7.781   1.713  0.0752 -0.3600  0.5774
  537MOL0     N73985   3.001   7.653   1.666 -0.0317 -0.3919 -0.0762
  537MOL0     C73986   3.015   7.613   1.540  0.6116 -0.7407 -0.1966
  537MOL0     C73987   3.070   7.491   1.542 -0.3039 -0.0899 -0.4378
  537MOL0     C73988   3.099   7.408   1.414  0.1024 -1.1102  0.4683
  537MOL0     C73989   3.047   7.271   1.433  0.3216 -0.0010 -0.3126
  537MOL0     C73990   3.059   7.171   1.320 -0.2038 -0.8639  0.5225
  537MOL0     C73991   2.964   7.206   1.206  0.2543  0.5260 -0.3179
  537MOL0     O73992   2.831   7.231   1.254  0.1316  0.0153  0.1092
  537MOL0     C73993   2.745   7.278   1.162 -0.2834  0.1942  0.5078
  537MOL0     C73994   2.634   7.195   1.126  0.0444  0.1878 -0.2869
  537MOL0     C73995   2.531   7.235   1.043  0.2138  0.1665  0.0828
  537MOL0     C73996   2.431   7.118   1.016  0.5323 -0.6133  0.4252
  537MOL0     C73997   2.528   7.367   0.993 -0.8306 -0.0501 -0.3286
  537MOL0     C73998   2.435   7.416   0.889  0.7932 -0.0433  0.1487
  537MOL0     O73999   2.450   7.550   0.860  0.2186  0.9621 -0.2594
  537MOL0     C74000   2.367   7.597   0.763 -0.3331 -0.0274  0.4482
  537MOL0     C74001   2.247   7.662   0.781  0.5705 -0.1064  0.0370
  537MOL0     C74002   2.174   7.715   0.671 -0.0520 -1.0393 -0.5483
  537MOL0     C74003   2.215   7.700   0.539 -0.1195  0.2540  0.5010
  537MOL0     O74004   2.127   7.759   0.445 -0.2724  0.1878 -0.6682
  537MOL0     C74005   2.191   7.843   0.346  1.0979  0.5455 -0.6136
  537MOL0     C74006   2.086   7.954   0.300 -0.3084 -0.7237 -0.4925
  537MOL0     C74007   2.063   8.070   0.401  0.5171  0.6675  0.1721
  537MOL0     C74008   2.010   8.194   0.334 -0.0796 -0.5913 -0.5287
  537MOL0     C74009   1.953   8.304   0.435 -0.8784  0.9167  0.3959
  537MOL0     C74010   1.905   8.431   0.372  0.2334  0.0970 -0.7393
  537MOL0     C74011   1.841   8.514   0.484 -1.5335 -0.5605  0.6168
  537MOL0     C74012   1.770   8.631   0.420  0.6959 -0.3962 -0.5807
  537MOL0    Cl74013   1.663   8.582   0.273  0.0286  0.1364  0.0255
  537MOL0     C74014   2.339   7.635   0.517 -0.6152 -0.1622  0.5200
  537MOL0     C74015   2.412   7.585   0.628 -0.0362  1.2767  0.7334
  537MOL0     O74016   2.370   7.335   0.823 -0.2531 -0.4096 -0.0180
  537MOL0     C74017   2.641   7.456   1.039  0.9909 -0.3340  0.2781
  537MOL0     C74018   2.750   7.408   1.120  0.3716 -1.1656  0.2703
  537MOL0     N74019   3.097   7.461   1.671  0.3131  1.2695 -0.4769
  537MOL0     N74020   3.055   7.561   1.746 -0.5191  0.5495 -1.3332
  537MOL0     C74021   2.219   7.127   1.934 -0.0513 -0.4713 -0.1455
  537MOL0     C74022   2.254   7.023   2.027  0.1855 -0.2698 -0.4903
  537MOL0     C74023   2.568   6.663   2.104 -0.1476  0.5316  1.2269
  537MOL0     C74024   2.473   6.603   2.188 -0.1105  0.6379 -0.5785
  537MOL0     C74025   2.492   6.474   2.250 -0.0374  0.0905 -0.2105
  537MOL0     C74026   2.616   6.405   2.221 -0.1138  0.6011  0.2112
  537MOL0     O74027   2.628   6.274   2.261 -0.2115 -0.1289 -0.5175
  537MOL0     C74028   2.624   6.246   2.403  0.2768 -0.5265  0.3016
  537MOL0     C74029   2.482   6.172   2.422 -0.1321 -0.4285  0.3291
  537MOL0     C74030   2.500   6.022   2.363  1.0140 -0.4494 -0.6923
  537MOL0     C74031   2.384   5.995   2.273 -0.1700 -0.5866 -0.3581
  537MOL0     C74032   2.396   5.871   2.207  0.7963  0.0908 -0.0323
  537MOL0     C74033   2.397   5.762   2.152  0.6649  0.4272 -0.5063
  537MOL0     C74034   2.700   6.463   2.130  0.0775 -0.3118  1.0357
  537MOL0     C74035   2.685   6.595   2.075  0.1422  0.6432  0.7614
  537MOL0     C74036   2.785   6.654   1.980 -0.2667 -0.3565  0.4806
  537MOL0     H74037   2.418   6.833   1.811 -3.1066 -2.3057 -1.6180
  537MOL0     H74038   2.361   6.995   1.650  3.1139 -0.3615  0.6182
  537MOL0     H74039   2.325   7.369   1.841 -0.3008 -1.0860  1.5641
  537MOL0     H74040   2.148   7.391   1.804 -0.8719  0.3027 -1.7295
  537MOL0     H74041   2.391   7.421   1.607  2.2710 -1.6462  1.9570
  537MOL0     H74042   2.223   7.471   1.577  0.3430  2.0826  1.7697
  537MOL0     H74043   2.321   7.668   1.621 -0.8596 -0.4353  1.1539
  537MOL0     H74044   2.244   7.631   1.764 -0.7961  0.6128 -0.7313
  537MOL0     H74045   2.466   7.624   1.879  0.4204  1.4054 -0.2919
  537MOL0     H74046   2.509   7.490   1.776  1.6430  0.5372 -1.1668
  537MOL0     H74047   2.523   7.792   1.710 -1.4789  0.5142 -0.4552
  537MOL0     H74048   2.571   7.660   1.595  2.0768  0.8494  0.3447
  537MOL0     H74049   2.703   7.723   1.852  0.3356 -1.7631  1.0281
  537MOL0     H74050   2.744   7.588   1.749  0.9419 -0.5070  2.2379
  537MOL0     H74051   2.758   7.889   1.684 -2.3929  0.1617 -1.3263
  537MOL0     H74052   2.774   7.766   1.561 -0.9146  1.6925  0.0411
  537MOL0     H74053   2.995   7.867   1.665 -2.5767 -0.8644 -3.5024
  537MOL0     H74054   2.961   7.793   1.820  0.4146 -1.6962  0.7075
  537MOL0     H74055   2.964   7.653   1.453 -1.3966  0.1963  1.3046
  537MOL0     H74056   3.201   7.422   1.376  0.0163  2.0225  1.0863
  537MOL0     H74057   3.043   7.457   1.334 -0.7596 -0.0167  1.7064
  537MOL0     H74058   3.105   7.232   1.516  0.4615  0.4643 -0.1879
  537MOL0     H74059   2.944   7.265   1.469 -0.1083 -1.3965 -1.6779
  537MOL0     H74060   3.159   7.169   1.276  0.4210  2.3821  1.5526
  537MOL0     H74061   3.034   7.070   1.353 -2.7147 -0.9044 -1.2602
  537MOL0     H74062   3.001   7.291   1.148 -2.6902  2.9786  1.1487
  537MOL0     H74063   2.956   7.120   1.139  0.5319  1.4490 -1.5748
  537MOL0     H74064   2.647   7.093   1.159 -4.2979 -0.6431 -0.4911
  537MOL0     H74065   2.325   7.145   1.011  0.2349 -1.9253 -2.8729
  537MOL0     H74066   2.435   7.036   1.089  0.0246 -3.0670 -2.1171
  537MOL0     H74067   2.452   7.076   0.917 -1.9697  0.3730 -0.5856
  537MOL0     H74068   2.201   7.689   0.876 -1.1219 -1.3979 -0.3840
  537MOL0     H74069   2.088   7.778   0.690 -0.4978 -1.2649 -1.7390
  537MOL0     H74070   2.281   7.887   0.390  1.5264 -0.0444 -0.8936
  537MOL0     H74071   2.231   7.789   0.260  1.5225 -2.9246  1.5785
  537MOL0     H74072   2.112   7.985   0.198 -0.9793  1.9419  0.0917
  537MOL0     H74073   1.982   7.923   0.295 -0.4053 -0.2206 -3.9986
  537MOL0     H74074   2.146   8.081   0.472 -0.6593  0.2483  1.6820
  537MOL0     H74075   1.985   8.039   0.471  0.4311  0.8674  0.1645
  537MOL0     H74076   1.922   8.160   0.278 -2.4853  0.1519  2.5110
  537MOL0     H74077   2.092   8.230   0.270  0.4654  0.9224  0.9334
  537MOL0     H74078   1.869   8.263   0.492 -1.7585 -0.6766 -1.9135
  537MOL0     H74079   2.034   8.323   0.506 -2.7832 -2.2468  3.7440
  537MOL0     H74080   1.831   8.414   0.294 -0.4508 -0.9901  0.1201
  537MOL0     H74081   1.993   8.482   0.331 -1.2596  0.3546 -3.8804
  537MOL0     H74082   1.915   8.542   0.560 -0.9948 -0.8510  0.2077
  537MOL0     H74083   1.761   8.456   0.532 -0.1409 -4.1767 -1.0696
  537MOL0     H74084   1.836   8.718   0.409  1.1156  0.3045  4.7355
  537MOL0     H74085   1.711   8.679   0.499  0.6891 -1.4590  0.0891
  537MOL0     H74086   2.385   7.622   0.419  0.2106  0.6036  0.7931
  537MOL0     H74087   2.510   7.541   0.611 -0.8305  0.3532 -2.2185
  537MOL0     H74088   2.663   7.552   0.994 -3.2197 -0.1016 -1.7671
  537MOL0     H74089   2.835   7.468   1.152  1.5678 -1.7274 -1.6339
  537MOL0     H74090   2.171   7.217   1.970  1.0212  0.7667 -1.6540
  537MOL0     H74091   2.233   7.036   2.132  0.8512 -1.1441 -0.2393
  537MOL0     H74092   2.378   6.656   2.196  0.5975  2.0425 -1.0528
  537MOL0     H74093   2.408   6.434   2.307  0.9876 -1.0222  0.5622
  537MOL0     H74094   2.709   6.183   2.432  1.5240  1.4955  1.2055
  537MOL0     H74095   2.634   6.334   2.467  0.2714 -1.3838  1.5093
  537MOL0     H74096   2.408   6.232   2.368  2.5175  0.7321 -2.2650
  537MOL0     H74097   2.445   6.159   2.525 -1.7873  0.3696 -0.1267
  537MOL0     H74098   2.594   6.023   2.307  1.4009  2.0983 -0.1493
  537MOL0     H74099   2.498   5.953   2.448 -1.2587 -1.1285 -1.2401
  537MOL0     H74100   2.364   6.067   2.194  0.1318 -0.2445 -0.1266
  537MOL0     H74101   2.295   5.984   2.336  1.1335 -1.6029  1.4000
  537MOL0     H74102   2.378   5.666   2.108 -1.1256 -1.7772  4.3642
  537MOL0     H74103   2.766   6.393   2.079 -0.4563 -0.4339  0.4947
  537MOL0     H74104   2.748   6.672   1.879 -0.1493  0.1921  0.5297
  537MOL0     H74105   2.832   6.741   2.027 -1.9594  1.0764 -0.3995
  537MOL0     H74106   2.873   6.589   1.977  1.3498  1.4149  3.9409
  538MOL0     O74107   9.803   1.245   4.818  0.1251  0.3152 -0.2453
  538MOL0     C74108   9.839   1.135   4.859  1.3894 -0.6060  0.2615
  538MOL0     O74109   9.966   1.113   4.906  0.1254  0.2728  0.1325
  538MOL0     C74110  10.063   1.208   4.895  0.8450 -0.1730  0.0937
  538MOL0     C74111  10.113   1.252   5.014  0.1186 -0.7048 -0.6073
  538MOL0     C74112  10.224   1.331   5.014 -0.7818 -0.2899  0.9588
  538MOL0     C74113  10.281   1.379   4.891  0.6668 -0.8232 -0.4430
  538MOL0     O74114  10.384   1.460   4.859 -0.2027 -1.3229  0.1784
  538MOL0     C74115  10.438   1.532   4.976 -0.2184 -0.0057 -0.4769
  538MOL0     C74116  10.493   1.660   4.922 -0.2306 -0.8720  0.1889
  538MOL0     C74117  10.621   1.647   4.832  0.0573  0.6790 -0.2125
  538MOL0     C74118  10.597   1.591   4.689 -0.1893 -0.8600  0.4825
  538MOL0     C74119  10.509   1.681   4.593  0.1271 -0.2916  0.0050
  538MOL0     C74120  10.568   1.821   4.575 -0.1362 -0.6670 -0.1220
  538MOL0     C74121  10.506   1.916   4.469 -1.1321  0.8277  0.1552
  538MOL0     C74122  10.565   2.058   4.493 -0.0203 -0.1670 -0.8729
  538MOL0     N74123  10.531   2.171   4.409  0.3169  0.4669 -0.2828
  538MOL0     C74124  10.445   2.273   4.439 -0.0585 -0.0700 -0.1746
  538MOL0     C74125  10.444   2.347   4.329  0.7684 -0.1721 -0.1542
  538MOL0     C74126  10.348   2.463   4.305  0.2088 -0.8186  0.2231
  538MOL0     C74127  10.402   2.563   4.194  0.1432  0.5986 -0.2498
  538MOL0     C74128  10.319   2.682   4.178 -0.5240  0.3352  0.5966
  538MOL0     C74129  10.374   2.806   4.246  0.5980  0.9320 -0.0452
  538MOL0     O74130  10.511   2.831   4.210  0.1807  0.5594  0.9168
  538MOL0     C74131  10.562   2.949   4.242  0.3608  0.9277  0.6943
  538MOL0     C74132  10.668   2.991   4.162 -0.7513  0.1178 -0.0494
  538MOL0     C74133  10.707   3.130   4.161  0.1258 -0.7076 -0.0181
  538MOL0     C74134  10.837   3.158   4.091 -0.7171 -0.2941 -0.0771
  538MOL0     C74135  10.651   3.219   4.249 -0.3410  0.5145 -0.1270
  538MOL0     C74136  10.700   3.357   4.271 -0.5545 -0.4494 -0.4313
  538MOL0     O74137  10.634   3.434   4.362 -0.4048  0.4446  0.8660
  538MOL0     C74138  10.682   3.563   4.391 -0.4710  0.0091  0.1924
  538MOL0     C74139  10.736   3.589   4.514 -0.2075 -0.0243 -0.3215
  538MOL0     C74140  10.778   3.717   4.548 -0.9624  0.0780  1.0966
  538MOL0     C74141  10.751   3.828   4.456 -0.7724  0.6791 -0.6875
  538MOL0     O74142  10.777   3.960   4.473  0.1689  0.9966  0.2577
  538MOL0     C74143  10.883   4.005   4.564  0.6686  0.6348  0.7385
  538MOL0     C74144  10.866   4.150   4.568  0.1203  1.3007  0.0159
  538MOL0     C74145  10.950   4.227   4.670 -0.0747  0.5028  0.6491
  538MOL0     C74146  10.876   4.364   4.697  0.0471  1.1100 -0.1014
  538MOL0     C74147  10.942   4.468   4.790  0.4639  0.2122 -0.1939
  538MOL0     C74148  11.079   4.522   4.746 -0.0030  0.1158 -0.1437
  538MOL0     C74149  11.114   4.653   4.815  0.7930  0.0265  0.6757
  538MOL0     C74150  11.265   4.701   4.800  0.8226  0.0767  0.2295
  538MOL0    Cl74151  11.306   4.709   4.626  0.1349 -0.7939  0.6090
  538MOL0     C74152  10.700   3.793   4.336  0.4922 -0.5754 -0.2001
  538MOL0     C74153  10.673   3.660   4.298  0.7259 -0.2641 -0.5202
  538MOL0     O74154  10.785   3.401   4.196 -0.4164 -0.6419  0.1514
  538MOL0     C74155  10.542   3.177   4.318  0.5042 -0.6153  0.4085
  538MOL0     C74156  10.498   3.045   4.325 -0.3471 -1.1753  0.2466
  538MOL0     N74157  10.520   2.289   4.235  0.0741  0.2532 -0.2854
  538MOL0     N74158  10.570   2.180   4.278  0.5331  1.0677  0.1369
  538MOL0     C74159  10.208   1.339   4.774 -0.0700 -0.5386  0.2232
  538MOL0     C74160  10.108   1.254   4.772 -0.1161  0.8335 -0.8809
  538MOL0     C74161   9.740   1.027   4.851  0.6441  0.4372  0.2586
  538MOL0     C74162   9.680   0.999   4.725 -0.1759  0.4320  0.0675
  538MOL0     C74163   9.586   0.899   4.717 -0.6729 -0.8343 -0.2121
  538MOL0     C74164   9.555   0.803   4.815  0.4801  0.0348 -0.0049
  538MOL0     O74165   9.485   0.693   4.777  0.4986  0.0931 -1.1752
  538MOL0     C74166   9.434   0.593   4.874  0.1326 -0.6845 -0.9151
  538MOL0     C74167   9.550   0.495   4.913  0.3481 -1.1982 -0.0578
  538MOL0     C74168   9.498   0.380   4.998  0.4775 -0.8171  0.0609
  538MOL0     C74169   9.419   0.278   4.913 -0.5792  0.8348 -0.6196
  538MOL0     C74170   9.506   0.173   4.851 -0.2996 -0.4756  1.0804
  538MOL0     C74171   9.569   0.078   4.808  0.0910  0.4607  0.5578
  538MOL0     C74172   9.607   0.830   4.943 -0.3499 -0.1593 -1.1573
  538MOL0     C74173   9.698   0.941   4.964 -0.5602  0.1597 -0.5057
  538MOL0     C74174   9.748   0.963   5.097  0.2971  0.5266 -0.8325
  538MOL0     H74175  10.060   1.226   5.105 -2.6132 -2.7137 -2.6208
  538MOL0     H74176  10.276   1.358   5.106  4.0237  0.2739 -1.5634
  538MOL0     H74177  10.518   1.479   5.028  0.5369  0.6776 -0.9162
  538MOL0     H74178  10.370   1.566   5.054  2.0481  0.1910  1.5499
  538MOL0     H74179  10.417   1.713   4.864 -0.1035  0.1758  0.9402
  538MOL0     H74180  10.516   1.727   5.006 -2.7093  1.5862 -0.9398
  538MOL0     H74181  10.667   1.746   4.830  0.2006  0.6295 -2.5955
  538MOL0     H74182  10.697   1.580   4.873 -0.5612  0.4952  0.6707
  538MOL0     H74183  10.696   1.582   4.643 -0.4599 -0.7904 -0.1221
  538MOL0     H74184  10.549   1.493   4.690  0.1920 -1.0482  0.4506
  538MOL0     H74185  10.406   1.680   4.632 -2.2013 -2.8366 -5.1978
  538MOL0     H74186  10.520   1.617   4.505  5.2335 -0.6302  0.6042
  538MOL0     H74187  10.576   1.860   4.677  2.1190  0.9646 -0.8486
  538MOL0     H74188  10.670   1.793   4.547  0.0260 -1.2902  1.0410
  538MOL0     H74189  10.398   1.930   4.486 -1.8888 -1.1495 -2.5071
  538MOL0     H74190  10.550   1.873   4.379  0.8614 -0.3685  1.6175
  538MOL0     H74191  10.545   2.088   4.596  1.7222  3.4904 -1.4067
  538MOL0     H74192  10.674   2.055   4.490  0.0035  0.2215 -0.4946
  538MOL0     H74193  10.392   2.299   4.530  1.5095 -2.0197  1.3941
  538MOL0     H74194  10.345   2.525   4.395  2.1939  2.7604 -1.9570
  538MOL0     H74195  10.243   2.432   4.294  0.2609 -3.1404  4.2243
  538MOL0     H74196  10.503   2.597   4.218  0.2706 -0.6893  1.1760
  538MOL0     H74197  10.420   2.514   4.099  3.8671  3.6227 -1.3533
  538MOL0     H74198  10.314   2.694   4.069 -2.4027  3.5156  0.9190
  538MOL0     H74199  10.216   2.678   4.214 -0.9636 -1.6355 -0.7153
  538MOL0     H74200  10.312   2.894   4.226 -1.3514 -0.6047 -1.1615
  538MOL0     H74201  10.362   2.812   4.355  1.4578  2.1309  0.0021
  538MOL0     H74202  10.710   2.916   4.096 -0.5644 -0.9202  1.2201
  538MOL0     H74203  10.875   3.075   4.030  0.5157  0.4807 -0.3789
  538MOL0     H74204  10.913   3.200   4.156 -2.6928  3.8267 -0.0651
  538MOL0     H74205  10.808   3.240   4.024  3.0452 -2.2487 -4.6931
  538MOL0     H74206  10.762   3.509   4.582  0.7379  0.3328 -0.2492
  538MOL0     H74207  10.823   3.725   4.646 -0.8119  3.2396  0.8835
  538MOL0     H74208  10.881   3.965   4.666  2.7619 -1.1758  0.1313
  538MOL0     H74209  10.978   3.970   4.522 -0.4205 -1.0504 -0.4940
  538MOL0     H74210  10.884   4.193   4.468  0.1061 -1.8770 -1.4764
  538MOL0     H74211  10.758   4.149   4.581 -0.4407  0.9660 -3.4789
  538MOL0     H74212  11.048   4.243   4.625  1.3837  2.2543  4.1182
  538MOL0     H74213  10.973   4.169   4.760  1.0786  2.9883  2.0548
  538MOL0     H74214  10.774   4.355   4.734 -0.1996 -0.9083 -1.1023
  538MOL0     H74215  10.879   4.399   4.593 -1.1452 -1.2795 -1.0169
  538MOL0     H74216  10.880   4.558   4.795 -0.0155 -0.1759  1.3888
  538MOL0     H74217  10.947   4.439   4.895 -0.4508 -0.3468 -0.2920
  538MOL0     H74218  11.079   4.547   4.640 -1.1412  2.4557  0.3261
  538MOL0     H74219  11.151   4.447   4.778  0.8997 -0.3890 -3.1323
  538MOL0     H74220  11.092   4.639   4.921  0.2380  2.0778  0.8662
  538MOL0     H74221  11.055   4.727   4.761 -0.9273 -1.5202  0.3395
  538MOL0     H74222  11.336   4.640   4.857  1.3638  1.0453  0.6207
  538MOL0     H74223  11.269   4.802   4.839 -1.8059 -0.0267  0.9053
  538MOL0     H74224  10.675   3.872   4.266  0.3058 -0.1985  0.2918
  538MOL0     H74225  10.644   3.649   4.194  1.1751  1.8862 -0.8996
  538MOL0     H74226  10.485   3.248   4.375  1.6219 -0.6063  1.5499
  538MOL0     H74227  10.423   3.008   4.393  0.3287 -1.2535  0.9584
  538MOL0     H74228  10.249   1.381   4.683  4.5599 -0.3047  2.1393
  538MOL0     H74229  10.067   1.209   4.683 -4.4731  0.4356  1.0654
  538MOL0     H74230   9.712   1.051   4.635 -0.4327  2.7588  1.2349
  538MOL0     H74231   9.533   0.905   4.623 -2.9617  1.0566  1.0877
  538MOL0     H74232   9.405   0.643   4.967  0.7408 -0.7305 -0.6953
  538MOL0     H74233   9.354   0.530   4.832  0.8979  1.2473 -5.8893
  538MOL0     H74234   9.615   0.554   4.979  3.2349 -2.5356 -1.5188
  538MOL0     H74235   9.604   0.454   4.827  0.1739  0.9124 -1.2616
  538MOL0     H74236   9.579   0.320   5.040 -0.0979 -0.1555  2.2302
  538MOL0     H74237   9.432   0.422   5.074 -1.2209  1.6455 -2.5309
  538MOL0     H74238   9.365   0.330   4.834  0.2702  1.8864 -0.5405
  538MOL0     H74239   9.345   0.226   4.974  1.1560 -0.8449  0.1674
  538MOL0     H74240   9.634   0.004   4.766 -1.7598 -0.0909 -1.5098
  538MOL0     H74241   9.575   0.779   5.033 -0.7707  0.1699 -1.1171
  538MOL0     H74242   9.796   1.060   5.116  0.8781 -0.0372  0.7722
  538MOL0     H74243   9.668   0.952   5.170  1.7433 -0.0206  0.7222
  538MOL0     H74244   9.831   0.895   5.116  0.9440  2.1783  3.2453
  539MOL0     O74245   9.825   9.405  10.698 -0.3370  0.6550  1.0947
  539MOL0     C74246   9.916   9.484  10.709 -0.1116  0.6720 -0.1809
  539MOL0     O74247  10.047   9.445  10.714 -0.1563  0.4027 -0.6866
  539MOL0     C74248  10.074   9.313  10.695  1.0791 -0.1439  0.1707
  539MOL0     C74249  10.099   9.272  10.565 -1.0526  0.2163  1.2661
  539MOL0     C74250  10.133   9.150  10.530 -0.0480  0.5342  0.3768
  539MOL0     C74251  10.134   9.054  10.632 -0.9318  0.1599  0.7812
  539MOL0     O74252  10.147   8.926  10.612  0.4305  0.3606 -0.0055
  539MOL0     C74253  10.223   8.879  10.501  0.2473 -0.1515  0.4051
  539MOL0     C74254  10.277   8.736  10.524 -0.0208  0.1148 -0.6232
  539MOL0     C74255  10.399   8.684  10.437  0.3396 -0.2273  0.7549
  539MOL0     C74256  10.443   8.548  10.489  0.3815 -0.3062  0.1573
  539MOL0     C74257  10.531   8.471  10.388 -0.0056  0.3106 -0.5748
  539MOL0     C74258  10.589   8.354  10.455 -1.3103  0.0917 -0.4199
  539MOL0     C74259  10.667   8.259  10.361 -0.1270  0.4881  0.2868
  539MOL0     C74260  10.569   8.175  10.268 -0.6955  0.7001 -0.1311
  539MOL0     N74261  10.665   8.110  10.168 -0.6306  1.0167 -0.0263
  539MOL0     C74262  10.744   7.996  10.186  0.8822 -0.6117 -0.0359
  539MOL0     C74263  10.844   8.017  10.100  0.0172  0.1785  0.5505
  539MOL0     C74264  10.962   7.918  10.076  0.1603 -0.8246 -0.3881
  539MOL0     C74265  10.926   7.806   9.975  0.4972  0.2852  1.8656
  539MOL0     C74266  10.868   7.858   9.834 -0.5284  0.0922 -0.1252
  539MOL0     C74267  10.975   7.928   9.757  0.9028 -0.4156 -0.7061
  539MOL0     O74268  11.056   7.840   9.680 -0.1155 -0.3439 -0.2198
  539MOL0     C74269  10.999   7.764   9.578 -0.0854  0.6204 -1.1169
  539MOL0     C74270  11.074   7.664   9.518 -0.0201 -0.0986  0.3283
  539MOL0     C74271  11.025   7.591   9.405  1.2725  0.4054  0.6539
  539MOL0     C74272  11.133   7.505   9.330  0.1590  0.3951  0.4850
  539MOL0     C74273  10.888   7.605   9.349 -1.1462 -0.2755 -0.5011
  539MOL0     C74274  10.824   7.547   9.224 -0.0769  0.1181  0.4234
  539MOL0     O74275  10.704   7.592   9.185  0.0600  0.6234  0.1778
  539MOL0     C74276  10.668   7.569   9.057  0.6036  0.0990 -1.7629
  539MOL0     C74277  10.695   7.663   8.967  0.7233  0.5403  0.8782
  539MOL0     C74278  10.655   7.645   8.833 -0.9637 -0.6705  0.4321
  539MOL0     C74279  10.580   7.531   8.795  0.9054  0.8854 -0.4696
  539MOL0     O74280  10.543   7.529   8.661 -0.3889  0.5222 -0.4592
  539MOL0     C74281  10.459   7.435   8.590 -0.5447 -0.2222 -0.1130
  539MOL0     C74282  10.314   7.438   8.636 -0.0154  0.5741 -0.5708
  539MOL0     C74283  10.222   7.367   8.538 -0.0207 -0.7611  0.4372
  539MOL0     C74284  10.210   7.221   8.567  0.2894 -0.4295  0.2125
  539MOL0     C74285  10.141   7.140   8.458 -0.9197  0.5078  0.1352
  539MOL0     C74286   9.993   7.147   8.488  0.3615  0.5600 -0.0049
  539MOL0     C74287   9.954   7.069   8.614  0.1128  0.1504  0.0385
  539MOL0     C74288   9.812   7.017   8.623 -0.1817  0.6196  0.1325
  539MOL0    Cl74289   9.700   7.124   8.540  0.2455  0.1724  0.4788
  539MOL0     C74290  10.571   7.431   8.887 -0.1510  0.6090  0.0359
  539MOL0     C74291  10.608   7.448   9.025  0.3698 -0.2817  0.5520
  539MOL0     O74292  10.887   7.463   9.162  0.4477 -0.4262 -0.7392
  539MOL0     C74293  10.814   7.707   9.420  0.0709 -0.1423 -1.2161
  539MOL0     C74294  10.870   7.787   9.519  0.0738  1.1862  0.1919
  539MOL0     N74295  10.818   8.130  10.021 -0.4847  0.4906  0.3371
  539MOL0     N74296  10.700   8.179  10.056 -0.5835 -0.1092  0.7685
  539MOL0     C74297  10.110   9.087  10.762  0.5615  1.0808  0.2960
  539MOL0     C74298  10.076   9.215  10.796  0.7046 -0.0658  0.6286
  539MOL0     C74299   9.894   9.628  10.709  0.3095 -0.3260  0.1564
  539MOL0     C74300  10.013   9.707  10.694 -0.4738  0.3920 -0.6215
  539MOL0     C74301  10.009   9.846  10.707 -1.0935  0.0301 -0.9416
  539MOL0     C74302   9.891   9.909  10.751 -1.0264  0.3581  0.5751
  539MOL0     O74303   9.880  10.047  10.775 -1.1660  0.4480  0.2554
  539MOL0     C74304   9.941  10.139  10.678 -0.7705  0.0893 -0.5693
  539MOL0     C74305   9.886  10.121  10.539 -0.9826  0.5157 -0.5574
  539MOL0     C74306   9.904  10.243  10.449  0.5263 -0.1352 -0.0063
  539MOL0     C74307  10.048  10.238  10.386  0.0773  0.7235  0.2936
  539MOL0     C74308  10.080  10.359  10.304 -0.0634  0.2551 -0.2812
  539MOL0     C74309  10.091  10.469  10.248  0.1364  0.0339 -0.2694
  539MOL0     C74310   9.773   9.829  10.764 -0.4457 -0.2396  1.3440
  539MOL0     C74311   9.777   9.697  10.744  0.9233  0.3317  0.5893
  539MOL0     C74312   9.650   9.615  10.777 -0.4498  0.6578 -0.4469
  539MOL0     H74313  10.086   9.350  10.490 -2.9102 -1.1836  0.0373
  539MOL0     H74314  10.153   9.131  10.425 -2.9223  2.4506 -0.6266
  539MOL0     H74315  10.310   8.942  10.481  0.4881 -0.8842 -1.0133
  539MOL0     H74316  10.150   8.884  10.421 -1.6606  0.2859  2.0954
  539MOL0     H74317  10.306   8.748  10.628 -3.3692  3.2351  0.1567
  539MOL0     H74318  10.197   8.664  10.503  1.3500 -1.3327 -1.1012
  539MOL0     H74319  10.373   8.691  10.331  1.2119  1.6919  0.6333
  539MOL0     H74320  10.481   8.754  10.451 -0.7532  0.6399  3.6609
  539MOL0     H74321  10.475   8.554  10.594  0.5442 -0.0185  0.0931
  539MOL0     H74322  10.350   8.489  10.487 -0.6549  1.2931 -1.4723
  539MOL0     H74323  10.621   8.531  10.370 -0.1024  1.0587  1.2661
  539MOL0     H74324  10.485   8.459  10.289 -1.7611 -0.8601  0.3452
  539MOL0     H74325  10.665   8.387  10.527 -1.2231 -0.1801 -0.3868
  539MOL0     H74326  10.514   8.292  10.504 -0.9782  1.6695  2.2927
  539MOL0     H74327  10.713   8.183  10.425 -3.9415 -1.0720  1.5117
  539MOL0     H74328  10.742   8.311  10.301 -0.3040  1.8455  1.2066
  539MOL0     H74329  10.519   8.104  10.335 -0.0250  0.3735  0.0341
  539MOL0     H74330  10.494   8.232  10.213 -0.0524  1.1152 -0.5886
  539MOL0     H74331  10.728   7.915  10.257  1.6911 -0.1389  0.7098
  539MOL0     H74332  10.994   7.889  10.177 -1.3688  2.8754  1.3218
  539MOL0     H74333  11.047   7.976  10.039  0.8010 -1.5517 -0.0986
  539MOL0     H74334  11.012   7.740   9.955 -1.1543 -3.2970  5.3404
  539MOL0     H74335  10.857   7.730  10.011 -1.5083 -0.3039 -2.5599
  539MOL0     H74336  10.825   7.773   9.781  1.5939 -0.5583 -0.9057
  539MOL0     H74337  10.787   7.928   9.858 -1.3517 -0.8415 -0.0912
  539MOL0     H74338  10.920   7.996   9.690  0.1944 -1.1669 -0.9068
  539MOL0     H74339  11.038   7.980   9.829 -1.8376 -0.3084  1.7885
  539MOL0     H74340  11.169   7.656   9.569  0.5650  0.5959 -0.6193
  539MOL0     H74341  11.190   7.577   9.270  1.4343 -1.1977 -0.2985
  539MOL0     H74342  11.085   7.423   9.277  0.4478  0.1535  0.5951
  539MOL0     H74343  11.199   7.459   9.404  1.3470 -1.6584 -1.7587
  539MOL0     H74344  10.749   7.753   8.993 -0.4048  0.5483  3.4813
  539MOL0     H74345  10.665   7.717   8.752  1.2851  0.3066  1.4841
  539MOL0     H74346  10.466   7.448   8.481 -1.3268  0.6502 -0.0651
  539MOL0     H74347  10.495   7.332   8.596  2.3092  0.6061 -0.9983
  539MOL0     H74348  10.313   7.396   8.737  2.3039 -1.4673 -1.3106
  539MOL0     H74349  10.273   7.539   8.636 -1.8055  0.1532  4.3408
  539MOL0     H74350  10.257   7.369   8.434 -0.7442 -0.4692  0.1961
  539MOL0     H74351  10.124   7.415   8.533  0.9417  1.2115 -3.3261
  539MOL0     H74352  10.170   7.212   8.668 -2.3683 -0.8139 -0.7822
  539MOL0     H74353  10.305   7.167   8.572  1.0908  1.0219  1.3251
  539MOL0     H74354  10.179   7.158   8.357  1.8840 -2.8938  0.3714
  539MOL0     H74355  10.170   7.035   8.474  0.4594  0.2826 -3.1199
  539MOL0     H74356   9.937   7.109   8.402 -1.9310 -0.5159  1.8418
  539MOL0     H74357   9.952   7.247   8.506  1.6513  1.2574 -0.7563
  539MOL0     H74358   9.972   7.124   8.707  0.0962  2.4620 -1.2451
  539MOL0     H74359  10.015   6.978   8.615 -1.2789 -0.8886 -1.9396
  539MOL0     H74360   9.773   7.008   8.725 -4.0455 -0.0301 -1.2149
  539MOL0     H74361   9.806   6.924   8.565  1.6257 -1.1080  2.4837
  539MOL0     H74362  10.531   7.332   8.865  2.5404 -1.3846  3.0300
  539MOL0     H74363  10.596   7.374   9.103  0.9612  0.8010  1.7073
  539MOL0     H74364  10.716   7.738   9.383  0.7328  0.6305 -2.3758
  539MOL0     H74365  10.817   7.878   9.548 -0.4312  1.6794 -2.0616
  539MOL0     H74366  10.112   9.012  10.840  0.8517  0.2070 -0.5292
  539MOL0     H74367  10.055   9.248  10.897  1.5833 -1.3896  1.2764
  539MOL0     H74368  10.112   9.669  10.674  0.3476  1.6753  0.7690
  539MOL0     H74369  10.104   9.898  10.700 -0.8978 -0.0553  0.6381
  539MOL0     H74370   9.929  10.244  10.707 -1.1805 -0.0179 -0.3384
  539MOL0     H74371  10.050  10.127  10.679 -0.9402 -1.7589 -0.3446
  539MOL0     H74372   9.778  10.103  10.541 -0.6742 -1.5094  1.2690
  539MOL0     H74373   9.919  10.024  10.500 -1.9816 -0.5265  1.0702
  539MOL0     H74374   9.832  10.239  10.366  0.3325 -4.0129  0.1464
  539MOL0     H74375   9.893  10.336  10.506 -1.2035  0.5455 -1.3521
  539MOL0     H74376  10.069  10.158  10.314 -0.2288  2.8840 -2.3402
  539MOL0     H74377  10.128  10.219  10.457  1.1122  1.4057 -0.6605
  539MOL0     H74378  10.092  10.563  10.198 -0.8744 -0.9194 -2.1851
  539MOL0     H74379   9.687   9.877  10.810 -1.5704 -1.1778  0.2918
  539MOL0     H74380   9.573   9.681  10.816 -0.1802  0.2480  0.8036
  539MOL0     H74381   9.598   9.565  10.695  3.2236  0.8163 -3.1534
  539MOL0     H74382   9.669   9.549  10.862  0.4575  3.1309  1.3966
  540MOL0     O74383   9.712  11.280   9.574 -0.3964 -0.3636 -1.0228
  540MOL0     C74384   9.802  11.231   9.642  0.1471  0.3783  0.9076
  540MOL0     O74385   9.792  11.122   9.719  0.0437 -0.0620  0.2744
  540MOL0     C74386   9.692  11.033   9.718  0.5832  0.3060  0.0302
  540MOL0     C74387   9.584  11.015   9.621 -0.6539 -0.0275  0.4151
  540MOL0     C74388   9.490  10.909   9.634  0.1290  0.4986 -0.4250
  540MOL0     C74389   9.485  10.834   9.760  0.3873 -0.2832 -0.3360
  540MOL0     O74390   9.388  10.736   9.790  0.0731  0.4437 -0.0673
  540MOL0     C74391   9.276  10.708   9.715  0.2587 -0.3615 -0.4539
  540MOL0     C74392   9.175  10.628   9.800  0.1495 -0.9988  0.1091
  540MOL0     C74393   9.131  10.702   9.938 -0.7246  0.3952  0.0101
  540MOL0     C74394   9.047  10.834   9.910 -0.1226 -0.5290 -0.3864
  540MOL0     C74395   9.027  10.918  10.040  0.1524 -0.3530 -0.1810
  540MOL0     C74396   8.935  11.040   9.998 -0.8357 -0.1198 -1.0045
  540MOL0     C74397   8.898  11.116  10.128 -0.5111  0.1251  0.4262
  540MOL0     C74398   8.841  11.253  10.086  0.2632 -0.4865  1.2598
  540MOL0     N74399   8.775  11.319  10.202 -0.8386 -1.1419  0.2221
  540MOL0     C74400   8.650  11.285  10.246 -0.2698  0.1135  0.0131
  540MOL0     C74401   8.653  11.326  10.376  0.3948  0.4226  0.8356
  540MOL0     C74402   8.540  11.318  10.481  0.4352  0.3316  1.0172
  540MOL0     C74403   8.502  11.450  10.551  0.1121 -0.8142  0.7888
  540MOL0     C74404   8.400  11.429  10.671 -0.2117  0.0178  0.2821
  540MOL0     C74405   8.317  11.558  10.687 -0.6891 -0.8093  0.6931
  540MOL0     O74406   8.406  11.649  10.753  0.3345 -0.0340 -0.5299
  540MOL0     C74407   8.372  11.784  10.764 -0.6588 -0.3800 -0.4492
  540MOL0     C74408   8.471  11.876  10.787 -0.6035  0.7217  0.9060
  540MOL0     C74409   8.453  12.005  10.827 -0.1117 -0.6146  1.6323
  540MOL0     C74410   8.572  12.085  10.862  0.4538  0.1603  0.1813
  540MOL0     C74411   8.325  12.060  10.826 -0.5804 -0.4567 -0.0511
  540MOL0     C74412   8.287  12.195  10.864  0.5298 -0.5534 -0.1103
  540MOL0     O74413   8.155  12.224  10.883 -0.5501  0.8298 -0.7549
  540MOL0     C74414   8.123  12.347  10.929 -0.0518  0.4089  0.9398
  540MOL0     C74415   8.068  12.374  11.055  0.0490  0.0370  0.3235
  540MOL0     C74416   8.038  12.509  11.089  0.5884  0.7058  0.7421
  540MOL0     C74417   8.060  12.613  10.996  0.0314  0.3654  0.1733
  540MOL0     O74418   8.040  12.743  11.052  0.6653  0.8089  0.0034
  540MOL0     C74419   8.026  12.852  10.962 -0.3513  0.3349 -1.2604
  540MOL0     C74420   8.020  12.991  11.021 -0.4600 -0.9596  0.1337
  540MOL0     C74421   7.889  13.018  11.087  0.2798  0.2106 -0.6911
  540MOL0     C74422   7.868  13.167  11.126  0.2168  0.0485  0.1579
  540MOL0     C74423   7.740  13.189  11.192 -0.4640  0.0383  0.0329
  540MOL0     C74424   7.709  13.336  11.231 -0.2758  1.2293 -0.1222
  540MOL0     C74425   7.591  13.326  11.331  0.5242 -0.7555  0.2901
  540MOL0     C74426   7.465  13.263  11.273 -0.3935  0.5221 -0.7723
  540MOL0    Cl74427   7.447  13.082  11.306  0.2583 -0.1504 -0.0779
  540MOL0     C74428   8.102  12.583  10.876 -0.1183  0.1086  0.4047
  540MOL0     C74429   8.134  12.455  10.839 -0.0660  0.8890 -0.4935
  540MOL0     O74430   8.375  12.276  10.894 -0.8359 -0.2311  0.0460
  540MOL0     C74431   8.222  11.973  10.781  0.6616  0.0857 -0.0035
  540MOL0     C74432   8.247  11.837  10.750  0.2755 -0.5315 -0.4506
  540MOL0     N74433   8.768  11.392  10.399 -0.6912 -0.3589  0.8775
  540MOL0     N74434   8.844  11.392  10.296  0.6196  0.3150  0.0015
  540MOL0     C74435   9.583  10.859   9.857 -0.6778 -0.3842  0.2233
  540MOL0     C74436   9.689  10.944   9.829  0.4709  0.1836 -0.9036
  540MOL0     C74437   9.935  11.301   9.626  1.1161  0.1251 -1.4252
  540MOL0     C74438   9.971  11.344   9.490 -0.7054 -0.5365 -0.4500
  540MOL0     C74439  10.101  11.395   9.468  1.0990  0.9200  0.4712
  540MOL0     C74440  10.192  11.409   9.573  0.0371 -0.0477  0.1284
  540MOL0     O74441  10.325  11.429   9.547  0.3660 -0.2069 -0.1012
  540MOL0     C74442  10.338  11.563   9.515 -0.9227 -0.6322  0.3086
  540MOL0     C74443  10.374  11.672   9.618 -0.3714  0.5669 -1.3291
  540MOL0     C74444  10.508  11.646   9.676 -0.0169 -0.5677 -0.2827
  540MOL0     C74445  10.552  11.742   9.790  0.7608  0.8035 -0.1090
  540MOL0     C74446  10.686  11.714   9.830 -0.4790  0.8185 -0.3192
  540MOL0     C74447  10.805  11.711   9.879 -0.4465  0.3746 -0.7277
  540MOL0     C74448  10.155  11.366   9.700 -0.7792 -0.6070 -0.6913
  540MOL0     C74449  10.032  11.313   9.729 -0.2964  0.2839 -0.3351
  540MOL0     C74450  10.021  11.267   9.877  0.3418  0.7729  1.1048
  540MOL0     H74451   9.576  11.081   9.535 -0.6477 -0.5728 -0.0132
  540MOL0     H74452   9.413  10.879   9.563  0.2153 -2.7901  0.6910
  540MOL0     H74453   9.295  10.656   9.620 -2.0384  0.5920 -1.5237
  540MOL0     H74454   9.226  10.800   9.684  2.1688  1.2165  0.9326
  540MOL0     H74455   9.088  10.614   9.735 -0.9224 -0.3746  1.3649
  540MOL0     H74456   9.221  10.534   9.831  2.5044  0.4100  1.0997
  540MOL0     H74457   9.069  10.637  10.001 -0.0534  2.1472  2.6253
  540MOL0     H74458   9.221  10.723   9.997 -0.1299  0.9307 -1.0573
  540MOL0     H74459   9.097  10.895   9.834 -0.0855  2.8762  2.1098
  540MOL0     H74460   8.946  10.807   9.878 -1.7360  3.7057  0.4582
  540MOL0     H74461   9.125  10.948  10.079 -0.1691  0.2002  0.2062
  540MOL0     H74462   8.978  10.844  10.104  2.1901 -2.7896 -1.2371
  540MOL0     H74463   8.979  11.112   9.928 -1.7847  1.6246  0.1033
  540MOL0     H74464   8.846  11.001   9.948 -2.2139 -1.6741  2.3390
  540MOL0     H74465   8.985  11.130  10.192 -0.5660  2.8019  0.0358
  540MOL0     H74466   8.823  11.060  10.185 -1.2367  1.0412  0.3967
  540MOL0     H74467   8.923  11.312  10.047 -1.8617  1.5553 -0.3762
  540MOL0     H74468   8.778  11.243   9.997  1.6998  3.1665 -0.3545
  540MOL0     H74469   8.577  11.226  10.190 -0.1887  1.3761 -1.4811
  540MOL0     H74470   8.593  11.256  10.555 -0.2763 -0.2392  1.0574
  540MOL0     H74471   8.451  11.261  10.453  0.8696 -0.6737  1.5879
  540MOL0     H74472   8.595  11.490  10.591  0.7330 -0.2715 -1.0612
  540MOL0     H74473   8.455  11.519  10.480  2.4953 -1.8833 -2.0129
  540MOL0     H74474   8.325  11.357  10.637  0.3051  0.8020 -2.7934
  540MOL0     H74475   8.442  11.391  10.765  0.8924 -0.6661 -0.4731
  540MOL0     H74476   8.294  11.591  10.585  4.2872 -2.7178 -1.3801
  540MOL0     H74477   8.227  11.536  10.746 -0.0798 -0.8918  1.6216
  540MOL0     H74478   8.574  11.842  10.799 -0.1474  1.4804 -0.6075
  540MOL0     H74479   8.594  12.174  10.804  1.5784 -1.3932 -1.9093
  540MOL0     H74480   8.662  12.023  10.856 -0.2891 -0.7757 -2.6457
  540MOL0     H74481   8.569  12.115  10.967  0.6240  0.9739 -0.0430
  540MOL0     H74482   8.036  12.302  11.129 -0.9233  0.0240 -0.0945
  540MOL0     H74483   7.996  12.530  11.188 -0.7145  0.6974  0.2144
  540MOL0     H74484   8.123  12.856  10.911 -0.8167  0.7456 -2.1364
  540MOL0     H74485   7.955  12.844  10.879 -1.6849 -0.0072 -0.1259
  540MOL0     H74486   8.104  13.005  11.089 -0.7005  1.6442 -0.0032
  540MOL0     H74487   8.038  13.063  10.940  0.4551 -1.7491 -0.3914
  540MOL0     H74488   7.878  12.950  11.172 -1.4844  0.4161 -0.7314
  540MOL0     H74489   7.807  12.999  11.017  0.7288 -2.3798 -0.6254
  540MOL0     H74490   7.878  13.235  11.041  0.9728 -0.3700 -0.0929
  540MOL0     H74491   7.940  13.198  11.202 -2.1000 -1.0840  2.9879
  540MOL0     H74492   7.665  13.156  11.119  0.2437 -1.0020 -0.2373
  540MOL0     H74493   7.722  13.126  11.280  0.8725  1.2303  1.2038
  540MOL0     H74494   7.682  13.388  11.138 -1.6511 -2.9841 -2.3720
  540MOL0     H74495   7.801  13.370  11.279 -1.0842 -1.1146  3.4568
  540MOL0     H74496   7.572  13.433  11.340  3.0279 -0.1230 -1.0717
  540MOL0     H74497   7.625  13.299  11.432  3.4800  2.4260  0.3323
  540MOL0     H74498   7.455  13.268  11.164  0.3901  0.0934 -0.8702
  540MOL0     H74499   7.376  13.307  11.319  0.4120  1.5935 -0.2179
  540MOL0     H74500   8.117  12.663  10.804 -1.4780 -2.5990 -3.1920
  540MOL0     H74501   8.184  12.441  10.743  4.7798  1.3492  1.6657
  540MOL0     H74502   8.119  12.009  10.781  0.6186  0.0930  2.0218
  540MOL0     H74503   8.154  11.790  10.721 -1.8813  3.3826 -0.5591
  540MOL0     H74504   9.575  10.806   9.951 -0.2895 -0.9150 -0.0398
  540MOL0     H74505   9.760  10.972   9.906 -0.5707  1.2252 -0.2881
  540MOL0     H74506   9.901  11.338   9.407 -2.2331  1.7054  0.5763
  540MOL0     H74507  10.133  11.425   9.369  2.9602  3.4395  1.7218
  540MOL0     H74508  10.419  11.573   9.442 -1.8844  2.5952 -0.4776
  540MOL0     H74509  10.251  11.597   9.458 -2.7042 -1.3627  2.4278
  540MOL0     H74510  10.293  11.688   9.689 -1.9921  1.2727 -3.2637
  540MOL0     H74511  10.375  11.764   9.559 -1.0668 -0.0668 -2.3562
  540MOL0     H74512  10.508  11.547   9.721  2.4684  0.5216  2.4096
  540MOL0     H74513  10.576  11.644   9.590  1.1840  0.7988  0.5798
  540MOL0     H74514  10.487  11.725   9.876  2.4002  0.4628  1.1082
  540MOL0     H74515  10.540  11.850   9.775 -0.1540  0.7111 -0.1166
  540MOL0     H74516  10.892  11.702   9.940 -0.1903 -0.8844 -1.2535
  540MOL0     H74517  10.236  11.383   9.770 -2.0260  2.4229  0.1676
  540MOL0     H74518   9.924  11.296   9.917  0.8267  0.1860  2.7821
  540MOL0     H74519  10.039  11.159   9.887  0.7015  0.5483 -1.1917
  540MOL0     H74520  10.086  11.332   9.935 -1.5002  1.5104  2.4291
  541MOL0     O74521   6.849   2.059   7.528 -0.1665 -0.4154  0.2770
  541MOL0     C74522   6.939   1.971   7.531  0.0590  0.2024  0.6969
  541MOL0     O74523   6.975   1.897   7.638 -0.1722 -0.3774 -0.1246
  541MOL0     C74524   6.922   1.931   7.760 -0.7211 -0.0633 -0.6783
  541MOL0     C74525   6.783   1.921   7.797  0.4768  1.2640  0.2125
  541MOL0     C74526   6.737   1.945   7.934  0.3593  0.1603  0.3488
  541MOL0     C74527   6.833   1.999   8.021  0.2315  0.9661 -0.3073
  541MOL0     O74528   6.787   2.010   8.151  0.2306  0.7240  0.0096
  541MOL0     C74529   6.845   2.110   8.242  0.0127 -0.7531 -0.2410
  541MOL0     C74530   6.757   2.149   8.362  0.7602  0.8066 -0.9572
  541MOL0     C74531   6.796   2.267   8.456  0.9166  0.0062  0.6160
  541MOL0     C74532   6.941   2.243   8.505  0.1081  0.7196 -1.1430
  541MOL0     C74533   6.976   2.360   8.604 -0.9525 -1.0461  0.8591
  541MOL0     C74534   7.119   2.349   8.661 -0.8484  0.0257  0.0578
  541MOL0     C74535   7.152   2.458   8.765 -0.0402 -0.1201  0.0418
  541MOL0     C74536   7.120   2.611   8.713  0.8729 -0.4723 -0.0338
  541MOL0     N74537   7.170   2.714   8.812  0.1055  0.3505 -0.3947
  541MOL0     C74538   7.285   2.718   8.881 -0.6985 -0.1097 -0.7348
  541MOL0     C74539   7.279   2.820   8.968 -0.3971  0.0335 -0.6973
  541MOL0     C74540   7.376   2.851   9.086 -0.2489 -0.0600  0.2795
  541MOL0     C74541   7.358   2.759   9.201 -0.5009 -0.2164  0.6168
  541MOL0     C74542   7.458   2.647   9.192 -0.1232 -0.4549 -0.1866
  541MOL0     C74543   7.457   2.565   9.317 -0.2777 -0.2878  0.1354
  541MOL0     O74544   7.541   2.445   9.295 -0.3400 -0.1034 -0.1012
  541MOL0     C74545   7.526   2.347   9.386  0.6637  1.6046 -0.5049
  541MOL0     C74546   7.496   2.362   9.524 -0.7481 -0.0855  0.2735
  541MOL0     C74547   7.456   2.254   9.604  0.2681 -1.0861  0.4155
  541MOL0     C74548   7.431   2.302   9.752  0.2548 -0.1561  0.0664
  541MOL0     C74549   7.445   2.125   9.549  0.1620 -1.1142  0.0420
  541MOL0     C74550   7.380   2.013   9.623 -0.1973 -0.1741  0.0436
  541MOL0     O74551   7.382   1.894   9.561 -0.6949  0.4841  0.0797
  541MOL0     C74552   7.330   1.789   9.642  0.8209  0.0040 -0.2144
  541MOL0     C74553   7.403   1.730   9.746 -0.1058 -0.4216  0.0815
  541MOL0     C74554   7.353   1.617   9.823 -0.6130  0.4846  0.0545
  541MOL0     C74555   7.215   1.585   9.819 -0.2545  0.1050  0.2548
  541MOL0     O74556   7.149   1.485   9.895  0.1024 -0.7047 -0.5865
  541MOL0     C74557   7.206   1.454  10.029 -0.0793  0.4152  0.6369
  541MOL0     C74558   7.106   1.487  10.138  0.6078 -0.1887 -0.3294
  541MOL0     C74559   7.163   1.481  10.276 -0.7218  0.8791  0.2525
  541MOL0     C74560   7.262   1.595  10.299 -0.5927  0.3235 -0.3101
  541MOL0     C74561   7.300   1.602  10.442 -0.1027  1.0863  0.2267
  541MOL0     C74562   7.195   1.668  10.539  0.8745 -0.5467  0.7269
  541MOL0     C74563   7.250   1.702  10.681 -0.4853  0.5193  0.5139
  541MOL0     C74564   7.258   1.573  10.769 -0.3376  0.2606  0.6695
  541MOL0    Cl74565   7.272   1.611  10.940 -0.1750  0.1223 -0.0636
  541MOL0     C74566   7.146   1.647   9.717 -0.4581 -0.6760  0.8974
  541MOL0     C74567   7.198   1.749   9.625  1.4085  0.6561 -0.0106
  541MOL0     O74568   7.318   2.041   9.723 -0.1381 -0.1879  0.1937
  541MOL0     C74569   7.468   2.113   9.409 -0.2753 -0.2140 -0.0463
  541MOL0     C74570   7.513   2.219   9.335 -0.7137  0.6215 -0.1732
  541MOL0     N74571   7.163   2.884   8.946  0.4319  0.3760  0.1693
  541MOL0     N74572   7.087   2.808   8.862 -0.5394 -0.1097  0.8880
  541MOL0     C74573   6.962   2.023   7.982 -0.1750 -0.7101  0.0346
  541MOL0     C74574   7.002   1.986   7.858 -0.3397 -0.1582  0.3219
  541MOL0     C74575   7.021   1.944   7.404  0.5325  0.0577  0.5515
  541MOL0     C74576   7.098   1.826   7.413  0.0803 -0.4330  0.8040
  541MOL0     C74577   7.162   1.778   7.302  0.8889  0.2153  0.2793
  541MOL0     C74578   7.161   1.851   7.181 -1.2799  0.5427  0.1730
  541MOL0     O74579   7.229   1.809   7.069 -1.2761 -0.2398 -0.6289
  541MOL0     C74580   7.275   1.676   7.058 -0.6853  0.2678  0.1794
  541MOL0     C74581   7.352   1.652   6.923  0.0609 -0.1683 -0.3708
  541MOL0     C74582   7.457   1.539   6.933  0.3273 -0.4409 -0.0663
  541MOL0     C74583   7.392   1.401   6.936 -0.2392 -0.0319 -0.8578
  541MOL0     C74584   7.483   1.299   6.992  0.2587 -0.1168 -0.7940
  541MOL0     C74585   7.567   1.222   7.031 -0.2022  0.4081  0.1317
  541MOL0     C74586   7.095   1.978   7.177 -0.0871  0.5625  1.2049
  541MOL0     C74587   7.018   2.021   7.281 -0.5510 -0.3937 -0.5353
  541MOL0     C74588   6.944   2.147   7.264 -0.3978  0.6479 -0.7593
  541MOL0     H74589   6.702   1.887   7.733  2.5262 -0.7315 -1.4978
  541MOL0     H74590   6.636   1.935   7.972 -0.6775  1.3373 -1.9445
  541MOL0     H74591   6.864   2.201   8.184  1.6085 -0.2235  1.0278
  541MOL0     H74592   6.933   2.055   8.276  0.3972 -0.4311 -0.7035
  541MOL0     H74593   6.663   2.167   8.309 -1.8526 -3.3310  1.6732
  541MOL0     H74594   6.738   2.062   8.426 -1.9800  0.2250 -2.3768
  541MOL0     H74595   6.784   2.365   8.409  0.6062 -0.4569 -0.2838
  541MOL0     H74596   6.732   2.263   8.544 -1.5162 -2.1983 -1.1119
  541MOL0     H74597   6.954   2.151   8.564  0.1447  2.2718  1.4271
  541MOL0     H74598   7.015   2.240   8.425  1.4119  0.4328  0.0293
  541MOL0     H74599   6.908   2.382   8.688  2.0246  3.4627  2.4499
  541MOL0     H74600   6.987   2.447   8.538  2.1513 -1.7117  0.3629
  541MOL0     H74601   7.133   2.248   8.702 -1.3659  0.3074  0.9632
  541MOL0     H74602   7.191   2.355   8.579  0.1508 -0.8993  0.8327
  541MOL0     H74603   7.255   2.452   8.801  0.1001  1.1785 -0.1061
  541MOL0     H74604   7.095   2.450   8.858  1.9878 -2.4579  1.2073
  541MOL0     H74605   7.165   2.610   8.613 -0.2289 -1.1502 -0.5551
  541MOL0     H74606   7.016   2.630   8.685  1.3170  0.6130 -1.0126
  541MOL0     H74607   7.363   2.642   8.887 -1.5739 -0.9623  0.3518
  541MOL0     H74608   7.338   2.949   9.117 -0.4309  0.1358 -0.5294
  541MOL0     H74609   7.483   2.863   9.069  0.3403 -0.4798  3.1531
  541MOL0     H74610   7.359   2.823   9.289 -0.2680  0.7863 -0.1021
  541MOL0     H74611   7.260   2.709   9.196 -0.3417 -0.5581  0.8698
  541MOL0     H74612   7.429   2.576   9.114  1.2915 -0.2878 -0.8957
  541MOL0     H74613   7.559   2.683   9.171 -0.0233  0.7190  1.9775
  541MOL0     H74614   7.507   2.629   9.390  1.1396  1.3469 -2.1484
  541MOL0     H74615   7.355   2.537   9.345  0.8576 -2.9076  2.0613
  541MOL0     H74616   7.496   2.466   9.556  0.2000 -0.0589  0.2168
  541MOL0     H74617   7.322   2.305   9.765  0.4262 -3.2917  4.7331
  541MOL0     H74618   7.484   2.397   9.765 -1.4353  0.9989 -1.1372
  541MOL0     H74619   7.474   2.231   9.823 -0.3451  0.5589  1.1769
  541MOL0     H74620   7.502   1.772   9.758 -0.5502  0.2636  1.6460
  541MOL0     H74621   7.414   1.554   9.887 -1.3503  0.3733  0.6602
  541MOL0     H74622   7.234   1.349  10.020  1.0000  0.8147 -1.0804
  541MOL0     H74623   7.299   1.507  10.051  0.1272 -0.3787  1.7598
  541MOL0     H74624   7.075   1.592  10.130  1.0021 -0.1794 -2.1029
  541MOL0     H74625   7.020   1.419  10.131  1.3541 -1.0506 -1.6569
  541MOL0     H74626   7.215   1.387  10.294  3.0720  2.8693  0.5692
  541MOL0     H74627   7.087   1.492  10.354  0.8787 -0.0784  2.0185
  541MOL0     H74628   7.226   1.693  10.264 -1.6378 -0.0574 -0.3310
  541MOL0     H74629   7.361   1.576  10.256  1.8378  2.3036  3.7570
  541MOL0     H74630   7.322   1.503  10.482 -3.4961 -0.4522 -1.2625
  541MOL0     H74631   7.394   1.657  10.450  0.2976  0.4945 -0.3001
  541MOL0     H74632   7.110   1.599  10.547 -0.5297  0.8354 -1.3512
  541MOL0     H74633   7.151   1.761  10.503 -3.8183 -0.6772  4.9342
  541MOL0     H74634   7.177   1.769  10.729 -1.3431  1.3724 -1.8516
  541MOL0     H74635   7.347   1.750  10.668 -0.8240  1.2082  0.5054
  541MOL0     H74636   7.333   1.510  10.722 -0.0776  0.2008  1.1532
  541MOL0     H74637   7.162   1.522  10.757  0.1617 -0.4547 -0.3766
  541MOL0     H74638   7.039   1.634   9.723 -0.5899  0.5156  1.5230
  541MOL0     H74639   7.133   1.807   9.560  2.0508  1.1614 -0.2137
  541MOL0     H74640   7.430   2.029   9.352 -2.3508  1.8908 -1.9617
  541MOL0     H74641   7.511   2.204   9.227  2.6932  0.4530 -0.3025
  541MOL0     H74642   7.042   2.063   8.043  1.2300  1.4822 -2.9821
  541MOL0     H74643   7.106   1.993   7.827 -0.4973  2.7072  0.2227
  541MOL0     H74644   7.099   1.758   7.497 -3.6591  2.3347  3.4181
  541MOL0     H74645   7.205   1.679   7.308  0.9505  0.1794 -0.6563
  541MOL0     H74646   7.345   1.647   7.136 -1.5974 -2.1359  0.1798
  541MOL0     H74647   7.188   1.611   7.058 -0.5202 -0.1327 -2.8357
  541MOL0     H74648   7.393   1.743   6.880  0.1867 -0.6070 -1.2020
  541MOL0     H74649   7.280   1.613   6.850 -0.0581  2.4378 -1.7446
  541MOL0     H74650   7.525   1.545   6.847  1.6721 -0.1824  0.9769
  541MOL0     H74651   7.509   1.557   7.028 -0.9121 -0.5695  0.6516
  541MOL0     H74652   7.374   1.368   6.834 -0.6454  1.0468 -1.1446
  541MOL0     H74653   7.291   1.388   6.976  0.2020 -0.4507  0.1592
  541MOL0     H74654   7.636   1.140   7.040  1.6259  2.0529  2.0364
  541MOL0     H74655   7.098   2.047   7.094  0.8445 -2.5774 -1.6241
  541MOL0     H74656   6.948   2.190   7.163 -0.1446  0.5740 -0.7794
  541MOL0     H74657   6.837   2.130   7.280 -0.6197  0.6651 -2.0771
  541MOL0     H74658   6.972   2.220   7.340 -3.6736 -0.2952  1.6049
  542MOL0     O74659   8.105   4.058   5.768 -0.6779  0.6564  0.0944
  542MOL0     C74660   8.143   4.034   5.882 -0.1285  0.0211 -0.1867
  542MOL0     O74661   8.261   3.973   5.907  0.2689 -0.4440  0.3692
  542MOL0     C74662   8.331   3.898   5.814 -0.3811 -0.3616 -0.7246
  542MOL0     C74663   8.269   3.841   5.703 -0.1531 -0.1757 -0.5799
  542MOL0     C74664   8.349   3.770   5.609  0.8488 -0.1499 -0.0821
  542MOL0     C74665   8.487   3.753   5.636  0.5354  1.0712 -0.8099
  542MOL0     O74666   8.576   3.683   5.544  0.4546  0.1194  0.6077
  542MOL0     C74667   8.538   3.642   5.421  0.7282  0.6140  0.3980
  542MOL0     C74668   8.644   3.577   5.329 -0.2719 -0.2285 -1.0491
  542MOL0     C74669   8.587   3.515   5.200  0.1603 -0.7462 -0.5253
  542MOL0     C74670   8.689   3.502   5.089  0.5393 -0.6670 -0.1348
  542MOL0     C74671   8.636   3.424   4.970  0.7718  0.1626  0.5570
  542MOL0     C74672   8.720   3.430   4.837  0.4810  0.6718 -0.0190
  542MOL0     C74673   8.640   3.406   4.707  0.5608  0.2047 -0.2981
  542MOL0     C74674   8.725   3.408   4.580  0.4436  0.1122  0.6275
  542MOL0     N74675   8.747   3.283   4.512 -0.2963  1.0190 -0.1643
  542MOL0     C74676   8.756   3.277   4.381  0.2036  0.8503  0.9587
  542MOL0     C74677   8.778   3.144   4.345  0.8410 -0.6088  0.7259
  542MOL0     C74678   8.778   3.091   4.204  0.0990  0.7458 -0.5907
  542MOL0     C74679   8.918   3.058   4.141 -0.1998 -0.0994 -0.6129
  542MOL0     C74680   8.999   3.194   4.107 -1.4419 -0.0846  0.5714
  542MOL0     C74681   8.938   3.289   4.004  0.6594 -0.8516 -0.5928
  542MOL0     O74682   9.037   3.383   3.985  0.0234 -1.2682  0.9229
  542MOL0     C74683   9.142   3.383   3.892 -0.3303  0.2024 -0.1100
  542MOL0     C74684   9.140   3.312   3.772  0.4635 -0.2805  0.2258
  542MOL0     C74685   9.251   3.304   3.684  0.9085  0.8869 -0.8826
  542MOL0     C74686   9.228   3.242   3.551 -0.4794 -0.6569  0.7156
  542MOL0     C74687   9.356   3.387   3.715 -0.1341 -0.2368  0.1170
  542MOL0     C74688   9.467   3.409   3.627 -1.3344  0.3514  0.0761
  542MOL0     O74689   9.441   3.455   3.506 -0.8394  0.2989 -0.1385
  542MOL0     C74690   9.554   3.470   3.420 -0.6458 -0.2224 -0.2661
  542MOL0     C74691   9.567   3.586   3.348  0.0746 -0.2394 -0.1702
  542MOL0     C74692   9.674   3.610   3.262 -0.1225  0.6878  0.2293
  542MOL0     C74693   9.765   3.510   3.229 -0.8231  0.1372 -0.6275
  542MOL0     O74694   9.865   3.509   3.127  0.2696 -0.4451  0.6116
  542MOL0     C74695   9.917   3.641   3.094 -1.2526  0.5310 -0.0239
  542MOL0     C74696  10.059   3.606   3.038 -0.6704 -0.1231 -0.6187
  542MOL0     C74697  10.145   3.526   3.143  0.3202  0.8053  0.9738
  542MOL0     C74698  10.244   3.437   3.069  0.9430 -0.4993  0.0979
  542MOL0     C74699  10.291   3.332   3.175  0.5417 -0.1064 -1.1440
  542MOL0     C74700  10.390   3.389   3.276 -1.2423  0.1516 -0.4701
  542MOL0     C74701  10.473   3.274   3.336  0.8033  0.0320 -0.5153
  542MOL0     C74702  10.616   3.291   3.336  0.6781 -0.1166 -0.9057
  542MOL0    Cl74703  10.680   3.403   3.456  0.5115 -0.0292 -0.1331
  542MOL0     C74704   9.746   3.388   3.302 -0.1065 -0.5126 -0.1702
  542MOL0     C74705   9.647   3.369   3.393  0.1443  0.4287 -0.3194
  542MOL0     O74706   9.583   3.378   3.667 -0.0440 -0.4764 -0.4899
  542MOL0     C74707   9.373   3.455   3.840  0.4340 -0.3392 -0.2176
  542MOL0     C74708   9.266   3.441   3.930  0.5995 -0.8027  0.0635
  542MOL0     N74709   8.774   3.074   4.466  0.6542 -0.6922  0.4438
  542MOL0     N74710   8.764   3.157   4.561  1.2990  0.4285 -0.4392
  542MOL0     C74711   8.540   3.807   5.756 -0.2688  0.7465  0.4080
  542MOL0     C74712   8.465   3.877   5.844 -0.4520 -0.3883 -0.3724
  542MOL0     C74713   8.071   4.097   5.994 -0.1308 -0.4483 -0.2893
  542MOL0     C74714   8.071   4.029   6.111  0.7357  0.3473 -0.8511
  542MOL0     C74715   7.989   4.065   6.214  0.5326  0.5602  0.6425
  542MOL0     C74716   7.918   4.183   6.207  0.1567  0.2845  0.0019
  542MOL0     O74717   7.841   4.213   6.319  0.0375 -0.3943 -0.8042
  542MOL0     C74718   7.823   4.353   6.345 -0.3717 -0.1641  0.7244
  542MOL0     C74719   7.677   4.383   6.305 -0.4355  0.0305 -0.0398
  542MOL0     C74720   7.648   4.535   6.313  0.7880  0.9849 -0.2046
  542MOL0     C74721   7.683   4.603   6.437  0.4822 -0.1494  0.9332
  542MOL0     C74722   7.654   4.742   6.416  0.7999  0.2182 -0.3937
  542MOL0     C74723   7.651   4.862   6.427 -0.1813  0.5547 -0.5072
  542MOL0     C74724   7.918   4.255   6.089  0.3108  0.2853 -0.5652
  542MOL0     C74725   7.992   4.217   5.985  0.1149 -0.7825  1.0879
  542MOL0     C74726   7.990   4.304   5.869  0.2754 -0.5406 -0.8269
  542MOL0     H74727   8.162   3.840   5.684 -0.4242 -2.9927  0.5771
  542MOL0     H74728   8.296   3.735   5.521 -1.0491 -0.7180  1.2379
  542MOL0     H74729   8.492   3.723   5.363 -2.1948 -1.1041  0.1387
  542MOL0     H74730   8.457   3.569   5.428  0.5179  0.6289 -1.2774
  542MOL0     H74731   8.707   3.655   5.286 -0.3489  0.3466 -0.1623
  542MOL0     H74732   8.701   3.504   5.387  0.6975  0.6354 -0.8921
  542MOL0     H74733   8.542   3.416   5.210 -0.5229 -0.9406 -4.1316
  542MOL0     H74734   8.511   3.586   5.169 -0.3948 -0.5236  1.2395
  542MOL0     H74735   8.711   3.604   5.054  1.3012  0.5910  3.6086
  542MOL0     H74736   8.779   3.458   5.131  0.0634 -1.9355 -0.3882
  542MOL0     H74737   8.548   3.477   4.930  1.7763  0.5636 -1.2696
  542MOL0     H74738   8.603   3.324   4.999 -1.9978  0.8889  0.2092
  542MOL0     H74739   8.783   3.519   4.840  1.3476  0.0517  1.0579
  542MOL0     H74740   8.790   3.348   4.853 -2.4856 -2.1055 -0.2713
  542MOL0     H74741   8.588   3.502   4.698  2.1795  0.9438 -3.2345
  542MOL0     H74742   8.571   3.321   4.712  0.2883  0.3495 -1.2808
  542MOL0     H74743   8.675   3.475   4.510 -0.8600 -1.7201 -0.2786
  542MOL0     H74744   8.827   3.444   4.599 -0.0581  2.8873 -1.2816
  542MOL0     H74745   8.762   3.357   4.308  0.1506 -0.5809 -0.6778
  542MOL0     H74746   8.725   3.155   4.133 -1.3142 -1.3675 -1.5344
  542MOL0     H74747   8.714   3.003   4.198  1.4612 -0.2631 -1.0407
  542MOL0     H74748   8.979   2.994   4.205 -0.3795  0.4761  0.1553
  542MOL0     H74749   8.912   3.012   4.042 -1.0287  1.2883 -1.2314
  542MOL0     H74750   9.025   3.257   4.193 -2.3212  2.0501 -0.6690
  542MOL0     H74751   9.095   3.170   4.062 -0.6602  1.7461  1.1999
  542MOL0     H74752   8.911   3.242   3.909 -0.8676 -4.7872  1.5549
  542MOL0     H74753   8.840   3.329   4.033  0.0335 -0.5652 -2.8624
  542MOL0     H74754   9.055   3.257   3.734  0.9984 -2.1485  1.5834
  542MOL0     H74755   9.155   3.305   3.500 -1.5795 -0.5458  2.3789
  542MOL0     H74756   9.193   3.139   3.564  0.7877 -1.0047  1.5057
  542MOL0     H74757   9.323   3.231   3.497  1.6944 -0.2407  4.1638
  542MOL0     H74758   9.493   3.664   3.363 -0.4685  0.0545 -3.5442
  542MOL0     H74759   9.674   3.703   3.206  1.3126  0.7333  0.2562
  542MOL0     H74760   9.875   3.701   3.013  0.1273  1.5796  0.0070
  542MOL0     H74761   9.910   3.700   3.186 -5.2575  0.2235  0.0352
  542MOL0     H74762  10.051   3.543   2.949  3.3447 -2.1446  0.2460
  542MOL0     H74763  10.107   3.698   3.003 -2.4626  0.4970 -1.6077
  542MOL0     H74764  10.085   3.456   3.202 -0.8238  1.6093  0.8007
  542MOL0     H74765  10.198   3.592   3.213 -2.0423  2.4598  1.3236
  542MOL0     H74766  10.319   3.502   3.023 -0.2968 -0.0512 -1.3471
  542MOL0     H74767  10.188   3.387   2.990  1.3358  0.7862 -1.0199
  542MOL0     H74768  10.207   3.289   3.231  0.3874  2.7674  1.1003
  542MOL0     H74769  10.346   3.262   3.111  2.4095  0.9966 -0.8261
  542MOL0     H74770  10.346   3.453   3.354  0.0017  2.6032 -1.6753
  542MOL0     H74771  10.448   3.450   3.206  0.1421  0.9825  1.3310
  542MOL0     H74772  10.465   3.188   3.269  1.4537 -0.5615  0.1534
  542MOL0     H74773  10.438   3.251   3.437  2.8423 -0.1056  0.2010
  542MOL0     H74774  10.649   3.322   3.236  1.1641  0.3295 -0.6170
  542MOL0     H74775  10.662   3.196   3.363 -1.8195 -0.1956  3.9790
  542MOL0     H74776   9.813   3.307   3.275 -0.8417 -0.9356 -0.7681
  542MOL0     H74777   9.642   3.271   3.439 -2.1347  0.6818  0.1324
  542MOL0     H74778   9.471   3.493   3.867  2.1493 -4.4009  0.0395
  542MOL0     H74779   9.286   3.485   4.027  1.6861  2.5175 -1.4928
  542MOL0     H74780   8.645   3.778   5.761 -0.9417 -1.9745  0.3819
  542MOL0     H74781   8.512   3.926   5.928 -1.1293  0.6200 -0.5621
  542MOL0     H74782   8.143   3.951   6.134  0.0530  0.1514  0.8044
  542MOL0     H74783   7.992   4.021   6.313 -1.5525 -0.5855  0.2577
  542MOL0     H74784   7.834   4.364   6.453 -0.9960 -2.6005  1.1082
  542MOL0     H74785   7.892   4.421   6.295 -1.9913 -0.5983 -2.3619
  542MOL0     H74786   7.612   4.319   6.365 -1.2648  2.9229  2.4110
  542MOL0     H74787   7.664   4.345   6.204 -2.3074  1.4819 -0.4018
  542MOL0     H74788   7.718   4.572   6.237 -0.3842 -1.4132 -2.6276
  542MOL0     H74789   7.543   4.553   6.289 -0.0460 -3.6554 -0.9997
  542MOL0     H74790   7.790   4.598   6.459  0.3343  0.6427  1.9728
  542MOL0     H74791   7.613   4.564   6.512  0.1955 -1.3561  0.0704
  542MOL0     H74792   7.636   4.965   6.451  0.3301  0.5390 -0.0953
  542MOL0     H74793   7.861   4.347   6.077  0.2979  0.5507  1.2890
  542MOL0     H74794   7.943   4.241   5.793 -0.9473 -0.8670  0.1755
  542MOL0     H74795   7.931   4.395   5.883 -0.4427 -1.2365  0.9442
  542MOL0     H74796   8.093   4.315   5.833  1.1390 -3.3998  0.4766
  543MOL0     O74797   9.602  11.341   1.832  0.0125  0.5029  0.2481
  543MOL0     C74798   9.663  11.418   1.910  0.3742 -0.0188  1.0424
  543MOL0     O74799   9.606  11.515   1.988  0.5336  0.2821  0.7203
  543MOL0     C74800   9.470  11.540   2.000  0.0298 -0.0986 -1.0640
  543MOL0     C74801   9.380  11.442   1.982 -0.2914  0.0769  0.2913
  543MOL0     C74802   9.249  11.467   1.978  0.7888 -0.2898 -0.2344
  543MOL0     C74803   9.194  11.592   1.988  0.3613  0.1198  0.2721
  543MOL0     O74804   9.053  11.597   1.978  0.4998 -0.0399 -0.3833
  543MOL0     C74805   8.984  11.708   2.039 -0.5004  0.1167  0.0251
  543MOL0     C74806   8.832  11.668   2.060 -1.3807  0.7050 -1.8469
  543MOL0     C74807   8.773  11.753   2.176 -0.2152 -0.0285 -0.0616
  543MOL0     C74808   8.766  11.898   2.143  0.7453 -1.1170  0.8774
  543MOL0     C74809   8.723  11.985   2.261 -0.5950  0.3257  0.0734
  543MOL0     C74810   8.713  12.139   2.220 -0.3819  0.1329 -0.0425
  543MOL0     C74811   8.692  12.230   2.344 -0.3525 -0.1828 -0.2221
  543MOL0     C74812   8.710  12.377   2.314  0.1809 -0.9564 -0.5281
  543MOL0     N74813   8.856  12.409   2.314 -0.8282 -0.6986 -0.3445
  543MOL0     C74814   8.935  12.447   2.425  0.5525 -0.9507  0.5256
  543MOL0     C74815   9.065  12.469   2.393  0.1725 -0.7509  0.6464
  543MOL0     C74816   9.187  12.489   2.484 -0.1053  0.2094 -0.3312
  543MOL0     C74817   9.316  12.423   2.436 -0.3153  0.4145 -0.6431
  543MOL0     C74818   9.428  12.421   2.548  0.1464 -0.5202  0.2261
  543MOL0     C74819   9.452  12.546   2.623  0.1482  0.1651 -0.2440
  543MOL0     O74820   9.568  12.527   2.716 -0.2131 -0.6524  0.4478
  543MOL0     C74821   9.615  12.651   2.770 -0.3757  0.7116 -0.0124
  543MOL0     C74822   9.717  12.641   2.868  0.5023  0.1598 -0.0851
  543MOL0     C74823   9.768  12.744   2.940 -0.5799 -0.4469 -0.2309
  543MOL0     C74824   9.875  12.716   3.043 -0.0803 -0.4719 -0.7154
  543MOL0     C74825   9.703  12.873   2.922 -0.5191  0.8718 -0.0595
  543MOL0     C74826   9.746  12.994   3.003  0.0249 -0.8679  0.8628
  543MOL0     O74827   9.881  13.013   3.004 -0.7602 -0.4821 -0.2053
  543MOL0     C74828   9.930  13.074   3.116  0.2297 -0.0202  0.0914
  543MOL0     C74829   9.900  13.029   3.242  0.2439  1.1106 -0.5929
  543MOL0     C74830   9.965  13.084   3.357 -0.8278 -0.3915 -0.5435
  543MOL0     C74831  10.048  13.191   3.344 -0.6471 -0.4921  0.1728
  543MOL0     O74832  10.102  13.257   3.456  0.1096  0.2184  0.5725
  543MOL0     C74833  10.072  13.204   3.586  0.2934  0.0943  0.2104
  543MOL0     C74834  10.152  13.290   3.686  0.6158 -0.3928  0.1636
  543MOL0     C74835  10.288  13.227   3.718  0.0425 -0.2505 -0.4286
  543MOL0     C74836  10.281  13.100   3.813 -0.3866 -0.1436  1.4613
  543MOL0     C74837  10.399  13.085   3.908  0.0818  0.6753  0.5233
  543MOL0     C74838  10.420  12.938   3.926 -0.0737  0.7853  0.6702
  543MOL0     C74839  10.501  12.900   4.052  0.2877  0.0906  0.4111
  543MOL0     C74840  10.565  12.768   4.045  0.0143 -0.7225 -1.0382
  543MOL0    Cl74841  10.467  12.626   4.081 -0.0761  0.1816  0.2184
  543MOL0     C74842  10.070  13.242   3.218  0.3555 -0.3199  0.1948
  543MOL0     C74843  10.020  13.181   3.097 -0.5585  0.0619 -0.6946
  543MOL0     O74844   9.654  13.071   3.039 -0.7934  0.1110  0.6182
  543MOL0     C74845   9.598  12.887   2.831  0.7446 -0.1663  0.2534
  543MOL0     C74846   9.550  12.778   2.757 -0.2261 -0.2313  0.1393
  543MOL0     N74847   9.062  12.452   2.250 -0.1642 -0.4063  0.6627
  543MOL0     N74848   8.939  12.413   2.204 -0.1352 -1.1365  0.9835
  543MOL0     C74849   9.279  11.705   2.008 -0.3643 -0.3422 -0.3694
  543MOL0     C74850   9.420  11.670   2.007 -0.2252 -1.3584 -0.4972
  543MOL0     C74851   9.796  11.375   1.952 -0.3605  0.5528  0.3887
  543MOL0     C74852   9.906  11.451   1.914 -0.5008 -0.0272  0.0568
  543MOL0     C74853  10.031  11.416   1.973 -0.4325  0.1723  0.0118
  543MOL0     C74854  10.052  11.299   2.049  0.5359  0.1838 -0.6699
  543MOL0     O74855  10.168  11.258   2.108  0.1715 -0.2612  0.3306
  543MOL0     C74856  10.285  11.290   2.034  0.5148  0.7527 -0.3018
  543MOL0     C74857  10.410  11.231   2.091 -0.1807  0.8261  0.5477
  543MOL0     C74858  10.513  11.224   1.984  1.0186  0.3778  0.5764
  543MOL0     C74859  10.489  11.104   1.892  0.7047  0.5780 -0.0625
  543MOL0     C74860  10.600  11.094   1.793 -0.6910 -0.7108  1.2608
  543MOL0     C74861  10.697  11.079   1.718  0.6472 -0.1246  0.5728
  543MOL0     C74862   9.944  11.220   2.073  0.6589 -1.2774 -0.6854
  543MOL0     C74863   9.812  11.249   2.021  0.6952  0.7645  0.2070
  543MOL0     C74864   9.702  11.142   2.039  0.1569 -0.5463 -0.6585
  543MOL0     H74865   9.415  11.340   1.977  1.8888  0.8156 -0.7894
  543MOL0     H74866   9.184  11.384   1.954  1.2125 -0.3541 -1.2156
  543MOL0     H74867   8.999  11.793   1.971  0.8111 -1.3092 -1.5578
  543MOL0     H74868   9.032  11.734   2.134  3.9494  0.5454 -2.1101
  543MOL0     H74869   8.790  11.685   1.960  0.2080 -0.3281 -2.7444
  543MOL0     H74870   8.833  11.560   2.079  0.7120  0.6196 -2.1820
  543MOL0     H74871   8.669  11.722   2.188 -0.8679  1.5666 -1.1707
  543MOL0     H74872   8.833  11.734   2.266 -0.2451  0.7721  0.1375
  543MOL0     H74873   8.847  11.943   2.085  0.4080 -0.3218  1.0137
  543MOL0     H74874   8.692  11.899   2.062  0.2061 -0.5941  1.3608
  543MOL0     H74875   8.809  11.980   2.328 -1.1519  0.3009  0.8036
  543MOL0     H74876   8.638  11.951   2.321 -0.4942  0.0214  0.0435
  543MOL0     H74877   8.801  12.160   2.157 -3.4037  1.9281 -4.1115
  543MOL0     H74878   8.623  12.160   2.163 -0.7309  1.0233  0.8262
  543MOL0     H74879   8.758  12.203   2.427  0.6971 -0.5321 -1.1407
  543MOL0     H74880   8.591  12.207   2.380 -0.1683  1.3826  1.4315
  543MOL0     H74881   8.665  12.396   2.216 -1.3892  0.9852  0.5039
  543MOL0     H74882   8.658  12.450   2.376  0.0726  2.2603 -4.0029
  543MOL0     H74883   8.905  12.459   2.529  4.0712  0.8275  1.5113
  543MOL0     H74884   9.175  12.442   2.582  3.1198 -0.2146 -0.0490
  543MOL0     H74885   9.214  12.594   2.495 -0.9004  0.5570 -1.4332
  543MOL0     H74886   9.302  12.318   2.407  1.5999  0.1422 -0.6881
  543MOL0     H74887   9.357  12.473   2.348  0.0393  0.2714 -0.5597
  543MOL0     H74888   9.395  12.345   2.619  2.0087 -2.8686 -1.2870
  543MOL0     H74889   9.517  12.374   2.506  0.5483 -1.3046  1.9058
  543MOL0     H74890   9.469  12.634   2.561 -0.4102  3.7778  4.2273
  543MOL0     H74891   9.363  12.570   2.681 -1.3214 -0.8437 -1.9735
  543MOL0     H74892   9.755  12.539   2.878 -0.7172 -0.2508  0.5569
  543MOL0     H74893   9.832  12.727   3.143 -1.6454  1.0284 -1.4930
  543MOL0     H74894   9.962  12.781   3.037 -1.3094  1.5330  1.5532
  543MOL0     H74895   9.911  12.613   3.041 -0.6131 -0.7323  1.1072
  543MOL0     H74896   9.824  12.952   3.253  1.2623  0.1271 -0.1642
  543MOL0     H74897   9.924  13.050   3.452 -1.8681  1.6146 -0.1989
  543MOL0     H74898   9.965  13.213   3.608 -0.0393 -0.6831 -0.9814
  543MOL0     H74899  10.103  13.100   3.588  0.0809 -0.0290 -1.4590
  543MOL0     H74900  10.179  13.383   3.633  0.1002  0.2515  1.0084
  543MOL0     H74901  10.109  13.312   3.784  2.9470  1.8125  0.8103
  543MOL0     H74902  10.351  13.301   3.769  1.3847 -1.8161  0.2872
  543MOL0     H74903  10.335  13.208   3.622 -0.0521 -0.9652 -0.3397
  543MOL0     H74904  10.280  13.014   3.746  2.1259  1.4040 -0.7580
  543MOL0     H74905  10.191  13.093   3.876 -1.6888  0.1461 -0.2807
  543MOL0     H74906  10.488  13.122   3.856  0.1872  0.9460  0.8905
  543MOL0     H74907  10.381  13.134   4.004 -0.9101  0.0396  0.6848
  543MOL0     H74908  10.463  12.894   3.836 -4.0054  0.3807 -1.1951
  543MOL0     H74909  10.326  12.886   3.943  0.6675  0.1987  3.4222
  543MOL0     H74910  10.439  12.912   4.141 -0.1560  2.3323 -0.1197
  543MOL0     H74911  10.573  12.982   4.066 -0.4886  1.0142 -0.8397
  543MOL0     H74912  10.652  12.773   4.111 -1.3955 -1.0642  0.9358
  543MOL0     H74913  10.598  12.759   3.942 -0.3270 -4.1448 -0.9600
  543MOL0     H74914  10.132  13.331   3.206  0.7822 -0.5045  0.9680
  543MOL0     H74915  10.034  13.231   3.002  2.0098 -0.8355 -0.8604
  543MOL0     H74916   9.550  12.983   2.817 -2.2758 -1.5669  0.2823
  543MOL0     H74917   9.456  12.787   2.703 -1.7966  1.2588  2.8924
  543MOL0     H74918   9.259  11.812   2.018  2.6355  0.3103 -0.4107
  543MOL0     H74919   9.495  11.748   2.014 -0.8353 -0.5668 -2.2120
  543MOL0     H74920   9.882  11.549   1.874 -0.5809  1.1820  2.8404
  543MOL0     H74921  10.111  11.486   1.953  0.2521 -1.0964 -1.8673
  543MOL0     H74922  10.270  11.253   1.932  2.2058 -3.0695  0.6410
  543MOL0     H74923  10.284  11.399   2.040  2.5552  0.8054 -0.1929
  543MOL0     H74924  10.391  11.137   2.144  4.2668  0.7996  2.4723
  543MOL0     H74925  10.442  11.300   2.169  1.2375 -0.3938  1.0920
  543MOL0     H74926  10.522  11.322   1.935 -0.5609  0.2012 -0.1030
  543MOL0     H74927  10.612  11.207   2.027  0.7419 -1.7661  0.4741
  543MOL0     H74928  10.395  11.120   1.837  0.7103  0.8828  0.0132
  543MOL0     H74929  10.479  11.018   1.959 -1.6882  1.6658  1.1440
  543MOL0     H74930  10.774  11.084   1.643  0.6768  0.1153  0.6165
  543MOL0     H74931   9.950  11.138   2.144 -1.9378 -1.9659 -1.1401
  543MOL0     H74932   9.734  11.079   2.123 -4.1204 -1.4558  0.5115
  543MOL0     H74933   9.618  11.197   2.083  2.1770  0.1776  2.6533
  543MOL0     H74934   9.686  11.089   1.945 -0.8138  2.4178 -2.2899
  544MOL0     O74935   2.945   2.044   7.945  0.1681 -0.1794  0.3865
  544MOL0     C74936   3.047   2.071   8.001 -0.0917 -0.0870  0.0896
  544MOL0     O74937   3.162   2.125   7.939  0.3488  0.2589  0.6037
  544MOL0     C74938   3.171   2.128   7.801  0.7483  0.8403 -0.0409
  544MOL0     C74939   3.263   2.225   7.756 -0.3409  0.0399 -0.1667
  544MOL0     C74940   3.285   2.253   7.622  0.1685  0.3489  0.9190
  544MOL0     C74941   3.215   2.189   7.513  0.2313  0.3668  0.2652
  544MOL0     O74942   3.223   2.228   7.381 -0.1525  0.1743  0.3836
  544MOL0     C74943   3.114   2.207   7.284 -0.0450 -0.6106  0.0092
  544MOL0     C74944   3.160   2.267   7.156 -0.0719  0.5415 -0.7105
  544MOL0     C74945   3.062   2.243   7.034  0.2534 -0.5469 -1.1792
  544MOL0     C74946   3.106   2.317   6.901 -0.7894  0.5548  1.1384
  544MOL0     C74947   3.003   2.307   6.787 -0.3741 -0.3550  0.1160
  544MOL0     C74948   3.057   2.322   6.650 -0.2688  0.2180 -0.5865
  544MOL0     C74949   2.947   2.368   6.557 -0.1587  0.0236  0.4937
  544MOL0     C74950   2.999   2.382   6.404 -1.4461 -0.2956 -0.8497
  544MOL0     N74951   3.066   2.257   6.367 -0.5107  0.6681  0.7339
  544MOL0     C74952   3.204   2.239   6.351 -0.9005  0.4992  0.4812
  544MOL0     C74953   3.227   2.109   6.359 -0.6337  0.3995 -0.2542
  544MOL0     C74954   3.344   2.026   6.359 -0.9544 -0.3584  0.1453
  544MOL0     C74955   3.398   1.998   6.496  0.5792 -0.1180  0.5521
  544MOL0     C74956   3.488   2.102   6.550  0.2122 -0.8803  0.2641
  544MOL0     C74957   3.556   2.085   6.691  0.0149 -0.0847  0.2266
  544MOL0     O74958   3.573   1.943   6.701 -0.3969  0.4494  0.1601
  544MOL0     C74959   3.637   1.884   6.805  0.5330 -0.2784 -0.3266
  544MOL0     C74960   3.699   1.761   6.790  0.0423 -0.9969 -0.6335
  544MOL0     C74961   3.755   1.694   6.905 -0.5531 -0.8585 -0.3599
  544MOL0     C74962   3.815   1.552   6.879 -0.4417 -0.3700 -0.5633
  544MOL0     C74963   3.754   1.749   7.039 -0.2230  0.3462  0.0469
  544MOL0     C74964   3.821   1.682   7.153  0.7571  0.4166 -0.1994
  544MOL0     O74965   3.851   1.762   7.264 -0.3099  0.0407 -0.2084
  544MOL0     C74966   3.889   1.722   7.392 -0.9275  0.0279  0.7100
  544MOL0     C74967   3.843   1.607   7.446  0.1284  0.1084  0.2966
  544MOL0     C74968   3.890   1.565   7.565  0.4147  0.8380  0.1978
  544MOL0     C74969   3.994   1.632   7.640  0.7161 -0.0771  0.0939
  544MOL0     O74970   4.030   1.579   7.762 -0.2684 -0.5175  0.2622
  544MOL0     C74971   4.065   1.447   7.773  0.2424  0.3241 -0.0953
  544MOL0     C74972   4.142   1.445   7.906 -0.5750 -0.6012  0.3843
  544MOL0     C74973   4.232   1.327   7.930  0.0564  0.3202 -0.1827
  544MOL0     C74974   4.303   1.358   8.069 -0.8350 -0.7784 -0.0064
  544MOL0     C74975   4.433   1.277   8.097 -0.5603  0.4305 -0.1767
  544MOL0     C74976   4.532   1.338   8.195 -0.6151  0.4152 -0.3747
  544MOL0     C74977   4.662   1.250   8.200 -0.5371 -0.4112 -0.2413
  544MOL0     C74978   4.769   1.286   8.299 -0.7694  0.0723 -0.4454
  544MOL0    Cl74979   4.918   1.189   8.257  0.0567 -0.2866 -0.0852
  544MOL0     C74980   4.042   1.755   7.582 -0.3337  0.4146 -0.1873
  544MOL0     C74981   3.994   1.789   7.457  0.1109 -0.3527  0.5962
  544MOL0     O74982   3.816   1.554   7.158 -0.5136 -0.0782  0.0052
  544MOL0     C74983   3.702   1.878   7.047  0.3625  0.3123 -0.0745
  544MOL0     C74984   3.653   1.944   6.939  0.6181  0.4335  0.6526
  544MOL0     N74985   3.105   2.052   6.374  0.5691 -0.1299  0.2021
  544MOL0     N74986   3.001   2.132   6.373 -0.6050  0.7576  0.0412
  544MOL0     C74987   3.134   2.092   7.558  0.5077 -0.3928 -1.1310
  544MOL0     C74988   3.110   2.059   7.695  0.2331 -0.5513  0.3448
  544MOL0     C74989   3.063   2.055   8.145 -0.2546 -0.7745  0.2503
  544MOL0     C74990   2.940   2.045   8.232  0.3144  0.2196  0.4853
  544MOL0     C74991   2.952   2.011   8.364 -0.4017 -0.4940 -0.3963
  544MOL0     C74992   3.070   1.993   8.431  0.3799  0.7490 -0.2421
  544MOL0     O74993   3.067   1.970   8.565 -0.3900 -0.4878  0.0821
  544MOL0     C74994   3.180   1.992   8.648  0.5491 -0.6632 -0.6875
  544MOL0     C74995   3.169   1.963   8.803 -0.2680 -0.1861 -0.7091
  544MOL0     C74996   3.062   2.041   8.881  0.4176  0.4289 -0.0179
  544MOL0     C74997   2.915   2.016   8.845 -0.3492 -0.3728 -1.1240
  544MOL0     C74998   2.879   1.884   8.896 -0.1137  0.3076  0.1329
  544MOL0     C74999   2.854   1.775   8.934  1.2912 -0.0599 -0.4034
  544MOL0     C75000   3.186   2.009   8.353 -0.3573 -0.3343 -0.4115
  544MOL0     C75001   3.189   2.042   8.213  0.3097 -0.4579 -0.5606
  544MOL0     C75002   3.325   2.027   8.155 -0.7152 -1.1635 -0.6833
  544MOL0     H75003   3.301   2.282   7.840 -2.3091 -3.0221  3.0791
  544MOL0     H75004   3.348   2.340   7.604 -0.1933  0.2449 -1.0487
  544MOL0     H75005   3.023   2.262   7.307 -0.7139 -0.0966 -3.3779
  544MOL0     H75006   3.089   2.102   7.265 -0.8259 -0.2346 -1.0695
  544MOL0     H75007   3.167   2.376   7.166 -0.2014  0.5698 -0.9133
  544MOL0     H75008   3.261   2.237   7.129  0.3481  2.6452 -1.6814
  544MOL0     H75009   3.054   2.135   7.014  3.4421 -0.7644 -1.7474
  544MOL0     H75010   2.964   2.286   7.056  0.7900  1.0521 -1.7736
  544MOL0     H75011   3.127   2.422   6.919  0.6026  0.3033  1.0610
  544MOL0     H75012   3.190   2.260   6.861 -1.6208  0.7526 -1.0212
  544MOL0     H75013   2.940   2.392   6.814  1.9187  1.7763 -0.8717
  544MOL0     H75014   2.951   2.211   6.787 -1.2180  0.0743  1.2676
  544MOL0     H75015   3.130   2.404   6.652  0.6767 -0.5830 -1.1996
  544MOL0     H75016   3.100   2.226   6.623  3.5869  0.8412  2.4236
  544MOL0     H75017   2.902   2.466   6.578  1.2005  0.4803  1.3940
  544MOL0     H75018   2.868   2.294   6.573  0.4028 -0.4199  1.2650
  544MOL0     H75019   2.921   2.410   6.333 -2.4977  0.0419  0.4053
  544MOL0     H75020   3.068   2.467   6.400  2.1727 -2.9537  0.0651
  544MOL0     H75021   3.270   2.322   6.329 -3.2717  1.6844 -3.0762
  544MOL0     H75022   3.416   2.082   6.298 -5.7658  3.8318 -2.4260
  544MOL0     H75023   3.317   1.935   6.305  1.5008 -0.0291 -1.8417
  544MOL0     H75024   3.313   1.976   6.562 -2.4245  2.1595 -2.2410
  544MOL0     H75025   3.468   1.916   6.480  3.0282  1.6955  1.3921
  544MOL0     H75026   3.566   2.112   6.475 -2.4081  3.6455 -2.3489
  544MOL0     H75027   3.440   2.201   6.550  3.4242  0.8495 -1.3412
  544MOL0     H75028   3.653   2.135   6.700 -0.8534  1.5065  1.1125
  544MOL0     H75029   3.494   2.126   6.772 -1.3331  1.5827 -1.5656
  544MOL0     H75030   3.702   1.719   6.690  2.5555  0.2620 -1.1460
  544MOL0     H75031   3.855   1.557   6.778  1.3759  1.2241  0.1635
  544MOL0     H75032   3.743   1.473   6.899  0.2753 -1.0331 -0.5582
  544MOL0     H75033   3.906   1.531   6.936 -0.7067  1.8973  0.8560
  544MOL0     H75034   3.768   1.552   7.390  2.0361 -0.4162 -1.9118
  544MOL0     H75035   3.860   1.467   7.602 -0.3950  0.8647 -0.3641
  544MOL0     H75036   3.983   1.376   7.787  0.3573  0.1056 -0.5122
  544MOL0     H75037   4.128   1.409   7.692 -2.4783  0.5596 -2.5027
  544MOL0     H75038   4.211   1.529   7.919 -0.5581 -0.6352  0.5136
  544MOL0     H75039   4.071   1.463   7.987 -0.9349 -0.5487  0.0614
  544MOL0     H75040   4.307   1.314   7.851  0.9754 -2.2218  0.9832
  544MOL0     H75041   4.171   1.236   7.935  1.5720 -0.7535 -0.3517
  544MOL0     H75042   4.236   1.355   8.156  0.3019 -2.4934  0.8506
  544MOL0     H75043   4.344   1.459   8.078  0.2403 -1.2937  1.1829
  544MOL0     H75044   4.404   1.173   8.113  1.1326 -0.0972 -0.3365
  544MOL0     H75045   4.487   1.278   8.001 -0.1268 -2.3902 -0.0595
  544MOL0     H75046   4.498   1.350   8.298  0.7042 -1.8482  0.4041
  544MOL0     H75047   4.551   1.444   8.173  0.8321  0.4646  0.9381
  544MOL0     H75048   4.712   1.253   8.102  3.0596  1.5713  1.4910
  544MOL0     H75049   4.631   1.145   8.207 -1.1599 -0.2785 -0.8578
  544MOL0     H75050   4.731   1.260   8.398  2.7329 -2.1220  0.4599
  544MOL0     H75051   4.803   1.389   8.288 -0.7276 -0.0837 -1.9978
  544MOL0     H75052   4.132   1.808   7.613  0.1964 -0.6598  0.1722
  544MOL0     H75053   4.043   1.866   7.398 -0.4852 -3.7657 -5.1333
  544MOL0     H75054   3.712   1.934   7.139 -0.8716  0.3758  0.0374
  544MOL0     H75055   3.608   2.043   6.944 -0.4129 -0.0793  1.8797
  544MOL0     H75056   3.070   2.057   7.478 -1.5744  1.8616 -0.5912
  544MOL0     H75057   3.027   1.990   7.711  1.1246 -1.4398  1.3209
  544MOL0     H75058   2.845   2.047   8.179  0.5777  2.1574 -0.0048
  544MOL0     H75059   2.857   2.001   8.417 -0.1070 -0.7311  0.0945
  544MOL0     H75060   3.263   1.931   8.610 -0.9016 -1.5834 -2.5554
  544MOL0     H75061   3.210   2.097   8.639 -2.9143  0.6306  1.2301
  544MOL0     H75062   3.260   1.977   8.862 -1.0059 -1.6475  0.8732
  544MOL0     H75063   3.146   1.857   8.818  0.2278  0.0025  1.7988
  544MOL0     H75064   3.086   2.009   8.983  1.6057 -1.1009 -0.7322
  544MOL0     H75065   3.076   2.150   8.878 -0.8446  0.5970 -0.3141
  544MOL0     H75066   2.901   2.013   8.736 -0.5911 -4.1308 -1.1152
  544MOL0     H75067   2.844   2.086   8.890 -2.0760 -2.5495 -0.3301
  544MOL0     H75068   2.821   1.690   8.990  1.9909  0.7622  1.3333
  544MOL0     H75069   3.280   1.991   8.403 -0.1736 -2.0826 -1.3012
  544MOL0     H75070   3.371   2.124   8.175  0.2150 -1.7457  0.0632
  544MOL0     H75071   3.381   1.957   8.217 -0.0435 -0.5822 -0.6153
  544MOL0     H75072   3.337   1.983   8.055 -0.2004 -1.6136 -0.4285
  545MOL0     O75073   5.885  10.492   7.162 -0.5254  0.2023 -0.4004
  545MOL0     C75074   5.912  10.468   7.042  0.5823  0.1291 -0.0706
  545MOL0     O75075   5.953  10.339   7.000  0.2953  0.0281 -0.5171
  545MOL0     C75076   5.958  10.241   7.105 -0.1532 -0.6616  0.7192
  545MOL0     C75077   5.843  10.207   7.182  0.7805  0.4098  0.3087
  545MOL0     C75078   5.849  10.102   7.280  0.8804  1.4685  0.3400
  545MOL0     C75079   5.972  10.030   7.308  0.1348 -0.0957  0.0575
  545MOL0     O75080   5.998   9.925   7.390  0.8334  0.1106 -0.5507
  545MOL0     C75081   5.883   9.837   7.409  0.5571 -0.5422 -0.4126
  545MOL0     C75082   5.887   9.740   7.291 -0.2488  0.6300  0.6122
  545MOL0     C75083   6.007   9.637   7.293  0.5473  0.2005 -0.2410
  545MOL0     C75084   5.980   9.522   7.391  1.4636 -0.4212  0.3068
  545MOL0     C75085   6.079   9.407   7.386 -0.3525  0.2186 -0.2023
  545MOL0     C75086   6.057   9.304   7.269  0.4180  0.9565  0.3294
  545MOL0     C75087   6.123   9.173   7.280 -0.1503  0.0915 -0.9999
  545MOL0     C75088   6.268   9.164   7.223 -0.3890  0.9726  0.7534
  545MOL0     N75089   6.288   9.194   7.076 -0.0267  0.2250  0.2867
  545MOL0     C75090   6.257   9.118   6.963  0.7422 -0.1320 -0.0239
  545MOL0     C75091   6.285   9.199   6.862  0.6790  0.2873  0.0330
  545MOL0     C75092   6.275   9.165   6.717  0.3307  0.0162 -0.3887
  545MOL0     C75093   6.387   9.079   6.674 -0.3132 -0.3789  0.6587
  545MOL0     C75094   6.394   9.047   6.526  0.0974 -0.2546  0.2778
  545MOL0     C75095   6.454   9.150   6.435  0.1665  0.8347  0.4052
  545MOL0     O75096   6.369   9.157   6.314  0.5528 -0.1694 -0.3872
  545MOL0     C75097   6.406   9.224   6.203  0.0840 -0.3146  0.2524
  545MOL0     C75098   6.334   9.195   6.077 -0.3549 -0.2276 -0.1117
  545MOL0     C75099   6.365   9.266   5.966 -0.1304  0.1835  0.2677
  545MOL0     C75100   6.296   9.232   5.833  0.3136  0.0596  0.6530
  545MOL0     C75101   6.473   9.364   5.965  0.3209 -0.2127 -0.3045
  545MOL0     C75102   6.514   9.447   5.840  0.8194  0.0568  0.9077
  545MOL0     O75103   6.450   9.440   5.720 -0.3624  0.1645 -0.0996
  545MOL0     C75104   6.526   9.470   5.606  0.3880 -0.6269 -0.2870
  545MOL0     C75105   6.456   9.537   5.506 -0.5010  0.5379 -0.1090
  545MOL0     C75106   6.532   9.564   5.395  0.6661 -0.0840  0.4891
  545MOL0     C75107   6.661   9.517   5.370  0.6882  0.3344  0.7990
  545MOL0     O75108   6.722   9.550   5.252  0.1719  0.3080  0.3634
  545MOL0     C75109   6.834   9.463   5.204  0.3366  0.1703 -0.4946
  545MOL0     C75110   6.917   9.505   5.087  0.3083  0.1331  0.1432
  545MOL0     C75111   6.993   9.398   5.013 -0.0832 -0.0135  0.1908
  545MOL0     C75112   7.089   9.459   4.921  1.5822 -0.6955  0.3620
  545MOL0     C75113   7.140   9.361   4.801  0.7298 -0.3851 -0.0257
  545MOL0     C75114   7.041   9.365   4.687  0.1475  0.2362  0.3916
  545MOL0     C75115   7.115   9.300   4.568 -0.0972 -0.4632  0.4771
  545MOL0     C75116   7.002   9.310   4.460  0.2058 -0.8603 -0.4259
  545MOL0    Cl75117   6.856   9.228   4.502  0.1082  0.4374  0.1652
  545MOL0     C75118   6.715   9.436   5.471 -0.1217 -0.1316  0.2632
  545MOL0     C75119   6.652   9.416   5.585 -0.4913  0.9652  0.0818
  545MOL0     O75120   6.615   9.516   5.862  0.3858 -0.7668  0.6274
  545MOL0     C75121   6.551   9.382   6.081  0.0972  0.1305 -0.6616
  545MOL0     C75122   6.514   9.318   6.202  1.1641 -0.8510  0.9309
  545MOL0     N75123   6.332   9.310   6.910 -0.3937 -0.4976  0.2399
  545MOL0     N75124   6.339   9.309   7.042  0.0851 -1.0705  0.4989
  545MOL0     C75125   6.080  10.075   7.233 -0.3365  0.2871  1.0304
  545MOL0     C75126   6.080  10.175   7.126  0.2294  0.2813 -0.7303
  545MOL0     C75127   5.890  10.558   6.927 -0.9399 -0.8877 -0.4249
  545MOL0     C75128   5.851  10.501   6.803  0.0356 -0.4403 -0.3320
  545MOL0     C75129   5.801  10.588   6.707  0.2180 -0.0313 -0.0069
  545MOL0     C75130   5.782  10.721   6.730  0.3304 -0.4055  0.4939
  545MOL0     O75131   5.725  10.806   6.629  0.0838 -0.4939 -0.4718
  545MOL0     C75132   5.677  10.756   6.502 -1.3231  0.6005 -0.4799
  545MOL0     C75133   5.776  10.789   6.388  0.3136  0.2046  0.5932
  545MOL0     C75134   5.722  10.751   6.247  0.6880 -0.0865  0.0066
  545MOL0     C75135   5.759  10.604   6.221  0.4033 -1.2153  0.5300
  545MOL0     C75136   5.895  10.589   6.180 -0.0427  0.7161  0.1585
  545MOL0     C75137   6.004  10.553   6.152 -0.3991  0.0643 -0.6211
  545MOL0     C75138   5.832  10.779   6.846 -0.6949 -0.1118 -0.2959
  545MOL0     C75139   5.890  10.700   6.949  0.1698  0.1123  0.2902
  545MOL0     C75140   5.935  10.765   7.073  0.2320  0.2665  0.3999
  545MOL0     H75141   5.747  10.254   7.164  0.5024 -0.2893 -0.0698
  545MOL0     H75142   5.753  10.078   7.324  0.0059  2.7130 -0.8010
  545MOL0     H75143   5.788   9.889   7.409 -0.1751 -1.8273  0.3553
  545MOL0     H75144   5.884   9.789   7.507 -0.1991  0.6865  0.2022
  545MOL0     H75145   5.788   9.694   7.287 -0.9523  2.1357 -2.8038
  545MOL0     H75146   5.894   9.801   7.200 -1.5543 -0.4174 -0.2194
  545MOL0     H75147   6.019   9.589   7.196  2.7493 -2.0483  1.0248
  545MOL0     H75148   6.099   9.689   7.323  0.0557  0.9523  0.0018
  545MOL0     H75149   5.981   9.554   7.495  0.3603  1.5600 -0.2338
  545MOL0     H75150   5.879   9.491   7.363  1.5971  0.3867 -1.1678
  545MOL0     H75151   6.070   9.345   7.476  2.9527 -0.8294 -0.4437
  545MOL0     H75152   6.180   9.447   7.373 -0.8693  1.5541 -0.2315
  545MOL0     H75153   5.950   9.281   7.270  0.4606  0.4975  3.3760
  545MOL0     H75154   6.086   9.342   7.171 -0.2518  2.7838  0.7832
  545MOL0     H75155   6.062   9.101   7.224  1.6619 -2.0693 -0.3327
  545MOL0     H75156   6.112   9.146   7.386  0.3799  0.1773 -0.9227
  545MOL0     H75157   6.333   9.230   7.281  2.0387  1.4227 -2.1999
  545MOL0     H75158   6.300   9.060   7.233 -2.3994  0.0231 -1.4801
  545MOL0     H75159   6.222   9.016   6.965  2.0100 -0.5747  1.7316
  545MOL0     H75160   6.271   9.258   6.659 -0.8075  0.7568  0.8231
  545MOL0     H75161   6.185   9.106   6.696  0.2933 -0.3225  0.6901
  545MOL0     H75162   6.479   9.128   6.708 -0.6477  0.0787  0.9076
  545MOL0     H75163   6.377   8.987   6.733 -1.0283 -0.6768  0.0754
  545MOL0     H75164   6.431   8.945   6.510 -0.1071 -0.2506 -0.2281
  545MOL0     H75165   6.290   9.054   6.492 -0.5775  2.9012  2.5301
  545MOL0     H75166   6.451   9.244   6.492  0.3605  0.7601  0.5376
  545MOL0     H75167   6.559   9.124   6.420  0.3391 -0.9051  3.8338
  545MOL0     H75168   6.245   9.132   6.082 -1.2723  1.0811  0.7279
  545MOL0     H75169   6.245   9.314   5.781  0.0926 -0.9587 -0.8072
  545MOL0     H75170   6.220   9.155   5.847  2.2179 -2.0929 -0.3244
  545MOL0     H75171   6.368   9.193   5.761  1.5318  3.9400 -0.4757
  545MOL0     H75172   6.351   9.561   5.523 -0.5590  0.4397 -0.3222
  545MOL0     H75173   6.475   9.621   5.321  1.3216  1.0670  0.8464
  545MOL0     H75174   6.909   9.441   5.281 -0.5380 -1.9589 -0.1952
  545MOL0     H75175   6.780   9.376   5.166 -0.9997  0.2680  1.0395
  545MOL0     H75176   6.849   9.549   5.013  2.8264  5.5020  0.5990
  545MOL0     H75177   6.983   9.583   5.125 -0.1185  0.6280 -0.1222
  545MOL0     H75178   6.927   9.334   4.954 -0.1718  0.9912 -0.8379
  545MOL0     H75179   7.038   9.339   5.093  0.1038  2.0714  1.7273
  545MOL0     H75180   7.176   9.484   4.982  2.1093 -0.8788 -0.3038
  545MOL0     H75181   7.051   9.552   4.878 -1.7780 -0.9303  2.4410
  545MOL0     H75182   7.228   9.418   4.768 -2.0472  2.0465 -4.2392
  545MOL0     H75183   7.159   9.263   4.844  1.1129 -1.0964 -1.7316
  545MOL0     H75184   7.018   9.471   4.672  0.2397  0.3286  0.9145
  545MOL0     H75185   6.948   9.310   4.707 -0.6525  1.5897  0.5557
  545MOL0     H75186   7.156   9.201   4.592 -0.3864 -0.1909  2.2115
  545MOL0     H75187   7.200   9.359   4.535 -1.6162  1.4329 -0.2246
  545MOL0     H75188   7.050   9.268   4.370  0.2437 -1.5190 -0.1016
  545MOL0     H75189   6.994   9.416   4.434  4.2071  0.4241  2.5165
  545MOL0     H75190   6.809   9.384   5.452 -0.2034  0.3859 -1.7251
  545MOL0     H75191   6.689   9.349   5.662 -1.5268 -0.4847 -0.6358
  545MOL0     H75192   6.630   9.455   6.098  0.8428 -1.0417  1.2276
  545MOL0     H75193   6.567   9.350   6.291  0.1631 -0.6120  1.4559
  545MOL0     H75194   6.177  10.032   7.254 -0.0416  0.8038  0.7213
  545MOL0     H75195   6.168  10.204   7.070  2.3316  1.4396  2.8517
  545MOL0     H75196   5.859  10.394   6.788  0.4381 -0.2641 -1.4451
  545MOL0     H75197   5.769  10.538   6.616  1.3251 -0.9730  0.1052
  545MOL0     H75198   5.670  10.646   6.501  2.7368  0.1758  1.0213
  545MOL0     H75199   5.585  10.810   6.477 -1.5872  0.1866 -0.4104
  545MOL0     H75200   5.876  10.747   6.401  0.2371 -0.4515 -0.7854
  545MOL0     H75201   5.776  10.899   6.394 -2.7866  0.2231  2.1405
  545MOL0     H75202   5.613  10.756   6.251  0.6079  0.6239 -2.0114
  545MOL0     H75203   5.749  10.827   6.173 -0.8240 -0.4483 -0.9495
  545MOL0     H75204   5.701  10.584   6.130  1.9837 -0.2763 -0.7332
  545MOL0     H75205   5.734  10.530   6.297  2.0978 -1.7485  0.5905
  545MOL0     H75206   6.109  10.534   6.147 -0.5866 -1.4574  0.3471
  545MOL0     H75207   5.827  10.887   6.857  2.2905  0.2798 -1.7649
  545MOL0     H75208   5.915  10.871   7.056 -2.8355 -0.1791  0.6174
  545MOL0     H75209   5.879  10.718   7.155  0.0244 -0.5661 -0.2091
  545MOL0     H75210   6.044  10.765   7.081  0.3488  3.1415 -0.3914
  546MOL0     O75211   5.190  10.554  11.512  0.3299 -0.2049 -0.3306
  546MOL0     C75212   5.293  10.606  11.483 -0.5355 -0.3128  1.4107
  546MOL0     O75213   5.326  10.731  11.513 -0.3762  0.0185  0.5631
  546MOL0     C75214   5.274  10.786  11.627  0.0574  0.3285 -0.4394
  546MOL0     C75215   5.196  10.891  11.618 -0.3212  0.4884 -0.2509
  546MOL0     C75216   5.129  10.930  11.735  0.4094 -0.4015 -0.3106
  546MOL0     C75217   5.146  10.882  11.862  0.3856  0.2250 -0.0459
  546MOL0     O75218   5.091  10.936  11.973  0.0673 -0.2603 -0.2770
  546MOL0     C75219   5.035  10.848  12.066  0.3671 -0.4602  0.2198
  546MOL0     C75220   4.935  10.917  12.155 -0.0487  0.4438  0.2303
  546MOL0     C75221   4.893  10.854  12.287 -1.1179  0.0099 -0.5953
  546MOL0     C75222   4.767  10.760  12.273  0.8716  0.0019 -0.1062
  546MOL0     C75223   4.721  10.691  12.401  0.0156  0.3702 -0.6749
  546MOL0     C75224   4.579  10.655  12.424 -0.9375 -0.8273 -0.1319
  546MOL0     C75225   4.526  10.564  12.310 -0.0461 -0.7917  0.6260
  546MOL0     C75226   4.396  10.601  12.245  0.4886  0.2997  1.0784
  546MOL0     N75227   4.382  10.533  12.112 -0.6023 -0.9964  0.6220
  546MOL0     C75228   4.398  10.394  12.086 -0.0082 -0.4831  0.0186
  546MOL0     C75229   4.409  10.387  11.954 -0.6142 -0.9058 -0.3577
  546MOL0     C75230   4.402  10.262  11.880 -0.2082 -0.1295 -0.4179
  546MOL0     C75231   4.506  10.151  11.913 -0.4391 -0.0335  0.2355
  546MOL0     C75232   4.469  10.019  11.851  1.0875  0.7354  0.2212
  546MOL0     C75233   4.440  10.034  11.703 -0.0831 -0.0869  0.2964
  546MOL0     O75234   4.407   9.903  11.651 -0.9799  0.1845  0.2662
  546MOL0     C75235   4.342   9.886  11.527 -0.2624 -0.6606  0.2616
  546MOL0     C75236   4.309   9.757  11.488 -0.6456 -0.0105  0.2277
  546MOL0     C75237   4.225   9.735  11.375  0.9770  0.7566  0.0287
  546MOL0     C75238   4.221   9.590  11.318 -0.0057  0.3968 -0.3535
  546MOL0     C75239   4.170   9.846  11.307  0.5982  0.7775  0.4220
  546MOL0     C75240   4.072   9.832  11.198  0.1825 -0.3505 -0.3477
  546MOL0     O75241   4.030   9.950  11.138 -0.2274 -0.3252  1.0328
  546MOL0     C75242   3.947   9.940  11.028  0.0305 -0.0432 -0.8337
  546MOL0     C75243   3.837  10.019  11.028  0.3148 -0.7837 -0.5116
  546MOL0     C75244   3.740  10.018  10.925  0.0714 -0.5025  0.2385
  546MOL0     C75245   3.765   9.937  10.816 -0.7443  1.1842 -0.0838
  546MOL0     O75246   3.689   9.921  10.704 -0.0858 -0.7844  0.0101
  546MOL0     C75247   3.542   9.944  10.720 -0.0663 -0.0206  0.1126
  546MOL0     C75248   3.470   9.890  10.598  0.8626  0.0625 -0.8216
  546MOL0     C75249   3.550   9.898  10.468 -0.9790  0.4800 -0.4551
  546MOL0     C75250   3.463   9.840  10.358  0.5480 -0.5622 -0.2487
  546MOL0     C75251   3.527   9.861  10.225  0.1474 -0.1878  0.1103
  546MOL0     C75252   3.462   9.946  10.128  0.3879 -0.4489  0.1010
  546MOL0     C75253   3.496  10.095  10.152  0.2780  0.4525 -0.0884
  546MOL0     C75254   3.484  10.171  10.020 -1.0412  0.2917  0.0487
  546MOL0    Cl75255   3.597  10.107   9.887  0.6394 -0.2897 -0.0736
  546MOL0     C75256   3.885   9.862  10.812  0.7891  0.7301 -0.5040
  546MOL0     C75257   3.966   9.848  10.922 -0.2746  0.6267  0.2256
  546MOL0     O75258   4.028   9.722  11.168 -1.4163  0.7067  0.0258
  546MOL0     C75259   4.211   9.976  11.348 -0.2571 -1.1311  0.0766
  546MOL0     C75260   4.296   9.994  11.455  0.1225  0.1396  0.2892
  546MOL0     N75261   4.386  10.514  11.901  0.3389 -0.0620  0.6913
  546MOL0     N75262   4.372  10.599  11.998 -0.1943  0.0340 -0.0619
  546MOL0     C75263   5.240  10.779  11.869  0.2803 -0.5570  0.2944
  546MOL0     C75264   5.306  10.728  11.756  0.5974  0.1090  0.2280
  546MOL0     C75265   5.392  10.542  11.389  0.6898 -0.3385 -0.2360
  546MOL0     C75266   5.473  10.628  11.319 -0.7229  0.8403  0.3291
  546MOL0     C75267   5.587  10.584  11.253 -0.3033 -0.6069  0.7525
  546MOL0     C75268   5.624  10.450  11.260  1.0004 -0.7854  1.1748
  546MOL0     O75269   5.750  10.428  11.205  0.2438 -0.1430  0.0226
  546MOL0     C75270   5.758  10.387  11.068  0.0958  0.2672  0.2823
  546MOL0     C75271   5.770  10.504  10.972 -0.4387 -0.5238 -0.3681
  546MOL0     C75272   5.910  10.578  10.989 -0.5237  0.1631 -0.6557
  546MOL0     C75273   5.929  10.697  10.887  0.3041 -0.3097 -0.4573
  546MOL0     C75274   5.963  10.647  10.757 -0.0277  1.1725 -0.0444
  546MOL0     C75275   5.980  10.593  10.653  0.6517 -0.1087  0.0202
  546MOL0     C75276   5.537  10.362  11.315  0.3488  0.6077  0.0234
  546MOL0     C75277   5.416  10.403  11.382  0.6904  0.6594  0.5215
  546MOL0     C75278   5.328  10.301  11.450  0.1202  0.5780 -1.1670
  546MOL0     H75279   5.188  10.936  11.519 -3.9091 -0.9025 -0.7459
  546MOL0     H75280   5.055  11.006  11.711  0.0682 -0.3993  0.7233
  546MOL0     H75281   5.117  10.823  12.135  1.3860  2.9518  0.4444
  546MOL0     H75282   4.999  10.755  12.023  3.9262 -0.9067 -2.2484
  546MOL0     H75283   4.973  11.016  12.183 -0.2719  0.5024  0.3243
  546MOL0     H75284   4.849  10.925  12.088  1.2621 -0.0667 -1.5705
  546MOL0     H75285   4.978  10.800  12.331 -0.6886 -0.1558 -1.5970
  546MOL0     H75286   4.870  10.934  12.357  2.5700  1.3786 -0.7248
  546MOL0     H75287   4.686  10.820  12.229  1.6474  0.7336 -0.5763
  546MOL0     H75288   4.787  10.690  12.192 -0.7198  0.8457 -1.2786
  546MOL0     H75289   4.764  10.735  12.492  1.6224  5.4220 -3.5383
  546MOL0     H75290   4.775  10.596  12.390 -0.4529 -0.0387  0.3564
  546MOL0     H75291   4.566  10.606  12.521  3.6005 -3.9071 -0.7958
  546MOL0     H75292   4.526  10.751  12.434  2.1493  0.7551  4.2043
  546MOL0     H75293   4.517  10.459  12.339 -1.6534 -1.2072 -1.1232
  546MOL0     H75294   4.594  10.567  12.225 -2.1552  3.0704 -1.1893
  546MOL0     H75295   4.324  10.549  12.310  0.5716 -1.7542 -0.3698
  546MOL0     H75296   4.382  10.709  12.246  3.7539  0.8149  1.3388
  546MOL0     H75297   4.394  10.314  12.159 -0.5077 -0.9035 -0.4526
  546MOL0     H75298   4.393  10.282  11.773  1.5854  1.5329 -0.3111
  546MOL0     H75299   4.301  10.225  11.902  1.0548 -0.9389  6.6738
  546MOL0     H75300   4.597  10.188  11.865 -0.1235 -1.3251 -0.2084
  546MOL0     H75301   4.516  10.130  12.020  0.4315 -0.4058  0.0894
  546MOL0     H75302   4.557   9.956  11.861  1.4668  1.4326  1.5207
  546MOL0     H75303   4.386   9.970  11.902  2.2592 -5.5933 -2.9877
  546MOL0     H75304   4.347  10.091  11.693 -2.8898 -4.4588 -1.2252
  546MOL0     H75305   4.521  10.074  11.641 -1.3074  2.6467  0.2947
  546MOL0     H75306   4.343   9.676  11.552 -1.3891  0.9777  1.9352
  546MOL0     H75307   4.118   9.554  11.320  0.1394 -0.3509 -3.1250
  546MOL0     H75308   4.281   9.520  11.377  0.3053  0.8557 -0.1155
  546MOL0     H75309   4.266   9.579  11.219  0.9635  0.3276  0.0787
  546MOL0     H75310   3.827  10.092  11.108  0.1338 -0.9712 -0.3634
  546MOL0     H75311   3.655  10.085  10.928 -0.3155 -1.0376  2.0954
  546MOL0     H75312   3.502   9.908  10.815 -2.9371 -2.6599 -1.9112
  546MOL0     H75313   3.531  10.053  10.715 -0.9058 -0.0854  0.5086
  546MOL0     H75314   3.446   9.788  10.628 -2.9389  1.4432  1.6760
  546MOL0     H75315   3.374   9.942  10.588 -1.4071 -2.4822  4.0288
  546MOL0     H75316   3.641   9.837  10.479 -0.3256  0.5996 -3.9858
  546MOL0     H75317   3.576  10.001  10.444 -0.2883 -0.0975 -2.3369
  546MOL0     H75318   3.369   9.895  10.366  0.6785 -0.4485  0.6405
  546MOL0     H75319   3.448   9.734  10.376 -1.0976 -0.4255 -0.6538
  546MOL0     H75320   3.631   9.893  10.236 -0.1798  0.5007  1.3045
  546MOL0     H75321   3.533   9.764  10.174  0.9547  0.1715 -0.5043
  546MOL0     H75322   3.355   9.921  10.132  0.5623 -1.0595  1.2487
  546MOL0     H75323   3.509   9.918  10.033 -0.2645  2.5535 -1.2378
  546MOL0     H75324   3.597  10.098  10.195  0.5349  0.5539 -0.6913
  546MOL0     H75325   3.417  10.125  10.222 -2.4871 -4.2771 -0.7503
  546MOL0     H75326   3.505  10.278  10.029  2.4720 -0.2056 -0.7359
  546MOL0     H75327   3.382  10.152   9.986 -0.8395 -2.8276  0.8446
  546MOL0     H75328   3.903   9.807  10.720  1.2670  1.0875 -0.6316
  546MOL0     H75329   4.054   9.784  10.920  0.5299  1.6989  0.6847
  546MOL0     H75330   4.167  10.065  11.305 -2.6523 -1.4684  1.5914
  546MOL0     H75331   4.327  10.096  11.473  1.3080 -0.1153 -0.1854
  546MOL0     H75332   5.268  10.737  11.965 -0.0821  0.4677  0.8623
  546MOL0     H75333   5.357  10.634  11.771 -2.1167 -1.1467  2.5778
  546MOL0     H75334   5.467  10.736  11.311 -1.1079  0.7450 -0.7834
  546MOL0     H75335   5.651  10.656  11.203  3.9545 -3.0677  2.2336
  546MOL0     H75336   5.846  10.324  11.058 -0.3375 -0.5166  1.2840
  546MOL0     H75337   5.676  10.318  11.047  1.8172 -1.6347 -0.4877
  546MOL0     H75338   5.695  10.579  10.996 -1.1736 -0.5234 -2.4653
  546MOL0     H75339   5.746  10.479  10.868 -3.1182  2.9045 -0.7578
  546MOL0     H75340   5.923  10.619  11.089  1.9633  0.9130 -1.2222
  546MOL0     H75341   5.987  10.500  10.985  0.1041  0.4698  2.7467
  546MOL0     H75342   6.006  10.753  10.939 -1.5703  1.4711  0.5170
  546MOL0     H75343   5.838  10.756  10.876  1.0995  0.9856 -0.2702
  546MOL0     H75344   5.982  10.545  10.557 -4.1793  0.2741 -0.5406
  546MOL0     H75345   5.584  10.264  11.319 -4.0096 -1.6645  1.4443
  546MOL0     H75346   5.355  10.307  11.556  1.7390 -0.8310 -1.4570
  546MOL0     H75347   5.222  10.310  11.424  0.7345 -1.5129 -5.1710
  546MOL0     H75348   5.364  10.203  11.420  1.3820  0.6276  0.0489
  547MOL0     O75349   1.270   1.002   3.810  0.5381 -0.0501 -0.2990
  547MOL0     C75350   1.286   0.894   3.749 -0.8514  1.1655  0.4252
  547MOL0     O75351   1.201   0.789   3.755 -0.9944  0.3258 -0.0787
  547MOL0     C75352   1.116   0.778   3.859 -0.2460 -0.3654  0.4909
  547MOL0     C75353   1.161   0.780   3.995 -0.4043  1.0099 -1.4441
  547MOL0     C75354   1.085   0.745   4.104  0.6484 -0.0604  0.5347
  547MOL0     C75355   0.944   0.713   4.074 -0.4924  0.0310  0.7257
  547MOL0     O75356   0.860   0.662   4.171 -0.4759 -1.1333 -0.3628
  547MOL0     C75357   0.895   0.554   4.245  0.0814  0.0190 -0.4099
  547MOL0     C75358   0.756   0.476   4.257 -0.1509  0.9885 -0.5952
  547MOL0     C75359   0.777   0.330   4.313  0.7700 -1.4787 -0.4063
  547MOL0     C75360   0.642   0.259   4.359 -0.4723  0.0864  0.1207
  547MOL0     C75361   0.671   0.119   4.418 -0.3274 -1.0118  0.5228
  547MOL0     C75362   0.542   0.033   4.431  0.8280  0.0454  0.2436
  547MOL0     C75363   0.555  -0.108   4.500 -0.5229 -0.5802 -0.2171
  547MOL0     C75364   0.419  -0.161   4.516 -0.3718  0.6679  0.2256
  547MOL0     N75365   0.427  -0.278   4.614  0.5306 -0.7324  0.0747
  547MOL0     C75366   0.505  -0.389   4.604 -0.2946 -0.8338  0.7929
  547MOL0     C75367   0.507  -0.442   4.725  1.1069 -0.2711 -0.1966
  547MOL0     C75368   0.594  -0.551   4.771 -0.2644  0.4322  0.2315
  547MOL0     C75369   0.598  -0.665   4.675  0.5128 -0.6293 -0.0906
  547MOL0     C75370   0.664  -0.787   4.750 -0.6601  0.1167  1.2326
  547MOL0     C75371   0.686  -0.896   4.650  0.2831  0.3391 -0.5928
  547MOL0     O75372   0.761  -0.999   4.711 -0.1925  0.8441  0.1010
  547MOL0     C75373   0.731  -1.136   4.670  0.5332 -0.2323 -0.3852
  547MOL0     C75374   0.730  -1.230   4.775  1.6385 -1.5295 -0.0755
  547MOL0     C75375   0.693  -1.358   4.740  0.3619  0.8030 -0.8424
  547MOL0     C75376   0.671  -1.448   4.872  0.1396  0.0638  0.1655
  547MOL0     C75377   0.675  -1.404   4.607 -0.0717 -0.4892  0.7321
  547MOL0     C75378   0.659  -1.548   4.569  0.0379  0.7494 -0.2190
  547MOL0     O75379   0.704  -1.653   4.653 -0.0250  0.3990 -0.4809
  547MOL0     C75380   0.651  -1.773   4.641  0.0265 -0.6964 -0.8425
  547MOL0     C75381   0.737  -1.888   4.628  0.0953 -0.0794  0.9614
  547MOL0     C75382   0.692  -2.014   4.602 -0.1681 -0.3178  0.8986
  547MOL0     C75383   0.561  -2.040   4.583  0.7849 -0.1476  0.1321
  547MOL0     O75384   0.525  -2.171   4.570 -1.2625 -0.6813  0.7836
  547MOL0     C75385   0.386  -2.206   4.578 -0.0595  0.6728 -0.6724
  547MOL0     C75386   0.358  -2.352   4.544 -0.2885  0.6400 -0.3217
  547MOL0     C75387   0.210  -2.388   4.526  0.0877 -0.1548  0.0042
  547MOL0     C75388   0.189  -2.535   4.572 -0.5369 -0.4226 -0.5483
  547MOL0     C75389   0.037  -2.573   4.575  0.0924  0.7839 -0.6246
  547MOL0     C75390   0.015  -2.672   4.678  0.4170  0.8822 -1.2216
  547MOL0     C75391  -0.129  -2.730   4.666 -0.7088 -0.4426 -0.4040
  547MOL0     C75392  -0.135  -2.847   4.755 -0.1726  0.0772  0.0868
  547MOL0    Cl75393  -0.308  -2.893   4.774 -0.0459 -0.6177  0.2704
  547MOL0     C75394   0.471  -1.931   4.608  0.0319 -0.6480  0.4166
  547MOL0     C75395   0.508  -1.798   4.623  0.1997 -0.6760 -0.4364
  547MOL0     O75396   0.615  -1.573   4.458  0.2530  0.5056 -0.2201
  547MOL0     C75397   0.667  -1.303   4.506  0.0473  0.1398 -1.2963
  547MOL0     C75398   0.679  -1.169   4.541  0.5717 -0.3303  0.9916
  547MOL0     N75399   0.423  -0.368   4.806 -0.5100 -0.4427  1.1647
  547MOL0     N75400   0.369  -0.281   4.731  0.2930  0.1691  0.6897
  547MOL0     C75401   0.898   0.725   3.939  0.5141  0.6580  0.1983
  547MOL0     C75402   0.983   0.748   3.833  0.6016  0.1983 -1.0744
  547MOL0     C75403   1.416   0.879   3.678  0.7757 -0.9299 -0.1366
  547MOL0     C75404   1.527   0.944   3.734  1.0945  0.1317  0.4047
  547MOL0     C75405   1.653   0.943   3.677 -0.3119 -0.2600 -0.6692
  547MOL0     C75406   1.674   0.856   3.569 -0.0125  0.6191  0.2670
  547MOL0     O75407   1.809   0.840   3.530  0.1495 -0.0572 -0.0487
  547MOL0     C75408   1.850   0.949   3.446  0.5851 -0.2292 -0.1768
  547MOL0     C75409   1.990   0.918   3.394 -0.6418 -0.2056  0.1424
  547MOL0     C75410   2.094   0.951   3.509 -0.1106  0.7122  0.5968
  547MOL0     C75411   2.235   0.901   3.483  0.0237  0.6711 -0.3425
  547MOL0     C75412   2.341   0.979   3.550 -0.0064 -0.0675 -0.1273
  547MOL0     C75413   2.423   1.050   3.605  0.6145 -0.8399 -0.2408
  547MOL0     C75414   1.559   0.794   3.510 -0.6289  1.0326  1.2113
  547MOL0     C75415   1.429   0.812   3.557  0.1548 -1.1473  0.4304
  547MOL0     C75416   1.314   0.765   3.472  0.1841  1.0230  0.2622
  547MOL0     H75417   1.267   0.776   4.016 -0.3547  1.2725 -1.6359
  547MOL0     H75418   1.129   0.733   4.202  0.5503 -0.5593  0.5162
  547MOL0     H75419   0.943   0.574   4.341 -0.4720 -0.2737 -0.0605
  547MOL0     H75420   0.971   0.503   4.184 -0.2136 -0.1709 -0.6247
  547MOL0     H75421   0.689   0.529   4.326  0.8817  1.9393 -0.3017
  547MOL0     H75422   0.703   0.459   4.163  2.0720 -2.0848 -1.4262
  547MOL0     H75423   0.833   0.261   4.249  0.9472 -3.5241  1.7935
  547MOL0     H75424   0.842   0.335   4.400 -0.3251  0.7865  0.3464
  547MOL0     H75425   0.568   0.321   4.411 -0.0999  1.0240 -0.4538
  547MOL0     H75426   0.592   0.233   4.265  0.5430  1.0182 -0.6968
  547MOL0     H75427   0.726   0.128   4.512 -0.6972  2.5884  0.5347
  547MOL0     H75428   0.740   0.074   4.346 -0.2346 -0.7053  0.4157
  547MOL0     H75429   0.471   0.087   4.494  3.1199  2.3100  1.0689
  547MOL0     H75430   0.500   0.019   4.330  0.7908  0.0600  0.2573
  547MOL0     H75431   0.596  -0.094   4.600 -2.6964  0.5150  0.5851
  547MOL0     H75432   0.616  -0.166   4.431 -0.4313  1.5985 -2.1127
  547MOL0     H75433   0.354  -0.085   4.560  0.3080  1.8668 -0.8034
  547MOL0     H75434   0.376  -0.205   4.426  2.8601 -1.0853 -0.6135
  547MOL0     H75435   0.579  -0.417   4.530  1.4548 -1.8257  2.8452
  547MOL0     H75436   0.540  -0.593   4.856 -1.0598 -1.4396 -1.1217
  547MOL0     H75437   0.699  -0.525   4.787  0.0899  0.1314 -1.4108
  547MOL0     H75438   0.500  -0.691   4.635  1.0226 -0.2967 -1.6238
  547MOL0     H75439   0.647  -0.635   4.581  0.6606  0.7863  0.4193
  547MOL0     H75440   0.762  -0.768   4.795  0.4035 -1.2076 -0.3868
  547MOL0     H75441   0.586  -0.817   4.821 -1.9518 -0.7772 -0.4848
  547MOL0     H75442   0.593  -0.934   4.607  0.1696  0.5285 -0.5159
  547MOL0     H75443   0.751  -0.865   4.567  4.0288  4.0573  3.1902
  547MOL0     H75444   0.732  -1.190   4.876 -1.3613  2.2354 -1.2618
  547MOL0     H75445   0.729  -1.541   4.881 -1.5327 -1.2358 -1.6141
  547MOL0     H75446   0.567  -1.481   4.867  0.2459 -0.3032  0.3564
  547MOL0     H75447   0.684  -1.388   4.962 -4.4229  3.2543 -0.9573
  547MOL0     H75448   0.842  -1.866   4.617  0.2687 -2.1365 -3.7427
  547MOL0     H75449   0.764  -2.095   4.598 -2.3936 -2.4575  1.4221
  547MOL0     H75450   0.357  -2.192   4.682  1.2231  1.4529 -0.3980
  547MOL0     H75451   0.317  -2.151   4.512 -1.7758 -2.5989 -1.8625
  547MOL0     H75452   0.405  -2.369   4.446 -1.0295  1.5289 -0.8484
  547MOL0     H75453   0.407  -2.416   4.617 -0.5526  0.5285 -0.2434
  547MOL0     H75454   0.187  -2.381   4.419 -2.6777  1.8758  0.5871
  547MOL0     H75455   0.136  -2.327   4.580 -0.1975 -0.6484  0.1804
  547MOL0     H75456   0.235  -2.539   4.671  1.4125 -0.6274 -1.4217
  547MOL0     H75457   0.246  -2.613   4.521 -0.1899 -1.9183  1.9437
  547MOL0     H75458  -0.039  -2.497   4.597  0.1014  0.5747  0.1764
  547MOL0     H75459   0.017  -2.603   4.472 -0.4133 -0.8529 -0.0885
  547MOL0     H75460   0.029  -2.631   4.779 -1.1988 -1.5695  0.1218
  547MOL0     H75461   0.088  -2.753   4.679  1.4965  1.7755  1.4035
  547MOL0     H75462  -0.155  -2.770   4.568  0.1712 -0.9389 -0.4421
  547MOL0     H75463  -0.201  -2.654   4.699 -0.5902 -0.6346  0.3041
  547MOL0     H75464  -0.097  -2.821   4.854 -3.7059 -4.4614  3.1274
  547MOL0     H75465  -0.074  -2.923   4.706  0.5965 -0.5481  1.9222
  547MOL0     H75466   0.363  -1.944   4.607  0.1009 -1.2914  0.5005
  547MOL0     H75467   0.423  -1.730   4.624 -1.9600 -3.1984  0.5443
  547MOL0     H75468   0.661  -1.335   4.402  0.6776  0.7235 -1.5212
  547MOL0     H75469   0.669  -1.087   4.471 -2.5094 -1.9721 -0.6953
  547MOL0     H75470   0.793   0.705   3.921  0.0406  1.3779  1.9803
  547MOL0     H75471   0.942   0.755   3.732 -0.4671 -0.9054 -0.7359
  547MOL0     H75472   1.519   1.016   3.815  0.0921  1.7888 -1.0744
  547MOL0     H75473   1.740   0.987   3.724 -0.3333 -0.3800 -0.5162
  547MOL0     H75474   1.782   0.968   3.362  0.0017  0.0109  0.3465
  547MOL0     H75475   1.841   1.043   3.500 -0.1022 -1.3183  1.7231
  547MOL0     H75476   2.014   0.979   3.306 -0.9766 -0.8191 -0.3785
  547MOL0     H75477   2.004   0.815   3.363 -0.9527  0.1011 -1.0576
  547MOL0     H75478   2.082   1.058   3.528 -2.6905  1.6437 -4.4682
  547MOL0     H75479   2.055   0.899   3.597  1.2323 -3.6901 -1.1316
  547MOL0     H75480   2.240   0.889   3.374  3.1183 -1.4727 -0.0851
  547MOL0     H75481   2.230   0.801   3.527  0.8164  0.4336 -0.7662
  547MOL0     H75482   2.501   1.109   3.648 -1.9797  0.3991  3.2762
  547MOL0     H75483   1.563   0.747   3.412  3.7944 -0.7284  2.0012
  547MOL0     H75484   1.270   0.679   3.524  2.7261 -0.4213  0.1457
  547MOL0     H75485   1.233   0.838   3.483 -2.4602 -1.4072 -1.5040
  547MOL0     H75486   1.336   0.754   3.366  1.7439  1.5685  0.5067
  548MOL0     O75487   7.975   5.948   8.263  0.5528 -0.5790 -0.0667
  548MOL0     C75488   8.037   6.025   8.330  0.5503 -0.4970  0.2669
  548MOL0     O75489   8.165   6.056   8.320  0.0117 -0.3357  0.2512
  548MOL0     C75490   8.259   5.988   8.242 -0.7725 -0.2862 -0.0402
  548MOL0     C75491   8.364   6.048   8.170  0.4726  0.0238  0.3301
  548MOL0     C75492   8.438   5.974   8.068 -0.5696  0.6841  0.0697
  548MOL0     C75493   8.436   5.838   8.073  0.7308  0.3996 -0.9963
  548MOL0     O75494   8.511   5.766   7.976 -0.4431  0.3737 -1.0610
  548MOL0     C75495   8.537   5.624   7.981  0.8252 -0.5945  0.1133
  548MOL0     C75496   8.440   5.546   7.894  0.7502 -0.4424  0.0884
  548MOL0     C75497   8.430   5.601   7.747  0.8945 -0.5692 -1.0862
  548MOL0     C75498   8.340   5.522   7.653  1.0097 -1.0731 -0.3343
  548MOL0     C75499   8.332   5.572   7.503  0.4946 -0.6032 -0.1823
  548MOL0     C75500   8.323   5.730   7.482 -0.4736  0.9281  0.8855
  548MOL0     C75501   8.288   5.759   7.329 -0.4995 -0.6952 -0.1244
  548MOL0     C75502   8.243   5.904   7.296 -1.3812  0.0227  0.1771
  548MOL0     N75503   8.361   5.989   7.286 -0.0678 -0.0809  0.0907
  548MOL0     C75504   8.435   6.024   7.178  1.4791  0.5778  0.1729
  548MOL0     C75505   8.538   6.091   7.228 -0.3859 -0.6292  0.0646
  548MOL0     C75506   8.638   6.150   7.131  0.2801 -0.7290  0.2607
  548MOL0     C75507   8.790   6.125   7.176 -0.0806 -0.4410  0.7918
  548MOL0     C75508   8.868   5.997   7.138 -0.1813  0.1350 -0.3818
  548MOL0     C75509   8.839   5.881   7.235 -0.0556  0.3311  0.5712
  548MOL0     O75510   8.706   5.826   7.215 -0.1450  0.2198 -0.3158
  548MOL0     C75511   8.691   5.688   7.259  0.3633 -1.4947  0.9093
  548MOL0     C75512   8.709   5.640   7.390 -0.1033 -0.7314  0.2294
  548MOL0     C75513   8.701   5.505   7.422 -0.3021 -0.2849 -0.2342
  548MOL0     C75514   8.719   5.467   7.567 -2.0635 -0.7863 -1.2030
  548MOL0     C75515   8.659   5.413   7.321 -0.1788 -0.0573  0.4073
  548MOL0     C75516   8.642   5.263   7.349 -0.0233  0.8931  0.3598
  548MOL0     O75517   8.742   5.189   7.404 -0.0515  0.3587 -0.3106
  548MOL0     C75518   8.709   5.067   7.454  0.1062  0.1848 -0.6399
  548MOL0     C75519   8.622   5.051   7.560 -0.0848 -0.1285  0.3655
  548MOL0     C75520   8.594   4.919   7.601 -0.4558 -0.5131  0.0745
  548MOL0     C75521   8.625   4.805   7.521 -0.6166  0.1355  0.3413
  548MOL0     O75522   8.576   4.686   7.561  0.0340 -0.3194 -0.1697
  548MOL0     C75523   8.645   4.556   7.545  0.3489 -0.4155  0.2471
  548MOL0     C75524   8.549   4.461   7.620 -0.8128  0.2252  1.0007
  548MOL0     C75525   8.537   4.330   7.541 -0.1657 -0.4666 -0.6600
  548MOL0     C75526   8.669   4.262   7.549 -0.4112  0.2115  0.0361
  548MOL0     C75527   8.668   4.114   7.490  0.5737 -1.0522 -0.6942
  548MOL0     C75528   8.811   4.054   7.500 -0.3161 -0.2602  0.3186
  548MOL0     C75529   8.838   3.931   7.422  1.3371  0.1063 -0.1534
  548MOL0     C75530   8.980   3.895   7.414 -0.6482 -0.0233 -0.0423
  548MOL0    Cl75531   9.061   3.909   7.566  0.1988  0.2512 -0.0048
  548MOL0     C75532   8.704   4.830   7.413  0.7198 -0.1885  0.2134
  548MOL0     C75533   8.732   4.960   7.375 -0.4924 -0.4899  0.1869
  548MOL0     O75534   8.531   5.222   7.314 -0.2727  1.4990 -0.8806
  548MOL0     C75535   8.639   5.453   7.190  0.5287  0.4941  0.1587
  548MOL0     C75536   8.656   5.590   7.166 -0.0168  0.7220  0.7439
  548MOL0     N75537   8.524   6.112   7.364  0.2014  0.8752 -0.1653
  548MOL0     N75538   8.413   6.047   7.393  0.6293 -0.4726  0.1870
  548MOL0     C75539   8.347   5.775   8.156  0.2947  0.3002  0.7874
  548MOL0     C75540   8.256   5.848   8.238 -0.3065  0.0567  0.1500
  548MOL0     C75541   7.951   6.110   8.420  0.3465 -0.3301 -0.6705
  548MOL0     C75542   8.017   6.218   8.486  1.0052 -0.0651  0.6040
  548MOL0     C75543   7.963   6.288   8.587  1.7802  0.0931 -0.5907
  548MOL0     C75544   7.821   6.285   8.601  0.1129  0.1386  0.0569
  548MOL0     O75545   7.763   6.354   8.706  0.5855 -0.5822  0.0200
  548MOL0     C75546   7.661   6.447   8.673  0.6493 -0.2397  0.0867
  548MOL0     C75547   7.690   6.578   8.745 -0.6189 -0.2976  0.6967
  548MOL0     C75548   7.603   6.697   8.689 -0.0476  0.4750 -0.1016
  548MOL0     C75549   7.481   6.718   8.783  0.4805  0.0117 -0.4805
  548MOL0     C75550   7.410   6.841   8.747  0.2344  0.8400 -1.4020
  548MOL0     C75551   7.361   6.950   8.721 -0.6622  0.2051 -1.1207
  548MOL0     C75552   7.743   6.193   8.528  0.7275 -0.6095 -0.6066
  548MOL0     C75553   7.806   6.103   8.440  1.2791 -0.6653 -0.4740
  548MOL0     C75554   7.714   5.994   8.381  0.0047  0.1673  0.3686
  548MOL0     H75555   8.362   6.156   8.177 -2.2244 -0.0318  2.0306
  548MOL0     H75556   8.498   6.019   7.989  1.1154  1.9128  1.9357
  548MOL0     H75557   8.524   5.590   8.084 -0.6812 -0.0956  0.1035
  548MOL0     H75558   8.639   5.622   7.940  0.2813 -0.3565 -1.3086
  548MOL0     H75559   8.480   5.447   7.873  3.4376  0.8270 -1.3192
  548MOL0     H75560   8.345   5.549   7.947  1.6205  1.7054  1.7006
  548MOL0     H75561   8.398   5.705   7.739 -3.0096 -1.3179  1.8909
  548MOL0     H75562   8.530   5.603   7.703  1.7390  0.8387  0.7504
  548MOL0     H75563   8.362   5.415   7.655  0.1117 -1.2676  1.5009
  548MOL0     H75564   8.239   5.516   7.696  1.4765 -2.2618  0.6728
  548MOL0     H75565   8.243   5.527   7.457 -0.6290  0.3372  0.9822
  548MOL0     H75566   8.422   5.517   7.473 -1.9734 -4.7218 -0.8565
  548MOL0     H75567   8.245   5.781   7.540 -2.7452 -0.6798 -0.5593
  548MOL0     H75568   8.411   5.784   7.519 -0.8883  0.4331  2.7132
  548MOL0     H75569   8.210   5.690   7.298  0.3574 -0.8651 -1.9916
  548MOL0     H75570   8.373   5.737   7.265  0.2540 -3.5306  1.6792
  548MOL0     H75571   8.195   5.897   7.197 -0.5768  1.5438 -0.3557
  548MOL0     H75572   8.173   5.945   7.369  0.3115 -0.6470  2.2621
  548MOL0     H75573   8.406   6.004   7.075  1.0323 -1.2626  0.6217
  548MOL0     H75574   8.622   6.258   7.128  2.1558 -0.4405 -2.5138
  548MOL0     H75575   8.623   6.113   7.029  1.8269  0.5678 -0.4822
  548MOL0     H75576   8.842   6.209   7.130  1.4965 -0.0619  3.1081
  548MOL0     H75577   8.794   6.137   7.285 -1.5013  1.9768  0.6475
  548MOL0     H75578   8.851   5.954   7.039 -0.5982 -2.9953  0.9576
  548MOL0     H75579   8.975   6.016   7.155 -0.4176  1.7541 -0.5511
  548MOL0     H75580   8.911   5.801   7.217 -0.0116 -0.1723  2.7820
  548MOL0     H75581   8.842   5.914   7.339 -0.5430 -2.9093  1.7071
  548MOL0     H75582   8.708   5.717   7.467  0.4349 -0.8397  0.3484
  548MOL0     H75583   8.807   5.405   7.581 -0.2313  1.5714 -1.6226
  548MOL0     H75584   8.630   5.411   7.599 -3.2275  0.2901 -2.3831
  548MOL0     H75585   8.735   5.553   7.633 -2.1419 -0.9897 -0.9174
  548MOL0     H75586   8.587   5.139   7.614  1.1828 -0.7914  2.4111
  548MOL0     H75587   8.542   4.910   7.696  0.5772 -0.1723  0.6843
  548MOL0     H75588   8.654   4.538   7.438  1.5742 -1.8934  0.5456
  548MOL0     H75589   8.741   4.560   7.599  0.0460  3.1903  0.7488
  548MOL0     H75590   8.590   4.437   7.718  1.8108 -1.8515 -0.4346
  548MOL0     H75591   8.453   4.510   7.637 -1.6077  0.4163 -2.9602
  548MOL0     H75592   8.521   4.361   7.437  0.9023  1.8566 -0.1885
  548MOL0     H75593   8.455   4.269   7.579  0.3974 -1.6541 -1.2974
  548MOL0     H75594   8.707   4.254   7.651 -1.6915  1.9394  0.7149
  548MOL0     H75595   8.746   4.324   7.502 -0.5726  1.0276  0.8185
  548MOL0     H75596   8.595   4.051   7.541  0.8979 -0.9230 -0.0558
  548MOL0     H75597   8.636   4.136   7.387 -2.8616 -0.3475  0.4046
  548MOL0     H75598   8.837   4.034   7.604 -1.4935  2.0681  1.1266
  548MOL0     H75599   8.873   4.138   7.467 -2.8747  2.3147  1.6418
  548MOL0     H75600   8.795   3.934   7.322  2.6992  1.2887 -0.7344
  548MOL0     H75601   8.779   3.851   7.467 -1.6023  0.9071 -2.3198
  548MOL0     H75602   9.023   3.962   7.338  0.8458  0.9008  1.5531
  548MOL0     H75603   8.985   3.793   7.377  1.0626  1.3417 -4.2961
  548MOL0     H75604   8.708   4.747   7.342  1.8460 -0.0555  0.1025
  548MOL0     H75605   8.779   4.979   7.278 -2.7913  2.1576 -0.5599
  548MOL0     H75606   8.605   5.381   7.117 -1.7078  1.4962  0.1472
  548MOL0     H75607   8.632   5.616   7.064 -1.0568 -3.6132 -0.3364
  548MOL0     H75608   8.338   5.668   8.139  2.2489  0.4026 -1.5355
  548MOL0     H75609   8.176   5.794   8.288 -0.7247 -2.4330 -2.9113
  548MOL0     H75610   8.125   6.220   8.477  0.9069  0.0178 -1.0023
  548MOL0     H75611   8.002   6.354   8.663 -3.6529  0.7265  2.1609
  548MOL0     H75612   7.645   6.456   8.565 -2.0272 -1.4034  0.3025
  548MOL0     H75613   7.565   6.421   8.719 -0.0865  0.8352 -0.7512
  548MOL0     H75614   7.796   6.603   8.732 -0.7387  1.0748  2.0948
  548MOL0     H75615   7.676   6.550   8.850 -1.1127  0.1408  0.7479
  548MOL0     H75616   7.670   6.783   8.686  2.9068 -1.6879 -2.2983
  548MOL0     H75617   7.558   6.676   8.592 -0.6953 -2.0165  0.6694
  548MOL0     H75618   7.502   6.724   8.890  0.9473 -1.5210 -0.4715
  548MOL0     H75619   7.412   6.635   8.764  1.2759 -1.2576  1.8304
  548MOL0     H75620   7.309   7.041   8.702  0.7714  1.1094 -0.9076
  548MOL0     H75621   7.641   6.177   8.562  0.3176 -0.1649 -1.5700
  548MOL0     H75622   7.610   6.017   8.406  1.1734  3.7542  2.5556
  548MOL0     H75623   7.718   5.988   8.271  2.2040  1.3622  0.3401
  548MOL0     H75624   7.750   5.895   8.411  3.3599  0.7151 -1.3858
  549MOL0     O75625  10.309  10.139   3.451  0.6331 -0.1112  0.0121
  549MOL0     C75626  10.368  10.222   3.518  1.5892  0.2862  0.4577
  549MOL0     O75627  10.408  10.208   3.640 -0.2012 -0.1691  0.2996
  549MOL0     C75628  10.422  10.078   3.685 -0.1709  0.1473 -0.1718
  549MOL0     C75629  10.382  10.063   3.813  0.3838 -0.0978  0.0670
  549MOL0     C75630  10.407   9.947   3.892  0.7479 -1.4474 -0.4502
  549MOL0     C75631  10.462   9.838   3.827 -0.2501 -0.0611 -1.2619
  549MOL0     O75632  10.473   9.717   3.889 -0.4866  0.1389  0.0942
  549MOL0     C75633  10.577   9.719   3.989  0.8142 -0.3109 -0.3297
  549MOL0     C75634  10.602   9.561   4.020  0.3578 -0.3427  1.2582
  549MOL0     C75635  10.714   9.516   4.107 -0.3811  0.3077  0.5763
  549MOL0     C75636  10.827   9.623   4.135 -0.4867  0.5736  0.3976
  549MOL0     C75637  10.937   9.567   4.242  1.0487 -1.0044 -0.0477
  549MOL0     C75638  10.869   9.532   4.376 -0.9043 -0.0008  0.3439
  549MOL0     C75639  10.777   9.636   4.441 -0.7744 -0.4469  1.0030
  549MOL0     C75640  10.829   9.767   4.487 -0.5268 -0.6462 -0.4675
  549MOL0     N75641  10.837   9.811   4.629 -0.0914  0.3187  0.3947
  549MOL0     C75642  10.908   9.744   4.726 -0.7792  0.5198 -0.1086
  549MOL0     C75643  10.913   9.834   4.828  0.3906  0.5199  0.5431
  549MOL0     C75644  10.973   9.820   4.964  0.2023  0.0963 -0.0748
  549MOL0     C75645  10.966   9.678   5.021 -0.1129 -0.3299  0.5742
  549MOL0     C75646  11.041   9.643   5.151  0.3494  0.2948 -0.3359
  549MOL0     C75647  11.195   9.676   5.152 -0.3900  1.0825  0.6702
  549MOL0     O75648  11.261   9.598   5.047  0.0615 -0.2166  0.7464
  549MOL0     C75649  11.281   9.467   5.062  0.0164 -0.4374  0.4250
  549MOL0     C75650  11.353   9.397   4.961  0.7269 -0.1246  0.0685
  549MOL0     C75651  11.368   9.264   4.964 -0.1811 -0.2871 -0.0899
  549MOL0     C75652  11.466   9.210   4.859  0.3565  0.9965  0.2546
  549MOL0     C75653  11.303   9.192   5.061 -0.5997  0.1665  0.3972
  549MOL0     C75654  11.307   9.040   5.064 -0.3593 -0.3789  0.8170
  549MOL0     O75655  11.222   8.987   5.149 -0.1807  0.9144 -0.0701
  549MOL0     C75656  11.234   8.850   5.180  0.6952 -0.8537 -0.4131
  549MOL0     C75657  11.338   8.758   5.153 -0.2915 -0.3453 -0.2312
  549MOL0     C75658  11.314   8.623   5.167 -0.1572  0.3787  0.5662
  549MOL0     C75659  11.189   8.569   5.207  1.3033  0.0462 -0.4549
  549MOL0     O75660  11.149   8.436   5.207 -0.0219  1.1429 -0.4315
  549MOL0     C75661  11.257   8.342   5.180  0.6711 -1.1390 -0.3744
  549MOL0     C75662  11.201   8.200   5.157  0.0299  0.0737 -0.4163
  549MOL0     C75663  11.317   8.101   5.121  0.3372  0.3373 -0.9720
  549MOL0     C75664  11.266   7.966   5.059  0.4425 -0.5778 -0.7662
  549MOL0     C75665  11.377   7.861   5.056 -1.2100  0.0465  0.4122
  549MOL0     C75666  11.324   7.715   5.033 -0.6810 -0.4561 -0.4114
  549MOL0     C75667  11.449   7.622   5.048 -0.1144  0.0976  0.2247
  549MOL0     C75668  11.398   7.471   5.063 -0.0487 -0.7858  0.2509
  549MOL0    Cl75669  11.273   7.443   5.193 -0.0430  0.0013 -0.7709
  549MOL0     C75670  11.087   8.665   5.236  0.3094  0.0144  0.2015
  549MOL0     C75671  11.109   8.801   5.223 -0.0595 -0.2539  1.0755
  549MOL0     O75672  11.370   8.974   4.974 -0.2915  0.2396 -0.3368
  549MOL0     C75673  11.247   9.254   5.173 -0.6622  0.7511 -0.3622
  549MOL0     C75674  11.229   9.386   5.162 -0.0527  0.8253 -0.4630
  549MOL0     N75675  10.846   9.950   4.788  0.5528 -0.2939 -0.1700
  549MOL0     N75676  10.804   9.940   4.666 -0.1240  0.0137 -0.8776
  549MOL0     C75677  10.516   9.853   3.697  0.4208  0.0433  0.3485
  549MOL0     C75678  10.507   9.972   3.623  0.3492 -0.4448 -0.5449
  549MOL0     C75679  10.406  10.346   3.431 -0.3488  0.3857 -0.2911
  549MOL0     C75680  10.368  10.337   3.297  0.5506  0.3407 -0.0300
  549MOL0     C75681  10.380  10.445   3.204  0.7512  0.5100 -0.2815
  549MOL0     C75682  10.440  10.564   3.247 -0.7852  0.1476 -0.6104
  549MOL0     O75683  10.451  10.667   3.153  0.8691  0.1698 -0.2970
  549MOL0     C75684  10.451  10.794   3.206  0.2559  0.9963 -0.3732
  549MOL0     C75685  10.435  10.905   3.094  0.7264  0.3768 -0.0901
  549MOL0     C75686  10.559  10.909   3.006  0.4631 -0.3567 -0.2267
  549MOL0     C75687  10.585  11.058   2.968 -0.5283 -0.4373 -0.0926
  549MOL0     C75688  10.707  11.056   2.891 -0.7070  0.2645  0.4840
  549MOL0     C75689  10.803  11.060   2.817 -0.4437 -0.8307 -0.1152
  549MOL0     C75690  10.491  10.562   3.381  0.1919 -0.6515  0.7933
  549MOL0     C75691  10.479  10.459   3.473  0.0783 -0.0282  0.3831
  549MOL0     C75692  10.507  10.478   3.615 -0.1917 -0.5890 -0.4557
  549MOL0     H75693  10.325  10.146   3.852  2.1357  2.0192 -1.6549
  549MOL0     H75694  10.365   9.953   3.992 -0.8211 -1.5753 -1.0813
  549MOL0     H75695  10.542   9.766   4.082  0.2777 -0.0115 -0.6781
  549MOL0     H75696  10.668   9.774   3.964  0.8012 -0.3516 -0.4644
  549MOL0     H75697  10.506   9.516   4.048 -0.0203  1.4625  3.0859
  549MOL0     H75698  10.627   9.520   3.922 -0.4082  1.4237  0.2887
  549MOL0     H75699  10.683   9.492   4.209  2.3979 -2.6846  0.9041
  549MOL0     H75700  10.757   9.421   4.072  1.1415  0.2989  2.3515
  549MOL0     H75701  10.881   9.655   4.045 -4.2553 -0.8703 -2.6638
  549MOL0     H75702  10.787   9.715   4.180 -1.5300  1.0416 -1.4185
  549MOL0     H75703  11.011   9.646   4.256 -1.3434  1.0943  1.4129
  549MOL0     H75704  10.991   9.482   4.197 -0.4024 -1.6985 -0.5299
  549MOL0     H75705  10.812   9.440   4.360 -1.1748  0.2979 -0.4612
  549MOL0     H75706  10.941   9.512   4.456  1.1960 -1.3462 -1.7547
  549MOL0     H75707  10.733   9.585   4.527 -2.9817 -2.3795 -1.0946
  549MOL0     H75708  10.695   9.645   4.369 -2.6958 -1.0648  3.0046
  549MOL0     H75709  10.923   9.782   4.434 -1.9324  1.0366 -2.6362
  549MOL0     H75710  10.766   9.838   4.434 -0.4420  0.9509  1.4570
  549MOL0     H75711  10.964   9.651   4.715 -0.6585  0.8773 -3.3006
  549MOL0     H75712  10.940   9.904   5.025  2.9671  0.5991  0.8532
  549MOL0     H75713  11.082   9.828   4.966  0.2678  0.5163 -2.3425
  549MOL0     H75714  10.863   9.645   5.042  0.3425 -3.3585 -1.3628
  549MOL0     H75715  10.985   9.609   4.938 -0.4672  2.1070 -1.6388
  549MOL0     H75716  10.988   9.688   5.236  1.6786 -0.0698  0.7314
  549MOL0     H75717  11.025   9.536   5.164  3.8433 -0.2645  0.3086
  549MOL0     H75718  11.218   9.783   5.151  1.5597  0.7271 -1.2201
  549MOL0     H75719  11.234   9.637   5.246  0.5870  1.5285  0.4573
  549MOL0     H75720  11.403   9.455   4.884  1.3151 -0.5320  0.1326
  549MOL0     H75721  11.412   9.165   4.775  1.0209  0.8394 -0.1017
  549MOL0     H75722  11.529   9.136   4.910 -1.6173  1.5309  3.7693
  549MOL0     H75723  11.532   9.288   4.819 -2.0483  1.5909 -2.8831
  549MOL0     H75724  11.434   8.783   5.109  0.3995 -3.0072 -0.3727
  549MOL0     H75725  11.399   8.562   5.137 -1.7543 -2.4891  1.4771
  549MOL0     H75726  11.312   8.365   5.088  0.3394  2.7797  0.2073
  549MOL0     H75727  11.328   8.343   5.263 -0.6254  0.5338  0.7944
  549MOL0     H75728  11.142   8.160   5.239  1.4479  0.6981  0.9452
  549MOL0     H75729  11.132   8.209   5.072 -1.6889 -1.8786  0.6938
  549MOL0     H75730  11.372   8.084   5.214 -2.3979 -1.8934  0.4061
  549MOL0     H75731  11.378   8.140   5.039  0.1017 -0.0918 -1.3662
  549MOL0     H75732  11.233   7.997   4.960 -1.8968  2.1971  0.7538
  549MOL0     H75733  11.187   7.918   5.117  0.7564 -0.7500 -0.4782
  549MOL0     H75734  11.439   7.889   4.970  1.0975  2.6923  2.7566
  549MOL0     H75735  11.454   7.878   5.132  1.2333 -0.8132 -1.7106
  549MOL0     H75736  11.266   7.694   4.943 -0.1234 -0.8435 -0.6935
  549MOL0     H75737  11.266   7.681   5.119  1.6581 -2.1223  0.6271
  549MOL0     H75738  11.499   7.651   5.141  2.7637  3.5514 -2.1005
  549MOL0     H75739  11.511   7.638   4.959  0.7181  0.8193  0.9204
  549MOL0     H75740  11.480   7.402   5.086  2.3200  2.4242  2.4574
  549MOL0     H75741  11.348   7.451   4.968  1.0297 -0.7488 -0.3403
  549MOL0     H75742  10.982   8.644   5.255  0.6045 -0.7528  1.0827
  549MOL0     H75743  11.020   8.862   5.225 -0.6364 -0.8857 -1.4142
  549MOL0     H75744  11.216   9.202   5.263  3.4389 -0.7529  0.3909
  549MOL0     H75745  11.169   9.435   5.237 -2.8015 -0.1738 -1.8854
  549MOL0     H75746  10.557   9.769   3.642  2.2215  0.4209  1.0725
  549MOL0     H75747  10.543   9.987   3.522  6.8363  0.4197  1.4238
  549MOL0     H75748  10.320  10.250   3.253 -0.1612  1.8613 -2.4827
  549MOL0     H75749  10.332  10.436   3.107  2.0081 -0.5541 -0.8382
  549MOL0     H75750  10.360  10.801   3.266 -0.1787  0.5033 -0.9634
  549MOL0     H75751  10.531  10.811   3.279 -0.7250 -1.0494  1.2845
  549MOL0     H75752  10.412  11.002   3.139  2.8276  1.6572 -1.5799
  549MOL0     H75753  10.345  10.878   3.038 -1.0711 -2.2470  3.6390
  549MOL0     H75754  10.648  10.870   3.058  1.2339 -0.8957 -1.8947
  549MOL0     H75755  10.527  10.853   2.919 -1.4429  1.2283 -0.6174
  549MOL0     H75756  10.604  11.117   3.058  0.1111 -0.5161 -0.1656
  549MOL0     H75757  10.497  11.094   2.914  0.6141  0.2325 -1.6011
  549MOL0     H75758  10.889  11.060   2.753  1.2730 -1.3114  2.0762
  549MOL0     H75759  10.555  10.642   3.416  2.7127 -1.3961 -1.7309
  549MOL0     H75760  10.421  10.482   3.682 -0.7526 -2.8835 -0.9673
  549MOL0     H75761  10.571  10.398   3.653 -0.6502 -1.0857 -0.7252
  549MOL0     H75762  10.574  10.562   3.635 -0.5825 -0.4253  0.1915
  550MOL0     O75763   1.255   6.727   7.214 -0.6001 -0.0622 -0.1269
  550MOL0     C75764   1.215   6.840   7.179  0.2317 -0.7860 -0.7264
  550MOL0     O75765   1.282   6.926   7.092  0.4097  0.0217  0.4758
  550MOL0     C75766   1.403   6.885   7.046  0.1768  0.1742  0.4228
  550MOL0     C75767   1.516   6.954   7.076  1.0154  0.5520 -0.3525
  550MOL0     C75768   1.639   6.921   7.027 -0.4177 -0.2323  0.2273
  550MOL0     C75769   1.659   6.817   6.945  0.9958  0.1857 -0.1283
  550MOL0     O75770   1.765   6.789   6.870  0.1681 -0.3645 -0.0928
  550MOL0     C75771   1.899   6.835   6.918 -0.0086  0.2682 -1.1036
  550MOL0     C75772   2.020   6.757   6.839  0.3313  0.2848 -0.3005
  550MOL0     C75773   2.156   6.785   6.899  0.3451 -0.5246  0.1440
  550MOL0     C75774   2.262   6.678   6.894 -0.0152 -1.1546  0.5366
  550MOL0     C75775   2.398   6.743   6.917 -0.2666 -0.1989  0.4790
  550MOL0     C75776   2.454   6.841   6.813  0.4718 -0.1172 -0.5333
  550MOL0     C75777   2.595   6.870   6.847  0.6806 -0.3742 -0.6036
  550MOL0     C75778   2.643   6.988   6.762 -0.5994 -0.3269 -0.3069
  550MOL0     N75779   2.791   6.981   6.729 -0.2191  0.1633 -0.2253
  550MOL0     C75780   2.891   7.005   6.816 -0.5290  0.5239  0.3396
  550MOL0     C75781   3.002   7.022   6.740 -0.8686 -1.2166 -0.1195
  550MOL0     C75782   3.133   7.058   6.809  0.2080 -1.0385 -1.6070
  550MOL0     C75783   3.123   7.198   6.881  0.9626  0.7885  1.0793
  550MOL0     C75784   3.258   7.241   6.950 -0.4640  0.4367  0.5243
  550MOL0     C75785   3.248   7.388   6.995 -0.3732  0.3591 -0.6660
  550MOL0     O75786   3.352   7.408   7.087 -0.3549 -0.8413 -0.5940
  550MOL0     C75787   3.371   7.532   7.149  0.0530  0.5215 -0.0940
  550MOL0     C75788   3.288   7.636   7.123 -0.5510 -0.0695  0.8289
  550MOL0     C75789   3.314   7.764   7.170  0.8524 -0.2388 -0.0807
  550MOL0     C75790   3.213   7.876   7.141  0.3593  0.2159  0.6050
  550MOL0     C75791   3.439   7.785   7.244  0.7284  0.6635  0.3440
  550MOL0     C75792   3.468   7.910   7.308 -0.0624  0.0372 -0.1470
  550MOL0     O75793   3.479   8.020   7.228 -0.5188 -0.1657 -0.3521
  550MOL0     C75794   3.539   8.135   7.273 -0.0195  0.3039  0.2701
  550MOL0     C75795   3.653   8.146   7.355  0.3878  0.9444 -0.2086
  550MOL0     C75796   3.706   8.265   7.386 -1.0631 -0.2976 -1.2614
  550MOL0     C75797   3.662   8.382   7.341 -0.1435 -0.9757  1.1123
  550MOL0     O75798   3.702   8.503   7.387 -0.5090  0.1193 -0.1987
  550MOL0     C75799   3.822   8.511   7.459  0.1413 -0.3146 -0.6240
  550MOL0     C75800   3.856   8.657   7.487  0.3944  0.4809  0.6909
  550MOL0     C75801   3.992   8.676   7.552  1.3241  0.6372 -0.6080
  550MOL0     C75802   4.008   8.821   7.582 -1.0574  0.3872 -0.6077
  550MOL0     C75803   4.144   8.847   7.648  0.4753  0.0023  0.1533
  550MOL0     C75804   4.171   8.993   7.672 -0.3582 -0.7253  0.4050
  550MOL0     C75805   4.307   9.009   7.749  0.5775 -0.2191  0.5766
  550MOL0     C75806   4.345   9.156   7.763  0.5394 -0.8053  0.2186
  550MOL0    Cl75807   4.376   9.217   7.606  0.0304 -0.2429 -0.0165
  550MOL0     C75808   3.553   8.383   7.251 -0.2827 -0.5968 -0.1433
  550MOL0     C75809   3.486   8.258   7.220 -0.7876  0.2631  0.2533
  550MOL0     O75810   3.507   7.907   7.424 -0.3352  0.3766  0.1658
  550MOL0     C75811   3.516   7.672   7.278 -0.0233 -0.6545  0.3505
  550MOL0     C75812   3.475   7.545   7.238 -0.4510 -0.3880  0.2925
  550MOL0     N75813   2.965   7.001   6.605  0.6493 -0.4389 -0.2805
  550MOL0     N75814   2.834   6.971   6.602 -0.7946 -0.0593 -0.0260
  550MOL0     C75815   1.544   6.748   6.908  0.3532 -0.7496 -0.2630
  550MOL0     C75816   1.419   6.772   6.962  0.2865 -0.5602 -0.4434
  550MOL0     C75817   1.079   6.878   7.236 -0.9783 -0.1941  0.3786
  550MOL0     C75818   0.998   6.774   7.285 -0.3982  0.0546 -0.4368
  550MOL0     C75819   0.871   6.796   7.328  1.3364 -0.0618  0.4313
  550MOL0     C75820   0.819   6.926   7.337 -0.1511 -0.2395  0.6729
  550MOL0     O75821   0.690   6.958   7.369 -0.0674  0.2832  0.3655
  550MOL0     C75822   0.622   6.872   7.464 -0.2441  0.0832  0.8222
  550MOL0     C75823   0.501   6.952   7.488  0.3216  0.7245 -0.7894
  550MOL0     C75824   0.379   6.862   7.518 -0.1595 -0.0128  0.0178
  550MOL0     C75825   0.249   6.937   7.532  1.0754  0.2586  0.4659
  550MOL0     C75826   0.158   6.848   7.603  0.1208 -0.0956 -0.5665
  550MOL0     C75827   0.096   6.761   7.666  0.8130 -0.9768 -0.2394
  550MOL0     C75828   0.902   7.027   7.315 -0.4181 -0.0677  0.6996
  550MOL0     C75829   1.028   7.011   7.262  0.2564 -0.2389  0.4704
  550MOL0     C75830   1.132   7.125   7.242  1.4592  0.8728  0.6697
  550MOL0     H75831   1.505   7.043   7.137 -1.8125  3.4034 -4.4802
  550MOL0     H75832   1.722   6.985   7.053  1.3953 -0.8557 -3.4364
  550MOL0     H75833   1.899   6.812   7.024  0.2359 -1.7837 -1.5131
  550MOL0     H75834   1.919   6.943   6.912  0.8346  0.1948  0.0837
  550MOL0     H75835   1.990   6.652   6.833 -0.3736  0.3417  1.4944
  550MOL0     H75836   2.013   6.786   6.734 -0.8226  0.4474 -0.1857
  550MOL0     H75837   2.191   6.879   6.856 -1.9508  1.2082  1.7744
  550MOL0     H75838   2.139   6.816   7.003 -3.1163 -1.1643 -0.1266
  550MOL0     H75839   2.234   6.607   6.973 -0.6631 -0.1804  1.2194
  550MOL0     H75840   2.258   6.616   6.804  2.9912 -1.5678  0.5725
  550MOL0     H75841   2.449   6.652   6.883  0.7062 -0.8101  3.2858
  550MOL0     H75842   2.426   6.779   7.017 -2.4993 -1.4978  1.6311
  550MOL0     H75843   2.470   6.815   6.708  1.0350 -1.0938 -0.2229
  550MOL0     H75844   2.393   6.931   6.815  0.3737 -0.1939  0.7892
  550MOL0     H75845   2.655   6.779   6.836  1.5487 -0.0536  1.2295
  550MOL0     H75846   2.605   6.898   6.952 -1.7801 -1.0681 -0.1086
  550MOL0     H75847   2.589   6.985   6.667 -1.1607  0.5644 -0.0293
  550MOL0     H75848   2.616   7.086   6.802 -1.4802 -0.7687  0.2004
  550MOL0     H75849   2.884   7.017   6.923  2.0454  1.8768  0.4341
  550MOL0     H75850   3.219   7.058   6.741  1.4522  0.7926 -0.1267
  550MOL0     H75851   3.163   6.986   6.885  0.0093  1.1704  0.6934
  550MOL0     H75852   3.098   7.271   6.804 -3.2623 -0.9164  0.5713
  550MOL0     H75853   3.042   7.192   6.955 -0.5731 -1.7804 -0.6705
  550MOL0     H75854   3.289   7.185   7.039  3.8400 -1.6284 -1.9392
  550MOL0     H75855   3.348   7.242   6.888 -0.4983  0.8880  0.4740
  550MOL0     H75856   3.263   7.455   6.910  0.1439  0.0121 -0.8567
  550MOL0     H75857   3.158   7.409   7.052  0.2062  2.0186 -0.3034
  550MOL0     H75858   3.204   7.633   7.054  2.6480  1.2709 -3.5756
  550MOL0     H75859   3.181   7.931   7.230 -1.4696  2.1760 -1.1423
  550MOL0     H75860   3.127   7.843   7.082  2.3425 -2.8024 -0.8610
  550MOL0     H75861   3.252   7.947   7.067 -0.4645 -0.5167 -0.5864
  550MOL0     H75862   3.702   8.060   7.401  0.7158  2.5636  2.6838
  550MOL0     H75863   3.798   8.266   7.444 -0.5159  1.0644 -2.1196
  550MOL0     H75864   3.826   8.459   7.555  1.0653  0.0283 -0.4733
  550MOL0     H75865   3.897   8.471   7.390 -0.9676 -1.3656 -1.2873
  550MOL0     H75866   3.857   8.711   7.392  1.5862  1.8576  1.4413
  550MOL0     H75867   3.781   8.707   7.548  0.7068 -0.2125  1.6580
  550MOL0     H75868   4.072   8.633   7.491  1.9770 -1.9501  1.8273
  550MOL0     H75869   3.997   8.630   7.652  0.5790  3.2402  0.7010
  550MOL0     H75870   3.936   8.847   7.659 -0.7427 -2.8375  0.9388
  550MOL0     H75871   4.004   8.886   7.494  1.8259  2.2603  0.4958
  550MOL0     H75872   4.144   8.801   7.747  0.2838 -0.8789 -0.2405
  550MOL0     H75873   4.214   8.797   7.581 -2.3644 -4.3387 -0.0105
  550MOL0     H75874   4.105   9.032   7.751  0.4003 -2.1609  1.8001
  550MOL0     H75875   4.177   9.060   7.586 -2.3577  4.1214  3.5748
  550MOL0     H75876   4.380   8.951   7.690  1.0059  0.8558  0.0268
  550MOL0     H75877   4.297   8.957   7.844  0.3915  0.8489  1.1476
  550MOL0     H75878   4.430   9.179   7.828 -0.5109 -0.3376  1.4734
  550MOL0     H75879   4.264   9.210   7.813  0.0899 -1.3560  0.0928
  550MOL0     H75880   3.522   8.481   7.215  1.6878  0.2889  0.4322
  550MOL0     H75881   3.395   8.256   7.161 -0.9794 -0.0168  0.5548
  550MOL0     H75882   3.617   7.688   7.314 -0.6997 -0.1369  2.1053
  550MOL0     H75883   3.545   7.467   7.264 -0.2286  0.0299  0.9651
  550MOL0     H75884   1.551   6.659   6.847  0.3314 -0.3761 -0.8164
  550MOL0     H75885   1.335   6.706   6.943  1.3057 -1.4322 -2.1484
  550MOL0     H75886   1.025   6.670   7.276  2.5847  0.5205  1.5126
  550MOL0     H75887   0.806   6.713   7.353  2.5578 -0.5779  2.1282
  550MOL0     H75888   0.598   6.780   7.409  3.0894  0.8027 -2.2284
  550MOL0     H75889   0.694   6.856   7.545  0.9180 -1.3575 -0.4376
  550MOL0     H75890   0.470   7.005   7.398 -2.1908  1.7218  0.5734
  550MOL0     H75891   0.510   7.016   7.576 -0.7733  0.7460 -0.6834
  550MOL0     H75892   0.359   6.808   7.424 -2.3647  0.7505 -0.0121
  550MOL0     H75893   0.401   6.789   7.596  1.1846  0.2202 -0.1238
  550MOL0     H75894   0.223   6.977   7.433 -2.6966  0.8623  1.5392
  550MOL0     H75895   0.267   7.025   7.594  0.8882 -0.0529  0.9701
  550MOL0     H75896   0.040   6.675   7.698 -0.0866  0.4971  2.5231
  550MOL0     H75897   0.863   7.128   7.328 -0.8786  0.0828 -1.3720
  550MOL0     H75898   1.091   7.222   7.270  0.5687  0.6489  0.2046
  550MOL0     H75899   1.226   7.105   7.293  2.2641 -0.6143 -1.2537
  550MOL0     H75900   1.145   7.137   7.134 -1.2963  0.2338  0.1792
  551MOL0     O75901  10.401   3.795   6.175 -0.7679 -1.0074  0.8358
  551MOL0     C75902  10.506   3.833   6.230 -0.3993 -0.3529  1.3551
  551MOL0     O75903  10.633   3.789   6.204  0.3597 -0.7871 -0.2016
  551MOL0     C75904  10.655   3.690   6.117  0.5425 -0.0078 -0.2298
  551MOL0     C75905  10.740   3.725   6.015 -0.2708 -0.4736  1.1147
  551MOL0     C75906  10.782   3.633   5.922  0.4995 -0.4766  0.2595
  551MOL0     C75907  10.733   3.499   5.925 -0.1873  0.0812  0.3407
  551MOL0     O75908  10.775   3.411   5.837  0.1243  0.2134 -0.5287
  551MOL0     C75909  10.904   3.428   5.783 -0.5407  1.2852 -0.7794
  551MOL0     C75910  10.962   3.289   5.744  0.2730  0.1500  0.4737
  551MOL0     C75911  11.085   3.301   5.664 -0.0965  0.2331  0.9267
  551MOL0     C75912  11.095   3.223   5.532  0.6372  0.4146 -0.2931
  551MOL0     C75913  11.206   3.273   5.441 -0.9413 -0.2643 -0.7116
  551MOL0     C75914  11.208   3.188   5.316 -0.0205  0.0832 -0.0289
  551MOL0     C75915  11.167   3.273   5.195 -1.3979  0.1845 -0.1842
  551MOL0     C75916  11.020   3.316   5.203 -0.7353  0.5306 -0.6994
  551MOL0     N75917  10.929   3.205   5.201 -0.4587 -0.4968  0.5308
  551MOL0     C75918  10.829   3.169   5.292  0.1972 -0.1982 -0.1000
  551MOL0     C75919  10.765   3.075   5.230 -0.1120 -0.4461  0.8339
  551MOL0     C75920  10.638   3.002   5.287  0.5063 -0.6780 -0.0132
  551MOL0     C75921  10.624   3.026   5.440 -0.3803 -0.1381 -0.6435
  551MOL0     C75922  10.496   2.945   5.485 -0.6341  0.2981 -0.5684
  551MOL0     C75923  10.485   2.949   5.640 -0.1374  0.6948  0.5081
  551MOL0     O75924  10.617   2.919   5.697  0.2288 -0.0998 -0.1406
  551MOL0     C75925  10.610   2.907   5.830  0.7216 -0.3488  0.3549
  551MOL0     C75926  10.694   2.994   5.903  0.5014  0.0253  0.0316
  551MOL0     C75927  10.701   2.994   6.041 -0.8893 -0.4607  0.7477
  551MOL0     C75928  10.801   3.099   6.080  0.3766  0.3150 -0.0790
  551MOL0     C75929  10.629   2.899   6.118  0.1640  0.6992  0.2062
  551MOL0     C75930  10.636   2.885   6.259 -0.0525  0.2191  1.1505
  551MOL0     O75931  10.601   2.767   6.312  0.7618  0.2138 -0.4567
  551MOL0     C75932  10.587   2.762   6.451  0.2677  0.0650  0.0279
  551MOL0     C75933  10.671   2.688   6.528  1.5176 -0.0102  0.7063
  551MOL0     C75934  10.657   2.683   6.664 -0.9881 -0.8579 -0.0370
  551MOL0     C75935  10.560   2.757   6.731  1.2459  0.1176 -0.0536
  551MOL0     O75936  10.548   2.764   6.865  0.2400  0.4031  0.4481
  551MOL0     C75937  10.508   2.639   6.915  0.5021 -0.9680 -0.4601
  551MOL0     C75938  10.615   2.576   6.989 -0.4106  0.3475  0.5441
  551MOL0     C75939  10.572   2.497   7.104  0.2936 -0.0264 -0.8634
  551MOL0     C75940  10.448   2.397   7.090 -1.0110 -0.5493 -0.2989
  551MOL0     C75941  10.419   2.317   7.216  0.1681  0.3491  0.0149
  551MOL0     C75942  10.272   2.267   7.215  0.5745 -0.4104  0.9262
  551MOL0     C75943  10.255   2.149   7.116  0.1629 -0.6183 -0.5099
  551MOL0     C75944  10.114   2.120   7.074 -0.6930  0.7578 -0.0005
  551MOL0    Cl75945  10.043   2.238   6.964  0.2965 -0.5279  0.2737
  551MOL0     C75946  10.466   2.839   6.659  0.3069 -0.4957  0.5704
  551MOL0     C75947  10.482   2.839   6.517  0.2135  0.0262 -0.2332
  551MOL0     O75948  10.673   2.982   6.321 -0.2780  0.0434 -0.1722
  551MOL0     C75949  10.556   2.798   6.042  0.2794 -0.1709 -0.8672
  551MOL0     C75950  10.545   2.813   5.901 -0.7471  0.6507 -0.3004
  551MOL0     N75951  10.830   3.042   5.115 -0.4196 -0.0176 -0.0284
  551MOL0     N75952  10.935   3.117   5.102  0.0145  0.4675 -0.7247
  551MOL0     C75953  10.656   3.467   6.038 -0.1482  0.5435  0.2310
  551MOL0     C75954  10.610   3.558   6.126  0.3939 -0.7007  0.4321
  551MOL0     C75955  10.500   3.921   6.354 -1.4043 -0.7244  0.9576
  551MOL0     C75956  10.595   4.026   6.364  0.2155  0.0947  0.0948
  551MOL0     C75957  10.596   4.099   6.480  1.0332  0.2733 -0.1965
  551MOL0     C75958  10.506   4.084   6.578  1.2016  0.6250  0.5387
  551MOL0     O75959  10.533   4.152   6.691  0.2295 -0.5896  0.3796
  551MOL0     C75960  10.438   4.164   6.799 -0.4488  1.6495 -0.0392
  551MOL0     C75961  10.431   4.309   6.843  0.7735 -0.3956 -0.0873
  551MOL0     C75962  10.560   4.343   6.906 -1.0256  1.1119 -0.9636
  551MOL0     C75963  10.573   4.494   6.932  0.2344  0.2369  0.7043
  551MOL0     C75964  10.694   4.538   7.001  0.0302 -0.1200 -0.3473
  551MOL0     C75965  10.795   4.585   7.056  0.1328 -0.0071  0.2186
  551MOL0     C75966  10.401   3.997   6.561  0.2607  0.3303 -0.5891
  551MOL0     C75967  10.401   3.904   6.454  0.5651 -0.7589  0.5105
  551MOL0     C75968  10.289   3.805   6.447  0.0817 -0.2499  0.2243
  551MOL0     H75969  10.773   3.827   5.999  4.0810 -2.0758 -1.9646
  551MOL0     H75970  10.851   3.672   5.847  0.6829  1.1758  1.2404
  551MOL0     H75971  10.972   3.468   5.859  1.1082 -3.2024  0.4501
  551MOL0     H75972  10.891   3.503   5.704 -0.5963 -0.1012 -2.1343
  551MOL0     H75973  10.985   3.230   5.833 -0.8695 -0.8276  0.1542
  551MOL0     H75974  10.879   3.236   5.695 -0.2918  2.2596 -1.0117
  551MOL0     H75975  11.099   3.404   5.631  3.2608 -1.2021 -3.1249
  551MOL0     H75976  11.170   3.266   5.723 -1.8264  0.6517  3.8829
  551MOL0     H75977  11.103   3.116   5.557 -0.8376  0.3181 -0.1488
  551MOL0     H75978  11.003   3.226   5.474  0.3610 -2.4669 -0.1794
  551MOL0     H75979  11.302   3.265   5.493 -0.0330 -0.5305 -2.3381
  551MOL0     H75980  11.198   3.380   5.419 -1.1224  0.2837  1.7192
  551MOL0     H75981  11.308   3.143   5.315 -0.4187 -1.2378  3.5857
  551MOL0     H75982  11.132   3.111   5.310 -2.5877  2.4044  0.6650
  551MOL0     H75983  11.191   3.220   5.102  3.1971 -0.6943  1.2157
  551MOL0     H75984  11.226   3.366   5.188 -1.6056  0.5272  1.9306
  551MOL0     H75985  10.999   3.369   5.296 -1.1981 -2.4786  1.0683
  551MOL0     H75986  11.004   3.383   5.119  1.9201 -0.3563 -2.0327
  551MOL0     H75987  10.806   3.217   5.387  0.5989  3.8641 -1.8444
  551MOL0     H75988  10.654   2.899   5.255  2.1254 -0.8099  1.1056
  551MOL0     H75989  10.552   3.051   5.240 -0.1374 -0.1242  1.6499
  551MOL0     H75990  10.714   2.977   5.478 -0.0554 -2.7457 -4.2883
  551MOL0     H75991  10.628   3.127   5.483  0.7633 -1.4146  2.6565
  551MOL0     H75992  10.414   2.994   5.431  0.0306  0.2923 -1.6114
  551MOL0     H75993  10.495   2.841   5.452 -0.6417 -0.1967  0.9059
  551MOL0     H75994  10.455   3.045   5.682 -2.2022 -1.8659  5.7601
  551MOL0     H75995  10.413   2.867   5.651 -0.8703  0.8826 -2.1868
  551MOL0     H75996  10.757   3.052   5.837  0.4102  0.0774 -0.0100
  551MOL0     H75997  10.759   3.159   6.161 -1.0289  1.6976 -1.7342
  551MOL0     H75998  10.822   3.166   5.996 -0.5421  2.1776  1.1133
  551MOL0     H75999  10.889   3.049   6.120 -1.4330 -1.6434  1.7323
  551MOL0     H76000  10.740   2.616   6.485  1.4690  0.3342  0.0526
  551MOL0     H76001  10.720   2.609   6.712  1.9261  1.3875 -0.0686
  551MOL0     H76002  10.424   2.658   6.983 -1.5970 -1.6049 -2.6885
  551MOL0     H76003  10.462   2.583   6.832  0.3416  3.8289 -4.0102
  551MOL0     H76004  10.671   2.512   6.920 -2.2424  0.7500 -1.4178
  551MOL0     H76005  10.681   2.656   7.024  1.5347 -0.7764 -0.4100
  551MOL0     H76006  10.569   2.559   7.194 -1.0771 -0.8070 -0.3580
  551MOL0     H76007  10.655   2.430   7.127 -0.6193 -0.5211  1.1519
  551MOL0     H76008  10.469   2.328   7.008 -1.6927 -1.4119  0.2417
  551MOL0     H76009  10.367   2.462   7.054  0.4049 -0.0001 -2.7114
  551MOL0     H76010  10.493   2.239   7.233  0.1508  0.2705 -0.2529
  551MOL0     H76011  10.422   2.395   7.293 -0.6123 -2.2808  2.9034
  551MOL0     H76012  10.212   2.353   7.186  0.4403 -1.0934 -0.9599
  551MOL0     H76013  10.246   2.228   7.314 -1.0842 -1.8039 -0.0017
  551MOL0     H76014  10.298   2.061   7.164 -2.5722 -1.0811  1.3159
  551MOL0     H76015  10.311   2.163   7.023 -1.6824  1.7912 -1.3742
  551MOL0     H76016  10.047   2.103   7.158 -2.2911 -0.0819 -1.3795
  551MOL0     H76017  10.125   2.027   7.017  2.0367  1.2526 -0.4324
  551MOL0     H76018  10.396   2.910   6.703 -0.1652  0.9377 -2.2625
  551MOL0     H76019  10.416   2.889   6.447  0.6172 -2.7160 -2.7465
  551MOL0     H76020  10.502   2.716   6.089 -2.2585  1.3709 -0.8938
  551MOL0     H76021  10.508   2.728   5.845  0.6509 -1.0569  1.2444
  551MOL0     H76022  10.638   3.361   6.051  1.7904 -0.1139 -1.8546
  551MOL0     H76023  10.542   3.526   6.204  1.2135 -1.7558  0.7331
  551MOL0     H76024  10.677   4.032   6.293  2.2880 -1.4427  2.2111
  551MOL0     H76025  10.673   4.176   6.487 -0.2867  1.5814  0.4840
  551MOL0     H76026  10.338   4.134   6.767  1.3465 -1.5588 -3.4015
  551MOL0     H76027  10.470   4.101   6.882 -2.3203  1.4642  0.5892
  551MOL0     H76028  10.346   4.342   6.904 -1.8964 -0.4493 -3.4588
  551MOL0     H76029  10.412   4.368   6.753  0.9861  2.5329  1.6601
  551MOL0     H76030  10.558   4.297   7.005 -0.2548 -1.2402 -1.9887
  551MOL0     H76031  10.651   4.312   6.854 -0.2781  0.1765  0.8253
  551MOL0     H76032  10.479   4.528   6.977 -0.3540 -1.1323  0.5640
  551MOL0     H76033  10.577   4.524   6.827 -4.6030 -2.3336 -0.5045
  551MOL0     H76034  10.871   4.639   7.109  0.2385  0.2611 -0.1955
  551MOL0     H76035  10.318   3.985   6.630 -0.0844  0.1954 -1.0235
  551MOL0     H76036  10.232   3.789   6.540 -0.3531 -0.6828 -0.1143
  551MOL0     H76037  10.217   3.823   6.367  1.1723 -1.2858 -1.0324
  551MOL0     H76038  10.335   3.706   6.432 -1.3517 -1.0182  0.7036
  552MOL0     O76039   6.413   4.793   3.417  0.2644 -0.3121  0.2708
  552MOL0     C76040   6.513   4.734   3.447  0.1524  0.3003 -0.3710
  552MOL0     O76041   6.597   4.781   3.549 -0.3172  0.2489  0.2819
  552MOL0     C76042   6.587   4.909   3.607  0.4732 -0.6723  0.1635
  552MOL0     C76043   6.493   4.932   3.708 -0.4463  0.6993 -0.3283
  552MOL0     C76044   6.491   5.054   3.782 -0.6419  0.1362 -0.3595
  552MOL0     C76045   6.577   5.162   3.744 -0.0632  0.5598  0.1568
  552MOL0     O76046   6.600   5.279   3.815  0.6949  0.2879  0.0098
  552MOL0     C76047   6.500   5.328   3.904 -0.1882  1.0913 -0.0813
  552MOL0     C76048   6.523   5.477   3.928 -0.2515 -0.3008 -0.5304
  552MOL0     C76049   6.423   5.519   4.031  0.1700  0.3309  0.5479
  552MOL0     C76050   6.452   5.657   4.094  0.5049  0.7167 -0.3525
  552MOL0     C76051   6.449   5.773   3.991  0.1980  0.3045 -0.5824
  552MOL0     C76052   6.439   5.908   4.073 -0.1495  0.4413  0.5586
  552MOL0     C76053   6.426   6.027   3.974 -0.3824  0.2089 -0.2358
  552MOL0     C76054   6.416   6.165   4.037 -0.6239 -0.0336 -0.0036
  552MOL0     N76055   6.304   6.177   4.139  0.0313  0.1519  0.1589
  552MOL0     C76056   6.313   6.241   4.256 -0.3339 -0.0324 -0.4719
  552MOL0     C76057   6.182   6.267   4.295  0.1097  0.0010  0.9021
  552MOL0     C76058   6.159   6.351   4.421  0.5908  0.2876 -0.3458
  552MOL0     C76059   6.125   6.256   4.531 -0.1828 -0.4626  0.1090
  552MOL0     C76060   6.076   6.329   4.654  0.2459  0.6752 -0.1601
  552MOL0     C76061   6.056   6.235   4.768  0.6234  0.0678 -0.5652
  552MOL0     O76062   6.001   6.305   4.886  0.0126 -0.7078 -0.1730
  552MOL0     C76063   6.089   6.389   4.960  0.7176  0.4090 -0.2306
  552MOL0     C76064   6.228   6.376   4.952 -1.0150 -0.1334 -1.5498
  552MOL0     C76065   6.309   6.456   5.038 -0.7071 -0.2473 -0.4415
  552MOL0     C76066   6.458   6.424   5.035 -0.5937  0.6333  1.0135
  552MOL0     C76067   6.248   6.564   5.100  0.0511  0.0637 -0.5208
  552MOL0     C76068   6.324   6.664   5.187 -0.3313  0.0927 -0.7451
  552MOL0     O76069   6.268   6.790   5.204  0.1869 -0.2756 -0.0829
  552MOL0     C76070   6.325   6.883   5.286 -0.9167 -0.0112  0.0947
  552MOL0     C76071   6.247   6.982   5.340 -0.7962  0.5011 -0.4476
  552MOL0     C76072   6.302   7.076   5.427 -0.2014  0.5584  0.7836
  552MOL0     C76073   6.442   7.082   5.450 -0.9015 -1.4600 -0.1149
  552MOL0     O76074   6.493   7.179   5.543 -0.0192 -0.2398 -0.3780
  552MOL0     C76075   6.495   7.121   5.678 -0.8696  0.0308 -0.2782
  552MOL0     C76076   6.621   7.181   5.741 -0.4366 -0.2967 -0.1652
  552MOL0     C76077   6.651   7.142   5.883  0.2993  0.0185  1.0570
  552MOL0     C76078   6.713   6.995   5.893 -0.2412  0.0854  0.5098
  552MOL0     C76079   6.741   6.961   6.040 -0.9195  0.0659  1.0782
  552MOL0     C76080   6.865   7.027   6.099  0.0966  1.3643 -0.2386
  552MOL0     C76081   6.860   7.012   6.252 -0.6489 -0.5841  0.5455
  552MOL0     C76082   6.919   7.129   6.331  0.1001 -0.2259  0.1533
  552MOL0    Cl76083   6.865   7.138   6.504 -0.5372 -0.6112 -0.1549
  552MOL0     C76084   6.525   6.998   5.386  0.2397 -0.3655 -0.5754
  552MOL0     C76085   6.462   6.901   5.304  0.4218  0.1510  0.1224
  552MOL0     O76086   6.418   6.621   5.254  0.1167 -0.2570  0.3666
  552MOL0     C76087   6.107   6.581   5.105 -0.3822 -0.1808 -0.3292
  552MOL0     C76088   6.030   6.489   5.036  0.4566  0.4296 -0.0064
  552MOL0     N76089   6.100   6.218   4.197  0.2255  0.5210  0.1204
  552MOL0     N76090   6.174   6.163   4.100  0.4229  0.1950 -0.0509
  552MOL0     C76091   6.680   5.127   3.653  0.0190  0.3384 -0.4537
  552MOL0     C76092   6.684   5.009   3.576 -0.6707  0.4055 -0.2865
  552MOL0     C76093   6.544   4.593   3.390  0.5430  0.6388  0.2216
  552MOL0     C76094   6.469   4.545   3.272  1.2390  0.4499  0.5299
  552MOL0     C76095   6.513   4.427   3.205  0.0300 -0.1208 -0.6590
  552MOL0     C76096   6.615   4.346   3.257 -0.5579  0.3987 -1.3971
  552MOL0     O76097   6.652   4.228   3.192  0.8890 -0.1872  0.1576
  552MOL0     C76098   6.751   4.242   3.085 -0.6735 -0.5313  0.2130
  552MOL0     C76099   6.894   4.268   3.137  0.7113 -0.0276  0.6890
  552MOL0     C76100   7.005   4.266   3.029 -0.5063 -0.5046  0.0546
  552MOL0     C76101   7.010   4.397   2.955  0.6104  0.7165 -0.8562
  552MOL0     C76102   7.129   4.409   2.882  0.0990 -0.1442 -0.4835
  552MOL0     C76103   7.236   4.419   2.825 -0.4760 -0.4215 -0.3248
  552MOL0     C76104   6.672   4.384   3.375 -0.1082 -0.3359 -0.3259
  552MOL0     C76105   6.642   4.507   3.441 -0.0076 -0.1206  0.4519
  552MOL0     C76106   6.730   4.532   3.558  0.1888 -0.7857  0.4404
  552MOL0     H76107   6.427   4.855   3.747  0.8192 -0.7830 -1.0137
  552MOL0     H76108   6.427   5.069   3.869 -2.0259 -0.8388 -1.1681
  552MOL0     H76109   6.499   5.267   3.995 -1.9197  0.8254 -0.2441
  552MOL0     H76110   6.400   5.312   3.862  0.2872  0.3892 -0.9584
  552MOL0     H76111   6.626   5.495   3.962 -0.7908  0.5656  0.7383
  552MOL0     H76112   6.505   5.532   3.835 -1.5053  0.1600 -0.0373
  552MOL0     H76113   6.322   5.527   3.991  1.0675  4.0592 -1.4101
  552MOL0     H76114   6.410   5.450   4.115 -1.3486  0.6506  0.6029
  552MOL0     H76115   6.386   5.677   4.179  2.1134 -0.1737  1.1623
  552MOL0     H76116   6.553   5.647   4.134  0.8304 -2.8725 -1.7022
  552MOL0     H76117   6.357   5.752   3.936 -1.4688 -2.2999  2.8098
  552MOL0     H76118   6.534   5.752   3.925  0.5393 -2.4441  0.6032
  552MOL0     H76119   6.357   5.909   4.146 -1.8727 -4.4975 -0.8953
  552MOL0     H76120   6.532   5.910   4.129  2.2630 -2.2034 -2.8945
  552MOL0     H76121   6.342   6.021   3.904 -3.6542  0.9270  3.3186
  552MOL0     H76122   6.517   6.032   3.912  0.8121 -0.5022  1.3941
  552MOL0     H76123   6.508   6.200   4.086 -0.6466  1.6127 -1.0765
  552MOL0     H76124   6.403   6.243   3.961  1.7388 -0.0034 -0.4584
  552MOL0     H76125   6.410   6.265   4.298  0.0828 -1.3543 -0.6188
  552MOL0     H76126   6.077   6.419   4.396 -0.0356 -1.0586 -2.1909
  552MOL0     H76127   6.244   6.417   4.438  0.8995  0.3865 -2.0990
  552MOL0     H76128   6.038   6.199   4.497  1.0381 -2.0379 -0.4630
  552MOL0     H76129   6.210   6.190   4.548  1.3461  0.9686 -1.5811
  552MOL0     H76130   6.146   6.410   4.676  2.5660 -0.3825 -2.8888
  552MOL0     H76131   5.980   6.378   4.639 -1.3098 -0.8508  3.6145
  552MOL0     H76132   5.987   6.156   4.735 -0.3299 -1.0956  3.6063
  552MOL0     H76133   6.147   6.182   4.797 -0.3709 -1.4353 -0.0687
  552MOL0     H76134   6.274   6.303   4.886  3.5336  3.5611 -3.0034
  552MOL0     H76135   6.489   6.329   5.079  1.8528  0.7919 -0.2150
  552MOL0     H76136   6.524   6.496   5.083  0.7981 -0.3644  0.6565
  552MOL0     H76137   6.502   6.412   4.935  2.0858 -1.4337  2.3220
  552MOL0     H76138   6.139   6.992   5.341 -1.1526 -2.4583 -1.1368
  552MOL0     H76139   6.248   7.155   5.478  1.2944  1.8160  0.4739
  552MOL0     H76140   6.415   7.157   5.743 -0.4335 -0.1552  0.3756
  552MOL0     H76141   6.494   7.012   5.666 -0.5005 -0.0054 -0.0047
  552MOL0     H76142   6.710   7.151   5.685 -0.5223 -1.4603  0.3112
  552MOL0     H76143   6.618   7.291   5.737  3.6083  0.0671  1.5497
  552MOL0     H76144   6.556   7.146   5.937 -1.0903 -2.2755 -1.0328
  552MOL0     H76145   6.711   7.225   5.923 -0.6946  1.1381  0.2948
  552MOL0     H76146   6.810   6.988   5.842 -1.4118 -3.3514 -1.6145
  552MOL0     H76147   6.648   6.918   5.850 -2.1568  0.8081  1.9346
  552MOL0     H76148   6.645   6.980   6.089 -0.4284  0.3574  1.9504
  552MOL0     H76149   6.750   6.853   6.056 -0.7844  0.1597  1.6522
  552MOL0     H76150   6.879   7.129   6.065  0.9354  0.6804 -2.0624
  552MOL0     H76151   6.954   6.967   6.077  1.7065  2.8587  1.7909
  552MOL0     H76152   6.914   6.923   6.284  0.5526 -0.4263 -0.9632
  552MOL0     H76153   6.757   6.997   6.287 -1.2985 -2.1486 -1.8320
  552MOL0     H76154   6.890   7.220   6.277  2.8363 -0.3626 -1.7074
  552MOL0     H76155   7.027   7.116   6.339  0.2539 -2.1316 -3.4009
  552MOL0     H76156   6.632   6.999   5.406  0.0197  1.9853  0.7706
  552MOL0     H76157   6.529   6.849   5.236 -0.2811  1.3038 -1.5210
  552MOL0     H76158   6.052   6.664   5.149 -0.8603  0.5987 -2.2912
  552MOL0     H76159   5.922   6.484   5.039  0.4422  0.6321 -0.1697
  552MOL0     H76160   6.756   5.202   3.632 -2.0470  2.2674 -1.3746
  552MOL0     H76161   6.755   4.984   3.497 -0.6191  1.4316 -0.5769
  552MOL0     H76162   6.394   4.604   3.222  1.0870  0.3040  0.5866
  552MOL0     H76163   6.479   4.400   3.105  2.3792  1.2062 -1.9112
  552MOL0     H76164   6.770   4.142   3.043 -0.0682 -0.9440  1.4177
  552MOL0     H76165   6.723   4.311   3.005  3.9944  1.3454 -0.1357
  552MOL0     H76166   6.922   4.187   3.204  1.1475  0.0857  0.6452
  552MOL0     H76167   6.888   4.362   3.192 -1.1897 -0.2301  0.8929
  552MOL0     H76168   7.099   4.236   3.075 -0.3626  0.7719  0.6293
  552MOL0     H76169   6.973   4.190   2.958  1.3312 -1.7293  0.4713
  552MOL0     H76170   7.016   4.478   3.029  0.1626  0.3891 -0.4583
  552MOL0     H76171   6.922   4.421   2.896 -0.3155 -0.3745  0.0331
  552MOL0     H76172   7.326   4.429   2.768  1.0047 -0.3648  1.8992
  552MOL0     H76173   6.733   4.305   3.417  0.7222 -1.4981 -3.4301
  552MOL0     H76174   6.673   4.546   3.650 -0.3148 -3.2247  0.5836
  552MOL0     H76175   6.798   4.449   3.578 -0.0478 -0.6308  2.0333
  552MOL0     H76176   6.787   4.622   3.535 -0.2463 -0.7353 -0.4920
  553MOL0     O76177  10.731   7.131   0.789  0.6708 -0.7382 -0.1649
  553MOL0     C76178  10.732   7.011   0.761  0.6849 -1.0025 -0.0905
  553MOL0     O76179  10.832   6.923   0.788  0.4159  0.3980 -0.4863
  553MOL0     C76180  10.947   6.972   0.837 -1.3884  0.3209 -0.1743
  553MOL0     C76181  10.958   7.061   0.951 -0.7598 -0.2517  1.4249
  553MOL0     C76182  11.083   7.107   0.995 -0.5071 -0.7661  0.0649
  553MOL0     C76183  11.195   7.058   0.939  0.6959  0.2940 -0.8275
  553MOL0     O76184  11.318   7.094   0.977 -0.7255  0.2963 -0.0128
  553MOL0     C76185  11.342   7.235   0.998  0.2208  0.3275  0.7963
  553MOL0     C76186  11.324   7.322   0.874 -0.9065 -0.0206  0.1814
  553MOL0     C76187  11.452   7.409   0.844 -0.3917  0.7479  0.6675
  553MOL0     C76188  11.436   7.511   0.738 -0.3978  0.1597  0.2785
  553MOL0     C76189  11.563   7.591   0.694  0.0374 -0.0486 -1.1685
  553MOL0     C76190  11.544   7.700   0.592 -0.5652 -0.7493  0.0165
  553MOL0     C76191  11.462   7.663   0.471 -0.4906 -0.5838 -0.7906
  553MOL0     C76192  11.524   7.548   0.393 -0.5686  0.8940 -0.1403
  553MOL0     N76193  11.454   7.534   0.262 -0.0251 -0.5152  0.4206
  553MOL0     C76194  11.327   7.504   0.232 -0.4242 -0.2118  1.2614
  553MOL0     C76195  11.318   7.490   0.096 -0.2554 -0.9445 -0.0514
  553MOL0     C76196  11.203   7.446   0.016  0.2139 -0.1167 -0.4138
  553MOL0     C76197  11.160   7.296   0.025  0.2722 -0.4020 -0.0785
  553MOL0     C76198  11.281   7.213  -0.021  0.8250 -0.0227 -0.4275
  553MOL0     C76199  11.266   7.060   0.019 -0.1941  0.7553 -0.5393
  553MOL0     O76200  11.147   6.999  -0.045  0.4976 -0.0880 -0.3265
  553MOL0     C76201  11.133   6.863  -0.038 -0.3362 -0.0093 -0.9865
  553MOL0     C76202  11.220   6.782   0.032 -1.0903 -0.4517  0.6162
  553MOL0     C76203  11.204   6.644   0.045  0.4327  0.8012 -0.8505
  553MOL0     C76204  11.311   6.570   0.128 -0.4068 -0.3678 -0.2119
  553MOL0     C76205  11.101   6.580  -0.016  1.0492 -0.9254 -0.0021
  553MOL0     C76206  11.066   6.437   0.008  0.7105 -0.0603  0.0420
  553MOL0     O76207  11.155   6.346  -0.050  0.0514 -0.1049 -0.1787
  553MOL0     C76208  11.130   6.213  -0.052  0.7174 -0.9374  0.0506
  553MOL0     C76209  11.107   6.133   0.056 -0.0221 -0.1049 -0.4938
  553MOL0     C76210  11.116   5.989   0.053  1.2913  0.0092 -0.5173
  553MOL0     C76211  11.130   5.921  -0.079 -0.9234  0.9194 -0.1437
  553MOL0     O76212  11.133   5.779  -0.071 -0.2921  0.3485 -0.2744
  553MOL0     C76213  11.161   5.709  -0.192 -0.0975 -0.7969  0.2926
  553MOL0     C76214  11.196   5.563  -0.151  1.2139 -0.6755 -0.5384
  553MOL0     C76215  11.217   5.473  -0.270  0.7261 -0.7194  0.4066
  553MOL0     C76216  11.322   5.514  -0.373  0.1979  0.3332  0.8801
  553MOL0     C76217  11.378   5.390  -0.436  0.1592 -0.4169  0.1455
  553MOL0     C76218  11.273   5.339  -0.538  1.1968  0.2793 -0.0860
  553MOL0     C76219  11.350   5.262  -0.646 -1.3961  0.3426 -0.6093
  553MOL0     C76220  11.392   5.119  -0.605  0.5397 -0.5294 -0.0743
  553MOL0    Cl76221  11.544   5.113  -0.528 -0.0148  0.5347 -0.2343
  553MOL0     C76222  11.136   6.010  -0.191  0.5279  0.8440  0.2405
  553MOL0     C76223  11.142   6.148  -0.177 -0.0572 -0.3602 -0.5791
  553MOL0     O76224  10.975   6.411   0.091  0.0208 -0.1504  0.7489
  553MOL0     C76225  11.008   6.662  -0.096  0.9255 -0.5411  0.6192
  553MOL0     C76226  11.029   6.806  -0.104  0.3792 -1.5517 -0.3899
  553MOL0     N76227  11.437   7.523   0.041 -0.0151  0.2062 -0.4823
  553MOL0     N76228  11.518   7.554   0.138  0.6429  0.6467 -0.5048
  553MOL0     C76229  11.195   6.974   0.830 -0.0224 -1.1650  0.0984
  553MOL0     C76230  11.067   6.922   0.786 -0.5357 -0.7799 -0.3682
  553MOL0     C76231  10.593   6.966   0.709 -0.1116 -0.4765 -0.7264
  553MOL0     C76232  10.491   7.055   0.692 -0.7894 -0.7265 -1.2549
  553MOL0     C76233  10.375   7.021   0.626  0.3257  0.0656  0.0481
  553MOL0     C76234  10.352   6.895   0.583 -0.8797  0.7438 -0.5430
  553MOL0     O76235  10.247   6.842   0.513 -1.0313  0.0264  0.0920
  553MOL0     C76236  10.166   6.935   0.438  0.8176  0.6015  0.4681
  553MOL0     C76237  10.065   6.883   0.337  0.5289 -0.4090  0.4275
  553MOL0     C76238   9.970   6.789   0.421  0.4967 -0.3233 -0.3341
  553MOL0     C76239   9.865   6.696   0.356  0.5387  0.2080  0.3601
  553MOL0     C76240   9.768   6.780   0.286  0.3271 -0.4504  0.8167
  553MOL0     C76241   9.703   6.882   0.246  0.0052 -0.5705  1.1916
  553MOL0     C76242  10.450   6.793   0.605 -0.0743  0.4280  0.5370
  553MOL0     C76243  10.573   6.828   0.666  0.9308 -0.2465 -0.0153
  553MOL0     C76244  10.674   6.716   0.683 -0.0788  0.7217  0.6624
  553MOL0     H76245  10.869   7.092   1.005 -0.1367  1.5244  1.4975
  553MOL0     H76246  11.093   7.175   1.078  0.0567 -1.4483  0.5660
  553MOL0     H76247  11.444   7.230   1.037 -0.3823 -0.9135  2.3316
  553MOL0     H76248  11.274   7.273   1.075  1.5817  0.8839  1.7631
  553MOL0     H76249  11.317   7.270   0.778  1.0334  1.6158 -0.9219
  553MOL0     H76250  11.233   7.377   0.896 -1.7469 -2.2723  2.9998
  553MOL0     H76251  11.501   7.451   0.933  1.0907  2.4202 -0.8404
  553MOL0     H76252  11.538   7.352   0.808  1.1625  1.2857  3.2274
  553MOL0     H76253  11.379   7.471   0.653  0.3795  1.4815 -0.8913
  553MOL0     H76254  11.370   7.586   0.781  0.6224  1.4272 -0.3151
  553MOL0     H76255  11.641   7.526   0.653  2.0111  1.3935  0.1213
  553MOL0     H76256  11.608   7.641   0.780 -0.8886 -1.7511  0.3608
  553MOL0     H76257  11.491   7.784   0.637  1.8796  0.5297  0.7245
  553MOL0     H76258  11.644   7.738   0.567 -0.5165 -0.8176  0.1053
  553MOL0     H76259  11.445   7.755   0.415  2.5900  0.0171 -0.9044
  553MOL0     H76260  11.362   7.627   0.499  0.6478 -3.3407  0.0521
  553MOL0     H76261  11.625   7.582   0.368 -1.2037  2.9430 -0.1723
  553MOL0     H76262  11.525   7.452   0.444 -2.2147  0.1613 -1.4129
  553MOL0     H76263  11.247   7.496   0.305 -3.1739  0.4724 -1.4847
  553MOL0     H76264  11.217   7.478  -0.087  2.3179  1.3196  0.2439
  553MOL0     H76265  11.114   7.504   0.046 -0.7663 -0.3876 -2.6183
  553MOL0     H76266  11.128   7.257   0.122 -0.4729 -0.0892 -0.1893
  553MOL0     H76267  11.076   7.287  -0.044 -0.8171  0.9469  1.0026
  553MOL0     H76268  11.293   7.228  -0.128  2.1710  3.3075  0.0628
  553MOL0     H76269  11.365   7.246   0.042 -0.4695  0.4990  1.1148
  553MOL0     H76270  11.358   7.005  -0.001  1.1220  2.2862  1.0056
  553MOL0     H76271  11.248   7.050   0.127  1.4174  1.3140 -0.1864
  553MOL0     H76272  11.312   6.826   0.070 -1.9957 -0.1433  2.6111
  553MOL0     H76273  11.268   6.493   0.194 -1.2563  0.3747  0.1125
  553MOL0     H76274  11.359   6.656   0.176  1.2542  0.8641 -3.7899
  553MOL0     H76275  11.394   6.532   0.069  0.2174  1.2573 -0.4260
  553MOL0     H76276  11.106   6.187   0.150 -2.4698  1.3728 -1.2888
  553MOL0     H76277  11.113   5.936   0.148  3.2572  3.0527  1.4153
  553MOL0     H76278  11.087   5.720  -0.271  1.4092 -0.9764 -1.2046
  553MOL0     H76279  11.254   5.750  -0.233 -2.4578  2.0176 -2.8025
  553MOL0     H76280  11.288   5.565  -0.092  1.3947 -0.6881 -0.8208
  553MOL0     H76281  11.112   5.514  -0.100 -0.7625  0.0287 -2.9158
  553MOL0     H76282  11.120   5.468  -0.318  1.5714  0.6080 -1.5320
  553MOL0     H76283  11.246   5.374  -0.233  2.5712 -1.0163 -1.6197
  553MOL0     H76284  11.399   5.574  -0.322  1.2113  0.4038 -0.6627
  553MOL0     H76285  11.281   5.577  -0.453  1.9124 -1.5675 -1.6588
  553MOL0     H76286  11.472   5.404  -0.491  0.3168 -1.8950  0.0109
  553MOL0     H76287  11.392   5.306  -0.367  2.2139 -0.8759 -0.7539
  553MOL0     H76288  11.219   5.424  -0.581  0.9673 -0.1740 -0.6973
  553MOL0     H76289  11.208   5.275  -0.479  1.9765  0.1579  0.6678
  553MOL0     H76290  11.430   5.322  -0.692 -0.9285  0.8717  0.8351
  553MOL0     H76291  11.278   5.246  -0.727 -2.7387 -0.7736  0.7723
  553MOL0     H76292  11.405   5.050  -0.689  0.4869 -2.3462  1.3323
  553MOL0     H76293  11.313   5.078  -0.541 -1.2248  3.6275  0.7555
  553MOL0     H76294  11.140   5.946  -0.278  0.5040  1.9734 -0.6197
  553MOL0     H76295  11.173   6.200  -0.266 -1.1476  0.3353 -0.5718
  553MOL0     H76296  10.930   6.611  -0.151  1.7951 -3.3626  1.8266
  553MOL0     H76297  10.957   6.863  -0.162  0.1244 -0.9812  0.4552
  553MOL0     H76298  11.285   6.944   0.776  0.7236  1.2414 -0.1138
  553MOL0     H76299  11.067   6.842   0.714  0.2270 -0.1563 -1.0819
  553MOL0     H76300  10.489   7.162   0.710 -2.4368 -1.0988  1.2756
  553MOL0     H76301  10.300   7.099   0.620  0.8908  0.4888 -2.8050
  553MOL0     H76302  10.113   7.008   0.501 -0.6349 -0.2721  0.3058
  553MOL0     H76303  10.231   6.988   0.369 -2.6051  0.3052 -3.3652
  553MOL0     H76304  10.122   6.845   0.252  1.1789  0.1455  0.6051
  553MOL0     H76305  10.006   6.970   0.308 -2.5740 -1.9774  1.5529
  553MOL0     H76306  10.040   6.732   0.482  2.0180  1.7232 -0.0486
  553MOL0     H76307   9.902   6.843   0.487 -0.8604 -2.0234 -0.2962
  553MOL0     H76308   9.813   6.649   0.440 -1.6393  3.4910  1.0512
  553MOL0     H76309   9.911   6.617   0.296 -1.6192 -0.7981 -0.0777
  553MOL0     H76310   9.641   6.965   0.218 -0.9279 -0.4224  3.4839
  553MOL0     H76311  10.441   6.687   0.581 -2.1397  0.4133  1.2368
  553MOL0     H76312  10.768   6.739   0.633 -1.2970  0.6864 -1.7689
  553MOL0     H76313  10.704   6.704   0.788 -3.1254 -3.7602  1.3235
  553MOL0     H76314  10.634   6.615   0.675 -1.3930  1.2741 -0.1833
  554MOL0     O76315   6.118   9.462   8.386  0.2715  0.0988 -0.6710
  554MOL0     C76316   6.038   9.481   8.297 -1.1805  0.1573 -0.4526
  554MOL0     O76317   5.907   9.467   8.317 -0.2986 -0.3668  0.4309
  554MOL0     C76318   5.855   9.431   8.442  0.2519 -0.0709  0.4413
  554MOL0     C76319   5.903   9.462   8.569 -0.4975 -0.0883 -0.4168
  554MOL0     C76320   5.846   9.402   8.684  0.5866  0.3010  1.3418
  554MOL0     C76321   5.715   9.335   8.677 -0.8451 -0.3920 -0.2896
  554MOL0     O76322   5.636   9.294   8.776  0.1039 -0.7732 -0.1526
  554MOL0     C76323   5.680   9.323   8.906  0.5869  0.1297  0.0248
  554MOL0     C76324   5.554   9.288   8.999 -0.0793  0.1197 -0.1016
  554MOL0     C76325   5.440   9.389   8.983 -0.0643 -0.6024 -0.6630
  554MOL0     C76326   5.474   9.531   9.032  0.7814  0.2943  0.5189
  554MOL0     C76327   5.374   9.589   9.120 -0.2527 -1.3187 -0.3799
  554MOL0     C76328   5.251   9.635   9.043  0.0730 -0.1615 -0.5481
  554MOL0     C76329   5.279   9.777   8.995 -0.4067 -1.1380  0.3401
  554MOL0     C76330   5.170   9.843   8.904 -0.7595  0.5097 -0.0184
  554MOL0     N76331   5.041   9.841   8.976  0.4790 -1.2577 -0.8492
  554MOL0     C76332   4.927   9.775   8.942 -1.2186  0.8144  0.3745
  554MOL0     C76333   4.851   9.783   9.051  0.2689  0.3919  0.0272
  554MOL0     C76334   4.710   9.722   9.052 -0.2049  0.3171 -0.6730
  554MOL0     C76335   4.617   9.797   8.951  0.3108  0.2686  0.0309
  554MOL0     C76336   4.575   9.706   8.830  0.5057  1.0355  0.1781
  554MOL0     C76337   4.465   9.786   8.742  0.8545  0.5850 -0.4663
  554MOL0     O76338   4.374   9.865   8.820  0.4342 -0.3573  0.4454
  554MOL0     C76339   4.279   9.804   8.898  0.1594 -0.5133  1.0715
  554MOL0     C76340   4.254   9.667   8.909 -0.3990 -0.8186  0.8763
  554MOL0     C76341   4.132   9.619   8.958  0.2864 -0.8428 -0.6868
  554MOL0     C76342   4.104   9.464   8.940 -0.3331  0.5959 -0.0842
  554MOL0     C76343   4.048   9.712   9.020  0.0673  0.6904 -0.6423
  554MOL0     C76344   3.928   9.663   9.082  0.8751  0.1902 -0.6941
  554MOL0     O76345   3.914   9.693   9.210  0.7792  0.5213 -0.2576
  554MOL0     C76346   3.840   9.616   9.296 -0.3630  0.0787  1.0360
  554MOL0     C76347   3.725   9.668   9.347  0.2113 -0.9376 -0.6405
  554MOL0     C76348   3.628   9.596   9.416  0.7397  0.4703  1.1750
  554MOL0     C76349   3.633   9.453   9.414 -0.1927 -0.2823  0.4430
  554MOL0     O76350   3.537   9.368   9.484  0.2589 -0.4436  0.7882
  554MOL0     C76351   3.411   9.428   9.533  0.0119  0.4345  0.3320
  554MOL0     C76352   3.310   9.316   9.566 -0.8793 -0.5658  0.5525
  554MOL0     C76353   3.356   9.231   9.683 -0.7030 -0.1917  0.1598
  554MOL0     C76354   3.247   9.126   9.702  1.0969 -0.2141 -0.8561
  554MOL0     C76355   3.289   9.012   9.803 -0.7631 -0.2647  0.8842
  554MOL0     C76356   3.330   9.068   9.939  0.4101 -0.1897 -0.3711
  554MOL0     C76357   3.389   8.944  10.016 -0.2462  0.0350  0.3603
  554MOL0     C76358   3.450   8.981  10.145 -0.1003  0.5740 -1.0076
  554MOL0    Cl76359   3.327   9.040  10.252 -0.0816 -0.1408  0.6176
  554MOL0     C76360   3.752   9.395   9.360  1.3856 -0.1636  0.3795
  554MOL0     C76361   3.851   9.475   9.298 -0.7759 -0.3384  0.7357
  554MOL0     O76362   3.846   9.601   9.019 -0.2260 -0.0809 -1.4991
  554MOL0     C76363   4.065   9.855   9.005 -0.0316  1.1660 -0.6927
  554MOL0     C76364   4.189   9.899   8.954  0.2058  0.5801  0.6920
  554MOL0     N76365   4.906   9.872   9.143 -0.0705  0.5300 -0.5594
  554MOL0     N76366   5.017   9.913   9.094 -0.6942 -0.4728  0.0043
  554MOL0     C76367   5.669   9.318   8.553  0.0593  0.7289  0.5667
  554MOL0     C76368   5.736   9.367   8.439  0.3302 -0.5779 -1.0477
  554MOL0     C76369   6.086   9.530   8.165  0.2126  0.9525  0.2306
  554MOL0     C76370   5.986   9.523   8.060  0.1010 -0.8055 -0.2721
  554MOL0     C76371   6.020   9.580   7.936  0.3391  0.0455  0.1440
  554MOL0     C76372   6.144   9.631   7.909 -0.0796  0.0325  0.5381
  554MOL0     O76373   6.155   9.683   7.783  1.0370 -0.0057  0.1959
  554MOL0     C76374   6.284   9.743   7.752 -0.4505 -0.3343 -0.2650
  554MOL0     C76375   6.295   9.801   7.612 -0.5253 -0.2870 -0.2083
  554MOL0     C76376   6.443   9.815   7.571  0.6598 -0.2915  0.9739
  554MOL0     C76377   6.451   9.901   7.443  0.6849 -0.0493 -0.1034
  554MOL0     C76378   6.369   9.839   7.335 -1.2786 -0.0144 -0.2521
  554MOL0     C76379   6.323   9.782   7.245 -0.3015  1.3957 -0.0753
  554MOL0     C76380   6.242   9.625   8.008  0.2699 -0.6910 -0.3185
  554MOL0     C76381   6.209   9.574   8.136 -0.4522  0.7641 -0.3445
  554MOL0     C76382   6.331   9.563   8.229 -0.0983  0.6025 -0.1514
  554MOL0     H76383   5.994   9.519   8.586 -0.7478 -0.0424  0.9093
  554MOL0     H76384   5.889   9.420   8.782  1.5028  2.2586  0.6189
  554MOL0     H76385   5.692   9.429   8.933 -1.7662  0.1396  1.2044
  554MOL0     H76386   5.767   9.267   8.941  0.1051 -0.1771  0.7330
  554MOL0     H76387   5.515   9.189   8.975  2.4773 -0.6720 -1.3258
  554MOL0     H76388   5.588   9.279   9.102  0.5788  1.5981 -0.1690
  554MOL0     H76389   5.407   9.395   8.879  1.2205  1.4330 -1.0207
  554MOL0     H76390   5.348   9.345   9.021  0.4210 -1.6227 -0.6276
  554MOL0     H76391   5.572   9.522   9.080  1.5329  1.0162 -0.8338
  554MOL0     H76392   5.483   9.597   8.945 -1.9178  1.8171  1.3028
  554MOL0     H76393   5.416   9.675   9.173 -0.8194 -1.0729 -0.3212
  554MOL0     H76394   5.345   9.520   9.200  2.9781 -1.2125  1.0067
  554MOL0     H76395   5.228   9.564   8.963 -1.9391 -0.6481  0.3995
  554MOL0     H76396   5.170   9.648   9.116  2.9246 -0.3263  2.9055
  554MOL0     H76397   5.374   9.771   8.941 -0.8042  0.5071 -0.5982
  554MOL0     H76398   5.288   9.848   9.077 -2.9571 -0.1651 -0.1432
  554MOL0     H76399   5.220   9.940   8.896 -0.1611  0.1249 -1.1761
  554MOL0     H76400   5.140   9.792   8.812 -2.8734 -0.0115  0.8954
  554MOL0     H76401   4.902   9.722   8.851 -1.1207 -0.4677  1.0817
  554MOL0     H76402   4.655   9.735   9.146 -1.6900  0.1469 -1.4828
  554MOL0     H76403   4.719   9.616   9.029 -2.1385 -0.6969  2.5523
  554MOL0     H76404   4.529   9.840   9.000 -0.9658  0.6385 -2.4376
  554MOL0     H76405   4.666   9.881   8.902 -0.1452  0.4955 -0.0501
  554MOL0     H76406   4.666   9.694   8.770  0.5700  1.3411  0.2150
  554MOL0     H76407   4.532   9.611   8.862  1.4727  0.4543 -0.1903
  554MOL0     H76408   4.529   9.842   8.673  0.3336  0.9219 -0.6761
  554MOL0     H76409   4.408   9.713   8.683  0.9956 -2.2006  2.5286
  554MOL0     H76410   4.338   9.605   8.878  0.7704  0.4776  1.3548
  554MOL0     H76411   4.036   9.457   8.854 -2.4907 -1.5090  1.6147
  554MOL0     H76412   4.042   9.436   9.026 -0.0539  0.7754  0.1765
  554MOL0     H76413   4.193   9.401   8.930 -0.5607  0.5207 -2.1508
  554MOL0     H76414   3.718   9.775   9.337  4.0620 -0.4400  0.1423
  554MOL0     H76415   3.544   9.649   9.460 -1.6014 -3.9420  2.6062
  554MOL0     H76416   3.421   9.500   9.615 -2.8562  2.8970 -1.2549
  554MOL0     H76417   3.355   9.490   9.461 -2.0718  0.5085  1.9166
  554MOL0     H76418   3.209   9.355   9.579 -0.7940 -0.6398  1.4894
  554MOL0     H76419   3.296   9.251   9.479 -0.0813 -1.0824  0.7933
  554MOL0     H76420   3.373   9.284   9.777  4.5097 -0.0755 -0.5127
  554MOL0     H76421   3.449   9.178   9.656 -1.2037  0.0931 -2.3959
  554MOL0     H76422   3.210   9.074   9.613 -2.3112 -1.2994  1.0012
  554MOL0     H76423   3.154   9.172   9.739  0.4611  0.7611 -3.4207
  554MOL0     H76424   3.204   8.943   9.811 -1.3771  0.5506  1.5596
  554MOL0     H76425   3.372   8.957   9.759 -0.2392  1.9379 -1.0426
  554MOL0     H76426   3.243   9.106   9.993  2.5162 -0.3309  3.4843
  554MOL0     H76427   3.405   9.147   9.938  0.2471  0.0428  1.6251
  554MOL0     H76428   3.462   8.903   9.947 -1.9423 -0.0334 -1.4967
  554MOL0     H76429   3.312   8.866  10.016 -0.6632  0.3464 -2.4134
  554MOL0     H76430   3.526   9.058  10.135  1.7027 -1.0286 -0.4030
  554MOL0     H76431   3.498   8.892  10.187 -1.3512 -0.4673 -1.7041
  554MOL0     H76432   3.763   9.288   9.374  1.1215 -0.2528 -0.0597
  554MOL0     H76433   3.942   9.436   9.253  2.8736  3.7320  3.7258
  554MOL0     H76434   4.001   9.931   9.047 -1.1848  1.0323 -2.1045
  554MOL0     H76435   4.205  10.006   8.946  1.8275  0.2179 -2.4617
  554MOL0     H76436   5.574   9.277   8.523  1.4995 -2.1078 -0.4808
  554MOL0     H76437   5.681   9.364   8.346 -0.0608 -3.1038 -0.8059
  554MOL0     H76438   5.883   9.496   8.081 -0.6523 -0.5568 -3.1318
  554MOL0     H76439   5.948   9.595   7.857  0.2002 -3.1520 -0.4935
  554MOL0     H76440   6.296   9.821   7.828 -0.1141 -0.0265 -0.6274
  554MOL0     H76441   6.372   9.678   7.754  2.1079  2.7476 -2.2049
  554MOL0     H76442   6.237   9.892   7.595  4.8232  2.9302 -4.3799
  554MOL0     H76443   6.252   9.730   7.541 -2.8509  0.8872 -0.0651
  554MOL0     H76444   6.504   9.848   7.656 -0.1406  2.5577  0.5467
  554MOL0     H76445   6.479   9.716   7.541  1.4197  0.4082 -0.4881
  554MOL0     H76446   6.557   9.898   7.415  0.5621  0.8515 -0.6898
  554MOL0     H76447   6.440  10.009   7.451 -1.7118 -0.3270  1.4177
  554MOL0     H76448   6.294   9.712   7.169  3.4951 -2.7488  1.8320
  554MOL0     H76449   6.338   9.674   7.993  0.4189 -0.1322  2.0532
  554MOL0     H76450   6.312   9.609   8.326 -3.8444 -1.5640  0.3680
  554MOL0     H76451   6.338   9.455   8.248 -2.9787 -0.0395 -1.9761
  554MOL0     H76452   6.421   9.595   8.176 -1.1182 -0.8973 -3.0523
  555MOL0     O76453   9.788   4.931   3.474  0.2984  0.0703 -0.0137
  555MOL0     C76454   9.786   5.044   3.432  0.0923  0.3619 -0.6538
  555MOL0     O76455   9.844   5.082   3.315 -0.8856 -0.0953  0.4242
  555MOL0     C76456   9.887   4.986   3.230  0.3650  1.4436  0.3310
  555MOL0     C76457   9.793   4.899   3.169 -0.0038  0.3876 -0.0386
  555MOL0     C76458   9.839   4.804   3.069 -0.1664 -0.3766 -0.0229
  555MOL0     C76459   9.977   4.795   3.038 -0.0413  0.9594 -0.8608
  555MOL0     O76460  10.015   4.715   2.941 -0.8071  0.6896  0.6686
  555MOL0     C76461  10.115   4.615   2.978 -0.7229  1.3585  0.2806
  555MOL0     C76462  10.209   4.580   2.874 -0.3600  0.3557 -0.1430
  555MOL0     C76463  10.135   4.516   2.761 -0.1406 -0.7264 -0.0278
  555MOL0     C76464  10.238   4.467   2.651 -0.0976  0.2834 -0.8666
  555MOL0     C76465  10.173   4.443   2.514 -0.3778 -0.1181  0.4779
  555MOL0     C76466  10.141   4.577   2.443 -0.1704 -0.7454  0.5908
  555MOL0     C76467  10.065   4.556   2.313  0.3968  0.1493 -0.1462
  555MOL0     C76468  10.156   4.518   2.196  0.0733  0.2960  0.2867
  555MOL0     N76469  10.090   4.532   2.070  0.4726  0.0152  0.1212
  555MOL0     C76470   9.983   4.449   2.024 -0.7336 -0.5532 -1.2127
  555MOL0     C76471   9.939   4.505   1.917  0.5216  0.8175 -0.2774
  555MOL0     C76472   9.837   4.445   1.828  1.0249 -0.1971  0.2674
  555MOL0     C76473   9.695   4.498   1.863 -0.2642 -0.4987  0.3803
  555MOL0     C76474   9.641   4.499   2.005  0.1457 -0.9402 -0.0956
  555MOL0     C76475   9.613   4.366   2.063  0.6880  0.2746  0.3647
  555MOL0     O76476   9.600   4.385   2.201  0.3951 -0.0974 -0.3605
  555MOL0     C76477   9.479   4.419   2.246  0.5160  0.1804  0.0407
  555MOL0     C76478   9.390   4.315   2.261  0.5975 -0.3819 -0.9725
  555MOL0     C76479   9.263   4.340   2.323 -0.5717 -0.5979 -1.6489
  555MOL0     C76480   9.179   4.229   2.374  0.0785 -0.1534  0.3811
  555MOL0     C76481   9.221   4.477   2.342 -0.2454  0.2450  0.1480
  555MOL0     C76482   9.081   4.520   2.361 -1.0627  0.3201 -0.2569
  555MOL0     O76483   9.044   4.634   2.303 -0.5773 -0.2676  0.0133
  555MOL0     C76484   8.912   4.673   2.270 -0.3670  0.9937  0.1468
  555MOL0     C76485   8.892   4.808   2.250  0.2928 -0.2585  0.1752
  555MOL0     C76486   8.762   4.857   2.240  0.5148  0.1498  0.7025
  555MOL0     C76487   8.647   4.772   2.238 -0.1836 -0.0072 -0.2206
  555MOL0     O76488   8.511   4.808   2.227  0.1744 -0.2977  0.1132
  555MOL0     C76489   8.480   4.941   2.195  0.1490 -0.2488  0.0247
  555MOL0     C76490   8.332   4.982   2.229 -0.2427 -0.2600  0.9143
  555MOL0     C76491   8.321   4.978   2.375 -1.5920 -0.2169 -0.1097
  555MOL0     C76492   8.416   5.084   2.447  0.6183  0.6357  0.2110
  555MOL0     C76493   8.356   5.118   2.591 -0.4621  0.2906  0.2229
  555MOL0     C76494   8.378   4.999   2.684  0.6711  1.1371 -0.3570
  555MOL0     C76495   8.338   5.035   2.826  0.1359 -0.1726  0.2085
  555MOL0     C76496   8.407   5.145   2.897 -0.7139 -0.3460 -0.4151
  555MOL0    Cl76497   8.587   5.141   2.868  0.0385 -0.2002 -0.4160
  555MOL0     C76498   8.671   4.635   2.247  0.1234 -0.6420 -0.4100
  555MOL0     C76499   8.797   4.579   2.273 -0.2442 -0.7823  0.3551
  555MOL0     O76500   9.007   4.447   2.433  0.2238  0.0821  0.6017
  555MOL0     C76501   9.319   4.585   2.332 -0.0341 -0.2630  0.4005
  555MOL0     C76502   9.443   4.548   2.298 -0.6061 -1.1419  0.3029
  555MOL0     N76503  10.026   4.609   1.887  0.3884 -0.6496 -0.1675
  555MOL0     N76504  10.122   4.622   1.977 -0.8332  0.1490 -0.9894
  555MOL0     C76505  10.068   4.884   3.114 -0.0730  0.4625 -0.1298
  555MOL0     C76506  10.025   4.975   3.207  0.6391 -0.7659  0.1251
  555MOL0     C76507   9.701   5.143   3.508 -0.5804  0.1055 -0.2111
  555MOL0     C76508   9.681   5.269   3.452  0.5466  0.5296  0.9484
  555MOL0     C76509   9.585   5.359   3.501 -0.6563  0.1396  0.6700
  555MOL0     C76510   9.527   5.334   3.623  0.1407  0.9684  0.0932
  555MOL0     O76511   9.434   5.424   3.662  0.3557 -0.2109  0.2349
  555MOL0     C76512   9.387   5.444   3.797  0.2687 -0.5924  0.4197
  555MOL0     C76513   9.316   5.580   3.811 -0.1451  0.5521  0.6965
  555MOL0     C76514   9.314   5.615   3.962 -0.4871  0.6432 -0.0738
  555MOL0     C76515   9.270   5.758   3.981  0.3114  1.1908 -0.7529
  555MOL0     C76516   9.343   5.863   3.918 -0.4672 -0.2031 -0.6680
  555MOL0     C76517   9.388   5.963   3.862  0.2027 -0.0737  0.2778
  555MOL0     C76518   9.562   5.214   3.687  0.3359  0.7263  0.0652
  555MOL0     C76519   9.646   5.116   3.628  0.4757 -0.3121  0.2699
  555MOL0     C76520   9.662   4.996   3.715 -0.6357  0.5343  0.3296
  555MOL0     H76521   9.692   4.900   3.209  0.6324  0.8068  1.6361
  555MOL0     H76522   9.754   4.749   3.030 -2.1978  1.8112  1.0305
  555MOL0     H76523  10.056   4.526   3.000 -2.6547  2.3504 -0.6164
  555MOL0     H76524  10.163   4.639   3.073 -1.1805 -0.2510  0.9417
  555MOL0     H76525  10.259   4.666   2.828  0.5185 -0.0638  0.0167
  555MOL0     H76526  10.283   4.515   2.922 -1.1329  1.4071  2.6571
  555MOL0     H76527  10.073   4.432   2.796  1.7609 -2.8229 -1.3875
  555MOL0     H76528  10.076   4.598   2.719  1.1738  0.3066  0.0709
  555MOL0     H76529  10.314   4.542   2.628 -0.6104  0.4380 -2.2030
  555MOL0     H76530  10.292   4.382   2.692  0.2574  1.5764  1.5033
  555MOL0     H76531  10.076   4.393   2.522  0.9060 -2.7687  0.3305
  555MOL0     H76532  10.235   4.386   2.445 -1.2962 -0.5424 -0.0109
  555MOL0     H76533  10.065   4.636   2.495 -0.3913 -0.2398 -0.2873
  555MOL0     H76534  10.226   4.646   2.433 -2.0103  1.4643 -0.8060
  555MOL0     H76535   9.994   4.636   2.288 -1.3948 -0.4345  2.5663
  555MOL0     H76536  10.000   4.476   2.348 -0.3158  1.1957  1.0358
  555MOL0     H76537  10.246   4.580   2.204  1.5003 -1.5317 -0.6761
  555MOL0     H76538  10.192   4.415   2.206  2.4437  1.1139  0.8446
  555MOL0     H76539   9.937   4.364   2.072  1.3489 -0.5156  1.1110
  555MOL0     H76540   9.831   4.336   1.832 -0.8205 -0.2172 -1.3184
  555MOL0     H76541   9.863   4.488   1.731 -1.6582  2.2248  0.4831
  555MOL0     H76542   9.703   4.602   1.832 -2.7740 -0.9746 -2.2437
  555MOL0     H76543   9.624   4.446   1.799  0.2661 -0.1096 -0.5351
  555MOL0     H76544   9.712   4.564   2.058 -2.0102  2.4746 -1.0959
  555MOL0     H76545   9.544   4.548   2.009  1.3114  1.5307  0.2221
  555MOL0     H76546   9.522   4.324   2.019  2.3786 -3.8120  0.3214
  555MOL0     H76547   9.691   4.292   2.041  0.0654 -0.0182 -0.9421
  555MOL0     H76548   9.424   4.212   2.257 -0.5122 -0.7954 -0.3185
  555MOL0     H76549   9.254   4.157   2.409 -0.1969  0.3414  2.0823
  555MOL0     H76550   9.110   4.182   2.304  0.5444  0.2964 -0.3831
  555MOL0     H76551   9.122   4.251   2.465  0.4090  2.0851  0.0921
  555MOL0     H76552   8.973   4.880   2.253 -0.9691  1.3307 -1.6702
  555MOL0     H76553   8.749   4.964   2.236  1.4474  0.2526 -0.1675
  555MOL0     H76554   8.556   5.004   2.243  0.0200 -0.0665 -0.0064
  555MOL0     H76555   8.488   4.960   2.088  1.2360 -0.9763 -0.0346
  555MOL0     H76556   8.309   5.082   2.191 -0.3014 -0.6167 -0.0112
  555MOL0     H76557   8.273   4.916   2.165  3.4541 -0.7645 -2.3589
  555MOL0     H76558   8.337   4.873   2.402  0.3313  0.4794  1.7027
  555MOL0     H76559   8.216   4.995   2.400 -1.1715 -0.6154  2.1424
  555MOL0     H76560   8.428   5.178   2.392  4.0924  0.1421 -0.0913
  555MOL0     H76561   8.520   5.052   2.449 -0.0354 -1.8047 -0.6432
  555MOL0     H76562   8.419   5.201   2.623 -0.4704  0.6166 -0.5820
  555MOL0     H76563   8.250   5.141   2.582 -1.3778 -1.4101  4.4470
  555MOL0     H76564   8.483   4.966   2.684 -0.5858 -3.7133  0.1624
  555MOL0     H76565   8.324   4.908   2.657 -2.6064  3.0722 -0.8356
  555MOL0     H76566   8.363   4.949   2.889 -1.0198 -2.7801 -2.6561
  555MOL0     H76567   8.230   5.054   2.824 -0.0466 -1.1015  0.6063
  555MOL0     H76568   8.369   5.141   2.999 -3.7744  0.9238 -1.3869
  555MOL0     H76569   8.379   5.244   2.860  0.9294 -0.7602 -3.0810
  555MOL0     H76570   8.575   4.584   2.244  0.3777 -1.0868 -1.4849
  555MOL0     H76571   8.800   4.475   2.301  0.3462 -0.6892  0.6628
  555MOL0     H76572   9.291   4.679   2.378 -0.8008 -0.9530  1.3759
  555MOL0     H76573   9.513   4.629   2.283  0.6589 -2.4814 -1.4721
  555MOL0     H76574  10.171   4.899   3.082 -0.1543  1.8566  0.1956
  555MOL0     H76575  10.096   5.045   3.250 -0.6886  2.1116 -1.9531
  555MOL0     H76576   9.721   5.283   3.353  1.3477 -0.5630  1.1029
  555MOL0     H76577   9.558   5.439   3.432 -1.1526 -2.3222 -2.2075
  555MOL0     H76578   9.313   5.371   3.829  1.2697 -1.3638  1.0414
  555MOL0     H76579   9.475   5.447   3.863  2.8952 -1.9545 -2.7281
  555MOL0     H76580   9.216   5.568   3.766  0.4595 -0.7965 -0.3498
  555MOL0     H76581   9.369   5.653   3.749 -0.1115  1.5126  1.8204
  555MOL0     H76582   9.255   5.541   4.017  1.9400 -2.0777 -0.9115
  555MOL0     H76583   9.413   5.605   4.007 -1.3451  2.6333  2.5587
  555MOL0     H76584   9.270   5.786   4.087  0.6241 -0.3074 -0.3338
  555MOL0     H76585   9.166   5.757   3.949 -0.0259  1.6320  0.2720
  555MOL0     H76586   9.426   6.045   3.804 -0.5600 -2.2539 -3.6914
  555MOL0     H76587   9.518   5.194   3.785 -1.8170 -1.8714 -1.2944
  555MOL0     H76588   9.769   4.975   3.723 -0.2140  1.5903 -1.7734
  555MOL0     H76589   9.637   5.005   3.821 -1.8275 -0.2006  0.1241
  555MOL0     H76590   9.597   4.914   3.684 -0.3021 -0.2870  1.7376
  556MOL0     O76591   4.894   9.127   6.428 -0.0916  0.7970  0.1095
  556MOL0     C76592   4.962   9.098   6.332 -0.2446 -0.2733  0.2057
  556MOL0     O76593   5.047   8.998   6.315  0.0323  0.2260 -0.3329
  556MOL0     C76594   5.061   8.902   6.407 -0.5966  0.0788 -0.0673
  556MOL0     C76595   5.159   8.899   6.498 -0.0104  0.7338 -0.5333
  556MOL0     C76596   5.179   8.792   6.586 -0.4220  0.3094 -0.9044
  556MOL0     C76597   5.076   8.692   6.581  0.2202  0.1308  0.3884
  556MOL0     O76598   5.062   8.580   6.664  0.0677  0.0798 -0.1537
  556MOL0     C76599   5.180   8.540   6.725 -0.3190  0.2247  0.8072
  556MOL0     C76600   5.169   8.419   6.811  1.5610  1.0277 -0.6289
  556MOL0     C76601   5.130   8.460   6.956  0.0347  0.2525  0.2097
  556MOL0     C76602   5.111   8.341   7.056  0.0442  0.0291  0.5865
  556MOL0     C76603   5.230   8.239   7.047  0.2881 -0.3861  0.6953
  556MOL0     C76604   5.259   8.161   7.176 -0.4644  0.7277 -0.5433
  556MOL0     C76605   5.183   8.022   7.183  0.4671  0.2950  0.7287
  556MOL0     C76606   5.045   8.028   7.245  0.0944  0.3167 -0.7755
  556MOL0     N76607   4.963   7.915   7.195 -0.2611 -0.0036 -0.4695
  556MOL0     C76608   4.849   7.930   7.118 -0.0230 -0.3875  0.2172
  556MOL0     C76609   4.778   7.816   7.144 -0.0629 -0.2404 -0.2832
  556MOL0     C76610   4.644   7.795   7.086  1.0726  0.7102  0.2232
  556MOL0     C76611   4.564   7.669   7.129  0.3058 -0.5249  0.2741
  556MOL0     C76612   4.502   7.680   7.276  0.0574 -0.7320 -0.0965
  556MOL0     C76613   4.472   7.539   7.318  0.9986  0.4588 -0.2854
  556MOL0     O76614   4.454   7.547   7.457 -0.0001 -0.3557 -0.4462
  556MOL0     C76615   4.360   7.468   7.510 -0.0917 -0.2557 -0.7429
  556MOL0     C76616   4.243   7.427   7.446  0.6986 -0.0235 -0.3470
  556MOL0     C76617   4.144   7.339   7.503  0.5145 -0.1788 -0.1591
  556MOL0     C76618   4.014   7.307   7.419 -0.5692  0.5915 -0.3362
  556MOL0     C76619   4.159   7.309   7.645  0.2977 -0.1155 -0.3035
  556MOL0     C76620   4.057   7.250   7.738  0.3216  0.1331 -0.7501
  556MOL0     O76621   4.077   7.248   7.875 -0.1714 -0.4680 -0.6495
  556MOL0     C76622   3.963   7.211   7.940  0.0985  0.1198 -1.0845
  556MOL0     C76623   3.876   7.300   8.013 -0.8495  1.2292 -0.3818
  556MOL0     C76624   3.766   7.249   8.083  0.4788  0.5668  0.2491
  556MOL0     C76625   3.730   7.120   8.075 -0.0554  0.5720 -0.0517
  556MOL0     O76626   3.604   7.073   8.125  0.6798 -0.1770 -0.3771
  556MOL0     C76627   3.605   6.940   8.181  0.4037  0.1715 -0.3512
  556MOL0     C76628   3.490   6.946   8.286  0.5511  0.6231  0.0312
  556MOL0     C76629   3.508   7.048   8.393  0.5692  0.2165 -0.4009
  556MOL0     C76630   3.630   7.004   8.484  0.3090  1.1739  0.0525
  556MOL0     C76631   3.589   6.900   8.579  0.6399 -0.3996  0.0616
  556MOL0     C76632   3.686   6.814   8.647 -0.9100  0.4607 -0.0013
  556MOL0     C76633   3.784   6.903   8.726  0.2376  0.0137 -0.4205
  556MOL0     C76634   3.904   6.841   8.794 -0.3675 -0.0185  0.5610
  556MOL0    Cl76635   3.852   6.705   8.893  0.0005 -0.0809 -0.4491
  556MOL0     C76636   3.805   7.032   7.999  0.1236  0.5837 -0.4443
  556MOL0     C76637   3.925   7.074   7.937 -0.9579 -0.0488  0.7360
  556MOL0     O76638   3.952   7.208   7.682 -0.4890 -0.0731 -0.6489
  556MOL0     C76639   4.269   7.369   7.716 -0.5396  0.5471 -0.1029
  556MOL0     C76640   4.368   7.444   7.645 -0.5504 -0.4700  0.0222
  556MOL0     N76641   4.835   7.747   7.240 -0.1381  0.8999  0.3016
  556MOL0     N76642   4.948   7.801   7.264 -0.6788 -0.5136  0.1044
  556MOL0     C76643   4.967   8.700   6.488 -0.1949  0.2639  0.0201
  556MOL0     C76644   4.959   8.807   6.401  0.6768  0.8065 -0.9693
  556MOL0     C76645   4.935   9.170   6.199 -0.8312  0.5830  0.4642
  556MOL0     C76646   4.988   9.113   6.082  0.5294  0.3965  0.0242
  556MOL0     C76647   4.977   9.183   5.959 -0.4654  0.7689  0.1805
  556MOL0     C76648   4.904   9.296   5.951  0.0076  0.1447  0.5701
  556MOL0     O76649   4.880   9.350   5.823 -0.0292 -0.1191  0.2275
  556MOL0     C76650   4.904   9.278   5.697 -0.5568 -0.3501 -0.5295
  556MOL0     C76651   4.848   9.371   5.587  0.6685  0.2113 -0.5056
  556MOL0     C76652   4.925   9.498   5.562  0.4591  0.6490 -0.2469
  556MOL0     C76653   4.915   9.545   5.409 -0.0398 -0.6465  0.2251
  556MOL0     C76654   5.007   9.656   5.386  0.0294  0.1957  0.0792
  556MOL0     C76655   5.082   9.751   5.362 -0.0702 -0.3616 -0.1000
  556MOL0     C76656   4.860   9.354   6.069 -0.5592  0.0910 -0.1233
  556MOL0     C76657   4.869   9.288   6.195  0.9828 -0.2667 -0.1062
  556MOL0     C76658   4.806   9.367   6.318 -0.0893  0.4752  0.4073
  556MOL0     H76659   5.233   8.978   6.504 -0.4121  1.1109 -0.4502
  556MOL0     H76660   5.269   8.790   6.646  0.1076  3.1019 -1.5016
  556MOL0     H76661   5.218   8.623   6.784  0.1374  1.6332 -1.3660
  556MOL0     H76662   5.255   8.525   6.646 -0.7589  0.1392  0.4009
  556MOL0     H76663   5.091   8.353   6.772  0.7623  1.8026 -0.3600
  556MOL0     H76664   5.263   8.363   6.808  0.2062 -1.4331  0.0014
  556MOL0     H76665   5.209   8.524   6.997 -0.2047  0.0208  1.0584
  556MOL0     H76666   5.036   8.515   6.966 -0.0733 -0.2774  2.7309
  556MOL0     H76667   5.101   8.382   7.157 -0.6051  1.6431 -0.1018
  556MOL0     H76668   5.020   8.291   7.023  0.8562 -0.8013 -0.4879
  556MOL0     H76669   5.325   8.285   7.021 -0.8785  1.3177 -0.7657
  556MOL0     H76670   5.206   8.167   6.968 -0.1225 -2.9583  2.9931
  556MOL0     H76671   5.367   8.151   7.166 -0.3300  1.1429  0.4607
  556MOL0     H76672   5.251   8.215   7.270  1.6433 -1.8337  1.2333
  556MOL0     H76673   5.237   7.946   7.240  1.2978 -0.6020 -1.1789
  556MOL0     H76674   5.182   7.978   7.083  0.5373  0.1890  0.7740
  556MOL0     H76675   5.055   8.023   7.354  1.7749 -4.0617 -0.9299
  556MOL0     H76676   5.003   8.128   7.225  0.2622  1.2733  2.9120
  556MOL0     H76677   4.804   8.020   7.077 -1.4272 -0.9250  0.5176
  556MOL0     H76678   4.649   7.800   6.976  1.5815  2.2121  0.2957
  556MOL0     H76679   4.577   7.877   7.114  1.4158  0.9902  0.2364
  556MOL0     H76680   4.485   7.657   7.054  0.8291 -4.0575  0.1549
  556MOL0     H76681   4.634   7.585   7.124 -0.9134 -1.5257 -0.7160
  556MOL0     H76682   4.575   7.732   7.339 -1.0430 -0.1067  0.7011
  556MOL0     H76683   4.407   7.734   7.273  1.2971  1.5812  0.0337
  556MOL0     H76684   4.397   7.487   7.258  3.5665 -1.8488 -1.6794
  556MOL0     H76685   4.554   7.469   7.304 -1.3379 -2.3509 -0.8397
  556MOL0     H76686   4.230   7.467   7.346  1.1550  2.0255  0.3544
  556MOL0     H76687   3.932   7.357   7.471 -1.1365  0.2722 -0.9053
  556MOL0     H76688   4.001   7.198   7.418 -0.6913  0.5811  0.8025
  556MOL0     H76689   4.014   7.356   7.321 -1.2936  0.3465 -0.4677
  556MOL0     H76690   3.894   7.407   8.024 -1.5194  1.1517  1.9433
  556MOL0     H76691   3.702   7.308   8.148 -2.8504 -2.9911  0.5418
  556MOL0     H76692   3.580   6.870   8.101  1.2564  0.4265 -0.8581
  556MOL0     H76693   3.704   6.920   8.225  0.3304 -0.1719 -0.3374
  556MOL0     H76694   3.401   6.968   8.228  0.5863  1.0540  0.1374
  556MOL0     H76695   3.462   6.846   8.318  0.9079 -0.4578 -2.7493
  556MOL0     H76696   3.420   7.044   8.458 -1.1560  0.3566 -2.5971
  556MOL0     H76697   3.518   7.153   8.364  0.4308  0.4104  0.2432
  556MOL0     H76698   3.670   7.091   8.537  0.2000  1.1200  0.2227
  556MOL0     H76699   3.709   6.971   8.416 -1.3990  0.3600 -1.6211
  556MOL0     H76700   3.508   6.928   8.647  0.0110 -0.6753 -0.5610
  556MOL0     H76701   3.545   6.818   8.521  0.8408 -0.7383  0.3847
  556MOL0     H76702   3.741   6.758   8.571  1.9744  0.7811  1.7050
  556MOL0     H76703   3.628   6.745   8.710 -1.7464  0.2504 -0.9736
  556MOL0     H76704   3.720   6.953   8.800 -0.4347  0.7947 -1.4996
  556MOL0     H76705   3.823   6.975   8.654  0.5854 -1.1095 -1.3909
  556MOL0     H76706   3.947   6.924   8.850  0.8248  0.2727 -0.7209
  556MOL0     H76707   3.988   6.811   8.731 -0.1337  4.0796 -1.4524
  556MOL0     H76708   3.776   6.929   7.981 -1.9449  1.0128  0.1424
  556MOL0     H76709   3.979   7.006   7.871 -0.9425 -3.1883  3.6733
  556MOL0     H76710   4.290   7.360   7.822 -2.3950  1.1567  0.3623
  556MOL0     H76711   4.446   7.493   7.704 -1.0992 -0.8112  1.0471
  556MOL0     H76712   4.886   8.629   6.483  0.4101 -0.3664 -2.8796
  556MOL0     H76713   4.886   8.821   6.321 -2.6700  0.6175  1.8089
  556MOL0     H76714   5.054   9.026   6.086  1.8327  1.3711  0.5805
  556MOL0     H76715   5.021   9.135   5.872 -0.7358 -0.1785  0.5530
  556MOL0     H76716   5.011   9.258   5.689 -0.3293 -0.2137  1.5982
  556MOL0     H76717   4.843   9.187   5.701 -1.6912  0.4051  0.2547
  556MOL0     H76718   4.747   9.401   5.615  1.4759  1.0410  1.6373
  556MOL0     H76719   4.834   9.319   5.491 -0.6634  1.5160 -1.0500
  556MOL0     H76720   4.922   9.579   5.635  2.3942  3.3132 -2.9054
  556MOL0     H76721   5.027   9.459   5.574 -0.1485 -1.4112 -1.3641
  556MOL0     H76722   4.818   9.588   5.380  0.2592 -0.6442 -0.8091
  556MOL0     H76723   4.935   9.461   5.343  0.5365 -1.5607  1.5332
  556MOL0     H76724   5.155   9.824   5.335 -0.3179 -0.5866 -1.4785
  556MOL0     H76725   4.804   9.447   6.061 -0.0809  0.3776 -0.1549
  556MOL0     H76726   4.757   9.462   6.296  1.7376  1.3219 -0.1364
  556MOL0     H76727   4.720   9.307   6.350 -1.8888  2.2244 -0.8875
  556MOL0     H76728   4.881   9.387   6.395  0.3305 -0.9669  0.3989
  557MOL0     O76729   6.048   7.338   8.205 -0.3473 -0.5376  0.1773
  557MOL0     C76730   5.945   7.356   8.133 -0.7971 -0.7753  0.6701
  557MOL0     O76731   5.845   7.270   8.113 -0.1178 -0.1578 -0.4941
  557MOL0     C76732   5.848   7.143   8.137 -0.1005 -0.1520 -0.5246
  557MOL0     C76733   5.915   7.076   8.246  0.2051 -0.4808  0.3586
  557MOL0     C76734   5.883   6.949   8.277 -0.0140  0.3661 -0.4431
  557MOL0     C76735   5.795   6.875   8.187  0.6353 -0.3603 -1.0437
  557MOL0     O76736   5.779   6.738   8.209 -0.4261 -0.4576 -0.1478
  557MOL0     C76737   5.651   6.678   8.190 -0.8483  0.1899  1.1668
  557MOL0     C76738   5.568   6.728   8.300  0.2188 -0.7476 -1.2635
  557MOL0     C76739   5.606   6.666   8.435  0.0981  0.4463 -0.0173
  557MOL0     C76740   5.693   6.757   8.530 -0.1746  0.1211 -0.0403
  557MOL0     C76741   5.611   6.876   8.572 -0.4149 -0.0052  0.1008
  557MOL0     C76742   5.705   6.948   8.677 -0.1006  0.0958 -0.0189
  557MOL0     C76743   5.811   7.042   8.619  0.4895 -0.2203  0.7780
  557MOL0     C76744   5.895   7.095   8.734  1.1516  0.6177 -0.4451
  557MOL0     N76745   6.020   7.153   8.688  0.0060 -0.4670 -1.0103
  557MOL0     C76746   6.033   7.234   8.582 -0.1696  0.3047  0.5962
  557MOL0     C76747   6.167   7.243   8.561 -0.6228 -0.5530 -0.7170
  557MOL0     C76748   6.242   7.334   8.478 -0.1162 -0.1999 -0.4950
  557MOL0     C76749   6.228   7.474   8.536  0.2141 -1.0511  0.3377
  557MOL0     C76750   6.273   7.583   8.428  0.3039  0.3132  0.5858
  557MOL0     C76751   6.308   7.713   8.504  0.2322  0.0319 -0.2046
  557MOL0     O76752   6.421   7.698   8.588  0.3874 -0.5362  0.4769
  557MOL0     C76753   6.550   7.682   8.541 -0.9576  0.3024  0.6009
  557MOL0     C76754   6.589   7.702   8.403 -0.1322  0.2463 -0.2873
  557MOL0     C76755   6.725   7.694   8.365  0.5507 -0.0822 -0.0439
  557MOL0     C76756   6.752   7.714   8.220  0.1133  0.9812  0.4612
  557MOL0     C76757   6.826   7.675   8.460  0.8627  0.5176 -0.0657
  557MOL0     C76758   6.971   7.673   8.456  0.0097 -0.1133  0.3280
  557MOL0     O76759   7.045   7.704   8.570  0.6444  0.3099  0.0337
  557MOL0     C76760   7.168   7.646   8.593 -0.4568 -0.0925 -0.2735
  557MOL0     C76761   7.276   7.630   8.502 -0.1069  0.1917 -0.8373
  557MOL0     C76762   7.398   7.581   8.539 -0.0088  0.4997  0.4651
  557MOL0     C76763   7.417   7.521   8.661 -0.7633 -0.4402  0.5116
  557MOL0     O76764   7.537   7.452   8.671  0.0759  0.0956 -0.3392
  557MOL0     C76765   7.578   7.407   8.805 -0.3920  0.0413  0.4446
  557MOL0     C76766   7.518   7.268   8.836  0.0204  0.5833 -0.3404
  557MOL0     C76767   7.558   7.226   8.983  0.7075 -0.5005  0.2278
  557MOL0     C76768   7.505   7.092   9.029 -0.9365 -0.5592  0.2635
  557MOL0     C76769   7.353   7.086   9.041  1.2656 -0.0131  0.3239
  557MOL0     C76770   7.289   7.181   9.147 -0.2088 -0.2490  0.2453
  557MOL0     C76771   7.132   7.179   9.167 -0.3866  0.4658  0.2741
  557MOL0     C76772   7.067   7.231   9.039  0.6593 -0.4422 -0.4928
  557MOL0    Cl76773   7.120   7.398   8.992 -0.3276  0.0944 -0.2070
  557MOL0     C76774   7.317   7.533   8.761 -0.2642  0.3246  0.3927
  557MOL0     C76775   7.192   7.594   8.722  0.5750 -0.7060 -0.1918
  557MOL0     O76776   7.021   7.656   8.346 -0.4251 -0.2775  0.0792
  557MOL0     C76777   6.784   7.655   8.594 -0.2216  0.5533 -0.4380
  557MOL0     C76778   6.650   7.650   8.634 -0.6538 -0.1363  0.3789
  557MOL0     N76779   6.230   7.152   8.646  0.4936  0.7659  0.4329
  557MOL0     N76780   6.136   7.099   8.725 -0.6777 -0.3823 -0.0456
  557MOL0     C76781   5.748   6.934   8.069 -0.2226  0.9215 -0.6195
  557MOL0     C76782   5.768   7.067   8.059  0.8614 -0.1336  0.0993
  557MOL0     C76783   5.949   7.487   8.050 -0.3275  0.1515 -1.2687
  557MOL0     C76784   6.006   7.598   8.111 -0.3280 -0.0967  0.3601
  557MOL0     C76785   6.004   7.723   8.051 -0.0169 -0.8859  0.1749
  557MOL0     C76786   5.954   7.734   7.923 -0.0656 -0.3856 -0.1038
  557MOL0     O76787   5.960   7.857   7.863 -1.0967  0.4820  0.2858
  557MOL0     C76788   6.074   7.868   7.776 -0.3701 -0.5906 -0.0199
  557MOL0     C76789   6.157   7.994   7.806  0.3779  0.5475  0.6111
  557MOL0     C76790   6.073   8.120   7.786  0.6460 -1.0368 -0.1571
  557MOL0     C76791   6.035   8.165   7.930  0.7440 -0.9807  0.1904
  557MOL0     C76792   5.965   8.291   7.938  1.1431 -0.5211  0.3899
  557MOL0     C76793   5.918   8.406   7.952  0.2889  0.8812  0.3778
  557MOL0     C76794   5.896   7.626   7.858 -1.1340  0.3396 -0.0499
  557MOL0     C76795   5.898   7.496   7.917  0.1170 -0.6008 -0.5153
  557MOL0     C76796   5.842   7.391   7.833  0.7419 -0.2562  0.0029
  557MOL0     H76797   5.999   7.119   8.299 -0.8260 -1.2668  2.7604
  557MOL0     H76798   5.933   6.897   8.358 -1.1011  0.0425  0.0462
  557MOL0     H76799   5.651   6.569   8.194 -1.4966  0.2037  1.8275
  557MOL0     H76800   5.604   6.696   8.093 -0.1947 -2.2986  0.3085
  557MOL0     H76801   5.582   6.835   8.313  0.4768 -1.0907  2.6268
  557MOL0     H76802   5.459   6.723   8.288 -0.4475 -0.7599  2.9593
  557MOL0     H76803   5.522   6.629   8.494  0.4094  0.3011  0.3401
  557MOL0     H76804   5.656   6.573   8.404  2.3173  2.0965 -1.7585
  557MOL0     H76805   5.720   6.703   8.621 -3.2557  0.5833  1.2958
  557MOL0     H76806   5.787   6.790   8.486 -0.4491  2.6748  1.0936
  557MOL0     H76807   5.518   6.842   8.617  0.6138 -1.6907  1.0677
  557MOL0     H76808   5.587   6.947   8.492 -3.4809 -0.4236  0.5505
  557MOL0     H76809   5.632   7.002   8.738 -2.2922  1.2638 -3.4390
  557MOL0     H76810   5.758   6.872   8.736  0.4007  1.8368  1.8822
  557MOL0     H76811   5.767   7.125   8.564  4.3352  1.0044 -0.8079
  557MOL0     H76812   5.888   6.991   8.560  0.7654 -2.9611  3.2881
  557MOL0     H76813   5.832   7.167   8.789 -1.3147 -1.7004 -0.0440
  557MOL0     H76814   5.919   7.018   8.807 -0.2007  0.3371 -0.2635
  557MOL0     H76815   5.974   7.306   8.525  0.9818 -0.3508 -1.5608
  557MOL0     H76816   6.198   7.329   8.378 -0.1967 -0.0314 -0.4692
  557MOL0     H76817   6.347   7.303   8.472  0.2275  1.1128 -1.6005
  557MOL0     H76818   6.128   7.515   8.548  1.1907  1.4961  0.3785
  557MOL0     H76819   6.292   7.499   8.621  4.0728  0.2388 -2.6411
  557MOL0     H76820   6.360   7.545   8.374 -2.7535 -2.0022 -3.2515
  557MOL0     H76821   6.198   7.592   8.349  1.4530  2.6156 -0.3309
  557MOL0     H76822   6.315   7.795   8.431  0.9680  2.6745  2.5912
  557MOL0     H76823   6.234   7.748   8.577  0.8343  0.3715  0.2563
  557MOL0     H76824   6.521   7.695   8.319  1.7006 -0.9643 -1.7619
  557MOL0     H76825   6.817   7.799   8.202  0.6362  1.4469  3.8808
  557MOL0     H76826   6.657   7.708   8.166  0.3168  1.3500  0.0564
  557MOL0     H76827   6.809   7.627   8.186  1.6875  2.2523 -0.2556
  557MOL0     H76828   7.257   7.654   8.398  2.8193 -1.2163 -1.8150
  557MOL0     H76829   7.474   7.550   8.468 -0.6887  0.0205 -0.0705
  557MOL0     H76830   7.686   7.391   8.802 -0.4112  0.0230 -0.2286
  557MOL0     H76831   7.554   7.466   8.895  0.6479 -3.0130  2.8916
  557MOL0     H76832   7.408   7.266   8.832 -0.2878  2.7306  3.1239
  557MOL0     H76833   7.561   7.195   8.767  0.2231 -1.1871  1.5663
  557MOL0     H76834   7.527   7.310   9.046  2.0218  1.8312 -2.0450
  557MOL0     H76835   7.665   7.203   8.976  0.4456 -1.3099 -2.2038
  557MOL0     H76836   7.546   7.069   9.127  2.6652  2.2010 -0.3725
  557MOL0     H76837   7.546   7.012   8.968 -0.2784  0.0976 -0.1713
  557MOL0     H76838   7.300   7.119   8.951 -1.6358 -0.8575  1.5804
  557MOL0     H76839   7.321   6.982   9.052 -1.6052  0.6393 -0.7893
  557MOL0     H76840   7.322   7.281   9.118  4.4312 -1.6135  0.0682
  557MOL0     H76841   7.338   7.153   9.240  1.1439 -2.4426 -1.0400
  557MOL0     H76842   7.097   7.243   9.249  0.6913 -1.5236  2.4363
  557MOL0     H76843   7.106   7.072   9.174 -1.2140  0.5983 -0.6272
  557MOL0     H76844   6.962   7.227   9.069  0.6767 -0.1643 -0.3885
  557MOL0     H76845   7.084   7.166   8.953  0.0661 -0.0131 -0.9432
  557MOL0     H76846   7.330   7.495   8.862 -2.6977 -1.5991  0.0855
  557MOL0     H76847   7.109   7.602   8.792 -0.2651 -4.3348 -0.5794
  557MOL0     H76848   6.858   7.649   8.672  1.3741 -1.5296 -2.0161
  557MOL0     H76849   6.619   7.621   8.734 -0.6314 -3.4681 -0.4457
  557MOL0     H76850   5.681   6.885   7.999 -1.4290  1.2507  0.2656
  557MOL0     H76851   5.727   7.118   7.972  0.9064  0.2715  0.3149
  557MOL0     H76852   6.040   7.579   8.212  1.3102 -1.5892 -0.4171
  557MOL0     H76853   6.042   7.813   8.098 -0.2022 -1.3467  1.2385
  557MOL0     H76854   6.138   7.779   7.779  1.3461  0.3321 -3.5407
  557MOL0     H76855   6.046   7.855   7.672 -1.2808  1.6588 -0.1150
  557MOL0     H76856   6.248   8.004   7.746  1.1804  3.8262  2.1416
  557MOL0     H76857   6.189   7.989   7.911 -0.4479  3.5983  1.1320
  557MOL0     H76858   6.126   8.209   7.750 -3.4988  2.6702  1.8402
  557MOL0     H76859   5.989   8.101   7.719 -0.3607  3.7700 -0.6752
  557MOL0     H76860   6.118   8.169   8.002  0.5043 -1.3475  0.4883
  557MOL0     H76861   5.955   8.097   7.960  0.3299 -1.1427 -1.2182
  557MOL0     H76862   5.887   8.505   7.976 -2.6551 -0.3020  2.0454
  557MOL0     H76863   5.879   7.637   7.751  2.9589  1.4261 -0.7407
  557MOL0     H76864   5.733   7.394   7.844  0.9123 -0.3454  2.2323
  557MOL0     H76865   5.863   7.399   7.726 -0.3681 -2.6289 -0.4612
  557MOL0     H76866   5.873   7.292   7.868  2.2554 -1.2901 -3.8235
  558MOL0     O76867   0.847   6.125   4.506  0.5801  0.5895 -0.2375
  558MOL0     C76868   0.734   6.167   4.521 -0.4327  0.8448  0.5223
  558MOL0     O76869   0.701   6.301   4.522  0.3598  0.6993 -0.0038
  558MOL0     C76870   0.804   6.393   4.531  0.1581  0.0810  0.8860
  558MOL0     C76871   0.857   6.449   4.413  1.0459  0.1748 -0.1197
  558MOL0     C76872   0.961   6.540   4.419 -0.5720 -0.2590  0.1240
  558MOL0     C76873   1.007   6.594   4.538 -0.3445  0.5399 -0.6137
  558MOL0     O76874   1.095   6.695   4.543 -0.1723  0.4058  0.3476
  558MOL0     C76875   1.166   6.717   4.673 -0.2896  0.0893 -0.4020
  558MOL0     C76876   1.274   6.817   4.669  0.1904 -0.0168  0.5867
  558MOL0     C76877   1.226   6.950   4.618  0.4454  1.3382  0.7824
  558MOL0     C76878   1.324   7.071   4.645 -0.8273  0.4242  0.5411
  558MOL0     C76879   1.255   7.206   4.654 -0.3179 -0.2015 -0.4369
  558MOL0     C76880   1.206   7.264   4.509  0.1858  0.8565 -0.9835
  558MOL0     C76881   1.153   7.403   4.549  0.0792  0.2380  0.0510
  558MOL0     C76882   1.014   7.389   4.601  0.4623 -0.2831  0.4913
  558MOL0     N76883   0.955   7.507   4.655 -1.0605 -0.7677 -0.3417
  558MOL0     C76884   0.979   7.639   4.619 -0.7881 -0.0252 -1.1079
  558MOL0     C76885   0.916   7.711   4.720 -0.0102  0.8077  0.1612
  558MOL0     C76886   0.922   7.865   4.738 -0.1211 -1.1620 -0.0200
  558MOL0     C76887   0.810   7.933   4.815  0.0230 -0.2483  0.3619
  558MOL0     C76888   0.675   7.917   4.745  0.9754 -1.1797  1.1468
  558MOL0     C76889   0.612   8.061   4.724  0.6744  0.4111 -0.8894
  558MOL0     O76890   0.648   8.123   4.603  0.2022 -0.2928 -0.5467
  558MOL0     C76891   0.583   8.242   4.572  0.5723 -0.2050 -0.6760
  558MOL0     C76892   0.535   8.253   4.441  0.3192 -1.2605  1.4928
  558MOL0     C76893   0.470   8.370   4.398  0.2036 -0.0104  0.3299
  558MOL0     C76894   0.416   8.361   4.260 -0.0092 -0.2839  0.1596
  558MOL0     C76895   0.470   8.489   4.472  0.0312  0.1406  0.6869
  558MOL0     C76896   0.408   8.622   4.428  0.4894 -0.3863  0.2134
  558MOL0     O76897   0.369   8.642   4.301 -0.5594 -0.3458 -0.1703
  558MOL0     C76898   0.350   8.765   4.244 -0.1034 -0.7184  0.0257
  558MOL0     C76899   0.271   8.768   4.131 -0.7459 -0.2498 -0.6232
  558MOL0     C76900   0.254   8.889   4.059 -0.3438  0.2030  0.5798
  558MOL0     C76901   0.314   9.006   4.101 -1.1889  0.1492 -0.2021
  558MOL0     O76902   0.299   9.118   4.028 -0.1803  0.6204 -1.0829
  558MOL0     C76903   0.267   9.113   3.887  0.0041 -0.4468 -0.4952
  558MOL0     C76904   0.364   9.216   3.814  0.7744 -0.0699  0.1572
  558MOL0     C76905   0.506   9.198   3.866 -0.6648  0.3608 -1.6859
  558MOL0     C76906   0.596   9.295   3.798 -0.7845  0.5358 -0.0186
  558MOL0     C76907   0.645   9.263   3.661  0.4975 -1.0320  0.4145
  558MOL0     C76908   0.651   9.386   3.587  1.2431 -0.7156 -0.3716
  558MOL0     C76909   0.735   9.499   3.657 -0.1193 -0.6412 -0.4710
  558MOL0     C76910   0.747   9.622   3.563  0.0158 -0.4101 -0.0498
  558MOL0    Cl76911   0.598   9.701   3.535  0.2665  0.0848  0.3239
  558MOL0     C76912   0.367   9.007   4.230 -0.9490 -1.4938 -0.4535
  558MOL0     C76913   0.402   8.893   4.292 -0.6236  0.7815  1.0837
  558MOL0     O76914   0.396   8.709   4.516  0.2526  0.0193 -0.1474
  558MOL0     C76915   0.515   8.480   4.604 -0.5136  0.5231  0.0934
  558MOL0     C76916   0.570   8.358   4.653 -0.0327 -0.1934  0.2831
  558MOL0     N76917   0.851   7.616   4.802  0.9297  0.2176 -0.2528
  558MOL0     N76918   0.894   7.505   4.768  0.3044  0.3806 -0.5625
  558MOL0     C76919   0.960   6.539   4.657 -0.2187  0.7435  0.3454
  558MOL0     C76920   0.852   6.440   4.655 -0.9882 -0.6164 -1.2461
  558MOL0     C76921   0.608   6.083   4.511  0.8530 -0.6095 -0.4922
  558MOL0     C76922   0.518   6.131   4.415  0.3216  0.7772  0.0710
  558MOL0     C76923   0.402   6.046   4.388  0.4261  0.7311 -0.4192
  558MOL0     C76924   0.381   5.926   4.449 -0.5136 -0.4136  0.5630
  558MOL0     O76925   0.278   5.849   4.405 -0.0051 -0.1444  0.1081
  558MOL0     C76926   0.225   5.743   4.486 -1.1941  0.4647  0.8187
  558MOL0     C76927   0.101   5.689   4.421 -0.5815 -0.0509  0.1776
  558MOL0     C76928   0.120   5.658   4.275  1.1176  0.0882 -0.4609
  558MOL0     C76929   0.204   5.537   4.250 -0.0087 -0.2972  0.2501
  558MOL0     C76930   0.181   5.423   4.335  0.0196  0.6174  0.2526
  558MOL0     C76931   0.172   5.322   4.400 -0.1084  0.0110  0.5165
  558MOL0     C76932   0.477   5.882   4.549 -0.4047  0.3221 -0.0763
  558MOL0     C76933   0.583   5.968   4.587 -0.5550  0.6724 -0.2980
  558MOL0     C76934   0.681   5.913   4.693  0.7504 -0.4270 -0.2104
  558MOL0     H76935   0.825   6.416   4.315 -1.0192  2.1827 -0.1951
  558MOL0     H76936   1.018   6.554   4.328  0.4636 -0.5597  0.7034
  558MOL0     H76937   1.220   6.627   4.702  3.5702  1.6008 -2.1810
  558MOL0     H76938   1.095   6.749   4.750  1.1163 -2.7513  2.2929
  558MOL0     H76939   1.309   6.828   4.772 -0.5153  0.9889  0.7344
  558MOL0     H76940   1.355   6.789   4.600  2.2632  2.8962  1.6649
  558MOL0     H76941   1.205   6.935   4.512  1.6044 -0.0710  0.7191
  558MOL0     H76942   1.126   6.979   4.651  0.0091  0.2704  0.4365
  558MOL0     H76943   1.375   7.054   4.740 -1.2635  3.0081  1.3029
  558MOL0     H76944   1.405   7.069   4.571  0.9226 -0.1457  2.3834
  558MOL0     H76945   1.325   7.275   4.701  0.3365 -1.1583  0.0266
  558MOL0     H76946   1.174   7.204   4.727 -1.6639  2.8525 -1.6684
  558MOL0     H76947   1.283   7.291   4.436 -1.2200  0.5422 -2.6419
  558MOL0     H76948   1.136   7.199   4.455  0.5846 -2.8141  2.4654
  558MOL0     H76949   1.152   7.471   4.464 -2.3043 -1.4299 -1.3750
  558MOL0     H76950   1.218   7.446   4.625  2.4764 -3.3501  0.3109
  558MOL0     H76951   0.949   7.361   4.517  1.3263  2.5188 -1.2469
  558MOL0     H76952   1.003   7.309   4.674  1.2891 -0.2939  0.6113
  558MOL0     H76953   1.028   7.669   4.528 -1.9720  1.6177 -1.2426
  558MOL0     H76954   0.915   7.906   4.636  2.9011  3.2087  1.2171
  558MOL0     H76955   1.023   7.889   4.772 -0.9905  0.4322  1.6387
  558MOL0     H76956   0.789   7.891   4.913 -4.4872  0.4106 -0.0880
  558MOL0     H76957   0.835   8.038   4.833  1.0387 -0.4688  0.3024
  558MOL0     H76958   0.687   7.885   4.641 -0.8157 -0.5854  0.7271
  558MOL0     H76959   0.608   7.843   4.787  0.5499 -0.4137  1.8469
  558MOL0     H76960   0.502   8.061   4.730  0.7472 -0.2692  1.0939
  558MOL0     H76961   0.640   8.120   4.811  1.4883 -1.7831  0.4223
  558MOL0     H76962   0.535   8.173   4.367 -3.0632  1.6739 -2.1561
  558MOL0     H76963   0.405   8.258   4.227  1.6781 -1.5146  3.0058
  558MOL0     H76964   0.476   8.416   4.187  0.0775 -1.0602 -0.3656
  558MOL0     H76965   0.324   8.419   4.249  0.0878 -0.3062 -0.8355
  558MOL0     H76966   0.216   8.680   4.098  0.3219 -1.0736 -0.2779
  558MOL0     H76967   0.176   8.887   3.984 -0.3772  0.5576  0.6039
  558MOL0     H76968   0.290   9.012   3.852  2.5706 -0.4501  0.9545
  558MOL0     H76969   0.162   9.138   3.876 -0.6026 -2.0205  1.2286
  558MOL0     H76970   0.362   9.197   3.707  2.6324 -2.3466  0.4464
  558MOL0     H76971   0.330   9.316   3.844  1.4732 -0.1688  1.3506
  558MOL0     H76972   0.540   9.097   3.840  0.5694  1.6073 -5.5125
  558MOL0     H76973   0.514   9.222   3.973  3.8645  0.5115 -1.8630
  558MOL0     H76974   0.690   9.313   3.851  0.2735  1.1994 -2.0134
  558MOL0     H76975   0.543   9.389   3.812 -0.4608  0.3513  3.3286
  558MOL0     H76976   0.742   9.212   3.659  1.6968  0.9042  2.9730
  558MOL0     H76977   0.560   9.214   3.612  0.3979  1.8867 -2.7233
  558MOL0     H76978   0.550   9.426   3.582  0.2534 -2.9093  0.8986
  558MOL0     H76979   0.695   9.365   3.489  1.9604 -3.6839  0.4658
  558MOL0     H76980   0.835   9.464   3.684  1.1744  0.6631 -3.1466
  558MOL0     H76981   0.683   9.549   3.739  0.2043 -0.3939 -0.4139
  558MOL0     H76982   0.779   9.585   3.465 -1.2445 -0.5230 -0.4280
  558MOL0     H76983   0.832   9.683   3.595 -1.0119  0.4654  1.0713
  558MOL0     H76984   0.405   9.100   4.271 -0.1333 -1.4758 -1.2221
  558MOL0     H76985   0.467   8.901   4.378  0.2502 -2.7973  0.9338
  558MOL0     H76986   0.504   8.555   4.681 -0.0804  0.4504  0.2274
  558MOL0     H76987   0.606   8.362   4.755 -0.1772 -0.1252  0.3330
  558MOL0     H76988   0.989   6.580   4.753  1.4425  1.4809 -0.4210
  558MOL0     H76989   0.822   6.405   4.753  0.9117 -0.5413 -0.6003
  558MOL0     H76990   0.538   6.218   4.353  2.8313 -0.6499 -1.2850
  558MOL0     H76991   0.330   6.091   4.321  0.2760  1.1678  0.0328
  558MOL0     H76992   0.291   5.659   4.510  0.2787  1.6097  0.8924
  558MOL0     H76993   0.190   5.778   4.584 -0.7944 -1.1318  1.5563
  558MOL0     H76994   0.007   5.743   4.431 -1.7828 -2.1102  0.7415
  558MOL0     H76995   0.059   5.603   4.475 -1.0856  0.5517  0.7600
  558MOL0     H76996   0.021   5.636   4.234  0.3869 -2.6793  2.3701
  558MOL0     H76997   0.167   5.750   4.239  2.2132  2.1308  5.1816
  558MOL0     H76998   0.312   5.558   4.247 -0.0022 -0.1616 -3.5622
  558MOL0     H76999   0.183   5.497   4.151 -2.3572  0.9871  0.1708
  558MOL0     H77000   0.176   5.236   4.464 -1.3140  1.8086  3.2189
  558MOL0     H77001   0.462   5.783   4.591 -3.0341  0.2749 -0.9882
  558MOL0     H77002   0.686   5.982   4.778 -1.8366  0.7665 -0.9405
  558MOL0     H77003   0.659   5.812   4.729 -0.4971  0.0428  0.4005
  558MOL0     H77004   0.780   5.894   4.651  0.9080  0.6862 -0.3629
  559MOL0     O77005  10.545   2.909   3.398 -0.6381 -0.2140 -0.4689
  559MOL0     C77006  10.667   2.885   3.371  0.1368  0.6470 -0.4273
  559MOL0     O77007  10.716   2.900   3.245 -1.0054  0.1873  0.7907
  559MOL0     C77008  10.851   2.881   3.231 -0.5941  0.6574 -0.6914
  559MOL0     C77009  10.940   2.976   3.254  0.2376 -0.7952 -0.0774
  559MOL0     C77010  11.073   2.952   3.214 -0.2987  0.3147 -0.8396
  559MOL0     C77011  11.117   2.823   3.166 -0.1725  0.9542  0.6875
  559MOL0     O77012  11.247   2.782   3.145  0.5785 -0.1913  0.1698
  559MOL0     C77013  11.348   2.866   3.193 -0.2097 -0.5700 -0.0368
  559MOL0     C77014  11.466   2.776   3.169 -0.5920 -0.4988 -0.6430
  559MOL0     C77015  11.548   2.811   3.037 -0.6759 -0.4010 -0.6944
  559MOL0     C77016  11.486   2.728   2.924  0.4071  1.3517 -0.3444
  559MOL0     C77017  11.541   2.744   2.778  0.3390 -1.3423  0.0346
  559MOL0     C77018  11.564   2.897   2.738  0.0193  0.0824  0.0694
  559MOL0     C77019  11.595   2.916   2.588  0.7335  0.0950  0.5127
  559MOL0     C77020  11.609   3.068   2.547  1.1934 -0.3155  0.3437
  559MOL0     N77021  11.606   3.085   2.402  1.1598 -0.2181  0.0080
  559MOL0     C77022  11.493   3.082   2.329  0.7178  0.4449 -0.9450
  559MOL0     C77023  11.532   3.100   2.202 -0.4697 -0.5147 -0.1419
  559MOL0     C77024  11.442   3.133   2.093  0.1298 -0.6428 -0.5121
  559MOL0     C77025  11.520   3.150   1.955  0.2344  0.0627  0.7850
  559MOL0     C77026  11.418   3.146   1.838  0.8589  0.0424  0.8765
  559MOL0     C77027  11.475   3.152   1.698 -0.0799 -0.0729  0.7007
  559MOL0     O77028  11.532   3.023   1.667 -0.2218  0.2267  0.3109
  559MOL0     C77029  11.600   3.007   1.543 -0.0329 -0.2353 -0.0690
  559MOL0     C77030  11.575   2.900   1.469 -0.7003 -0.2511 -0.6777
  559MOL0     C77031  11.650   2.881   1.352 -0.4432  0.3805 -0.4228
  559MOL0     C77032  11.628   2.747   1.285  0.4844  0.1112 -0.2165
  559MOL0     C77033  11.745   2.981   1.305  0.2203  0.5555  0.8204
  559MOL0     C77034  11.819   2.981   1.171  0.3776  0.6069  0.0021
  559MOL0     O77035  11.908   3.082   1.146  0.7000  0.4294 -0.3023
  559MOL0     C77036  11.968   3.077   1.025  0.0069  0.1451  0.1244
  559MOL0     C77037  11.908   3.105   0.906 -0.8055 -1.2752  0.3424
  559MOL0     C77038  11.996   3.105   0.790 -0.4362 -0.0046 -0.4411
  559MOL0     C77039  12.135   3.094   0.805 -1.7339  0.5131 -0.5220
  559MOL0     O77040  12.200   3.105   0.690 -0.0084  0.5563 -0.8231
  559MOL0     C77041  12.325   3.179   0.683 -0.5748  0.8242  0.3032
  559MOL0     C77042  12.447   3.085   0.702  0.1896  0.0452  0.2770
  559MOL0     C77043  12.451   2.946   0.624  0.9365  0.1717 -0.3026
  559MOL0     C77044  12.588   2.882   0.624  0.0772 -0.2255 -0.2837
  559MOL0     C77045  12.586   2.780   0.506  0.1460 -0.3299  0.8575
  559MOL0     C77046  12.694   2.667   0.533  0.6605 -0.7064  0.0312
  559MOL0     C77047  12.718   2.584   0.408 -1.0852  0.0170  0.2970
  559MOL0     C77048  12.834   2.491   0.430 -0.2546  0.7591 -1.1625
  559MOL0    Cl77049  13.003   2.569   0.436  0.2717  0.1043  0.2004
  559MOL0     C77050  12.196   3.068   0.929 -0.3127 -0.4041  0.1155
  559MOL0     C77051  12.108   3.063   1.040  0.4305  0.0503 -0.5059
  559MOL0     O77052  11.786   2.882   1.098 -0.2288 -0.2597 -0.1447
  559MOL0     C77053  11.774   3.086   1.392 -0.6189 -0.1334  0.8005
  559MOL0     C77054  11.701   3.101   1.507  0.2901 -1.0015 -0.1872
  559MOL0     N77055  11.669   3.131   2.209  0.0401  0.0676  1.0018
  559MOL0     N77056  11.703   3.130   2.323 -0.5716 -0.5219 -0.2404
  559MOL0     C77057  11.014   2.733   3.140 -1.0760 -0.6814 -0.3563
  559MOL0     C77058  10.883   2.756   3.173 -0.0023  0.5435 -0.6052
  559MOL0     C77059  10.758   2.868   3.490 -0.1619 -0.6408  0.0335
  559MOL0     C77060  10.781   2.981   3.579  0.8527 -0.2117 -0.1672
  559MOL0     C77061  10.864   2.972   3.691  0.0507 -0.9041 -0.0216
  559MOL0     C77062  10.936   2.862   3.711  0.9278  0.1489 -0.4563
  559MOL0     O77063  11.023   2.872   3.816 -0.4905 -0.3870 -0.2198
  559MOL0     C77064  11.110   2.757   3.843 -0.4767 -0.3535  1.5818
  559MOL0     C77065  11.218   2.742   3.731 -0.8719 -0.5896 -0.9046
  559MOL0     C77066  11.340   2.644   3.765  0.0559 -0.1804  0.3969
  559MOL0     C77067  11.391   2.570   3.647 -0.4108  1.2049  0.0514
  559MOL0     C77068  11.276   2.496   3.587 -1.1441  1.0504 -0.5752
  559MOL0     C77069  11.174   2.435   3.556  0.0747  0.4525 -0.2737
  559MOL0     C77070  10.910   2.739   3.632 -0.4727 -0.3991  0.3037
  559MOL0     C77071  10.820   2.745   3.520  0.2785  0.1997  0.0470
  559MOL0     C77072  10.809   2.614   3.444 -0.6377  0.2907  1.4233
  559MOL0     H77073  10.914   3.076   3.287 -2.8797 -1.3322 -0.5968
  559MOL0     H77074  11.154   3.018   3.243  0.4166 -0.4663 -0.9905
  559MOL0     H77075  11.335   2.879   3.301 -2.3078 -1.2267 -0.1797
  559MOL0     H77076  11.352   2.962   3.142  2.6970 -0.1863  0.7338
  559MOL0     H77077  11.531   2.808   3.251  0.3406  1.0067 -1.9277
  559MOL0     H77078  11.445   2.672   3.197  1.2421 -0.7924 -0.2710
  559MOL0     H77079  11.542   2.918   3.018 -3.0305 -0.0653  1.5377
  559MOL0     H77080  11.648   2.767   3.042  0.0764  1.4256  1.6147
  559MOL0     H77081  11.481   2.623   2.954 -0.7641  1.2288 -0.8997
  559MOL0     H77082  11.383   2.764   2.928 -0.4799 -0.9682 -0.5033
  559MOL0     H77083  11.456   2.717   2.716 -0.2477  0.1401  0.1488
  559MOL0     H77084  11.627   2.680   2.755  0.7294 -1.1554  0.9292
  559MOL0     H77085  11.467   2.944   2.757 -2.7229 -4.2152 -1.6001
  559MOL0     H77086  11.629   2.952   2.806 -2.9694  0.9858  2.3988
  559MOL0     H77087  11.519   2.864   2.529 -1.0300  2.3749  0.6435
  559MOL0     H77088  11.694   2.871   2.575 -0.2092 -2.0629  0.3758
  559MOL0     H77089  11.523   3.127   2.580  0.8677  1.0064 -2.4859
  559MOL0     H77090  11.703   3.108   2.586  1.7601  0.4865 -1.6677
  559MOL0     H77091  11.393   3.071   2.369 -1.1750  0.7566 -5.0900
  559MOL0     H77092  11.395   3.226   2.128 -1.9013 -2.0662  0.7637
  559MOL0     H77093  11.360   3.061   2.096  0.1802 -0.6967 -0.4113
  559MOL0     H77094  11.582   3.239   1.968  0.7667 -0.4764  2.0723
  559MOL0     H77095  11.592   3.071   1.931  2.1679  1.9586  0.0736
  559MOL0     H77096  11.360   3.054   1.851  1.1817 -0.0140  2.0712
  559MOL0     H77097  11.353   3.233   1.848 -1.1057 -1.1455 -0.6996
  559MOL0     H77098  11.393   3.180   1.633 -0.5402  3.8922  2.6614
  559MOL0     H77099  11.549   3.232   1.694  0.3401 -0.4188  1.2540
  559MOL0     H77100  11.512   2.827   1.518  0.4582  0.1671  1.5548
  559MOL0     H77101  11.560   2.676   1.333 -1.0650  0.7639 -1.3422
  559MOL0     H77102  11.722   2.692   1.283 -0.7028 -2.0026 -0.0630
  559MOL0     H77103  11.598   2.752   1.180  3.8637 -1.9451 -1.4336
  559MOL0     H77104  11.800   3.112   0.897 -0.6504  1.1902 -0.3201
  559MOL0     H77105  11.964   3.126   0.689  1.3020 -0.3838 -1.1073
  559MOL0     H77106  12.330   3.215   0.580  3.2802 -0.6905 -0.1832
  559MOL0     H77107  12.339   3.263   0.752 -0.4925 -0.7874  2.3563
  559MOL0     H77108  12.540   3.135   0.675 -0.1573 -0.8115 -2.8516
  559MOL0     H77109  12.451   3.053   0.807  1.2464  1.5793  0.7290
  559MOL0     H77110  12.407   2.952   0.524  0.0676  0.2760  0.0783
  559MOL0     H77111  12.382   2.886   0.683 -1.3065  2.5640 -0.3281
  559MOL0     H77112  12.618   2.843   0.722  3.0661  2.2582 -0.0685
  559MOL0     H77113  12.663   2.956   0.596  0.4794 -0.4587  0.1747
  559MOL0     H77114  12.489   2.730   0.502 -1.7969  3.1578 -1.7974
  559MOL0     H77115  12.598   2.830   0.409 -0.5770 -0.8808  0.4753
  559MOL0     H77116  12.663   2.602   0.616 -0.6368  0.6384  0.6488
  559MOL0     H77117  12.786   2.712   0.571  0.8845 -0.8047 -0.3909
  559MOL0     H77118  12.751   2.653   0.330  0.4876 -1.1098 -0.0858
  559MOL0     H77119  12.631   2.524   0.380 -2.1159 -0.6337  4.2779
  559MOL0     H77120  12.831   2.409   0.357  2.5855 -0.7509  0.2600
  559MOL0     H77121  12.816   2.446   0.528  1.0035  0.3242 -1.1126
  559MOL0     H77122  12.300   3.087   0.952 -0.6633  0.5818  0.9688
  559MOL0     H77123  12.150   3.048   1.139  2.8617  0.6377 -1.3651
  559MOL0     H77124  11.834   3.169   1.357 -1.8322 -0.0513 -1.2097
  559MOL0     H77125  11.723   3.187   1.570 -2.2535 -0.6360  0.3129
  559MOL0     H77126  11.053   2.636   3.111 -1.5954 -0.0532 -3.5103
  559MOL0     H77127  10.806   2.681   3.159  2.0352 -1.8170  0.0273
  559MOL0     H77128  10.722   3.070   3.559 -1.4681 -1.0920  2.1603
  559MOL0     H77129  10.867   3.060   3.756 -0.0141 -0.5053 -0.5531
  559MOL0     H77130  11.158   2.786   3.937 -1.7763 -1.5049  2.6430
  559MOL0     H77131  11.060   2.663   3.868 -1.4429  0.1518  1.5784
  559MOL0     H77132  11.239   2.846   3.705  0.3768 -0.7613 -0.6131
  559MOL0     H77133  11.166   2.727   3.636 -0.0321  3.8880 -2.3139
  559MOL0     H77134  11.424   2.708   3.794  0.3906  2.8649 -5.7793
  559MOL0     H77135  11.311   2.573   3.844 -0.2289  3.2231  3.6361
  559MOL0     H77136  11.474   2.505   3.676 -0.3978  1.9606  1.8628
  559MOL0     H77137  11.439   2.640   3.578  0.7699  1.7678  1.3829
  559MOL0     H77138  11.082   2.380   3.552 -0.6665  1.6453 -0.0736
  559MOL0     H77139  10.951   2.643   3.663  2.5869  1.2325  1.6913
  559MOL0     H77140  10.768   2.544   3.517 -0.7596  0.1697  1.2386
  559MOL0     H77141  10.733   2.624   3.366  1.4872  0.7929 -0.7356
  559MOL0     H77142  10.908   2.590   3.403 -0.6842 -1.1029  2.0744
  560MOL0     O77143   8.839   5.324   0.369 -0.0862 -0.5134 -0.1355
  560MOL0     C77144   8.870   5.426   0.435  0.9138  1.0714  1.0060
  560MOL0     O77145   8.785   5.510   0.497  0.3241 -0.1122  0.5645
  560MOL0     C77146   8.654   5.527   0.469  0.4972 -0.1238 -0.3257
  560MOL0     C77147   8.593   5.515   0.341 -0.6429 -0.0273  0.2984
  560MOL0     C77148   8.462   5.549   0.320  0.0574  0.2609  0.2120
  560MOL0     C77149   8.393   5.612   0.424  0.3907 -0.6031 -0.6320
  560MOL0     O77150   8.265   5.669   0.413  0.5802  0.1211  0.8473
  560MOL0     C77151   8.175   5.595   0.326 -0.3483 -0.0396  0.0737
  560MOL0     C77152   8.053   5.685   0.318 -0.0012 -0.0913  0.4963
  560MOL0     C77153   7.960   5.687   0.445  0.1060 -0.0458  0.1380
  560MOL0     C77154   7.984   5.786   0.560  0.6212 -0.6211 -0.4783
  560MOL0     C77155   7.857   5.808   0.647 -0.4550  0.2255 -0.9060
  560MOL0     C77156   7.892   5.900   0.774 -0.0076  0.1651 -0.6502
  560MOL0     C77157   7.901   5.832   0.911  0.0361  0.2059  0.1863
  560MOL0     C77158   8.034   5.774   0.964 -0.0867  0.2144 -1.3377
  560MOL0     N77159   8.151   5.867   0.952  0.2252  0.6536 -0.2394
  560MOL0     C77160   8.164   5.987   1.019 -0.9498  0.0066  0.8730
  560MOL0     C77161   8.287   6.033   0.980 -0.5868 -0.2588  0.7291
  560MOL0     C77162   8.369   6.146   1.042 -0.2140 -1.0153  0.0207
  560MOL0     C77163   8.478   6.226   0.955  0.5886  0.9861  0.7207
  560MOL0     C77164   8.536   6.349   1.025 -0.0779  0.1142  0.2350
  560MOL0     C77165   8.631   6.316   1.137 -0.0745 -0.0365 -0.8962
  560MOL0     O77166   8.759   6.281   1.073  0.1115 -0.4522 -0.0328
  560MOL0     C77167   8.862   6.243   1.153  0.2961 -0.3306  0.1705
  560MOL0     C77168   8.993   6.246   1.105 -0.3661 -0.0359  0.1136
  560MOL0     C77169   9.107   6.210   1.176 -0.6441  0.5872  0.3055
  560MOL0     C77170   9.235   6.244   1.112  0.8692 -1.0514  0.7540
  560MOL0     C77171   9.090   6.154   1.303  0.0858  0.1972  0.5129
  560MOL0     C77172   9.203   6.075   1.377  0.0333 -0.0253  0.8559
  560MOL0     O77173   9.157   6.007   1.486  0.1509  0.5033 -0.0228
  560MOL0     C77174   9.247   5.912   1.531  0.5387 -0.6716  0.0102
  560MOL0     C77175   9.305   5.932   1.654 -0.0557  0.5271  0.3586
  560MOL0     C77176   9.400   5.844   1.698 -0.2526 -0.0499  0.1452
  560MOL0     C77177   9.436   5.737   1.624  1.1928  0.7934  0.1149
  560MOL0     O77178   9.513   5.649   1.699  0.3171  0.2834 -0.6768
  560MOL0     C77179   9.559   5.525   1.638 -0.7152  0.1137  0.2133
  560MOL0     C77180   9.657   5.452   1.736  0.1145 -0.4484  0.2805
  560MOL0     C77181   9.595   5.414   1.871  0.1597  0.3450 -0.4060
  560MOL0     C77182   9.492   5.306   1.853 -0.5259 -0.2551 -0.0770
  560MOL0     C77183   9.417   5.312   1.981 -0.3383  0.9700 -0.4426
  560MOL0     C77184   9.282   5.392   1.968  0.4497  0.0169 -0.1610
  560MOL0     C77185   9.291   5.556   1.959  0.1179  0.7958 -0.9981
  560MOL0     C77186   9.165   5.602   2.032 -0.1542 -0.3245  0.8221
  560MOL0    Cl77187   9.173   5.782   2.032  0.0764  0.2183  0.3356
  560MOL0     C77188   9.369   5.706   1.506  0.1333 -0.2142  0.1465
  560MOL0     C77189   9.267   5.796   1.463  0.8525 -0.0369  0.7894
  560MOL0     O77190   9.325   6.091   1.343 -0.6359  0.1538  0.4955
  560MOL0     C77191   8.959   6.162   1.354  0.3748 -0.1664 -0.4583
  560MOL0     C77192   8.850   6.196   1.282  0.0294 -0.1479 -0.7232
  560MOL0     N77193   8.335   5.946   0.883  0.0679 -0.0642 -0.3306
  560MOL0     N77194   8.254   5.841   0.869 -0.2807 -0.2716 -0.0316
  560MOL0     C77195   8.458   5.643   0.547 -0.3706 -0.0366 -0.1048
  560MOL0     C77196   8.588   5.602   0.572 -1.2716 -0.3850 -0.1867
  560MOL0     C77197   9.015   5.451   0.457  0.4153  0.9215  0.7353
  560MOL0     C77198   9.040   5.576   0.499 -0.6960 -0.1885  0.8524
  560MOL0     C77199   9.166   5.614   0.535  0.2199  0.0487  0.1276
  560MOL0     C77200   9.276   5.529   0.537  1.2578  0.3177 -0.5651
  560MOL0     O77201   9.397   5.570   0.594 -0.3054 -0.2284  0.1132
  560MOL0     C77202   9.389   5.691   0.679  0.6836 -0.1775  0.5182
  560MOL0     C77203   9.519   5.698   0.742 -0.5153 -1.4437 -0.3714
  560MOL0     C77204   9.608   5.785   0.653 -0.1516  0.2517 -0.5139
  560MOL0     C77205   9.747   5.799   0.732 -0.3193 -0.0565  0.1422
  560MOL0     C77206   9.870   5.797   0.649 -0.4539 -1.3748  1.2723
  560MOL0     C77207   9.962   5.782   0.567 -0.4087 -0.7349 -0.6772
  560MOL0     C77208   9.248   5.394   0.497 -0.0520 -0.8909  0.3794
  560MOL0     C77209   9.120   5.358   0.445 -0.9446  0.4512  0.9621
  560MOL0     C77210   9.118   5.216   0.388  0.6153 -0.2755  0.0568
  560MOL0     H77211   8.652   5.470   0.262 -0.1658 -1.5338  1.4757
  560MOL0     H77212   8.422   5.543   0.220 -0.3920  2.8603  0.1727
  560MOL0     H77213   8.154   5.493   0.361 -1.8864  0.7730  1.6639
  560MOL0     H77214   8.218   5.583   0.226 -2.1403 -1.7413 -0.5573
  560MOL0     H77215   8.074   5.790   0.295 -2.0029  0.9553  2.9443
  560MOL0     H77216   7.989   5.639   0.243  0.9052  0.4288 -0.6283
  560MOL0     H77217   7.856   5.697   0.414  0.2817 -0.1197 -0.4852
  560MOL0     H77218   7.955   5.586   0.488  2.9160  0.2419  1.4011
  560MOL0     H77219   8.072   5.753   0.615 -0.6763  1.5976  3.3243
  560MOL0     H77220   8.012   5.885   0.523 -2.7435  1.5816  2.1803
  560MOL0     H77221   7.822   5.709   0.676  1.8722 -0.3828  0.0219
  560MOL0     H77222   7.777   5.862   0.595 -1.2815  2.1376  2.0995
  560MOL0     H77223   7.980   5.965   0.771  0.7892 -0.8566 -0.1853
  560MOL0     H77224   7.802   5.960   0.790  0.1026  0.4368 -1.0560
  560MOL0     H77225   7.821   5.757   0.906  0.3604 -0.0370 -3.5055
  560MOL0     H77226   7.853   5.900   0.983 -0.5514 -0.7695  0.7342
  560MOL0     H77227   8.011   5.746   1.067 -0.6497  4.6315 -0.0436
  560MOL0     H77228   8.056   5.685   0.904 -1.6094  0.4091 -2.2283
  560MOL0     H77229   8.096   6.029   1.093  1.1182 -0.4320  3.1740
  560MOL0     H77230   8.414   6.107   1.134  0.4119  0.7234  0.4972
  560MOL0     H77231   8.296   6.222   1.073  0.6320 -0.5095  0.8419
  560MOL0     H77232   8.561   6.157   0.932 -0.4624  0.3700 -1.4732
  560MOL0     H77233   8.423   6.240   0.862  0.2010 -2.1408  0.3725
  560MOL0     H77234   8.595   6.409   0.954  0.3116 -1.4759 -0.8294
  560MOL0     H77235   8.450   6.408   1.057  0.1622  0.7730 -0.2946
  560MOL0     H77236   8.651   6.390   1.215  1.3379  0.1630 -1.4169
  560MOL0     H77237   8.583   6.231   1.187  1.3135 -0.0574  0.4857
  560MOL0     H77238   8.991   6.292   1.007  0.7521  0.9667  0.5316
  560MOL0     H77239   9.232   6.193   1.015  0.5404 -0.9837  0.7294
  560MOL0     H77240   9.335   6.222   1.151  0.8914  0.0021  1.3246
  560MOL0     H77241   9.234   6.353   1.106 -0.8158 -1.0862  0.1341
  560MOL0     H77242   9.277   6.009   1.726  0.4536 -1.1776  2.4725
  560MOL0     H77243   9.437   5.851   1.800 -3.4713 -0.1084  1.4443
  560MOL0     H77244   9.483   5.453   1.605 -0.3013  0.6341 -2.0410
  560MOL0     H77245   9.617   5.555   1.550 -2.8715  5.1393  0.1191
  560MOL0     H77246   9.685   5.358   1.688  0.4272 -2.0252  3.2965
  560MOL0     H77247   9.742   5.515   1.761  0.6494 -1.2514  0.5356
  560MOL0     H77248   9.557   5.503   1.922  1.0196  0.0616  0.7799
  560MOL0     H77249   9.676   5.374   1.933 -2.2518 -0.7531  2.2687
  560MOL0     H77250   9.537   5.207   1.840 -0.6475 -0.2655 -0.4496
  560MOL0     H77251   9.441   5.313   1.756  0.3017 -2.8275 -0.7943
  560MOL0     H77252   9.390   5.209   2.007 -1.4110  0.5518 -2.9042
  560MOL0     H77253   9.482   5.351   2.060  0.3073  0.7336 -0.8556
  560MOL0     H77254   9.217   5.370   2.054  0.0802  0.2106 -0.3862
  560MOL0     H77255   9.217   5.353   1.889  2.9192 -3.1929 -0.7889
  560MOL0     H77256   9.287   5.582   1.853  0.1703 -2.1758 -1.7997
  560MOL0     H77257   9.378   5.593   2.014 -0.4407 -2.2358  2.3094
  560MOL0     H77258   9.175   5.565   2.134  4.2313 -1.2160  0.2848
  560MOL0     H77259   9.070   5.574   1.986 -1.1697  0.8009  2.1289
  560MOL0     H77260   9.383   5.609   1.460 -0.1983 -0.9751  1.5861
  560MOL0     H77261   9.217   5.792   1.367 -1.2344  1.8700  1.6949
  560MOL0     H77262   8.949   6.131   1.457  0.4639 -0.0292 -0.4089
  560MOL0     H77263   8.754   6.192   1.332  0.7538 -1.1266  0.6535
  560MOL0     H77264   8.401   5.695   0.623 -0.2436  0.6926 -0.4901
  560MOL0     H77265   8.631   5.613   0.672  1.8130 -1.4892 -1.2831
  560MOL0     H77266   8.964   5.650   0.521 -0.4586  0.2813  0.1181
  560MOL0     H77267   9.169   5.717   0.570 -0.3600 -1.3223  5.0298
  560MOL0     H77268   9.383   5.777   0.611  1.5579  0.3007  1.0200
  560MOL0     H77269   9.312   5.685   0.756  0.1034  1.0521  0.0630
  560MOL0     H77270   9.551   5.598   0.770 -0.8199 -1.9988 -1.9433
  560MOL0     H77271   9.515   5.768   0.826 -2.5835  1.0826 -2.3848
  560MOL0     H77272   9.615   5.746   0.552  1.4750  1.6693 -0.9939
  560MOL0     H77273   9.560   5.883   0.643 -1.6054  0.0572  2.8904
  560MOL0     H77274   9.754   5.715   0.802  2.7302 -0.9603 -1.0985
  560MOL0     H77275   9.732   5.891   0.789 -1.9024  1.1030 -2.0228
  560MOL0     H77276  10.038   5.752   0.498  1.2293  3.0745 -0.7366
  560MOL0     H77277   9.332   5.327   0.515  2.0810  2.1874  2.8883
  560MOL0     H77278   9.049   5.149   0.440  0.7244  1.0995  2.1021
  560MOL0     H77279   9.070   5.227   0.290 -2.3300 -0.7243  1.3247
  560MOL0     H77280   9.218   5.176   0.372  0.6675  0.5077 -1.8401
  561MOL0     O77281   0.928   1.494  10.720  0.2101 -0.4361 -0.9131
  561MOL0     C77282   0.979   1.579  10.803  0.1460  0.2050  0.0258
  561MOL0     O77283   1.108   1.625  10.805  0.3694  0.9279 -0.2672
  561MOL0     C77284   1.193   1.590  10.707  0.1191  0.4209  0.7990
  561MOL0     C77285   1.154   1.566  10.575 -0.8401 -0.5256 -0.1442
  561MOL0     C77286   1.245   1.522  10.479 -0.0923  0.5567  0.1293
  561MOL0     C77287   1.371   1.484  10.519 -0.2069  0.1798  0.6230
  561MOL0     O77288   1.458   1.431  10.437 -0.3682  0.1020  0.2855
  561MOL0     C77289   1.509   1.522  10.335 -0.0408 -0.7556 -0.5456
  561MOL0     C77290   1.661   1.500  10.314 -0.9373  0.9730 -0.2800
  561MOL0     C77291   1.706   1.356  10.354 -0.4298 -0.4507 -1.2879
  561MOL0     C77292   1.646   1.248  10.253 -0.0581  0.5988  1.3150
  561MOL0     C77293   1.629   1.100  10.298 -0.8710  0.2410 -0.1932
  561MOL0     C77294   1.506   1.091  10.400  0.7334  0.3215 -0.0239
  561MOL0     C77295   1.468   0.944  10.413  0.6515  0.3498 -0.0418
  561MOL0     C77296   1.397   0.908  10.547  0.8924  0.2096 -0.1956
  561MOL0     N77297   1.493   0.920  10.662 -0.9603  0.4730 -0.2902
  561MOL0     C77298   1.557   0.820  10.736  0.3642  0.1700  0.1054
  561MOL0     C77299   1.641   0.885  10.820  0.7723  0.2669 -0.6515
  561MOL0     C77300   1.740   0.839  10.915  0.3638  0.4276 -0.7420
  561MOL0     C77301   1.843   0.756  10.838 -0.0858 -0.4297  0.9495
  561MOL0     C77302   1.930   0.665  10.926 -0.2231 -0.6416  0.2797
  561MOL0     C77303   2.052   0.607  10.851  0.5435 -0.1697 -0.3426
  561MOL0     O77304   2.134   0.700  10.777  0.1350 -0.0718  0.2917
  561MOL0     C77305   2.272   0.666  10.771  1.2053  0.3089  0.0795
  561MOL0     C77306   2.324   0.535  10.768  0.7958 -0.8378 -0.3535
  561MOL0     C77307   2.456   0.500  10.754  0.1681 -0.2398  0.3384
  561MOL0     C77308   2.482   0.347  10.726  0.3228 -0.7337 -0.5622
  561MOL0     C77309   2.549   0.608  10.752  0.3118 -0.2651  0.5832
  561MOL0     C77310   2.699   0.588  10.738 -0.3095  0.1218 -0.5575
  561MOL0     O77311   2.777   0.703  10.717  0.2369  0.1350  0.2457
  561MOL0     C77312   2.914   0.689  10.708 -0.4956  0.2578 -0.9004
  561MOL0     C77313   2.990   0.649  10.820 -0.1954  0.9352 -0.0116
  561MOL0     C77314   3.128   0.655  10.819 -0.3327 -0.2453 -0.2273
  561MOL0     C77315   3.194   0.691  10.706  0.6689 -0.4631  0.4190
  561MOL0     O77316   3.330   0.671  10.692  0.1767 -0.1318 -0.3038
  561MOL0     C77317   3.417   0.644  10.801 -0.2038  0.2249  0.7662
  561MOL0     C77318   3.564   0.685  10.767 -0.8061  0.1176  0.6138
  561MOL0     C77319   3.610   0.610  10.638  0.2271  0.1645  0.0772
  561MOL0     C77320   3.607   0.457  10.656  0.1791  0.5028  1.0420
  561MOL0     C77321   3.687   0.372  10.547  0.5957 -0.1952 -0.0055
  561MOL0     C77322   3.685   0.219  10.561 -0.2870  0.9588 -0.4023
  561MOL0     C77323   3.816   0.172  10.634  0.3343  0.3919 -0.1444
  561MOL0     C77324   3.783   0.052  10.717  0.0661  0.7527 -0.1011
  561MOL0    Cl77325   3.726   0.096  10.883  0.4510 -0.1220 -0.4262
  561MOL0     C77326   3.126   0.737  10.590 -0.4689  0.4677  0.0057
  561MOL0     C77327   2.984   0.735  10.590 -0.6743  0.0882  0.1509
  561MOL0     O77328   2.743   0.471  10.747 -1.1234  0.8664 -0.4606
  561MOL0     C77329   2.502   0.740  10.739 -0.4370  0.9817  0.3010
  561MOL0     C77330   2.362   0.765  10.758 -0.2496  0.0491 -0.0534
  561MOL0     N77331   1.612   1.015  10.826 -0.1720  0.0777 -0.4887
  561MOL0     N77332   1.528   1.043  10.724  0.3154 -0.3662  1.0950
  561MOL0     C77333   1.414   1.514  10.651 -0.5929 -0.3702  0.5658
  561MOL0     C77334   1.325   1.576  10.738 -0.3692 -0.1419  0.1104
  561MOL0     C77335   0.894   1.605  10.920 -0.5666 -0.5627 -0.2660
  561MOL0     C77336   0.865   1.520  11.027 -0.4857 -0.0165  0.1114
  561MOL0     C77337   0.781   1.552  11.134  0.5969 -0.7493  0.7085
  561MOL0     C77338   0.743   1.685  11.154 -1.3581  0.1956  0.2884
  561MOL0     O77339   0.685   1.704  11.275 -0.1937 -0.2256 -0.6203
  561MOL0     C77340   0.628   1.832  11.309 -0.7826 -0.6408 -0.2105
  561MOL0     C77341   0.485   1.809  11.344  0.1449  0.6345  0.1109
  561MOL0     C77342   0.472   1.739  11.476  0.1310 -0.2864  0.1115
  561MOL0     C77343   0.497   1.823  11.594 -0.6074 -0.1446 -1.4170
  561MOL0     C77344   0.609   1.774  11.672 -0.0850  0.7951  0.6908
  561MOL0     C77345   0.714   1.727  11.710 -0.4045 -0.0457  0.1059
  561MOL0     C77346   0.768   1.772  11.049  0.6884  0.0616  0.1621
  561MOL0     C77347   0.839   1.734  10.935 -0.0409 -0.3143  1.1527
  561MOL0     C77348   0.846   1.846  10.826  0.2030  0.7571 -0.8094
  561MOL0     H77349   1.052   1.592  10.547 -0.4593  0.0669 -1.0366
  561MOL0     H77350   1.214   1.516  10.375 -2.1426 -1.4109  0.7435
  561MOL0     H77351   1.498   1.627  10.362  0.5357 -0.2031 -2.3300
  561MOL0     H77352   1.467   1.499  10.237  1.2712  0.3641 -1.3891
  561MOL0     H77353   1.680   1.526  10.210  0.5078 -1.2218 -0.6304
  561MOL0     H77354   1.713   1.575  10.374  2.3186 -1.6688  0.5298
  561MOL0     H77355   1.815   1.349  10.344 -0.3444 -1.3896  0.0506
  561MOL0     H77356   1.680   1.345  10.459 -1.0212  1.6124 -1.1879
  561MOL0     H77357   1.545   1.287  10.239 -0.0227  0.6761  1.2728
  561MOL0     H77358   1.701   1.247  10.158 -1.3269 -0.5890  0.5577
  561MOL0     H77359   1.724   1.061  10.339 -0.4035 -1.0618 -2.3655
  561MOL0     H77360   1.599   1.033  10.217  0.3982 -1.6413  0.8181
  561MOL0     H77361   1.552   1.123  10.494 -0.0907  1.9851 -0.1567
  561MOL0     H77362   1.424   1.156  10.368  1.0374  0.8171  0.2002
  561MOL0     H77363   1.557   0.881  10.404  0.9274  1.0426 -3.1191
  561MOL0     H77364   1.401   0.923  10.329  0.1391 -2.2725  0.9075
  561MOL0     H77365   1.318   0.982  10.566 -1.5017 -1.9588 -0.9910
  561MOL0     H77366   1.344   0.812  10.535 -2.1979  1.9918 -2.4722
  561MOL0     H77367   1.558   0.713  10.720  2.2106  0.2734 -0.7419
  561MOL0     H77368   1.685   0.784  10.993 -0.1003 -0.6130 -1.7652
  561MOL0     H77369   1.789   0.925  10.962  2.4981 -1.1467  0.0632
  561MOL0     H77370   1.794   0.692  10.764 -1.4658  1.9175 -0.2682
  561MOL0     H77371   1.904   0.823  10.776  1.2311 -1.1737  1.3893
  561MOL0     H77372   1.958   0.727  11.012  1.6812 -2.9630  1.4536
  561MOL0     H77373   1.881   0.579  10.971 -0.0465  1.1682  4.4463
  561MOL0     H77374   2.115   0.574  10.935 -0.2180  1.5305  0.9666
  561MOL0     H77375   2.027   0.527  10.781  1.7656 -1.2034  0.3471
  561MOL0     H77376   2.255   0.451  10.768  2.2167 -2.0677 -1.5790
  561MOL0     H77377   2.509   0.294  10.818 -1.4578  0.6576  0.8303
  561MOL0     H77378   2.570   0.343  10.661  2.9635  4.0708  2.2392
  561MOL0     H77379   2.394   0.302  10.678 -0.6828  0.5272  0.0449
  561MOL0     H77380   2.935   0.610  10.905  3.0363 -2.6036  0.7208
  561MOL0     H77381   3.170   0.637  10.917 -0.1522  1.8358  0.1195
  561MOL0     H77382   3.387   0.705  10.887 -2.0702  1.3679 -0.6211
  561MOL0     H77383   3.413   0.537  10.820  3.1699 -0.1164  0.1332
  561MOL0     H77384   3.570   0.794  10.763 -0.9620  0.0963 -1.8891
  561MOL0     H77385   3.634   0.660  10.847  0.3052  2.0589  0.3094
  561MOL0     H77386   3.710   0.649  10.617  1.3048  0.6397  4.8400
  561MOL0     H77387   3.539   0.641  10.562  1.2439 -2.2534 -2.0005
  561MOL0     H77388   3.505   0.421  10.637  0.4203  1.6229 -3.4696
  561MOL0     H77389   3.643   0.440  10.758  0.7920 -0.9569  0.5985
  561MOL0     H77390   3.661   0.401  10.445  1.2895 -0.3557 -0.2341
  561MOL0     H77391   3.788   0.413  10.547  0.5615 -0.0658 -1.3557
  561MOL0     H77392   3.661   0.177  10.463 -3.0555 -0.0703  0.6048
  561MOL0     H77393   3.592   0.197  10.616  0.4257  1.1193  0.9250
  561MOL0     H77394   3.856   0.253  10.697 -1.0752  0.5061  0.6455
  561MOL0     H77395   3.894   0.142  10.563  0.3259 -1.7343  0.6927
  561MOL0     H77396   3.878  -0.003  10.723 -0.2035  0.3647  0.7371
  561MOL0     H77397   3.699  -0.000  10.671 -1.7547  3.5208 -0.1462
  561MOL0     H77398   3.189   0.780  10.513  0.3283  0.4727  0.6540
  561MOL0     H77399   2.945   0.783  10.501  2.9182  0.5730 -1.3184
  561MOL0     H77400   2.561   0.831  10.735 -0.1061  0.7422 -0.2407
  561MOL0     H77401   2.328   0.866  10.738  0.4614  1.2531  3.9339
  561MOL0     H77402   1.513   1.484  10.683  0.3071  1.5282 -0.2907
  561MOL0     H77403   1.358   1.575  10.841  0.5474 -2.6160 -0.1185
  561MOL0     H77404   0.900   1.417  11.023  0.0081  0.1672 -0.3060
  561MOL0     H77405   0.743   1.481  11.207 -1.4213 -0.1908  0.2573
  561MOL0     H77406   0.678   1.870  11.398 -2.3090 -3.3707  1.9962
  561MOL0     H77407   0.638   1.900  11.224  0.9354 -0.5497  0.0380
  561MOL0     H77408   0.427   1.748  11.273  2.1930  0.4864 -1.5560
  561MOL0     H77409   0.431   1.904  11.343  0.0232  0.5702 -0.9521
  561MOL0     H77410   0.378   1.688  11.500 -0.0331 -0.0096  0.0554
  561MOL0     H77411   0.538   1.651  11.476  1.1717  0.3804 -2.7721
  561MOL0     H77412   0.410   1.839  11.658  1.3620  1.3497  1.0934
  561MOL0     H77413   0.533   1.921  11.561 -2.5331  0.4689 -1.8595
  561MOL0     H77414   0.809   1.697  11.749  0.4045  0.1101 -1.6897
  561MOL0     H77415   0.750   1.879  11.053  2.6202  0.4221  0.2598
  561MOL0     H77416   0.761   1.839  10.758  0.3223 -1.8447 -0.8007
  561MOL0     H77417   0.870   1.947  10.862  1.1882  0.3564 -0.2919
  561MOL0     H77418   0.938   1.831  10.769  0.7214 -0.0827  0.2069
  562MOL0     O77419   6.162   2.516  10.132  0.1899  0.0542 -0.0872
  562MOL0     C77420   6.075   2.521  10.215 -0.1352  0.1233  0.2438
  562MOL0     O77421   5.995   2.414  10.244  0.3089 -0.1541  0.3909
  562MOL0     C77422   6.019   2.300  10.176  0.3848  0.4275 -0.3239
  562MOL0     C77423   5.933   2.272  10.071  0.6785  0.3394 -0.1372
  562MOL0     C77424   5.945   2.148  10.007 -0.8797 -0.1016  0.1197
  562MOL0     C77425   6.039   2.055  10.051  0.0456  0.5974 -0.5676
  562MOL0     O77426   6.070   1.928   9.991 -0.1472 -0.4236 -0.3523
  562MOL0     C77427   6.053   1.936   9.854 -0.3936  0.1353 -0.1326
  562MOL0     C77428   6.126   1.824   9.787 -1.1034  0.7731  0.2642
  562MOL0     C77429   6.271   1.866   9.769 -0.3226 -0.0015  0.8031
  562MOL0     C77430   6.373   1.753   9.744  0.7313 -1.2059  0.1083
  562MOL0     C77431   6.491   1.797   9.662  0.0425  0.9261  0.6549
  562MOL0     C77432   6.546   1.683   9.575 -0.0181 -0.1559  0.1549
  562MOL0     C77433   6.637   1.588   9.639  0.6189  0.4149 -0.9884
  562MOL0     C77434   6.642   1.452   9.569  0.1372  0.4560 -0.1897
  562MOL0     N77435   6.531   1.357   9.595  0.2447  0.4116  0.2431
  562MOL0     C77436   6.412   1.387   9.658  1.0248 -0.3188 -0.6552
  562MOL0     C77437   6.332   1.280   9.638  0.0421 -0.2594  0.3543
  562MOL0     C77438   6.189   1.282   9.682 -0.2706  0.7147  0.6444
  562MOL0     C77439   6.080   1.265   9.576  1.0060 -0.1959  0.8530
  562MOL0     C77440   6.111   1.151   9.473 -0.2425 -0.1366  0.0837
  562MOL0     C77441   5.992   1.093   9.396  1.7580 -0.1507 -0.2272
  562MOL0     O77442   6.022   0.960   9.354 -0.6401 -0.3370 -0.3836
  562MOL0     C77443   6.057   0.926   9.228 -0.1056  0.9789  0.3308
  562MOL0     C77444   6.050   0.786   9.198  0.1177 -0.2477 -0.2817
  562MOL0     C77445   6.076   0.729   9.074  0.5917 -0.2396  0.0965
  562MOL0     C77446   6.063   0.573   9.065 -0.9152 -0.2021 -0.1357
  562MOL0     C77447   6.093   0.812   8.955 -0.6370 -0.4034 -0.7243
  562MOL0     C77448   6.107   0.765   8.813 -0.4314 -0.1938  0.1280
  562MOL0     O77449   6.182   0.657   8.789  0.6648 -0.1536 -0.5322
  562MOL0     C77450   6.203   0.618   8.657 -0.4658  0.0359 -0.7474
  562MOL0     C77451   6.323   0.536   8.643 -0.3679  0.3638  0.8791
  562MOL0     C77452   6.359   0.478   8.517 -0.2732  0.4442  0.4092
  562MOL0     C77453   6.277   0.506   8.401 -0.1124 -0.3893 -1.1708
  562MOL0     O77454   6.317   0.447   8.287  0.0162 -0.4336  0.4951
  562MOL0     C77455   6.324   0.541   8.175 -0.5532 -0.4243  0.1227
  562MOL0     C77456   6.431   0.489   8.074  0.0412  0.6181  0.3635
  562MOL0     C77457   6.415   0.345   8.021  0.9554 -0.1903 -0.0985
  562MOL0     C77458   6.544   0.297   7.964  0.4836  0.1839  0.1375
  562MOL0     C77459   6.532   0.146   7.918  0.0685  0.3140  0.3011
  562MOL0     C77460   6.664   0.091   7.858 -0.2969 -0.2210  0.5603
  562MOL0     C77461   6.723   0.163   7.736 -0.7032 -0.5945 -0.7418
  562MOL0     C77462   6.853   0.096   7.692 -0.1403  0.1430  0.1209
  562MOL0    Cl77463   6.931   0.172   7.536 -0.0485  0.1396 -0.0402
  562MOL0     C77464   6.165   0.602   8.417 -0.3984  0.5321  0.2913
  562MOL0     C77465   6.135   0.653   8.545 -0.2397  0.0946 -0.2389
  562MOL0     O77466   6.063   0.843   8.731  0.0554  0.0423 -0.0033
  562MOL0     C77467   6.106   0.951   8.978 -0.1829 -0.1241  0.3267
  562MOL0     C77468   6.090   1.003   9.110  0.4152 -0.7197  0.1165
  562MOL0     N77469   6.408   1.178   9.587 -0.2619  0.6604 -0.0303
  562MOL0     N77470   6.533   1.230   9.569  0.2983  0.9196 -0.1165
  562MOL0     C77471   6.116   2.085  10.161 -0.4902 -0.0173 -0.7139
  562MOL0     C77472   6.103   2.204  10.231 -0.4926 -0.2803  1.1952
  562MOL0     C77473   6.072   2.646  10.296  0.3147 -0.0388  0.6108
  562MOL0     C77474   5.971   2.661  10.389  0.7120 -0.3600  0.0907
  562MOL0     C77475   5.950   2.781  10.456  0.0381 -0.3906  0.2316
  562MOL0     C77476   6.029   2.898  10.428  1.5819 -0.5123 -0.2998
  562MOL0     O77477   5.989   3.013  10.487  0.1178 -0.6382  0.0259
  562MOL0     C77478   6.070   3.074  10.586 -0.1798  0.4499  0.4672
  562MOL0     C77479   6.014   3.067  10.727  0.2633 -0.9805 -0.2977
  562MOL0     C77480   6.020   2.930  10.782 -0.4947  0.2367  0.3268
  562MOL0     C77481   5.892   2.914  10.864 -0.3311  0.8067 -0.2393
  562MOL0     C77482   5.769   2.880  10.789 -0.2786 -0.1016  0.9127
  562MOL0     C77483   5.680   2.858  10.720 -0.6123  0.0128 -0.0212
  562MOL0     C77484   6.143   2.878  10.356 -0.9086  1.2528  0.1849
  562MOL0     C77485   6.165   2.756  10.288 -0.1594 -0.1524  0.5812
  562MOL0     C77486   6.293   2.752  10.197  0.4138 -0.5217  0.0267
  562MOL0     H77487   5.854   2.346  10.063  1.2444  1.2538  1.8889
  562MOL0     H77488   5.880   2.102   9.934 -0.3874  2.1151 -1.8371
  562MOL0     H77489   6.094   2.030   9.814  0.1584  1.2759  2.8578
  562MOL0     H77490   5.944   1.940   9.842 -0.7087  4.3787  2.1847
  562MOL0     H77491   6.116   1.732   9.846  2.0407 -2.0690 -3.1336
  562MOL0     H77492   6.075   1.806   9.691  0.9967 -1.0356 -0.5985
  562MOL0     H77493   6.270   1.915   9.672  3.5810 -5.2899 -2.4973
  562MOL0     H77494   6.302   1.939   9.844  2.5369 -0.2735  0.0215
  562MOL0     H77495   6.403   1.718   9.843 -0.1204  1.7351  1.5111
  562MOL0     H77496   6.328   1.663   9.700  1.8649 -0.2297 -3.3425
  562MOL0     H77497   6.567   1.845   9.723  3.9031 -2.9670 -0.5655
  562MOL0     H77498   6.456   1.877   9.596 -2.2586  0.0330  0.6901
  562MOL0     H77499   6.463   1.627   9.531 -2.4911  1.8168  2.0350
  562MOL0     H77500   6.600   1.731   9.492  0.4213  1.2638  1.2306
  562MOL0     H77501   6.625   1.564   9.745 -0.2981 -2.2715 -1.6273
  562MOL0     H77502   6.736   1.632   9.624  0.2450  0.1006 -6.2314
  562MOL0     H77503   6.654   1.458   9.461  1.7932 -1.4063 -0.1525
  562MOL0     H77504   6.730   1.396   9.601 -0.9653 -2.5853 -2.0750
  562MOL0     H77505   6.367   1.480   9.691 -1.9083 -1.2850 -1.6034
  562MOL0     H77506   6.163   1.373   9.735  0.3577  3.3038 -3.1021
  562MOL0     H77507   6.178   1.199   9.752 -0.2019 -1.0666 -1.3416
  562MOL0     H77508   5.987   1.234   9.625  0.8298 -2.2832 -0.6939
  562MOL0     H77509   6.047   1.356   9.524 -1.4979 -1.0453  0.8177
  562MOL0     H77510   6.187   1.193   9.405  0.4532 -0.6882  0.5017
  562MOL0     H77511   6.162   1.069   9.524  4.4911  1.0768 -2.0717
  562MOL0     H77512   5.908   1.072   9.463  1.0500 -0.4249 -1.1944
  562MOL0     H77513   5.957   1.152   9.311  0.5087  1.0662  1.0621
  562MOL0     H77514   6.015   0.723   9.279 -1.9743  1.1509 -0.0365
  562MOL0     H77515   6.154   0.513   9.072 -0.8826  0.0650  3.4162
  562MOL0     H77516   6.007   0.543   8.976 -2.2770 -2.1525  1.3071
  562MOL0     H77517   5.994   0.542   9.144  0.5390 -1.4421  0.6944
  562MOL0     H77518   6.399   0.512   8.717 -0.2840 -0.1547  0.6300
  562MOL0     H77519   6.446   0.413   8.515 -1.6952 -1.5022 -0.4690
  562MOL0     H77520   6.229   0.559   8.123 -1.0262  0.4803  1.2540
  562MOL0     H77521   6.352   0.643   8.206  2.5212 -0.8024 -1.0368
  562MOL0     H77522   6.444   0.538   7.977 -0.1772 -1.2271 -0.6396
  562MOL0     H77523   6.532   0.498   8.114  0.3932 -1.3452 -0.0018
  562MOL0     H77524   6.337   0.345   7.944  0.5162 -2.3517  0.2875
  562MOL0     H77525   6.385   0.268   8.092  4.8762 -0.5393  1.3617
  562MOL0     H77526   6.621   0.301   8.042 -1.7748 -0.9984  2.5913
  562MOL0     H77527   6.574   0.356   7.877  1.1200  1.1442  0.9828
  562MOL0     H77528   6.521   0.079   8.004  5.5624 -2.5931 -0.8081
  562MOL0     H77529   6.445   0.129   7.855 -1.1337  0.6555  1.8089
  562MOL0     H77530   6.646  -0.015   7.842  1.1084 -0.2722 -0.9539
  562MOL0     H77531   6.743   0.095   7.934 -1.1225 -1.4808  1.5381
  562MOL0     H77532   6.756   0.264   7.761  0.2094 -1.6260  2.7760
  562MOL0     H77533   6.650   0.169   7.654 -1.5847  0.6786  0.0981
  562MOL0     H77534   6.830  -0.008   7.667  0.0491  0.4507 -1.4009
  562MOL0     H77535   6.927   0.094   7.774 -0.4721  0.3405  0.4271
  562MOL0     H77536   6.104   0.628   8.331  0.4578 -0.0631 -0.5163
  562MOL0     H77537   6.037   0.695   8.567 -0.4535 -1.5641  2.4555
  562MOL0     H77538   6.124   1.017   8.895  1.5288 -0.0022  0.7729
  562MOL0     H77539   6.095   1.111   9.122 -0.4425 -0.7153  0.4885
  562MOL0     H77540   6.186   2.016  10.207 -0.1595  2.6614  3.4216
  562MOL0     H77541   6.161   2.218  10.322  2.9147 -0.4469 -0.7611
  562MOL0     H77542   5.894   2.586  10.405 -1.1984  1.7717  1.4559
  562MOL0     H77543   5.869   2.796  10.527  0.2735  3.1864 -0.0422
  562MOL0     H77544   6.168   3.028  10.575 -0.0317  0.9730 -0.5182
  562MOL0     H77545   6.081   3.182  10.569 -3.0054  1.3400  3.2469
  562MOL0     H77546   5.914   3.110  10.737 -0.4393 -2.7727  0.8503
  562MOL0     H77547   6.083   3.130  10.784  0.0554  0.0300 -1.1202
  562MOL0     H77548   6.015   2.850  10.708 -1.0852 -1.6051  2.2437
  562MOL0     H77549   6.109   2.909  10.842 -0.8844  1.3172  1.3222
  562MOL0     H77550   5.873   3.001  10.927  2.0350 -0.6133  2.6800
  562MOL0     H77551   5.908   2.837  10.941 -0.1491 -1.9176 -2.7962
  562MOL0     H77552   5.598   2.830  10.657 -1.0598  0.4072  0.3704
  562MOL0     H77553   6.212   2.960  10.340  2.2115 -1.7566 -4.1064
  562MOL0     H77554   6.272   2.759  10.090  2.1638  0.4131 -0.2866
  562MOL0     H77555   6.370   2.828  10.216  0.0287 -0.8769  3.8111
  562MOL0     H77556   6.338   2.654  10.215 -1.5122 -1.8999 -2.1290
  563MOL0     O77557  10.072   6.392   2.466 -0.5277  0.3259  0.1825
  563MOL0     C77558   9.957   6.353   2.445  0.0828  0.7235  0.2284
  563MOL0     O77559   9.895   6.257   2.520 -0.5206  0.8179  0.1539
  563MOL0     C77560   9.958   6.217   2.632  0.3844  1.0233  0.3438
  563MOL0     C77561  10.044   6.117   2.624 -0.6199  1.3490  0.3002
  563MOL0     C77562  10.116   6.073   2.739  0.1308  0.0806 -0.4638
  563MOL0     C77563  10.086   6.140   2.864  1.1931  0.5246 -0.6139
  563MOL0     O77564  10.135   6.098   2.985 -0.3052  0.0471  0.0491
  563MOL0     C77565  10.248   6.168   3.030 -0.4951 -0.2657  0.5027
  563MOL0     C77566  10.322   6.084   3.134 -0.7667 -0.5399 -0.7297
  563MOL0     C77567  10.443   6.161   3.191 -0.9523  0.5156  0.3287
  563MOL0     C77568  10.550   6.070   3.248  1.2415 -1.3460 -0.1653
  563MOL0     C77569  10.666   6.143   3.300  0.8428  0.7232 -0.1835
  563MOL0     C77570  10.742   6.233   3.205  1.1717  0.1969  0.3484
  563MOL0     C77571  10.864   6.299   3.274 -0.2450 -0.3969 -0.3682
  563MOL0     C77572  10.979   6.203   3.293 -1.5631  0.4799  1.1351
  563MOL0     N77573  11.098   6.276   3.347 -0.7292  0.3411  0.2921
  563MOL0     C77574  11.111   6.415   3.372  0.8733  0.1156 -0.7427
  563MOL0     C77575  11.239   6.435   3.402 -0.0391  1.2115  1.3710
  563MOL0     C77576  11.284   6.574   3.424 -0.7337 -0.6642  0.4916
  563MOL0     C77577  11.396   6.586   3.520 -0.3564  0.7148 -0.0963
  563MOL0     C77578  11.448   6.736   3.518 -0.3175 -0.2693  0.0715
  563MOL0     C77579  11.605   6.737   3.521 -0.5099  0.0253  0.2702
  563MOL0     O77580  11.637   6.874   3.538 -0.3745  0.6332  0.2756
  563MOL0     C77581  11.774   6.899   3.552  0.4165  0.4100  0.0363
  563MOL0     C77582  11.805   7.026   3.595  0.3296 -0.9494  0.2326
  563MOL0     C77583  11.933   7.077   3.617  0.4112 -0.0603 -0.5836
  563MOL0     C77584  11.957   7.225   3.655 -0.3224 -0.0136  1.0935
  563MOL0     C77585  12.048   6.997   3.578  0.5279  0.1126 -0.6177
  563MOL0     C77586  12.192   7.044   3.602 -0.2409  0.1408  0.1916
  563MOL0     O77587  12.265   7.100   3.497  0.6583  0.2716 -0.8718
  563MOL0     C77588  12.374   7.171   3.509 -0.5424 -0.4621 -0.9567
  563MOL0     C77589  12.495   7.127   3.445  0.3866 -0.3588  0.3272
  563MOL0     C77590  12.603   7.211   3.448  0.8616 -0.5906  0.4589
  563MOL0     C77591  12.614   7.335   3.523 -0.4819  0.1613  0.4224
  563MOL0     O77592  12.724   7.404   3.519 -0.0281  0.4150  0.0771
  563MOL0     C77593  12.714   7.552   3.533  0.4907 -0.5762  0.0459
  563MOL0     C77594  12.848   7.609   3.510 -0.0727  0.2200 -0.5843
  563MOL0     C77595  12.945   7.552   3.617  0.1472  0.6239 -0.8773
  563MOL0     C77596  13.082   7.587   3.561  0.4881  0.4634  0.1779
  563MOL0     C77597  13.186   7.568   3.653 -0.1768  1.4507 -1.7503
  563MOL0     C77598  13.200   7.411   3.683 -0.4929 -0.2548  0.3335
  563MOL0     C77599  13.313   7.379   3.774 -0.8583  0.4058 -0.0174
  563MOL0     C77600  13.446   7.428   3.715 -0.1186 -0.0039 -0.1906
  563MOL0    Cl77601  13.571   7.453   3.838 -0.2055 -0.1900 -0.4207
  563MOL0     C77602  12.496   7.368   3.595  0.4028  0.1917  0.1305
  563MOL0     C77603  12.383   7.285   3.590  0.9425 -0.2881  0.9574
  563MOL0     O77604  12.238   7.028   3.715 -0.3338 -0.0178 -1.0259
  563MOL0     C77605  12.020   6.867   3.537  0.5010 -0.5607  0.6768
  563MOL0     C77606  11.884   6.810   3.527 -0.4830 -1.5252  0.3982
  563MOL0     N77607  11.305   6.317   3.390 -0.1583 -0.2519  0.4396
  563MOL0     N77608  11.227   6.224   3.351  0.3435  0.2079  0.5472
  563MOL0     C77609   9.979   6.230   2.871 -0.9303  0.2126 -0.5374
  563MOL0     C77610   9.918   6.275   2.751 -0.0308  0.7683 -0.1683
  563MOL0     C77611   9.893   6.414   2.327 -0.4839  0.0673  0.3219
  563MOL0     C77612   9.776   6.336   2.275 -0.2082 -0.3560 -0.5939
  563MOL0     C77613   9.706   6.384   2.160  0.4383  0.2768 -0.2134
  563MOL0     C77614   9.758   6.497   2.091 -0.6883  0.0198  0.4379
  563MOL0     O77615   9.729   6.526   1.965  0.3654 -0.4738 -0.3385
  563MOL0     C77616   9.601   6.488   1.921  0.5857 -0.7115  0.1359
  563MOL0     C77617   9.620   6.353   1.850  0.9405 -0.5354  0.4475
  563MOL0     C77618   9.484   6.294   1.824  0.1028  1.0854 -0.7699
  563MOL0     C77619   9.376   6.278   1.926 -0.3247 -0.4251  0.0989
  563MOL0     C77620   9.409   6.168   2.011 -0.8493 -0.1346  0.0585
  563MOL0     C77621   9.406   6.058   2.072 -0.6983  0.8661  0.7406
  563MOL0     C77622   9.863   6.572   2.144  0.6179  0.3457 -0.3236
  563MOL0     C77623   9.932   6.535   2.260  0.3069 -0.3660  0.2164
  563MOL0     C77624  10.040   6.627   2.294 -0.1126 -0.2793  0.2764
  563MOL0     H77625  10.075   6.076   2.528  0.0282  0.7908  0.7410
  563MOL0     H77626  10.198   6.004   2.727  1.3110  1.2242  0.6840
  563MOL0     H77627  10.227   6.266   3.072 -0.1396  0.4357 -0.9024
  563MOL0     H77628  10.309   6.170   2.939 -1.3590  1.7816 -0.0919
  563MOL0     H77629  10.261   6.045   3.217 -0.3288 -0.7404 -0.4982
  563MOL0     H77630  10.369   6.006   3.074  0.8106  1.0653 -1.6871
  563MOL0     H77631  10.492   6.211   3.107 -1.8971 -1.0190 -1.2117
  563MOL0     H77632  10.406   6.236   3.262 -1.4357  1.8189 -1.2204
  563MOL0     H77633  10.496   6.013   3.324 -0.9338 -2.7134 -2.5372
  563MOL0     H77634  10.576   5.993   3.174 -1.8335 -0.9794 -1.8033
  563MOL0     H77635  10.734   6.071   3.346  3.3880  0.1016 -4.4144
  563MOL0     H77636  10.623   6.207   3.378 -4.1995  1.0189 -2.7450
  563MOL0     H77637  10.774   6.174   3.119 -1.0411  1.6818 -1.6426
  563MOL0     H77638  10.682   6.311   3.156  2.8754  0.6715 -1.1188
  563MOL0     H77639  10.840   6.348   3.369  1.2405  2.8566 -1.5187
  563MOL0     H77640  10.902   6.375   3.205 -0.7930 -0.8545 -1.1894
  563MOL0     H77641  10.947   6.125   3.363 -3.3777  1.2774  1.2358
  563MOL0     H77642  11.002   6.148   3.201  2.7325  0.3400  2.0852
  563MOL0     H77643  11.031   6.486   3.355  0.8914  0.0774 -0.9956
  563MOL0     H77644  11.197   6.632   3.454 -0.9784  1.5560 -3.7068
  563MOL0     H77645  11.309   6.617   3.326 -3.2469  0.0241  0.0614
  563MOL0     H77646  11.358   6.547   3.615 -4.7739  0.9248 -1.5565
  563MOL0     H77647  11.479   6.528   3.478 -1.0885 -1.8599  1.7293
  563MOL0     H77648  11.413   6.777   3.423 -1.3162 -3.3762 -1.0137
  563MOL0     H77649  11.403   6.794   3.600  0.1053  2.5255 -1.5409
  563MOL0     H77650  11.644   6.679   3.605  0.8780  3.1362  1.9531
  563MOL0     H77651  11.640   6.702   3.423 -2.7694  1.9971 -1.3818
  563MOL0     H77652  11.723   7.096   3.606  0.5854 -0.3960 -1.1434
  563MOL0     H77653  11.865   7.274   3.688 -0.1870  2.7448 -2.0791
  563MOL0     H77654  11.987   7.272   3.560  1.2298 -2.5935  0.2067
  563MOL0     H77655  12.032   7.243   3.732 -3.1523  2.8238  3.4685
  563MOL0     H77656  12.486   7.032   3.393 -0.2781 -2.6929  4.2461
  563MOL0     H77657  12.690   7.173   3.395  0.9002 -0.8492  0.7038
  563MOL0     H77658  12.638   7.598   3.469  0.3982 -0.0535  0.5251
  563MOL0     H77659  12.682   7.585   3.632  1.8704  0.8209  0.0684
  563MOL0     H77660  12.883   7.587   3.408  1.3305 -1.2311  0.1664
  563MOL0     H77661  12.851   7.718   3.522  0.4210  0.1005  0.4522
  563MOL0     H77662  12.936   7.443   3.628 -0.8287  0.9106  1.9708
  563MOL0     H77663  12.912   7.593   3.712 -3.2347 -2.7089 -0.3639
  563MOL0     H77664  13.089   7.693   3.532  1.4146  0.2486 -0.4328
  563MOL0     H77665  13.097   7.531   3.468  0.6134  1.2428 -0.2894
  563MOL0     H77666  13.269   7.620   3.603  2.1140 -0.8392 -0.5380
  563MOL0     H77667  13.165   7.602   3.755  0.2244 -0.9149 -0.8063
  563MOL0     H77668  13.201   7.356   3.589 -0.6934  1.8515 -0.9701
  563MOL0     H77669  13.114   7.376   3.740  0.5629 -0.1378  2.0900
  563MOL0     H77670  13.323   7.270   3.776 -0.0699  0.4207 -1.5989
  563MOL0     H77671  13.295   7.409   3.877  2.1003 -0.0361  0.7135
  563MOL0     H77672  13.447   7.517   3.651  4.3108  0.0680 -0.3614
  563MOL0     H77673  13.484   7.357   3.641 -1.9479  0.3599 -1.5522
  563MOL0     H77674  12.513   7.449   3.665  3.0286  0.6035 -0.8565
  563MOL0     H77675  12.298   7.302   3.655 -2.7802 -0.3619 -3.3416
  563MOL0     H77676  12.091   6.791   3.505 -0.0020  0.0098 -2.0079
  563MOL0     H77677  11.873   6.702   3.515  1.3729 -1.5953 -1.1811
  563MOL0     H77678   9.939   6.275   2.962  0.0804  0.9540 -0.4437
  563MOL0     H77679   9.845   6.355   2.752 -2.3539 -1.2310 -0.1348
  563MOL0     H77680   9.724   6.262   2.336 -1.9497  1.8958  0.8343
  563MOL0     H77681   9.625   6.321   2.124  2.7140 -1.7914 -2.1438
  563MOL0     H77682   9.523   6.490   1.998 -0.3327  4.1495 -0.5646
  563MOL0     H77683   9.564   6.558   1.845  2.0138 -2.0784 -1.9388
  563MOL0     H77684   9.680   6.282   1.907  0.8649 -0.1333  1.0397
  563MOL0     H77685   9.660   6.364   1.749 -2.2050  2.6432 -0.6767
  563MOL0     H77686   9.432   6.343   1.741 -2.5804 -0.6315 -0.2159
  563MOL0     H77687   9.503   6.196   1.779  3.1593  0.3726  1.7360
  563MOL0     H77688   9.283   6.245   1.880  0.4833  0.4293 -2.3269
  563MOL0     H77689   9.363   6.366   1.989 -0.8839 -0.3775 -0.0793
  563MOL0     H77690   9.403   5.968   2.130  3.6695  0.8651  1.3258
  563MOL0     H77691   9.892   6.661   2.089  0.3029  0.2296 -0.6840
  563MOL0     H77692  10.125   6.614   2.227 -0.1466  3.0061 -0.5578
  563MOL0     H77693  10.007   6.730   2.276 -0.2186  0.2375  2.9604
  563MOL0     H77694  10.083   6.626   2.395 -1.3586 -0.4019  0.8221
  564MOL0     O77695   0.035   3.987   1.336  0.4369  0.4606 -0.4081
  564MOL0     C77696  -0.058   4.065   1.356 -0.0749 -0.5143 -1.1990
  564MOL0     O77697  -0.189   4.032   1.407  0.1492  0.2468  0.1417
  564MOL0     C77698  -0.223   3.906   1.453 -0.6620  0.4750  0.5684
  564MOL0     C77699  -0.189   3.787   1.388 -0.6765  1.0033  0.2548
  564MOL0     C77700  -0.245   3.663   1.432  0.3428  0.8487 -0.3163
  564MOL0     C77701  -0.346   3.666   1.539  0.3178 -1.8526  0.0913
  564MOL0     O77702  -0.405   3.548   1.572  0.8800  0.2239 -0.4403
  564MOL0     C77703  -0.509   3.540   1.662 -0.7858  0.0020 -0.0653
  564MOL0     C77704  -0.478   3.405   1.719  0.0096  0.3217  0.7045
  564MOL0     C77705  -0.553   3.385   1.844  0.0765  0.3013  0.3583
  564MOL0     C77706  -0.554   3.241   1.870  0.5801  0.4450 -0.1610
  564MOL0     C77707  -0.668   3.188   1.969 -0.2432  0.0742 -0.3955
  564MOL0     C77708  -0.680   3.033   1.964 -0.4037  0.1226 -0.5185
  564MOL0     C77709  -0.551   2.966   2.006  0.3540 -0.3130  0.8801
  564MOL0     C77710  -0.552   2.814   2.040 -0.1454  0.1892 -0.0243
  564MOL0     N77711  -0.416   2.773   2.084  0.4949  0.3094 -0.5204
  564MOL0     C77712  -0.397   2.679   2.186 -0.1038 -0.4621 -0.0049
  564MOL0     C77713  -0.257   2.677   2.193  0.3135 -0.0823  0.4457
  564MOL0     C77714  -0.177   2.598   2.301  0.6674  0.3133 -0.5248
  564MOL0     C77715  -0.114   2.463   2.263  0.1665 -0.6963 -0.3368
  564MOL0     C77716  -0.205   2.383   2.170 -0.3132  0.5100 -0.2464
  564MOL0     C77717  -0.127   2.264   2.124 -0.5872  0.1777  0.2391
  564MOL0     O77718  -0.042   2.282   2.000 -0.2804 -0.9848 -0.2112
  564MOL0     C77719   0.025   2.183   1.937  0.3073  0.9472  0.7593
  564MOL0     C77720   0.119   2.218   1.841 -0.8667 -0.6724  0.4024
  564MOL0     C77721   0.199   2.129   1.776 -0.1356  0.6063 -0.5124
  564MOL0     C77722   0.308   2.183   1.676  1.0213  0.0798  0.2848
  564MOL0     C77723   0.185   1.992   1.806  0.6148 -0.5282  0.0831
  564MOL0     C77724   0.278   1.884   1.759 -0.2889 -0.3596 -0.7847
  564MOL0     O77725   0.232   1.752   1.768  0.5434  0.2277  0.2001
  564MOL0     C77726   0.322   1.642   1.771 -0.2865  0.4502  0.5698
  564MOL0     C77727   0.288   1.515   1.725  0.1765  0.2907 -1.4903
  564MOL0     C77728   0.374   1.406   1.732  0.2038 -0.1180 -0.0442
  564MOL0     C77729   0.506   1.417   1.771 -0.2792  0.2902  0.0142
  564MOL0     O77730   0.581   1.306   1.783  0.0630 -0.3158 -0.7559
  564MOL0     C77731   0.658   1.283   1.899 -0.2365 -0.2257 -0.7549
  564MOL0     C77732   0.794   1.223   1.864  0.5431 -0.2417  0.0292
  564MOL0     C77733   0.872   1.168   1.982  1.3964  0.1649 -0.7128
  564MOL0     C77734   0.877   1.261   2.106  0.0933 -0.3076  1.5830
  564MOL0     C77735   0.765   1.248   2.211 -0.6130 -0.7405  0.9271
  564MOL0     C77736   0.813   1.284   2.351  0.4245 -0.0914  0.8603
  564MOL0     C77737   0.713   1.346   2.443  0.5926 -0.9161  0.0665
  564MOL0     C77738   0.776   1.363   2.584  0.0347  0.2763  0.5475
  564MOL0    Cl77739   0.730   1.515   2.654  0.0023  0.1194  0.2374
  564MOL0     C77740   0.549   1.545   1.810  0.6320 -0.7921  0.4200
  564MOL0     C77741   0.456   1.649   1.817 -0.6735  0.6986  0.7108
  564MOL0     O77742   0.386   1.913   1.712 -0.1301  0.5010 -0.2806
  564MOL0     C77743   0.088   1.958   1.907  0.3315  0.1025 -0.2091
  564MOL0     C77744   0.003   2.048   1.970 -0.1567 -0.4163  1.1450
  564MOL0     N77745  -0.202   2.775   2.103 -0.5606  0.0697 -0.5194
  564MOL0     N77746  -0.302   2.829   2.049  0.8899 -0.4353 -0.0885
  564MOL0     C77747  -0.367   3.792   1.604  0.6843 -0.1361 -0.0437
  564MOL0     C77748  -0.302   3.906   1.571 -0.6927  1.0318 -0.0939
  564MOL0     C77749  -0.041   4.211   1.320  0.4169 -1.3762 -0.8713
  564MOL0     C77750  -0.134   4.294   1.391  0.4428  0.0813  0.0920
  564MOL0     C77751  -0.129   4.428   1.388 -0.1903  0.1059 -0.1030
  564MOL0     C77752  -0.021   4.492   1.335 -0.8058  1.0805  0.4425
  564MOL0     O77753  -0.000   4.626   1.349  0.3625 -0.1943 -0.4973
  564MOL0     C77754   0.094   4.707   1.280 -1.2022 -0.2635  0.6905
  564MOL0     C77755   0.068   4.738   1.133  0.8967 -0.0230 -0.1420
  564MOL0     C77756  -0.044   4.848   1.117 -0.4333  0.2936 -1.2078
  564MOL0     C77757  -0.142   4.824   0.997  0.0436  1.2992 -1.3182
  564MOL0     C77758  -0.085   4.836   0.868 -0.2646 -0.1958  0.7185
  564MOL0     C77759  -0.034   4.867   0.763 -0.9574  0.0202 -0.2052
  564MOL0     C77760   0.066   4.420   1.246 -0.1091 -0.9066 -0.6447
  564MOL0     C77761   0.050   4.277   1.248 -0.1075 -0.0664  0.6479
  564MOL0     C77762   0.127   4.209   1.141 -1.2224  0.6357  0.7436
  564MOL0     H77763  -0.112   3.787   1.311  0.7915  1.4677  1.6676
  564MOL0     H77764  -0.225   3.572   1.376 -1.6852  1.1890 -1.6711
  564MOL0     H77765  -0.601   3.527   1.604  0.6476 -4.6504 -1.7373
  564MOL0     H77766  -0.516   3.617   1.740 -2.3337  0.2807 -0.4299
  564MOL0     H77767  -0.500   3.327   1.646 -2.3627  1.1124  0.4989
  564MOL0     H77768  -0.373   3.403   1.750  0.2474  2.4063  0.1781
  564MOL0     H77769  -0.506   3.437   1.928  2.8307  3.2817 -2.7432
  564MOL0     H77770  -0.656   3.423   1.842  0.7684  2.2572 -0.2285
  564MOL0     H77771  -0.574   3.187   1.777 -1.0665 -3.1375  2.0557
  564MOL0     H77772  -0.458   3.215   1.916 -1.4187  1.6295  5.5750
  564MOL0     H77773  -0.770   3.222   1.945 -0.3745  3.3453  3.6056
  564MOL0     H77774  -0.652   3.220   2.072 -3.9136  0.2349  0.2473
  564MOL0     H77775  -0.753   3.002   2.039  1.1439  0.3752  1.1445
  564MOL0     H77776  -0.705   2.998   1.863 -2.3038 -2.4270  0.6853
  564MOL0     H77777  -0.520   3.017   2.098 -0.3503  0.3694  0.7455
  564MOL0     H77778  -0.467   2.970   1.935 -1.1710 -2.1131 -1.1657
  564MOL0     H77779  -0.623   2.798   2.122 -2.1575 -0.8967 -1.8676
  564MOL0     H77780  -0.575   2.772   1.941  1.6535  0.1889 -0.4784
  564MOL0     H77781  -0.468   2.627   2.249  1.1473 -1.4471  0.6334
  564MOL0     H77782  -0.255   2.568   2.371 -1.1966  0.1212 -2.6126
  564MOL0     H77783  -0.106   2.664   2.353 -0.4225  1.9508 -1.0534
  564MOL0     H77784  -0.023   2.481   2.204  0.5874 -2.3221 -0.2355
  564MOL0     H77785  -0.083   2.406   2.351 -0.9040  0.0268  0.5266
  564MOL0     H77786  -0.293   2.347   2.223  1.7225 -0.9040  2.4404
  564MOL0     H77787  -0.237   2.446   2.087  0.3218  0.6550 -0.3890
  564MOL0     H77788  -0.077   2.219   2.210 -1.4724  0.4461  0.9030
  564MOL0     H77789  -0.204   2.196   2.085  1.9329 -1.4247 -2.4132
  564MOL0     H77790   0.125   2.323   1.814 -1.9834 -0.3676  1.2330
  564MOL0     H77791   0.310   2.292   1.671 -1.6359  0.1333 -0.8678
  564MOL0     H77792   0.285   2.151   1.574  0.8319  2.6708 -0.5526
  564MOL0     H77793   0.415   2.161   1.690  1.3720  1.5986  0.1601
  564MOL0     H77794   0.184   1.498   1.700 -0.1577  1.1449 -0.7017
  564MOL0     H77795   0.334   1.309   1.705  1.0619 -1.2197  2.4050
  564MOL0     H77796   0.672   1.380   1.946 -0.8529 -1.1411  1.4437
  564MOL0     H77797   0.602   1.217   1.967 -0.5678  0.3586 -0.4574
  564MOL0     H77798   0.775   1.134   1.803 -1.4621 -0.1466  0.4296
  564MOL0     H77799   0.856   1.297   1.812  0.3681  0.0835  0.2838
  564MOL0     H77800   0.974   1.151   1.948  2.0536  1.6478  0.4480
  564MOL0     H77801   0.830   1.070   2.008  2.3345 -0.7500 -2.4421
  564MOL0     H77802   0.881   1.367   2.079  1.6915 -1.2108 -2.6837
  564MOL0     H77803   0.980   1.235   2.135  0.4392  1.8508  2.4144
  564MOL0     H77804   0.676   1.309   2.189 -0.2386 -0.0904  1.1774
  564MOL0     H77805   0.736   1.143   2.224 -2.1378 -0.3903  0.5538
  564MOL0     H77806   0.888   1.364   2.350 -2.1943  2.5235  1.1734
  564MOL0     H77807   0.844   1.190   2.399  0.3724  0.7668  2.6549
  564MOL0     H77808   0.636   1.269   2.427  2.0505 -1.8050 -3.4358
  564MOL0     H77809   0.679   1.443   2.407  2.1898 -0.0671  0.7595
  564MOL0     H77810   0.885   1.365   2.597 -0.1093  0.1628  2.0075
  564MOL0     H77811   0.747   1.277   2.645 -0.0148 -1.8461 -2.2802
  564MOL0     H77812   0.646   1.564   1.856  0.5184  2.3367 -0.3997
  564MOL0     H77813   0.486   1.745   1.859 -2.6285  0.9681  1.6028
  564MOL0     H77814   0.084   1.849   1.916  3.2078 -0.4292 -3.4514
  564MOL0     H77815  -0.076   2.021   2.039  0.7878  0.4097  2.5972
  564MOL0     H77816  -0.436   3.803   1.687  0.0252 -0.2864 -0.5578
  564MOL0     H77817  -0.323   3.997   1.627 -1.5369 -1.0108  3.1192
  564MOL0     H77818  -0.211   4.252   1.454  1.5967 -0.7595  0.9814
  564MOL0     H77819  -0.202   4.476   1.452 -0.1438  3.3725 -2.2780
  564MOL0     H77820   0.097   4.802   1.334 -0.2202 -0.7598  1.5519
  564MOL0     H77821   0.191   4.657   1.290 -1.0622  0.2170  1.7532
  564MOL0     H77822   0.044   4.651   1.071 -0.3937 -1.3365  2.0842
  564MOL0     H77823   0.157   4.776   1.082 -0.3792  3.5509 -0.0554
  564MOL0     H77824  -0.100   4.853   1.211  2.6267  1.8906  0.6443
  564MOL0     H77825   0.003   4.946   1.109  3.6931 -1.5865 -2.6644
  564MOL0     H77826  -0.224   4.894   1.016 -1.8810 -1.1132 -0.1854
  564MOL0     H77827  -0.174   4.721   1.012  2.1130  0.7446 -0.3260
  564MOL0     H77828   0.026   4.895   0.679 -0.7993 -1.1111 -0.4740
  564MOL0     H77829   0.144   4.468   1.188  0.5381 -0.3588  0.6390
  564MOL0     H77830   0.088   4.238   1.043  2.1176 -0.2953 -1.0003
  564MOL0     H77831   0.235   4.219   1.152 -1.1088 -1.1120  1.6014
  564MOL0     H77832   0.123   4.099   1.145  0.7945  0.4766 -0.1911
  565MOL0     O77833   0.292   9.093   8.348  1.1685 -0.0182 -0.7654
  565MOL0     C77834   0.296   9.073   8.474  0.1497 -0.6397 -0.4469
  565MOL0     O77835   0.369   9.147   8.568  0.5308  0.5655  0.0057
  565MOL0     C77836   0.414   9.277   8.540 -0.2593 -0.2844  0.7532
  565MOL0     C77837   0.467   9.319   8.418  0.0118 -0.1785 -0.1053
  565MOL0     C77838   0.517   9.446   8.404 -0.4358  0.1521  0.3383
  565MOL0     C77839   0.509   9.541   8.514  0.9234  1.1072  0.4255
  565MOL0     O77840   0.551   9.671   8.496 -0.4650 -0.4060  0.5118
  565MOL0     C77841   0.538   9.766   8.605  0.5886 -0.1456  0.0276
  565MOL0     C77842   0.412   9.846   8.583  0.0746  0.2744  0.8598
  565MOL0     C77843   0.427   9.916   8.449  0.5625 -0.0340  0.5308
  565MOL0     C77844   0.303  10.006   8.409  0.0352 -0.5415 -0.3835
  565MOL0     C77845   0.262  10.008   8.252  0.0890  0.0241 -0.6387
  565MOL0     C77846   0.378  10.045   8.164  0.1588  0.5870 -0.8633
  565MOL0     C77847   0.343  10.044   8.014 -0.2685  0.8760  0.6637
  565MOL0     C77848   0.338   9.897   7.964  0.4569 -0.5769 -0.7155
  565MOL0     N77849   0.334   9.880   7.811 -0.6713  1.0089 -0.1470
  565MOL0     C77850   0.230   9.912   7.731  0.4323 -0.9311 -0.1491
  565MOL0     C77851   0.263   9.850   7.609 -0.0892 -0.4518 -0.0930
  565MOL0     C77852   0.181   9.857   7.492  0.1892 -0.4274 -0.6032
  565MOL0     C77853   0.227   9.949   7.374 -0.2461  0.0261 -0.1975
  565MOL0     C77854   0.379   9.920   7.328 -0.0536  0.9404  0.2416
  565MOL0     C77855   0.409   9.770   7.296 -0.4747 -0.1833 -0.4892
  565MOL0     O77856   0.303   9.723   7.207 -0.4920  0.4530  0.2516
  565MOL0     C77857   0.354   9.689   7.080 -0.4358  0.0648  0.6436
  565MOL0     C77858   0.393   9.791   6.987  0.1385 -0.1176 -0.4445
  565MOL0     C77859   0.448   9.763   6.860  0.3836 -0.5360  0.4174
  565MOL0     C77860   0.481   9.878   6.764  0.5944  0.6418  0.2794
  565MOL0     C77861   0.450   9.622   6.822  0.5374  0.1976  0.6417
  565MOL0     C77862   0.517   9.565   6.699  0.1551  0.5911  0.9043
  565MOL0     O77863   0.574   9.653   6.616  0.3028 -0.4330  0.2254
  565MOL0     C77864   0.613   9.606   6.489 -0.0855  0.2261 -0.2560
  565MOL0     C77865   0.522   9.624   6.374 -0.0135  0.8277 -0.3038
  565MOL0     C77866   0.566   9.572   6.254 -0.7824  0.6583  0.0514
  565MOL0     C77867   0.688   9.512   6.235  0.3030  0.0049 -0.2449
  565MOL0     O77868   0.749   9.467   6.118  0.9270 -0.3132 -0.4624
  565MOL0     C77869   0.667   9.436   6.002  0.5362 -0.4960 -0.5055
  565MOL0     C77870   0.747   9.418   5.874 -0.6336 -0.1238  0.2910
  565MOL0     C77871   0.783   9.546   5.799  0.5948  0.1901 -0.1244
  565MOL0     C77872   0.829   9.507   5.655  0.1513 -0.8906  0.6898
  565MOL0     C77873   0.921   9.614   5.592 -0.3443  0.1565  0.3808
  565MOL0     C77874   0.978   9.573   5.453  0.2706  0.7547 -1.0865
  565MOL0     C77875   1.086   9.472   5.454  0.5494  0.7841 -1.1673
  565MOL0     C77876   1.173   9.459   5.319  0.5346  0.1795 -0.8062
  565MOL0    Cl77877   1.064   9.424   5.190 -0.3614  0.1950  0.3601
  565MOL0     C77878   0.763   9.482   6.350 -1.0840  0.1778  0.8620
  565MOL0     C77879   0.729   9.526   6.476 -0.3253 -0.4784  0.9482
  565MOL0     O77880   0.530   9.439   6.693 -0.2862 -0.4011 -0.2168
  565MOL0     C77881   0.406   9.522   6.911  0.1530  0.3107 -0.3169
  565MOL0     C77882   0.361   9.562   7.042 -0.2258 -0.0165 -0.1400
  565MOL0     N77883   0.392   9.799   7.621 -0.1782 -0.3250  0.0691
  565MOL0     N77884   0.425   9.805   7.739 -0.3817 -0.7662 -0.0696
  565MOL0     C77885   0.451   9.499   8.635 -0.8579 -0.1799 -0.2844
  565MOL0     C77886   0.415   9.363   8.647  0.0280 -0.1452 -0.8110
  565MOL0     C77887   0.255   8.937   8.521 -0.7646 -1.2217 -0.7979
  565MOL0     C77888   0.265   8.906   8.655 -0.1721 -0.0124 -0.0835
  565MOL0     C77889   0.202   8.783   8.709  0.7642 -0.9159  0.3295
  565MOL0     C77890   0.142   8.685   8.626  1.2272  0.1401 -0.4124
  565MOL0     O77891   0.066   8.588   8.691  0.5886 -0.3997  0.2701
  565MOL0     C77892   0.013   8.493   8.604  1.0683 -0.1828 -0.7290
  565MOL0     C77893  -0.054   8.376   8.677  0.6607  0.6710  0.2484
  565MOL0     C77894   0.047   8.272   8.733  0.1111 -0.2229  0.5895
  565MOL0     C77895   0.137   8.202   8.632 -0.2858 -0.6535  0.8765
  565MOL0     C77896   0.045   8.150   8.526 -0.0480  0.1840 -0.6524
  565MOL0     C77897  -0.048   8.112   8.453 -0.2111 -0.2385 -0.1461
  565MOL0     C77898   0.135   8.718   8.485 -0.1019  0.7057  0.3644
  565MOL0     C77899   0.194   8.838   8.434 -0.5721  0.5519 -0.7714
  565MOL0     C77900   0.203   8.845   8.278 -0.5179  0.0708 -0.2100
  565MOL0     H77901   0.479   9.249   8.337 -3.3994 -0.9424 -0.0590
  565MOL0     H77902   0.554   9.467   8.304  0.9263  2.4428  1.2526
  565MOL0     H77903   0.616   9.842   8.608  1.2753 -0.8633  2.1955
  565MOL0     H77904   0.538   9.721   8.705  2.8269  0.5272  0.3786
  565MOL0     H77905   0.324   9.782   8.579 -0.6368  1.2632  0.0253
  565MOL0     H77906   0.395   9.913   8.668  1.1851  3.6331 -1.3322
  565MOL0     H77907   0.523   9.970   8.447 -0.0595  1.3719  3.4596
  565MOL0     H77908   0.449   9.838   8.376  1.3855  1.3719 -0.7912
  565MOL0     H77909   0.213   9.981   8.466  0.5426 -0.3846  0.5026
  565MOL0     H77910   0.322  10.109   8.439 -0.8354 -0.8449  1.3537
  565MOL0     H77911   0.179  10.076   8.231 -0.6196 -0.7698 -0.4282
  565MOL0     H77912   0.232   9.907   8.226  0.2522 -1.3014  3.6048
  565MOL0     H77913   0.411  10.145   8.197 -0.6493  0.1401  1.5718
  565MOL0     H77914   0.460   9.979   8.192 -0.6976 -0.2875 -0.3270
  565MOL0     H77915   0.419  10.099   7.956 -0.1058 -1.6299 -1.7367
  565MOL0     H77916   0.255  10.099   7.980 -1.7092 -0.6581  1.7871
  565MOL0     H77917   0.424   9.844   8.005  1.9633  2.9207  1.0916
  565MOL0     H77918   0.243   9.861   8.004 -0.3861  0.7781 -1.4147
  565MOL0     H77919   0.140   9.965   7.761 -0.2600 -1.9089 -0.4572
  565MOL0     H77920   0.077   9.874   7.521 -1.0059 -3.6037 -2.4588
  565MOL0     H77921   0.173   9.755   7.452  1.3865 -0.4659 -0.7705
  565MOL0     H77922   0.162   9.955   7.287  0.9752  1.4638 -1.0667
  565MOL0     H77923   0.228  10.049   7.418 -2.0021  1.1899 -2.5708
  565MOL0     H77924   0.407   9.981   7.242  1.4400 -1.3423 -1.0043
  565MOL0     H77925   0.451   9.955   7.403  0.4752  1.5134 -0.5183
  565MOL0     H77926   0.501   9.791   7.241 -1.1093  3.8170 -0.2642
  565MOL0     H77927   0.418   9.706   7.384  4.9497  3.4679  2.0872
  565MOL0     H77928   0.377   9.895   7.015  0.2485 -0.3354  0.4467
  565MOL0     H77929   0.405   9.887   6.686  0.7910  0.1233  0.0219
  565MOL0     H77930   0.582   9.896   6.726  0.4477  2.9147  0.8741
  565MOL0     H77931   0.467   9.974   6.813 -1.5021  1.7101 -2.1589
  565MOL0     H77932   0.423   9.666   6.380  0.0148  1.0885 -1.3429
  565MOL0     H77933   0.499   9.588   6.170  0.1344 -0.1854 -0.8713
  565MOL0     H77934   0.636   9.335   6.030  1.8883 -1.6648 -2.8694
  565MOL0     H77935   0.588   9.510   5.981  0.2633 -0.1531  1.5906
  565MOL0     H77936   0.835   9.353   5.886 -0.9465 -0.9410 -1.4578
  565MOL0     H77937   0.681   9.369   5.801  0.8105  0.9569 -1.8626
  565MOL0     H77938   0.870   9.586   5.851  1.6039 -2.3703  0.2792
  565MOL0     H77939   0.699   9.614   5.784  1.2875  0.6286 -2.3235
  565MOL0     H77940   0.737   9.505   5.596  1.2646 -0.5750 -1.1041
  565MOL0     H77941   0.879   9.410   5.652 -0.9954 -1.4819 -0.6363
  565MOL0     H77942   0.871   9.711   5.589 -0.7937 -0.0351  1.3320
  565MOL0     H77943   1.011   9.629   5.652  2.1465 -0.2283 -2.9272
  565MOL0     H77944   1.020   9.662   5.406  2.3995  0.1131 -0.5054
  565MOL0     H77945   0.895   9.535   5.392  1.0660  1.2505 -2.5410
  565MOL0     H77946   1.035   9.378   5.478  0.2131  1.4177  0.7454
  565MOL0     H77947   1.165   9.476   5.529 -0.9564 -0.4400  0.5718
  565MOL0     H77948   1.252   9.385   5.334  0.5514  0.3457 -0.0518
  565MOL0     H77949   1.226   9.551   5.294 -0.6368  1.4029  0.9622
  565MOL0     H77950   0.866   9.452   6.334 -0.6187  3.0225 -2.7604
  565MOL0     H77951   0.788   9.512   6.566  0.7987  0.9494  0.4735
  565MOL0     H77952   0.403   9.415   6.894 -1.2754  0.0638  1.2379
  565MOL0     H77953   0.328   9.480   7.105  0.3193 -0.5723 -0.5635
  565MOL0     H77954   0.426   9.556   8.724 -2.1548 -2.7384  1.0911
  565MOL0     H77955   0.372   9.328   8.740  0.0209 -0.6775 -1.0110
  565MOL0     H77956   0.327   8.964   8.722  0.0526 -1.1377  0.7018
  565MOL0     H77957   0.189   8.773   8.817 -0.3354 -2.8447  0.0614
  565MOL0     H77958  -0.067   8.537   8.544  0.6630  2.3390  1.4802
  565MOL0     H77959   0.100   8.453   8.551  1.2321 -3.4350  1.6615
  565MOL0     H77960  -0.132   8.328   8.618  0.9866  0.4026  0.0336
  565MOL0     H77961  -0.096   8.432   8.761 -1.3826  3.0449 -2.1730
  565MOL0     H77962   0.119   8.327   8.795  1.2734  0.5071 -1.3171
  565MOL0     H77963  -0.002   8.189   8.783  0.1029 -0.0186  0.9243
  565MOL0     H77964   0.201   8.128   8.680 -0.1605 -1.6869 -0.8048
  565MOL0     H77965   0.214   8.269   8.591 -0.8648 -1.0718 -0.9720
  565MOL0     H77966  -0.128   8.086   8.386 -0.3722  0.1327 -0.1048
  565MOL0     H77967   0.073   8.662   8.416 -0.8026 -0.0942  1.5935
  565MOL0     H77968   0.303   8.878   8.247 -0.9774 -0.2889 -2.2264
  565MOL0     H77969   0.194   8.745   8.235  3.1500 -0.3661 -0.2737
  565MOL0     H77970   0.142   8.923   8.231 -0.7565  0.7052  1.1154
  566MOL0     O77971   6.191  11.208   1.302  0.3740 -0.1403  0.5079
  566MOL0     C77972   6.152  11.310   1.351 -0.4979 -0.1064 -0.2309
  566MOL0     O77973   6.161  11.341   1.493  0.1691 -0.5212  0.2477
  566MOL0     C77974   6.200  11.234   1.573 -0.7455  0.0883  0.3538
  566MOL0     C77975   6.325  11.171   1.564 -0.7621  0.7236 -0.4512
  566MOL0     C77976   6.353  11.053   1.641 -0.2416  0.3731  0.7492
  566MOL0     C77977   6.264  11.000   1.739  0.0036 -0.4574 -0.4700
  566MOL0     O77978   6.285  10.886   1.807  0.5996 -0.7282 -0.7352
  566MOL0     C77979   6.353  10.777   1.749 -0.6426 -0.6543  0.8279
  566MOL0     C77980   6.500  10.762   1.803 -0.2058 -0.2295 -0.6202
  566MOL0     C77981   6.504  10.739   1.960  0.1285  0.1302  0.0796
  566MOL0     C77982   6.639  10.692   2.011  0.0143  0.6815  0.0816
  566MOL0     C77983   6.746  10.791   2.004  0.7872 -1.1919 -0.9211
  566MOL0     C77984   6.861  10.744   2.090  0.0420  0.7304  0.3573
  566MOL0     C77985   6.987  10.832   2.091  0.1122 -0.0004 -0.1099
  566MOL0     C77986   6.950  10.975   2.094  0.0241  0.4139 -0.5222
  566MOL0     N77987   6.865  11.020   2.214  0.2123  0.5170  0.5604
  566MOL0     C77988   6.877  10.976   2.344 -0.0277  0.0960  0.4088
  566MOL0     C77989   6.814  11.077   2.415  0.0567 -0.0821  0.6120
  566MOL0     C77990   6.799  11.074   2.564 -0.1949 -0.2615 -0.1125
  566MOL0     C77991   6.928  11.038   2.637  0.1592 -0.3610  0.1284
  566MOL0     C77992   6.905  11.016   2.783  0.0885  0.6649  0.9329
  566MOL0     C77993   7.020  10.928   2.843  0.4413 -0.2708  0.9222
  566MOL0     O77994   7.140  11.007   2.830  0.5045  0.1892 -0.1569
  566MOL0     C77995   7.216  11.003   2.946  0.2829  0.1796 -0.0156
  566MOL0     C77996   7.177  11.074   3.063 -0.7289 -1.4821  0.0907
  566MOL0     C77997   7.277  11.111   3.164  0.0826  0.5564 -0.4124
  566MOL0     C77998   7.240  11.212   3.275 -0.1549 -0.2718  0.1379
  566MOL0     C77999   7.405  11.047   3.163 -1.1100 -0.1395  0.5630
  566MOL0     C78000   7.513  11.048   3.268  0.1750  0.4922  0.1799
  566MOL0     O78001   7.635  11.010   3.237 -0.2119 -0.0248 -0.1658
  566MOL0     C78002   7.750  11.040   3.309 -0.5294  0.6720  0.5492
  566MOL0     C78003   7.785  10.972   3.423 -0.0737  1.3752 -0.4664
  566MOL0     C78004   7.893  11.016   3.501  0.6758 -0.5348  0.0979
  566MOL0     C78005   7.972  11.131   3.465  1.0058  0.0772  0.6482
  566MOL0     O78006   8.075  11.176   3.541 -0.3754 -0.4498  0.5345
  566MOL0     C78007   8.085  11.312   3.577 -0.1120 -0.9819 -0.1756
  566MOL0     C78008   8.095  11.301   3.723  0.5368 -0.2103 -0.0468
  566MOL0     C78009   8.140  11.431   3.790  0.1078  0.1172  0.2729
  566MOL0     C78010   8.289  11.425   3.825 -0.1897  0.3918  0.8737
  566MOL0     C78011   8.318  11.335   3.950 -0.0790 -0.5028  0.8942
  566MOL0     C78012   8.352  11.420   4.075  0.9083 -0.0794 -0.0972
  566MOL0     C78013   8.494  11.467   4.089  0.4357  0.1999  0.0452
  566MOL0     C78014   8.509  11.574   4.200 -0.1668  1.1225  0.6666
  566MOL0    Cl78015   8.396  11.707   4.183  0.3805  0.0061 -0.1108
  566MOL0     C78016   7.932  11.198   3.355  0.9467  0.2473 -0.7471
  566MOL0     C78017   7.832  11.154   3.278  0.6039 -0.5367  0.0740
  566MOL0     O78018   7.480  11.099   3.377 -0.4751  0.5936  0.1305
  566MOL0     C78019   7.433  10.970   3.045 -0.2074 -0.5936  0.1250
  566MOL0     C78020   7.345  10.951   2.947 -0.0552  0.6656  0.1609
  566MOL0     N78021   6.768  11.171   2.335  1.3455  0.4512  0.1405
  566MOL0     N78022   6.795  11.138   2.210 -0.7472 -0.2266 -0.4362
  566MOL0     C78023   6.150  11.082   1.769 -0.1669  0.5510  0.2386
  566MOL0     C78024   6.123  11.194   1.678  0.6508 -0.3528  0.2679
  566MOL0     C78025   6.083  11.407   1.262 -0.1638  0.7972 -0.1322
  566MOL0     C78026   6.144  11.529   1.245 -0.2876  0.4236  0.1614
  566MOL0     C78027   6.099  11.611   1.141  0.5372 -0.2184  0.2283
  566MOL0     C78028   5.983  11.576   1.067 -0.0540 -0.4732  0.3244
  566MOL0     O78029   5.921  11.659   0.978  0.3041 -0.1622  1.0034
  566MOL0     C78030   6.010  11.747   0.894  0.2272  0.2804 -0.7721
  566MOL0     C78031   6.027  11.681   0.751 -0.8105  0.3838 -0.3716
  566MOL0     C78032   6.047  11.790   0.642 -0.7531  1.3342  0.3233
  566MOL0     C78033   6.079  11.716   0.503  0.5633  0.2270 -0.4207
  566MOL0     C78034   6.111  11.816   0.396 -0.2480  1.2393  0.6215
  566MOL0     C78035   6.145  11.906   0.322  0.8670 -0.3452  0.3016
  566MOL0     C78036   5.915  11.464   1.095  0.1592 -0.1261 -0.0857
  566MOL0     C78037   5.962  11.376   1.193 -0.6435 -0.2804  0.2422
  566MOL0     C78038   5.893  11.253   1.233  0.8079  0.1628 -0.1498
  566MOL0     H78039   6.393  11.200   1.485  1.3911  1.4045  1.5497
  566MOL0     H78040   6.441  10.993   1.619  0.9533  2.8842 -1.7878
  566MOL0     H78041   6.350  10.776   1.640  0.5984 -3.7194  0.7165
  566MOL0     H78042   6.293  10.688   1.769 -2.7322  0.5181  0.0370
  566MOL0     H78043   6.546  10.678   1.751 -2.5638 -2.2749  0.3403
  566MOL0     H78044   6.551  10.858   1.793 -5.4783  2.9059 -1.6766
  566MOL0     H78045   6.477  10.837   2.000 -1.2802 -0.3901  0.4620
  566MOL0     H78046   6.419  10.673   1.980  0.4033  0.1551  1.4338
  566MOL0     H78047   6.626  10.680   2.119  2.2987  0.5714  0.3743
  566MOL0     H78048   6.664  10.601   1.957 -3.4896 -1.0700  1.1089
  566MOL0     H78049   6.694  10.883   2.034 -1.8990 -2.9526  0.2364
  566MOL0     H78050   6.781  10.791   1.901 -2.3206  0.2264 -2.0882
  566MOL0     H78051   6.821  10.732   2.191 -0.4018  1.3982  0.2638
  566MOL0     H78052   6.897  10.645   2.060 -1.7215 -0.5753  2.2600
  566MOL0     H78053   7.037  10.817   1.995  0.8050  2.5612 -0.2116
  566MOL0     H78054   7.046  10.810   2.181 -0.9250  0.1822  0.6385
  566MOL0     H78055   7.040  11.036   2.081  0.4305 -0.6126 -3.2295
  566MOL0     H78056   6.892  11.002   2.006 -0.7648 -0.6132 -0.3289
  566MOL0     H78057   6.917  10.881   2.378 -0.1614 -1.6339 -3.7462
  566MOL0     H78058   6.716  11.005   2.586  1.2298 -1.9907  0.0721
  566MOL0     H78059   6.762  11.174   2.589  0.8014 -0.1653  1.0828
  566MOL0     H78060   6.973  10.950   2.591 -3.0327 -1.1165 -1.8360
  566MOL0     H78061   7.000  11.121   2.631  0.9803 -1.0689  0.0502
  566MOL0     H78062   6.888  11.104   2.845 -0.6022 -0.7852  2.9055
  566MOL0     H78063   6.818  10.952   2.797  1.4539 -1.4982  0.0778
  566MOL0     H78064   7.005  10.900   2.947 -1.8630 -1.2558  0.3851
  566MOL0     H78065   7.029  10.838   2.781  2.5063  0.3120  0.2793
  566MOL0     H78066   7.087  11.134   3.069 -0.1193 -0.5162 -0.1664
  566MOL0     H78067   7.313  11.292   3.284 -0.2167 -0.2893  0.8553
  566MOL0     H78068   7.238  11.167   3.375  2.5432 -1.2393 -0.1699
  566MOL0     H78069   7.148  11.259   3.240 -0.6145 -1.1756  0.0959
  566MOL0     H78070   7.742  10.875   3.445 -0.2579  1.3372 -0.9868
  566MOL0     H78071   7.921  10.964   3.592  0.0346  1.4596  1.5093
  566MOL0     H78072   8.185  11.342   3.543 -0.4295  0.8527  0.4389
  566MOL0     H78073   8.010  11.386   3.547 -0.2319 -0.2654  1.7680
  566MOL0     H78074   7.993  11.280   3.757 -0.3133  0.4542 -2.0485
  566MOL0     H78075   8.165  11.222   3.752  0.8884  0.0674 -0.1249
  566MOL0     H78076   8.079  11.444   3.879  0.3613 -6.0889  1.8265
  566MOL0     H78077   8.122  11.518   3.726  1.5181  1.0322  1.0456
  566MOL0     H78078   8.317  11.526   3.857  0.3666  0.6197 -0.2591
  566MOL0     H78079   8.348  11.398   3.737 -1.1769  1.3450 -0.1142
  566MOL0     H78080   8.226  11.279   3.974 -1.8687  1.2462 -1.3929
  566MOL0     H78081   8.403  11.267   3.938  1.2545  0.8508  2.3537
  566MOL0     H78082   8.315  11.361   4.158 -0.8398 -1.4029 -1.7225
  566MOL0     H78083   8.277  11.500   4.061  1.0893  0.1845  0.4412
  566MOL0     H78084   8.518  11.511   3.992  0.7264 -0.1292 -0.0315
  566MOL0     H78085   8.562  11.387   4.119 -0.7260 -0.3716  1.2667
  566MOL0     H78086   8.610  11.616   4.197  0.2342  0.1592 -0.1033
  566MOL0     H78087   8.495  11.520   4.294 -1.9880 -1.2383 -0.8289
  566MOL0     H78088   7.989  11.286   3.326  1.3566  0.5905  1.0040
  566MOL0     H78089   7.817  11.217   3.190  2.1322  0.1345  0.2643
  566MOL0     H78090   7.524  10.915   3.026 -0.2674 -0.4759 -0.5114
  566MOL0     H78091   7.369  10.897   2.856 -3.8528  0.4901 -0.9203
  566MOL0     H78092   6.080  11.043   1.842  0.2086  2.0312  1.4256
  566MOL0     H78093   6.032  11.249   1.697  0.4996 -0.6045  0.2733
  566MOL0     H78094   6.229  11.561   1.305 -0.8542  1.9848  0.1936
  566MOL0     H78095   6.145  11.707   1.120 -0.4731 -0.1070 -1.8127
  566MOL0     H78096   5.944  11.834   0.889 -0.2765 -0.0245  0.3348
  566MOL0     H78097   6.105  11.773   0.941  0.4681  2.8508 -2.4786
  566MOL0     H78098   5.942  11.616   0.729 -0.7891 -0.3415  1.5031
  566MOL0     H78099   6.118  11.622   0.745  0.8119  2.7302 -6.4083
  566MOL0     H78100   5.968  11.864   0.630 -1.8183  0.0548 -1.0063
  566MOL0     H78101   6.142  11.839   0.664 -0.7691  1.8693 -0.7206
  566MOL0     H78102   5.999  11.643   0.487 -0.7306  1.2318  1.1363
  566MOL0     H78103   6.169  11.656   0.521 -1.9670 -3.7608  0.3684
  566MOL0     H78104   6.167  11.966   0.236 -0.7681 -3.1070 -2.2612
  566MOL0     H78105   5.830  11.441   1.031 -0.7987 -1.2493  1.5144
  566MOL0     H78106   5.802  11.244   1.173  1.1071  2.1100 -0.9705
  566MOL0     H78107   5.958  11.168   1.208  1.0508 -0.4273  2.2681
  566MOL0     H78108   5.854  11.245   1.334  2.0639  0.8407  0.4166
  567MOL0     O78109   1.704  10.433   7.839  0.5106 -0.6406 -0.3252
  567MOL0     C78110   1.711  10.536   7.768  0.1317 -0.1221  0.4640
  567MOL0     O78111   1.624  10.636   7.756  0.8208 -0.2394  0.8364
  567MOL0     C78112   1.497  10.626   7.812 -0.2497 -0.1958 -0.8979
  567MOL0     C78113   1.402  10.710   7.765 -0.0642 -0.5092  0.3764
  567MOL0     C78114   1.280  10.720   7.835  1.1539  0.2371  0.8368
  567MOL0     C78115   1.253  10.663   7.966  0.5095  0.0125  0.5021
  567MOL0     O78116   1.132  10.690   8.033  0.5261 -0.4175  0.4782
  567MOL0     C78117   1.097  10.612   8.145 -0.6655  0.2603 -0.7554
  567MOL0     C78118   1.145  10.658   8.281 -0.4447  0.3505 -0.1501
  567MOL0     C78119   1.107  10.569   8.394  0.0974 -0.9683  0.4364
  567MOL0     C78120   0.965  10.597   8.455 -0.2648 -0.7496  0.0728
  567MOL0     C78121   0.932  10.525   8.583 -0.1014 -0.0470 -0.6382
  567MOL0     C78122   1.022  10.573   8.698  0.0722  0.3335 -0.6571
  567MOL0     C78123   0.970  10.503   8.827 -0.4649 -0.0412 -0.6071
  567MOL0     C78124   1.045  10.572   8.952  0.5246  0.6271 -0.1336
  567MOL0     N78125   0.988  10.546   9.086  0.6628 -0.3978 -0.2073
  567MOL0     C78126   0.942  10.654   9.156 -0.2650 -0.1394  0.1183
  567MOL0     C78127   0.877  10.593   9.262  0.8614 -0.0260  0.4440
  567MOL0     C78128   0.797  10.660   9.367 -0.7409  0.3735  0.4564
  567MOL0     C78129   0.659  10.613   9.369  0.0523 -0.2434  0.3045
  567MOL0     C78130   0.583  10.651   9.501 -0.6392  0.3672  0.1671
  567MOL0     C78131   0.538  10.791   9.489 -0.2606 -0.2832 -0.0133
  567MOL0     O78132   0.434  10.791   9.391 -0.4377 -0.1663 -0.3801
  567MOL0     C78133   0.361  10.907   9.360  0.1999  0.5941  1.0173
  567MOL0     C78134   0.251  10.894   9.276  0.6538  1.0926  0.2601
  567MOL0     C78135   0.175  11.008   9.241 -0.0337  0.8573 -1.2663
  567MOL0     C78136   0.054  10.987   9.165 -0.4895  0.1923  0.0504
  567MOL0     C78137   0.217  11.141   9.275 -0.3856  0.0229 -0.0376
  567MOL0     C78138   0.133  11.267   9.241  1.0124 -0.6362 -0.4576
  567MOL0     O78139   0.154  11.370   9.336  0.1979 -0.0221  0.2732
  567MOL0     C78140   0.088  11.486   9.312  1.1850 -0.0497 -1.1749
  567MOL0     C78141   0.139  11.589   9.232  0.2709  0.3860  0.4132
  567MOL0     C78142   0.071  11.713   9.214  0.5112  0.1554  0.7986
  567MOL0     C78143  -0.063  11.729   9.271 -0.1996  0.8725  0.8366
  567MOL0     O78144  -0.158  11.821   9.247  0.4723 -0.4069  0.5530
  567MOL0     C78145  -0.127  11.913   9.143  0.4777 -0.9114 -0.5808
  567MOL0     C78146  -0.225  12.034   9.136  0.2595  0.0782 -0.2731
  567MOL0     C78147  -0.214  12.109   9.269 -0.5206 -0.1839  0.1636
  567MOL0     C78148  -0.329  12.100   9.373 -1.1032 -0.5570  0.3104
  567MOL0     C78149  -0.395  11.963   9.408 -0.1066  0.0837 -0.0670
  567MOL0     C78150  -0.483  11.978   9.538  0.1900 -0.1358  0.9632
  567MOL0     C78151  -0.615  12.054   9.521 -0.1800  0.4671 -0.2808
  567MOL0     C78152  -0.720  11.989   9.608 -0.5277  0.0392  0.0276
  567MOL0    Cl78153  -0.859  12.106   9.592  0.5299  0.5574  0.0579
  567MOL0     C78154  -0.121  11.621   9.337  0.5454  0.2112  0.0891
  567MOL0     C78155  -0.040  11.507   9.372 -0.0940 -0.3508  0.1528
  567MOL0     O78156   0.059  11.272   9.139 -0.3831 -0.0942 -0.7316
  567MOL0     C78157   0.335  11.152   9.356  0.9309  0.3212  0.3955
  567MOL0     C78158   0.395  11.036   9.409  0.2647 -0.0206  0.2709
  567MOL0     N78159   0.898  10.456   9.261  0.3809 -0.6399 -0.1963
  567MOL0     N78160   0.965  10.430   9.159 -0.0131 -0.2837 -0.8298
  567MOL0     C78161   1.350  10.575   8.012 -0.2246  0.1642  0.4677
  567MOL0     C78162   1.473  10.559   7.938  0.1272 -0.0594 -0.2220
  567MOL0     C78163   1.842  10.554   7.697  0.5075  0.2277  0.0953
  567MOL0     C78164   1.854  10.542   7.558  0.5697 -0.4699 -0.0213
  567MOL0     C78165   1.979  10.560   7.498 -0.2281 -0.8747  0.5044
  567MOL0     C78166   2.093  10.573   7.580 -0.1141 -0.8864  0.4503
  567MOL0     O78167   2.207  10.596   7.501 -0.0032 -0.6666  0.1492
  567MOL0     C78168   2.338  10.605   7.560  0.9911 -0.8954 -0.5759
  567MOL0     C78169   2.376  10.464   7.611 -0.1059  0.4140  0.7911
  567MOL0     C78170   2.386  10.366   7.487 -1.0024 -0.1256 -0.5041
  567MOL0     C78171   2.413  10.210   7.516 -0.7541 -0.2349 -0.4044
  567MOL0     C78172   2.546  10.210   7.576 -1.1957 -0.5491 -0.9439
  567MOL0     C78173   2.662  10.199   7.619 -0.7714  0.1697 -0.9327
  567MOL0     C78174   2.083  10.580   7.719  0.1903  0.3828 -0.2195
  567MOL0     C78175   1.959  10.569   7.771 -0.2914 -0.0881 -0.5707
  567MOL0     C78176   1.955  10.575   7.919 -0.1856 -0.4125  1.0474
  567MOL0     H78177   1.422  10.780   7.683 -1.6273 -0.0046  0.3932
  567MOL0     H78178   1.208  10.793   7.799  0.9495 -1.6946 -3.1609
  567MOL0     H78179   1.147  10.515   8.132  3.7714  2.5362 -2.8194
  567MOL0     H78180   0.989  10.591   8.141 -0.3463 -1.8409  0.2938
  567MOL0     H78181   1.254  10.650   8.276 -0.4616  0.2731 -0.3686
  567MOL0     H78182   1.119  10.764   8.290  1.7169  1.0839 -1.8588
  567MOL0     H78183   1.105  10.461   8.373  0.0086 -1.1121  1.1294
  567MOL0     H78184   1.181  10.585   8.473 -1.1423 -2.5064  2.0202
  567MOL0     H78185   0.954  10.706   8.465  0.6578 -0.6167 -0.2025
  567MOL0     H78186   0.890  10.573   8.379 -2.6281  1.9310  1.3546
  567MOL0     H78187   0.942  10.417   8.574 -1.2036 -0.4455  2.1067
  567MOL0     H78188   0.835  10.568   8.610  0.2999  0.2672  0.3473
  567MOL0     H78189   1.127  10.548   8.680 -0.6616 -2.3105 -1.6208
  567MOL0     H78190   1.023  10.683   8.699 -0.0442  0.3466  1.1075
  567MOL0     H78191   0.982  10.394   8.825 -1.3019 -0.2280  1.5875
  567MOL0     H78192   0.863  10.522   8.835 -0.1760  2.1318 -1.2043
  567MOL0     H78193   1.152  10.549   8.948  0.1049 -1.4865 -0.2202
  567MOL0     H78194   1.048  10.680   8.938  1.9120  0.4502 -1.4985
  567MOL0     H78195   0.948  10.759   9.129  1.2856  0.0352  1.0065
  567MOL0     H78196   0.804  10.768   9.353  2.1981  0.4970  1.9561
  567MOL0     H78197   0.837  10.635   9.466 -3.0896 -2.5503  0.8075
  567MOL0     H78198   0.601  10.640   9.281  0.1595 -1.1858 -0.0748
  567MOL0     H78199   0.653  10.503   9.370  3.4803 -0.5654 -0.3428
  567MOL0     H78200   0.499  10.581   9.499 -0.8703  0.6324  0.6838
  567MOL0     H78201   0.642  10.643   9.592 -0.0262 -1.3691 -0.3398
  567MOL0     H78202   0.497  10.839   9.579 -1.5078  1.0211 -1.2169
  567MOL0     H78203   0.628  10.846   9.460  0.0226  0.7213  2.4673
  567MOL0     H78204   0.233  10.788   9.260 -1.0399  1.0145  2.2724
  567MOL0     H78205   0.026  10.883   9.183 -3.1429  1.2181  2.6127
  567MOL0     H78206   0.079  11.013   9.062 -0.3894 -0.4039 -0.0809
  567MOL0     H78207  -0.037  11.042   9.188 -0.4445 -0.6030  2.4833
  567MOL0     H78208   0.221  11.589   9.162  1.6037  1.2854  1.9007
  567MOL0     H78209   0.118  11.787   9.150  0.7769 -0.0088  0.8053
  567MOL0     H78210  -0.032  11.958   9.175 -1.4184  0.0584  4.8131
  567MOL0     H78211  -0.125  11.853   9.052 -3.0178 -0.3049 -1.2132
  567MOL0     H78212  -0.183  12.099   9.059 -1.4577  1.2913 -0.2405
  567MOL0     H78213  -0.327  12.003   9.116 -0.9364  3.3872  0.1622
  567MOL0     H78214  -0.191  12.212   9.240 -0.1235 -0.0818  0.8301
  567MOL0     H78215  -0.119  12.076   9.312 -1.4230 -5.3327 -1.1586
  567MOL0     H78216  -0.413  12.161   9.340  0.7241  0.6648 -2.5090
  567MOL0     H78217  -0.280  12.136   9.464  1.1665 -0.8237 -0.7175
  567MOL0     H78218  -0.455  11.941   9.319 -3.3268  1.3628  1.6326
  567MOL0     H78219  -0.320  11.885   9.421  0.1805  0.5631  1.3372
  567MOL0     H78220  -0.421  12.033   9.609  0.5046 -0.2694  0.7916
  567MOL0     H78221  -0.496  11.873   9.566  0.7070 -0.4716 -0.0130
  567MOL0     H78222  -0.645  12.056   9.416 -0.3322 -0.8001 -0.2745
  567MOL0     H78223  -0.596  12.158   9.549  0.9480  0.9972 -2.7401
  567MOL0     H78224  -0.682  11.994   9.710 -4.1507 -2.7025  1.6912
  567MOL0     H78225  -0.748  11.885   9.587 -0.6785 -0.3465  2.0110
  567MOL0     H78226  -0.221  11.614   9.378  0.8844 -1.7787  0.6856
  567MOL0     H78227  -0.086  11.430   9.434  2.3215 -1.5336  0.6143
  567MOL0     H78228   0.379  11.245   9.391  1.4894  2.4535 -5.0197
  567MOL0     H78229   0.466  11.047   9.490  1.8121 -2.6293 -0.5987
  567MOL0     H78230   1.357  10.523   8.107 -3.2050  1.2650  1.4269
  567MOL0     H78231   1.549  10.507   7.995 -1.0154  0.8296  2.2516
  567MOL0     H78232   1.762  10.535   7.500  0.1495 -0.3447  0.6191
  567MOL0     H78233   1.998  10.554   7.391  1.4007  0.0723  0.7015
  567MOL0     H78234   2.413  10.639   7.488  1.2017 -0.7083 -0.2697
  567MOL0     H78235   2.326  10.675   7.643 -1.4635 -1.8442 -0.0558
  567MOL0     H78236   2.303  10.436   7.688 -0.5382 -2.9618 -0.6860
  567MOL0     H78237   2.473  10.485   7.659 -0.0946  1.3571  0.3766
  567MOL0     H78238   2.299  10.362   7.422 -0.3921 -5.2981 -1.4105
  567MOL0     H78239   2.462  10.401   7.417  0.5108 -1.8140  0.2048
  567MOL0     H78240   2.409  10.152   7.423 -1.6177 -0.0256 -0.5063
  567MOL0     H78241   2.346  10.167   7.591  0.1204  0.6499  0.9251
  567MOL0     H78242   2.759  10.179   7.658 -0.1295  1.6965 -1.6903
  567MOL0     H78243   2.182  10.585   7.764  0.8779 -1.8038 -1.3130
  567MOL0     H78244   2.045  10.630   7.949  1.1277 -1.8129 -0.1579
  567MOL0     H78245   1.866  10.622   7.963 -1.1584 -0.2483 -1.0038
  567MOL0     H78246   1.958  10.477   7.967 -2.2712 -0.1764  1.7666
  568MOL0     O78247   6.514   6.196   9.871 -0.9295 -0.5807  1.6146
  568MOL0     C78248   6.421   6.113   9.877  0.2157 -0.5873 -0.6011
  568MOL0     O78249   6.409   6.007   9.963  0.4499  0.9801 -0.4680
  568MOL0     C78250   6.482   5.996  10.079  0.6966 -0.7873  0.4890
  568MOL0     C78251   6.412   5.976  10.202 -0.3204 -0.4550 -0.0625
  568MOL0     C78252   6.486   5.983  10.324  0.0815 -0.3056 -0.4902
  568MOL0     C78253   6.628   5.982  10.331 -0.0935 -0.7244  0.5390
  568MOL0     O78254   6.688   5.972  10.457 -0.0780  0.9426  0.1251
  568MOL0     C78255   6.797   5.878  10.470  1.3414  0.6843  1.1133
  568MOL0     C78256   6.747   5.733  10.500  0.3635  0.5254 -0.4713
  568MOL0     C78257   6.667   5.711  10.629  0.2361  0.2132 -0.8800
  568MOL0     C78258   6.519   5.686  10.589  0.7088 -0.6330 -0.8564
  568MOL0     C78259   6.427   5.702  10.712  0.2249  0.8384  0.1379
  568MOL0     C78260   6.406   5.851  10.758  1.4019  0.2329  0.2405
  568MOL0     C78261   6.407   5.878  10.911 -0.0690 -0.3211 -0.1727
  568MOL0     C78262   6.282   5.839  10.979  1.1766 -0.2722 -0.4286
  568MOL0     N78263   6.271   5.907  11.106 -0.1996 -0.1339 -0.3175
  568MOL0     C78264   6.209   6.027  11.121  0.2556 -0.0547 -0.4680
  568MOL0     C78265   6.229   6.073  11.247  1.5492  0.6134 -0.6745
  568MOL0     C78266   6.167   6.190  11.323 -0.1357  0.3985  0.6473
  568MOL0     C78267   6.073   6.269  11.239 -0.2306  0.3109  0.2773
  568MOL0     C78268   5.946   6.182  11.227 -0.2845  0.0165 -0.2060
  568MOL0     C78269   5.842   6.260  11.147 -1.1368 -0.0577 -0.5605
  568MOL0     O78270   5.889   6.292  11.015 -0.6255  0.1188 -0.0178
  568MOL0     C78271   5.910   6.182  10.930  0.5892  0.1717  0.1774
  568MOL0     C78272   5.818   6.081  10.924  0.4013 -0.2012 -0.3665
  568MOL0     C78273   5.840   5.960  10.841 -0.3277  0.0515 -0.2788
  568MOL0     C78274   5.737   5.854  10.831 -0.1391 -0.0864  0.3168
  568MOL0     C78275   5.966   5.951  10.776 -0.5275  0.2358 -1.1421
  568MOL0     C78276   6.012   5.827  10.712  0.9810  0.3832  0.5517
  568MOL0     O78277   6.071   5.846  10.590 -0.0152 -0.6103 -0.6173
  568MOL0     C78278   6.109   5.736  10.509 -0.1621 -1.1987  0.1114
  568MOL0     C78279   6.063   5.602  10.520 -1.2779 -0.2413 -0.4220
  568MOL0     C78280   6.133   5.507  10.439  0.2454  1.5515 -0.2657
  568MOL0     C78281   6.227   5.540  10.343 -0.9846 -0.7148  0.1629
  568MOL0     O78282   6.284   5.439  10.269  0.6831  1.3117  0.6775
  568MOL0     C78283   6.403   5.466  10.182  0.6981  0.5864 -0.3318
  568MOL0     C78284   6.467   5.339  10.115 -0.0359  0.3988 -0.0270
  568MOL0     C78285   6.618   5.359  10.092 -0.6643  0.3324  0.1676
  568MOL0     C78286   6.635   5.478   9.998  0.4594  0.3153  0.2057
  568MOL0     C78287   6.775   5.495   9.945  0.7348  0.1884 -0.2170
  568MOL0     C78288   6.855   5.577  10.050  0.3012 -0.2140  0.9444
  568MOL0     C78289   6.991   5.630   9.986  0.1457  0.3785  0.4536
  568MOL0     C78290   7.095   5.674  10.085  0.1288  0.6428  0.6812
  568MOL0    Cl78291   7.065   5.850  10.132  0.6109 -0.2198 -0.2923
  568MOL0     C78292   6.272   5.673  10.329  0.1398  0.1983 -0.2048
  568MOL0     C78293   6.215   5.767  10.411 -0.1612  0.0186 -0.2053
  568MOL0     O78294   6.009   5.722  10.776  0.1420  0.2858  0.5876
  568MOL0     C78295   6.047   6.062  10.779  0.5514  0.0705  0.5670
  568MOL0     C78296   6.022   6.179  10.854  0.0640  1.4995  0.6544
  568MOL0     N78297   6.330   5.990  11.302 -0.0507  0.2501  0.9677
  568MOL0     N78298   6.349   5.894  11.212  1.1644  0.8456  0.5348
  568MOL0     C78299   6.692   5.984  10.206 -1.2727  0.3127 -0.1110
  568MOL0     C78300   6.622   6.006  10.089  0.7582  0.6738  0.0981
  568MOL0     C78301   6.309   6.139   9.785  0.1450 -0.0163  0.7005
  568MOL0     C78302   6.344   6.227   9.678  0.6525 -0.6940 -0.6858
  568MOL0     C78303   6.250   6.260   9.581 -0.0960 -0.1605 -0.3605
  568MOL0     C78304   6.116   6.226   9.603 -0.8410 -0.8385  0.7367
  568MOL0     O78305   6.003   6.291   9.544  0.1513  0.7233  0.0480
  568MOL0     C78306   6.014   6.408   9.467 -0.6189  0.7406 -0.7495
  568MOL0     C78307   5.905   6.407   9.351 -0.4623  0.3434  0.6227
  568MOL0     C78308   5.903   6.275   9.275  0.6095  0.0677  0.0423
  568MOL0     C78309   5.956   6.292   9.133 -0.2803  0.6219 -1.2801
  568MOL0     C78310   6.105   6.316   9.140  0.0419  0.8127  1.0255
  568MOL0     C78311   6.223   6.326   9.152  0.0257  0.7092  0.0748
  568MOL0     C78312   6.081   6.140   9.702 -0.1340 -0.3523 -0.0312
  568MOL0     C78313   6.175   6.090   9.791 -0.4040 -0.6206  0.3158
  568MOL0     C78314   6.123   5.999   9.893 -0.0869  0.0110 -0.3896
  568MOL0     H78315   6.303   5.978  10.202 -0.5212  0.9972 -4.7682
  568MOL0     H78316   6.432   5.982  10.418 -2.2229  1.5906 -1.6834
  568MOL0     H78317   6.870   5.907  10.546  1.1037  2.5140  0.6952
  568MOL0     H78318   6.867   5.890  10.386  0.0610 -1.0109 -0.2653
  568MOL0     H78319   6.688   5.696  10.416 -0.4627  0.2352  0.2287
  568MOL0     H78320   6.841   5.678  10.509  0.4255  0.6620 -0.2665
  568MOL0     H78321   6.708   5.617  10.668  2.2933  1.5471  0.3973
  568MOL0     H78322   6.674   5.789  10.705 -0.5644 -1.6711  1.2322
  568MOL0     H78323   6.496   5.765  10.518  1.6888 -1.6402 -2.3430
  568MOL0     H78324   6.504   5.593  10.534 -1.0840 -1.5068  0.9632
  568MOL0     H78325   6.464   5.642  10.795 -0.4332 -0.4762 -0.4944
  568MOL0     H78326   6.327   5.664  10.689  0.2971  1.0686 -0.5603
  568MOL0     H78327   6.493   5.907  10.724  0.5503  0.1572 -2.3345
  568MOL0     H78328   6.320   5.898  10.708  1.6762  2.2347  1.5376
  568MOL0     H78329   6.402   5.987  10.917  0.8584 -0.2823  0.1490
  568MOL0     H78330   6.499   5.836  10.954  1.8650  0.7845 -2.9678
  568MOL0     H78331   6.184   5.853  10.932  1.2377  0.3561 -0.3788
  568MOL0     H78332   6.282   5.730  10.989  2.6626 -0.3186 -0.6855
  568MOL0     H78333   6.146   6.076  11.048 -0.4737  0.8167  0.7071
  568MOL0     H78334   6.257   6.249  11.343  0.3319  0.0871 -0.4708
  568MOL0     H78335   6.119   6.160  11.416  0.3908 -4.7891 -0.4692
  568MOL0     H78336   6.056   6.365  11.289  0.1745 -1.3472  3.8746
  568MOL0     H78337   6.119   6.289  11.141 -1.7342  1.5924 -0.2106
  568MOL0     H78338   5.968   6.085  11.182  1.6499 -1.0501  2.7349
  568MOL0     H78339   5.918   6.153  11.329  1.8819 -3.0121 -0.3420
  568MOL0     H78340   5.744   6.214  11.163  0.0780 -2.1092  1.6271
  568MOL0     H78341   5.822   6.353  11.200 -1.0832 -0.6285  0.5024
  568MOL0     H78342   5.732   6.093  10.989  0.9113 -0.8666  0.4601
  568MOL0     H78343   5.737   5.813  10.729  2.4585  2.9316 -1.1151
  568MOL0     H78344   5.640   5.896  10.859  1.5860  3.3313  1.8295
  568MOL0     H78345   5.755   5.783  10.912 -0.8248  2.5336  2.9459
  568MOL0     H78346   5.994   5.569  10.597 -1.1253 -1.6141 -0.8408
  568MOL0     H78347   6.119   5.399  10.448  0.6492  1.3791 -1.4599
  568MOL0     H78348   6.379   5.533  10.099  3.9549  0.3098 -1.6357
  568MOL0     H78349   6.486   5.514  10.234  1.4458 -0.5879 -0.4091
  568MOL0     H78350   6.463   5.250  10.178 -0.6188  0.1130 -0.4552
  568MOL0     H78351   6.413   5.327  10.021  0.0600  0.4142 -0.0838
  568MOL0     H78352   6.671   5.274  10.048  0.5243 -1.1503  4.0565
  568MOL0     H78353   6.678   5.391  10.177 -2.8824  6.8617 -0.1760
  568MOL0     H78354   6.603   5.568  10.051 -1.8395 -1.0884  1.3897
  568MOL0     H78355   6.574   5.479   9.908  2.4648  0.8600 -1.2036
  568MOL0     H78356   6.812   5.393   9.930 -2.3035 -0.6237 -3.7497
  568MOL0     H78357   6.762   5.544   9.848 -3.5379 -3.2203 -1.7331
  568MOL0     H78358   6.867   5.511  10.137  1.8306 -1.9774 -0.5129
  568MOL0     H78359   6.816   5.672  10.088 -0.2102 -0.2652  0.5403
  568MOL0     H78360   6.967   5.710   9.916 -0.7300  1.7652  2.2681
  568MOL0     H78361   7.051   5.552   9.937 -1.0800 -0.2283 -0.1208
  568MOL0     H78362   7.198   5.676  10.048  2.0829 -0.5150  5.3244
  568MOL0     H78363   7.092   5.609  10.173 -0.4993  1.1091  1.0093
  568MOL0     H78364   6.348   5.711  10.261  0.0755 -0.0025 -0.3906
  568MOL0     H78365   6.236   5.873  10.415 -3.9539  0.8695  2.1860
  568MOL0     H78366   6.142   6.061  10.726  0.6143 -1.5063  0.6411
  568MOL0     H78367   6.087   6.266  10.851  0.1957  1.3890  0.3120
  568MOL0     H78368   6.800   5.981  10.196 -1.4249  0.8646 -2.5053
  568MOL0     H78369   6.681   6.038  10.003  0.7278  2.4590  0.6883
  568MOL0     H78370   6.445   6.262   9.662  0.3533  0.3203 -0.4170
  568MOL0     H78371   6.296   6.316   9.500  0.9633 -0.9642 -0.3323
  568MOL0     H78372   5.987   6.491   9.533  2.4301  0.6113  0.8282
  568MOL0     H78373   6.113   6.418   9.422 -1.0983  0.4583 -1.9199
  568MOL0     H78374   5.928   6.496   9.292 -0.0289  0.4136  0.8963
  568MOL0     H78375   5.807   6.424   9.397 -0.3277  3.3400 -0.0299
  568MOL0     H78376   5.960   6.197   9.327  0.5895 -1.7021 -2.3836
  568MOL0     H78377   5.799   6.242   9.268  0.0498  1.3829  1.5488
  568MOL0     H78378   5.905   6.381   9.096  1.2334  0.2708 -4.4715
  568MOL0     H78379   5.931   6.204   9.073  1.4346  0.9425 -2.5447
  568MOL0     H78380   6.326   6.349   9.171  0.4543 -1.6555  1.0036
  568MOL0     H78381   5.977   6.115   9.717 -0.1551  1.0624  2.8356
  568MOL0     H78382   6.017   5.980   9.874 -0.7819 -0.0339  3.0052
  568MOL0     H78383   6.175   5.905   9.874  2.3044  0.7275  2.0177
  568MOL0     H78384   6.137   6.034   9.995 -1.5952 -3.2122  1.0520
  569MOL0     O78385   8.790   7.444  11.443  0.6162  0.3905  0.0809
  569MOL0     C78386   8.711   7.349  11.433 -0.7709 -0.0865  1.6371
  569MOL0     O78387   8.735   7.231  11.364  0.6010  0.2773  0.9418
  569MOL0     C78388   8.860   7.225  11.304  0.3112 -0.0290 -0.5654
  569MOL0     C78389   8.960   7.136  11.348  0.5065 -0.0723 -0.0380
  569MOL0     C78390   9.081   7.128  11.279  0.4688  0.3010 -0.0739
  569MOL0     C78391   9.099   7.193  11.161  0.4306  0.0948  0.5499
  569MOL0     O78392   9.211   7.169  11.081 -0.6429 -0.2775 -0.4218
  569MOL0     C78393   9.182   7.103  10.952  0.1211 -1.0351  0.8258
  569MOL0     C78394   9.312   7.128  10.858  0.3582 -0.0620  0.6799
  569MOL0     C78395   9.440   7.053  10.902  0.2418 -0.4424 -0.0299
  569MOL0     C78396   9.563   7.142  10.884 -0.0083 -0.6816 -0.0021
  569MOL0     C78397   9.690   7.063  10.890 -0.4078 -0.5620  0.0373
  569MOL0     C78398   9.812   7.149  10.856  0.2271  0.5739  0.3750
  569MOL0     C78399   9.941   7.069  10.845  0.4776  0.6016 -0.0426
  569MOL0     C78400  10.056   7.153  10.776  0.0739  0.0440 -0.2599
  569MOL0     N78401  10.076   7.295  10.820 -1.1314 -0.6490  0.1804
  569MOL0     C78402  10.125   7.326  10.941 -0.2275 -0.0037 -0.3842
  569MOL0     C78403  10.126   7.465  10.942  0.8146  0.2055  0.4412
  569MOL0     C78404  10.158   7.560  11.050  0.9524  0.2681  0.8980
  569MOL0     C78405  10.121   7.516  11.191 -0.8491  0.0623 -0.0304
  569MOL0     C78406   9.973   7.467  11.209 -0.0874 -0.1422 -0.3351
  569MOL0     C78407   9.854   7.547  11.150  0.0445  0.8029 -0.1443
  569MOL0     O78408   9.742   7.465  11.185  0.0905  0.5144 -0.0352
  569MOL0     C78409   9.615   7.504  11.142 -0.6613  0.8614 -0.3759
  569MOL0     C78410   9.580   7.481  11.003  0.6239 -0.1592  0.0120
  569MOL0     C78411   9.460   7.531  10.941 -0.5934 -0.1281 -0.0270
  569MOL0     C78412   9.451   7.517  10.786  0.0700  0.7568  0.3592
  569MOL0     C78413   9.365   7.591  11.027  0.3223 -0.3665  0.1855
  569MOL0     C78414   9.226   7.640  10.993  0.5969 -0.3069 -0.1685
  569MOL0     O78415   9.173   7.585  10.888 -0.2384 -0.4487  0.3744
  569MOL0     C78416   9.039   7.567  10.862  0.5922 -0.2029  0.4504
  569MOL0     C78417   8.941   7.598  10.956 -0.0412 -1.0638  0.1525
  569MOL0     C78418   8.804   7.555  10.937  0.2457 -0.0988 -0.0062
  569MOL0     C78419   8.773   7.509  10.812  0.4917  0.5920  0.9302
  569MOL0     O78420   8.641   7.488  10.777 -0.2436  0.2151  0.1026
  569MOL0     C78421   8.531   7.541  10.852 -0.3633  0.2974 -0.9643
  569MOL0     C78422   8.485   7.432  10.945  0.3092  0.1710 -0.6943
  569MOL0     C78423   8.397   7.327  10.881  0.5554  0.2873  0.7330
  569MOL0     C78424   8.449   7.247  10.753  0.2941 -1.2474  0.1520
  569MOL0     C78425   8.362   7.134  10.723  0.2231 -0.1698 -0.1015
  569MOL0     C78426   8.210   7.147  10.737  0.0365 -0.2066  0.4921
  569MOL0     C78427   8.158   7.252  10.632 -0.0260  0.1906 -0.4221
  569MOL0     C78428   8.006   7.245  10.615 -0.3449  0.2770  0.0160
  569MOL0    Cl78429   7.935   7.090  10.544 -0.0026  0.1342  0.3143
  569MOL0     C78430   8.872   7.460  10.719 -0.5384 -0.2382 -0.4502
  569MOL0     C78431   9.009   7.493  10.749 -0.1114  0.8723  0.2239
  569MOL0     O78432   9.191   7.741  11.043  0.2945  0.1830 -0.0622
  569MOL0     C78433   9.396   7.598  11.167 -0.7742 -0.6656  0.7723
  569MOL0     C78434   9.514   7.554  11.222  0.1304 -1.2261  0.3675
  569MOL0     N78435  10.086   7.505  10.819  0.0196  0.2216 -0.4213
  569MOL0     N78436  10.051   7.403  10.746 -0.1939  0.8093 -0.1213
  569MOL0     C78437   9.009   7.285  11.120  0.7051 -0.4079  0.4762
  569MOL0     C78438   8.888   7.301  11.186 -0.3080  0.2733 -0.0043
  569MOL0     C78439   8.591   7.364  11.510  0.4197 -0.5255  0.6348
  569MOL0     C78440   8.585   7.415  11.635 -0.5883 -0.4557  0.4693
  569MOL0     C78441   8.467   7.440  11.706 -0.8269  0.4498 -0.3510
  569MOL0     C78442   8.342   7.399  11.654 -0.1175 -0.0730 -0.6602
  569MOL0     O78443   8.223   7.423  11.710  0.8787  0.1998 -0.0014
  569MOL0     C78444   8.229   7.476  11.848  0.3602  0.3223 -0.3427
  569MOL0     C78445   8.095   7.474  11.920 -0.2878  0.6710  0.7059
  569MOL0     C78446   8.020   7.348  11.883 -0.2412 -0.3483  0.6389
  569MOL0     C78447   7.888   7.337  11.964 -0.3794  0.5247 -0.3870
  569MOL0     C78448   7.784   7.437  11.939 -0.4397  0.0429  0.5459
  569MOL0     C78449   7.710   7.533  11.903 -0.3775 -0.5554 -0.0662
  569MOL0     C78450   8.351   7.337  11.522  1.0571 -0.6779 -0.6008
  569MOL0     C78451   8.465   7.326  11.449  0.3592 -0.7044 -0.4216
  569MOL0     C78452   8.444   7.273  11.309  0.0145  0.8816 -0.1866
  569MOL0     H78453   8.940   7.082  11.440  0.9346 -0.2824 -0.0634
  569MOL0     H78454   9.158   7.064  11.322  0.3756 -0.8048 -1.5037
  569MOL0     H78455   9.095   7.146  10.901  2.5820  1.8700 -1.3125
  569MOL0     H78456   9.163   6.996  10.959  0.4431 -1.0615  1.4236
  569MOL0     H78457   9.280   7.088  10.761 -1.8082 -0.6789  1.5855
  569MOL0     H78458   9.332   7.235  10.853 -0.3665  0.1090  1.2742
  569MOL0     H78459   9.429   7.025  11.007 -2.4138 -0.5240 -0.2391
  569MOL0     H78460   9.441   6.965  10.838 -1.6338  1.8813 -3.6195
  569MOL0     H78461   9.573   7.205  10.795  0.5940 -0.7819 -0.0091
  569MOL0     H78462   9.575   7.206  10.972  3.1798 -1.7019  0.4318
  569MOL0     H78463   9.676   6.987  10.812  1.8213 -1.2067  0.1908
  569MOL0     H78464   9.714   7.023  10.989  1.5986  2.1692  0.7702
  569MOL0     H78465   9.790   7.200  10.761 -1.3736 -0.0714  0.3627
  569MOL0     H78466   9.825   7.221  10.937  1.3667  1.0033 -0.1722
  569MOL0     H78467   9.918   6.976  10.792  0.0556 -1.4804  3.4542
  569MOL0     H78468   9.977   7.033  10.942  0.0612 -0.3365 -0.2225
  569MOL0     H78469  10.149   7.097  10.795 -0.3388  0.6598  5.1511
  569MOL0     H78470  10.037   7.161  10.668  4.5196  1.9792 -1.1192
  569MOL0     H78471  10.148   7.255  11.019  1.3567 -0.2697 -1.0672
  569MOL0     H78472  10.102   7.651  11.027  1.2942  0.5381  1.1154
  569MOL0     H78473  10.264   7.587  11.054  2.0154 -3.1187 -0.6877
  569MOL0     H78474  10.205   7.461  11.235  0.8342  3.4667  1.3623
  569MOL0     H78475  10.125   7.607  11.251  0.0677 -0.4876  0.7757
  569MOL0     H78476   9.969   7.359  11.192  1.6284 -0.6467  1.8972
  569MOL0     H78477   9.946   7.471  11.315  3.1931 -0.9571  0.6604
  569MOL0     H78478   9.844   7.637  11.211 -1.4505  1.0253 -0.6731
  569MOL0     H78479   9.873   7.573  11.045 -1.3503 -0.9254 -0.8749
  569MOL0     H78480   9.651   7.435  10.935 -1.9808 -1.8145 -1.7739
  569MOL0     H78481   9.442   7.619  10.750 -0.4849  0.0403 -1.6461
  569MOL0     H78482   9.358   7.473  10.750  0.3690  0.7198 -0.3763
  569MOL0     H78483   9.535   7.464  10.740 -1.6264 -3.0934  1.2316
  569MOL0     H78484   8.967   7.648  11.048 -0.7109 -2.8522  1.3780
  569MOL0     H78485   8.732   7.572  11.017 -0.0224  1.4198 -0.5445
  569MOL0     H78486   8.546   7.637  10.902 -3.5875  0.2238  0.3605
  569MOL0     H78487   8.444   7.566  10.790 -2.0352 -2.9751 -0.1755
  569MOL0     H78488   8.563   7.383  11.004  0.7213  1.3247 -0.2457
  569MOL0     H78489   8.423   7.486  11.018 -1.8182  0.7798 -2.8288
  569MOL0     H78490   8.303   7.376  10.855  0.3173  0.8448  2.5296
  569MOL0     H78491   8.377   7.256  10.962  0.9283  0.8459  1.3199
  569MOL0     H78492   8.548   7.208  10.779  0.3341 -0.3952  1.3589
  569MOL0     H78493   8.447   7.323  10.674 -3.1922 -0.6770  0.6408
  569MOL0     H78494   8.378   7.110  10.617  1.5157 -3.9035  0.7963
  569MOL0     H78495   8.385   7.043  10.778 -0.8032 -0.6263 -0.3983
  569MOL0     H78496   8.177   7.175  10.838  2.1691  1.2287  0.8499
  569MOL0     H78497   8.160   7.050  10.721 -1.0782  0.4217  0.0555
  569MOL0     H78498   8.215   7.241  10.539  1.3875  4.9508 -0.3768
  569MOL0     H78499   8.185   7.345  10.682  0.0086 -1.3616  2.6910
  569MOL0     H78500   7.979   7.322  10.542  0.0273 -0.4034 -0.8588
  569MOL0     H78501   7.956   7.270  10.710 -0.4618  2.4966 -0.5774
  569MOL0     H78502   8.835   7.395  10.640 -3.4520  0.1330  0.4823
  569MOL0     H78503   9.093   7.493  10.680 -0.4447  2.7830 -0.2450
  569MOL0     H78504   9.333   7.636  11.246 -1.3308 -0.5110  0.2559
  569MOL0     H78505   9.525   7.566  11.329 -1.7973  0.8632  0.4042
  569MOL0     H78506   9.042   7.345  11.036 -0.1955 -2.6274 -1.5689
  569MOL0     H78507   8.812   7.371  11.155 -0.0064  1.1982  1.2616
  569MOL0     H78508   8.677   7.434  11.689  0.8111 -2.8247 -0.9188
  569MOL0     H78509   8.462   7.499  11.798  0.3698 -1.6653  1.1609
  569MOL0     H78510   8.295   7.420  11.914  0.8107 -0.5542 -1.4935
  569MOL0     H78511   8.257   7.581  11.837 -1.0870  0.5121 -3.0460
  569MOL0     H78512   8.033   7.560  11.893 -0.6912  0.6307  1.4737
  569MOL0     H78513   8.113   7.475  12.028 -0.4428  1.2873  0.7272
  569MOL0     H78514   7.988   7.357  11.779  2.7951  2.4833 -0.2055
  569MOL0     H78515   8.076   7.254  11.889 -0.1502 -0.3308  0.1246
  569MOL0     H78516   7.924   7.330  12.067 -1.9416 -1.4055  0.0990
  569MOL0     H78517   7.834   7.246  11.939 -0.5612  0.2251  0.9984
  569MOL0     H78518   7.663   7.626  11.875  0.3189 -1.1585 -3.7235
  569MOL0     H78519   8.256   7.301  11.484 -1.8842  1.2006  4.0796
  569MOL0     H78520   8.394   7.177  11.317  2.2748 -0.3309  0.2124
  569MOL0     H78521   8.392   7.347  11.247 -2.5546  2.4152  3.4494
  569MOL0     H78522   8.539   7.260  11.256  0.4328 -0.6704  0.8643
  570MOL0     O78523   9.289   0.706   1.555 -0.2160 -0.0987 -0.0831
  570MOL0     C78524   9.196   0.778   1.533  0.5802 -0.0315 -0.3429
  570MOL0     O78525   9.191   0.910   1.563 -0.0272 -0.4598  0.6159
  570MOL0     C78526   9.283   0.956   1.648  0.5842  0.1485 -0.3702
  570MOL0     C78527   9.263   0.946   1.783 -0.8122 -0.6554  1.4029
  570MOL0     C78528   9.351   1.005   1.874 -0.8399  0.2754  0.5309
  570MOL0     C78529   9.461   1.082   1.826 -0.2343 -0.2056 -0.4035
  570MOL0     O78530   9.525   1.160   1.903 -0.5540  0.5526 -0.0676
  570MOL0     C78531   9.603   1.102   2.004  0.4531  0.2527  0.9428
  570MOL0     C78532   9.687   1.215   2.067  0.3792  0.1642  0.2119
  570MOL0     C78533   9.609   1.313   2.154  0.4737  0.6090  0.1223
  570MOL0     C78534   9.509   1.267   2.272 -0.3426  0.8807  0.2510
  570MOL0     C78535   9.445   1.385   2.340  0.0872 -0.3205 -0.9415
  570MOL0     C78536   9.531   1.490   2.404  0.6443  0.5859 -0.2443
  570MOL0     C78537   9.451   1.570   2.508  0.2394  1.0041 -0.0577
  570MOL0     C78538   9.318   1.624   2.440 -0.0762 -0.0438 -0.6352
  570MOL0     N78539   9.256   1.743   2.526 -0.7556  0.1847  0.3755
  570MOL0     C78540   9.253   1.772   2.663 -0.1970  0.5035  0.6674
  570MOL0     C78541   9.154   1.868   2.681 -0.5072 -0.8175  0.3102
  570MOL0     C78542   9.111   1.930   2.811 -0.4545  0.1136 -0.3441
  570MOL0     C78543   9.199   2.040   2.860 -1.0633 -0.2394  0.0837
  570MOL0     C78544   9.330   2.001   2.911  0.8284 -0.5219 -0.2995
  570MOL0     C78545   9.412   2.127   2.942 -0.0679  0.1123 -0.4083
  570MOL0     O78546   9.442   2.205   2.825 -0.5696  0.3417 -0.3378
  570MOL0     C78547   9.531   2.165   2.730  0.5217  0.4543 -0.0387
  570MOL0     C78548   9.661   2.126   2.766  0.1803 -1.0349  0.3591
  570MOL0     C78549   9.748   2.077   2.671 -0.0840  0.1630 -0.4301
  570MOL0     C78550   9.878   2.021   2.720  0.9927 -0.3801  0.4884
  570MOL0     C78551   9.704   2.065   2.533 -1.4561 -0.3359 -0.8263
  570MOL0     C78552   9.782   2.003   2.424 -0.2725  0.7528 -0.0983
  570MOL0     O78553   9.709   1.948   2.323  0.0554 -0.2970  0.2568
  570MOL0     C78554   9.775   1.863   2.239 -1.1224  0.4166 -0.7341
  570MOL0     C78555   9.784   1.732   2.274  0.2851  1.1146  0.1149
  570MOL0     C78556   9.838   1.632   2.202 -1.0162 -0.5785  0.1921
  570MOL0     C78557   9.895   1.660   2.074  0.0021  0.1212 -0.8292
  570MOL0     O78558   9.944   1.553   2.009 -0.0499 -0.3598  0.2866
  570MOL0     C78559  10.028   1.570   1.895 -0.0358  0.6646 -0.5306
  570MOL0     C78560   9.957   1.534   1.762 -0.0113 -0.0582  0.4620
  570MOL0     C78561   9.820   1.594   1.735 -0.0476 -0.8333  0.4504
  570MOL0     C78562   9.798   1.598   1.586 -0.6825  0.3806 -0.5698
  570MOL0     C78563   9.669   1.669   1.561  0.1233 -0.5588  0.1409
  570MOL0     C78564   9.631   1.650   1.418  0.1341  0.1420  0.0632
  570MOL0     C78565   9.710   1.729   1.308 -1.5106 -0.4684  0.3901
  570MOL0     C78566   9.664   1.716   1.167 -0.2700  0.3697  0.1001
  570MOL0    Cl78567   9.665   1.543   1.107 -0.0050  0.3288  0.1031
  570MOL0     C78568   9.892   1.795   2.035  0.3407  1.2139  1.0479
  570MOL0     C78569   9.834   1.896   2.112 -0.3008  0.3339 -0.1627
  570MOL0     O78570   9.900   2.028   2.417  0.2754  0.2270  0.7511
  570MOL0     C78571   9.574   2.112   2.502 -0.7675 -0.8072 -0.2353
  570MOL0     C78572   9.491   2.161   2.600  0.0666  0.0075 -0.0915
  570MOL0     N78573   9.110   1.902   2.554 -0.3973 -0.2365 -0.6312
  570MOL0     N78574   9.173   1.839   2.470 -0.2629  0.0697  0.6656
  570MOL0     C78575   9.471   1.103   1.689 -0.0029  0.0721 -0.2819
  570MOL0     C78576   9.383   1.035   1.600 -0.1435  0.2666  0.0495
  570MOL0     C78577   9.068   0.724   1.468  0.3958  0.3958  0.2595
  570MOL0     C78578   8.983   0.815   1.400  0.5207 -0.3454 -0.6551
  570MOL0     C78579   8.869   0.787   1.330  0.3358 -0.7618 -0.0738
  570MOL0     C78580   8.838   0.658   1.311  0.1126 -0.9599 -0.3525
  570MOL0     O78581   8.762   0.618   1.203 -0.2243  0.8557  0.5616
  570MOL0     C78582   8.625   0.663   1.216  0.2982  0.2461 -0.1885
  570MOL0     C78583   8.530   0.548   1.173  0.7248  0.0635 -1.3625
  570MOL0     C78584   8.565   0.488   1.030  0.4977 -0.6854 -0.7428
  570MOL0     C78585   8.460   0.369   1.016 -0.7754  0.3081  0.9295
  570MOL0     C78586   8.505   0.287   0.904 -0.3767 -0.0534  0.5516
  570MOL0     C78587   8.530   0.218   0.807  0.2032 -0.5411 -0.4963
  570MOL0     C78588   8.913   0.561   1.383  0.2317 -0.0157  2.2280
  570MOL0     C78589   9.016   0.595   1.466  0.0606  0.8007 -0.8864
  570MOL0     C78590   9.099   0.494   1.548 -0.0201  0.4164 -0.2899
  570MOL0     H78591   9.187   0.892   1.839  0.7723 -2.9906  1.4760
  570MOL0     H78592   9.334   0.993   1.981 -0.6353  2.5438  0.8718
  570MOL0     H78593   9.665   1.031   1.949 -0.1143 -0.6306  1.4309
  570MOL0     H78594   9.545   1.045   2.076 -0.9005 -1.5720 -1.4395
  570MOL0     H78595   9.763   1.170   2.132  1.5735  1.0792 -0.5193
  570MOL0     H78596   9.748   1.267   1.994 -2.2101  0.0990 -2.1379
  570MOL0     H78597   9.686   1.373   2.204  1.2744  0.8942 -1.3920
  570MOL0     H78598   9.555   1.379   2.087 -0.3218 -1.6533 -1.5928
  570MOL0     H78599   9.435   1.197   2.231  0.6049 -1.0240  1.5889
  570MOL0     H78600   9.561   1.207   2.347 -1.5261  1.8348  1.9190
  570MOL0     H78601   9.385   1.336   2.417  2.7794 -0.4551  1.2306
  570MOL0     H78602   9.386   1.437   2.264  0.7373 -0.1750 -1.3513
  570MOL0     H78603   9.602   1.442   2.472 -2.4760 -0.7419  2.4018
  570MOL0     H78604   9.573   1.557   2.329 -1.6977 -0.7884 -3.0082
  570MOL0     H78605   9.509   1.657   2.538  1.5894  0.7563 -1.8011
  570MOL0     H78606   9.433   1.510   2.598  1.0308  2.7774  1.3449
  570MOL0     H78607   9.361   1.671   2.350  2.5760  1.8798  1.4717
  570MOL0     H78608   9.245   1.547   2.416 -2.0090  0.5364  2.7693
  570MOL0     H78609   9.308   1.729   2.746 -1.5769  1.3687  2.0992
  570MOL0     H78610   9.113   1.857   2.893 -0.7380  0.3812 -0.0961
  570MOL0     H78611   9.008   1.966   2.807 -1.3696 -2.3400 -0.3009
  570MOL0     H78612   9.229   2.101   2.774  2.0265 -0.8477  0.6249
  570MOL0     H78613   9.148   2.107   2.930 -1.8579  1.3146 -1.8830
  570MOL0     H78614   9.318   1.951   3.008  3.1742 -3.2635 -1.2689
  570MOL0     H78615   9.383   1.935   2.841 -0.7350 -1.9627 -0.1839
  570MOL0     H78616   9.347   2.179   3.013 -3.0197 -1.2239 -1.9446
  570MOL0     H78617   9.509   2.101   2.985 -0.8270 -2.4102 -0.0548
  570MOL0     H78618   9.696   2.152   2.865 -0.1152  3.2790 -0.4517
  570MOL0     H78619   9.931   2.087   2.789 -1.0894  0.7640  1.0950
  570MOL0     H78620   9.947   1.999   2.639  0.5020 -1.4892  0.3584
  570MOL0     H78621   9.863   1.924   2.769 -1.4725  0.1178  0.8376
  570MOL0     H78622   9.756   1.706   2.375 -0.5009 -0.7579 -0.5389
  570MOL0     H78623   9.840   1.526   2.224  0.6435 -1.3990 -3.3127
  570MOL0     H78624  10.060   1.674   1.905 -0.8227  0.7708  1.3402
  570MOL0     H78625  10.117   1.507   1.912 -0.1294  0.5065 -0.6286
  570MOL0     H78626  10.022   1.574   1.684  0.5452 -0.4408  0.7273
  570MOL0     H78627   9.947   1.426   1.754 -2.0251  0.0951  0.4647
  570MOL0     H78628   9.804   1.698   1.765 -1.8210 -0.4772 -1.5062
  570MOL0     H78629   9.749   1.536   1.794  0.6721  0.0477  2.2872
  570MOL0     H78630   9.789   1.494   1.553  0.8308 -0.0010  0.0990
  570MOL0     H78631   9.882   1.647   1.535  0.9968 -0.4859  1.2403
  570MOL0     H78632   9.586   1.631   1.622  1.9719 -1.5311  2.1933
  570MOL0     H78633   9.682   1.776   1.581  0.5551 -0.6026  0.1105
  570MOL0     H78634   9.529   1.684   1.398  1.0515  2.8989 -0.3974
  570MOL0     H78635   9.630   1.543   1.394 -4.0951 -0.2319  1.0779
  570MOL0     H78636   9.814   1.698   1.308 -1.2046  0.2119 -2.8745
  570MOL0     H78637   9.702   1.837   1.321  2.1292  0.0659 -0.8508
  570MOL0     H78638   9.731   1.772   1.101 -0.5212  2.6979  1.7279
  570MOL0     H78639   9.563   1.758   1.166 -0.0742  0.8802  0.8929
  570MOL0     H78640   9.925   1.813   1.933 -2.4022 -1.1977 -0.4305
  570MOL0     H78641   9.824   1.997   2.074  1.8896  0.7121  0.1171
  570MOL0     H78642   9.540   2.102   2.399 -3.2357  1.3423  0.2942
  570MOL0     H78643   9.386   2.186   2.585 -0.4110 -2.4292 -1.3067
  570MOL0     H78644   9.545   1.170   1.647  1.9496 -1.4796  0.4834
  570MOL0     H78645   9.380   1.053   1.493 -0.3950  5.1719  0.6498
  570MOL0     H78646   9.010   0.920   1.400 -0.0143 -0.2026 -1.5079
  570MOL0     H78647   8.820   0.854   1.259  1.2945 -2.5131 -2.5552
  570MOL0     H78648   8.595   0.693   1.316 -1.5482  2.3476 -1.2916
  570MOL0     H78649   8.613   0.752   1.154  1.5740  0.0262 -0.7740
  570MOL0     H78650   8.426   0.581   1.177  0.4529 -0.8593  1.6392
  570MOL0     H78651   8.529   0.464   1.243 -1.4085 -0.3836 -1.8687
  570MOL0     H78652   8.556   0.561   0.949 -1.3177 -1.6051 -1.4494
  570MOL0     H78653   8.671   0.461   1.032  0.7654  0.3619  0.4297
  570MOL0     H78654   8.356   0.405   1.011 -0.7285  0.2743 -2.4971
  570MOL0     H78655   8.459   0.305   1.104  0.5627 -2.1428 -0.7369
  570MOL0     H78656   8.558   0.164   0.718 -1.7437 -2.6696  0.1047
  570MOL0     H78657   8.883   0.457   1.375 -4.5205  1.2276  0.5397
  570MOL0     H78658   9.024   0.421   1.579 -0.9403  1.6080  0.3599
  570MOL0     H78659   9.174   0.448   1.483  1.6871  0.5412  1.4824
  570MOL0     H78660   9.147   0.524   1.642 -0.9203  0.6270  0.1144
  571MOL0     O78661   4.855   2.832   7.700 -1.0486 -0.2533 -0.6990
  571MOL0     C78662   4.932   2.902   7.768  0.1277  0.1018 -0.8620
  571MOL0     O78663   5.038   2.853   7.843  0.3427  0.5826  0.0606
  571MOL0     C78664   5.037   2.722   7.892 -0.4059  0.4789  0.6574
  571MOL0     C78665   5.165   2.673   7.900  0.2315  0.1336 -0.5089
  571MOL0     C78666   5.193   2.558   7.968  0.0768 -0.1081  0.2427
  571MOL0     C78667   5.084   2.489   8.025  0.4428  0.6823  0.1479
  571MOL0     O78668   5.115   2.371   8.096  0.5973  0.5200  0.3948
  571MOL0     C78669   5.132   2.257   8.011 -0.0537  0.0407  0.0469
  571MOL0     C78670   5.217   2.145   8.082  0.9096  0.0683 -0.3471
  571MOL0     C78671   5.355   2.196   8.092 -0.7286  0.7454  0.3112
  571MOL0     C78672   5.437   2.205   7.955  0.6085 -0.3147 -0.2519
  571MOL0     C78673   5.577   2.254   7.987  0.2384 -0.3767  0.8438
  571MOL0     C78674   5.680   2.203   7.873 -0.1656 -0.8366  0.5835
  571MOL0     C78675   5.821   2.271   7.894  0.6402 -0.2349  0.1294
  571MOL0     C78676   5.913   2.251   7.776 -0.2333 -0.3735  0.3039
  571MOL0     N78677   6.021   2.153   7.795 -0.2764  0.2590 -0.2693
  571MOL0     C78678   6.155   2.194   7.791 -0.0864  0.2954  1.0631
  571MOL0     C78679   6.221   2.088   7.796 -0.6295  0.4148  0.7224
  571MOL0     C78680   6.374   2.070   7.806 -0.9634  0.0135  0.0048
  571MOL0     C78681   6.455   2.164   7.702  0.3830  0.2538 -0.4209
  571MOL0     C78682   6.483   2.075   7.574  0.5038  0.4263 -0.7659
  571MOL0     C78683   6.363   2.025   7.504 -0.2435  0.4640 -0.3006
  571MOL0     O78684   6.297   2.138   7.432  0.2829  0.3654 -1.1703
  571MOL0     C78685   6.163   2.138   7.425 -0.7791  0.5286 -0.0851
  571MOL0     C78686   6.083   2.025   7.445  0.1222  0.2559  0.7381
  571MOL0     C78687   5.948   2.037   7.447 -0.2408  0.0543 -0.2523
  571MOL0     C78688   5.856   1.919   7.467  0.1652  0.3450  0.2959
  571MOL0     C78689   5.888   2.161   7.425 -0.5087  0.4792  0.9015
  571MOL0     C78690   5.744   2.185   7.426  0.4008  0.7957 -0.3369
  571MOL0     O78691   5.658   2.106   7.355  0.1015  0.1245 -0.9059
  571MOL0     C78692   5.532   2.147   7.345  0.1755 -0.9439  0.2916
  571MOL0     C78693   5.428   2.076   7.408  0.5179  0.7565  0.0661
  571MOL0     C78694   5.295   2.108   7.372  0.5235 -0.0293  0.3175
  571MOL0     C78695   5.272   2.220   7.284  0.5452 -1.6158  0.8263
  571MOL0     O78696   5.139   2.229   7.247 -0.1947  0.0878  0.7869
  571MOL0     C78697   5.094   2.347   7.176  1.1394 -0.9269 -0.0638
  571MOL0     C78698   5.117   2.483   7.252 -1.0234  0.2343  0.0522
  571MOL0     C78699   5.080   2.476   7.407  0.3692  0.2515  0.0402
  571MOL0     C78700   5.084   2.612   7.480  0.1956  0.9674  0.5016
  571MOL0     C78701   5.225   2.674   7.470 -1.0698 -0.3827  0.5551
  571MOL0     C78702   5.311   2.593   7.568  0.1061  0.2824 -0.1199
  571MOL0     C78703   5.446   2.644   7.591 -1.2981 -0.7482 -0.0312
  571MOL0     C78704   5.535   2.548   7.678  0.4157  0.1985  0.4278
  571MOL0    Cl78705   5.698   2.617   7.683  0.3440  0.1426 -0.3179
  571MOL0     C78706   5.374   2.286   7.219  0.7786  1.4078  0.3027
  571MOL0     C78707   5.496   2.254   7.259 -0.4122  0.0514 -1.0336
  571MOL0     O78708   5.713   2.278   7.505  0.1843 -0.0805 -0.1278
  571MOL0     C78709   5.968   2.270   7.387 -0.8090 -0.2742  0.0773
  571MOL0     C78710   6.108   2.259   7.383  0.0188 -0.0027  0.2193
  571MOL0     N78711   6.131   1.983   7.801 -0.5679  0.4971 -0.4399
  571MOL0     N78712   6.008   2.019   7.804 -1.0375  0.3844  0.2571
  571MOL0     C78713   4.950   2.518   7.990  0.8880  0.0440 -0.2415
  571MOL0     C78714   4.919   2.642   7.929  0.4875 -0.9726 -0.3682
  571MOL0     C78715   4.930   3.053   7.745  0.2371 -0.8364 -0.7458
  571MOL0     C78716   5.014   3.131   7.834  0.4387  0.5290 -0.4184
  571MOL0     C78717   5.041   3.267   7.819  1.0685 -0.2249 -0.1547
  571MOL0     C78718   4.982   3.340   7.727 -0.7813 -1.2337 -0.1037
  571MOL0     O78719   4.998   3.475   7.732  0.3571 -0.3178 -0.1022
  571MOL0     C78720   4.921   3.555   7.636 -0.0031 -0.4375 -0.3551
  571MOL0     C78721   4.990   3.692   7.619  0.3588  0.3281  0.2887
  571MOL0     C78722   5.114   3.682   7.527 -0.2756 -0.9974 -0.4323
  571MOL0     C78723   5.185   3.820   7.511 -0.8423 -0.8891  0.4813
  571MOL0     C78724   5.323   3.802   7.462  0.5783 -1.0184 -0.0765
  571MOL0     C78725   5.437   3.790   7.422  0.3195 -0.1735  0.1115
  571MOL0     C78726   4.885   3.272   7.640 -0.6751  0.5686 -0.3992
  571MOL0     C78727   4.860   3.136   7.646 -0.1538  0.5649  0.2030
  571MOL0     C78728   4.763   3.065   7.547  0.0287 -0.9505  0.5689
  571MOL0     H78729   5.240   2.733   7.849 -0.3293  1.7064  0.4377
  571MOL0     H78730   5.288   2.507   7.975 -1.2597 -2.4805  4.3339
  571MOL0     H78731   5.185   2.285   7.919 -3.2888  3.9268 -0.9067
  571MOL0     H78732   5.035   2.219   7.979  0.3314 -1.9308  1.0455
  571MOL0     H78733   5.171   2.130   8.180  0.8710  1.8393 -0.0627
  571MOL0     H78734   5.206   2.048   8.032  2.4464 -0.8481  1.0086
  571MOL0     H78735   5.358   2.298   8.130  4.4374  1.0512 -0.2061
  571MOL0     H78736   5.405   2.117   8.149 -0.5669  0.2846 -0.4462
  571MOL0     H78737   5.443   2.103   7.915  0.0259  0.8557 -3.7003
  571MOL0     H78738   5.390   2.270   7.880 -3.5817  1.2366  3.3101
  571MOL0     H78739   5.609   2.206   8.080 -1.0053 -3.5356 -0.2180
  571MOL0     H78740   5.568   2.362   8.003 -0.1542 -0.4752  1.3587
  571MOL0     H78741   5.677   2.094   7.865 -2.0661 -0.7352 -1.0965
  571MOL0     H78742   5.649   2.246   7.778  2.3161 -0.1077  0.0358
  571MOL0     H78743   5.885   2.242   7.978  4.7409  0.8560 -2.3772
  571MOL0     H78744   5.793   2.377   7.902 -2.7271 -0.9401 -0.6138
  571MOL0     H78745   5.845   2.215   7.698  0.6585  0.2362 -0.7864
  571MOL0     H78746   5.947   2.347   7.738 -1.4657 -0.7335 -1.8413
  571MOL0     H78747   6.184   2.299   7.788  1.4262 -0.1268  0.2980
  571MOL0     H78748   6.388   1.962   7.791 -0.6177  0.0869 -0.2106
  571MOL0     H78749   6.396   2.097   7.909 -0.7759  0.9468 -0.2735
  571MOL0     H78750   6.402   2.255   7.673 -2.0202 -0.7125  0.6591
  571MOL0     H78751   6.551   2.199   7.742  0.0535 -0.0716  0.7064
  571MOL0     H78752   6.552   2.125   7.506 -0.2434  0.0851 -1.8020
  571MOL0     H78753   6.527   1.984   7.615 -0.5466  1.3043  2.6674
  571MOL0     H78754   6.404   1.957   7.429  0.6132 -0.3566  0.8664
  571MOL0     H78755   6.296   1.971   7.572  0.8635  1.4753  1.6881
  571MOL0     H78756   6.134   1.930   7.439  3.3611  1.8211  1.2160
  571MOL0     H78757   5.896   1.840   7.403  2.3553  0.6371  1.1874
  571MOL0     H78758   5.750   1.926   7.443 -0.0153  1.0838  1.2233
  571MOL0     H78759   5.863   1.876   7.568  1.9674 -0.8839 -0.2962
  571MOL0     H78760   5.449   1.991   7.471 -0.4883 -0.4760 -1.1934
  571MOL0     H78761   5.212   2.053   7.414  0.3973  0.7772  1.1679
  571MOL0     H78762   5.116   2.346   7.069 -2.7325 -1.6894 -1.0034
  571MOL0     H78763   4.986   2.333   7.175  1.1509 -1.0422  0.3152
  571MOL0     H78764   5.222   2.509   7.236 -0.6553 -1.1399  0.1465
  571MOL0     H78765   5.061   2.563   7.202 -1.4258 -1.4693 -2.4042
  571MOL0     H78766   5.134   2.401   7.466 -4.7186 -3.4130  0.6759
  571MOL0     H78767   4.977   2.440   7.412 -0.6359  2.6250 -1.4652
  571MOL0     H78768   5.046   2.591   7.581 -0.3369 -1.3256 -0.1037
  571MOL0     H78769   5.015   2.681   7.433  0.2169  0.9743  0.4807
  571MOL0     H78770   5.261   2.670   7.367 -1.9545 -1.8345  0.2791
  571MOL0     H78771   5.211   2.777   7.504 -0.6074 -0.5040  1.1317
  571MOL0     H78772   5.316   2.489   7.534 -0.5905  0.0036  0.5915
  571MOL0     H78773   5.250   2.601   7.658 -3.7989  1.3086 -2.6003
  571MOL0     H78774   5.458   2.746   7.629  0.4852 -0.4109 -1.3830
  571MOL0     H78775   5.491   2.641   7.492 -0.4595 -1.1040  0.3492
  571MOL0     H78776   5.528   2.454   7.623 -1.2312  0.5867 -0.0705
  571MOL0     H78777   5.483   2.540   7.774  0.9591  0.1686  0.7242
  571MOL0     H78778   5.360   2.357   7.138  2.2576  0.8414 -0.4943
  571MOL0     H78779   5.574   2.312   7.211 -2.3883  1.4102 -2.7279
  571MOL0     H78780   5.931   2.369   7.363 -0.4834  0.1038  1.1144
  571MOL0     H78781   6.163   2.350   7.358 -0.1313 -0.0115 -0.1478
  571MOL0     H78782   4.877   2.441   8.011  0.2746  0.0560 -2.1854
  571MOL0     H78783   4.817   2.673   7.911 -0.1520 -3.0983 -0.7329
  571MOL0     H78784   5.083   3.085   7.904 -0.8528  1.6888  1.7156
  571MOL0     H78785   5.123   3.323   7.863  0.2008  0.4252  0.6556
  571MOL0     H78786   4.905   3.512   7.537  0.5099  0.1685 -0.7076
  571MOL0     H78787   4.820   3.564   7.676  0.6736 -2.3364  2.0342
  571MOL0     H78788   5.017   3.722   7.721 -1.6473 -1.8181  1.5662
  571MOL0     H78789   4.921   3.766   7.577  1.2999  1.4320  0.6372
  571MOL0     H78790   5.179   3.612   7.581 -0.3009 -1.0188 -0.4301
  571MOL0     H78791   5.107   3.637   7.428  3.6932 -1.7939 -0.5376
  571MOL0     H78792   5.182   3.867   7.609 -0.0782  0.0625  0.0694
  571MOL0     H78793   5.139   3.883   7.434 -1.7910 -2.4093 -0.2438
  571MOL0     H78794   5.533   3.779   7.377 -0.7074 -0.5560 -2.1302
  571MOL0     H78795   4.813   3.319   7.574  0.1097 -2.0568 -3.3680
  571MOL0     H78796   4.768   3.130   7.459 -0.3471 -0.9921  0.5121
  571MOL0     H78797   4.806   2.970   7.514 -2.5368 -0.6994 -4.6181
  571MOL0     H78798   4.662   3.053   7.588 -0.4096 -1.6848 -0.6641
  572MOL0     O78799   4.639   7.384   0.353  0.6857 -0.0041  0.1257
  572MOL0     C78800   4.750   7.350   0.381 -0.7521  0.4321 -0.0658
  572MOL0     O78801   4.868   7.415   0.349  0.1766 -0.0303 -0.6448
  572MOL0     C78802   4.861   7.537   0.291  0.2777 -0.1337  0.7152
  572MOL0     C78803   4.787   7.556   0.174 -0.0049  0.1447 -0.3523
  572MOL0     C78804   4.809   7.672   0.101  0.1399 -0.3657  1.1866
  572MOL0     C78805   4.867   7.784   0.159 -0.5079 -0.1093 -0.3811
  572MOL0     O78806   4.879   7.905   0.107 -0.1230 -0.0056  0.1841
  572MOL0     C78807   4.785   7.944   0.007  0.0270 -0.3544 -0.5180
  572MOL0     C78808   4.785   8.094  -0.027 -0.9132 -0.7755  0.3891
  572MOL0     C78809   4.928   8.150  -0.035 -0.2846  0.6793 -0.4227
  572MOL0     C78810   4.956   8.267  -0.122 -0.9816 -0.0134  0.1225
  572MOL0     C78811   5.105   8.296  -0.162  0.0015  0.5933 -0.2752
  572MOL0     C78812   5.197   8.319  -0.039 -0.0753 -0.2456 -0.3811
  572MOL0     C78813   5.338   8.330  -0.087 -0.0051  0.2561 -0.0493
  572MOL0     C78814   5.444   8.293   0.018  0.8228 -0.0457  0.3087
  572MOL0     N78815   5.467   8.419   0.099 -0.3383 -0.2613  0.0773
  572MOL0     C78816   5.580   8.496   0.082  0.5599  0.3636  0.5153
  572MOL0     C78817   5.595   8.566   0.196 -0.2385  0.0397  1.1819
  572MOL0     C78818   5.700   8.670   0.229  0.5599 -0.1702  0.5208
  572MOL0     C78819   5.664   8.747   0.358 -0.1821  0.5159  0.5259
  572MOL0     C78820   5.772   8.840   0.416  0.2292 -0.1276  0.2029
  572MOL0     C78821   5.797   8.964   0.332 -0.3807  0.1301 -0.2813
  572MOL0     O78822   5.845   8.920   0.207 -0.3788 -0.3713 -0.5891
  572MOL0     C78823   5.849   9.000   0.104 -0.1434  0.0084  0.1885
  572MOL0     C78824   5.801   9.129   0.099  0.9876  0.8224 -0.4346
  572MOL0     C78825   5.805   9.203  -0.015  0.4482  0.3058  0.6469
  572MOL0     C78826   5.758   9.345  -0.009 -0.2908  0.5931 -0.5909
  572MOL0     C78827   5.876   9.163  -0.130 -1.0939  0.7140 -0.5026
  572MOL0     C78828   5.894   9.240  -0.252 -0.5105  0.3836  0.2154
  572MOL0     O78829   5.880   9.154  -0.364 -0.8309  0.0655  0.0300
  572MOL0     C78830   5.971   9.185  -0.463  0.7664 -0.3529 -0.0174
  572MOL0     C78831   5.926   9.178  -0.596 -0.3263 -0.3050  0.8549
  572MOL0     C78832   6.013   9.205  -0.700  0.0408 -0.4339 -0.7362
  572MOL0     C78833   6.144   9.245  -0.675 -0.3471 -0.2237  0.1739
  572MOL0     O78834   6.216   9.277  -0.788  0.0345 -0.1030  0.9079
  572MOL0     C78835   6.353   9.254  -0.779  0.7765  0.5075 -0.9040
  572MOL0     C78836   6.420   9.280  -0.913 -0.0442  0.4835 -0.3819
  572MOL0     C78837   6.349   9.211  -1.032  0.4968  0.2934 -0.0222
  572MOL0     C78838   6.364   9.058  -1.027 -0.5769  0.2335 -1.1428
  572MOL0     C78839   6.321   8.984  -1.150 -0.2875  0.8042  0.3298
  572MOL0     C78840   6.346   8.831  -1.150 -1.1815  0.5157 -0.2071
  572MOL0     C78841   6.485   8.773  -1.092  0.3494  0.2997 -0.0414
  572MOL0     C78842   6.553   8.682  -1.188 -0.4702 -0.2494  0.6528
  572MOL0    Cl78843   6.555   8.751  -1.355 -0.0348  0.1122  0.2261
  572MOL0     C78844   6.192   9.237  -0.541 -1.0637  0.1762 -0.2632
  572MOL0     C78845   6.105   9.204  -0.435 -0.2898 -0.1335  0.1153
  572MOL0     O78846   5.921   9.359  -0.263 -0.1252 -0.1452  0.4821
  572MOL0     C78847   5.940   9.036  -0.123  1.0451  0.2319  0.4417
  572MOL0     C78848   5.925   8.957  -0.011  0.4846  0.0535 -0.1661
  572MOL0     N78849   5.493   8.524   0.283 -0.6241  0.1417 -0.7532
  572MOL0     N78850   5.421   8.444   0.220  0.1897  0.6102  0.5715
  572MOL0     C78851   4.916   7.777   0.287 -0.0271 -0.6108  0.1028
  572MOL0     C78852   4.936   7.645   0.341  0.2066 -0.2353  0.3518
  572MOL0     C78853   4.768   7.204   0.407  0.9361 -0.0560 -0.7311
  572MOL0     C78854   4.816   7.120   0.296 -0.4545  0.5152 -0.6509
  572MOL0     C78855   4.842   6.985   0.321 -0.2544 -0.2331  0.3419
  572MOL0     C78856   4.809   6.924   0.443 -0.0136 -0.1409  0.4434
  572MOL0     O78857   4.811   6.783   0.446 -0.6519 -0.4654  0.3130
  572MOL0     C78858   4.759   6.716   0.561  0.5284  0.0618 -0.0292
  572MOL0     C78859   4.851   6.612   0.620  0.4907 -0.3523  0.8857
  572MOL0     C78860   4.892   6.645   0.770 -0.7914 -0.5610  0.5839
  572MOL0     C78861   4.946   6.525   0.847 -1.0109 -0.1065 -0.0262
  572MOL0     C78862   5.078   6.497   0.805  0.1715  0.4527 -0.3349
  572MOL0     C78863   5.190   6.471   0.776  0.5718  0.0213  1.1419
  572MOL0     C78864   4.764   7.013   0.546 -0.1357  0.1588 -0.7980
  572MOL0     C78865   4.732   7.147   0.533  0.4679 -0.0141  0.1227
  572MOL0     C78866   4.685   7.219   0.659 -0.1264  0.1921 -0.3369
  572MOL0     H78867   4.730   7.471   0.136  0.7957  0.6530 -2.8351
  572MOL0     H78868   4.764   7.680   0.002 -1.9510  1.7448  2.2033
  572MOL0     H78869   4.682   7.911   0.025  0.4052 -2.1906 -1.5015
  572MOL0     H78870   4.816   7.898  -0.087  1.6928  0.9611 -0.6579
  572MOL0     H78871   4.730   8.110  -0.121 -0.1497 -0.7526 -0.0568
  572MOL0     H78872   4.741   8.154   0.053 -1.4320 -0.6069 -0.0139
  572MOL0     H78873   4.964   8.165   0.067  0.0260 -4.5285  0.5162
  572MOL0     H78874   4.987   8.070  -0.081  2.2155  2.5371 -0.6919
  572MOL0     H78875   4.903   8.247  -0.216  0.6966 -2.9349 -0.3058
  572MOL0     H78876   4.914   8.358  -0.078 -0.8563 -0.4837  1.2455
  572MOL0     H78877   5.110   8.385  -0.225  1.2739 -0.7482 -2.1816
  572MOL0     H78878   5.139   8.205  -0.212 -0.1911 -1.1970  2.6629
  572MOL0     H78879   5.163   8.412   0.008  0.5929 -0.0047 -0.3637
  572MOL0     H78880   5.194   8.229   0.023  0.8880  0.1537  0.2575
  572MOL0     H78881   5.353   8.434  -0.119 -0.5358  1.0692  2.1706
  572MOL0     H78882   5.357   8.262  -0.171  2.2548  0.9177 -0.1483
  572MOL0     H78883   5.419   8.214   0.089  0.6876  1.5146  2.0916
  572MOL0     H78884   5.532   8.264  -0.040  0.1374  0.2524 -0.9089
  572MOL0     H78885   5.641   8.489  -0.008 -0.7895 -2.6409 -0.3200
  572MOL0     H78886   5.709   8.741   0.146 -1.2211 -2.1930 -1.5158
  572MOL0     H78887   5.794   8.614   0.237 -0.2169 -1.5663  0.1052
  572MOL0     H78888   5.562   8.784   0.341 -1.6565 -1.9418  3.1584
  572MOL0     H78889   5.643   8.679   0.440 -1.9523  0.5981  0.1740
  572MOL0     H78890   5.731   8.883   0.508 -3.3048 -5.1662  1.3512
  572MOL0     H78891   5.861   8.779   0.436  1.3880  0.6175 -2.2098
  572MOL0     H78892   5.704   9.021   0.322 -1.7973 -1.9221  0.6114
  572MOL0     H78893   5.861   9.039   0.381 -4.1964  1.0606  3.9584
  572MOL0     H78894   5.760   9.178   0.186 -0.5835 -0.5749 -0.3500
  572MOL0     H78895   5.712   9.384   0.082 -0.3360  0.7532 -0.6799
  572MOL0     H78896   5.676   9.368  -0.077  0.7548  2.7850 -1.2011
  572MOL0     H78897   5.845   9.408  -0.031  1.6403 -2.4443 -2.3792
  572MOL0     H78898   5.832   9.146  -0.640  0.4906 -1.5636 -0.0694
  572MOL0     H78899   5.999   9.199  -0.808 -0.3239  2.3988 -0.9279
  572MOL0     H78900   6.392   9.330  -0.710 -3.6131  1.0713  1.2952
  572MOL0     H78901   6.367   9.151  -0.743 -3.3723  0.1206  0.1208
  572MOL0     H78902   6.428   9.388  -0.930 -0.7313  0.4662 -0.8733
  572MOL0     H78903   6.524   9.246  -0.904 -0.3202 -1.0056 -2.1322
  572MOL0     H78904   6.385   9.249  -1.127  0.8657 -0.4412 -0.1879
  572MOL0     H78905   6.241   9.227  -1.029  0.0482 -2.2084  0.0172
  572MOL0     H78906   6.320   9.013  -0.938  2.1414  0.5160  0.4371
  572MOL0     H78907   6.469   9.044  -1.000 -1.1304 -0.8535  0.6094
  572MOL0     H78908   6.212   8.983  -1.161 -0.4664 -0.3920  1.9186
  572MOL0     H78909   6.360   9.031  -1.241  2.3081  1.1828  1.5448
  572MOL0     H78910   6.328   8.803  -1.254  0.1586  0.0077 -0.3219
  572MOL0     H78911   6.265   8.789  -1.090 -0.4471 -0.2911  0.2479
  572MOL0     H78912   6.469   8.712  -1.003  1.9091 -0.6208 -0.3423
  572MOL0     H78913   6.554   8.856  -1.072 -0.3171  1.7579 -3.1819
  572MOL0     H78914   6.499   8.587  -1.196 -1.4929  0.4833 -2.4774
  572MOL0     H78915   6.657   8.666  -1.160  0.6888  2.2682 -1.6938
  572MOL0     H78916   6.294   9.255  -0.507 -0.0952 -2.9187 -1.2148
  572MOL0     H78917   6.151   9.179  -0.340  2.4530  0.2314 -1.0269
  572MOL0     H78918   5.993   8.991  -0.207  0.6481  2.6292 -1.1840
  572MOL0     H78919   5.971   8.859   0.001  1.8893  0.7630  0.6564
  572MOL0     H78920   4.963   7.867   0.325  1.1390 -1.1994  0.1244
  572MOL0     H78921   5.002   7.627   0.426 -1.1613  1.1039  1.7678
  572MOL0     H78922   4.837   7.152   0.195  0.9836  0.2016 -0.4727
  572MOL0     H78923   4.880   6.927   0.238 -2.0850 -1.0383  0.0241
  572MOL0     H78924   4.718   6.778   0.641 -1.8891 -2.7109  1.0790
  572MOL0     H78925   4.674   6.657   0.524  0.2538 -1.8432  3.2101
  572MOL0     H78926   4.946   6.591   0.569  0.3898 -1.8331  1.2507
  572MOL0     H78927   4.799   6.516   0.615  0.7130 -0.4293 -1.3220
  572MOL0     H78928   4.961   6.729   0.783 -1.6176  0.1146  0.6985
  572MOL0     H78929   4.805   6.687   0.821 -0.8999  1.4616 -1.1296
  572MOL0     H78930   4.890   6.432   0.835 -1.4611  0.1305  0.2048
  572MOL0     H78931   4.940   6.544   0.955  5.0187  0.7097  0.5036
  572MOL0     H78932   5.293   6.444   0.767  0.4353 -0.3834  0.6743
  572MOL0     H78933   4.759   6.971   0.646  2.9320 -2.5435 -1.5885
  572MOL0     H78934   4.701   7.164   0.752  2.3391 -0.7902 -1.2864
  572MOL0     H78935   4.740   7.313   0.674 -1.6286  0.8985  1.1450
  572MOL0     H78936   4.576   7.235   0.656 -0.2031 -0.4793 -1.1521
  573MOL0     O78937  10.376   1.318   0.178 -0.2660  0.0914  0.1082
  573MOL0     C78938  10.390   1.395   0.270  0.8750 -0.2883 -0.4714
  573MOL0     O78939  10.310   1.502   0.297  0.3508 -0.2910 -0.6045
  573MOL0     C78940  10.218   1.531   0.208  0.6744  0.3779  1.3103
  573MOL0     C78941  10.098   1.450   0.190 -0.0126  0.9528  0.9431
  573MOL0     C78942  10.007   1.469   0.092 -0.3462  0.6394  0.2742
  573MOL0     C78943  10.020   1.588   0.016 -0.2049  0.2603  0.2316
  573MOL0     O78944   9.932   1.630  -0.072  0.3453  0.3390 -0.5077
  573MOL0     C78945   9.821   1.554  -0.106  0.4259 -0.0879  0.0181
  573MOL0     C78946   9.850   1.435  -0.206 -0.3011  0.2614 -0.5895
  573MOL0     C78947   9.737   1.350  -0.258  0.0365 -0.0191 -0.2341
  573MOL0     C78948   9.761   1.286  -0.394 -0.2430 -0.6199 -0.6669
  573MOL0     C78949   9.653   1.181  -0.425  1.0579  0.4119 -0.3902
  573MOL0     C78950   9.654   1.140  -0.575 -0.2143  0.0870  0.2342
  573MOL0     C78951   9.527   1.065  -0.617  0.5725  0.2187 -0.1042
  573MOL0     C78952   9.546   0.992  -0.754 -0.4278 -0.5916  0.2669
  573MOL0     N78953   9.438   0.897  -0.788 -0.2877 -0.0814  0.4814
  573MOL0     C78954   9.380   0.801  -0.708 -0.1973 -0.5428 -0.0950
  573MOL0     C78955   9.288   0.737  -0.783  1.2181 -0.5558  0.2146
  573MOL0     C78956   9.204   0.620  -0.745 -0.4317 -0.5406  0.7702
  573MOL0     C78957   9.089   0.608  -0.850 -0.5150 -1.1039  0.7386
  573MOL0     C78958   8.999   0.490  -0.824  0.2098 -0.2120  0.3991
  573MOL0     C78959   8.907   0.460  -0.948  0.2923  0.8665  0.5549
  573MOL0     O78960   8.832   0.339  -0.931 -0.0830  0.7969  0.5752
  573MOL0     C78961   8.735   0.312  -1.025 -0.0126  0.1907 -0.2661
  573MOL0     C78962   8.625   0.384  -1.031  0.7072 -0.2809  0.0634
  573MOL0     C78963   8.520   0.365  -1.123 -0.0668  0.0074 -0.1094
  573MOL0     C78964   8.395   0.447  -1.107 -0.8580 -0.4159 -0.2916
  573MOL0     C78965   8.533   0.257  -1.218 -0.5197 -0.0833  0.6779
  573MOL0     C78966   8.438   0.210  -1.323 -0.8633  0.7163  0.4511
  573MOL0     O78967   8.482   0.114  -1.402 -0.5936 -0.1835 -0.5207
  573MOL0     C78968   8.399   0.053  -1.489 -0.7788 -0.2409 -0.0152
  573MOL0     C78969   8.386  -0.088  -1.502  0.4738  0.2436  0.4164
  573MOL0     C78970   8.315  -0.149  -1.607 -0.3109  1.2912 -0.0134
  573MOL0     C78971   8.256  -0.083  -1.712 -0.2398  0.4840 -0.4166
  573MOL0     O78972   8.199  -0.153  -1.810  0.4340 -0.1115 -0.5777
  573MOL0     C78973   8.198  -0.103  -1.947 -0.1067  0.4606  0.1541
  573MOL0     C78974   8.158  -0.214  -2.056 -0.0658  0.3394 -0.1063
  573MOL0     C78975   8.258  -0.332  -2.064 -0.2207  0.1027  0.3036
  573MOL0     C78976   8.183  -0.463  -2.062  0.8239  0.3348  0.3215
  573MOL0     C78977   8.267  -0.587  -2.048  0.0241  0.8077  1.2682
  573MOL0     C78978   8.188  -0.715  -2.073 -0.5608 -0.4090 -0.2963
  573MOL0     C78979   8.285  -0.829  -2.042 -0.0408  0.4519 -0.7340
  573MOL0     C78980   8.239  -0.959  -2.099  0.4550 -0.1025 -0.6470
  573MOL0    Cl78981   8.370  -1.070  -2.137 -0.0419  0.5869 -0.1326
  573MOL0     C78982   8.263   0.056  -1.706  0.0051  0.0071 -0.4279
  573MOL0     C78983   8.337   0.117  -1.602  0.1941 -0.2292 -1.4960
  573MOL0     O78984   8.329   0.269  -1.336  0.4555  0.5394 -0.1175
  573MOL0     C78985   8.656   0.184  -1.212 -0.5485 -0.1814  0.6985
  573MOL0     C78986   8.756   0.218  -1.118 -0.1805  0.3004 -0.0985
  573MOL0     N78987   9.286   0.799  -0.912  0.0163 -0.3103  0.7255
  573MOL0     N78988   9.384   0.886  -0.913  0.3381  0.4424  0.2786
  573MOL0     C78989  10.128   1.673   0.036 -0.0585 -0.0369 -0.3935
  573MOL0     C78990  10.231   1.644   0.129  0.2647  0.3641  0.3377
  573MOL0     C78991  10.497   1.359   0.365 -0.7079 -0.6073  0.6061
  573MOL0     C78992  10.508   1.433   0.484 -0.6305  0.6942 -0.2486
  573MOL0     C78993  10.609   1.419   0.574  0.0855  0.2641 -0.0832
  573MOL0     C78994  10.709   1.327   0.557  0.4149  0.5257  0.2236
  573MOL0     O78995  10.795   1.316   0.662 -0.3711  0.3933  0.1828
  573MOL0     C78996  10.930   1.345   0.629  0.1658 -0.4881 -0.0229
  573MOL0     C78997  11.008   1.235   0.561 -0.3482  0.3557  0.3422
  573MOL0     C78998  11.009   1.093   0.626  0.1246  0.4608 -0.1705
  573MOL0     C78999  11.115   1.084   0.737  0.0987 -0.6314 -0.4662
  573MOL0     C79000  11.104   0.967   0.829 -0.0257  0.6794  0.8444
  573MOL0     C79001  11.108   0.863   0.886  0.5661 -0.3139 -0.8118
  573MOL0     C79002  10.711   1.258   0.438 -0.3901 -0.0532  0.4491
  573MOL0     C79003  10.609   1.272   0.345  0.3698  0.2404  0.6444
  573MOL0     C79004  10.623   1.201   0.214  0.6212  0.7728  0.3906
  573MOL0     H79005  10.082   1.364   0.253  0.1200  0.5409  0.4194
  573MOL0     H79006   9.921   1.402   0.086 -0.0109  0.2356 -0.0876
  573MOL0     H79007   9.751   1.616  -0.162 -1.3038 -0.0622  2.0968
  573MOL0     H79008   9.761   1.523  -0.020 -2.0504  0.7231 -1.3138
  573MOL0     H79009   9.914   1.464  -0.289  2.5489  0.8284  1.6424
  573MOL0     H79010   9.915   1.366  -0.150  0.1321  2.3390  1.6222
  573MOL0     H79011   9.725   1.272  -0.182 -3.0437  2.2366  1.8511
  573MOL0     H79012   9.644   1.408  -0.259 -0.3959 -0.6342  1.1037
  573MOL0     H79013   9.759   1.367  -0.468 -1.6070  0.6367  0.6613
  573MOL0     H79014   9.860   1.240  -0.405 -1.1154 -2.5040 -0.8818
  573MOL0     H79015   9.561   1.227  -0.388  0.3286 -0.5339 -1.0024
  573MOL0     H79016   9.668   1.087  -0.370  3.6423  0.3493 -1.0637
  573MOL0     H79017   9.670   1.221  -0.647  2.0541 -0.0446  0.5153
  573MOL0     H79018   9.744   1.086  -0.605  0.9167  2.8562 -1.8453
  573MOL0     H79019   9.446   1.137  -0.630 -0.0460 -0.3555  0.4284
  573MOL0     H79020   9.505   0.988  -0.543  0.2219  0.7839  0.3830
  573MOL0     H79021   9.555   1.060  -0.839 -0.6296 -2.9555 -1.7252
  573MOL0     H79022   9.643   0.943  -0.750 -0.9453 -1.8056 -1.1697
  573MOL0     H79023   9.421   0.767  -0.614  0.0473  0.4941  0.1739
  573MOL0     H79024   9.155   0.636  -0.648  1.3743  0.5971  1.5560
  573MOL0     H79025   9.264   0.528  -0.745 -1.5625 -1.3679 -2.2034
  573MOL0     H79026   9.026   0.697  -0.842  1.6767  0.8007 -1.5606
  573MOL0     H79027   9.129   0.598  -0.951 -2.1223 -1.6898  0.1429
  573MOL0     H79028   9.065   0.403  -0.816 -3.1750 -3.2575 -1.6182
  573MOL0     H79029   8.947   0.506  -0.729 -2.2727  1.8738 -1.1725
  573MOL0     H79030   8.839   0.542  -0.970 -1.4842 -0.8871 -0.9512
  573MOL0     H79031   8.970   0.444  -1.036  0.4143 -0.9659  0.9219
  573MOL0     H79032   8.605   0.464  -0.962 -0.4892 -0.7362  0.2726
  573MOL0     H79033   8.310   0.386  -1.077  1.2781 -1.7257  3.8510
  573MOL0     H79034   8.375   0.510  -1.194 -0.4860 -1.5603 -1.2302
  573MOL0     H79035   8.401   0.506  -1.015 -0.4965 -0.8326 -0.0441
  573MOL0     H79036   8.436  -0.147  -1.426  2.9354 -0.1208 -1.3773
  573MOL0     H79037   8.315  -0.258  -1.600 -1.0595  1.1630 -1.5825
  573MOL0     H79038   8.118  -0.028  -1.946  1.1166  1.8757  3.1508
  573MOL0     H79039   8.297  -0.058  -1.958  0.8282 -1.7388 -1.0865
  573MOL0     H79040   8.060  -0.250  -2.022  0.0510  1.0927  1.1019
  573MOL0     H79041   8.133  -0.165  -2.151 -3.3909  1.5160  1.2149
  573MOL0     H79042   8.349  -0.331  -2.003  1.9018 -5.9009 -1.9748
  573MOL0     H79043   8.295  -0.342  -2.166 -0.7594  3.2044 -0.3020
  573MOL0     H79044   8.115  -0.481  -2.146  0.8323  2.3802 -0.1696
  573MOL0     H79045   8.114  -0.459  -1.977  0.6542 -0.0552  0.2044
  573MOL0     H79046   8.348  -0.588  -2.121 -2.7105 -1.5036 -2.0223
  573MOL0     H79047   8.318  -0.597  -1.951 -0.9308 -1.9107  1.5703
  573MOL0     H79048   8.165  -0.723  -2.179 -4.0042  2.4305  0.0386
  573MOL0     H79049   8.095  -0.709  -2.015 -1.4446  1.4475 -1.7948
  573MOL0     H79050   8.309  -0.844  -1.936  1.3550  0.8255 -0.9743
  573MOL0     H79051   8.377  -0.807  -2.097 -1.1058 -0.6455 -3.0991
  573MOL0     H79052   8.184  -0.940  -2.191  2.1790 -0.9966 -1.9232
  573MOL0     H79053   8.174  -1.012  -2.028  0.2004  2.7608  1.4001
  573MOL0     H79054   8.213   0.117  -1.781 -2.9578 -0.8202  0.7337
  573MOL0     H79055   8.343   0.225  -1.602  0.8601 -0.0332  3.3966
  573MOL0     H79056   8.676   0.096  -1.273  0.0114 -0.3224  1.0798
  573MOL0     H79057   8.848   0.160  -1.114  0.0318  0.6710  0.5098
  573MOL0     H79058  10.134   1.767  -0.019  0.0643  2.3605  3.3317
  573MOL0     H79059  10.305   1.725   0.131 -1.0779  1.7426 -2.0045
  573MOL0     H79060  10.435   1.506   0.515 -2.6867 -2.3150  2.6791
  573MOL0     H79061  10.598   1.472   0.668 -1.5829 -1.0624  0.5136
  573MOL0     H79062  10.931   1.437   0.569  2.9993  0.0468  0.7053
  573MOL0     H79063  10.989   1.363   0.719  1.8822  2.0442 -1.5117
  573MOL0     H79064  11.112   1.268   0.553 -0.7997  1.6431 -0.6436
  573MOL0     H79065  10.979   1.241   0.456  0.1545  0.5841  0.2123
  573MOL0     H79066  10.914   1.056   0.666 -0.8947 -0.2520 -2.9831
  573MOL0     H79067  11.044   1.020   0.552  1.9311  2.9677 -1.9491
  573MOL0     H79068  11.100   1.168   0.806 -3.7120 -0.3463 -1.4091
  573MOL0     H79069  11.215   1.079   0.694 -0.3425 -2.4138 -1.3756
  573MOL0     H79070  11.095   0.761   0.916  0.1676 -0.4294 -1.3619
  573MOL0     H79071  10.789   1.184   0.423  0.1743  0.4026  1.0738
  573MOL0     H79072  10.540   1.131   0.229 -0.5409  1.8566 -0.7726
  573MOL0     H79073  10.601   1.254   0.121 -1.3087  1.7261  1.3069
  573MOL0     H79074  10.720   1.153   0.202 -0.6545 -2.0897  0.6194
  574MOL0     O79075   7.458   7.395   1.855  0.0364 -0.2645 -0.8689
  574MOL0     C79076   7.338   7.390   1.833 -0.6654  0.4939  1.3035
  574MOL0     O79077   7.239   7.423   1.915 -0.1324 -0.0937 -0.8311
  574MOL0     C79078   7.279   7.461   2.045 -0.1493 -0.2704  0.1129
  574MOL0     C79079   7.262   7.378   2.157  0.3188  0.5970 -0.2964
  574MOL0     C79080   7.293   7.427   2.285  0.5108 -0.3686  0.3972
  574MOL0     C79081   7.336   7.551   2.303 -0.3835  0.9470  0.9336
  574MOL0     O79082   7.371   7.587   2.429  0.5494  0.2481  0.2526
  574MOL0     C79083   7.462   7.705   2.443 -0.3339 -0.2219  0.8557
  574MOL0     C79084   7.537   7.701   2.576  0.4431 -0.3841 -0.0878
  574MOL0     C79085   7.589   7.568   2.604 -0.0610  0.3091 -1.4551
  574MOL0     C79086   7.656   7.565   2.745  0.4696 -0.0633  0.3617
  574MOL0     C79087   7.799   7.628   2.733 -0.0208 -0.5413  0.2425
  574MOL0     C79088   7.848   7.690   2.869  0.3145 -0.6046  0.0439
  574MOL0     C79089   7.918   7.578   2.955  0.1338  0.1388 -0.5103
  574MOL0     C79090   7.987   7.655   3.074 -0.4936  0.5073 -0.4646
  574MOL0     N79091   8.031   7.575   3.189  0.6189 -0.2250 -0.6018
  574MOL0     C79092   8.097   7.457   3.171 -0.1765 -0.2784 -0.6208
  574MOL0     C79093   8.095   7.405   3.295 -0.2833  0.1711  0.0062
  574MOL0     C79094   8.131   7.276   3.351 -0.4930 -0.2152 -0.2354
  574MOL0     C79095   8.284   7.261   3.374  0.0429  0.2922 -0.2012
  574MOL0     C79096   8.345   7.200   3.251  0.0159  0.6048 -0.5565
  574MOL0     C79097   8.478   7.133   3.292  1.3167 -0.1602 -0.2182
  574MOL0     O79098   8.518   7.045   3.186 -0.7132 -0.2826  0.1753
  574MOL0     C79099   8.601   7.091   3.090  0.0657 -0.0083 -0.9765
  574MOL0     C79100   8.644   7.224   3.069  0.7067 -0.2834  0.8481
  574MOL0     C79101   8.733   7.269   2.965 -0.0465  1.0360 -0.7777
  574MOL0     C79102   8.763   7.415   2.963  1.2530  0.5034 -0.2677
  574MOL0     C79103   8.799   7.167   2.887 -0.8718  0.3707 -0.3253
  574MOL0     C79104   8.899   7.197   2.783  0.5261  0.1908  0.5363
  574MOL0     O79105   8.902   7.323   2.727  0.7748  0.8765  0.1251
  574MOL0     C79106   8.994   7.365   2.641  0.0040 -0.3505  0.0963
  574MOL0     C79107   9.038   7.293   2.526  0.3557  0.7047  0.1112
  574MOL0     C79108   9.125   7.353   2.437  0.3102 -0.3699  0.6957
  574MOL0     C79109   9.179   7.481   2.466  0.4353 -0.0144  1.4350
  574MOL0     O79110   9.277   7.538   2.391  0.2910 -0.2719  0.1215
  574MOL0     C79111   9.382   7.463   2.335  0.8049 -0.2047 -0.5475
  574MOL0     C79112   9.504   7.444   2.432  0.2566 -0.0209 -0.0738
  574MOL0     C79113   9.564   7.572   2.480  0.5603  0.0249 -0.2732
  574MOL0     C79114   9.705   7.554   2.542 -0.6887  0.1766  0.0468
  574MOL0     C79115   9.832   7.540   2.456 -0.5238 -0.5328  0.2931
  574MOL0     C79116   9.845   7.665   2.373  0.1698  0.4975 -0.2263
  574MOL0     C79117   9.955   7.659   2.269  1.1693  0.5676 -0.4047
  574MOL0     C79118   9.952   7.794   2.198  0.9415  0.0651 -0.0190
  574MOL0    Cl79119  10.026   7.916   2.303 -0.1630  0.4645 -0.2752
  574MOL0     C79120   9.113   7.565   2.555 -0.0545  0.0108 -0.8168
  574MOL0     C79121   9.028   7.504   2.654  0.1475  0.0868  0.4241
  574MOL0     O79122   8.981   7.105   2.763 -0.0306 -0.4621 -0.3361
  574MOL0     C79123   8.759   7.031   2.906  0.0372 -1.0056  0.7514
  574MOL0     C79124   8.656   6.996   2.999  0.1881  0.1822 -0.8176
  574MOL0     N79125   8.032   7.492   3.381  0.0470 -0.1709 -0.1453
  574MOL0     N79126   7.991   7.592   3.316 -0.3460 -0.2517 -0.4872
  574MOL0     C79127   7.350   7.639   2.190  0.3559  0.1061 -0.2765
  574MOL0     C79128   7.324   7.594   2.061 -0.1950  0.7407 -0.4291
  574MOL0     C79129   7.311   7.353   1.690 -0.1538 -0.1901  0.2605
  574MOL0     C79130   7.376   7.428   1.584 -0.3661  0.5240 -0.5100
  574MOL0     C79131   7.346   7.408   1.448 -0.4352 -0.0787  1.5900
  574MOL0     C79132   7.248   7.317   1.406  0.3077 -0.0614 -0.0782
  574MOL0     O79133   7.213   7.306   1.278 -1.0178  0.7825 -0.5181
  574MOL0     C79134   7.109   7.224   1.231  0.1769 -0.0058  0.0187
  574MOL0     C79135   7.123   7.202   1.081  0.4261 -1.3840 -0.2161
  574MOL0     C79136   7.075   7.316   0.994  0.1596  0.6256  0.7142
  574MOL0     C79137   7.099   7.285   0.840 -1.0822  0.5997 -0.5187
  574MOL0     C79138   7.076   7.408   0.761  1.3524  0.2039 -0.6415
  574MOL0     C79139   7.040   7.502   0.692  0.7266  0.3092  0.4992
  574MOL0     C79140   7.173   7.248   1.510 -0.4004 -1.1898  0.1919
  574MOL0     C79141   7.205   7.259   1.644 -0.3501  0.1624 -0.5836
  574MOL0     C79142   7.124   7.177   1.736  0.3090  0.4281 -0.4470
  574MOL0     H79143   7.220   7.278   2.146 -1.1016  1.0934  0.2883
  574MOL0     H79144   7.282   7.374   2.379  0.0379  1.4856  1.4523
  574MOL0     H79145   7.406   7.799   2.439 -1.7239 -1.0393  0.7266
  574MOL0     H79146   7.531   7.714   2.358 -2.5137  0.8276 -0.9037
  574MOL0     H79147   7.611   7.781   2.562  0.8109 -0.9288 -1.3346
  574MOL0     H79148   7.463   7.735   2.649 -0.9681 -1.6043 -0.9014
  574MOL0     H79149   7.507   7.496   2.599  2.5335 -2.8538 -1.4894
  574MOL0     H79150   7.660   7.551   2.523  0.1586 -0.0346 -1.1929
  574MOL0     H79151   7.596   7.608   2.825  2.1649  1.2269  0.9925
  574MOL0     H79152   7.675   7.458   2.761  1.1193 -0.4277 -2.3508
  574MOL0     H79153   7.818   7.704   2.657  1.8966 -1.9938 -0.8285
  574MOL0     H79154   7.869   7.548   2.709  4.1403  1.9397  2.9076
  574MOL0     H79155   7.912   7.778   2.857  0.0080 -0.3475  0.2736
  574MOL0     H79156   7.762   7.731   2.923 -0.2240 -2.8870  1.0237
  574MOL0     H79157   8.003   7.533   2.903  1.1660  0.6549  0.6808
  574MOL0     H79158   7.843   7.504   2.985 -0.3286  1.5077  1.9807
  574MOL0     H79159   8.082   7.700   3.044  0.3191  0.5814  2.0034
  574MOL0     H79160   7.923   7.741   3.095 -0.1025  0.6978 -0.0523
  574MOL0     H79161   8.137   7.398   3.089  1.6223 -0.7410  0.5246
  574MOL0     H79162   8.084   7.206   3.281  0.5135  1.0626 -2.2915
  574MOL0     H79163   8.086   7.273   3.451  1.4529  2.4164  0.8444
  574MOL0     H79164   8.331   7.354   3.407 -1.1697  0.9663 -0.2980
  574MOL0     H79165   8.290   7.191   3.457  2.1968  0.4976 -0.1409
  574MOL0     H79166   8.279   7.135   3.194 -2.1109  0.8413  1.4847
  574MOL0     H79167   8.381   7.287   3.195  1.0537  2.6769  2.9612
  574MOL0     H79168   8.559   7.196   3.330 -0.1669  1.8931 -0.2908
  574MOL0     H79169   8.461   7.064   3.375  0.2687 -1.1633 -1.2233
  574MOL0     H79170   8.591   7.297   3.129 -0.7359 -2.2658  2.1142
  574MOL0     H79171   8.740   7.461   2.867 -3.5112 -0.1868  0.3377
  574MOL0     H79172   8.870   7.432   2.983  0.7827  1.1163  1.9541
  574MOL0     H79173   8.703   7.473   3.033  2.1022 -0.4093  1.2768
  574MOL0     H79174   9.011   7.188   2.519  0.5397  0.5469  1.4662
  574MOL0     H79175   9.152   7.297   2.349  1.9002  1.9840 -0.3999
  574MOL0     H79176   9.349   7.359   2.322  1.7072 -1.1511  3.5039
  574MOL0     H79177   9.423   7.513   2.247  2.4132 -3.7930 -2.0540
  574MOL0     H79178   9.460   7.378   2.507  0.0945 -2.6731 -2.3199
  574MOL0     H79179   9.583   7.387   2.382  3.7861  1.2870  3.4460
  574MOL0     H79180   9.503   7.619   2.558  1.7077  2.1260 -0.5685
  574MOL0     H79181   9.561   7.642   2.396 -0.9364 -1.3611 -1.4323
  574MOL0     H79182   9.695   7.474   2.617 -3.5912 -2.5186 -2.8790
  574MOL0     H79183   9.713   7.653   2.587 -0.9768  1.5714 -2.7778
  574MOL0     H79184   9.922   7.537   2.519 -1.3516 -2.9056  1.4657
  574MOL0     H79185   9.825   7.444   2.405 -0.6318  0.5960 -1.9761
  574MOL0     H79186   9.873   7.741   2.446  0.9439  1.1753 -1.2085
  574MOL0     H79187   9.749   7.670   2.320  0.0109 -2.0581 -0.3042
  574MOL0     H79188   9.943   7.578   2.198 -1.6805  0.1998  0.3820
  574MOL0     H79189  10.051   7.647   2.321 -0.2941  0.6036  2.5210
  574MOL0     H79190   9.851   7.828   2.176 -0.1527 -2.4294  0.8234
  574MOL0     H79191   9.995   7.780   2.099 -1.4650 -0.4717 -1.0340
  574MOL0     H79192   9.144   7.669   2.556  0.7243 -0.2128 -0.1021
  574MOL0     H79193   9.005   7.568   2.739  2.2916 -0.0380  1.1656
  574MOL0     H79194   8.805   6.954   2.846  0.3495  0.3774 -0.8619
  574MOL0     H79195   8.637   6.889   3.001  1.3327 -0.0345  1.0367
  574MOL0     H79196   7.394   7.739   2.191 -1.0739  0.7621  0.2534
  574MOL0     H79197   7.333   7.660   1.976  1.4682  0.0574 -0.8219
  574MOL0     H79198   7.468   7.483   1.601  0.3006  0.0677 -2.4137
  574MOL0     H79199   7.414   7.452   1.375  2.0790 -2.4185  2.3525
  574MOL0     H79200   7.104   7.124   1.276  2.3338  0.3931  1.2752
  574MOL0     H79201   7.018   7.278   1.255 -0.8596 -0.1123 -3.1675
  574MOL0     H79202   7.058   7.120   1.050  1.2719 -1.6136 -1.4227
  574MOL0     H79203   7.224   7.165   1.060  1.2357  0.3797  0.3464
  574MOL0     H79204   6.971   7.343   1.017 -0.0577  0.0352  0.4275
  574MOL0     H79205   7.144   7.399   1.011 -0.5510  1.3209  0.2570
  574MOL0     H79206   7.027   7.209   0.810 -2.9355  1.8287  0.6040
  574MOL0     H79207   7.205   7.258   0.835 -1.6610 -2.5780  1.6705
  574MOL0     H79208   7.021   7.578   0.619 -0.6412 -1.3002 -0.9171
  574MOL0     H79209   7.102   7.171   1.483  1.6178 -1.6889 -4.9721
  574MOL0     H79210   7.054   7.249   1.778  2.2026  2.8053 -1.1685
  574MOL0     H79211   7.083   7.081   1.701  1.1901 -0.7195  1.5109
  574MOL0     H79212   7.186   7.127   1.811 -2.6956 -1.7571  0.7576
  575MOL0     O79213   7.000   8.861   5.131  0.8222  0.1366  0.2180
  575MOL0     C79214   6.953   8.977   5.156  0.3176  0.6078  0.6954
  575MOL0     O79215   6.990   9.055   5.258 -0.5519 -0.9616 -0.1134
  575MOL0     C79216   7.088   9.015   5.344 -0.1997  0.3095  0.6888
  575MOL0     C79217   7.212   8.970   5.301 -0.0692  0.4501  0.7935
  575MOL0     C79218   7.302   8.923   5.397 -0.9486  0.4347 -0.3576
  575MOL0     C79219   7.283   8.957   5.534  0.1290  1.6163 -0.2596
  575MOL0     O79220   7.379   8.909   5.622 -0.0217  0.0796  0.2387
  575MOL0     C79221   7.476   9.007   5.673  0.5891 -0.1520 -0.0573
  575MOL0     C79222   7.551   8.934   5.788 -0.1829 -0.8083  0.1324
  575MOL0     C79223   7.705   8.965   5.806 -0.0081 -0.0364  0.5958
  575MOL0     C79224   7.731   9.111   5.837 -0.6357 -0.4746  0.0061
  575MOL0     C79225   7.678   9.166   5.966  0.6708 -0.7284  0.1038
  575MOL0     C79226   7.698   9.320   5.972  0.0064  0.2341 -0.4062
  575MOL0     C79227   7.609   9.410   5.888  0.7660 -0.0008  0.4136
  575MOL0     C79228   7.643   9.555   5.895 -0.6814  0.3116  0.1886
  575MOL0     N79229   7.575   9.635   5.811 -0.1084 -0.0612 -0.8960
  575MOL0     C79230   7.639   9.731   5.742 -0.0758  0.2631 -0.0690
  575MOL0     C79231   7.539   9.813   5.686  0.4044  0.2112 -0.6913
  575MOL0     C79232   7.566   9.930   5.595 -0.0465  0.0183 -1.3055
  575MOL0     C79233   7.549  10.077   5.651 -0.1404 -0.0637  0.4561
  575MOL0     C79234   7.424  10.103   5.738  0.6574 -0.7686 -0.1261
  575MOL0     C79235   7.423  10.255   5.770 -0.4182  0.3290  0.4730
  575MOL0     O79236   7.543  10.281   5.853 -0.1327 -1.1977  0.6608
  575MOL0     C79237   7.584  10.405   5.891 -0.0706  0.2610  0.0376
  575MOL0     C79238   7.538  10.521   5.827  0.5181 -0.8779 -0.3088
  575MOL0     C79239   7.577  10.649   5.864  0.0222  0.5115 -0.5863
  575MOL0     C79240   7.494  10.756   5.802  0.2324 -0.6260  0.4717
  575MOL0     C79241   7.696  10.661   5.950  0.1339 -0.3420  0.4423
  575MOL0     C79242   7.761  10.785   6.002 -0.3431 -0.5297  0.5753
  575MOL0     O79243   7.840  10.774   6.105  0.4362  0.6070 -0.3597
  575MOL0     C79244   7.929  10.869   6.152 -0.8755 -0.8540  0.4941
  575MOL0     C79245   8.021  10.836   6.252 -0.5599  1.2758  0.4967
  575MOL0     C79246   8.118  10.918   6.289  0.1374  0.7492  0.0192
  575MOL0     C79247   8.133  11.042   6.238  0.6924 -0.7641 -1.1012
  575MOL0     O79248   8.243  11.113   6.287 -0.1155  0.3770 -1.2776
  575MOL0     C79249   8.266  11.250   6.249  0.7347  0.0717  1.1544
  575MOL0     C79250   8.388  11.322   6.304 -0.5197  0.2724 -0.7501
  575MOL0     C79251   8.406  11.451   6.228  0.7462  0.9655 -0.8002
  575MOL0     C79252   8.537  11.520   6.235 -0.4286  0.2046 -0.0724
  575MOL0     C79253   8.558  11.638   6.141  0.1460  1.0555 -1.3304
  575MOL0     C79254   8.430  11.723   6.122  0.1270  0.0618  0.0748
  575MOL0     C79255   8.447  11.854   6.041 -0.4533 -0.0630  0.4694
  575MOL0     C79256   8.338  11.960   6.041  0.0761  0.5423 -0.2546
  575MOL0    Cl79257   8.407  12.102   5.960 -0.0448  0.0767  0.0661
  575MOL0     C79258   8.048  11.092   6.141  0.5328 -0.2677  0.4694
  575MOL0     C79259   7.939  11.006   6.101  0.4176 -0.2941  0.3640
  575MOL0     O79260   7.746  10.885   5.926  1.0907 -0.1395 -0.4976
  575MOL0     C79261   7.758  10.542   5.991  0.6429  0.2062  0.6899
  575MOL0     C79262   7.696  10.418   5.967 -0.4033 -0.0486 -0.8982
  575MOL0     N79263   7.417   9.755   5.722 -0.3423  0.3545 -0.0393
  575MOL0     N79264   7.445   9.646   5.798  0.6877  0.4282  0.0190
  575MOL0     C79265   7.163   9.012   5.578  0.5654  0.3151 -0.6917
  575MOL0     C79266   7.069   9.041   5.482  0.3672 -1.7241  0.6622
  575MOL0     C79267   6.845   9.041   5.069  1.1357 -0.3185  0.1429
  575MOL0     C79268   6.745   9.113   5.130 -0.2682  0.4408 -1.2134
  575MOL0     C79269   6.636   9.157   5.050 -0.2665 -0.3324 -0.4478
  575MOL0     C79270   6.638   9.151   4.911 -0.2867 -0.7708 -0.3038
  575MOL0     O79271   6.524   9.206   4.856  0.4872  0.0944  0.0827
  575MOL0     C79272   6.524   9.230   4.714  1.1341 -0.1089  0.4421
  575MOL0     C79273   6.591   9.357   4.689 -0.0767 -0.7226 -0.2640
  575MOL0     C79274   6.557   9.427   4.558  0.8157  0.3669 -0.0237
  575MOL0     C79275   6.649   9.539   4.516 -0.3706 -0.8637 -0.3476
  575MOL0     C79276   6.632   9.661   4.589  0.6886 -0.1989  0.6497
  575MOL0     C79277   6.619   9.781   4.627 -0.2061 -0.0049 -0.0457
  575MOL0     C79278   6.748   9.088   4.850  0.0933  0.5525  0.1704
  575MOL0     C79279   6.850   9.032   4.927 -0.4342 -0.3623  0.0591
  575MOL0     C79280   6.969   8.978   4.856 -0.6339  0.2156 -0.2471
  575MOL0     H79281   7.248   8.949   5.201  0.4580  1.1516  0.8270
  575MOL0     H79282   7.382   8.872   5.344 -0.6141  2.2026 -1.6226
  575MOL0     H79283   7.424   9.096   5.710  3.0905  2.0154 -1.4126
  575MOL0     H79284   7.549   9.024   5.593  0.2633  0.9851 -0.1293
  575MOL0     H79285   7.490   8.958   5.876 -1.0134 -0.8112 -0.4306
  575MOL0     H79286   7.555   8.825   5.777  2.0101 -0.5292 -3.1523
  575MOL0     H79287   7.727   8.896   5.888  0.0521  0.1241  0.7170
  575MOL0     H79288   7.758   8.939   5.715 -0.7344 -0.0915  0.1818
  575MOL0     H79289   7.839   9.127   5.837 -0.7188  0.2552 -1.7023
  575MOL0     H79290   7.699   9.173   5.753  0.6705 -2.8172 -2.4034
  575MOL0     H79291   7.729   9.110   6.045 -1.6178 -1.7817  0.9458
  575MOL0     H79292   7.576   9.129   5.981  0.5210 -0.8337 -1.0714
  575MOL0     H79293   7.687   9.345   6.078 -2.3716  2.2982 -1.0694
  575MOL0     H79294   7.803   9.334   5.943  0.2383 -1.4711 -0.5469
  575MOL0     H79295   7.506   9.387   5.917  0.8732 -1.4905 -0.2931
  575MOL0     H79296   7.608   9.385   5.782 -0.1693  1.4735  0.0437
  575MOL0     H79297   7.622   9.584   5.999 -0.7038 -2.0422  0.9000
  575MOL0     H79298   7.749   9.575   5.874 -1.5814  4.5594 -1.1861
  575MOL0     H79299   7.744   9.760   5.744  0.5505 -1.8967  0.4168
  575MOL0     H79300   7.496   9.920   5.511 -4.1491  1.7072  1.5389
  575MOL0     H79301   7.667   9.927   5.555  0.4351  4.0097 -0.8135
  575MOL0     H79302   7.643  10.111   5.697 -0.5338  0.0393  1.2058
  575MOL0     H79303   7.535  10.154   5.575  0.0861  3.7810  3.9355
  575MOL0     H79304   7.333  10.074   5.686 -0.5085  0.2160  1.3042
  575MOL0     H79305   7.426  10.042   5.829 -2.2296 -1.5590 -0.4922
  575MOL0     H79306   7.407  10.321   5.684  1.9099  2.1867  1.3701
  575MOL0     H79307   7.341  10.288   5.834  0.6644  3.5402  0.3569
  575MOL0     H79308   7.468  10.517   5.745  0.8551  2.7673 -0.9535
  575MOL0     H79309   7.515  10.782   5.698 -0.9888  0.1390  0.3930
  575MOL0     H79310   7.509  10.848   5.858 -0.7826  0.0690 -0.3527
  575MOL0     H79311   7.388  10.727   5.802 -0.1661  0.7235  0.1029
  575MOL0     H79312   8.021  10.734   6.287 -0.3838  0.6698 -1.2090
  575MOL0     H79313   8.186  10.875   6.362 -4.4374 -3.0229  2.6368
  575MOL0     H79314   8.276  11.252   6.141 -2.3169 -1.3325  0.7429
  575MOL0     H79315   8.178  11.307   6.282 -3.3058 -4.1095 -1.2327
  575MOL0     H79316   8.378  11.347   6.410 -2.1127 -2.1742 -0.2351
  575MOL0     H79317   8.472  11.254   6.291  1.0921  2.0533 -0.0898
  575MOL0     H79318   8.325  11.515   6.265 -0.2356 -0.6865  0.0145
  575MOL0     H79319   8.405  11.430   6.121  0.4755 -2.4613 -0.2366
  575MOL0     H79320   8.619  11.450   6.225  1.7969  2.4517  1.2316
  575MOL0     H79321   8.552  11.551   6.339 -1.0365 -1.3168  0.4899
  575MOL0     H79322   8.646  11.696   6.170  1.8831 -0.1344 -3.8520
  575MOL0     H79323   8.582  11.585   6.049 -0.3626 -0.4961 -0.6041
  575MOL0     H79324   8.385  11.748   6.218  3.0046  1.5966  1.1401
  575MOL0     H79325   8.359  11.663   6.063 -1.0148 -1.8139  3.0914
  575MOL0     H79326   8.466  11.827   5.937 -2.1571  1.4048 -0.2723
  575MOL0     H79327   8.532  11.915   6.073  0.7689  0.0690 -2.6506
  575MOL0     H79328   8.313  11.979   6.146  3.7532  2.5571  0.4207
  575MOL0     H79329   8.250  11.924   5.987 -1.4222 -0.1482  2.4389
  575MOL0     H79330   8.051  11.195   6.107  0.6434 -0.4249 -0.0105
  575MOL0     H79331   7.863  11.057   6.043 -1.2701  0.2350  2.8521
  575MOL0     H79332   7.849  10.552   6.050 -0.0480  2.9466  1.4216
  575MOL0     H79333   7.735  10.330   6.018 -0.9916 -0.0638 -0.4771
  575MOL0     H79334   7.146   9.031   5.684  1.4367 -0.0410 -0.4832
  575MOL0     H79335   6.971   9.073   5.515  0.4931  2.4327 -2.2262
  575MOL0     H79336   6.742   9.115   5.239  1.4578 -0.0448 -1.1234
  575MOL0     H79337   6.560   9.203   5.111 -0.1734  0.4453 -0.9001
  575MOL0     H79338   6.564   9.145   4.657  3.9839  1.6544 -0.4241
  575MOL0     H79339   6.416   9.232   4.698  0.7837 -2.9070  1.7699
  575MOL0     H79340   6.698   9.339   4.702 -0.4088 -2.8753 -0.1896
  575MOL0     H79341   6.554   9.418   4.772 -0.9854  0.3589 -1.4163
  575MOL0     H79342   6.553   9.353   4.477 -0.2144  1.7440 -1.3022
  575MOL0     H79343   6.454   9.461   4.575  1.1043  0.9668  0.5777
  575MOL0     H79344   6.644   9.560   4.409  1.0782  0.1652 -0.2519
  575MOL0     H79345   6.751   9.499   4.520 -1.0953 -2.9924 -1.5349
  575MOL0     H79346   6.615   9.883   4.660  1.4955 -0.6751  2.5682
  575MOL0     H79347   6.762   9.082   4.742  1.1558 -1.9944  0.3749
  575MOL0     H79348   7.001   8.883   4.898 -1.9109 -0.3419 -0.5068
  575MOL0     H79349   6.948   8.967   4.749 -0.5447  0.0549 -0.2473
  575MOL0     H79350   7.054   9.044   4.878  2.1776 -2.0760 -3.2021
  576MOL0     O79351   9.506   9.128   5.166  0.1418 -0.8183  0.6994
  576MOL0     C79352   9.538   9.134   5.041 -0.2144  0.3140 -0.1331
  576MOL0     O79353   9.555   9.240   4.972 -0.1572 -0.3075  0.1508
  576MOL0     C79354   9.519   9.363   5.022  0.6439  0.3227  0.8023
  576MOL0     C79355   9.420   9.394   5.115  0.5342 -0.9335  0.1359
  576MOL0     C79356   9.410   9.524   5.171  1.4705  0.8185 -0.0995
  576MOL0     C79357   9.496   9.623   5.136  0.8435  0.5168  0.0308
  576MOL0     O79358   9.499   9.743   5.209  0.4799  0.3042 -0.6417
  576MOL0     C79359   9.459   9.873   5.144 -0.5704  0.1710 -0.1451
  576MOL0     C79360   9.413   9.967   5.256 -1.5718 -0.2644  0.0453
  576MOL0     C79361   9.516   9.999   5.360 -0.3021  0.1491  1.2150
  576MOL0     C79362   9.473  10.101   5.463  0.8649 -0.4912 -0.2868
  576MOL0     C79363   9.591  10.159   5.538  0.4519  0.1869  0.1515
  576MOL0     C79364   9.562  10.258   5.645  0.2741 -0.3595 -0.6789
  576MOL0     C79365   9.481  10.381   5.589 -0.4496 -0.3067 -0.3597
  576MOL0     C79366   9.435  10.472   5.708 -0.3502 -0.6632 -0.8617
  576MOL0     N79367   9.409  10.614   5.659 -0.4322  0.0483 -0.1691
  576MOL0     C79368   9.506  10.691   5.609 -1.0989  0.2958  0.1237
  576MOL0     C79369   9.426  10.797   5.564 -0.6452  0.2955 -0.4389
  576MOL0     C79370   9.485  10.908   5.478 -0.6513 -0.2980 -0.7334
  576MOL0     C79371   9.416  11.045   5.475 -0.2278  0.3989  0.1817
  576MOL0     C79372   9.499  11.148   5.400  0.7543 -0.6078 -0.0535
  576MOL0     C79373   9.419  11.287   5.389  1.0008 -0.7028 -0.7502
  576MOL0     O79374   9.383  11.354   5.509 -0.4796 -0.4029 -0.4178
  576MOL0     C79375   9.257  11.400   5.517 -0.7815  0.5059  0.3484
  576MOL0     C79376   9.145  11.312   5.488  0.2086 -0.9450 -0.1617
  576MOL0     C79377   9.009  11.355   5.496 -0.6039 -0.0596  0.1102
  576MOL0     C79378   8.907  11.261   5.471 -0.0797  0.6340  0.1483
  576MOL0     C79379   8.987  11.493   5.512 -0.0899  0.3926 -1.0458
  576MOL0     C79380   8.859  11.567   5.503 -0.6359 -0.0034  0.1660
  576MOL0     O79381   8.867  11.706   5.499 -0.2405  0.3305 -0.3519
  576MOL0     C79382   8.762  11.793   5.491  0.8683  0.6273 -0.6274
  576MOL0     C79383   8.778  11.911   5.418  0.6872 -1.2725  0.9477
  576MOL0     C79384   8.667  11.996   5.408  0.9223  0.0385  0.2539
  576MOL0     C79385   8.537  11.967   5.462 -0.3095  0.4134  0.0812
  576MOL0     O79386   8.447  12.063   5.455  0.4770 -0.6329  1.2115
  576MOL0     C79387   8.306  12.050   5.481  0.1236  0.3072  0.8562
  576MOL0     C79388   8.252  12.078   5.628  0.0823 -0.6583  1.2131
  576MOL0     C79389   8.105  12.056   5.638  1.5142  0.0989 -0.0053
  576MOL0     C79390   8.021  12.118   5.523 -1.2834 -0.2189  0.8773
  576MOL0     C79391   7.870  12.093   5.533 -0.5150  0.1748  0.1003
  576MOL0     C79392   7.791  12.176   5.634  0.9641  0.1768 -1.2270
  576MOL0     C79393   7.652  12.111   5.668 -0.8033 -0.1158  0.2560
  576MOL0     C79394   7.597  12.168   5.794  0.2343  0.4822 -0.6254
  576MOL0    Cl79395   7.548  12.335   5.775 -0.2456  0.1031  0.6167
  576MOL0     C79396   8.525  11.851   5.545  0.2593 -0.4473 -0.4735
  576MOL0     C79397   8.629  11.761   5.547  0.2443 -0.6006  0.9166
  576MOL0     O79398   8.756  11.505   5.515 -0.0100  0.3908 -0.4561
  576MOL0     C79399   9.093  11.575   5.536  0.2105  0.6525  0.5041
  576MOL0     C79400   9.230  11.533   5.545  0.8132  0.2464 -0.5913
  576MOL0     N79401   9.293  10.777   5.592  0.1137 -0.5110 -0.0034
  576MOL0     N79402   9.283  10.664   5.648 -0.2569  0.2283 -0.0358
  576MOL0     C79403   9.592   9.596   5.041 -0.4939 -0.0227 -0.2469
  576MOL0     C79404   9.609   9.468   4.984  0.5192  0.3349 -0.4366
  576MOL0     C79405   9.562   9.001   4.966 -0.3747  0.0094 -0.3563
  576MOL0     C79406   9.521   8.982   4.826 -0.1913 -0.4399 -0.0089
  576MOL0     C79407   9.546   8.864   4.758 -0.2859  0.3479 -0.8022
  576MOL0     C79408   9.617   8.752   4.815 -0.1023 -0.6373  0.1792
  576MOL0     O79409   9.661   8.636   4.741 -0.1983  1.1185 -0.0663
  576MOL0     C79410   9.673   8.651   4.597  0.2705 -1.0417  0.3149
  576MOL0     C79411   9.550   8.589   4.520  0.9882 -0.8768  0.4282
  576MOL0     C79412   9.559   8.605   4.364  0.9961  0.5028  0.2933
  576MOL0     C79413   9.417   8.629   4.317  0.2662  0.5339 -0.0801
  576MOL0     C79414   9.419   8.621   4.175 -0.5201  0.1311 -0.8907
  576MOL0     C79415   9.432   8.594   4.062  0.5343 -0.2200  0.2151
  576MOL0     C79416   9.655   8.770   4.950  0.2292  0.2487  0.2218
  576MOL0     C79417   9.619   8.886   5.026  1.0343  0.4001  0.9331
  576MOL0     C79418   9.636   8.881   5.173  0.3090 -0.6574  0.1692
  576MOL0     H79419   9.354   9.314   5.147  2.9306 -2.5823  1.2254
  576MOL0     H79420   9.334   9.544   5.246  0.4872 -2.7004  0.0306
  576MOL0     H79421   9.377   9.851   5.074 -0.6894 -0.8193  0.2799
  576MOL0     H79422   9.539   9.911   5.081 -0.0226  0.7910  0.8884
  576MOL0     H79423   9.381  10.055   5.199  3.5039  0.8083 -1.7384
  576MOL0     H79424   9.326   9.923   5.303 -1.4434  0.0406  0.5824
  576MOL0     H79425   9.543   9.904   5.406  0.0521  0.7622  2.3147
  576MOL0     H79426   9.592  10.052   5.301 -1.8504 -0.6902 -1.7412
  576MOL0     H79427   9.414  10.176   5.409  1.4390  2.9036  3.3675
  576MOL0     H79428   9.404  10.064   5.539 -0.0671  0.3949 -0.6814
  576MOL0     H79429   9.663  10.216   5.478  0.9612  0.8291  1.3387
  576MOL0     H79430   9.663  10.082   5.567  1.7246  0.5556 -1.8322
  576MOL0     H79431   9.499  10.218   5.724  0.7166 -2.2455 -1.2253
  576MOL0     H79432   9.649  10.311   5.686 -2.1103  4.8564 -1.5632
  576MOL0     H79433   9.388  10.357   5.536  0.5986 -2.2082 -1.4370
  576MOL0     H79434   9.552  10.433   5.525  2.0930 -0.0762  2.4122
  576MOL0     H79435   9.347  10.441   5.765  0.0945  1.9678  1.5163
  576MOL0     H79436   9.516  10.484   5.781 -3.2534 -0.3052  2.6022
  576MOL0     H79437   9.611  10.668   5.593 -1.0579 -2.2990  2.9685
  576MOL0     H79438   9.487  10.877   5.373  0.1257 -3.2904  0.0723
  576MOL0     H79439   9.586  10.931   5.513 -0.5464 -1.7795  0.0196
  576MOL0     H79440   9.316  11.047   5.430  1.2866  2.5459 -3.4864
  576MOL0     H79441   9.412  11.083   5.577 -0.1112 -0.0580  0.3622
  576MOL0     H79442   9.595  11.171   5.447  2.2600  2.7883 -4.1280
  576MOL0     H79443   9.530  11.102   5.306  0.9659 -4.8512  1.8729
  576MOL0     H79444   9.476  11.362   5.334 -0.9054  0.9969 -0.5400
  576MOL0     H79445   9.329  11.274   5.328  1.4452  0.6097 -1.7432
  576MOL0     H79446   9.160  11.206   5.471  0.9093 -1.2994  2.2171
  576MOL0     H79447   8.942  11.159   5.456 -0.2355  0.8961 -2.5479
  576MOL0     H79448   8.869  11.287   5.371  1.7025 -0.5510 -0.8904
  576MOL0     H79449   8.827  11.275   5.544 -1.2193  5.3404 -1.6448
  576MOL0     H79450   8.869  11.949   5.372  0.4392 -0.7936  0.8525
  576MOL0     H79451   8.687  12.084   5.347 -1.2318 -0.1675 -0.8513
  576MOL0     H79452   8.257  12.120   5.413 -0.2015  0.7192  1.5083
  576MOL0     H79453   8.263  11.953   5.454  0.4326  0.4431 -0.1922
  576MOL0     H79454   8.297  12.011   5.702 -1.9179 -2.4343  0.9171
  576MOL0     H79455   8.269  12.184   5.651  2.1350 -0.0931 -2.1768
  576MOL0     H79456   8.066  12.101   5.730 -1.9183  0.2134 -1.3866
  576MOL0     H79457   8.083  11.949   5.642 -0.9168  0.5568  0.1027
  576MOL0     H79458   8.047  12.082   5.423 -0.7503  4.0078 -0.7354
  576MOL0     H79459   8.037  12.227   5.526  1.4968 -0.3925 -1.8088
  576MOL0     H79460   7.830  12.113   5.434  2.0597 -0.3931 -1.1424
  576MOL0     H79461   7.852  11.986   5.547  0.1693  0.3088  2.3890
  576MOL0     H79462   7.785  12.273   5.584  3.2785 -0.6728 -3.3523
  576MOL0     H79463   7.852  12.180   5.725  0.6595 -2.0667 -0.8610
  576MOL0     H79464   7.659  12.003   5.679 -0.8981 -0.6915 -3.7041
  576MOL0     H79465   7.584  12.124   5.583  1.4295  1.7181 -1.3830
  576MOL0     H79466   7.665  12.166   5.880 -1.3777 -0.7408  0.6966
  576MOL0     H79467   7.511  12.108   5.824  1.0172  0.6959  2.4739
  576MOL0     H79468   8.429  11.826   5.588  0.5915 -2.3478 -0.7719
  576MOL0     H79469   8.593  11.682   5.612  0.4141 -2.0939 -0.7284
  576MOL0     H79470   9.087  11.683   5.545  0.0288  1.0280 -3.0259
  576MOL0     H79471   9.312  11.597   5.577  1.2121  0.2947 -1.6760
  576MOL0     H79472   9.670   9.669   5.022  0.6001 -0.7974  1.0632
  576MOL0     H79473   9.692   9.451   4.916 -1.3979 -0.1577 -2.7677
  576MOL0     H79474   9.467   9.061   4.776  1.9608  0.0141 -1.8068
  576MOL0     H79475   9.504   8.838   4.661 -1.0948  1.3130 -0.7279
  576MOL0     H79476   9.689   8.755   4.566 -1.2772 -1.2156 -1.2271
  576MOL0     H79477   9.761   8.593   4.570  1.4886 -0.6796  3.1321
  576MOL0     H79478   9.463   8.641   4.561  1.0797  1.5205 -2.1358
  576MOL0     H79479   9.535   8.482   4.534 -0.1227 -0.8023 -0.1152
  576MOL0     H79480   9.621   8.692   4.344 -3.4147  4.1285  0.7384
  576MOL0     H79481   9.588   8.506   4.328  2.0838 -0.0192  2.4469
  576MOL0     H79482   9.381   8.725   4.355 -0.4888  0.5524 -0.8093
  576MOL0     H79483   9.347   8.554   4.357  1.0977 -1.4377 -2.1326
  576MOL0     H79484   9.418   8.574   3.958  0.0820 -1.1047  0.4318
  576MOL0     H79485   9.703   8.692   5.007 -0.4157  1.1656  2.1020
  576MOL0     H79486   9.686   8.788   5.203  2.5958  0.6793  0.7219
  576MOL0     H79487   9.707   8.959   5.201  0.8231 -0.8382 -0.5813
  576MOL0     H79488   9.541   8.884   5.226 -0.3198 -0.7274 -0.9159
  577MOL0     O79489   7.232   9.114   2.087  0.3499  0.7050 -0.1512
  577MOL0     C79490   7.197   9.229   2.046 -1.1153  1.0865 -0.2199
  577MOL0     O79491   7.192   9.329   2.124 -0.4373 -0.2568 -0.3211
  577MOL0     C79492   7.240   9.318   2.253 -0.2709 -0.6065  0.5006
  577MOL0     C79493   7.142   9.313   2.353  0.2644 -0.3588 -0.0006
  577MOL0     C79494   7.186   9.314   2.482  0.4554  0.6808 -0.1027
  577MOL0     C79495   7.329   9.321   2.518  0.5805 -0.0486  0.5838
  577MOL0     O79496   7.356   9.318   2.655 -0.4483  0.1111 -0.0615
  577MOL0     C79497   7.489   9.283   2.685 -0.1850 -0.2801  0.3407
  577MOL0     C79498   7.519   9.241   2.829  0.3739 -0.1069  0.2183
  577MOL0     C79499   7.669   9.234   2.875 -0.3306 -0.1556  0.3859
  577MOL0     C79500   7.745   9.373   2.872 -0.3688  0.0520  0.7102
  577MOL0     C79501   7.892   9.354   2.879  0.7219  0.8084 -0.1558
  577MOL0     C79502   7.935   9.499   2.864 -0.0870 -0.6603  0.3203
  577MOL0     C79503   8.082   9.522   2.854  0.8682 -0.3285  0.2695
  577MOL0     C79504   8.110   9.673   2.872 -1.1330  0.4553  0.7820
  577MOL0     N79505   8.257   9.696   2.883 -0.5804 -0.1310 -0.4218
  577MOL0     C79506   8.332   9.767   2.795  0.1278 -0.0315  0.1977
  577MOL0     C79507   8.455   9.767   2.846 -0.8436 -0.1308 -0.1479
  577MOL0     C79508   8.563   9.865   2.811 -0.5441 -0.3771 -0.4115
  577MOL0     C79509   8.697   9.792   2.815  0.0269  0.1278 -0.7285
  577MOL0     C79510   8.741   9.709   2.686  0.7437 -0.2752 -0.4936
  577MOL0     C79511   8.660   9.587   2.646 -0.7249 -0.1863  0.3929
  577MOL0     O79512   8.542   9.641   2.579 -0.3220 -0.7157 -0.0452
  577MOL0     C79513   8.450   9.546   2.561  0.5859 -0.7570 -0.1866
  577MOL0     C79514   8.456   9.409   2.585  0.1701  0.4125  0.5920
  577MOL0     C79515   8.346   9.321   2.562 -0.8071  0.6261  0.1122
  577MOL0     C79516   8.376   9.178   2.610  0.0487  0.9150  0.1432
  577MOL0     C79517   8.234   9.367   2.490  0.0312  1.0392 -0.2299
  577MOL0     C79518   8.127   9.270   2.458  0.8615 -1.3354  0.3120
  577MOL0     O79519   8.004   9.319   2.478  0.2881  0.0100 -0.9513
  577MOL0     C79520   7.901   9.231   2.452 -0.3702 -0.6428 -0.3425
  577MOL0     C79521   7.843   9.144   2.545  0.0199 -0.3809 -0.6446
  577MOL0     C79522   7.742   9.050   2.504 -0.5285 -0.4568 -0.5469
  577MOL0     C79523   7.684   9.065   2.380  0.4194  0.1795  0.6538
  577MOL0     O79524   7.588   8.976   2.367  0.4307  0.0172 -0.5006
  577MOL0     C79525   7.514   8.972   2.241 -0.7475  0.0268  0.5064
  577MOL0     C79526   7.411   8.854   2.246 -0.3157  0.3102  0.3432
  577MOL0     C79527   7.321   8.869   2.357  0.4317 -0.0114 -0.0253
  577MOL0     C79528   7.228   8.750   2.359 -0.2437  0.3496  0.0446
  577MOL0     C79529   7.141   8.723   2.479 -0.2512 -0.4417 -1.3090
  577MOL0     C79530   7.019   8.811   2.495 -0.2030 -0.2636 -0.3505
  577MOL0     C79531   7.020   8.959   2.458 -0.6772 -0.2322 -0.4701
  577MOL0     C79532   6.913   9.046   2.522  0.0644 -0.1162  0.2067
  577MOL0    Cl79533   6.748   8.985   2.491  0.4988  0.4076 -0.6030
  577MOL0     C79534   7.734   9.167   2.289 -0.0746  0.8982 -0.2337
  577MOL0     C79535   7.837   9.250   2.330 -0.9817 -0.1093 -0.1157
  577MOL0     O79536   8.158   9.156   2.434 -0.1926  0.2448  0.1418
  577MOL0     C79537   8.224   9.502   2.473 -0.4746  0.8054 -0.9508
  577MOL0     C79538   8.332   9.588   2.504 -0.6766  0.9258 -0.0456
  577MOL0     N79539   8.458   9.702   2.969 -0.2381  0.1227 -0.5227
  577MOL0     N79540   8.336   9.669   2.991  0.2962  0.0140 -0.0778
  577MOL0     C79541   7.421   9.332   2.415  0.0189 -0.7578 -0.6804
  577MOL0     C79542   7.381   9.324   2.279  0.6222  0.2953 -0.7320
  577MOL0     C79543   7.149   9.244   1.910 -0.0174 -1.3469  0.3491
  577MOL0     C79544   7.054   9.349   1.897  0.5228 -0.3352  0.1192
  577MOL0     C79545   6.984   9.362   1.773  0.4663  0.4626  0.0369
  577MOL0     C79546   7.020   9.286   1.661  0.2559  0.5701 -1.2286
  577MOL0     O79547   6.971   9.317   1.545 -0.0098 -0.2302 -0.9420
  577MOL0     C79548   6.833   9.287   1.526  0.8875  0.1190  0.3328
  577MOL0     C79549   6.819   9.130   1.501 -0.1676 -0.1322 -0.2222
  577MOL0     C79550   6.668   9.112   1.459 -1.0574  0.3286  0.6001
  577MOL0     C79551   6.564   9.145   1.565 -0.1541  0.3054 -0.1049
  577MOL0     C79552   6.577   9.060   1.685  0.3179 -0.6462 -0.2188
  577MOL0     C79553   6.600   8.999   1.789 -0.3055 -0.1293 -0.0706
  577MOL0     C79554   7.096   9.173   1.683 -0.4683  0.3756  0.1982
  577MOL0     C79555   7.168   9.160   1.802  0.0035  0.7046  0.7575
  577MOL0     C79556   7.272   9.057   1.803 -0.8081  0.4425  0.5896
  577MOL0     H79557   7.036   9.333   2.337 -0.3148 -1.8051  1.7132
  577MOL0     H79558   7.116   9.303   2.565  0.5080  3.6521  0.4619
  577MOL0     H79559   7.545   9.377   2.681  0.0984 -0.4562  0.1257
  577MOL0     H79560   7.524   9.212   2.610 -0.9893 -0.2982 -0.0262
  577MOL0     H79561   7.461   9.310   2.892  1.5089 -0.4769  1.7366
  577MOL0     H79562   7.472   9.142   2.832 -1.2444  0.6207 -0.3155
  577MOL0     H79563   7.677   9.212   2.982  0.4134 -2.1318 -0.0347
  577MOL0     H79564   7.707   9.155   2.811 -0.5389  0.8028 -0.9534
  577MOL0     H79565   7.724   9.415   2.773 -0.2922  0.0868  0.7090
  577MOL0     H79566   7.712   9.444   2.948 -0.9109 -0.3875  0.8913
  577MOL0     H79567   7.936   9.293   2.799 -1.0408  0.0955 -0.6342
  577MOL0     H79568   7.921   9.312   2.975  2.9383  0.7954 -0.7618
  577MOL0     H79569   7.895   9.536   2.769  0.7736 -1.2932 -0.3124
  577MOL0     H79570   7.905   9.542   2.960  0.7769 -6.3247  3.6034
  577MOL0     H79571   8.113   9.488   2.754 -0.0952 -1.7777  0.4398
  577MOL0     H79572   8.130   9.463   2.933  0.3624 -2.2271 -0.7693
  577MOL0     H79573   8.080   9.733   2.786  2.1297  1.0925 -0.0484
  577MOL0     H79574   8.070   9.717   2.964 -2.4998  1.1273 -0.1110
  577MOL0     H79575   8.298   9.822   2.708  1.5567  3.9150  1.9353
  577MOL0     H79576   8.561   9.955   2.872 -1.4951  0.6240 -1.8671
  577MOL0     H79577   8.538   9.905   2.712  2.2720  0.5856 -0.8125
  577MOL0     H79578   8.773   9.867   2.837  0.5397 -0.1417 -1.5283
  577MOL0     H79579   8.705   9.723   2.900 -1.1058  0.9338  0.0461
  577MOL0     H79580   8.740   9.778   2.602 -0.1680  0.0356 -0.2379
  577MOL0     H79581   8.839   9.663   2.702  1.8453  1.2563 -2.4470
  577MOL0     H79582   8.709   9.526   2.569 -1.2859  0.3169 -0.3681
  577MOL0     H79583   8.640   9.523   2.733  1.1259  0.4619  1.3552
  577MOL0     H79584   8.541   9.366   2.637  0.6297  0.3787 -0.1707
  577MOL0     H79585   8.303   9.120   2.667  1.9932 -2.8250 -0.9064
  577MOL0     H79586   8.468   9.167   2.669  0.0797 -0.3643 -0.1169
  577MOL0     H79587   8.390   9.124   2.517 -2.4793  2.0778 -0.9947
  577MOL0     H79588   7.873   9.152   2.649  1.9442 -0.3005 -1.1613
  577MOL0     H79589   7.698   8.972   2.566 -0.6614 -1.1760 -1.5160
  577MOL0     H79590   7.458   9.064   2.224  0.3212  0.2791 -2.0006
  577MOL0     H79591   7.576   8.959   2.152 -4.5303 -1.2245 -2.2228
  577MOL0     H79592   7.349   8.855   2.156 -2.3906  0.2923  1.6980
  577MOL0     H79593   7.467   8.761   2.255  2.6328  2.0852  1.7411
  577MOL0     H79594   7.263   8.962   2.358  1.3173  0.5598  2.0267
  577MOL0     H79595   7.371   8.882   2.453 -0.5742 -0.5619  0.5942
  577MOL0     H79596   7.292   8.662   2.346  2.1595  1.7541  1.4874
  577MOL0     H79597   7.165   8.751   2.270  1.1454  2.9656 -1.0184
  577MOL0     H79598   7.121   8.616   2.491 -0.6124 -0.4452 -1.9360
  577MOL0     H79599   7.190   8.752   2.573  0.8338 -3.8282 -0.6875
  577MOL0     H79600   6.992   8.802   2.601  1.1332  3.1250  0.4180
  577MOL0     H79601   6.932   8.764   2.448 -1.0537 -0.3828  1.2923
  577MOL0     H79602   7.006   8.965   2.350  0.0938 -3.7309 -0.8637
  577MOL0     H79603   7.118   8.995   2.492 -0.5154 -1.4857  0.4647
  577MOL0     H79604   6.933   9.145   2.481  0.3689  0.0578  0.7725
  577MOL0     H79605   6.915   9.047   2.631 -0.0320 -0.2067  0.2099
  577MOL0     H79606   7.692   9.186   2.190 -0.7161  2.8526  0.3678
  577MOL0     H79607   7.874   9.323   2.259 -0.7834  1.0240  1.0953
  577MOL0     H79608   8.131   9.550   2.447 -0.0568  4.0484  2.6221
  577MOL0     H79609   8.324   9.694   2.484  0.6135  1.0692  0.1283
  577MOL0     H79610   7.522   9.355   2.447 -1.3755  3.7368  1.4213
  577MOL0     H79611   7.440   9.336   2.188  0.5095  0.6064 -0.7669
  577MOL0     H79612   7.028   9.422   1.973 -0.7321  0.2625 -0.8428
  577MOL0     H79613   6.916   9.446   1.766  0.0017  0.3169  1.9719
  577MOL0     H79614   6.764   9.329   1.601  0.7559  2.3103 -0.9426
  577MOL0     H79615   6.806   9.328   1.429  1.1350 -0.0841  0.1786
  577MOL0     H79616   6.831   9.079   1.596 -1.8861  0.0453  0.1249
  577MOL0     H79617   6.889   9.099   1.423 -0.6601  0.2510 -0.8310
  577MOL0     H79618   6.646   9.170   1.369  0.8059 -0.3878 -0.3655
  577MOL0     H79619   6.658   9.006   1.432 -3.2360  0.6871 -0.2056
  577MOL0     H79620   6.469   9.125   1.514  0.5471  1.0123 -1.7749
  577MOL0     H79621   6.561   9.251   1.592  1.1928  0.4393 -0.4165
  577MOL0     H79622   6.620   8.945   1.879  2.2574  0.3838 -0.2707
  577MOL0     H79623   7.105   9.118   1.590 -0.4127  0.1730  0.3216
  577MOL0     H79624   7.221   8.975   1.855  0.1049 -0.1088  0.6309
  577MOL0     H79625   7.307   9.030   1.703  0.7640 -0.2294  1.2809
  577MOL0     H79626   7.360   9.096   1.856 -0.4967  2.5516 -1.3495
  578MOL0     O79627   7.695  10.967   7.176  0.4032  1.0473  1.0155
  578MOL0     C79628   7.636  11.008   7.084  0.2322  0.1532  0.2827
  578MOL0     O79629   7.571  10.943   6.986 -0.2011  0.5300 -0.7794
  578MOL0     C79630   7.529  10.811   6.997  0.5218 -0.1746  0.4419
  578MOL0     C79631   7.497  10.735   6.874  0.0171 -0.1480 -1.0647
  578MOL0     C79632   7.415  10.618   6.891  0.2026 -0.4814  0.5317
  578MOL0     C79633   7.377  10.570   7.015 -1.0921  0.0869  0.0805
  578MOL0     O79634   7.300  10.460   7.006  0.2039 -0.1566  0.3476
  578MOL0     C79635   7.286  10.373   7.124  0.0374 -0.2809 -0.7974
  578MOL0     C79636   7.153  10.309   7.106 -0.4095  0.0850  0.2381
  578MOL0     C79637   7.143  10.184   7.198  0.4272 -1.2207 -1.0444
  578MOL0     C79638   7.019  10.099   7.158  0.2184  0.6214  0.2753
  578MOL0     C79639   7.021   9.974   7.248  0.5655  0.1342  0.8242
  578MOL0     C79640   6.881   9.900   7.241  0.0143 -0.2238 -0.2214
  578MOL0     C79641   6.887   9.790   7.346  0.2985  0.1571 -0.2104
  578MOL0     C79642   6.890   9.837   7.493 -0.4552 -0.0421 -0.5764
  578MOL0     N79643   6.859   9.722   7.591 -0.4537 -0.1134  0.7402
  578MOL0     C79644   6.951   9.622   7.627 -0.3288 -0.1857  0.4098
  578MOL0     C79645   6.878   9.548   7.724  0.3026 -0.3618  0.3330
  578MOL0     C79646   6.927   9.424   7.794 -0.0304  0.3278  0.6625
  578MOL0     C79647   6.951   9.323   7.677 -0.1605  0.7981  0.4019
  578MOL0     C79648   7.048   9.217   7.709 -0.5212  0.1669  0.1689
  578MOL0     C79649   7.075   9.129   7.593 -0.1037  0.5352 -0.5507
  578MOL0     O79650   7.122   9.197   7.477 -0.7920  0.8069 -0.3017
  578MOL0     C79651   7.257   9.198   7.447  0.3465 -0.1115 -0.6117
  578MOL0     C79652   7.285   9.253   7.318  0.1044 -0.3203  0.4937
  578MOL0     C79653   7.411   9.249   7.258 -0.0451 -0.0997  0.2542
  578MOL0     C79654   7.418   9.302   7.113 -0.1150  0.2030 -0.6067
  578MOL0     C79655   7.508   9.174   7.321 -0.3071 -1.1199 -0.4748
  578MOL0     C79656   7.642   9.158   7.272 -0.5723 -0.6472  0.0309
  578MOL0     O79657   7.733   9.106   7.359 -0.3321 -0.0105  0.4006
  578MOL0     C79658   7.867   9.110   7.323  0.1227  0.1755 -0.2848
  578MOL0     C79659   7.939   9.002   7.368 -0.3324  0.9757  1.0513
  578MOL0     C79660   8.084   9.000   7.351  0.3113 -0.0162  0.8159
  578MOL0     C79661   8.146   9.103   7.276  0.2811  0.6500  0.0441
  578MOL0     O79662   8.281   9.119   7.274  0.4370 -0.2211  0.3275
  578MOL0     C79663   8.350   9.121   7.146  0.7255  0.1413  0.4778
  578MOL0     C79664   8.487   9.175   7.169 -0.0532 -0.7850 -0.0090
  578MOL0     C79665   8.575   9.198   7.049 -0.7848  0.3010  0.6278
  578MOL0     C79666   8.507   9.289   6.945  0.2183  0.4225  0.5291
  578MOL0     C79667   8.594   9.335   6.834  1.2248  0.8124  0.3909
  578MOL0     C79668   8.697   9.439   6.875  1.2699 -0.5544  0.3296
  578MOL0     C79669   8.749   9.535   6.766  0.0613 -0.1476 -0.0880
  578MOL0     C79670   8.837   9.467   6.662 -0.6052 -0.3341 -0.0760
  578MOL0    Cl79671   8.898   9.598   6.554 -0.1170 -0.6183  0.4234
  578MOL0     C79672   8.067   9.200   7.224 -0.4903 -0.4736  0.0313
  578MOL0     C79673   7.933   9.214   7.254 -0.2549 -0.2903 -0.2718
  578MOL0     O79674   7.664   9.174   7.151  0.6161 -0.1207 -0.7199
  578MOL0     C79675   7.488   9.130   7.453  0.1725 -0.9981 -0.1150
  578MOL0     C79676   7.361   9.139   7.512  0.1453  0.7173 -0.1144
  578MOL0     N79677   6.751   9.606   7.738  0.2659  0.7640  0.5016
  578MOL0     N79678   6.750   9.708   7.668  0.5470 -0.1618 -0.0362
  578MOL0     C79679   7.414  10.645   7.128 -0.9053 -0.1105 -0.0475
  578MOL0     C79680   7.491  10.761   7.123 -0.2419 -0.6019  0.9735
  578MOL0     C79681   7.625  11.156   7.079 -0.1972  0.6116 -0.0894
  578MOL0     C79682   7.599  11.224   7.200 -1.0212  0.1116  0.2814
  578MOL0     C79683   7.602  11.361   7.209 -0.1747 -0.1695  0.8756
  578MOL0     C79684   7.609  11.437   7.095 -0.7476  0.8224 -0.9323
  578MOL0     O79685   7.625  11.565   7.103  0.2681 -0.1552 -0.3143
  578MOL0     C79686   7.610  11.644   6.983 -0.4993 -0.6559  0.3974
  578MOL0     C79687   7.604  11.791   7.027  0.6008 -0.2858  0.1908
  578MOL0     C79688   7.733  11.823   7.091 -0.8058  0.0125 -0.5795
  578MOL0     C79689   7.749  11.972   7.100  0.3760  0.1886  0.2918
  578MOL0     C79690   7.867  12.029   7.170 -0.6810  0.7659  0.2703
  578MOL0     C79691   7.964  12.068   7.226  0.5367 -0.3174 -0.4155
  578MOL0     C79692   7.626  11.365   6.982  0.5179 -0.4675  0.6470
  578MOL0     C79693   7.639  11.232   6.968  0.8837  0.7599  0.3388
  578MOL0     C79694   7.692  11.189   6.840  0.2162 -0.2555  0.4161
  578MOL0     H79695   7.512  10.778   6.776 -0.1492 -0.6534 -1.3157
  578MOL0     H79696   7.393  10.563   6.800  3.8958  0.9943 -1.4548
  578MOL0     H79697   7.293  10.415   7.225  2.4610 -2.5697  0.1007
  578MOL0     H79698   7.380  10.316   7.127  1.5200  2.0766  1.5690
  578MOL0     H79699   7.070  10.379   7.127 -0.8331  0.1156 -1.3800
  578MOL0     H79700   7.152  10.279   7.001  1.4708  1.5401 -0.2516
  578MOL0     H79701   7.229  10.117   7.183  0.5444 -1.0594 -1.0878
  578MOL0     H79702   7.141  10.221   7.301  0.0750 -1.0340 -1.1165
  578MOL0     H79703   6.932  10.162   7.179 -1.2468 -1.1230 -0.3969
  578MOL0     H79704   7.002  10.066   7.055  3.4751 -1.8258  0.3725
  578MOL0     H79705   7.052  10.006   7.348 -1.3507 -0.4093  1.6312
  578MOL0     H79706   7.091   9.897   7.212 -0.5573  0.0443 -1.2873
  578MOL0     H79707   6.809   9.977   7.271  0.7139  0.4051 -0.1255
  578MOL0     H79708   6.860   9.853   7.144 -0.4067 -0.3852 -0.0552
  578MOL0     H79709   6.979   9.732   7.337  1.2872  1.4718  0.9913
  578MOL0     H79710   6.803   9.721   7.335  0.5778 -0.5382  1.5899
  578MOL0     H79711   6.982   9.892   7.518 -1.2235 -0.1122  2.9366
  578MOL0     H79712   6.802   9.900   7.508 -1.8741 -2.1437  0.4892
  578MOL0     H79713   7.054   9.605   7.599 -1.3829 -2.7762 -2.3118
  578MOL0     H79714   6.852   9.392   7.867  0.4213 -0.8200  0.6544
  578MOL0     H79715   7.017   9.432   7.856 -0.9084  2.7053  1.7467
  578MOL0     H79716   6.854   9.277   7.660  1.3278 -1.7413 -1.9138
  578MOL0     H79717   6.964   9.370   7.580 -1.1163  1.0327  0.3761
  578MOL0     H79718   7.143   9.263   7.738 -0.9161  0.2215  1.4235
  578MOL0     H79719   6.996   9.163   7.789  0.3725  0.7719  1.1890
  578MOL0     H79720   7.150   9.058   7.630 -0.0973  2.0005  2.5098
  578MOL0     H79721   6.988   9.066   7.572  0.2115 -0.1932  0.2807
  578MOL0     H79722   7.201   9.301   7.269 -0.9750 -1.2734  1.3759
  578MOL0     H79723   7.329   9.363   7.094 -0.4983  0.5554  1.9828
  578MOL0     H79724   7.413   9.213   7.049 -3.0490 -0.1494 -0.0474
  578MOL0     H79725   7.504   9.361   7.081  0.0065  0.3320 -0.0448
  578MOL0     H79726   7.892   8.920   7.421  2.0410  0.7487  3.0023
  578MOL0     H79727   8.143   8.917   7.387  0.3387 -0.9123 -1.1345
  578MOL0     H79728   8.362   9.016   7.118  2.6156  0.2229  0.8479
  578MOL0     H79729   8.303   9.169   7.059 -0.1320 -1.4250  0.0392
  578MOL0     H79730   8.478   9.276   7.211  2.7368  0.9273 -3.0322
  578MOL0     H79731   8.542   9.117   7.243  0.7933  0.9154  0.7446
  578MOL0     H79732   8.607   9.103   7.006  1.2414  0.6773  1.2248
  578MOL0     H79733   8.673   9.232   7.082  0.7940 -0.8644 -2.4910
  578MOL0     H79734   8.456   9.377   6.985 -1.1004  0.1241 -0.4243
  578MOL0     H79735   8.434   9.226   6.893 -1.5884  1.9394  1.1150
  578MOL0     H79736   8.640   9.249   6.784  1.0136  0.7971  0.2172
  578MOL0     H79737   8.544   9.374   6.745  0.9040  0.0041  0.2035
  578MOL0     H79738   8.781   9.385   6.918  1.5261  1.2824  2.2980
  578MOL0     H79739   8.645   9.509   6.941  1.3634  0.6903 -0.8726
  578MOL0     H79740   8.825   9.600   6.810  2.5115 -2.4678 -0.6601
  578MOL0     H79741   8.672   9.603   6.728 -0.8156 -0.6780  0.7031
  578MOL0     H79742   8.774   9.404   6.599  0.3429  0.6608 -2.1257
  578MOL0     H79743   8.923   9.414   6.705  0.7985  0.6940 -1.4866
  578MOL0     H79744   8.118   9.281   7.173  2.4672 -2.4124 -0.3333
  578MOL0     H79745   7.891   9.313   7.239 -2.4199 -0.7139  2.2820
  578MOL0     H79746   7.566   9.068   7.497  0.5310 -1.2434 -1.0745
  578MOL0     H79747   7.350   9.094   7.610 -0.8237 -3.2206 -1.8274
  578MOL0     H79748   7.378  10.607   7.222  1.6049 -0.7254  0.7422
  578MOL0     H79749   7.512  10.811   7.217 -1.2607 -0.8362  1.3403
  578MOL0     H79750   7.605  11.173   7.295 -0.6946 -1.3722 -0.5049
  578MOL0     H79751   7.594  11.415   7.303 -3.7386  4.2920 -1.5535
  578MOL0     H79752   7.686  11.636   6.906 -0.1210 -0.5444  0.7567
  578MOL0     H79753   7.511  11.617   6.945  0.2441 -3.2578  0.0616
  578MOL0     H79754   7.517  11.808   7.091 -0.3260  0.7704 -1.2914
  578MOL0     H79755   7.590  11.861   6.945 -0.4034  1.5224  1.8429
  578MOL0     H79756   7.741  11.790   7.195 -0.2161  1.4649 -0.1366
  578MOL0     H79757   7.817  11.771   7.044 -2.3682 -1.2059 -2.1837
  578MOL0     H79758   7.660  12.000   7.157 -0.5520 -0.9169 -0.5691
  578MOL0     H79759   7.740  12.023   7.004 -2.9110 -1.4358 -0.4093
  578MOL0     H79760   8.059  12.102   7.262  0.9345 -0.4797 -1.2966
  578MOL0     H79761   7.632  11.427   6.892  0.8680 -1.7956 -0.2699
  578MOL0     H79762   7.630  11.204   6.750  1.5702 -0.6756 -0.6218
  578MOL0     H79763   7.793  11.228   6.828  0.5030 -0.9224  0.6352
  578MOL0     H79764   7.709  11.082   6.848 -0.5292 -0.3821  0.3724
  579MOL0     O79765   3.738   6.512   6.850 -1.1019 -0.3920 -0.0544
  579MOL0     C79766   3.628   6.549   6.810  0.2959  0.3645 -0.2334
  579MOL0     O79767   3.581   6.676   6.802  0.0538  0.1031 -0.0997
  579MOL0     C79768   3.650   6.787   6.840  0.1147 -0.1338 -0.6320
  579MOL0     C79769   3.572   6.890   6.896  0.1129 -0.5616 -0.3217
  579MOL0     C79770   3.629   7.012   6.935  0.2274 -0.5465  0.1366
  579MOL0     C79771   3.762   7.040   6.938 -1.1092 -0.8736 -0.1881
  579MOL0     O79772   3.832   7.157   6.974  0.4482 -0.1853  0.7054
  579MOL0     C79773   3.748   7.275   6.974  0.6856 -0.1505  0.5719
  579MOL0     C79774   3.853   7.384   6.983  0.7474 -0.0013 -0.2265
  579MOL0     C79775   3.773   7.515   7.001  0.0841  1.0226  0.0505
  579MOL0     C79776   3.831   7.606   7.100 -0.2822 -0.6151 -0.6446
  579MOL0     C79777   3.791   7.751   7.093  0.0460 -0.7701  0.5761
  579MOL0     C79778   3.871   7.838   7.199  0.4817 -0.5443  0.1160
  579MOL0     C79779   3.864   7.979   7.140  0.9250 -0.6375 -0.2138
  579MOL0     C79780   3.943   8.080   7.207 -0.2236  0.4857  0.2184
  579MOL0     N79781   3.953   8.202   7.126  0.2022  0.1143 -0.3116
  579MOL0     C79782   3.848   8.254   7.048  0.0756 -0.3790 -0.7291
  579MOL0     C79783   3.889   8.372   7.008  0.7950  0.2086  0.3298
  579MOL0     C79784   3.818   8.473   6.924  0.1616  0.6534  0.0077
  579MOL0     C79785   3.686   8.528   6.981 -0.0525  0.1322  0.5620
  579MOL0     C79786   3.616   8.634   6.904 -1.1007 -0.2778  0.4450
  579MOL0     C79787   3.596   8.586   6.754  0.3516  0.7170  0.2516
  579MOL0     O79788   3.502   8.481   6.760 -0.0931  0.1253 -0.7499
  579MOL0     C79789   3.541   8.360   6.718  0.0993 -0.0781  1.0268
  579MOL0     C79790   3.484   8.256   6.790 -0.1512  0.2161  0.1579
  579MOL0     C79791   3.523   8.123   6.770 -0.3203  0.7915  0.1873
  579MOL0     C79792   3.430   8.025   6.850  0.1017 -0.3109  1.2315
  579MOL0     C79793   3.606   8.090   6.653  0.6824 -0.4727  0.7255
  579MOL0     C79794   3.641   7.953   6.623  0.0514 -0.0607 -0.0090
  579MOL0     O79795   3.575   7.852   6.686 -0.3609 -0.2431 -0.4938
  579MOL0     C79796   3.589   7.720   6.658  0.5300  0.0057  0.4053
  579MOL0     C79797   3.661   7.664   6.551 -0.3974  0.1087  0.2598
  579MOL0     C79798   3.665   7.530   6.539 -0.3291 -0.1083 -0.1063
  579MOL0     C79799   3.599   7.440   6.632 -0.2659  0.2109  0.6133
  579MOL0     O79800   3.582   7.300   6.612 -0.3818  0.2804  0.0261
  579MOL0     C79801   3.685   7.210   6.565 -0.2345 -0.4267  0.5977
  579MOL0     C79802   3.647   7.168   6.421 -0.2169  0.2547 -0.2461
  579MOL0     C79803   3.506   7.111   6.404 -0.2070 -0.2880  1.2932
  579MOL0     C79804   3.489   6.991   6.507  0.2506  0.1543  0.5167
  579MOL0     C79805   3.367   6.912   6.465  0.5906 -0.3770 -0.8814
  579MOL0     C79806   3.344   6.795   6.565 -0.4084 -1.0531  0.3674
  579MOL0     C79807   3.215   6.723   6.532  0.4903  0.7681  0.1497
  579MOL0     C79808   3.212   6.604   6.629 -1.0104  0.0920 -0.0036
  579MOL0    Cl79809   3.181   6.673   6.789 -0.0240 -0.2462  0.0522
  579MOL0     C79810   3.527   7.501   6.737 -0.1474  0.4522  0.5192
  579MOL0     C79811   3.527   7.637   6.750  1.0299  0.7573  0.1116
  579MOL0     O79812   3.727   7.945   6.533 -0.2629  0.2639 -0.8596
  579MOL0     C79813   3.653   8.205   6.573  0.1744 -0.7177  0.4166
  579MOL0     C79814   3.622   8.337   6.604  0.3444  0.3294 -0.3543
  579MOL0     N79815   4.011   8.401   7.065  0.1616  0.1591  0.5215
  579MOL0     N79816   4.052   8.293   7.128  0.1942  0.4987  0.8075
  579MOL0     C79817   3.842   6.933   6.892 -0.0916 -0.3207 -0.4938
  579MOL0     C79818   3.789   6.811   6.835  0.3972  0.1067  0.6724
  579MOL0     C79819   3.530   6.427   6.787  0.0737 -0.8168 -0.3403
  579MOL0     C79820   3.430   6.411   6.884  0.1440 -0.7134 -0.1367
  579MOL0     C79821   3.357   6.295   6.891  0.9924 -0.5709 -0.0287
  579MOL0     C79822   3.381   6.194   6.796 -0.6036  0.6387 -0.7624
  579MOL0     O79823   3.298   6.091   6.820  0.1150 -1.0177 -0.7935
  579MOL0     C79824   3.338   5.953   6.776 -0.9726  0.2000  0.1114
  579MOL0     C79825   3.261   5.836   6.826 -0.7379 -0.2709 -0.2532
  579MOL0     C79826   3.110   5.846   6.796  0.1303 -0.2992  0.4214
  579MOL0     C79827   3.035   5.740   6.873 -0.5148  0.1735  0.4856
  579MOL0     C79828   3.076   5.602   6.826  0.7807 -0.4350  0.0682
  579MOL0     C79829   3.110   5.492   6.798  0.1682 -0.3564 -0.1813
  579MOL0     C79830   3.478   6.200   6.700 -0.5438 -0.8518  0.9336
  579MOL0     C79831   3.558   6.317   6.690  0.7522 -0.0062 -0.6769
  579MOL0     C79832   3.658   6.336   6.583 -1.1805  0.2255 -0.1093
  579MOL0     H79833   3.465   6.883   6.914  0.3138 -0.0780  1.2191
  579MOL0     H79834   3.560   7.087   6.973  0.9264  0.3725 -0.3502
  579MOL0     H79835   3.684   7.280   7.062  0.6029  2.4010  0.4345
  579MOL0     H79836   3.696   7.280   6.878  3.1598 -3.7855 -1.2054
  579MOL0     H79837   3.929   7.368   7.060 -1.1773  0.7436  1.9302
  579MOL0     H79838   3.918   7.393   6.895  1.3622  0.3835  0.2602
  579MOL0     H79839   3.769   7.562   6.903  0.1978 -0.4705 -0.6842
  579MOL0     H79840   3.668   7.502   7.028 -0.4709  4.1639 -0.2682
  579MOL0     H79841   3.794   7.581   7.200 -4.0660  0.8865 -1.5094
  579MOL0     H79842   3.940   7.601   7.091  0.1013  1.0840  1.9558
  579MOL0     H79843   3.683   7.766   7.102  0.4498  1.5796  2.4562
  579MOL0     H79844   3.812   7.791   6.993  1.4883  1.1008  1.5469
  579MOL0     H79845   3.815   7.839   7.293  0.6827  0.2501  0.2374
  579MOL0     H79846   3.970   7.797   7.215  0.4965 -1.3228 -1.6943
  579MOL0     H79847   3.756   7.996   7.143  0.8904 -0.9333  0.8052
  579MOL0     H79848   3.902   7.961   7.039  0.3883  1.1015 -0.7572
  579MOL0     H79849   3.909   8.103   7.308  1.4485  2.3185  0.4150
  579MOL0     H79850   4.038   8.027   7.216 -0.7157 -0.2193  1.6793
  579MOL0     H79851   3.750   8.208   7.044  1.4824 -4.3417  2.9594
  579MOL0     H79852   3.815   8.423   6.826  0.4763 -0.7729  0.7085
  579MOL0     H79853   3.895   8.552   6.920 -0.2768  1.0990  0.3077
  579MOL0     H79854   3.617   8.445   6.999 -0.2597  0.4443  1.2486
  579MOL0     H79855   3.703   8.577   7.077  1.6156 -1.9991  1.4511
  579MOL0     H79856   3.521   8.664   6.949 -1.1195  2.8630 -1.3450
  579MOL0     H79857   3.669   8.729   6.894  0.3355 -1.1465 -0.6505
  579MOL0     H79858   3.538   8.660   6.698  0.1346 -0.9601 -1.9155
  579MOL0     H79859   3.690   8.566   6.702  0.5048 -0.2522  0.8796
  579MOL0     H79860   3.416   8.284   6.869  1.9813  0.4103  2.0470
  579MOL0     H79861   3.487   7.964   6.920  0.2655  0.6247  1.9311
  579MOL0     H79862   3.373   7.955   6.789 -3.4205  0.5500  3.2640
  579MOL0     H79863   3.363   8.085   6.912 -1.8215 -0.3420 -0.7057
  579MOL0     H79864   3.712   7.718   6.472 -2.4244 -0.0489 -1.2377
  579MOL0     H79865   3.725   7.495   6.455  1.5275 -0.5675  1.3309
  579MOL0     H79866   3.785   7.255   6.564 -0.5060  0.3495 -2.6633
  579MOL0     H79867   3.700   7.113   6.612  2.2899 -1.7811 -2.6527
  579MOL0     H79868   3.667   7.264   6.372  1.3606 -0.0149 -0.1958
  579MOL0     H79869   3.723   7.093   6.397  0.0031 -1.0230  3.7446
  579MOL0     H79870   3.494   7.092   6.297 -1.8494  4.3165  0.4475
  579MOL0     H79871   3.436   7.192   6.426  0.4599  1.5478 -2.6421
  579MOL0     H79872   3.479   7.018   6.613  3.0903 -1.8067  1.4284
  579MOL0     H79873   3.573   6.921   6.508 -0.2326 -0.5821  4.1813
  579MOL0     H79874   3.284   6.983   6.473  0.2333 -0.9730  2.6135
  579MOL0     H79875   3.384   6.869   6.366 -2.0339 -0.7201 -1.2364
  579MOL0     H79876   3.347   6.832   6.668  0.2703 -1.9041  0.6687
  579MOL0     H79877   3.434   6.732   6.557  1.0270  0.6042  2.2352
  579MOL0     H79878   3.220   6.677   6.433 -3.6012 -2.5270  1.1362
  579MOL0     H79879   3.130   6.793   6.531 -0.8693 -0.7283 -2.8781
  579MOL0     H79880   3.313   6.562   6.623  0.6614  3.7675 -0.2342
  579MOL0     H79881   3.137   6.529   6.600  0.5642 -0.7166 -2.3828
  579MOL0     H79882   3.474   7.442   6.811 -0.9270 -2.9547 -2.4883
  579MOL0     H79883   3.472   7.688   6.828  1.1985  1.0620  0.0338
  579MOL0     H79884   3.707   8.190   6.480 -0.6107  2.2882 -0.6550
  579MOL0     H79885   3.655   8.421   6.543  0.7028  0.0343 -0.5666
  579MOL0     H79886   3.950   6.941   6.900  0.0266 -2.7765  1.9219
  579MOL0     H79887   3.862   6.736   6.809 -1.6813 -2.0881  0.7964
  579MOL0     H79888   3.414   6.493   6.954  0.7991  0.7812 -1.6845
  579MOL0     H79889   3.275   6.289   6.961  1.6885 -2.0265  0.7116
  579MOL0     H79890   3.345   5.957   6.667 -0.3002  4.1281  0.1193
  579MOL0     H79891   3.446   5.936   6.785 -0.2606  2.5435 -2.5023
  579MOL0     H79892   3.292   5.807   6.926  3.7070  0.6474 -1.1688
  579MOL0     H79893   3.291   5.753   6.760 -0.6406 -0.0564 -0.4784
  579MOL0     H79894   3.063   5.943   6.819 -2.4489 -1.0785 -1.1165
  579MOL0     H79895   3.080   5.830   6.692  0.6915 -1.3295  0.4107
  579MOL0     H79896   2.931   5.755   6.840  0.3747 -0.9689 -3.4077
  579MOL0     H79897   3.055   5.753   6.979 -2.2870  0.0606  0.8762
  579MOL0     H79898   3.140   5.392   6.773 -3.6657 -1.9502  0.9617
  579MOL0     H79899   3.511   6.116   6.638  1.1126  0.4350 -0.0292
  579MOL0     H79900   3.652   6.440   6.551 -0.4049  0.5749  0.8223
  579MOL0     H79901   3.764   6.321   6.601 -0.8166  0.5048 -1.8647
  579MOL0     H79902   3.631   6.271   6.499 -2.4593  1.2028 -0.4953
  580MOL0     O79903   2.716   9.434   6.508  0.0568  0.5519  0.4677
  580MOL0     C79904   2.635   9.408   6.591  0.4797  0.1421  0.3977
  580MOL0     O79905   2.611   9.289   6.646  0.4339 -0.7831  0.3045
  580MOL0     C79906   2.676   9.183   6.613 -0.2517  0.6263 -0.6074
  580MOL0     C79907   2.600   9.088   6.536  0.3022  0.9170  0.5802
  580MOL0     C79908   2.662   8.966   6.507  0.6915  0.1096  0.0467
  580MOL0     C79909   2.795   8.939   6.536  0.3656 -0.1536  0.3305
  580MOL0     O79910   2.852   8.823   6.513  0.0564  0.6897  0.1972
  580MOL0     C79911   2.779   8.697   6.503 -0.7669 -0.3834  0.0314
  580MOL0     C79912   2.801   8.660   6.356 -1.2570  0.3924 -0.5175
  580MOL0     C79913   2.724   8.525   6.318  0.6280 -0.6639 -0.6865
  580MOL0     C79914   2.572   8.567   6.304 -0.2678  0.2349 -0.0059
  580MOL0     C79915   2.496   8.435   6.275 -1.0605 -0.5537  0.2036
  580MOL0     C79916   2.342   8.450   6.272 -0.4596  0.4641  0.4749
  580MOL0     C79917   2.278   8.319   6.222 -0.2056  0.5533 -0.0495
  580MOL0     C79918   2.280   8.201   6.322 -0.4662 -0.3267  1.1659
  580MOL0     N79919   2.231   8.084   6.244 -0.0246  0.1105  0.1462
  580MOL0     C79920   2.105   8.028   6.259 -0.4677 -0.8198 -0.0477
  580MOL0     C79921   2.126   7.913   6.205 -0.6819 -0.3263 -0.2364
  580MOL0     C79922   2.028   7.806   6.220  0.5604  0.5178 -0.4520
  580MOL0     C79923   2.017   7.721   6.086  0.0630  0.8363  0.7809
  580MOL0     C79924   1.955   7.814   5.977 -0.0749  0.3555  0.8024
  580MOL0     C79925   1.898   7.739   5.861 -0.5559  0.3257 -0.1797
  580MOL0     O79926   1.828   7.837   5.786  0.6246 -0.0868 -0.2772
  580MOL0     C79927   1.766   7.778   5.680 -0.0957  0.3194 -0.6385
  580MOL0     C79928   1.776   7.642   5.637  0.3839  0.0279 -0.2741
  580MOL0     C79929   1.712   7.590   5.518  0.2150 -0.1929 -0.3684
  580MOL0     C79930   1.743   7.451   5.476  0.3669  0.7705  0.3519
  580MOL0     C79931   1.624   7.681   5.445 -0.6237 -0.0724  0.7440
  580MOL0     C79932   1.554   7.657   5.309 -0.2563  0.3581  0.5468
  580MOL0     O79933   1.513   7.762   5.233  0.0487 -0.8463  0.1920
  580MOL0     C79934   1.469   7.751   5.103  0.6319 -0.6541  0.2097
  580MOL0     C79935   1.545   7.807   5.007  0.4138  0.7320  0.6299
  580MOL0     C79936   1.516   7.789   4.876  0.2197  0.2446 -0.4991
  580MOL0     C79937   1.390   7.742   4.835 -0.4940  0.4280 -0.4466
  580MOL0     O79938   1.339   7.733   4.710  0.5630  0.1614 -0.3961
  580MOL0     C79939   1.435   7.705   4.608 -0.4383  1.3765  0.2204
  580MOL0     C79940   1.507   7.569   4.617  0.1356 -0.5675  0.0165
  580MOL0     C79941   1.631   7.587   4.541 -0.4296 -0.0923  0.4283
  580MOL0     C79942   1.711   7.454   4.566 -0.2341  0.1835 -0.2881
  580MOL0     C79943   1.840   7.457   4.493 -0.1951  0.0632  0.2324
  580MOL0     C79944   1.822   7.425   4.345 -0.2942  0.2803 -0.4611
  580MOL0     C79945   1.951   7.427   4.257 -0.3810 -0.6113  0.8473
  580MOL0     C79946   1.970   7.581   4.226 -0.0522  0.2397  0.6376
  580MOL0    Cl79947   2.124   7.605   4.156 -0.3127 -0.3663 -0.0303
  580MOL0     C79948   1.299   7.706   4.935  0.3567 -0.4295  0.4424
  580MOL0     C79949   1.336   7.706   5.068 -0.3503 -0.4777 -0.9474
  580MOL0     O79950   1.533   7.545   5.270 -0.8010  0.1048 -0.0100
  580MOL0     C79951   1.606   7.810   5.504  0.1438  0.4419 -0.7895
  580MOL0     C79952   1.681   7.856   5.610  0.2628  0.1802 -0.0389
  580MOL0     N79953   2.246   7.903   6.141  0.8966 -0.3142  1.0859
  580MOL0     N79954   2.308   8.006   6.165 -0.5177 -0.4120  0.8191
  580MOL0     C79955   2.869   9.034   6.611 -0.3703 -0.2772  0.4266
  580MOL0     C79956   2.808   9.151   6.647  0.4591  0.6799  0.2647
  580MOL0     C79957   2.562   9.530   6.641 -0.6352  0.5161 -1.0356
  580MOL0     C79958   2.430   9.512   6.691  0.0219  0.1607  0.3931
  580MOL0     C79959   2.355   9.620   6.735  0.9831 -0.2250 -0.5662
  580MOL0     C79960   2.403   9.746   6.722  0.6379  0.4663 -0.6595
  580MOL0     O79961   2.319   9.855   6.740 -0.3578 -0.1513  0.4793
  580MOL0     C79962   2.187   9.853   6.677 -0.4415  0.0120 -0.5000
  580MOL0     C79963   2.194   9.850   6.529 -0.4406  0.1036 -0.6874
  580MOL0     C79964   2.263   9.969   6.458 -0.8875  0.5105 -0.5029
  580MOL0     C79965   2.185  10.100   6.491  0.7197 -0.1341  0.3874
  580MOL0     C79966   2.229  10.218   6.418  0.2315 -0.3313 -0.1404
  580MOL0     C79967   2.242  10.308   6.340 -0.2437 -0.1890  0.1218
  580MOL0     C79968   2.537   9.771   6.683  0.4471 -0.0115  0.7754
  580MOL0     C79969   2.617   9.657   6.648  0.2717 -0.1954 -0.0093
  580MOL0     C79970   2.766   9.679   6.627  0.9266  0.6294 -0.0856
  580MOL0     H79971   2.507   9.116   6.489 -0.6690 -2.8922 -0.0601
  580MOL0     H79972   2.600   8.898   6.449 -3.4707  3.1927  0.4461
  580MOL0     H79973   2.675   8.701   6.536 -0.0317 -0.8621  2.6898
  580MOL0     H79974   2.818   8.621   6.571 -2.3243 -1.0257  0.2287
  580MOL0     H79975   2.767   8.740   6.290 -2.7549  0.0334 -0.2169
  580MOL0     H79976   2.908   8.647   6.340 -1.4863  1.2646 -3.3450
  580MOL0     H79977   2.767   8.508   6.219 -3.8219  4.3434 -4.0001
  580MOL0     H79978   2.725   8.435   6.382 -2.8272 -0.2780  0.1399
  580MOL0     H79979   2.541   8.612   6.398  1.0334  0.2810  0.4248
  580MOL0     H79980   2.563   8.632   6.216 -0.0642 -0.9538 -0.9352
  580MOL0     H79981   2.523   8.368   6.356  2.8051 -2.7292 -2.5478
  580MOL0     H79982   2.532   8.382   6.186 -0.8683 -0.1086  0.0088
  580MOL0     H79983   2.294   8.450   6.370 -0.1481 -2.9560  0.7395
  580MOL0     H79984   2.309   8.529   6.204 -0.7106  0.0217  0.0768
  580MOL0     H79985   2.335   8.292   6.132 -0.4474  1.6219 -0.5344
  580MOL0     H79986   2.174   8.337   6.193 -0.4931  0.0797  0.6599
  580MOL0     H79987   2.380   8.179   6.361 -0.7838 -2.1765  1.0332
  580MOL0     H79988   2.206   8.223   6.399 -0.4145 -1.4591  1.5570
  580MOL0     H79989   2.021   8.035   6.327 -0.2092  0.9783  0.1431
  580MOL0     H79990   1.929   7.849   6.243  1.6911  1.7689  2.6479
  580MOL0     H79991   2.057   7.743   6.304 -0.0548  0.2172 -0.4597
  580MOL0     H79992   2.111   7.680   6.048 -2.7631 -4.4646 -1.6718
  580MOL0     H79993   1.952   7.637   6.113  0.9639  0.0040  0.4359
  580MOL0     H79994   1.868   7.862   6.022  0.8188  1.0961  1.7856
  580MOL0     H79995   2.039   7.879   5.951  1.7342 -0.2365  4.4351
  580MOL0     H79996   1.977   7.689   5.805 -1.4815 -0.6432 -0.6602
  580MOL0     H79997   1.831   7.660   5.894 -0.7925  1.0858  1.2238
  580MOL0     H79998   1.838   7.565   5.682 -1.1671  0.5586  3.0824
  580MOL0     H79999   1.652   7.406   5.435  0.8574  0.5164 -0.4813
  580MOL0     H80000   1.781   7.386   5.555 -1.4242 -0.9371 -0.1098
  580MOL0     H80001   1.824   7.449   5.403 -1.5447 -1.1132 -1.8592
  580MOL0     H80002   1.647   7.832   5.034  2.1899 -2.5931 -2.0684
  580MOL0     H80003   1.592   7.819   4.804  0.0723  0.3743 -0.6005
  580MOL0     H80004   1.382   7.711   4.512  0.7166  1.8337 -0.4110
  580MOL0     H80005   1.510   7.785   4.602  2.0642 -0.9099 -1.8701
  580MOL0     H80006   1.528   7.557   4.724 -3.3127 -0.2835  0.8313
  580MOL0     H80007   1.458   7.477   4.583 -0.5016  0.6261 -2.5074
  580MOL0     H80008   1.695   7.673   4.562  0.1769  0.3172 -2.6789
  580MOL0     H80009   1.591   7.594   4.439 -1.0986 -2.8516  0.4138
  580MOL0     H80010   1.661   7.360   4.541  2.6363 -1.4626 -0.3369
  580MOL0     H80011   1.736   7.446   4.673  1.6271 -1.7038 -0.7830
  580MOL0     H80012   1.894   7.551   4.505 -1.8471  1.3842 -1.9018
  580MOL0     H80013   1.897   7.379   4.544 -3.1271 -1.7824  0.9578
  580MOL0     H80014   1.752   7.491   4.293 -0.8904  0.5210  0.6110
  580MOL0     H80015   1.790   7.321   4.331  0.1191 -0.3589  2.5521
  580MOL0     H80016   1.943   7.362   4.169 -1.3505 -1.4547  1.5341
  580MOL0     H80017   2.034   7.397   4.322  1.8923 -0.8272 -1.9495
  580MOL0     H80018   1.964   7.641   4.318  3.2635 -2.5952  2.9788
  580MOL0     H80019   1.890   7.613   4.159  1.5161  1.7822 -0.5637
  580MOL0     H80020   1.199   7.681   4.901 -0.0493  3.1209 -1.5863
  580MOL0     H80021   1.282   7.650   5.144  0.9475  0.1418  0.4749
  580MOL0     H80022   1.565   7.887   5.439  0.4580  1.5133  0.2522
  580MOL0     H80023   1.667   7.961   5.636 -2.0930 -0.2452  0.6184
  580MOL0     H80024   2.974   9.033   6.635 -0.9912  1.0657  3.7784
  580MOL0     H80025   2.860   9.221   6.712 -0.3077  1.2769  0.2471
  580MOL0     H80026   2.391   9.411   6.681  0.6427  0.0719 -1.4872
  580MOL0     H80027   2.256   9.603   6.775  2.5890 -0.2270  4.0716
  580MOL0     H80028   2.128   9.765   6.708  3.1426 -2.6684 -0.6555
  580MOL0     H80029   2.140   9.946   6.709  2.0070  0.9341  0.6593
  580MOL0     H80030   2.090   9.841   6.493 -1.2685  0.5549  1.4667
  580MOL0     H80031   2.252   9.761   6.503 -1.6630 -0.3054 -2.2265
  580MOL0     H80032   2.368   9.976   6.487 -0.8906  1.6455 -0.7066
  580MOL0     H80033   2.258   9.956   6.349  3.3564  1.2664 -0.9621
  580MOL0     H80034   2.184  10.119   6.599 -2.0019 -1.5708  0.7166
  580MOL0     H80035   2.080  10.083   6.464  1.3922 -1.9579 -1.2790
  580MOL0     H80036   2.252  10.393   6.276  0.0351 -1.3352 -1.4263
  580MOL0     H80037   2.586   9.868   6.671 -0.8664  0.5714 -0.1948
  580MOL0     H80038   2.799   9.776   6.665 -1.7511  0.0428  4.3715
  580MOL0     H80039   2.831   9.612   6.683  1.8846  1.3968 -0.2589
  580MOL0     H80040   2.786   9.676   6.519  1.1373  3.6266 -0.2254
  581MOL0     O80041   1.271   6.630   5.512  0.1588  0.3239 -0.2496
  581MOL0     C80042   1.243   6.713   5.601 -0.6928 -0.2008 -0.2342
  581MOL0     O80043   1.321   6.766   5.695  0.2866 -0.0515 -0.2271
  581MOL0     C80044   1.455   6.724   5.709  0.3239  0.6043  0.8559
  581MOL0     C80045   1.527   6.794   5.801  0.3713 -0.3768  0.0672
  581MOL0     C80046   1.657   6.767   5.831  0.2517  0.3353  0.3307
  581MOL0     C80047   1.720   6.659   5.772  0.1520 -0.4595 -0.0996
  581MOL0     O80048   1.858   6.650   5.798 -0.7600 -0.2536 -0.5041
  581MOL0     C80049   1.924   6.578   5.702 -0.4415  0.1682  0.1690
  581MOL0     C80050   2.075   6.602   5.712 -0.0826  0.4849  0.3439
  581MOL0     C80051   2.155   6.510   5.614 -1.0346 -0.1178 -0.4946
  581MOL0     C80052   2.194   6.377   5.683  0.7593  0.1875 -0.2616
  581MOL0     C80053   2.256   6.266   5.583  0.8182 -0.7003 -0.4519
  581MOL0     C80054   2.303   6.158   5.679  0.4179  0.4018 -0.3714
  581MOL0     C80055   2.327   6.034   5.600  0.2261 -0.4208  0.2401
  581MOL0     C80056   2.423   5.920   5.658 -0.0814  0.8321  0.6333
  581MOL0     N80057   2.330   5.836   5.745 -0.5158 -0.9564  1.0779
  581MOL0     C80058   2.310   5.877   5.869  0.0591 -0.3962 -0.4556
  581MOL0     C80059   2.219   5.799   5.913  0.8204  0.5344  0.0570
  581MOL0     C80060   2.169   5.784   6.051 -0.0096 -0.1131 -0.3572
  581MOL0     C80061   2.124   5.915   6.122 -0.9485 -0.0326  0.5084
  581MOL0     C80062   1.973   5.899   6.162 -0.6189  0.6945  0.3605
  581MOL0     C80063   1.937   6.001   6.265  1.2316 -0.2053 -0.7068
  581MOL0     O80064   1.810   6.072   6.247  0.1652  0.5514 -0.4960
  581MOL0     C80065   1.695   6.014   6.291  0.3595 -0.1562 -0.0604
  581MOL0     C80066   1.593   6.110   6.331  0.3145 -0.8229  0.4675
  581MOL0     C80067   1.478   6.056   6.392 -0.5538 -0.5492  0.0539
  581MOL0     C80068   1.375   6.167   6.434 -0.6454  0.2315  0.2590
  581MOL0     C80069   1.472   5.922   6.431  0.2985  0.4111 -0.0204
  581MOL0     C80070   1.343   5.869   6.490  0.5511 -0.9719  0.9042
  581MOL0     O80071   1.278   5.947   6.586 -0.1126 -0.1671  0.5236
  581MOL0     C80072   1.143   5.924   6.608  0.3085 -0.0493  0.0342
  581MOL0     C80073   1.090   5.892   6.735 -0.2746  0.1527 -0.0802
  581MOL0     C80074   0.959   5.861   6.763 -0.6360 -0.4857 -0.5644
  581MOL0     C80075   0.872   5.863   6.653 -0.5061  0.4454 -0.7166
  581MOL0     O80076   0.736   5.830   6.675 -0.0388  0.6210  0.2729
  581MOL0     C80077   0.643   5.888   6.578  1.1233 -0.9968  0.0859
  581MOL0     C80078   0.506   5.867   6.641  0.8408  0.4040  0.2027
  581MOL0     C80079   0.403   5.935   6.558  0.3586  0.0442  0.8618
  581MOL0     C80080   0.351   5.840   6.450 -0.1442 -0.0673  0.6103
  581MOL0     C80081   0.229   5.904   6.384 -0.2431  0.5906  0.3459
  581MOL0     C80082   0.107   5.902   6.471  0.1598 -0.0284 -0.5600
  581MOL0     C80083  -0.015   5.958   6.405 -0.4375 -0.6319 -0.1317
  581MOL0     C80084   0.004   6.109   6.371  0.6189  1.1247  0.1766
  581MOL0    Cl80085   0.048   6.203   6.504  0.0005 -0.1393 -0.1070
  581MOL0     C80086   0.919   5.902   6.523  0.6499  0.0539 -0.0425
  581MOL0     C80087   1.051   5.927   6.504  0.3357  0.1614  0.4925
  581MOL0     O80088   1.307   5.764   6.451 -0.0915  1.2182 -0.6728
  581MOL0     C80089   1.572   5.831   6.390  0.4450 -0.4226 -0.1027
  581MOL0     C80090   1.681   5.876   6.320  0.7964  0.6080  0.1370
  581MOL0     N80091   2.182   5.717   5.812  0.8279 -0.0178 -0.8227
  581MOL0     N80092   2.243   5.751   5.699 -0.4098  0.7840 -0.4338
  581MOL0     C80093   1.650   6.572   5.687  0.1595 -0.7593  0.9934
  581MOL0     C80094   1.526   6.610   5.652  0.5823  0.0518  0.1275
  581MOL0     C80095   1.103   6.749   5.603 -0.4028 -1.4766  0.2032
  581MOL0     C80096   1.029   6.733   5.485 -0.1402  0.5124  0.7272
  581MOL0     C80097   0.899   6.777   5.472 -0.6539  0.2344  0.0244
  581MOL0     C80098   0.843   6.846   5.574 -0.8093 -0.0895  0.2716
  581MOL0     O80099   0.714   6.889   5.557 -0.5502 -0.4439 -0.6360
  581MOL0     C80100   0.704   7.009   5.473  0.4656 -0.0982 -0.2572
  581MOL0     C80101   0.668   7.126   5.562 -0.6189  0.3870 -0.3718
  581MOL0     C80102   0.530   7.109   5.632 -0.6064 -0.0907  0.5727
  581MOL0     C80103   0.508   7.234   5.722  0.2863  0.9274 -0.0251
  581MOL0     C80104   0.372   7.255   5.766 -0.3196 -0.4222 -0.1311
  581MOL0     C80105   0.256   7.262   5.805 -0.1514  0.5070 -0.8427
  581MOL0     C80106   0.907   6.857   5.702  0.4043  0.2376  0.2964
  581MOL0     C80107   1.040   6.807   5.717  0.3035 -0.3738 -0.4812
  581MOL0     C80108   1.101   6.815   5.854  0.7801  0.1450  0.3709
  581MOL0     H80109   1.468   6.876   5.842 -6.0119 -4.2917  0.1037
  581MOL0     H80110   1.707   6.840   5.895  1.4902  2.3485 -2.7318
  581MOL0     H80111   1.893   6.620   5.606 -0.2856  2.6809  1.1561
  581MOL0     H80112   1.907   6.471   5.714  1.5651 -0.6193 -2.8503
  581MOL0     H80113   2.104   6.702   5.680  0.8723  1.0143  2.6717
  581MOL0     H80114   2.116   6.582   5.811 -2.8136  1.0057  1.6662
  581MOL0     H80115   2.102   6.494   5.520  1.0025 -0.4431 -1.6647
  581MOL0     H80116   2.250   6.554   5.582  0.8471 -3.0850  0.5046
  581MOL0     H80117   2.255   6.392   5.773  1.9858 -0.8359 -0.8799
  581MOL0     H80118   2.096   6.334   5.706 -0.2040  1.9321 -0.9850
  581MOL0     H80119   2.340   6.307   5.527 -1.5628  0.4866 -3.4216
  581MOL0     H80120   2.180   6.227   5.514  0.2646  0.3626 -0.4608
  581MOL0     H80121   2.391   6.201   5.728 -0.0802  1.2989 -0.2306
  581MOL0     H80122   2.222   6.127   5.746 -1.0994  0.4223 -2.0918
  581MOL0     H80123   2.355   6.065   5.498 -1.0847 -1.4749 -0.4705
  581MOL0     H80124   2.233   5.988   5.567 -2.1251  2.9054  1.6990
  581MOL0     H80125   2.455   5.859   5.573  2.2166  1.1965  1.1705
  581MOL0     H80126   2.514   5.959   5.703 -0.2229  2.3518 -0.3411
  581MOL0     H80127   2.344   5.961   5.930 -0.4748 -1.6082  1.6156
  581MOL0     H80128   2.255   5.746   6.108  0.2040  2.3123  1.1100
  581MOL0     H80129   2.094   5.705   6.051 -0.3772  0.0754  2.9339
  581MOL0     H80130   2.191   5.927   6.207 -0.1965 -0.2037 -0.0541
  581MOL0     H80131   2.152   6.006   6.069  6.0208 -1.0135  1.5444
  581MOL0     H80132   1.917   5.926   6.073 -2.4039  0.3862  1.3474
  581MOL0     H80133   1.949   5.797   6.195  1.0034 -0.6951 -2.3857
  581MOL0     H80134   1.928   5.955   6.364  1.5666  1.4348  0.1321
  581MOL0     H80135   2.017   6.075   6.267  0.7405  0.3310 -0.1451
  581MOL0     H80136   1.604   6.218   6.328  1.8252 -0.8208  2.9803
  581MOL0     H80137   1.267   6.157   6.418 -0.5816 -2.7850  1.0521
  581MOL0     H80138   1.403   6.262   6.388 -0.3190 -0.3049 -0.6661
  581MOL0     H80139   1.388   6.178   6.542 -2.5286  1.9700  0.3634
  581MOL0     H80140   1.158   5.898   6.819  1.9072 -0.9165 -1.6720
  581MOL0     H80141   0.930   5.840   6.865  1.3281  0.9399  0.3536
  581MOL0     H80142   0.665   5.995   6.587 -1.3402 -0.5178  1.3496
  581MOL0     H80143   0.634   5.850   6.476 -2.6976 -1.7156  0.5331
  581MOL0     H80144   0.475   5.763   6.655  1.3162  0.2256 -0.0443
  581MOL0     H80145   0.499   5.913   6.740 -2.0225 -1.2439  0.8611
  581MOL0     H80146   0.439   6.025   6.508 -2.3949  1.7758  1.7544
  581MOL0     H80147   0.321   5.958   6.627  0.9469  1.7799  1.0471
  581MOL0     H80148   0.312   5.746   6.491  2.3671 -0.5554  2.0288
  581MOL0     H80149   0.423   5.827   6.369 -0.3850  5.0261 -0.7074
  581MOL0     H80150   0.252   6.008   6.356 -2.7143  0.5913 -2.1897
  581MOL0     H80151   0.213   5.847   6.292 -2.2207  2.3979 -0.5202
  581MOL0     H80152   0.126   5.963   6.560 -0.8909 -0.6620  0.1101
  581MOL0     H80153   0.091   5.799   6.504  3.8516 -0.2640  0.9569
  581MOL0     H80154  -0.105   5.957   6.467 -2.1206  3.2837 -2.1339
  581MOL0     H80155  -0.037   5.896   6.318  1.6927 -0.0859 -1.1366
  581MOL0     H80156  -0.093   6.158   6.357  1.5125  3.6654  2.1569
  581MOL0     H80157   0.067   6.124   6.283  0.7996  0.9402  0.2745
  581MOL0     H80158   0.849   5.894   6.440 -0.4633 -1.0556  0.9583
  581MOL0     H80159   1.076   5.955   6.402 -2.7606 -5.0883 -2.1110
  581MOL0     H80160   1.573   5.726   6.417 -2.5296 -0.5226 -0.0826
  581MOL0     H80161   1.754   5.801   6.291  2.6166  3.3898 -3.2541
  581MOL0     H80162   1.688   6.481   5.640 -5.5597 -4.4659  2.5010
  581MOL0     H80163   1.470   6.552   5.579  1.5742  1.9365 -2.2358
  581MOL0     H80164   1.070   6.687   5.396  0.9370 -0.4258  1.6706
  581MOL0     H80165   0.846   6.769   5.377 -2.7306  4.2936  0.6312
  581MOL0     H80166   0.795   7.025   5.414  1.6738 -3.8560  0.3113
  581MOL0     H80167   0.630   6.988   5.395  2.0563  0.0696 -1.8817
  581MOL0     H80168   0.673   7.216   5.500 -1.2737 -0.2485 -1.3712
  581MOL0     H80169   0.746   7.132   5.639 -1.8732  1.5407  0.8733
  581MOL0     H80170   0.460   7.118   5.548  2.1004 -2.1084 -2.1259
  581MOL0     H80171   0.531   7.015   5.687  3.5672  0.4966  1.8823
  581MOL0     H80172   0.536   7.323   5.664 -0.9539  2.2207  1.2669
  581MOL0     H80173   0.577   7.232   5.806 -0.2332  2.0127  0.4497
  581MOL0     H80174   0.152   7.259   5.832 -0.2285  1.9416 -0.9129
  581MOL0     H80175   0.844   6.901   5.779  2.2532  0.8695  1.5213
  581MOL0     H80176   1.184   6.886   5.852 -0.7311  1.9797 -1.0089
  581MOL0     H80177   1.024   6.847   5.925  0.6960  0.5292  0.1096
  581MOL0     H80178   1.149   6.722   5.885  0.0216  0.0092  1.2057
  582MOL0     O80179   4.988   6.561  11.022  0.0848  0.3178 -0.2254
  582MOL0     C80180   4.991   6.548  11.149  0.4610  0.2051 -0.6036
  582MOL0     O80181   4.949   6.446  11.230 -0.2931  0.3826 -0.0045
  582MOL0     C80182   4.890   6.339  11.156  0.0907 -0.6406  0.3040
  582MOL0     C80183   4.944   6.210  11.148  0.2618 -0.4148 -0.6381
  582MOL0     C80184   4.869   6.108  11.094 -0.2193 -0.2476  0.5069
  582MOL0     C80185   4.751   6.131  11.026  0.8677  0.1298 -0.5009
  582MOL0     O80186   4.676   6.034  10.967 -0.0264 -0.1271 -0.6755
  582MOL0     C80187   4.749   5.914  10.922 -0.5397 -0.1155 -0.9587
  582MOL0     C80188   4.641   5.813  10.878  0.4534 -0.6481 -0.3990
  582MOL0     C80189   4.570   5.853  10.746 -0.3124 -0.3196 -0.7404
  582MOL0     C80190   4.469   5.739  10.721  0.2551  0.1646 -0.2532
  582MOL0     C80191   4.390   5.758  10.588  0.4852 -0.0229 -1.0111
  582MOL0     C80192   4.263   5.660  10.583  0.1662  0.2965 -0.2452
  582MOL0     C80193   4.179   5.687  10.446  0.0393 -0.9319  0.1673
  582MOL0     C80194   4.075   5.581  10.417 -0.3188 -0.0488  0.3182
  582MOL0     N80195   3.980   5.569  10.521  0.4391 -0.4056 -0.1103
  582MOL0     C80196   3.876   5.660  10.528  1.1320 -0.7631  0.1167
  582MOL0     C80197   3.807   5.609  10.639  0.4154 -0.2993  0.6529
  582MOL0     C80198   3.681   5.693  10.681 -0.1367  0.5690 -0.8842
  582MOL0     C80199   3.561   5.638  10.611  0.6141  0.1256  0.4345
  582MOL0     C80200   3.428   5.653  10.676 -0.0487 -0.2182  0.5567
  582MOL0     C80201   3.318   5.631  10.567 -0.1235  0.5481  0.1947
  582MOL0     O80202   3.322   5.488  10.527  0.6722  0.3318  0.9374
  582MOL0     C80203   3.226   5.446  10.444  0.0673 -0.4196 -0.7697
  582MOL0     C80204   3.202   5.303  10.467  0.6178  0.4862  0.5006
  582MOL0     C80205   3.094   5.237  10.405 -0.0920  0.7058  0.5812
  582MOL0     C80206   3.081   5.090  10.429  0.2704  0.3897  0.1088
  582MOL0     C80207   3.008   5.312  10.315  0.3876  0.4770 -0.4984
  582MOL0     C80208   2.883   5.247  10.238  0.0230 -0.5511 -1.2073
  582MOL0     O80209   2.886   5.121  10.196 -0.0761  1.0526  0.3339
  582MOL0     C80210   2.783   5.067  10.119 -0.6378  0.0886 -0.9927
  582MOL0     C80211   2.734   4.939  10.153  0.0105 -0.5008  0.0265
  582MOL0     C80212   2.641   4.875  10.064  0.6515 -0.3968 -0.0263
  582MOL0     C80213   2.589   4.943   9.951 -0.7270 -0.5242 -0.1713
  582MOL0     O80214   2.505   4.892   9.855  0.6775 -0.6849  0.1889
  582MOL0     C80215   2.404   4.806   9.899  0.5441 -0.5304 -0.4594
  582MOL0     C80216   2.316   4.774   9.773 -0.0435 -0.0894  1.4054
  582MOL0     C80217   2.233   4.902   9.741 -0.6134 -0.4409 -0.0458
  582MOL0     C80218   2.105   4.869   9.677  0.8190  0.0965  0.7374
  582MOL0     C80219   2.001   4.987   9.689 -0.2071 -0.5252  0.6471
  582MOL0     C80220   1.913   4.987   9.559  0.0764 -0.4850 -0.9609
  582MOL0     C80221   1.849   5.128   9.549  0.0697  0.0385 -0.0550
  582MOL0     C80222   1.755   5.165   9.430 -0.1750 -0.5569  0.9124
  582MOL0    Cl80223   1.839   5.188   9.275 -0.7654  0.0836 -0.2816
  582MOL0     C80224   2.646   5.075   9.923  0.4946  0.1916  0.7630
  582MOL0     C80225   2.746   5.127  10.006 -0.4834 -0.4326  0.6005
  582MOL0     O80226   2.792   5.327  10.226 -0.1326  0.4725 -0.0703
  582MOL0     C80227   3.041   5.448  10.292 -0.1303 -0.1592 -0.9580
  582MOL0     C80228   3.145   5.517  10.348 -0.7413  0.4101 -0.1881
  582MOL0     N80229   3.862   5.503  10.694  0.1872  0.0691  1.0740
  582MOL0     N80230   3.971   5.480  10.625 -0.2187  0.3039 -0.7465
  582MOL0     C80231   4.706   6.266  11.020 -0.6028 -0.1244  0.2791
  582MOL0     C80232   4.772   6.370  11.088  1.0117  0.1715 -0.5222
  582MOL0     C80233   5.039   6.675  11.220 -0.1749  0.0726 -0.3097
  582MOL0     C80234   4.994   6.683  11.353  0.8095 -0.3875  0.0318
  582MOL0     C80235   5.032   6.794  11.439 -0.0558 -0.3406 -0.3911
  582MOL0     C80236   5.101   6.902  11.383  0.0413 -0.3786 -0.7346
  582MOL0     O80237   5.137   7.019  11.451 -0.0260  0.2279 -0.3096
  582MOL0     C80238   5.170   7.014  11.600 -0.0764 -0.5007  0.3745
  582MOL0     C80239   5.262   7.124  11.637  0.7011  0.8863  0.0285
  582MOL0     C80240   5.179   7.251  11.644 -0.2326  0.3311 -0.3593
  582MOL0     C80241   5.283   7.367  11.640  0.4607 -0.0538 -0.0752
  582MOL0     C80242   5.227   7.504  11.635 -0.0654  0.3879  0.3310
  582MOL0     C80243   5.172   7.613  11.620 -0.8748  0.0712 -0.0937
  582MOL0     C80244   5.150   6.889  11.262  0.4565 -0.0182  0.1306
  582MOL0     C80245   5.124   6.775  11.181  0.1391  0.5600 -0.6093
  582MOL0     C80246   5.180   6.781  11.043 -0.3695 -1.0246 -0.1578
  582MOL0     H80247   5.038   6.189  11.197  0.8192  3.3792  0.2144
  582MOL0     H80248   4.904   6.005  11.096 -0.5887 -0.4244 -0.7350
  582MOL0     H80249   4.793   5.851  11.000 -0.2693 -0.6422 -1.5260
  582MOL0     H80250   4.823   5.919  10.842 -0.5187 -1.2335 -1.0293
  582MOL0     H80251   4.680   5.711  10.873 -4.4991 -2.7621 -1.4080
  582MOL0     H80252   4.563   5.811  10.955  0.8692 -1.6429  0.0186
  582MOL0     H80253   4.519   5.947  10.769 -0.0179 -0.8012  2.2618
  582MOL0     H80254   4.648   5.864  10.669 -1.9503  1.5913 -2.2449
  582MOL0     H80255   4.512   5.638  10.717 -1.0704 -0.5952  2.5124
  582MOL0     H80256   4.400   5.736  10.806  1.2736 -1.3127  0.5609
  582MOL0     H80257   4.449   5.752  10.496  0.7272 -0.2887 -0.8421
  582MOL0     H80258   4.355   5.862  10.586 -2.4948 -0.9157 -0.8383
  582MOL0     H80259   4.311   5.562  10.582 -0.2552  0.0833  0.2860
  582MOL0     H80260   4.194   5.672  10.666 -1.8405 -2.3163 -1.3939
  582MOL0     H80261   4.244   5.698  10.359 -2.3040  0.5094 -1.5397
  582MOL0     H80262   4.133   5.786  10.449  3.0598  0.6345 -0.7843
  582MOL0     H80263   4.029   5.590  10.318 -0.6285 -1.2715  0.3360
  582MOL0     H80264   4.120   5.481  10.427 -0.2919  0.0805  1.6500
  582MOL0     H80265   3.857   5.744  10.463  0.3349  1.0456  2.5517
  582MOL0     H80266   3.694   5.800  10.664 -1.6615  0.6512 -1.7070
  582MOL0     H80267   3.665   5.682  10.789 -0.0745 -1.7757 -1.0699
  582MOL0     H80268   3.561   5.694  10.517 -0.8181  0.7970  0.8107
  582MOL0     H80269   3.565   5.531  10.591 -2.4815 -0.4357  2.2746
  582MOL0     H80270   3.415   5.595  10.768 -0.7538  3.1793  2.7959
  582MOL0     H80271   3.425   5.757  10.709  3.5832  0.6693 -1.4456
  582MOL0     H80272   3.217   5.653  10.604  0.4412  0.9348  1.5548
  582MOL0     H80273   3.328   5.699  10.482 -0.1808 -1.3640 -1.4184
  582MOL0     H80274   3.266   5.248  10.536 -0.3684  0.7503  1.6575
  582MOL0     H80275   3.119   5.036  10.342  1.1823 -1.1757  1.4051
  582MOL0     H80276   2.973   5.076  10.444 -0.3180  2.0527 -2.1144
  582MOL0     H80277   3.129   5.051  10.520 -1.9471  1.2709  1.7492
  582MOL0     H80278   2.768   4.892  10.245  0.2910  0.3856  0.3834
  582MOL0     H80279   2.608   4.779  10.102  3.9698 -2.1222 -1.1622
  582MOL0     H80280   2.440   4.710   9.935 -0.7899 -0.4653  1.1980
  582MOL0     H80281   2.338   4.845   9.977  0.8346 -3.3399  1.2971
  582MOL0     H80282   2.376   4.748   9.685 -2.1800 -0.9428  0.1065
  582MOL0     H80283   2.253   4.687   9.794 -0.1709 -0.3160  0.1888
  582MOL0     H80284   2.295   4.961   9.674 -0.9702 -0.3964 -0.3378
  582MOL0     H80285   2.205   4.942   9.839 -2.2734 -2.1882  0.2697
  582MOL0     H80286   2.059   4.780   9.721  1.2328 -2.3726 -3.3513
  582MOL0     H80287   2.115   4.845   9.571  0.3034 -2.0699  1.1462
  582MOL0     H80288   1.955   4.974   9.787 -1.6004  0.6664  0.1913
  582MOL0     H80289   2.053   5.083   9.697  0.1613 -0.6110 -0.5167
  582MOL0     H80290   1.841   4.905   9.552  3.1784 -3.3702 -1.3054
  582MOL0     H80291   1.975   4.976   9.469  1.5601  0.7934 -0.1349
  582MOL0     H80292   1.928   5.203   9.542  0.2297 -0.2113 -1.0098
  582MOL0     H80293   1.797   5.147   9.643 -2.5427 -2.0506 -0.9571
  582MOL0     H80294   1.712   5.260   9.464 -0.6890 -1.1957  2.0723
  582MOL0     H80295   1.685   5.084   9.407  0.1587 -0.9594  1.3187
  582MOL0     H80296   2.618   5.133   9.837 -0.1372 -0.7164  0.3396
  582MOL0     H80297   2.791   5.220   9.976 -1.1191  1.0945  3.9226
  582MOL0     H80298   2.966   5.503  10.236 -0.8117 -0.7400 -0.6292
  582MOL0     H80299   3.161   5.619  10.313 -0.4650  0.0211 -1.2207
  582MOL0     H80300   4.608   6.281  10.975 -0.1622  0.5115 -0.4917
  582MOL0     H80301   4.732   6.471  11.096  1.8951  0.3953  1.5483
  582MOL0     H80302   4.944   6.602  11.404  0.5996  1.2983  2.6729
  582MOL0     H80303   5.002   6.804  11.542  0.4954  1.3328 -0.3547
  582MOL0     H80304   5.076   7.036  11.651 -0.8209  4.3915 -2.4944
  582MOL0     H80305   5.219   6.919  11.626  1.4747  0.6359  1.8238
  582MOL0     H80306   5.336   7.130  11.556  0.0812  2.0594 -0.4707
  582MOL0     H80307   5.319   7.105  11.728  0.5069  1.5473  0.2966
  582MOL0     H80308   5.124   7.263  11.550 -0.6857  3.7281  0.1921
  582MOL0     H80309   5.114   7.255  11.733  1.0730 -1.8613  0.7671
  582MOL0     H80310   5.345   7.365  11.550 -1.7662  2.0916 -1.7875
  582MOL0     H80311   5.345   7.365  11.730 -0.5400  0.2570  0.6305
  582MOL0     H80312   5.125   7.708  11.601  0.5301  0.1629 -4.0291
  582MOL0     H80313   5.202   6.966  11.206 -2.3115 -1.8494 -5.8150
  582MOL0     H80314   5.253   6.862  11.033  1.6007 -2.7500 -0.4627
  582MOL0     H80315   5.227   6.685  11.022 -1.6754 -1.8486  0.5290
  582MOL0     H80316   5.094   6.802  10.978  0.4599  1.2384 -0.5950
  583MOL0     O80317  10.837   6.686   1.683  0.2119 -0.2946  0.6773
  583MOL0     C80318  10.880   6.796   1.725  0.5961  0.7536  0.6873
  583MOL0     O80319  10.819   6.918   1.712 -0.2228 -0.4138  0.1309
  583MOL0     C80320  10.684   6.910   1.711  0.6805 -0.4933 -0.5676
  583MOL0     C80321  10.605   6.924   1.593  0.1883  0.3647 -0.0850
  583MOL0     C80322  10.465   6.930   1.610 -0.2628 -0.4810  1.1843
  583MOL0     C80323  10.402   6.939   1.740  0.6267  0.4303  0.3452
  583MOL0     O80324  10.269   6.946   1.762 -0.0819  0.2174  0.3191
  583MOL0     C80325  10.187   6.851   1.685 -0.6343 -0.3829 -0.7343
  583MOL0     C80326  10.039   6.879   1.718  0.2386  0.8720 -0.1185
  583MOL0     C80327  10.008   6.891   1.871  0.2751 -0.4124  0.9965
  583MOL0     C80328   9.861   6.850   1.892 -0.2660  0.0504 -0.2631
  583MOL0     C80329   9.764   6.939   1.819  0.4784 -1.0755 -0.2634
  583MOL0     C80330   9.618   6.887   1.843 -0.2632  0.8174  0.7839
  583MOL0     C80331   9.511   6.995   1.876  0.3757  1.6143 -0.2909
  583MOL0     C80332   9.371   6.940   1.908  0.1270 -0.2998  0.3031
  583MOL0     N80333   9.357   6.909   2.046 -0.4948  0.4478  0.3984
  583MOL0     C80334   9.297   6.987   2.140 -0.8126 -1.1275 -0.8575
  583MOL0     C80335   9.326   6.924   2.258 -0.1703 -0.6699 -0.3543
  583MOL0     C80336   9.303   6.986   2.388  0.7028  0.0657 -0.5651
  583MOL0     C80337   9.430   7.009   2.475  0.1914  0.3978 -0.1774
  583MOL0     C80338   9.387   7.060   2.603  0.5511 -0.3324  0.0149
  583MOL0     C80339   9.497   7.068   2.699  0.1388 -0.9875  0.6271
  583MOL0     O80340   9.619   7.122   2.651  0.6936 -0.0366  0.5035
  583MOL0     C80341   9.733   7.138   2.716  0.3442  0.7749  0.2171
  583MOL0     C80342   9.737   7.104   2.848 -0.1800  0.3109 -0.0987
  583MOL0     C80343   9.857   7.117   2.917  0.2996  0.0178  0.4970
  583MOL0     C80344   9.853   7.109   3.068 -1.1276  0.1263  0.8364
  583MOL0     C80345   9.981   7.132   2.847  0.3637 -0.0110  0.0869
  583MOL0     C80346  10.121   7.118   2.904 -0.4332 -0.6057 -0.1505
  583MOL0     O80347  10.140   7.047   3.030  1.1873 -0.3329  0.5352
  583MOL0     C80348  10.264   7.038   3.076 -0.9524 -0.3671 -0.5983
  583MOL0     C80349  10.282   7.051   3.214  0.7656  0.7339  0.1401
  583MOL0     C80350  10.407   7.043   3.273 -0.2955  0.1896 -0.2383
  583MOL0     C80351  10.515   7.029   3.195 -0.1167  0.1911  0.9517
  583MOL0     O80352  10.644   7.005   3.239 -0.2406  0.9131  2.0556
  583MOL0     C80353  10.681   7.049   3.361 -0.5521 -0.0339 -0.2171
  583MOL0     C80354  10.826   7.095   3.358  1.4187  0.3922 -0.4207
  583MOL0     C80355  10.870   7.184   3.239 -0.7657 -0.5326 -0.2193
  583MOL0     C80356  10.819   7.327   3.271  0.3273  0.4319  1.0542
  583MOL0     C80357  10.845   7.416   3.138 -0.4613  0.0701  0.3997
  583MOL0     C80358  10.805   7.564   3.156 -0.2783 -0.3551  0.1089
  583MOL0     C80359  10.791   7.628   3.017  0.5337  1.0258 -0.5404
  583MOL0     C80360  10.731   7.765   3.030  0.5323  0.9281  0.6863
  583MOL0    Cl80361  10.695   7.819   2.866  0.4537 -0.6230 -0.0415
  583MOL0     C80362  10.513   7.023   3.057  0.5390 -0.1933 -0.0816
  583MOL0     C80363  10.388   7.021   2.999  0.3070  0.0645  0.2755
  583MOL0     O80364  10.209   7.184   2.842 -1.6507 -0.1313 -0.6018
  583MOL0     C80365   9.974   7.170   2.708 -0.1521 -0.3300 -0.5356
  583MOL0     C80366   9.848   7.177   2.646  0.6268 -0.7259 -0.4271
  583MOL0     N80367   9.390   6.804   2.241 -0.3899 -0.3552  0.8104
  583MOL0     N80368   9.403   6.792   2.107  0.8963  0.4651 -0.5911
  583MOL0     C80369  10.482   6.937   1.848 -0.7122 -0.4538 -0.3909
  583MOL0     C80370  10.625   6.910   1.837  0.5873 -0.3903  0.2166
  583MOL0     C80371  11.018   6.803   1.771  0.4446 -0.6447 -0.1865
  583MOL0     C80372  11.102   6.915   1.746  1.1946  0.5611  0.2718
  583MOL0     C80373  11.225   6.933   1.804 -0.0529 -0.4287 -0.1551
  583MOL0     C80374  11.275   6.839   1.888 -0.3203  0.2544 -0.8138
  583MOL0     O80375  11.400   6.846   1.936  0.7903  0.0555 -0.0057
  583MOL0     C80376  11.410   6.893   2.069  0.0095  1.0924  1.2494
  583MOL0     C80377  11.337   6.809   2.174 -0.7240  0.2860 -0.8393
  583MOL0     C80378  11.347   6.887   2.311  0.1086  0.0983  0.0353
  583MOL0     C80379  11.479   6.933   2.347  0.3132 -0.8480 -0.2626
  583MOL0     C80380  11.494   6.951   2.493  1.2746 -0.3801 -0.2353
  583MOL0     C80381  11.509   6.968   2.613 -0.5542 -0.3372 -0.7690
  583MOL0     C80382  11.192   6.727   1.916  0.7708  0.1372  0.1739
  583MOL0     C80383  11.077   6.706   1.848  1.0770  0.6684  0.8227
  583MOL0     C80384  11.015   6.573   1.875  0.3393 -0.3836 -0.5280
  583MOL0     H80385  10.645   6.934   1.493 -1.9922  2.0092 -0.8681
  583MOL0     H80386  10.414   6.920   1.514  1.4611 -0.6782  0.2352
  583MOL0     H80387  10.220   6.748   1.704  1.7615  0.4333 -0.0897
  583MOL0     H80388  10.208   6.852   1.577  4.9298 -0.6159  0.0126
  583MOL0     H80389  10.003   6.972   1.674  2.9427  0.9675 -2.4156
  583MOL0     H80390   9.980   6.800   1.670  2.0250  0.2079 -1.3106
  583MOL0     H80391  10.078   6.836   1.935  1.7423  0.6528  0.3679
  583MOL0     H80392  10.014   6.994   1.909 -2.4692 -1.0928  3.7417
  583MOL0     H80393   9.847   6.748   1.856 -1.2996 -1.0435  2.8838
  583MOL0     H80394   9.844   6.838   1.999  1.4308 -3.7327 -0.2665
  583MOL0     H80395   9.779   6.951   1.711  1.3752  0.2691 -0.0206
  583MOL0     H80396   9.770   7.037   1.867 -0.3833 -1.8266  1.4524
  583MOL0     H80397   9.586   6.828   1.757  2.2530 -0.9245  0.9295
  583MOL0     H80398   9.607   6.822   1.930 -0.4794  3.2162  2.6701
  583MOL0     H80399   9.513   7.067   1.794  2.0287  0.1947 -1.5633
  583MOL0     H80400   9.536   7.058   1.962 -1.7080  1.7746  0.2579
  583MOL0     H80401   9.296   7.016   1.885  0.6265 -0.5478 -2.4654
  583MOL0     H80402   9.357   6.853   1.843  0.9774 -1.9119  2.1740
  583MOL0     H80403   9.252   7.085   2.129 -2.2067 -1.6239  0.1246
  583MOL0     H80404   9.229   6.927   2.444 -0.5204 -1.5184 -3.6160
  583MOL0     H80405   9.268   7.089   2.374  1.9924  0.5883 -0.0934
  583MOL0     H80406   9.475   6.910   2.486 -1.1341 -0.5399 -2.5680
  583MOL0     H80407   9.494   7.079   2.420  1.7907  1.0225  2.3077
  583MOL0     H80408   9.333   7.155   2.599  1.1079  0.1268  2.0560
  583MOL0     H80409   9.303   7.000   2.640 -0.5013 -0.4328 -2.3618
  583MOL0     H80410   9.464   7.115   2.792 -1.8384 -0.4603 -0.2826
  583MOL0     H80411   9.524   6.963   2.713  1.5411 -0.9916 -1.5495
  583MOL0     H80412   9.647   7.094   2.907 -0.8607  2.8415 -0.5662
  583MOL0     H80413   9.759   7.139   3.114 -0.5763  2.4738  0.5748
  583MOL0     H80414   9.927   7.179   3.108 -1.7709 -0.4569  3.2103
  583MOL0     H80415   9.885   7.010   3.101 -0.2881  0.2381  0.3915
  583MOL0     H80416  10.192   7.051   3.275  0.2392 -2.7412 -0.4072
  583MOL0     H80417  10.414   7.050   3.381  2.2659 -1.8083 -0.1767
  583MOL0     H80418  10.619   7.135   3.387 -2.7101 -1.6448  0.2893
  583MOL0     H80419  10.685   6.972   3.439  1.4103  1.1970  0.9645
  583MOL0     H80420  10.837   7.146   3.455 -0.7503 -0.5351  0.3585
  583MOL0     H80421  10.892   7.008   3.362 -1.4723 -1.9515 -0.3891
  583MOL0     H80422  10.827   7.149   3.145 -3.1020 -0.0520  0.5945
  583MOL0     H80423  10.978   7.201   3.236 -1.1313  1.8959 -1.0269
  583MOL0     H80424  10.862   7.379   3.357  1.4111  0.7333  0.3444
  583MOL0     H80425  10.710   7.319   3.278  0.2907  1.7279  2.3680
  583MOL0     H80426  10.951   7.425   3.114 -0.2467 -0.6941  1.0272
  583MOL0     H80427  10.799   7.372   3.049  1.0784 -0.2056 -0.2964
  583MOL0     H80428  10.867   7.626   3.223  0.4064 -0.0640 -0.7660
  583MOL0     H80429  10.705   7.564   3.200  0.2246 -0.3818  1.3139
  583MOL0     H80430  10.726   7.562   2.957 -0.3443 -0.5749  2.0192
  583MOL0     H80431  10.889   7.643   2.971 -0.0058 -0.5206 -2.3217
  583MOL0     H80432  10.802   7.825   3.087  1.4210 -1.2445  1.9660
  583MOL0     H80433  10.639   7.758   3.090 -0.1721  0.0742 -0.4488
  583MOL0     H80434  10.604   7.014   2.998  2.3497  0.9849  2.2995
  583MOL0     H80435  10.379   7.002   2.893  2.1431 -2.6102  0.5184
  583MOL0     H80436  10.068   7.181   2.654 -0.7171 -5.0890 -3.0568
  583MOL0     H80437   9.856   7.209   2.543 -0.9619 -0.0014 -0.3528
  583MOL0     H80438  10.445   6.954   1.948  0.0436  2.2850 -0.4957
  583MOL0     H80439  10.693   6.894   1.921 -1.2710 -3.0053  1.3766
  583MOL0     H80440  11.074   6.994   1.677  0.3211 -2.1923 -2.8020
  583MOL0     H80441  11.290   7.016   1.776  0.7011 -1.3545 -1.2607
  583MOL0     H80442  11.518   6.900   2.086  0.3485 -1.4838  0.4890
  583MOL0     H80443  11.377   6.998   2.072  0.2783  1.2688 -0.6694
  583MOL0     H80444  11.387   6.713   2.185  0.3186  1.1406  3.9365
  583MOL0     H80445  11.231   6.787   2.157 -0.5736  0.5531 -2.3022
  583MOL0     H80446  11.293   6.978   2.281  1.2847  0.2192 -1.9309
  583MOL0     H80447  11.298   6.829   2.389  0.2226 -0.6668 -0.4476
  583MOL0     H80448  11.498   7.022   2.287 -1.9933 -0.5059 -0.5739
  583MOL0     H80449  11.552   6.855   2.324 -1.5147 -2.2097 -1.7772
  583MOL0     H80450  11.514   6.978   2.719  1.8731 -0.1390 -0.8477
  583MOL0     H80451  11.230   6.640   1.968  1.6846  0.2993 -0.2137
  583MOL0     H80452  11.041   6.510   1.790  0.6335  1.6468 -2.0359
  583MOL0     H80453  11.059   6.538   1.969  1.2880  1.3881 -0.2568
  583MOL0     H80454  10.907   6.583   1.891  0.6779 -1.4675  3.5419
  584MOL0     O80455   1.183   6.279  10.273  0.0712 -0.6066  0.2337
  584MOL0     C80456   1.299   6.321  10.255 -0.2900 -0.1445 -0.7030
  584MOL0     O80457   1.415   6.248  10.260  0.1625  0.0135  0.2041
  584MOL0     C80458   1.407   6.115  10.258  0.7499  0.3688  0.1559
  584MOL0     C80459   1.395   6.040  10.143 -0.2560 -0.2818  0.1813
  584MOL0     C80460   1.385   5.901  10.135  0.5198 -0.5838 -0.6750
  584MOL0     C80461   1.396   5.830  10.254  0.7802 -1.3077 -0.4310
  584MOL0     O80462   1.401   5.694  10.261 -0.4729 -0.0718  0.6377
  584MOL0     C80463   1.305   5.610  10.190  0.1431 -0.7444 -0.0586
  584MOL0     C80464   1.276   5.486  10.275 -1.5846  0.4450  0.3685
  584MOL0     C80465   1.406   5.398  10.299  0.7449 -0.2533 -0.5730
  584MOL0     C80466   1.385   5.297  10.413 -0.2723  0.1200 -0.1839
  584MOL0     C80467   1.524   5.258  10.471  0.1364 -0.0530 -1.3464
  584MOL0     C80468   1.498   5.155  10.573  0.5988  1.2565  0.6773
  584MOL0     C80469   1.618   5.102  10.664  0.1722  0.3122 -1.0666
  584MOL0     C80470   1.749   5.071  10.592 -0.4524  0.0918  0.0994
  584MOL0     N80471   1.868   5.083  10.661 -0.2628  0.2473 -0.2622
  584MOL0     C80472   1.929   5.199  10.706  0.2087  0.3689 -0.5152
  584MOL0     C80473   2.049   5.153  10.763 -0.5671  0.1915  0.5236
  584MOL0     C80474   2.167   5.240  10.797  0.0655 -0.2171  0.9890
  584MOL0     C80475   2.244   5.290  10.677  0.5933 -0.4760  0.1846
  584MOL0     C80476   2.351   5.376  10.727 -0.3173  0.5890 -0.1379
  584MOL0     C80477   2.436   5.434  10.621 -0.5376 -0.5593  0.2758
  584MOL0     O80478   2.568   5.401  10.636  0.3081 -0.2276 -0.8385
  584MOL0     C80479   2.602   5.269  10.648 -0.8836 -0.0363  0.2819
  584MOL0     C80480   2.547   5.169  10.569 -0.4988  0.1725  0.2852
  584MOL0     C80481   2.586   5.036  10.577 -0.6570 -0.3463 -0.2121
  584MOL0     C80482   2.532   4.935  10.480  0.7342  0.1048 -0.2650
  584MOL0     C80483   2.704   5.012  10.651  0.7526  0.0839 -0.0995
  584MOL0     C80484   2.777   4.883  10.650  0.3769  0.0173  0.1187
  584MOL0     O80485   2.859   4.852  10.759 -0.6125  0.1846 -0.5672
  584MOL0     C80486   2.935   4.741  10.750 -0.1995  0.3224  0.3521
  584MOL0     C80487   2.899   4.626  10.828  1.6448  0.3440 -0.2009
  584MOL0     C80488   2.992   4.522  10.850 -0.0082 -0.3976 -1.1228
  584MOL0     C80489   3.122   4.533  10.782 -0.3745 -0.3085 -0.8759
  584MOL0     O80490   3.225   4.445  10.795  0.2142  0.1689 -0.1729
  584MOL0     C80491   3.195   4.321  10.744 -0.1845  0.4676 -0.6159
  584MOL0     C80492   3.184   4.312  10.591  0.3506 -0.1155 -0.1750
  584MOL0     C80493   3.085   4.195  10.552 -1.1051 -0.7056  0.4902
  584MOL0     C80494   3.078   4.185  10.394  0.6628  0.6344 -0.4698
  584MOL0     C80495   2.984   4.072  10.352 -0.5774  0.3477  0.3307
  584MOL0     C80496   3.000   4.070  10.198 -0.0906 -0.3709  0.3563
  584MOL0     C80497   2.904   3.975  10.139 -0.6435 -0.9360 -0.2145
  584MOL0     C80498   2.970   3.881  10.036  0.2337  0.2925  0.2087
  584MOL0    Cl80499   2.833   3.800   9.941  0.0026  0.0679  0.7947
  584MOL0     C80500   3.143   4.645  10.702 -0.0122 -1.1842 -0.0235
  584MOL0     C80501   3.065   4.751  10.691  0.3230 -0.0827  0.4118
  584MOL0     O80502   2.782   4.820  10.538  0.0959 -0.4826 -1.1003
  584MOL0     C80503   2.761   5.115  10.730 -0.7542  0.2487  0.8438
  584MOL0     C80504   2.704   5.242  10.731 -0.1212 -0.2180 -0.1848
  584MOL0     N80505   2.044   5.016  10.765  0.0223  0.9792 -0.1033
  584MOL0     N80506   1.940   4.974  10.698  0.9961  0.3223 -0.7400
  584MOL0     C80507   1.404   5.914  10.369 -1.6646  0.1104 -1.4189
  584MOL0     C80508   1.410   6.049  10.374 -0.0017  0.6182 -1.1199
  584MOL0     C80509   1.317   6.468  10.261  0.2726 -0.3202 -0.9391
  584MOL0     C80510   1.435   6.517  10.315 -0.2764 -0.6057 -0.7443
  584MOL0     C80511   1.459   6.650  10.314  0.3518  0.2654 -0.7390
  584MOL0     C80512   1.356   6.741  10.283 -0.0142  0.2859 -0.2677
  584MOL0     O80513   1.386   6.875  10.313  0.1683  0.2029 -0.2608
  584MOL0     C80514   1.315   6.980  10.253 -0.0179 -1.0259 -0.4279
  584MOL0     C80515   1.184   7.019  10.334 -1.4575 -0.2356 -0.5851
  584MOL0     C80516   1.200   7.039  10.484  0.5412  0.6006  0.5086
  584MOL0     C80517   1.205   6.911  10.556  0.2634 -0.1041 -0.2430
  584MOL0     C80518   1.210   6.933  10.705 -0.1543  0.5297  0.2300
  584MOL0     C80519   1.232   6.945  10.821 -0.2145 -0.4284  0.2444
  584MOL0     C80520   1.234   6.702  10.229  1.1277  0.2065 -0.2590
  584MOL0     C80521   1.220   6.560  10.216  0.5256 -0.2601 -0.0786
  584MOL0     C80522   1.089   6.532  10.149 -0.3068  0.0544 -1.8978
  584MOL0     H80523   1.394   6.092  10.048 -0.2688  1.6853  1.2122
  584MOL0     H80524   1.379   5.850  10.039  1.5807  0.3104 -1.2300
  584MOL0     H80525   1.345   5.583  10.092 -1.2560  0.5542 -1.0391
  584MOL0     H80526   1.212   5.668  10.183 -0.0685 -1.1124 -0.3278
  584MOL0     H80527   1.234   5.516  10.371 -0.7494  0.0287  0.8718
  584MOL0     H80528   1.203   5.426  10.219 -0.8192  0.8123 -1.0780
  584MOL0     H80529   1.430   5.340  10.209  1.4671 -2.9130  1.2289
  584MOL0     H80530   1.483   5.472  10.326  3.4332 -1.2528 -4.4574
  584MOL0     H80531   1.337   5.348  10.498 -4.4377 -2.2798 -0.7963
  584MOL0     H80532   1.327   5.208  10.390 -0.5732 -0.0608  1.1499
  584MOL0     H80533   1.583   5.341  10.513 -0.3205 -0.0714 -0.6511
  584MOL0     H80534   1.578   5.208  10.390  2.5092 -0.9579  0.6455
  584MOL0     H80535   1.419   5.180  10.643  1.4593  0.3574  2.0150
  584MOL0     H80536   1.464   5.067  10.517  1.2894  1.3799  0.0470
  584MOL0     H80537   1.582   5.016  10.720 -0.0370  1.7432  1.0947
  584MOL0     H80538   1.646   5.173  10.743  2.4852 -0.2201 -1.3311
  584MOL0     H80539   1.743   4.964  10.569  0.4850  0.2346 -0.8901
  584MOL0     H80540   1.758   5.114  10.492 -1.2733  2.7455  1.0774
  584MOL0     H80541   1.900   5.303  10.690 -2.6049  0.1977  2.3785
  584MOL0     H80542   2.232   5.183  10.864  0.3342 -0.0751  0.8568
  584MOL0     H80543   2.115   5.325  10.842  1.1628  0.8963  0.2341
  584MOL0     H80544   2.272   5.197  10.626 -5.0370 -3.2065  1.2096
  584MOL0     H80545   2.177   5.341  10.607  4.5775  3.7150 -1.0064
  584MOL0     H80546   2.313   5.466  10.778 -1.2510  1.9269 -3.0074
  584MOL0     H80547   2.417   5.321  10.794 -2.0123 -1.3760  0.0189
  584MOL0     H80548   2.406   5.403  10.520  1.9210  1.6004 -1.2397
  584MOL0     H80549   2.422   5.542  10.618  0.0756 -0.4406  1.3633
  584MOL0     H80550   2.471   5.192  10.495  0.1582 -1.9060 -1.1541
  584MOL0     H80551   2.532   4.834  10.522 -2.0133  0.6368  1.2028
  584MOL0     H80552   2.588   4.932  10.386  0.9752  1.3049 -0.1648
  584MOL0     H80553   2.430   4.964  10.453 -1.1407 -2.5274  3.2220
  584MOL0     H80554   2.806   4.636  10.883  2.4920  0.7147  1.2161
  584MOL0     H80555   2.965   4.431  10.903  1.6166 -1.2359 -1.6635
  584MOL0     H80556   3.272   4.248  10.772  0.5643  1.4095 -0.1406
  584MOL0     H80557   3.111   4.284  10.802  0.4897 -1.9478 -1.0763
  584MOL0     H80558   3.156   4.409  10.549  2.3346  0.7672  0.4092
  584MOL0     H80559   3.278   4.280  10.545 -0.5903  0.0710 -2.3409
  584MOL0     H80560   2.989   4.220  10.598 -1.4124  1.6279 -1.2033
  584MOL0     H80561   3.129   4.103  10.590 -1.1294 -1.1427 -0.5024
  584MOL0     H80562   3.179   4.157  10.365  0.9263 -1.4195  2.0423
  584MOL0     H80563   3.051   4.283  10.353  3.7066  1.9613  0.3883
  584MOL0     H80564   3.014   3.973  10.386 -0.6644  0.0412 -0.4726
  584MOL0     H80565   2.886   4.102  10.391 -0.2238  0.4837  1.1315
  584MOL0     H80566   3.097   4.039  10.158 -1.4002 -1.3150 -2.2830
  584MOL0     H80567   2.991   4.176  10.176 -1.4178 -0.3747  0.7982
  584MOL0     H80568   2.831   4.039  10.088 -0.2070 -0.0872  0.1974
  584MOL0     H80569   2.849   3.925  10.219 -1.8420  0.7498  0.0706
  584MOL0     H80570   3.040   3.806  10.075 -0.1942 -1.9876 -3.0340
  584MOL0     H80571   3.043   3.930   9.970  1.2607 -1.1734  0.2058
  584MOL0     H80572   3.242   4.638  10.657  0.2777 -2.1515  0.7185
  584MOL0     H80573   3.079   4.843  10.634  0.6559 -0.7711 -0.6373
  584MOL0     H80574   2.851   5.096  10.788 -1.2058 -0.5126  1.3179
  584MOL0     H80575   2.758   5.318  10.787 -1.6604  0.2228  0.7677
  584MOL0     H80576   1.400   5.867  10.466 -1.3937  1.5835 -0.6740
  584MOL0     H80577   1.449   6.094  10.465  3.0470 -0.6364 -1.6905
  584MOL0     H80578   1.510   6.448  10.354  0.1738  1.9806  3.5961
  584MOL0     H80579   1.556   6.681  10.349  0.6458  0.5815 -1.7970
  584MOL0     H80580   1.373   7.072  10.239 -0.9073 -0.5163 -0.9209
  584MOL0     H80581   1.284   6.960  10.150 -1.6854  1.4938 -0.5034
  584MOL0     H80582   1.109   6.947  10.298  0.0608 -0.1916 -4.3424
  584MOL0     H80583   1.152   7.113  10.288 -0.1317  0.6128  0.1663
  584MOL0     H80584   1.287   7.101  10.505  0.5616  1.6220 -2.1530
  584MOL0     H80585   1.112   7.089  10.525 -1.7417 -0.2390 -2.9185
  584MOL0     H80586   1.287   6.847  10.521 -0.1935 -0.5119 -0.5756
  584MOL0     H80587   1.110   6.867  10.527  0.5967 -0.9421 -0.0998
  584MOL0     H80588   1.255   6.950  10.926  1.3924 -2.6295  0.0595
  584MOL0     H80589   1.154   6.769  10.201 -0.5933 -0.7567  2.0338
  584MOL0     H80590   1.112   6.454  10.075  2.9282 -1.0254  0.0174
  584MOL0     H80591   1.015   6.497  10.221 -1.8453 -1.4829 -4.0894
  584MOL0     H80592   1.051   6.618  10.094  2.0833  2.0991 -0.5782
  585MOL0     O80593  10.503   9.831   4.394  0.3294 -0.2440 -0.4891
  585MOL0     C80594  10.382   9.837   4.404 -1.2989 -0.7869 -0.0820
  585MOL0     O80595  10.307   9.756   4.481 -0.3365  0.2414 -0.1268
  585MOL0     C80596  10.386   9.673   4.559 -0.3469  0.6173  0.0776
  585MOL0     C80597  10.464   9.737   4.654 -0.8560  1.0529 -0.8771
  585MOL0     C80598  10.549   9.654   4.726 -0.7452 -0.1252 -1.2118
  585MOL0     C80599  10.547   9.516   4.720  0.4145 -0.3129  0.0180
  585MOL0     O80600  10.626   9.436   4.789 -0.1646 -0.2391  0.6902
  585MOL0     C80601  10.705   9.342   4.707 -0.0739 -0.0868 -0.2869
  585MOL0     C80602  10.851   9.356   4.753  0.5732  0.0325 -0.9597
  585MOL0     C80603  10.876   9.306   4.899 -0.2297 -0.1386 -0.2909
  585MOL0     C80604  10.810   9.178   4.932 -0.1721 -0.7490  0.9918
  585MOL0     C80605  10.863   9.115   5.054  0.3767 -0.2700 -0.6760
  585MOL0     C80606  10.817   9.186   5.182 -0.3579  0.4445  0.5052
  585MOL0     C80607  10.862   9.112   5.314  0.5685  0.1957 -0.1624
  585MOL0     C80608  10.842   9.191   5.437  1.0503 -1.0164  0.7306
  585MOL0     N80609  10.937   9.305   5.448  0.1595  0.6986 -0.1293
  585MOL0     C80610  10.899   9.432   5.479  0.5028  0.3828 -0.3058
  585MOL0     C80611  11.014   9.493   5.516  0.4232  0.8778 -1.0070
  585MOL0     C80612  11.031   9.632   5.574  0.4500  0.4629  0.7108
  585MOL0     C80613  10.928   9.658   5.690 -0.0235 -0.3635 -0.5927
  585MOL0     C80614  10.948   9.549   5.798 -0.5496  0.1611 -0.7397
  585MOL0     C80615  11.083   9.556   5.873 -0.5778  0.9055  0.5082
  585MOL0     O80616  11.115   9.678   5.942  0.6650 -0.3568  0.7576
  585MOL0     C80617  11.108   9.690   6.076 -0.5437 -0.5117 -0.0768
  585MOL0     C80618  11.143   9.598   6.166 -0.3851 -0.2079 -0.0425
  585MOL0     C80619  11.147   9.628   6.305  0.0986  0.3648 -0.4423
  585MOL0     C80620  11.231   9.536   6.392 -0.3038  0.5253 -0.1547
  585MOL0     C80621  11.078   9.746   6.347  0.2936 -0.6285  0.7165
  585MOL0     C80622  11.053   9.765   6.489  0.7853 -0.4526 -0.6843
  585MOL0     O80623  11.019   9.663   6.566 -0.0897  0.7128  0.2084
  585MOL0     C80624  11.013   9.682   6.704 -0.7722  0.4160 -0.5390
  585MOL0     C80625  10.894   9.718   6.768  0.3369 -0.0492 -0.2833
  585MOL0     C80626  10.888   9.734   6.908 -0.1489  0.6788  0.6602
  585MOL0     C80627  11.008   9.716   6.980 -1.0638 -0.2244 -0.3995
  585MOL0     O80628  11.007   9.727   7.114  0.1278  0.1667 -0.8736
  585MOL0     C80629  11.072   9.846   7.168 -0.2046  1.0754  0.4391
  585MOL0     C80630  11.005   9.893   7.302  0.4071 -0.4859 -0.3234
  585MOL0     C80631  10.863   9.935   7.274  0.3807 -0.3233 -0.5664
  585MOL0     C80632  10.779   9.971   7.393 -0.5588  0.0841  0.1573
  585MOL0     C80633  10.638   9.984   7.352 -1.0322 -0.1430 -0.4912
  585MOL0     C80634  10.568   9.861   7.285 -0.8468 -0.0028  0.2962
  585MOL0     C80635  10.415   9.894   7.260 -0.6367  0.4141 -0.0381
  585MOL0     C80636  10.386  10.004   7.144 -0.6666 -0.2518  0.2037
  585MOL0    Cl80637  10.224  10.042   7.137  0.1742 -0.2114 -0.0469
  585MOL0     C80638  11.129   9.681   6.921  0.3328  0.8131 -0.0336
  585MOL0     C80639  11.125   9.669   6.779  0.9727 -0.8691 -0.4994
  585MOL0     O80640  11.085   9.877   6.534  0.2284 -0.3274  0.1251
  585MOL0     C80641  11.026   9.834   6.255 -0.0711  0.8463 -0.8082
  585MOL0     C80642  11.047   9.806   6.116 -0.5806 -0.9583  0.5806
  585MOL0     N80643  11.115   9.406   5.502 -0.3239  0.0796  0.4223
  585MOL0     N80644  11.069   9.290   5.472  0.2946  0.0894 -0.0910
  585MOL0     C80645  10.455   9.455   4.639 -0.1034 -0.3022 -0.6195
  585MOL0     C80646  10.366   9.530   4.565  0.5425 -0.6096 -0.4615
  585MOL0     C80647  10.327   9.937   4.315 -0.9528  0.2054  0.3891
  585MOL0     C80648  10.215   9.891   4.239  0.3227  0.0208 -0.4202
  585MOL0     C80649  10.157   9.972   4.148 -0.5520 -0.2257  0.5462
  585MOL0     C80650  10.195  10.106   4.132  0.5964 -0.6919 -0.1582
  585MOL0     O80651  10.159  10.189   4.037 -0.5285  0.0706  0.3649
  585MOL0     C80652  10.023  10.171   4.009  0.9697  1.1973  0.3685
  585MOL0     C80653   9.965  10.309   3.985  0.0257 -0.3146  0.1906
  585MOL0     C80654   9.974  10.370   3.842  0.4513 -1.0616 -0.4025
  585MOL0     C80655  10.110  10.368   3.796 -0.3072 -0.2708  0.9056
  585MOL0     C80656  10.104  10.416   3.656  0.2870 -0.5079  0.0910
  585MOL0     C80657  10.115  10.468   3.549 -1.7294 -0.2650  0.1698
  585MOL0     C80658  10.307  10.154   4.199  0.8183  0.2702  0.0111
  585MOL0     C80659  10.378  10.078   4.296  0.3574  0.4534  0.0174
  585MOL0     C80660  10.484  10.139   4.381 -0.3035  0.5590 -0.1400
  585MOL0     H80661  10.473   9.844   4.662 -0.0123  1.1314 -2.4784
  585MOL0     H80662  10.607   9.709   4.799 -2.5866 -0.6105  0.7387
  585MOL0     H80663  10.697   9.371   4.602 -3.5416 -3.2996 -1.1206
  585MOL0     H80664  10.658   9.244   4.718  0.1791 -0.0874  0.8474
  585MOL0     H80665  10.920   9.315   4.678 -0.9857 -0.8647 -1.9675
  585MOL0     H80666  10.875   9.462   4.766  2.1409 -0.3047 -0.8632
  585MOL0     H80667  10.984   9.290   4.912 -0.0774 -0.0197 -1.3707
  585MOL0     H80668  10.845   9.380   4.974  2.9991 -0.3079  1.3953
  585MOL0     H80669  10.702   9.188   4.923 -0.2323  0.2068  2.4110
  585MOL0     H80670  10.837   9.117   4.845  0.5807 -0.6202  1.1292
  585MOL0     H80671  10.972   9.101   5.056  0.1957 -2.9723  3.5208
  585MOL0     H80672  10.825   9.012   5.060  1.9604 -0.9150 -1.1205
  585MOL0     H80673  10.868   9.282   5.189  1.8111 -0.5540 -0.4933
  585MOL0     H80674  10.708   9.198   5.189 -1.1134 -2.8625 -2.5050
  585MOL0     H80675  10.966   9.085   5.297  1.6987  4.8109 -2.0816
  585MOL0     H80676  10.803   9.020   5.313 -0.5348  0.8653 -1.6775
  585MOL0     H80677  10.738   9.224   5.430  1.6873  1.1282  0.7417
  585MOL0     H80678  10.843   9.121   5.521  0.3929 -1.3432  0.4767
  585MOL0     H80679  10.801   9.480   5.479 -0.0705 -0.7499  0.7766
  585MOL0     H80680  11.005   9.701   5.494 -2.6834 -0.0624  1.1406
  585MOL0     H80681  11.131   9.646   5.616 -0.1255  1.1098  1.9329
  585MOL0     H80682  10.938   9.759   5.731 -1.6580 -0.9756  1.4724
  585MOL0     H80683  10.832   9.637   5.642 -0.2857  1.7971 -1.1274
  585MOL0     H80684  10.882   9.559   5.884  0.7064  0.1627  0.2528
  585MOL0     H80685  10.925   9.453   5.750  0.7268 -0.9067  0.7016
  585MOL0     H80686  11.085   9.473   5.945 -0.9135  0.5852  0.1502
  585MOL0     H80687  11.166   9.548   5.802 -1.2766 -0.5909 -0.1679
  585MOL0     H80688  11.178   9.498   6.144 -1.3353 -1.4722  3.4847
  585MOL0     H80689  11.282   9.584   6.476  0.1546  1.9386 -1.2061
  585MOL0     H80690  11.302   9.470   6.342 -1.6716 -1.2212  0.1070
  585MOL0     H80691  11.166   9.468   6.448  2.2637 -2.1079 -0.1355
  585MOL0     H80692  10.805   9.738   6.710  1.6026  1.4428 -1.8296
  585MOL0     H80693  10.797   9.772   6.951 -1.5087 -1.0235 -0.5285
  585MOL0     H80694  11.178   9.821   7.184 -0.4020 -0.4292 -0.3609
  585MOL0     H80695  11.080   9.924   7.091  0.2459  0.5740 -0.0363
  585MOL0     H80696  11.008   9.813   7.376 -0.1759  1.4092  1.8839
  585MOL0     H80697  11.046   9.974   7.363 -2.6169  0.4954  0.5521
  585MOL0     H80698  10.820   9.853   7.217  3.7763 -1.2608 -2.0204
  585MOL0     H80699  10.861  10.029   7.218  1.6067  0.4042  0.5313
  585MOL0     H80700  10.814  10.056   7.452 -0.9380 -1.4584  2.7912
  585MOL0     H80701  10.781   9.882   7.457 -1.8956  0.8899  1.3853
  585MOL0     H80702  10.578  10.020   7.436 -1.5828  0.6206 -1.1930
  585MOL0     H80703  10.633  10.064   7.277 -1.2541  1.2828  0.9691
  585MOL0     H80704  10.588   9.780   7.356  1.4558  0.8760  0.7134
  585MOL0     H80705  10.609   9.840   7.186 -2.7322  2.2622 -1.0875
  585MOL0     H80706  10.362   9.923   7.351 -0.7256  0.3777 -0.0773
  585MOL0     H80707  10.374   9.796   7.231 -1.0579  0.4294  0.4840
  585MOL0     H80708  10.422   9.962   7.049 -2.6888  0.2785 -0.8561
  585MOL0     H80709  10.441  10.096   7.162  0.4705 -0.7832 -0.4491
  585MOL0     H80710  11.222   9.669   6.976  0.0851  0.9110  0.4147
  585MOL0     H80711  11.229   9.660   6.749  2.2101  1.6570  2.4178
  585MOL0     H80712  10.992   9.926   6.301  2.1671  0.5846  1.5430
  585MOL0     H80713  11.003   9.880   6.051  0.0826 -0.7952  0.3146
  585MOL0     H80714  10.447   9.348   4.621 -2.5168 -0.6917  2.0687
  585MOL0     H80715  10.290   9.494   4.496 -0.7967 -1.1222  1.1928
  585MOL0     H80716  10.180   9.789   4.254 -0.1612  0.5033  2.3510
  585MOL0     H80717  10.091   9.925   4.076 -0.7680  1.1726 -0.2048
  585MOL0     H80718  10.005  10.110   3.921 -0.6981  1.2587  0.6317
  585MOL0     H80719   9.959  10.111   4.075 -1.2016  0.6403 -2.0689
  585MOL0     H80720  10.021  10.372   4.055 -1.5950  2.0925 -0.5824
  585MOL0     H80721   9.861  10.307   4.019  0.2364 -1.5775  0.8307
  585MOL0     H80722   9.907  10.317   3.774 -0.2765  2.3171 -2.5692
  585MOL0     H80723   9.942  10.474   3.851 -1.8489 -1.7722  0.5428
  585MOL0     H80724  10.149  10.266   3.796 -0.9862 -0.5517  2.3778
  585MOL0     H80725  10.168  10.434   3.860 -0.1622  2.1265 -1.5007
  585MOL0     H80726  10.113  10.537   3.467 -2.0193 -1.0997 -0.5390
  585MOL0     H80727  10.341  10.253   4.173  1.2197  0.1605  0.1133
  585MOL0     H80728  10.573  10.075   4.377 -1.0483 -0.5355  0.2786
  585MOL0     H80729  10.509  10.239   4.343 -2.5071  1.8145  1.5199
  585MOL0     H80730  10.442  10.134   4.481 -0.3947 -2.1024 -0.2422
  586MOL0     O80731   2.797   5.378   9.720 -0.7260  0.2846 -0.0360
  586MOL0     C80732   2.748   5.361   9.606  1.1995 -0.3851 -0.3213
  586MOL0     O80733   2.737   5.249   9.538 -0.1950  0.7307 -0.6983
  586MOL0     C80734   2.799   5.132   9.588 -0.3467 -0.3200  0.1544
  586MOL0     C80735   2.922   5.115   9.661  0.4239 -1.3187  1.1874
  586MOL0     C80736   2.963   4.988   9.692 -0.1321  0.7669  0.1036
  586MOL0     C80737   2.880   4.876   9.679  0.1140 -0.1713 -0.1297
  586MOL0     O80738   2.915   4.747   9.709  0.0659  0.4463  0.4555
  586MOL0     C80739   2.823   4.692   9.799  0.3473 -0.2271  0.5739
  586MOL0     C80740   2.888   4.576   9.882  0.4368 -0.8169  0.2835
  586MOL0     C80741   2.894   4.446   9.804 -0.5352 -0.4107  0.2594
  586MOL0     C80742   2.946   4.322   9.880  0.1058 -0.1576 -0.3253
  586MOL0     C80743   2.991   4.205   9.791 -0.1049  0.3943  0.3789
  586MOL0     C80744   2.879   4.131   9.726  0.4991  0.5413 -0.3799
  586MOL0     C80745   2.918   4.055   9.597  0.2284 -0.0505 -0.3043
  586MOL0     C80746   2.790   4.010   9.512  0.1386  0.0429  0.4405
  586MOL0     N80747   2.692   3.942   9.595 -0.2719  0.1734  0.4445
  586MOL0     C80748   2.732   3.815   9.630  0.2967  1.0557 -1.0741
  586MOL0     C80749   2.611   3.774   9.685 -1.1173  0.3216  0.8768
  586MOL0     C80750   2.582   3.642   9.751 -0.4375  0.4718  0.0762
  586MOL0     C80751   2.487   3.561   9.659 -0.1626 -0.8795 -0.9181
  586MOL0     C80752   2.472   3.421   9.706 -0.3226  0.2611  0.6067
  586MOL0     C80753   2.391   3.411   9.833  0.7166 -0.3213  0.7554
  586MOL0     O80754   2.265   3.477   9.842 -0.5281 -0.8019 -0.2339
  586MOL0     C80755   2.163   3.426   9.925 -0.3419 -1.0848 -0.5132
  586MOL0     C80756   2.029   3.460   9.903 -0.3639 -0.2901  0.6468
  586MOL0     C80757   1.930   3.421   9.988  0.2358  0.6040  0.3478
  586MOL0     C80758   1.786   3.462   9.958  0.4359 -0.2160 -0.5047
  586MOL0     C80759   1.965   3.347  10.111  0.4794 -0.5820 -0.0210
  586MOL0     C80760   1.870   3.306  10.210 -1.0615  0.0729 -0.0834
  586MOL0     O80761   1.926   3.219  10.313  0.5286 -0.2054 -0.8215
  586MOL0     C80762   1.836   3.174  10.413 -0.5716  0.7117 -1.2154
  586MOL0     C80763   1.800   3.040  10.418  0.1108 -0.0953 -0.1604
  586MOL0     C80764   1.714   2.997  10.529 -0.2217 -0.2525 -0.9701
  586MOL0     C80765   1.677   3.088  10.636  0.1504  0.0345 -0.1319
  586MOL0     O80766   1.622   3.035  10.745  0.9581 -0.1727  0.4019
  586MOL0     C80767   1.593   3.110  10.869 -0.2580 -0.5546 -0.0546
  586MOL0     C80768   1.465   3.064  10.933 -1.3310 -0.5910 -0.9008
  586MOL0     C80769   1.434   3.135  11.067 -0.3164  0.0712  0.3912
  586MOL0     C80770   1.293   3.093  11.119 -0.3348 -0.6212 -0.7967
  586MOL0     C80771   1.304   2.999  11.237 -0.3598  1.0524 -0.0634
  586MOL0     C80772   1.339   2.847  11.205 -0.0287 -0.4306  0.3955
  586MOL0     C80773   1.265   2.779  11.099  0.9330 -0.9869  0.0390
  586MOL0     C80774   1.112   2.796  11.120  0.5763 -0.1009 -0.4995
  586MOL0    Cl80775   1.059   2.726  11.278 -0.4015  0.4121  0.1375
  586MOL0     C80776   1.727   3.222  10.630 -0.6896 -0.5312  0.1050
  586MOL0     C80777   1.801   3.267  10.517  1.1075 -0.3078  0.4884
  586MOL0     O80778   1.764   3.365  10.221  0.7584 -0.0012 -0.6216
  586MOL0     C80779   2.096   3.305  10.128 -0.1243 -0.2365  0.4360
  586MOL0     C80780   2.190   3.339  10.028  0.0121  0.4432 -0.6160
  586MOL0     N80781   2.513   3.857   9.660  0.7289 -0.9387  0.0671
  586MOL0     N80782   2.558   3.958   9.601  0.9435  0.7974 -1.6202
  586MOL0     C80783   2.754   4.895   9.613 -0.7909  0.5977  0.1973
  586MOL0     C80784   2.724   5.024   9.568  0.9426  0.8252  0.2625
  586MOL0     C80785   2.664   5.469   9.555  0.0234  0.5235  0.0460
  586MOL0     C80786   2.659   5.486   9.413 -0.0817 -0.1723 -0.1745
  586MOL0     C80787   2.567   5.567   9.347 -0.1160  0.0554 -0.5799
  586MOL0     C80788   2.493   5.657   9.417 -0.2079  0.7635 -0.8490
  586MOL0     O80789   2.405   5.745   9.357  0.6936  0.2297  1.3269
  586MOL0     C80790   2.379   5.715   9.215 -0.2179 -0.0050  0.3860
  586MOL0     C80791   2.251   5.790   9.191  0.0852 -1.0382 -0.6522
  586MOL0     C80792   2.137   5.694   9.246  0.1889 -0.8655 -0.2378
  586MOL0     C80793   1.999   5.747   9.273 -0.0567 -0.4732  0.7673
  586MOL0     C80794   1.981   5.851   9.378 -0.2945  0.8775  0.7480
  586MOL0     C80795   1.948   5.948   9.438 -0.5262  0.0883 -0.0564
  586MOL0     C80796   2.514   5.652   9.553  0.3115  0.2484 -0.6045
  586MOL0     C80797   2.592   5.555   9.626  0.1231  0.7745  1.3339
  586MOL0     C80798   2.594   5.570   9.776  0.1820  0.4015  0.3531
  586MOL0     H80799   2.985   5.204   9.666  1.7909 -1.6554 -4.1265
  586MOL0     H80800   3.063   4.972   9.733 -0.5900 -1.5049  0.4838
  586MOL0     H80801   2.730   4.656   9.755  1.5966  0.7432 -3.2108
  586MOL0     H80802   2.800   4.773   9.869 -0.6146  0.3829 -0.4259
  586MOL0     H80803   2.988   4.602   9.918 -0.2587  0.6820  1.2080
  586MOL0     H80804   2.830   4.552   9.972  0.9263  0.7785  1.0554
  586MOL0     H80805   2.788   4.428   9.785 -0.2350 -1.5342 -0.4805
  586MOL0     H80806   2.957   4.449   9.714  3.5888 -1.0622  2.8971
  586MOL0     H80807   3.028   4.357   9.944 -0.1252 -1.5378  0.7753
  586MOL0     H80808   2.859   4.285   9.936 -1.8346  1.7745 -1.8486
  586MOL0     H80809   3.053   4.138   9.852  2.3230 -0.8135 -3.0911
  586MOL0     H80810   3.069   4.232   9.719  0.4041 -2.6068 -0.3404
  586MOL0     H80811   2.838   4.057   9.796  2.2273  0.2524  0.3810
  586MOL0     H80812   2.799   4.192   9.684  1.6590  0.1301 -3.3885
  586MOL0     H80813   2.995   3.978   9.605  2.6157  2.1390 -0.9418
  586MOL0     H80814   2.974   4.125   9.536 -1.7677 -1.3837 -3.9604
  586MOL0     H80815   2.746   4.097   9.463  0.2733  0.5891  1.2695
  586MOL0     H80816   2.829   3.942   9.435 -1.5294 -1.2168  0.6582
  586MOL0     H80817   2.817   3.747   9.632 -1.0916 -0.7260  0.4242
  586MOL0     H80818   2.544   3.645   9.853  3.8273 -2.1168  1.9773
  586MOL0     H80819   2.678   3.591   9.757 -0.5847 -0.4770 -3.2287
  586MOL0     H80820   2.389   3.610   9.658  0.8868  1.4818  0.7596
  586MOL0     H80821   2.527   3.568   9.558  0.7710 -2.2972 -0.6781
  586MOL0     H80822   2.429   3.357   9.628  0.6403 -0.5963  0.7529
  586MOL0     H80823   2.578   3.394   9.711  0.0459  1.3083 -0.8768
  586MOL0     H80824   2.368   3.306   9.857 -2.9256  0.3119  0.5773
  586MOL0     H80825   2.451   3.460   9.910  1.6351  1.6767 -1.1454
  586MOL0     H80826   2.017   3.510   9.807  2.3814 -1.8758 -0.6807
  586MOL0     H80827   1.717   3.381   9.983 -0.6627  0.1363 -2.2541
  586MOL0     H80828   1.768   3.487   9.853 -1.3226 -1.1906 -0.4678
  586MOL0     H80829   1.761   3.547  10.022  1.0122 -1.8348  2.0535
  586MOL0     H80830   1.837   2.968  10.346 -1.3239 -0.8864 -0.1470
  586MOL0     H80831   1.677   2.895  10.539 -0.2647 -0.1611 -0.0972
  586MOL0     H80832   1.674   3.102  10.942  1.1455  0.4170 -1.4167
  586MOL0     H80833   1.598   3.219  10.857  5.3968 -0.7011 -2.5873
  586MOL0     H80834   1.388   3.097  10.862  1.3004  2.8463 -2.4493
  586MOL0     H80835   1.463   2.955  10.943 -2.9171 -0.5674 -0.7261
  586MOL0     H80836   1.428   3.244  11.062 -4.3055  0.2600  3.7558
  586MOL0     H80837   1.522   3.102  11.123  0.4637  1.0796 -0.2060
  586MOL0     H80838   1.244   3.053  11.029  0.1363 -0.3039 -1.2008
  586MOL0     H80839   1.236   3.178  11.158  0.3724  0.4298 -1.9460
  586MOL0     H80840   1.377   3.029  11.314  0.6866  0.4225 -0.7903
  586MOL0     H80841   1.207   3.001  11.287 -0.3041  1.4877  0.0354
  586MOL0     H80842   1.341   2.788  11.297  0.3511  0.4177  0.9487
  586MOL0     H80843   1.441   2.843  11.166 -0.5862  2.6766 -1.8380
  586MOL0     H80844   1.278   2.671  11.107 -0.5499 -1.2723 -0.8876
  586MOL0     H80845   1.289   2.811  10.997  1.1231  2.3280  1.0103
  586MOL0     H80846   1.047   2.761  11.040 -0.4604 -0.1915  0.3681
  586MOL0     H80847   1.087   2.902  11.128 -0.2164 -0.4164  2.4398
  586MOL0     H80848   1.707   3.287  10.714  1.7925 -0.8429  1.0129
  586MOL0     H80849   1.819   3.373  10.497 -2.2762  0.3925  0.6136
  586MOL0     H80850   2.142   3.251  10.210  0.0615  0.1986  0.6222
  586MOL0     H80851   2.290   3.304  10.054 -0.0937 -1.7311 -2.8155
  586MOL0     H80852   2.692   4.811   9.586 -1.1958  1.4569 -1.7502
  586MOL0     H80853   2.622   5.024   9.530  0.1018  0.0894  2.4003
  586MOL0     H80854   2.719   5.421   9.349 -1.1629 -0.7103 -0.6578
  586MOL0     H80855   2.580   5.562   9.240  0.3299  1.3271 -0.6038
  586MOL0     H80856   2.462   5.755   9.157  2.0458 -0.1996  3.2226
  586MOL0     H80857   2.379   5.608   9.194 -0.2774  0.3263 -1.4521
  586MOL0     H80858   2.248   5.804   9.083  2.1874  1.5655 -0.4702
  586MOL0     H80859   2.252   5.892   9.231  2.6170 -0.1041 -2.8439
  586MOL0     H80860   2.122   5.613   9.174 -2.4605 -1.0161  0.3734
  586MOL0     H80861   2.170   5.651   9.341 -2.2990  0.2465  1.2391
  586MOL0     H80862   1.942   5.658   9.300  0.6130 -1.0240  0.4231
  586MOL0     H80863   1.964   5.794   9.180  3.4691 -0.3938 -0.6840
  586MOL0     H80864   1.923   6.046   9.474  0.2565  1.0846 -2.0838
  586MOL0     H80865   2.468   5.730   9.613 -1.7583 -1.6403  0.3895
  586MOL0     H80866   2.574   5.473   9.823  3.4111  1.2330  4.0322
  586MOL0     H80867   2.694   5.598   9.811 -0.0195 -1.2317  2.4484
  586MOL0     H80868   2.518   5.645   9.799  1.6640  2.5185 -1.2837
  587MOL0     O80869   8.026   9.888   2.148  0.2674 -0.7459 -0.5068
  587MOL0     C80870   8.110   9.808   2.102 -0.4177  0.4557  0.1014
  587MOL0     O80871   8.237   9.802   2.151 -0.1438  0.5894  0.0595
  587MOL0     C80872   8.307   9.896   2.215 -0.3778 -0.0955  0.6369
  587MOL0     C80873   8.276  10.031   2.204 -0.0462  0.6013  0.0581
  587MOL0     C80874   8.347  10.134   2.271 -0.4514  0.1550  0.3603
  587MOL0     C80875   8.447  10.096   2.372 -0.5955  0.6331  1.0899
  587MOL0     O80876   8.526  10.198   2.439  0.4852 -0.5513  0.2381
  587MOL0     C80877   8.454  10.324   2.468  0.2597 -0.1996 -0.4019
  587MOL0     C80878   8.508  10.391   2.599  0.1753 -0.7165  0.0478
  587MOL0     C80879   8.525  10.288   2.708  0.1256 -0.1502 -0.2339
  587MOL0     C80880   8.561  10.352   2.847 -0.9969 -0.1010 -0.1832
  587MOL0     C80881   8.578  10.237   2.941  0.7998  0.9879 -0.1273
  587MOL0     C80882   8.592  10.287   3.087 -0.8061 -0.1871  0.2665
  587MOL0     C80883   8.674  10.417   3.119 -0.6627 -0.0042  0.7711
  587MOL0     C80884   8.664  10.463   3.268  0.8855 -0.1014  0.1468
  587MOL0     N80885   8.752  10.382   3.366  0.3530 -0.6473 -0.2721
  587MOL0     C80886   8.884  10.397   3.377  0.1929 -0.5612  0.1234
  587MOL0     C80887   8.918  10.319   3.488  0.4364 -0.0048 -0.2538
  587MOL0     C80888   9.056  10.298   3.545  0.1613 -0.0117  0.8588
  587MOL0     C80889   9.062  10.303   3.707 -0.1022 -0.3109  0.6006
  587MOL0     C80890   9.096  10.439   3.758  0.9940  0.6703 -0.5830
  587MOL0     C80891   8.971  10.536   3.736  0.2244 -1.3482  0.1523
  587MOL0     O80892   8.860  10.496   3.815 -0.8100  0.2655  0.5453
  587MOL0     C80893   8.852  10.545   3.944  0.0355  0.0539 -0.5105
  587MOL0     C80894   8.924  10.651   4.008 -0.0596  0.2279  0.8595
  587MOL0     C80895   8.902  10.685   4.145 -0.3886  0.5604  1.4637
  587MOL0     C80896   8.984  10.793   4.209 -0.2038  0.9251 -0.0081
  587MOL0     C80897   8.799  10.615   4.216 -0.6250 -0.0213  0.9321
  587MOL0     C80898   8.767  10.637   4.360 -0.8694 -0.2645 -0.6967
  587MOL0     O80899   8.628  10.648   4.379 -0.4800  0.3737  0.1803
  587MOL0     C80900   8.578  10.642   4.505 -0.8782  0.4258  0.0129
  587MOL0     C80901   8.635  10.574   4.616  0.3735  0.7760 -0.2891
  587MOL0     C80902   8.583  10.577   4.746 -0.1307 -0.2185  0.0353
  587MOL0     C80903   8.469  10.644   4.771 -0.0171 -0.0614  0.4016
  587MOL0     O80904   8.417  10.638   4.898  0.3871 -0.7300 -0.2768
  587MOL0     C80905   8.299  10.715   4.911 -0.1268 -1.9365 -0.7459
  587MOL0     C80906   8.243  10.713   5.056 -0.9755  0.2333  0.6078
  587MOL0     C80907   8.193  10.569   5.093 -0.1655 -0.6902 -0.1445
  587MOL0     C80908   8.138  10.565   5.227  0.6802  0.0294 -0.0390
  587MOL0     C80909   8.060  10.429   5.236 -0.2049 -0.6118 -0.7007
  587MOL0     C80910   7.945  10.434   5.348  0.3978  0.1206  0.0759
  587MOL0     C80911   7.896  10.293   5.388  0.0025  0.0642 -0.5807
  587MOL0     C80912   7.797  10.304   5.503  0.4446  0.3752  0.5522
  587MOL0    Cl80913   7.875  10.357   5.657  0.1450 -0.1582 -0.5379
  587MOL0     C80914   8.410  10.721   4.660 -1.2105  0.2641 -0.6741
  587MOL0     C80915   8.465  10.716   4.529 -0.0539  0.1706  0.7277
  587MOL0     O80916   8.848  10.659   4.445 -0.1069 -0.0240  0.1124
  587MOL0     C80917   8.712  10.538   4.143  0.1258 -0.2048  0.3223
  587MOL0     C80918   8.739  10.498   4.016  0.5924  1.1035  0.8721
  587MOL0     N80919   8.806  10.248   3.518 -0.3110 -0.2111  0.2766
  587MOL0     N80920   8.711  10.288   3.455  0.7324 -0.0562  0.6999
  587MOL0     C80921   8.488   9.954   2.368 -0.0764  0.5446  1.0091
  587MOL0     C80922   8.419   9.862   2.284  0.6206  0.2641 -0.1749
  587MOL0     C80923   8.068   9.710   2.002 -0.5612  0.1867  0.2599
  587MOL0     C80924   8.126   9.588   2.015 -0.2002  0.2023 -0.4919
  587MOL0     C80925   8.073   9.480   1.941 -0.3431  1.4995  0.5412
  587MOL0     C80926   7.973   9.501   1.846  0.3604  1.0265 -0.2499
  587MOL0     O80927   7.920   9.395   1.777  0.2396 -0.5876 -0.8492
  587MOL0     C80928   7.843   9.420   1.658  0.2129 -0.9714  0.2596
  587MOL0     C80929   7.794   9.296   1.598 -0.0107  0.5497  0.0645
  587MOL0     C80930   7.786   9.309   1.442 -0.1916  0.8664 -0.4850
  587MOL0     C80931   7.637   9.296   1.408  0.0458 -0.3351 -0.8120
  587MOL0     C80932   7.591   9.158   1.439 -0.1808 -0.3546 -0.4844
  587MOL0     C80933   7.555   9.042   1.467 -1.0024 -1.4257  0.6976
  587MOL0     C80934   7.941   9.631   1.812  0.1320 -0.2706  0.7601
  587MOL0     C80935   7.983   9.736   1.896  0.5212  0.3656 -0.7092
  587MOL0     C80936   7.910   9.863   1.886  0.3068 -0.5007 -0.1689
  587MOL0     H80937   8.191  10.060   2.143  1.2218  2.5018 -0.9064
  587MOL0     H80938   8.317  10.238   2.267 -0.7352  0.0921  0.6977
  587MOL0     H80939   8.347  10.311   2.488  0.0619  2.8433  1.0686
  587MOL0     H80940   8.476  10.392   2.386 -0.4621  0.3730 -0.1336
  587MOL0     H80941   8.602  10.444   2.587 -0.9093  1.8591  1.8984
  587MOL0     H80942   8.428  10.457   2.633  1.2810  0.2060  0.9236
  587MOL0     H80943   8.433  10.232   2.729 -0.7213 -0.4392 -3.9321
  587MOL0     H80944   8.597  10.215   2.668 -0.3707  0.8373 -3.2117
  587MOL0     H80945   8.642  10.423   2.829 -0.6392 -0.8653 -1.6853
  587MOL0     H80946   8.476  10.415   2.878 -0.0994 -0.3627  3.2375
  587MOL0     H80947   8.670  10.183   2.915  1.5310  0.6856  2.6993
  587MOL0     H80948   8.502  10.158   2.944 -0.5247  2.2195  2.3563
  587MOL0     H80949   8.493  10.306   3.131 -1.4895 -1.7820 -0.5154
  587MOL0     H80950   8.660  10.213   3.130  2.3672  1.7550 -1.0203
  587MOL0     H80951   8.644  10.500   3.055 -1.8121 -1.2431 -0.3730
  587MOL0     H80952   8.779  10.395   3.098 -0.1525 -0.3836  3.3730
  587MOL0     H80953   8.689  10.568   3.283 -0.6392  0.1817  0.8556
  587MOL0     H80954   8.566  10.461   3.317  1.3203  4.3988  1.6958
  587MOL0     H80955   8.950  10.457   3.315 -1.6219  0.0499 -1.3060
  587MOL0     H80956   9.130  10.363   3.498 -2.6727  0.8493 -2.9276
  587MOL0     H80957   9.077  10.194   3.519 -1.1999  0.2713 -1.7408
  587MOL0     H80958   8.965  10.284   3.754 -1.4510  2.3661 -0.8400
  587MOL0     H80959   9.140  10.234   3.741  0.0558  0.1691  1.2356
  587MOL0     H80960   9.105  10.424   3.866  0.7406 -1.1103 -0.7780
  587MOL0     H80961   9.186  10.477   3.710  1.4331 -0.7383 -0.9115
  587MOL0     H80962   9.007  10.638   3.751 -0.1359 -0.7579 -2.5557
  587MOL0     H80963   8.945  10.535   3.630  1.2798 -0.5889 -0.1342
  587MOL0     H80964   8.997  10.710   3.953 -1.0007  1.4499  0.9066
  587MOL0     H80965   8.913  10.873   4.230  0.3429  1.9268 -1.7025
  587MOL0     H80966   9.042  10.838   4.127 -1.0760  0.2636 -1.0228
  587MOL0     H80967   9.040  10.769   4.299 -1.1877  0.2310  0.4308
  587MOL0     H80968   8.724  10.514   4.601 -0.2314 -0.3179  0.3817
  587MOL0     H80969   8.640  10.528   4.825  1.0612  0.8305 -0.1395
  587MOL0     H80970   8.340  10.816   4.901 -2.8429 -0.7590 -0.8175
  587MOL0     H80971   8.220  10.709   4.836  0.2918 -1.3017 -1.2490
  587MOL0     H80972   8.324  10.729   5.129 -0.5337 -1.1297  0.4287
  587MOL0     H80973   8.163  10.787   5.053 -1.1905  0.1260  2.3489
  587MOL0     H80974   8.261  10.485   5.080 -1.4990 -2.1312  1.7101
  587MOL0     H80975   8.116  10.550   5.019  0.2140  3.0208 -1.6899
  587MOL0     H80976   8.069  10.649   5.242  4.3264  3.2264  0.4420
  587MOL0     H80977   8.206  10.562   5.313 -0.5117  2.8135  1.1171
  587MOL0     H80978   8.008  10.413   5.141  1.2185  2.1259 -2.0699
  587MOL0     H80979   8.128  10.351   5.272 -0.4006  0.2692  1.7590
  587MOL0     H80980   7.857  10.489   5.314 -0.5514  2.0191  4.8049
  587MOL0     H80981   7.982  10.485   5.438  0.7029 -0.9284  0.5663
  587MOL0     H80982   7.975  10.230   5.428 -2.7449 -2.6581  1.0061
  587MOL0     H80983   7.850  10.241   5.303  2.2307  0.7880 -2.3445
  587MOL0     H80984   7.763  10.204   5.531 -3.4707  1.8308  1.7434
  587MOL0     H80985   7.714  10.366   5.467 -0.1920  0.5132  2.1579
  587MOL0     H80986   8.319  10.778   4.676 -0.9989  0.5194 -0.3552
  587MOL0     H80987   8.417  10.776   4.452 -3.3833 -2.9244  0.1518
  587MOL0     H80988   8.628  10.490   4.193  1.2344  2.5721  5.5488
  587MOL0     H80989   8.680  10.419   3.972 -0.3935  2.7368 -0.8814
  587MOL0     H80990   8.576   9.920   2.421  1.3654  0.4041 -1.3538
  587MOL0     H80991   8.467   9.765   2.282 -0.2318 -0.1703  0.0288
  587MOL0     H80992   8.183   9.551   2.100 -1.3182 -0.8269 -0.1453
  587MOL0     H80993   8.093   9.375   1.960  0.1762  1.1890 -1.4962
  587MOL0     H80994   7.755   9.482   1.677  0.3230 -0.0048 -2.1049
  587MOL0     H80995   7.907   9.468   1.584 -2.3107  0.8575 -0.9009
  587MOL0     H80996   7.710   9.270   1.663 -1.5548  6.2998  0.9466
  587MOL0     H80997   7.863   9.213   1.610  0.5002  0.0631 -4.3820
  587MOL0     H80998   7.830   9.401   1.403 -1.3966  0.9866 -1.6227
  587MOL0     H80999   7.851   9.236   1.393 -0.4228  0.0491  0.3823
  587MOL0     H81000   7.623   9.299   1.299 -0.8307  1.8034 -0.6900
  587MOL0     H81001   7.572   9.370   1.456  0.8347  1.5100 -2.4198
  587MOL0     H81002   7.531   8.945   1.506  0.7961 -1.1409  2.6604
  587MOL0     H81003   7.869   9.659   1.735  0.4273  1.0313  0.9385
  587MOL0     H81004   7.967   9.951   1.916  1.2770 -1.2551  0.2460
  587MOL0     H81005   7.871   9.883   1.786 -1.6364  1.7103  0.9415
  587MOL0     H81006   7.815   9.862   1.939 -1.4130  2.1410 -2.8599
  588MOL0     O81007   2.425  10.949   2.743 -0.0482 -0.5806 -0.3479
  588MOL0     C81008   2.443  10.880   2.639 -0.2358  0.0733 -0.2130
  588MOL0     O81009   2.546  10.798   2.626  0.2206 -0.4129  0.0627
  588MOL0     C81010   2.661  10.825   2.695 -0.2804 -0.0104 -0.2153
  588MOL0     C81011   2.658  10.807   2.831 -0.3439 -0.9339 -0.2338
  588MOL0     C81012   2.769  10.841   2.905 -0.1851 -0.7424  0.4810
  588MOL0     C81013   2.891  10.872   2.844 -0.7963  0.8112  0.8164
  588MOL0     O81014   3.012  10.908   2.900 -0.0311  0.5873  0.2988
  588MOL0     C81015   3.026  10.893   3.045  0.4775  0.3486  0.0507
  588MOL0     C81016   3.166  10.923   3.090  0.8221  0.4686 -0.4821
  588MOL0     C81017   3.207  11.059   3.043  0.4021 -0.7572  0.2851
  588MOL0     C81018   3.357  11.093   3.066 -0.1715 -0.4097 -1.0905
  588MOL0     C81019   3.388  11.244   3.025 -0.4387 -0.2268  0.1927
  588MOL0     C81020   3.520  11.310   3.064  0.0041  0.0428 -0.3409
  588MOL0     C81021   3.640  11.230   3.023 -0.2126 -0.4873 -0.0525
  588MOL0     C81022   3.765  11.281   3.093 -0.3515  0.1005  0.0077
  588MOL0     N81023   3.802  11.414   3.038 -0.3155  0.2689 -0.1766
  588MOL0     C81024   3.753  11.536   3.070  0.2023  0.5350 -0.2465
  588MOL0     C81025   3.820  11.625   3.013  0.2136 -0.4244 -0.6618
  588MOL0     C81026   3.812  11.777   3.043  0.3375  0.7226  0.7848
  588MOL0     C81027   3.739  11.855   2.931 -0.8740 -0.0457 -0.8555
  588MOL0     C81028   3.631  11.943   2.985  0.1528 -0.0110  0.4686
  588MOL0     C81029   3.563  12.016   2.872  0.9384  0.2081 -0.4625
  588MOL0     O81030   3.449  12.095   2.911 -0.4148 -0.3648  0.3884
  588MOL0     C81031   3.472  12.231   2.950 -1.3882 -0.0515  0.0764
  588MOL0     C81032   3.568  12.318   2.900  0.1184  0.1264 -0.4970
  588MOL0     C81033   3.569  12.465   2.921  0.5649  0.8989 -0.8205
  588MOL0     C81034   3.651  12.552   2.831 -0.3620 -0.2159 -0.0372
  588MOL0     C81035   3.474  12.509   3.015  0.8463  0.0826  0.2249
  588MOL0     C81036   3.470  12.649   3.063 -0.3761 -0.9301  0.1593
  588MOL0     O81037   3.384  12.675   3.155 -0.4526 -0.8635 -0.8234
  588MOL0     C81038   3.440  12.740   3.271 -0.3446  0.4279  0.2253
  588MOL0     C81039   3.448  12.874   3.289  0.3256  0.0499  0.0431
  588MOL0     C81040   3.513  12.934   3.398 -0.1542 -0.2381  0.3875
  588MOL0     C81041   3.575  12.859   3.505 -0.1701  1.0382  0.2474
  588MOL0     O81042   3.621  12.920   3.617 -0.2797  0.8255  0.4134
  588MOL0     C81043   3.653  12.841   3.732 -0.3669 -0.3214  0.4061
  588MOL0     C81044   3.792  12.795   3.721 -1.0015 -0.7839  1.3898
  588MOL0     C81045   3.897  12.910   3.733  0.4823  0.1608 -0.0509
  588MOL0     C81046   4.013  12.910   3.628  0.1671  0.4508  0.0415
  588MOL0     C81047   4.136  12.974   3.694  0.7849 -0.0133 -0.2556
  588MOL0     C81048   4.258  12.989   3.604  0.3182 -0.1613 -0.5042
  588MOL0     C81049   4.231  13.086   3.490 -0.1581  0.3159  0.0241
  588MOL0     C81050   4.235  13.003   3.356  0.7707  1.0736  0.4104
  588MOL0    Cl81051   4.199  13.102   3.213  0.0166 -0.1018  0.0483
  588MOL0     C81052   3.568  12.716   3.480  0.0219  0.3851 -0.5576
  588MOL0     C81053   3.498  12.657   3.369 -0.0698 -0.3752 -0.6659
  588MOL0     O81054   3.535  12.734   3.008 -0.0718  0.3360  0.6371
  588MOL0     C81055   3.384  12.420   3.070  1.0388 -0.3403 -0.5549
  588MOL0     C81056   3.381  12.287   3.049 -0.1077  0.7141  0.0528
  588MOL0     N81057   3.912  11.563   2.934 -0.0421  0.1978  0.0062
  588MOL0     N81058   3.895  11.435   2.950 -0.4929  1.0357 -0.0951
  588MOL0     C81059   2.899  10.867   2.701  0.0659 -0.2611  0.3599
  588MOL0     C81060   2.779  10.859   2.633  0.3731  0.8664  0.8359
  588MOL0     C81061   2.339  10.889   2.541 -0.4139 -0.4092  0.4631
  588MOL0     C81062   2.343  10.792   2.437 -0.6008 -0.9869 -0.7777
  588MOL0     C81063   2.266  10.810   2.329 -0.5383  0.3160  0.3480
  588MOL0     C81064   2.175  10.918   2.318 -0.3500 -0.1055 -0.1904
  588MOL0     O81065   2.084  10.910   2.212 -0.0536  0.6137  0.1772
  588MOL0     C81066   2.028  11.048   2.179  0.2403  1.0047  0.6953
  588MOL0     C81067   2.002  11.056   2.032  0.3214 -0.0010  0.2341
  588MOL0     C81068   2.139  11.048   1.948  0.3565 -0.6594  0.1950
  588MOL0     C81069   2.170  10.906   1.906  0.2423  0.3664 -0.3118
  588MOL0     C81070   2.080  10.859   1.798 -0.6775 -0.2598 -0.7782
  588MOL0     C81071   1.992  10.822   1.722  0.6052 -0.0160 -0.8119
  588MOL0     C81072   2.182  11.020   2.417 -1.1731 -0.2656  0.1179
  588MOL0     C81073   2.263  11.013   2.527 -0.1446  0.5919 -0.1618
  588MOL0     C81074   2.254  11.131   2.624  0.0886  0.0365 -0.3343
  588MOL0     H81075   2.566  10.795   2.887 -0.6407  1.9842  0.0986
  588MOL0     H81076   2.774  10.834   3.013 -0.8148 -5.7821  0.3904
  588MOL0     H81077   3.011  10.786   3.061  3.7289 -0.5492 -1.9331
  588MOL0     H81078   2.953  10.961   3.090  0.7320  0.7912 -0.1944
  588MOL0     H81079   3.166  10.914   3.199 -0.8954 -0.3431 -0.5220
  588MOL0     H81080   3.234  10.847   3.050 -1.7963 -4.4144  3.2650
  588MOL0     H81081   3.195  11.073   2.935  3.1837  0.2293 -0.0076
  588MOL0     H81082   3.142  11.125   3.100 -0.3289 -2.2070  1.1860
  588MOL0     H81083   3.374  11.067   3.171  4.1248 -0.6866 -1.6733
  588MOL0     H81084   3.426  11.033   3.005  1.7114  1.1123 -0.5533
  588MOL0     H81085   3.304  11.305   3.061  0.6499  0.7158  1.2056
  588MOL0     H81086   3.369  11.245   2.918 -3.3226  2.5605  0.5721
  588MOL0     H81087   3.512  11.404   3.009 -1.7665 -0.7645 -1.5427
  588MOL0     H81088   3.508  11.318   3.172 -0.8874  1.1716 -0.5076
  588MOL0     H81089   3.660  11.228   2.916  1.5846 -3.2933  0.2531
  588MOL0     H81090   3.639  11.127   3.060  2.8045 -0.1246  1.3333
  588MOL0     H81091   3.740  11.302   3.197  0.7077 -1.5080  0.6103
  588MOL0     H81092   3.856  11.221   3.082  0.9023  1.8091  0.4223
  588MOL0     H81093   3.665  11.552   3.132  0.4213 -1.1521  0.5867
  588MOL0     H81094   3.918  11.803   3.042  1.0266 -1.8778  0.0422
  588MOL0     H81095   3.767  11.790   3.141 -0.5912  2.3027  0.2036
  588MOL0     H81096   3.804  11.926   2.878 -2.3868  0.6444 -1.8439
  588MOL0     H81097   3.695  11.790   2.855 -0.1645  0.3412 -1.6065
  588MOL0     H81098   3.565  11.874   3.038  0.6523  0.1561  1.3453
  588MOL0     H81099   3.669  12.014   3.059  1.8485 -0.2813 -0.1119
  588MOL0     H81100   3.643  12.078   2.831  1.8625 -0.4778  0.2641
  588MOL0     H81101   3.530  11.944   2.797 -1.5683 -0.3411  1.0389
  588MOL0     H81102   3.636  12.270   2.830 -0.9420  1.3758 -2.4920
  588MOL0     H81103   3.730  12.596   2.892  0.3083 -0.8858 -0.4069
  588MOL0     H81104   3.584  12.625   2.786 -4.4906 -2.4445  1.8589
  588MOL0     H81105   3.701  12.483   2.763 -0.0872  0.5009 -0.5734
  588MOL0     H81106   3.395  12.928   3.211 -0.5120  0.4002  0.8290
  588MOL0     H81107   3.508  13.042   3.406  0.0437 -0.0378 -1.7119
  588MOL0     H81108   3.660  12.916   3.811 -2.7175  0.6488 -0.1971
  588MOL0     H81109   3.582  12.764   3.764 -0.7116  0.7852  2.4822
  588MOL0     H81110   3.822  12.716   3.791  0.7761 -0.7122  0.7592
  588MOL0     H81111   3.809  12.754   3.620  0.8809  1.5105  0.6905
  588MOL0     H81112   3.930  12.901   3.837 -0.0130  2.0320  0.3017
  588MOL0     H81113   3.837  13.001   3.735 -0.3242 -0.3501 -0.7646
  588MOL0     H81114   3.976  12.973   3.546 -0.8967  2.8794  2.2400
  588MOL0     H81115   4.028  12.808   3.593 -0.8075  0.8810 -1.7822
  588MOL0     H81116   4.107  13.064   3.749 -2.3285 -1.4468  0.6551
  588MOL0     H81117   4.169  12.911   3.777  0.5120  2.8312  2.1783
  588MOL0     H81118   4.306  12.894   3.579  3.4427  0.8292  1.1699
  588MOL0     H81119   4.333  13.022   3.677 -2.1425 -1.1807  2.7219
  588MOL0     H81120   4.319  13.150   3.477  0.0643  0.3755  1.6757
  588MOL0     H81121   4.138  13.141   3.503  1.3669  2.4754  2.6436
  588MOL0     H81122   4.167  12.918   3.344  1.8408  0.1441  0.7206
  588MOL0     H81123   4.335  12.958   3.352  0.1752 -0.7584  3.4371
  588MOL0     H81124   3.605  12.641   3.550 -0.3798  0.6798 -0.0217
  588MOL0     H81125   3.488  12.549   3.366  1.6561 -0.7455  2.6998
  588MOL0     H81126   3.318  12.453   3.151  2.0154 -0.4900  0.3291
  588MOL0     H81127   3.316  12.214   3.097  1.4573 -0.0357  1.1108
  588MOL0     H81128   2.985  10.896   2.642  1.1210 -0.9026  1.5241
  588MOL0     H81129   2.771  10.883   2.527 -3.6938 -0.2589  0.7006
  588MOL0     H81130   2.410  10.712   2.468  0.8056  1.0103  1.7617
  588MOL0     H81131   2.256  10.730   2.256 -0.8577  0.3942  0.3017
  588MOL0     H81132   1.934  11.056   2.233  1.1217 -1.6440  2.8629
  588MOL0     H81133   2.105  11.125   2.191  0.2576  0.9930  0.6487
  588MOL0     H81134   1.956  11.154   2.019 -3.8450 -1.4526  2.2828
  588MOL0     H81135   1.922  10.987   2.003 -1.4704  2.3902 -0.8638
  588MOL0     H81136   2.141  11.107   1.856  0.9165  1.5140  1.5357
  588MOL0     H81137   2.222  11.085   2.008  2.8029  0.0171 -3.2543
  588MOL0     H81138   2.170  10.829   1.983  1.3259  0.1565 -0.5035
  588MOL0     H81139   2.268  10.901   1.858  0.1972 -2.5683 -0.2777
  588MOL0     H81140   1.930  10.793   1.640  0.6054 -0.1623 -0.7616
  588MOL0     H81141   2.115  11.104   2.415  1.0235  1.5803 -0.6341
  588MOL0     H81142   2.184  11.207   2.590 -0.5872 -0.6071 -0.3973
  588MOL0     H81143   2.217  11.105   2.723  4.5968 -0.2475  1.5215
  588MOL0     H81144   2.354  11.171   2.642  0.4609 -1.8254  2.2793
  589MOL0     O81145   0.478   3.659  11.558 -0.0824  0.7028 -0.1624
  589MOL0     C81146   0.385   3.722  11.514 -0.3698 -0.0143 -0.5127
  589MOL0     O81147   0.349   3.729  11.378  0.4895 -0.6209  0.0738
  589MOL0     C81148   0.388   3.632  11.291  0.4816  0.5222 -0.3193
  589MOL0     C81149   0.318   3.511  11.280  1.0595  0.7010 -0.1708
  589MOL0     C81150   0.350   3.422  11.179  0.9398 -0.4599 -0.2202
  589MOL0     C81151   0.455   3.443  11.093 -0.0612  0.6713  0.5698
  589MOL0     O81152   0.501   3.360  10.997  0.5011  0.3315 -0.1611
  589MOL0     C81153   0.553   3.231  11.036 -0.7877  0.7669  0.2363
  589MOL0     C81154   0.536   3.144  10.921  0.2915  0.8463  0.2934
  589MOL0     C81155   0.551   2.993  10.953 -0.0652  0.3965  0.3996
  589MOL0     C81156   0.484   2.905  10.861  0.4800  0.4144  0.2236
  589MOL0     C81157   0.332   2.902  10.872 -0.2635 -0.4928  0.1639
  589MOL0     C81158   0.278   2.787  10.780 -0.4553  0.5445 -0.6232
  589MOL0     C81159   0.134   2.812  10.744  0.3106 -0.8191  0.0350
  589MOL0     C81160   0.078   2.685  10.674  0.4277  0.6349  0.1748
  589MOL0     N81161  -0.054   2.709  10.653  0.1488 -0.2756  0.4460
  589MOL0     C81162  -0.155   2.720  10.748 -0.2983  1.0580 -0.2095
  589MOL0     C81163  -0.264   2.754  10.675  0.6449  0.4967 -0.1472
  589MOL0     C81164  -0.401   2.795  10.730  0.5269  0.6555 -0.0827
  589MOL0     C81165  -0.502   2.725  10.637 -0.6173  0.3441  0.2601
  589MOL0     C81166  -0.647   2.715  10.671  0.1164  1.1998 -0.0147
  589MOL0     C81167  -0.669   2.592  10.761 -0.3855  0.1143 -0.0823
  589MOL0     O81168  -0.777   2.625  10.856 -0.9807  0.0936 -0.2317
  589MOL0     C81169  -0.818   2.521  10.922  0.1786 -0.6666 -0.0200
  589MOL0     C81170  -0.784   2.385  10.904  0.7506  0.1186 -0.1843
  589MOL0     C81171  -0.845   2.290  10.981 -0.0245 -0.2847 -1.6694
  589MOL0     C81172  -0.792   2.143  10.967  0.7507  0.3706  0.0079
  589MOL0     C81173  -0.936   2.321  11.085 -0.2097  0.4390  1.1472
  589MOL0     C81174  -0.996   2.219  11.175 -0.4123 -0.3369  0.6468
  589MOL0     O81175  -0.914   2.121  11.211 -0.4706  0.0615  0.2880
  589MOL0     C81176  -0.945   2.023  11.297 -0.0442  0.2613  0.1105
  589MOL0     C81177  -1.055   1.953  11.281  0.2559  0.6679 -1.0677
  589MOL0     C81178  -1.075   1.847  11.373  0.1581  0.8159  0.1794
  589MOL0     C81179  -0.989   1.823  11.481  0.2266  0.3411 -1.0622
  589MOL0     O81180  -1.028   1.719  11.570 -0.5312  0.0410  0.8752
  589MOL0     C81181  -0.926   1.686  11.671  1.3096  0.9653  0.3657
  589MOL0     C81182  -0.809   1.605  11.612 -0.5437 -0.6313  0.3249
  589MOL0     C81183  -0.730   1.542  11.713  1.1317 -0.3478  0.1751
  589MOL0     C81184  -0.632   1.436  11.658  0.7279  0.3882 -1.6478
  589MOL0     C81185  -0.542   1.412  11.778 -0.7201 -0.3016 -0.2138
  589MOL0     C81186  -0.483   1.274  11.780  0.3993  0.4555  0.8538
  589MOL0     C81187  -0.422   1.222  11.646 -0.2939 -0.2435 -0.3920
  589MOL0     C81188  -0.287   1.295  11.613 -0.3287 -0.7352  0.9194
  589MOL0    Cl81189  -0.233   1.258  11.438 -0.1523  0.1777  0.1711
  589MOL0     C81190  -0.878   1.905  11.490  0.6194  0.3628  0.0101
  589MOL0     C81191  -0.860   2.011  11.408  0.5394 -0.0176  0.4542
  589MOL0     O81192  -1.111   2.228  11.210  0.5454  1.1973  0.8239
  589MOL0     C81193  -0.971   2.455  11.099 -0.7587 -0.6643 -0.9987
  589MOL0     C81194  -0.919   2.559  11.022 -0.7347  0.2286  0.0679
  589MOL0     N81195  -0.232   2.750  10.544  0.7454  0.2222  0.1387
  589MOL0     N81196  -0.112   2.723  10.528 -0.2379 -0.1834 -0.0776
  589MOL0     C81197   0.519   3.566  11.106  0.0022 -0.2488  0.4159
  589MOL0     C81198   0.471   3.662  11.189 -0.7334  0.2815  1.1558
  589MOL0     C81199   0.305   3.800  11.617  0.2904  0.1825 -0.3107
  589MOL0     C81200   0.167   3.817  11.587 -0.4213 -0.1104 -0.5559
  589MOL0     C81201   0.080   3.891  11.664 -0.0785 -0.1734 -0.2173
  589MOL0     C81202   0.126   3.964  11.775  0.0104  0.7030  0.2419
  589MOL0     O81203   0.038   4.043  11.824  0.8718 -0.3735 -0.1505
  589MOL0     C81204   0.056   4.092  11.960 -0.1888 -0.1366  0.2642
  589MOL0     C81205  -0.064   4.164  12.003 -0.0231  0.2977  0.4711
  589MOL0     C81206  -0.030   4.242  12.127 -0.0062 -0.1641 -0.1515
  589MOL0     C81207  -0.153   4.307  12.202 -0.1260 -0.5577 -0.3577
  589MOL0     C81208  -0.093   4.394  12.308  0.5855  0.3666  0.3436
  589MOL0     C81209  -0.080   4.447  12.410 -0.5753 -0.8055 -0.0869
  589MOL0     C81210   0.260   3.945  11.818 -1.4648 -0.4557  0.5352
  589MOL0     C81211   0.345   3.859  11.746  0.0624 -0.1035 -0.1278
  589MOL0     C81212   0.482   3.836  11.787  0.4974  0.1195 -0.6834
  589MOL0     H81213   0.248   3.480  11.357  1.0353 -1.6263 -1.0515
  589MOL0     H81214   0.290   3.333  11.163  2.1130 -1.0968 -1.3514
  589MOL0     H81215   0.518   3.179  11.126 -1.5630  1.0063  0.0782
  589MOL0     H81216   0.659   3.253  11.052 -0.5625  2.4957 -2.8857
  589MOL0     H81217   0.431   3.162  10.894  0.3287  1.9731  0.8325
  589MOL0     H81218   0.599   3.167  10.834 -0.5863 -1.1384 -0.9620
  589MOL0     H81219   0.655   2.963  10.970 -0.7452 -4.5645 -2.2727
  589MOL0     H81220   0.513   2.976  11.055  0.7512  0.0494  0.6528
  589MOL0     H81221   0.515   2.925  10.758  1.8629 -1.2141  0.2893
  589MOL0     H81222   0.515   2.803  10.883  1.8858  0.7297 -0.1432
  589MOL0     H81223   0.298   2.997  10.829 -1.8109 -0.9386  0.3353
  589MOL0     H81224   0.283   2.890  10.969 -1.3152 -1.9148 -0.5063
  589MOL0     H81225   0.332   2.785  10.684 -0.4735 -0.9445 -0.6145
  589MOL0     H81226   0.294   2.691  10.829  1.1103 -0.2563 -2.5691
  589MOL0     H81227   0.129   2.902  10.682  2.7338  0.4935  1.5722
  589MOL0     H81228   0.080   2.843  10.834  0.0658  2.6227 -1.1414
  589MOL0     H81229   0.134   2.664  10.582  1.8974  2.9926  0.4284
  589MOL0     H81230   0.082   2.598  10.741  2.1990  0.7295  0.2401
  589MOL0     H81231  -0.159   2.703  10.855 -1.2095 -1.8858 -0.6355
  589MOL0     H81232  -0.414   2.904  10.735 -1.7464  0.4038  1.0207
  589MOL0     H81233  -0.400   2.749  10.829  0.5383 -3.9371 -1.9551
  589MOL0     H81234  -0.499   2.785  10.545 -1.0014  2.4377  1.5322
  589MOL0     H81235  -0.472   2.626  10.603  0.1672  1.6034 -3.0517
  589MOL0     H81236  -0.675   2.805  10.725  2.5777  2.0104  0.0310
  589MOL0     H81237  -0.709   2.703  10.581 -2.2359 -0.3154  1.6841
  589MOL0     H81238  -0.701   2.506  10.702 -1.1895 -1.7993  2.9597
  589MOL0     H81239  -0.578   2.575  10.819  0.8583  2.1021 -1.2923
  589MOL0     H81240  -0.703   2.345  10.845  0.3206 -0.3036 -0.4893
  589MOL0     H81241  -0.868   2.065  10.955  1.8594 -0.6978 -0.3304
  589MOL0     H81242  -0.735   2.107  11.054 -1.4412  0.5504  1.6087
  589MOL0     H81243  -0.729   2.135  10.879  0.5698  1.6239 -0.2529
  589MOL0     H81244  -1.121   1.966  11.196 -0.2681  3.0428 -0.3776
  589MOL0     H81245  -1.158   1.777  11.376 -0.3477  1.3012 -1.3797
  589MOL0     H81246  -0.905   1.776  11.729 -1.1074  4.4773 -3.6222
  589MOL0     H81247  -0.984   1.617  11.733 -0.3716  1.3519 -0.7336
  589MOL0     H81248  -0.833   1.529  11.538  3.7897 -1.0523 -0.9528
  589MOL0     H81249  -0.741   1.679  11.568  1.9920 -2.4045  1.0066
  589MOL0     H81250  -0.790   1.486  11.785 -1.4326  1.5437 -0.3299
  589MOL0     H81251  -0.677   1.621  11.768  1.8664 -0.2190 -0.6865
  589MOL0     H81252  -0.575   1.473  11.572  0.3920  2.5866 -0.9778
  589MOL0     H81253  -0.692   1.346  11.641 -1.0344  0.5105  2.6988
  589MOL0     H81254  -0.455   1.478  11.766 -0.0724 -0.7959  1.4646
  589MOL0     H81255  -0.583   1.421  11.879  1.1666 -0.4617  0.6166
  589MOL0     H81256  -0.567   1.209  11.807  0.2377  0.4988  0.4703
  589MOL0     H81257  -0.415   1.267  11.866 -1.0429  0.8079  2.0522
  589MOL0     H81258  -0.481   1.242  11.555 -1.7470 -0.7417  0.4009
  589MOL0     H81259  -0.418   1.113  11.644 -2.4218 -0.3777 -2.8878
  589MOL0     H81260  -0.211   1.263  11.685  0.7678  1.4635  0.8124
  589MOL0     H81261  -0.307   1.402  11.609  3.1540  0.0188 -1.8555
  589MOL0     H81262  -0.802   1.894  11.567  1.8052  2.4589 -0.7810
  589MOL0     H81263  -0.778   2.081  11.413 -1.1014  2.6032 -3.8263
  589MOL0     H81264  -1.045   2.492  11.169 -0.5203  1.2263 -1.6905
  589MOL0     H81265  -0.953   2.660  11.038  0.5457  0.5852  0.6208
  589MOL0     H81266   0.612   3.564  11.050 -1.3140 -0.0676 -1.8954
  589MOL0     H81267   0.505   3.765  11.191 -1.0292  0.3957  0.5591
  589MOL0     H81268   0.117   3.767  11.505 -0.3118 -2.5204  0.7505
  589MOL0     H81269  -0.022   3.899  11.628  0.1399 -1.0294 -1.0473
  589MOL0     H81270   0.072   4.013  12.034  2.1926  0.9939  1.0330
  589MOL0     H81271   0.145   4.155  11.952  0.4612 -1.2098 -1.6773
  589MOL0     H81272  -0.150   4.098  12.012 -3.7170  4.2331 -2.1655
  589MOL0     H81273  -0.097   4.243  11.935 -0.9937 -1.0858 -0.7163
  589MOL0     H81274   0.013   4.183  12.209 -2.5478  0.1494  1.5418
  589MOL0     H81275   0.042   4.320  12.104 -1.2056  1.0425  0.0545
  589MOL0     H81276  -0.214   4.233  12.254 -1.0024 -0.6589 -1.4987
  589MOL0     H81277  -0.217   4.366  12.136  2.0051  1.9521 -0.3567
  589MOL0     H81278  -0.068   4.506  12.498  0.6292  0.1522 -0.8495
  589MOL0     H81279   0.303   4.000  11.902  0.9363 -0.8505 -0.3717
  589MOL0     H81280   0.552   3.908  11.745  0.7315  0.7882  0.7802
  589MOL0     H81281   0.490   3.856  11.895  1.9700  0.6993 -0.8827
  589MOL0     H81282   0.522   3.734  11.779  3.2295  0.9698  0.9049
  590MOL0     O81283   2.629   7.221   7.969 -0.7128  0.2055  0.1739
  590MOL0     C81284   2.598   7.319   8.031  0.6887  0.5619  0.7202
  590MOL0     O81285   2.466   7.362   8.037 -0.3615 -0.2325  0.9380
  590MOL0     C81286   2.372   7.290   7.981  0.6398 -0.2259  0.7360
  590MOL0     C81287   2.320   7.331   7.856  0.7515  0.5121  0.5106
  590MOL0     C81288   2.231   7.243   7.792 -0.9804 -1.1000 -0.1038
  590MOL0     C81289   2.207   7.113   7.838 -0.7814 -0.3959 -0.5822
  590MOL0     O81290   2.141   7.034   7.761  0.1884  1.1372  0.0531
  590MOL0     C81291   2.162   6.886   7.767 -0.6612 -0.3783 -1.4275
  590MOL0     C81292   2.045   6.811   7.702 -0.3254 -0.5112  1.1479
  590MOL0     C81293   2.054   6.656   7.704  0.3064 -0.3668 -0.4500
  590MOL0     C81294   1.949   6.590   7.605  0.7265 -0.2762  0.1761
  590MOL0     C81295   1.973   6.440   7.607  0.0001  0.0648  0.0862
  590MOL0     C81296   1.873   6.365   7.511  0.0004 -1.0741  0.0482
  590MOL0     C81297   1.853   6.218   7.545  0.3636 -0.5375  0.2885
  590MOL0     C81298   1.820   6.122   7.438  0.6579  0.3826 -0.4620
  590MOL0     N81299   1.853   5.983   7.484  0.2996 -0.7669  0.2335
  590MOL0     C81300   1.969   5.905   7.462  0.4190  0.1981  0.3094
  590MOL0     C81301   1.944   5.793   7.531  0.1565 -0.8799  0.7980
  590MOL0     C81302   2.051   5.683   7.535  0.1268  0.1541  0.6637
  590MOL0     C81303   2.147   5.687   7.420  0.3736  0.4651  0.6730
  590MOL0     C81304   2.258   5.574   7.430  0.6312  0.1646  0.5890
  590MOL0     C81305   2.377   5.613   7.355  0.2616 -0.5037  0.1030
  590MOL0     O81306   2.363   5.587   7.210  0.2924  0.1882 -1.0544
  590MOL0     C81307   2.402   5.679   7.120 -0.2724  0.4244 -0.1821
  590MOL0     C81308   2.359   5.662   6.990 -0.1415  0.4094 -0.4378
  590MOL0     C81309   2.411   5.749   6.886  1.3901  1.0152  0.3717
  590MOL0     C81310   2.357   5.731   6.747  0.4119 -0.4355  0.6926
  590MOL0     C81311   2.520   5.839   6.915 -0.0124 -0.5471 -0.7364
  590MOL0     C81312   2.589   5.925   6.814  0.3092 -0.5666 -0.0511
  590MOL0     O81313   2.712   5.966   6.852 -0.6766 -0.2104  0.0980
  590MOL0     C81314   2.789   6.039   6.754  0.2395 -0.4873 -0.1995
  590MOL0     C81315   2.873   6.129   6.823 -0.3116 -0.1657 -0.7331
  590MOL0     C81316   2.968   6.193   6.753 -0.3924 -0.3172  0.3666
  590MOL0     C81317   2.994   6.177   6.616 -0.0814 -0.0468  0.0603
  590MOL0     O81318   3.101   6.239   6.556 -0.0360  0.4465 -0.6292
  590MOL0     C81319   3.142   6.198   6.425 -0.3143 -0.2014  0.3322
  590MOL0     C81320   3.273   6.265   6.382  0.2573  0.0247  1.0824
  590MOL0     C81321   3.280   6.306   6.228  0.4230  0.6083  0.0614
  590MOL0     C81322   3.257   6.188   6.132  0.2560 -0.3964  0.4252
  590MOL0     C81323   3.266   6.244   5.987  1.2545 -0.1698 -0.5744
  590MOL0     C81324   3.141   6.230   5.896 -0.5243 -0.3596  0.4057
  590MOL0     C81325   3.119   6.083   5.847  0.1796 -0.7695  0.2509
  590MOL0     C81326   3.005   6.062   5.745  0.0759 -0.2853 -0.2667
  590MOL0    Cl81327   2.998   5.898   5.702  0.3154  0.2642  0.1891
  590MOL0     C81328   2.900   6.096   6.542  0.8073 -0.1250 -0.6472
  590MOL0     C81329   2.801   6.021   6.608  0.0204  0.2137 -1.1494
  590MOL0     O81330   2.544   5.935   6.696  0.6527  0.2063  0.9710
  590MOL0     C81331   2.567   5.838   7.046 -0.0207 -0.2378  0.1263
  590MOL0     C81332   2.510   5.763   7.140 -0.4652 -0.6819 -0.1108
  590MOL0     N81333   1.829   5.812   7.590 -0.5002  0.9179 -0.6540
  590MOL0     N81334   1.772   5.922   7.567 -0.7453  0.7957  0.1053
  590MOL0     C81335   2.245   7.080   7.968  1.3603 -0.6730 -0.6070
  590MOL0     C81336   2.323   7.172   8.045 -0.0804  0.3835 -0.2819
  590MOL0     C81337   2.699   7.395   8.097 -0.5074 -0.4576 -1.2689
  590MOL0     C81338   2.656   7.480   8.199 -0.2754  0.2194 -0.6734
  590MOL0     C81339   2.741   7.556   8.277  0.0732  0.6349  0.6430
  590MOL0     C81340   2.881   7.553   8.252  0.0181  0.6325 -0.1436
  590MOL0     O81341   2.970   7.636   8.324  0.3079  0.7651  0.8921
  590MOL0     C81342   2.913   7.673   8.451 -0.3248 -0.3241 -0.0843
  590MOL0     C81343   3.020   7.749   8.543  1.5015 -0.0588 -0.1123
  590MOL0     C81344   3.159   7.745   8.490 -0.9840 -0.2112  0.5047
  590MOL0     C81345   3.271   7.787   8.575  0.0451 -0.9489 -0.0663
  590MOL0     C81346   3.299   7.695   8.680  0.8873 -0.2330 -0.3841
  590MOL0     C81347   3.335   7.622   8.770 -0.1236  0.8831 -0.1678
  590MOL0     C81348   2.924   7.486   8.139  0.1341  0.3767 -0.0940
  590MOL0     C81349   2.836   7.410   8.057  0.4917  0.5410  0.3932
  590MOL0     C81350   2.887   7.348   7.927 -0.9995 -0.2809 -0.6276
  590MOL0     H81351   2.354   7.428   7.820  5.1445 -1.7296 -2.2774
  590MOL0     H81352   2.194   7.265   7.693 -0.3200 -0.8131 -0.2948
  590MOL0     H81353   2.179   6.851   7.869 -0.8121  0.3455 -1.1471
  590MOL0     H81354   2.258   6.872   7.716 -0.7390 -1.3172 -1.3385
  590MOL0     H81355   1.947   6.840   7.740 -1.7273  0.4488 -2.7869
  590MOL0     H81356   2.035   6.841   7.597 -1.2565  0.7152  1.5699
  590MOL0     H81357   2.155   6.636   7.668 -0.3341 -0.5535 -2.2568
  590MOL0     H81358   2.038   6.615   7.804  0.0294 -1.7245 -1.0241
  590MOL0     H81359   1.841   6.603   7.619  0.8169  1.7529 -0.6583
  590MOL0     H81360   1.974   6.632   7.508 -0.8067 -1.1657 -0.6425
  590MOL0     H81361   1.964   6.402   7.709  5.7092  1.9170  1.6619
  590MOL0     H81362   2.078   6.426   7.580 -0.2315  1.9808 -2.0844
  590MOL0     H81363   1.781   6.424   7.504  1.4652  1.2259 -1.1806
  590MOL0     H81364   1.916   6.365   7.410 -1.2397 -0.1031 -0.5079
  590MOL0     H81365   1.776   6.215   7.623  0.6949  3.5852  1.0205
  590MOL0     H81366   1.944   6.175   7.588 -0.7954 -2.1492  1.2269
  590MOL0     H81367   1.716   6.145   7.412  0.7040 -1.8702 -3.1713
  590MOL0     H81368   1.882   6.141   7.349  0.3406 -3.0283 -1.5355
  590MOL0     H81369   2.060   5.935   7.410 -0.0118  1.0173 -0.0003
  590MOL0     H81370   1.999   5.587   7.525 -0.2366  0.2927  1.1800
  590MOL0     H81371   2.101   5.688   7.632 -1.0303  0.8902  1.2445
  590MOL0     H81372   2.106   5.688   7.319 -1.1280  0.5612  1.2562
  590MOL0     H81373   2.209   5.777   7.417  2.1817 -0.7419 -0.7627
  590MOL0     H81374   2.284   5.549   7.533 -1.7203  0.4270  1.3043
  590MOL0     H81375   2.215   5.483   7.387  0.1988  1.4269 -1.8413
  590MOL0     H81376   2.396   5.714   7.392  0.0776 -1.5646  3.3979
  590MOL0     H81377   2.448   5.537   7.388 -0.8247 -1.7733 -0.3435
  590MOL0     H81378   2.286   5.583   6.975 -0.3368  0.2156  1.3613
  590MOL0     H81379   2.316   5.827   6.714  1.0144 -0.5600 -0.4546
  590MOL0     H81380   2.280   5.654   6.748 -1.3379  1.0482  5.1959
  590MOL0     H81381   2.442   5.699   6.687 -1.1593 -0.4126 -1.6818
  590MOL0     H81382   2.874   6.127   6.932 -1.6774 -2.1502 -0.7149
  590MOL0     H81383   3.027   6.273   6.798  3.1016 -1.2066 -2.2414
  590MOL0     H81384   3.161   6.090   6.430  1.7286  0.0691 -0.4379
  590MOL0     H81385   3.063   6.218   6.353  1.7525 -1.7195 -2.5844
  590MOL0     H81386   3.287   6.357   6.439  0.4356  1.2093 -0.7754
  590MOL0     H81387   3.345   6.185   6.403 -0.0199 -0.9990 -1.4871
  590MOL0     H81388   3.376   6.354   6.207  0.9738 -0.3509  0.3012
  590MOL0     H81389   3.197   6.377   6.220 -0.6584 -0.6120  0.0524
  590MOL0     H81390   3.159   6.142   6.150 -1.4775  2.5361 -0.8385
  590MOL0     H81391   3.344   6.126   6.153  1.8493  2.0333  1.3349
  590MOL0     H81392   3.280   6.352   5.996  1.0354 -0.1980  0.1372
  590MOL0     H81393   3.362   6.205   5.951  2.5520  3.1826 -1.0436
  590MOL0     H81394   3.163   6.298   5.812  1.3547 -2.4000 -0.8600
  590MOL0     H81395   3.051   6.266   5.947 -1.7487 -2.0316 -0.4504
  590MOL0     H81396   3.132   6.007   5.925 -1.2177  0.5199  1.8397
  590MOL0     H81397   3.209   6.057   5.790  0.5452  1.8944 -0.4999
  590MOL0     H81398   3.026   6.129   5.660  1.8066 -1.9586 -1.2293
  590MOL0     H81399   2.910   6.086   5.794 -3.1254 -2.7296 -4.5394
  590MOL0     H81400   2.915   6.088   6.435 -0.2679  4.1971 -1.2981
  590MOL0     H81401   2.738   5.948   6.558 -0.8712  0.0946  0.0951
  590MOL0     H81402   2.644   5.903   7.086 -0.8747 -0.0097  1.4583
  590MOL0     H81403   2.559   5.767   7.236  0.3875 -0.0815 -0.5560
  590MOL0     H81404   2.211   6.990   8.019  0.0105  0.7637  1.1929
  590MOL0     H81405   2.350   7.142   8.146 -2.0243  2.1994  0.8667
  590MOL0     H81406   2.548   7.480   8.212 -0.1322  0.2116  0.6393
  590MOL0     H81407   2.687   7.624   8.342 -0.9322  3.2163 -2.6037
  590MOL0     H81408   2.830   7.739   8.425 -0.8871 -1.8578 -2.5331
  590MOL0     H81409   2.874   7.587   8.506  2.3385 -1.2779  0.4627
  590MOL0     H81410   3.021   7.706   8.644 -0.3137 -0.2648 -0.1366
  590MOL0     H81411   2.974   7.849   8.542 -1.6071 -1.3428  0.8447
  590MOL0     H81412   3.180   7.642   8.460  3.4759  0.2086  1.4379
  590MOL0     H81413   3.168   7.797   8.394  2.6622  1.1332  1.4280
  590MOL0     H81414   3.255   7.889   8.611  3.5811  0.5292 -2.1319
  590MOL0     H81415   3.364   7.798   8.518  1.5140 -0.0938  2.3553
  590MOL0     H81416   3.368   7.566   8.855 -0.8621 -0.4497 -0.7309
  590MOL0     H81417   3.028   7.503   8.112  0.4678 -3.1319 -1.7371
  590MOL0     H81418   2.810   7.367   7.851 -1.2187  1.5811 -0.0024
  590MOL0     H81419   2.975   7.401   7.889 -1.0867 -2.5869 -4.6019
  590MOL0     H81420   2.908   7.242   7.943 -1.1655  0.0757  2.4052
  591MOL0     O81421   3.982   8.513   2.254 -0.3069  0.0805  0.4036
  591MOL0     C81422   4.011   8.615   2.316 -0.3226  0.5638  0.7831
  591MOL0     O81423   4.131   8.671   2.309  0.0149  0.3101 -0.4587
  591MOL0     C81424   4.235   8.620   2.246 -0.0690  0.0392  1.2353
  591MOL0     C81425   4.249   8.664   2.115  0.4010 -0.1698  0.6960
  591MOL0     C81426   4.368   8.629   2.041  0.4334 -0.6961  0.6469
  591MOL0     C81427   4.456   8.527   2.083 -0.1255  0.1521 -0.3716
  591MOL0     O81428   4.559   8.469   2.020  0.1794  0.1451 -0.2778
  591MOL0     C81429   4.611   8.531   1.896 -0.2688 -0.0446  0.0265
  591MOL0     C81430   4.758   8.489   1.889 -0.3523  0.0023 -1.0083
  591MOL0     C81431   4.768   8.344   1.840  0.4263  0.3538  0.4313
  591MOL0     C81432   4.848   8.243   1.929  0.0283 -0.0802  0.6756
  591MOL0     C81433   4.841   8.106   1.866  0.6392 -0.0418 -0.3242
  591MOL0     C81434   4.974   8.031   1.875 -0.1654 -0.4733  0.7675
  591MOL0     C81435   5.091   8.074   1.786 -0.4144  0.8633 -0.2702
  591MOL0     C81436   5.094   8.006   1.649 -0.3030  0.6390  0.3042
  591MOL0     N81437   5.209   8.061   1.563 -0.0536  0.2593 -0.4656
  591MOL0     C81438   5.341   8.074   1.597  0.2160 -0.8191 -0.5898
  591MOL0     C81439   5.402   8.119   1.485  0.0967  0.4570  0.3095
  591MOL0     C81440   5.549   8.150   1.473 -0.3753 -0.2151  0.6531
  591MOL0     C81441   5.638   8.106   1.350 -0.5937  0.1103  0.1237
  591MOL0     C81442   5.585   8.137   1.209  0.5997 -0.1969  0.7891
  591MOL0     C81443   5.595   8.287   1.181  1.3523  0.5345  0.1213
  591MOL0     O81444   5.536   8.318   1.054 -0.3688  0.9735 -0.2288
  591MOL0     C81445   5.602   8.310   0.933  0.3206  0.1188 -0.2008
  591MOL0     C81446   5.534   8.353   0.815  0.2741 -0.2920  0.1310
  591MOL0     C81447   5.594   8.337   0.693  0.9663 -0.0398  1.0076
  591MOL0     C81448   5.519   8.386   0.576 -0.0999 -0.3262 -0.0147
  591MOL0     C81449   5.728   8.287   0.682  0.6475 -0.0496  0.2245
  591MOL0     C81450   5.782   8.262   0.548 -0.1620  0.3869 -0.7832
  591MOL0     O81451   5.781   8.369   0.463 -0.5245  0.6206 -0.2870
  591MOL0     C81452   5.853   8.356   0.350 -0.4850 -0.6784  0.3207
  591MOL0     C81453   5.973   8.430   0.332  0.4741 -0.8629  0.8100
  591MOL0     C81454   6.060   8.417   0.221 -0.6527 -0.7247 -0.6249
  591MOL0     C81455   6.021   8.331   0.123 -0.1674 -0.5156  0.1516
  591MOL0     O81456   6.076   8.326  -0.001 -0.0153  0.5101  0.1630
  591MOL0     C81457   6.198   8.245  -0.007  1.4000 -0.1265 -0.6498
  591MOL0     C81458   6.265   8.247  -0.140 -0.4191  0.1328 -0.0404
  591MOL0     C81459   6.219   8.121  -0.210  0.7006 -0.0353 -0.4090
  591MOL0     C81460   6.285   8.135  -0.351 -0.8406  0.2919  0.0248
  591MOL0     C81461   6.235   8.022  -0.442  0.4240 -0.1419 -0.2067
  591MOL0     C81462   6.303   8.029  -0.582 -0.7816  0.2587  0.6954
  591MOL0     C81463   6.286   8.165  -0.663  0.0195 -0.7429 -0.2488
  591MOL0     C81464   6.142   8.195  -0.706  0.0049  0.1460  0.3276
  591MOL0    Cl81465   6.144   8.312  -0.833  0.2948  0.3357  0.1216
  591MOL0     C81466   5.905   8.251   0.142  0.4556 -0.0715 -0.7448
  591MOL0     C81467   5.822   8.267   0.256  0.8289  0.1142 -0.1024
  591MOL0     O81468   5.834   8.155   0.538 -0.9170 -0.2641 -0.0554
  591MOL0     C81469   5.794   8.252   0.797 -0.0578 -0.5318 -0.6708
  591MOL0     C81470   5.732   8.261   0.920 -0.1678  0.6686  0.3343
  591MOL0     N81471   5.305   8.137   1.389 -0.1079  0.4138  1.2009
  591MOL0     N81472   5.191   8.108   1.442  0.1429 -0.0305 -0.2231
  591MOL0     C81473   4.434   8.480   2.218 -1.1443  1.0346  0.0121
  591MOL0     C81474   4.327   8.531   2.296  0.8330 -0.1283  0.1017
  591MOL0     C81475   3.908   8.685   2.408 -0.6267  0.2573  0.3461
  591MOL0     C81476   3.930   8.809   2.465 -0.2964 -0.2197  0.3997
  591MOL0     C81477   3.841   8.870   2.543  0.2629 -0.4667 -0.7135
  591MOL0     C81478   3.718   8.809   2.578  0.0131  0.3415  0.2186
  591MOL0     O81479   3.612   8.863   2.639 -0.4299  0.0014  0.3342
  591MOL0     C81480   3.634   8.940   2.750 -0.2963 -0.5884 -0.2495
  591MOL0     C81481   3.590   8.865   2.872  0.5636  0.6714 -0.6515
  591MOL0     C81482   3.697   8.762   2.916 -0.8725  0.4625  0.0281
  591MOL0     C81483   3.670   8.617   2.880 -0.6044  0.4923 -1.0343
  591MOL0     C81484   3.763   8.534   2.958  0.1045 -0.5969  1.1173
  591MOL0     C81485   3.829   8.458   3.027 -0.2081 -0.4896 -0.2807
  591MOL0     C81486   3.691   8.690   2.513  0.1612 -0.5412  0.6457
  591MOL0     C81487   3.787   8.616   2.443 -0.1965 -0.4008  0.3851
  591MOL0     C81488   3.753   8.473   2.417  0.2350 -0.3108  0.6390
  591MOL0     H81489   4.184   8.735   2.065  1.3911  0.4804  0.3182
  591MOL0     H81490   4.391   8.681   1.949  1.4011 -0.8723  0.7814
  591MOL0     H81491   4.602   8.640   1.891 -0.8969 -0.0784  0.3496
  591MOL0     H81492   4.543   8.501   1.815  0.4691  4.7191 -2.7170
  591MOL0     H81493   4.816   8.564   1.834  1.8597 -1.8003 -1.2935
  591MOL0     H81494   4.791   8.494   1.994 -0.6768 -1.4936 -0.8168
  591MOL0     H81495   4.671   8.317   1.797  0.4921  0.1318  0.4223
  591MOL0     H81496   4.843   8.341   1.761 -0.1988 -1.8845 -0.1479
  591MOL0     H81497   4.955   8.266   1.931  0.6202 -2.4155 -0.5645
  591MOL0     H81498   4.815   8.235   2.033  1.2652 -2.6744  0.9378
  591MOL0     H81499   4.802   8.108   1.763 -2.3500  2.0233  0.7355
  591MOL0     H81500   4.766   8.052   1.925 -0.3958  1.2407 -0.4319
  591MOL0     H81501   5.015   8.062   1.972  0.9967  0.0550  0.1302
  591MOL0     H81502   4.947   7.925   1.872 -1.9408 -0.0412  0.2823
  591MOL0     H81503   5.168   8.024   1.845 -0.2625 -0.1045 -1.2392
  591MOL0     H81504   5.101   8.183   1.789  0.3694  0.7798  0.6217
  591MOL0     H81505   5.104   7.898   1.666 -0.8167  0.7105  1.1215
  591MOL0     H81506   4.996   8.011   1.601 -0.1068 -0.4561 -0.2455
  591MOL0     H81507   5.386   8.050   1.693 -0.3612 -0.3838 -0.2044
  591MOL0     H81508   5.590   8.102   1.562 -1.4972 -1.1134  0.7130
  591MOL0     H81509   5.573   8.255   1.492 -2.0005  0.2944  0.1085
  591MOL0     H81510   5.740   8.143   1.364 -0.9534  0.8138  0.9856
  591MOL0     H81511   5.652   7.998   1.352  1.4668  0.3309 -0.2693
  591MOL0     H81512   5.638   8.094   1.124 -0.1539 -0.9461  0.6891
  591MOL0     H81513   5.478   8.114   1.216 -0.5888  4.2056  0.5270
  591MOL0     H81514   5.528   8.333   1.254 -1.5506 -1.5800 -1.0323
  591MOL0     H81515   5.698   8.323   1.193  1.5345 -0.5821  2.3742
  591MOL0     H81516   5.438   8.401   0.825  0.1431  0.0367 -2.1805
  591MOL0     H81517   5.502   8.303   0.506 -0.0171 -0.5488  0.2303
  591MOL0     H81518   5.579   8.458   0.518 -0.0030  0.2403  0.7749
  591MOL0     H81519   5.429   8.438   0.608 -0.5743 -0.1652 -1.5075
  591MOL0     H81520   6.000   8.509   0.402  1.5065 -1.4644  1.1058
  591MOL0     H81521   6.157   8.464   0.207 -1.2018  1.0108  1.0477
  591MOL0     H81522   6.259   8.283   0.076 -2.0977  2.0691  1.2249
  591MOL0     H81523   6.173   8.145   0.029 -1.9356  0.7142 -0.2574
  591MOL0     H81524   6.233   8.338  -0.192  0.8998 -0.4154 -1.9053
  591MOL0     H81525   6.372   8.261  -0.122 -0.5618 -2.1363  3.5427
  591MOL0     H81526   6.112   8.101  -0.220  1.0055 -2.1688  0.0442
  591MOL0     H81527   6.268   8.037  -0.162  0.4311  0.9759  1.7418
  591MOL0     H81528   6.394   8.143  -0.357 -0.8657  0.5158 -0.1399
  591MOL0     H81529   6.247   8.230  -0.389  0.5924  0.1308 -1.9663
  591MOL0     H81530   6.252   7.923  -0.398  1.1195  0.1792  0.2745
  591MOL0     H81531   6.126   8.037  -0.441 -0.0231 -2.8587  0.3510
  591MOL0     H81532   6.267   7.946  -0.644 -2.3671 -0.1149  2.0510
  591MOL0     H81533   6.410   8.020  -0.563 -1.3116 -2.1880  3.4003
  591MOL0     H81534   6.348   8.145  -0.750  0.8638 -2.1693  0.6312
  591MOL0     H81535   6.313   8.258  -0.613 -3.4723  0.0472  0.4131
  591MOL0     H81536   6.089   8.234  -0.620 -1.1037  0.8727 -0.6547
  591MOL0     H81537   6.094   8.107  -0.750 -2.3350  1.1654  0.7110
  591MOL0     H81538   5.884   8.171   0.071  0.8143 -0.8740  0.0387
  591MOL0     H81539   5.726   8.217   0.270  0.0006  1.6478  0.0411
  591MOL0     H81540   5.887   8.199   0.812 -1.1097 -1.6142  2.9876
  591MOL0     H81541   5.778   8.211   1.004 -0.6076 -1.2447 -0.5048
  591MOL0     H81542   4.495   8.409   2.273 -1.3174 -1.2330 -2.5355
  591MOL0     H81543   4.313   8.512   2.403 -3.5248 -0.2358 -0.2956
  591MOL0     H81544   4.025   8.859   2.447 -0.3261 -0.5849 -0.8143
  591MOL0     H81545   3.871   8.971   2.567  1.7368 -1.2564  0.9930
  591MOL0     H81546   3.735   8.979   2.762 -0.2945  0.8522 -3.8393
  591MOL0     H81547   3.582   9.035   2.738 -0.8534 -1.1824 -3.8243
  591MOL0     H81548   3.492   8.819   2.862  1.4397 -1.0730 -1.6857
  591MOL0     H81549   3.576   8.940   2.950  2.6960 -1.5769  2.1444
  591MOL0     H81550   3.795   8.789   2.875 -0.0411 -2.0798  0.1665
  591MOL0     H81551   3.698   8.764   3.025 -2.2709  1.1297  0.0518
  591MOL0     H81552   3.691   8.599   2.774 -1.7092 -1.1888 -1.0105
  591MOL0     H81553   3.568   8.584   2.898  0.1709 -1.8465 -0.5667
  591MOL0     H81554   3.890   8.393   3.086  1.9992  3.2103  1.8841
  591MOL0     H81555   3.594   8.645   2.528 -1.1896  2.3941  1.3967
  591MOL0     H81556   3.836   8.405   2.395 -1.4146 -2.7806  1.5710
  591MOL0     H81557   3.710   8.440   2.512 -0.6025 -2.7474 -0.4893
  591MOL0     H81558   3.671   8.463   2.345  0.1846 -1.5496  0.8328
  592MOL0     O81559   8.422   7.428   1.899  0.4168  0.2978 -1.1047
  592MOL0     C81560   8.358   7.510   1.829 -0.1918  0.1554  0.0955
  592MOL0     O81561   8.405   7.635   1.795  0.4830 -0.0712  0.6720
  592MOL0     C81562   8.503   7.696   1.863 -0.2876  0.1440 -1.2830
  592MOL0     C81563   8.544   7.668   2.000  0.5849 -0.4345 -0.4507
  592MOL0     C81564   8.633   7.765   2.058  0.5306  0.6836 -0.3258
  592MOL0     C81565   8.678   7.871   1.997 -0.0407  1.2880  0.5931
  592MOL0     O81566   8.769   7.957   2.049  0.6922 -0.1635 -0.5149
  592MOL0     C81567   8.885   7.900   2.119 -0.3479 -1.5218  0.5893
  592MOL0     C81568   8.988   7.872   2.003  0.6312  0.2125 -0.4437
  592MOL0     C81569   9.027   8.004   1.926  0.6066  0.2819 -0.6120
  592MOL0     C81570   9.162   8.003   1.876  0.6629 -0.1225 -0.7891
  592MOL0     C81571   9.180   8.100   1.763  0.6916 -0.2364  0.4334
  592MOL0     C81572   9.125   8.052   1.629  0.3191 -0.1508 -0.4682
  592MOL0     C81573   9.077   8.175   1.548 -0.2789  0.4681 -1.1069
  592MOL0     C81574   9.010   8.128   1.421  0.4537  0.5381 -0.6539
  592MOL0     N81575   8.889   8.041   1.450  0.3385 -0.5252 -0.5060
  592MOL0     C81576   8.806   7.987   1.356  0.1553  0.4728 -0.1650
  592MOL0     C81577   8.708   7.928   1.426 -0.2421 -0.2798  1.0107
  592MOL0     C81578   8.579   7.875   1.369  0.3499  0.1696  0.5040
  592MOL0     C81579   8.471   7.987   1.332 -0.9759 -0.3624  0.1598
  592MOL0     C81580   8.320   7.925   1.315 -0.5418 -0.0145 -0.1773
  592MOL0     C81581   8.312   7.856   1.179 -0.2250 -0.7425 -0.3182
  592MOL0     O81582   8.335   7.948   1.072  0.0171  0.1694  0.2514
  592MOL0     C81583   8.341   7.901   0.941  0.4664 -0.0459 -0.1544
  592MOL0     C81584   8.299   7.771   0.900 -0.0380  0.1584 -0.8753
  592MOL0     C81585   8.302   7.730   0.763  0.4237 -0.4480  0.3812
  592MOL0     C81586   8.252   7.588   0.735  0.4613 -0.5339  1.0179
  592MOL0     C81587   8.341   7.831   0.660  0.2016  0.3195 -0.0083
  592MOL0     C81588   8.339   7.805   0.516 -0.0105 -0.5462  0.3272
  592MOL0     O81589   8.361   7.914   0.432  0.8108  0.3446  0.7324
  592MOL0     C81590   8.438   7.882   0.327  0.1510  0.6459 -0.2499
  592MOL0     C81591   8.405   7.925   0.196  0.2013 -0.5988 -0.7309
  592MOL0     C81592   8.509   7.919   0.101  0.0489  0.2760  0.5320
  592MOL0     C81593   8.641   7.876   0.124  1.1080  0.3566 -0.2486
  592MOL0     O81594   8.732   7.872   0.016  0.3343  0.2140  0.2234
  592MOL0     C81595   8.793   7.742  -0.007 -0.3746 -0.9125 -0.8713
  592MOL0     C81596   8.925   7.745  -0.084  0.0813  0.9297  1.1234
  592MOL0     C81597   9.041   7.797   0.004 -0.1127  0.4043 -0.3495
  592MOL0     C81598   9.166   7.798  -0.079 -0.3354 -0.1266 -0.5458
  592MOL0     C81599   9.295   7.845  -0.002  0.2326 -0.5207  0.6946
  592MOL0     C81600   9.411   7.859  -0.085 -0.6119  0.1887 -0.8265
  592MOL0     C81601   9.548   7.808  -0.041 -0.5085 -0.3814 -0.5773
  592MOL0     C81602   9.594   7.865   0.091 -0.8020 -1.1721  0.2712
  592MOL0    Cl81603   9.758   7.802   0.120 -0.7159  0.1254  0.0507
  592MOL0     C81604   8.671   7.828   0.253  1.2551 -0.5601  0.5366
  592MOL0     C81605   8.568   7.828   0.350  0.5766  0.1088  0.2223
  592MOL0     O81606   8.329   7.693   0.473  0.2194  1.0274  0.4275
  592MOL0     C81607   8.383   7.957   0.706  0.4505  1.1158 -0.4267
  592MOL0     C81608   8.392   7.986   0.841  0.0776  0.1757  0.5091
  592MOL0     N81609   8.724   7.953   1.558 -0.0325  0.3205 -0.4961
  592MOL0     N81610   8.834   8.018   1.572  0.2468 -0.2838 -0.6721
  592MOL0     C81611   8.633   7.896   1.869  0.0206  0.9736 -1.5088
  592MOL0     C81612   8.549   7.813   1.801 -0.2496  1.3044  0.7289
  592MOL0     C81613   8.212   7.467   1.785  0.0705 -0.0540  0.0482
  592MOL0     C81614   8.165   7.521   1.667 -0.1762 -0.9286  0.5735
  592MOL0     C81615   8.041   7.473   1.608 -0.5092  0.6525  0.1833
  592MOL0     C81616   7.982   7.367   1.663  0.3397 -0.5220 -0.7299
  592MOL0     O81617   7.863   7.322   1.615 -0.1299 -1.0097 -0.3429
  592MOL0     C81618   7.871   7.199   1.548 -0.4972 -0.4553 -0.4290
  592MOL0     C81619   7.776   7.103   1.612 -0.1130 -0.4995 -0.4696
  592MOL0     C81620   7.634   7.133   1.565 -0.0498 -0.1613  0.2320
  592MOL0     C81621   7.540   7.053   1.656  0.2488  0.5605 -0.4689
  592MOL0     C81622   7.421   7.008   1.592  0.6564  0.5190  0.2769
  592MOL0     C81623   7.328   6.975   1.517  0.0426 -0.9285 -0.1418
  592MOL0     C81624   8.022   7.324   1.788  0.4027  0.2796  1.5827
  592MOL0     C81625   8.129   7.381   1.851 -0.6018  0.2128 -0.6219
  592MOL0     C81626   8.169   7.323   1.989  0.5448  0.0507 -0.2872
  592MOL0     H81627   8.505   7.583   2.055 -0.5895  0.7197  0.5730
  592MOL0     H81628   8.660   7.747   2.162  0.7377  1.1348 -0.2949
  592MOL0     H81629   8.864   7.809   2.176  0.9618 -0.1265  3.4637
  592MOL0     H81630   8.918   7.977   2.189  0.0780 -1.3526  0.2088
  592MOL0     H81631   9.081   7.826   2.039  0.9249  2.3378  1.8060
  592MOL0     H81632   8.947   7.806   1.926  0.1199  1.2293 -1.0683
  592MOL0     H81633   8.951   8.021   1.849  0.1500  0.0657 -0.2148
  592MOL0     H81634   9.032   8.084   2.001 -2.0213  0.3658 -0.4355
  592MOL0     H81635   9.226   8.034   1.960 -3.8091  2.0936  2.1988
  592MOL0     H81636   9.192   7.899   1.862 -0.3379 -1.1437  3.1938
  592MOL0     H81637   9.287   8.117   1.748  0.8054 -0.4196  1.0207
  592MOL0     H81638   9.139   8.198   1.792 -2.0938 -0.4503 -2.2339
  592MOL0     H81639   9.220   8.031   1.579  1.3560 -0.1642  1.4019
  592MOL0     H81640   9.061   7.964   1.639 -0.5382  0.6864  2.6952
  592MOL0     H81641   9.170   8.228   1.527  0.0132  0.3609 -0.1382
  592MOL0     H81642   9.012   8.242   1.606  1.0258  0.7178  0.1185
  592MOL0     H81643   8.974   8.218   1.371 -1.1593  0.4682  0.3368
  592MOL0     H81644   9.079   8.060   1.370 -0.1350  1.1464 -2.3448
  592MOL0     H81645   8.818   7.998   1.248 -0.6352  0.6177 -0.2445
  592MOL0     H81646   8.547   7.811   1.451  3.2673 -1.0038  0.8188
  592MOL0     H81647   8.595   7.814   1.280 -1.2950 -0.5554  0.6623
  592MOL0     H81648   8.480   8.070   1.401  3.4332  0.3890 -1.0108
  592MOL0     H81649   8.498   8.038   1.239 -2.0984  0.8645  0.4878
  592MOL0     H81650   8.301   7.843   1.384 -0.7983  0.4105  0.2688
  592MOL0     H81651   8.235   7.993   1.320  0.1481  0.8430  0.1453
  592MOL0     H81652   8.397   7.787   1.181 -0.6738 -1.3049  1.4972
  592MOL0     H81653   8.217   7.802   1.178 -1.1472  0.8150 -1.8008
  592MOL0     H81654   8.261   7.708   0.980 -0.1937 -0.1647 -1.1988
  592MOL0     H81655   8.335   7.548   0.675 -0.2445 -0.7511  0.1695
  592MOL0     H81656   8.163   7.578   0.672  2.8563 -2.6402 -2.4003
  592MOL0     H81657   8.244   7.530   0.828 -1.0984  2.2902  2.7630
  592MOL0     H81658   8.314   7.977   0.169 -2.0367 -3.6255  0.5068
  592MOL0     H81659   8.491   7.963   0.003  1.9881  0.1243  0.0548
  592MOL0     H81660   8.812   7.695   0.090 -0.6689 -1.2323 -0.9660
  592MOL0     H81661   8.717   7.688  -0.065  0.5781 -1.8580 -1.2643
  592MOL0     H81662   8.943   7.643  -0.121 -2.1003  0.7986  0.2847
  592MOL0     H81663   8.916   7.810  -0.171  2.6318  1.2018  0.9708
  592MOL0     H81664   9.056   7.729   0.088  0.2665  1.8091  0.7540
  592MOL0     H81665   9.036   7.899   0.042  1.4386  1.0731 -1.8166
  592MOL0     H81666   9.149   7.864  -0.164 -0.9902  0.2972 -0.1024
  592MOL0     H81667   9.182   7.695  -0.112  0.9666 -0.5328  1.2046
  592MOL0     H81668   9.259   7.941   0.036  0.4791 -0.3479  0.4947
  592MOL0     H81669   9.312   7.779   0.084 -1.2729  0.8384  2.1042
  592MOL0     H81670   9.414   7.962  -0.123 -1.3427 -0.6744 -3.4973
  592MOL0     H81671   9.394   7.808  -0.181  0.2025 -0.5861 -0.5697
  592MOL0     H81672   9.625   7.838  -0.113  1.8408 -0.1140  1.9005
  592MOL0     H81673   9.555   7.699  -0.039  1.6623 -0.2867 -1.1111
  592MOL0     H81674   9.518   7.835   0.164  0.1817 -0.0362  1.8163
  592MOL0     H81675   9.606   7.973   0.099  0.9115 -1.4399  2.0017
  592MOL0     H81676   8.773   7.807   0.286  1.8747  1.9143  0.3639
  592MOL0     H81677   8.603   7.795   0.448  1.5038 -0.4384 -0.2776
  592MOL0     H81678   8.408   8.030   0.630  0.3779  0.6849 -0.8749
  592MOL0     H81679   8.440   8.081   0.857  1.4372 -0.5656  0.9637
  592MOL0     H81680   8.668   7.977   1.806  2.5988 -1.2213 -3.1148
  592MOL0     H81681   8.509   7.832   1.702  1.7112 -1.6500 -0.7888
  592MOL0     H81682   8.220   7.594   1.610  0.4998 -0.9120  1.2397
  592MOL0     H81683   8.002   7.522   1.520  0.7473  0.3810 -0.5520
  592MOL0     H81684   7.857   7.226   1.443  2.5199 -1.7299 -1.2931
  592MOL0     H81685   7.971   7.154   1.545  0.8312  1.5680  4.3078
  592MOL0     H81686   7.771   7.110   1.721 -0.2922  0.9455 -0.5512
  592MOL0     H81687   7.796   6.998   1.590 -0.1035 -0.3051 -1.4752
  592MOL0     H81688   7.618   7.240   1.574 -1.7193 -0.4333  0.9289
  592MOL0     H81689   7.639   7.098   1.461  1.5836  0.1692  0.1693
  592MOL0     H81690   7.503   7.126   1.729  1.9937 -1.4011  2.5788
  592MOL0     H81691   7.580   6.977   1.723 -3.6890 -0.4810  0.9970
  592MOL0     H81692   7.245   6.950   1.454 -0.9453  0.2710  0.6395
  592MOL0     H81693   7.956   7.255   1.838  0.0967 -1.0429 -0.5229
  592MOL0     H81694   8.079   7.278   2.031  0.4526 -1.9598 -2.4115
  592MOL0     H81695   8.241   7.240   1.988 -0.4926 -0.9136  1.0596
  592MOL0     H81696   8.208   7.402   2.054  0.7053  0.5904 -1.0290
  593MOL0     O81697   7.979   4.250   0.964 -0.6071  0.6972 -0.2556
  593MOL0     C81698   8.004   4.334   1.049 -0.7205 -0.1747 -0.4102
  593MOL0     O81699   8.046   4.311   1.181 -0.1413 -0.5499  0.5260
  593MOL0     C81700   8.038   4.178   1.224  1.3942  0.8323  0.2229
  593MOL0     C81701   8.135   4.078   1.229 -0.2045 -0.0190 -0.1495
  593MOL0     C81702   8.118   3.968   1.312  0.0658 -0.3861 -0.3831
  593MOL0     C81703   7.990   3.934   1.371  0.1587  1.0753  0.2134
  593MOL0     O81704   7.969   3.824   1.449 -0.8430  0.7752  0.8929
  593MOL0     C81705   7.983   3.868   1.588 -0.5276  0.2035  0.8073
  593MOL0     C81706   7.927   3.759   1.678 -1.3424  0.3032 -0.2298
  593MOL0     C81707   7.970   3.615   1.638 -0.0049  0.2243 -0.8948
  593MOL0     C81708   8.121   3.593   1.609 -0.4803 -1.3483  1.7405
  593MOL0     C81709   8.176   3.450   1.654  0.1743 -0.4019  1.0350
  593MOL0     C81710   8.327   3.447   1.619  0.8281 -0.9300 -0.2024
  593MOL0     C81711   8.369   3.463   1.480  1.1820 -0.3597  0.9066
  593MOL0     C81712   8.524   3.459   1.474  0.2650  0.4022  0.1722
  593MOL0     N81713   8.582   3.496   1.346  0.3446 -0.0262 -0.7783
  593MOL0     C81714   8.596   3.412   1.235  0.5151  0.6410  0.0546
  593MOL0     C81715   8.653   3.490   1.140 -0.1369  0.9704  0.0950
  593MOL0     C81716   8.686   3.448   0.996 -0.0847 -0.3303  0.1008
  593MOL0     C81717   8.837   3.425   0.980  0.5474  0.1283 -0.6055
  593MOL0     C81718   8.868   3.337   0.856 -0.3837 -0.6101  0.1609
  593MOL0     C81719   9.025   3.304   0.870  1.7734 -0.4463 -0.1736
  593MOL0     O81720   9.099   3.422   0.865 -0.3468 -1.0878  1.0966
  593MOL0     C81721   9.238   3.423   0.847  0.2462 -0.2387  0.1132
  593MOL0     C81722   9.313   3.303   0.849 -0.4020  0.3557 -0.3107
  593MOL0     C81723   9.455   3.306   0.829  0.1692  0.2678  0.4106
  593MOL0     C81724   9.528   3.185   0.838 -0.4004  0.4384 -0.3561
  593MOL0     C81725   9.518   3.427   0.796 -0.2653 -0.0044 -0.2236
  593MOL0     C81726   9.660   3.438   0.778 -0.0629  0.5424 -0.3758
  593MOL0     O81727   9.708   3.352   0.695 -0.2963 -0.3433  0.2799
  593MOL0     C81728   9.839   3.333   0.666 -0.2605  0.3955  0.6699
  593MOL0     C81729   9.872   3.270   0.536  0.1107 -1.0298  0.5823
  593MOL0     C81730  10.003   3.221   0.506 -0.1267 -1.2093 -1.2207
  593MOL0     C81731  10.097   3.237   0.614  0.0968  0.2677 -0.5293
  593MOL0     O81732  10.219   3.169   0.607  0.1975  0.5190  0.0452
  593MOL0     C81733  10.266   3.166   0.467  0.1561  0.0329  0.8542
  593MOL0     C81734  10.414   3.155   0.454  0.3365 -0.0485  0.8396
  593MOL0     C81735  10.454   3.121   0.306  0.7874 -0.8833 -0.3025
  593MOL0     C81736  10.565   3.021   0.299  0.3805  0.8562 -0.5422
  593MOL0     C81737  10.613   3.023   0.158 -0.3120  0.1532  0.3528
  593MOL0     C81738  10.707   2.913   0.117  0.0747 -0.4020 -0.6577
  593MOL0     C81739  10.776   2.959  -0.012 -0.2201  0.2005 -0.6010
  593MOL0     C81740  10.906   2.881  -0.029 -0.4424  0.8089 -0.9432
  593MOL0    Cl81741  10.993   2.962  -0.161  0.1014  0.0831  0.0084
  593MOL0     C81742  10.070   3.306   0.725  0.4787  0.8315 -0.1070
  593MOL0     C81743   9.942   3.352   0.759 -0.8249 -0.8382  0.4959
  593MOL0     O81744   9.724   3.533   0.828 -0.4887  0.4863  0.1668
  593MOL0     C81745   9.440   3.542   0.791  0.0233  0.4357 -0.2746
  593MOL0     C81746   9.310   3.541   0.816  0.8279  0.3825  0.2355
  593MOL0     N81747   8.684   3.606   1.202 -1.0460 -0.1968 -1.3882
  593MOL0     N81748   8.649   3.604   1.334  0.2877 -0.7468  0.2111
  593MOL0     C81749   7.888   4.028   1.346 -0.0171  0.4247 -0.2920
  593MOL0     C81750   7.916   4.150   1.281  1.1996  0.0757 -0.7050
  593MOL0     C81751   7.968   4.477   1.019 -0.1387 -0.3628 -0.6149
  593MOL0     C81752   7.936   4.559   1.131  0.5041 -0.4491  0.3300
  593MOL0     C81753   7.932   4.700   1.121 -0.0155 -0.1641  0.2255
  593MOL0     C81754   7.948   4.762   0.996  0.4414 -0.0202  0.1422
  593MOL0     O81755   7.945   4.894   0.949  0.1184 -0.4057 -0.3503
  593MOL0     C81756   7.946   4.995   1.059 -0.2543 -0.0635 -0.3707
  593MOL0     C81757   7.830   5.082   1.018  0.0896 -0.6670  0.4385
  593MOL0     C81758   7.812   5.208   1.107 -0.6098  0.0752 -0.6198
  593MOL0     C81759   7.889   5.334   1.057  0.2703 -0.2686  0.0149
  593MOL0     C81760   7.806   5.398   0.947 -0.4898 -0.6584 -0.6625
  593MOL0     C81761   7.740   5.453   0.862 -0.3485 -0.5307 -0.3354
  593MOL0     C81762   7.976   4.678   0.883  0.2120 -0.2854 -0.0984
  593MOL0     C81763   7.984   4.539   0.896  0.3910  0.3017 -0.5937
  593MOL0     C81764   8.038   4.463   0.775  0.7094 -0.4091  1.8571
  593MOL0     H81765   8.231   4.096   1.181  0.5403  1.1764  1.6791
  593MOL0     H81766   8.201   3.898   1.324  1.8288  1.9412  2.4238
  593MOL0     H81767   7.918   3.952   1.613 -1.4562 -0.4954  0.7856
  593MOL0     H81768   8.087   3.901   1.603  0.3014 -2.2468  0.8302
  593MOL0     H81769   7.957   3.783   1.780  0.7359  0.3267 -0.7895
  593MOL0     H81770   7.821   3.767   1.654 -1.3878  1.6343  0.3382
  593MOL0     H81771   7.921   3.547   1.707  2.6118 -2.0506 -1.1032
  593MOL0     H81772   7.906   3.587   1.553  1.4281 -1.9535 -1.3201
  593MOL0     H81773   8.120   3.599   1.500 -0.6692  2.0995  1.8392
  593MOL0     H81774   8.186   3.668   1.655 -3.7859  2.3505  0.9407
  593MOL0     H81775   8.125   3.371   1.597  0.5684 -0.9890  1.4879
  593MOL0     H81776   8.151   3.442   1.760  1.2995  1.2844  1.4717
  593MOL0     H81777   8.383   3.519   1.680  0.8611 -0.2205 -1.0532
  593MOL0     H81778   8.365   3.345   1.631 -0.3047 -1.2687  0.7141
  593MOL0     H81779   8.339   3.561   1.443 -0.0150 -1.0706 -0.0685
  593MOL0     H81780   8.318   3.380   1.430 -2.4380 -0.5925  4.4559
  593MOL0     H81781   8.568   3.529   1.546 -1.2277  1.7636 -0.1960
  593MOL0     H81782   8.564   3.361   1.504 -2.0314 -1.1518 -1.4983
  593MOL0     H81783   8.561   3.310   1.226  1.5397  0.2543  0.2291
  593MOL0     H81784   8.648   3.516   0.919 -0.9829 -1.8138 -0.7937
  593MOL0     H81785   8.630   3.356   0.979 -0.1942 -0.8197  2.6535
  593MOL0     H81786   8.884   3.523   0.975  0.0874  0.4109  0.4233
  593MOL0     H81787   8.871   3.380   1.073 -0.0482  1.0935  0.0970
  593MOL0     H81788   8.815   3.242   0.870 -0.4127 -0.3593  2.2000
  593MOL0     H81789   8.844   3.384   0.761  0.4470  1.8061  1.0758
  593MOL0     H81790   9.054   3.263   0.968 -2.1986 -2.0224  0.5605
  593MOL0     H81791   9.053   3.232   0.793  1.7577  3.3171 -4.0623
  593MOL0     H81792   9.264   3.207   0.857 -0.3644  0.3464 -0.1876
  593MOL0     H81793   9.472   3.117   0.903  0.6039  1.3608  1.5727
  593MOL0     H81794   9.626   3.203   0.883 -0.6418  2.0182 -0.4134
  593MOL0     H81795   9.539   3.149   0.735 -0.0605 -1.7290  0.3781
  593MOL0     H81796   9.786   3.255   0.473 -3.1557  1.2928  4.0758
  593MOL0     H81797  10.025   3.178   0.408 -0.2711  0.4025 -1.9907
  593MOL0     H81798  10.215   3.078   0.427 -0.1486  0.0162  1.2809
  593MOL0     H81799  10.234   3.257   0.414 -1.2451  1.3878  3.7910
  593MOL0     H81800  10.460   3.252   0.479  0.9207  0.0499 -0.5219
  593MOL0     H81801  10.463   3.077   0.513  1.3331 -2.6632 -3.1185
  593MOL0     H81802  10.476   3.218   0.262  0.2444 -0.4397  0.3828
  593MOL0     H81803  10.363   3.081   0.259  1.6818  0.9240 -3.9953
  593MOL0     H81804  10.525   2.922   0.321  0.4089  1.6105  3.6612
  593MOL0     H81805  10.653   3.040   0.361 -1.4530  0.3789  2.3763
  593MOL0     H81806  10.527   3.029   0.092 -0.8141 -2.9518  0.5744
  593MOL0     H81807  10.672   3.115   0.148  1.0509 -0.8907 -1.9457
  593MOL0     H81808  10.647   2.822   0.108 -1.7280 -0.3440  5.6288
  593MOL0     H81809  10.779   2.897   0.199 -0.3151  0.7433 -0.0764
  593MOL0     H81810  10.795   3.067  -0.009  1.0640  0.0069  3.1879
  593MOL0     H81811  10.704   2.938  -0.091 -3.4674  0.4013  2.0804
  593MOL0     H81812  10.890   2.774  -0.040  3.2688 -0.2684  2.0046
  593MOL0     H81813  10.962   2.880   0.065 -1.2724  1.6575 -0.4052
  593MOL0     H81814  10.153   3.317   0.795  0.4505 -0.9159  0.2433
  593MOL0     H81815   9.910   3.398   0.853  1.0125  2.1910 -0.2347
  593MOL0     H81816   9.489   3.639   0.781  0.8220  0.1205  0.4952
  593MOL0     H81817   9.251   3.633   0.816 -1.7584 -1.1744 -0.2432
  593MOL0     H81818   7.797   4.016   1.405  0.3659 -5.9594 -0.2685
  593MOL0     H81819   7.842   4.229   1.279  1.1051  0.1532  2.0628
  593MOL0     H81820   7.921   4.514   1.229 -1.2382 -0.8264 -0.0795
  593MOL0     H81821   7.919   4.754   1.214  0.5087  0.7570 -0.2199
  593MOL0     H81822   7.930   4.951   1.158  0.9175  1.6501  0.6111
  593MOL0     H81823   8.033   5.060   1.067 -0.3896  0.4409 -2.4046
  593MOL0     H81824   7.736   5.026   1.017 -0.0531 -0.4271  0.2964
  593MOL0     H81825   7.846   5.125   0.919 -1.6384 -0.4011  0.2565
  593MOL0     H81826   7.706   5.235   1.105 -0.6216  0.8638  3.1571
  593MOL0     H81827   7.862   5.188   1.203  1.6226  1.1752 -1.4781
  593MOL0     H81828   7.982   5.312   1.004 -0.3485 -3.4655  0.0248
  593MOL0     H81829   7.912   5.396   1.143 -1.1803 -1.2835  1.1874
  593MOL0     H81830   7.687   5.519   0.795 -2.6604 -0.8588  1.0751
  593MOL0     H81831   8.015   4.707   0.786 -2.3016 -5.0350 -2.9422
  593MOL0     H81832   8.135   4.420   0.801  0.2825 -2.7196 -0.0963
  593MOL0     H81833   7.970   4.384   0.744 -0.3743  0.7182  1.2743
  593MOL0     H81834   8.051   4.532   0.692 -2.2488  1.9199  3.1423
  594MOL0     O81835   7.066   4.689   4.374 -0.1539 -0.1776 -0.5258
  594MOL0     C81836   7.102   4.806   4.388 -0.3693  0.8571 -0.4880
  594MOL0     O81837   7.151   4.887   4.287 -0.6911  0.0778  0.1207
  594MOL0     C81838   7.158   4.833   4.158 -0.1101  0.2524 -0.2181
  594MOL0     C81839   7.038   4.784   4.096  0.8571  0.7173 -0.0278
  594MOL0     C81840   7.039   4.720   3.966 -0.0516 -0.2591  0.2902
  594MOL0     C81841   7.158   4.705   3.892 -0.2979  0.0379 -0.8565
  594MOL0     O81842   7.149   4.628   3.776  0.2331 -0.0030  0.4162
  594MOL0     C81843   7.040   4.539   3.751 -0.1332  1.0944 -0.4110
  594MOL0     C81844   7.094   4.427   3.654 -0.7359  0.6155  0.0556
  594MOL0     C81845   7.152   4.482   3.522 -1.5831  0.0502  0.2806
  594MOL0     C81846   7.185   4.367   3.432 -0.0421 -0.0956 -0.3689
  594MOL0     C81847   7.222   4.408   3.290  0.3553 -0.6421 -0.3144
  594MOL0     C81848   7.319   4.526   3.289 -0.7640  0.0595  0.3340
  594MOL0     C81849   7.357   4.573   3.149 -0.5205 -0.0692  0.0320
  594MOL0     C81850   7.469   4.679   3.142 -0.7244 -0.5696  1.1584
  594MOL0     N81851   7.507   4.713   3.010  1.0647 -0.0171  0.0176
  594MOL0     C81852   7.531   4.614   2.914 -0.3928 -0.8313 -0.5088
  594MOL0     C81853   7.582   4.678   2.803  1.3419 -0.1509 -0.2876
  594MOL0     C81854   7.631   4.601   2.680  0.3209  0.4144 -0.0713
  594MOL0     C81855   7.544   4.648   2.557  1.0126  0.0243  0.0662
  594MOL0     C81856   7.591   4.596   2.425  0.2302  0.2376  0.1495
  594MOL0     C81857   7.609   4.439   2.428 -0.5383 -0.0223  0.3268
  594MOL0     O81858   7.486   4.378   2.479  0.1067  0.0055 -0.7943
  594MOL0     C81859   7.479   4.247   2.493  1.2013  0.1890 -0.2569
  594MOL0     C81860   7.571   4.141   2.443  0.0946  1.4951 -0.4324
  594MOL0     C81861   7.540   4.002   2.457 -0.2788 -0.6616  0.0131
  594MOL0     C81862   7.648   3.911   2.390 -0.2459 -0.0777 -0.7002
  594MOL0     C81863   7.430   3.962   2.526  0.0895  0.4856 -0.7610
  594MOL0     C81864   7.402   3.827   2.542  0.2115  0.3973  0.3291
  594MOL0     O81865   7.283   3.804   2.487 -0.0754  0.0932 -0.5931
  594MOL0     C81866   7.243   3.675   2.478 -0.6412  0.6891  0.3648
  594MOL0     C81867   7.281   3.605   2.360  0.5081 -0.9397  0.4518
  594MOL0     C81868   7.279   3.470   2.347  0.4256  0.2988 -0.1367
  594MOL0     C81869   7.210   3.398   2.453  0.2668  0.1856 -0.3653
  594MOL0     O81870   7.192   3.253   2.458 -0.2332 -0.4339 -0.3960
  594MOL0     C81871   7.236   3.179   2.342  0.0371  0.2019  0.6406
  594MOL0     C81872   7.178   3.042   2.346 -0.1896 -0.5553 -0.0036
  594MOL0     C81873   7.226   2.950   2.232 -0.0842  0.2101 -0.3885
  594MOL0     C81874   7.117   2.878   2.155  0.0103  0.2953 -0.9000
  594MOL0     C81875   7.178   2.743   2.108 -0.5081  0.2329 -0.0449
  594MOL0     C81876   7.072   2.670   2.029 -0.2130  0.0452  0.2742
  594MOL0     C81877   6.973   2.594   2.121 -1.0368 -0.3216  0.7367
  594MOL0     C81878   6.866   2.536   2.042 -0.6967 -0.0365  0.1560
  594MOL0    Cl81879   6.882   2.367   2.064 -0.4540  0.2543 -0.0126
  594MOL0     C81880   7.161   3.464   2.566  0.2299 -0.1534 -0.5735
  594MOL0     C81881   7.188   3.599   2.585  0.9544  0.0168  0.3802
  594MOL0     O81882   7.481   3.742   2.592 -1.0233 -0.6598  0.1027
  594MOL0     C81883   7.333   4.059   2.566  0.6964 -0.0694  0.0945
  594MOL0     C81884   7.360   4.194   2.548 -0.1989  0.3118  0.5106
  594MOL0     N81885   7.597   4.811   2.832 -0.1041 -0.9063 -0.1944
  594MOL0     N81886   7.552   4.830   2.952 -0.0954 -0.6587  0.7576
  594MOL0     C81887   7.276   4.757   3.952  0.6343 -0.6324  0.0757
  594MOL0     C81888   7.275   4.816   4.084 -0.2953  0.2095 -0.1322
  594MOL0     C81889   7.122   4.849   4.524 -0.2362  0.2665  0.0198
  594MOL0     C81890   7.254   4.881   4.568  0.1202 -0.3311 -0.3756
  594MOL0     C81891   7.277   4.904   4.709 -0.3606  1.0782 -0.2882
  594MOL0     C81892   7.165   4.901   4.796  0.9697  0.4578 -0.4460
  594MOL0     O81893   7.188   4.928   4.933  0.4831 -0.1202  0.9689
  594MOL0     C81894   7.080   4.971   5.028  0.0856  0.2655 -0.4572
  594MOL0     C81895   7.132   5.043   5.149 -1.2723 -0.0015  0.2496
  594MOL0     C81896   7.020   5.081   5.243 -0.3664  0.3634  0.7698
  594MOL0     C81897   6.952   5.215   5.202  0.2948 -0.0085 -0.7216
  594MOL0     C81898   6.824   5.223   5.279  0.0603 -0.1705 -0.0152
  594MOL0     C81899   6.728   5.239   5.346  0.2044  1.2170  0.2724
  594MOL0     C81900   7.039   4.874   4.752  0.7710  0.2918  0.7596
  594MOL0     C81901   7.015   4.852   4.616  0.0819  0.0727 -0.8712
  594MOL0     C81902   6.875   4.823   4.571  0.5814 -0.2567  0.5750
  594MOL0     H81903   6.941   4.808   4.139  0.9377  3.9597 -1.3879
  594MOL0     H81904   6.950   4.699   3.907  0.2647  0.0965 -0.3202
  594MOL0     H81905   6.939   4.573   3.726 -0.1265  0.1623 -1.8128
  594MOL0     H81906   7.020   4.480   3.841 -1.0003  1.4731 -0.3467
  594MOL0     H81907   7.162   4.357   3.704 -2.0268 -0.1732  0.7607
  594MOL0     H81908   7.005   4.365   3.638 -0.9502  0.6366  1.1047
  594MOL0     H81909   7.077   4.542   3.470 -1.5590 -0.3187 -0.1897
  594MOL0     H81910   7.246   4.526   3.556 -1.9318 -1.1169  2.9760
  594MOL0     H81911   7.272   4.321   3.478  0.3722  2.4428  1.5722
  594MOL0     H81912   7.102   4.295   3.429  2.5586 -3.2827 -1.3557
  594MOL0     H81913   7.134   4.452   3.241 -0.9950 -2.1006  0.7040
  594MOL0     H81914   7.252   4.321   3.231  1.5014  0.9231 -2.1632
  594MOL0     H81915   7.275   4.614   3.336 -3.1689  0.0548 -1.6952
  594MOL0     H81916   7.412   4.494   3.338  0.2525 -1.4755 -2.3853
  594MOL0     H81917   7.261   4.610   3.111 -2.0081 -0.6295  2.9988
  594MOL0     H81918   7.384   4.478   3.100 -0.5137  0.2780 -0.6438
  594MOL0     H81919   7.448   4.775   3.189  0.2364  1.1351 -1.6115
  594MOL0     H81920   7.556   4.648   3.201  0.8758  1.2201 -0.1316
  594MOL0     H81921   7.512   4.508   2.930 -0.9327 -0.8567 -1.2977
  594MOL0     H81922   7.614   4.493   2.693 -1.7360  0.7141  0.2054
  594MOL0     H81923   7.734   4.623   2.654  1.1389 -2.4266  0.4048
  594MOL0     H81924   7.439   4.627   2.582  2.1870 -2.7582  3.5564
  594MOL0     H81925   7.554   4.756   2.546  3.0031  0.0094  1.2769
  594MOL0     H81926   7.508   4.624   2.359 -0.4574 -0.3259  0.7543
  594MOL0     H81927   7.688   4.638   2.397  0.3079  1.8777  2.5803
  594MOL0     H81928   7.630   4.403   2.326  1.7533 -2.5313  1.5572
  594MOL0     H81929   7.694   4.413   2.491 -0.0166 -0.2336 -0.4398
  594MOL0     H81930   7.664   4.172   2.397  0.7943 -1.3368 -1.0993
  594MOL0     H81931   7.604   3.837   2.323 -1.1095 -1.2168  1.0747
  594MOL0     H81932   7.695   3.852   2.469  2.5198  1.0702 -1.3790
  594MOL0     H81933   7.721   3.970   2.333 -0.3652  0.0890 -0.6817
  594MOL0     H81934   7.321   3.664   2.278  0.2157 -1.3562  0.0021
  594MOL0     H81935   7.321   3.428   2.256  0.1157 -1.8226  0.6478
  594MOL0     H81936   7.198   3.225   2.251  0.1696 -2.0663 -0.6315
  594MOL0     H81937   7.345   3.180   2.349  0.1239  0.8518 -0.6102
  594MOL0     H81938   7.183   2.997   2.446 -1.1384  0.6244  0.6216
  594MOL0     H81939   7.071   3.064   2.337 -0.3063  1.3461  3.8181
  594MOL0     H81940   7.294   2.873   2.269  0.6204  0.7414 -0.5577
  594MOL0     H81941   7.279   3.000   2.150 -0.4398  1.4664  0.1149
  594MOL0     H81942   7.061   2.940   2.084 -2.2606 -0.3310  0.2326
  594MOL0     H81943   7.038   2.846   2.224  0.8613 -2.9878 -1.3022
  594MOL0     H81944   7.268   2.753   2.047  1.0504  1.6746  2.3527
  594MOL0     H81945   7.218   2.682   2.189  1.0532 -0.2207 -1.1274
  594MOL0     H81946   7.122   2.590   1.973  1.3595  0.4228  1.0760
  594MOL0     H81947   7.027   2.731   1.950  1.6394  1.2257  0.0756
  594MOL0     H81948   6.915   2.659   2.187 -3.1778  1.0173 -2.2064
  594MOL0     H81949   7.031   2.519   2.176 -2.5866 -2.8733 -0.9302
  594MOL0     H81950   6.868   2.558   1.935  1.1973 -2.1553 -0.3231
  594MOL0     H81951   6.778   2.587   2.082  0.0788  0.8718  0.7561
  594MOL0     H81952   7.103   3.415   2.643  2.0168  0.8968  1.5551
  594MOL0     H81953   7.153   3.652   2.672  3.0114  1.7690  0.2149
  594MOL0     H81954   7.245   4.042   2.628  0.7010  0.9537  0.4064
  594MOL0     H81955   7.279   4.261   2.577  0.4971  0.7756  1.4055
  594MOL0     H81956   7.371   4.761   3.900  0.2867  1.3794 -0.5109
  594MOL0     H81957   7.366   4.847   4.134 -0.7362  0.4060  0.5765
  594MOL0     H81958   7.339   4.886   4.502  2.0719  0.2677  2.0348
  594MOL0     H81959   7.377   4.921   4.749 -0.6615  1.0515  0.4950
  594MOL0     H81960   7.003   5.030   4.978 -0.2757 -0.1732 -0.4320
  594MOL0     H81961   7.027   4.881   5.062  0.4024 -0.4323 -1.7553
  594MOL0     H81962   7.189   5.132   5.122 -1.0861  0.6363  2.5323
  594MOL0     H81963   7.205   4.980   5.200  0.3077 -2.3471 -4.3076
  594MOL0     H81964   6.956   4.993   5.252  0.3029 -0.0078  2.0972
  594MOL0     H81965   7.069   5.100   5.339 -1.1837  3.9881  0.6201
  594MOL0     H81966   6.955   5.210   5.092  2.8955  0.7670 -0.7375
  594MOL0     H81967   7.004   5.305   5.232 -2.8215  0.3225  5.1131
  594MOL0     H81968   6.630   5.243   5.388 -1.1056 -1.2108 -2.2649
  594MOL0     H81969   6.958   4.877   4.825 -1.5435  1.5851 -1.6974
  594MOL0     H81970   6.849   4.859   4.472 -3.5961 -2.1123  0.7919
  594MOL0     H81971   6.851   4.716   4.572 -0.2477 -0.0758  0.1396
  594MOL0     H81972   6.798   4.870   4.633 -3.1711  0.2019 -3.9172
  595MOL0     O81973  11.358  10.057   3.397  0.1749 -0.5904 -0.8071
  595MOL0     C81974  11.409   9.944   3.385 -0.0386  0.1716 -0.5279
  595MOL0     O81975  11.429   9.890   3.267  0.0549 -0.2574 -0.0903
  595MOL0     C81976  11.437   9.964   3.147  0.4000  0.1839 -0.3921
  595MOL0     C81977  11.554  10.022   3.103 -0.0833 -0.7558  0.3270
  595MOL0     C81978  11.551  10.096   2.989  0.0046  0.7569  1.0797
  595MOL0     C81979  11.437  10.099   2.908 -0.5893 -0.6078 -0.0882
  595MOL0     O81980  11.434  10.154   2.783 -0.8816 -0.7744  0.0768
  595MOL0     C81981  11.557  10.201   2.729 -0.0916 -0.4963 -0.1467
  595MOL0     C81982  11.517  10.271   2.605  0.4198  0.4237 -0.7348
  595MOL0     C81983  11.467  10.425   2.629  0.5357  0.1608 -0.6848
  595MOL0     C81984  11.423  10.475   2.487  0.3951  0.0155 -0.2047
  595MOL0     C81985  11.376  10.620   2.499 -0.2897  0.2595 -0.9373
  595MOL0     C81986  11.331  10.688   2.369  0.3226  0.7821  0.1259
  595MOL0     C81987  11.416  10.676   2.251 -0.1475 -0.1738 -0.0980
  595MOL0     C81988  11.367  10.738   2.124 -0.6186 -0.4127  0.7337
  595MOL0     N81989  11.378  10.886   2.126  0.2265  0.0959  0.5727
  595MOL0     C81990  11.488  10.955   2.082  0.4851  0.5929 -0.1929
  595MOL0     C81991  11.452  11.085   2.108 -0.3757 -0.1452  1.1118
  595MOL0     C81992  11.534  11.207   2.090 -0.9112 -0.1742  0.5168
  595MOL0     C81993  11.696  11.200   2.070 -0.1950  0.1222 -0.4377
  595MOL0     C81994  11.765  11.320   2.002 -0.5056  0.0317  0.3850
  595MOL0     C81995  11.909  11.288   1.957  0.6935  0.9758 -0.4028
  595MOL0     O81996  11.999  11.402   1.955 -0.2584 -0.0689  0.4635
  595MOL0     C81997  12.016  11.460   1.835 -0.2301 -0.0639  0.3280
  595MOL0     C81998  11.943  11.446   1.713 -0.3555  1.0213  0.8681
  595MOL0     C81999  11.976  11.512   1.586 -0.3333  0.3578 -0.3877
  595MOL0     C82000  11.909  11.470   1.450  0.5756  0.0831  0.0560
  595MOL0     C82001  12.089  11.604   1.596 -0.2140 -0.2473 -0.3957
  595MOL0     C82002  12.144  11.679   1.478  0.1909 -0.8318  0.4245
  595MOL0     O82003  12.233  11.780   1.512 -0.4361  0.4248  0.3893
  595MOL0     C82004  12.258  11.890   1.430 -1.0089  0.2927 -0.6051
  595MOL0     C82005  12.166  11.941   1.331  0.2199  0.5475 -0.5446
  595MOL0     C82006  12.195  12.052   1.257  0.6124 -0.7281  0.5928
  595MOL0     C82007  12.310  12.122   1.280 -0.3577  0.5359  0.1815
  595MOL0     O82008  12.354  12.247   1.222  0.0653  0.2909 -0.4623
  595MOL0     C82009  12.294  12.292   1.104  0.6458 -0.4024  0.4570
  595MOL0     C82010  12.335  12.442   1.079 -0.0549  0.6971 -0.5208
  595MOL0     C82011  12.471  12.460   1.003  0.1476 -0.5305 -0.1521
  595MOL0     C82012  12.598  12.409   1.079  1.0690 -0.8095 -0.4476
  595MOL0     C82013  12.719  12.420   0.988  0.2698  0.6577  0.5816
  595MOL0     C82014  12.766  12.563   0.959  0.5971 -0.9117  0.7653
  595MOL0     C82015  12.910  12.586   0.905  0.2948 -1.3786  0.3169
  595MOL0     C82016  12.938  12.499   0.773  0.0211 -0.6374 -1.8225
  595MOL0    Cl82017  12.831  12.548   0.646  0.1696 -0.7786  0.3742
  595MOL0     C82018  12.408  12.070   1.371  0.4855 -0.1044 -0.0332
  595MOL0     C82019  12.379  11.958   1.452 -0.0822  0.2515  1.1194
  595MOL0     O82020  12.090  11.667   1.368 -0.5802  1.0896  0.3322
  595MOL0     C82021  12.140  11.632   1.725  0.2209 -0.2902  0.2773
  595MOL0     C82022  12.120  11.558   1.835  0.4087  0.2138  0.4536
  595MOL0     N82023  11.325  11.077   2.169 -0.0863  0.3359  0.9335
  595MOL0     N82024  11.279  10.960   2.168 -0.2065  0.1332 -0.0330
  595MOL0     C82025  11.315  10.032   2.946  0.5219  0.1080  0.6786
  595MOL0     C82026  11.323   9.967   3.071  0.1709  0.4111 -0.0021
  595MOL0     C82027  11.445   9.867   3.504  1.3949 -0.1394 -0.8144
  595MOL0     C82028  11.469   9.734   3.492 -0.1757  0.8873 -0.1363
  595MOL0     C82029  11.497   9.654   3.601  0.3868  0.5996  0.4609
  595MOL0     C82030  11.509   9.710   3.726  0.1363  0.1757  0.2901
  595MOL0     O82031  11.515   9.616   3.822  0.0876 -0.3399 -0.1246
  595MOL0     C82032  11.535   9.659   3.962  0.0910 -0.5314 -0.2753
  595MOL0     C82033  11.553   9.548   4.066  0.2440 -0.0171 -0.2022
  595MOL0     C82034  11.681   9.458   4.037 -0.0932 -0.1184  0.2144
  595MOL0     C82035  11.812   9.536   4.046 -0.4360  0.0715 -0.5327
  595MOL0     C82036  11.829   9.596   4.176 -0.6489 -0.8468 -0.0266
  595MOL0     C82037  11.853   9.644   4.281 -0.1713  0.6375  0.3753
  595MOL0     C82038  11.492   9.845   3.737  0.2534 -0.8544  0.5617
  595MOL0     C82039  11.463   9.931   3.632 -0.3227 -0.0477  0.0983
  595MOL0     C82040  11.479  10.078   3.647  0.2310 -0.5444 -0.7684
  595MOL0     H82041  11.647  10.021   3.160  1.9607  2.4834 -2.5655
  595MOL0     H82042  11.643  10.148   2.965  0.6392  1.0586  3.8039
  595MOL0     H82043  11.626  10.119   2.707  0.7707  0.3873 -0.8154
  595MOL0     H82044  11.622  10.266   2.787 -0.6506 -1.0236  1.1130
  595MOL0     H82045  11.605  10.274   2.540 -0.4835 -0.3075 -2.0348
  595MOL0     H82046  11.445  10.208   2.552 -1.2192  2.3527 -0.8930
  595MOL0     H82047  11.381  10.436   2.695  0.0011  0.4287 -1.4154
  595MOL0     H82048  11.543  10.485   2.679  0.3678  0.7582 -1.1403
  595MOL0     H82049  11.514  10.475   2.427  0.8071  0.3360  0.4093
  595MOL0     H82050  11.344  10.413   2.442  2.2950 -0.8290 -2.5567
  595MOL0     H82051  11.469  10.672   2.520 -0.1515  0.1236 -1.2074
  595MOL0     H82052  11.308  10.637   2.583 -1.8081  0.1720 -2.1014
  595MOL0     H82053  11.236  10.647   2.333  0.5802  0.7256 -0.5030
  595MOL0     H82054  11.307  10.792   2.392  2.5746  1.1516  1.0499
  595MOL0     H82055  11.438  10.570   2.236  1.3298  0.3589 -2.1434
  595MOL0     H82056  11.518  10.711   2.267  2.1529 -4.6599 -2.7133
  595MOL0     H82057  11.420  10.694   2.039  4.2580 -0.1273  3.2431
  595MOL0     H82058  11.260  10.719   2.111 -0.0979 -1.5558 -3.5708
  595MOL0     H82059  11.581  10.909   2.051  0.9903  0.4189  1.4479
  595MOL0     H82060  11.508  11.277   2.169 -1.4526 -1.2775  1.3560
  595MOL0     H82061  11.501  11.254   1.997  6.7045  0.8428 -2.4290
  595MOL0     H82062  11.740  11.192   2.170  0.3059 -1.2165 -0.7408
  595MOL0     H82063  11.733  11.116   2.011  2.8970  1.7637 -1.0550
  595MOL0     H82064  11.718  11.349   1.908 -0.9161 -0.2462  0.5005
  595MOL0     H82065  11.773  11.405   2.070 -0.2401  1.0738 -0.8954
  595MOL0     H82066  11.948  11.234   2.044  0.4180  3.4104  1.3354
  595MOL0     H82067  11.913  11.217   1.874  0.2621 -0.1592  0.5037
  595MOL0     H82068  11.869  11.367   1.714  1.9084 -1.2477  0.4027
  595MOL0     H82069  11.892  11.559   1.389  0.6722 -0.3260 -0.5701
  595MOL0     H82070  11.819  11.410   1.459 -1.1704  2.1979 -2.0737
  595MOL0     H82071  11.981  11.409   1.396  0.9646  1.0965 -0.6060
  595MOL0     H82072  12.075  11.892   1.300  0.8783 -1.2462  0.2417
  595MOL0     H82073  12.124  12.087   1.184 -0.8676 -0.5706  2.0505
  595MOL0     H82074  12.332  12.231   1.022  1.0282 -0.0103  0.3370
  595MOL0     H82075  12.186  12.297   1.121  0.5697  2.6542 -0.2947
  595MOL0     H82076  12.265  12.490   1.009  0.5346  0.4225 -1.3180
  595MOL0     H82077  12.339  12.496   1.174  1.3394 -0.0179 -0.1466
  595MOL0     H82078  12.481  12.564   0.970 -5.7657  0.0108 -1.3883
  595MOL0     H82079  12.467  12.399   0.912  0.1221  1.3121 -1.4405
  595MOL0     H82080  12.586  12.305   1.113  1.8227 -1.2169 -1.3846
  595MOL0     H82081  12.612  12.480   1.160 -2.5881  0.7757 -1.0214
  595MOL0     H82082  12.795  12.355   1.032 -0.4328  0.2759  1.2785
  595MOL0     H82083  12.691  12.384   0.889 -0.0682  2.0062  0.1621
  595MOL0     H82084  12.759  12.625   1.049  0.3674  2.9901 -1.6885
  595MOL0     H82085  12.699  12.600   0.880  2.0994  0.8360  0.2263
  595MOL0     H82086  12.985  12.554   0.978 -0.5053 -2.5189  0.6716
  595MOL0     H82087  12.914  12.692   0.880  1.1506 -1.0667  1.6752
  595MOL0     H82088  12.929  12.392   0.796 -1.2572 -0.3736 -0.9748
  595MOL0     H82089  13.041  12.504   0.738 -0.4451 -0.4114 -3.2316
  595MOL0     H82090  12.508  12.110   1.380  1.2778 -2.0780  0.6346
  595MOL0     H82091  12.453  11.908   1.513  0.1178 -0.2882  0.4375
  595MOL0     H82092  12.222  11.703   1.730  0.9579 -0.4474 -4.5153
  595MOL0     H82093  12.176  11.594   1.920 -2.5216  2.1095  1.7330
  595MOL0     H82094  11.228  10.027   2.881  0.8347  3.5309 -0.2072
  595MOL0     H82095  11.225   9.928   3.097 -1.8865  0.9442 -5.6474
  595MOL0     H82096  11.455   9.685   3.396  0.5358  0.2247  0.0923
  595MOL0     H82097  11.500   9.546   3.593  0.9050  0.6336  0.1386
  595MOL0     H82098  11.630   9.712   3.963  0.2249 -0.6715 -2.1503
  595MOL0     H82099  11.461   9.731   3.998  2.4020  1.8475 -0.0073
  595MOL0     H82100  11.458   9.494   4.073 -0.2280  0.8929  0.7369
  595MOL0     H82101  11.555   9.595   4.165 -2.7309 -0.2671  0.0688
  595MOL0     H82102  11.678   9.377   4.111 -1.5921 -0.5784 -0.3072
  595MOL0     H82103  11.674   9.407   3.940 -0.4260  0.7766 -0.2381
  595MOL0     H82104  11.818   9.624   3.982  1.3115  1.3907  1.3335
  595MOL0     H82105  11.899   9.475   4.018 -0.9621  0.1428 -2.4729
  595MOL0     H82106  11.862   9.703   4.370 -0.7885 -0.4027  1.1520
  595MOL0     H82107  11.490   9.901   3.830 -0.6025  0.1843 -0.0745
  595MOL0     H82108  11.377  10.110   3.667  1.1826  3.3629 -1.3837
  595MOL0     H82109  11.532  10.110   3.737 -2.6830  0.2921  0.7606
  595MOL0     H82110  11.521  10.139   3.566 -3.5899 -2.4340 -4.5406
  596MOL0     O82111  10.891   0.397   9.099 -0.2970 -0.0685  0.6488
  596MOL0     C82112  10.793   0.323   9.093 -0.7758  0.9439 -0.0272
  596MOL0     O82113  10.794   0.187   9.054 -0.4991  0.5398 -0.4926
  596MOL0     C82114  10.912   0.144   8.993  0.3658 -0.3464  0.1601
  596MOL0     C82115  10.950   0.181   8.853 -0.8466  0.2665 -0.2524
  596MOL0     C82116  11.072   0.157   8.801 -0.6897  0.1684  1.1014
  596MOL0     C82117  11.183   0.118   8.881 -0.2279  0.9878  0.2799
  596MOL0     O82118  11.294   0.103   8.817  0.0306  0.6676 -0.2354
  596MOL0     C82119  11.406   0.035   8.874 -0.1452  0.2035  0.6074
  596MOL0     C82120  11.526   0.071   8.787 -0.3707  0.9691 -0.2554
  596MOL0     C82121  11.532   0.210   8.731 -0.0267  0.2706 -0.1496
  596MOL0     C82122  11.678   0.254   8.713 -0.5458 -0.6544  0.0166
  596MOL0     C82123  11.704   0.405   8.685  0.0478 -0.4649 -0.0750
  596MOL0     C82124  11.663   0.498   8.790  0.4214 -0.1812 -0.0275
  596MOL0     C82125  11.670   0.640   8.743  0.2359 -0.8198 -0.7714
  596MOL0     C82126  11.811   0.703   8.781 -0.4636  0.0784 -0.0116
  596MOL0     N82127  11.832   0.718   8.924 -0.6324 -0.2953 -0.2008
  596MOL0     C82128  11.954   0.744   8.976  0.4702  0.7795 -0.4400
  596MOL0     C82129  11.927   0.782   9.105  0.2199  0.5933  0.6051
  596MOL0     C82130  12.032   0.864   9.182  0.3989 -0.1957  0.3831
  596MOL0     C82131  12.075   0.782   9.304 -0.4603 -0.0903 -0.6931
  596MOL0     C82132  12.170   0.660   9.271 -0.2549  0.0781  0.0759
  596MOL0     C82133  12.136   0.536   9.343  0.0385 -0.0959  1.0761
  596MOL0     O82134  12.209   0.423   9.280 -0.2441  1.1235  0.0390
  596MOL0     C82135  12.161   0.355   9.173  0.4753 -0.3907 -0.1281
  596MOL0     C82136  12.236   0.251   9.117 -0.6121  0.7698 -0.1607
  596MOL0     C82137  12.201   0.170   9.011 -0.5908  0.2974  1.1232
  596MOL0     C82138  12.292   0.045   8.982  0.0711  0.6000 -0.5254
  596MOL0     C82139  12.076   0.204   8.950 -0.8300 -0.3427 -0.0216
  596MOL0     C82140  12.008   0.096   8.867  0.7029  0.2637  0.0678
  596MOL0     O82141  11.996  -0.028   8.926 -0.0449  0.5222 -0.2630
  596MOL0     C82142  11.924  -0.125   8.854  0.0146 -0.4532 -0.1258
  596MOL0     C82143  11.996  -0.197   8.766  0.0898  0.5711  0.2727
  596MOL0     C82144  11.938  -0.304   8.703  0.7219 -0.0633  0.0439
  596MOL0     C82145  11.799  -0.333   8.713  0.2768 -0.4365 -0.5403
  596MOL0     O82146  11.725  -0.421   8.641 -0.9446 -0.3074  0.3107
  596MOL0     C82147  11.800  -0.518   8.560 -0.0353 -0.2320 -0.2683
  596MOL0     C82148  11.717  -0.598   8.463  0.0748  0.0600 -0.2251
  596MOL0     C82149  11.794  -0.690   8.379  0.2128  0.5268 -0.0227
  596MOL0     C82150  11.707  -0.778   8.301 -0.8150 -0.1196 -0.0306
  596MOL0     C82151  11.776  -0.893   8.230  0.4287  0.6191 -0.6706
  596MOL0     C82152  11.666  -1.002   8.203 -0.0620  0.1975 -0.6551
  596MOL0     C82153  11.722  -1.132   8.153  0.2531  0.0879 -0.3920
  596MOL0     C82154  11.659  -1.169   8.021 -0.8329 -0.0019 -0.8087
  596MOL0    Cl82155  11.710  -1.061   7.889  0.0220  0.5958 -0.4864
  596MOL0     C82156  11.729  -0.251   8.799 -0.1412 -0.3891 -0.5938
  596MOL0     C82157  11.789  -0.153   8.887 -0.7950 -0.4425  0.9429
  596MOL0     O82158  11.955   0.130   8.760 -0.0354 -0.2769  0.1008
  596MOL0     C82159  12.006   0.319   8.982  0.3814 -0.7398 -0.0247
  596MOL0     C82160  12.045   0.386   9.102  0.2188  0.1488 -0.0049
  596MOL0     N82161  11.793   0.751   9.135  0.6171 -0.2836 -0.0449
  596MOL0     N82162  11.734   0.719   9.029  0.7444 -0.2900  0.3550
  596MOL0     C82163  11.145   0.079   9.010  0.0271  0.0341 -0.2073
  596MOL0     C82164  11.014   0.084   9.065  0.0057 -1.1000  0.4272
  596MOL0     C82165  10.672   0.382   9.155  0.3334  0.5050  1.2184
  596MOL0     C82166  10.652   0.520   9.144 -1.3138 -0.0031  0.0818
  596MOL0     C82167  10.543   0.580   9.206 -0.4918  0.5435 -0.4394
  596MOL0     C82168  10.444   0.497   9.267  0.5174 -1.2260 -0.3168
  596MOL0     O82169  10.325   0.539   9.325  0.1825 -0.2447 -0.6304
  596MOL0     C82170  10.319   0.672   9.367 -0.2873  0.2497 -0.5000
  596MOL0     C82171  10.176   0.718   9.400 -0.0357  0.1474 -0.8907
  596MOL0     C82172  10.102   0.739   9.258 -0.0170 -0.3712 -0.5315
  596MOL0     C82173   9.963   0.669   9.273 -0.0839  0.0804 -0.2016
  596MOL0     C82174   9.908   0.666   9.134 -0.4314  0.3639  0.1191
  596MOL0     C82175   9.867   0.665   9.023  0.4667 -1.0876  0.9820
  596MOL0     C82176  10.462   0.366   9.275  0.3564  0.5372  0.3827
  596MOL0     C82177  10.583   0.298   9.230  0.5121  0.0639 -0.4884
  596MOL0     C82178  10.603   0.158   9.263  0.4693 -0.1863  1.3755
  596MOL0     H82179  10.882   0.233   8.786  0.5041 -0.3697 -2.1763
  596MOL0     H82180  11.093   0.182   8.698 -1.4788  1.1226  1.1618
  596MOL0     H82181  11.399  -0.074   8.874 -2.5045  0.2503 -1.6650
  596MOL0     H82182  11.420   0.075   8.975 -0.5430  0.9293  0.3811
  596MOL0     H82183  11.615   0.048   8.847 -0.8309  1.2151  0.5437
  596MOL0     H82184  11.521   0.008   8.698 -0.9524  0.1976  0.3081
  596MOL0     H82185  11.477   0.211   8.637 -1.3134 -0.8406  0.5508
  596MOL0     H82186  11.479   0.264   8.810  2.7754  0.2930  1.8622
  596MOL0     H82187  11.728   0.240   8.810 -2.6795 -2.1575  0.9868
  596MOL0     H82188  11.728   0.203   8.630  1.3263 -0.4824  0.9771
  596MOL0     H82189  11.646   0.426   8.594  0.2492 -0.8843 -0.3037
  596MOL0     H82190  11.806   0.438   8.664 -0.8542  0.9620 -2.6521
  596MOL0     H82191  11.561   0.476   8.822  0.8774  1.9229  3.2924
  596MOL0     H82192  11.733   0.479   8.872  0.9065  0.0025 -0.3956
  596MOL0     H82193  11.590   0.701   8.786  1.1591 -0.4869  0.5240
  596MOL0     H82194  11.656   0.656   8.636  3.2506 -0.9797 -1.2712
  596MOL0     H82195  11.888   0.636   8.740 -0.3331 -0.7241  1.4845
  596MOL0     H82196  11.832   0.798   8.732 -2.0578 -1.0339 -3.1399
  596MOL0     H82197  12.050   0.763   8.929  1.5733 -2.2340  0.3676
  596MOL0     H82198  11.983   0.960   9.203 -1.8677 -0.8983 -1.3324
  596MOL0     H82199  12.125   0.873   9.125  0.7958 -0.8391  0.9236
  596MOL0     H82200  12.121   0.842   9.383 -2.9230  1.6524 -0.4758
  596MOL0     H82201  11.987   0.733   9.346  0.0490 -0.8967 -0.5315
  596MOL0     H82202  12.175   0.646   9.163 -1.8547  2.1743 -0.3501
  596MOL0     H82203  12.268   0.682   9.316 -0.1519 -0.5867  0.1857
  596MOL0     H82204  12.178   0.548   9.444  0.5100 -4.4833  1.5769
  596MOL0     H82205  12.030   0.513   9.338  0.4996 -2.1868 -0.2788
  596MOL0     H82206  12.337   0.239   9.156  0.4026 -1.0394 -2.9631
  596MOL0     H82207  12.253  -0.026   8.908  3.6086  0.7442 -2.7495
  596MOL0     H82208  12.322  -0.014   9.069 -1.5713 -2.5651 -1.9417
  596MOL0     H82209  12.382   0.085   8.933  0.6154 -0.6964 -0.6193
  596MOL0     H82210  12.094  -0.168   8.731  0.7860 -0.9087  0.8881
  596MOL0     H82211  11.999  -0.356   8.629  1.9317  0.1968  0.8311
  596MOL0     H82212  11.874  -0.461   8.503 -1.6585 -0.7733 -3.0944
  596MOL0     H82213  11.859  -0.584   8.623  0.7320  1.0650  0.4179
  596MOL0     H82214  11.638  -0.651   8.518  0.5946  0.1304  0.6156
  596MOL0     H82215  11.675  -0.524   8.395  0.3900  1.1044  0.6917
  596MOL0     H82216  11.844  -0.758   8.449  0.2565  0.4585 -0.1207
  596MOL0     H82217  11.876  -0.642   8.324  2.5152 -1.1470  1.7375
  596MOL0     H82218  11.669  -0.704   8.230  0.6803  0.5042 -0.2211
  596MOL0     H82219  11.628  -0.821   8.363 -0.6570 -2.8956 -1.5831
  596MOL0     H82220  11.828  -0.870   8.137 -0.6799 -1.2972 -1.8360
  596MOL0     H82221  11.845  -0.935   8.303  1.3456 -1.5584 -2.6862
  596MOL0     H82222  11.578  -0.974   8.144 -0.1107 -0.2261 -0.7865
  596MOL0     H82223  11.629  -1.024   8.304  2.8365  3.3217  1.3086
  596MOL0     H82224  11.686  -1.201   8.229  1.4866  0.8584  0.9577
  596MOL0     H82225  11.831  -1.139   8.153  0.2753  0.3049  0.3508
  596MOL0     H82226  11.552  -1.150   8.035 -1.1130 -0.7073 -1.8628
  596MOL0     H82227  11.692  -1.272   8.005  1.7722  0.4426  1.0427
  596MOL0     H82228  11.625  -0.262   8.829 -0.8976  2.3779 -1.8425
  596MOL0     H82229  11.739  -0.103   8.969 -1.7965 -1.4392  0.9719
  596MOL0     H82230  11.921   0.361   8.930  1.0877  0.3902 -0.2820
  596MOL0     H82231  11.972   0.462   9.128 -1.5390 -2.1967  2.5564
  596MOL0     H82232  11.225   0.027   9.063 -1.2208 -0.3678  1.3788
  596MOL0     H82233  10.992   0.063   9.169  1.4017 -0.0853  0.9585
  596MOL0     H82234  10.723   0.587   9.095 -1.4189 -0.2676 -0.4413
  596MOL0     H82235  10.531   0.687   9.210  0.8632  0.7714  5.1221
  596MOL0     H82236  10.369   0.682   9.464  2.2964 -0.1043 -1.7254
  596MOL0     H82237  10.369   0.747   9.304  0.0082  2.4415  2.1513
  596MOL0     H82238  10.177   0.812   9.455 -0.4039  0.5027 -1.4940
  596MOL0     H82239  10.133   0.646   9.470  0.1010  2.5301  1.8243
  596MOL0     H82240  10.086   0.845   9.239 -3.1139 -0.1550  2.1993
  596MOL0     H82241  10.157   0.695   9.175  1.4205  1.6656 -0.7116
  596MOL0     H82242   9.904   0.732   9.340  2.2538  2.6543 -0.3605
  596MOL0     H82243   9.978   0.566   9.307  0.8172 -0.3943 -1.9011
  596MOL0     H82244   9.820   0.663   8.927  0.1685  4.1075  0.7069
  596MOL0     H82245  10.384   0.318   9.333 -0.7238  2.3170  0.4893
  596MOL0     H82246  10.707   0.138   9.290  0.2500 -1.7152  1.1386
  596MOL0     H82247  10.557   0.126   9.357  1.1143 -3.1598  0.7521
  596MOL0     H82248  10.557   0.102   9.182  1.3124  2.1274 -0.8354
  597MOL0     O82249   8.935   4.661   3.121  0.0390  0.1886 -0.4025
  597MOL0     C82250   8.875   4.558   3.087  0.6532 -0.5858 -0.4163
  597MOL0     O82251   8.902   4.497   2.973  0.6573 -0.4221  0.7332
  597MOL0     C82252   9.034   4.469   2.931 -0.3331 -0.4080 -0.5622
  597MOL0     C82253   9.153   4.473   3.014 -1.1266  0.7868  0.0771
  597MOL0     C82254   9.283   4.440   2.973 -0.1455  1.2538 -0.2921
  597MOL0     C82255   9.299   4.388   2.841 -0.1649 -0.0526 -0.8711
  597MOL0     O82256   9.429   4.358   2.799  0.3631  0.6972 -0.4720
  597MOL0     C82257   9.442   4.328   2.662 -0.2705  0.3219 -0.2652
  597MOL0     C82258   9.589   4.305   2.619  0.4035 -0.9063  0.0966
  597MOL0     C82259   9.660   4.209   2.703 -0.8278  0.7155  0.1491
  597MOL0     C82260   9.808   4.177   2.668  0.4163  0.0176 -0.1977
  597MOL0     C82261   9.881   4.077   2.761 -1.0978  0.1338  0.5051
  597MOL0     C82262   9.821   3.936   2.758 -0.3771 -0.3195  0.5605
  597MOL0     C82263   9.861   3.845   2.650  0.1669  1.2277 -0.4256
  597MOL0     C82264   9.782   3.854   2.516 -0.7569 -0.7412  0.0987
  597MOL0     N82265   9.640   3.831   2.525 -0.5470 -0.5279 -0.6451
  597MOL0     C82266   9.562   3.733   2.457  0.6753  0.1690  0.0628
  597MOL0     C82267   9.440   3.768   2.506  0.4529  0.5832 -0.8067
  597MOL0     C82268   9.315   3.696   2.455 -0.9164  0.6107 -1.1351
  597MOL0     C82269   9.265   3.591   2.565 -0.1560  0.3893  0.1627
  597MOL0     C82270   9.119   3.627   2.596  0.9282  0.1942 -0.4575
  597MOL0     C82271   9.052   3.563   2.718 -0.4426 -0.2615  1.0557
  597MOL0     O82272   8.916   3.596   2.726  0.2976  0.8015  0.2388
  597MOL0     C82273   8.855   3.550   2.836  0.7000  0.0287  0.0827
  597MOL0     C82274   8.720   3.587   2.835  0.3901  0.5713  0.2855
  597MOL0     C82275   8.641   3.539   2.937  0.0875 -0.1766 -0.0595
  597MOL0     C82276   8.498   3.575   2.940 -0.3913  0.3147 -0.1019
  597MOL0     C82277   8.698   3.474   3.055 -0.1461  1.7515  0.2145
  597MOL0     C82278   8.634   3.452   3.185 -0.1948  0.5235 -0.2486
  597MOL0     O82279   8.719   3.386   3.269 -0.2595  0.4186 -0.0478
  597MOL0     C82280   8.721   3.417   3.400  0.2082  0.2483  0.3222
  597MOL0     C82281   8.611   3.389   3.483 -0.0654 -0.0207 -0.2834
  597MOL0     C82282   8.625   3.423   3.621  0.0131  0.0867 -1.1193
  597MOL0     C82283   8.741   3.469   3.674  0.5013 -0.8794  0.3435
  597MOL0     O82284   8.767   3.490   3.809 -0.7919 -0.1809  0.0635
  597MOL0     C82285   8.796   3.616   3.860 -0.7332 -0.1754 -0.0008
  597MOL0     C82286   8.722   3.628   3.991  0.6820  0.1547  1.2099
  597MOL0     C82287   8.748   3.747   4.072 -0.2919 -0.1349  0.1563
  597MOL0     C82288   8.700   3.738   4.216  0.3124 -0.2139 -0.9752
  597MOL0     C82289   8.766   3.840   4.308 -0.4784 -0.2365 -0.0673
  597MOL0     C82290   8.879   3.794   4.391 -0.4219  0.4214  0.5638
  597MOL0     C82291   8.955   3.903   4.455 -0.2806 -0.4955  0.6370
  597MOL0     C82292   8.864   3.974   4.557 -0.5900 -0.5146 -0.1678
  597MOL0    Cl82293   8.936   4.104   4.649  0.0145  0.1633 -0.2471
  597MOL0     C82294   8.843   3.500   3.589 -0.0307  0.4420  0.6502
  597MOL0     C82295   8.833   3.472   3.454 -0.0797  0.1825  0.3789
  597MOL0     O82296   8.520   3.484   3.216  0.0270 -0.0833  0.0714
  597MOL0     C82297   8.823   3.413   3.035 -0.0484  0.4911  0.0916
  597MOL0     C82298   8.901   3.461   2.930  0.4170  0.0550  0.1033
  597MOL0     N82299   9.444   3.870   2.595 -0.6476  0.1181 -0.1767
  597MOL0     N82300   9.560   3.920   2.591  0.5204 -1.0524  1.2674
  597MOL0     C82301   9.179   4.370   2.756  0.0943 -0.3895 -0.0051
  597MOL0     C82302   9.056   4.421   2.801  0.5097  0.3582 -0.5438
  597MOL0     C82303   8.767   4.499   3.179 -0.1605 -0.3450  0.2920
  597MOL0     C82304   8.716   4.580   3.282  0.3163 -0.0189  0.3130
  597MOL0     C82305   8.603   4.532   3.355 -0.3167  0.1033  0.2866
  597MOL0     C82306   8.542   4.413   3.317 -0.1613  1.1101 -0.4457
  597MOL0     O82307   8.423   4.393   3.372  0.4870 -0.2711 -1.1844
  597MOL0     C82308   8.425   4.298   3.485 -0.2887  0.1664 -0.3158
  597MOL0     C82309   8.282   4.273   3.527 -0.8551  0.2420  0.3343
  597MOL0     C82310   8.230   4.387   3.618 -0.1280  0.5249  0.1468
  597MOL0     C82311   8.074   4.421   3.589 -0.4474  0.1271 -0.1653
  597MOL0     C82312   7.990   4.325   3.657  0.4042 -0.4554  0.7951
  597MOL0     C82313   7.908   4.258   3.721  0.5912 -0.2281  0.0414
  597MOL0     C82314   8.597   4.333   3.213 -0.2355  0.4758  0.1023
  597MOL0     C82315   8.708   4.371   3.149 -0.2439  0.8846 -0.7164
  597MOL0     C82316   8.764   4.267   3.057 -0.4248 -0.5203  0.2863
  597MOL0     H82317   9.148   4.501   3.118  2.4628  1.8781  0.1045
  597MOL0     H82318   9.377   4.439   3.027  1.4658  2.6564 -2.9107
  597MOL0     H82319   9.403   4.419   2.616 -3.8059  0.7458  3.1104
  597MOL0     H82320   9.396   4.236   2.626  1.0960  0.0937 -1.5365
  597MOL0     H82321   9.593   4.288   2.511 -1.4323 -0.1879 -0.1200
  597MOL0     H82322   9.643   4.400   2.629 -2.7147  1.1891 -1.3801
  597MOL0     H82323   9.665   4.240   2.808  4.8181 -1.9228  1.0599
  597MOL0     H82324   9.607   4.115   2.688 -0.1424  0.1787  0.9527
  597MOL0     H82325   9.817   4.144   2.564 -2.8934 -1.5697 -0.1197
  597MOL0     H82326   9.864   4.270   2.684 -0.5062  0.1361  3.2270
  597MOL0     H82327   9.875   4.124   2.859 -2.6188 -0.4745  0.7257
  597MOL0     H82328   9.990   4.074   2.747 -0.9158  4.0458 -0.2941
  597MOL0     H82329   9.850   3.893   2.854 -0.6339  0.3219  0.9314
  597MOL0     H82330   9.713   3.932   2.776 -0.7979  0.2781 -1.4930
  597MOL0     H82331   9.855   3.746   2.696  0.9692  1.4774  0.2423
  597MOL0     H82332   9.969   3.860   2.641  0.6292 -0.5105  1.4070
  597MOL0     H82333   9.795   3.959   2.487 -0.0943  0.5930  4.4802
  597MOL0     H82334   9.822   3.789   2.438 -3.8846  0.2307 -2.5542
  597MOL0     H82335   9.578   3.656   2.382 -2.1409  0.6256 -1.1315
  597MOL0     H82336   9.341   3.634   2.369 -1.0367  0.3104 -0.9523
  597MOL0     H82337   9.243   3.770   2.417 -1.7186  1.1128  1.2068
  597MOL0     H82338   9.267   3.490   2.524 -0.2367  1.1231 -1.7392
  597MOL0     H82339   9.340   3.596   2.645  0.5231  0.5032 -0.4713
  597MOL0     H82340   9.105   3.735   2.607 -2.2276  0.1318 -2.6076
  597MOL0     H82341   9.063   3.592   2.509  1.4127 -3.0513  0.4082
  597MOL0     H82342   9.071   3.455   2.728  2.9848  0.1182  0.0846
  597MOL0     H82343   9.107   3.601   2.805 -0.0609 -0.1964  0.7910
  597MOL0     H82344   8.683   3.643   2.750 -0.4150 -2.9678 -1.8744
  597MOL0     H82345   8.477   3.663   3.001 -0.0246  0.8948 -0.7885
  597MOL0     H82346   8.452   3.481   2.972  0.0258 -0.4221 -1.5445
  597MOL0     H82347   8.459   3.594   2.839  0.9544 -0.6826 -0.8504
  597MOL0     H82348   8.526   3.336   3.442 -0.5118  1.3827 -1.2255
  597MOL0     H82349   8.536   3.415   3.684 -1.4043  4.5146 -2.1867
  597MOL0     H82350   8.901   3.622   3.890 -0.7939  0.1205  0.1589
  597MOL0     H82351   8.773   3.699   3.793  2.3672  2.6026  2.0575
  597MOL0     H82352   8.616   3.619   3.967  0.0950  0.2888  3.5340
  597MOL0     H82353   8.745   3.535   4.045  3.9759 -0.2584 -0.6904
  597MOL0     H82354   8.693   3.830   4.028 -2.7209 -1.7133  0.0156
  597MOL0     H82355   8.854   3.772   4.073 -0.8415  2.7126  2.6522
  597MOL0     H82356   8.728   3.642   4.260  3.7652  0.8088 -0.5985
  597MOL0     H82357   8.591   3.734   4.217  0.3372 -1.1381 -1.1103
  597MOL0     H82358   8.810   3.920   4.248 -0.5885  1.0628  1.5263
  597MOL0     H82359   8.688   3.883   4.371 -1.1188  0.4888 -1.3182
  597MOL0     H82360   8.957   3.732   4.345  0.7340 -0.0621  2.9831
  597MOL0     H82361   8.848   3.730   4.474 -2.3136  0.3466 -0.1691
  597MOL0     H82362   8.992   3.968   4.375 -3.0114 -1.2145 -1.3581
  597MOL0     H82363   9.046   3.870   4.506  1.5102  2.0432 -0.6891
  597MOL0     H82364   8.823   3.898   4.624  2.0210 -1.2364  0.7428
  597MOL0     H82365   8.795   4.036   4.500  0.9689  2.4939  0.9845
  597MOL0     H82366   8.932   3.551   3.627  1.3694  1.1274 -3.1048
  597MOL0     H82367   8.921   3.484   3.390 -1.2552 -1.4215 -1.6682
  597MOL0     H82368   8.884   3.344   3.093  0.3139 -0.0668 -0.9219
  597MOL0     H82369   9.002   3.421   2.927  0.7949  1.0314 -1.1549
  597MOL0     H82370   9.188   4.345   2.650 -1.5287 -2.3936  0.2653
  597MOL0     H82371   8.966   4.422   2.740 -0.6674 -1.6508  1.0234
  597MOL0     H82372   8.762   4.677   3.296  3.5788 -1.3690 -0.1650
  597MOL0     H82373   8.543   4.581   3.431 -2.6212 -0.7311 -0.8672
  597MOL0     H82374   8.476   4.206   3.452  0.2431  0.7282 -1.1255
  597MOL0     H82375   8.489   4.318   3.571 -2.1694 -1.9370  1.7043
  597MOL0     H82376   8.290   4.182   3.588  0.1353  0.7947  1.0470
  597MOL0     H82377   8.227   4.248   3.436 -0.4476  0.6429 -0.0226
  597MOL0     H82378   8.236   4.362   3.724 -2.2014  2.5741  0.8400
  597MOL0     H82379   8.290   4.476   3.599 -1.1627  1.0882 -0.5994
  597MOL0     H82380   8.052   4.425   3.482 -0.4285 -0.9221 -0.2159
  597MOL0     H82381   8.054   4.524   3.620 -2.9441  0.2093 -1.8046
  597MOL0     H82382   7.850   4.196   3.786  1.1347 -0.3024  0.4681
  597MOL0     H82383   8.541   4.243   3.187  3.0984 -1.8298  0.3270
  597MOL0     H82384   8.872   4.281   3.051 -0.7778  1.9996 -2.3058
  597MOL0     H82385   8.733   4.167   3.090  0.4039 -2.0555 -3.1658
  597MOL0     H82386   8.723   4.279   2.956 -1.9676  0.5248  0.9891
  598MOL0     O82387   3.215   4.100   0.763  0.1391 -0.7328 -0.4592
  598MOL0     C82388   3.201   3.978   0.778  0.3283  0.0950 -0.4666
  598MOL0     O82389   3.090   3.915   0.809  0.5342 -0.0651  0.4687
  598MOL0     C82390   2.973   3.974   0.799  0.3522 -0.0824  0.0716
  598MOL0     C82391   2.921   4.054   0.899 -0.4664 -0.0723  0.0091
  598MOL0     C82392   2.805   4.130   0.873  1.4077 -0.4171 -0.6024
  598MOL0     C82393   2.726   4.097   0.756  0.4028  0.1331  0.0627
  598MOL0     O82394   2.610   4.164   0.734  0.5959  1.2047  0.8962
  598MOL0     C82395   2.500   4.151   0.832  1.2153 -0.4876 -0.2660
  598MOL0     C82396   2.475   4.007   0.873 -0.1198  0.0894 -0.0541
  598MOL0     C82397   2.384   4.002   0.999 -0.6921  0.0070 -0.0647
  598MOL0     C82398   2.340   3.855   1.022  1.6028  0.4469 -0.4841
  598MOL0     C82399   2.258   3.844   1.149 -0.9318  0.5539  0.5748
  598MOL0     C82400   2.137   3.943   1.160 -0.0477  0.2297  0.5015
  598MOL0     C82401   2.048   3.958   1.039 -0.8579 -0.1021 -0.1287
  598MOL0     C82402   1.920   4.024   1.071  0.6798 -0.3529 -0.7855
  598MOL0     N82403   1.828   3.945   1.150 -0.3215  0.1975  0.0979
  598MOL0     C82404   1.782   3.828   1.104  0.4242 -0.6133 -0.1612
  598MOL0     C82405   1.677   3.810   1.187  0.5476 -0.4394  0.0767
  598MOL0     C82406   1.577   3.705   1.170  0.3008 -0.2380 -0.2468
  598MOL0     C82407   1.621   3.561   1.171 -0.2512 -0.9769 -1.0500
  598MOL0     C82408   1.514   3.457   1.201  0.0015  0.0504  0.1771
  598MOL0     C82409   1.561   3.319   1.154 -0.1018 -0.9053  0.4457
  598MOL0     O82410   1.550   3.327   1.015 -0.7487  0.5465  0.7963
  598MOL0     C82411   1.628   3.237   0.955  0.3449  0.2075  1.3835
  598MOL0     C82412   1.702   3.127   1.011  0.2738  0.1617 -0.1208
  598MOL0     C82413   1.785   3.057   0.923 -0.4241 -0.0562 -0.7781
  598MOL0     C82414   1.867   2.946   0.989 -0.4256 -0.0884 -0.2740
  598MOL0     C82415   1.805   3.087   0.791  0.6361 -0.2405 -0.5246
  598MOL0     C82416   1.896   3.025   0.703 -0.1614 -0.1065 -0.1183
  598MOL0     O82417   1.895   2.888   0.697  0.2121 -0.7852  0.2614
  598MOL0     C82418   1.991   2.830   0.620 -0.5056 -0.9863  0.2591
  598MOL0     C82419   1.943   2.742   0.517  0.8059 -0.9186  0.8319
  598MOL0     C82420   2.037   2.699   0.423 -0.1282  0.0639 -0.1848
  598MOL0     C82421   2.173   2.724   0.435  0.1373 -0.2908  0.8331
  598MOL0     O82422   2.248   2.685   0.330 -0.2054  0.1045  0.4076
  598MOL0     C82423   2.388   2.642   0.349  0.2060 -0.3268 -0.1306
  598MOL0     C82424   2.392   2.501   0.396 -0.1914 -0.6549 -0.2748
  598MOL0     C82425   2.328   2.407   0.299  0.2658  0.4069  0.0775
  598MOL0     C82426   2.401   2.262   0.299 -0.6108 -0.3648 -0.0547
  598MOL0     C82427   2.331   2.168   0.198  0.1517  0.3163  0.1931
  598MOL0     C82428   2.428   2.062   0.148  0.1945  0.3376  0.0379
  598MOL0     C82429   2.544   2.113   0.060 -0.1228 -0.0171  0.2981
  598MOL0     C82430   2.519   2.063  -0.087 -0.0415  0.1073  0.4295
  598MOL0    Cl82431   2.668   2.096  -0.185 -0.5519 -0.2611 -0.5749
  598MOL0     C82432   2.224   2.797   0.546  0.1258  0.9343 -0.1560
  598MOL0     C82433   2.128   2.855   0.632 -0.5439 -1.0082  0.5747
  598MOL0     O82434   1.972   3.100   0.646  0.5776 -0.1056  0.3924
  598MOL0     C82435   1.728   3.192   0.740  0.3506  0.4670 -0.1545
  598MOL0     C82436   1.643   3.265   0.818 -0.0964  0.3326  0.9875
  598MOL0     N82437   1.670   3.914   1.284 -0.5484  0.0184 -0.1063
  598MOL0     N82438   1.777   3.984   1.263  0.5047 -0.3317  0.5342
  598MOL0     C82439   2.774   4.014   0.658  0.9413 -0.5694 -1.1008
  598MOL0     C82440   2.894   3.957   0.683 -0.4239  0.2857  0.6089
  598MOL0     C82441   3.318   3.903   0.741 -0.2647 -0.4746  0.5970
  598MOL0     C82442   3.389   3.954   0.635 -0.0668 -0.2305  0.2088
  598MOL0     C82443   3.509   3.896   0.591 -0.5234  0.7390 -0.3676
  598MOL0     C82444   3.562   3.791   0.672  0.6938  0.2006  0.1205
  598MOL0     O82445   3.686   3.745   0.641  0.1315  1.0499 -0.0104
  598MOL0     C82446   3.774   3.673   0.745 -0.1494  0.2996  0.4963
  598MOL0     C82447   3.812   3.796   0.843 -0.2101  0.6946  0.3496
  598MOL0     C82448   3.886   3.913   0.762 -0.2063  1.0751 -0.0617
  598MOL0     C82449   3.941   4.012   0.862 -0.5867 -0.8947 -0.0187
  598MOL0     C82450   3.850   4.054   0.971 -0.2425 -0.2097  0.2889
  598MOL0     C82451   3.776   4.079   1.060  0.8572 -0.2439 -0.2007
  598MOL0     C82452   3.493   3.736   0.767  0.0786  0.4234 -1.0038
  598MOL0     C82453   3.363   3.785   0.807 -0.4024  0.1753 -0.6312
  598MOL0     C82454   3.299   3.731   0.934  0.5623  0.3417  0.6402
  598MOL0     H82455   2.982   4.070   0.987  1.8432  0.2912 -1.5826
  598MOL0     H82456   2.769   4.196   0.950  0.0253 -1.0004 -0.7148
  598MOL0     H82457   2.407   4.185   0.785  0.0101 -1.5457  1.2482
  598MOL0     H82458   2.518   4.222   0.914 -0.9065 -0.8352  0.5895
  598MOL0     H82459   2.447   3.959   0.779  0.4919  0.1576 -0.2780
  598MOL0     H82460   2.572   3.969   0.908  1.0280  2.8428 -0.0441
  598MOL0     H82461   2.441   4.051   1.078  1.0635  0.8511 -1.7842
  598MOL0     H82462   2.298   4.068   0.983 -1.5473 -0.9329  0.5608
  598MOL0     H82463   2.267   3.828   0.945 -1.7376  2.2691  1.8129
  598MOL0     H82464   2.428   3.790   1.017 -0.4387 -2.5812  0.2895
  598MOL0     H82465   2.319   3.862   1.238 -1.7418  0.3995  1.1673
  598MOL0     H82466   2.223   3.741   1.159  1.5171 -0.5288 -0.9013
  598MOL0     H82467   2.080   3.919   1.250  0.5461  1.6066  1.2824
  598MOL0     H82468   2.174   4.045   1.168  1.6482 -0.2660 -0.4523
  598MOL0     H82469   2.027   3.858   0.998  0.7347 -1.4874  2.1854
  598MOL0     H82470   2.109   4.017   0.969 -0.0631 -0.9251 -0.1577
  598MOL0     H82471   1.946   4.115   1.127  1.5808 -1.0464 -0.0389
  598MOL0     H82472   1.864   4.068   0.988  1.2701  2.1420  0.0460
  598MOL0     H82473   1.817   3.765   1.023  0.7516  1.5151 -1.7329
  598MOL0     H82474   1.528   3.723   1.073  2.1709 -0.4702 -1.2857
  598MOL0     H82475   1.504   3.721   1.250 -0.6121  2.0152 -1.4136
  598MOL0     H82476   1.679   3.534   1.082 -1.0968  1.2026 -2.3188
  598MOL0     H82477   1.697   3.553   1.250  1.6498  0.5520 -2.6208
  598MOL0     H82478   1.469   3.442   1.300  0.1372 -1.8404  0.0044
  598MOL0     H82479   1.425   3.495   1.149 -0.2932  0.4200  0.9389
  598MOL0     H82480   1.661   3.304   1.198  0.5848 -0.6770 -0.9762
  598MOL0     H82481   1.493   3.239   1.186 -1.6405  0.9250  1.9465
  598MOL0     H82482   1.702   3.099   1.116  0.0364  1.2545  0.1828
  598MOL0     H82483   1.969   2.946   0.949 -0.1567  3.5763  0.0415
  598MOL0     H82484   1.808   2.857   0.966  1.2650 -0.8822 -1.8507
  598MOL0     H82485   1.865   2.974   1.095  0.3978  3.9432 -1.1615
  598MOL0     H82486   1.837   2.731   0.499  1.0027  0.9851 -2.2565
  598MOL0     H82487   2.005   2.650   0.331  1.1171 -3.5733  1.1405
  598MOL0     H82488   2.440   2.655   0.253 -2.2858 -2.1691 -1.8543
  598MOL0     H82489   2.439   2.719   0.407 -0.2725  1.4052 -1.8994
  598MOL0     H82490   2.497   2.470   0.399  0.0067  0.0344  1.9551
  598MOL0     H82491   2.365   2.493   0.502  4.4433  2.5228  1.4792
  598MOL0     H82492   2.334   2.451   0.199  1.5592  0.2584  0.0762
  598MOL0     H82493   2.223   2.398   0.329 -0.1015 -2.1826 -1.6443
  598MOL0     H82494   2.392   2.235   0.405  1.6535  4.0432  1.5440
  598MOL0     H82495   2.507   2.264   0.271 -0.4149  0.4778  0.6813
  598MOL0     H82496   2.239   2.123   0.237 -0.0444  0.8822  0.3898
  598MOL0     H82497   2.298   2.227   0.112  2.1011  0.4012 -0.5389
  598MOL0     H82498   2.372   1.990   0.088 -0.9925  0.8117  0.5527
  598MOL0     H82499   2.479   2.010   0.229  1.9954 -0.2995 -1.4374
  598MOL0     H82500   2.645   2.085   0.091 -0.2926 -1.5336 -0.4332
  598MOL0     H82501   2.537   2.222   0.054 -2.7372 -0.0450  1.4187
  598MOL0     H82502   2.437   2.111  -0.139  2.0685 -1.4142 -4.9534
  598MOL0     H82503   2.507   1.956  -0.071  0.0620 -0.1192 -0.9003
  598MOL0     H82504   2.330   2.796   0.571 -0.4775  2.7671  2.9044
  598MOL0     H82505   2.151   2.916   0.719  2.5976  0.5617 -1.1844
  598MOL0     H82506   1.732   3.214   0.633 -1.8615  0.9929 -0.1652
  598MOL0     H82507   1.593   3.347   0.768  3.1092  1.2635 -1.0039
  598MOL0     H82508   2.733   3.988   0.561 -1.2450 -2.8463  0.3150
  598MOL0     H82509   2.935   3.896   0.603 -0.4762  0.3390  0.5406
  598MOL0     H82510   3.361   4.045   0.583  0.9917 -1.8514 -3.5236
  598MOL0     H82511   3.567   3.929   0.505  1.0825 -0.0544  0.3684
  598MOL0     H82512   3.720   3.600   0.806 -0.1346  1.1190  1.5259
  598MOL0     H82513   3.869   3.627   0.717  1.8780  4.2200  0.1914
  598MOL0     H82514   3.882   3.759   0.919 -1.6178  0.5153  1.6089
  598MOL0     H82515   3.718   3.826   0.890 -0.0107  0.9229  0.6070
  598MOL0     H82516   3.973   3.873   0.707  0.3955  2.0433  0.1557
  598MOL0     H82517   3.818   3.964   0.694  1.4539 -0.4079 -3.0536
  598MOL0     H82518   3.961   4.103   0.804 -2.0182 -0.2623  0.4329
  598MOL0     H82519   4.032   3.977   0.912 -0.9362  2.3190  3.2043
  598MOL0     H82520   3.710   4.106   1.140  1.9079  1.1644  0.2353
  598MOL0     H82521   3.533   3.646   0.814  0.5790  2.3845  2.7822
  598MOL0     H82522   3.381   3.706   1.002 -0.2093  0.1502  1.5302
  598MOL0     H82523   3.233   3.805   0.980 -2.7838 -0.7958 -1.8849
  598MOL0     H82524   3.232   3.646   0.916  0.1720  0.6547  0.6106
  599MOL0     O82525   5.048   5.750   0.863  0.0155  0.2302  0.8821
  599MOL0     C82526   5.027   5.868   0.883 -0.3249  0.0631  0.0821
  599MOL0     O82527   5.089   5.944   0.983 -0.3689  0.3507  0.6887
  599MOL0     C82528   5.193   5.889   1.047 -0.5366 -0.3940 -0.7206
  599MOL0     C82529   5.318   5.948   1.013  0.0391  0.5692 -0.0320
  599MOL0     C82530   5.431   5.908   1.063  0.4864  0.2127 -0.5869
  599MOL0     C82531   5.428   5.803   1.152 -0.1501  0.0905  0.7569
  599MOL0     O82532   5.538   5.752   1.207 -0.0557 -0.2321 -0.4190
  599MOL0     C82533   5.647   5.713   1.121 -0.5049  0.1622  0.2106
  599MOL0     C82534   5.748   5.621   1.170 -1.0562 -0.4341 -0.5703
  599MOL0     C82535   5.818   5.695   1.277 -1.1287 -0.5870 -0.5250
  599MOL0     C82536   5.925   5.600   1.341 -0.4552  0.0066  0.1120
  599MOL0     C82537   6.031   5.681   1.428  1.0455  1.0041  0.0082
  599MOL0     C82538   5.975   5.721   1.565 -0.3820 -0.5722  0.2803
  599MOL0     C82539   6.072   5.806   1.645 -1.4073 -0.2601 -0.2194
  599MOL0     C82540   6.076   5.952   1.601  0.3143 -0.0085 -0.6170
  599MOL0     N82541   6.211   5.986   1.613 -0.5304 -0.0459  0.4860
  599MOL0     C82542   6.272   6.067   1.709  0.9894 -0.1478 -0.3336
  599MOL0     C82543   6.394   6.081   1.663 -0.6220  0.3687  0.2784
  599MOL0     C82544   6.513   6.154   1.720  0.1458  0.8151  0.3255
  599MOL0     C82545   6.626   6.167   1.607  0.3313  0.9416 -0.3449
  599MOL0     C82546   6.746   6.254   1.660  0.0439 -1.4547  0.0038
  599MOL0     C82547   6.701   6.398   1.680 -0.7918  0.0829 -0.8662
  599MOL0     O82548   6.663   6.473   1.562 -0.6907  0.5010  0.1124
  599MOL0     C82549   6.753   6.520   1.468 -0.1119  0.4865  0.6241
  599MOL0     C82550   6.689   6.609   1.381 -0.5170  0.2503 -0.8402
  599MOL0     C82551   6.752   6.672   1.272 -0.6567 -0.1365 -0.5233
  599MOL0     C82552   6.687   6.807   1.217  0.0559  0.1369 -0.0832
  599MOL0     C82553   6.891   6.633   1.249  0.6025 -0.1714  0.5209
  599MOL0     C82554   6.987   6.707   1.151 -0.5903  0.3472  0.2634
  599MOL0     O82555   7.113   6.649   1.136  1.2705  0.0775  0.2752
  599MOL0     C82556   7.216   6.734   1.097  0.7482 -0.0387 -0.3625
  599MOL0     C82557   7.273   6.809   1.195 -0.9321 -0.5788 -0.7703
  599MOL0     C82558   7.371   6.904   1.157  0.3659 -0.1346 -0.0045
  599MOL0     C82559   7.421   6.906   1.024 -1.6654 -0.3591  0.1896
  599MOL0     O82560   7.526   6.983   0.979  0.3351  0.2906  0.7672
  599MOL0     C82561   7.619   7.017   1.087  1.2421  0.6218  0.5921
  599MOL0     C82562   7.737   7.081   1.022  0.5310  0.7962 -0.5742
  599MOL0     C82563   7.850   7.086   1.135  0.4180 -0.2901  0.0321
  599MOL0     C82564   7.989   7.115   1.084  0.5221  0.3030 -0.4402
  599MOL0     C82565   8.001   7.238   1.001 -0.8964  0.2191  1.1086
  599MOL0     C82566   7.958   7.368   1.063 -0.0903 -0.1355 -0.8563
  599MOL0     C82567   8.070   7.459   1.108  0.3676 -0.0759 -1.4314
  599MOL0     C82568   8.114   7.408   1.246 -0.4216  0.0067 -0.3136
  599MOL0    Cl82569   8.217   7.533   1.317  0.3638 -0.1627  0.3004
  599MOL0     C82570   7.364   6.816   0.928  0.5738  0.2884  0.1885
  599MOL0     C82571   7.262   6.732   0.967  0.3382 -0.2241  0.1815
  599MOL0     O82572   6.948   6.803   1.092  0.2715 -0.1792 -0.0416
  599MOL0     C82573   6.953   6.532   1.328  0.3048 -0.7610  0.0228
  599MOL0     C82574   6.883   6.477   1.433  0.1007 -0.2043 -0.4862
  599MOL0     N82575   6.405   6.007   1.543  0.9430 -1.6170 -0.1462
  599MOL0     N82576   6.300   5.948   1.521 -0.3760  0.5749  0.6202
  599MOL0     C82577   5.316   5.737   1.182  0.4679  0.0843 -0.0033
  599MOL0     C82578   5.197   5.779   1.128  0.2617 -0.9016 -0.7268
  599MOL0     C82579   4.950   5.953   0.783  0.0872 -0.0119  0.4441
  599MOL0     C82580   4.986   6.085   0.770 -1.0264  0.1845 -0.2614
  599MOL0     C82581   4.938   6.157   0.666 -0.1487  0.0383  0.3384
  599MOL0     C82582   4.830   6.113   0.588 -0.5446 -0.1367 -0.5531
  599MOL0     O82583   4.785   6.207   0.498 -0.2732 -0.1525 -0.4719
  599MOL0     C82584   4.704   6.161   0.393  0.0076 -0.3044  0.4243
  599MOL0     C82585   4.676   6.282   0.304 -0.1419 -0.1993 -0.2495
  599MOL0     C82586   4.802   6.318   0.212  1.3811  0.5100  0.6382
  599MOL0     C82587   4.775   6.455   0.144  0.4344  1.1083 -0.0295
  599MOL0     C82588   4.891   6.548   0.150  0.7200  0.7534  0.4731
  599MOL0     C82589   4.997   6.598   0.150 -1.3276 -0.2428  0.7730
  599MOL0     C82590   4.785   5.978   0.599 -0.6319  0.1412 -0.2863
  599MOL0     C82591   4.846   5.902   0.695 -0.0972  0.9000  0.0380
  599MOL0     C82592   4.786   5.767   0.730 -1.0678  0.4435 -0.4091
  599MOL0     H82593   5.305   6.037   0.953 -2.9467 -1.9845 -3.5931
  599MOL0     H82594   5.524   5.962   1.051  2.2716 -2.4315  0.2370
  599MOL0     H82595   5.701   5.798   1.079  0.7849 -1.9672 -2.8288
  599MOL0     H82596   5.604   5.667   1.031  1.3586 -1.6074  0.1396
  599MOL0     H82597   5.703   5.532   1.215  0.5913 -0.8541  0.3497
  599MOL0     H82598   5.831   5.595   1.104  1.0671 -0.7762  2.0469
  599MOL0     H82599   5.870   5.785   1.242  1.2123 -2.5027 -2.2540
  599MOL0     H82600   5.753   5.717   1.363  1.1345 -0.9972  1.3977
  599MOL0     H82601   5.874   5.523   1.400  0.2992  0.2169  1.0519
  599MOL0     H82602   5.981   5.550   1.262 -1.2539 -0.2649 -0.2975
  599MOL0     H82603   6.060   5.772   1.376 -1.7956  0.6927 -2.4114
  599MOL0     H82604   6.124   5.626   1.446 -0.1520 -0.6772  1.4664
  599MOL0     H82605   5.885   5.781   1.548 -0.0934  1.2272  4.0560
  599MOL0     H82606   5.955   5.633   1.627 -1.2202 -1.1466 -0.7762
  599MOL0     H82607   6.173   5.765   1.637  0.6676  3.7811  1.9903
  599MOL0     H82608   6.040   5.790   1.749 -0.9404  0.8525  0.1175
  599MOL0     H82609   6.064   5.959   1.493 -0.6728 -0.4999 -0.5551
  599MOL0     H82610   6.011   6.011   1.667  3.3861  0.6966  1.9981
  599MOL0     H82611   6.242   6.096   1.809 -2.0305 -0.5190 -1.0086
  599MOL0     H82612   6.546   6.096   1.807 -0.4439  2.3395  1.6227
  599MOL0     H82613   6.489   6.255   1.752 -1.1711  0.1622  1.5075
  599MOL0     H82614   6.663   6.067   1.586 -1.5364  0.0635  0.3088
  599MOL0     H82615   6.576   6.195   1.514  1.3542 -1.3268 -1.6450
  599MOL0     H82616   6.789   6.216   1.753  1.6314 -2.7633 -1.1905
  599MOL0     H82617   6.823   6.243   1.583  0.9193 -1.3214  0.8546
  599MOL0     H82618   6.620   6.415   1.751 -1.6950 -0.1761 -1.8204
  599MOL0     H82619   6.793   6.453   1.702 -0.9776  0.1359 -0.1950
  599MOL0     H82620   6.588   6.647   1.393  0.1267  1.9609 -0.6337
  599MOL0     H82621   6.762   6.886   1.222  0.5428 -0.3334  0.2111
  599MOL0     H82622   6.600   6.828   1.280  0.0140  2.8619 -0.9519
  599MOL0     H82623   6.649   6.793   1.115 -1.0020  0.1727  0.2916
  599MOL0     H82624   7.231   6.793   1.294 -0.8600 -1.3565 -0.8584
  599MOL0     H82625   7.407   6.979   1.226  1.5651 -1.0869  0.4303
  599MOL0     H82626   7.571   7.095   1.147 -0.4433  0.7053 -0.8018
  599MOL0     H82627   7.648   6.926   1.141 -3.1829 -0.6438  1.2851
  599MOL0     H82628   7.783   7.014   0.950  0.8158 -0.3809  0.6559
  599MOL0     H82629   7.696   7.169   0.970  0.2212  0.3861 -1.0290
  599MOL0     H82630   7.850   6.987   1.180  3.3171 -1.3854 -2.1006
  599MOL0     H82631   7.816   7.160   1.209 -0.6147  0.3790 -1.0734
  599MOL0     H82632   8.033   7.033   1.027  0.1458  0.0292 -0.3435
  599MOL0     H82633   8.051   7.126   1.173  1.7349 -2.6364 -0.8102
  599MOL0     H82634   8.100   7.252   0.957  1.2756 -0.2505  5.3744
  599MOL0     H82635   7.939   7.218   0.913  0.4649  0.5913  0.0319
  599MOL0     H82636   7.881   7.357   1.139  0.6566 -0.7734 -0.1721
  599MOL0     H82637   7.910   7.436   0.992  1.0959  2.5503  0.7489
  599MOL0     H82638   8.030   7.559   1.124  0.3016 -0.4053  0.7694
  599MOL0     H82639   8.152   7.460   1.034  2.4774  3.6968  0.6859
  599MOL0     H82640   8.170   7.314   1.248  0.4852  0.5347  1.3489
  599MOL0     H82641   8.031   7.386   1.314  0.7982  0.2289  1.3036
  599MOL0     H82642   7.382   6.811   0.821  1.4433 -0.8424  0.3624
  599MOL0     H82643   7.215   6.664   0.898  2.2075 -0.3668 -1.0306
  599MOL0     H82644   7.056   6.500   1.312  0.5206 -0.4388  0.7241
  599MOL0     H82645   6.935   6.393   1.480  3.3653  0.3191 -2.7673
  599MOL0     H82646   5.308   5.654   1.252  1.0333  0.7573  0.8894
  599MOL0     H82647   5.102   5.742   1.165  1.3559 -1.6829  1.5442
  599MOL0     H82648   5.072   6.130   0.819  0.2860  0.0085 -2.3056
  599MOL0     H82649   4.986   6.252   0.644  1.7622 -0.7922  0.7433
  599MOL0     H82650   4.753   6.088   0.329 -0.9788 -1.9223  1.4462
  599MOL0     H82651   4.614   6.117   0.438 -0.3112 -0.6602 -0.5487
  599MOL0     H82652   4.652   6.361   0.376  1.0045  2.1107 -2.2764
  599MOL0     H82653   4.592   6.269   0.235 -2.6777 -0.2901  2.6396
  599MOL0     H82654   4.886   6.334   0.280  0.4863  2.2775  1.3931
  599MOL0     H82655   4.827   6.240   0.140 -2.8349 -2.1903  1.6779
  599MOL0     H82656   4.688   6.504   0.188  1.1648  3.4373 -1.0376
  599MOL0     H82657   4.757   6.438   0.037 -1.2741  0.2923  0.3510
  599MOL0     H82658   5.086   6.655   0.163 -0.4810 -0.4660 -2.9379
  599MOL0     H82659   4.707   5.942   0.534  1.7975  0.0729 -3.4294
  599MOL0     H82660   4.772   5.761   0.839 -1.4354 -1.0857 -0.5209
  599MOL0     H82661   4.692   5.759   0.675  0.3712  2.5956 -3.5243
  599MOL0     H82662   4.840   5.680   0.693 -1.7972  0.6818 -2.1384
  600MOL0     O82663   5.532   3.664   6.815 -0.1207  0.5658 -0.2648
  600MOL0     C82664   5.444   3.716   6.885  1.2816  0.2580 -0.3238
  600MOL0     O82665   5.468   3.821   6.981  0.0813  0.5346  0.1094
  600MOL0     C82666   5.588   3.890   6.980  0.3110 -0.1183 -0.1398
  600MOL0     C82667   5.635   3.949   6.864  0.0453 -0.3625  0.4411
  600MOL0     C82668   5.742   4.036   6.865 -0.6824  0.7686  0.3810
  600MOL0     C82669   5.817   4.044   6.987 -0.6929 -0.1071  0.2563
  600MOL0     O82670   5.938   4.114   6.977  0.3472  0.6200  0.3899
  600MOL0     C82671   6.050   4.041   7.004  0.1234  0.8370  1.0748
  600MOL0     C82672   6.090   3.949   6.893  0.5510  0.7447  0.3145
  600MOL0     C82673   6.218   3.862   6.926 -0.1991 -0.3047  0.8374
  600MOL0     C82674   6.218   3.791   7.063  0.1901 -0.0739  0.0894
  600MOL0     C82675   6.104   3.687   7.074 -0.8850 -0.0681  0.0403
  600MOL0     C82676   6.111   3.571   6.973 -0.1152 -0.5223  0.1350
  600MOL0     C82677   5.979   3.486   6.995 -0.2102 -0.1173  1.4604
  600MOL0     C82678   5.954   3.439   7.142  0.5929  0.7767  1.3200
  600MOL0     N82679   6.065   3.357   7.190  0.7808  0.5603  0.9964
  600MOL0     C82680   6.123   3.256   7.115  0.3480  0.4038 -0.2296
  600MOL0     C82681   6.214   3.201   7.201  0.1545 -0.2519  0.0447
  600MOL0     C82682   6.269   3.060   7.176 -0.3073 -0.6852 -0.1430
  600MOL0     C82683   6.197   2.947   7.255  0.2978  0.6760 -0.4355
  600MOL0     C82684   6.225   2.810   7.178 -0.2393 -0.6281  0.0668
  600MOL0     C82685   6.157   2.689   7.242  0.4843 -0.5977 -0.4429
  600MOL0     O82686   6.148   2.577   7.142  0.1123  0.7208 -1.0758
  600MOL0     C82687   6.085   2.598   7.019 -0.5759 -0.3686 -0.0936
  600MOL0     C82688   5.989   2.689   7.001 -0.1272  0.0439  1.3761
  600MOL0     C82689   5.913   2.691   6.886 -0.0909 -0.2907  0.2727
  600MOL0     C82690   5.788   2.765   6.894  0.6693 -0.4896  0.7720
  600MOL0     C82691   5.950   2.609   6.778  0.6795  0.7857  0.0732
  600MOL0     C82692   5.875   2.605   6.651  0.2554 -0.2555  0.1898
  600MOL0     O82693   5.742   2.621   6.652  0.1044 -0.0247 -0.2087
  600MOL0     C82694   5.665   2.600   6.536 -0.1601  0.5303  0.0803
  600MOL0     C82695   5.605   2.476   6.503 -0.6046  0.0192 -0.5162
  600MOL0     C82696   5.515   2.464   6.396  0.0960  0.6138  0.8194
  600MOL0     C82697   5.482   2.584   6.314 -0.1065  0.7150 -0.3230
  600MOL0     O82698   5.399   2.571   6.201 -0.1085 -0.4748 -0.3836
  600MOL0     C82699   5.421   2.662   6.092  0.4356  0.3431  0.1164
  600MOL0     C82700   5.312   2.623   5.990  0.1633  0.1995 -0.0508
  600MOL0     C82701   5.298   2.706   5.864 -0.0195 -0.0215  0.8546
  600MOL0     C82702   5.284   2.854   5.892  0.3383  0.5597  1.0747
  600MOL0     C82703   5.234   2.921   5.759 -0.0105  0.6514  0.1013
  600MOL0     C82704   5.351   2.993   5.685  1.0930 -0.1191 -0.2552
  600MOL0     C82705   5.299   3.105   5.590  0.6275  0.8442 -0.1403
  600MOL0     C82706   5.413   3.169   5.513 -0.0036  0.3186  0.4580
  600MOL0    Cl82707   5.517   3.282   5.616  0.2824  0.2019 -0.6292
  600MOL0     C82708   5.549   2.710   6.345 -0.4346 -0.1574  0.3082
  600MOL0     C82709   5.622   2.719   6.461  0.3384  0.3507  0.7346
  600MOL0     O82710   5.945   2.571   6.561  0.5815  1.2967 -0.5304
  600MOL0     C82711   6.060   2.523   6.794  0.3870 -0.1215  0.2923
  600MOL0     C82712   6.117   2.511   6.916  0.4500  0.6993 -1.0574
  600MOL0     N82713   6.216   3.278   7.311  0.2013  0.3961  0.1304
  600MOL0     N82714   6.139   3.375   7.302  0.5140  0.0038  0.1598
  600MOL0     C82715   5.771   3.989   7.106 -0.2685  0.2412  0.0103
  600MOL0     C82716   5.655   3.912   7.097 -0.6807 -0.2610  0.3811
  600MOL0     C82717   5.305   3.661   6.899 -1.0299 -0.1743 -0.8535
  600MOL0     C82718   5.237   3.695   7.014  0.1854  0.2393 -0.3498
  600MOL0     C82719   5.105   3.649   7.036 -0.3087 -0.1968 -0.2982
  600MOL0     C82720   5.042   3.543   6.955  0.7370 -1.4535 -1.0905
  600MOL0     O82721   4.926   3.486   7.004  0.2098  0.1758  0.1931
  600MOL0     C82722   4.855   3.389   6.936 -0.5086 -0.1104  0.2888
  600MOL0     C82723   4.922   3.249   6.921 -0.2353  0.7336 -0.4368
  600MOL0     C82724   4.947   3.193   7.064 -0.2368  0.1689  0.5480
  600MOL0     C82725   5.074   3.252   7.136  0.3414 -0.7428 -1.1345
  600MOL0     C82726   5.115   3.156   7.232 -0.6618  0.6440 -0.5158
  600MOL0     C82727   5.150   3.076   7.313  0.9270  0.2883 -1.0621
  600MOL0     C82728   5.109   3.505   6.840 -0.3693 -0.0827  0.2602
  600MOL0     C82729   5.235   3.571   6.802 -0.4211  0.7040 -0.0211
  600MOL0     C82730   5.308   3.537   6.674  0.6562  0.5137  0.7169
  600MOL0     H82731   5.569   3.930   6.780 -0.2271  0.1498  0.5405
  600MOL0     H82732   5.785   4.095   6.784 -0.8216  0.8115  0.3377
  600MOL0     H82733   6.042   3.985   7.098 -2.8435  0.3891  0.6512
  600MOL0     H82734   6.135   4.106   7.027  1.1574 -1.5483  5.0059
  600MOL0     H82735   6.010   3.883   6.857  1.8318 -0.0711 -1.1883
  600MOL0     H82736   6.122   4.011   6.808  1.5060  1.4510  1.1605
  600MOL0     H82737   6.218   3.787   6.846 -0.0273  2.1929 -1.6423
  600MOL0     H82738   6.300   3.929   6.902  1.9009 -2.7594  0.7269
  600MOL0     H82739   6.318   3.748   7.078  0.9162  1.9700  1.6259
  600MOL0     H82740   6.206   3.868   7.140 -2.9575  2.1053 -2.3223
  600MOL0     H82741   6.011   3.739   7.050 -1.8957 -2.0655 -0.6058
  600MOL0     H82742   6.090   3.657   7.178 -1.1602  1.0292  0.3281
  600MOL0     H82743   6.126   3.592   6.867  0.2537  3.5255  0.8565
  600MOL0     H82744   6.191   3.505   7.007 -2.0680 -1.6405  2.8696
  600MOL0     H82745   5.973   3.402   6.926 -1.9948  0.0635  1.3572
  600MOL0     H82746   5.901   3.557   6.966  2.1885  1.2637 -2.3230
  600MOL0     H82747   5.922   3.523   7.204 -2.1086 -0.3243  1.5099
  600MOL0     H82748   5.870   3.371   7.129  2.6608 -1.4146 -3.0281
  600MOL0     H82749   6.105   3.221   7.014  2.2177 -0.3981 -0.3374
  600MOL0     H82750   6.376   3.060   7.202 -0.1399 -0.3770 -0.8147
  600MOL0     H82751   6.270   3.038   7.069 -1.3430 -1.5072  0.0033
  600MOL0     H82752   6.232   2.957   7.359  1.5012  0.7805 -0.8311
  600MOL0     H82753   6.089   2.960   7.256  0.1380 -0.3781  1.8176
  600MOL0     H82754   6.215   2.821   7.070 -0.4351 -1.9073 -0.0565
  600MOL0     H82755   6.332   2.787   7.184  0.3280  1.5315 -0.7172
  600MOL0     H82756   6.207   2.653   7.332 -0.3599  1.3454  0.8603
  600MOL0     H82757   6.059   2.722   7.278  1.2480  0.5234  0.6879
  600MOL0     H82758   5.947   2.738   7.089 -0.1673 -0.9501  1.9205
  600MOL0     H82759   5.798   2.845   6.968  1.9684 -3.1814  3.7770
  600MOL0     H82760   5.702   2.708   6.929  0.5438 -2.4429 -2.3653
  600MOL0     H82761   5.762   2.812   6.799 -2.1329 -1.8018  0.8135
  600MOL0     H82762   5.638   2.391   6.562 -0.7841  1.3089  1.5565
  600MOL0     H82763   5.458   2.378   6.362 -2.1933  1.6813  1.7518
  600MOL0     H82764   5.415   2.770   6.109 -0.9789  0.8811 -3.1110
  600MOL0     H82765   5.521   2.639   6.056 -0.6791 -0.2175 -2.9388
  600MOL0     H82766   5.328   2.517   5.967 -1.0050 -0.6711  2.7244
  600MOL0     H82767   5.214   2.615   6.037  0.9465 -4.6273  1.2655
  600MOL0     H82768   5.211   2.672   5.806  0.3741 -0.3577  0.4539
  600MOL0     H82769   5.388   2.692   5.804  0.7703 -0.3978  2.0943
  600MOL0     H82770   5.378   2.895   5.930  2.2165 -1.6894 -0.7815
  600MOL0     H82771   5.209   2.868   5.969  0.1433 -1.2224  1.2508
  600MOL0     H82772   5.199   2.849   5.686  3.2295 -0.2337 -0.7724
  600MOL0     H82773   5.157   2.992   5.790  0.2354  2.3597 -2.8184
  600MOL0     H82774   5.394   2.919   5.617 -3.5542 -1.6887 -1.8643
  600MOL0     H82775   5.429   3.019   5.757  1.5602 -0.3828 -0.6530
  600MOL0     H82776   5.245   3.187   5.638 -2.1644  1.1502 -3.4340
  600MOL0     H82777   5.229   3.060   5.519 -0.5468  2.5773 -0.1402
  600MOL0     H82778   5.357   3.227   5.438 -2.4522  0.7698  2.4953
  600MOL0     H82779   5.469   3.088   5.464 -0.1950 -0.3832  1.3620
  600MOL0     H82780   5.525   2.793   6.280  1.0996 -0.9850 -1.4354
  600MOL0     H82781   5.637   2.821   6.495 -0.8564  1.4603 -1.7632
  600MOL0     H82782   6.096   2.467   6.708  1.6636 -1.6103  1.7594
  600MOL0     H82783   6.194   2.439   6.944 -3.0782 -2.9043  0.4211
  600MOL0     H82784   5.814   4.003   7.205  1.4587 -0.7724 -0.5474
  600MOL0     H82785   5.629   3.852   7.184  0.7626 -0.6362  0.5849
  600MOL0     H82786   5.280   3.768   7.082  2.8672 -0.4699 -1.1549
  600MOL0     H82787   5.056   3.686   7.126 -0.2692 -0.9535  0.0461
  600MOL0     H82788   4.762   3.385   6.992 -2.0568  0.4332 -2.0845
  600MOL0     H82789   4.832   3.423   6.834  2.8501  1.6304 -0.0425
  600MOL0     H82790   5.019   3.258   6.871  0.6321  0.1273  1.0500
  600MOL0     H82791   4.856   3.180   6.868  0.9509  0.8906 -2.1971
  600MOL0     H82792   4.860   3.200   7.130 -0.1024  3.2612  0.5586
  600MOL0     H82793   4.971   3.087   7.056  1.7202  0.7268 -3.8879
  600MOL0     H82794   5.042   3.339   7.194  1.8151 -0.1804 -1.1023
  600MOL0     H82795   5.158   3.286   7.074 -0.1589  1.2770 -0.7689
  600MOL0     H82796   5.176   2.994   7.377  2.3764  2.8795  1.9537
  600MOL0     H82797   5.065   3.439   6.767 -1.5598  0.8296  0.1121
  600MOL0     H82798   5.366   3.444   6.688 -2.0790 -1.5040 -0.4597
  600MOL0     H82799   5.229   3.508   6.605  2.1869  0.3880 -1.0742
  600MOL0     H82800   5.361   3.619   6.625  0.0649  1.6118  1.8781
  601MOL0     O82801   4.494   4.688   9.125 -0.2489  0.1340  0.8157
  601MOL0     C82802   4.487   4.566   9.121  0.0584 -1.1252 -0.6409
  601MOL0     O82803   4.585   4.481   9.073  0.5990 -0.1549 -0.0048
  601MOL0     C82804   4.681   4.516   8.988  0.0420  0.0118  1.5013
  601MOL0     C82805   4.646   4.583   8.873 -0.3390  0.0357  0.2487
  601MOL0     C82806   4.726   4.598   8.756 -0.2024  0.3377 -1.1846
  601MOL0     C82807   4.855   4.543   8.759 -1.0621 -0.7898  0.4310
  601MOL0     O82808   4.943   4.544   8.656  0.3919  0.8776  0.2318
  601MOL0     C82809   4.926   4.641   8.554 -0.8963 -0.1317 -0.2506
  601MOL0     C82810   5.011   4.607   8.431  0.9485 -0.3636  0.2712
  601MOL0     C82811   5.153   4.646   8.465  0.4630  0.2990  0.0058
  601MOL0     C82812   5.203   4.791   8.442  1.2920 -0.0856  0.4179
  601MOL0     C82813   5.252   4.813   8.295 -0.0520 -0.0194 -0.0082
  601MOL0     C82814   5.397   4.764   8.281  0.8778 -0.8040  0.3384
  601MOL0     C82815   5.500   4.861   8.337  0.3522 -0.0781 -0.0509
  601MOL0     C82816   5.635   4.811   8.322  0.1252  0.5391 -0.5664
  601MOL0     N82817   5.723   4.882   8.417  0.2713  0.7333 -0.5470
  601MOL0     C82818   5.740   4.861   8.553  0.9404  0.3393  0.4770
  601MOL0     C82819   5.828   4.959   8.594  0.7773 -0.8552 -0.4879
  601MOL0     C82820   5.868   4.988   8.740  0.3943 -0.0090  0.0533
  601MOL0     C82821   6.002   4.931   8.772 -0.1881 -0.0697 -0.5599
  601MOL0     C82822   6.059   4.986   8.907 -0.8572 -0.2025 -0.1310
  601MOL0     C82823   6.180   4.909   8.953 -0.3737  0.0014 -0.1645
  601MOL0     O82824   6.209   4.960   9.098 -0.1672  0.3375  0.0543
  601MOL0     C82825   6.338   5.015   9.120 -0.4275 -0.6229 -0.7388
  601MOL0     C82826   6.429   5.052   9.025 -0.2043  0.4854 -0.0240
  601MOL0     C82827   6.559   5.085   9.064 -0.2042 -0.7490  0.7014
  601MOL0     C82828   6.626   5.158   8.950 -0.0778 -0.4227 -0.4673
  601MOL0     C82829   6.607   5.091   9.194  0.4547 -0.0357 -0.4635
  601MOL0     C82830   6.740   5.122   9.230 -0.2509  1.0556  0.3942
  601MOL0     O82831   6.839   5.128   9.138  0.3743  0.0338  0.1690
  601MOL0     C82832   6.946   5.207   9.163  0.1222 -0.2359 -1.1213
  601MOL0     C82833   7.055   5.166   9.231 -0.3136 -0.5202  0.4752
  601MOL0     C82834   7.164   5.253   9.261  0.5432  0.4835 -0.6598
  601MOL0     C82835   7.160   5.383   9.232 -0.3589  0.3172 -0.2045
  601MOL0     O82836   7.268   5.439   9.290  0.0460  0.0406 -0.3400
  601MOL0     C82837   7.292   5.584   9.280  0.7721 -0.1650 -0.2596
  601MOL0     C82838   7.393   5.616   9.166  0.4319  0.1805 -0.7732
  601MOL0     C82839   7.361   5.552   9.029  0.5564 -0.3478 -0.6327
  601MOL0     C82840   7.435   5.420   9.000  0.8677  0.1979 -0.6164
  601MOL0     C82841   7.364   5.334   8.903  0.5994  0.9428 -0.1016
  601MOL0     C82842   7.315   5.404   8.768  0.7237  0.2895 -0.4777
  601MOL0     C82843   7.246   5.300   8.676 -1.2918  0.6243 -0.5152
  601MOL0     C82844   7.165   5.361   8.556 -0.3295  0.0592 -0.3649
  601MOL0    Cl82845   7.011   5.411   8.618  0.0301  0.1010  0.1429
  601MOL0     C82846   7.046   5.430   9.169  0.4471 -0.8260  0.0443
  601MOL0     C82847   6.945   5.342   9.127 -0.3680  0.2859 -0.5391
  601MOL0     O82848   6.757   5.128   9.350  0.8192  0.4053  0.1127
  601MOL0     C82849   6.509   5.047   9.288  0.1678  0.5259 -0.0364
  601MOL0     C82850   6.382   5.007   9.249  0.5613  1.2488 -0.1318
  601MOL0     N82851   5.859   5.042   8.487 -0.2920  0.4899 -0.0301
  601MOL0     N82852   5.797   4.989   8.382  0.4876 -0.0629 -0.1835
  601MOL0     C82853   4.892   4.472   8.874  0.1111 -0.1512 -0.1152
  601MOL0     C82854   4.805   4.458   8.992 -0.0086  0.0608  0.2660
  601MOL0     C82855   4.384   4.489   9.199 -0.1317 -0.6121 -1.0012
  601MOL0     C82856   4.349   4.371   9.145 -0.6765  0.8211  0.2761
  601MOL0     C82857   4.248   4.283   9.199  0.8585 -0.2080  0.3964
  601MOL0     C82858   4.167   4.331   9.307 -0.5741 -0.3116  1.5440
  601MOL0     O82859   4.059   4.265   9.371 -1.1159 -0.2629 -0.1793
  601MOL0     C82860   4.013   4.130   9.342 -0.4619 -0.4451  0.7941
  601MOL0     C82861   4.109   4.020   9.393 -0.5225 -0.0878  0.0500
  601MOL0     C82862   4.132   4.035   9.546 -0.4118  0.3302  0.1989
  601MOL0     C82863   4.003   4.028   9.635 -0.1989 -0.5656  0.2294
  601MOL0     C82864   4.038   4.069   9.770 -0.2393 -0.3763  0.9978
  601MOL0     C82865   4.087   4.091   9.880 -0.0848  0.0889  0.0558
  601MOL0     C82866   4.194   4.455   9.366 -0.0715  0.5166 -0.4550
  601MOL0     C82867   4.303   4.541   9.311  0.2980  1.2857 -0.3688
  601MOL0     C82868   4.345   4.654   9.399 -0.7197  0.1287  0.3544
  601MOL0     H82869   4.547   4.626   8.863 -0.9478 -1.3477  0.2083
  601MOL0     H82870   4.681   4.653   8.675  0.3443  0.3090 -1.5152
  601MOL0     H82871   4.947   4.740   8.597  0.0608 -0.3531 -0.1814
  601MOL0     H82872   4.822   4.636   8.523 -2.0999 -0.7785  3.4927
  601MOL0     H82873   4.992   4.501   8.410  2.2116 -0.8349  1.3703
  601MOL0     H82874   4.982   4.669   8.346 -1.5529 -0.9144  0.6466
  601MOL0     H82875   5.175   4.617   8.568  2.1266 -0.4040 -0.5067
  601MOL0     H82876   5.212   4.578   8.402  1.4308  0.3742  0.8046
  601MOL0     H82877   5.125   4.862   8.471 -1.5502 -3.2198  1.1636
  601MOL0     H82878   5.282   4.807   8.516 -0.8462 -0.4299  2.9392
  601MOL0     H82879   5.247   4.921   8.277 -0.5583  0.0279  0.4191
  601MOL0     H82880   5.193   4.767   8.216  0.9832  0.7109 -1.2526
  601MOL0     H82881   5.403   4.665   8.327  0.5324 -0.8082  0.3743
  601MOL0     H82882   5.408   4.764   8.172 -1.3949  0.6798  0.0559
  601MOL0     H82883   5.469   4.883   8.439 -1.8503 -2.6552 -0.0594
  601MOL0     H82884   5.492   4.958   8.288 -0.0885  1.2309  2.4545
  601MOL0     H82885   5.641   4.705   8.350 -0.0658  1.6548  4.6788
  601MOL0     H82886   5.683   4.820   8.225  1.2402 -1.5999 -0.2791
  601MOL0     H82887   5.696   4.792   8.623  0.6352  2.7407  2.8280
  601MOL0     H82888   5.796   4.951   8.814  2.2064 -0.8778  1.4943
  601MOL0     H82889   5.864   5.096   8.755  1.6107 -0.2735  3.0488
  601MOL0     H82890   5.994   4.823   8.787 -1.7448  0.0487 -0.3744
  601MOL0     H82891   6.073   4.958   8.693  1.0887  1.1249  0.9307
  601MOL0     H82892   6.083   5.092   8.899 -0.1615  0.1896  4.6745
  601MOL0     H82893   5.982   4.974   8.984  1.1018 -0.1716  1.8944
  601MOL0     H82894   6.168   4.802   8.971  2.1239  0.0054  2.2603
  601MOL0     H82895   6.264   4.917   8.884  0.0079  0.0062  0.2932
  601MOL0     H82896   6.394   5.060   8.922  0.8031 -1.2005 -0.5421
  601MOL0     H82897   6.654   5.260   8.977  2.5128 -1.6440  1.8907
  601MOL0     H82898   6.561   5.160   8.862  1.0945  0.8157 -1.3434
  601MOL0     H82899   6.721   5.109   8.927  0.7081  1.4094 -1.3030
  601MOL0     H82900   7.074   5.064   9.262  1.0721 -0.3556  0.2638
  601MOL0     H82901   7.247   5.216   9.320 -0.6663  0.7941  1.3142
  601MOL0     H82902   7.196   5.627   9.249  0.4353 -0.3262  0.5263
  601MOL0     H82903   7.336   5.612   9.376  0.9427  0.1302 -0.4225
  601MOL0     H82904   7.385   5.724   9.148 -1.6360  0.1641 -0.1574
  601MOL0     H82905   7.496   5.598   9.197  0.3860 -1.2304 -1.3560
  601MOL0     H82906   7.394   5.629   8.960 -0.2427 -0.2922 -0.9704
  601MOL0     H82907   7.252   5.542   9.020  0.6897 -0.3923 -2.5711
  601MOL0     H82908   7.451   5.370   9.096 -3.5508  1.3328  0.9578
  601MOL0     H82909   7.537   5.441   8.966  0.5865  0.0006 -1.6338
  601MOL0     H82910   7.434   5.254   8.877 -0.3855 -0.5812  1.6929
  601MOL0     H82911   7.279   5.293   8.959  0.1114  2.0594  0.0057
  601MOL0     H82912   7.402   5.444   8.714  1.4435 -3.0576 -2.0542
  601MOL0     H82913   7.245   5.483   8.796  1.6384  1.1043 -0.4582
  601MOL0     H82914   7.198   5.224   8.737  1.0552  0.6477  1.5229
  601MOL0     H82915   7.335   5.247   8.639  0.0659  0.6700  2.3824
  601MOL0     H82916   7.131   5.286   8.484 -0.5082 -2.6213  2.3214
  601MOL0     H82917   7.209   5.447   8.505 -1.4684 -0.8817 -3.1060
  601MOL0     H82918   7.023   5.533   9.143  2.2986 -0.2729  0.4979
  601MOL0     H82919   6.862   5.386   9.073 -1.6564  1.4165  2.1810
  601MOL0     H82920   6.534   5.039   9.393  0.7032 -0.5522 -0.2366
  601MOL0     H82921   6.310   4.958   9.314  0.0973  0.2277 -1.3834
  601MOL0     H82922   4.989   4.424   8.884  0.2093  0.0598 -0.0523
  601MOL0     H82923   4.824   4.405   9.085 -0.8229 -1.7634 -0.5491
  601MOL0     H82924   4.397   4.331   9.056  1.0767 -0.4227  1.6995
  601MOL0     H82925   4.235   4.189   9.146  3.1811  0.1453 -0.9104
  601MOL0     H82926   3.914   4.119   9.387 -1.3278 -2.6337 -1.4006
  601MOL0     H82927   4.000   4.114   9.235 -1.7493  0.8535  0.7363
  601MOL0     H82928   4.209   4.027   9.349 -0.0653  1.7247  1.2557
  601MOL0     H82929   4.063   3.922   9.378  0.4237 -0.6918  0.9577
  601MOL0     H82930   4.199   3.955   9.579  1.8387  0.5472 -3.3153
  601MOL0     H82931   4.189   4.126   9.563 -0.9573  0.4257  1.6241
  601MOL0     H82932   3.976   3.923   9.646  1.7865 -1.2863 -1.2838
  601MOL0     H82933   3.921   4.092   9.599 -0.1913  0.0568  1.2589
  601MOL0     H82934   4.123   4.118   9.978 -2.9230  1.6084  0.7838
  601MOL0     H82935   4.157   4.483   9.464  2.6131  1.7183  0.3041
  601MOL0     H82936   4.452   4.674   9.398 -0.8420  0.9064 -1.3263
  601MOL0     H82937   4.280   4.741   9.383 -0.5490 -0.2583 -3.1867
  601MOL0     H82938   4.322   4.621   9.501 -0.7683 -0.0223  0.2949
  602MOL0     O82939   5.135   4.332  11.284  0.5836 -0.6406  0.0026
  602MOL0     C82940   5.100   4.453  11.304  0.1180  0.5415  0.1650
  602MOL0     O82941   5.102   4.506  11.431  0.3058  0.3152 -0.1859
  602MOL0     C82942   5.128   4.412  11.528  0.6284  1.1926 -0.2210
  602MOL0     C82943   5.019   4.327  11.574  0.0436  0.4766 -0.4510
  602MOL0     C82944   5.046   4.228  11.669 -0.7918  0.7350 -0.4520
  602MOL0     C82945   5.168   4.210  11.723 -0.7613 -0.6358  1.0240
  602MOL0     O82946   5.192   4.109  11.812 -0.9267  0.5333 -1.0632
  602MOL0     C82947   5.187   3.970  11.769 -0.3675  0.3599  0.0240
  602MOL0     C82948   5.292   3.949  11.658  0.1188  0.9391 -0.2267
  602MOL0     C82949   5.434   3.981  11.717 -0.9110  0.2951  0.4537
  602MOL0     C82950   5.537   4.002  11.606  0.5571  0.0869 -0.2640
  602MOL0     C82951   5.673   4.053  11.653  0.6910  0.1285  0.7464
  602MOL0     C82952   5.751   4.088  11.532 -0.1822 -0.5931  0.4527
  602MOL0     C82953   5.889   4.139  11.575  0.2560 -0.1886 -0.1850
  602MOL0     C82954   5.954   4.202  11.448 -0.9928  0.3184 -0.1732
  602MOL0     N82955   6.078   4.277  11.469 -0.7130  0.8164  0.4171
  602MOL0     C82956   6.203   4.223  11.493  0.4098  0.1695 -0.6713
  602MOL0     C82957   6.281   4.331  11.497 -0.6087  0.6391  0.2564
  602MOL0     C82958   6.436   4.340  11.503  0.1980  0.0221 -1.1248
  602MOL0     C82959   6.471   4.367  11.656 -0.9250  0.0416  0.3245
  602MOL0     C82960   6.616   4.316  11.681 -0.2264  0.7049  0.5098
  602MOL0     C82961   6.736   4.390  11.599  0.4012  1.1890 -0.2659
  602MOL0     O82962   6.725   4.526  11.632  0.4179  0.6059  0.1024
  602MOL0     C82963   6.835   4.598  11.672 -1.2553 -0.9414  0.3112
  602MOL0     C82964   6.969   4.563  11.683 -0.1236  0.2966  0.3468
  602MOL0     C82965   7.078   4.643  11.703  0.0960  1.0075 -0.1245
  602MOL0     C82966   7.211   4.576  11.714  0.2947  0.2053 -0.3949
  602MOL0     C82967   7.054   4.776  11.727  0.3171  0.1210 -0.4874
  602MOL0     C82968   7.155   4.883  11.754  1.2843 -0.4191 -0.0193
  602MOL0     O82969   7.275   4.857  11.696 -0.5023  0.2286 -0.0970
  602MOL0     C82970   7.389   4.936  11.729 -0.5566  0.3404  0.4876
  602MOL0     C82971   7.447   5.016  11.629 -0.3153 -0.0080 -0.6654
  602MOL0     C82972   7.542   5.110  11.657 -0.1862 -0.9892  0.2937
  602MOL0     C82973   7.591   5.115  11.786 -0.6890  0.1442 -0.6177
  602MOL0     O82974   7.686   5.205  11.824 -0.2813  0.5642 -0.1662
  602MOL0     C82975   7.766   5.279  11.724  0.3034  0.4792  0.0250
  602MOL0     C82976   7.913   5.310  11.780  1.0680  0.0195 -0.0700
  602MOL0     C82977   7.997   5.182  11.799  0.5139 -0.4934  0.4339
  602MOL0     C82978   8.009   5.081  11.680  0.3701  0.5264 -0.2081
  602MOL0     C82979   8.147   4.999  11.682  0.1983 -0.6931  0.6491
  602MOL0     C82980   8.152   4.890  11.803  0.3029  0.5152 -0.0240
  602MOL0     C82981   8.209   4.756  11.761  0.6029  0.1271 -0.0974
  602MOL0     C82982   8.181   4.653  11.878 -0.5743  0.4206 -0.6723
  602MOL0    Cl82983   8.271   4.498  11.835  0.3444 -0.2198  0.2145
  602MOL0     C82984   7.545   5.026  11.884 -0.6007 -0.4460 -0.0116
  602MOL0     C82985   7.438   4.940  11.862 -0.3819 -0.8207 -0.3473
  602MOL0     O82986   7.129   4.979  11.820 -0.0362  0.8016  0.5515
  602MOL0     C82987   6.916   4.820  11.736 -0.2720 -0.6784 -1.4596
  602MOL0     C82988   6.816   4.735  11.694 -0.1306 -0.6945  0.2465
  602MOL0     N82989   6.217   4.444  11.469  0.7331 -0.0182 -0.1306
  602MOL0     N82990   6.093   4.409  11.460  0.9965  0.0368 -0.0936
  602MOL0     C82991   5.275   4.293  11.677 -0.1257  0.4002 -0.5551
  602MOL0     C82992   5.253   4.385  11.577  0.3178 -0.1732 -0.6632
  602MOL0     C82993   5.083   4.553  11.197 -0.0507  0.7483 -0.2944
  602MOL0     C82994   5.082   4.687  11.229  0.0770  0.1023 -0.0312
  602MOL0     C82995   5.052   4.782  11.136  0.1986  0.5394 -1.4676
  602MOL0     C82996   5.042   4.757  10.996 -0.2796  0.3849  0.2273
  602MOL0     O82997   5.030   4.858  10.900 -0.9165 -0.0045 -0.5093
  602MOL0     C82998   5.009   4.822  10.763  0.2751 -0.0660  0.0938
  602MOL0     C82999   4.972   4.955  10.705  0.3479 -0.4047  0.9552
  602MOL0     C83000   5.077   5.069  10.703  0.8347  0.1394 -0.3809
  602MOL0     C83001   5.162   5.076  10.586 -0.9365 -0.4647 -0.6975
  602MOL0     C83002   5.088   5.106  10.468 -0.7367  0.0097  0.0407
  602MOL0     C83003   5.024   5.151  10.371 -0.8948 -0.7232 -0.0380
  602MOL0     C83004   5.045   4.617  10.962 -0.1795 -0.3640  0.2889
  602MOL0     C83005   5.057   4.518  11.061  0.1288  0.2542 -0.2012
  602MOL0     C83006   5.064   4.376  11.000 -0.7102 -0.8039  0.8509
  602MOL0     H83007   4.915   4.346  11.548  0.3029  2.1644 -0.3794
  602MOL0     H83008   4.970   4.159  11.704  2.1639 -2.0595  1.0053
  602MOL0     H83009   5.083   3.967  11.734 -0.5296 -0.7353  0.5799
  602MOL0     H83010   5.192   3.901  11.853 -2.5898  0.3381  0.1861
  602MOL0     H83011   5.280   3.844  11.629  0.3554  0.2580  1.9630
  602MOL0     H83012   5.274   4.015  11.573 -3.1031 -1.6475 -1.8046
  602MOL0     H83013   5.445   4.074  11.774 -4.0293 -0.3940  2.4146
  602MOL0     H83014   5.464   3.905  11.789 -0.7187  1.6243  1.8209
  602MOL0     H83015   5.553   3.914  11.543  5.2478  0.3773  0.1662
  602MOL0     H83016   5.496   4.091  11.555  0.3555  1.5537  2.2891
  602MOL0     H83017   5.718   3.972  11.711  1.6858 -2.7947 -3.5914
  602MOL0     H83018   5.645   4.133  11.722 -1.3566 -0.3614  0.5513
  602MOL0     H83019   5.763   3.999  11.471  0.3849 -0.0867 -0.1887
  602MOL0     H83020   5.695   4.164  11.477  0.7301 -0.4228 -0.2628
  602MOL0     H83021   5.962   4.072  11.621  4.1002  0.9827 -3.9160
  602MOL0     H83022   5.872   4.226  11.640  3.3343 -1.4515  2.5796
  602MOL0     H83023   5.964   4.122  11.374 -3.5606 -0.9471  0.7473
  602MOL0     H83024   5.888   4.275  11.401  1.3073  1.7462 -1.4178
  602MOL0     H83025   6.218   4.116  11.510  0.1760  0.4945  2.0772
  602MOL0     H83026   6.462   4.419  11.432  0.9443 -2.2461 -3.5510
  602MOL0     H83027   6.477   4.245  11.465  1.0909 -0.8744  1.8397
  602MOL0     H83028   6.473   4.475  11.670  0.6680  0.1306 -0.3066
  602MOL0     H83029   6.394   4.324  11.720 -1.1413  1.3979  1.0170
  602MOL0     H83030   6.635   4.338  11.786  1.6530  0.6803  0.2168
  602MOL0     H83031   6.616   4.210  11.656  1.6003  0.5329  1.0999
  602MOL0     H83032   6.829   4.336  11.619 -0.4731 -0.1926  0.2123
  602MOL0     H83033   6.717   4.379  11.492  2.3499  1.7315 -0.7114
  602MOL0     H83034   6.998   4.459  11.670 -0.0802  0.2544  0.7499
  602MOL0     H83035   7.273   4.626  11.639 -2.2121 -1.8729 -4.1352
  602MOL0     H83036   7.212   4.467  11.708  0.5508 -0.1552  3.3451
  602MOL0     H83037   7.256   4.583  11.814 -1.4398 -0.4213  0.4680
  602MOL0     H83038   7.398   5.013  11.532 -1.2035 -0.9053 -0.2092
  602MOL0     H83039   7.578   5.179  11.581  1.5878 -1.9533  0.1953
  602MOL0     H83040   7.780   5.239  11.623  0.6971  0.1669  0.2026
  602MOL0     H83041   7.718   5.377  11.712  1.2696  0.9429 -0.1521
  602MOL0     H83042   7.971   5.369  11.708  0.2311 -1.9795 -2.5373
  602MOL0     H83043   7.901   5.365  11.874 -2.2734  0.6496 -0.7520
  602MOL0     H83044   7.966   5.113  11.877  0.2131 -2.6721 -1.5132
  602MOL0     H83045   8.098   5.206  11.836  1.0724 -4.0038  1.5843
  602MOL0     H83046   7.992   5.120  11.579 -1.0567 -1.3184 -0.7258
  602MOL0     H83047   7.925   5.012  11.688 -0.2240  1.3555  0.9684
  602MOL0     H83048   8.162   4.945  11.589  0.4782 -4.4886  2.6997
  602MOL0     H83049   8.230   5.070  11.697 -0.6849  1.3291 -2.8605
  602MOL0     H83050   8.051   4.866  11.838 -1.1855  0.8784 -3.6201
  602MOL0     H83051   8.208   4.938  11.883 -1.0082 -0.1452  1.3245
  602MOL0     H83052   8.310   4.752  11.720  0.3199 -1.0150 -0.7516
  602MOL0     H83053   8.151   4.723  11.674  2.3441  3.6126 -2.8308
  602MOL0     H83054   8.074   4.635  11.895 -0.1613  0.9630  3.3992
  602MOL0     H83055   8.217   4.686  11.975 -3.1005 -1.2540  0.9671
  602MOL0     H83056   7.589   5.040  11.982  1.7088 -3.4409 -0.4719
  602MOL0     H83057   7.387   4.900  11.949  0.2730  0.0807  0.4672
  602MOL0     H83058   6.891   4.924  11.755  0.7963 -0.8013  0.9438
  602MOL0     H83059   6.718   4.777  11.670 -0.7470  0.0041  3.5066
  602MOL0     H83060   5.376   4.274  11.710 -0.0277  2.6878  0.6823
  602MOL0     H83061   5.331   4.458  11.557  0.7864 -0.1179  1.1437
  602MOL0     H83062   5.099   4.721  11.331 -2.1088  1.5124 -0.0914
  602MOL0     H83063   5.059   4.882  11.178  2.4389  0.2057 -0.9170
  602MOL0     H83064   5.094   4.771  10.718  0.8316  1.4120 -0.6000
  602MOL0     H83065   4.918   4.764  10.747  0.4100  0.2569 -2.2530
  602MOL0     H83066   4.884   4.987  10.761  0.7861 -0.5993  1.7574
  602MOL0     H83067   4.941   4.930  10.603 -1.2827 -0.1895  1.3651
  602MOL0     H83068   5.018   5.161  10.712  0.1506 -0.3645  0.2595
  602MOL0     H83069   5.147   5.050  10.784  0.2448  1.6481  0.5213
  602MOL0     H83070   5.208   4.978  10.569 -3.1700 -1.4735 -1.3212
  602MOL0     H83071   5.235   5.152  10.612 -1.8429 -0.1721  1.1922
  602MOL0     H83072   4.957   5.207  10.309 -0.1985  0.3460  0.1495
  602MOL0     H83073   5.048   4.591  10.857  2.8247 -5.2411  1.2442
  602MOL0     H83074   5.170   4.359  10.980 -1.1509 -0.8634 -1.7414
  602MOL0     H83075   5.020   4.311  11.076 -1.3405 -3.1746 -1.4055
  602MOL0     H83076   5.005   4.357  10.910 -0.8454  1.8234  0.2791
  603MOL0     O83077   3.934   6.028   7.241 -0.5589 -1.4150 -0.4745
  603MOL0     C83078   3.855   6.057   7.335 -0.1909  0.3904 -0.9689
  603MOL0     O83079   3.825   5.968   7.429  0.0870  0.9169  0.7147
  603MOL0     C83080   3.698   5.955   7.483  0.1911 -0.7935  0.3189
  603MOL0     C83081   3.662   6.012   7.605 -0.3782 -0.1455  0.2722
  603MOL0     C83082   3.532   5.989   7.650  0.6709  0.3424 -1.4800
  603MOL0     C83083   3.437   5.920   7.572 -0.0355  0.7614 -0.1802
  603MOL0     O83084   3.302   5.900   7.600 -0.1115 -0.7569 -0.5287
  603MOL0     C83085   3.264   5.897   7.745 -1.4841  0.2653  0.2441
  603MOL0     C83086   3.173   5.773   7.758  0.8422  0.7907  0.0419
  603MOL0     C83087   3.047   5.788   7.672  0.0972  0.2395 -1.2206
  603MOL0     C83088   2.946   5.668   7.698  0.8920 -0.4972  0.6641
  603MOL0     C83089   2.807   5.706   7.634  0.2775  0.3536  0.2172
  603MOL0     C83090   2.799   5.741   7.487 -0.2295  0.3743  0.5907
  603MOL0     C83091   2.875   5.646   7.391  0.5308 -0.9642  0.7517
  603MOL0     C83092   2.888   5.700   7.248 -1.0281 -0.2359  0.1205
  603MOL0     N83093   2.949   5.832   7.222 -0.4543  0.4479  0.4304
  603MOL0     C83094   3.059   5.885   7.280  0.6711  0.6464 -0.2360
  603MOL0     C83095   3.058   6.013   7.236 -0.3347  0.1270  0.5368
  603MOL0     C83096   3.188   6.092   7.255  0.2013  0.0813  0.8451
  603MOL0     C83097   3.205   6.183   7.381  0.5231 -0.5382 -1.4059
  603MOL0     C83098   3.343   6.258   7.365  0.0279  0.5781  0.0431
  603MOL0     C83099   3.383   6.320   7.502 -0.0589 -0.7706  0.6469
  603MOL0     O83100   3.280   6.403   7.559 -0.0744 -0.3569  0.0418
  603MOL0     C83101   3.255   6.525   7.499 -0.2891  0.6603 -0.3691
  603MOL0     C83102   3.312   6.579   7.385  0.1403 -1.1747 -0.3553
  603MOL0     C83103   3.272   6.703   7.318 -0.8549  0.5065  0.7874
  603MOL0     C83104   3.341   6.752   7.190 -0.9149  0.2628 -0.3925
  603MOL0     C83105   3.181   6.783   7.391 -1.1132 -0.0115 -0.1579
  603MOL0     C83106   3.145   6.926   7.382 -0.6316 -0.1226  1.0259
  603MOL0     O83107   3.066   6.986   7.481  0.0212 -0.3131 -0.0285
  603MOL0     C83108   3.077   7.119   7.487  0.6331 -0.4759 -0.0419
  603MOL0     C83109   3.099   7.172   7.616 -0.6076 -0.1282  0.3580
  603MOL0     C83110   3.112   7.314   7.636 -0.5217  0.3128 -0.4296
  603MOL0     C83111   3.099   7.400   7.527  0.1653 -0.2485 -0.0533
  603MOL0     O83112   3.116   7.533   7.562 -0.5811 -0.3151 -0.1186
  603MOL0     C83113   3.148   7.618   7.460  0.7550  0.8127  0.0630
  603MOL0     C83114   3.051   7.723   7.427  0.5664  0.7629  0.5394
  603MOL0     C83115   2.932   7.669   7.348  0.6647  0.9145 -0.3367
  603MOL0     C83116   2.824   7.775   7.317 -0.4045  0.0814  0.6491
  603MOL0     C83117   2.702   7.728   7.261 -0.6884  0.9970  0.7151
  603MOL0     C83118   2.621   7.840   7.201  0.8907 -0.0342 -0.2551
  603MOL0     C83119   2.505   7.791   7.120 -0.8108 -0.1043 -0.5451
  603MOL0     C83120   2.406   7.909   7.091 -1.4228 -0.0367 -0.0702
  603MOL0    Cl83121   2.286   7.826   6.990 -0.2673  0.0185  0.0650
  603MOL0     C83122   3.059   7.348   7.404 -0.0797 -0.2283 -0.9421
  603MOL0     C83123   3.042   7.214   7.387 -0.0308  0.6617  0.4322
  603MOL0     O83124   3.179   6.981   7.282 -0.0918 -0.5199  0.1051
  603MOL0     C83125   3.123   6.729   7.511  0.0545  0.2382 -0.2207
  603MOL0     C83126   3.163   6.608   7.562  1.0779  1.1088 -0.5832
  603MOL0     N83127   2.949   6.035   7.159 -0.4178  0.6298 -1.1881
  603MOL0     N83128   2.886   5.923   7.151 -0.3512 -0.1215  0.0562
  603MOL0     C83129   3.469   5.885   7.447  0.8817  0.3954 -0.1686
  603MOL0     C83130   3.600   5.893   7.402 -0.4643  0.9099 -1.0029
  603MOL0     C83131   3.789   6.196   7.334  1.4025 -1.1170 -0.2172
  603MOL0     C83132   3.815   6.288   7.432  0.2092  0.2222  0.3137
  603MOL0     C83133   3.773   6.418   7.427 -1.0944 -0.3935  0.1661
  603MOL0     C83134   3.695   6.465   7.315 -0.0876  0.0127 -0.2376
  603MOL0     O83135   3.654   6.594   7.303  0.0859 -0.9337  1.0426
  603MOL0     C83136   3.697   6.701   7.385 -0.5221  0.3081 -0.2941
  603MOL0     C83137   3.744   6.810   7.292 -0.2980 -0.2303 -0.5934
  603MOL0     C83138   3.819   6.925   7.357 -0.7389  0.3416 -0.5759
  603MOL0     C83139   3.733   6.984   7.464  0.9936  0.1733  0.2389
  603MOL0     C83140   3.606   7.040   7.425  0.4894  0.0513 -0.7904
  603MOL0     C83141   3.493   7.084   7.392 -0.0798 -0.0353  0.3238
  603MOL0     C83142   3.650   6.360   7.224 -0.1662  0.2652 -1.1039
  603MOL0     C83143   3.699   6.231   7.233  0.1111  0.4958  0.1450
  603MOL0     C83144   3.657   6.143   7.115  0.8492  0.5967  0.3232
  603MOL0     H83145   3.734   6.058   7.671  0.0968 -0.3080 -0.1270
  603MOL0     H83146   3.491   6.036   7.739  3.0338  0.0684 -0.1471
  603MOL0     H83147   3.210   5.984   7.783 -2.0019  0.0805 -0.0552
  603MOL0     H83148   3.357   5.871   7.796  0.1709  1.2893 -2.0996
  603MOL0     H83149   3.219   5.676   7.739 -2.6848 -0.6819 -2.0240
  603MOL0     H83150   3.148   5.778   7.864 -3.2520  3.5908 -0.7755
  603MOL0     H83151   3.006   5.888   7.691  1.1539  0.7476 -1.5236
  603MOL0     H83152   3.073   5.781   7.566  0.2100 -0.1889 -1.1665
  603MOL0     H83153   2.988   5.572   7.669  2.1268 -0.1957  1.4094
  603MOL0     H83154   2.919   5.648   7.802 -3.7164 -3.5427 -0.7754
  603MOL0     H83155   2.776   5.794   7.690  0.6077 -1.1323  2.8887
  603MOL0     H83156   2.744   5.618   7.649  0.6303 -0.1965 -1.3151
  603MOL0     H83157   2.696   5.734   7.451  1.2629 -1.3305 -4.1748
  603MOL0     H83158   2.845   5.840   7.490  0.4424  0.0620  2.9389
  603MOL0     H83159   2.827   5.548   7.384 -0.2872 -0.4932 -0.5948
  603MOL0     H83160   2.977   5.632   7.429  0.8141  3.8805  2.5311
  603MOL0     H83161   2.960   5.639   7.193 -0.0419 -2.1880  3.3154
  603MOL0     H83162   2.785   5.682   7.216 -0.4061 -2.5528 -0.7961
  603MOL0     H83163   3.146   5.836   7.323  0.1963 -0.1424 -0.1689
  603MOL0     H83164   3.200   6.158   7.168  2.9119 -1.4226 -0.0603
  603MOL0     H83165   3.273   6.024   7.258  2.9923  3.1950 -0.6564
  603MOL0     H83166   3.126   6.258   7.393  0.1302 -0.4853 -3.8954
  603MOL0     H83167   3.194   6.118   7.468 -1.0128  0.7045 -0.6163
  603MOL0     H83168   3.414   6.185   7.324 -1.3744 -0.1939 -1.0829
  603MOL0     H83169   3.327   6.333   7.288  0.0634  0.8604  0.3086
  603MOL0     H83170   3.393   6.243   7.580 -5.0219 -2.4836 -0.0979
  603MOL0     H83171   3.482   6.364   7.490  1.0930 -2.7400  2.1563
  603MOL0     H83172   3.397   6.535   7.334  1.0024  0.5328 -0.4478
  603MOL0     H83173   3.399   6.841   7.216 -0.0216  0.1318 -1.8020
  603MOL0     H83174   3.264   6.784   7.119 -0.0867  3.0959 -0.1468
  603MOL0     H83175   3.426   6.691   7.157  0.8788  1.9761  0.7766
  603MOL0     H83176   3.100   7.102   7.698 -1.0457 -2.4070 -1.4754
  603MOL0     H83177   3.127   7.349   7.737 -4.1851  0.7124  0.1225
  603MOL0     H83178   3.224   7.693   7.482  0.9956  1.1004 -1.6179
  603MOL0     H83179   3.188   7.560   7.377  0.1845 -0.7968  0.8705
  603MOL0     H83180   3.014   7.769   7.519  1.0090  1.2217  0.4941
  603MOL0     H83181   3.096   7.805   7.369 -1.7807  2.7489  1.3180
  603MOL0     H83182   2.888   7.597   7.417 -0.1788  1.6050 -0.1371
  603MOL0     H83183   2.968   7.612   7.261  2.9262 -2.8767  2.7068
  603MOL0     H83184   2.875   7.841   7.246  1.3409 -1.7076  0.1621
  603MOL0     H83185   2.808   7.839   7.405 -1.4103  0.0888  0.4776
  603MOL0     H83186   2.720   7.644   7.193 -1.0480 -0.2167  2.0507
  603MOL0     H83187   2.633   7.691   7.338  0.0583 -1.5700  0.2560
  603MOL0     H83188   2.685   7.906   7.142 -0.1379 -0.0579 -1.4327
  603MOL0     H83189   2.580   7.906   7.277  0.7228  0.1700 -0.5193
  603MOL0     H83190   2.450   7.717   7.179 -1.0023 -1.2190 -2.0771
  603MOL0     H83191   2.534   7.740   7.028  0.7566  0.9847 -0.6982
  603MOL0     H83192   2.456   7.985   7.029 -0.2055 -1.1210 -0.4625
  603MOL0     H83193   2.372   7.947   7.188 -0.8824 -2.3490  1.0951
  603MOL0     H83194   3.041   7.423   7.327 -0.0387  1.9149  1.0242
  603MOL0     H83195   2.997   7.173   7.296  1.8347  1.9806 -1.1712
  603MOL0     H83196   3.052   6.784   7.572  1.8206  2.0716  0.2864
  603MOL0     H83197   3.113   6.582   7.655  2.1771  0.5683 -0.1217
  603MOL0     H83198   3.395   5.847   7.376  1.0094 -1.7352  0.7566
  603MOL0     H83199   3.616   5.859   7.301  0.7716  0.0785 -0.5482
  603MOL0     H83200   3.891   6.269   7.507  4.9753 -1.5626 -4.3285
  603MOL0     H83201   3.824   6.488   7.494  1.7616 -1.1161 -1.0913
  603MOL0     H83202   3.617   6.733   7.454  0.3489 -0.8184  1.3037
  603MOL0     H83203   3.788   6.684   7.443 -0.3295  1.3915 -0.2543
  603MOL0     H83204   3.666   6.850   7.226 -1.7409 -0.5531  0.8702
  603MOL0     H83205   3.813   6.766   7.219 -0.0581 -2.2816  0.7985
  603MOL0     H83206   3.905   6.881   7.408 -1.5735 -2.9665 -1.7316
  603MOL0     H83207   3.856   6.998   7.284  0.5555  1.5485  1.2101
  603MOL0     H83208   3.778   7.067   7.520 -0.3580  2.1469 -1.4921
  603MOL0     H83209   3.718   6.902   7.535  1.8632 -0.6295 -0.4708
  603MOL0     H83210   3.401   7.126   7.359  0.2214  1.6485  1.4764
  603MOL0     H83211   3.583   6.401   7.150 -0.1557  0.5640 -0.9509
  603MOL0     H83212   3.720   6.172   7.030 -0.0498  2.6279  0.2863
  603MOL0     H83213   3.662   6.038   7.146  1.1405  0.2600 -0.8341
  603MOL0     H83214   3.551   6.146   7.086  1.2571  1.4202 -1.1770
  604MOL0     O83215   5.491   0.344   3.210 -0.2144  0.8203 -0.0086
  604MOL0     C83216   5.566   0.412   3.278  0.1693  0.3467 -1.3195
  604MOL0     O83217   5.531   0.515   3.364  0.5228 -0.1012  0.0999
  604MOL0     C83218   5.401   0.525   3.388  0.1367  0.3593 -0.1036
  604MOL0     C83219   5.314   0.594   3.302 -0.4479 -0.0058  0.0756
  604MOL0     C83220   5.176   0.599   3.327  0.6950 -0.4658 -0.0468
  604MOL0     C83221   5.124   0.541   3.444  0.7567 -0.0656  0.6744
  604MOL0     O83222   4.988   0.528   3.476 -0.4100  0.0769  0.6643
  604MOL0     C83223   4.890   0.587   3.387 -0.2363  0.0858  0.1237
  604MOL0     C83224   4.748   0.596   3.454 -0.3628 -0.3627  0.8916
  604MOL0     C83225   4.637   0.605   3.351  0.3751  0.8334 -0.4690
  604MOL0     C83226   4.504   0.627   3.421  0.4542 -0.0898 -0.3023
  604MOL0     C83227   4.389   0.644   3.325  0.6553 -0.2368  0.2958
  604MOL0     C83228   4.268   0.677   3.414 -0.0622  0.7409  0.1070
  604MOL0     C83229   4.136   0.705   3.336 -0.4953  0.5024  0.5166
  604MOL0     C83230   4.091   0.565   3.287  0.3591 -0.2007 -0.3177
  604MOL0     N83231   3.968   0.519   3.353 -0.5692 -1.3278  0.3075
  604MOL0     C83232   3.953   0.481   3.481  0.3457 -0.8002  0.2946
  604MOL0     C83233   3.836   0.403   3.480  0.3557 -0.2951 -0.0882
  604MOL0     C83234   3.783   0.322   3.603  0.4417 -0.9076  0.6424
  604MOL0     C83235   3.679   0.207   3.591  0.9842  0.2387  0.5198
  604MOL0     C83236   3.716   0.108   3.473 -0.3452  0.2546  0.3416
  604MOL0     C83237   3.616  -0.010   3.453 -0.8039  0.1468 -0.3450
  604MOL0     O83238   3.613  -0.103   3.566 -0.2788 -0.9601  0.1887
  604MOL0     C83239   3.640  -0.234   3.534 -0.1861 -0.1418  0.7082
  604MOL0     C83240   3.744  -0.305   3.593  0.6145 -0.3259 -0.6205
  604MOL0     C83241   3.756  -0.440   3.585  0.0004  0.3614 -0.0780
  604MOL0     C83242   3.879  -0.485   3.658  0.2424  1.0750 -1.0797
  604MOL0     C83243   3.672  -0.519   3.506  0.7221 -0.5811  0.2021
  604MOL0     C83244   3.688  -0.658   3.475 -0.5571 -0.0892 -0.1351
  604MOL0     O83245   3.649  -0.700   3.355 -1.0415  0.6121  0.3097
  604MOL0     C83246   3.561  -0.809   3.347  0.1154 -1.2582  1.1859
  604MOL0     C83247   3.518  -0.833   3.222  1.2335 -0.8247  1.2236
  604MOL0     C83248   3.427  -0.930   3.200  0.3997 -0.2510  0.6033
  604MOL0     C83249   3.379  -1.014   3.306  0.1947 -1.0361  0.5177
  604MOL0     O83250   3.289  -1.110   3.269  0.7171 -0.4385  0.1641
  604MOL0     C83251   3.195  -1.144   3.370  0.3302  0.2443  1.4426
  604MOL0     C83252   3.062  -1.196   3.314 -0.3319  0.4094  0.6172
  604MOL0     C83253   2.968  -1.081   3.288  0.8618  0.0033  0.3839
  604MOL0     C83254   2.819  -1.120   3.295  0.3298  0.8287 -1.0018
  604MOL0     C83255   2.766  -1.091   3.434 -0.7284 -0.4650  0.1557
  604MOL0     C83256   2.619  -1.132   3.448  0.8074 -0.1117  0.0726
  604MOL0     C83257   2.571  -1.122   3.594 -0.2451  0.2492 -0.0402
  604MOL0     C83258   2.440  -1.191   3.625  0.5827  0.4685  0.4164
  604MOL0    Cl83259   2.321  -1.191   3.488  0.2722  0.2465 -0.1943
  604MOL0     C83260   3.426  -0.988   3.436 -0.2522 -0.0083 -0.1560
  604MOL0     C83261   3.516  -0.883   3.459  0.1882  0.5057 -0.6855
  604MOL0     O83262   3.752  -0.725   3.557 -0.1603 -0.1862  0.2754
  604MOL0     C83263   3.560  -0.449   3.444 -0.1989  0.2197 -0.4875
  604MOL0     C83264   3.547  -0.310   3.457  0.5159 -0.3691 -0.2040
  604MOL0     N83265   3.778   0.404   3.348  0.3088 -0.4022  0.1913
  604MOL0     N83266   3.855   0.481   3.278  0.0644 -0.8600 -0.7567
  604MOL0     C83267   5.216   0.466   3.524  0.0322 -0.2319 -0.2588
  604MOL0     C83268   5.354   0.453   3.499 -0.1066 -0.1501 -0.2988
  604MOL0     C83269   5.711   0.381   3.268  0.0598  0.0573 -0.8277
  604MOL0     C83270   5.787   0.400   3.377 -0.2619 -0.3669  0.2591
  604MOL0     C83271   5.924   0.367   3.380 -0.3202  0.2821  0.1360
  604MOL0     C83272   5.982   0.314   3.269  0.9840  0.0241 -0.3539
  604MOL0     O83273   6.113   0.265   3.263 -0.6444 -0.1391 -0.1691
  604MOL0     C83274   6.187   0.262   3.389  0.8998  0.7099  0.3168
  604MOL0     C83275   6.325   0.212   3.361 -0.6584 -0.3669  0.3744
  604MOL0     C83276   6.388   0.292   3.243  0.2810  0.5064  0.8014
  604MOL0     C83277   6.540   0.268   3.249  0.6016  1.0433  0.4374
  604MOL0     C83278   6.556   0.124   3.233  0.2198 -0.0741  0.3249
  604MOL0     C83279   6.581   0.005   3.216 -0.2784 -0.7097 -0.1209
  604MOL0     C83280   5.912   0.309   3.152 -0.1902  0.6549 -0.8183
  604MOL0     C83281   5.779   0.348   3.145 -1.1735 -0.8976 -0.3571
  604MOL0     C83282   5.702   0.345   3.011 -0.0093  0.7271  0.2588
  604MOL0     H83283   5.365   0.648   3.223  3.4129 -2.2214  0.7803
  604MOL0     H83284   5.122   0.656   3.252  0.2315 -1.5268 -0.5517
  604MOL0     H83285   4.880   0.518   3.303 -2.7778 -1.0085  1.2230
  604MOL0     H83286   4.915   0.685   3.345  3.7809 -1.3147 -1.1980
  604MOL0     H83287   4.745   0.517   3.530 -1.9154 -2.9473 -1.6678
  604MOL0     H83288   4.736   0.683   3.519  1.7345 -1.5557  3.0422
  604MOL0     H83289   4.647   0.680   3.272 -0.7600  0.2152 -1.2306
  604MOL0     H83290   4.620   0.512   3.297 -2.8430  0.8487  0.2837
  604MOL0     H83291   4.488   0.560   3.506  0.1613  2.0942  1.4614
  604MOL0     H83292   4.525   0.727   3.460  1.3873  0.7623 -2.7717
  604MOL0     H83293   4.372   0.553   3.265  1.3011 -0.3234  0.2373
  604MOL0     H83294   4.423   0.714   3.248 -1.7582  1.7896  0.9495
  604MOL0     H83295   4.247   0.605   3.494  1.3259 -1.5878 -1.4841
  604MOL0     H83296   4.285   0.765   3.476 -0.2434 -0.8831  2.5944
  604MOL0     H83297   4.151   0.779   3.256  0.4027  1.3673  1.4441
  604MOL0     H83298   4.070   0.746   3.412  2.5647 -0.6494  4.1029
  604MOL0     H83299   4.081   0.569   3.178  1.0395 -1.2081 -0.4235
  604MOL0     H83300   4.158   0.481   3.304  0.4849  0.3127  2.1347
  604MOL0     H83301   4.010   0.498   3.572  0.3031  1.9315 -0.1195
  604MOL0     H83302   3.751   0.388   3.684  2.7554 -0.9445  1.6631
  604MOL0     H83303   3.874   0.275   3.642  0.8347 -1.1311 -0.4813
  604MOL0     H83304   3.678   0.154   3.687  1.1439 -0.4332  0.1492
  604MOL0     H83305   3.579   0.249   3.579 -0.9249 -1.5442  6.5267
  604MOL0     H83306   3.718   0.163   3.379  0.6014 -1.1322 -0.4731
  604MOL0     H83307   3.815   0.068   3.494 -0.3358  0.9012  1.6520
  604MOL0     H83308   3.516   0.030   3.438 -1.6717 -1.5037  0.7676
  604MOL0     H83309   3.637  -0.068   3.362  0.1718 -1.2492  0.7071
  604MOL0     H83310   3.816  -0.249   3.651  0.9347 -1.2053 -0.1602
  604MOL0     H83311   3.855  -0.570   3.723 -1.7125  1.3614 -1.3626
  604MOL0     H83312   3.920  -0.401   3.714 -0.1506  2.9743 -3.4821
  604MOL0     H83313   3.959  -0.515   3.589 -0.7471  1.4859 -2.4587
  604MOL0     H83314   3.558  -0.771   3.143 -0.8549 -1.9127 -0.8037
  604MOL0     H83315   3.377  -0.942   3.105  0.0403  0.8189  0.6415
  604MOL0     H83316   3.241  -1.226   3.425  1.1403 -0.0429  0.3666
  604MOL0     H83317   3.163  -1.068   3.442  2.1497  0.3982  2.1408
  604MOL0     H83318   3.100  -1.242   3.222  0.5978 -0.3038  1.3407
  604MOL0     H83319   3.020  -1.270   3.383 -1.4572 -1.6400 -2.1004
  604MOL0     H83320   2.989  -1.045   3.188  1.6003 -0.0743  0.5088
  604MOL0     H83321   2.992  -1.000   3.357  0.3589 -0.2299  0.8491
  604MOL0     H83322   2.812  -1.226   3.266 -2.6626  0.8136 -0.5607
  604MOL0     H83323   2.759  -1.068   3.220  1.3018  0.8248 -1.8073
  604MOL0     H83324   2.830  -1.133   3.512 -0.2166 -0.0046 -0.0125
  604MOL0     H83325   2.773  -0.982   3.442  0.8190 -0.5178 -0.3008
  604MOL0     H83326   2.619  -1.239   3.424  1.9877  0.2012 -1.4771
  604MOL0     H83327   2.556  -1.076   3.378 -2.9333 -0.3468  2.9014
  604MOL0     H83328   2.556  -1.021   3.633  0.8040  0.1522  0.6510
  604MOL0     H83329   2.650  -1.156   3.661 -0.1086  0.7222  0.0444
  604MOL0     H83330   2.393  -1.150   3.715  2.2039  2.9306  0.2326
  604MOL0     H83331   2.476  -1.292   3.647  0.1549 -0.1608 -1.5971
  604MOL0     H83332   3.381  -1.027   3.527  1.5177  0.3944  0.9433
  604MOL0     H83333   3.553  -0.852   3.556 -0.2058 -1.2201  0.0446
  604MOL0     H83334   3.487  -0.503   3.385 -0.2307  1.4962 -1.6746
  604MOL0     H83335   3.474  -0.259   3.395  0.8174 -0.1183 -0.3544
  604MOL0     H83336   5.166   0.416   3.606 -0.7784  0.3675 -0.3815
  604MOL0     H83337   5.416   0.379   3.549  0.2925  0.4415  0.1071
  604MOL0     H83338   5.733   0.429   3.467 -6.3637 -0.4307 -2.8981
  604MOL0     H83339   5.981   0.378   3.471 -1.4873 -3.9083  1.5667
  604MOL0     H83340   6.197   0.361   3.435 -1.4288  0.8775  0.5917
  604MOL0     H83341   6.135   0.200   3.462 -0.1214  0.0358 -0.9396
  604MOL0     H83342   6.312   0.107   3.332 -1.1347 -0.2643  0.2060
  604MOL0     H83343   6.391   0.212   3.448  2.8566  0.0164 -2.0724
  604MOL0     H83344   6.349   0.257   3.147 -0.1557 -1.4931  1.6672
  604MOL0     H83345   6.366   0.396   3.266  0.4928  0.4550  1.2451
  604MOL0     H83346   6.586   0.304   3.342  2.4888  1.5931 -0.6329
  604MOL0     H83347   6.587   0.301   3.156 -1.1564 -3.9709 -2.6642
  604MOL0     H83348   6.595  -0.099   3.194  3.2000 -0.2308 -0.8728
  604MOL0     H83349   5.957   0.301   3.053 -1.6379 -0.2264 -1.4469
  604MOL0     H83350   5.770   0.316   2.932  0.4341  2.4450 -0.0395
  604MOL0     H83351   5.618   0.275   3.021  1.1674 -0.6839  0.4630
  604MOL0     H83352   5.656   0.439   2.980  2.7086  2.9902  2.4924
  605MOL0     O83353   3.043   2.937   4.857  0.0698 -0.0315 -0.1628
  605MOL0     C83354   3.083   2.822   4.871  0.1495  1.0630  0.4850
  605MOL0     O83355   3.024   2.727   4.957  0.8038  0.3062  0.6955
  605MOL0     C83356   2.932   2.786   5.039 -0.0920  0.4028 -0.0070
  605MOL0     C83357   2.980   2.816   5.164  0.3666 -0.0877 -0.4972
  605MOL0     C83358   2.898   2.847   5.269  0.2244 -0.5284 -0.5780
  605MOL0     C83359   2.755   2.863   5.247  0.8408  0.2251 -0.4855
  605MOL0     O83360   2.676   2.915   5.349  0.4824  0.1717  0.1450
  605MOL0     C83361   2.616   2.814   5.438  0.3593 -0.1461  0.0421
  605MOL0     C83362   2.698   2.760   5.544  0.3663 -0.0739  0.4667
  605MOL0     C83363   2.615   2.685   5.653  0.8612 -0.6871 -0.0215
  605MOL0     C83364   2.559   2.775   5.761 -0.3109  0.2595 -0.2892
  605MOL0     C83365   2.467   2.724   5.869  0.0632  0.4123 -0.5996
  605MOL0     C83366   2.522   2.599   5.944 -0.0197 -0.1066 -0.0245
  605MOL0     C83367   2.656   2.616   6.011 -0.1412 -0.1322  0.3694
  605MOL0     C83368   2.721   2.493   6.068  0.1418 -0.8658  0.0271
  605MOL0     N83369   2.647   2.428   6.176  0.1882 -1.1719 -0.3742
  605MOL0     C83370   2.653   2.462   6.304 -0.1754 -0.4692  0.0040
  605MOL0     C83371   2.568   2.381   6.370 -0.8857  1.3582 -0.7930
  605MOL0     C83372   2.564   2.368   6.526 -0.3778  0.5492 -0.4337
  605MOL0     C83373   2.589   2.221   6.574  0.0100  0.7342  0.7207
  605MOL0     C83374   2.564   2.200   6.724  0.7339  0.2910 -0.8199
  605MOL0     C83375   2.411   2.205   6.772 -0.6662  0.3070 -0.5986
  605MOL0     O83376   2.408   2.233   6.913 -0.0543  0.1392 -0.1990
  605MOL0     C83377   2.339   2.145   6.996  0.2482 -1.2336  0.4378
  605MOL0     C83378   2.210   2.106   6.965  0.5706 -0.7115 -0.7391
  605MOL0     C83379   2.140   2.021   7.059  0.2441 -0.7699  0.2091
  605MOL0     C83380   1.993   1.984   7.030  0.2476  0.0992  0.3850
  605MOL0     C83381   2.205   1.986   7.175  1.4102  0.5020 -0.0855
  605MOL0     C83382   2.157   1.881   7.279  0.0629 -0.5173 -0.4065
  605MOL0     O83383   2.227   1.889   7.395  0.2285  0.4699  0.2131
  605MOL0     C83384   2.198   1.808   7.510  0.3051  0.6696 -0.2608
  605MOL0     C83385   2.297   1.798   7.606 -0.1318 -1.4397  0.5501
  605MOL0     C83386   2.276   1.733   7.728  0.2784 -0.0543  0.0347
  605MOL0     C83387   2.164   1.651   7.748  0.3046  0.3567 -1.0451
  605MOL0     O83388   2.148   1.570   7.861 -0.5097 -0.2672 -0.7019
  605MOL0     C83389   2.262   1.506   7.915  0.3166 -0.8029 -0.4573
  605MOL0     C83390   2.201   1.388   7.982 -0.0035  0.7906  0.8607
  605MOL0     C83391   2.138   1.422   8.113  0.8496  0.0687 -0.0614
  605MOL0     C83392   2.067   1.303   8.172 -0.1916  0.0155  0.4312
  605MOL0     C83393   2.022   1.331   8.314 -0.4875 -0.0848  0.5406
  605MOL0     C83394   1.956   1.214   8.382 -0.9435  0.0593  0.1114
  605MOL0     C83395   2.061   1.105   8.425 -0.6396  0.4354 -0.1604
  605MOL0     C83396   2.023   1.052   8.564  0.2267 -1.0562  0.7061
  605MOL0    Cl83397   2.026   1.152   8.715  0.0735 -0.5816 -0.4982
  605MOL0     C83398   2.051   1.674   7.661  0.1938  0.5265 -0.7045
  605MOL0     C83399   2.072   1.746   7.539  0.0888 -0.3965 -0.4943
  605MOL0     O83400   2.070   1.806   7.254  0.3779  0.5921 -0.5277
  605MOL0     C83401   2.331   2.019   7.192 -0.3253  0.1137  0.2283
  605MOL0     C83402   2.402   2.103   7.110 -1.0897 -0.8735 -0.1827
  605MOL0     N83403   2.502   2.303   6.281  0.8561  0.0494  0.0568
  605MOL0     N83404   2.551   2.334   6.167  0.2362 -0.0581 -0.4427
  605MOL0     C83405   2.706   2.848   5.117  0.3919  0.6189 -1.0352
  605MOL0     C83406   2.792   2.803   5.013 -0.0046 -0.4309  0.0904
  605MOL0     C83407   3.215   2.783   4.807  0.5233 -0.3678 -0.2921
  605MOL0     C83408   3.277   2.664   4.834 -0.2782 -0.0226  0.1023
  605MOL0     C83409   3.396   2.626   4.773 -0.7006 -0.7807 -0.6907
  605MOL0     C83410   3.479   2.720   4.705 -0.1332 -0.6910  0.5354
  605MOL0     O83411   3.604   2.670   4.684  0.1914  0.5966 -0.6001
  605MOL0     C83412   3.694   2.767   4.636 -0.5031  0.4162 -0.2825
  605MOL0     C83413   3.841   2.700   4.637  0.5328 -1.2942 -0.3187
  605MOL0     C83414   3.841   2.574   4.554 -0.3593  0.1997 -0.1085
  605MOL0     C83415   3.828   2.609   4.404  0.0389 -0.3267  0.0636
  605MOL0     C83416   3.939   2.671   4.326 -0.0841  0.2651 -0.8442
  605MOL0     C83417   4.033   2.699   4.259 -0.4849 -0.2688  1.6176
  605MOL0     C83418   3.416   2.846   4.670  1.0111  0.4178 -0.7413
  605MOL0     C83419   3.286   2.870   4.718  0.0671 -0.6366 -0.1284
  605MOL0     C83420   3.227   2.995   4.659  0.2647  0.8886  0.2498
  605MOL0     H83421   3.089   2.821   5.170  0.2746  2.8874  0.6049
  605MOL0     H83422   2.941   2.869   5.366  0.9228 -0.2848 -0.9309
  605MOL0     H83423   2.585   2.732   5.373 -1.6236 -0.8865  1.8021
  605MOL0     H83424   2.527   2.858   5.484 -0.2007  0.1197 -1.2409
  605MOL0     H83425   2.760   2.682   5.501 -1.1211 -0.5009 -0.9922
  605MOL0     H83426   2.752   2.844   5.589 -2.2852  1.9081  0.1773
  605MOL0     H83427   2.531   2.636   5.603  2.4941 -0.3627 -3.3400
  605MOL0     H83428   2.676   2.610   5.704 -1.1557 -2.0011  0.5704
  605MOL0     H83429   2.654   2.819   5.792  1.1530 -2.2562 -0.8592
  605MOL0     H83430   2.503   2.853   5.709 -1.1991 -0.7056 -0.8226
  605MOL0     H83431   2.374   2.692   5.821 -0.4502 -1.0602  1.2651
  605MOL0     H83432   2.448   2.798   5.947 -2.1344 -1.1136  0.4070
  605MOL0     H83433   2.441   2.566   6.011 -0.2634  2.5696  1.1110
  605MOL0     H83434   2.539   2.524   5.866 -0.2965 -0.1239 -0.0702
  605MOL0     H83435   2.658   2.706   6.072  0.8818  1.2555 -1.6128
  605MOL0     H83436   2.717   2.649   5.926 -0.0996  3.7035  1.7248
  605MOL0     H83437   2.734   2.419   5.989  1.6377 -1.4840  0.8099
  605MOL0     H83438   2.820   2.524   6.102  0.2712  1.3259 -2.0998
  605MOL0     H83439   2.712   2.540   6.350 -2.8856  0.2340  2.6045
  605MOL0     H83440   2.468   2.396   6.570  0.2375  1.2075  0.5120
  605MOL0     H83441   2.646   2.430   6.564 -0.7868  1.6937 -1.3547
  605MOL0     H83442   2.525   2.143   6.533  0.4618 -0.5007  2.2816
  605MOL0     H83443   2.691   2.187   6.554  0.2599  1.5246  0.6223
  605MOL0     H83444   2.605   2.101   6.747 -0.0939  0.4442  1.6860
  605MOL0     H83445   2.637   2.268   6.770  3.6680 -2.0230 -1.7881
  605MOL0     H83446   2.349   2.286   6.731 -0.6513  0.3199 -0.5959
  605MOL0     H83447   2.370   2.106   6.750  1.6896 -0.8319 -0.1979
  605MOL0     H83448   2.153   2.136   6.878 -1.7796  0.0620  0.9419
  605MOL0     H83449   1.987   1.885   6.983  2.9771  0.3090 -0.5952
  605MOL0     H83450   1.949   2.064   6.970 -1.3082 -2.1653 -1.6513
  605MOL0     H83451   1.930   1.988   7.119 -0.2702  0.7095 -0.0020
  605MOL0     H83452   2.386   1.854   7.578 -0.6690 -1.7176 -1.9625
  605MOL0     H83453   2.349   1.757   7.805 -1.5791 -1.6717  2.4626
  605MOL0     H83454   2.326   1.472   7.833 -0.3509  0.3678 -1.5111
  605MOL0     H83455   2.320   1.565   7.986 -1.9568  1.8212 -0.6131
  605MOL0     H83456   2.134   1.347   7.905  4.9812  0.1002 -3.7391
  605MOL0     H83457   2.276   1.308   7.987  0.5676  1.2498 -0.0088
  605MOL0     H83458   2.054   1.491   8.102 -0.5558 -1.8696 -2.4294
  605MOL0     H83459   2.226   1.443   8.175  1.7082 -1.6863 -0.6197
  605MOL0     H83460   2.127   1.214   8.154 -1.8035 -1.0167 -0.1048
  605MOL0     H83461   1.974   1.284   8.117 -1.2272  1.1008  1.7409
  605MOL0     H83462   2.107   1.355   8.378 -0.6988 -4.4657  2.8853
  605MOL0     H83463   1.950   1.412   8.304 -0.7452 -0.5723 -4.0411
  605MOL0     H83464   1.882   1.169   8.315  1.4327 -1.7848 -1.4475
  605MOL0     H83465   1.911   1.253   8.474  0.5302  0.6463  0.6052
  605MOL0     H83466   2.161   1.146   8.440 -1.0536  2.0968 -1.5290
  605MOL0     H83467   2.069   1.024   8.353 -2.0095  0.9305 -0.9181
  605MOL0     H83468   2.098   0.976   8.587  2.6371  1.0895  0.3710
  605MOL0     H83469   1.926   1.005   8.546  1.6508 -3.3008 -1.6620
  605MOL0     H83470   1.957   1.623   7.674 -0.1694  1.0023 -1.4043
  605MOL0     H83471   1.983   1.766   7.479  0.4740 -0.2437 -1.0256
  605MOL0     H83472   2.400   1.977   7.265 -0.2469  0.7433  0.5196
  605MOL0     H83473   2.506   2.123   7.134 -1.1831  1.4654 -1.4578
  605MOL0     H83474   2.604   2.865   5.086  0.7898 -0.0968 -2.8406
  605MOL0     H83475   2.761   2.774   4.913 -1.8657  0.3401  0.4089
  605MOL0     H83476   3.236   2.597   4.909  0.5698 -0.3774  0.2610
  605MOL0     H83477   3.433   2.525   4.787  1.7623  0.2126  0.7490
  605MOL0     H83478   3.657   2.785   4.534  0.4933 -1.3899 -1.0049
  605MOL0     H83479   3.685   2.855   4.700  1.9349  0.9426 -0.5794
  605MOL0     H83480   3.871   2.682   4.740  0.0942 -0.5136 -0.0436
  605MOL0     H83481   3.912   2.773   4.597 -3.5347  1.0753 -4.2021
  605MOL0     H83482   3.931   2.518   4.581  0.6233  1.7378 -0.0656
  605MOL0     H83483   3.759   2.511   4.590  1.8655 -2.6732  0.2261
  605MOL0     H83484   3.745   2.679   4.395  2.0073  2.0743 -0.3929
  605MOL0     H83485   3.798   2.520   4.348 -3.6756  0.3928  0.6674
  605MOL0     H83486   4.108   2.726   4.187 -1.4501 -0.3419  0.5554
  605MOL0     H83487   3.475   2.911   4.606  4.0116 -0.3334  1.0737
  605MOL0     H83488   3.129   2.981   4.612  0.8673  0.5015 -0.9331
  605MOL0     H83489   3.216   3.069   4.739 -1.4490  0.4935  0.4211
  605MOL0     H83490   3.297   3.042   4.590 -1.1686 -0.6724 -2.4371
  606MOL0     O83491   8.354   1.205   3.007 -0.0697  0.6556 -0.3389
  606MOL0     C83492   8.240   1.227   2.954 -1.1717 -0.5980 -0.3799
  606MOL0     O83493   8.139   1.290   3.014 -0.6023 -0.2173 -1.3404
  606MOL0     C83494   8.163   1.364   3.125 -0.3258  0.5176 -0.1987
  606MOL0     C83495   8.121   1.314   3.246  0.0539  0.6780  0.5632
  606MOL0     C83496   8.162   1.375   3.362 -0.1334  0.3676 -0.9853
  606MOL0     C83497   8.256   1.483   3.356  1.5378  0.2843 -0.2787
  606MOL0     O83498   8.320   1.545   3.454  0.1721 -0.5982  0.3242
  606MOL0     C83499   8.265   1.558   3.583 -0.6265  0.3958 -0.1006
  606MOL0     C83500   8.354   1.635   3.675 -0.4279 -1.1062 -0.6846
  606MOL0     C83501   8.478   1.549   3.708 -0.6418 -0.3879  0.4993
  606MOL0     C83502   8.559   1.592   3.828 -0.7784 -0.0255  0.0573
  606MOL0     C83503   8.501   1.614   3.970 -1.0110  1.2812  0.6407
  606MOL0     C83504   8.465   1.493   4.047 -0.6754 -0.0467 -0.5349
  606MOL0     C83505   8.420   1.523   4.194 -0.8356  0.0597 -0.8390
  606MOL0     C83506   8.400   1.401   4.291  0.0881 -0.1319  1.1234
  606MOL0     N83507   8.449   1.435   4.429 -0.3844  0.4296  0.3582
  606MOL0     C83508   8.388   1.513   4.521  0.1213  0.2654  0.3710
  606MOL0     C83509   8.450   1.493   4.648 -0.0905  0.8652  1.1941
  606MOL0     C83510   8.400   1.571   4.768  0.2606 -0.0269  0.0664
  606MOL0     C83511   8.502   1.543   4.885  0.0692  1.2779 -0.4113
  606MOL0     C83512   8.636   1.609   4.863 -0.5206 -0.1129  0.1942
  606MOL0     C83513   8.724   1.610   4.995 -0.1419  0.3477 -1.1838
  606MOL0     O83514   8.653   1.618   5.120  0.9007  0.0331 -0.3558
  606MOL0     C83515   8.610   1.737   5.178  0.0134 -0.2882  0.3420
  606MOL0     C83516   8.599   1.863   5.115  0.0408 -0.0857  0.3535
  606MOL0     C83517   8.525   1.974   5.165 -0.4488 -1.1370 -0.1188
  606MOL0     C83518   8.511   2.093   5.068 -0.2021 -0.9681 -0.1393
  606MOL0     C83519   8.450   1.955   5.279 -0.5697  0.1702  0.1506
  606MOL0     C83520   8.381   2.057   5.357  0.2678  0.0406  0.2902
  606MOL0     O83521   8.330   2.018   5.483  0.1841  0.8298 -0.0877
  606MOL0     C83522   8.279   2.106   5.568  0.3576  0.4640  0.1573
  606MOL0     C83523   8.163   2.084   5.641  0.4856 -0.1162  0.1868
  606MOL0     C83524   8.131   2.172   5.743 -0.4420 -0.3794 -0.6445
  606MOL0     C83525   8.205   2.282   5.774  0.2450  0.2619 -0.3281
  606MOL0     O83526   8.185   2.359   5.884  0.3158  0.4798 -0.1423
  606MOL0     C83527   8.196   2.299   6.020 -0.4335  0.0757  0.3528
  606MOL0     C83528   8.068   2.327   6.096 -0.0133  0.8819 -0.5442
  606MOL0     C83529   7.933   2.254   6.036  0.3446 -0.7465  0.6571
  606MOL0     C83530   7.941   2.105   6.059  0.1285 -0.5416  0.3721
  606MOL0     C83531   7.818   2.048   5.972 -0.8136 -0.1033 -0.3546
  606MOL0     C83532   7.795   1.901   5.997 -0.6902 -0.9958 -0.1795
  606MOL0     C83533   7.666   1.839   5.948  0.6460  0.2415 -0.0908
  606MOL0     C83534   7.661   1.839   5.795 -0.8105 -0.5030 -0.7127
  606MOL0    Cl83535   7.800   1.750   5.723  0.1137 -0.3216  0.2948
  606MOL0     C83536   8.309   2.317   5.689  0.6967 -0.0557 -0.8923
  606MOL0     C83537   8.348   2.232   5.594 -0.6530  1.1259 -0.6853
  606MOL0     O83538   8.347   2.159   5.299 -0.4536  0.0444 -0.0994
  606MOL0     C83539   8.469   1.836   5.344  0.3837  0.6129  0.0124
  606MOL0     C83540   8.540   1.725   5.288  0.5654  0.5455  0.4121
  606MOL0     N83541   8.555   1.410   4.621 -0.9146 -0.4877 -0.2696
  606MOL0     N83542   8.558   1.382   4.492 -0.0633 -0.3334  0.9767
  606MOL0     C83543   8.295   1.534   3.241  1.5738  0.9401  0.2193
  606MOL0     C83544   8.255   1.469   3.124  0.4254 -0.6585  0.7675
  606MOL0     C83545   8.211   1.169   2.820 -0.2980 -0.4855 -0.0377
  606MOL0     C83546   8.277   1.216   2.713 -0.2707 -0.5445 -0.2013
  606MOL0     C83547   8.252   1.165   2.584 -0.6508 -1.1884  1.1435
  606MOL0     C83548   8.145   1.078   2.568 -0.0480 -0.4136 -0.5400
  606MOL0     O83549   8.104   1.029   2.445  0.1625 -0.4691 -0.1793
  606MOL0     C83550   8.137   1.099   2.326 -0.1305 -0.7008 -0.5922
  606MOL0     C83551   8.245   1.017   2.257  0.2881 -0.2784  0.7050
  606MOL0     C83552   8.286   1.085   2.131 -0.0351 -0.5967 -1.1050
  606MOL0     C83553   8.428   1.029   2.088  0.4054 -0.4685 -0.1006
  606MOL0     C83554   8.433   0.878   2.073 -0.2511 -0.4456 -0.1253
  606MOL0     C83555   8.438   0.757   2.074 -0.3039  0.9820  0.0194
  606MOL0     C83556   8.077   1.029   2.676 -0.0752 -0.0190 -0.8918
  606MOL0     C83557   8.107   1.078   2.809  0.2784  0.5592  0.2208
  606MOL0     C83558   8.039   1.015   2.927 -0.4348  0.6996 -0.3003
  606MOL0     H83559   8.057   1.226   3.241 -0.4751  1.1203 -2.4815
  606MOL0     H83560   8.142   1.311   3.448  0.2955  0.1490 -1.0469
  606MOL0     H83561   8.246   1.460   3.628 -2.2283  1.1024  0.8331
  606MOL0     H83562   8.165   1.601   3.573 -0.3676  0.6552 -1.8627
  606MOL0     H83563   8.392   1.730   3.638 -0.6681 -0.5074  0.5354
  606MOL0     H83564   8.299   1.648   3.769 -1.7530 -1.4350 -1.3995
  606MOL0     H83565   8.447   1.445   3.715 -2.8767  0.2437  0.5972
  606MOL0     H83566   8.553   1.536   3.629  1.9920 -2.1958  3.0981
  606MOL0     H83567   8.630   1.508   3.839 -0.9786  0.1196  3.7456
  606MOL0     H83568   8.617   1.680   3.800  1.6568 -0.5115  3.0069
  606MOL0     H83569   8.407   1.670   3.967 -0.5621  2.0251  0.2021
  606MOL0     H83570   8.578   1.672   4.023  1.5751 -1.8088  0.5708
  606MOL0     H83571   8.383   1.433   4.006  0.2148 -0.6948 -1.4200
  606MOL0     H83572   8.552   1.428   4.055 -2.1737 -2.0125  1.1819
  606MOL0     H83573   8.334   1.587   4.215  1.6868  3.0527  1.5567
  606MOL0     H83574   8.496   1.588   4.241  0.0530 -2.0284  0.7748
  606MOL0     H83575   8.300   1.358   4.290  0.3637 -0.8390 -1.3876
  606MOL0     H83576   8.465   1.322   4.251 -1.5175 -2.2383  2.4078
  606MOL0     H83577   8.298   1.572   4.506 -0.5464 -0.8041  0.0021
  606MOL0     H83578   8.305   1.534   4.806 -1.2531  4.5808  1.4020
  606MOL0     H83579   8.393   1.676   4.738  1.5109  0.6550  1.9579
  606MOL0     H83580   8.466   1.581   4.980  0.2260  0.0483  0.1546
  606MOL0     H83581   8.511   1.434   4.888  0.2081  1.3214  1.9853
  606MOL0     H83582   8.680   1.557   4.778  1.2125 -1.6054  1.8957
  606MOL0     H83583   8.613   1.714   4.842 -2.8463 -0.8946 -1.5510
  606MOL0     H83584   8.779   1.515   4.995 -0.3652  0.2136 -0.7677
  606MOL0     H83585   8.787   1.698   5.009 -0.7724  0.4909  1.2749
  606MOL0     H83586   8.649   1.874   5.019 -2.2987 -1.3586 -1.0944
  606MOL0     H83587   8.585   2.077   4.989  4.1575 -1.1953  3.5557
  606MOL0     H83588   8.527   2.192   5.112  2.4333 -1.6578  0.6616
  606MOL0     H83589   8.408   2.085   5.032 -1.6885 -0.9196  3.6355
  606MOL0     H83590   8.099   1.997   5.627 -1.5642  1.2540  0.5576
  606MOL0     H83591   8.043   2.142   5.799 -0.4247  1.4519  0.4641
  606MOL0     H83592   8.231   2.195   6.012 -0.7131 -0.2454  2.6553
  606MOL0     H83593   8.277   2.351   6.072  0.6584 -0.0564 -1.1465
  606MOL0     H83594   8.074   2.289   6.198  0.0481  1.6727 -0.2399
  606MOL0     H83595   8.050   2.434   6.113 -2.8259  0.3344  0.4633
  606MOL0     H83596   7.928   2.286   5.931 -2.1974 -1.0863  0.6167
  606MOL0     H83597   7.842   2.291   6.083 -0.0223 -0.0247 -0.5701
  606MOL0     H83598   7.928   2.093   6.167  2.4565 -0.6362  0.6850
  606MOL0     H83599   8.034   2.062   6.021  0.3175  0.8896 -0.9145
  606MOL0     H83600   7.723   2.101   5.985 -3.1252 -3.8674 -0.4059
  606MOL0     H83601   7.848   2.060   5.868 -1.6160 -0.6015 -0.6517
  606MOL0     H83602   7.787   1.886   6.106 -0.8505 -2.3585 -0.3608
  606MOL0     H83603   7.882   1.851   5.954 -0.0912  1.4394 -1.9572
  606MOL0     H83604   7.584   1.897   5.992  1.3446 -0.0171  1.6260
  606MOL0     H83605   7.656   1.738   5.990 -2.6357  2.1458  4.6906
  606MOL0     H83606   7.673   1.940   5.757  3.4240 -0.3170  0.6816
  606MOL0     H83607   7.565   1.802   5.757 -1.7727  0.2243  0.9118
  606MOL0     H83608   8.356   2.407   5.727 -0.8280  0.0057  0.9962
  606MOL0     H83609   8.437   2.250   5.535  1.2183  0.5118  1.7993
  606MOL0     H83610   8.408   1.804   5.428 -0.8572  0.8987 -0.7466
  606MOL0     H83611   8.536   1.634   5.347  0.3414  1.7786  2.3801
  606MOL0     H83612   8.373   1.608   3.223  0.5850  1.4152 -2.6954
  606MOL0     H83613   8.312   1.493   3.035  2.7635 -0.9835  2.1120
  606MOL0     H83614   8.366   1.277   2.726  1.0059 -2.4984  0.7465
  606MOL0     H83615   8.312   1.203   2.502 -4.2238 -1.7690 -2.0375
  606MOL0     H83616   8.045   1.117   2.269 -0.1266  0.7375 -0.1736
  606MOL0     H83617   8.177   1.198   2.347  1.2237 -1.3090 -0.2084
  606MOL0     H83618   8.207   0.915   2.248  0.4133 -0.2903  0.2546
  606MOL0     H83619   8.335   1.013   2.319  1.2222  2.6546 -0.2964
  606MOL0     H83620   8.204   1.068   2.061 -1.1643 -1.7226  0.4233
  606MOL0     H83621   8.292   1.192   2.153  3.6787 -1.0398  0.8618
  606MOL0     H83622   8.506   1.056   2.160  1.5419  0.0524 -1.4818
  606MOL0     H83623   8.456   1.069   1.990  1.1546  0.3149  0.4115
  606MOL0     H83624   8.435   0.651   2.087  0.1576  0.6904 -1.9222
  606MOL0     H83625   8.001   0.954   2.654  1.0912 -0.2614 -4.8368
  606MOL0     H83626   8.108   0.988   3.008 -2.2875 -0.8322  0.8370
  606MOL0     H83627   7.968   1.090   2.966  1.8886  2.3164  1.1060
  606MOL0     H83628   7.986   0.925   2.895  0.4848  0.2386 -0.5619
  607MOL0     O83629   0.459   8.373   9.717  0.7723 -0.0265 -0.4729
  607MOL0     C83630   0.391   8.341   9.810 -0.7811  0.7313 -0.0365
  607MOL0     O83631   0.380   8.219   9.861  1.2331 -0.2533  0.5537
  607MOL0     C83632   0.474   8.130   9.817 -0.0269  0.1495 -0.1939
  607MOL0     C83633   0.590   8.111   9.894  0.6628  0.2469  0.3819
  607MOL0     C83634   0.680   8.006   9.866 -0.1674  1.3136  0.2592
  607MOL0     C83635   0.662   7.932   9.752  0.9336  0.0732  1.1446
  607MOL0     O83636   0.743   7.831   9.704  1.0754 -0.1623 -0.4040
  607MOL0     C83637   0.876   7.849   9.733 -0.8593 -0.6761  0.0764
  607MOL0     C83638   0.944   7.734   9.658 -1.0837 -0.3737 -0.4340
  607MOL0     C83639   1.030   7.804   9.546  1.4481 -0.0824 -1.1707
  607MOL0     C83640   1.071   7.700   9.448 -1.0898 -0.9311 -0.4686
  607MOL0     C83641   1.131   7.771   9.320 -0.5647 -0.3183 -0.5053
  607MOL0     C83642   1.181   7.660   9.223  0.8443  0.3677  0.5392
  607MOL0     C83643   1.189   7.723   9.087  0.7228 -0.0364 -0.0744
  607MOL0     C83644   1.256   7.638   8.989  0.0537 -0.1153 -0.4134
  607MOL0     N83645   1.238   7.696   8.855  0.1569 -0.4416 -0.2487
  607MOL0     C83646   1.151   7.645   8.760 -0.9389  0.4500 -0.0118
  607MOL0     C83647   1.172   7.720   8.648  0.6384  0.2209 -1.1156
  607MOL0     C83648   1.086   7.721   8.522 -0.4313  0.1292  0.0901
  607MOL0     C83649   1.177   7.688   8.405  0.2959 -0.1161 -0.6068
  607MOL0     C83650   1.105   7.632   8.287  0.6007  0.7230 -0.1475
  607MOL0     C83651   1.097   7.478   8.303 -1.3810  0.4159 -0.2237
  607MOL0     O83652   1.028   7.441   8.188 -0.2726 -0.3645 -0.6702
  607MOL0     C83653   0.978   7.308   8.176  1.2888 -0.7287  0.6912
  607MOL0     C83654   0.986   7.208   8.274  0.5817 -0.0798 -0.7534
  607MOL0     C83655   0.900   7.101   8.259 -0.4189 -0.4205  0.1995
  607MOL0     C83656   0.881   7.008   8.370  0.0084 -0.4225  0.4690
  607MOL0     C83657   0.831   7.074   8.138  0.0089 -0.4936  0.8868
  607MOL0     C83658   0.748   6.951   8.090  0.2186  1.3812 -0.7337
  607MOL0     O83659   0.709   6.953   7.958  0.1748 -0.4504  0.4168
  607MOL0     C83660   0.655   6.836   7.905  0.3772  0.3576 -0.6934
  607MOL0     C83661   0.732   6.759   7.815  0.1776 -0.1080 -0.0620
  607MOL0     C83662   0.674   6.644   7.757 -0.7430  0.6954 -1.1300
  607MOL0     C83663   0.550   6.601   7.804  0.0813  0.2074  0.3148
  607MOL0     O83664   0.519   6.475   7.766 -0.3798  0.0593 -0.8232
  607MOL0     C83665   0.391   6.417   7.773  0.0490  0.1299 -0.5019
  607MOL0     C83666   0.407   6.264   7.732  0.8650  0.0996  0.7771
  607MOL0     C83667   0.291   6.219   7.641 -0.1702 -0.5215 -1.5833
  607MOL0     C83668   0.261   6.074   7.671  0.4059 -0.4766  0.6478
  607MOL0     C83669   0.155   6.014   7.572  0.0224  0.8557  0.8618
  607MOL0     C83670   0.201   5.998   7.424 -0.1345  0.1705 -0.3044
  607MOL0     C83671   0.090   5.937   7.338  0.0822 -0.1328  0.1478
  607MOL0     C83672  -0.022   6.039   7.307 -0.2747  0.0196 -0.2659
  607MOL0    Cl83673   0.033   6.160   7.191 -0.3252  0.0427  0.6384
  607MOL0     C83674   0.473   6.672   7.890 -0.0571 -0.6739 -0.9163
  607MOL0     C83675   0.526   6.790   7.948 -0.2781  0.0269 -0.0224
  607MOL0     O83676   0.736   6.855   8.167  0.3513 -0.0397 -0.3453
  607MOL0     C83677   0.840   7.172   8.037  0.2199  0.4815 -0.1174
  607MOL0     C83678   0.910   7.289   8.061  0.5683 -0.9046 -0.8070
  607MOL0     N83679   1.277   7.805   8.673  0.2402  0.0598  0.7059
  607MOL0     N83680   1.318   7.790   8.795  0.3064  0.5062 -0.5735
  607MOL0     C83681   0.546   7.957   9.674  0.2738 -0.2131  0.8007
  607MOL0     C83682   0.452   8.056   9.707  0.9408  0.5165 -0.5382
  607MOL0     C83683   0.328   8.458   9.870  0.2121 -0.5029  0.4645
  607MOL0     C83684   0.301   8.566   9.778  0.4672 -0.1062 -0.7749
  607MOL0     C83685   0.222   8.675   9.821 -0.1540 -0.8297 -0.0220
  607MOL0     C83686   0.169   8.682   9.953 -1.2557 -0.7633  0.0054
  607MOL0     O83687   0.097   8.796  10.000  0.3647  0.0521 -0.1680
  607MOL0     C83688   0.046   8.816  10.135  0.0412 -0.5311  0.5743
  607MOL0     C83689  -0.023   8.953  10.157 -0.1472 -0.5449  0.4571
  607MOL0     C83690  -0.119   8.990  10.036  0.1568 -0.0877  0.9335
  607MOL0     C83691  -0.220   9.096  10.084 -0.1191 -0.0201  0.0688
  607MOL0     C83692  -0.329   9.093   9.992  0.1084 -0.9764 -0.5787
  607MOL0     C83693  -0.421   9.095   9.919 -0.1869 -0.4859  1.5206
  607MOL0     C83694   0.211   8.587  10.044  0.9325 -0.0217 -0.4894
  607MOL0     C83695   0.291   8.476  10.003  0.5526 -0.4520 -0.1427
  607MOL0     C83696   0.341   8.394  10.112  0.1223  0.0529 -0.0603
  607MOL0     H83697   0.607   8.163   9.987  0.6369 -1.3647  1.3390
  607MOL0     H83698   0.758   7.982   9.938 -2.3346 -0.7506  2.0841
  607MOL0     H83699   0.890   7.837   9.841  1.3617  1.4249  0.1183
  607MOL0     H83700   0.906   7.952   9.712  3.5093 -1.5010  1.1946
  607MOL0     H83701   1.022   7.684   9.716  2.4722  3.6915 -1.1988
  607MOL0     H83702   0.870   7.668   9.613 -0.2233  0.0886 -2.6562
  607MOL0     H83703   0.959   7.872   9.498 -3.1709 -3.2566  0.4228
  607MOL0     H83704   1.103   7.865   9.598 -1.7628  3.1260 -0.0016
  607MOL0     H83705   1.152   7.636   9.486  0.2178  0.8824 -0.0695
  607MOL0     H83706   0.992   7.628   9.426 -0.7708 -1.5686  0.4149
  607MOL0     H83707   1.212   7.837   9.354  0.0091 -0.4085 -1.6398
  607MOL0     H83708   1.048   7.833   9.284  1.9752  1.1991 -4.4400
  607MOL0     H83709   1.273   7.617   9.263 -0.0410 -1.0492  1.1322
  607MOL0     H83710   1.116   7.571   9.217  0.4161  0.5585  2.0897
  607MOL0     H83711   1.233   7.823   9.085 -0.6724  0.7439 -4.4436
  607MOL0     H83712   1.087   7.728   9.048  1.7181  1.9398 -2.7283
  607MOL0     H83713   1.357   7.600   9.011  0.5223 -0.7247 -3.1793
  607MOL0     H83714   1.201   7.544   8.986 -3.0915  1.5737  0.5080
  607MOL0     H83715   1.069   7.575   8.775  0.9142 -1.3477  2.5748
  607MOL0     H83716   1.051   7.824   8.506  0.5378  0.6453  1.1301
  607MOL0     H83717   1.006   7.648   8.535  1.4661 -2.6090 -2.3147
  607MOL0     H83718   1.209   7.790   8.378 -0.8175  0.2579 -0.5455
  607MOL0     H83719   1.258   7.620   8.433  0.7664 -0.6425 -3.0506
  607MOL0     H83720   1.005   7.675   8.273  1.3911  3.2391  1.2623
  607MOL0     H83721   1.163   7.662   8.200  1.2374 -0.9207 -0.3198
  607MOL0     H83722   1.193   7.426   8.306 -1.5732  0.1009  1.5653
  607MOL0     H83723   1.054   7.445   8.398 -1.5685  2.1983  0.3406
  607MOL0     H83724   1.042   7.225   8.365  1.4859 -0.5490 -1.2139
  607MOL0     H83725   0.970   6.945   8.362  1.7505  1.7945  1.1758
  607MOL0     H83726   0.784   6.959   8.365 -1.5777  2.5290 -0.7523
  607MOL0     H83727   0.891   7.057   8.468 -0.4704 -0.4953  0.5567
  607MOL0     H83728   0.837   6.774   7.790 -0.1536 -0.3603 -1.6960
  607MOL0     H83729   0.729   6.589   7.682  2.5589  1.5192  0.4689
  607MOL0     H83730   0.334   6.438   7.864 -1.5209 -2.6564 -0.7433
  607MOL0     H83731   0.327   6.455   7.692 -0.6296 -0.4073 -0.2250
  607MOL0     H83732   0.503   6.254   7.682 -0.3320 -1.2249 -1.4207
  607MOL0     H83733   0.422   6.202   7.821  0.9118 -0.8151  0.1411
  607MOL0     H83734   0.316   6.236   7.537 -1.2327  1.1312 -1.6062
  607MOL0     H83735   0.198   6.276   7.654 -0.1738 -0.7075 -0.6852
  607MOL0     H83736   0.224   6.060   7.773  4.7380 -4.2387  2.0651
  607MOL0     H83737   0.348   6.009   7.659 -0.3281 -1.2800 -0.5970
  607MOL0     H83738   0.123   5.913   7.597  1.1688  0.1472 -0.4427
  607MOL0     H83739   0.069   6.082   7.584  0.1450  0.8489  1.8708
  607MOL0     H83740   0.284   5.929   7.443 -0.0545 -0.3296 -2.2417
  607MOL0     H83741   0.234   6.096   7.390  2.3306  0.5549  2.7489
  607MOL0     H83742   0.036   5.856   7.388 -3.4305 -0.0864 -3.0807
  607MOL0     H83743   0.121   5.891   7.245 -0.1961 -2.0952  0.9803
  607MOL0     H83744  -0.061   6.090   7.395  3.5870 -0.7721  2.1148
  607MOL0     H83745  -0.108   5.991   7.260 -0.4459 -1.0211  1.0685
  607MOL0     H83746   0.372   6.641   7.917  0.3731 -3.5743 -2.2383
  607MOL0     H83747   0.463   6.843   8.020  0.7939  1.6727 -0.2354
  607MOL0     H83748   0.791   7.168   7.941  1.5863  2.0691 -0.9349
  607MOL0     H83749   0.920   7.360   7.979  3.7376  0.7227  0.8198
  607MOL0     H83750   0.529   7.897   9.585 -1.1705  0.5151  0.5689
  607MOL0     H83751   0.367   8.074   9.641  1.9381 -0.7429 -2.2331
  607MOL0     H83752   0.325   8.562   9.672  0.8318 -0.4064 -0.6879
  607MOL0     H83753   0.199   8.762   9.760 -2.7352 -1.4727 -0.1080
  607MOL0     H83754  -0.010   8.731  10.175 -2.4688 -0.6235 -2.7217
  607MOL0     H83755   0.140   8.821  10.192 -0.1356  1.1876  0.7766
  607MOL0     H83756   0.056   9.025  10.181 -0.3391 -1.3672  4.0263
  607MOL0     H83757  -0.083   8.941  10.248 -0.3629  1.0690  0.5481
  607MOL0     H83758  -0.068   9.015   9.942 -1.7477 -0.6883 -0.2992
  607MOL0     H83759  -0.190   8.909  10.022 -3.9565  2.7281  3.2276
  607MOL0     H83760  -0.173   9.194  10.069  1.9274 -0.6055  2.1732
  607MOL0     H83761  -0.249   9.086  10.189  2.1408  1.8371  0.9589
  607MOL0     H83762  -0.507   9.111   9.857 -0.3575  2.0288  2.2806
  607MOL0     H83763   0.179   8.588  10.148  2.8920  0.4101  0.1558
  607MOL0     H83764   0.416   8.317  10.095 -2.0913 -2.4086  0.7353
  607MOL0     H83765   0.390   8.456  10.188  3.0920 -1.9492 -0.1461
  607MOL0     H83766   0.261   8.333  10.154  1.4197 -0.6250  1.5174
  608MOL0     O83767   5.668   3.325   8.371  0.6427 -0.2447  0.5841
  608MOL0     C83768   5.597   3.231   8.397  0.8202 -0.2399 -0.3697
  608MOL0     O83769   5.458   3.227   8.405 -0.3557 -0.2889  0.2337
  608MOL0     C83770   5.408   3.349   8.383 -1.1210  0.0918 -0.2392
  608MOL0     C83771   5.322   3.408   8.471 -0.1485  0.6158  0.3534
  608MOL0     C83772   5.259   3.527   8.439  0.1904  0.3158 -0.6519
  608MOL0     C83773   5.291   3.600   8.324 -0.2255  0.1004  0.9397
  608MOL0     O83774   5.248   3.726   8.299 -0.7864 -0.4616 -0.7799
  608MOL0     C83775   5.263   3.821   8.408 -0.1233  0.1453  0.5987
  608MOL0     C83776   5.198   3.958   8.353 -0.2934  0.2132 -0.4015
  608MOL0     C83777   5.204   4.066   8.463  0.0574 -0.5416  0.0895
  608MOL0     C83778   5.171   4.018   8.605 -0.0630  0.3938 -0.8339
  608MOL0     C83779   5.148   4.117   8.710 -0.3042 -0.0306 -0.0967
  608MOL0     C83780   5.108   4.042   8.838  0.8755  0.3133 -0.0122
  608MOL0     C83781   5.036   4.113   8.949  0.1589  0.5131 -0.2858
  608MOL0     C83782   4.980   4.016   9.055 -0.8661 -0.0853  0.3972
  608MOL0     N83783   4.877   4.078   9.147  0.1777  0.3239  0.0402
  608MOL0     C83784   4.890   4.199   9.224  0.2725  0.7117  0.2635
  608MOL0     C83785   4.776   4.202   9.296 -0.6777  0.4351  0.9825
  608MOL0     C83786   4.738   4.315   9.389 -0.4348 -0.2415 -0.3451
  608MOL0     C83787   4.738   4.272   9.535 -0.1732  0.5925 -0.1108
  608MOL0     C83788   4.885   4.255   9.577 -0.5878 -0.0676  0.2899
  608MOL0     C83789   4.909   4.234   9.720 -0.3684  0.1461 -0.1420
  608MOL0     O83790   4.858   4.347   9.797 -0.0677  0.6466 -0.7589
  608MOL0     C83791   4.924   4.364   9.914  0.9882 -0.8962 -0.3845
  608MOL0     C83792   4.916   4.274  10.020  0.5439 -0.1443  0.2467
  608MOL0     C83793   4.997   4.288  10.128  0.7245  1.6700 -1.5616
  608MOL0     C83794   4.973   4.182  10.235 -0.9638  0.7921  0.5004
  608MOL0     C83795   5.088   4.397  10.144 -0.3193 -0.3597  0.8965
  608MOL0     C83796   5.180   4.411  10.263 -0.7111 -0.6032  0.0334
  608MOL0     O83797   5.187   4.536  10.321  0.2930  0.1765  0.0567
  608MOL0     C83798   5.233   4.537  10.452 -0.3339 -0.3435  0.8266
  608MOL0     C83799   5.177   4.454  10.553  0.0846 -0.6580 -0.4140
  608MOL0     C83800   5.218   4.463  10.681 -0.2605  1.3841 -0.5046
  608MOL0     C83801   5.341   4.528  10.710  0.1361 -0.4324  0.5193
  608MOL0     O83802   5.390   4.527  10.836 -0.6336 -0.2071 -0.8632
  608MOL0     C83803   5.451   4.657  10.880  0.4042  0.6962 -0.6757
  608MOL0     C83804   5.511   4.646  11.016  0.7815 -0.1889 -0.8528
  608MOL0     C83805   5.400   4.612  11.128 -0.8365 -0.4360  0.2964
  608MOL0     C83806   5.462   4.590  11.270  0.2000  0.1516 -0.8704
  608MOL0     C83807   5.562   4.688  11.329  0.4128 -0.7593  0.1300
  608MOL0     C83808   5.605   4.666  11.476  0.2858  0.0200  0.0171
  608MOL0     C83809   5.683   4.541  11.494  0.3786  0.4329 -0.0358
  608MOL0     C83810   5.749   4.517  11.625 -0.0624  0.7924 -0.6958
  608MOL0    Cl83811   5.637   4.435  11.741 -0.2261 -0.4483  0.0116
  608MOL0     C83812   5.409   4.596  10.607 -0.4405  0.4361 -0.7457
  608MOL0     C83813   5.348   4.606  10.481  0.4549  0.0516  0.0004
  608MOL0     O83814   5.225   4.307  10.314 -0.6260  0.9424  0.1039
  608MOL0     C83815   5.089   4.493  10.046  0.2151  0.0323  0.7225
  608MOL0     C83816   5.014   4.474   9.930  0.1263  0.0911  0.2474
  608MOL0     N83817   4.708   4.084   9.271  0.5607 -0.7511  0.7375
  608MOL0     N83818   4.768   4.008   9.186  0.2991  0.1422  0.7309
  608MOL0     C83819   5.377   3.543   8.233 -0.5013  0.4112 -0.3444
  608MOL0     C83820   5.432   3.423   8.263 -0.7686  0.2309 -0.6605
  608MOL0     C83821   5.656   3.101   8.436 -0.5606 -0.5818 -1.2047
  608MOL0     C83822   5.587   3.021   8.536 -0.7563  0.4881  0.6524
  608MOL0     C83823   5.637   2.900   8.580 -0.8417 -0.0733 -0.0281
  608MOL0     C83824   5.775   2.863   8.547 -0.0757  0.7234 -0.0268
  608MOL0     O83825   5.847   2.757   8.595  0.2046 -0.1270  0.0959
  608MOL0     C83826   5.775   2.652   8.658  0.3984 -0.0918 -0.9663
  608MOL0     C83827   5.844   2.521   8.690  0.2092  0.2221  0.1514
  608MOL0     C83828   5.903   2.461   8.565 -0.2596  0.0954  1.0898
  608MOL0     C83829   5.801   2.384   8.476 -0.5658  0.5090  0.5848
  608MOL0     C83830   5.879   2.338   8.358 -0.0243 -0.0988  0.9031
  608MOL0     C83831   5.940   2.284   8.267 -0.3829  0.9657 -0.2725
  608MOL0     C83832   5.844   2.939   8.455  0.0063 -1.1376 -1.4766
  608MOL0     C83833   5.788   3.059   8.405  0.6946  0.9865  0.0424
  608MOL0     C83834   5.868   3.123   8.297 -0.0383  0.9635  0.9308
  608MOL0     H83835   5.286   3.347   8.552 -0.6916 -1.1999 -1.1751
  608MOL0     H83836   5.183   3.569   8.505  1.3568  1.2443  0.1328
  608MOL0     H83837   5.369   3.830   8.436  0.6513 -1.8624 -1.3432
  608MOL0     H83838   5.199   3.781   8.487 -1.9149 -0.0345 -0.8669
  608MOL0     H83839   5.252   3.985   8.261 -0.4355 -0.6799 -0.7552
  608MOL0     H83840   5.094   3.937   8.327 -0.7127 -2.4185  2.7223
  608MOL0     H83841   5.303   4.112   8.454  0.0963 -0.7798 -0.8357
  608MOL0     H83842   5.131   4.142   8.433 -1.7182 -2.9982 -2.3428
  608MOL0     H83843   5.083   3.953   8.596 -1.3022  2.2374 -3.2997
  608MOL0     H83844   5.252   3.966   8.656 -1.0948  0.4686  0.9544
  608MOL0     H83845   5.070   4.189   8.681 -0.6509 -0.3272  0.0849
  608MOL0     H83846   5.235   4.179   8.733 -1.0298  1.0560 -0.1755
  608MOL0     H83847   5.037   3.963   8.812  1.8292 -1.5803  2.6785
  608MOL0     H83848   5.188   3.989   8.891  0.0970 -0.1234  0.7320
  608MOL0     H83849   4.948   4.160   8.903 -0.9963 -0.7091  0.5694
  608MOL0     H83850   5.100   4.194   8.984  2.6936 -0.9431 -1.2473
  608MOL0     H83851   4.946   3.927   9.002  2.5024 -1.9247  1.0356
  608MOL0     H83852   5.052   3.978   9.128 -1.9186 -3.6199 -0.2205
  608MOL0     H83853   4.977   4.264   9.221  1.6724 -1.0803 -2.4582
  608MOL0     H83854   4.636   4.347   9.366 -2.0959 -5.4888 -1.6309
  608MOL0     H83855   4.808   4.397   9.370 -2.3304  1.6058  0.3670
  608MOL0     H83856   4.687   4.340   9.603 -3.0657 -3.1749  1.8561
  608MOL0     H83857   4.684   4.177   9.547  1.3581 -0.3443 -0.3735
  608MOL0     H83858   4.935   4.176   9.521  2.8591  0.9362  1.7069
  608MOL0     H83859   4.933   4.351   9.554 -0.7101 -0.4870 -1.9885
  608MOL0     H83860   4.858   4.144   9.757  3.1842 -1.7476  0.5576
  608MOL0     H83861   5.015   4.240   9.744  0.4898  1.2157 -3.6697
  608MOL0     H83862   4.845   4.193  10.001 -4.0004  2.4083  4.1599
  608MOL0     H83863   5.062   4.122  10.259 -0.4372  1.8123  1.1498
  608MOL0     H83864   4.904   4.103  10.205 -0.8810  0.5502  0.9363
  608MOL0     H83865   4.951   4.231  10.330  3.2574 -0.7795  2.5867
  608MOL0     H83866   5.080   4.412  10.526 -1.6263  3.3058 -1.3158
  608MOL0     H83867   5.155   4.418  10.757 -3.7788  1.3371 -3.1650
  608MOL0     H83868   5.537   4.683  10.817 -0.8913  0.9542 -2.4350
  608MOL0     H83869   5.375   4.735  10.867  0.2405  0.6718  0.0889
  608MOL0     H83870   5.583   4.564  11.011  1.7767  0.6492 -0.6416
  608MOL0     H83871   5.563   4.742  11.024 -4.1504  3.3166 -4.4251
  608MOL0     H83872   5.347   4.521  11.100 -1.7436  0.0180  0.4991
  608MOL0     H83873   5.321   4.687  11.131 -0.1669  0.2353  2.4453
  608MOL0     H83874   5.510   4.492  11.274  0.7996  0.4578 -0.2691
  608MOL0     H83875   5.374   4.581  11.335  1.1854 -1.5742  0.2790
  608MOL0     H83876   5.647   4.691  11.260 -1.7476 -0.3093 -2.7309
  608MOL0     H83877   5.512   4.785  11.318 -0.0620 -1.2120 -2.4118
  608MOL0     H83878   5.515   4.645  11.534 -0.9233 -2.2413 -2.4603
  608MOL0     H83879   5.658   4.757  11.506 -2.8348  2.2009 -0.6577
  608MOL0     H83880   5.775   4.542  11.436  1.4687 -3.2179  1.3130
  608MOL0     H83881   5.622   4.452  11.472  2.6151 -1.1190 -0.3217
  608MOL0     H83882   5.786   4.608  11.672 -1.1010 -0.2007  2.3350
  608MOL0     H83883   5.828   4.443  11.608 -0.6049 -1.4367  4.4499
  608MOL0     H83884   5.506   4.645  10.620 -0.3774  0.4074 -1.1159
  608MOL0     H83885   5.397   4.657  10.398 -0.9915  0.4744 -0.6322
  608MOL0     H83886   5.146   4.584  10.059 -0.0707  0.4788 -0.9119
  608MOL0     H83887   5.000   4.548   9.852 -1.3408  0.1409  0.5150
  608MOL0     H83888   5.412   3.614   8.158 -0.7161  1.7385  0.7644
  608MOL0     H83889   5.501   3.386   8.187 -0.7319 -2.5797  0.6400
  608MOL0     H83890   5.491   3.044   8.581  0.9276  1.0614  4.3513
  608MOL0     H83891   5.583   2.841   8.653  0.1424 -0.5576  0.3295
  608MOL0     H83892   5.745   2.681   8.759 -3.4460 -2.5343 -1.1683
  608MOL0     H83893   5.686   2.622   8.601 -0.2169 -1.0086  0.4095
  608MOL0     H83894   5.771   2.460   8.745  0.4535  0.1749  0.4246
  608MOL0     H83895   5.919   2.545   8.765 -1.3182  1.3340  1.4066
  608MOL0     H83896   5.951   2.538   8.505 -0.7322  0.9010  1.7242
  608MOL0     H83897   5.983   2.392   8.596  2.1218  1.4103 -1.6759
  608MOL0     H83898   5.715   2.449   8.456 -0.7096  0.3868  0.8048
  608MOL0     H83899   5.767   2.303   8.541  0.0887  0.0843  0.4040
  608MOL0     H83900   5.989   2.236   8.185 -2.7147  0.4531 -1.4524
  608MOL0     H83901   5.942   2.910   8.417  0.1933 -2.2496 -0.2017
  608MOL0     H83902   5.940   3.052   8.256 -0.6006  0.9741 -0.0953
  608MOL0     H83903   5.811   3.162   8.213  0.7873  0.5474  0.1557
  608MOL0     H83904   5.925   3.205   8.343  3.2594  0.9916 -2.6752
  609MOL0     O83905   7.769  10.682   0.687  0.1653 -0.6820 -0.0196
  609MOL0     C83906   7.720  10.661   0.571 -0.7696 -0.2843  0.2632
  609MOL0     O83907   7.768  10.583   0.474  0.4056  0.3544  0.1258
  609MOL0     C83908   7.875  10.505   0.490 -0.3552 -0.3193 -0.1135
  609MOL0     C83909   7.876  10.370   0.490  0.1060  0.4498  0.4669
  609MOL0     C83910   7.991  10.292   0.515 -0.6052 -0.2565 -0.3952
  609MOL0     C83911   8.119  10.349   0.532  0.4051  0.7820  0.1543
  609MOL0     O83912   8.219  10.256   0.549  0.2779 -0.2462  0.0882
  609MOL0     C83913   8.351  10.299   0.585 -0.7259  0.2758  0.6922
  609MOL0     C83914   8.447  10.178   0.554  0.4660 -0.2926 -0.7012
  609MOL0     C83915   8.426  10.130   0.412 -0.5797  0.2006  0.1004
  609MOL0     C83916   8.540  10.033   0.371  0.0222 -0.6951  0.6716
  609MOL0     C83917   8.531   9.997   0.218  1.0069  0.8921  1.0775
  609MOL0     C83918   8.563   9.854   0.186  0.2882 -0.1238 -1.0447
  609MOL0     C83919   8.636   9.833   0.051 -0.6544  0.1749 -1.3609
  609MOL0     C83920   8.725   9.707   0.058 -0.1870  0.1899  0.1178
  609MOL0     N83921   8.813   9.709  -0.058 -0.1312 -0.6866  0.4299
  609MOL0     C83922   8.779   9.647  -0.175  1.2097 -0.7075 -0.8037
  609MOL0     C83923   8.874   9.671  -0.270  0.4493 -0.5095  0.0729
  609MOL0     C83924   8.872   9.622  -0.418 -0.1535  0.2265  0.6650
  609MOL0     C83925   8.738   9.603  -0.487 -0.0452 -0.2576  0.7646
  609MOL0     C83926   8.683   9.734  -0.539 -0.5447 -1.1256  0.1374
  609MOL0     C83927   8.583   9.817  -0.450  0.3256  0.4559 -0.0191
  609MOL0     O83928   8.665   9.900  -0.362 -0.1898  0.2159  0.3948
  609MOL0     C83929   8.607   9.999  -0.287 -0.6222  0.7913 -1.0595
  609MOL0     C83930   8.671  10.059  -0.175 -0.6183 -0.1610  0.9489
  609MOL0     C83931   8.636  10.173  -0.117  0.1182  0.7023 -0.3846
  609MOL0     C83932   8.730  10.219   0.002 -1.1416  0.0749 -0.0666
  609MOL0     C83933   8.518  10.238  -0.158 -0.0010  0.7551  0.3438
  609MOL0     C83934   8.455  10.357  -0.097 -0.1486 -0.0887 -0.6671
  609MOL0     O83935   8.485  10.391   0.035  0.1503 -0.3728 -1.0783
  609MOL0     C83936   8.417  10.501   0.082 -0.5805 -0.4114  0.5344
  609MOL0     C83937   8.448  10.633   0.052  0.1822 -0.0020  0.4061
  609MOL0     C83938   8.365  10.732   0.095  0.9274  0.2267 -1.3868
  609MOL0     C83939   8.240  10.707   0.145  0.2743 -0.2427 -0.1613
  609MOL0     O83940   8.137  10.796   0.165 -0.9138 -0.4380 -0.0127
  609MOL0     C83941   8.170  10.935   0.159  0.7040  0.2189  0.5498
  609MOL0     C83942   8.044  11.033   0.174  0.4131  0.1743  0.2242
  609MOL0     C83943   7.945  11.005   0.069  0.0848  0.1264  0.2650
  609MOL0     C83944   7.850  11.126   0.043  0.5467 -0.4277  0.3029
  609MOL0     C83945   7.752  11.091  -0.076 -0.2331  0.1167  0.9108
  609MOL0     C83946   7.694  11.220  -0.136 -0.4411  0.0908  1.1700
  609MOL0     C83947   7.631  11.305  -0.023  0.0325  0.3818 -0.9100
  609MOL0     C83948   7.502  11.250   0.054  0.3762 -0.2147  0.0067
  609MOL0    Cl83949   7.385  11.202  -0.066  0.2542 -0.2976  0.2049
  609MOL0     C83950   8.216  10.578   0.190 -0.3815  0.8467 -0.5480
  609MOL0     C83951   8.309  10.482   0.168 -0.2578  0.6929  0.0157
  609MOL0     O83952   8.386  10.428  -0.169  0.3683  0.3622 -0.4163
  609MOL0     C83953   8.444  10.180  -0.268  0.3312  0.7023  0.2024
  609MOL0     C83954   8.496  10.069  -0.334 -0.5067 -0.2925 -0.3560
  609MOL0     N83955   8.972   9.751  -0.205  0.5269 -0.7429  0.1791
  609MOL0     N83956   8.925   9.772  -0.083  0.1299  0.0269  0.2801
  609MOL0     C83957   8.120  10.485   0.519  0.1021  0.2403  0.1082
  609MOL0     C83958   8.003  10.566   0.514  1.3922 -0.3566 -0.1122
  609MOL0     C83959   7.602  10.741   0.536 -0.3725 -0.7100 -0.6549
  609MOL0     C83960   7.622  10.849   0.451 -0.6826 -0.4806  0.1889
  609MOL0     C83961   7.515  10.933   0.407 -0.3164  1.4665 -0.6432
  609MOL0     C83962   7.392  10.917   0.468  0.7039  0.1512 -0.8981
  609MOL0     O83963   7.295  10.999   0.416 -0.4487 -0.5549 -0.0885
  609MOL0     C83964   7.157  10.974   0.421  0.0742  0.1027  0.1332
  609MOL0     C83965   7.083  11.107   0.443 -0.0539 -0.7316  0.1181
  609MOL0     C83966   7.116  11.156   0.588  0.3486  0.4081 -0.7226
  609MOL0     C83967   7.033  11.281   0.618  0.7053 -0.4470  0.4556
  609MOL0     C83968   7.057  11.323   0.754  0.2866  1.0154  0.3458
  609MOL0     C83969   7.091  11.358   0.866  0.3615 -0.1229  0.2428
  609MOL0     C83970   7.368  10.808   0.556  0.0133 -0.0822  0.6883
  609MOL0     C83971   7.472  10.717   0.585 -0.4807 -0.4739 -0.2393
  609MOL0     C83972   7.432  10.608   0.684 -0.3038 -0.8814 -0.2409
  609MOL0     H83973   7.782  10.317   0.484 -1.5679  3.1531  0.9850
  609MOL0     H83974   7.980  10.186   0.539  0.6650 -0.2450  0.3326
  609MOL0     H83975   8.363  10.320   0.692  1.4657  4.2394 -0.1128
  609MOL0     H83976   8.380  10.390   0.531 -5.1387  1.5413  0.0348
  609MOL0     H83977   8.552  10.204   0.565  0.1026  0.4002  1.6546
  609MOL0     H83978   8.418  10.096   0.620 -1.8493 -1.4406 -2.9431
  609MOL0     H83979   8.333  10.073   0.405 -2.0273  2.5664 -1.5278
  609MOL0     H83980   8.413  10.208   0.336  0.8879 -0.6724 -1.0927
  609MOL0     H83981   8.638  10.071   0.401 -0.0550 -0.4204  0.5773
  609MOL0     H83982   8.521   9.937   0.420  0.6593  0.0054  2.3415
  609MOL0     H83983   8.607  10.066   0.179 -0.1796  2.0523  0.7332
  609MOL0     H83984   8.435  10.019   0.171  0.8098 -1.1032  0.4717
  609MOL0     H83985   8.635   9.819   0.261  2.0260  0.1837 -2.5133
  609MOL0     H83986   8.463   9.811   0.197 -0.1114  1.3050  1.8144
  609MOL0     H83987   8.698   9.922   0.041 -2.1828  1.5725  0.7093
  609MOL0     H83988   8.565   9.835  -0.033  3.0964  4.2201 -4.9085
  609MOL0     H83989   8.799   9.723   0.137 -0.3928 -2.9053  1.0583
  609MOL0     H83990   8.659   9.620   0.069 -2.2069  1.7608  1.0211
  609MOL0     H83991   8.686   9.591  -0.174 -0.3768  1.6983  2.0452
  609MOL0     H83992   8.925   9.527  -0.411  0.6709  0.5308 -0.9805
  609MOL0     H83993   8.941   9.686  -0.474  0.9024 -0.8220  0.7219
  609MOL0     H83994   8.767   9.528  -0.561 -1.5828 -1.2783  1.1619
  609MOL0     H83995   8.665   9.551  -0.426 -0.5407 -1.5477 -0.8656
  609MOL0     H83996   8.773   9.792  -0.563  1.8234 -3.4056  2.7998
  609MOL0     H83997   8.627   9.708  -0.630  0.3433 -0.5366 -0.6005
  609MOL0     H83998   8.527   9.872  -0.527  0.3611 -0.5290 -0.7635
  609MOL0     H83999   8.497   9.772  -0.398  0.2499  0.8791  0.2269
  609MOL0     H84000   8.767  10.020  -0.142  0.6277  0.4425 -1.6651
  609MOL0     H84001   8.812  10.151   0.023 -1.9378 -0.8819  0.0427
  609MOL0     H84002   8.675  10.218   0.097 -0.1347 -0.9640  0.5247
  609MOL0     H84003   8.765  10.322  -0.015  3.6208 -1.5829 -1.9184
  609MOL0     H84004   8.541  10.654   0.001  0.5532 -2.5097 -0.0913
  609MOL0     H84005   8.395  10.834   0.072 -2.3809  0.9166 -3.3155
  609MOL0     H84006   8.240  10.954   0.241  1.2394 -1.4169  0.5121
  609MOL0     H84007   8.224  10.960   0.067  1.9457 -0.7078  1.0027
  609MOL0     H84008   7.989  11.026   0.269 -1.7990  1.0532 -0.9114
  609MOL0     H84009   8.076  11.137   0.165  1.7260 -0.2323  0.0618
  609MOL0     H84010   7.894  10.911   0.086  0.3502 -0.7477 -2.9811
  609MOL0     H84011   8.004  11.001  -0.024  2.2762  0.8864  1.5439
  609MOL0     H84012   7.912  11.209   0.011 -0.8842  0.7981  0.6085
  609MOL0     H84013   7.785  11.159   0.125 -2.9019 -1.3757 -1.8450
  609MOL0     H84014   7.802  11.031  -0.152 -3.3509 -1.4751 -0.0935
  609MOL0     H84015   7.674  11.024  -0.039 -2.8237  3.4482  2.0742
  609MOL0     H84016   7.632  11.195  -0.223  0.6666  2.2590 -0.3496
  609MOL0     H84017   7.785  11.272  -0.169 -0.7641  1.3278  2.1668
  609MOL0     H84018   7.596  11.390  -0.083 -0.0797  0.0359 -1.3366
  609MOL0     H84019   7.707  11.341   0.048 -2.5639  3.0542  0.7724
  609MOL0     H84020   7.459  11.332   0.113 -1.4209 -0.1034 -1.3771
  609MOL0     H84021   7.516  11.168   0.125 -0.8401 -2.2791 -1.9991
  609MOL0     H84022   8.118  10.563   0.234  1.2568  0.8218  3.5604
  609MOL0     H84023   8.290  10.379   0.193 -1.0823  1.1109  1.1745
  609MOL0     H84024   8.358  10.239  -0.299  0.9125  1.6329  0.3242
  609MOL0     H84025   8.441  10.040  -0.422 -1.7557 -3.7798  1.3701
  609MOL0     H84026   8.217  10.533   0.519 -0.2470  0.9575 -0.1983
  609MOL0     H84027   8.016  10.674   0.514 -1.4318  0.0601 -0.7153
  609MOL0     H84028   7.721  10.856   0.408  0.2168 -2.1395  1.8431
  609MOL0     H84029   7.532  11.003   0.326  0.1406  3.1066  0.7912
  609MOL0     H84030   7.117  10.924   0.332 -2.3642 -2.1785  2.3320
  609MOL0     H84031   7.119  10.914   0.504  2.7235 -2.9954 -0.6981
  609MOL0     H84032   6.974  11.093   0.441  0.1399 -2.4080 -0.2277
  609MOL0     H84033   7.125  11.175   0.369  2.0212 -2.0650  0.0021
  609MOL0     H84034   7.089  11.079   0.662  1.8114 -0.8724 -1.4663
  609MOL0     H84035   7.223  11.175   0.597  0.8637 -1.2840 -2.5258
  609MOL0     H84036   6.929  11.248   0.624 -0.1217  1.9564  0.3661
  609MOL0     H84037   7.055  11.359   0.544 -0.3113 -1.5185 -1.0191
  609MOL0     H84038   7.107  11.399   0.964  2.1953  0.8600 -0.4160
  609MOL0     H84039   7.269  10.791   0.597  0.2346  0.8737  1.6374
  609MOL0     H84040   7.344  10.558   0.643 -0.5237 -0.2682 -0.5343
  609MOL0     H84041   7.514  10.544   0.717 -0.0536 -0.7881 -0.6702
  609MOL0     H84042   7.399  10.665   0.771  2.0964  2.0795 -1.0555
  610MOL0     O84043   8.180   1.079   8.789 -0.7507  0.0286 -0.0791
  610MOL0     C84044   8.240   1.015   8.703 -0.3515 -0.8748  0.2157
  610MOL0     O84045   8.202   0.895   8.651 -0.0531  0.1459 -0.2910
  610MOL0     C84046   8.067   0.857   8.669  0.7803 -0.2154 -0.1544
  610MOL0     C84047   8.029   0.720   8.667  0.2975 -0.2410  0.4506
  610MOL0     C84048   7.897   0.678   8.665  0.3874  0.7287 -0.2177
  610MOL0     C84049   7.794   0.776   8.638 -0.5997  0.3865 -0.2269
  610MOL0     O84050   7.662   0.735   8.622 -0.1184 -0.9059 -0.5932
  610MOL0     C84051   7.643   0.604   8.576 -0.5978  0.1860 -1.0194
  610MOL0     C84052   7.662   0.586   8.432  0.6357 -0.3625  0.2217
  610MOL0     C84053   7.618   0.446   8.401 -0.0270 -0.6351 -0.0948
  610MOL0     C84054   7.651   0.420   8.246  0.1785  0.2293 -0.1470
  610MOL0     C84055   7.640   0.272   8.214 -0.1844  0.3379  0.7682
  610MOL0     C84056   7.672   0.228   8.070  0.1996 -0.4439 -0.0394
  610MOL0     C84057   7.550   0.267   7.980  0.2688  0.9967  1.3283
  610MOL0     C84058   7.543   0.192   7.844 -0.0056  0.5049 -0.6474
  610MOL0     N84059   7.482   0.060   7.875 -0.5940 -0.2709  0.6494
  610MOL0     C84060   7.341   0.038   7.867 -0.1678  0.2858 -0.9266
  610MOL0     C84061   7.326  -0.087   7.917  1.2155  0.1008  1.8501
  610MOL0     C84062   7.194  -0.146   7.956  0.0882 -0.3993  0.0654
  610MOL0     C84063   7.138  -0.087   8.085  1.6860  0.4152  0.1047
  610MOL0     C84064   7.000  -0.151   8.130 -0.0901 -1.0958 -0.4500
  610MOL0     C84065   7.024  -0.271   8.221  0.8310 -0.6234 -0.5696
  610MOL0     O84066   6.999  -0.247   8.359 -0.0436  0.0473 -0.2807
  610MOL0     C84067   7.099  -0.185   8.434  0.2811 -0.0449  1.6761
  610MOL0     C84068   7.217  -0.247   8.481 -1.0822  0.7373 -0.2109
  610MOL0     C84069   7.324  -0.172   8.536 -0.8564  0.0609  0.0333
  610MOL0     C84070   7.453  -0.255   8.578  0.3842 -0.0488  0.6500
  610MOL0     C84071   7.320  -0.034   8.548 -0.2056 -0.0286 -0.4709
  610MOL0     C84072   7.427   0.053   8.608 -0.5794  0.0646  0.5635
  610MOL0     O84073   7.417   0.100   8.740 -0.7607  0.7348  0.6434
  610MOL0     C84074   7.506   0.189   8.794  0.1017 -0.0259  0.5247
  610MOL0     C84075   7.632   0.143   8.832  0.3727 -0.1218  0.2298
  610MOL0     C84076   7.727   0.233   8.870  0.6729 -0.1812  0.6621
  610MOL0     C84077   7.694   0.364   8.896  0.4619 -0.5137  0.4058
  610MOL0     O84078   7.803   0.450   8.925 -0.0670 -0.4957 -0.2924
  610MOL0     C84079   7.769   0.577   8.979 -0.3812  1.0567 -0.5930
  610MOL0     C84080   7.896   0.646   9.032 -0.7902  0.5776  0.4959
  610MOL0     C84081   7.858   0.772   9.106 -0.2206  0.4533  0.7876
  610MOL0     C84082   7.844   0.878   8.999  0.8363 -0.4667 -0.4628
  610MOL0     C84083   7.779   1.003   9.059 -0.6624  0.1425  0.3964
  610MOL0     C84084   7.792   1.119   8.949 -1.0209  0.3699  0.3407
  610MOL0     C84085   7.764   1.267   9.007 -0.1439 -0.3640  0.2807
  610MOL0     C84086   7.834   1.374   8.930  0.3575 -0.0717  0.2009
  610MOL0    Cl84087   7.731   1.418   8.791  0.2217  0.3872  0.1128
  610MOL0     C84088   7.567   0.410   8.860 -0.3184  0.0851 -0.0291
  610MOL0     C84089   7.472   0.324   8.811  0.3389 -0.7094 -0.4120
  610MOL0     O84090   7.520   0.089   8.535  0.4185 -0.2052  0.1493
  610MOL0     C84091   7.197   0.022   8.493 -1.0118 -0.5483  0.5552
  610MOL0     C84092   7.092  -0.047   8.435 -0.0130  0.3477 -0.3140
  610MOL0     N84093   7.451  -0.144   7.942 -0.4164 -0.5165 -0.0799
  610MOL0     N84094   7.544  -0.050   7.934 -0.1055  0.3613 -0.0911
  610MOL0     C84095   7.830   0.909   8.631  0.2835 -0.0979 -0.3197
  610MOL0     C84096   7.961   0.948   8.664  0.3115  0.9305  0.8051
  610MOL0     C84097   8.384   1.045   8.694 -0.9107  0.2437 -0.2362
  610MOL0     C84098   8.472   0.930   8.685 -0.8911 -0.7639 -0.3603
  610MOL0     C84099   8.604   0.965   8.671  1.0768  0.9471  0.5698
  610MOL0     C84100   8.660   1.091   8.671 -0.4902  0.8979 -0.5270
  610MOL0     O84101   8.798   1.112   8.661  0.1180  0.7139 -0.2647
  610MOL0     C84102   8.860   1.237   8.702  0.1214  0.3560  0.1708
  610MOL0     C84103   9.006   1.223   8.752 -0.2153  0.1165 -0.2152
  610MOL0     C84104   9.077   1.358   8.785  0.0691 -0.9838  0.1549
  610MOL0     C84105   9.215   1.345   8.859  0.2745 -0.9206  0.8986
  610MOL0     C84106   9.324   1.277   8.770  0.6782 -0.0360 -0.5665
  610MOL0     C84107   9.378   1.195   8.708 -0.7616 -0.7105  0.6519
  610MOL0     C84108   8.568   1.190   8.697  1.0601 -0.5257  1.1070
  610MOL0     C84109   8.432   1.176   8.698  1.1495 -0.4181 -0.3075
  610MOL0     C84110   8.332   1.294   8.715 -0.2914 -0.8318 -0.8979
  610MOL0     H84111   8.114   0.653   8.662  1.4968  1.2560 -0.2516
  610MOL0     H84112   7.880   0.571   8.672 -0.8473  0.9454  0.4009
  610MOL0     H84113   7.542   0.565   8.589  0.5682 -2.9659 -0.5182
  610MOL0     H84114   7.699   0.520   8.620  3.2028  1.0011 -3.7505
  610MOL0     H84115   7.611   0.666   8.377 -0.2478  0.1555  1.7560
  610MOL0     H84116   7.768   0.592   8.406  1.0513 -0.9880  1.6664
  610MOL0     H84117   7.663   0.372   8.468  2.9532  1.3100  0.2584
  610MOL0     H84118   7.511   0.435   8.415 -0.3939  2.7664  0.4770
  610MOL0     H84119   7.581   0.471   8.179 -1.8290 -1.4749  0.5256
  610MOL0     H84120   7.749   0.456   8.213  1.4710 -2.0586  0.8934
  610MOL0     H84121   7.553   0.220   8.253  0.8578 -1.6633  0.5538
  610MOL0     H84122   7.723   0.230   8.273 -1.7135 -1.4215  1.7810
  610MOL0     H84123   7.755   0.287   8.031 -0.4906  0.1525 -0.6395
  610MOL0     H84124   7.684   0.121   8.087 -3.4576 -0.8016  1.3292
  610MOL0     H84125   7.548   0.371   7.946  0.0731 -0.0330 -2.2322
  610MOL0     H84126   7.455   0.236   8.025 -0.8698  0.9185 -0.9775
  610MOL0     H84127   7.486   0.235   7.760 -1.3161  2.9322  1.3488
  610MOL0     H84128   7.644   0.180   7.804  0.8483  3.3969  0.4041
  610MOL0     H84129   7.266   0.112   7.845  0.4589  0.9084 -1.0262
  610MOL0     H84130   7.204  -0.254   7.964  0.3623 -0.3604  0.2613
  610MOL0     H84131   7.124  -0.132   7.873 -2.7859 -1.8106  2.0705
  610MOL0     H84132   7.218  -0.089   8.160  0.7006  5.8104  1.7793
  610MOL0     H84133   7.136   0.022   8.079 -3.7820  0.5573 -0.4550
  610MOL0     H84134   6.945  -0.070   8.179  0.6620 -0.9507  0.1677
  610MOL0     H84135   6.942  -0.189   8.046 -0.6360 -0.1080 -0.5308
  610MOL0     H84136   6.959  -0.346   8.175  2.1425 -0.4218 -2.9137
  610MOL0     H84137   7.128  -0.307   8.214  1.3462  0.3986  1.2696
  610MOL0     H84138   7.225  -0.352   8.455 -2.9940  0.3016  0.7643
  610MOL0     H84139   7.525  -0.243   8.497  0.0595  2.1538  0.6190
  610MOL0     H84140   7.445  -0.364   8.586  2.2589 -0.2931 -0.3731
  610MOL0     H84141   7.502  -0.227   8.672 -1.4803 -1.2414  2.0467
  610MOL0     H84142   7.649   0.036   8.821 -4.7131 -1.1484 -0.2297
  610MOL0     H84143   7.823   0.186   8.888  0.3248 -0.3538  2.2770
  610MOL0     H84144   7.737   0.630   8.888 -0.5701 -0.5519 -1.4997
  610MOL0     H84145   7.698   0.557   9.059  1.2831 -1.9514  0.3065
  610MOL0     H84146   7.942   0.579   9.105  0.2000  2.8194  2.0379
  610MOL0     H84147   7.976   0.676   8.964 -1.7321  1.1388 -0.3992
  610MOL0     H84148   7.933   0.801   9.180 -0.8833  3.4165  0.4327
  610MOL0     H84149   7.770   0.767   9.170 -1.1268  0.1422 -0.4330
  610MOL0     H84150   7.774   0.839   8.925 -1.7552  0.0681  1.5497
  610MOL0     H84151   7.942   0.900   8.955  2.5524 -1.5760  2.4527
  610MOL0     H84152   7.673   0.988   9.080 -1.2375 -2.2768 -3.3544
  610MOL0     H84153   7.837   1.035   9.146 -0.5222  0.6216  0.1328
  610MOL0     H84154   7.722   1.090   8.871  0.5643 -1.3381 -0.5340
  610MOL0     H84155   7.893   1.124   8.906 -1.4921 -1.1287 -1.0428
  610MOL0     H84156   7.803   1.277   9.109 -0.6731 -0.3162  0.4800
  610MOL0     H84157   7.655   1.274   9.015 -0.3318 -3.4544  1.6270
  610MOL0     H84158   7.927   1.332   8.890 -0.0618 -0.8792  0.0533
  610MOL0     H84159   7.834   1.462   8.996 -0.1902 -0.5718  0.8752
  610MOL0     H84160   7.549   0.517   8.847  2.5366  0.6431 -0.0302
  610MOL0     H84161   7.380   0.366   8.771  1.0907  1.8008  0.3674
  610MOL0     H84162   7.190   0.129   8.512 -2.2950 -0.8125  1.7010
  610MOL0     H84163   7.001   0.003   8.404 -0.6780 -0.1375  0.7910
  610MOL0     H84164   7.754   0.985   8.617  0.0094  0.1197  1.9220
  610MOL0     H84165   7.978   1.055   8.657  1.5416  0.8225  1.8433
  610MOL0     H84166   8.436   0.827   8.691 -0.1978 -1.0339 -0.7701
  610MOL0     H84167   8.675   0.885   8.650 -0.0664 -0.6685  2.4939
  610MOL0     H84168   8.860   1.314   8.625 -1.2787  4.1024  3.5738
  610MOL0     H84169   8.803   1.278   8.786 -1.0527 -1.2596  0.2129
  610MOL0     H84170   9.070   1.174   8.678  2.3137  0.7430  1.4576
  610MOL0     H84171   8.993   1.157   8.839  0.0791  2.0798  1.3763
  610MOL0     H84172   9.097   1.408   8.689 -3.1236 -0.6496 -0.4620
  610MOL0     H84173   9.010   1.425   8.839  0.1637 -1.5778  1.0352
  610MOL0     H84174   9.213   1.291   8.955 -2.3598 -0.6221  1.0874
  610MOL0     H84175   9.257   1.441   8.891  0.4726 -1.5437  2.6276
  610MOL0     H84176   9.432   1.115   8.662 -2.3737 -0.8671 -1.1038
  610MOL0     H84177   8.604   1.290   8.714 -0.6249  0.1853  0.6990
  610MOL0     H84178   8.259   1.299   8.634 -5.5091 -0.5328  3.2995
  610MOL0     H84179   8.273   1.284   8.807  0.5803 -2.5376 -0.4832
  610MOL0     H84180   8.381   1.392   8.721 -1.9114  0.2282 -3.3049
  611MOL0     O84181   6.671   6.521   0.273  0.2529  0.2001 -0.1745
  611MOL0     C84182   6.684   6.496   0.392 -0.8828  0.0382 -0.1030
  611MOL0     O84183   6.801   6.465   0.456 -1.4016  0.0144  0.0506
  611MOL0     C84184   6.927   6.466   0.382 -0.5576 -0.7163 -0.5351
  611MOL0     C84185   6.970   6.360   0.303  0.1281  1.3176 -0.5298
  611MOL0     C84186   7.065   6.373   0.207 -0.3216 -0.5696 -0.3811
  611MOL0     C84187   7.141   6.489   0.197 -0.7458 -0.9437  0.9186
  611MOL0     O84188   7.255   6.501   0.112  0.3998  0.2591 -0.0613
  611MOL0     C84189   7.301   6.379   0.042 -0.1085 -0.4260 -0.0823
  611MOL0     C84190   7.440   6.399  -0.023 -0.3675 -0.4194  0.0779
  611MOL0     C84191   7.537   6.442   0.090 -0.6951 -0.6669 -0.3363
  611MOL0     C84192   7.651   6.525   0.022  0.0505 -0.5630 -0.2655
  611MOL0     C84193   7.753   6.553   0.126  0.7216  0.5047  0.7597
  611MOL0     C84194   7.878   6.623   0.070 -0.4435 -0.4215 -0.3167
  611MOL0     C84195   7.980   6.658   0.179 -0.3898  0.5177 -0.2281
  611MOL0     C84196   8.115   6.674   0.127  0.2010 -0.0244  0.7690
  611MOL0     N84197   8.215   6.678   0.233 -0.3617  0.2591 -0.8184
  611MOL0     C84198   8.349   6.648   0.214  0.6542  0.2394  0.1973
  611MOL0     C84199   8.409   6.653   0.331 -0.0387 -0.2584  0.0508
  611MOL0     C84200   8.545   6.611   0.351  0.7731  0.6336 -0.8811
  611MOL0     C84201   8.558   6.460   0.387  1.3808 -0.2226 -0.2210
  611MOL0     C84202   8.695   6.416   0.428  0.1062 -0.2513 -0.5555
  611MOL0     C84203   8.799   6.434   0.314  0.4257 -0.5611  0.5674
  611MOL0     O84204   8.871   6.313   0.294  0.1835 -0.1309  0.3929
  611MOL0     C84205   8.963   6.270   0.380 -0.3221  0.9938  0.4559
  611MOL0     C84206   9.014   6.354   0.483  0.2447 -0.2502 -0.1767
  611MOL0     C84207   9.125   6.312   0.561  0.6420  0.0269 -0.8099
  611MOL0     C84208   9.149   6.416   0.683  0.0203 -0.5205 -0.2730
  611MOL0     C84209   9.189   6.192   0.551 -0.1345  0.4470 -0.0565
  611MOL0     C84210   9.306   6.145   0.643  0.0589 -0.8785 -0.4559
  611MOL0     O84211   9.365   6.237   0.731 -0.0586  0.8619  0.2800
  611MOL0     C84212   9.501   6.222   0.749 -0.9302  0.1362 -0.0822
  611MOL0     C84213   9.591   6.211   0.648 -0.7560  0.4891  0.2203
  611MOL0     C84214   9.731   6.204   0.668 -0.7230  1.2044  0.0888
  611MOL0     C84215   9.792   6.213   0.790 -0.6985 -0.8492  0.4088
  611MOL0     O84216   9.930   6.210   0.795 -0.9242  0.7353 -1.0664
  611MOL0     C84217   9.976   6.209   0.934 -0.1375 -0.5251  1.0263
  611MOL0     C84218   9.976   6.070   0.996  0.1629  1.0522  0.0861
  611MOL0     C84219  10.058   5.966   0.919  0.1523 -0.2445  0.1043
  611MOL0     C84220  10.203   5.973   0.974  0.8127 -0.4210 -0.1980
  611MOL0     C84221  10.299   5.860   0.929  0.1137 -0.8622 -0.9455
  611MOL0     C84222  10.273   5.726   1.001 -0.4246  0.6278 -0.6394
  611MOL0     C84223  10.205   5.612   0.928  0.4838  0.0456 -0.6364
  611MOL0     C84224  10.201   5.479   1.009 -0.0006  0.1035  0.1604
  611MOL0    Cl84225  10.047   5.471   1.114  0.1162  0.0433  0.2143
  611MOL0     C84226   9.699   6.239   0.892  0.6845  0.4998 -0.7809
  611MOL0     C84227   9.554   6.247   0.877 -0.7100  0.0398 -0.0197
  611MOL0     O84228   9.347   6.032   0.624  0.8884 -0.7984  0.1294
  611MOL0     C84229   9.143   6.101   0.443  0.2066 -0.1701  0.1809
  611MOL0     C84230   9.023   6.139   0.370  0.2759  0.7303 -0.7726
  611MOL0     N84231   8.310   6.673   0.425  0.2303 -0.6568 -0.1389
  611MOL0     N84232   8.196   6.688   0.368  0.3411 -0.4099 -0.3149
  611MOL0     C84233   7.119   6.594   0.278  0.7242 -0.3264 -0.3158
  611MOL0     C84234   7.012   6.579   0.370  0.2265 -0.5253 -0.4335
  611MOL0     C84235   6.564   6.498   0.478 -0.5469 -0.5657  0.2521
  611MOL0     C84236   6.466   6.586   0.432  0.1151  0.3590 -0.9982
  611MOL0     C84237   6.340   6.597   0.506 -1.0399 -0.4124  0.4884
  611MOL0     C84238   6.317   6.522   0.616  0.6507 -0.9983 -0.0364
  611MOL0     O84239   6.187   6.524   0.664 -0.3986 -0.1250  0.2732
  611MOL0     C84240   6.176   6.505   0.806 -0.6046  0.2640 -0.6172
  611MOL0     C84241   6.129   6.361   0.857 -0.3957  0.1959 -0.2791
  611MOL0     C84242   5.998   6.311   0.794  0.2523 -0.3376  0.2881
  611MOL0     C84243   6.026   6.202   0.682  0.3895  0.0837  1.0961
  611MOL0     C84244   6.093   6.072   0.718  1.0408 -1.1342 -0.6655
  611MOL0     C84245   6.161   5.978   0.744 -0.7365 -0.7891 -0.3819
  611MOL0     C84246   6.412   6.436   0.661 -0.0820  0.5971 -0.2182
  611MOL0     C84247   6.541   6.418   0.595 -0.2352 -0.5452 -0.4133
  611MOL0     C84248   6.635   6.314   0.655 -0.6998  0.0931  0.0490
  611MOL0     H84249   6.912   6.269   0.317  0.8906  0.9812  0.5657
  611MOL0     H84250   7.097   6.290   0.145 -1.0020 -0.7143 -0.5410
  611MOL0     H84251   7.230   6.354  -0.038  0.6675  0.3284 -1.0373
  611MOL0     H84252   7.316   6.292   0.106  1.1071 -2.6196 -3.1104
  611MOL0     H84253   7.469   6.305  -0.072  0.3659 -0.2715  0.2080
  611MOL0     H84254   7.439   6.485  -0.090  4.3971  0.1539  0.3991
  611MOL0     H84255   7.500   6.512   0.166  0.8814  0.5473 -0.6530
  611MOL0     H84256   7.573   6.356   0.147  0.5767 -0.4887 -0.8482
  611MOL0     H84257   7.702   6.474  -0.060  1.3589 -0.7595  0.6376
  611MOL0     H84258   7.607   6.616  -0.021  0.6624 -0.0596  0.1465
  611MOL0     H84259   7.789   6.455   0.157  2.4551  0.8137 -0.1303
  611MOL0     H84260   7.708   6.595   0.216  3.3976  1.3191  1.8195
  611MOL0     H84261   7.925   6.550   0.003 -1.1354 -0.7007 -0.5077
  611MOL0     H84262   7.846   6.706   0.006 -1.1111 -2.4423 -2.7651
  611MOL0     H84263   7.976   6.571   0.245 -1.2270  1.2130  0.6849
  611MOL0     H84264   7.951   6.749   0.233 -1.4668 -0.2105  0.4673
  611MOL0     H84265   8.141   6.605   0.047  0.0982  0.5683  0.2145
  611MOL0     H84266   8.118   6.778   0.092  1.3393 -0.3221 -0.0781
  611MOL0     H84267   8.391   6.635   0.114  3.1941 -2.6827  1.5016
  611MOL0     H84268   8.576   6.669   0.438 -2.2503 -0.0741  0.8187
  611MOL0     H84269   8.596   6.635   0.258 -0.2229  4.0248 -0.6829
  611MOL0     H84270   8.502   6.429   0.476 -1.4178  0.8587 -1.4900
  611MOL0     H84271   8.521   6.393   0.309  0.5635 -1.3635  1.0886
  611MOL0     H84272   8.732   6.456   0.523  0.8131 -0.2599 -0.8190
  611MOL0     H84273   8.686   6.307   0.434  1.6533 -0.6172 -3.2247
  611MOL0     H84274   8.752   6.466   0.220  1.1451  1.0543  0.7279
  611MOL0     H84275   8.871   6.515   0.326  1.5430 -1.6040  1.0625
  611MOL0     H84276   8.995   6.460   0.485 -2.6499 -0.6220 -2.0751
  611MOL0     H84277   9.242   6.473   0.677 -0.0062 -0.5272 -0.8045
  611MOL0     H84278   9.147   6.361   0.777  2.7666 -0.4337 -0.0938
  611MOL0     H84279   9.068   6.490   0.685  0.1660 -0.3741  0.6287
  611MOL0     H84280   9.545   6.198   0.550 -2.8039 -2.3993  1.4346
  611MOL0     H84281   9.792   6.178   0.582 -1.6804 -0.6687 -0.0600
  611MOL0     H84282  10.084   6.225   0.939 -0.0976 -1.0540  4.2047
  611MOL0     H84283   9.939   6.291   0.996 -0.4914 -1.2380  1.7707
  611MOL0     H84284  10.010   6.080   1.100  0.8123 -0.3829  0.0388
  611MOL0     H84285   9.873   6.036   1.005 -0.3926  2.9337  1.7723
  611MOL0     H84286  10.060   5.991   0.813 -0.6088 -1.5097 -0.2274
  611MOL0     H84287  10.026   5.862   0.928  0.3832 -0.4102 -0.9359
  611MOL0     H84288  10.197   5.986   1.083 -0.7390 -2.4867  0.0321
  611MOL0     H84289  10.250   6.066   0.942  0.5808 -0.0291  0.5671
  611MOL0     H84290  10.259   5.846   0.828 -1.2912 -1.7992 -0.2875
  611MOL0     H84291  10.401   5.899   0.936 -1.3616  3.2344  1.2974
  611MOL0     H84292  10.225   5.740   1.098  4.6513 -1.4297  2.5364
  611MOL0     H84293  10.366   5.682   1.036 -2.5253 -2.4472  1.5174
  611MOL0     H84294  10.255   5.592   0.833 -1.7218 -2.5924 -1.3783
  611MOL0     H84295  10.105   5.653   0.910  0.5958  0.2059 -0.9068
  611MOL0     H84296  10.291   5.481   1.071 -0.3347 -0.4995  0.6815
  611MOL0     H84297  10.205   5.395   0.939 -0.5777  0.7521 -0.6660
  611MOL0     H84298   9.729   6.258   0.995 -0.2260  2.6658 -0.8734
  611MOL0     H84299   9.487   6.284   0.954  0.7625  4.2690 -0.5065
  611MOL0     H84300   9.196   6.007   0.430  1.1404  0.4733 -0.9198
  611MOL0     H84301   8.980   6.063   0.306  0.8806 -0.8854  0.6289
  611MOL0     H84302   7.189   6.676   0.264 -0.2510  0.7359  0.6827
  611MOL0     H84303   6.986   6.660   0.437 -4.5545 -3.0899  1.2900
  611MOL0     H84304   6.471   6.639   0.337 -0.1620 -0.4440 -1.4718
  611MOL0     H84305   6.270   6.674   0.475  1.9454  1.1804 -3.2668
  611MOL0     H84306   6.265   6.527   0.866  0.9902 -4.5582 -0.7943
  611MOL0     H84307   6.107   6.585   0.838  0.6115  1.8311 -1.7560
  611MOL0     H84308   6.110   6.363   0.964  1.2648 -0.6777  0.0704
  611MOL0     H84309   6.203   6.281   0.846 -2.8457 -2.3788  0.5397
  611MOL0     H84310   5.918   6.276   0.860 -0.5209 -1.2256 -1.0613
  611MOL0     H84311   5.953   6.404   0.759 -0.3389  0.0369  1.9885
  611MOL0     H84312   6.084   6.255   0.606  0.6382  0.5096  1.5757
  611MOL0     H84313   5.927   6.178   0.643  1.5964 -3.9411 -0.0315
  611MOL0     H84314   6.219   5.888   0.754 -2.1538 -1.9763 -1.9942
  611MOL0     H84315   6.384   6.356   0.728 -2.2082  0.3646 -1.2787
  611MOL0     H84316   6.732   6.349   0.693  1.0120 -1.8479 -2.2394
  611MOL0     H84317   6.590   6.266   0.742  0.5593 -1.3579 -0.0656
  611MOL0     H84318   6.656   6.244   0.574 -0.3357  2.7796 -2.3505
  612MOL0     O84319   6.322   7.694   6.691  0.1135 -0.3570  0.3363
  612MOL0     C84320   6.197   7.693   6.713  0.2067  0.4847 -0.0808
  612MOL0     O84321   6.121   7.582   6.754  0.1505 -0.1399 -0.6554
  612MOL0     C84322   6.182   7.468   6.789 -0.0417 -0.0657 -0.3121
  612MOL0     C84323   6.253   7.461   6.907 -0.9179  0.3986  0.8702
  612MOL0     C84324   6.291   7.336   6.966  0.2334  0.2958 -0.1812
  612MOL0     C84325   6.269   7.219   6.891 -0.6819 -0.0485 -0.4315
  612MOL0     O84326   6.312   7.088   6.929  0.2287 -0.0043 -0.2328
  612MOL0     C84327   6.370   7.069   7.061 -0.2261  0.0012 -0.1626
  612MOL0     C84328   6.270   7.097   7.171 -0.4928  0.0591 -1.3243
  612MOL0     C84329   6.129   7.070   7.149 -0.3888 -0.1203  0.9143
  612MOL0     C84330   6.095   6.920   7.125  0.2844 -0.5414 -0.7178
  612MOL0     C84331   5.944   6.897   7.118  0.2579 -0.5153  0.1331
  612MOL0     C84332   5.884   6.807   7.002  0.4112 -0.9398  0.1498
  612MOL0     C84333   5.958   6.678   6.965  0.1837  0.6289 -0.3830
  612MOL0     C84334   5.997   6.576   7.075 -0.5955  0.0640 -0.3936
  612MOL0     N84335   6.023   6.441   7.018 -0.4306 -0.1996  0.0083
  612MOL0     C84336   6.090   6.430   6.898  0.7372  0.4599 -0.2730
  612MOL0     C84337   6.072   6.304   6.862 -0.4573  0.3664  0.3154
  612MOL0     C84338   6.121   6.239   6.733  0.1160  0.8512 -0.4618
  612MOL0     C84339   6.231   6.137   6.763  0.4188  0.1932 -0.5733
  612MOL0     C84340   6.306   6.074   6.639  0.4672  0.0469  0.6565
  612MOL0     C84341   6.372   6.185   6.554 -0.7046 -1.3908  0.2623
  612MOL0     O84342   6.431   6.281   6.632  0.3478  0.6773  0.2409
  612MOL0     C84343   6.562   6.303   6.616  0.1389 -0.4309 -0.5942
  612MOL0     C84344   6.609   6.349   6.496  0.0347 -0.0704  0.2316
  612MOL0     C84345   6.745   6.380   6.478  0.5650  0.0310  1.1190
  612MOL0     C84346   6.789   6.416   6.343 -0.3313  0.3552 -0.2432
  612MOL0     C84347   6.829   6.393   6.593  0.8170  0.1706 -0.6952
  612MOL0     C84348   6.974   6.422   6.591  0.0720 -0.3292 -0.9209
  612MOL0     O84349   7.018   6.454   6.720 -0.1591 -1.2082  0.0898
  612MOL0     C84350   7.146   6.505   6.745  0.0343  0.3267  0.4856
  612MOL0     C84351   7.197   6.617   6.669 -0.6304  1.0150 -0.4329
  612MOL0     C84352   7.312   6.688   6.696  0.2210 -0.2689 -0.1606
  612MOL0     C84353   7.385   6.638   6.804  0.0702 -0.7273 -0.4829
  612MOL0     O84354   7.490   6.707   6.868 -0.4134 -0.2674  0.1440
  612MOL0     C84355   7.542   6.811   6.784 -0.1480 -1.4783 -0.8814
  612MOL0     C84356   7.659   6.902   6.844  0.3305 -0.0346  0.3625
  612MOL0     C84357   7.801   6.839   6.819  0.1563  0.2815 -0.1249
  612MOL0     C84358   7.914   6.936   6.787 -0.0314 -0.1221 -0.0420
  612MOL0     C84359   7.979   6.997   6.920  0.1130  0.0399  0.1606
  612MOL0     C84360   8.104   7.090   6.890  0.1627  0.0950  0.1424
  612MOL0     C84361   8.212   7.009   6.809  1.3283  0.1014 -0.1806
  612MOL0     C84362   8.338   7.095   6.799 -0.3350 -0.3079 -0.5486
  612MOL0    Cl84363   8.320   7.194   6.648 -0.4562 -0.2719 -0.1913
  612MOL0     C84364   7.336   6.525   6.879  0.4288  0.6162 -0.0580
  612MOL0     C84365   7.216   6.468   6.863 -0.3186 -1.1224  0.9002
  612MOL0     O84366   7.039   6.416   6.489 -0.6377  0.1841  0.4359
  612MOL0     C84367   6.776   6.336   6.710  0.4080 -0.6672  0.5323
  612MOL0     C84368   6.648   6.289   6.728  0.2161 -0.7030 -0.5727
  612MOL0     N84369   5.972   6.245   6.944  0.2208  0.3148  0.1728
  612MOL0     N84370   5.945   6.334   7.035  0.4838 -0.0090 -0.7728
  612MOL0     C84371   6.204   7.225   6.763 -0.5088 -0.8083  0.2586
  612MOL0     C84372   6.148   7.349   6.720  0.0897  0.1150  0.2134
  612MOL0     C84373   6.111   7.816   6.692  0.9102 -0.4007 -0.2486
  612MOL0     C84374   5.985   7.802   6.629  1.4301 -0.5607 -0.2137
  612MOL0     C84375   5.894   7.911   6.616 -0.6427 -0.7094 -0.9697
  612MOL0     C84376   5.934   8.038   6.659 -0.9115  0.2775 -0.5680
  612MOL0     O84377   5.841   8.139   6.635  0.1790 -0.8232  0.4024
  612MOL0     C84378   5.882   8.274   6.630  1.6912  0.0133 -0.7395
  612MOL0     C84379   5.788   8.372   6.560  0.2654  0.3547  0.1043
  612MOL0     C84380   5.643   8.320   6.534 -0.4922 -0.2222  0.2302
  612MOL0     C84381   5.566   8.431   6.476 -0.0162 -0.1977  0.8624
  612MOL0     C84382   5.433   8.391   6.431  0.9150  0.1405  1.2230
  612MOL0     C84383   5.321   8.363   6.403  0.0201 -0.5493  0.1966
  612MOL0     C84384   6.062   8.060   6.717 -1.0132  0.3464 -0.5332
  612MOL0     C84385   6.154   7.954   6.731 -0.1550  0.2344 -0.0323
  612MOL0     C84386   6.289   7.999   6.780 -0.5368  0.7424 -0.0403
  612MOL0     H84387   6.278   7.552   6.961 -1.1155  1.2119 -0.3524
  612MOL0     H84388   6.349   7.331   7.058  0.1144 -0.1260 -0.1264
  612MOL0     H84389   6.468   7.116   7.079 -0.8095  0.5205  2.0532
  612MOL0     H84390   6.388   6.962   7.076  2.2083  0.5628  1.6443
  612MOL0     H84391   6.289   7.036   7.260 -5.9612 -0.7833 -0.4018
  612MOL0     H84392   6.287   7.199   7.206  0.4096 -0.5046 -0.0478
  612MOL0     H84393   6.073   7.117   7.231 -2.8215 -0.5496 -0.3994
  612MOL0     H84394   6.086   7.129   7.067 -2.3377 -1.6441  0.7711
  612MOL0     H84395   6.157   6.889   7.040  1.9386  1.9178 -0.5229
  612MOL0     H84396   6.131   6.876   7.218 -0.4741  0.7686  0.2251
  612MOL0     H84397   5.890   6.992   7.108 -0.9526 -1.4580 -5.6883
  612MOL0     H84398   5.922   6.842   7.210  0.0078 -4.3197 -2.0011
  612MOL0     H84399   5.784   6.794   7.045  0.7410  1.8270  2.0537
  612MOL0     H84400   5.875   6.873   6.915  0.4142  0.1163  0.9303
  612MOL0     H84401   6.047   6.701   6.907 -0.7312 -0.8969 -2.5220
  612MOL0     H84402   5.893   6.626   6.894  0.4122 -0.0494 -0.1125
  612MOL0     H84403   6.089   6.601   7.129  0.0011  1.3697 -1.9554
  612MOL0     H84404   5.913   6.579   7.144  0.3275  1.1706  0.7249
  612MOL0     H84405   6.159   6.498   6.848  0.5779 -1.2041 -2.9499
  612MOL0     H84406   6.149   6.305   6.650 -1.0402 -2.5005 -3.8181
  612MOL0     H84407   6.033   6.182   6.701  0.7823 -0.3320 -0.2101
  612MOL0     H84408   6.304   6.171   6.836  0.1665 -1.3996  0.4742
  612MOL0     H84409   6.181   6.053   6.812  1.9599  0.5928  1.8673
  612MOL0     H84410   6.384   6.009   6.680  1.2756  0.2274 -0.5653
  612MOL0     H84411   6.234   6.020   6.577  1.8141 -0.2543 -0.6990
  612MOL0     H84412   6.443   6.131   6.491  1.6992  0.8924  0.8346
  612MOL0     H84413   6.292   6.234   6.498  0.6315 -0.1428 -0.6317
  612MOL0     H84414   6.547   6.356   6.407  1.2252  2.8297 -0.4809
  612MOL0     H84415   6.712   6.432   6.268  2.2985 -0.7219 -3.4154
  612MOL0     H84416   6.863   6.347   6.302  0.2210  1.1494 -0.5925
  612MOL0     H84417   6.831   6.514   6.364 -2.9995  0.7267  5.0377
  612MOL0     H84418   7.144   6.656   6.583 -1.0577  1.6104  0.0903
  612MOL0     H84419   7.339   6.775   6.637 -0.5509  1.8104  2.3605
  612MOL0     H84420   7.566   6.784   6.681  1.1848  1.8730 -1.5713
  612MOL0     H84421   7.463   6.887   6.776  2.1769  1.4842  1.5063
  612MOL0     H84422   7.654   6.995   6.788 -0.3795  1.0293  2.1041
  612MOL0     H84423   7.629   6.934   6.944 -2.4349  1.5857 -0.8733
  612MOL0     H84424   7.793   6.785   6.724 -0.1156  0.6716 -0.3229
  612MOL0     H84425   7.830   6.761   6.890  0.4376 -1.4318 -1.9932
  612MOL0     H84426   7.886   7.018   6.720  3.6548  2.0515  0.8234
  612MOL0     H84427   7.991   6.886   6.727 -0.6949 -1.0192 -0.1604
  612MOL0     H84428   7.908   7.057   6.978  1.6977  1.2504  0.9096
  612MOL0     H84429   8.004   6.922   6.995 -0.9580 -1.2513 -0.7371
  612MOL0     H84430   8.141   7.125   6.986 -0.0072 -1.6583  0.8883
  612MOL0     H84431   8.076   7.175   6.827 -0.1994 -0.7459 -0.8785
  612MOL0     H84432   8.171   6.989   6.710 -1.0448  0.6195  0.6449
  612MOL0     H84433   8.222   6.911   6.859 -3.4574 -0.0683  0.9125
  612MOL0     H84434   8.427   7.031   6.807 -1.2559 -1.4336  1.2588
  612MOL0     H84435   8.341   7.167   6.881 -2.4871  0.7078 -1.2849
  612MOL0     H84436   7.387   6.498   6.971  1.1917 -0.2048 -0.7095
  612MOL0     H84437   7.178   6.396   6.934 -0.5505 -2.2797 -0.3475
  612MOL0     H84438   6.833   6.337   6.802  1.2972 -1.9864  0.0179
  612MOL0     H84439   6.608   6.257   6.823 -1.9994 -1.1987 -1.6010
  612MOL0     H84440   6.189   7.146   6.691  0.0710  0.0365 -0.8113
  612MOL0     H84441   6.083   7.344   6.633 -0.0333 -0.3888  0.3294
  612MOL0     H84442   5.957   7.700   6.605  0.6167 -0.3024 -0.4227
  612MOL0     H84443   5.793   7.883   6.587 -1.3600  2.1861 -1.6506
  612MOL0     H84444   5.903   8.306   6.732 -0.5487 -1.6673  0.3185
  612MOL0     H84445   5.979   8.282   6.578  1.1277  1.5819 -1.6356
  612MOL0     H84446   5.831   8.408   6.466  1.8717 -0.5527  0.4704
  612MOL0     H84447   5.780   8.462   6.621  1.4025 -0.1962  1.0904
  612MOL0     H84448   5.645   8.229   6.472 -0.8675 -2.0277  2.7454
  612MOL0     H84449   5.587   8.303   6.626 -1.7481  0.3823 -0.4048
  612MOL0     H84450   5.623   8.459   6.387 -0.7686  0.6181  0.6258
  612MOL0     H84451   5.550   8.516   6.543  0.7568 -0.9227  1.9911
  612MOL0     H84452   5.221   8.349   6.367  0.0762  1.8576 -1.0852
  612MOL0     H84453   6.090   8.163   6.735 -0.0390 -0.0911  0.5150
  612MOL0     H84454   6.371   7.944   6.733 -1.2513  0.6533 -1.2217
  612MOL0     H84455   6.295   8.108   6.786  1.2771  0.6007  2.9149
  612MOL0     H84456   6.297   7.975   6.886 -1.6890 -0.6961 -0.2457
  613MOL0     O84457   9.678   9.032   3.311  0.8478 -0.3524  0.6525
  613MOL0     C84458   9.562   9.015   3.346 -0.3989  0.1537 -0.1242
  613MOL0     O84459   9.476   8.920   3.305  0.0987 -0.2478 -0.3971
  613MOL0     C84460   9.504   8.797   3.255 -1.3842  0.3224  0.5263
  613MOL0     C84461   9.632   8.755   3.218  0.0564  1.1457  0.4098
  613MOL0     C84462   9.660   8.631   3.149  0.4843 -0.0796  0.6241
  613MOL0     C84463   9.541   8.552   3.118 -0.1269  0.2283  0.4754
  613MOL0     O84464   9.570   8.430   3.065  0.2988 -0.0414  0.2685
  613MOL0     C84465   9.490   8.389   2.955 -0.2586 -0.4720  0.2417
  613MOL0     C84466   9.479   8.480   2.836 -0.0438 -0.6177  0.5937
  613MOL0     C84467   9.334   8.489   2.774  0.3865 -0.2804 -0.4291
  613MOL0     C84468   9.289   8.352   2.715 -0.2858 -0.8736  0.3729
  613MOL0     C84469   9.169   8.376   2.625  0.0102 -0.3381  0.0553
  613MOL0     C84470   9.167   8.276   2.522  0.0171 -0.2153  0.4885
  613MOL0     C84471   9.032   8.281   2.457  0.2818  0.3533 -0.1069
  613MOL0     C84472   9.003   8.150   2.376 -1.0533  0.5262 -0.1408
  613MOL0     N84473   8.957   8.041   2.469  0.7910  0.3477  0.1656
  613MOL0     C84474   8.827   7.998   2.467 -0.1382  0.5268  0.3191
  613MOL0     C84475   8.818   7.887   2.545  1.1188  0.2095  0.2648
  613MOL0     C84476   8.699   7.806   2.578 -0.7460  0.9036  0.1531
  613MOL0     C84477   8.715   7.655   2.555 -0.0429  0.7655 -0.4915
  613MOL0     C84478   8.718   7.635   2.396 -1.0691  0.7207  0.3019
  613MOL0     C84479   8.709   7.485   2.355 -0.8670 -0.2737  0.9830
  613MOL0     O84480   8.701   7.471   2.210  0.5067 -0.0525 -0.2882
  613MOL0     C84481   8.818   7.454   2.135 -0.6601  0.5852  0.3549
  613MOL0     C84482   8.810   7.395   2.009  0.0789 -0.2941  1.0412
  613MOL0     C84483   8.917   7.360   1.937 -0.4920 -0.0931 -0.4891
  613MOL0     C84484   8.902   7.274   1.823  0.7313  0.6887  0.4254
  613MOL0     C84485   9.042   7.402   1.976 -0.6363  0.4921  0.6749
  613MOL0     C84486   9.158   7.399   1.883 -0.3991 -0.8423  0.4440
  613MOL0     O84487   9.165   7.487   1.786 -0.1495  0.2896 -0.1612
  613MOL0     C84488   9.274   7.492   1.705 -0.2645  0.6805  0.4432
  613MOL0     C84489   9.380   7.586   1.726 -0.8418 -0.1224 -0.4092
  613MOL0     C84490   9.503   7.568   1.657 -0.3444 -0.5823 -0.1776
  613MOL0     C84491   9.513   7.474   1.549 -0.1727 -0.2401 -0.4207
  613MOL0     O84492   9.632   7.469   1.481 -0.4437 -0.3476  0.2405
  613MOL0     C84493   9.640   7.412   1.348 -0.5240 -1.4159  0.5790
  613MOL0     C84494   9.777   7.445   1.286 -1.2085  0.0217 -0.0308
  613MOL0     C84495   9.893   7.384   1.370  0.0439  0.0552  0.5773
  613MOL0     C84496  10.025   7.405   1.298 -0.1994  0.2425  0.0588
  613MOL0     C84497  10.145   7.339   1.379 -0.8851 -0.5093  0.3710
  613MOL0     C84498  10.213   7.412   1.489 -0.0614 -0.1471 -0.8458
  613MOL0     C84499  10.308   7.343   1.593  0.3782 -0.1912  0.0575
  613MOL0     C84500  10.238   7.270   1.706 -0.5934 -1.0361  0.8348
  613MOL0    Cl84501  10.148   7.392   1.815 -0.1146  0.2064 -0.5269
  613MOL0     C84502   9.407   7.399   1.519 -0.8906 -0.4523 -0.4455
  613MOL0     C84503   9.286   7.405   1.595  0.4877 -0.3071  0.0817
  613MOL0     O84504   9.249   7.329   1.919  0.7648 -0.5450 -0.8058
  613MOL0     C84505   9.053   7.474   2.097  0.3279 -0.5920 -0.6698
  613MOL0     C84506   8.941   7.489   2.177 -0.0946 -0.1622  0.5029
  613MOL0     N84507   8.943   7.855   2.586 -0.6014  0.7044 -0.2008
  613MOL0     N84508   9.022   7.943   2.542 -0.7093 -0.7265  0.2979
  613MOL0     C84509   9.410   8.596   3.151 -0.9214  0.0103 -0.1531
  613MOL0     C84510   9.394   8.710   3.230  0.6779 -0.0424  0.1995
  613MOL0     C84511   9.504   9.111   3.447 -0.4403  0.8424  0.9850
  613MOL0     C84512   9.364   9.120   3.457  0.5487  0.7764 -0.0318
  613MOL0     C84513   9.301   9.214   3.527  0.3912  0.6565  0.1791
  613MOL0     C84514   9.374   9.312   3.592  0.4725  0.2629 -1.4344
  613MOL0     O84515   9.319   9.409   3.679 -1.1395  0.0663 -0.0635
  613MOL0     C84516   9.174   9.422   3.689  1.0315  0.1172 -1.2831
  613MOL0     C84517   9.124   9.466   3.833 -0.6779  0.2979  0.3502
  613MOL0     C84518   9.125   9.341   3.925 -0.7046 -0.1453 -0.7797
  613MOL0     C84519   9.129   9.389   4.070  0.3558  0.4898  0.1802
  613MOL0     C84520   9.139   9.277   4.170 -0.4050 -0.0622  1.0041
  613MOL0     C84521   9.166   9.185   4.236  0.0730 -0.0183 -0.2515
  613MOL0     C84522   9.515   9.298   3.594  0.2639 -0.1661 -0.7403
  613MOL0     C84523   9.576   9.197   3.525 -0.3827 -0.5615 -0.6593
  613MOL0     C84524   9.726   9.201   3.519  0.0474 -0.4583  0.2695
  613MOL0     H84525   9.723   8.813   3.233  0.3688  1.2103 -1.4655
  613MOL0     H84526   9.762   8.602   3.130  0.1767 -1.9037  1.5512
  613MOL0     H84527   9.392   8.370   3.000  1.4610 -3.8089  3.0818
  613MOL0     H84528   9.526   8.289   2.930 -0.3876 -0.4904  0.1232
  613MOL0     H84529   9.510   8.583   2.854  0.7129 -0.4843 -1.3388
  613MOL0     H84530   9.540   8.442   2.754 -0.0979 -0.5518  0.5231
  613MOL0     H84531   9.262   8.521   2.850  1.0245 -1.5333  0.7799
  613MOL0     H84532   9.341   8.564   2.696 -1.3746  1.0475  0.6305
  613MOL0     H84533   9.378   8.313   2.665  1.6678  1.6812  1.6099
  613MOL0     H84534   9.272   8.276   2.791  2.1756  0.2611  2.2240
  613MOL0     H84535   9.180   8.474   2.578  4.3199 -0.2714  0.7733
  613MOL0     H84536   9.073   8.377   2.677 -0.8505  3.2587 -1.2942
  613MOL0     H84537   9.244   8.299   2.447 -0.4527  2.7631  0.8000
  613MOL0     H84538   9.175   8.176   2.566  0.3304 -0.5024 -0.2155
  613MOL0     H84539   9.010   8.370   2.397 -0.6185  1.7147  2.1259
  613MOL0     H84540   8.952   8.283   2.532  0.1980 -1.5923 -0.0832
  613MOL0     H84541   8.923   8.178   2.308 -3.3797  1.5054  2.7475
  613MOL0     H84542   9.088   8.105   2.324 -1.7978  1.0880 -1.9087
  613MOL0     H84543   8.740   8.029   2.409 -0.5794 -0.5122  0.3918
  613MOL0     H84544   8.622   7.852   2.515 -1.0109  2.7219  1.7152
  613MOL0     H84545   8.687   7.827   2.684 -0.6339 -0.6423  0.4841
  613MOL0     H84546   8.795   7.608   2.612 -2.1216 -1.9005  0.4350
  613MOL0     H84547   8.623   7.608   2.591  2.2276 -0.1189  5.1264
  613MOL0     H84548   8.630   7.690   2.360 -2.0381  0.0033  1.5181
  613MOL0     H84549   8.816   7.670   2.361  0.6295 -1.4274  2.5699
  613MOL0     H84550   8.804   7.441   2.388  0.3861  1.3621 -0.2769
  613MOL0     H84551   8.621   7.437   2.399 -0.9561 -2.4716 -1.3635
  613MOL0     H84552   8.716   7.350   1.981 -0.6115  0.2353  2.4075
  613MOL0     H84553   8.971   7.190   1.830  0.8538  0.8641  1.5016
  613MOL0     H84554   8.926   7.335   1.735 -0.6402  0.2146 -0.3144
  613MOL0     H84555   8.801   7.241   1.797  1.4692 -1.4546  0.0903
  613MOL0     H84556   9.387   7.669   1.796 -1.0361 -0.1300 -0.3787
  613MOL0     H84557   9.582   7.637   1.681 -3.5198  2.5459  2.3903
  613MOL0     H84558   9.628   7.305   1.332 -2.5035 -1.2159  0.5056
  613MOL0     H84559   9.563   7.467   1.293  0.7197 -0.4444 -0.2570
  613MOL0     H84560   9.784   7.381   1.197 -0.8640 -1.7836  1.2329
  613MOL0     H84561   9.785   7.550   1.255 -0.7701  0.6466  2.0254
  613MOL0     H84562   9.889   7.275   1.377 -1.8599 -0.2860 -3.2417
  613MOL0     H84563   9.895   7.430   1.469  0.2520 -0.7128  0.9391
  613MOL0     H84564  10.049   7.511   1.287 -1.3507  1.0403  3.7901
  613MOL0     H84565  10.024   7.368   1.195 -1.1032  0.9893 -0.2160
  613MOL0     H84566  10.096   7.246   1.410 -1.5280 -0.1193  0.5630
  613MOL0     H84567  10.227   7.325   1.309 -1.3493  1.0431 -0.5430
  613MOL0     H84568  10.143   7.477   1.543  0.5783 -0.5541  0.4915
  613MOL0     H84569  10.268   7.497   1.447  0.0165  0.3014  0.1431
  613MOL0     H84570  10.350   7.429   1.647 -1.0893  1.0909 -0.7509
  613MOL0     H84571  10.387   7.283   1.546  0.3665 -2.3633  2.5878
  613MOL0     H84572  10.319   7.217   1.757  0.1633 -1.6470 -0.9288
  613MOL0     H84573  10.163   7.205   1.658 -0.1119 -0.9915 -0.0060
  613MOL0     H84574   9.424   7.335   1.433  1.0860 -1.5269  0.6921
  613MOL0     H84575   9.194   7.348   1.585  0.1343  0.0864  1.0141
  613MOL0     H84576   9.143   7.529   2.121 -0.3472  0.1391  0.3060
  613MOL0     H84577   8.963   7.562   2.254  0.8427  1.9092 -1.6227
  613MOL0     H84578   9.327   8.547   3.100  0.1584 -0.5009 -1.4816
  613MOL0     H84579   9.288   8.734   3.238 -0.0655 -2.2881 -1.7838
  613MOL0     H84580   9.294   9.056   3.402 -0.5365  2.3656 -0.5668
  613MOL0     H84581   9.194   9.212   3.510  0.1197  0.7930  1.7154
  613MOL0     H84582   9.139   9.478   3.602 -1.5754 -2.8615 -2.3474
  613MOL0     H84583   9.129   9.323   3.676 -2.0659  0.9889  1.4291
  613MOL0     H84584   9.027   9.516   3.829 -1.4200 -1.1454 -0.5299
  613MOL0     H84585   9.196   9.545   3.858 -0.2558 -0.3056  1.0827
  613MOL0     H84586   9.035   9.284   3.900 -0.2264 -0.3619 -2.0919
  613MOL0     H84587   9.214   9.279   3.916 -0.9295 -0.8248  1.1196
  613MOL0     H84588   9.045   9.455   4.095  2.6980  3.4349  0.8624
  613MOL0     H84589   9.208   9.464   4.075  0.9997 -0.2064  0.6940
  613MOL0     H84590   9.200   9.097   4.287 -0.2223  0.6220  1.0722
  613MOL0     H84591   9.571   9.379   3.638  1.7151 -0.5541 -1.7922
  613MOL0     H84592   9.768   9.261   3.437 -1.3569  0.7230  0.3743
  613MOL0     H84593   9.766   9.250   3.608  1.8514 -1.6855  0.1857
  613MOL0     H84594   9.777   9.105   3.530  1.4241  0.1744 -0.2427
  614MOL0     O84595   5.752   0.650   9.633  0.2502 -0.8714  1.1163
  614MOL0     C84596   5.636   0.640   9.629 -0.8300 -0.5231  0.5371
  614MOL0     O84597   5.554   0.562   9.712 -0.3436 -1.0504 -0.8809
  614MOL0     C84598   5.615   0.500   9.815 -0.9030 -0.5514 -0.3932
  614MOL0     C84599   5.678   0.571   9.925  0.3468 -0.4531 -0.5039
  614MOL0     C84600   5.715   0.500  10.032  0.2308  1.2775  0.3490
  614MOL0     C84601   5.701   0.359  10.050 -0.5126  0.1322  0.8312
  614MOL0     O84602   5.745   0.280  10.155  0.0279 -0.3429  0.3953
  614MOL0     C84603   5.814   0.340  10.264  0.1932 -0.3716 -0.0969
  614MOL0     C84604   5.955   0.389  10.233  0.1635 -0.7226 -0.0663
  614MOL0     C84605   6.030   0.423  10.365 -0.4439  0.1480 -0.4479
  614MOL0     C84606   5.976   0.564  10.422 -0.3309  0.0402  1.0531
  614MOL0     C84607   6.067   0.627  10.526  0.7936 -0.6120  0.6225
  614MOL0     C84608   6.080   0.553  10.663 -0.0586  0.0171 -0.4641
  614MOL0     C84609   5.953   0.526  10.748 -0.8143  0.2097 -0.3414
  614MOL0     C84610   5.885   0.647  10.803 -0.0712 -1.3619 -0.7828
  614MOL0     N84611   5.979   0.741  10.870 -0.4663  0.2067 -0.2858
  614MOL0     C84612   6.030   0.861  10.820 -0.5383 -0.0354 -0.6253
  614MOL0     C84613   6.135   0.894  10.903  0.5094  1.2239  0.2876
  614MOL0     C84614   6.236   1.000  10.877 -0.6305 -0.2202  0.3793
  614MOL0     C84615   6.207   1.122  10.953 -0.8236 -0.4027 -0.4128
  614MOL0     C84616   6.166   1.242  10.872 -0.7649 -0.0823  0.2507
  614MOL0     C84617   6.106   1.356  10.958 -0.3189  0.5761  0.2891
  614MOL0     O84618   6.165   1.376  11.085 -0.3495  0.4112  0.5516
  614MOL0     C84619   6.118   1.474  11.161 -0.0953  0.3720  0.4892
  614MOL0     C84620   6.024   1.567  11.116 -0.4865  1.0592 -0.0644
  614MOL0     C84621   5.987   1.675  11.202  0.0101 -0.1441 -0.0006
  614MOL0     C84622   5.879   1.762  11.144 -0.0010  0.1927  0.1533
  614MOL0     C84623   6.044   1.691  11.330 -0.4796 -0.4640 -0.2509
  614MOL0     C84624   6.033   1.818  11.410 -0.5541 -0.3333 -0.7045
  614MOL0     O84625   6.079   1.820  11.536 -0.2494 -0.2584  0.1999
  614MOL0     C84626   6.027   1.924  11.606  0.6673 -0.2453 -0.2976
  614MOL0     C84627   5.929   1.886  11.700 -0.3979 -0.3788  0.9633
  614MOL0     C84628   5.864   1.979  11.770  0.0271  0.3205  0.0905
  614MOL0     C84629   5.886   2.112  11.751 -0.4123 -0.0599  0.7273
  614MOL0     O84630   5.802   2.188  11.829 -0.0947  0.2341 -0.5397
  614MOL0     C84631   5.776   2.319  11.790 -0.9833  0.0446 -0.5884
  614MOL0     C84632   5.632   2.347  11.841 -0.4500 -0.0863 -0.5796
  614MOL0     C84633   5.573   2.474  11.787 -0.0791 -0.0847  1.3204
  614MOL0     C84634   5.541   2.465  11.638 -0.0594 -1.2196 -0.5174
  614MOL0     C84635   5.473   2.600  11.601 -0.2153  0.2635 -0.0426
  614MOL0     C84636   5.440   2.601  11.457  0.6334 -0.3937  0.6588
  614MOL0     C84637   5.376   2.739  11.422  0.1671  0.3055 -0.1636
  614MOL0     C84638   5.283   2.731  11.297  0.4453  0.2104 -0.4347
  614MOL0    Cl84639   5.356   2.645  11.163 -0.1800  0.4008  0.2202
  614MOL0     C84640   5.976   2.158  11.650 -0.4078 -0.2100 -0.3509
  614MOL0     C84641   6.050   2.059  11.582 -0.4397 -0.5352  0.6438
  614MOL0     O84642   5.991   1.917  11.347 -0.7749  0.1250 -0.3237
  614MOL0     C84643   6.137   1.604  11.362  0.6429 -0.3117  0.4372
  614MOL0     C84644   6.182   1.502  11.284 -0.4103  0.7119  0.3634
  614MOL0     N84645   6.136   0.803  11.007 -0.8686 -0.3490 -0.1829
  614MOL0     N84646   6.039   0.721  10.992  0.1602 -0.3383 -0.1635
  614MOL0     C84647   5.641   0.292   9.936  0.0915 -0.2021 -0.7015
  614MOL0     C84648   5.593   0.358   9.827 -0.0321  0.0038 -0.3874
  614MOL0     C84649   5.561   0.720   9.527  0.3297  0.8231 -0.3975
  614MOL0     C84650   5.430   0.763   9.556  0.2609 -0.6366 -0.5590
  614MOL0     C84651   5.372   0.875   9.490  0.0867  0.4888 -0.2278
  614MOL0     C84652   5.438   0.918   9.378  0.4471 -0.2476 -0.2605
  614MOL0     O84653   5.408   1.030   9.314  0.0399 -0.9152  0.1094
  614MOL0     C84654   5.268   1.055   9.274  0.0409 -0.8468  0.0236
  614MOL0     C84655   5.224   0.968   9.162  0.0149 -0.3856  0.7251
  614MOL0     C84656   5.318   0.990   9.045 -0.3000  0.4196  0.1911
  614MOL0     C84657   5.300   0.872   8.933 -0.0790 -0.2448 -0.1194
  614MOL0     C84658   5.342   0.903   8.798  0.6197  0.9257 -0.7722
  614MOL0     C84659   5.398   0.950   8.703 -0.1152 -0.8286  0.0931
  614MOL0     C84660   5.554   0.861   9.330  0.6719  0.3876  0.5006
  614MOL0     C84661   5.618   0.762   9.409  1.0479  0.2938 -0.1166
  614MOL0     C84662   5.751   0.712   9.352 -0.8582  0.9717  0.0402
  614MOL0     H84663   5.675   0.679   9.914 -2.3168 -0.4646 -0.4879
  614MOL0     H84664   5.752   0.556  10.117  2.9103 -0.7767  0.7039
  614MOL0     H84665   5.808   0.260  10.338 -1.7079  1.0011  1.3417
  614MOL0     H84666   5.740   0.416  10.292  0.4087 -0.3627  0.4593
  614MOL0     H84667   5.999   0.296  10.197  0.7951 -0.9529  1.2527
  614MOL0     H84668   5.967   0.460  10.150  0.5745 -2.6657 -1.7378
  614MOL0     H84669   6.016   0.347  10.442  1.8260  0.7184  0.6209
  614MOL0     H84670   6.139   0.423  10.351 -0.1402  0.3408  1.5982
  614MOL0     H84671   5.955   0.625  10.334 -1.6308 -1.1455  0.5018
  614MOL0     H84672   5.879   0.548  10.472 -0.0285 -0.6812  1.4231
  614MOL0     H84673   6.024   0.725  10.546  0.8620 -0.7647  1.5392
  614MOL0     H84674   6.170   0.651  10.496  1.6673 -0.6154  3.3986
  614MOL0     H84675   6.127   0.455  10.648 -0.1659 -0.0883 -0.1295
  614MOL0     H84676   6.154   0.611  10.720  2.2449 -0.9889 -2.2400
  614MOL0     H84677   5.985   0.461  10.831 -0.5229  1.8973  0.9405
  614MOL0     H84678   5.882   0.461  10.697 -0.8623 -0.4996  0.5930
  614MOL0     H84679   5.830   0.692  10.719 -0.4288 -2.4082 -1.1242
  614MOL0     H84680   5.816   0.621  10.884  0.8390 -0.5461  0.2849
  614MOL0     H84681   6.004   0.908  10.726  0.4046  1.7373 -0.0500
  614MOL0     H84682   6.245   1.024  10.771  1.7210  1.8647  0.9544
  614MOL0     H84683   6.336   0.961  10.896 -1.1814 -0.8993  2.0602
  614MOL0     H84684   6.142   1.091  11.036 -0.2020 -1.2199 -0.2180
  614MOL0     H84685   6.308   1.146  10.987 -1.3386 -0.2839  1.1107
  614MOL0     H84686   6.253   1.276  10.815  0.5049 -1.4541  1.3067
  614MOL0     H84687   6.093   1.207  10.798 -1.8563  0.7119  0.9165
  614MOL0     H84688   6.119   1.443  10.893 -2.8664  0.7673 -0.0586
  614MOL0     H84689   5.997   1.345  10.966 -0.3090  1.3114  2.1799
  614MOL0     H84690   5.986   1.574  11.014 -1.8551  1.7001  0.4656
  614MOL0     H84691   5.925   1.853  11.103 -0.9271 -0.5485 -2.8140
  614MOL0     H84692   5.794   1.787  11.209  0.4613 -1.9299  1.6539
  614MOL0     H84693   5.842   1.712  11.054  0.9728  1.0918 -0.7807
  614MOL0     H84694   5.919   1.778  11.705  2.3418 -1.1379 -3.8239
  614MOL0     H84695   5.797   1.941  11.846  1.3480 -1.6033  0.3833
  614MOL0     H84696   5.842   2.392  11.839  0.1356 -2.1222  1.3139
  614MOL0     H84697   5.781   2.328  11.681  4.0380 -3.0993 -0.9400
  614MOL0     H84698   5.563   2.266  11.817  1.2503 -2.0161  0.7048
  614MOL0     H84699   5.637   2.361  11.949  0.0319  2.1942 -0.8490
  614MOL0     H84700   5.632   2.557  11.826  0.2407  0.0296  0.6077
  614MOL0     H84701   5.474   2.487  11.832 -0.5332 -0.1002  0.3635
  614MOL0     H84702   5.469   2.383  11.630 -1.4625 -0.0527 -0.2664
  614MOL0     H84703   5.633   2.449  11.581  0.0455  1.4905 -1.2646
  614MOL0     H84704   5.377   2.614  11.652 -1.1008  0.2466 -1.6392
  614MOL0     H84705   5.542   2.678  11.633 -2.6012  2.0493  1.0257
  614MOL0     H84706   5.382   2.510  11.443 -2.1825  1.2128  1.0829
  614MOL0     H84707   5.532   2.596  11.399 -0.2647  1.1429 -1.0256
  614MOL0     H84708   5.458   2.809  11.402 -0.5520  1.3379  0.4228
  614MOL0     H84709   5.320   2.793  11.499 -1.5087 -1.6196  0.0379
  614MOL0     H84710   5.249   2.831  11.268  1.1553  0.8028  0.6783
  614MOL0     H84711   5.185   2.691  11.324  0.1386  1.4947  0.5066
  614MOL0     H84712   5.988   2.262  11.625 -0.9913 -0.0277  0.1039
  614MOL0     H84713   6.127   2.088  11.511 -2.6668 -1.7067 -2.4330
  614MOL0     H84714   6.184   1.603  11.460  1.6109  0.4041 -0.0084
  614MOL0     H84715   6.267   1.445  11.317  0.3671  0.8124 -1.3263
  614MOL0     H84716   5.614   0.187   9.948  0.4126 -0.2592 -0.4706
  614MOL0     H84717   5.552   0.303   9.743  2.8783 -2.7411 -0.2041
  614MOL0     H84718   5.397   0.731   9.654  2.8214  1.0601  0.9737
  614MOL0     H84719   5.295   0.942   9.525 -0.3882 -0.3589  0.3867
  614MOL0     H84720   5.199   1.054   9.359 -0.7032  1.4969 -0.4953
  614MOL0     H84721   5.256   1.158   9.240 -0.4736 -1.1274 -0.6824
  614MOL0     H84722   5.121   0.987   9.130  0.6920  1.2108 -0.6214
  614MOL0     H84723   5.231   0.864   9.197  2.4454 -0.0752  1.3240
  614MOL0     H84724   5.294   1.090   9.009  0.6266  1.5799  2.5741
  614MOL0     H84725   5.423   1.001   9.073 -0.7876 -0.8025  2.8261
  614MOL0     H84726   5.195   0.844   8.942  0.4197 -1.6967  1.7936
  614MOL0     H84727   5.340   0.775   8.965 -1.3522 -0.2396  1.6418
  614MOL0     H84728   5.432   1.000   8.614 -1.7971 -1.8973 -1.2130
  614MOL0     H84729   5.611   0.908   9.250  0.6975 -0.6022 -0.0801
  614MOL0     H84730   5.766   0.748   9.249  1.4655 -0.6737 -0.2719
  614MOL0     H84731   5.833   0.735   9.420  0.7125 -2.3572 -0.5190
  614MOL0     H84732   5.755   0.603   9.354 -1.9188  0.8802 -1.3926
  615MOL0     O84733   6.074   3.561   3.901  0.7553 -0.0136  1.4700
  615MOL0     C84734   6.146   3.590   3.802  0.2781 -0.0636 -0.2284
  615MOL0     O84735   6.166   3.722   3.758  0.4514  0.5810  0.5526
  615MOL0     C84736   6.103   3.829   3.808  0.8652  0.6504  0.1062
  615MOL0     C84737   6.123   3.885   3.929 -0.7424  1.0637  0.0137
  615MOL0     C84738   6.061   4.008   3.971  0.0830 -0.1881  0.6296
  615MOL0     C84739   5.973   4.077   3.885 -0.9105  0.2063  0.9400
  615MOL0     O84740   5.918   4.201   3.908 -0.4143  0.0560 -0.2318
  615MOL0     C84741   5.964   4.269   4.023 -0.2478  0.1437 -0.0922
  615MOL0     C84742   5.872   4.381   4.029  0.2783  0.7395 -0.2492
  615MOL0     C84743   5.868   4.478   3.907 -0.0012 -0.0632  0.9805
  615MOL0     C84744   5.778   4.587   3.943 -0.3023 -0.3156 -0.1883
  615MOL0     C84745   5.760   4.696   3.836  0.8426 -0.2484 -0.0735
  615MOL0     C84746   5.718   4.639   3.698  0.8817 -0.0267 -0.7239
  615MOL0     C84747   5.655   4.756   3.615 -0.4535 -0.0300 -0.2256
  615MOL0     C84748   5.538   4.719   3.526  0.0205  0.0356  0.2618
  615MOL0     N84749   5.491   4.824   3.436 -0.8799  0.0594  0.2741
  615MOL0     C84750   5.510   4.817   3.295  0.3047 -0.1373 -0.9679
  615MOL0     C84751   5.417   4.898   3.245 -1.0966 -0.2318  0.7131
  615MOL0     C84752   5.387   4.900   3.098 -1.1827  0.2864 -0.8868
  615MOL0     C84753   5.315   4.782   3.038 -0.2157 -0.9539 -0.2694
  615MOL0     C84754   5.404   4.656   3.004  0.0564 -0.5231  0.7000
  615MOL0     C84755   5.529   4.659   2.915 -0.5356  0.6443  0.0279
  615MOL0     O84756   5.609   4.546   2.944  0.6497  0.2037  0.1527
  615MOL0     C84757   5.744   4.545   2.946  0.5573  0.1858 -0.4600
  615MOL0     C84758   5.832   4.626   2.873 -0.3866  0.3509  0.2783
  615MOL0     C84759   5.972   4.599   2.893  0.0528 -0.8981 -0.2445
  615MOL0     C84760   6.062   4.696   2.824 -0.0937  0.7191  0.1720
  615MOL0     C84761   6.014   4.495   2.972  0.1049  0.4830 -0.8982
  615MOL0     C84762   6.168   4.463   3.000  0.1943 -0.4241  0.6967
  615MOL0     O84763   6.225   4.352   2.943 -0.4859  0.2586  0.0473
  615MOL0     C84764   6.136   4.256   2.887 -0.9163  0.8034 -0.2284
  615MOL0     C84765   6.066   4.274   2.767  1.0135  0.1891 -0.0885
  615MOL0     C84766   6.005   4.167   2.699  0.0098  0.2361 -0.0077
  615MOL0     C84767   6.011   4.037   2.756 -0.3604  0.3390 -0.1390
  615MOL0     O84768   5.953   3.936   2.679 -0.0356 -0.3022 -0.0013
  615MOL0     C84769   5.983   3.797   2.716 -0.0628  0.4103 -1.3860
  615MOL0     C84770   5.900   3.712   2.632 -0.0937  1.0930 -0.5541
  615MOL0     C84771   5.930   3.564   2.637  0.2617  0.6315  0.2799
  615MOL0     C84772   5.831   3.474   2.551 -0.2571 -0.2390 -1.1065
  615MOL0     C84773   5.839   3.484   2.399  0.0118  0.5204 -0.1191
  615MOL0     C84774   5.737   3.398   2.334 -0.1912  0.0296  0.1626
  615MOL0     C84775   5.592   3.431   2.331 -0.3598  0.6738 -0.0794
  615MOL0     C84776   5.506   3.333   2.250  0.1756 -0.5913  0.3286
  615MOL0    Cl84777   5.523   3.163   2.297  0.1517 -0.1124  0.1007
  615MOL0     C84778   6.076   4.028   2.884  0.2941 -0.6419 -1.3949
  615MOL0     C84779   6.141   4.132   2.947  0.5954  0.4228 -0.3426
  615MOL0     O84780   6.225   4.552   3.057 -0.0809  0.7528  0.1912
  615MOL0     C84781   5.919   4.418   3.042 -1.2292 -0.3394 -0.3608
  615MOL0     C84782   5.786   4.446   3.032  0.2852  0.2027 -0.8204
  615MOL0     N84783   5.345   4.958   3.351 -0.2733 -0.6372  0.9534
  615MOL0     N84784   5.398   4.916   3.461  0.0360 -0.3026 -1.1169
  615MOL0     C84785   5.941   4.009   3.761  0.3358 -0.0700 -0.1586
  615MOL0     C84786   6.005   3.887   3.729 -0.7222  0.2313  0.7293
  615MOL0     C84787   6.232   3.487   3.742 -0.1664 -0.2094 -0.1781
  615MOL0     C84788   6.366   3.490   3.752 -1.0530  0.8771  0.1933
  615MOL0     C84789   6.447   3.384   3.707 -0.0035  1.2679  0.8022
  615MOL0     C84790   6.385   3.261   3.655 -0.5206 -0.6130 -0.0818
  615MOL0     O84791   6.458   3.152   3.625 -0.1428 -0.4859  0.6764
  615MOL0     C84792   6.580   3.164   3.541 -1.2545 -0.4117  0.4044
  615MOL0     C84793   6.551   3.200   3.392  0.0445 -0.2120 -0.4731
  615MOL0     C84794   6.499   3.082   3.305 -0.5591  0.6039  0.6144
  615MOL0     C84795   6.471   3.124   3.168  0.3771 -0.6054  0.2338
  615MOL0     C84796   6.384   3.028   3.104  0.0594  0.4057  0.9828
  615MOL0     C84797   6.307   2.958   3.047 -0.1703 -0.4577  0.0568
  615MOL0     C84798   6.252   3.258   3.638  0.8071 -0.1219 -0.0423
  615MOL0     C84799   6.172   3.363   3.686  0.3336  0.3366 -0.1516
  615MOL0     C84800   6.020   3.337   3.690 -0.0695  0.2348  0.8453
  615MOL0     H84801   6.196   3.827   3.984  0.7027  1.4682 -1.4053
  615MOL0     H84802   6.072   4.052   4.069  0.0233  0.2811  0.4281
  615MOL0     H84803   6.062   4.315   4.006 -0.7640  2.7406  2.8822
  615MOL0     H84804   5.943   4.207   4.111 -1.1257 -2.6342 -2.1217
  615MOL0     H84805   5.774   4.338   4.051  1.2790 -1.6356 -0.2467
  615MOL0     H84806   5.894   4.441   4.118 -3.5815 -0.3169  1.6379
  615MOL0     H84807   5.973   4.501   3.885  1.2859 -3.9553  2.2059
  615MOL0     H84808   5.820   4.426   3.824 -0.7603 -2.3007  2.7277
  615MOL0     H84809   5.679   4.542   3.956 -1.1365  1.3318 -0.5952
  615MOL0     H84810   5.819   4.637   4.031  0.0719 -2.7973  1.1387
  615MOL0     H84811   5.845   4.765   3.834  1.5112 -1.0329  0.4538
  615MOL0     H84812   5.675   4.752   3.874 -0.1864 -1.6532 -0.2421
  615MOL0     H84813   5.807   4.600   3.646  0.9892  0.8691 -1.2284
  615MOL0     H84814   5.641   4.566   3.724 -0.4244  1.9890  1.4144
  615MOL0     H84815   5.741   4.786   3.555 -1.0756 -0.7360 -1.5196
  615MOL0     H84816   5.619   4.838   3.677 -1.8327 -1.2637  0.6843
  615MOL0     H84817   5.569   4.632   3.468 -4.5364 -1.5127 -0.2628
  615MOL0     H84818   5.456   4.683   3.590 -1.7077  0.4643 -1.5996
  615MOL0     H84819   5.581   4.762   3.234  1.0221  1.2148 -1.4064
  615MOL0     H84820   5.476   4.937   3.045 -0.4857 -2.5112 -1.8626
  615MOL0     H84821   5.315   4.981   3.081 -1.8859 -0.0689  0.2738
  615MOL0     H84822   5.242   4.755   3.114 -0.2384  0.4305  0.2254
  615MOL0     H84823   5.258   4.826   2.955  1.2940  5.4584  1.5124
  615MOL0     H84824   5.437   4.636   3.106 -2.8051  4.2515  2.8899
  615MOL0     H84825   5.345   4.571   2.967  0.7549 -1.4751  1.7400
  615MOL0     H84826   5.496   4.647   2.811  0.3005 -2.3512  0.0188
  615MOL0     H84827   5.578   4.755   2.930 -0.1088  0.6482 -1.3071
  615MOL0     H84828   5.806   4.695   2.794  1.9902  0.4849 -0.4847
  615MOL0     H84829   6.033   4.723   2.721 -1.4949  0.5981  0.5080
  615MOL0     H84830   6.165   4.659   2.825 -0.8475 -2.1211 -3.2842
  615MOL0     H84831   6.059   4.787   2.884  2.7606  1.3023 -0.4528
  615MOL0     H84832   6.066   4.373   2.723  0.4455  0.3710  0.3094
  615MOL0     H84833   5.959   4.183   2.602 -1.8504  0.8830  0.9386
  615MOL0     H84834   6.091   3.784   2.699  1.0706  2.6348  2.7252
  615MOL0     H84835   5.959   3.788   2.822  4.3350 -0.5037 -0.2423
  615MOL0     H84836   5.799   3.734   2.668  0.4064  1.0543  0.9079
  615MOL0     H84837   5.901   3.746   2.528  4.5765  0.3752 -0.9443
  615MOL0     H84838   5.918   3.537   2.743 -2.7880 -1.3450 -0.4406
  615MOL0     H84839   6.031   3.544   2.598  0.9750  3.0690  0.7320
  615MOL0     H84840   5.730   3.505   2.581  1.0461  2.5485  0.8582
  615MOL0     H84841   5.834   3.370   2.583 -2.1699 -0.3599 -1.1647
  615MOL0     H84842   5.824   3.588   2.369 -1.0358  0.3093 -0.3663
  615MOL0     H84843   5.942   3.459   2.371  0.4838  0.6099  1.4492
  615MOL0     H84844   5.763   3.297   2.367  3.1709  0.5695 -0.5674
  615MOL0     H84845   5.772   3.403   2.231  0.2607  3.6694  0.3571
  615MOL0     H84846   5.567   3.534   2.301  0.3289  1.0916  0.7250
  615MOL0     H84847   5.549   3.432   2.432  3.3600  2.4503  1.6763
  615MOL0     H84848   5.536   3.349   2.146  2.0337 -3.5341  0.3183
  615MOL0     H84849   5.402   3.368   2.253  0.2316 -0.0303 -2.1544
  615MOL0     H84850   6.087   3.933   2.936  0.5683  0.7994  1.3094
  615MOL0     H84851   6.206   4.099   3.027 -0.2433 -2.9774 -0.9104
  615MOL0     H84852   5.942   4.339   3.113 -0.0742  1.5019  1.4276
  615MOL0     H84853   5.709   4.390   3.085  0.6199  0.6246  0.1381
  615MOL0     H84854   5.874   4.065   3.697 -0.8053 -0.6668  0.4843
  615MOL0     H84855   5.982   3.837   3.635  0.2906 -0.0753  0.6354
  615MOL0     H84856   6.416   3.568   3.808 -0.4222  1.1123 -0.6780
  615MOL0     H84857   6.555   3.383   3.719  0.3911  1.4525 -2.0754
  615MOL0     H84858   6.648   3.231   3.594 -0.0954 -1.2916  0.0659
  615MOL0     H84859   6.632   3.068   3.551  1.4375  1.0335  1.2066
  615MOL0     H84860   6.636   3.239   3.337 -0.5519  1.5689 -0.1930
  615MOL0     H84861   6.478   3.281   3.399  0.9167  0.5907 -0.5570
  615MOL0     H84862   6.571   3.000   3.296 -1.0118  0.2823 -0.1548
  615MOL0     H84863   6.413   3.041   3.357  0.1235 -0.1559  1.1758
  615MOL0     H84864   6.570   3.128   3.121  0.6024  4.5322  0.6383
  615MOL0     H84865   6.421   3.220   3.151 -0.4070 -0.9424  0.5629
  615MOL0     H84866   6.246   2.895   2.985 -0.4140 -0.6572  0.4901
  615MOL0     H84867   6.212   3.163   3.606  0.2704 -0.4960  1.6171
  615MOL0     H84868   5.992   3.305   3.791  1.1422  0.5923  1.3217
  615MOL0     H84869   5.983   3.440   3.681  0.8038  0.4260 -1.0204
  615MOL0     H84870   5.975   3.274   3.613 -1.8149  0.3636  1.7108
  616MOL0     O84871  10.291   2.481   4.632  0.3182  0.2992 -0.0574
  616MOL0     C84872  10.177   2.430   4.647  0.0837 -0.5809  0.6294
  616MOL0     O84873  10.058   2.499   4.625 -0.4398 -0.2964  0.3049
  616MOL0     C84874  10.076   2.628   4.577 -1.0703 -0.3512 -0.1519
  616MOL0     C84875  10.021   2.670   4.454  0.0138 -0.2460 -0.5459
  616MOL0     C84876  10.021   2.798   4.404  0.2080  1.3115 -0.9000
  616MOL0     C84877  10.080   2.894   4.482 -0.0793 -1.1081 -0.2944
  616MOL0     O84878  10.083   3.027   4.447 -0.7514 -0.3661 -0.5676
  616MOL0     C84879  10.057   3.061   4.307 -0.8430  1.2094 -0.1438
  616MOL0     C84880  10.151   3.172   4.265 -0.6827 -0.5458  0.9083
  616MOL0     C84881  10.121   3.302   4.337 -0.5342  0.2350 -0.5484
  616MOL0     C84882  10.203   3.314   4.467  0.4725  0.0265 -0.0521
  616MOL0     C84883  10.219   3.457   4.524 -0.1157 -0.5688  0.2556
  616MOL0     C84884  10.290   3.470   4.659  0.4675 -0.5301 -0.1442
  616MOL0     C84885  10.426   3.406   4.666 -0.0556  1.2073 -0.3775
  616MOL0     C84886  10.443   3.254   4.683  0.6833 -0.5948  0.4109
  616MOL0     N84887  10.394   3.208   4.818  0.1940  0.6755 -0.2914
  616MOL0     C84888  10.264   3.164   4.840  0.1450 -1.1114  0.2552
  616MOL0     C84889  10.267   3.106   4.959 -0.4547  0.6758  0.0659
  616MOL0     C84890  10.154   3.026   5.016 -0.9511  0.3107  0.1120
  616MOL0     C84891  10.164   3.029   5.166 -0.1827  0.2911 -0.1795
  616MOL0     C84892  10.160   3.171   5.231  0.4505 -0.0187  0.5312
  616MOL0     C84893  10.140   3.176   5.377  0.4437 -0.6313  0.6860
  616MOL0     O84894  10.003   3.136   5.408  0.1903 -0.2276 -0.0702
  616MOL0     C84895   9.959   3.155   5.539  0.2393 -0.8428 -0.7456
  616MOL0     C84896   9.836   3.110   5.589  0.0498  0.4110 -0.5698
  616MOL0     C84897   9.797   3.115   5.722  0.0044  0.2129 -0.1095
  616MOL0     C84898   9.677   3.024   5.745  0.1415  0.1584 -0.0419
  616MOL0     C84899   9.863   3.190   5.809 -0.5246 -0.0637 -0.1953
  616MOL0     C84900   9.837   3.198   5.954 -0.4959  0.3984 -0.7468
  616MOL0     O84901   9.944   3.232   6.034  0.4623  0.5653 -0.6137
  616MOL0     C84902   9.926   3.213   6.164  0.7814  0.2020  0.0520
  616MOL0     C84903  10.013   3.140   6.229 -0.2997 -0.2744  1.4404
  616MOL0     C84904  10.012   3.117   6.371 -0.3434  1.3162  1.0090
  616MOL0     C84905   9.906   3.171   6.445  0.1906  0.6295 -0.6770
  616MOL0     O84906   9.898   3.151   6.587 -0.8674  0.0931 -0.9798
  616MOL0     C84907   9.795   3.226   6.657 -0.0704 -0.4127  0.1804
  616MOL0     C84908   9.800   3.183   6.797 -0.7175  0.3498  0.6526
  616MOL0     C84909   9.699   3.265   6.888 -1.0803 -0.8277  0.1987
  616MOL0     C84910   9.552   3.269   6.852 -0.0491 -0.1334  0.1151
  616MOL0     C84911   9.474   3.360   6.942 -0.2692 -0.7306  1.4345
  616MOL0     C84912   9.485   3.336   7.086  0.1383  0.3278  0.4997
  616MOL0     C84913   9.455   3.186   7.123 -0.4011 -0.0979  0.2489
  616MOL0     C84914   9.446   3.183   7.274 -1.4254  0.1810 -0.3997
  616MOL0    Cl84915   9.333   3.304   7.364 -0.2889  0.5593  0.0161
  616MOL0     C84916   9.812   3.252   6.374 -0.1316  0.1256  0.4384
  616MOL0     C84917   9.822   3.272   6.237  0.1649  0.1975  0.2040
  616MOL0     O84918   9.721   3.170   5.998  0.4729 -0.4409  0.2338
  616MOL0     C84919   9.981   3.247   5.769 -0.6451  0.1145  1.0400
  616MOL0     C84920  10.031   3.233   5.636 -0.0214  0.0731  0.7397
  616MOL0     N84921  10.392   3.107   5.013 -0.4053 -0.1429  0.7825
  616MOL0     N84922  10.467   3.174   4.928  0.7624  0.1018 -0.0340
  616MOL0     C84923  10.145   2.860   4.602 -0.1998  0.0673 -0.5204
  616MOL0     C84924  10.135   2.732   4.657  0.5050  0.9502  0.5841
  616MOL0     C84925  10.177   2.279   4.670 -0.5221  0.0180 -0.7576
  616MOL0     C84926  10.079   2.201   4.616  0.2161 -0.4815  0.4605
  616MOL0     C84927  10.086   2.065   4.617 -0.9355 -0.5036 -0.0878
  616MOL0     C84928  10.166   1.993   4.701  0.3284  0.3215  0.9978
  616MOL0     O84929  10.180   1.854   4.710  0.5618 -0.5789  0.1171
  616MOL0     C84930  10.102   1.776   4.616  0.1405  0.2487  0.3704
  616MOL0     C84931   9.957   1.754   4.651 -0.5628  0.7712 -0.5087
  616MOL0     C84932   9.936   1.645   4.761  0.3802  0.6526 -0.5625
  616MOL0     C84933   9.785   1.631   4.798 -0.0531  0.3951  1.0588
  616MOL0     C84934   9.727   1.757   4.856 -0.0645  0.7181 -0.3002
  616MOL0     C84935   9.688   1.867   4.884  0.6680 -0.5807 -0.5078
  616MOL0     C84936  10.265   2.068   4.758  0.2169 -0.3067  0.2958
  616MOL0     C84937  10.277   2.210   4.746 -0.2652 -0.2660  0.1207
  616MOL0     C84938  10.383   2.288   4.806 -0.9436  0.0760 -0.3448
  616MOL0     H84939   9.973   2.597   4.390  1.3944 -0.4621 -1.3850
  616MOL0     H84940   9.992   2.815   4.301 -0.4696  0.4029 -0.8664
  616MOL0     H84941   9.958   3.106   4.306 -0.9104  1.2787  2.4425
  616MOL0     H84942  10.067   2.978   4.236  0.0988  1.0180  0.1867
  616MOL0     H84943  10.255   3.139   4.270 -1.0935 -2.0267  0.3648
  616MOL0     H84944  10.138   3.182   4.157 -1.8465 -2.5503  0.7975
  616MOL0     H84945  10.156   3.389   4.280 -2.0251 -0.2088 -2.2279
  616MOL0     H84946  10.016   3.323   4.360 -0.2910  0.4668  0.3817
  616MOL0     H84947  10.150   3.245   4.534 -0.4777  0.8437  0.0611
  616MOL0     H84948  10.302   3.272   4.448 -0.4080 -1.7617 -0.9083
  616MOL0     H84949  10.125   3.513   4.527  1.0921  1.5357  1.1184
  616MOL0     H84950  10.277   3.513   4.450  2.0736 -1.5038  1.1846
  616MOL0     H84951  10.307   3.577   4.673  2.0252 -0.6063 -1.1150
  616MOL0     H84952  10.228   3.433   4.741  0.5355 -0.7683 -0.1982
  616MOL0     H84953  10.496   3.444   4.741 -0.5117 -2.0085  1.8981
  616MOL0     H84954  10.473   3.429   4.570  1.0098  0.9374  0.0686
  616MOL0     H84955  10.392   3.199   4.603 -1.3269  0.9187  0.5822
  616MOL0     H84956  10.550   3.234   4.674  0.2266 -3.7545  0.6302
  616MOL0     H84957  10.186   3.181   4.766  2.4199 -2.2021 -2.5795
  616MOL0     H84958  10.153   2.920   4.989 -1.5924  0.0273  1.1697
  616MOL0     H84959  10.056   3.065   4.986 -0.2859  1.4991 -0.5934
  616MOL0     H84960  10.078   2.980   5.213  1.6961 -0.5789  2.5620
  616MOL0     H84961  10.256   2.972   5.180 -1.3424 -1.9037 -1.0735
  616MOL0     H84962  10.256   3.224   5.225 -0.1018  1.4506  3.3242
  616MOL0     H84963  10.086   3.232   5.178 -1.4561 -1.6537  1.1920
  616MOL0     H84964  10.215   3.115   5.427  0.3931 -1.0882  0.2075
  616MOL0     H84965  10.146   3.281   5.408  1.0441 -0.9850  1.8359
  616MOL0     H84966   9.785   3.050   5.514  0.4340 -0.8568  0.1539
  616MOL0     H84967   9.707   2.922   5.718 -0.7324 -0.0437 -0.2652
  616MOL0     H84968   9.602   3.057   5.673  1.0441 -0.2424 -1.1940
  616MOL0     H84969   9.641   3.026   5.849  0.4718  0.1559  0.0752
  616MOL0     H84970  10.101   3.124   6.168  0.5727  2.7024  1.7511
  616MOL0     H84971  10.098   3.075   6.422 -0.0755  0.5530 -0.0284
  616MOL0     H84972   9.807   3.335   6.654 -1.3975 -0.2515 -0.3730
  616MOL0     H84973   9.697   3.210   6.611 -0.8132  0.1675  1.5059
  616MOL0     H84974   9.789   3.074   6.803  1.5466 -0.1497 -1.9723
  616MOL0     H84975   9.896   3.210   6.841 -0.1541  0.0962 -0.3872
  616MOL0     H84976   9.737   3.368   6.889 -0.9284 -0.8846  1.2437
  616MOL0     H84977   9.719   3.232   6.991 -1.4023  0.8548  0.8310
  616MOL0     H84978   9.502   3.173   6.857 -1.2237  0.4791  0.5068
  616MOL0     H84979   9.545   3.311   6.752  0.8466 -1.0246 -0.3380
  616MOL0     H84980   9.503   3.464   6.922 -0.9012 -0.8042  0.0629
  616MOL0     H84981   9.366   3.358   6.920 -0.0590  1.4251 -0.1534
  616MOL0     H84982   9.404   3.390   7.135 -1.7930 -1.7852 -0.1826
  616MOL0     H84983   9.582   3.376   7.116  0.6107  0.8139 -1.5011
  616MOL0     H84984   9.544   3.125   7.106 -1.4046 -1.6654  0.4609
  616MOL0     H84985   9.363   3.151   7.075 -0.7569  2.3880 -1.0797
  616MOL0     H84986   9.541   3.218   7.315 -2.9569  3.2820  0.7642
  616MOL0     H84987   9.419   3.085   7.315  0.6252 -0.4143 -0.3657
  616MOL0     H84988   9.730   3.302   6.426 -1.2105  0.2095 -1.2655
  616MOL0     H84989   9.743   3.336   6.200  0.1475  0.0203 -0.0640
  616MOL0     H84990  10.048   3.304   5.832  3.8331 -2.2497 -1.0966
  616MOL0     H84991  10.125   3.283   5.618  0.5972 -0.5259  2.1580
  616MOL0     H84992  10.200   2.933   4.660 -1.1841  0.2860  0.1738
  616MOL0     H84993  10.171   2.708   4.757 -3.6463  0.3148  2.1214
  616MOL0     H84994  10.010   2.241   4.543 -0.8810 -1.8854  0.6785
  616MOL0     H84995  10.012   2.012   4.558  0.0811 -1.7986 -0.2325
  616MOL0     H84996  10.096   1.823   4.517 -0.3545 -1.1819 -0.3052
  616MOL0     H84997  10.151   1.680   4.599 -1.4037 -0.8275  1.6521
  616MOL0     H84998   9.923   1.726   4.551  2.5894  2.0959 -2.1027
  616MOL0     H84999   9.910   1.848   4.681 -1.4675  0.8702 -2.1269
  616MOL0     H85000   9.953   1.548   4.712 -0.0555  0.8764 -1.1635
  616MOL0     H85001  10.006   1.657   4.845  1.4258 -0.0782 -1.2965
  616MOL0     H85002   9.775   1.547   4.867 -2.6277  1.3493  1.9503
  616MOL0     H85003   9.728   1.614   4.707 -3.5801 -0.8867  3.2894
  616MOL0     H85004   9.630   1.952   4.915 -0.7587 -2.2926  1.8275
  616MOL0     H85005  10.338   2.015   4.818  1.3773 -0.3262 -1.0909
  616MOL0     H85006  10.421   2.222   4.885  0.5939  2.1203  0.7169
  616MOL0     H85007  10.458   2.300   4.727 -0.8863  0.8439 -0.1780
  616MOL0     H85008  10.351   2.373   4.867 -0.7406 -0.2210  0.1811
  617MOL0     O85009   9.715   8.326   4.543 -0.8876  0.7011 -0.3245
  617MOL0     C85010   9.789   8.238   4.499  0.6634  0.5169 -0.6200
  617MOL0     O85011   9.887   8.254   4.408 -0.0009 -0.4576 -0.3108
  617MOL0     C85012   9.884   8.368   4.329  1.1836  0.9393 -0.2716
  617MOL0     C85013   9.801   8.370   4.220  0.3160  0.2424 -0.5973
  617MOL0     C85014   9.802   8.490   4.147  0.0666  0.1794 -0.1583
  617MOL0     C85015   9.888   8.593   4.171 -0.4073  0.0140 -0.2062
  617MOL0     O85016   9.876   8.694   4.077 -0.3695  0.2574  0.3325
  617MOL0     C85017  10.008   8.743   4.025 -0.5752 -0.0064 -0.6802
  617MOL0     C85018  10.037   8.877   4.108 -0.2640  0.4317 -0.6872
  617MOL0     C85019   9.934   8.996   4.091  0.1732  0.6881  0.1283
  617MOL0     C85020   9.931   9.056   3.955  0.0841  0.1536  0.2642
  617MOL0     C85021   9.886   9.203   3.950 -0.1970  0.1550 -0.0205
  617MOL0     C85022   9.735   9.210   3.993 -0.0004  0.3701 -0.6026
  617MOL0     C85023   9.674   9.350   3.981 -0.6277 -0.3072  0.0288
  617MOL0     C85024   9.520   9.377   4.004  1.0187  0.0850 -0.1859
  617MOL0     N85025   9.478   9.512   3.964 -0.8872 -0.6799  0.0494
  617MOL0     C85026   9.509   9.578   3.847 -0.8429  0.3605  0.1674
  617MOL0     C85027   9.465   9.702   3.858 -0.7664  0.0422 -0.2582
  617MOL0     C85028   9.465   9.822   3.772  1.0176 -0.1268 -1.1807
  617MOL0     C85029   9.338   9.836   3.686  0.3000  0.5076 -0.0273
  617MOL0     C85030   9.233   9.921   3.762 -0.3403  0.0232 -0.3457
  617MOL0     C85031   9.095   9.901   3.703 -0.7842  0.1830  0.6124
  617MOL0     O85032   9.030   9.781   3.751  0.2957 -0.5261 -0.2446
  617MOL0     C85033   8.904   9.807   3.803 -0.2890 -0.0284 -0.3792
  617MOL0     C85034   8.804   9.886   3.736  0.1074  0.3759  0.3325
  617MOL0     C85035   8.675   9.910   3.784 -1.4109 -0.3797  0.4946
  617MOL0     C85036   8.573  10.003   3.707  0.8268  0.3877 -0.6967
  617MOL0     C85037   8.641   9.839   3.910  0.6671 -0.5544 -0.2344
  617MOL0     C85038   8.504   9.852   3.968  0.5884  0.7025  0.6771
  617MOL0     O85039   8.505   9.809   4.091 -0.8659 -0.3273 -0.1740
  617MOL0     C85040   8.421   9.849   4.192  0.3436 -0.0265  0.1039
  617MOL0     C85041   8.419   9.766   4.312  1.4313 -0.4843  0.5092
  617MOL0     C85042   8.323   9.779   4.409 -0.3342 -0.4496 -0.8811
  617MOL0     C85043   8.220   9.870   4.392  0.6038 -0.6071  1.0420
  617MOL0     O85044   8.106   9.881   4.474 -0.5951 -0.4446 -0.2010
  617MOL0     C85045   8.036   9.760   4.496  0.6451 -0.5682  0.4128
  617MOL0     C85046   8.035   9.728   4.647  0.4723 -0.2889  0.4148
  617MOL0     C85047   7.999   9.851   4.733  1.1681 -0.8311  0.4033
  617MOL0     C85048   8.021   9.827   4.879  0.9356  0.6345 -0.1063
  617MOL0     C85049   7.902   9.737   4.928  0.8701 -0.7334  0.2297
  617MOL0     C85050   7.898   9.734   5.089 -0.1534  0.0420 -0.5980
  617MOL0     C85051   7.783   9.657   5.155 -0.2654  0.7698  0.4004
  617MOL0     C85052   7.645   9.650   5.098 -0.9584 -0.0298  0.2020
  617MOL0    Cl85053   7.587   9.820   5.080  0.1718  0.3359 -0.3225
  617MOL0     C85054   8.235   9.968   4.294  0.1331  1.2434 -0.3357
  617MOL0     C85055   8.324   9.949   4.192 -0.1931  0.7900  0.0926
  617MOL0     O85056   8.410   9.906   3.913 -0.0691  0.5521  0.5877
  617MOL0     C85057   8.737   9.765   3.980 -0.8048 -0.0341  0.9001
  617MOL0     C85058   8.863   9.746   3.921 -0.1234 -0.9753 -0.1461
  617MOL0     N85059   9.399   9.704   3.977 -0.3142 -1.2441 -0.2230
  617MOL0     N85060   9.425   9.609   4.047 -0.0661  0.0126 -0.5131
  617MOL0     C85061   9.970   8.589   4.291 -0.0127  0.6199 -0.5606
  617MOL0     C85062   9.966   8.470   4.365 -0.4637 -0.7472 -0.8666
  617MOL0     C85063   9.759   8.091   4.542 -0.1768 -0.2111  0.4938
  617MOL0     C85064   9.627   8.059   4.581 -0.5663 -0.2400 -0.1777
  617MOL0     C85065   9.598   7.932   4.623 -0.3038  0.7820 -0.4023
  617MOL0     C85066   9.693   7.834   4.612 -0.3747 -0.2506 -0.0372
  617MOL0     O85067   9.672   7.704   4.630  0.0268 -1.1817  0.4843
  617MOL0     C85068   9.550   7.652   4.591 -0.2113  0.2285  0.6090
  617MOL0     C85069   9.553   7.493   4.605 -0.5386 -0.1568  0.3278
  617MOL0     C85070   9.566   7.454   4.747  0.2017 -0.3590  0.5105
  617MOL0     C85071   9.446   7.492   4.836 -0.4791 -0.2087 -0.6646
  617MOL0     C85072   9.456   7.449   4.978 -0.3460  0.2464 -0.0132
  617MOL0     C85073   9.453   7.396   5.089 -0.3978 -0.3820 -0.3857
  617MOL0     C85074   9.822   7.859   4.569  0.8360  0.1838 -0.4247
  617MOL0     C85075   9.865   7.993   4.543 -0.5738  0.2905 -0.6533
  617MOL0     C85076  10.006   8.021   4.498  0.1308 -0.0014 -0.5522
  617MOL0     H85077   9.724   8.293   4.211 -0.6750  0.2947  4.4430
  617MOL0     H85078   9.739   8.487   4.058 -0.0446 -0.4959 -0.0602
  617MOL0     H85079  10.001   8.756   3.917  0.4540 -0.2320 -0.7829
  617MOL0     H85080  10.094   8.676   4.036  1.0034  1.5562 -2.6575
  617MOL0     H85081  10.045   8.869   4.217 -4.1301  1.0154 -0.2373
  617MOL0     H85082  10.136   8.918   4.085 -1.7753  4.6353 -0.6168
  617MOL0     H85083   9.834   8.958   4.111  0.1490 -0.7108 -2.2148
  617MOL0     H85084   9.958   9.075   4.163 -3.6227  0.8419  1.4442
  617MOL0     H85085  10.034   9.057   3.917 -0.2437 -0.6290 -0.6817
  617MOL0     H85086   9.867   8.996   3.889 -0.5376  1.3516 -0.2578
  617MOL0     H85087   9.916   9.242   3.853  1.5758 -0.5554  0.2011
  617MOL0     H85088   9.952   9.251   4.022  2.5255 -3.4634  0.1659
  617MOL0     H85089   9.672   9.152   3.926  0.0793 -0.4579  0.0254
  617MOL0     H85090   9.722   9.188   4.100  1.8242  1.7930 -0.0246
  617MOL0     H85091   9.698   9.375   3.877  3.3694  1.4282  1.1899
  617MOL0     H85092   9.724   9.410   4.058 -0.4309 -2.2038  1.4508
  617MOL0     H85093   9.469   9.294   3.954  1.0791  0.3575 -0.7090
  617MOL0     H85094   9.489   9.372   4.109 -2.0799 -1.5417 -1.0560
  617MOL0     H85095   9.552   9.534   3.757 -0.3557  3.1957 -1.1042
  617MOL0     H85096   9.554   9.822   3.709  0.3871  1.1960 -2.1203
  617MOL0     H85097   9.477   9.906   3.842 -4.4423  1.2667 -1.5111
  617MOL0     H85098   9.369   9.893   3.598 -0.1771  3.4841  1.6349
  617MOL0     H85099   9.290   9.745   3.648  0.3663  0.4755 -0.0357
  617MOL0     H85100   9.222   9.890   3.866  3.1036  0.5063  0.2697
  617MOL0     H85101   9.272  10.023   3.758  1.5414 -0.6618 -0.2502
  617MOL0     H85102   9.044   9.994   3.731 -2.0920 -0.4391  0.4097
  617MOL0     H85103   9.089   9.894   3.594  0.7740  0.4603  0.4951
  617MOL0     H85104   8.830   9.942   3.647 -3.0657  3.1100  0.8902
  617MOL0     H85105   8.490   9.939   3.676  0.7498  0.2565 -0.2320
  617MOL0     H85106   8.625  10.055   3.626  1.9935 -0.3855 -0.4776
  617MOL0     H85107   8.533  10.076   3.777  0.3761 -0.1954 -0.3357
  617MOL0     H85108   8.486   9.681   4.324  2.1989 -0.2100 -1.4415
  617MOL0     H85109   8.302   9.716   4.495  2.1912  0.1067  0.2323
  617MOL0     H85110   7.930   9.773   4.471  0.5523 -1.0254  0.5541
  617MOL0     H85111   8.074   9.680   4.431 -1.7121  0.0862 -1.9724
  617MOL0     H85112   7.971   9.641   4.660 -2.4056  0.9056 -3.7248
  617MOL0     H85113   8.136   9.693   4.671  0.1121 -0.7896  1.2578
  617MOL0     H85114   7.898   9.891   4.719  1.4895 -0.0491  0.2821
  617MOL0     H85115   8.063   9.936   4.709 -1.0015  0.7770  0.0152
  617MOL0     H85116   8.013   9.927   4.923  2.0092  2.0074 -2.8002
  617MOL0     H85117   8.118   9.780   4.897 -0.4912 -2.6900 -0.4021
  617MOL0     H85118   7.808   9.784   4.898  2.4955  1.1633 -2.3415
  617MOL0     H85119   7.899   9.636   4.887  0.1443 -0.7308  0.2644
  617MOL0     H85120   7.892   9.838   5.120 -2.2486  0.0114 -0.7207
  617MOL0     H85121   7.990   9.693   5.132 -0.1708  3.0652  2.7325
  617MOL0     H85122   7.792   9.675   5.263 -2.6836  0.6813  0.6545
  617MOL0     H85123   7.815   9.553   5.146  0.9945  0.9266  2.3439
  617MOL0     H85124   7.581   9.606   5.175 -0.5056  1.8516  1.7299
  617MOL0     H85125   7.634   9.584   5.012  1.9445 -1.6744  0.9335
  617MOL0     H85126   8.160  10.045   4.280 -1.8881 -0.5258  0.2436
  617MOL0     H85127   8.311  10.000   4.097 -1.9644 -2.2009 -1.4167
  617MOL0     H85128   8.724   9.696   4.062  1.7894 -0.1331  1.3053
  617MOL0     H85129   8.937   9.688   3.976 -0.0981  0.0427  0.9436
  617MOL0     H85130  10.051   8.661   4.297  1.0804 -0.4619 -1.6499
  617MOL0     H85131  10.036   8.452   4.447  0.3662 -0.0931 -1.4079
  617MOL0     H85132   9.546   8.130   4.586 -2.0261 -1.7836 -1.0232
  617MOL0     H85133   9.498   7.901   4.653 -0.0099 -1.1239 -1.2089
  617MOL0     H85134   9.468   7.698   4.648  0.1556  2.0464 -0.2515
  617MOL0     H85135   9.547   7.659   4.482  2.3203  0.3298  0.4948
  617MOL0     H85136   9.642   7.462   4.550  1.2826  0.5132  2.7203
  617MOL0     H85137   9.467   7.439   4.566  0.8393  0.4785 -4.0712
  617MOL0     H85138   9.592   7.348   4.748 -0.4553 -0.5442 -0.3160
  617MOL0     H85139   9.652   7.510   4.786  0.3744 -0.0256 -0.3336
  617MOL0     H85140   9.354   7.450   4.794 -1.2831 -0.1627  0.9597
  617MOL0     H85141   9.438   7.601   4.829 -1.9951 -0.3568 -1.5762
  617MOL0     H85142   9.463   7.351   5.186 -3.0849 -0.2257  0.0311
  617MOL0     H85143   9.897   7.784   4.547  1.8228  1.3763 -1.2683
  617MOL0     H85144  10.018   8.041   4.391 -1.4380 -1.7495 -1.1002
  617MOL0     H85145  10.042   8.104   4.559 -1.2098 -0.8424  1.4996
  617MOL0     H85146  10.064   7.933   4.529  0.8106  1.2096  1.8579
  618MOL0     O85147   7.978   9.025   6.912 -0.3133 -0.3126 -0.1859
  618MOL0     C85148   7.923   8.925   6.965  0.4318 -0.4319  0.0838
  618MOL0     O85149   7.981   8.817   7.028  0.4177  0.2219 -0.0302
  618MOL0     C85150   8.117   8.808   7.035 -0.7027 -0.6088  0.1068
  618MOL0     C85151   8.211   8.838   6.929  1.0020  0.0598  0.2985
  618MOL0     C85152   8.343   8.795   6.935  0.5664  0.2166  0.6670
  618MOL0     C85153   8.395   8.715   7.036 -0.3471 -0.4038  0.2551
  618MOL0     O85154   8.517   8.656   7.045  0.2123 -0.2269 -0.2237
  618MOL0     C85155   8.621   8.687   6.947  0.0741  0.0276 -0.3292
  618MOL0     C85156   8.684   8.826   6.944 -0.5923 -0.6854  0.0662
  618MOL0     C85157   8.793   8.835   6.836  1.0060  0.1325 -0.4684
  618MOL0     C85158   8.860   8.977   6.842 -0.4301  0.0464  0.2326
  618MOL0     C85159   9.002   8.977   6.812  0.2026  0.5452  0.1720
  618MOL0     C85160   9.027   8.972   6.659 -0.1433  0.2328  0.1545
  618MOL0     C85161   9.174   9.000   6.627 -0.4941  0.6857 -1.0268
  618MOL0     C85162   9.194   9.038   6.480  0.4403 -0.5121  0.0969
  618MOL0     N85163   9.317   9.116   6.447  0.2415 -2.0259  0.6107
  618MOL0     C85164   9.451   9.080   6.463  0.8175  0.0235  0.1312
  618MOL0     C85165   9.523   9.176   6.402  0.0495  0.0808 -0.0313
  618MOL0     C85166   9.669   9.201   6.371 -0.0393  0.0936  0.6147
  618MOL0     C85167   9.747   9.075   6.376  0.6798  0.4852  0.3167
  618MOL0     C85168   9.793   9.029   6.517  0.3319 -0.0405 -0.6008
  618MOL0     C85169   9.912   8.934   6.518 -0.6042 -0.7803  0.4555
  618MOL0     O85170   9.949   8.913   6.658 -0.3997 -0.5106  0.1357
  618MOL0     C85171  10.088   8.895   6.679  0.1223  0.3443  1.0184
  618MOL0     C85172  10.194   8.865   6.583  0.4566 -0.3256  0.1037
  618MOL0     C85173  10.330   8.835   6.611 -0.5057 -0.0710  0.1290
  618MOL0     C85174  10.412   8.814   6.482 -0.2968  0.4070  0.3234
  618MOL0     C85175  10.372   8.854   6.746  0.1498 -0.4892  0.4443
  618MOL0     C85176  10.508   8.825   6.789 -0.2067  0.0137  0.5422
  618MOL0     O85177  10.542   8.856   6.922 -0.2429 -0.0031 -0.7063
  618MOL0     C85178  10.669   8.828   6.968 -1.1647 -0.2984 -0.7101
  618MOL0     C85179  10.778   8.914   6.942 -0.2641  0.0404  0.1393
  618MOL0     C85180  10.907   8.882   6.987 -0.4398 -0.0963  0.3522
  618MOL0     C85181  10.939   8.774   7.071 -0.1872  0.0986  0.3397
  618MOL0     O85182  11.064   8.753   7.110  0.1794 -0.3384  0.4822
  618MOL0     C85183  11.100   8.645   7.201  0.0890  0.1863 -0.5033
  618MOL0     C85184  11.242   8.616   7.247 -0.6268  0.0948 -0.1133
  618MOL0     C85185  11.254   8.480   7.311 -0.8699  0.1604 -0.2826
  618MOL0     C85186  11.379   8.448   7.402 -0.6739 -0.7491  0.5875
  618MOL0     C85187  11.363   8.318   7.476  0.5337  0.6260  0.1598
  618MOL0     C85188  11.485   8.275   7.551 -0.4251  0.8704  0.9700
  618MOL0     C85189  11.473   8.139   7.622 -0.6154 -0.3247 -1.0473
  618MOL0     C85190  11.415   8.145   7.764 -0.0173  0.0107  0.3576
  618MOL0    Cl85191  11.519   8.246   7.872 -0.1798  0.2886 -0.4018
  618MOL0     C85192  10.828   8.684   7.079  0.4339 -0.1460 -0.2705
  618MOL0     C85193  10.701   8.711   7.033  0.4370  0.7693  0.0729
  618MOL0     O85194  10.571   8.754   6.710  0.0217 -0.8543 -0.3988
  618MOL0     C85195  10.278   8.880   6.848  0.4160 -0.9164  0.2442
  618MOL0     C85196  10.135   8.889   6.804 -1.0818 -0.2444 -0.8149
  618MOL0     N85197   9.430   9.271   6.360 -0.1651 -0.6570 -0.3748
  618MOL0     N85198   9.308   9.244   6.380  0.0161  0.5314  0.1517
  618MOL0     C85199   8.307   8.699   7.146 -0.5684  0.5891  0.3993
  618MOL0     C85200   8.172   8.742   7.147 -0.7853 -0.1890 -0.3256
  618MOL0     C85201   7.774   8.909   6.960  0.5051  0.6657 -0.0119
  618MOL0     C85202   7.715   8.807   7.034  0.3317  0.1811 -1.2555
  618MOL0     C85203   7.574   8.784   7.039  0.2672  0.4005 -0.0967
  618MOL0     C85204   7.484   8.848   6.948 -0.2320 -0.7136  0.2166
  618MOL0     O85205   7.352   8.818   6.922 -1.0486  0.3722 -0.1306
  618MOL0     C85206   7.283   8.714   6.993  0.4557  0.1937 -0.8059
  618MOL0     C85207   7.223   8.765   7.132 -0.3803  0.8366  0.1937
  618MOL0     C85208   7.149   8.899   7.113 -0.3469 -0.9130  0.2321
  618MOL0     C85209   7.128   8.959   7.251  0.0303  0.1132 -1.3825
  618MOL0     C85210   7.031   8.884   7.324 -0.2206 -0.0191 -0.4623
  618MOL0     C85211   6.948   8.820   7.392  0.5462 -0.4868  0.1952
  618MOL0     C85212   7.551   8.939   6.860  0.4959 -0.3713 -0.4069
  618MOL0     C85213   7.687   8.972   6.864  0.1066  0.9283  0.4206
  618MOL0     C85214   7.731   9.088   6.778 -0.2873 -0.3688  0.0966
  618MOL0     H85215   8.176   8.882   6.836 -2.0345  0.3614  1.4643
  618MOL0     H85216   8.398   8.798   6.841 -1.4173  1.2150 -0.5228
  618MOL0     H85217   8.587   8.678   6.844 -1.7418  1.2205  0.1098
  618MOL0     H85218   8.706   8.618   6.949  0.6370  0.7192  1.0335
  618MOL0     H85219   8.608   8.899   6.913 -1.7029 -1.6666  0.3805
  618MOL0     H85220   8.712   8.847   7.048  0.5298  1.4036 -0.6017
  618MOL0     H85221   8.865   8.759   6.868 -0.6531 -1.7176 -0.9553
  618MOL0     H85222   8.768   8.803   6.735  0.6343 -0.8867 -0.0709
  618MOL0     H85223   8.813   9.046   6.770 -1.7007 -0.2318  0.7729
  618MOL0     H85224   8.839   9.016   6.942 -1.4115  3.2859 -1.1010
  618MOL0     H85225   9.048   8.888   6.856 -3.1301 -0.6224  1.5619
  618MOL0     H85226   9.043   9.075   6.839 -0.7673  0.4014  2.3736
  618MOL0     H85227   8.984   8.880   6.616 -3.0475  0.3310  2.4881
  618MOL0     H85228   8.959   9.048   6.619 -2.3986 -0.8287  1.7941
  618MOL0     H85229   9.236   8.910   6.635 -1.8966 -0.2075  0.0039
  618MOL0     H85230   9.220   9.079   6.687  3.4335 -0.5459 -2.0692
  618MOL0     H85231   9.187   8.953   6.412 -1.0336 -0.9970  0.8181
  618MOL0     H85232   9.107   9.102   6.466  2.0473  2.1236  1.3440
  618MOL0     H85233   9.486   8.985   6.502  1.4651  0.1580 -0.1029
  618MOL0     H85234   9.711   9.283   6.430  0.8233  0.5438 -0.5738
  618MOL0     H85235   9.668   9.234   6.266  0.4343 -0.9782  0.2556
  618MOL0     H85236   9.688   8.995   6.331 -0.4158  1.3181  0.2336
  618MOL0     H85237   9.832   9.084   6.307  1.5514 -2.2843  0.9084
  618MOL0     H85238   9.830   9.114   6.576 -3.4085  2.4384 -1.4272
  618MOL0     H85239   9.709   8.981   6.569  2.0929 -2.7638 -0.0793
  618MOL0     H85240   9.882   8.844   6.464 -1.0452 -0.1306 -0.4107
  618MOL0     H85241   9.994   8.986   6.466 -1.4170 -0.1305 -0.2021
  618MOL0     H85242  10.166   8.881   6.479  3.0130  0.6219 -0.5209
  618MOL0     H85243  10.488   8.736   6.490  1.1154  1.7349  0.3995
  618MOL0     H85244  10.474   8.902   6.461  3.1770 -1.9655 -0.2851
  618MOL0     H85245  10.345   8.795   6.398  0.4646 -5.1959  0.6492
  618MOL0     H85246  10.754   9.005   6.888  0.6111  0.6494  0.7448
  618MOL0     H85247  10.976   8.964   6.968 -1.5800  0.8631  0.2578
  618MOL0     H85248  11.051   8.670   7.295 -0.8476 -1.1162 -0.6092
  618MOL0     H85249  11.057   8.553   7.161 -1.4219  0.2540  0.9001
  618MOL0     H85250  11.308   8.618   7.160 -0.7454  0.2850 -0.1985
  618MOL0     H85251  11.275   8.697   7.313 -1.1705 -0.1883  0.5224
  618MOL0     H85252  11.265   8.413   7.225  2.3772  1.1822 -0.8005
  618MOL0     H85253  11.168   8.454   7.373  0.4712 -3.3644  0.3272
  618MOL0     H85254  11.400   8.529   7.473  0.7071 -0.0075 -0.6229
  618MOL0     H85255  11.466   8.443   7.336 -0.4533  3.6578  0.2926
  618MOL0     H85256  11.285   8.328   7.552 -2.3648 -1.2112 -2.3245
  618MOL0     H85257  11.320   8.237   7.416 -2.4541  3.1739 -1.4008
  618MOL0     H85258  11.525   8.361   7.606  1.0986  1.2179 -0.5966
  618MOL0     H85259  11.553   8.248   7.470 -0.8449  1.3334  0.4628
  618MOL0     H85260  11.573   8.093   7.628 -1.0261 -1.0889  0.5185
  618MOL0     H85261  11.418   8.068   7.560 -1.2752  1.0535 -2.0840
  618MOL0     H85262  11.383   8.054   7.816  0.0448 -0.2041  0.0216
  618MOL0     H85263  11.320   8.199   7.756 -0.2019  0.4563  3.8848
  618MOL0     H85264  10.852   8.592   7.132  1.4052  0.2963  0.0918
  618MOL0     H85265  10.614   8.656   7.067 -0.3940  1.4418 -0.9064
  618MOL0     H85266  10.297   8.881   6.955  0.9752  0.2690  0.1601
  618MOL0     H85267  10.067   8.901   6.887 -0.7819 -1.2003 -0.4153
  618MOL0     H85268   8.347   8.637   7.226 -0.0094 -0.6739 -0.8155
  618MOL0     H85269   8.111   8.715   7.233 -0.7578  2.1026  0.4659
  618MOL0     H85270   7.778   8.747   7.100 -0.8355 -0.7192 -0.9227
  618MOL0     H85271   7.534   8.728   7.123 -0.7555  1.3616  0.0818
  618MOL0     H85272   7.194   8.687   6.936  0.4370 -2.6810  0.4233
  618MOL0     H85273   7.339   8.620   6.986  0.6011  0.2556 -0.4971
  618MOL0     H85274   7.301   8.780   7.207 -1.4173 -0.0808  1.5010
  618MOL0     H85275   7.153   8.693   7.175 -1.4259  0.8472 -1.4184
  618MOL0     H85276   7.207   8.972   7.056 -1.6280  0.3482  0.4767
  618MOL0     H85277   7.049   8.892   7.067 -1.0399 -0.9647  1.6897
  618MOL0     H85278   7.085   9.058   7.237 -0.7958  0.2124  1.3066
  618MOL0     H85279   7.218   8.967   7.312  1.1666  2.5070 -3.2073
  618MOL0     H85280   6.873   8.762   7.443  1.5776 -3.0127 -1.0218
  618MOL0     H85281   7.483   8.986   6.789  0.3447  2.6049  1.5190
  618MOL0     H85282   7.656   9.111   6.702  2.5951 -0.6812 -3.1257
  618MOL0     H85283   7.757   9.167   6.848  2.0691 -3.9677  3.6744
  618MOL0     H85284   7.821   9.067   6.718 -3.1520 -1.0314 -4.5303
  619MOL0     O85285   9.297   9.278   0.447 -1.0065 -0.2262 -0.5493
  619MOL0     C85286   9.414   9.262   0.411  0.3691 -0.2135  0.0007
  619MOL0     O85287   9.530   9.269   0.483  0.2711 -0.6481 -0.2506
  619MOL0     C85288   9.562   9.354   0.577  0.2803 -0.0449 -0.3485
  619MOL0     C85289   9.485   9.468   0.612  0.4341  0.2452 -0.3372
  619MOL0     C85290   9.531   9.553   0.705 -0.6244  0.5044 -0.5751
  619MOL0     C85291   9.653   9.537   0.762  0.1098 -0.7524 -0.9555
  619MOL0     O85292   9.714   9.612   0.866  0.8415  0.0494 -0.2629
  619MOL0     C85293   9.670   9.736   0.915  0.6008  0.2649  0.7439
  619MOL0     C85294   9.675   9.846   0.817 -0.2397  0.0271 -0.3148
  619MOL0     C85295   9.707   9.983   0.877  0.2613 -0.4567  0.2800
  619MOL0     C85296   9.690  10.088   0.765 -0.4505 -0.5034 -0.4008
  619MOL0     C85297   9.720  10.233   0.819 -0.1655  0.6954  0.3143
  619MOL0     C85298   9.776  10.336   0.714  0.2920 -0.2469  0.2540
  619MOL0     C85299   9.700  10.323   0.581  0.1193 -0.0760  0.1390
  619MOL0     C85300   9.718  10.456   0.508  0.3396  0.1007  0.4059
  619MOL0     N85301   9.662  10.441   0.373  0.3535 -0.0322  1.4460
  619MOL0     C85302   9.733  10.453   0.258 -0.0136 -0.3358  1.0455
  619MOL0     C85303   9.642  10.439   0.161  0.0415 -0.9305 -0.5508
  619MOL0     C85304   9.659  10.455   0.009  0.0802 -0.5984 -0.8240
  619MOL0     C85305   9.798  10.408  -0.040 -0.3498 -0.1444 -0.1935
  619MOL0     C85306   9.819  10.257  -0.021 -0.7111  0.4647  0.4580
  619MOL0     C85307   9.969  10.227  -0.026  0.3879  0.6276 -0.7254
  619MOL0     O85308   9.978  10.087   0.002  0.3072 -0.6303  0.4588
  619MOL0     C85309   9.947   9.987  -0.087 -1.2679  0.4546  0.3617
  619MOL0     C85310   9.947  10.001  -0.224 -0.4965 -0.4483  0.1751
  619MOL0     C85311   9.926   9.891  -0.310  0.4137 -0.2326  0.1550
  619MOL0     C85312   9.901   9.926  -0.457 -0.4904  1.2423  0.4198
  619MOL0     C85313   9.937   9.758  -0.254  0.2985  0.6658  0.6060
  619MOL0     C85314   9.936   9.640  -0.336  0.0058  0.4800  0.1860
  619MOL0     O85315   9.895   9.523  -0.286 -0.2327  0.1224  0.3249
  619MOL0     C85316   9.874   9.410  -0.359  0.1796 -0.3838 -0.0920
  619MOL0     C85317   9.881   9.296  -0.291 -0.2393 -0.2931  0.0063
  619MOL0     C85318   9.863   9.169  -0.351  0.1558  0.8355  0.1055
  619MOL0     C85319   9.843   9.158  -0.485 -0.2889  0.8887 -0.3241
  619MOL0     O85320   9.828   9.031  -0.529 -0.0895  0.5286  1.3904
  619MOL0     C85321   9.789   9.010  -0.668  0.3159  0.5546 -0.7965
  619MOL0     C85322   9.834   8.887  -0.731 -0.0585 -0.0512  0.6857
  619MOL0     C85323   9.766   8.761  -0.694  0.4751 -0.1032  0.8356
  619MOL0     C85324   9.825   8.634  -0.760 -0.8364 -0.0212  0.2002
  619MOL0     C85325   9.721   8.525  -0.765  0.1660  0.3720 -0.5530
  619MOL0     C85326   9.661   8.489  -0.625 -0.8460 -0.4978 -0.7370
  619MOL0     C85327   9.750   8.382  -0.553  0.7636  1.3911  0.5651
  619MOL0     C85328   9.692   8.349  -0.413  0.2798  0.5985  0.6235
  619MOL0    Cl85329   9.775   8.221  -0.303  0.4306 -0.0639  0.0526
  619MOL0     C85330   9.829   9.274  -0.567  0.0039  0.3157 -0.1406
  619MOL0     C85331   9.843   9.404  -0.498 -0.5963 -0.1212  0.5545
  619MOL0     O85332   9.987   9.654  -0.448 -0.0704 -0.0136 -0.5029
  619MOL0     C85333   9.946   9.740  -0.113 -0.3869  0.2063  0.0501
  619MOL0     C85334   9.947   9.858  -0.036  0.8034  0.1931 -0.0823
  619MOL0     N85335   9.516  10.441   0.218  0.1322  0.8998  0.6056
  619MOL0     N85336   9.527  10.452   0.346  0.2601  0.2941  0.1750
  619MOL0     C85337   9.728   9.427   0.732 -0.1210  0.4883 -0.4863
  619MOL0     C85338   9.678   9.327   0.640  0.1420 -0.2554  0.7954
  619MOL0     C85339   9.447   9.224   0.278 -0.0987 -0.1540  0.4804
  619MOL0     C85340   9.367   9.126   0.220  0.7478  0.8074  0.1937
  619MOL0     C85341   9.402   9.066   0.102  1.2428 -0.0628  0.3105
  619MOL0     C85342   9.521   9.096   0.032 -0.2161  0.5484  0.7924
  619MOL0     O85343   9.559   9.029  -0.083 -0.0489  0.2590 -0.3601
  619MOL0     C85344   9.455   8.948  -0.153 -0.0126 -0.0879 -0.7302
  619MOL0     C85345   9.504   8.938  -0.296  0.8556 -0.5409  0.1223
  619MOL0     C85346   9.640   8.864  -0.306  0.0921  0.8645 -0.3069
  619MOL0     C85347   9.644   8.724  -0.256  1.1669 -0.1867 -0.2097
  619MOL0     C85348   9.778   8.667  -0.267  0.4116  0.2986  0.1764
  619MOL0     C85349   9.879   8.608  -0.293 -1.0611  0.1693 -0.3606
  619MOL0     C85350   9.604   9.199   0.094 -0.4065  0.4274  0.2834
  619MOL0     C85351   9.570   9.260   0.215  0.5966 -0.1224  0.1522
  619MOL0     C85352   9.653   9.376   0.246 -0.4594 -0.0830 -0.5810
  619MOL0     H85353   9.386   9.480   0.571 -0.8810 -3.3236  1.2945
  619MOL0     H85354   9.471   9.642   0.719  2.4316  2.4885  1.1626
  619MOL0     H85355   9.733   9.766   0.999  1.7879  1.2274 -0.4586
  619MOL0     H85356   9.570   9.722   0.957  0.3565 -2.0467 -0.4632
  619MOL0     H85357   9.767   9.834   0.758  1.9223  1.9862  2.3809
  619MOL0     H85358   9.587   9.832   0.754 -0.3354 -2.4698  0.2665
  619MOL0     H85359   9.635  10.010   0.955 -0.2423  1.7090 -0.8392
  619MOL0     H85360   9.803   9.997   0.926  0.0476 -2.9036  1.5439
  619MOL0     H85361   9.761  10.070   0.684  0.5180  0.1608  0.2920
  619MOL0     H85362   9.584  10.078   0.738 -0.7592  2.1798 -0.4154
  619MOL0     H85363   9.799  10.230   0.893 -0.1445  2.8515  0.4614
  619MOL0     H85364   9.628  10.275   0.862 -1.1892 -0.6398 -0.4735
  619MOL0     H85365   9.757  10.436   0.755 -0.6218  0.3585 -1.4980
  619MOL0     H85366   9.880  10.313   0.692 -0.1988 -0.7050 -1.8398
  619MOL0     H85367   9.596  10.316   0.612  0.0890  3.1086  1.0367
  619MOL0     H85368   9.738  10.239   0.521  1.1900  2.0642 -2.3539
  619MOL0     H85369   9.660  10.540   0.546  0.0807  0.3531 -0.5185
  619MOL0     H85370   9.820  10.494   0.502  0.8286 -1.1947  0.1539
  619MOL0     H85371   9.836  10.484   0.246 -0.4708  0.5598 -1.0446
  619MOL0     H85372   9.644  10.562  -0.006 -1.1373 -0.4965  0.7705
  619MOL0     H85373   9.575  10.408  -0.044 -0.8195  0.3362 -0.2726
  619MOL0     H85374   9.811  10.433  -0.146 -1.9724 -0.2037 -0.4355
  619MOL0     H85375   9.868  10.465   0.022 -1.2896 -0.9552  1.6716
  619MOL0     H85376   9.772  10.224   0.072  0.5338  1.7263  1.5804
  619MOL0     H85377   9.772  10.212  -0.109 -0.3708  0.4094  0.3030
  619MOL0     H85378  10.017  10.244  -0.123  0.9899 -1.3291 -0.8265
  619MOL0     H85379  10.020  10.293   0.045 -0.3880  1.2522 -0.7390
  619MOL0     H85380   9.940  10.103  -0.262  0.1295 -0.6446 -0.4941
  619MOL0     H85381   9.989   9.895  -0.514  0.0532 -0.0818  1.9153
  619MOL0     H85382   9.876  10.031  -0.471 -1.1657  1.0788  0.3110
  619MOL0     H85383   9.820   9.861  -0.493  0.4309  0.5341 -0.4086
  619MOL0     H85384   9.913   9.289  -0.188 -2.0088 -4.4753  0.4630
  619MOL0     H85385   9.877   9.086  -0.283 -1.5515  1.1948  0.9352
  619MOL0     H85386   9.681   9.016  -0.680  0.0231  1.9968  1.7082
  619MOL0     H85387   9.836   9.092  -0.723 -1.6531  2.9723  0.8610
  619MOL0     H85388   9.833   8.902  -0.839 -0.1296  0.0605  0.7020
  619MOL0     H85389   9.940   8.877  -0.705  0.4262 -1.5010 -1.5833
  619MOL0     H85390   9.659   8.767  -0.713  0.4826 -2.8986 -0.7662
  619MOL0     H85391   9.781   8.747  -0.587 -1.0112 -0.1106  1.0624
  619MOL0     H85392   9.918   8.614  -0.707 -0.6956 -0.2459 -0.1241
  619MOL0     H85393   9.847   8.659  -0.864 -0.3082 -1.1967  0.0142
  619MOL0     H85394   9.641   8.557  -0.833  1.2199  2.8083 -0.7375
  619MOL0     H85395   9.772   8.441  -0.813  1.1365  0.9656 -0.5813
  619MOL0     H85396   9.559   8.453  -0.639 -1.0573 -0.0344 -0.4135
  619MOL0     H85397   9.648   8.568  -0.550 -0.2002  0.4235 -1.5630
  619MOL0     H85398   9.849   8.427  -0.544  0.7502  1.2079  2.0326
  619MOL0     H85399   9.749   8.293  -0.617  2.7323  1.7872 -0.0578
  619MOL0     H85400   9.587   8.321  -0.428  1.1607 -1.5269 -2.6853
  619MOL0     H85401   9.691   8.446  -0.363  1.0645  1.1269 -0.3501
  619MOL0     H85402   9.803   9.271  -0.672  1.7899  0.0471 -0.5989
  619MOL0     H85403   9.823   9.486  -0.565  2.3754 -0.4788 -0.8957
  619MOL0     H85404   9.960   9.640  -0.071  2.8430  1.0956  1.4489
  619MOL0     H85405   9.955   9.859   0.072  2.1053 -0.6691 -0.1524
  619MOL0     H85406   9.812   9.406   0.798 -2.1598  0.7725  2.4161
  619MOL0     H85407   9.735   9.236   0.626  2.5876  1.3095 -0.0210
  619MOL0     H85408   9.273   9.099   0.268  0.1646  0.6935 -0.9803
  619MOL0     H85409   9.323   9.000   0.069 -0.4785  1.0210  2.0608
  619MOL0     H85410   9.456   8.852  -0.102 -3.6696  0.1606  0.0527
  619MOL0     H85411   9.359   8.999  -0.144 -0.0487 -0.5862  2.8964
  619MOL0     H85412   9.525   9.030  -0.351  1.3161 -1.2502 -0.9058
  619MOL0     H85413   9.430   8.880  -0.351 -0.3323  2.8037 -2.0997
  619MOL0     H85414   9.666   8.843  -0.410 -0.0444 -3.1712  0.2936
  619MOL0     H85415   9.718   8.925  -0.260 -0.6070  2.2571 -0.9388
  619MOL0     H85416   9.569   8.667  -0.313 -0.1403  3.1425 -2.1009
  619MOL0     H85417   9.609   8.716  -0.153  2.6851  1.6818  0.4862
  619MOL0     H85418   9.969   8.554  -0.316  0.4402  2.5002 -0.2672
  619MOL0     H85419   9.693   9.241   0.048 -0.4019  0.2398  0.1210
  619MOL0     H85420   9.613   9.447   0.319  1.7542 -0.0008  0.6552
  619MOL0     H85421   9.748   9.334   0.280 -1.4459 -2.4706 -0.6089
  619MOL0     H85422   9.643   9.422   0.147 -2.0381 -2.0851 -1.3987
  620MOL0     O85423   2.841  11.183   0.328 -0.1493 -0.2469  0.1770
  620MOL0     C85424   2.738  11.126   0.362 -0.1063  0.4262 -0.9824
  620MOL0     O85425   2.712  11.101   0.492  0.7880  0.0632 -0.9857
  620MOL0     C85426   2.793  11.105   0.596  0.5715  0.0075  1.0880
  620MOL0     C85427   2.898  11.027   0.612  0.1850 -0.0206 -0.2591
  620MOL0     C85428   2.975  11.039   0.726 -0.2047  0.4616  0.4955
  620MOL0     C85429   2.940  11.123   0.831 -1.5739 -0.4383 -0.3467
  620MOL0     O85430   3.004  11.145   0.949 -0.3099 -0.3098 -0.4242
  620MOL0     C85431   3.145  11.126   0.942  0.6511  0.4963  0.2989
  620MOL0     C85432   3.205  11.219   1.040 -0.6832  0.4885  0.0077
  620MOL0     C85433   3.217  11.368   1.012 -0.0191 -0.0167  0.2996
  620MOL0     C85434   3.338  11.400   0.920 -0.4291 -0.3790  0.0828
  620MOL0     C85435   3.384  11.547   0.921  0.1954  0.0633 -0.2735
  620MOL0     C85436   3.464  11.582   0.794 -0.9144  0.4521  0.5017
  620MOL0     C85437   3.480  11.730   0.760  0.0526  0.1529 -0.4486
  620MOL0     C85438   3.566  11.813   0.855 -0.1607 -0.2955 -0.1010
  620MOL0     N85439   3.609  11.931   0.778  0.7413 -0.2452 -0.2998
  620MOL0     C85440   3.539  12.056   0.785 -0.3725  0.6430 -0.1507
  620MOL0     C85441   3.620  12.147   0.731 -0.0220 -0.1353 -0.1832
  620MOL0     C85442   3.604  12.302   0.748 -0.0719  0.4332 -0.6320
  620MOL0     C85443   3.490  12.355   0.665  0.0954  0.6736 -0.5248
  620MOL0     C85444   3.469  12.508   0.673  0.1664 -0.6627 -0.3939
  620MOL0     C85445   3.584  12.581   0.612 -0.1303 -0.7328 -0.2553
  620MOL0     O85446   3.557  12.724   0.598  0.2205 -0.0315 -0.1834
  620MOL0     C85447   3.576  12.806   0.699 -0.3749 -0.8030  0.0097
  620MOL0     C85448   3.528  12.937   0.680 -0.6064  0.1367  0.3946
  620MOL0     C85449   3.516  13.035   0.781 -0.4485  0.0745  0.6956
  620MOL0     C85450   3.448  13.162   0.743  0.3407 -1.4845  0.1151
  620MOL0     C85451   3.568  13.007   0.910  0.3294  0.3247  0.1404
  620MOL0     C85452   3.563  13.097   1.032 -0.2611 -0.1425  0.1780
  620MOL0     O85453   3.622  13.048   1.143 -1.2228 -0.3214  0.6718
  620MOL0     C85454   3.633  13.127   1.249 -0.3407 -1.0344  0.7474
  620MOL0     C85455   3.624  13.070   1.371  0.1799 -0.6319 -0.2067
  620MOL0     C85456   3.646  13.154   1.490  0.4414  0.2188  0.0989
  620MOL0     C85457   3.644  13.294   1.485 -1.9795 -0.2829  0.1410
  620MOL0     O85458   3.628  13.374   1.599  0.3255  0.0698 -0.3657
  620MOL0     C85459   3.676  13.509   1.595 -0.3716 -0.0459 -1.0946
  620MOL0     C85460   3.685  13.570   1.730  0.6274 -0.6888 -0.3068
  620MOL0     C85461   3.558  13.552   1.811  0.4493 -0.2458 -0.0488
  620MOL0     C85462   3.507  13.668   1.891 -0.2972  0.1795  0.2007
  620MOL0     C85463   3.391  13.645   1.972 -0.6477  0.5448 -0.6405
  620MOL0     C85464   3.360  13.774   2.038 -0.9157 -0.4267  0.0382
  620MOL0     C85465   3.212  13.781   2.082 -0.5816 -0.2967 -0.5315
  620MOL0     C85466   3.170  13.907   2.158 -0.2851 -0.8995  0.2369
  620MOL0    Cl85467   3.236  14.043   2.054 -0.2229 -0.0271  0.2417
  620MOL0     C85468   3.668  13.349   1.359 -0.2775  1.1497  0.8052
  620MOL0     C85469   3.655  13.269   1.243 -0.1093 -0.9681 -0.2145
  620MOL0     O85470   3.504  13.203   1.021  0.2839 -0.4721 -0.4968
  620MOL0     C85471   3.647  12.885   0.913  0.7357 -0.1857 -0.5300
  620MOL0     C85472   3.647  12.787   0.813  0.0983 -0.4738 -0.5413
  620MOL0     N85473   3.738  12.091   0.701 -0.6019  0.3141 -0.4040
  620MOL0     N85474   3.724  11.957   0.711 -0.1117 -0.3389 -0.0936
  620MOL0     C85475   2.816  11.188   0.824  0.1445 -1.1868  0.1594
  620MOL0     C85476   2.747  11.188   0.699 -0.3933 -0.2570  0.7403
  620MOL0     C85477   2.649  11.061   0.256  0.8130  0.2095 -0.3120
  620MOL0     C85478   2.612  10.926   0.277  0.4195 -0.8370  0.0491
  620MOL0     C85479   2.542  10.867   0.165  0.0742 -0.2076  0.5215
  620MOL0     C85480   2.521  10.936   0.041  0.0886  0.2966  0.2378
  620MOL0     O85481   2.444  10.861  -0.053  0.0415 -0.6435  0.3449
  620MOL0     C85482   2.417  10.910  -0.185 -0.6814 -0.4382  0.7265
  620MOL0     C85483   2.310  11.011  -0.197 -0.6858 -0.1417  0.2918
  620MOL0     C85484   2.205  10.969  -0.095  1.0050  0.3956 -0.1186
  620MOL0     C85485   2.067  11.034  -0.112 -0.3431 -0.3355  0.1028
  620MOL0     C85486   1.985  10.950  -0.201 -0.2977 -0.9980  0.4678
  620MOL0     C85487   1.929  10.884  -0.284  0.7007 -0.4822 -0.1883
  620MOL0     C85488   2.558  11.070   0.025 -0.1976 -0.2327  0.0319
  620MOL0     C85489   2.620  11.130   0.133 -0.2639  1.0830 -0.2488
  620MOL0     C85490   2.664  11.271   0.115 -0.1949 -0.2349  0.4855
  620MOL0     H85491   2.933  10.963   0.532  1.2539 -0.0759  0.2333
  620MOL0     H85492   3.073  10.993   0.732  0.6326  1.9025 -1.3689
  620MOL0     H85493   3.182  11.144   0.840 -2.0947  3.2174 -0.3676
  620MOL0     H85494   3.169  11.021   0.961  1.9255  1.0284  1.8608
  620MOL0     H85495   3.145  11.197   1.129 -1.3606  1.1668 -0.2685
  620MOL0     H85496   3.306  11.179   1.051 -0.8540 -0.2044 -0.8401
  620MOL0     H85497   3.123  11.410   0.975 -0.3430  1.4913  2.6340
  620MOL0     H85498   3.226  11.419   1.108 -0.5933  3.5221 -1.3718
  620MOL0     H85499   3.428  11.340   0.932  1.1375  1.9364  0.5698
  620MOL0     H85500   3.309  11.390   0.815  1.0614 -2.6750 -0.1820
  620MOL0     H85501   3.448  11.566   1.008 -0.6184 -0.3347  0.4400
  620MOL0     H85502   3.295  11.610   0.934 -0.5286 -0.3997 -2.6301
  620MOL0     H85503   3.567  11.544   0.798 -0.3223  1.8925 -0.4288
  620MOL0     H85504   3.419  11.544   0.702  1.1531  0.0997 -0.4142
  620MOL0     H85505   3.379  11.765   0.741  0.4339 -0.7245 -5.2470
  620MOL0     H85506   3.531  11.743   0.664  0.1142 -1.2401 -0.6270
  620MOL0     H85507   3.509  11.860   0.935  1.0196 -1.6827  1.6284
  620MOL0     H85508   3.652  11.760   0.897 -0.2400  0.4802  1.0601
  620MOL0     H85509   3.449  12.072   0.843 -0.4809  2.4845 -0.7818
  620MOL0     H85510   3.696  12.356   0.724 -0.6620  3.2359  2.6754
  620MOL0     H85511   3.584  12.321   0.854  2.1905 -1.1539  0.1720
  620MOL0     H85512   3.494  12.310   0.566  0.0894 -2.3783  0.7395
  620MOL0     H85513   3.394  12.323   0.707 -0.2743 -0.8598 -2.4432
  620MOL0     H85514   3.381  12.550   0.624  0.0522  0.6749  0.8622
  620MOL0     H85515   3.448  12.544   0.774 -2.0126  1.9620 -1.6649
  620MOL0     H85516   3.671  12.556   0.675  1.6419  3.1323 -0.9023
  620MOL0     H85517   3.621  12.543   0.517  2.3489  1.4641 -0.2729
  620MOL0     H85518   3.498  12.974   0.582  0.6968  1.7941  0.5783
  620MOL0     H85519   3.345  13.173   0.781 -0.4453 -1.6857 -1.8482
  620MOL0     H85520   3.427  13.173   0.636 -3.7614 -0.1663  0.8645
  620MOL0     H85521   3.510  13.250   0.758 -0.1305 -1.2319  0.6423
  620MOL0     H85522   3.609  12.962   1.372  2.1490 -1.0453 -3.3202
  620MOL0     H85523   3.633  13.109   1.588  0.2883  3.2189  1.5681
  620MOL0     H85524   3.775  13.497   1.549 -0.9767 -2.1706 -1.9893
  620MOL0     H85525   3.624  13.574   1.524  0.8743  1.4344 -0.6989
  620MOL0     H85526   3.768  13.519   1.781 -0.2151 -1.9280 -0.1168
  620MOL0     H85527   3.720  13.673   1.716  0.9598 -0.7712 -0.1106
  620MOL0     H85528   3.582  13.460   1.866  1.3959 -0.0619 -0.1413
  620MOL0     H85529   3.478  13.521   1.743 -1.9192 -1.0114  2.8959
  620MOL0     H85530   3.498  13.755   1.824 -0.8618 -0.8267 -1.0714
  620MOL0     H85531   3.592  13.686   1.957 -2.0825 -1.8791  3.3047
  620MOL0     H85532   3.300  13.622   1.916 -0.3200 -2.4345 -0.0934
  620MOL0     H85533   3.407  13.567   2.047  1.8451  2.5946  1.1562
  620MOL0     H85534   3.382  13.858   1.971 -2.2931 -0.1353 -0.0762
  620MOL0     H85535   3.433  13.793   2.117  0.4948 -0.8879 -1.1100
  620MOL0     H85536   3.193  13.685   2.131 -0.3349 -0.8827 -1.5551
  620MOL0     H85537   3.143  13.780   1.997  0.2312  1.7295 -1.2839
  620MOL0     H85538   3.210  13.907   2.260 -1.5024  1.1726  0.7931
  620MOL0     H85539   3.062  13.924   2.171 -0.1495  1.1262 -0.8941
  620MOL0     H85540   3.681  13.456   1.347  2.2072  0.7383 -0.8698
  620MOL0     H85541   3.671  13.319   1.148 -0.2016 -2.3954 -1.0124
  620MOL0     H85542   3.693  12.865   1.009  0.3534  1.1676 -0.0405
  620MOL0     H85543   3.690  12.691   0.841 -0.8344 -0.0181  3.0195
  620MOL0     H85544   2.782  11.254   0.902  0.7769  1.1932 -1.4783
  620MOL0     H85545   2.660  11.251   0.680  0.1819  0.2482 -0.2699
  620MOL0     H85546   2.630  10.872   0.369 -2.3271 -0.2152  1.0553
  620MOL0     H85547   2.501  10.768   0.182  0.3269 -0.0274  2.3923
  620MOL0     H85548   2.508  10.959  -0.221 -1.0565 -0.4304 -0.2654
  620MOL0     H85549   2.401  10.831  -0.259 -0.6109  0.0156  0.2185
  620MOL0     H85550   2.267  11.024  -0.297 -4.5522  1.7762  2.0029
  620MOL0     H85551   2.353  11.110  -0.178  0.6847 -0.8887  1.2527
  620MOL0     H85552   2.194  10.864  -0.124  0.1843  0.2391  0.7200
  620MOL0     H85553   2.232  10.984   0.009 -2.3876  1.6740  0.7122
  620MOL0     H85554   2.056  11.134  -0.155 -1.9903 -0.6104 -0.1870
  620MOL0     H85555   2.032  11.040  -0.009 -0.9227  0.0035 -0.1063
  620MOL0     H85556   1.851  10.822  -0.324 -0.2203  0.1565  0.5797
  620MOL0     H85557   2.517  11.132  -0.054  2.0119 -2.7966 -3.4233
  620MOL0     H85558   2.625  11.310   0.020 -0.5144 -1.9858 -0.1385
  620MOL0     H85559   2.620  11.339   0.188  0.1212  1.7456 -1.0897
  620MOL0     H85560   2.773  11.268   0.104 -0.4118 -2.7670 -2.1608
  621MOL0     O85561   2.715   3.392   9.266  0.3875  0.8084  0.3277
  621MOL0     C85562   2.795   3.405   9.359 -0.7728  0.2858  0.2863
  621MOL0     O85563   2.873   3.517   9.374 -0.1391 -0.6297 -0.2910
  621MOL0     C85564   2.833   3.625   9.298 -0.2893 -0.1840 -0.1238
  621MOL0     C85565   2.706   3.690   9.302 -0.7858  0.5921  0.7690
  621MOL0     C85566   2.677   3.796   9.217 -0.3231 -0.1598  0.3633
  621MOL0     C85567   2.779   3.848   9.142  0.6370 -0.7055 -0.6021
  621MOL0     O85568   2.737   3.962   9.070 -0.3468  0.3394  0.7629
  621MOL0     C85569   2.824   4.031   8.979  0.0008 -0.4475  1.0460
  621MOL0     C85570   2.830   4.177   9.035 -0.2218  0.0264 -0.0921
  621MOL0     C85571   2.845   4.199   9.182  0.1092  0.0787 -0.3738
  621MOL0     C85572   2.831   4.343   9.218 -0.0288 -0.0720 -0.2880
  621MOL0     C85573   2.852   4.374   9.369  0.3767 -0.6700  0.4829
  621MOL0     C85574   2.805   4.506   9.424 -0.0081  0.3024 -0.7693
  621MOL0     C85575   2.870   4.630   9.358  0.6202  0.0976 -0.2683
  621MOL0     C85576   3.016   4.640   9.398  0.6435 -0.7322  0.7353
  621MOL0     N85577   3.077   4.760   9.331 -0.1474 -0.2924 -0.3069
  621MOL0     C85578   3.065   4.891   9.364 -0.8820 -0.1971 -0.0795
  621MOL0     C85579   3.167   4.947   9.298 -0.3244  0.2718  0.8154
  621MOL0     C85580   3.229   5.082   9.308  0.2470  0.1233  0.2837
  621MOL0     C85581   3.122   5.200   9.329 -0.1366  0.4963 -0.0374
  621MOL0     C85582   3.163   5.347   9.339 -0.2439  0.3429  0.1296
  621MOL0     C85583   3.250   5.366   9.465  0.4454 -1.4119 -1.1558
  621MOL0     O85584   3.297   5.507   9.474  0.1204 -0.0778  0.1037
  621MOL0     C85585   3.213   5.613   9.491 -0.2769 -0.5510 -1.2583
  621MOL0     C85586   3.230   5.733   9.412 -0.1829  0.4864 -0.8503
  621MOL0     C85587   3.147   5.841   9.425  0.2018  0.3427 -0.2092
  621MOL0     C85588   3.170   5.960   9.331  0.1853  0.3416  0.0046
  621MOL0     C85589   3.057   5.856   9.533  0.4066  0.5650 -0.6454
  621MOL0     C85590   2.964   5.972   9.550 -0.6237  0.0646 -1.0681
  621MOL0     O85591   2.939   5.999   9.683 -0.0337 -0.5971 -0.0158
  621MOL0     C85592   2.830   6.075   9.715 -0.5178 -0.0766 -0.4686
  621MOL0     C85593   2.808   6.202   9.666 -0.2382  0.3479 -0.2706
  621MOL0     C85594   2.701   6.278   9.719  0.1869  0.2430  0.3466
  621MOL0     C85595   2.611   6.231   9.812 -0.4841  0.4430  0.0256
  621MOL0     O85596   2.504   6.302   9.852 -0.5800 -0.1926  0.7028
  621MOL0     C85597   2.461   6.424   9.785  0.5603 -0.1806 -0.3193
  621MOL0     C85598   2.377   6.391   9.670  0.2105  0.6656 -0.0839
  621MOL0     C85599   2.295   6.511   9.615  0.2376 -0.2717  0.2234
  621MOL0     C85600   2.178   6.547   9.703 -0.5103  0.1606 -0.8746
  621MOL0     C85601   2.099   6.657   9.647  0.5669  0.1532  0.5842
  621MOL0     C85602   2.178   6.787   9.635 -0.1629 -0.2198 -0.8694
  621MOL0     C85603   2.099   6.917   9.631  0.1717 -0.6486 -0.1815
  621MOL0     C85604   2.009   6.916   9.505 -0.2231 -0.0835  0.6121
  621MOL0    Cl85605   2.103   6.915   9.347  0.1576  0.1504 -0.1103
  621MOL0     C85606   2.635   6.118   9.870 -0.9123  0.8321 -0.5013
  621MOL0     C85607   2.746   6.034   9.828 -0.1307  0.7963  0.3950
  621MOL0     O85608   2.914   6.034   9.457  0.1065 -0.0520  0.1126
  621MOL0     C85609   3.036   5.743   9.611  0.2309  0.3083  0.2392
  621MOL0     C85610   3.111   5.617   9.588  1.5907 -0.0862  0.0796
  621MOL0     N85611   3.206   4.852   9.203 -0.2118  0.1052  0.0413
  621MOL0     N85612   3.145   4.742   9.216  0.5294  0.0535  0.3260
  621MOL0     C85613   2.908   3.797   9.128 -0.3950  0.9681 -0.4770
  621MOL0     C85614   2.927   3.669   9.201  0.4462  0.0181 -0.1248
  621MOL0     C85615   2.798   3.295   9.467 -0.0299 -0.2927 -0.2442
  621MOL0     C85616   2.879   3.316   9.584  0.2721  0.5230 -0.1130
  621MOL0     C85617   2.881   3.233   9.694  0.3426 -0.1768 -0.1155
  621MOL0     C85618   2.787   3.134   9.702  0.9378 -0.5299  0.1152
  621MOL0     O85619   2.788   3.049   9.814 -0.2767  0.3412  0.5249
  621MOL0     C85620   2.680   2.967   9.856 -0.3975  0.5761 -0.3213
  621MOL0     C85621   2.554   3.062   9.887 -0.6651  0.2984 -0.2691
  621MOL0     C85622   2.588   3.146  10.007  0.5847 -0.3056 -1.0587
  621MOL0     C85623   2.554   3.086  10.145  0.2650 -0.2133  0.3863
  621MOL0     C85624   2.415   3.035  10.138  0.0462 -0.3808  0.4839
  621MOL0     C85625   2.302   3.001  10.143 -0.1009 -0.4155  0.1718
  621MOL0     C85626   2.716   3.101   9.586 -0.2083  0.6755  0.3556
  621MOL0     C85627   2.713   3.184   9.474  0.1179 -0.6138  0.0695
  621MOL0     C85628   2.603   3.165   9.369  0.2286  0.1865  0.0404
  621MOL0     H85629   2.627   3.653   9.366  1.2422 -1.9472  2.0228
  621MOL0     H85630   2.580   3.844   9.210 -0.0746  0.3433  0.2967
  621MOL0     H85631   2.780   4.042   8.879 -1.2495 -3.0475  1.2392
  621MOL0     H85632   2.926   3.992   8.975  0.7109  1.2733  1.5412
  621MOL0     H85633   2.917   4.230   8.995  0.1870  0.8010  1.7164
  621MOL0     H85634   2.751   4.242   8.995  0.6044  2.4087  1.8732
  621MOL0     H85635   2.773   4.140   9.239  0.0972  0.4945  0.0547
  621MOL0     H85636   2.942   4.158   9.212  0.2142  1.4078  1.2942
  621MOL0     H85637   2.904   4.400   9.160 -0.4881  0.5763 -0.2390
  621MOL0     H85638   2.734   4.380   9.184  1.1725  0.5232 -3.4274
  621MOL0     H85639   2.961   4.371   9.375  0.5889  0.1967 -1.9517
  621MOL0     H85640   2.802   4.301   9.434 -1.1295  0.5461  0.7559
  621MOL0     H85641   2.696   4.512   9.411  0.2459  2.0979 -2.6609
  621MOL0     H85642   2.832   4.517   9.529  1.5000 -1.4803 -0.9313
  621MOL0     H85643   2.823   4.722   9.394  2.2927  0.7108  0.4087
  621MOL0     H85644   2.864   4.622   9.249 -1.6911  0.3767 -0.2180
  621MOL0     H85645   3.030   4.643   9.506  0.0360  0.7882  0.8068
  621MOL0     H85646   3.085   4.563   9.363  1.1476  0.1279 -0.2304
  621MOL0     H85647   3.000   4.938   9.437  0.0175  1.6778 -0.4054
  621MOL0     H85648   3.277   5.092   9.210 -1.9795  0.3276 -0.8488
  621MOL0     H85649   3.317   5.086   9.373  2.6463  3.9886 -2.7358
  621MOL0     H85650   3.054   5.190   9.244 -1.4170 -3.7928  1.2406
  621MOL0     H85651   3.060   5.182   9.418 -0.3323  1.8857  0.1331
  621MOL0     H85652   3.215   5.368   9.245  1.6457  1.4276  1.3591
  621MOL0     H85653   3.070   5.404   9.349 -0.4168 -0.0925  1.2114
  621MOL0     H85654   3.209   5.343   9.564  3.2049 -1.9541 -0.0355
  621MOL0     H85655   3.349   5.320   9.457  1.6032  1.1389 -2.9666
  621MOL0     H85656   3.314   5.730   9.343  0.1322  1.8650 -0.5588
  621MOL0     H85657   3.267   5.946   9.282 -0.1424 -2.2344 -0.0100
  621MOL0     H85658   3.172   6.057   9.383  3.9722  0.8633 -0.7896
  621MOL0     H85659   3.112   5.968   9.238  0.4091 -0.6792 -0.2317
  621MOL0     H85660   2.888   6.239   9.603  2.8159 -0.2764  2.9017
  621MOL0     H85661   2.687   6.378   9.681  1.8725  1.3022  2.3658
  621MOL0     H85662   2.391   6.470   9.855 -0.4351 -1.9148 -0.1139
  621MOL0     H85663   2.540   6.491   9.750  0.2899  0.9581  1.1930
  621MOL0     H85664   2.442   6.349   9.592  0.8122 -4.0128  2.5681
  621MOL0     H85665   2.315   6.304   9.693 -2.2951  1.9537 -1.5456
  621MOL0     H85666   2.267   6.500   9.510  0.4157 -0.9253  0.2399
  621MOL0     H85667   2.370   6.590   9.607  0.4734 -0.6927 -4.0516
  621MOL0     H85668   2.208   6.572   9.805 -0.5705 -2.1400 -0.2406
  621MOL0     H85669   2.112   6.460   9.707 -1.3162  0.8041  0.2036
  621MOL0     H85670   2.071   6.618   9.549  1.3194  1.9922 -0.3899
  621MOL0     H85671   1.998   6.659   9.691 -1.7502  0.1037 -4.1456
  621MOL0     H85672   2.241   6.784   9.545  1.1662 -1.2391  0.0618
  621MOL0     H85673   2.255   6.797   9.712 -0.2902  2.8461 -1.0063
  621MOL0     H85674   2.161   7.007   9.631 -0.6270 -0.0489  1.5441
  621MOL0     H85675   2.025   6.932   9.710 -0.4002 -1.6610 -0.5066
  621MOL0     H85676   1.947   7.005   9.498 -1.7459 -0.9665  2.0730
  621MOL0     H85677   1.937   6.833   9.505 -0.8773  0.4490  2.1465
  621MOL0     H85678   2.572   6.101   9.956  2.3722  0.8525  2.0822
  621MOL0     H85679   2.777   5.940   9.873  0.0095  1.2296  1.2184
  621MOL0     H85680   2.964   5.744   9.692  1.4622 -0.5262  1.4008
  621MOL0     H85681   3.093   5.533   9.655  1.2661 -0.2822 -0.2492
  621MOL0     H85682   2.982   3.822   9.054  1.7461  1.4525  1.7162
  621MOL0     H85683   3.013   3.606   9.182  0.9218 -0.6097  3.4246
  621MOL0     H85684   2.958   3.391   9.583  1.5936 -0.8239 -0.9517
  621MOL0     H85685   2.939   3.233   9.786  1.9330 -2.1300 -1.0387
  621MOL0     H85686   2.654   2.909   9.768 -0.5761  2.5458 -1.6320
  621MOL0     H85687   2.718   2.908   9.940 -0.2756  2.3132  0.8972
  621MOL0     H85688   2.460   3.006   9.888 -0.5785 -0.0912  4.0202
  621MOL0     H85689   2.555   3.128   9.799  2.3843  1.1182  0.2813
  621MOL0     H85690   2.695   3.168  10.000  0.5820  0.5604  0.9521
  621MOL0     H85691   2.538   3.243   9.998  0.1331 -0.4850 -0.5663
  621MOL0     H85692   2.545   3.153  10.231 -1.7906 -2.0037  1.6509
  621MOL0     H85693   2.636   3.016  10.160 -0.5805 -1.0914  1.0463
  621MOL0     H85694   2.198   2.976  10.147 -0.6654  1.8708  1.2515
  621MOL0     H85695   2.648   3.017   9.576  3.3378 -2.1547 -2.4832
  621MOL0     H85696   2.561   3.064   9.379 -0.4649  0.3998 -0.6374
  621MOL0     H85697   2.525   3.240   9.385  0.5602  0.1131  2.2755
  621MOL0     H85698   2.646   3.158   9.269  0.1356  0.6260 -0.0293
  622MOL0     O85699   0.198   6.315   8.720  0.1328 -0.3904 -0.2656
  622MOL0     C85700   0.183   6.316   8.596  0.7085  0.8812  0.3783
  622MOL0     O85701   0.168   6.202   8.519 -0.5327 -1.1333 -0.7093
  622MOL0     C85702   0.137   6.071   8.554 -0.8797  0.6626  0.0545
  622MOL0     C85703   0.102   6.030   8.688 -0.3100  0.1409  0.1505
  622MOL0     C85704   0.046   5.908   8.714  0.3451  0.1627  0.2712
  622MOL0     C85705   0.031   5.817   8.610  0.0668  0.0477  0.8119
  622MOL0     O85706  -0.017   5.687   8.626  0.4170 -0.1184  0.1987
  622MOL0     C85707  -0.110   5.667   8.733 -0.4085  1.0922 -0.7618
  622MOL0     C85708  -0.165   5.528   8.701 -0.8795  1.0807  0.0455
  622MOL0     C85709  -0.057   5.410   8.696 -0.5057 -0.3488  0.4818
  622MOL0     C85710  -0.141   5.273   8.699  0.1918 -0.4064 -0.6113
  622MOL0     C85711  -0.063   5.145   8.662 -0.9567 -0.1335 -0.4953
  622MOL0     C85712   0.023   5.091   8.775  0.1966  0.6707 -1.0268
  622MOL0     C85713   0.088   4.959   8.756 -0.4706 -0.1984  0.7373
  622MOL0     C85714  -0.017   4.852   8.781 -0.1787 -0.1452 -0.1335
  622MOL0     N85715   0.027   4.710   8.767 -0.6791  0.4008 -0.8753
  622MOL0     C85716   0.028   4.645   8.648 -0.5251 -0.2694  0.3698
  622MOL0     C85717   0.074   4.523   8.683 -0.3819 -0.1718  0.2221
  622MOL0     C85718   0.113   4.415   8.597 -0.0884  0.3888 -0.0286
  622MOL0     C85719   0.264   4.399   8.588 -0.4516 -0.6261  0.6593
  622MOL0     C85720   0.322   4.353   8.445  1.0415 -0.5592  0.1427
  622MOL0     C85721   0.309   4.452   8.323 -0.2500 -0.0147 -0.2454
  622MOL0     O85722   0.173   4.453   8.281  0.2205 -0.0721 -0.3905
  622MOL0     C85723   0.118   4.580   8.261  0.1773 -0.1734 -0.0943
  622MOL0     C85724   0.183   4.704   8.239 -0.2563  1.1592 -0.5962
  622MOL0     C85725   0.121   4.828   8.226 -0.1941 -0.5356  0.0670
  622MOL0     C85726   0.211   4.950   8.215 -0.1002  0.3028 -0.2255
  622MOL0     C85727  -0.023   4.830   8.218  0.2652  0.5452  0.0567
  622MOL0     C85728  -0.102   4.955   8.207 -0.0006  0.2365 -0.5601
  622MOL0     O85729  -0.073   5.065   8.121  0.6600  0.5158  0.7391
  622MOL0     C85730  -0.116   5.187   8.140 -0.0873  0.3928  1.1123
  622MOL0     C85731  -0.019   5.284   8.144 -0.6661 -0.1302  0.4805
  622MOL0     C85732  -0.063   5.424   8.147  0.6840  0.6364 -0.3549
  622MOL0     C85733  -0.197   5.456   8.149  0.6957 -1.0634 -0.7158
  622MOL0     O85734  -0.263   5.585   8.165 -0.5250  0.1652  0.3306
  622MOL0     C85735  -0.178   5.698   8.168  0.6598 -0.2339  0.0920
  622MOL0     C85736  -0.266   5.814   8.224 -0.3926 -0.1248 -0.3377
  622MOL0     C85737  -0.202   5.954   8.224 -0.5883 -0.0599  0.0088
  622MOL0     C85738  -0.139   6.010   8.095  0.3562  0.7778 -0.2316
  622MOL0     C85739  -0.077   6.147   8.127 -0.6056  0.9156  0.0550
  622MOL0     C85740  -0.031   6.219   8.002  0.4842  0.5653  0.1032
  622MOL0     C85741   0.025   6.360   8.033 -0.1085  0.0658 -0.1179
  622MOL0     C85742   0.045   6.435   7.900  0.0730  1.0513  0.0508
  622MOL0    Cl85743   0.116   6.587   7.952  0.0720 -0.0913  0.1384
  622MOL0     C85744  -0.288   5.357   8.171 -0.3913  1.1112  0.3031
  622MOL0     C85745  -0.257   5.218   8.162  0.6646  0.3587  0.8155
  622MOL0     O85746  -0.197   4.951   8.288 -0.2741 -0.2585 -0.0203
  622MOL0     C85747  -0.091   4.712   8.236  1.2007  0.5575  0.6639
  622MOL0     C85748  -0.020   4.593   8.273  0.2265  0.0541  0.6204
  622MOL0     N85749   0.087   4.524   8.820  0.6289  0.1104 -0.5909
  622MOL0     N85750   0.063   4.639   8.876  0.0886 -0.2676 -0.2948
  622MOL0     C85751   0.085   5.847   8.485 -0.1752 -0.6202 -0.1258
  622MOL0     C85752   0.140   5.979   8.450 -0.1627  0.2514 -0.2463
  622MOL0     C85753   0.170   6.453   8.527 -0.4218  0.5515 -0.3473
  622MOL0     C85754   0.119   6.446   8.401 -0.0002 -0.3446  0.0559
  622MOL0     C85755   0.081   6.562   8.339 -0.1650 -0.3191 -0.5363
  622MOL0     C85756   0.104   6.696   8.394  0.7936 -0.0740  0.0520
  622MOL0     O85757   0.049   6.803   8.328 -0.0911 -0.1976  0.2223
  622MOL0     C85758   0.112   6.931   8.346 -0.3757  0.7416  0.1078
  622MOL0     C85759   0.111   7.012   8.214  0.6262  0.1045 -0.2391
  622MOL0     C85760  -0.011   6.993   8.122 -0.4203  0.1877  0.4539
  622MOL0     C85761   0.024   7.070   7.991 -0.1088  0.2228 -0.6251
  622MOL0     C85762   0.042   7.213   8.012  0.2474 -0.6703  0.1514
  622MOL0     C85763   0.055   7.342   8.016 -0.6905  0.9824 -0.1757
  622MOL0     C85764   0.170   6.699   8.521  0.0261  0.8032 -0.0512
  622MOL0     C85765   0.194   6.581   8.583 -0.0703 -0.0104 -0.5022
  622MOL0     C85766   0.247   6.597   8.729 -0.0228 -0.7805  0.7943
  622MOL0     H85767   0.120   6.102   8.767  3.2391 -1.1132  0.6426
  622MOL0     H85768   0.015   5.887   8.816 -0.4057  0.7603  0.1666
  622MOL0     H85769  -0.192   5.738   8.743 -1.6517 -0.2711 -0.9116
  622MOL0     H85770  -0.063   5.658   8.832 -2.5350  0.5051  0.2666
  622MOL0     H85771  -0.232   5.503   8.784 -0.9670  3.5811  0.8007
  622MOL0     H85772  -0.226   5.545   8.612 -0.3868 -1.0529 -0.7647
  622MOL0     H85773   0.002   5.424   8.605  1.3075  1.7042  1.8729
  622MOL0     H85774   0.012   5.396   8.780 -1.9629 -1.8520  1.4942
  622MOL0     H85775  -0.207   5.282   8.786 -3.1549  2.0027 -3.1160
  622MOL0     H85776  -0.214   5.272   8.618 -1.8144 -2.7615  1.1015
  622MOL0     H85777   0.011   5.152   8.582  0.7576  1.7276  1.1250
  622MOL0     H85778  -0.133   5.068   8.627  1.3194 -2.5459 -0.0421
  622MOL0     H85779   0.090   5.173   8.802 -3.3739  3.7136 -0.5403
  622MOL0     H85780  -0.040   5.076   8.863  1.4286 -0.4684 -0.2960
  622MOL0     H85781   0.176   4.951   8.819  0.1341 -2.3924 -0.2910
  622MOL0     H85782   0.116   4.953   8.650  1.9439  0.3207  1.2997
  622MOL0     H85783  -0.046   4.861   8.886  1.1625  3.2267  0.0799
  622MOL0     H85784  -0.104   4.867   8.717  0.7880 -0.4458 -1.5713
  622MOL0     H85785  -0.001   4.677   8.548 -2.0286 -0.8047  0.6021
  622MOL0     H85786   0.067   4.434   8.499 -0.5313  0.1443  0.1297
  622MOL0     H85787   0.075   4.313   8.607  2.2535 -0.4034  1.5281
  622MOL0     H85788   0.313   4.493   8.617  1.9323 -1.6624  0.1922
  622MOL0     H85789   0.311   4.329   8.657 -1.1951  0.1140  1.9660
  622MOL0     H85790   0.427   4.339   8.474  1.1190  0.6400  0.4833
  622MOL0     H85791   0.283   4.253   8.421  0.3849 -0.4600  0.7578
  622MOL0     H85792   0.365   4.539   8.358  2.6679 -1.0493 -1.9390
  622MOL0     H85793   0.362   4.407   8.238  1.9008  1.9470 -0.0496
  622MOL0     H85794   0.292   4.701   8.245 -0.2231 -3.5272  0.8382
  622MOL0     H85795   0.151   5.030   8.262 -2.4868  1.3797 -4.5507
  622MOL0     H85796   0.222   4.973   8.109  0.9269 -3.2695 -1.0125
  622MOL0     H85797   0.310   4.938   8.259  0.2251 -0.8405 -1.2257
  622MOL0     H85798   0.081   5.242   8.138 -0.6680  0.0806 -3.2304
  622MOL0     H85799   0.007   5.507   8.140 -0.0936  1.1971 -2.1176
  622MOL0     H85800  -0.095   5.687   8.239 -0.4601 -1.8201  1.2003
  622MOL0     H85801  -0.138   5.719   8.068 -1.0438  0.4286 -0.4722
  622MOL0     H85802  -0.359   5.826   8.169 -0.0878  3.9031 -0.3037
  622MOL0     H85803  -0.291   5.792   8.329  1.8205 -0.8816  0.1012
  622MOL0     H85804  -0.126   5.956   8.302 -1.6460  2.5884  1.1091
  622MOL0     H85805  -0.276   6.026   8.260 -1.2635 -0.6214 -0.2279
  622MOL0     H85806  -0.214   6.010   8.016 -0.6455 -2.6808  0.5383
  622MOL0     H85807  -0.062   5.940   8.060 -0.9640 -0.4708 -0.7740
  622MOL0     H85808  -0.143   6.220   8.175  0.2830  3.2594 -2.0777
  622MOL0     H85809   0.006   6.145   8.198 -2.1810  0.6656  1.9848
  622MOL0     H85810  -0.115   6.234   7.933 -0.0602 -1.3545  0.2658
  622MOL0     H85811   0.044   6.158   7.951  1.2623  0.1118  1.7249
  622MOL0     H85812   0.114   6.336   8.091  0.6918 -0.6447 -1.5928
  622MOL0     H85813  -0.035   6.430   8.092  2.2841  2.1042  0.0867
  622MOL0     H85814  -0.053   6.437   7.852  0.6797  1.6170 -1.2353
  622MOL0     H85815   0.128   6.388   7.845 -2.7301 -2.5861 -1.5022
  622MOL0     H85816  -0.393   5.375   8.191 -0.8213 -2.1819  1.6905
  622MOL0     H85817  -0.336   5.143   8.170 -1.6119  2.5936  0.5291
  622MOL0     H85818  -0.200   4.705   8.235  1.2879 -2.2336 -1.3720
  622MOL0     H85819  -0.083   4.508   8.299 -0.0691 -0.4350 -1.4792
  622MOL0     H85820   0.072   5.771   8.408 -0.7155  0.4695 -1.1423
  622MOL0     H85821   0.185   5.996   8.352 -0.3015 -2.5319 -0.8606
  622MOL0     H85822   0.098   6.353   8.349  5.3575  0.2979 -4.1388
  622MOL0     H85823   0.028   6.564   8.245 -1.5800  0.7149  0.2573
  622MOL0     H85824   0.058   6.983   8.425  0.6637  1.6093  0.2626
  622MOL0     H85825   0.215   6.930   8.382 -0.4227  1.4082  0.2638
  622MOL0     H85826   0.205   7.001   8.160  1.9228  2.1634  1.4353
  622MOL0     H85827   0.109   7.118   8.243 -0.7682  0.0077  0.0938
  622MOL0     H85828  -0.030   6.894   8.080 -1.8668  0.5825  0.1324
  622MOL0     H85829  -0.101   7.031   8.171  0.0285 -0.8451  2.1835
  622MOL0     H85830  -0.057   7.051   7.920 -0.7699 -2.9136  0.8431
  622MOL0     H85831   0.104   7.022   7.934  0.1402  0.5259 -0.5349
  622MOL0     H85832   0.078   7.446   8.029  4.0072 -0.0736  2.3805
  622MOL0     H85833   0.186   6.795   8.569 -0.1126 -0.3345  2.4108
  622MOL0     H85834   0.296   6.695   8.736 -0.6225 -0.6111  3.9005
  622MOL0     H85835   0.160   6.587   8.795  1.1506 -1.2578  2.3351
  622MOL0     H85836   0.321   6.520   8.751 -0.2121 -0.2408  3.8661
  623MOL0     O85837   2.275   1.852  10.530 -0.3529 -0.3888  0.1313
  623MOL0     C85838   2.225   1.944  10.597 -0.6353  0.0442 -0.0639
  623MOL0     O85839   2.288   2.024  10.681 -0.1695 -0.5704 -0.5978
  623MOL0     C85840   2.416   2.010  10.739  0.0956 -0.4981  0.8568
  623MOL0     C85841   2.490   2.123  10.776  0.0702  0.3372  0.2525
  623MOL0     C85842   2.611   2.127  10.841 -0.8892 -0.7386 -0.0345
  623MOL0     C85843   2.681   2.008  10.854 -0.7128  0.6043 -0.3723
  623MOL0     O85844   2.818   2.027  10.889 -0.6696  0.2089  0.2933
  623MOL0     C85845   2.882   1.924  10.973  0.6271 -0.1173  0.4898
  623MOL0     C85846   2.819   1.918  11.115  0.1112 -0.1429  0.2831
  623MOL0     C85847   2.850   1.779  11.171 -0.9125 -0.2253 -0.0505
  623MOL0     C85848   2.812   1.773  11.317  0.0917 -1.4271  0.9229
  623MOL0     C85849   2.815   1.630  11.352  0.1086  0.5961  0.2423
  623MOL0     C85850   2.804   1.609  11.501 -0.0574  0.3955 -0.3104
  623MOL0     C85851   2.795   1.460  11.554 -0.2481 -0.6642  0.2697
  623MOL0     C85852   2.665   1.395  11.497  0.0987 -0.3534 -0.2562
  623MOL0     N85853   2.654   1.255  11.552  0.4038 -0.4763 -0.5001
  623MOL0     C85854   2.701   1.140  11.486 -0.7806  0.3633  0.7858
  623MOL0     C85855   2.660   1.043  11.571  0.5950 -0.5658 -0.5287
  623MOL0     C85856   2.654   0.902  11.531  0.6400  0.3597  0.1991
  623MOL0     C85857   2.750   0.817  11.611 -0.5090 -0.6834  0.4539
  623MOL0     C85858   2.900   0.857  11.602 -0.1827 -1.0158 -0.2292
  623MOL0     C85859   2.954   0.857  11.464  0.1779 -1.1195 -0.0866
  623MOL0     O85860   3.069   0.938  11.459 -0.7404  0.8035  0.5515
  623MOL0     C85861   3.158   0.889  11.367 -0.0572 -0.1211  0.6335
  623MOL0     C85862   3.189   0.948  11.246 -0.1618  0.2595  0.2117
  623MOL0     C85863   3.299   0.903  11.170 -0.2857  0.1749 -1.3842
  623MOL0     C85864   3.325   0.978  11.041 -0.1537 -0.9391 -0.5254
  623MOL0     C85865   3.378   0.793  11.217 -1.1653  0.3047 -0.7371
  623MOL0     C85866   3.508   0.756  11.146 -0.9332  0.5056 -0.6185
  623MOL0     O85867   3.587   0.662  11.213  0.7286  0.0349  0.9090
  623MOL0     C85868   3.707   0.649  11.151 -0.8133 -0.4121  0.5539
  623MOL0     C85869   3.803   0.748  11.159  0.1613 -0.3326 -0.2976
  623MOL0     C85870   3.935   0.738  11.107  0.6192 -0.1569 -0.1604
  623MOL0     C85871   3.972   0.613  11.033  0.3218  0.1446  0.6642
  623MOL0     O85872   4.103   0.604  10.990 -0.7272 -0.5753 -0.4537
  623MOL0     C85873   4.170   0.479  10.960 -0.1004  1.1178  0.5574
  623MOL0     C85874   4.315   0.523  10.963  0.4371  0.7490  0.3090
  623MOL0     C85875   4.401   0.388  10.951  1.0760 -0.3954  0.5803
  623MOL0     C85876   4.546   0.420  10.943 -0.6864 -0.1094 -0.5217
  623MOL0     C85877   4.638   0.297  10.961  0.0441  0.0173  0.0763
  623MOL0     C85878   4.644   0.234  11.102 -0.2247  0.7675  1.0445
  623MOL0     C85879   4.756   0.135  11.117  0.1221 -0.0992  0.2932
  623MOL0     C85880   4.875   0.183  11.188  0.5038  0.5031  0.3801
  623MOL0    Cl85881   4.847   0.138  11.363  0.0212 -0.3113  0.0003
  623MOL0     C85882   3.874   0.516  11.022 -0.7249  0.0754 -0.7403
  623MOL0     C85883   3.748   0.533  11.073  0.6952 -0.5605 -0.5942
  623MOL0     O85884   3.529   0.799  11.038 -0.9359  0.5640 -0.3348
  623MOL0     C85885   3.328   0.716  11.326  0.1097 -0.4516 -1.5151
  623MOL0     C85886   3.220   0.771  11.395 -0.3954  0.4745  0.7923
  623MOL0     N85887   2.601   1.108  11.679 -0.0440  0.8459  0.4542
  623MOL0     N85888   2.588   1.233  11.670  0.7131 -0.0606 -0.9158
  623MOL0     C85889   2.616   1.890  10.825 -0.0715 -0.2393  0.0401
  623MOL0     C85890   2.486   1.893  10.759  0.4904  0.3226 -0.3394
  623MOL0     C85891   2.077   1.959  10.590 -0.2237  0.3253 -0.5458
  623MOL0     C85892   2.014   2.057  10.670  0.1804 -0.8652  0.7423
  623MOL0     C85893   1.878   2.082  10.666 -0.1227  0.0280 -0.1497
  623MOL0     C85894   1.793   2.008  10.581  0.4593  0.5304  0.9650
  623MOL0     O85895   1.662   2.045  10.578 -0.1634 -1.0760  0.2166
  623MOL0     C85896   1.556   1.950  10.538  1.1540 -1.0204 -0.8341
  623MOL0     C85897   1.428   2.029  10.546  0.6593  0.1598 -1.0467
  623MOL0     C85898   1.316   1.934  10.501  0.7973  0.5959 -0.4527
  623MOL0     C85899   1.184   2.015  10.473 -0.2789 -0.6783 -0.2230
  623MOL0     C85900   1.067   1.935  10.464 -0.3492 -0.3373  0.2034
  623MOL0     C85901   0.963   1.879  10.468  0.2397 -0.3451  0.1443
  623MOL0     C85902   1.844   1.900  10.510 -0.0673  0.6077 -0.4694
  623MOL0     C85903   1.985   1.873  10.516  0.2290  0.8583  0.2827
  623MOL0     C85904   2.034   1.741  10.453  0.6316  0.7378 -0.0870
  623MOL0     H85905   2.437   2.216  10.761 -0.6643 -0.2567 -1.0024
  623MOL0     H85906   2.656   2.224  10.862 -1.6919 -0.9676  3.2576
  623MOL0     H85907   2.987   1.947  10.993  0.3307  0.5903  1.2882
  623MOL0     H85908   2.881   1.827  10.922  0.6185  1.8082 -3.4939
  623MOL0     H85909   2.859   1.996  11.181 -0.1452 -0.2992  0.6280
  623MOL0     H85910   2.711   1.937  11.112  0.4064  1.8641  1.0006
  623MOL0     H85911   2.795   1.710  11.107  0.6798 -0.7613 -0.8993
  623MOL0     H85912   2.957   1.758  11.167 -0.2955  2.5263 -0.0319
  623MOL0     H85913   2.884   1.833  11.375 -1.0605  0.3420  0.6115
  623MOL0     H85914   2.711   1.814  11.323  0.2495 -0.7284 -0.6146
  623MOL0     H85915   2.907   1.589  11.309  0.0129  1.1944 -0.5533
  623MOL0     H85916   2.732   1.571  11.313  0.7226 -1.0026  1.2483
  623MOL0     H85917   2.879   1.673  11.549 -0.2519 -0.2403  0.8774
  623MOL0     H85918   2.712   1.648  11.545 -0.7504 -0.3057 -1.0985
  623MOL0     H85919   2.803   1.465  11.663 -0.2202 -0.0688  0.2440
  623MOL0     H85920   2.880   1.404  11.514 -0.0296 -0.1063 -0.0632
  623MOL0     H85921   2.581   1.457  11.530  0.1579 -1.7772  2.9353
  623MOL0     H85922   2.655   1.380  11.389 -0.5895 -2.2751  0.0318
  623MOL0     H85923   2.749   1.136  11.389 -0.4626 -0.3483  0.9626
  623MOL0     H85924   2.682   0.899  11.425  1.5026  2.3234  0.3226
  623MOL0     H85925   2.557   0.853  11.546  2.0808 -2.6269  0.4773
  623MOL0     H85926   2.713   0.799  11.713  0.6022 -2.1287  0.6330
  623MOL0     H85927   2.742   0.717  11.567  0.6734 -2.5025  3.9381
  623MOL0     H85928   2.913   0.955  11.649 -3.5139  1.1616 -3.3441
  623MOL0     H85929   2.961   0.788  11.661  0.1364 -0.6532 -0.1309
  623MOL0     H85930   2.986   0.755  11.445 -0.4382 -1.3153 -0.1088
  623MOL0     H85931   2.890   0.889  11.381  3.2833  0.8142 -1.9463
  623MOL0     H85932   3.134   1.026  11.195 -0.9339 -0.7904 -0.6164
  623MOL0     H85933   3.312   0.921  10.949 -2.7221  0.0305 -0.8448
  623MOL0     H85934   3.423   1.028  11.040 -0.9256  0.6710 -0.0766
  623MOL0     H85935   3.265   1.070  11.044  2.4443  0.8767  0.4145
  623MOL0     H85936   3.775   0.832  11.222 -2.8054 -1.2987 -0.1699
  623MOL0     H85937   3.999   0.825  11.117  0.3415  0.0358 -0.0554
  623MOL0     H85938   4.144   0.409  11.040 -2.8792  0.0579 -1.1365
  623MOL0     H85939   4.147   0.437  10.862  1.4855  1.7547 -0.1324
  623MOL0     H85940   4.329   0.592  10.879  0.9507  0.1466 -0.1146
  623MOL0     H85941   4.339   0.583  11.051  5.0104  0.5647 -0.5542
  623MOL0     H85942   4.386   0.336  10.855  2.2076 -1.9306  1.1820
  623MOL0     H85943   4.373   0.326  11.037 -0.4765 -1.6333 -0.7385
  623MOL0     H85944   4.580   0.500  11.010 -0.6294  1.1334 -1.9708
  623MOL0     H85945   4.568   0.463  10.845 -0.5454  0.1379 -0.3833
  623MOL0     H85946   4.611   0.227  10.881  2.5819  1.8708 -2.6569
  623MOL0     H85947   4.733   0.323  10.913  0.7150 -1.7469  0.3470
  623MOL0     H85948   4.547   0.185  11.119 -1.0611  1.8451 -0.4078
  623MOL0     H85949   4.645   0.305  11.185 -2.9318  2.8780 -0.5555
  623MOL0     H85950   4.776   0.106  11.013  1.5163 -0.0615  0.5385
  623MOL0     H85951   4.709   0.046  11.161 -1.7602 -1.2050 -3.4833
  623MOL0     H85952   4.877   0.292  11.182 -1.5673  0.5548 -0.0981
  623MOL0     H85953   4.958   0.124  11.146 -1.2313 -2.1290  0.4041
  623MOL0     H85954   3.904   0.421  10.981  0.3550  0.2354 -0.3552
  623MOL0     H85955   3.675   0.455  11.052  0.2716 -0.1892 -0.5037
  623MOL0     H85956   3.388   0.641  11.377 -1.6967 -0.7405  0.2835
  623MOL0     H85957   3.188   0.712  11.480 -1.4304 -3.1477 -1.8384
  623MOL0     H85958   2.669   1.801  10.857  1.6485  1.4816  2.2933
  623MOL0     H85959   2.441   1.800  10.727  2.1348 -0.4112 -0.6417
  623MOL0     H85960   2.068   2.119  10.740  2.0725 -0.6665 -0.7951
  623MOL0     H85961   1.828   2.160  10.723  2.2945  2.3374 -0.9843
  623MOL0     H85962   1.564   1.894  10.444  0.2825 -1.1935 -0.8115
  623MOL0     H85963   1.553   1.869  10.612  0.6559 -1.2166 -1.0673
  623MOL0     H85964   1.418   2.112  10.476 -3.9560  0.9473  0.1676
  623MOL0     H85965   1.422   2.059  10.651  0.8226 -0.9090 -0.7189
  623MOL0     H85966   1.343   1.899  10.401  1.7675 -3.0833  0.9459
  623MOL0     H85967   1.296   1.856  10.575 -3.7973 -0.6464 -2.6493
  623MOL0     H85968   1.188   2.067  10.377  2.4945  0.1939  0.2749
  623MOL0     H85969   1.161   2.100  10.538 -1.4463  0.7773 -2.4460
  623MOL0     H85970   0.869   1.828  10.472  1.4296 -2.5749  2.3438
  623MOL0     H85971   1.770   1.851  10.448 -0.2895 -0.0522  0.2987
  623MOL0     H85972   1.945   1.686  10.421  0.5665 -1.3657  3.2578
  623MOL0     H85973   2.090   1.764  10.361 -0.0744  0.9740 -0.4682
  623MOL0     H85974   2.092   1.682  10.525 -0.6004 -0.2948  0.1019
  624MOL0     O85975   1.836   3.271  11.077 -0.6677  0.0662  0.3528
  624MOL0     C85976   1.926   3.264  11.160  0.0469  0.0299  0.1612
  624MOL0     O85977   2.044   3.203  11.137  1.0038  0.3596 -0.1684
  624MOL0     C85978   2.063   3.145  11.017  0.5445  0.5504 -0.2182
  624MOL0     C85979   2.110   3.225  10.907 -0.4427  0.6925  0.1208
  624MOL0     C85980   2.123   3.161  10.778 -0.4112  0.5933  0.2105
  624MOL0     C85981   2.077   3.033  10.764 -0.7340 -0.4364 -0.1977
  624MOL0     O85982   2.104   2.972  10.633  0.5798  0.7228 -0.2017
  624MOL0     C85983   2.070   2.831  10.624 -0.5078 -0.2306 -0.9541
  624MOL0     C85984   2.084   2.781  10.479 -0.3535  0.2996 -0.3967
  624MOL0     C85985   2.146   2.641  10.467 -0.0167  0.1707 -0.7107
  624MOL0     C85986   2.045   2.519  10.452 -0.2034 -0.4994 -0.3554
  624MOL0     C85987   2.122   2.388  10.463 -0.0341  0.9916  0.4273
  624MOL0     C85988   2.176   2.342  10.322 -0.7294  0.4621 -0.0585
  624MOL0     C85989   2.161   2.189  10.315 -0.2300 -0.8189 -0.1546
  624MOL0     C85990   2.250   2.124  10.209 -1.0526  0.3375  0.1548
  624MOL0     N85991   2.392   2.157  10.248 -0.3079  0.6553 -0.2626
  624MOL0     C85992   2.451   2.138  10.367  0.7012  0.1541 -0.1641
  624MOL0     C85993   2.577   2.178  10.344 -0.2320 -1.0141  0.0281
  624MOL0     C85994   2.682   2.151  10.451  0.3726  0.0170 -0.1514
  624MOL0     C85995   2.818   2.138  10.379 -0.1779 -0.0555 -0.2110
  624MOL0     C85996   2.939   2.137  10.473 -0.2471 -0.0028 -2.0723
  624MOL0     C85997   2.924   2.237  10.587 -0.4394 -0.0226  0.1716
  624MOL0     O85998   2.906   2.371  10.538  1.4238  0.3609  0.0268
  624MOL0     C85999   3.002   2.435  10.479 -1.2893 -0.9501  0.6045
  624MOL0     C86000   2.962   2.535  10.388 -0.8171  0.0928  0.2746
  624MOL0     C86001   3.053   2.608  10.310  0.2550 -0.0685  0.2580
  624MOL0     C86002   2.992   2.678  10.186 -0.3634  0.5331 -0.2320
  624MOL0     C86003   3.184   2.595  10.336 -0.8826  0.5035 -0.0852
  624MOL0     C86004   3.297   2.673  10.265 -1.0568 -0.0620  0.5952
  624MOL0     O86005   3.420   2.618  10.265 -1.3379 -0.1769 -0.8870
  624MOL0     C86006   3.535   2.694  10.233  0.5000 -0.1372 -0.1418
  624MOL0     C86007   3.559   2.711  10.098 -0.1060  0.3475  0.2559
  624MOL0     C86008   3.651   2.821  10.066  0.8470  0.8382  0.8200
  624MOL0     C86009   3.727   2.886  10.161 -0.3438 -0.2530  0.1185
  624MOL0     O86010   3.816   2.985  10.135 -0.6106 -0.8977  0.7259
  624MOL0     C86011   3.837   3.034  10.000 -0.8986  0.4994  0.0800
  624MOL0     C86012   3.954   3.137  10.016 -0.3609  0.0436 -0.3286
  624MOL0     C86013   4.086   3.061  10.039  0.3888 -0.5723 -0.0845
  624MOL0     C86014   4.203   3.157  10.062 -0.5424  1.0788 -0.0328
  624MOL0     C86015   4.315   3.123   9.957  0.7352  0.6345 -0.2591
  624MOL0     C86016   4.270   3.154   9.814 -0.1376  0.4031 -0.6133
  624MOL0     C86017   4.386   3.156   9.716  0.1943  0.3078 -0.3969
  624MOL0     C86018   4.355   3.166   9.562 -0.6549  0.4980 -0.4050
  624MOL0    Cl86019   4.286   3.330   9.541  0.2367  0.1508 -0.4020
  624MOL0     C86020   3.710   2.860  10.296  0.9649 -0.0605 -0.0603
  624MOL0     C86021   3.615   2.763  10.329 -0.0608 -0.1848 -0.1383
  624MOL0     O86022   3.272   2.774  10.209  0.3829  0.3392 -0.6837
  624MOL0     C86023   3.230   2.499  10.420  0.5202  0.5754 -0.1898
  624MOL0     C86024   3.141   2.417  10.491 -0.4267  0.3674 -0.8516
  624MOL0     N86025   2.588   2.252  10.230 -0.5271  1.2060  0.6000
  624MOL0     N86026   2.475   2.230  10.162 -0.6632  0.1648  0.2136
  624MOL0     C86027   2.013   2.968  10.868 -0.6543  1.2546  0.3450
  624MOL0     C86028   2.014   3.016  10.998 -0.3799  0.9767 -1.4236
  624MOL0     C86029   1.897   3.309  11.296 -1.2678  0.5926 -0.7659
  624MOL0     C86030   1.772   3.367  11.317 -0.2174  0.7474 -0.9069
  624MOL0     C86031   1.741   3.442  11.430 -0.3562  0.3935 -1.6614
  624MOL0     C86032   1.837   3.449  11.530  0.7644  0.2347  0.3198
  624MOL0     O86033   1.803   3.511  11.647  0.0475  0.4532  0.4199
  624MOL0     C86034   1.877   3.628  11.693 -0.0418  0.5480  0.3103
  624MOL0     C86035   1.884   3.627  11.849  0.6163  0.9090  0.1506
  624MOL0     C86036   1.962   3.749  11.904 -0.0109  0.3857 -0.5996
  624MOL0     C86037   1.881   3.880  11.908  0.3433  0.2482 -0.4038
  624MOL0     C86038   1.933   3.990  11.986 -0.6387  0.6578 -0.7971
  624MOL0     C86039   1.979   4.065  12.072 -0.0612  0.7306 -1.1732
  624MOL0     C86040   1.960   3.393  11.512  0.7774 -0.4052 -0.0555
  624MOL0     C86041   1.997   3.325  11.395  0.3283 -0.2939  0.2067
  624MOL0     C86042   2.136   3.272  11.384  0.5140  0.3233 -0.0748
  624MOL0     H86043   2.136   3.328  10.932  0.1249  0.7710 -0.7493
  624MOL0     H86044   2.189   3.200  10.700 -1.5208 -0.4406 -1.2996
  624MOL0     H86045   1.967   2.821  10.658  0.3436  1.3435  2.5357
  624MOL0     H86046   2.134   2.782  10.698  0.3793  1.1078 -0.8088
  624MOL0     H86047   1.987   2.787  10.429 -0.9406  1.5541  0.8382
  624MOL0     H86048   2.159   2.843  10.429 -0.1334  0.0517 -0.3742
  624MOL0     H86049   2.207   2.639  10.376 -0.4245  2.4710 -1.0781
  624MOL0     H86050   2.215   2.618  10.549 -0.2774  3.1211  0.4651
  624MOL0     H86051   1.971   2.519  10.533  3.6739  2.2185  3.6634
  624MOL0     H86052   1.980   2.517  10.364 -2.3867 -1.9002  1.1848
  624MOL0     H86053   2.057   2.308  10.500 -0.5385  0.6090 -1.1839
  624MOL0     H86054   2.209   2.401  10.529  0.2988  1.2453 -0.0554
  624MOL0     H86055   2.124   2.382  10.235  0.9501  2.0702 -0.3934
  624MOL0     H86056   2.276   2.383  10.302 -1.6153  3.4720  1.1982
  624MOL0     H86057   2.057   2.160  10.294  0.2297 -4.0286  1.3333
  624MOL0     H86058   2.182   2.138  10.410 -1.6622  0.5466  0.9458
  624MOL0     H86059   2.243   2.016  10.196  0.8935  0.2420 -0.4572
  624MOL0     H86060   2.232   2.157  10.106  2.1739 -1.2945 -1.0789
  624MOL0     H86061   2.410   2.068  10.439 -2.1482  1.2325 -0.6206
  624MOL0     H86062   2.676   2.062  10.515  3.9978  1.6700  2.8980
  624MOL0     H86063   2.665   2.234  10.520 -4.7147 -1.3104  0.5978
  624MOL0     H86064   2.828   2.047  10.320  2.5054 -0.5174  0.8046
  624MOL0     H86065   2.831   2.222  10.311 -3.1635  1.3777  0.7846
  624MOL0     H86066   2.945   2.036  10.517  2.2198  0.5484 -0.9305
  624MOL0     H86067   3.031   2.152  10.415  1.2993 -0.1391  0.2020
  624MOL0     H86068   2.842   2.203  10.651 -0.1043  1.4175  1.4132
  624MOL0     H86069   3.016   2.226  10.645 -0.2745  2.0097  0.3381
  624MOL0     H86070   2.855   2.536  10.368 -0.3943 -0.4915 -2.2703
  624MOL0     H86071   2.974   2.781  10.218 -0.0867  0.7166 -0.6472
  624MOL0     H86072   2.895   2.632  10.164  0.2241 -0.7681 -0.2016
  624MOL0     H86073   3.054   2.676  10.096  4.1845  0.6904  2.5539
  624MOL0     H86074   3.485   2.668  10.030 -0.8587 -0.5132  1.5664
  624MOL0     H86075   3.664   2.842   9.960 -0.5895  3.3128  1.0575
  624MOL0     H86076   3.867   2.963   9.923 -0.7006  1.5902 -0.8688
  624MOL0     H86077   3.749   3.087   9.963  0.7812  0.8563 -3.9840
  624MOL0     H86078   3.953   3.219   9.943 -2.3661  1.0497  0.7423
  624MOL0     H86079   3.928   3.204  10.099  2.6558  0.0956  0.7275
  624MOL0     H86080   4.094   3.005   9.945  0.6834 -2.1747  0.8770
  624MOL0     H86081   4.085   2.987  10.119  1.7229 -1.7331 -1.0690
  624MOL0     H86082   4.240   3.148  10.164  1.0076 -2.3489 -0.7811
  624MOL0     H86083   4.169   3.260  10.046 -0.8003  0.9535 -0.3001
  624MOL0     H86084   4.403   3.181   9.986  0.3094  0.3296  1.8294
  624MOL0     H86085   4.343   3.018   9.966 -1.9238 -0.1661 -0.4486
  624MOL0     H86086   4.231   3.256   9.811 -0.8940  0.3788  3.4872
  624MOL0     H86087   4.199   3.083   9.772  0.7832  0.0998 -1.7099
  624MOL0     H86088   4.421   3.053   9.730  1.2537  0.8830  1.5217
  624MOL0     H86089   4.458   3.227   9.758 -1.1405 -0.1268  2.9951
  624MOL0     H86090   4.285   3.091   9.523  0.5393 -1.8168  1.5968
  624MOL0     H86091   4.447   3.156   9.503 -1.2151 -0.6900 -1.1187
  624MOL0     H86092   3.759   2.911  10.378  1.1057 -0.8800  0.3791
  624MOL0     H86093   3.597   2.737  10.432  0.3109  0.4377  0.0887
  624MOL0     H86094   3.337   2.488  10.436  0.2208 -1.1193  0.9178
  624MOL0     H86095   3.174   2.329  10.546  1.6059  1.0539 -0.8901
  624MOL0     H86096   1.971   2.868  10.862  0.4631  0.8708 -2.6062
  624MOL0     H86097   1.974   2.953  11.077  1.9367  0.6191 -0.4426
  624MOL0     H86098   1.704   3.377  11.233 -1.1206  1.0220 -0.1649
  624MOL0     H86099   1.637   3.471  11.440 -0.9161 -1.1952 -2.6415
  624MOL0     H86100   1.980   3.640  11.660  0.7414  0.3509  2.4842
  624MOL0     H86101   1.824   3.714  11.652  0.1547  0.5929  0.1515
  624MOL0     H86102   1.938   3.537  11.880 -2.5329 -1.3311 -0.4614
  624MOL0     H86103   1.782   3.624  11.887  0.2810 -2.7098 -0.7250
  624MOL0     H86104   1.976   3.721  12.008  3.0868  0.2123 -0.9556
  624MOL0     H86105   2.063   3.756  11.862  1.2114 -0.3359  2.0092
  624MOL0     H86106   1.788   3.870  11.964 -0.0952  0.9227 -1.0001
  624MOL0     H86107   1.875   3.917  11.806  0.4328 -0.1168 -0.5445
  624MOL0     H86108   2.014   4.133  12.147 -0.3043 -0.5907  0.1644
  624MOL0     H86109   2.021   3.381  11.600 -2.5232 -2.2679  2.2087
  624MOL0     H86110   2.147   3.163  11.384  0.3017  0.2059 -3.1726
  624MOL0     H86111   2.190   3.314  11.298  2.3963 -1.7811 -0.0294
  624MOL0     H86112   2.199   3.306  11.466  0.3115 -1.1826  0.7483
  625MOL0     O86113   9.314   0.331   7.979 -0.4321  0.2100 -0.0303
  625MOL0     C86114   9.333   0.404   7.881 -0.2486 -0.4302 -0.3355
  625MOL0     O86115   9.393   0.361   7.765  0.4486 -0.2749  0.4279
  625MOL0     C86116   9.434   0.229   7.759 -0.5670 -1.7113 -0.2934
  625MOL0     C86117   9.352   0.119   7.769  0.4085  0.8275  0.1735
  625MOL0     C86118   9.399  -0.004   7.752 -1.0742 -0.5474 -0.0659
  625MOL0     C86119   9.539  -0.028   7.721 -0.4454  0.5651  0.6482
  625MOL0     O86120   9.581  -0.159   7.691 -0.2220  0.6049  0.1347
  625MOL0     C86121   9.713  -0.180   7.645  0.4510  0.6703  0.6943
  625MOL0     C86122   9.718  -0.326   7.597 -0.2716  0.3486  0.4106
  625MOL0     C86123   9.639  -0.353   7.463 -0.7902  0.0597  0.7533
  625MOL0     C86124   9.618  -0.502   7.449  0.6501  0.2100 -0.5421
  625MOL0     C86125   9.527  -0.568   7.552 -0.2667  0.1626 -0.1957
  625MOL0     C86126   9.383  -0.519   7.544 -0.0356  0.6809 -0.1136
  625MOL0     C86127   9.331  -0.561   7.406  0.1546  0.0732 -0.3560
  625MOL0     C86128   9.336  -0.454   7.298  0.6628  0.7838 -0.1969
  625MOL0     N86129   9.288  -0.504   7.170 -0.3978  0.0526 -0.0566
  625MOL0     C86130   9.355  -0.589   7.096 -0.4547 -0.3524  0.0767
  625MOL0     C86131   9.255  -0.658   7.017  0.0001 -0.7874 -0.2223
  625MOL0     C86132   9.272  -0.767   6.915  0.4269  0.1012 -0.9759
  625MOL0     C86133   9.412  -0.840   6.917  1.0824 -0.1511 -0.6409
  625MOL0     C86134   9.398  -0.966   6.831  0.0809  0.0453  0.7192
  625MOL0     C86135   9.533  -1.046   6.805  0.0517  0.0925 -0.0933
  625MOL0     O86136   9.628  -0.952   6.749 -0.0760 -0.2475  0.1637
  625MOL0     C86137   9.754  -0.998   6.747 -0.7110  0.0612  0.7298
  625MOL0     C86138   9.801  -1.122   6.786  0.6317  1.4288  0.5615
  625MOL0     C86139   9.933  -1.158   6.777 -0.9334  0.6287 -0.2497
  625MOL0     C86140   9.979  -1.284   6.846  0.1097 -0.3016  0.4756
  625MOL0     C86141  10.027  -1.060   6.729 -0.2273  0.1818 -1.4956
  625MOL0     C86142  10.177  -1.083   6.718 -0.8307  0.7895 -0.6392
  625MOL0     O86143  10.228  -1.214   6.732 -0.2713  0.1232  1.1708
  625MOL0     C86144  10.355  -1.245   6.760 -0.4678 -0.0443  0.4029
  625MOL0     C86145  10.420  -1.189   6.872 -0.4694 -0.9310 -0.2237
  625MOL0     C86146  10.554  -1.227   6.911 -0.0391 -0.5855 -0.2679
  625MOL0     C86147  10.619  -1.334   6.833 -0.3344 -0.2435  0.0189
  625MOL0     O86148  10.757  -1.348   6.869  0.2388 -0.3334 -0.1853
  625MOL0     C86149  10.826  -1.455   6.796  0.7039 -1.0051 -0.5305
  625MOL0     C86150  10.962  -1.471   6.849 -0.4170  0.7224  0.1210
  625MOL0     C86151  11.042  -1.344   6.865 -0.3341  1.5200  0.1103
  625MOL0     C86152  11.183  -1.392   6.918  0.4538  0.8126  0.0746
  625MOL0     C86153  11.277  -1.462   6.818 -0.1286 -0.1659  0.2655
  625MOL0     C86154  11.416  -1.471   6.861 -0.3152 -0.4349 -0.7787
  625MOL0     C86155  11.506  -1.367   6.818  1.1106 -0.2065  0.1883
  625MOL0     C86156  11.637  -1.421   6.788  0.0373 -0.0131 -0.5690
  625MOL0    Cl86157  11.723  -1.489   6.929  0.2601  0.5337  0.2862
  625MOL0     C86158  10.555  -1.387   6.719 -0.7474 -0.8077  0.0227
  625MOL0     C86159  10.429  -1.340   6.684  0.3621 -0.5430  0.7230
  625MOL0     O86160  10.251  -0.987   6.710 -0.1065 -0.5090  0.0829
  625MOL0     C86161   9.977  -0.945   6.678 -0.5559  0.5710  0.0247
  625MOL0     C86162   9.843  -0.914   6.677  0.2404 -0.9481 -0.2895
  625MOL0     N86163   9.131  -0.603   7.059 -0.8533  0.6524  0.2879
  625MOL0     N86164   9.154  -0.510   7.148 -0.6853 -0.0438  0.5228
  625MOL0     C86165   9.622   0.080   7.727  0.5533 -0.1501  0.8355
  625MOL0     C86166   9.570   0.209   7.748 -1.1348  0.0008 -0.4056
  625MOL0     C86167   9.303   0.557   7.882  0.7256 -0.1968 -0.2515
  625MOL0     C86168   9.336   0.634   7.758 -0.1006  0.6309  0.2578
  625MOL0     C86169   9.308   0.774   7.760 -0.0072  0.4641 -0.2875
  625MOL0     C86170   9.241   0.835   7.866 -0.1459 -0.0938 -0.3859
  625MOL0     O86171   9.203   0.965   7.863  0.3467 -0.4083 -0.0524
  625MOL0     C86172   9.304   1.063   7.842  1.1073 -0.1085 -0.0683
  625MOL0     C86173   9.235   1.201   7.863  0.1364  0.8709 -0.1306
  625MOL0     C86174   9.164   1.210   8.002 -0.4148 -0.0620  0.8997
  625MOL0     C86175   9.268   1.196   8.116  0.1028 -0.1666 -0.6368
  625MOL0     C86176   9.221   1.226   8.251  0.3955 -0.1173  0.9003
  625MOL0     C86177   9.179   1.263   8.359  1.0832  0.5973  0.7558
  625MOL0     C86178   9.220   0.757   7.980  0.1812 -0.8468  0.2150
  625MOL0     C86179   9.244   0.624   7.992  0.6180 -1.0949 -0.5583
  625MOL0     C86180   9.202   0.556   8.127 -0.1932  0.7470 -0.2544
  625MOL0     H86181   9.246   0.128   7.791 -0.0158 -2.3085 -0.1775
  625MOL0     H86182   9.335  -0.091   7.761 -0.3285 -1.0160  0.7894
  625MOL0     H86183   9.786  -0.169   7.726  0.5004 -0.7434  0.8664
  625MOL0     H86184   9.735  -0.118   7.558 -4.3469  1.6403 -0.0631
  625MOL0     H86185   9.821  -0.358   7.578  1.0868  3.4762  1.7496
  625MOL0     H86186   9.677  -0.389   7.676  1.3614 -3.3458 -1.4363
  625MOL0     H86187   9.547  -0.294   7.466 -0.6271  0.3164  0.7416
  625MOL0     H86188   9.701  -0.323   7.378  0.4478  0.4057  1.7431
  625MOL0     H86189   9.585  -0.528   7.348 -1.9094 -1.9949  0.7438
  625MOL0     H86190   9.711  -0.560   7.452  0.4777 -0.1505 -1.7701
  625MOL0     H86191   9.557  -0.546   7.655  2.7486 -2.0406 -0.4854
  625MOL0     H86192   9.533  -0.677   7.552  1.3599  0.2257  0.5576
  625MOL0     H86193   9.333  -0.580   7.619 -1.0619  0.5210 -0.9111
  625MOL0     H86194   9.376  -0.412   7.566  1.0333  0.2608  2.6660
  625MOL0     H86195   9.230  -0.595   7.428  1.0995 -2.2539  0.7614
  625MOL0     H86196   9.385  -0.652   7.377  3.7359  2.0560 -0.5911
  625MOL0     H86197   9.279  -0.365   7.324 -2.5197 -1.0037 -0.4899
  625MOL0     H86198   9.435  -0.409   7.283  0.4826  2.5436  3.0162
  625MOL0     H86199   9.457  -0.621   7.115 -0.5653 -0.3295  0.7395
  625MOL0     H86200   9.250  -0.728   6.815  0.4925  2.4043 -0.1416
  625MOL0     H86201   9.202  -0.847   6.939  0.4001  0.6430  0.9391
  625MOL0     H86202   9.498  -0.791   6.870 -0.4225 -0.9146 -4.6257
  625MOL0     H86203   9.444  -0.866   7.018  0.4359 -1.1221 -0.6699
  625MOL0     H86204   9.321  -1.034   6.867 -0.8538  0.5844 -0.2195
  625MOL0     H86205   9.368  -0.922   6.736 -1.3954 -1.0663  0.6383
  625MOL0     H86206   9.567  -1.089   6.900 -0.1659 -0.5799 -0.3146
  625MOL0     H86207   9.524  -1.121   6.726 -1.2331 -2.1177  2.0039
  625MOL0     H86208   9.740  -1.199   6.833  2.0736  0.7732  1.4076
  625MOL0     H86209  10.075  -1.256   6.891  1.1091 -0.7186 -1.3197
  625MOL0     H86210   9.992  -1.365   6.774 -1.4266  0.5525 -0.8281
  625MOL0     H86211   9.911  -1.318   6.924 -0.7849 -1.4396 -0.7577
  625MOL0     H86212  10.361  -1.114   6.924  1.8404  0.5657  0.3461
  625MOL0     H86213  10.611  -1.180   6.991 -0.0909 -1.7037  0.4406
  625MOL0     H86214  10.789  -1.556   6.815 -0.7871 -0.3438  0.2599
  625MOL0     H86215  10.838  -1.423   6.692 -0.9125  0.0433 -0.4334
  625MOL0     H86216  10.954  -1.529   6.942 -2.1160 -1.2525 -1.1708
  625MOL0     H86217  11.010  -1.544   6.784 -1.0242  1.4423 -1.1693
  625MOL0     H86218  10.999  -1.280   6.943  1.9248  1.9135  1.1320
  625MOL0     H86219  11.040  -1.294   6.768  2.0513  0.5527 -0.5136
  625MOL0     H86220  11.174  -1.463   7.002 -3.4806  0.8327 -0.1359
  625MOL0     H86221  11.232  -1.303   6.959  0.1118 -0.1794  2.9147
  625MOL0     H86222  11.255  -1.569   6.819  3.3438 -1.0594  3.3507
  625MOL0     H86223  11.263  -1.420   6.718  2.9731 -0.8306 -0.5348
  625MOL0     H86224  11.461  -1.561   6.819  2.9164  0.0589  1.2347
  625MOL0     H86225  11.419  -1.486   6.970 -0.1423  0.6932 -0.6212
  625MOL0     H86226  11.510  -1.288   6.892 -3.2085  1.0824 -0.6593
  625MOL0     H86227  11.468  -1.314   6.730  2.0551  0.3874  0.1284
  625MOL0     H86228  11.688  -1.331   6.752 -1.7314 -0.4639 -4.8275
  625MOL0     H86229  11.657  -1.494   6.709  4.2417 -2.2812  2.2637
  625MOL0     H86230  10.600  -1.464   6.657  0.1868 -0.6206  0.4326
  625MOL0     H86231  10.382  -1.382   6.595  4.7674  2.1731 -3.3045
  625MOL0     H86232  10.041  -0.869   6.633 -0.5134  0.2900 -0.3956
  625MOL0     H86233   9.804  -0.828   6.625  2.7717 -0.7194 -1.9736
  625MOL0     H86234   9.729   0.058   7.723  0.6779  0.4373  0.8507
  625MOL0     H86235   9.642   0.290   7.753 -1.4353  0.3065 -0.8970
  625MOL0     H86236   9.382   0.581   7.676 -0.7565 -1.1799  0.9954
  625MOL0     H86237   9.335   0.834   7.673  0.3130 -0.0039 -0.5116
  625MOL0     H86238   9.380   1.051   7.921  1.9187 -2.4465 -1.1292
  625MOL0     H86239   9.342   1.051   7.741  1.7464 -1.0206  0.2664
  625MOL0     H86240   9.158   1.212   7.786 -0.6044 -2.2823  0.0070
  625MOL0     H86241   9.305   1.285   7.858  1.5822 -0.1577  1.6377
  625MOL0     H86242   9.112   1.307   8.002  0.9039  0.7274 -1.4464
  625MOL0     H86243   9.089   1.131   8.009 -1.3937  0.6491 -0.9401
  625MOL0     H86244   9.353   1.264   8.106  0.4636 -0.0961  2.1643
  625MOL0     H86245   9.289   1.089   8.123 -2.4879 -0.6087  3.2451
  625MOL0     H86246   9.162   1.323   8.446  0.5033  1.3030  0.1700
  625MOL0     H86247   9.157   0.811   8.050 -0.0065 -3.4440  2.1971
  625MOL0     H86248   9.167   0.629   8.201 -0.7746  1.4589 -1.2070
  625MOL0     H86249   9.122   0.486   8.099  0.2091  0.7055 -1.3382
  625MOL0     H86250   9.285   0.496   8.166 -1.2472 -1.0724 -0.6688
  626MOL0     O86251  11.098  11.107   9.417 -0.3426  1.5001 -0.4346
  626MOL0     C86252  11.073  11.224   9.458 -0.7057  0.1671  0.0123
  626MOL0     O86253  11.083  11.337   9.385 -0.5901 -0.1075 -0.0895
  626MOL0     C86254  11.114  11.327   9.254 -0.5388 -0.5773  0.4125
  626MOL0     C86255  11.007  11.304   9.162 -0.6774  0.6841 -0.1665
  626MOL0     C86256  11.027  11.290   9.031  0.2877  0.2660 -0.7542
  626MOL0     C86257  11.163  11.286   8.987 -0.8049  0.6083  0.1889
  626MOL0     O86258  11.206  11.269   8.856 -0.0792  0.2963  0.6836
  626MOL0     C86259  11.117  11.305   8.746 -0.6285  0.5650 -0.0766
  626MOL0     C86260  11.192  11.280   8.614  0.7691 -0.2337 -0.3620
  626MOL0     C86261  11.192  11.140   8.567  0.4305 -1.0951  0.5072
  626MOL0     C86262  11.309  11.111   8.471 -0.1832  0.7555  0.4201
  626MOL0     C86263  11.290  10.976   8.400  0.6166  0.0010  0.4630
  626MOL0     C86264  11.380  10.952   8.269 -0.8176 -0.1435 -0.5104
  626MOL0     C86265  11.373  11.069   8.166 -0.9726  0.1100 -0.1357
  626MOL0     C86266  11.231  11.077   8.118  0.1325  0.7047 -0.3092
  626MOL0     N86267  11.229  11.152   7.991 -0.5395  0.8116 -0.3838
  626MOL0     C86268  11.254  11.289   7.987 -0.5998 -0.6625  0.1200
  626MOL0     C86269  11.305  11.306   7.860 -0.6695 -0.5214 -1.1452
  626MOL0     C86270  11.347  11.431   7.799  0.1391  0.3000 -0.4249
  626MOL0     C86271  11.462  11.491   7.884 -0.3833  0.2895 -0.5832
  626MOL0     C86272  11.524  11.620   7.821 -0.4872 -0.1685  0.0720
  626MOL0     C86273  11.636  11.680   7.913 -0.0437 -0.0055 -0.9752
  626MOL0     O86274  11.738  11.579   7.915 -0.3022 -0.0295 -0.2028
  626MOL0     C86275  11.845  11.599   8.001 -0.2863  0.1669 -0.5957
  626MOL0     C86276  11.948  11.503   7.988 -0.0982  0.0833 -0.1363
  626MOL0     C86277  12.075  11.508   8.049 -0.1195 -0.5816  0.2443
  626MOL0     C86278  12.163  11.393   8.039  0.1951  0.1224 -0.2201
  626MOL0     C86279  12.098  11.620   8.135  0.1913  0.9173  0.1299
  626MOL0     C86280  12.228  11.648   8.206  0.6513 -0.8923  0.1854
  626MOL0     O86281  12.339  11.591   8.166  0.4549  0.0633 -0.2738
  626MOL0     C86282  12.465  11.625   8.206 -0.3641  0.0646  0.4193
  626MOL0     C86283  12.502  11.748   8.242 -0.0261 -0.0214 -0.2092
  626MOL0     C86284  12.637  11.769   8.272  0.9484 -0.7414  0.2801
  626MOL0     C86285  12.726  11.661   8.270 -0.6381  0.0831  0.4420
  626MOL0     O86286  12.862  11.661   8.282 -0.3010 -0.5515  0.2662
  626MOL0     C86287  12.913  11.790   8.321  0.2280  0.7634  0.3071
  626MOL0     C86288  13.068  11.768   8.336  1.0667  0.5847 -0.1298
  626MOL0     C86289  13.147  11.898   8.335 -0.3612 -0.3321 -0.2908
  626MOL0     C86290  13.188  11.933   8.193 -0.5519 -0.2078 -0.1044
  626MOL0     C86291  13.201  12.084   8.181 -0.5603 -0.2944 -0.9317
  626MOL0     C86292  13.290  12.165   8.269  0.3335  0.8690 -0.6112
  626MOL0     C86293  13.273  12.315   8.243  0.0532  0.4049  0.1899
  626MOL0     C86294  13.404  12.381   8.243 -0.6010  0.1328 -0.0963
  626MOL0    Cl86295  13.400  12.521   8.128  0.1830 -0.2839 -0.7024
  626MOL0     C86296  12.687  11.535   8.248  1.0846 -0.5525 -0.7939
  626MOL0     C86297  12.556  11.518   8.210  0.0826  0.4364  0.6859
  626MOL0     O86298  12.219  11.719   8.308  0.7740 -0.3545 -0.4972
  626MOL0     C86299  11.991  11.713   8.153 -0.7013 -0.0482 -0.3141
  626MOL0     C86300  11.865  11.693   8.101  0.3418 -0.7722  0.2273
  626MOL0     N86301  11.309  11.192   7.803 -1.3184  0.0484  0.4706
  626MOL0     N86302  11.263  11.099   7.874 -0.3186  0.8046 -0.1905
  626MOL0     C86303  11.268  11.294   9.079  0.3961 -0.3896  0.7366
  626MOL0     C86304  11.245  11.320   9.210  0.0759 -0.7799 -0.2724
  626MOL0     C86305  11.041  11.237   9.600  0.4193  1.1470 -0.2813
  626MOL0     C86306  11.081  11.132   9.687 -0.2630 -1.0444  0.0388
  626MOL0     C86307  11.042  11.124   9.822 -0.4067  0.6173 -0.4943
  626MOL0     C86308  10.964  11.217   9.880 -0.1467 -0.4192 -0.0103
  626MOL0     O86309  10.922  11.201  10.011  0.3260  0.0743  0.2252
  626MOL0     C86310  10.941  11.310  10.091  0.9129  0.3883 -0.2388
  626MOL0     C86311  10.998  11.259  10.218 -0.2880 -0.0671  0.2387
  626MOL0     C86312  10.974  11.356  10.333  0.0515 -0.0117  0.2125
  626MOL0     C86313  11.081  11.462  10.367  1.4506  0.3463 -0.4877
  626MOL0     C86314  11.107  11.567  10.269  0.4204 -0.5973  0.3427
  626MOL0     C86315  11.127  11.660  10.192  0.0042 -0.2268  0.6099
  626MOL0     C86316  10.930  11.322   9.800 -0.0411 -0.1866 -0.1974
  626MOL0     C86317  10.969  11.338   9.667 -0.8104  0.6110  0.0209
  626MOL0     C86318  10.923  11.457   9.591  0.1261  0.0892 -1.1973
  626MOL0     H86319  10.905  11.307   9.199 -1.0836  1.9330 -1.3167
  626MOL0     H86320  10.942  11.281   8.964 -1.0631 -0.4508  0.9750
  626MOL0     H86321  11.087  11.410   8.749 -5.9893 -0.7157 -0.4014
  626MOL0     H86322  11.027  11.244   8.752 -0.0656 -0.6048 -2.4209
  626MOL0     H86323  11.145  11.344   8.539  0.4158 -1.2408 -1.0158
  626MOL0     H86324  11.292  11.325   8.620  0.2298  0.8737  0.8858
  626MOL0     H86325  11.203  11.066   8.647  0.1324 -0.8205  0.8043
  626MOL0     H86326  11.095  11.127   8.518  0.6138  3.7342 -1.6174
  626MOL0     H86327  11.304  11.187   8.392 -1.8392 -0.3088 -0.5436
  626MOL0     H86328  11.410  11.113   8.513  2.2663  2.1643 -4.6420
  626MOL0     H86329  11.185  10.948   8.384 -0.1569  2.6930  0.3947
  626MOL0     H86330  11.320  10.899   8.471 -0.6025 -1.3388 -0.4142
  626MOL0     H86331  11.482  10.937   8.308 -2.1705 -3.1247  2.3586
  626MOL0     H86332  11.353  10.854   8.229 -3.8156  0.1363  0.5640
  626MOL0     H86333  11.448  11.057   8.088 -0.1016 -1.1310  0.8525
  626MOL0     H86334  11.402  11.162   8.217  1.2214 -0.2598 -0.6124
  626MOL0     H86335  11.189  10.979   8.095 -0.8004  1.3023 -1.2591
  626MOL0     H86336  11.169  11.116   8.200 -2.5092 -2.7056 -0.4539
  626MOL0     H86337  11.229  11.358   8.068 -0.9868 -3.0630  2.1702
  626MOL0     H86338  11.262  11.501   7.792 -1.2381 -1.1988  0.5715
  626MOL0     H86339  11.379  11.425   7.694 -0.0242 -1.0367 -0.4174
  626MOL0     H86340  11.409  11.513   7.977  1.0632  5.8745 -0.7362
  626MOL0     H86341  11.539  11.416   7.899 -0.6214  0.6501  3.5809
  626MOL0     H86342  11.561  11.586   7.723 -0.5478  4.7759 -1.9734
  626MOL0     H86343  11.440  11.689   7.819  0.2017  0.6887 -1.5169
  626MOL0     H86344  11.664  11.777   7.870 -0.5375  0.6301  0.0863
  626MOL0     H86345  11.594  11.703   8.012 -3.8756  1.4469 -2.7272
  626MOL0     H86346  11.930  11.426   7.913  0.5302  0.9568 -1.2182
  626MOL0     H86347  12.216  11.402   7.944 -1.3324 -1.0309 -1.2445
  626MOL0     H86348  12.115  11.294   8.033  1.4544 -0.6493  1.4891
  626MOL0     H86349  12.239  11.377   8.116  3.0239  2.0437 -2.4248
  626MOL0     H86350  12.430  11.828   8.245 -0.1697 -0.1361 -0.5156
  626MOL0     H86351  12.674  11.871   8.282 -0.3574 -0.2147 -0.1064
  626MOL0     H86352  12.902  11.867   8.244  0.4786  1.3715  0.8772
  626MOL0     H86353  12.874  11.817   8.419 -2.9711 -0.4868 -0.4727
  626MOL0     H86354  13.078  11.710   8.428 -4.2249 -1.8792 -0.7498
  626MOL0     H86355  13.101  11.699   8.257 -4.8610 -3.2026  0.1145
  626MOL0     H86356  13.236  11.882   8.398  0.3341 -1.4274 -1.5057
  626MOL0     H86357  13.072  11.968   8.374 -1.3742 -1.2293 -0.5908
  626MOL0     H86358  13.123  11.896   8.113  0.3995 -2.9545  0.3152
  626MOL0     H86359  13.290  11.895   8.183  0.1411  1.8968 -1.8296
  626MOL0     H86360  13.229  12.102   8.076 -0.2408  1.1172 -0.6234
  626MOL0     H86361  13.101  12.127   8.189 -0.2092  0.9167 -2.5064
  626MOL0     H86362  13.393  12.138   8.244  0.7371  2.0475 -0.3083
  626MOL0     H86363  13.278  12.144   8.376  2.6413  0.6041 -0.3669
  626MOL0     H86364  13.201  12.349   8.317 -3.2003 -1.9944 -1.6297
  626MOL0     H86365  13.227  12.334   8.145  0.3897 -0.0570 -0.0598
  626MOL0     H86366  13.496  12.326   8.221 -0.7813 -1.2174  2.1771
  626MOL0     H86367  13.418  12.423   8.343 -3.7742  0.2068  0.4192
  626MOL0     H86368  12.759  11.456   8.260 -0.9507 -2.4362 -0.2932
  626MOL0     H86369  12.520  11.421   8.175 -1.3190  0.7848  1.0964
  626MOL0     H86370  11.998  11.785   8.234 -0.1387  1.7232 -1.8391
  626MOL0     H86371  11.782  11.752   8.137 -0.2287 -1.0646 -0.5813
  626MOL0     H86372  11.370  11.291   9.041 -0.4556  2.1441 -2.1925
  626MOL0     H86373  11.330  11.317   9.278 -1.5049 -3.6253  1.8362
  626MOL0     H86374  11.152  11.060   9.648  2.3144  1.5561 -0.4310
  626MOL0     H86375  11.095  11.045   9.875 -0.3351  1.4637  0.7487
  626MOL0     H86376  11.016  11.376  10.047  1.7026 -1.4224 -1.7424
  626MOL0     H86377  10.841  11.354  10.095 -0.0773 -1.7265 -0.2766
  626MOL0     H86378  11.104  11.229  10.214 -0.2759 -0.2835  1.6672
  626MOL0     H86379  10.953  11.168  10.258  2.3290 -0.7654  1.8999
  626MOL0     H86380  10.883  11.416  10.319  1.8955  3.3931  1.6595
  626MOL0     H86381  10.961  11.294  10.422 -1.9242  1.2031  0.8239
  626MOL0     H86382  11.182  11.423  10.386  1.3101  0.0863 -0.2803
  626MOL0     H86383  11.041  11.509  10.457 -0.2340 -2.7880  0.5488
  626MOL0     H86384  11.152  11.739  10.124  0.6131  0.5523  1.7052
  626MOL0     H86385  10.850  11.386   9.836 -1.3885 -1.2891 -1.0950
  626MOL0     H86386  10.869  11.530   9.651  2.3631  0.3967  0.6018
  626MOL0     H86387  11.012  11.507   9.553  1.4922  0.8170  2.5092
  626MOL0     H86388  10.867  11.436   9.500 -1.1432 -2.0387 -0.0289
  627MOL0     O86389  10.072   0.188   2.434 -0.4339  0.8578 -0.9029
  627MOL0     C86390   9.988   0.203   2.351 -0.7142 -0.6983 -0.1741
  627MOL0     O86391   9.976   0.316   2.266 -0.2405  0.3440 -0.4467
  627MOL0     C86392  10.059   0.418   2.289 -0.3739 -0.3202  1.1902
  627MOL0     C86393  10.125   0.480   2.181  0.1227  0.9251  0.5685
  627MOL0     C86394  10.200   0.595   2.208  0.2428  0.1824 -0.0109
  627MOL0     C86395  10.202   0.648   2.332  0.4554  0.2952 -1.0226
  627MOL0     O86396  10.288   0.756   2.351 -0.0818 -0.8581  0.7025
  627MOL0     C86397  10.324   0.768   2.485  0.4026 -1.2986 -0.1953
  627MOL0     C86398  10.460   0.819   2.485 -0.5858 -0.3568 -0.4520
  627MOL0     C86399  10.499   0.912   2.374 -0.0194 -0.6002 -0.7097
  627MOL0     C86400  10.631   0.984   2.409  0.5069 -0.2341 -0.1759
  627MOL0     C86401  10.622   1.107   2.494  0.4106 -0.9633  0.8401
  627MOL0     C86402  10.585   1.213   2.399  1.2687 -0.6231 -1.3766
  627MOL0     C86403  10.581   1.358   2.448  0.7217 -0.1942  0.1529
  627MOL0     C86404  10.731   1.418   2.467  0.4794  0.9340  0.4079
  627MOL0     N86405  10.727   1.514   2.579  0.2624 -0.4610 -1.0255
  627MOL0     C86406  10.668   1.639   2.584  0.1090 -0.6838  0.3002
  627MOL0     C86407  10.671   1.672   2.714 -0.3623  0.4412  0.8046
  627MOL0     C86408  10.612   1.794   2.768 -0.0935  0.5531  0.4136
  627MOL0     C86409  10.694   1.856   2.882  0.2771 -0.3735  0.5740
  627MOL0     C86410  10.661   2.009   2.885 -0.7620  0.5944 -0.9617
  627MOL0     C86411  10.745   2.081   2.986  1.5053 -0.4944  0.0590
  627MOL0     O86412  10.871   2.087   2.931 -0.2338 -0.9662 -0.4952
  627MOL0     C86413  10.909   2.204   2.871 -0.7263 -1.0302 -0.0270
  627MOL0     C86414  11.050   2.219   2.869 -0.3094 -0.1048 -0.2219
  627MOL0     C86415  11.110   2.332   2.819 -0.4234  0.3159 -1.0186
  627MOL0     C86416  11.259   2.331   2.802  0.1625  0.0845  1.1571
  627MOL0     C86417  11.028   2.437   2.763  0.4118 -0.3610  0.2572
  627MOL0     C86418  11.093   2.550   2.693  0.4992 -0.5024  0.1091
  627MOL0     O86419  11.102   2.666   2.758 -0.3828  0.3185  0.7188
  627MOL0     C86420  11.120   2.774   2.681 -0.2160  0.4184 -0.9928
  627MOL0     C86421  11.066   2.790   2.554  1.2846 -0.2648  0.5159
  627MOL0     C86422  11.078   2.916   2.481 -1.3665 -0.0359 -0.2221
  627MOL0     C86423  11.139   3.030   2.537 -0.0981  0.3591  0.2389
  627MOL0     O86424  11.137   3.144   2.459 -0.9188  0.8889  0.0251
  627MOL0     C86425  11.174   3.267   2.527 -0.0799 -0.4866 -0.1132
  627MOL0     C86426  11.178   3.372   2.413 -0.5881  0.0791 -0.4634
  627MOL0     C86427  11.038   3.403   2.360 -0.2515  1.2707 -1.1176
  627MOL0     C86428  11.035   3.506   2.246 -0.3528 -0.2386 -0.7944
  627MOL0     C86429  10.899   3.540   2.208  0.3211 -1.1090  0.0666
  627MOL0     C86430  10.894   3.661   2.119  0.2792 -0.0754 -0.5884
  627MOL0     C86431  10.751   3.689   2.069 -0.7343  0.3524  0.7418
  627MOL0     C86432  10.745   3.813   1.989 -1.2538 -0.3400 -1.0016
  627MOL0    Cl86433  10.764   3.780   1.821 -0.3649  0.1861 -0.0274
  627MOL0     C86434  11.199   3.013   2.668 -0.0735  0.3755  0.7692
  627MOL0     C86435  11.183   2.891   2.733 -0.2287 -0.2122  0.4355
  627MOL0     O86436  11.138   2.519   2.581 -0.1572  0.1201  0.6061
  627MOL0     C86437  10.894   2.427   2.758 -0.5006  0.2151 -0.4301
  627MOL0     C86438  10.833   2.318   2.819 -0.2558  0.7304 -0.7024
  627MOL0     N86439  10.732   1.574   2.790  0.5175  0.0116  0.3342
  627MOL0     N86440  10.763   1.482   2.707  0.6120  0.3289 -0.0768
  627MOL0     C86441  10.119   0.596   2.437 -0.0391  0.9057 -0.1139
  627MOL0     C86442  10.039   0.488   2.413  0.9720 -0.0159 -0.4532
  627MOL0     C86443   9.881   0.104   2.352  0.9384 -0.4303  0.6459
  627MOL0     C86444   9.751   0.134   2.300  0.0807 -0.5160  0.7268
  627MOL0     C86445   9.644   0.050   2.311  0.4701  0.4950 -0.8510
  627MOL0     C86446   9.645  -0.067   2.380 -1.0160  0.0063 -0.2233
  627MOL0     O86447   9.531  -0.141   2.389 -0.1209 -0.2206  0.0424
  627MOL0     C86448   9.532  -0.265   2.464 -0.1706  0.5141  0.0136
  627MOL0     C86449   9.558  -0.378   2.377  0.2013  0.6358  0.6156
  627MOL0     C86450   9.549  -0.512   2.461 -0.4374  1.3389  0.9192
  627MOL0     C86451   9.648  -0.522   2.579  0.4166 -0.3300 -0.5219
  627MOL0     C86452   9.789  -0.520   2.530  0.2202 -0.0836  0.7639
  627MOL0     C86453   9.907  -0.518   2.487 -0.6493  0.2554 -1.4413
  627MOL0     C86454   9.784  -0.111   2.414  0.6591 -0.0362 -0.7507
  627MOL0     C86455   9.894  -0.026   2.402 -0.7489 -0.0201  0.0831
  627MOL0     C86456  10.026  -0.089   2.456 -0.1158 -1.1508  0.4640
  627MOL0     H86457  10.116   0.451   2.076  0.4278 -1.7674  1.2079
  627MOL0     H86458  10.263   0.616   2.123 -4.0562 -1.1638 -3.9483
  627MOL0     H86459  10.334   0.672   2.536 -0.6337 -1.9968 -1.2627
  627MOL0     H86460  10.258   0.839   2.537  2.7332  0.3865  0.6532
  627MOL0     H86461  10.468   0.879   2.576 -1.1372  1.5346 -1.5997
  627MOL0     H86462  10.528   0.733   2.495  0.3004  0.3522 -0.2906
  627MOL0     H86463  10.518   0.854   2.283 -1.3892 -3.3123  0.6261
  627MOL0     H86464  10.411   0.974   2.356 -0.2816 -0.6009  0.4494
  627MOL0     H86465  10.697   0.918   2.466 -3.5240 -2.1427  2.8739
  627MOL0     H86466  10.686   1.017   2.321 -0.9980  0.2750 -0.9650
  627MOL0     H86467  10.727   1.121   2.520  0.2294  0.3750  0.9261
  627MOL0     H86468  10.556   1.100   2.581  1.1864 -2.0432  1.3705
  627MOL0     H86469  10.618   1.207   2.295 -0.0324  0.0983 -1.8528
  627MOL0     H86470  10.481   1.182   2.382  0.9518 -1.0679  0.9732
  627MOL0     H86471  10.520   1.368   2.539 -1.8355 -0.2143 -1.4647
  627MOL0     H86472  10.521   1.409   2.372 -4.1547 -3.6340  1.1790
  627MOL0     H86473  10.792   1.333   2.498 -2.1313 -1.6208 -0.9862
  627MOL0     H86474  10.766   1.448   2.368 -3.3129 -1.7915 -2.0437
  627MOL0     H86475  10.638   1.687   2.491  1.6674  1.8248  0.9974
  627MOL0     H86476  10.503   1.783   2.768 -0.1177  0.5008 -1.2510
  627MOL0     H86477  10.624   1.855   2.678 -1.2764 -1.5723 -1.2853
  627MOL0     H86478  10.664   1.820   2.981 -1.8264 -0.7627 -0.1534
  627MOL0     H86479  10.799   1.836   2.861  0.1189 -3.8153  2.3632
  627MOL0     H86480  10.677   2.051   2.785 -0.3171 -0.1275 -1.2028
  627MOL0     H86481  10.555   2.029   2.903 -0.3105  0.9005  1.7596
  627MOL0     H86482  10.697   2.176   3.012  1.4276 -1.1458  2.5435
  627MOL0     H86483  10.757   2.024   3.079  0.6156  1.6788  1.5988
  627MOL0     H86484  11.109   2.138   2.909 -0.1064  1.1408  2.1499
  627MOL0     H86485  11.290   2.306   2.700  1.2706  1.3457  1.1550
  627MOL0     H86486  11.308   2.253   2.860  1.1665  0.9632  1.5121
  627MOL0     H86487  11.303   2.427   2.831 -0.0566  0.3792  0.5298
  627MOL0     H86488  11.004   2.711   2.512  0.0716 -0.1381  1.9619
  627MOL0     H86489  11.033   2.907   2.383 -1.3829 -3.0239 -0.0386
  627MOL0     H86490  11.106   3.301   2.606  1.9493  2.2384  0.6067
  627MOL0     H86491  11.275   3.261   2.567 -0.3119 -1.2523  0.4013
  627MOL0     H86492  11.202   3.468   2.459  0.0785 -1.6879  3.2771
  627MOL0     H86493  11.254   3.328   2.348 -0.2681  0.1887 -0.1706
  627MOL0     H86494  10.982   3.444   2.444  0.5868 -0.3570  0.2880
  627MOL0     H86495  10.994   3.306   2.338  1.3717  0.2872 -0.2173
  627MOL0     H86496  11.082   3.471   2.154  1.9403 -3.3195  1.3549
  627MOL0     H86497  11.090   3.592   2.286 -1.9302  1.2657 -1.7181
  627MOL0     H86498  10.850   3.454   2.162 -2.8251  0.0777  0.9682
  627MOL0     H86499  10.839   3.565   2.295 -0.6968  3.8114 -1.7276
  627MOL0     H86500  10.950   3.640   2.028 -3.4924  1.7634 -3.5788
  627MOL0     H86501  10.950   3.746   2.160 -2.5220  1.0933  1.1302
  627MOL0     H86502  10.675   3.696   2.148 -0.5405 -0.9882  1.0732
  627MOL0     H86503  10.720   3.597   2.018  1.6142 -0.7537  1.2002
  627MOL0     H86504  10.821   3.879   2.032 -0.1783 -1.5019 -1.0336
  627MOL0     H86505  10.648   3.862   2.001 -0.9816  0.2772 -1.2824
  627MOL0     H86506  11.250   3.091   2.724 -1.4941  1.0788  1.1433
  627MOL0     H86507  11.217   2.898   2.836  0.1472 -0.4438  0.3321
  627MOL0     H86508  10.847   2.506   2.700 -0.2068 -0.9542 -2.3356
  627MOL0     H86509  10.725   2.316   2.827 -0.2222 -0.4159 -0.3443
  627MOL0     H86510  10.113   0.627   2.541 -3.2306  0.9464 -0.2198
  627MOL0     H86511   9.971   0.445   2.486 -1.0545  0.4231 -1.9898
  627MOL0     H86512   9.750   0.219   2.233  4.1331 -0.5018  0.4533
  627MOL0     H86513   9.552   0.067   2.256 -1.5988 -0.8036  1.9188
  627MOL0     H86514   9.614  -0.264   2.537 -2.2327  2.4945  2.4990
  627MOL0     H86515   9.435  -0.273   2.514  0.1916  1.4832  0.9131
  627MOL0     H86516   9.658  -0.369   2.333 -1.3436 -0.4003 -3.6226
  627MOL0     H86517   9.494  -0.383   2.289 -0.2172 -2.0515  1.0076
  627MOL0     H86518   9.448  -0.529   2.498 -0.5883  3.8204  1.8622
  627MOL0     H86519   9.579  -0.581   2.382 -0.6703  3.9097 -1.5590
  627MOL0     H86520   9.631  -0.615   2.635 -0.5874  1.0354  1.5426
  627MOL0     H86521   9.634  -0.440   2.650  1.5518  0.0036 -0.6635
  627MOL0     H86522  10.010  -0.536   2.464 -0.7497 -3.3555  0.2378
  627MOL0     H86523   9.809  -0.197   2.475  3.5160  2.4387  1.9389
  627MOL0     H86524  10.107  -0.063   2.388  0.0786 -1.9841  0.3622
  627MOL0     H86525  10.052  -0.055   2.557  5.3869 -1.3015 -0.5801
  627MOL0     H86526  10.024  -0.198   2.448 -1.7954 -1.1368  0.2302
  628MOL0     O86527   1.929  11.303   2.307  0.2433 -0.4718 -0.3101
  628MOL0     C86528   1.992  11.394   2.362  1.2637 -1.3932  0.6654
  628MOL0     O86529   2.067  11.489   2.300 -0.5733  0.0202  0.4083
  628MOL0     C86530   2.071  11.487   2.165  0.6333  0.1348 -0.2423
  628MOL0     C86531   1.964  11.549   2.096  0.1573 -0.5321  0.1385
  628MOL0     C86532   1.960  11.548   1.955  0.6385  0.0720 -0.5134
  628MOL0     C86533   2.047  11.463   1.883  0.1341  0.3298  0.8532
  628MOL0     O86534   2.040  11.458   1.749  0.1128  0.3108  0.8688
  628MOL0     C86535   1.996  11.331   1.705 -0.6552  0.1105  0.4526
  628MOL0     C86536   2.108  11.259   1.631  0.7366 -0.7996  0.2793
  628MOL0     C86537   2.063  11.137   1.557  0.4401 -0.2486 -0.0662
  628MOL0     C86538   2.010  11.157   1.417  0.6182 -0.0184  0.4993
  628MOL0     C86539   2.003  11.038   1.321 -0.0394  0.0915  0.4005
  628MOL0     C86540   1.896  10.940   1.373 -0.3594 -0.1103 -0.0086
  628MOL0     C86541   1.913  10.810   1.298  1.3729  0.8336 -0.6327
  628MOL0     C86542   1.894  10.821   1.145 -0.1141  0.1495 -0.0984
  628MOL0     N86543   1.873  10.693   1.071  0.8438 -0.8392  0.1933
  628MOL0     C86544   1.978  10.618   1.026  0.4114 -0.3975  0.2637
  628MOL0     C86545   1.919  10.500   0.989 -0.5071  0.8454  0.0460
  628MOL0     C86546   1.977  10.380   0.917  0.0923  0.3532 -0.2464
  628MOL0     C86547   1.979  10.399   0.768 -0.5655 -0.0831  0.0007
  628MOL0     C86548   2.010  10.266   0.687 -0.2152  0.1885  1.0401
  628MOL0     C86549   1.886  10.244   0.594 -0.0743 -0.5041 -0.8263
  628MOL0     O86550   1.845  10.369   0.523 -0.1618  0.5213  0.7454
  628MOL0     C86551   1.736  10.351   0.437 -0.0095 -0.6068 -0.2634
  628MOL0     C86552   1.692  10.227   0.384  0.5362 -0.1159 -0.3327
  628MOL0     C86553   1.567  10.223   0.315 -0.7476  0.4829  1.3742
  628MOL0     C86554   1.534  10.084   0.258  0.0982 -0.1064  0.8838
  628MOL0     C86555   1.488  10.343   0.286 -1.1540 -0.3156  0.9601
  628MOL0     C86556   1.372  10.342   0.205 -0.0266  0.2828 -0.1714
  628MOL0     O86557   1.347  10.242   0.118 -0.0740 -0.9276  0.2231
  628MOL0     C86558   1.246  10.261   0.024 -0.3289 -0.9758  0.0012
  628MOL0     C86559   1.130  10.183   0.015  1.1134  0.5247 -0.1377
  628MOL0     C86560   1.034  10.211  -0.081  0.1718 -0.1528 -0.2203
  628MOL0     C86561   1.074  10.302  -0.183  1.3309  0.8055  0.1580
  628MOL0     O86562   0.973  10.320  -0.278  1.0148 -0.3742 -0.1966
  628MOL0     C86563   0.966  10.456  -0.326 -0.0278  0.1896  0.0935
  628MOL0     C86564   0.851  10.472  -0.413  0.0792  0.4128 -0.5416
  628MOL0     C86565   0.828  10.344  -0.497  0.6337  0.1991 -0.6621
  628MOL0     C86566   0.740  10.372  -0.622 -0.5293 -0.4020 -0.1269
  628MOL0     C86567   0.676  10.245  -0.692 -0.9937  0.4370 -0.8413
  628MOL0     C86568   0.604  10.292  -0.809 -0.9810 -0.1134  0.2696
  628MOL0     C86569   0.623  10.190  -0.928 -0.3170 -0.0980 -0.5739
  628MOL0     C86570   0.761  10.206  -0.986 -0.3394  0.4852 -0.2887
  628MOL0    Cl86571   0.779  10.362  -1.067 -0.1257 -0.6357 -0.0634
  628MOL0     C86572   1.190  10.373  -0.186 -0.2032 -0.5752 -0.4328
  628MOL0     C86573   1.279  10.348  -0.087 -0.4955  0.7170  0.6363
  628MOL0     O86574   1.291  10.429   0.233 -0.6861 -0.6726  0.4870
  628MOL0     C86575   1.537  10.458   0.351  0.7233 -0.4602  0.3476
  628MOL0     C86576   1.653  10.460   0.420 -0.4441  0.6575 -0.1043
  628MOL0     N86577   1.789  10.515   1.001  0.4200  0.0020  0.0768
  628MOL0     N86578   1.756  10.627   1.044  0.2673  0.1194 -0.1687
  628MOL0     C86579   2.150  11.389   1.949 -1.3889 -1.1207 -0.7120
  628MOL0     C86580   2.170  11.417   2.091 -0.9017  0.5392  0.1682
  628MOL0     C86581   1.945  11.423   2.500  0.1921  0.7589  0.0970
  628MOL0     C86582   1.812  11.394   2.537  0.7498 -0.1891 -0.1602
  628MOL0     C86583   1.758  11.429   2.665 -0.7073 -0.0476 -0.3860
  628MOL0     C86584   1.842  11.490   2.757  1.1136 -0.4649 -0.4555
  628MOL0     O86585   1.791  11.548   2.873  0.3945  0.1164  0.0990
  628MOL0     C86586   1.866  11.501   2.988  0.1494  0.2672 -0.5833
  628MOL0     C86587   1.789  11.521   3.124 -0.2804  0.3355  0.0903
  628MOL0     C86588   1.649  11.471   3.111 -0.3827 -0.1689 -0.8752
  628MOL0     C86589   1.590  11.488   3.257  0.1873  0.2895  0.0864
  628MOL0     C86590   1.449  11.522   3.255 -0.3579 -0.2864  0.0527
  628MOL0     C86591   1.342  11.577   3.261  0.7896  0.1177 -0.2161
  628MOL0     C86592   1.973  11.510   2.719 -0.5498 -0.3145 -0.2715
  628MOL0     C86593   2.029  11.481   2.594 -0.8794  0.5641 -0.1054
  628MOL0     C86594   2.173  11.517   2.569  0.6296 -0.4126  0.1036
  628MOL0     H86595   1.892  11.606   2.153  4.5737  0.9881  4.9886
  628MOL0     H86596   1.884  11.601   1.898  0.6853  0.8410  0.1274
  628MOL0     H86597   1.907  11.330   1.642  0.0255 -1.9166 -0.5698
  628MOL0     H86598   1.985  11.261   1.789 -0.4133 -0.5154 -0.0282
  628MOL0     H86599   2.162  11.323   1.561 -2.9941  2.1807 -0.1715
  628MOL0     H86600   2.182  11.229   1.706 -0.7841  1.3718  2.8383
  628MOL0     H86601   2.160  11.087   1.554  1.9102  2.1891  1.9805
  628MOL0     H86602   1.989  11.071   1.602 -0.6769 -2.5669 -4.7159
  628MOL0     H86603   1.909  11.197   1.430  1.3260  2.8231 -1.9005
  628MOL0     H86604   2.082  11.222   1.367  1.2722 -1.5415 -0.6181
  628MOL0     H86605   2.096  10.981   1.321  0.1455  0.3031  2.6624
  628MOL0     H86606   1.981  11.076   1.221 -1.1196  2.2365  1.3750
  628MOL0     H86607   1.902  10.930   1.482 -0.7312  3.1104  0.3964
  628MOL0     H86608   1.798  10.983   1.352  0.3674  4.4223  4.0497
  628MOL0     H86609   1.844  10.729   1.326  3.3220 -2.1038 -3.5601
  628MOL0     H86610   2.004  10.756   1.327 -1.1146 -2.6856  1.4345
  628MOL0     H86611   1.810  10.888   1.123 -1.2783 -0.2076  2.8817
  628MOL0     H86612   1.984  10.870   1.105  0.4220 -0.8492 -0.1458
  628MOL0     H86613   2.081  10.653   1.023  0.4610 -0.1109 -5.3695
  628MOL0     H86614   1.919  10.290   0.940 -1.6251 -0.2300 -5.5099
  628MOL0     H86615   2.079  10.356   0.950 -0.5765  0.6359  2.3000
  628MOL0     H86616   1.880  10.443   0.753 -0.7220  0.8869  3.1509
  628MOL0     H86617   2.049  10.480   0.746 -1.7685  0.9626 -0.1206
  628MOL0     H86618   2.106  10.278   0.637 -0.4135 -2.6030 -0.1488
  628MOL0     H86619   2.030  10.176   0.746  2.3607  0.5516  0.8138
  628MOL0     H86620   1.912  10.166   0.522  0.2268  0.3402 -1.6386
  628MOL0     H86621   1.796  10.232   0.656  0.8418  0.3988  0.7672
  628MOL0     H86622   1.735  10.131   0.413 -0.3486 -0.3181  0.3420
  628MOL0     H86623   1.597  10.007   0.303  0.0254 -1.1412 -0.7145
  628MOL0     H86624   1.547  10.090   0.149  3.6985  0.3543  1.2004
  628MOL0     H86625   1.430  10.055   0.272 -0.8516  1.3204 -2.3019
  628MOL0     H86626   1.107  10.112   0.094 -0.3103  0.6501 -0.4224
  628MOL0     H86627   0.938  10.161  -0.087  0.2433 -0.2290 -0.7818
  628MOL0     H86628   0.953  10.527  -0.244 -1.9875 -0.2875  0.2465
  628MOL0     H86629   1.055  10.458  -0.389  0.0062 -0.5250  0.1123
  628MOL0     H86630   0.759  10.497  -0.359  1.1690  1.3451  0.9890
  628MOL0     H86631   0.871  10.546  -0.491 -0.7988 -0.7727 -1.9333
  628MOL0     H86632   0.780  10.265  -0.438  0.5858  0.5178 -0.2684
  628MOL0     H86633   0.927  10.308  -0.526  2.0910  3.9066 -0.7937
  628MOL0     H86634   0.809  10.416  -0.694 -0.1093 -1.4244 -0.3650
  628MOL0     H86635   0.669  10.453  -0.604  0.3550 -0.3429  4.1235
  628MOL0     H86636   0.758  10.180  -0.727  0.4310  2.2327 -0.9865
  628MOL0     H86637   0.606  10.187  -0.632 -2.2172  1.5111 -1.1890
  628MOL0     H86638   0.617  10.397  -0.839 -3.0907  0.4003  0.9832
  628MOL0     H86639   0.499  10.281  -0.782 -1.4669  2.8666 -0.0843
  628MOL0     H86640   0.550  10.221  -1.003 -1.0175  1.5382  0.7063
  628MOL0     H86641   0.607  10.090  -0.889 -0.6371 -0.3478 -1.3312
  628MOL0     H86642   0.784  10.130  -1.062  2.5865  0.9443  0.0135
  628MOL0     H86643   0.842  10.185  -0.916 -1.4060  1.8092  1.4189
  628MOL0     H86644   1.225  10.436  -0.267 -3.9467  0.2662 -1.6145
  628MOL0     H86645   1.374  10.401  -0.087 -1.5994  2.8174 -0.9407
  628MOL0     H86646   1.494  10.558   0.344  1.6485 -0.0464  0.3884
  628MOL0     H86647   1.675  10.551   0.475 -1.9606  2.5144 -2.3869
  628MOL0     H86648   2.233  11.344   1.895  0.9561  0.2194  1.5610
  628MOL0     H86649   2.246  11.359   2.142 -0.9714 -0.9540 -1.3490
  628MOL0     H86650   1.743  11.340   2.473  1.0663 -2.4635  1.3000
  628MOL0     H86651   1.652  11.414   2.683 -1.0046 -0.9304 -2.5610
  628MOL0     H86652   1.888  11.394   2.983 -0.5155  0.0499  0.5720
  628MOL0     H86653   1.964  11.548   2.986 -0.1760  0.9566 -0.7686
  628MOL0     H86654   1.779  11.623   3.162 -1.6276  0.3509 -0.2391
  628MOL0     H86655   1.837  11.462   3.203 -1.3491  0.9364  1.2232
  628MOL0     H86656   1.598  11.539   3.042 -2.0750  1.2857  1.6135
  628MOL0     H86657   1.644  11.367   3.075  0.4200 -0.6659  0.3613
  628MOL0     H86658   1.640  11.565   3.318 -3.0514  4.1380 -1.6713
  628MOL0     H86659   1.589  11.390   3.306 -4.5891 -0.6782 -1.4949
  628MOL0     H86660   1.249  11.628   3.274  2.1564  2.1885  2.3145
  628MOL0     H86661   2.040  11.572   2.778  1.5698 -1.0276 -1.8390
  628MOL0     H86662   2.227  11.527   2.663  1.7445 -1.6348 -0.3811
  628MOL0     H86663   2.214  11.435   2.510  1.0358 -0.3091  0.2404
  628MOL0     H86664   2.183  11.612   2.517  2.2754 -0.5560  0.1085
  629MOL0     O86665   6.258   5.951   6.287 -0.8844  0.0876 -0.3562
  629MOL0     C86666   6.275   5.831   6.249 -0.7220  0.5043 -1.0604
  629MOL0     O86667   6.220   5.730   6.319  0.6521  0.3162  0.1104
  629MOL0     C86668   6.139   5.775   6.428  1.2772 -0.5475 -0.5787
  629MOL0     C86669   6.181   5.759   6.561 -0.0714 -0.4886 -0.2521
  629MOL0     C86670   6.107   5.796   6.674 -0.5419 -0.8456  0.3360
  629MOL0     C86671   5.976   5.854   6.656  0.5249  0.0606  0.0662
  629MOL0     O86672   5.890   5.871   6.758  0.1734 -0.0708 -0.5190
  629MOL0     C86673   5.932   5.899   6.897  0.6392 -0.1477 -1.5861
  629MOL0     C86674   5.818   5.899   6.995  0.0109 -0.0626  0.3461
  629MOL0     C86675   5.735   5.775   6.986  0.4395  0.9911  0.5896
  629MOL0     C86676   5.585   5.797   7.016  0.0659 -0.0809  0.7077
  629MOL0     C86677   5.483   5.685   6.983  0.7307  0.1448  1.0620
  629MOL0     C86678   5.507   5.550   7.054 -0.4911 -0.3717 -0.4927
  629MOL0     C86679   5.542   5.432   6.965  0.3068 -0.3321  1.0112
  629MOL0     C86680   5.546   5.313   7.052 -1.6651 -0.3419  0.0022
  629MOL0     N86681   5.594   5.190   6.987  0.5977 -0.1567 -0.3724
  629MOL0     C86682   5.707   5.123   7.017  0.6524  0.7055  0.8753
  629MOL0     C86683   5.713   5.042   6.908  0.2671 -1.2221  0.1419
  629MOL0     C86684   5.816   4.953   6.859  0.3501 -0.0226  0.6936
  629MOL0     C86685   5.922   5.027   6.777 -0.0936 -1.0624 -0.6863
  629MOL0     C86686   6.004   4.935   6.688 -0.7704  0.5546 -0.8179
  629MOL0     C86687   6.118   4.858   6.766 -0.1204  0.2324 -0.0081
  629MOL0     O86688   6.217   4.958   6.810  0.3322  0.1854  0.1700
  629MOL0     C86689   6.334   4.925   6.870  0.2130  0.7459 -0.8464
  629MOL0     C86690   6.393   5.036   6.924 -0.1590 -0.1822 -0.6585
  629MOL0     C86691   6.524   5.039   6.991  0.1637  1.0659  0.5660
  629MOL0     C86692   6.570   5.165   7.052 -0.3555 -0.2271 -0.7323
  629MOL0     C86693   6.582   4.913   7.009 -0.5275  0.1279 -0.5877
  629MOL0     C86694   6.706   4.894   7.081 -0.9801  0.7296 -0.1911
  629MOL0     O86695   6.768   4.780   7.057 -0.7239 -0.1426  0.5990
  629MOL0     C86696   6.863   4.746   7.153  0.7386 -0.6413 -0.0163
  629MOL0     C86697   6.811   4.695   7.271 -0.4730  0.5229 -0.3970
  629MOL0     C86698   6.895   4.670   7.383 -0.0960  0.0539 -0.2993
  629MOL0     C86699   7.030   4.702   7.377 -0.6376 -0.1264 -0.0982
  629MOL0     O86700   7.120   4.694   7.483  0.0500  0.3218 -0.0138
  629MOL0     C86701   7.100   4.576   7.561  0.4956 -0.0943 -0.2387
  629MOL0     C86702   7.028   4.613   7.691 -0.1071  0.7070 -1.0299
  629MOL0     C86703   6.971   4.499   7.771 -0.5314 -0.2282 -0.0540
  629MOL0     C86704   6.908   4.548   7.902 -0.0897 -0.2823 -0.4947
  629MOL0     C86705   6.843   4.422   7.961 -0.6035  0.6998  0.0671
  629MOL0     C86706   6.719   4.372   7.882 -0.0545  0.6142  0.4968
  629MOL0     C86707   6.624   4.297   7.972  1.0777  0.5118  0.0854
  629MOL0     C86708   6.518   4.223   7.884 -0.6715 -0.0826  0.3536
  629MOL0    Cl86709   6.436   4.350   7.779 -0.2789  0.1350 -0.5396
  629MOL0     C86710   7.083   4.747   7.252  0.2053 -1.0776 -0.0632
  629MOL0     C86711   7.001   4.777   7.143 -0.9331 -0.5668 -0.2044
  629MOL0     O86712   6.746   4.976   7.165  0.0702  0.5908 -0.4050
  629MOL0     C86713   6.509   4.794   6.963  0.4599 -0.0493 -0.0508
  629MOL0     C86714   6.386   4.800   6.894 -1.0781  0.0548  0.0182
  629MOL0     N86715   5.595   5.051   6.837 -0.0745  0.6867 -1.0889
  629MOL0     N86716   5.519   5.133   6.891  0.0154  0.9012 -0.5403
  629MOL0     C86717   5.926   5.859   6.519  0.2123  0.4653 -0.5232
  629MOL0     C86718   6.007   5.826   6.408  0.7946  0.9039 -0.0984
  629MOL0     C86719   6.318   5.800   6.111  1.0606  0.0365  0.9782
  629MOL0     C86720   6.334   5.669   6.076 -0.4267  0.2027 -0.1240
  629MOL0     C86721   6.398   5.632   5.957  0.3967  1.1715 -0.0810
  629MOL0     C86722   6.420   5.726   5.855  0.5235 -0.2729  0.1117
  629MOL0     O86723   6.481   5.682   5.742  0.8773  0.1727 -0.5264
  629MOL0     C86724   6.517   5.778   5.642 -0.2988  0.1258  0.2090
  629MOL0     C86725   6.574   5.716   5.510  0.0927  0.8718 -1.1327
  629MOL0     C86726   6.713   5.654   5.530  0.1704 -0.2163  0.3144
  629MOL0     C86727   6.765   5.613   5.389  0.1453  0.1716 -2.0960
  629MOL0     C86728   6.889   5.538   5.415  0.4342 -0.4559  0.5872
  629MOL0     C86729   6.996   5.492   5.434 -0.1883 -0.6725  0.2525
  629MOL0     C86730   6.394   5.861   5.889 -0.5065  0.7193  0.0426
  629MOL0     C86731   6.341   5.900   6.011 -0.0561  0.2207 -0.3676
  629MOL0     C86732   6.295   6.045   6.029 -0.1045  0.6316  0.0163
  629MOL0     H86733   6.280   5.713   6.555 -0.4603 -1.1643 -2.4361
  629MOL0     H86734   6.136   5.760   6.772 -0.5775  1.4342  1.2224
  629MOL0     H86735   5.987   5.992   6.910 -0.9610  0.7838 -1.2467
  629MOL0     H86736   5.993   5.816   6.935 -1.1924 -0.8503 -0.0068
  629MOL0     H86737   5.847   5.918   7.099  0.9420  1.8705 -0.2137
  629MOL0     H86738   5.764   5.990   6.965  3.6650  2.9493  2.0667
  629MOL0     H86739   5.742   5.732   6.886  0.4640  2.1301  0.0828
  629MOL0     H86740   5.769   5.696   7.053  0.2915 -0.1893 -0.6989
  629MOL0     H86741   5.573   5.819   7.123 -2.7602  0.3638  0.3921
  629MOL0     H86742   5.547   5.893   6.978 -0.4717  0.0661  1.5810
  629MOL0     H86743   5.473   5.658   6.877 -0.6982 -0.2126  1.2676
  629MOL0     H86744   5.382   5.715   7.012 -1.0988 -2.1602 -2.2794
  629MOL0     H86745   5.590   5.562   7.125 -0.3617  3.3211 -1.0590
  629MOL0     H86746   5.428   5.524   7.126  1.4457  0.1309  1.9711
  629MOL0     H86747   5.643   5.453   6.930  0.3889  2.7177  2.7881
  629MOL0     H86748   5.466   5.425   6.886 -1.8981  1.6085  2.8092
  629MOL0     H86749   5.619   5.334   7.131 -3.2999 -0.2630  1.5511
  629MOL0     H86750   5.450   5.295   7.100 -1.6505 -0.1427  0.1053
  629MOL0     H86751   5.782   5.132   7.096  1.8399 -0.8179 -0.0162
  629MOL0     H86752   5.767   4.895   6.780 -0.1373  2.2246 -0.7348
  629MOL0     H86753   5.839   4.884   6.941 -1.3515 -0.9310  0.4582
  629MOL0     H86754   5.870   5.099   6.713 -0.8397 -2.1606 -1.3526
  629MOL0     H86755   5.988   5.080   6.847 -3.7795  0.8361  1.6654
  629MOL0     H86756   5.941   4.865   6.631 -0.8653 -0.1567  0.1252
  629MOL0     H86757   6.064   4.998   6.622  5.4245 -1.6889  1.9190
  629MOL0     H86758   6.061   4.815   6.849 -2.7223  2.7810 -0.3293
  629MOL0     H86759   6.171   4.775   6.718  0.7317  1.0275 -0.4979
  629MOL0     H86760   6.348   5.131   6.897 -1.4988 -1.4006 -3.0936
  629MOL0     H86761   6.519   5.249   7.003 -1.5735 -0.2369  0.4743
  629MOL0     H86762   6.679   5.175   7.038 -0.3946  1.8228  0.1181
  629MOL0     H86763   6.555   5.171   7.160  4.8384  0.7105  0.2476
  629MOL0     H86764   6.705   4.678   7.288 -0.5198  0.8085 -0.3946
  629MOL0     H86765   6.849   4.632   7.474  1.8648  1.0077  1.1636
  629MOL0     H86766   7.047   4.499   7.505 -6.3872  5.0845 -2.0927
  629MOL0     H86767   7.188   4.516   7.587  0.4002  0.2731  0.9840
  629MOL0     H86768   7.090   4.672   7.760 -3.2462  0.9258  1.8367
  629MOL0     H86769   6.941   4.678   7.681 -0.7669  0.6715  2.7443
  629MOL0     H86770   7.045   4.425   7.802 -1.4451 -0.1531  2.6159
  629MOL0     H86771   6.897   4.451   7.707 -1.1099  1.3490 -0.6193
  629MOL0     H86772   6.841   4.630   7.876  2.6114  1.4395 -2.5922
  629MOL0     H86773   6.984   4.589   7.969 -0.1647 -1.1990  0.1765
  629MOL0     H86774   6.927   4.354   7.973  0.2655  1.0463 -3.1090
  629MOL0     H86775   6.809   4.449   8.061 -0.2424 -2.3926  1.1213
  629MOL0     H86776   6.767   4.312   7.804  3.3104  2.4943  0.9518
  629MOL0     H86777   6.662   4.459   7.848 -0.1603  0.2796 -0.1923
  629MOL0     H86778   6.584   4.368   8.044  0.1718 -0.6808  0.7942
  629MOL0     H86779   6.684   4.225   8.030  0.9726 -0.1242 -0.5778
  629MOL0     H86780   6.436   4.187   7.947 -1.6141  3.9645  1.7300
  629MOL0     H86781   6.563   4.142   7.826 -3.0916 -0.7468 -0.7265
  629MOL0     H86782   7.187   4.776   7.247  0.5703 -2.6051 -2.7446
  629MOL0     H86783   7.057   4.825   7.063  2.8392 -2.3488  1.1479
  629MOL0     H86784   6.555   4.697   6.975  1.0185  0.1945 -0.1736
  629MOL0     H86785   6.334   4.713   6.855 -1.4708  0.8622 -1.3609
  629MOL0     H86786   5.819   5.874   6.515  0.2617  1.4531  1.1138
  629MOL0     H86787   5.978   5.816   6.304  2.6923  1.4748 -0.7313
  629MOL0     H86788   6.309   5.594   6.150  0.2727  0.9315  0.8791
  629MOL0     H86789   6.408   5.525   5.938 -2.0101  0.7172  0.8160
  629MOL0     H86790   6.425   5.834   5.622 -0.5845 -0.4126 -0.0107
  629MOL0     H86791   6.590   5.846   5.686  5.7531 -5.6945  0.7480
  629MOL0     H86792   6.579   5.799   5.438  1.3504 -1.2039 -3.5876
  629MOL0     H86793   6.503   5.643   5.470 -2.7379  2.6156  0.4274
  629MOL0     H86794   6.791   5.722   5.565 -0.0540 -1.1284  2.7576
  629MOL0     H86795   6.711   5.560   5.585  3.0546  0.4969  1.8183
  629MOL0     H86796   6.796   5.697   5.325 -1.5169  0.6460 -2.3117
  629MOL0     H86797   6.695   5.551   5.332 -0.8154 -1.2971  0.5051
  629MOL0     H86798   7.082   5.434   5.460 -3.4754 -6.1813  0.2779
  629MOL0     H86799   6.415   5.939   5.816 -2.8447  2.6294  1.3040
  629MOL0     H86800   6.314   6.109   5.942  3.5102  1.1627  1.0370
  629MOL0     H86801   6.188   6.039   6.053  0.2162 -1.1122  1.1975
  629MOL0     H86802   6.345   6.090   6.115  1.6907 -2.2653  0.6234
  630MOL0     O86803   0.631   2.422   7.162  0.0359  0.2000  0.0710
  630MOL0     C86804   0.695   2.334   7.107  0.0811  0.9860 -0.6878
  630MOL0     O86805   0.723   2.207   7.162 -0.2481 -0.1803  0.1576
  630MOL0     C86806   0.690   2.184   7.295 -0.9660  0.4750  0.3493
  630MOL0     C86807   0.772   2.229   7.401  0.0203  0.8321  0.2976
  630MOL0     C86808   0.728   2.206   7.536  0.4492 -0.5292  0.6144
  630MOL0     C86809   0.602   2.145   7.563  0.5385  0.2171 -0.4503
  630MOL0     O86810   0.543   2.123   7.678 -0.0348  0.2613  0.6477
  630MOL0     C86811   0.534   2.236   7.765 -0.0269 -0.3448 -0.5357
  630MOL0     C86812   0.534   2.176   7.907 -0.2092 -0.0048 -0.4753
  630MOL0     C86813   0.657   2.105   7.946  0.0395  0.3697 -0.0732
  630MOL0     C86814   0.651   1.956   7.907  0.0511 -0.7124  0.9088
  630MOL0     C86815   0.777   1.874   7.934 -0.9061 -0.2048  0.7177
  630MOL0     C86816   0.910   1.924   7.874  0.2804  0.2430 -0.0987
  630MOL0     C86817   0.907   1.916   7.724 -0.2587 -0.1935  0.5494
  630MOL0     C86818   1.046   1.945   7.669 -0.6003  0.0193  0.3435
  630MOL0     N86819   1.103   2.076   7.717  0.1386  0.8390  0.7192
  630MOL0     C86820   1.105   2.186   7.639  0.1630 -1.2530 -0.2868
  630MOL0     C86821   1.203   2.258   7.703 -0.6662  0.2432 -0.4946
  630MOL0     C86822   1.251   2.401   7.658 -0.5642 -0.4788  0.8102
  630MOL0     C86823   1.154   2.499   7.585 -0.4134  0.1657  0.3596
  630MOL0     C86824   1.043   2.543   7.685  0.0382  0.6650  0.1906
  630MOL0     C86825   0.965   2.655   7.617 -0.2087  0.0386  0.5252
  630MOL0     O86826   0.865   2.609   7.525  0.5523 -0.2411 -0.3027
  630MOL0     C86827   0.737   2.597   7.561  0.1527 -0.4419  0.2966
  630MOL0     C86828   0.693   2.581   7.694  0.0037 -0.1382 -0.0424
  630MOL0     C86829   0.551   2.558   7.720  0.0565 -0.6960  0.0779
  630MOL0     C86830   0.506   2.547   7.867 -0.4777 -0.5705 -0.1960
  630MOL0     C86831   0.458   2.560   7.606  0.6692 -0.2075 -0.0625
  630MOL0     C86832   0.318   2.547   7.625  0.1323  0.2554  0.1965
  630MOL0     O86833   0.263   2.476   7.721 -0.5180  0.6338 -0.7754
  630MOL0     C86834   0.130   2.503   7.750 -0.2951 -0.1247  0.0983
  630MOL0     C86835   0.089   2.564   7.869 -0.0859 -0.1987  0.8575
  630MOL0     C86836  -0.041   2.589   7.889  0.3778  0.4561 -0.7000
  630MOL0     C86837  -0.145   2.542   7.818  0.2289  0.2009  0.1805
  630MOL0     O86838  -0.273   2.532   7.856 -0.3698  0.1048 -0.0467
  630MOL0     C86839  -0.336   2.605   7.958 -0.5877  0.1576  0.2241
  630MOL0     C86840  -0.365   2.523   8.082  0.2858  0.7659  0.0393
  630MOL0     C86841  -0.438   2.609   8.192  0.4416  0.2451 -0.3591
  630MOL0     C86842  -0.523   2.727   8.155  0.0454  0.1878 -0.4608
  630MOL0     C86843  -0.613   2.789   8.272  0.5932  0.4082  0.0606
  630MOL0     C86844  -0.683   2.916   8.215  1.3769 -0.3343  0.8738
  630MOL0     C86845  -0.741   3.003   8.324  0.3747  0.5493  0.0635
  630MOL0     C86846  -0.831   3.109   8.265 -0.3094  0.2634  0.9528
  630MOL0    Cl86847  -0.710   3.228   8.186 -0.4039  0.0617 -0.0558
  630MOL0     C86848  -0.107   2.458   7.706 -0.6899 -0.7488  0.4379
  630MOL0     C86849   0.029   2.443   7.673 -0.1960  0.2148 -0.3113
  630MOL0     O86850   0.260   2.607   7.541 -0.0557 -0.0603 -0.4178
  630MOL0     C86851   0.511   2.584   7.480 -0.3161  0.1384  0.9821
  630MOL0     C86852   0.648   2.605   7.457  0.3379  0.3251  0.1935
  630MOL0     N86853   1.240   2.195   7.818 -0.2002 -1.1195 -0.1447
  630MOL0     N86854   1.173   2.085   7.826 -0.5679  0.3199 -0.2456
  630MOL0     C86855   0.535   2.103   7.444  0.8077  0.5769 -0.8685
  630MOL0     C86856   0.578   2.116   7.317  0.1935  0.0605  0.0236
  630MOL0     C86857   0.754   2.362   6.976 -1.2124  0.1439 -0.2007
  630MOL0     C86858   0.734   2.277   6.861 -0.0204  0.6385 -0.4847
  630MOL0     C86859   0.778   2.310   6.739  0.6379 -0.0100 -0.0344
  630MOL0     C86860   0.850   2.426   6.720 -0.8711  1.5660 -0.6785
  630MOL0     O86861   0.903   2.453   6.597  0.4038  0.2271 -0.6401
  630MOL0     C86862   1.032   2.393   6.582  0.4363  0.1701  0.3052
  630MOL0     C86863   1.128   2.475   6.501  0.4220  0.7602  0.9035
  630MOL0     C86864   1.157   2.612   6.562  0.2109  0.0666  0.1460
  630MOL0     C86865   1.288   2.664   6.510  0.0438  0.3373 -0.5864
  630MOL0     C86866   1.308   2.795   6.571  1.0064  0.6247  0.8020
  630MOL0     C86867   1.325   2.909   6.599  0.4170  0.1156  0.0088
  630MOL0     C86868   0.886   2.499   6.827  0.0484  0.2240 -0.2379
  630MOL0     C86869   0.843   2.466   6.954  0.0918  0.7930  0.4329
  630MOL0     C86870   0.892   2.548   7.077 -0.2375 -0.0841 -0.0306
  630MOL0     H86871   0.875   2.262   7.389  1.0067 -1.4584  1.6358
  630MOL0     H86872   0.783   2.239   7.623  2.9926 -2.5084 -0.1079
  630MOL0     H86873   0.436   2.278   7.742 -0.0201 -0.4569 -0.7737
  630MOL0     H86874   0.618   2.306   7.763 -1.5599  1.6726  1.1106
  630MOL0     H86875   0.501   2.249   7.982 -2.3093 -0.8831 -0.4724
  630MOL0     H86876   0.451   2.106   7.917 -0.2510 -0.0387 -1.0509
  630MOL0     H86877   0.740   2.159   7.899 -1.0331  0.3977 -2.0401
  630MOL0     H86878   0.659   2.103   8.055 -0.1315 -0.9257 -0.0788
  630MOL0     H86879   0.566   1.909   7.957 -0.2274  0.0522  1.1651
  630MOL0     H86880   0.630   1.947   7.800  2.1817  0.4939  0.3395
  630MOL0     H86881   0.757   1.777   7.888 -1.1431 -0.0309  0.4430
  630MOL0     H86882   0.794   1.857   8.040 -1.5417  2.0514  1.2488
  630MOL0     H86883   0.931   2.025   7.912 -0.6067 -0.1465  1.5144
  630MOL0     H86884   0.986   1.857   7.915 -0.7869 -1.4899 -0.8191
  630MOL0     H86885   0.846   2.000   7.689  3.9267  2.7170 -0.5305
  630MOL0     H86886   0.873   1.825   7.674 -4.0983 -0.7756  3.7367
  630MOL0     H86887   1.110   1.863   7.702  0.7583  0.3063 -1.4065
  630MOL0     H86888   1.058   1.940   7.560  2.4726 -4.0585  0.6220
  630MOL0     H86889   1.043   2.201   7.551  0.3985 -2.9118 -0.7789
  630MOL0     H86890   1.332   2.381   7.587 -1.3816 -0.0366 -0.2627
  630MOL0     H86891   1.305   2.448   7.741  3.6832 -0.2560 -1.7835
  630MOL0     H86892   1.207   2.593   7.569 -0.5011  0.6637  2.6078
  630MOL0     H86893   1.115   2.465   7.489 -1.4473  1.6328  0.2198
  630MOL0     H86894   0.976   2.464   7.720  1.3674 -1.5449 -1.9211
  630MOL0     H86895   1.103   2.582   7.768  2.5475  0.7724 -1.5567
  630MOL0     H86896   0.917   2.718   7.693 -0.3485  0.8036 -0.1904
  630MOL0     H86897   1.034   2.721   7.564  1.1095 -0.7781  1.1822
  630MOL0     H86898   0.763   2.573   7.776  1.7617  0.5457 -1.4006
  630MOL0     H86899   0.419   2.482   7.883 -0.6486 -0.3280 -0.1416
  630MOL0     H86900   0.496   2.644   7.915 -0.3249 -0.2039 -0.8886
  630MOL0     H86901   0.590   2.503   7.921  0.8488  1.4432 -0.5497
  630MOL0     H86902   0.162   2.615   7.931 -0.1496 -1.1614  1.7463
  630MOL0     H86903  -0.061   2.640   7.983 -0.0329  0.8650 -1.0035
  630MOL0     H86904  -0.276   2.694   7.978  0.3647  0.4979 -3.4873
  630MOL0     H86905  -0.435   2.638   7.925 -0.1454  1.6992  0.3713
  630MOL0     H86906  -0.433   2.445   8.048  1.7329  0.0166 -1.2338
  630MOL0     H86907  -0.274   2.480   8.123  0.2721  1.8710  1.3379
  630MOL0     H86908  -0.362   2.644   8.262  1.2625 -1.8033 -0.1592
  630MOL0     H86909  -0.488   2.532   8.251  1.3274 -0.9736 -1.1518
  630MOL0     H86910  -0.593   2.711   8.073 -0.7458 -0.9996  0.4115
  630MOL0     H86911  -0.459   2.804   8.111  0.6810  1.1784  2.0324
  630MOL0     H86912  -0.693   2.719   8.298  0.5256 -0.4106 -2.1169
  630MOL0     H86913  -0.554   2.807   8.362  2.5008 -0.4193 -0.9742
  630MOL0     H86914  -0.761   2.880   8.147  0.9007 -0.9830  1.7429
  630MOL0     H86915  -0.606   2.972   8.161 -0.0703  2.9866  2.0497
  630MOL0     H86916  -0.667   3.040   8.395 -0.4229 -2.5668  2.7645
  630MOL0     H86917  -0.794   2.931   8.387 -0.6665  1.4922  0.2719
  630MOL0     H86918  -0.896   3.154   8.341 -1.0734 -0.2591  0.6237
  630MOL0     H86919  -0.894   3.077   8.182  1.0548  1.2380 -0.5033
  630MOL0     H86920  -0.182   2.402   7.651  0.7814 -3.6009  1.1048
  630MOL0     H86921   0.048   2.378   7.588 -0.8049 -2.0932  1.2048
  630MOL0     H86922   0.447   2.584   7.392  1.7228 -0.2312 -0.5872
  630MOL0     H86923   0.668   2.614   7.351 -0.4330 -0.8953 -0.0856
  630MOL0     H86924   0.440   2.051   7.447  2.0872 -2.0425 -2.1703
  630MOL0     H86925   0.500   2.084   7.249 -1.2410  2.3884  0.4543
  630MOL0     H86926   0.678   2.184   6.868 -0.0716  0.7727  1.9048
  630MOL0     H86927   0.743   2.251   6.654  0.8304 -1.0488  0.5958
  630MOL0     H86928   1.082   2.380   6.679  1.7049  5.6279  0.6634
  630MOL0     H86929   1.024   2.299   6.527  2.6957  0.7643 -1.1843
  630MOL0     H86930   1.095   2.485   6.397  5.1542 -1.1448 -1.0255
  630MOL0     H86931   1.218   2.414   6.496  0.1852  0.4971 -2.9010
  630MOL0     H86932   1.073   2.681   6.550  0.3281  0.2058  0.1235
  630MOL0     H86933   1.174   2.595   6.669 -0.9535 -0.9359  0.1913
  630MOL0     H86934   1.299   2.669   6.401  1.4173  0.6131 -0.4492
  630MOL0     H86935   1.368   2.599   6.546  1.9513  2.0917 -1.4466
  630MOL0     H86936   1.347   3.011   6.621  0.9694 -0.3518  1.7608
  630MOL0     H86937   0.954   2.581   6.804  2.7404 -2.0380 -0.8608
  630MOL0     H86938   0.961   2.626   7.044  2.1855  0.0416  4.5541
  630MOL0     H86939   0.806   2.599   7.121  0.5443  2.6885 -1.5459
  630MOL0     H86940   0.935   2.471   7.143 -2.9339 -1.8927 -0.2172
  631MOL0     O86941   3.253   0.287   5.733 -0.1417 -0.2203 -0.4499
  631MOL0     C86942   3.235   0.166   5.764  0.6087 -1.0884 -0.9796
  631MOL0     O86943   3.163   0.071   5.689 -0.6584 -0.5078  0.0437
  631MOL0     C86944   3.116   0.108   5.561  0.1712 -1.0402 -0.1574
  631MOL0     C86945   3.161   0.025   5.456 -0.0420 -0.6923 -0.1064
  631MOL0     C86946   3.101   0.039   5.331  0.1107  0.1750 -0.1884
  631MOL0     C86947   2.987   0.117   5.313 -1.0733  0.3102 -0.5297
  631MOL0     O86948   2.946   0.109   5.182 -0.1580 -0.5084  0.1322
  631MOL0     C86949   2.821   0.174   5.140  0.6814 -0.2611  0.1268
  631MOL0     C86950   2.786   0.152   4.991 -0.3244  0.7077  0.6178
  631MOL0     C86951   2.755   0.007   4.960 -0.1099  0.0314  0.1751
  631MOL0     C86952   2.703  -0.015   4.815  0.1058 -0.5210 -0.0162
  631MOL0     C86953   2.659  -0.160   4.766 -0.0973 -0.4942 -0.4350
  631MOL0     C86954   2.769  -0.268   4.789 -0.1471  0.9187  0.4212
  631MOL0     C86955   2.717  -0.407   4.766 -0.7218 -0.4451 -0.0016
  631MOL0     C86956   2.841  -0.509   4.766 -0.1974 -0.8390  0.7872
  631MOL0     N86957   2.797  -0.650   4.742  1.4560  1.0954  0.5454
  631MOL0     C86958   2.790  -0.704   4.618  1.0783 -0.5432 -0.7336
  631MOL0     C86959   2.752  -0.832   4.643  0.4815  0.8979 -0.2751
  631MOL0     C86960   2.757  -0.937   4.536 -0.8618 -0.5066  0.6737
  631MOL0     C86961   2.701  -0.895   4.401 -0.5316 -0.6705  0.3210
  631MOL0     C86962   2.554  -0.909   4.374  0.5364  0.9302  0.2402
  631MOL0     C86963   2.464  -0.891   4.500 -1.1671  0.1162  0.2217
  631MOL0     O86964   2.335  -0.885   4.447  0.1932  0.1257  1.5776
  631MOL0     C86965   2.235  -0.828   4.516 -0.8509  0.8766  0.5125
  631MOL0     C86966   2.218  -0.859   4.652 -0.0443 -0.2300  0.2262
  631MOL0     C86967   2.111  -0.812   4.726  0.3585 -0.4032 -0.3240
  631MOL0     C86968   2.104  -0.842   4.875 -0.7798  0.3246  0.3395
  631MOL0     C86969   2.004  -0.746   4.661 -0.4775 -0.4923 -0.1913
  631MOL0     C86970   1.889  -0.714   4.740 -0.1931 -0.5127 -0.3297
  631MOL0     O86971   1.803  -0.817   4.766 -0.0404 -0.3978  0.5666
  631MOL0     C86972   1.700  -0.815   4.862  0.0755  0.3869  0.7309
  631MOL0     C86973   1.609  -0.720   4.880  0.9347 -0.5275  0.3753
  631MOL0     C86974   1.523  -0.730   4.989 -0.0653  0.2869  0.3074
  631MOL0     C86975   1.516  -0.841   5.067 -0.5314 -0.3215  0.1052
  631MOL0     O86976   1.440  -0.819   5.177 -0.1185  0.9411  0.0441
  631MOL0     C86977   1.431  -0.911   5.290 -0.2040 -0.4358 -0.5570
  631MOL0     C86978   1.462  -0.839   5.426  0.3255 -0.5166  0.2905
  631MOL0     C86979   1.587  -0.750   5.415  0.3912  1.0235 -0.6678
  631MOL0     C86980   1.710  -0.831   5.408  0.4088  0.4729 -0.9608
  631MOL0     C86981   1.836  -0.750   5.391  0.3054  0.8655 -0.1630
  631MOL0     C86982   1.856  -0.663   5.519 -0.0823 -0.2024 -0.2920
  631MOL0     C86983   2.006  -0.615   5.511  0.3545  0.0829  0.0015
  631MOL0     C86984   2.047  -0.503   5.608 -0.0239  0.3710 -0.1528
  631MOL0    Cl86985   2.214  -0.535   5.691 -0.2923  0.2411 -0.1121
  631MOL0     C86986   1.599  -0.953   5.042 -0.5786 -0.9422  0.3872
  631MOL0     C86987   1.695  -0.934   4.932  0.2214 -0.0476 -0.6354
  631MOL0     O86988   1.882  -0.606   4.796  0.0847 -0.0093  0.8206
  631MOL0     C86989   2.012  -0.727   4.522 -1.6275 -0.0353 -0.7697
  631MOL0     C86990   2.131  -0.770   4.458  0.8423 -1.4411  0.3762
  631MOL0     N86991   2.757  -0.862   4.785 -0.3586 -0.5537  0.0630
  631MOL0     N86992   2.758  -0.744   4.844  0.3301 -0.1704  0.2668
  631MOL0     C86993   2.947   0.203   5.418  0.1193 -0.1480  0.2952
  631MOL0     C86994   3.007   0.194   5.539 -0.2536  0.3409 -0.7544
  631MOL0     C86995   3.301   0.116   5.892  1.2978 -0.7247  0.4075
  631MOL0     C86996   3.301  -0.019   5.909  0.9436  0.4899  0.7937
  631MOL0     C86997   3.341  -0.083   6.025  0.8007  0.0564 -0.3725
  631MOL0     C86998   3.397  -0.014   6.127  0.9099 -0.9745 -0.4617
  631MOL0     O86999   3.465  -0.081   6.225 -0.2432  0.0925 -0.2843
  631MOL0     C87000   3.568  -0.030   6.306  0.2655  0.4510  0.1843
  631MOL0     C87001   3.695  -0.005   6.233  0.0146 -0.1652 -0.3508
  631MOL0     C87002   3.816  -0.009   6.332 -0.9762  0.6692  1.1883
  631MOL0     C87003   3.942   0.066   6.262 -1.0685 -0.2401  0.3396
  631MOL0     C87004   3.960   0.202   6.313 -1.3272  0.7913 -0.1101
  631MOL0     C87005   3.991   0.317   6.347  0.4148 -0.4186 -0.1966
  631MOL0     C87006   3.398   0.124   6.114 -0.9778 -0.6792 -0.1417
  631MOL0     C87007   3.340   0.197   6.002 -0.3213  0.5278 -0.5028
  631MOL0     C87008   3.348   0.346   5.990 -0.5271 -0.0245  0.3463
  631MOL0     H87009   3.242  -0.045   5.476  1.3467  1.2990  1.7323
  631MOL0     H87010   3.139  -0.007   5.240 -1.0317  1.5250 -1.4034
  631MOL0     H87011   2.817   0.281   5.161 -0.1678 -0.0792 -0.9071
  631MOL0     H87012   2.754   0.122   5.209 -0.5146  1.2929  0.1891
  631MOL0     H87013   2.695   0.212   4.977 -1.2144  0.6491  4.7987
  631MOL0     H87014   2.863   0.194   4.926 -1.9783  1.2426 -1.1052
  631MOL0     H87015   2.844  -0.051   4.986  0.3845  1.8491  3.0823
  631MOL0     H87016   2.669  -0.010   5.025 -2.0911  0.3767 -2.2165
  631MOL0     H87017   2.615   0.048   4.829 -1.3467 -2.8918  2.6638
  631MOL0     H87018   2.773   0.028   4.742  1.3460  0.5920  1.7407
  631MOL0     H87019   2.638  -0.148   4.659  3.2655 -0.6308 -1.2406
  631MOL0     H87020   2.564  -0.185   4.814 -0.7161  3.0819  0.4783
  631MOL0     H87021   2.852  -0.248   4.720  1.7036  0.7660  2.5053
  631MOL0     H87022   2.823  -0.261   4.884 -2.5108 -1.9004  2.1401
  631MOL0     H87023   2.670  -0.401   4.667 -0.6938  3.3611  0.0848
  631MOL0     H87024   2.643  -0.431   4.843  1.6658 -1.6491  2.0676
  631MOL0     H87025   2.911  -0.476   4.690 -0.8095 -2.5261 -0.5983
  631MOL0     H87026   2.899  -0.512   4.858  2.4606 -0.5471 -0.7985
  631MOL0     H87027   2.822  -0.653   4.528  1.8168  3.2530  1.4550
  631MOL0     H87028   2.722  -1.031   4.579  2.0445 -0.4845  3.4731
  631MOL0     H87029   2.862  -0.962   4.519 -1.4810 -2.4918 -0.6668
  631MOL0     H87030   2.728  -0.791   4.385  2.6458 -1.5979 -1.2502
  631MOL0     H87031   2.749  -0.957   4.324 -1.0506 -1.4551  0.6155
  631MOL0     H87032   2.521  -0.823   4.315 -0.9072 -1.1931 -2.2536
  631MOL0     H87033   2.533  -1.006   4.329  2.1286  0.6634  0.0260
  631MOL0     H87034   2.475  -0.976   4.568  0.1893 -0.3595 -0.5554
  631MOL0     H87035   2.479  -0.796   4.551  1.4508 -1.2610  2.2572
  631MOL0     H87036   2.311  -0.874   4.706  1.1207  0.9005 -1.3506
  631MOL0     H87037   2.182  -0.917   4.890 -0.6177  0.4313  0.0302
  631MOL0     H87038   2.011  -0.889   4.907 -0.5927  0.1640  0.6581
  631MOL0     H87039   2.120  -0.755   4.940  3.3381 -1.3818  1.9802
  631MOL0     H87040   1.607  -0.626   4.825  0.0588 -1.1491 -0.6957
  631MOL0     H87041   1.470  -0.641   5.022  1.1976  1.0068  0.4903
  631MOL0     H87042   1.331  -0.954   5.276 -1.1644  1.8639 -1.3057
  631MOL0     H87043   1.507  -0.988   5.278 -0.3162 -0.5428 -0.5861
  631MOL0     H87044   1.377  -0.773   5.442  2.2137  1.5197  2.8238
  631MOL0     H87045   1.472  -0.912   5.507  1.1467  1.2522  1.8336
  631MOL0     H87046   1.582  -0.693   5.508  0.7717  0.7589 -0.4852
  631MOL0     H87047   1.573  -0.681   5.331  1.3032  2.0886  0.0278
  631MOL0     H87048   1.707  -0.888   5.315  0.6943 -0.5527 -0.3651
  631MOL0     H87049   1.715  -0.907   5.487  0.3564  2.8489  1.4756
  631MOL0     H87050   1.920  -0.819   5.378  0.4836  0.7130  1.5839
  631MOL0     H87051   1.829  -0.687   5.302  0.6891  0.5648 -0.4091
  631MOL0     H87052   1.857  -0.730   5.606 -2.2974 -0.2841 -0.2756
  631MOL0     H87053   1.782  -0.588   5.549 -0.8181 -1.9697  2.7419
  631MOL0     H87054   2.034  -0.594   5.408  0.5137  3.8205  0.6463
  631MOL0     H87055   2.066  -0.699   5.547 -3.7119 -3.3047 -0.3927
  631MOL0     H87056   1.977  -0.487   5.691  0.4650  1.4703  0.0697
  631MOL0     H87057   2.046  -0.406   5.557 -2.1565  0.0943 -0.7178
  631MOL0     H87058   1.601  -1.041   5.106  0.3572 -0.4245  1.0984
  631MOL0     H87059   1.769  -1.012   4.916  2.2474  2.1901 -3.0773
  631MOL0     H87060   1.922  -0.694   4.470 -1.9944  0.0650 -0.0780
  631MOL0     H87061   2.143  -0.753   4.352  4.0276  1.4775  1.0302
  631MOL0     H87062   2.880   0.285   5.391  2.7610  1.8346 -0.6783
  631MOL0     H87063   2.963   0.261   5.611 -0.6163  0.6746 -1.2796
  631MOL0     H87064   3.267  -0.091   5.835  0.7262  1.8118 -0.4429
  631MOL0     H87065   3.346  -0.189   6.047 -0.9955  0.0792  0.3531
  631MOL0     H87066   3.533   0.066   6.346  0.9574  0.9647 -0.4046
  631MOL0     H87067   3.589  -0.097   6.390 -1.4372  1.2494  1.2929
  631MOL0     H87068   3.688   0.096   6.194 -2.2405 -0.1865 -0.1316
  631MOL0     H87069   3.698  -0.087   6.161  0.8137 -2.8138  2.4787
  631MOL0     H87070   3.787   0.043   6.424  0.6249  4.5398 -0.2922
  631MOL0     H87071   3.844  -0.113   6.351 -0.2308  1.0027  2.0330
  631MOL0     H87072   3.931   0.071   6.153 -0.8846 -2.3651  0.1706
  631MOL0     H87073   4.039   0.018   6.278  1.1171  3.5766 -0.2258
  631MOL0     H87074   4.025   0.418   6.357  0.8209 -0.3711 -1.6829
  631MOL0     H87075   3.438   0.188   6.193 -1.7033 -0.2401 -0.1195
  631MOL0     H87076   3.394   0.383   6.082 -0.5819  1.2170 -0.0978
  631MOL0     H87077   3.406   0.383   5.905 -0.2077 -1.6113 -0.1500
  631MOL0     H87078   3.256   0.402   5.967 -0.2517  0.3333  0.1066
  632MOL0     O87079   1.808   7.525  10.580  0.1558 -0.1046  0.6125
  632MOL0     C87080   1.879   7.431  10.597  0.2798  0.2880  1.0155
  632MOL0     O87081   1.963   7.412  10.701 -0.0896 -0.5351 -0.5523
  632MOL0     C87082   1.985   7.527  10.778  0.4343 -0.2236 -0.8046
  632MOL0     C87083   1.914   7.559  10.896 -0.3907  0.2872 -0.1246
  632MOL0     C87084   1.955   7.672  10.968  0.5058 -0.8937 -0.8284
  632MOL0     C87085   2.062   7.744  10.935  0.3715 -0.7181 -0.3550
  632MOL0     O87086   2.096   7.846  11.017  0.1624 -0.6932  0.4597
  632MOL0     C87087   2.231   7.883  11.018 -1.1908  0.1469  0.0989
  632MOL0     C87088   2.266   8.003  11.111 -0.1359  0.4774  1.0371
  632MOL0     C87089   2.175   8.121  11.068 -0.9469 -0.6645  0.2606
  632MOL0     C87090   2.191   8.225  11.185  0.1572  0.5274  0.2356
  632MOL0     C87091   2.113   8.356  11.150 -0.2361 -0.2787  0.0772
  632MOL0     C87092   1.955   8.335  11.141 -0.1837 -0.9164  0.4094
  632MOL0     C87093   1.896   8.473  11.123  0.3922 -0.5335 -0.2343
  632MOL0     C87094   1.741   8.484  11.086  0.1720  0.6310 -0.9368
  632MOL0     N87095   1.689   8.629  11.071 -0.8160  0.7487 -0.2935
  632MOL0     C87096   1.763   8.737  11.028 -0.0646 -0.2499  0.1291
  632MOL0     C87097   1.675   8.838  11.055  0.0996  0.2743 -0.3392
  632MOL0     C87098   1.674   8.980  11.012  0.0611 -0.5714 -0.3546
  632MOL0     C87099   1.599   8.990  10.874 -0.3990 -0.2601  0.7279
  632MOL0     C87100   1.613   9.124  10.799 -0.1892 -0.1916  0.4509
  632MOL0     C87101   1.755   9.171  10.783  0.0324  0.2654  0.5526
  632MOL0     O87102   1.830   9.083  10.695  0.1097 -0.4208 -0.6644
  632MOL0     C87103   1.957   9.124  10.701  0.1454  0.0105  0.7147
  632MOL0     C87104   1.997   9.212  10.612 -1.0758 -0.0842  0.5096
  632MOL0     C87105   2.135   9.238  10.594 -0.2287 -0.9542 -1.5045
  632MOL0     C87106   2.163   9.356  10.499  0.5783 -0.4792  0.2639
  632MOL0     C87107   2.235   9.163  10.674  0.0623  0.3407 -1.3008
  632MOL0     C87108   2.377   9.188  10.678 -0.4135  0.0702  0.5347
  632MOL0     O87109   2.443   9.123  10.773 -0.4010 -0.1807 -0.9722
  632MOL0     C87110   2.578   9.141  10.778 -0.2720 -0.8129 -0.3987
  632MOL0     C87111   2.666   9.095  10.681 -0.5395 -0.7589  1.5372
  632MOL0     C87112   2.805   9.080  10.704  0.0039 -1.2737  0.1031
  632MOL0     C87113   2.866   9.112  10.825 -0.2905  0.4346  0.3647
  632MOL0     O87114   3.000   9.100  10.837 -0.4550  0.1004 -0.9450
  632MOL0     C87115   3.043   9.052  10.967  0.5065 -0.6641  0.0955
  632MOL0     C87116   3.195   9.021  10.992 -0.0826 -0.2953  0.0272
  632MOL0     C87117   3.237   9.018  11.144  0.2683 -0.1584 -0.2745
  632MOL0     C87118   3.396   9.030  11.149  0.2482 -0.1262  0.5072
  632MOL0     C87119   3.453   8.906  11.086  0.1002  0.0969  0.2631
  632MOL0     C87120   3.599   8.916  11.077 -0.0282  0.1295 -0.4693
  632MOL0     C87121   3.649   8.807  10.984  0.3667  0.4144 -0.9128
  632MOL0     C87122   3.794   8.791  10.989 -0.1378 -0.3665  1.0986
  632MOL0    Cl87123   3.854   8.708  11.139  0.5084  0.2925 -0.8474
  632MOL0     C87124   2.778   9.155  10.928 -0.4834  0.8458  0.4048
  632MOL0     C87125   2.636   9.164  10.901  0.0084  0.0360  0.0644
  632MOL0     O87126   2.426   9.248  10.586 -0.0009  0.2355 -0.0554
  632MOL0     C87127   2.183   9.060  10.762 -0.5406 -0.0296 -0.1731
  632MOL0     C87128   2.048   9.046  10.774  0.8071 -0.9221 -0.2228
  632MOL0     N87129   1.561   8.788  11.118 -0.2471 -0.2522 -0.6556
  632MOL0     N87130   1.571   8.666  11.125  0.5664  0.3023 -0.3470
  632MOL0     C87131   2.131   7.710  10.812  0.7086 -1.1049  0.6626
  632MOL0     C87132   2.092   7.605  10.733 -0.4110  0.6979  0.3074
  632MOL0     C87133   1.854   7.318  10.505 -0.1417  0.0515  0.7975
  632MOL0     C87134   1.751   7.329  10.416  1.5168  0.1541 -0.3909
  632MOL0     C87135   1.727   7.227  10.326  0.0354 -0.2935  0.3552
  632MOL0     C87136   1.810   7.118  10.317  0.3714  0.9652 -0.1583
  632MOL0     O87137   1.763   7.025  10.220 -0.1812 -0.1231  0.0435
  632MOL0     C87138   1.846   6.906  10.200 -0.0493  0.3091 -0.4743
  632MOL0     C87139   1.802   6.844  10.061 -0.5594  0.6126 -0.2459
  632MOL0     C87140   1.643   6.820  10.065  0.8680  0.6182 -0.8379
  632MOL0     C87141   1.612   6.697   9.979  0.0753  0.4911 -0.0694
  632MOL0     C87142   1.641   6.570  10.043  0.0984  0.5696  0.7660
  632MOL0     C87143   1.675   6.456  10.079 -0.0928  0.1085  0.1290
  632MOL0     C87144   1.921   7.102  10.403 -0.3034  1.0306 -0.5893
  632MOL0     C87145   1.944   7.207  10.497 -0.0853  0.0043 -0.2437
  632MOL0     C87146   2.041   7.183  10.615  0.1225  0.0516 -0.4631
  632MOL0     H87147   1.826   7.499  10.918 -1.2591  1.7595  0.5532
  632MOL0     H87148   1.899   7.700  11.056  0.0914 -1.1004 -1.0241
  632MOL0     H87149   2.260   7.918  10.918 -1.5467 -1.1962 -0.5026
  632MOL0     H87150   2.300   7.802  11.045  2.2402  2.4027 -1.2169
  632MOL0     H87151   2.248   7.978  11.215 -1.2445  3.5278  1.7027
  632MOL0     H87152   2.371   8.031  11.097  0.1004 -1.5559 -2.3083
  632MOL0     H87153   2.197   8.162  10.969 -3.5482 -0.5035 -0.3393
  632MOL0     H87154   2.071   8.088  11.073 -0.7699 -1.3270 -0.2467
  632MOL0     H87155   2.157   8.182  11.279 -0.2808  0.6175  0.1165
  632MOL0     H87156   2.298   8.249  11.196 -0.4002  4.0443 -0.5349
  632MOL0     H87157   2.151   8.392  11.054 -0.2338  3.0715  1.2075
  632MOL0     H87158   2.143   8.428  11.227  0.8655 -0.4718 -0.1487
  632MOL0     H87159   1.930   8.267  11.059  1.2918 -0.5607 -0.3747
  632MOL0     H87160   1.914   8.287  11.230 -0.4150 -0.3524  0.6135
  632MOL0     H87161   1.947   8.538  11.051  0.8792 -1.0034 -0.3245
  632MOL0     H87162   1.919   8.527  11.215 -0.2023 -0.1008 -0.3338
  632MOL0     H87163   1.732   8.423  10.995  2.3511 -3.8472  1.4732
  632MOL0     H87164   1.676   8.433  11.157  1.3870 -0.2364 -0.4113
  632MOL0     H87165   1.866   8.727  10.998  0.5886 -1.6507  2.6007
  632MOL0     H87166   1.777   9.013  10.995 -0.3275  0.0338 -1.6822
  632MOL0     H87167   1.624   9.046  11.083 -1.4371  2.0245 -3.5639
  632MOL0     H87168   1.642   8.906  10.817  1.8087  0.5932  1.0143
  632MOL0     H87169   1.493   8.970  10.890 -0.4572 -1.3495 -0.8867
  632MOL0     H87170   1.580   9.105  10.697 -2.2196 -1.5934  1.3002
  632MOL0     H87171   1.551   9.207  10.835  1.0110  1.6369 -1.4541
  632MOL0     H87172   1.747   9.267  10.732 -1.1249 -0.5679 -0.9429
  632MOL0     H87173   1.799   9.185  10.882 -1.1004  2.1844  0.8280
  632MOL0     H87174   1.933   9.275  10.550 -0.3766 -0.2017 -0.3514
  632MOL0     H87175   2.165   9.316  10.397 -3.6606  1.0312 -0.5926
  632MOL0     H87176   2.249   9.422  10.517  1.5004 -1.9561  1.5799
  632MOL0     H87177   2.074   9.419  10.500 -0.3454 -1.5734 -2.5349
  632MOL0     H87178   2.624   9.075  10.583 -2.2465 -0.8171  2.2529
  632MOL0     H87179   2.856   9.045  10.615 -2.7931 -1.7975 -1.4037
  632MOL0     H87180   3.018   9.135  11.034  1.3373 -1.8301  1.9301
  632MOL0     H87181   2.984   8.962  10.988  1.2471 -1.2037 -0.1156
  632MOL0     H87182   3.217   8.925  10.945  1.1766 -0.7907  1.5644
  632MOL0     H87183   3.258   9.090  10.935  0.0231 -0.7923 -0.4679
  632MOL0     H87184   3.208   8.924  11.190 -0.7565  0.6692  0.8379
  632MOL0     H87185   3.184   9.098  11.196 -0.0387 -1.8964  2.2465
  632MOL0     H87186   3.437   9.041  11.250  0.8081 -1.7565  0.4814
  632MOL0     H87187   3.429   9.115  11.089  3.1514 -2.3132 -1.2559
  632MOL0     H87188   3.427   8.816  11.142  0.6406 -0.0242  0.3220
  632MOL0     H87189   3.414   8.895  10.984 -0.1340 -0.1586  0.3807
  632MOL0     H87190   3.633   8.908  11.180  1.2196 -1.7342 -0.9662
  632MOL0     H87191   3.627   9.015  11.040 -0.1080 -0.2409 -1.5542
  632MOL0     H87192   3.633   8.842  10.882 -1.3952 -1.4804 -1.3575
  632MOL0     H87193   3.593   8.713  10.989 -1.9934  1.7699 -0.8199
  632MOL0     H87194   3.832   8.893  10.985 -2.2003  0.4348  1.0760
  632MOL0     H87195   3.818   8.735  10.898  0.3840  1.9748 -0.2769
  632MOL0     H87196   2.808   9.181  11.029 -0.6236  0.5626  0.5204
  632MOL0     H87197   2.574   9.172  10.990  1.6896  1.1358  1.2134
  632MOL0     H87198   2.234   8.994  10.832 -2.4422  0.6217  1.9680
  632MOL0     H87199   2.015   8.962  10.834  1.9826  0.3959  2.4220
  632MOL0     H87200   2.223   7.759  10.783  0.1303 -0.3052  0.1551
  632MOL0     H87201   2.138   7.592  10.636 -1.7230 -1.0137 -0.1373
  632MOL0     H87202   1.690   7.417  10.400 -2.4501 -1.5747  3.2090
  632MOL0     H87203   1.638   7.241  10.265 -0.3049 -0.2965  0.8442
  632MOL0     H87204   1.948   6.945  10.198 -0.8910  2.8612  0.9017
  632MOL0     H87205   1.835   6.831  10.278 -1.6245  1.0135  0.0173
  632MOL0     H87206   1.858   6.753  10.036 -0.0913 -0.0308  2.8036
  632MOL0     H87207   1.826   6.909   9.976 -1.9539  0.5898 -0.6788
  632MOL0     H87208   1.610   6.801  10.168 -1.5724 -2.6025 -2.0677
  632MOL0     H87209   1.594   6.913  10.034  0.7465  0.4057 -1.2767
  632MOL0     H87210   1.668   6.689   9.885 -0.5364 -3.6535 -0.2626
  632MOL0     H87211   1.504   6.699   9.963  0.4589  0.0323 -3.6948
  632MOL0     H87212   1.700   6.357  10.111 -0.4150 -0.1861 -0.4972
  632MOL0     H87213   1.979   7.010  10.404 -2.3140 -0.3686  2.6777
  632MOL0     H87214   2.129   7.247  10.603  3.2131 -3.8516 -0.8495
  632MOL0     H87215   2.010   7.184  10.720  0.9346 -1.2051 -0.1858
  632MOL0     H87216   2.081   7.082  10.600 -0.8379 -0.1700 -1.7284
  633MOL0     O87217   8.837   9.953   5.268 -0.1167 -0.4654  0.3566
  633MOL0     C87218   8.918   9.904   5.343  0.4132 -1.3103 -0.4407
  633MOL0     O87219   9.005   9.975   5.413  0.3045 -0.1176  0.7663
  633MOL0     C87220   9.018  10.111   5.384 -0.4350  0.6674 -0.7384
  633MOL0     C87221   8.959  10.204   5.473 -0.1148 -0.2838 -0.6996
  633MOL0     C87222   8.996  10.341   5.461  0.7830 -0.4768 -0.0867
  633MOL0     C87223   9.079  10.382   5.358 -0.4109  0.4874  0.4967
  633MOL0     O87224   9.129  10.505   5.344  0.0362  0.4408  0.2550
  633MOL0     C87225   9.051  10.617   5.378 -0.5311 -0.4029 -0.8004
  633MOL0     C87226   9.097  10.710   5.262 -0.6314 -1.1032  0.1980
  633MOL0     C87227   9.055  10.664   5.115  0.0682 -0.4337  0.5103
  633MOL0     C87228   9.028  10.792   5.023  0.6202 -1.1223 -0.1964
  633MOL0     C87229   8.963  10.757   4.900 -0.2481  0.2612  0.5744
  633MOL0     C87230   9.025  10.657   4.798 -0.0999 -0.1496  0.5062
  633MOL0     C87231   9.161  10.714   4.757  0.1860  0.4795  0.4065
  633MOL0     C87232   9.237  10.617   4.665 -0.0137  0.0670  0.7578
  633MOL0     N87233   9.372  10.657   4.631  0.1372 -0.3588  0.1962
  633MOL0     C87234   9.476  10.667   4.719  0.8992 -0.5379  0.9390
  633MOL0     C87235   9.574  10.710   4.644 -0.6710 -0.1125 -0.5110
  633MOL0     C87236   9.718  10.747   4.675 -0.0873 -0.3035  0.1399
  633MOL0     C87237   9.802  10.611   4.681 -0.2432  0.0197 -0.2423
  633MOL0     C87238   9.940  10.616   4.737  0.9951  0.3823  0.2828
  633MOL0     C87239   9.943  10.701   4.859  0.1061 -0.2857  0.3085
  633MOL0     O87240  10.069  10.699   4.923  0.0435 -1.0707 -0.5163
  633MOL0     C87241  10.082  10.779   5.037  0.3728 -0.0027 -0.2788
  633MOL0     C87242   9.976  10.840   5.111 -0.9764  0.1758 -0.3528
  633MOL0     C87243   9.995  10.924   5.223 -0.3207  0.3677 -0.3616
  633MOL0     C87244   9.874  10.989   5.284 -0.3345 -0.0074 -0.1140
  633MOL0     C87245  10.128  10.924   5.274 -0.1638  0.8546  0.4056
  633MOL0     C87246  10.173  11.002   5.394 -0.3591  0.6496  0.4514
  633MOL0     O87247  10.286  11.075   5.382 -0.5067 -0.0565 -0.3653
  633MOL0     C87248  10.323  11.170   5.467 -0.8775 -0.0046 -0.1474
  633MOL0     C87249  10.335  11.160   5.612 -0.1609  1.0576 -0.2484
  633MOL0     C87250  10.384  11.255   5.705 -0.3555  0.0562  0.1033
  633MOL0     C87251  10.430  11.376   5.653 -0.3685 -0.3969 -0.4636
  633MOL0     O87252  10.466  11.487   5.725 -0.3225 -0.3503  0.9014
  633MOL0     C87253  10.369  11.535   5.823 -0.1227  0.5838  0.4868
  633MOL0     C87254  10.274  11.627   5.752  1.1760 -0.7493 -0.0569
  633MOL0     C87255  10.155  11.669   5.840 -0.1423 -0.1979 -0.1456
  633MOL0     C87256  10.194  11.747   5.967  0.3830 -0.3872  0.4630
  633MOL0     C87257  10.281  11.879   5.937  0.6349  0.5248 -0.3076
  633MOL0     C87258  10.329  11.943   6.065  0.2425  0.2981  0.5350
  633MOL0     C87259  10.408  12.069   6.028 -0.2250 -0.1714 -0.5330
  633MOL0     C87260  10.519  12.063   5.920  0.0264  0.1405  0.2453
  633MOL0    Cl87261  10.639  11.940   5.956  0.1223  0.4356 -0.2557
  633MOL0     C87262  10.439  11.384   5.509 -0.6079 -0.2596 -0.6288
  633MOL0     C87263  10.391  11.283   5.418 -0.0875 -0.4624  0.6523
  633MOL0     O87264  10.090  11.013   5.485  0.2275 -0.6402 -0.6102
  633MOL0     C87265  10.236  10.865   5.199  0.2554  0.4830 -0.4179
  633MOL0     C87266  10.211  10.795   5.082 -0.0482  0.1388 -0.1677
  633MOL0     N87267   9.524  10.760   4.527  0.9538 -0.2119  1.0186
  633MOL0     N87268   9.401  10.726   4.523  0.1863 -0.8618  0.6890
  633MOL0     C87269   9.130  10.284   5.263 -0.2489 -0.1393  0.1964
  633MOL0     C87270   9.095  10.150   5.277 -0.1134  0.3349 -0.6915
  633MOL0     C87271   8.920   9.761   5.362 -0.4121  1.3095 -0.8158
  633MOL0     C87272   9.014   9.670   5.298 -0.3594 -0.1915  0.7864
  633MOL0     C87273   9.033   9.542   5.332 -0.2080  0.4248 -0.0798
  633MOL0     C87274   8.972   9.497   5.444  0.3364  1.0581  0.2308
  633MOL0     O87275   8.993   9.386   5.524  0.1081 -0.1257  0.7648
  633MOL0     C87276   9.098   9.301   5.480 -0.6665 -0.1698 -0.3387
  633MOL0     C87277   9.076   9.167   5.532  0.4109 -0.3937  0.6227
  633MOL0     C87278   9.190   9.062   5.498 -0.4130 -0.4666 -0.1367
  633MOL0     C87279   9.192   9.039   5.346  0.9782 -0.8785 -0.0373
  633MOL0     C87280   9.087   8.952   5.293  0.1768  0.6283 -0.3930
  633MOL0     C87281   8.990   8.895   5.249  0.9089  1.1898  0.1614
  633MOL0     C87282   8.880   9.576   5.509  0.0057 -0.2911  0.4289
  633MOL0     C87283   8.850   9.707   5.472 -0.3537 -0.0123  0.4658
  633MOL0     C87284   8.742   9.776   5.558 -0.5563  0.0943  0.4530
  633MOL0     H87285   8.900  10.166   5.556 -1.0455  0.5977 -0.9317
  633MOL0     H87286   8.955  10.404   5.539  1.4949 -1.0229  0.7459
  633MOL0     H87287   9.079  10.653   5.477  0.1230 -1.9781 -0.3821
  633MOL0     H87288   8.943  10.603   5.379 -0.6138 -0.1868  2.2666
  633MOL0     H87289   9.041  10.802   5.282 -0.3123 -0.6614 -0.8630
  633MOL0     H87290   9.202  10.740   5.262 -0.7860 -0.4308  1.7885
  633MOL0     H87291   9.131  10.598   5.073 -0.4242 -1.0091  0.5087
  633MOL0     H87292   8.967  10.599   5.112 -0.2814 -0.0007  1.1018
  633MOL0     H87293   8.969  10.858   5.087 -0.4369 -1.6443 -0.6142
  633MOL0     H87294   9.127  10.836   5.006 -0.5717  2.1055  0.6710
  633MOL0     H87295   8.967  10.855   4.851 -3.1245  0.4937  0.6850
  633MOL0     H87296   8.858  10.728   4.906  0.0778 -0.8888  0.9656
  633MOL0     H87297   9.038  10.564   4.853 -1.1779  0.7303  2.3525
  633MOL0     H87298   8.962  10.647   4.709 -0.8473 -1.8133  1.1771
  633MOL0     H87299   9.216  10.739   4.847 -2.1188  0.6689  1.8438
  633MOL0     H87300   9.152  10.811   4.707  3.8129  0.5372 -0.3622
  633MOL0     H87301   9.222  10.520   4.714 -0.6559 -1.1426 -1.6893
  633MOL0     H87302   9.181  10.603   4.572 -1.8594 -0.5808  1.9079
  633MOL0     H87303   9.472  10.638   4.823  0.4223  2.0864  1.7187
  633MOL0     H87304   9.718  10.814   4.761  2.4916  2.7607 -2.0146
  633MOL0     H87305   9.758  10.813   4.597 -3.7353  0.8122 -1.0450
  633MOL0     H87306   9.746  10.539   4.741 -0.5108 -0.2017 -0.7578
  633MOL0     H87307   9.801  10.572   4.579 -0.2845  1.1308 -0.6862
  633MOL0     H87308   9.971  10.513   4.760 -4.0308 -1.2784  0.9563
  633MOL0     H87309   9.992  10.656   4.650  0.6906 -1.7317 -0.9403
  633MOL0     H87310   9.926  10.803   4.824 -0.5749  0.2698  2.1145
  633MOL0     H87311   9.868  10.658   4.926 -0.0733 -1.9725 -0.9219
  633MOL0     H87312   9.877  10.829   5.068 -0.5979  1.1671 -1.5497
  633MOL0     H87313   9.801  10.997   5.203 -1.3681  2.0083  0.9224
  633MOL0     H87314   9.892  11.089   5.324 -1.5598 -0.3176  1.2998
  633MOL0     H87315   9.845  10.925   5.368  0.8713 -1.7207 -0.9534
  633MOL0     H87316  10.290  11.069   5.649 -0.7397 -0.2590 -3.8196
  633MOL0     H87317  10.381  11.245   5.813 -0.3287  2.3721  0.3624
  633MOL0     H87318  10.307  11.460   5.871 -0.4497  0.5427  0.0082
  633MOL0     H87319  10.422  11.588   5.903 -2.1741  2.3314  0.7543
  633MOL0     H87320  10.333  11.712   5.716 -0.1389  0.3307  0.2890
  633MOL0     H87321  10.227  11.577   5.667  0.0363 -0.4432  0.3813
  633MOL0     H87322  10.101  11.577   5.868 -3.5609  0.2074 -4.3724
  633MOL0     H87323  10.080  11.714   5.775  0.0218 -1.0179 -0.9286
  633MOL0     H87324  10.250  11.683   6.036 -1.6816 -2.3591  0.4225
  633MOL0     H87325  10.101  11.769   6.018  0.1410 -0.5717  0.1061
  633MOL0     H87326  10.372  11.863   5.878  0.3520 -1.1863 -0.3337
  633MOL0     H87327  10.209  11.941   5.884  1.5166  0.1678 -1.9950
  633MOL0     H87328  10.401  11.884   6.123  2.0672  2.4303  0.5493
  633MOL0     H87329  10.247  11.960   6.136  1.1113  1.1156  1.3740
  633MOL0     H87330  10.451  12.110   6.119 -0.6935 -0.2828 -0.2555
  633MOL0     H87331  10.328  12.136   5.995  0.0170  2.4347  3.5327
  633MOL0     H87332  10.570  12.160   5.909  0.4994  0.0747  1.6789
  633MOL0     H87333  10.476  12.042   5.821  0.9208  3.5962 -1.0457
  633MOL0     H87334  10.487  11.473   5.468  1.9101  0.2442  2.9276
  633MOL0     H87335  10.420  11.294   5.314 -0.9976 -0.9081  0.3415
  633MOL0     H87336  10.334  10.872   5.244 -0.6417 -1.4287  2.0587
  633MOL0     H87337  10.294  10.739   5.038  0.8103  3.0245 -2.5771
  633MOL0     H87338   9.200  10.322   5.189 -1.3853 -0.4187 -1.0704
  633MOL0     H87339   9.151  10.081   5.214  0.4868  0.6842 -0.5522
  633MOL0     H87340   9.076   9.691   5.212 -0.1294 -2.7131  0.2647
  633MOL0     H87341   9.111   9.486   5.282 -0.2086  0.5994 -0.2726
  633MOL0     H87342   9.102   9.304   5.370  1.0807  1.1321 -0.2984
  633MOL0     H87343   9.199   9.330   5.512 -0.1018 -0.0322 -2.1229
  633MOL0     H87344   8.977   9.135   5.497  0.0847  0.0186  1.1659
  633MOL0     H87345   9.069   9.171   5.641  0.1733  1.8033  0.5606
  633MOL0     H87346   9.293   9.092   5.519 -0.1831 -0.5059 -1.1968
  633MOL0     H87347   9.178   8.966   5.549  1.1886 -0.5832  0.0781
  633MOL0     H87348   9.287   8.988   5.325  0.3792 -1.3854 -1.6635
  633MOL0     H87349   9.192   9.128   5.282  1.9696 -1.9920 -1.6825
  633MOL0     H87350   8.918   8.824   5.215  0.6150  1.2738  0.6085
  633MOL0     H87351   8.823   9.541   5.595 -1.2715 -0.2731 -0.3774
  633MOL0     H87352   8.783   9.769   5.660  3.9788 -2.2829 -1.2291
  633MOL0     H87353   8.740   9.881   5.529  2.8415 -0.4722 -2.5185
  633MOL0     H87354   8.643   9.732   5.542 -1.0225  2.2116 -3.9266
  634MOL0     O87355   1.366   1.010   5.110  0.3121  0.0036  0.0209
  634MOL0     C87356   1.457   0.937   5.140 -0.6343  0.5405  0.5026
  634MOL0     O87357   1.546   0.966   5.241 -0.3958 -0.2120 -0.2015
  634MOL0     C87358   1.511   1.070   5.330  0.4978 -0.1567 -0.0199
  634MOL0     C87359   1.471   1.045   5.462  0.4205 -0.0753  0.0111
  634MOL0     C87360   1.461   1.155   5.558  1.0450 -0.3753 -0.6114
  634MOL0     C87361   1.476   1.287   5.507  1.1799 -0.4828  0.5967
  634MOL0     O87362   1.456   1.402   5.585 -0.4171 -0.8699  0.1066
  634MOL0     C87363   1.333   1.407   5.646  0.3736  0.2146  0.3553
  634MOL0     C87364   1.312   1.533   5.716  0.1335 -0.0570  0.0452
  634MOL0     C87365   1.349   1.650   5.624 -0.3323  0.3896  0.2798
  634MOL0     C87366   1.317   1.642   5.465  0.3802 -0.6000 -0.9760
  634MOL0     C87367   1.321   1.785   5.418  0.3395 -0.2917 -0.3696
  634MOL0     C87368   1.298   1.811   5.271  0.3323  0.0422  0.0376
  634MOL0     C87369   1.308   1.957   5.216  0.0956  0.5675  0.6425
  634MOL0     C87370   1.407   2.050   5.281  0.4749 -0.1369  0.4499
  634MOL0     N87371   1.391   2.188   5.236 -0.2635  0.7483  0.0909
  634MOL0     C87372   1.437   2.238   5.114 -0.1861  0.3327  0.1399
  634MOL0     C87373   1.387   2.364   5.113  0.7331 -0.3101 -0.0655
  634MOL0     C87374   1.405   2.465   5.011 -0.2264 -0.0383  0.6091
  634MOL0     C87375   1.288   2.559   5.003 -0.5340  0.1555  0.5513
  634MOL0     C87376   1.151   2.492   4.978  0.3820 -0.0136  0.2889
  634MOL0     C87377   1.123   2.430   4.841  1.2306  0.7024  0.3197
  634MOL0     O87378   1.232   2.345   4.800 -0.8016  0.5778 -0.9246
  634MOL0     C87379   1.213   2.252   4.703 -0.0381  0.2570 -0.0109
  634MOL0     C87380   1.095   2.224   4.636 -0.2002 -0.5305 -0.4260
  634MOL0     C87381   1.091   2.136   4.528  0.0307  0.5743 -0.1212
  634MOL0     C87382   0.961   2.121   4.462  0.9413  0.4378  0.5110
  634MOL0     C87383   1.200   2.061   4.483 -0.3027  0.7380  0.0148
  634MOL0     C87384   1.205   1.959   4.371 -0.4743 -0.4982 -0.1295
  634MOL0     O87385   1.329   1.893   4.369 -0.5750  0.8517  0.1551
  634MOL0     C87386   1.370   1.807   4.269 -0.2219 -0.2713 -0.5064
  634MOL0     C87387   1.295   1.769   4.158 -0.8636  0.0070  0.7030
  634MOL0     C87388   1.359   1.692   4.051  0.8430 -0.0569  0.3216
  634MOL0     C87389   1.476   1.625   4.067 -0.2072 -0.1627  1.1015
  634MOL0     O87390   1.523   1.539   3.973  0.1040 -0.3120  0.0729
  634MOL0     C87391   1.541   1.402   4.003  0.4678  0.1419  0.4030
  634MOL0     C87392   1.552   1.318   3.882  0.1887  0.2558 -0.5501
  634MOL0     C87393   1.677   1.331   3.806  0.4077 -0.4250 -0.9943
  634MOL0     C87394   1.790   1.245   3.866 -0.5908  0.9693  0.5033
  634MOL0     C87395   1.905   1.241   3.761 -0.7409  0.0291  0.1536
  634MOL0     C87396   1.973   1.379   3.737 -1.2912 -0.2040 -0.4954
  634MOL0     C87397   2.110   1.360   3.660 -0.2266  0.4662  0.4118
  634MOL0     C87398   2.199   1.481   3.634  0.3163  0.0655  0.3696
  634MOL0    Cl87399   2.259   1.531   3.797 -0.0944 -0.1801 -0.0759
  634MOL0     C87400   1.552   1.650   4.186 -0.0810  0.1468 -0.5652
  634MOL0     C87401   1.503   1.747   4.277 -0.4185  0.0514  0.5311
  634MOL0     O87402   1.115   1.948   4.289 -0.2432 -0.3926 -0.1171
  634MOL0     C87403   1.324   2.102   4.554 -0.2309  0.0171 -0.2966
  634MOL0     C87404   1.328   2.196   4.661 -0.1850  0.0570 -0.2059
  634MOL0     N87405   1.314   2.381   5.232  0.1459  0.8993  0.0020
  634MOL0     N87406   1.325   2.277   5.309 -0.4215 -0.3092 -0.1666
  634MOL0     C87407   1.528   1.311   5.385  0.4653 -0.6173 -0.8539
  634MOL0     C87408   1.541   1.202   5.297  0.4243  0.1675 -0.3721
  634MOL0     C87409   1.495   0.819   5.056 -0.2689 -0.1265  0.3967
  634MOL0     C87410   1.437   0.804   4.934  0.5110  1.3428  0.5525
  634MOL0     C87411   1.455   0.699   4.851 -0.0337 -0.5723  0.1917
  634MOL0     C87412   1.538   0.596   4.883 -0.2098 -0.2765 -0.2858
  634MOL0     O87413   1.574   0.511   4.783 -0.7530 -0.0720  0.5141
  634MOL0     C87414   1.712   0.480   4.758 -0.7536  0.3057  0.4524
  634MOL0     C87415   1.767   0.359   4.838  0.1675  0.8736 -0.6514
  634MOL0     C87416   1.654   0.250   4.824  1.2011  0.1394 -0.1843
  634MOL0     C87417   1.673   0.139   4.928  0.3412 -0.6282 -0.3574
  634MOL0     C87418   1.795   0.061   4.904 -0.5558 -0.8177  0.0233
  634MOL0     C87419   1.892  -0.008   4.889  0.1895  0.0398 -0.8538
  634MOL0     C87420   1.601   0.599   5.011 -0.6907 -0.2812 -0.0488
  634MOL0     C87421   1.583   0.712   5.094  0.4689 -0.6800 -0.5747
  634MOL0     C87422   1.660   0.717   5.229  0.7703  0.8084  0.1630
  634MOL0     H87423   1.466   0.945   5.506  0.0299 -0.3724 -0.7011
  634MOL0     H87424   1.438   1.143   5.663 -1.3164  0.6458 -0.9504
  634MOL0     H87425   1.312   1.322   5.712 -0.5982 -0.6314 -0.9773
  634MOL0     H87426   1.261   1.394   5.565  1.2455  0.8377 -0.5348
  634MOL0     H87427   1.205   1.534   5.740 -0.2187 -5.3385 -0.1250
  634MOL0     H87428   1.372   1.544   5.806 -0.0115  3.0638 -0.1429
  634MOL0     H87429   1.289   1.731   5.667  0.2754 -0.4150  2.7901
  634MOL0     H87430   1.451   1.676   5.653 -1.0665 -0.9439  4.7237
  634MOL0     H87431   1.397   1.591   5.411  0.8372 -1.7260  0.6605
  634MOL0     H87432   1.221   1.595   5.441  0.7466 -0.4147 -2.9680
  634MOL0     H87433   1.420   1.822   5.447  0.4927 -0.5492 -0.5628
  634MOL0     H87434   1.246   1.844   5.471 -0.0620  0.2177 -1.4793
  634MOL0     H87435   1.375   1.759   5.212  1.3264  1.6038 -0.0850
  634MOL0     H87436   1.202   1.770   5.238  1.2421  0.0003 -2.8402
  634MOL0     H87437   1.208   2.002   5.210 -0.5744 -1.0145 -1.2750
  634MOL0     H87438   1.348   1.940   5.115  1.5337  0.7664  1.1573
  634MOL0     H87439   1.383   2.044   5.388 -0.3677 -1.5202  0.2114
  634MOL0     H87440   1.507   2.009   5.267  1.9142  2.5443  2.1099
  634MOL0     H87441   1.500   2.200   5.034  1.3892  0.0189  1.4709
  634MOL0     H87442   1.416   2.412   4.916 -1.3390 -0.1042  0.5024
  634MOL0     H87443   1.500   2.512   5.037 -0.1457  1.0024 -1.3607
  634MOL0     H87444   1.279   2.612   5.098 -2.4835 -0.1211  0.5599
  634MOL0     H87445   1.316   2.639   4.934  2.7029 -0.5100  0.9258
  634MOL0     H87446   1.138   2.406   5.046 -0.6852 -3.0577 -3.4135
  634MOL0     H87447   1.069   2.561   4.997  1.0079  1.2424 -1.3918
  634MOL0     H87448   1.034   2.367   4.850  3.0320 -2.0174  0.5180
  634MOL0     H87449   1.098   2.511   4.772  0.4748 -1.2251 -1.7926
  634MOL0     H87450   1.002   2.278   4.656 -1.8289 -1.8550 -3.5958
  634MOL0     H87451   0.969   2.157   4.359  1.1178  1.0480  0.7296
  634MOL0     H87452   0.887   2.188   4.507 -1.7904 -2.9393  1.4859
  634MOL0     H87453   0.927   2.018   4.472 -1.0390  1.0274  0.3098
  634MOL0     H87454   1.197   1.812   4.144 -0.2295  1.4626  0.5115
  634MOL0     H87455   1.307   1.666   3.959  1.0001 -1.6768  0.6489
  634MOL0     H87456   1.626   1.375   4.066  1.5891 -3.8676 -2.4648
  634MOL0     H87457   1.451   1.357   4.046  1.0455 -0.3836  1.0826
  634MOL0     H87458   1.538   1.218   3.926  2.7379 -0.0761 -0.3622
  634MOL0     H87459   1.476   1.343   3.807  1.8021 -2.7400 -3.4304
  634MOL0     H87460   1.706   1.437   3.815 -5.0800  1.1519  2.8199
  634MOL0     H87461   1.653   1.299   3.704 -0.6028 -1.4004 -0.4553
  634MOL0     H87462   1.758   1.145   3.898  1.6548 -0.3181 -1.0435
  634MOL0     H87463   1.817   1.301   3.956  0.0372  2.6329 -0.6834
  634MOL0     H87464   1.978   1.164   3.786 -1.5920 -1.3253 -1.3400
  634MOL0     H87465   1.861   1.207   3.667 -2.3636 -1.0342  1.2428
  634MOL0     H87466   1.997   1.421   3.836 -1.0895  1.5776 -1.2473
  634MOL0     H87467   1.910   1.453   3.687  0.1763  2.2232  0.9756
  634MOL0     H87468   2.085   1.321   3.561  0.8283  1.0065 -0.0769
  634MOL0     H87469   2.156   1.273   3.706 -1.1320  0.5408  1.5064
  634MOL0     H87470   2.131   1.555   3.591 -0.3254 -2.1189 -2.6317
  634MOL0     H87471   2.279   1.473   3.560 -2.3089  5.7890 -3.8696
  634MOL0     H87472   1.647   1.601   4.202  2.0134  4.1247  0.4723
  634MOL0     H87473   1.553   1.761   4.372  1.6956 -2.0586 -0.1820
  634MOL0     H87474   1.413   2.042   4.539  0.7628  1.9478 -2.7881
  634MOL0     H87475   1.425   2.216   4.705  0.1667 -0.2165 -0.8503
  634MOL0     H87476   1.544   1.416   5.365 -1.8171  0.8294  3.6179
  634MOL0     H87477   1.593   1.219   5.204  1.3376 -1.9453 -0.2994
  634MOL0     H87478   1.380   0.888   4.897 -1.4881 -0.9174 -1.8995
  634MOL0     H87479   1.414   0.704   4.751  0.1715 -2.1156  0.0003
  634MOL0     H87480   1.715   0.468   4.649 -1.0632 -1.0225  0.5699
  634MOL0     H87481   1.772   0.565   4.791  2.3960 -0.8428 -1.8512
  634MOL0     H87482   1.780   0.365   4.946  1.8551 -0.6411 -0.7369
  634MOL0     H87483   1.856   0.322   4.787 -0.5740 -2.6725  0.3158
  634MOL0     H87484   1.557   0.299   4.836  1.2046  0.6763 -1.9836
  634MOL0     H87485   1.648   0.212   4.721 -0.7370  2.0282 -0.8466
  634MOL0     H87486   1.580   0.082   4.917 -0.0939  0.3501 -2.1168
  634MOL0     H87487   1.683   0.178   5.030  1.4740 -0.1303 -0.6506
  634MOL0     H87488   1.976  -0.074   4.875  0.1371 -0.2745  0.1594
  634MOL0     H87489   1.662   0.511   5.029 -0.7130 -0.0282  1.4645
  634MOL0     H87490   1.588   0.721   5.311  0.8219 -1.1247  0.3598
  634MOL0     H87491   1.723   0.628   5.241  1.1100  1.0345  0.0562
  634MOL0     H87492   1.725   0.804   5.230  1.6509  0.3100 -3.0600
  635MOL0     O87493   0.866   8.179   7.970  0.2755 -0.4422 -0.2883
  635MOL0     C87494   0.942   8.272   7.975  0.0991 -0.8464 -0.3816
  635MOL0     O87495   1.074   8.274   7.942 -0.5762 -0.3907  0.5537
  635MOL0     C87496   1.151   8.163   7.948  1.3566  0.8710 -0.2176
  635MOL0     C87497   1.117   8.028   7.980  0.2854  0.7714  0.0913
  635MOL0     C87498   1.221   7.932   7.985 -0.4582 -1.0629 -0.7969
  635MOL0     C87499   1.351   7.960   7.941 -0.0572 -0.2657 -1.0423
  635MOL0     O87500   1.448   7.866   7.943  0.7542 -0.1347 -0.1662
  635MOL0     C87501   1.579   7.884   7.897 -0.7129  0.1058  0.2416
  635MOL0     C87502   1.658   7.756   7.906  0.3384 -0.7646  0.0200
  635MOL0     C87503   1.791   7.738   7.836 -0.0351 -0.1516  0.0565
  635MOL0     C87504   1.827   7.582   7.823  1.1160 -0.8475  0.1839
  635MOL0     C87505   1.947   7.530   7.745  0.1008 -0.0207  0.0054
  635MOL0     C87506   1.925   7.507   7.594 -0.9988  0.1452 -0.1852
  635MOL0     C87507   1.822   7.410   7.547 -0.0245 -0.3612 -0.3166
  635MOL0     C87508   1.844   7.265   7.602  0.3171 -0.4602 -1.2854
  635MOL0     N87509   1.872   7.161   7.499 -0.1246 -0.9262 -0.8605
  635MOL0     C87510   2.001   7.118   7.479  0.6429  0.2606 -0.7325
  635MOL0     C87511   1.996   7.042   7.366  0.5301 -0.3835 -0.6374
  635MOL0     C87512   2.107   6.976   7.286  0.8352  0.6937  0.3347
  635MOL0     C87513   2.227   7.067   7.266 -0.6183 -0.8147 -0.2855
  635MOL0     C87514   2.328   6.994   7.172  0.4474  0.6965  0.2252
  635MOL0     C87515   2.436   7.093   7.152  0.8955 -0.6471  0.5134
  635MOL0     O87516   2.401   7.209   7.070  0.3975  0.5223 -0.0619
  635MOL0     C87517   2.495   7.296   7.026 -0.3390  0.5342  0.4315
  635MOL0     C87518   2.460   7.397   6.940  0.6796  0.1993 -1.0451
  635MOL0     C87519   2.555   7.498   6.902 -0.7822  0.2412 -0.3755
  635MOL0     C87520   2.512   7.585   6.781  0.5026  0.0210  1.1373
  635MOL0     C87521   2.696   7.487   6.936  0.0340 -0.0361  0.2361
  635MOL0     C87522   2.798   7.590   6.896 -0.1113  0.4274 -1.0159
  635MOL0     O87523   2.772   7.687   6.800 -0.4750  0.2487  0.0185
  635MOL0     C87524   2.870   7.789   6.785  1.9150  0.3202  0.8610
  635MOL0     C87525   2.969   7.778   6.680  1.1831 -0.1064 -0.6425
  635MOL0     C87526   3.069   7.874   6.682  0.0452 -0.0963 -0.3513
  635MOL0     C87527   3.051   7.989   6.767  0.1388  0.2802  0.2050
  635MOL0     O87528   3.137   8.102   6.755  0.4742  0.6169 -0.1378
  635MOL0     C87529   3.135   8.159   6.629 -0.4941 -0.0903  0.4161
  635MOL0     C87530   3.151   8.313   6.646 -0.0598  0.8544 -0.2957
  635MOL0     C87531   3.166   8.377   6.509 -0.0566 -0.0546 -0.5801
  635MOL0     C87532   3.172   8.529   6.528 -0.9545  0.1335  1.0881
  635MOL0     C87533   3.201   8.603   6.400  0.0180 -1.2907  1.0504
  635MOL0     C87534   3.193   8.754   6.425 -0.6636  0.4448 -0.1727
  635MOL0     C87535   3.209   8.825   6.301 -0.4646  0.2914 -0.3690
  635MOL0     C87536   3.196   8.973   6.306  0.0551 -1.2756 -0.7121
  635MOL0    Cl87537   3.323   9.046   6.422 -0.2608  0.4183  0.6193
  635MOL0     C87538   2.958   7.993   6.872 -0.7729  0.0228 -0.2094
  635MOL0     C87539   2.874   7.886   6.883 -0.7018  0.9038 -1.0502
  635MOL0     O87540   2.901   7.596   6.972  0.1870  0.9175 -0.1787
  635MOL0     C87541   2.731   7.387   7.025 -0.3703  0.3331 -0.8276
  635MOL0     C87542   2.634   7.293   7.065 -0.2351  0.1199 -0.2048
  635MOL0     N87543   1.869   7.049   7.314  0.0097  0.3965  0.2826
  635MOL0     N87544   1.791   7.112   7.402  0.0712 -0.4654  0.5002
  635MOL0     C87545   1.374   8.089   7.898  0.4198 -1.5510  0.0830
  635MOL0     C87546   1.279   8.189   7.904  0.8974  1.4420  0.4485
  635MOL0     C87547   0.877   8.411   8.011  0.1204  0.1837 -0.1963
  635MOL0     C87548   0.763   8.405   8.089  0.5518  0.5174 -0.1131
  635MOL0     C87549   0.691   8.518   8.125  0.1389  0.3775  0.4327
  635MOL0     C87550   0.741   8.646   8.110 -0.2748 -0.7849 -0.8788
  635MOL0     O87551   0.663   8.754   8.137  0.3248  0.3188  0.8075
  635MOL0     C87552   0.569   8.751   8.248  0.0833  0.1633 -0.4859
  635MOL0     C87553   0.633   8.732   8.386  0.8274 -0.0597  0.4353
  635MOL0     C87554   0.719   8.847   8.424  0.2639 -0.1510 -0.2568
  635MOL0     C87555   0.770   8.846   8.571  0.3463 -0.1039 -0.6889
  635MOL0     C87556   0.869   8.953   8.592 -0.4086  0.5773  0.1677
  635MOL0     C87557   0.943   9.041   8.633 -0.1506 -0.4905  0.6364
  635MOL0     C87558   0.856   8.659   8.032 -0.4381 -0.6654 -0.3647
  635MOL0     C87559   0.921   8.544   7.979  0.6232  1.6597  0.3076
  635MOL0     C87560   1.032   8.559   7.878 -0.2175 -0.2344  1.1738
  635MOL0     H87561   1.022   7.993   8.019  0.9623 -1.1027  0.1833
  635MOL0     H87562   1.188   7.840   8.033  0.8713 -1.4710 -0.6284
  635MOL0     H87563   1.623   7.966   7.955 -3.0846 -0.3043  2.8670
  635MOL0     H87564   1.578   7.910   7.791  0.2965  0.0674  0.2176
  635MOL0     H87565   1.669   7.718   8.008 -0.1383 -0.1549  0.3045
  635MOL0     H87566   1.592   7.682   7.860 -0.6121  0.5544 -0.8206
  635MOL0     H87567   1.789   7.776   7.734 -2.5209  0.6625  0.3307
  635MOL0     H87568   1.869   7.792   7.890 -1.8050  1.2745  1.3216
  635MOL0     H87569   1.847   7.567   7.930  1.7505  2.2126  0.6021
  635MOL0     H87570   1.737   7.527   7.796 -0.2238  1.6762 -0.7887
  635MOL0     H87571   1.979   7.434   7.785 -2.2837 -0.4112  1.1617
  635MOL0     H87572   2.037   7.592   7.755  1.3186 -1.2904 -2.2563
  635MOL0     H87573   1.887   7.603   7.559 -2.1376  0.8529  2.7785
  635MOL0     H87574   2.018   7.493   7.537 -0.4263 -1.4394  1.0614
  635MOL0     H87575   1.830   7.411   7.438 -2.6122  1.2948 -0.5759
  635MOL0     H87576   1.719   7.438   7.572  0.3737  2.8424 -1.7466
  635MOL0     H87577   1.923   7.275   7.677 -1.4293 -0.8840  0.7203
  635MOL0     H87578   1.750   7.244   7.653 -0.8030 -0.4436 -3.2471
  635MOL0     H87579   2.087   7.134   7.543  0.3686  0.2536 -0.3608
  635MOL0     H87580   2.058   6.958   7.190  0.0575 -2.6306  1.2387
  635MOL0     H87581   2.136   6.884   7.337 -0.7428  0.2188  0.4358
  635MOL0     H87582   2.182   7.155   7.220 -1.0457 -0.2548  1.1261
  635MOL0     H87583   2.277   7.086   7.362  2.0072  0.1020 -1.7310
  635MOL0     H87584   2.364   6.903   7.221 -1.0230 -1.3551 -2.2834
  635MOL0     H87585   2.297   6.959   7.074 -0.8385  0.3740  0.7252
  635MOL0     H87586   2.477   7.134   7.245  1.5626 -0.8865  0.3268
  635MOL0     H87587   2.521   7.041   7.107 -1.0617 -0.7326 -3.5317
  635MOL0     H87588   2.360   7.409   6.900  0.0526  1.3064  0.7732
  635MOL0     H87589   2.427   7.545   6.726  2.2910 -1.5383 -0.6434
  635MOL0     H87590   2.596   7.581   6.711  0.1358  0.3371  0.6754
  635MOL0     H87591   2.491   7.687   6.816 -2.1917 -0.0632 -0.0644
  635MOL0     H87592   2.971   7.701   6.604  1.3468  0.4594 -1.2218
  635MOL0     H87593   3.142   7.871   6.602  0.9059 -1.6714  0.4491
  635MOL0     H87594   3.220   8.120   6.572 -0.5472 -2.0666  1.5985
  635MOL0     H87595   3.044   8.144   6.569  1.1557  0.4151 -2.4004
  635MOL0     H87596   3.063   8.356   6.695  0.5775  0.7919  0.9577
  635MOL0     H87597   3.234   8.330   6.715  1.5602 -2.2150 -1.2937
  635MOL0     H87598   3.089   8.357   6.435  1.9662  0.0333 -2.8137
  635MOL0     H87599   3.261   8.344   6.465  0.6503  0.0664  0.7837
  635MOL0     H87600   3.241   8.545   6.611 -1.1431 -1.0283  1.4902
  635MOL0     H87601   3.069   8.555   6.554 -1.2910  1.2868 -1.2004
  635MOL0     H87602   3.305   8.594   6.370  0.6845  1.8913  2.0520
  635MOL0     H87603   3.126   8.574   6.326  1.5537  3.6702 -3.0651
  635MOL0     H87604   3.258   8.788   6.507 -0.7795 -1.1452  0.6267
  635MOL0     H87605   3.091   8.777   6.456 -0.5684  1.6280 -0.6637
  635MOL0     H87606   3.116   8.797   6.251 -1.2511  0.1613  1.1086
  635MOL0     H87607   3.300   8.800   6.246 -1.5302 -2.7285 -0.9245
  635MOL0     H87608   3.101   9.001   6.353  0.1227  0.8499 -1.7142
  635MOL0     H87609   3.217   9.007   6.204 -0.0981  1.1355 -0.0178
  635MOL0     H87610   2.947   8.074   6.943 -0.1643 -1.2797  1.4604
  635MOL0     H87611   2.794   7.896   6.956 -0.1555  0.8954 -0.4434
  635MOL0     H87612   2.832   7.385   7.066  0.3070 -3.1766 -2.3288
  635MOL0     H87613   2.675   7.222   7.136 -1.0097  1.6441  1.8770
  635MOL0     H87614   1.473   8.110   7.859 -1.1114  2.1755 -2.3470
  635MOL0     H87615   1.298   8.289   7.868  0.4633  1.4621  0.2735
  635MOL0     H87616   0.724   8.306   8.113 -2.9410  1.0776 -2.6873
  635MOL0     H87617   0.595   8.505   8.175  0.8466  0.4911  1.8706
  635MOL0     H87618   0.526   8.852   8.251  1.3948  0.8436 -2.3354
  635MOL0     H87619   0.481   8.687   8.237 -0.5524  0.4391  2.2052
  635MOL0     H87620   0.686   8.637   8.392 -1.6739 -1.5774  0.0779
  635MOL0     H87621   0.549   8.723   8.456 -0.5516  1.5742 -0.8898
  635MOL0     H87622   0.803   8.851   8.354 -0.7061  0.7276 -1.4189
  635MOL0     H87623   0.663   8.937   8.396 -2.4735 -1.2240  1.2954
  635MOL0     H87624   0.823   8.751   8.581  2.2208  0.9199 -0.5202
  635MOL0     H87625   0.684   8.848   8.638 -0.0137 -0.2258 -1.1381
  635MOL0     H87626   1.002   9.127   8.659 -1.2758  1.0326 -1.5173
  635MOL0     H87627   0.886   8.762   8.019  0.6725 -1.0005 -0.5531
  635MOL0     H87628   1.019   8.488   7.795 -1.3750  0.2870  0.9002
  635MOL0     H87629   1.039   8.663   7.846  1.9636 -1.3558 -2.7775
  635MOL0     H87630   1.128   8.531   7.924  0.8917  2.3523  0.6427
  636MOL0     O87631   1.159   1.650   6.143  0.2215  0.8386 -0.8661
  636MOL0     C87632   1.082   1.679   6.238  0.2859  0.0788  0.6194
  636MOL0     O87633   0.953   1.698   6.229  0.6160  0.5787  1.2105
  636MOL0     C87634   0.883   1.675   6.109 -0.3041  0.5489  0.4612
  636MOL0     C87635   0.787   1.569   6.098  0.1499  0.2108  0.6703
  636MOL0     C87636   0.727   1.548   5.972  0.3411  0.0993 -0.4625
  636MOL0     C87637   0.774   1.619   5.860  0.7380 -0.0728 -0.0230
  636MOL0     O87638   0.730   1.609   5.732 -0.2534  0.1701 -0.0103
  636MOL0     C87639   0.663   1.483   5.697  0.4498  0.3877  0.2675
  636MOL0     C87640   0.684   1.450   5.550  0.1438 -0.1144  0.5689
  636MOL0     C87641   0.827   1.472   5.501 -0.2744  0.1340  0.1171
  636MOL0     C87642   0.834   1.418   5.357 -0.2685  0.4146  0.1202
  636MOL0     C87643   0.979   1.438   5.292 -0.3125  0.7963  0.1949
  636MOL0     C87644   0.995   1.344   5.174  0.3511 -0.8875 -0.0185
  636MOL0     C87645   1.106   1.390   5.085 -0.2349 -0.0884 -1.1372
  636MOL0     C87646   1.242   1.326   5.118 -0.0542 -0.8003 -0.7266
  636MOL0     N87647   1.348   1.402   5.047 -0.3592  0.1343 -0.1291
  636MOL0     C87648   1.401   1.358   4.928  0.4200 -0.5191 -0.1280
  636MOL0     C87649   1.462   1.464   4.871 -0.5336 -0.1814  0.2473
  636MOL0     C87650   1.534   1.466   4.734  0.5026 -0.4278 -0.7164
  636MOL0     C87651   1.685   1.425   4.735 -0.1223 -0.0285  0.3808
  636MOL0     C87652   1.734   1.356   4.600  0.6069 -0.3855 -0.0029
  636MOL0     C87653   1.698   1.200   4.596 -0.4587 -0.0709 -0.2007
  636MOL0     O87654   1.557   1.172   4.603 -0.3633 -0.7740  0.4528
  636MOL0     C87655   1.502   1.052   4.566 -0.0120  0.2028  0.2143
  636MOL0     C87656   1.371   1.051   4.554 -0.4074  0.0529  0.5145
  636MOL0     C87657   1.298   0.935   4.518 -0.2592 -0.1118  0.2575
  636MOL0     C87658   1.159   0.963   4.477 -0.2621  0.7023 -0.1951
  636MOL0     C87659   1.371   0.812   4.489 -0.8519  0.2525 -0.1722
  636MOL0     C87660   1.321   0.681   4.443 -1.0750 -0.0386  0.0387
  636MOL0     O87661   1.417   0.589   4.415 -1.0376  0.1246 -0.5917
  636MOL0     C87662   1.381   0.463   4.372  1.0545  0.2956  1.0898
  636MOL0     C87663   1.411   0.351   4.454 -1.4060  0.5845  0.0634
  636MOL0     C87664   1.356   0.223   4.416 -0.4083  0.7859  0.4908
  636MOL0     C87665   1.279   0.204   4.304 -0.0224 -0.5067  0.3985
  636MOL0     O87666   1.228   0.080   4.271  0.3684 -0.2946 -0.2415
  636MOL0     C87667   1.146   0.082   4.148 -0.3806  0.5144 -0.0952
  636MOL0     C87668   1.094  -0.057   4.112 -0.9106  1.1052  0.0908
  636MOL0     C87669   1.206  -0.154   4.104 -0.0150 -0.3925  0.0588
  636MOL0     C87670   1.169  -0.305   4.099 -0.0348 -0.7688  0.5552
  636MOL0     C87671   1.289  -0.373   4.041 -0.3795  0.0405 -0.3914
  636MOL0     C87672   1.259  -0.528   4.043 -1.1322 -0.5793  0.4923
  636MOL0     C87673   1.353  -0.599   3.939  0.0594  0.3945  0.2974
  636MOL0     C87674   1.322  -0.749   3.918 -0.4478  0.9746 -0.4480
  636MOL0    Cl87675   1.432  -0.813   3.791  0.1166 -0.1139 -0.3289
  636MOL0     C87676   1.249   0.323   4.225 -1.1539  0.4382 -0.2310
  636MOL0     C87677   1.291   0.448   4.267  0.0277  0.6067 -0.3593
  636MOL0     O87678   1.201   0.657   4.453  0.1518 -0.1965  0.0227
  636MOL0     C87679   1.517   0.825   4.504 -0.1208 -0.4275  0.2894
  636MOL0     C87680   1.579   0.940   4.542  0.4336  0.3081 -0.5575
  636MOL0     N87681   1.460   1.561   4.971 -0.5035 -0.4653 -0.5279
  636MOL0     N87682   1.397   1.527   5.075  0.4738  0.3921 -0.2177
  636MOL0     C87683   0.864   1.726   5.870 -0.5569 -0.8870 -0.1105
  636MOL0     C87684   0.924   1.741   5.996 -0.1010  0.7821  0.3204
  636MOL0     C87685   1.147   1.685   6.371  1.2291 -0.2791  1.5941
  636MOL0     C87686   1.045   1.681   6.476  0.2888  0.4239  0.2594
  636MOL0     C87687   1.083   1.698   6.609  0.0399  0.1562 -0.6160
  636MOL0     C87688   1.224   1.716   6.637 -0.2958  1.5449 -0.1488
  636MOL0     O87689   1.283   1.742   6.757  0.5256  0.1717  0.3950
  636MOL0     C87690   1.194   1.756   6.864  0.0514  0.2400 -0.2798
  636MOL0     C87691   1.259   1.734   6.997 -0.4489  0.2317 -0.2915
  636MOL0     C87692   1.361   1.617   7.014 -0.3365  0.7844  0.0375
  636MOL0     C87693   1.508   1.645   6.974 -0.0506 -0.0204 -1.0542
  636MOL0     C87694   1.573   1.749   7.049  0.4316 -0.0877 -0.4604
  636MOL0     C87695   1.647   1.810   7.131  0.2964 -0.3410  0.1239
  636MOL0     C87696   1.317   1.712   6.535  1.1027 -0.3659  0.4891
  636MOL0     C87697   1.279   1.708   6.400  0.0310 -0.2307  0.7683
  636MOL0     C87698   1.393   1.731   6.295 -0.1620  0.7387  0.2129
  636MOL0     H87699   0.746   1.510   6.180  1.4691 -0.5794  0.7944
  636MOL0     H87700   0.646   1.478   5.951  0.8969  0.3075 -3.7589
  636MOL0     H87701   0.556   1.490   5.721 -0.6053  2.7639 -4.0554
  636MOL0     H87702   0.710   1.406   5.759  1.2359 -0.5356 -1.4237
  636MOL0     H87703   0.666   1.344   5.530  1.9017 -0.0000 -2.2271
  636MOL0     H87704   0.615   1.505   5.486  0.3111  1.0151  1.3299
  636MOL0     H87705   0.839   1.580   5.512 -4.3194  0.4578  4.1803
  636MOL0     H87706   0.909   1.428   5.559  0.0642 -2.4225 -2.0868
  636MOL0     H87707   0.812   1.311   5.358 -0.6017  0.4754 -0.1946
  636MOL0     H87708   0.762   1.477   5.300 -1.3172 -0.0026  0.9744
  636MOL0     H87709   1.063   1.420   5.359 -0.7377  0.1884  0.5862
  636MOL0     H87710   0.993   1.544   5.269  3.7987  0.6612  1.2809
  636MOL0     H87711   1.011   1.240   5.206  0.2437 -1.2942 -1.2180
  636MOL0     H87712   0.901   1.342   5.119 -0.0248 -0.6379  0.6047
  636MOL0     H87713   1.117   1.499   5.082 -1.5079  0.2553  2.1604
  636MOL0     H87714   1.077   1.368   4.982  0.4897 -1.2588 -1.1137
  636MOL0     H87715   1.261   1.350   5.223 -1.9043  0.8373 -0.7008
  636MOL0     H87716   1.251   1.217   5.106  3.8198 -0.6649 -0.3041
  636MOL0     H87717   1.384   1.256   4.893 -1.1816  0.0580 -1.1477
  636MOL0     H87718   1.533   1.570   4.701  0.8487  0.2590  1.3121
  636MOL0     H87719   1.480   1.400   4.665 -2.1756  0.5373  0.3280
  636MOL0     H87720   1.757   1.505   4.758  1.2340 -0.5400 -1.7842
  636MOL0     H87721   1.691   1.345   4.810  0.4647 -0.1804  0.1834
  636MOL0     H87722   1.709   1.415   4.511 -0.0395  1.2935  1.2592
  636MOL0     H87723   1.843   1.360   4.610  0.6755  1.4327 -0.9938
  636MOL0     H87724   1.736   1.152   4.505  2.2640  1.4669 -0.0075
  636MOL0     H87725   1.749   1.154   4.681 -1.1603  0.7028  0.6587
  636MOL0     H87726   1.323   1.147   4.569 -0.3015 -0.1535  2.3450
  636MOL0     H87727   1.095   0.887   4.523  2.8518 -0.2718  3.0090
  636MOL0     H87728   1.129   0.965   4.372 -1.3185  2.4782  0.0983
  636MOL0     H87729   1.123   1.052   4.528 -1.2357  0.5454 -0.5819
  636MOL0     H87730   1.486   0.343   4.532  0.4107 -1.9723 -1.7544
  636MOL0     H87731   1.367   0.134   4.477 -1.1912  0.4661  0.1800
  636MOL0     H87732   1.062   0.151   4.158 -0.8952  0.1430 -1.5852
  636MOL0     H87733   1.205   0.123   4.066  1.4872 -0.3325  0.7650
  636MOL0     H87734   1.019  -0.082   4.187 -1.2115 -1.8494 -1.0534
  636MOL0     H87735   1.037  -0.069   4.019  0.7042 -2.6135 -0.5999
  636MOL0     H87736   1.281  -0.142   4.183  0.0623  1.5628 -0.2642
  636MOL0     H87737   1.261  -0.133   4.012 -2.0123  2.3327 -0.6557
  636MOL0     H87738   1.082  -0.332   4.039  2.7622 -1.9685 -3.3934
  636MOL0     H87739   1.139  -0.350   4.194 -4.2645 -3.0525 -1.5514
  636MOL0     H87740   1.299  -0.344   3.936 -2.0910  3.3279  0.2243
  636MOL0     H87741   1.382  -0.347   4.091  0.1936  2.9541 -2.6584
  636MOL0     H87742   1.161  -0.557   4.003 -0.3514 -0.3390 -1.7350
  636MOL0     H87743   1.288  -0.580   4.135 -0.4828 -1.3306 -0.1257
  636MOL0     H87744   1.457  -0.575   3.960 -0.2042  2.4205 -0.5194
  636MOL0     H87745   1.339  -0.542   3.847  1.4057 -0.8586 -0.7359
  636MOL0     H87746   1.217  -0.764   3.892  0.0200  0.5963 -2.2611
  636MOL0     H87747   1.338  -0.815   4.004 -1.3273 -0.8149 -1.6159
  636MOL0     H87748   1.193   0.320   4.132 -3.2818 -1.8558  0.9910
  636MOL0     H87749   1.269   0.530   4.200  0.0870 -1.1964 -2.7381
  636MOL0     H87750   1.576   0.741   4.470  0.5625 -0.7470  2.1391
  636MOL0     H87751   1.686   0.922   4.540  0.6078  1.0328  0.7634
  636MOL0     H87752   0.900   1.801   5.800  0.1467  1.1372  2.2775
  636MOL0     H87753   0.993   1.823   6.012  0.1719  0.1592  2.5584
  636MOL0     H87754   0.940   1.678   6.450  1.2583  2.4172 -5.3447
  636MOL0     H87755   1.006   1.699   6.685  2.9863  1.5734  2.6694
  636MOL0     H87756   1.142   1.852   6.868  4.1174  2.6690 -0.3501
  636MOL0     H87757   1.116   1.680   6.860 -0.5190  0.6779  1.6574
  636MOL0     H87758   1.180   1.711   7.069 -1.0156 -2.5039 -1.6607
  636MOL0     H87759   1.315   1.815   7.045  2.9731 -2.4660  0.6380
  636MOL0     H87760   1.362   1.582   7.118 -0.4009 -0.8456 -0.4875
  636MOL0     H87761   1.327   1.532   6.956 -0.3516 -0.1905  1.4175
  636MOL0     H87762   1.519   1.678   6.871  2.4654 -0.6736 -1.0680
  636MOL0     H87763   1.562   1.551   6.984  3.3095  1.9913  2.9529
  636MOL0     H87764   1.721   1.858   7.193  2.1166  0.6164 -2.6116
  636MOL0     H87765   1.420   1.725   6.565  0.4322  0.1207  2.8269
  636MOL0     H87766   1.476   1.764   6.358 -1.8014  2.8206  1.4065
  636MOL0     H87767   1.412   1.639   6.239 -0.7219  1.9032 -2.0003
  636MOL0     H87768   1.370   1.809   6.221 -1.0163  2.0142  1.7551
  637MOL0     O87769   3.610   7.912   8.469 -0.1934  0.0401  0.0515
  637MOL0     C87770   3.664   7.805   8.462 -0.4207 -0.6872  0.2452
  637MOL0     O87771   3.659   7.727   8.344  0.0812  0.8456 -0.2995
  637MOL0     C87772   3.558   7.747   8.250  0.0217 -0.4239 -0.1608
  637MOL0     C87773   3.571   7.856   8.160  0.4443  0.1218 -0.1364
  637MOL0     C87774   3.468   7.873   8.074 -0.3347  0.4251 -0.0418
  637MOL0     C87775   3.351   7.805   8.083 -0.3784 -0.1401  0.3209
  637MOL0     O87776   3.247   7.848   8.003  0.2316 -0.8287 -0.3819
  637MOL0     C87777   3.166   7.756   7.934 -0.5066 -0.1734 -0.2908
  637MOL0     C87778   3.040   7.834   7.891 -0.3880 -0.5552  0.3320
  637MOL0     C87779   2.939   7.733   7.842  0.0863 -0.0611 -0.1775
  637MOL0     C87780   2.807   7.803   7.807  0.3930  0.3141  0.7982
  637MOL0     C87781   2.698   7.694   7.808 -0.2498 -0.7846 -0.8978
  637MOL0     C87782   2.557   7.765   7.790 -1.2320  1.1323 -0.9036
  637MOL0     C87783   2.532   7.840   7.656  0.3530 -0.6711 -0.4252
  637MOL0     C87784   2.574   7.993   7.644  0.7200 -0.3201 -1.0450
  637MOL0     N87785   2.530   8.092   7.745 -0.6835  0.6595 -0.4895
  637MOL0     C87786   2.571   8.109   7.873  0.9841 -0.0287 -0.1382
  637MOL0     C87787   2.523   8.232   7.909  0.0835 -0.0345 -0.3702
  637MOL0     C87788   2.544   8.323   8.030 -0.2784  1.2633  0.3946
  637MOL0     C87789   2.480   8.268   8.158 -0.1979 -0.0347  0.3887
  637MOL0     C87790   2.487   8.359   8.283  0.4322 -0.3950 -0.0392
  637MOL0     C87791   2.442   8.504   8.251 -0.3337  0.2555 -0.7156
  637MOL0     O87792   2.425   8.562   8.379 -0.1473 -0.6828  0.6674
  637MOL0     C87793   2.428   8.697   8.381  0.8107 -0.0325  0.2763
  637MOL0     C87794   2.490   8.757   8.496  0.9501  0.6090  0.6429
  637MOL0     C87795   2.482   8.895   8.512 -0.0035 -1.4297  0.2428
  637MOL0     C87796   2.543   8.964   8.635 -0.1761 -0.3414  0.0929
  637MOL0     C87797   2.416   8.977   8.414 -0.7841  0.0710  0.2445
  637MOL0     C87798   2.421   9.119   8.414  0.5168 -0.3646  0.6706
  637MOL0     O87799   2.296   9.177   8.404 -0.1487  0.1415  0.0629
  637MOL0     C87800   2.292   9.310   8.436 -0.0559 -0.7716  0.2793
  637MOL0     C87801   2.227   9.343   8.553 -0.5346  0.3878  0.1002
  637MOL0     C87802   2.205   9.477   8.579 -0.3676 -0.4681  0.7630
  637MOL0     C87803   2.240   9.576   8.484 -0.0754  0.2934 -0.0044
  637MOL0     O87804   2.235   9.704   8.512  0.0910  0.1353 -0.0583
  637MOL0     C87805   2.109   9.769   8.547 -0.5196  0.2526  0.3862
  637MOL0     C87806   2.134   9.832   8.679  0.2483 -0.0113 -1.1672
  637MOL0     C87807   2.020   9.914   8.748 -0.3727  0.9426  0.2954
  637MOL0     C87808   2.036   9.943   8.893 -0.0679 -0.5279 -0.8083
  637MOL0     C87809   1.902   9.976   8.958  0.1058  0.1953 -0.2537
  637MOL0     C87810   1.890  10.013   9.103 -0.4719 -0.5286  0.4109
  637MOL0     C87811   1.933   9.897   9.195 -0.2249 -0.9243  0.3031
  637MOL0     C87812   1.816   9.807   9.226 -0.6266 -0.0781 -0.0485
  637MOL0    Cl87813   1.872   9.687   9.346  0.4702 -0.0611  0.2211
  637MOL0     C87814   2.319   9.536   8.379  0.1164  1.0749 -0.5580
  637MOL0     C87815   2.346   9.404   8.348  1.2771 -0.2329  0.5689
  637MOL0     O87816   2.528   9.177   8.434 -0.9147  0.9524 -0.6266
  637MOL0     C87817   2.354   8.908   8.308 -0.2935 -0.9432 -0.4027
  637MOL0     C87818   2.341   8.774   8.298  0.4487  0.5199 -0.0770
  637MOL0     N87819   2.462   8.290   7.799  0.9321  0.5296 -0.0349
  637MOL0     N87820   2.458   8.202   7.712 -0.1610 -0.0997 -0.2691
  637MOL0     C87821   3.331   7.707   8.185 -0.1365  0.7683 -0.1773
  637MOL0     C87822   3.446   7.675   8.264  0.2044  0.2732 -0.7444
  637MOL0     C87823   3.766   7.759   8.566 -0.1244 -0.6135 -0.7833
  637MOL0     C87824   3.806   7.629   8.561  0.9816 -0.8030 -0.7601
  637MOL0     C87825   3.897   7.566   8.649 -0.4053 -0.1204 -0.2725
  637MOL0     C87826   3.959   7.648   8.754 -0.0313  0.3287 -0.2225
  637MOL0     O87827   4.034   7.575   8.842  0.3583  0.3888  0.8752
  637MOL0     C87828   4.120   7.646   8.930 -0.1593  0.9104 -0.5949
  637MOL0     C87829   4.268   7.642   8.866 -0.0138 -0.4411 -0.2981
  637MOL0     C87830   4.273   7.693   8.727 -1.1832  0.2806  0.3632
  637MOL0     C87831   4.412   7.697   8.663  0.0505 -0.0571  0.2530
  637MOL0     C87832   4.410   7.763   8.536  0.1548  0.2879  0.7020
  637MOL0     C87833   4.388   7.833   8.434 -0.2318  0.5799 -0.7040
  637MOL0     C87834   3.918   7.786   8.756 -0.4250 -0.3357  0.5003
  637MOL0     C87835   3.830   7.841   8.663 -0.0595 -0.4237  0.1554
  637MOL0     C87836   3.798   7.993   8.675 -0.8061  0.7938  0.1802
  637MOL0     H87837   3.657   7.920   8.148  1.1784 -0.6574  0.7446
  637MOL0     H87838   3.486   7.945   7.995 -2.7407 -1.3899 -2.4281
  637MOL0     H87839   3.141   7.672   8.000  1.2382  0.8670  1.8587
  637MOL0     H87840   3.196   7.716   7.837  1.8001 -0.4393  0.4627
  637MOL0     H87841   3.008   7.885   7.982 -2.1240  0.3488 -0.7283
  637MOL0     H87842   3.068   7.904   7.812 -2.2859 -0.8597 -0.6716
  637MOL0     H87843   2.985   7.683   7.756  3.9581  2.1956  0.3480
  637MOL0     H87844   2.922   7.660   7.921  2.6733  1.4631  1.9449
  637MOL0     H87845   2.776   7.894   7.859  0.2267  1.6277 -1.4563
  637MOL0     H87846   2.812   7.848   7.708 -1.2312  0.2477  0.6568
  637MOL0     H87847   2.703   7.645   7.906 -1.3991  0.7186 -0.0560
  637MOL0     H87848   2.718   7.628   7.723  0.6754 -0.5456 -0.8789
  637MOL0     H87849   2.494   7.676   7.791  1.2854 -0.9351  3.0962
  637MOL0     H87850   2.531   7.815   7.884  1.8741 -0.5733  1.0491
  637MOL0     H87851   2.424   7.831   7.643  0.3552 -3.7515  0.9570
  637MOL0     H87852   2.563   7.787   7.565 -1.4484 -2.6447  0.0133
  637MOL0     H87853   2.683   8.004   7.648  0.5465  1.2502  0.9195
  637MOL0     H87854   2.536   8.027   7.547 -1.9215 -0.7553 -0.2428
  637MOL0     H87855   2.641   8.048   7.930 -1.2502 -0.3815  2.4197
  637MOL0     H87856   2.497   8.413   7.990 -0.1298  1.0295 -0.3206
  637MOL0     H87857   2.649   8.348   8.044  0.2919  1.5483 -3.3418
  637MOL0     H87858   2.374   8.249   8.140 -0.4352  2.5024 -1.4507
  637MOL0     H87859   2.514   8.171   8.194 -2.7789 -1.4987 -0.7942
  637MOL0     H87860   2.437   8.315   8.370 -0.0173 -0.2753 -0.2322
  637MOL0     H87861   2.593   8.380   8.297  1.4940 -4.6037 -0.2347
  637MOL0     H87862   2.519   8.555   8.192 -1.8789  1.8343 -1.4610
  637MOL0     H87863   2.350   8.510   8.193 -1.6323  0.7743  1.3163
  637MOL0     H87864   2.541   8.693   8.568 -2.6336  0.3719  3.2010
  637MOL0     H87865   2.572   8.889   8.708 -0.3442  0.1014  0.6200
  637MOL0     H87866   2.479   9.039   8.684  0.4472  0.2799 -0.0260
  637MOL0     H87867   2.640   9.013   8.621  0.1268 -0.8150  0.5187
  637MOL0     H87868   2.189   9.268   8.622 -1.0368  1.8860  1.4983
  637MOL0     H87869   2.147   9.490   8.670  0.4492 -4.2008  2.0174
  637MOL0     H87870   2.086   9.849   8.476 -4.0164  0.6688  1.8134
  637MOL0     H87871   2.028   9.696   8.534 -1.4276  1.3638 -0.4556
  637MOL0     H87872   2.160   9.759   8.756 -0.6607  1.9106  1.0916
  637MOL0     H87873   2.214   9.905   8.666  0.2398  0.4405  0.9555
  637MOL0     H87874   1.925   9.863   8.727 -0.7340  2.3258 -1.6125
  637MOL0     H87875   2.012  10.003   8.686 -1.0530 -1.4531 -3.3480
  637MOL0     H87876   2.121  10.006   8.921  0.1178 -2.0775  2.5919
  637MOL0     H87877   2.062   9.845   8.934  3.2060  0.4059 -0.3644
  637MOL0     H87878   1.854  10.059   8.907 -0.5292 -0.1751 -0.2735
  637MOL0     H87879   1.831   9.893   8.945 -0.3360  0.1878  1.7250
  637MOL0     H87880   1.789  10.054   9.117 -1.9053 -3.7491  0.2211
  637MOL0     H87881   1.965  10.090   9.127 -2.0790  1.3066 -0.2425
  637MOL0     H87882   1.971   9.938   9.289 -0.6257 -0.2906  0.1961
  637MOL0     H87883   2.016   9.835   9.161  0.8631  0.2148  0.8176
  637MOL0     H87884   1.792   9.759   9.130 -3.8223  2.0621 -0.5190
  637MOL0     H87885   1.732   9.873   9.251  0.0179  0.2591  1.2814
  637MOL0     H87886   2.338   9.616   8.308 -0.2152  1.1970 -0.5091
  637MOL0     H87887   2.406   9.372   8.263  0.9501  1.0409 -0.1673
  637MOL0     H87888   2.294   8.966   8.238 -2.9231 -0.6975  1.8616
  637MOL0     H87889   2.280   8.715   8.231  3.0422  0.6119 -2.7417
  637MOL0     H87890   3.239   7.651   8.199  1.8912 -2.2943  2.3881
  637MOL0     H87891   3.441   7.593   8.335 -0.6744 -2.6837 -3.9009
  637MOL0     H87892   3.762   7.567   8.484  0.1454 -0.2475 -0.7439
  637MOL0     H87893   3.939   7.469   8.627 -0.9986 -0.3319 -0.4832
  637MOL0     H87894   4.080   7.746   8.951 -0.0164  1.0876 -1.1366
  637MOL0     H87895   4.119   7.597   9.028 -1.4927  2.6852  0.3247
  637MOL0     H87896   4.295   7.536   8.858 -1.7301 -1.1138  1.6978
  637MOL0     H87897   4.336   7.685   8.940  0.9637 -1.6245 -0.4693
  637MOL0     H87898   4.222   7.620   8.663 -0.0679 -0.9135  0.7993
  637MOL0     H87899   4.210   7.782   8.730 -3.5814 -1.3282  0.4129
  637MOL0     H87900   4.456   7.598   8.646 -2.6343 -1.0769 -1.4228
  637MOL0     H87901   4.472   7.758   8.730  0.3635  1.3678 -1.2576
  637MOL0     H87902   4.372   7.889   8.344  0.4010  0.8862 -0.6341
  637MOL0     H87903   3.980   7.851   8.817  5.1885 -2.5093 -2.1380
  637MOL0     H87904   3.840   8.027   8.770  1.3188 -0.1396 -0.3645
  637MOL0     H87905   3.843   8.051   8.593 -1.1734  0.7907 -0.0216
  637MOL0     H87906   3.691   8.010   8.683 -1.6702 -2.2548 -2.6546
  638MOL0     O87907   9.309   8.144   2.218 -0.4191 -0.4534 -0.5202
  638MOL0     C87908   9.398   8.153   2.134  0.1538 -0.6302 -0.5751
  638MOL0     O87909   9.443   8.273   2.085  0.4307  0.3582  0.4280
  638MOL0     C87910   9.374   8.392   2.116 -0.5297 -1.0756  0.0597
  638MOL0     C87911   9.422   8.476   2.222 -0.4349  0.6526  0.3580
  638MOL0     C87912   9.345   8.582   2.275  0.4215  0.4656 -0.0894
  638MOL0     C87913   9.219   8.599   2.236  0.2760 -0.6033  0.0981
  638MOL0     O87914   9.135   8.699   2.273  0.0292 -0.4795  0.1060
  638MOL0     C87915   9.147   8.723   2.419 -0.3793 -0.4428  0.0048
  638MOL0     C87916   9.018   8.749   2.488  0.3027 -0.3093 -0.1885
  638MOL0     C87917   9.024   8.806   2.626  0.2430  0.0340 -0.1549
  638MOL0     C87918   9.037   8.962   2.644 -0.1268  0.3812 -0.7641
  638MOL0     C87919   9.182   9.008   2.678  0.9414 -0.4679  0.2166
  638MOL0     C87920   9.233   8.956   2.816  0.7091 -0.2013  0.6003
  638MOL0     C87921   9.355   9.032   2.869 -0.1904 -1.8751  0.0923
  638MOL0     C87922   9.478   9.026   2.775 -0.3370  0.3888  0.1090
  638MOL0     N87923   9.543   8.892   2.765 -0.1586 -0.5962  0.8195
  638MOL0     C87924   9.646   8.845   2.848  0.2886  0.7329 -0.1341
  638MOL0     C87925   9.707   8.754   2.775  0.3418 -0.1941 -0.3227
  638MOL0     C87926   9.829   8.676   2.808 -0.0566  0.3539  0.0885
  638MOL0     C87927   9.952   8.767   2.819 -0.9630 -0.1115 -0.3962
  638MOL0     C87928  10.068   8.701   2.886  0.4318  0.9811 -0.5453
  638MOL0     C87929  10.168   8.800   2.933  0.0931  0.2024  0.5910
  638MOL0     O87930  10.123   8.908   3.016 -0.2939 -0.2865  0.0166
  638MOL0     C87931  10.130   8.873   3.151  0.2082 -0.6954  0.5773
  638MOL0     C87932  10.234   8.800   3.207  0.1023  0.0247  0.5092
  638MOL0     C87933  10.232   8.763   3.345 -0.3919 -0.1711  0.0987
  638MOL0     C87934  10.362   8.720   3.404 -0.3447  0.1250 -0.5227
  638MOL0     C87935  10.103   8.774   3.416 -0.1500 -0.3103 -0.3250
  638MOL0     C87936  10.083   8.704   3.551 -0.7636  0.9090 -0.0096
  638MOL0     O87937  10.171   8.593   3.578 -0.0204  0.4908 -0.2224
  638MOL0     C87938  10.177   8.527   3.697 -0.6135 -0.4774  0.5623
  638MOL0     C87939  10.056   8.486   3.766 -0.0468  0.2864  0.4955
  638MOL0     C87940  10.069   8.393   3.867 -0.2560 -0.4054 -0.3505
  638MOL0     C87941  10.198   8.363   3.923 -0.0006 -0.7896 -0.1212
  638MOL0     O87942  10.229   8.283   4.034 -0.5206  0.6759 -0.3125
  638MOL0     C87943  10.184   8.347   4.153  0.4070 -0.4299  0.4101
  638MOL0     C87944  10.288   8.355   4.260 -0.3240  0.3247  0.7116
  638MOL0     C87945  10.303   8.217   4.330 -0.4630 -0.2923 -0.5472
  638MOL0     C87946  10.434   8.218   4.417 -0.4259 -0.4145  0.3894
  638MOL0     C87947  10.476   8.075   4.449  0.0864  0.0952  0.7434
  638MOL0     C87948  10.599   8.062   4.535 -0.7194  0.9065  0.0015
  638MOL0     C87949  10.631   7.902   4.533 -0.8126  0.3278  0.1845
  638MOL0     C87950  10.785   7.880   4.565 -0.2480  0.2043  0.1641
  638MOL0    Cl87951  10.882   7.964   4.430  0.4351 -0.6374  0.2948
  638MOL0     C87952  10.311   8.390   3.851 -0.6954  0.7955  0.8734
  638MOL0     C87953  10.301   8.480   3.739 -0.0741 -0.5455 -0.2215
  638MOL0     O87954   9.998   8.742   3.634 -0.1369  0.2183 -0.0657
  638MOL0     C87955  10.005   8.862   3.359  0.3950  0.0026  0.4242
  638MOL0     C87956  10.023   8.911   3.230  0.9719 -0.3646 -1.8018
  638MOL0     N87957   9.653   8.741   2.648 -0.9265 -0.0253 -0.5215
  638MOL0     N87958   9.561   8.826   2.645 -0.6382 -0.5516 -1.0017
  638MOL0     C87959   9.175   8.511   2.124  0.9840  0.3048 -0.3440
  638MOL0     C87960   9.251   8.418   2.063  0.4852 -0.5762  0.5386
  638MOL0     C87961   9.466   8.029   2.093  0.6974 -0.2163  0.4884
  638MOL0     C87962   9.549   8.044   1.971 -0.0054 -0.3887 -0.3313
  638MOL0     C87963   9.608   7.938   1.904  0.6905 -0.0091  0.0741
  638MOL0     C87964   9.604   7.813   1.957 -0.3333 -0.7540  0.0893
  638MOL0     O87965   9.673   7.711   1.888 -0.5846  0.2862 -0.2852
  638MOL0     C87966   9.678   7.576   1.927  0.1377  0.0593 -0.4503
  638MOL0     C87967   9.815   7.515   1.894  0.2693 -0.9999  0.2482
  638MOL0     C87968   9.816   7.359   1.916  0.7443  0.1604 -0.2410
  638MOL0     C87969   9.805   7.325   2.064 -0.0854 -0.3651 -1.4150
  638MOL0     C87970   9.671   7.282   2.082  0.1501  0.0983 -0.8051
  638MOL0     C87971   9.546   7.262   2.094 -0.3396 -0.3370  0.3990
  638MOL0     C87972   9.515   7.791   2.062  1.2832  0.3408  0.5725
  638MOL0     C87973   9.449   7.899   2.136  0.7308 -0.0840  0.5105
  638MOL0     C87974   9.356   7.857   2.253  0.3856 -0.1592 -0.4029
  638MOL0     H87975   9.516   8.449   2.269 -0.6713  0.7618  0.8960
  638MOL0     H87976   9.384   8.643   2.356 -1.0332  2.0444 -0.5085
  638MOL0     H87977   9.211   8.810   2.429  0.7084 -1.5100  3.8309
  638MOL0     H87978   9.196   8.639   2.469  1.6087  0.4920 -0.2856
  638MOL0     H87979   8.974   8.828   2.427 -0.6271  1.5942  2.7027
  638MOL0     H87980   8.944   8.668   2.493 -1.1424  1.0057  0.9957
  638MOL0     H87981   8.925   8.798   2.673 -0.1764 -0.4372 -1.0948
  638MOL0     H87982   9.096   8.742   2.678 -1.5690 -2.6628 -0.7857
  638MOL0     H87983   9.001   9.010   2.552  1.9509  0.4381 -1.6187
  638MOL0     H87984   8.966   8.989   2.722  2.0876  1.6432  0.9134
  638MOL0     H87985   9.181   9.117   2.673 -3.7721 -0.3643 -1.1013
  638MOL0     H87986   9.252   8.970   2.602  0.7198  1.0311 -0.7803
  638MOL0     H87987   9.152   8.966   2.889  1.3032  0.6093  1.1558
  638MOL0     H87988   9.258   8.850   2.805  0.8487 -0.0860 -0.2686
  638MOL0     H87989   9.389   8.991   2.965  1.1894 -1.9740 -0.4198
  638MOL0     H87990   9.323   9.136   2.881 -2.1173 -2.6165  2.0537
  638MOL0     H87991   9.449   9.074   2.681  0.2869 -2.3352 -1.5910
  638MOL0     H87992   9.557   9.091   2.814  0.5347  0.5508 -1.8182
  638MOL0     H87993   9.666   8.865   2.953  0.0750 -3.2683  0.8353
  638MOL0     H87994   9.822   8.617   2.716  0.3584  1.6330 -0.7984
  638MOL0     H87995   9.809   8.610   2.893  2.2262  1.0147  1.2073
  638MOL0     H87996   9.985   8.794   2.718 -2.8043 -1.5023 -1.4553
  638MOL0     H87997   9.933   8.862   2.870 -0.2855  0.5778 -1.4008
  638MOL0     H87998  10.033   8.656   2.980  0.4238  0.6839 -0.6919
  638MOL0     H87999  10.117   8.624   2.827  1.7577 -1.0197  2.8521
  638MOL0     H88000  10.255   8.744   2.968  1.4426  0.8670 -1.4860
  638MOL0     H88001  10.210   8.850   2.845  0.7386 -2.5617 -0.7670
  638MOL0     H88002  10.326   8.789   3.150  0.1704 -0.7046  0.7410
  638MOL0     H88003  10.442   8.766   3.345 -0.4193 -0.0508 -0.7624
  638MOL0     H88004  10.380   8.613   3.412  1.3450  0.0418 -3.8337
  638MOL0     H88005  10.365   8.759   3.506  1.4624  0.5194 -0.6992
  638MOL0     H88006   9.960   8.498   3.716  1.2308 -0.2734 -2.3044
  638MOL0     H88007   9.986   8.346   3.920 -1.7432  0.1342 -2.1219
  638MOL0     H88008  10.166   8.450   4.119 -0.3756 -1.5632 -2.9866
  638MOL0     H88009  10.092   8.303   4.191 -1.1102  0.7829 -1.6306
  638MOL0     H88010  10.382   8.385   4.214  1.0020 -0.4272  2.7953
  638MOL0     H88011  10.272   8.434   4.334  3.5290 -1.3352  3.5974
  638MOL0     H88012  10.319   8.135   4.260 -1.8155 -0.9739 -0.0727
  638MOL0     H88013  10.210   8.195   4.383 -0.8210  0.4794 -0.8331
  638MOL0     H88014  10.417   8.268   4.513 -1.3708  0.1730 -0.0641
  638MOL0     H88015  10.510   8.270   4.357  0.4431  0.9549  2.5441
  638MOL0     H88016  10.401   8.025   4.510 -1.2581  2.5943  1.2733
  638MOL0     H88017  10.490   8.019   4.356 -0.3327  0.8882  0.1910
  638MOL0     H88018  10.575   8.105   4.633  0.4763 -1.4574  1.4405
  638MOL0     H88019  10.681   8.112   4.481 -1.0433 -0.4829 -1.8795
  638MOL0     H88020  10.627   7.869   4.428  3.1953  2.1910 -0.7636
  638MOL0     H88021  10.563   7.838   4.589 -2.0194 -0.1767 -1.7576
  638MOL0     H88022  10.818   7.776   4.552 -1.7868 -0.1137 -1.6350
  638MOL0     H88023  10.812   7.927   4.660 -1.3425  3.1736 -0.8797
  638MOL0     H88024  10.413   8.358   3.870 -0.9754  1.1572  3.3026
  638MOL0     H88025  10.382   8.497   3.669 -1.8964 -0.3010 -2.3876
  638MOL0     H88026   9.912   8.862   3.414 -1.4804 -1.1167 -2.4836
  638MOL0     H88027   9.945   8.979   3.198  0.7523  1.9562  2.8458
  638MOL0     H88028   9.073   8.531   2.094  0.4992 -0.0591  0.9573
  638MOL0     H88029   9.209   8.361   1.981  0.5298  0.5321 -0.2714
  638MOL0     H88030   9.580   8.141   1.932 -1.5041 -0.4036 -1.6416
  638MOL0     H88031   9.662   7.953   1.811 -0.2469 -0.6692 -0.5849
  638MOL0     H88032   9.673   7.577   2.037 -2.0471  1.4002 -0.4846
  638MOL0     H88033   9.600   7.512   1.884  0.6784  0.8465 -2.7198
  638MOL0     H88034   9.888   7.569   1.956  0.1799 -0.1393 -0.3837
  638MOL0     H88035   9.844   7.545   1.793  0.5838 -2.9037 -0.2625
  638MOL0     H88036   9.729   7.318   1.863  1.4796 -1.9712  0.0984
  638MOL0     H88037   9.909   7.319   1.874  1.4415  1.9584 -0.4884
  638MOL0     H88038   9.831   7.413   2.124 -0.9102 -1.2150  0.2749
  638MOL0     H88039   9.872   7.243   2.089  1.3818  2.0087  4.0145
  638MOL0     H88040   9.439   7.257   2.090 -0.3005 -1.0002  0.0582
  638MOL0     H88041   9.509   7.688   2.097 -0.9707  0.0757 -0.4695
  638MOL0     H88042   9.348   7.928   2.335 -2.3057  0.4423 -1.0928
  638MOL0     H88043   9.252   7.841   2.225  0.8498  0.1896 -2.4862
  638MOL0     H88044   9.399   7.767   2.298  2.5923  1.4527  0.9551
  639MOL0     O88045   0.616   8.615   2.918 -0.5767 -0.3241 -0.2810
  639MOL0     C88046   0.676   8.554   3.004 -0.6217 -0.2547 -0.4262
  639MOL0     O88047   0.679   8.412   3.022 -0.0572 -0.5458  0.2639
  639MOL0     C88048   0.585   8.334   2.963 -0.1833  0.4634 -0.2238
  639MOL0     C88049   0.508   8.258   3.058 -1.5904 -0.4842 -0.5342
  639MOL0     C88050   0.415   8.176   3.014  0.5297 -0.1180  0.1570
  639MOL0     C88051   0.395   8.144   2.869  0.3565 -0.4186  0.5601
  639MOL0     O88052   0.306   8.047   2.834 -1.0045  0.7152 -0.1875
  639MOL0     C88053   0.294   8.030   2.691 -0.6368  0.1579  0.6283
  639MOL0     C88054   0.191   7.924   2.676  0.5222 -0.5061  0.5900
  639MOL0     C88055   0.212   7.789   2.744 -0.1095  1.1367 -0.6253
  639MOL0     C88056   0.340   7.720   2.684 -0.5200  0.4525 -0.1278
  639MOL0     C88057   0.355   7.575   2.740  0.5597 -0.3915  0.9204
  639MOL0     C88058   0.254   7.482   2.678  0.6983  0.2275  0.8183
  639MOL0     C88059   0.276   7.344   2.731  0.1272  0.5729 -1.1631
  639MOL0     C88060   0.178   7.256   2.658  0.0927  0.2092  0.3091
  639MOL0     N88061   0.196   7.117   2.703 -0.2341 -0.0169  0.6830
  639MOL0     C88062   0.285   7.024   2.649  0.6595 -0.7050  0.3262
  639MOL0     C88063   0.301   6.931   2.745  0.6230 -0.2625  0.6311
  639MOL0     C88064   0.384   6.808   2.740 -0.6236  0.8449 -0.4857
  639MOL0     C88065   0.518   6.819   2.814 -0.4468 -0.1683  0.4484
  639MOL0     C88066   0.620   6.882   2.718 -0.6288 -0.3754 -0.2543
  639MOL0     C88067   0.751   6.925   2.782  0.9614 -0.5930 -0.6431
  639MOL0     O88068   0.821   6.992   2.682 -1.2232  0.3321  0.5515
  639MOL0     C88069   0.824   7.130   2.666  0.3816 -0.0535 -0.1974
  639MOL0     C88070   0.905   7.180   2.564 -0.1634 -0.0538 -0.3954
  639MOL0     C88071   0.898   7.323   2.537  0.7112 -0.0677  0.6031
  639MOL0     C88072   0.980   7.368   2.413 -0.6212  0.1375  0.5641
  639MOL0     C88073   0.804   7.419   2.607 -0.4095  0.7380  0.6366
  639MOL0     C88074   0.793   7.562   2.574  0.1695 -0.9558  0.0629
  639MOL0     O88075   0.684   7.631   2.618  0.4420 -0.5578 -0.7042
  639MOL0     C88076   0.649   7.748   2.553  0.7806 -0.1333 -0.1941
  639MOL0     C88077   0.588   7.755   2.424 -0.2587  0.7134  0.1859
  639MOL0     C88078   0.557   7.884   2.370 -0.2783  0.3336  0.5482
  639MOL0     C88079   0.586   8.002   2.441 -0.2853 -0.3143  0.3552
  639MOL0     O88080   0.550   8.123   2.393 -0.6856 -0.5923  0.4343
  639MOL0     C88081   0.647   8.223   2.408 -0.1364 -1.0504  0.7312
  639MOL0     C88082   0.772   8.208   2.315  0.2250  0.2243  0.3393
  639MOL0     C88083   0.712   8.196   2.173  0.3033  0.2399  0.2847
  639MOL0     C88084   0.801   8.137   2.062 -0.0614 -0.4093 -0.2126
  639MOL0     C88085   0.916   8.220   2.009 -0.2216 -0.0622  0.1371
  639MOL0     C88086   1.040   8.142   1.939 -0.1046 -0.1134  0.1760
  639MOL0     C88087   1.135   8.236   1.859 -0.0487  0.0285  0.9052
  639MOL0     C88088   1.231   8.157   1.773 -0.3546 -0.9640 -0.1069
  639MOL0    Cl88089   1.325   8.045   1.877  0.0675 -0.0933 -0.5981
  639MOL0     C88090   0.642   7.990   2.569  0.7175  0.8547  0.4778
  639MOL0     C88091   0.669   7.863   2.627  0.5329 -0.1116  0.4966
  639MOL0     O88092   0.879   7.613   2.498 -0.1240  0.1818  0.6053
  639MOL0     C88093   0.726   7.351   2.702  0.1974  0.3033 -0.1523
  639MOL0     C88094   0.744   7.216   2.741  0.4388 -0.8523  0.0312
  639MOL0     N88095   0.212   6.966   2.848 -0.1865  0.0095 -0.6639
  639MOL0     N88096   0.152   7.081   2.819  0.2542  0.5246  0.1316
  639MOL0     C88097   0.476   8.226   2.786 -0.2533 -0.1292  0.8979
  639MOL0     C88098   0.564   8.329   2.829 -0.4759  0.5054  0.9197
  639MOL0     C88099   0.776   8.636   3.084 -1.4436 -0.2264 -0.0481
  639MOL0     C88100   0.749   8.763   3.134  0.8899  0.3130  0.4102
  639MOL0     C88101   0.839   8.839   3.208  0.1371  0.7252  0.4683
  639MOL0     C88102   0.975   8.812   3.198 -0.5507 -0.0566  0.4316
  639MOL0     O88103   1.086   8.888   3.240 -0.3979 -0.0199  0.1158
  639MOL0     C88104   1.045   9.014   3.300 -0.6720 -0.5932 -0.3566
  639MOL0     C88105   1.162   9.111   3.298 -0.5942  0.6426 -0.1170
  639MOL0     C88106   1.261   9.077   3.414 -0.4929  0.2454  0.0577
  639MOL0     C88107   1.292   9.194   3.514  0.1478  0.1332 -0.3632
  639MOL0     C88108   1.186   9.208   3.610  0.2893  0.1969 -0.9429
  639MOL0     C88109   1.095   9.225   3.691 -0.8704 -0.7710 -0.1838
  639MOL0     C88110   1.011   8.687   3.141 -0.1418 -0.0046 -1.3228
  639MOL0     C88111   0.916   8.600   3.089 -0.0824 -0.5559  0.1489
  639MOL0     C88112   0.969   8.460   3.043  0.3260 -0.6947  0.1926
  639MOL0     H88113   0.524   8.280   3.163 -2.1296 -2.0007 -0.1120
  639MOL0     H88114   0.337   8.125   3.070 -1.7419  0.0875 -2.5845
  639MOL0     H88115   0.389   8.000   2.647 -0.5137 -0.9076  1.5761
  639MOL0     H88116   0.251   8.110   2.630 -1.6367 -0.1906  0.8477
  639MOL0     H88117   0.093   7.954   2.714  0.5146 -0.7878  0.8083
  639MOL0     H88118   0.185   7.914   2.568 -1.7484 -1.9070  0.7850
  639MOL0     H88119   0.214   7.805   2.853 -3.4985  0.9614 -0.4460
  639MOL0     H88120   0.125   7.726   2.728  0.2204  0.0830  1.4054
  639MOL0     H88121   0.343   7.710   2.575  1.9915 -1.6045  0.0367
  639MOL0     H88122   0.433   7.773   2.709 -0.1359 -0.6749  0.9278
  639MOL0     H88123   0.319   7.584   2.843 -1.5000  4.8189  0.0886
  639MOL0     H88124   0.458   7.545   2.722  0.4841  0.5609 -1.4903
  639MOL0     H88125   0.148   7.510   2.690  0.3599 -0.1571 -1.0160
  639MOL0     H88126   0.271   7.489   2.570  0.0716  1.4084  0.7832
  639MOL0     H88127   0.248   7.349   2.837 -1.8486  2.4068 -1.6993
  639MOL0     H88128   0.379   7.309   2.720 -0.1728 -0.5362 -0.5695
  639MOL0     H88129   0.073   7.275   2.679  0.0819 -0.8300  1.2937
  639MOL0     H88130   0.203   7.258   2.552 -1.0414 -0.0532  0.0243
  639MOL0     H88131   0.323   7.009   2.548  0.7213  1.4981 -0.0324
  639MOL0     H88132   0.399   6.776   2.637 -0.8467 -0.6308 -0.0713
  639MOL0     H88133   0.332   6.730   2.795  0.8215  0.4934  0.4317
  639MOL0     H88134   0.496   6.878   2.904  0.4059 -0.7094  1.0275
  639MOL0     H88135   0.565   6.724   2.843 -2.2810 -0.9736  0.9172
  639MOL0     H88136   0.647   6.803   2.647 -1.3087 -0.3948 -0.4985
  639MOL0     H88137   0.571   6.970   2.674  0.3036  0.8903  1.1541
  639MOL0     H88138   0.731   6.985   2.872  0.6091 -0.5859 -0.7288
  639MOL0     H88139   0.815   6.840   2.808  1.7684  0.4624  1.1083
  639MOL0     H88140   0.972   7.115   2.509 -0.1646 -1.3084  1.0049
  639MOL0     H88141   0.900   7.380   2.340 -1.7976 -0.3682  1.7242
  639MOL0     H88142   1.046   7.293   2.369 -0.0181  1.7807 -1.5034
  639MOL0     H88143   1.038   7.461   2.422 -1.6363  1.1038 -2.0740
  639MOL0     H88144   0.571   7.663   2.370 -0.5005  0.1525  1.1976
  639MOL0     H88145   0.526   7.888   2.267  0.6152  0.0727  0.2590
  639MOL0     H88146   0.603   8.315   2.367  0.5734 -1.5402 -1.2607
  639MOL0     H88147   0.666   8.232   2.515 -4.5596 -3.9332  2.0247
  639MOL0     H88148   0.834   8.298   2.321 -1.8786  1.7376  0.2239
  639MOL0     H88149   0.835   8.120   2.335  2.8034  1.4130 -1.9416
  639MOL0     H88150   0.686   8.301   2.158 -3.3059 -0.3994  1.1898
  639MOL0     H88151   0.619   8.138   2.180 -0.6565  1.7878  0.7348
  639MOL0     H88152   0.736   8.104   1.981 -2.7877 -0.9741  2.0411
  639MOL0     H88153   0.847   8.045   2.099  0.2221 -0.2341 -0.1176
  639MOL0     H88154   0.886   8.293   1.934 -2.0526 -1.9047 -0.9823
  639MOL0     H88155   0.963   8.284   2.085  2.7631  0.0509 -1.6412
  639MOL0     H88156   1.012   8.062   1.870  4.6009 -1.4409 -0.5397
  639MOL0     H88157   1.093   8.087   2.018  0.1250  0.8695  0.7319
  639MOL0     H88158   1.204   8.299   1.916 -0.4920 -0.1883  1.7066
  639MOL0     H88159   1.080   8.313   1.804  3.8985  2.7483  0.3692
  639MOL0     H88160   1.289   8.229   1.715  0.8028 -0.8925  1.0774
  639MOL0     H88161   1.168   8.100   1.704 -1.1106 -0.1611 -0.1023
  639MOL0     H88162   0.651   8.070   2.642 -0.0157 -1.0726  2.8290
  639MOL0     H88163   0.694   7.854   2.732  4.7091 -2.4387 -0.4975
  639MOL0     H88164   0.657   7.415   2.757 -3.0071 -2.5941 -0.4502
  639MOL0     H88165   0.687   7.187   2.829 -0.4320 -1.1965 -0.6331
  639MOL0     H88166   0.460   8.229   2.678 -1.0426  3.5071  0.9968
  639MOL0     H88167   0.624   8.393   2.765  2.7723 -3.5087 -0.5002
  639MOL0     H88168   0.651   8.810   3.128  0.0359 -1.4387  0.0295
  639MOL0     H88169   0.803   8.933   3.249 -2.8312  0.0421 -0.3396
  639MOL0     H88170   0.969   9.060   3.235 -0.4402  0.6776  0.2359
  639MOL0     H88171   0.999   8.994   3.396  1.2573  0.1969  0.7927
  639MOL0     H88172   1.142   9.218   3.305  1.3207  1.0923 -0.9320
  639MOL0     H88173   1.217   9.090   3.206 -0.1691 -1.9251  0.6478
  639MOL0     H88174   1.224   8.986   3.461 -2.3756  1.1876  0.4756
  639MOL0     H88175   1.356   9.050   3.367 -0.7050 -0.9394  0.2768
  639MOL0     H88176   1.295   9.286   3.454  0.1770  0.8103  0.6620
  639MOL0     H88177   1.385   9.167   3.565  0.1857  2.1214  0.7274
  639MOL0     H88178   1.013   9.232   3.759 -0.5485 -0.4863  0.1853
  639MOL0     H88179   1.116   8.661   3.137 -0.2226 -0.2824 -4.9528
  639MOL0     H88180   0.913   8.375   3.082 -0.4279 -1.5958 -2.6241
  639MOL0     H88181   0.957   8.448   2.935 -2.2923  0.4818  0.2959
  639MOL0     H88182   1.076   8.453   3.068 -0.1489 -0.0904  2.6522
  640MOL0     O88183   3.967   3.546   1.136 -0.3940 -0.0099 -0.2124
  640MOL0     C88184   3.862   3.552   1.191  0.4296  0.6494 -0.1732
  640MOL0     O88185   3.845   3.616   1.308  0.0618 -0.4267  0.4665
  640MOL0     C88186   3.939   3.700   1.361  0.6547 -0.3986  0.1038
  640MOL0     C88187   3.973   3.824   1.301 -0.1115  0.9535  1.0046
  640MOL0     C88188   4.046   3.916   1.377  1.6231  0.5527 -0.2800
  640MOL0     C88189   4.088   3.884   1.511 -0.4380  0.8615  1.3068
  640MOL0     O88190   4.164   3.960   1.587 -1.1473  0.9237  0.0117
  640MOL0     C88191   4.292   3.974   1.519 -1.3719 -0.1449  0.3793
  640MOL0     C88192   4.374   4.086   1.581  0.5793  0.6988  0.3641
  640MOL0     C88193   4.306   4.217   1.553  0.4968 -0.2168  1.0628
  640MOL0     C88194   4.399   4.326   1.595 -0.3081  0.4297  0.4028
  640MOL0     C88195   4.343   4.459   1.556  0.1019 -0.3124  0.3075
  640MOL0     C88196   4.441   4.573   1.587 -0.3672 -0.3780 -1.1852
  640MOL0     C88197   4.369   4.704   1.557  0.5197  0.6816  0.6415
  640MOL0     C88198   4.423   4.835   1.631 -0.3047 -0.3849  0.3689
  640MOL0     N88199   4.375   4.961   1.571 -0.2025 -1.1503 -0.1567
  640MOL0     C88200   4.435   5.042   1.476  0.8178 -0.9790  0.1308
  640MOL0     C88201   4.349   5.142   1.447  0.3529 -1.1241 -1.1223
  640MOL0     C88202   4.364   5.240   1.343 -0.3533 -0.5325 -0.2732
  640MOL0     C88203   4.321   5.195   1.202 -0.3420 -0.2080 -0.1152
  640MOL0     C88204   4.425   5.092   1.136  0.9005  0.0440 -0.2110
  640MOL0     C88205   4.365   5.059   0.996 -0.1235 -0.1173 -0.1036
  640MOL0     O88206   4.396   5.171   0.902  0.2559 -0.1522  0.2083
  640MOL0     C88207   4.427   5.126   0.777  0.9906 -0.1609 -0.6739
  640MOL0     C88208   4.538   5.063   0.737  0.5107  0.6752 -0.7682
  640MOL0     C88209   4.560   5.007   0.612 -0.0649  0.3754  0.8682
  640MOL0     C88210   4.693   4.940   0.586 -0.2628 -0.1420  0.2333
  640MOL0     C88211   4.449   4.993   0.525  0.7524 -0.5683  0.3930
  640MOL0     C88212   4.445   4.927   0.396 -0.7662  0.1569  0.0442
  640MOL0     O88213   4.333   4.934   0.324 -0.4128 -0.2121 -0.2118
  640MOL0     C88214   4.346   4.895   0.194  0.1812  0.0396  0.0050
  640MOL0     C88215   4.352   4.993   0.089  0.1170  0.3617 -0.9468
  640MOL0     C88216   4.373   4.954  -0.047 -0.1156  0.5161  0.5802
  640MOL0     C88217   4.375   4.820  -0.082 -0.2103 -0.2147  0.0657
  640MOL0     O88218   4.349   4.779  -0.211 -0.6347 -0.1795 -0.1241
  640MOL0     C88219   4.371   4.877  -0.323 -0.0669 -0.6827  0.2110
  640MOL0     C88220   4.244   4.965  -0.359  0.3613 -0.7618 -0.8060
  640MOL0     C88221   4.155   4.897  -0.457  0.1997  0.3287 -0.4156
  640MOL0     C88222   4.009   4.945  -0.449 -0.6487 -0.2517 -0.3520
  640MOL0     C88223   3.928   4.954  -0.581  0.1721  0.7156 -0.3884
  640MOL0     C88224   3.978   5.045  -0.693  0.9999 -0.2627  0.5993
  640MOL0     C88225   3.888   5.041  -0.817 -0.0633  0.3791  0.1431
  640MOL0     C88226   3.937   5.137  -0.925 -0.5745 -0.6386 -0.4458
  640MOL0    Cl88227   4.004   5.047  -1.064 -0.3980  0.1323 -0.1456
  640MOL0     C88228   4.362   4.724   0.023 -0.5094  0.2236 -0.2271
  640MOL0     C88229   4.354   4.764   0.155  0.4715  0.6011  0.5407
  640MOL0     O88230   4.549   4.860   0.360 -0.6922 -0.1298 -0.4921
  640MOL0     C88231   4.326   5.060   0.564  0.2881 -0.1850  0.0869
  640MOL0     C88232   4.320   5.120   0.698  0.7551  0.3096  0.2714
  640MOL0     N88233   4.253   5.135   1.544 -0.3088 -0.4500 -0.2091
  640MOL0     N88234   4.271   5.031   1.620  0.2715  0.0382  0.4884
  640MOL0     C88235   4.043   3.765   1.569 -0.6509  0.2583  0.0452
  640MOL0     C88236   3.964   3.682   1.495  0.8189  0.8704  0.3107
  640MOL0     C88237   3.749   3.484   1.120 -0.1559 -0.1122 -0.6084
  640MOL0     C88238   3.621   3.524   1.159  1.2941  0.7299 -0.2572
  640MOL0     C88239   3.509   3.470   1.093 -0.0280 -0.3127 -0.2276
  640MOL0     C88240   3.519   3.373   0.994  0.3558  1.0210  1.1244
  640MOL0     O88241   3.405   3.318   0.936 -0.7420 -0.1461 -0.1058
  640MOL0     C88242   3.281   3.386   0.942 -0.0174 -0.4749  0.8873
  640MOL0     C88243   3.168   3.287   0.952 -0.4625 -0.4314  0.9604
  640MOL0     C88244   3.035   3.347   0.956  0.2175 -0.6985  0.3998
  640MOL0     C88245   2.931   3.239   0.970  0.2426 -0.3081 -0.2905
  640MOL0     C88246   2.935   3.166   1.101  0.0538  0.1445  0.3937
  640MOL0     C88247   2.948   3.116   1.210  1.3607  0.3406  0.5492
  640MOL0     C88248   3.649   3.332   0.954 -0.7746  0.0129 -0.1993
  640MOL0     C88249   3.760   3.395   1.013  0.1309 -0.3818  0.5200
  640MOL0     C88250   3.895   3.336   0.952  0.5645 -0.1282 -0.1776
  640MOL0     H88251   3.950   3.844   1.197  3.1812 -1.0071 -0.2689
  640MOL0     H88252   4.058   4.017   1.338  0.7610  1.0978  0.8157
  640MOL0     H88253   4.283   4.006   1.415  2.4770  1.8273  0.4874
  640MOL0     H88254   4.356   3.885   1.517 -1.7641 -0.4153 -0.6083
  640MOL0     H88255   4.376   4.062   1.687  1.9547  0.3615  0.2772
  640MOL0     H88256   4.478   4.094   1.548  0.3703 -0.4686 -0.6666
  640MOL0     H88257   4.296   4.223   1.444  3.1313 -0.3076  0.7473
  640MOL0     H88258   4.210   4.234   1.603  1.2455  0.8984  2.1937
  640MOL0     H88259   4.435   4.317   1.698 -0.7709 -0.3649  0.5025
  640MOL0     H88260   4.482   4.320   1.523  0.3253  1.9526  0.9666
  640MOL0     H88261   4.243   4.472   1.598 -0.7233 -0.8317 -1.3668
  640MOL0     H88262   4.329   4.467   1.447 -0.2688 -0.5903  0.3334
  640MOL0     H88263   4.450   4.575   1.696 -2.6077 -0.0454 -0.9666
  640MOL0     H88264   4.535   4.551   1.534 -0.3672 -3.5205 -0.0869
  640MOL0     H88265   4.265   4.690   1.589 -0.1346 -0.3718 -1.7186
  640MOL0     H88266   4.374   4.705   1.448  0.6507 -0.7156  0.6275
  640MOL0     H88267   4.400   4.845   1.738  1.6484 -1.0079  0.8787
  640MOL0     H88268   4.531   4.835   1.613 -0.6679 -2.5438 -2.2570
  640MOL0     H88269   4.526   5.018   1.423  1.9913  4.1311 -0.6797
  640MOL0     H88270   4.469   5.266   1.329 -0.3459 -1.7963 -3.3414
  640MOL0     H88271   4.309   5.334   1.354  4.7290  2.5892  1.9255
  640MOL0     H88272   4.220   5.156   1.217 -1.0625  1.3024 -0.8416
  640MOL0     H88273   4.312   5.286   1.142 -6.8826 -0.1269  0.3506
  640MOL0     H88274   4.521   5.141   1.119  0.5705  0.5113 -0.8019
  640MOL0     H88275   4.446   5.001   1.191  1.0907  0.0416 -0.2862
  640MOL0     H88276   4.418   4.968   0.965  3.6730  1.8495 -0.0115
  640MOL0     H88277   4.258   5.038   0.995 -0.0411 -0.5372 -0.2417
  640MOL0     H88278   4.618   5.045   0.808  0.5290  0.3983 -0.8581
  640MOL0     H88279   4.766   4.974   0.660  1.0085 -2.1526 -0.0524
  640MOL0     H88280   4.726   4.950   0.482 -2.5381 -1.0993 -0.6495
  640MOL0     H88281   4.686   4.833   0.606  2.2409  0.0350  2.5438
  640MOL0     H88282   4.353   5.096   0.125 -2.5494 -0.7823  3.0882
  640MOL0     H88283   4.402   5.027  -0.122  2.0484 -0.8880 -0.0352
  640MOL0     H88284   4.452   4.949  -0.307 -0.7557  0.3656 -0.8982
  640MOL0     H88285   4.402   4.830  -0.416 -0.3122 -0.0102 -0.2182
  640MOL0     H88286   4.187   4.984  -0.267 -0.0044 -2.5116 -0.6247
  640MOL0     H88287   4.272   5.065  -0.390 -1.3210 -0.2100 -0.6730
  640MOL0     H88288   4.145   4.788  -0.449 -1.5223  0.5736  1.8609
  640MOL0     H88289   4.194   4.918  -0.557  1.4402 -1.5708 -0.3754
  640MOL0     H88290   4.018   5.046  -0.409 -0.3022  0.3920 -1.9643
  640MOL0     H88291   3.957   4.876  -0.382  0.5709 -3.3517 -2.3710
  640MOL0     H88292   3.918   4.855  -0.625 -1.7360  1.1024 -0.9477
  640MOL0     H88293   3.828   4.994  -0.559 -0.6642 -0.3789 -2.0299
  640MOL0     H88294   4.081   5.019  -0.720 -0.0945 -1.3646 -2.9910
  640MOL0     H88295   3.980   5.145  -0.648 -0.4262  0.0664 -0.0058
  640MOL0     H88296   3.787   5.070  -0.786 -0.4102  1.7641 -2.0294
  640MOL0     H88297   3.878   4.939  -0.856 -0.7801  2.0455 -4.6970
  640MOL0     H88298   4.013   5.206  -0.887 -1.3530  0.6040 -1.0775
  640MOL0     H88299   3.855   5.193  -0.971 -0.0751 -0.4897 -1.1777
  640MOL0     H88300   4.356   4.620  -0.005  0.7272  0.5694 -1.9418
  640MOL0     H88301   4.354   4.680   0.224  0.3902 -1.5000 -1.8433
  640MOL0     H88302   4.237   5.067   0.502  0.8136 -0.6129 -0.7249
  640MOL0     H88303   4.230   5.176   0.724 -3.1018 -4.8728 -0.4076
  640MOL0     H88304   4.065   3.736   1.671  2.1716  0.8393 -0.3087
  640MOL0     H88305   3.922   3.596   1.545  0.3988  2.1337  2.2740
  640MOL0     H88306   3.611   3.603   1.234  1.6656  0.1379  0.4282
  640MOL0     H88307   3.417   3.519   1.122  0.5811  1.1395 -0.6514
  640MOL0     H88308   3.268   3.451   1.028 -1.8883  2.5112 -1.4610
  640MOL0     H88309   3.256   3.438   0.849 -2.2169 -3.9065 -0.6547
  640MOL0     H88310   3.187   3.227   1.041 -2.9793 -2.4388  0.2661
  640MOL0     H88311   3.177   3.222   0.864  1.4015  3.2572 -1.8729
  640MOL0     H88312   3.025   3.421   1.035  1.6337 -0.7560  0.6587
  640MOL0     H88313   3.024   3.401   0.862  0.5698  1.5649  1.5975
  640MOL0     H88314   2.941   3.169   0.887  0.3514 -1.4916  0.6854
  640MOL0     H88315   2.841   3.294   0.943 -0.2924 -0.0897  1.7613
  640MOL0     H88316   2.964   3.087   1.312  1.2413 -0.7303  0.2716
  640MOL0     H88317   3.670   3.252   0.884 -3.9422 -1.8983  0.7950
  640MOL0     H88318   3.871   3.263   0.874 -0.5016 -0.0138  0.0271
  640MOL0     H88319   3.950   3.415   0.901 -0.2801 -0.0376 -0.9635
  640MOL0     H88320   3.972   3.295   1.018  0.1967  2.4408  1.9960
  641MOL0     O88321   4.607   4.056   2.876  0.0613 -0.5088  0.2796
  641MOL0     C88322   4.607   4.155   2.799 -0.1006  0.4959  0.1786
  641MOL0     O88323   4.676   4.261   2.815  0.3162 -0.3024  0.1469
  641MOL0     C88324   4.783   4.281   2.903 -0.1053  1.2969  0.1506
  641MOL0     C88325   4.906   4.278   2.848 -0.2576 -0.3675  0.0428
  641MOL0     C88326   5.020   4.311   2.928  0.1877  0.3141  0.0647
  641MOL0     C88327   4.999   4.349   3.064 -0.8894 -0.0834  0.1350
  641MOL0     O88328   5.113   4.389   3.134 -0.3839  0.1250  0.7666
  641MOL0     C88329   5.137   4.344   3.266  0.2322  0.4553  0.7112
  641MOL0     C88330   5.273   4.402   3.302 -0.0495 -0.4407  0.4263
  641MOL0     C88331   5.339   4.301   3.413  0.0213 -0.7293  0.4726
  641MOL0     C88332   5.464   4.366   3.474 -0.3363 -0.2598  0.3150
  641MOL0     C88333   5.504   4.312   3.614 -0.7258  0.9273  0.0222
  641MOL0     C88334   5.534   4.165   3.609  0.1324 -1.3514  0.0346
  641MOL0     C88335   5.565   4.105   3.751 -0.0438 -0.7884  0.0061
  641MOL0     C88336   5.517   3.964   3.758 -0.6136  0.9466  0.0924
  641MOL0     N88337   5.548   3.902   3.882  0.9215 -0.6136 -0.6655
  641MOL0     C88338   5.666   3.838   3.924 -0.6102  0.3069 -0.5681
  641MOL0     C88339   5.644   3.793   4.045 -0.2708  0.0626  0.2975
  641MOL0     C88340   5.739   3.722   4.124 -1.4670  0.3577 -0.7979
  641MOL0     C88341   5.704   3.577   4.146 -0.1943  0.8005 -0.0308
  641MOL0     C88342   5.743   3.483   4.032 -0.6848  0.0912  0.3986
  641MOL0     C88343   5.639   3.469   3.917  0.4818 -0.7980 -0.9142
  641MOL0     O88344   5.690   3.386   3.814  0.5439  0.2137 -0.4111
  641MOL0     C88345   5.615   3.295   3.746  0.1923  0.4384  0.6671
  641MOL0     C88346   5.683   3.217   3.654 -0.0334 -0.7298 -0.2705
  641MOL0     C88347   5.619   3.116   3.584  0.6258  0.1716 -0.0235
  641MOL0     C88348   5.703   3.042   3.478 -0.6255 -0.2294 -0.2471
  641MOL0     C88349   5.477   3.101   3.599 -0.2400  0.2394  0.0496
  641MOL0     C88350   5.395   3.013   3.521  0.7892 -0.3395  0.2599
  641MOL0     O88351   5.279   3.060   3.472  0.3246 -0.3326 -0.3278
  641MOL0     C88352   5.191   2.982   3.396  0.0545  0.0029 -0.3063
  641MOL0     C88353   5.152   3.036   3.274 -0.2850 -1.0090  0.1800
  641MOL0     C88354   5.074   2.951   3.176 -0.8396 -0.4810 -0.1588
  641MOL0     C88355   5.025   2.831   3.227 -0.2141  1.0323  0.2639
  641MOL0     O88356   4.942   2.757   3.144 -0.0416  0.0228  0.2388
  641MOL0     C88357   4.927   2.614   3.179  0.8990 -0.4474  0.7175
  641MOL0     C88358   4.839   2.553   3.072 -0.7798  0.2309  0.1190
  641MOL0     C88359   4.835   2.401   3.112  0.8784  0.5544  0.6908
  641MOL0     C88360   4.751   2.330   3.000 -0.3137 -0.7354  0.9294
  641MOL0     C88361   4.741   2.179   3.027 -0.6900 -0.0327  0.3879
  641MOL0     C88362   4.643   2.124   2.923 -0.6018 -0.3756  0.4448
  641MOL0     C88363   4.607   1.977   2.959 -0.5710  0.0174 -0.2475
  641MOL0     C88364   4.486   1.948   2.866 -1.0914  0.0857 -0.7903
  641MOL0    Cl88365   4.433   1.795   2.905 -0.3165  0.1875 -0.5175
  641MOL0     C88366   5.063   2.793   3.354 -0.1663  0.9416  0.4953
  641MOL0     C88367   5.138   2.870   3.438 -0.2997  0.9428  0.3238
  641MOL0     O88368   5.442   2.905   3.499  0.0187  0.8004  0.4281
  641MOL0     C88369   5.405   3.183   3.696 -0.1737  0.0164  0.0832
  641MOL0     C88370   5.478   3.282   3.762 -0.7417 -0.3465 -0.0900
  641MOL0     N88371   5.515   3.835   4.084  0.3238 -0.0081 -0.0638
  641MOL0     N88372   5.457   3.894   3.984  0.6564  0.2306 -0.5161
  641MOL0     C88373   4.876   4.334   3.129  0.3388  0.4015 -0.2658
  641MOL0     C88374   4.767   4.302   3.045  0.2960  0.2330  0.8947
  641MOL0     C88375   4.537   4.137   2.675 -0.7059  0.0942 -0.6641
  641MOL0     C88376   4.427   4.230   2.644 -0.1824 -0.0590 -0.4251
  641MOL0     C88377   4.353   4.222   2.523 -0.1388 -0.2451  0.0654
  641MOL0     C88378   4.378   4.120   2.437 -0.4136  0.5153  1.0727
  641MOL0     O88379   4.305   4.097   2.320 -0.7694  0.0778 -0.4737
  641MOL0     C88380   4.385   4.100   2.196  0.3076  0.4540  0.3697
  641MOL0     C88381   4.442   4.238   2.167 -0.2883  0.3453  0.2006
  641MOL0     C88382   4.507   4.253   2.027  0.2262  0.8448 -0.7802
  641MOL0     C88383   4.568   4.394   2.000 -0.1835  0.4198  0.2995
  641MOL0     C88384   4.468   4.500   2.002  0.1175 -0.0035  0.4824
  641MOL0     C88385   4.390   4.594   1.998 -0.4117  0.5122  1.1833
  641MOL0     C88386   4.487   4.034   2.462  0.2802  1.2355 -0.4970
  641MOL0     C88387   4.561   4.040   2.580 -0.0232 -0.0540  0.0204
  641MOL0     C88388   4.678   3.940   2.595 -0.3861 -0.2165  0.0558
  641MOL0     H88389   4.922   4.256   2.743  0.2299 -0.0746  0.0470
  641MOL0     H88390   5.118   4.318   2.882  0.2744  3.3406  0.4981
  641MOL0     H88391   5.145   4.236   3.253  0.1258  0.7889 -3.5847
  641MOL0     H88392   5.055   4.376   3.330 -0.6315  3.4710 -1.6441
  641MOL0     H88393   5.324   4.396   3.205 -2.2575 -0.9794 -0.7657
  641MOL0     H88394   5.269   4.508   3.328  3.5839  1.0218 -3.7373
  641MOL0     H88395   5.259   4.295   3.487  0.8306 -0.1508  1.4139
  641MOL0     H88396   5.372   4.208   3.364  1.7764 -0.3869  0.9312
  641MOL0     H88397   5.546   4.366   3.402  0.2197  3.2277  0.7675
  641MOL0     H88398   5.445   4.471   3.496 -2.3328 -0.7976  1.3227
  641MOL0     H88399   5.425   4.336   3.686  0.7216  0.8978  1.6758
  641MOL0     H88400   5.603   4.350   3.641  0.5553 -2.5243  0.6244
  641MOL0     H88401   5.438   4.130   3.572  0.2509 -0.4656 -1.1755
  641MOL0     H88402   5.611   4.155   3.532  1.9783  1.5829  1.3080
  641MOL0     H88403   5.512   4.164   3.827 -0.1736 -1.1854  0.2279
  641MOL0     H88404   5.673   4.107   3.771 -0.1416 -3.2737  1.1585
  641MOL0     H88405   5.409   3.955   3.745 -0.5390  1.2556 -0.8393
  641MOL0     H88406   5.554   3.904   3.674  0.3884 -0.9917  1.8238
  641MOL0     H88407   5.752   3.814   3.863  0.5186  3.5208 -0.4588
  641MOL0     H88408   5.744   3.755   4.228 -0.7304  0.6921 -0.9276
  641MOL0     H88409   5.839   3.722   4.078 -0.5193 -2.6548  1.0129
  641MOL0     H88410   5.774   3.552   4.226 -2.9622 -1.5793  1.8453
  641MOL0     H88411   5.603   3.554   4.182  0.0022  0.6642  0.4394
  641MOL0     H88412   5.837   3.519   3.989  0.3469  0.4831  2.8523
  641MOL0     H88413   5.759   3.385   4.079 -3.4496 -0.2865  0.7049
  641MOL0     H88414   5.549   3.425   3.961  0.6271 -1.3173 -1.1384
  641MOL0     H88415   5.621   3.571   3.881  0.4520  0.3994  2.1576
  641MOL0     H88416   5.788   3.233   3.636  0.2292 -1.6185  0.4052
  641MOL0     H88417   5.713   2.938   3.507 -1.0307 -1.0056 -2.6416
  641MOL0     H88418   5.799   3.095   3.465 -0.8356  0.1983 -0.0879
  641MOL0     H88419   5.659   3.033   3.378  2.5521  0.0297 -1.8145
  641MOL0     H88420   5.189   3.132   3.241 -0.6115 -0.9804 -0.1068
  641MOL0     H88421   5.054   2.994   3.078 -0.0520  2.6282  0.9155
  641MOL0     H88422   5.026   2.567   3.179  1.4046  0.6034  0.8684
  641MOL0     H88423   4.872   2.601   3.272 -2.7094  3.1888 -0.6448
  641MOL0     H88424   4.742   2.596   3.047  0.5424  2.5530 -1.2964
  641MOL0     H88425   4.895   2.557   2.978 -0.3804 -2.3817  0.1490
  641MOL0     H88426   4.786   2.383   3.208 -0.8327 -0.2360 -0.2773
  641MOL0     H88427   4.932   2.350   3.110  0.8242  0.3588  2.0467
  641MOL0     H88428   4.790   2.352   2.900  0.7549  2.2463  1.8937
  641MOL0     H88429   4.657   2.384   3.007  0.9720  1.6810  0.7565
  641MOL0     H88430   4.840   2.133   3.015 -1.0569 -0.6206 -0.4608
  641MOL0     H88431   4.705   2.153   3.127  1.1794 -3.8588  0.2636
  641MOL0     H88432   4.694   2.128   2.826  1.4904 -1.4548  1.4331
  641MOL0     H88433   4.557   2.191   2.923  0.1067  0.5980 -0.9066
  641MOL0     H88434   4.573   1.992   3.062  0.0656  1.4548 -0.2162
  641MOL0     H88435   4.687   1.903   2.950  0.9929  1.4296  1.2846
  641MOL0     H88436   4.517   1.942   2.761 -0.0902 -1.0461 -0.4550
  641MOL0     H88437   4.412   2.026   2.882 -3.0423 -1.8872  0.3927
  641MOL0     H88438   5.015   2.705   3.396 -0.2501  0.5826 -0.3309
  641MOL0     H88439   5.146   2.849   3.545 -0.8389 -0.8025  0.0667
  641MOL0     H88440   5.303   3.161   3.727  0.1164 -3.2950 -0.9888
  641MOL0     H88441   5.426   3.345   3.833  0.0238 -0.8338  0.9509
  641MOL0     H88442   4.862   4.354   3.234  2.1629  2.0763 -0.2790
  641MOL0     H88443   4.671   4.292   3.095 -0.5493  0.2561 -0.6575
  641MOL0     H88444   4.402   4.311   2.712  1.3472  1.6802 -1.8476
  641MOL0     H88445   4.270   4.291   2.510 -2.0971 -2.9584 -4.3682
  641MOL0     H88446   4.465   4.026   2.192  1.2595  1.2040  3.3015
  641MOL0     H88447   4.316   4.073   2.115  1.1647  0.7136 -0.4516
  641MOL0     H88448   4.501   4.272   2.252  0.6489 -1.9970  0.5550
  641MOL0     H88449   4.359   4.309   2.154 -1.4845 -0.8211  1.2174
  641MOL0     H88450   4.596   4.193   2.011  1.5131  2.9061 -1.7269
  641MOL0     H88451   4.434   4.225   1.949 -0.0519 -0.0826 -0.2096
  641MOL0     H88452   4.632   4.391   1.911 -0.8531 -0.0783 -0.1785
  641MOL0     H88453   4.632   4.413   2.086 -1.0096  1.6379  0.6595
  641MOL0     H88454   4.346   4.691   1.993  2.1503  1.7113 -0.7036
  641MOL0     H88455   4.521   3.957   2.394  0.1327 -1.0373  1.8631
  641MOL0     H88456   4.646   3.878   2.679 -1.4380  0.6068  0.2819
  641MOL0     H88457   4.707   3.896   2.499  0.7514 -0.3526  0.4477
  641MOL0     H88458   4.776   3.975   2.629 -0.9759  0.7547  0.8009
  642MOL0     O88459   2.136   7.135   3.916 -0.1190  1.0926  0.2852
  642MOL0     C88460   2.127   7.098   4.029  1.1795  0.0985 -1.1385
  642MOL0     O88461   2.228   7.068   4.119  0.7325 -0.1200  0.8096
  642MOL0     C88462   2.355   7.090   4.072 -0.7251 -0.6791  0.6809
  642MOL0     C88463   2.419   7.211   4.118 -0.5319 -0.5060 -0.0936
  642MOL0     C88464   2.554   7.229   4.061  0.8215  0.0359  0.3210
  642MOL0     C88465   2.616   7.143   3.975 -0.4401  1.0425  0.3338
  642MOL0     O88466   2.747   7.157   3.925  0.9173  1.1136  0.8393
  642MOL0     C88467   2.831   7.271   3.965  0.0669 -0.6139 -0.0030
  642MOL0     C88468   2.955   7.285   3.877 -0.9121 -0.6642  0.0327
  642MOL0     C88469   3.056   7.378   3.942 -0.3560  0.0585 -0.1482
  642MOL0     C88470   3.198   7.382   3.874 -0.2761  0.0870  0.6228
  642MOL0     C88471   3.194   7.416   3.721 -0.6063  0.1066 -0.3744
  642MOL0     C88472   3.321   7.368   3.656  0.1102 -0.5294  0.2406
  642MOL0     C88473   3.330   7.418   3.515 -0.0782 -1.7047  0.0229
  642MOL0     C88474   3.421   7.342   3.410  0.2515  0.0234  0.0236
  642MOL0     N88475   3.442   7.409   3.283 -0.0199 -0.1354 -0.2915
  642MOL0     C88476   3.341   7.448   3.199  0.3479 -0.1847 -0.0831
  642MOL0     C88477   3.400   7.503   3.089 -0.4414  0.5855  0.5322
  642MOL0     C88478   3.330   7.593   2.981  0.7923  0.5455 -0.0715
  642MOL0     C88479   3.336   7.528   2.841  1.1761  0.3273  0.2239
  642MOL0     C88480   3.243   7.401   2.834  0.0607 -0.1130  0.8861
  642MOL0     C88481   3.098   7.433   2.782  0.3213  0.3073  0.3412
  642MOL0     O88482   3.013   7.445   2.901  0.9497  0.2540 -0.1545
  642MOL0     C88483   2.949   7.333   2.954 -1.1085 -0.0218  0.3830
  642MOL0     C88484   2.952   7.210   2.892 -0.0670  0.4470 -0.7676
  642MOL0     C88485   2.861   7.103   2.936 -0.6772 -0.0438 -0.4949
  642MOL0     C88486   2.844   6.974   2.853  0.5361  0.2761 -0.7174
  642MOL0     C88487   2.777   7.126   3.048  1.4056  0.1668  0.2698
  642MOL0     C88488   2.674   7.033   3.113 -0.6166 -0.1686  0.1647
  642MOL0     O88489   2.607   7.087   3.218 -0.0501  0.6239 -0.1367
  642MOL0     C88490   2.505   7.023   3.280 -0.2606  0.1494 -0.2768
  642MOL0     C88491   2.516   7.011   3.412 -0.0200  0.6022 -0.5660
  642MOL0     C88492   2.425   6.936   3.484  0.0744 -1.4570  0.2380
  642MOL0     C88493   2.305   6.884   3.417  0.4226 -0.3975  0.1906
  642MOL0     O88494   2.207   6.812   3.486 -0.4400 -0.2353 -0.3456
  642MOL0     C88495   2.234   6.755   3.619  0.3722  0.7492 -0.4911
  642MOL0     C88496   2.094   6.709   3.673 -0.0828  0.0453  0.1473
  642MOL0     C88497   2.042   6.597   3.584  0.4164 -0.0509  0.4049
  642MOL0     C88498   1.904   6.549   3.636 -0.0312 -0.3216  0.9815
  642MOL0     C88499   1.826   6.475   3.530 -0.3210  0.3336  0.0929
  642MOL0     C88500   1.682   6.436   3.566 -0.1836  0.1221 -0.1011
  642MOL0     C88501   1.615   6.372   3.446  0.4948 -0.0751 -0.1620
  642MOL0     C88502   1.476   6.329   3.486  0.4571 -0.5155 -0.5771
  642MOL0    Cl88503   1.470   6.200   3.611 -0.7878 -0.1845 -0.2298
  642MOL0     C88504   2.289   6.907   3.280 -0.0292 -0.1563 -0.6154
  642MOL0     C88505   2.389   6.979   3.216  0.5442 -0.3585  0.1038
  642MOL0     O88506   2.655   6.919   3.068 -0.3750  0.0751 -0.0829
  642MOL0     C88507   2.803   7.241   3.121  0.1317 -0.0872  0.0282
  642MOL0     C88508   2.878   7.347   3.070 -0.9422 -0.4177 -0.0982
  642MOL0     N88509   3.535   7.498   3.111  0.6901 -0.6287  0.4881
  642MOL0     N88510   3.560   7.433   3.224  0.1491 -0.1543  0.0367
  642MOL0     C88511   2.549   7.036   3.919  1.0956 -0.4671  0.6311
  642MOL0     C88512   2.420   7.010   3.970  0.8603  0.6347 -0.3204
  642MOL0     C88513   1.987   7.077   4.085 -0.3310 -0.4272  0.6251
  642MOL0     C88514   1.883   7.077   3.995  0.6045 -0.9104 -0.0918
  642MOL0     C88515   1.751   7.084   4.039 -0.7031  0.2811  0.0848
  642MOL0     C88516   1.718   7.089   4.177 -0.3910  0.6025  0.8398
  642MOL0     O88517   1.592   7.086   4.234 -0.9176  0.3839  0.5800
  642MOL0     C88518   1.479   7.135   4.160  0.2054 -0.3489  0.6063
  642MOL0     C88519   1.483   7.286   4.104  0.3714 -0.1256 -0.2364
  642MOL0     C88520   1.481   7.400   4.197  0.2858  1.4008  0.0812
  642MOL0     C88521   1.482   7.549   4.158 -0.6067 -0.8706 -0.3985
  642MOL0     C88522   1.374   7.570   4.058 -1.1201 -0.1086  0.3392
  642MOL0     C88523   1.288   7.590   3.975 -0.5491 -0.3457 -0.0065
  642MOL0     C88524   1.819   7.081   4.264  0.6338 -0.3100  0.7332
  642MOL0     C88525   1.946   7.073   4.221  0.4155  0.3937  0.1176
  642MOL0     C88526   2.056   7.072   4.333  0.6370  0.3502 -0.3136
  642MOL0     H88527   2.365   7.276   4.186  0.8924  3.6063 -2.5499
  642MOL0     H88528   2.616   7.312   4.092  0.2828  0.6248 -0.1585
  642MOL0     H88529   2.868   7.256   4.067 -1.7205  1.6433  1.0833
  642MOL0     H88530   2.773   7.364   3.962  1.4977  0.3855  1.3112
  642MOL0     H88531   2.998   7.186   3.864 -0.2496 -0.2246 -1.2424
  642MOL0     H88532   2.919   7.308   3.776 -0.2390  1.0729  0.1572
  642MOL0     H88533   3.021   7.480   3.959 -0.0839  0.1188  0.0445
  642MOL0     H88534   3.065   7.332   4.041 -1.7719 -1.6804 -0.7561
  642MOL0     H88535   3.267   7.449   3.926 -0.4685 -1.0903  2.4839
  642MOL0     H88536   3.245   7.283   3.875 -0.7429 -0.1285  1.8319
  642MOL0     H88537   3.193   7.525   3.715  4.1116  0.8583  4.3476
  642MOL0     H88538   3.117   7.359   3.668  2.1132 -1.5055 -2.8830
  642MOL0     H88539   3.411   7.400   3.711 -2.3147  2.1968  3.0245
  642MOL0     H88540   3.325   7.259   3.648  3.8461 -0.4887 -0.5203
  642MOL0     H88541   3.352   7.525   3.517 -2.8094 -1.0627  0.8947
  642MOL0     H88542   3.228   7.410   3.474 -0.5293 -0.3764  0.8228
  642MOL0     H88543   3.517   7.335   3.462 -0.6277  1.1606  1.9211
  642MOL0     H88544   3.385   7.241   3.390 -0.3565  0.6166 -2.1388
  642MOL0     H88545   3.236   7.435   3.224  0.4401 -1.1130 -0.1465
  642MOL0     H88546   3.383   7.689   2.979 -0.4599  1.2507 -0.2473
  642MOL0     H88547   3.227   7.598   3.016 -0.1527 -4.0028 -1.4722
  642MOL0     H88548   3.290   7.593   2.766  0.0595 -0.2474  0.3885
  642MOL0     H88549   3.441   7.504   2.822  2.3665  3.8736  1.4194
  642MOL0     H88550   3.278   7.329   2.760 -2.9832 -0.7688 -0.0853
  642MOL0     H88551   3.245   7.336   2.922  2.0782 -0.4521  0.6389
  642MOL0     H88552   3.092   7.527   2.727  0.7651 -1.2056 -2.5188
  642MOL0     H88553   3.059   7.354   2.716  0.4697 -1.4871  2.2723
  642MOL0     H88554   3.006   7.187   2.801  1.9127 -3.2966  1.1168
  642MOL0     H88555   2.766   6.977   2.777  2.0152  0.7748 -2.2951
  642MOL0     H88556   2.843   6.888   2.920  3.0463  0.9689  0.3333
  642MOL0     H88557   2.939   6.958   2.801  0.8875  0.6609 -0.2029
  642MOL0     H88558   2.600   7.049   3.469 -0.5471  0.0822  0.5944
  642MOL0     H88559   2.439   6.938   3.592 -0.9636 -1.8468  0.3899
  642MOL0     H88560   2.315   6.682   3.611  2.7252  2.9563  1.3768
  642MOL0     H88561   2.268   6.822   3.699 -0.5139 -0.4288  0.9437
  642MOL0     H88562   2.119   6.668   3.771 -0.2576  0.7823  0.5030
  642MOL0     H88563   2.029   6.795   3.686 -1.4319 -0.9167  0.0030
  642MOL0     H88564   2.117   6.517   3.578 -0.5354 -1.0018  0.7623
  642MOL0     H88565   2.034   6.627   3.479  1.8179 -0.5983  0.1136
  642MOL0     H88566   1.845   6.632   3.677 -0.0000  1.0162 -1.4739
  642MOL0     H88567   1.927   6.482   3.719 -0.4462 -1.0698  0.5019
  642MOL0     H88568   1.807   6.543   3.446 -1.6587 -0.2114 -0.0725
  642MOL0     H88569   1.881   6.388   3.491  0.4464  0.5866  0.6029
  642MOL0     H88570   1.622   6.522   3.598  1.4394  0.0034  3.6895
  642MOL0     H88571   1.677   6.371   3.654 -0.6112 -3.4291 -2.5484
  642MOL0     H88572   1.680   6.294   3.405  0.6017 -1.0857  1.7920
  642MOL0     H88573   1.592   6.444   3.366 -1.2380 -1.2385 -0.7687
  642MOL0     H88574   1.406   6.297   3.408  1.1986 -1.6464 -0.7936
  642MOL0     H88575   1.427   6.418   3.527  0.1541 -0.6706 -0.5941
  642MOL0     H88576   2.208   6.862   3.224 -0.6898  0.1429  0.0824
  642MOL0     H88577   2.383   6.977   3.108  5.0375  0.1179 -0.3774
  642MOL0     H88578   2.765   7.281   3.215  2.6906 -0.9572  1.5457
  642MOL0     H88579   2.883   7.439   3.127 -0.0404 -1.7408  2.0940
  642MOL0     H88580   2.595   6.962   3.855  0.4254  0.3738 -0.8841
  642MOL0     H88581   2.360   6.930   3.927  1.1901  1.3322 -2.1447
  642MOL0     H88582   1.894   7.062   3.888  0.2164 -0.9751 -0.1253
  642MOL0     H88583   1.668   7.092   3.969 -1.2106  0.0110  0.6471
  642MOL0     H88584   1.457   7.067   4.077  0.9816 -2.5913  2.1530
  642MOL0     H88585   1.393   7.118   4.225 -0.4500 -1.9290 -0.5871
  642MOL0     H88586   1.387   7.299   4.052  0.3755  1.8502  0.2059
  642MOL0     H88587   1.569   7.294   4.037 -2.3626  1.5616 -3.9577
  642MOL0     H88588   1.388   7.386   4.255  1.6298  1.2613  2.3205
  642MOL0     H88589   1.564   7.376   4.263 -1.0825  0.9019  1.7094
  642MOL0     H88590   1.581   7.575   4.120  1.0164 -3.5466  1.6250
  642MOL0     H88591   1.468   7.617   4.242  0.7035  0.5844 -1.2947
  642MOL0     H88592   1.205   7.597   3.908 -0.4162 -2.9962 -0.5688
  642MOL0     H88593   1.800   7.065   4.370 -0.1711 -0.9541  0.5025
  642MOL0     H88594   2.012   7.045   4.430  0.9578  2.0137  0.3220
  642MOL0     H88595   2.138   7.000   4.328 -0.9415 -1.5942  0.0502
  642MOL0     H88596   2.098   7.172   4.349  1.0157  0.0343  0.7582
  643MOL0     O88597   8.231   4.855   1.869  0.4606 -0.4044 -0.0353
  643MOL0     C88598   8.326   4.927   1.844  0.1371 -1.0700 -0.1094
  643MOL0     O88599   8.321   5.065   1.841 -0.1702  0.2137  1.8157
  643MOL0     C88600   8.207   5.153   1.848  0.0573  0.8179 -0.0133
  643MOL0     C88601   8.073   5.122   1.858 -0.0071  0.2355 -0.1800
  643MOL0     C88602   7.977   5.215   1.829 -0.8672  0.6248 -0.8387
  643MOL0     C88603   8.014   5.349   1.798  0.7867  0.4486 -0.4592
  643MOL0     O88604   7.923   5.451   1.764  0.4487 -0.5068  0.2085
  643MOL0     C88605   7.801   5.403   1.705 -0.7740 -0.2257 -0.0474
  643MOL0     C88606   7.732   5.518   1.630 -0.1640 -0.0033 -0.1624
  643MOL0     C88607   7.838   5.614   1.562 -0.4936  0.4239  0.7920
  643MOL0     C88608   7.927   5.564   1.440  0.7050 -0.5428 -0.6192
  643MOL0     C88609   8.048   5.642   1.404 -0.0347  0.1164 -1.1053
  643MOL0     C88610   8.014   5.785   1.385  1.4037  0.7338 -0.7625
  643MOL0     C88611   8.132   5.882   1.368  0.0035 -0.2961  0.2595
  643MOL0     C88612   8.260   5.836   1.446  0.3337 -1.0511  0.1879
  643MOL0     N88613   8.378   5.907   1.381  0.8295 -0.1126 -0.1949
  643MOL0     C88614   8.428   5.850   1.266 -0.1234 -0.0181  0.5933
  643MOL0     C88615   8.553   5.905   1.255  0.3651  0.3910  0.8155
  643MOL0     C88616   8.641   5.876   1.143  0.5914 -0.0866 -0.2979
  643MOL0     C88617   8.665   5.735   1.102 -0.9833  0.5360 -0.0947
  643MOL0     C88618   8.709   5.653   1.218 -0.1689 -0.3119 -0.1756
  643MOL0     C88619   8.821   5.709   1.309  0.3317 -0.5738  0.0410
  643MOL0     O88620   8.947   5.684   1.239 -0.2709 -0.0645 -0.1886
  643MOL0     C88621   9.019   5.576   1.280 -1.0019 -1.1973 -0.3685
  643MOL0     C88622   9.042   5.552   1.413 -0.3611 -0.5698 -0.1922
  643MOL0     C88623   9.110   5.441   1.451 -0.8009 -0.5515 -1.0293
  643MOL0     C88624   9.153   5.425   1.601 -0.1292 -0.2365  0.7637
  643MOL0     C88625   9.156   5.346   1.358  0.4495 -0.0562 -0.1071
  643MOL0     C88626   9.245   5.228   1.388  0.6727  1.0912 -0.2654
  643MOL0     O88627   9.224   5.118   1.309  0.1243  0.3121  0.6263
  643MOL0     C88628   9.321   5.028   1.287 -0.7735  0.2398  0.4437
  643MOL0     C88629   9.305   4.895   1.331  0.0725 -0.2901  0.7269
  643MOL0     C88630   9.404   4.799   1.313  0.7178  0.1406  0.5881
  643MOL0     C88631   9.519   4.836   1.240 -1.4282  0.8647  0.2861
  643MOL0     O88632   9.608   4.738   1.191  0.4341 -0.1153 -0.1740
  643MOL0     C88633   9.628   4.609   1.259 -0.4330  0.3318 -0.0533
  643MOL0     C88634   9.716   4.617   1.372  0.2398 -0.1481 -1.0476
  643MOL0     C88635   9.732   4.474   1.440  0.1497 -0.9281  0.6494
  643MOL0     C88636   9.773   4.355   1.351  0.3857  0.7017 -0.2283
  643MOL0     C88637   9.799   4.228   1.436 -0.7266  0.3159  0.3001
  643MOL0     C88638   9.853   4.106   1.373 -0.3941  0.6544  0.3808
  643MOL0     C88639   9.982   4.127   1.279 -0.0090  0.1562 -0.2001
  643MOL0     C88640  10.058   3.996   1.213 -0.1435  0.1020  0.2172
  643MOL0    Cl88641  10.195   4.047   1.107 -0.1078 -0.1170  0.0434
  643MOL0     C88642   9.536   4.967   1.192  0.1424  0.1453 -0.7218
  643MOL0     C88643   9.436   5.062   1.215 -0.5441 -0.6234  0.0625
  643MOL0     O88644   9.328   5.229   1.476  0.2852 -0.2059  0.1575
  643MOL0     C88645   9.133   5.370   1.223  0.5637 -0.1497  0.6700
  643MOL0     C88646   9.067   5.486   1.184  0.9743 -0.9872 -0.2840
  643MOL0     N88647   8.572   5.989   1.373  0.9842 -0.2130 -0.2893
  643MOL0     N88648   8.463   5.990   1.442  0.2794  0.0612  0.1832
  643MOL0     C88649   8.147   5.384   1.798  0.1368  0.1335  1.1419
  643MOL0     C88650   8.248   5.287   1.820  0.4257 -0.0905  0.5913
  643MOL0     C88651   8.464   4.863   1.821 -1.0377 -0.3039 -1.2419
  643MOL0     C88652   8.565   4.938   1.771  0.1111 -0.2885 -0.5996
  643MOL0     C88653   8.689   4.877   1.746  0.3687 -0.8771 -0.3289
  643MOL0     C88654   8.711   4.747   1.783 -0.5602  0.4946  0.3916
  643MOL0     O88655   8.836   4.681   1.751  0.7312  0.4601  0.8178
  643MOL0     C88656   8.903   4.619   1.862 -0.5554  0.6589  0.1282
  643MOL0     C88657   9.055   4.638   1.853 -0.0826 -0.2623 -0.0383
  643MOL0     C88658   9.106   4.519   1.938  0.5525 -0.1562  0.2096
  643MOL0     C88659   9.252   4.497   1.929 -0.8399 -0.1232 -0.9340
  643MOL0     C88660   9.305   4.491   1.792  0.8711  0.5922 -0.4917
  643MOL0     C88661   9.345   4.483   1.677 -0.2923 -0.9336  0.6019
  643MOL0     C88662   8.612   4.680   1.841  0.2639  0.3841 -1.3891
  643MOL0     C88663   8.486   4.730   1.869 -0.4431 -0.3597 -0.4487
  643MOL0     C88664   8.385   4.636   1.940 -0.5847 -0.3563 -0.2451
  643MOL0     H88665   8.032   5.023   1.875 -1.0437  0.2675 -2.1160
  643MOL0     H88666   7.874   5.183   1.841 -0.5164 -1.4703 -2.6547
  643MOL0     H88667   7.737   5.359   1.783 -1.3022 -0.3894 -0.5650
  643MOL0     H88668   7.822   5.316   1.643 -0.3010 -2.7743  3.3467
  643MOL0     H88669   7.670   5.472   1.552 -1.0470  1.6482 -0.4865
  643MOL0     H88670   7.668   5.572   1.701  0.2692  0.2127  0.0662
  643MOL0     H88671   7.793   5.706   1.522 -0.9560 -0.6497 -1.2481
  643MOL0     H88672   7.914   5.645   1.634 -0.3581  0.6661  0.5466
  643MOL0     H88673   7.957   5.461   1.464  3.2067 -0.0034 -1.0835
  643MOL0     H88674   7.865   5.557   1.350  1.8051  0.5530 -1.5054
  643MOL0     H88675   8.100   5.600   1.317 -0.2350 -1.7203 -0.3959
  643MOL0     H88676   8.123   5.617   1.479  1.0124  1.0455 -1.8123
  643MOL0     H88677   7.954   5.779   1.294 -1.8547 -0.3578  1.2416
  643MOL0     H88678   7.956   5.816   1.473  1.7792  0.7748 -0.5251
  643MOL0     H88679   8.101   5.981   1.402 -1.7910 -0.2575 -1.2904
  643MOL0     H88680   8.150   5.880   1.260  1.0919 -1.6656  0.4312
  643MOL0     H88681   8.247   5.853   1.553 -1.7203 -2.2853  0.1786
  643MOL0     H88682   8.281   5.732   1.421 -3.3854 -1.3049 -2.7958
  643MOL0     H88683   8.385   5.775   1.200  1.0256  0.8719 -1.2421
  643MOL0     H88684   8.737   5.928   1.156 -0.7321  2.5682 -0.3830
  643MOL0     H88685   8.602   5.923   1.052  0.7175  0.2445 -0.1827
  643MOL0     H88686   8.570   5.701   1.060 -1.8910  2.8073  0.0161
  643MOL0     H88687   8.742   5.729   1.024  1.4595 -2.8401  2.2954
  643MOL0     H88688   8.627   5.620   1.283  4.0159 -2.5942  4.6101
  643MOL0     H88689   8.746   5.558   1.177 -0.7898 -1.3162  1.4859
  643MOL0     H88690   8.804   5.811   1.345 -1.3690 -1.3270  1.5195
  643MOL0     H88691   8.807   5.640   1.392  0.8024 -2.4337 -1.3521
  643MOL0     H88692   9.014   5.642   1.467 -1.4832  1.8259 -4.2988
  643MOL0     H88693   9.262   5.435   1.602 -0.0512 -0.7652 -0.4647
  643MOL0     H88694   9.140   5.320   1.631  1.6736 -1.0818 -1.1542
  643MOL0     H88695   9.106   5.504   1.660 -3.0026  0.4009 -2.1090
  643MOL0     H88696   9.223   4.867   1.397 -1.4730 -1.1058 -1.4200
  643MOL0     H88697   9.371   4.700   1.344 -1.8059 -0.7928 -4.1883
  643MOL0     H88698   9.538   4.553   1.288 -1.7311  2.2086 -0.3209
  643MOL0     H88699   9.662   4.533   1.188  0.6073  1.0502 -0.3323
  643MOL0     H88700   9.815   4.657   1.351  0.3888 -0.3647 -0.7631
  643MOL0     H88701   9.671   4.687   1.444  0.0509 -0.2940 -1.0225
  643MOL0     H88702   9.641   4.445   1.492  0.2579  0.6286  1.7811
  643MOL0     H88703   9.807   4.483   1.519  4.1081 -1.4030 -2.6514
  643MOL0     H88704   9.848   4.367   1.273  0.5158  1.2980 -0.0139
  643MOL0     H88705   9.683   4.315   1.304 -0.0715  0.6530  0.6610
  643MOL0     H88706   9.885   4.248   1.501  2.3573 -1.9727 -2.6877
  643MOL0     H88707   9.709   4.205   1.493 -0.5049  1.6235  1.2060
  643MOL0     H88708   9.783   4.050   1.311  0.9148  3.3362 -3.9471
  643MOL0     H88709   9.890   4.036   1.449 -2.5544 -0.1633  0.7535
  643MOL0     H88710  10.052   4.194   1.329 -1.2221  1.9740 -0.8338
  643MOL0     H88711   9.944   4.176   1.189 -0.9488 -0.4490 -0.1537
  643MOL0     H88712   9.992   3.930   1.157  2.7285 -1.2691 -1.8405
  643MOL0     H88713  10.099   3.918   1.279 -3.0943 -4.0134 -2.3356
  643MOL0     H88714   9.627   4.999   1.143  1.2577 -0.3508  0.9465
  643MOL0     H88715   9.447   5.169   1.195 -0.5551 -0.5657  0.3525
  643MOL0     H88716   9.157   5.296   1.147 -0.9011  2.1507 -2.1892
  643MOL0     H88717   9.032   5.501   1.082 -4.6830  2.9934  1.7575
  643MOL0     H88718   8.179   5.483   1.768  0.8126  0.4893  2.9181
  643MOL0     H88719   8.347   5.330   1.809 -0.8462  2.6242 -1.3122
  643MOL0     H88720   8.550   5.039   1.734  1.7835  0.5908  0.9973
  643MOL0     H88721   8.762   4.927   1.683 -0.3854  0.6587 -0.0187
  643MOL0     H88722   8.868   4.639   1.964 -0.5115  0.5094  0.1728
  643MOL0     H88723   8.869   4.516   1.850  1.3894 -0.0957  0.6720
  643MOL0     H88724   9.082   4.737   1.890  1.2802  0.3164 -2.3775
  643MOL0     H88725   9.078   4.628   1.746 -1.2320 -3.3022 -0.1112
  643MOL0     H88726   9.089   4.538   2.044 -1.1379 -0.5279  0.0311
  643MOL0     H88727   9.054   4.434   1.894 -2.3420  0.5779  1.9594
  643MOL0     H88728   9.280   4.406   1.983 -0.0120 -0.0322 -1.1885
  643MOL0     H88729   9.291   4.580   1.989 -1.9272  1.6381 -2.5133
  643MOL0     H88730   9.379   4.487   1.575  2.3386  3.9831  1.3426
  643MOL0     H88731   8.629   4.576   1.864  1.0509  0.4616 -1.5871
  643MOL0     H88732   8.433   4.545   1.977 -2.0702 -0.4373  1.6422
  643MOL0     H88733   8.355   4.698   2.026  1.6255 -0.0324  0.3558
  643MOL0     H88734   8.299   4.612   1.878 -0.1190 -2.2567 -0.2187
  644MOL0     O88735   8.996   0.916   6.733 -0.0023  0.0708  0.9190
  644MOL0     C88736   9.084   0.970   6.667 -1.3059 -0.9491  0.5279
  644MOL0     O88737   9.073   1.099   6.619 -0.4847 -0.5267  0.2925
  644MOL0     C88738   8.974   1.175   6.675 -0.0667  0.0841 -0.0334
  644MOL0     C88739   8.882   1.238   6.591 -0.0475  0.3629  0.1121
  644MOL0     C88740   8.771   1.317   6.637  0.5213  0.3065  0.0993
  644MOL0     C88741   8.755   1.333   6.773  1.3925  0.1097  0.4054
  644MOL0     O88742   8.663   1.413   6.842  0.4382  0.7106  0.7626
  644MOL0     C88743   8.586   1.498   6.757  0.5555  0.2766  0.1015
  644MOL0     C88744   8.530   1.606   6.853 -0.4762  0.9276 -0.1965
  644MOL0     C88745   8.428   1.550   6.936  0.7905 -0.5080 -1.5853
  644MOL0     C88746   8.413   1.627   7.067 -0.1448 -0.4401  0.4630
  644MOL0     C88747   8.326   1.547   7.159 -0.4474 -0.0833  0.3738
  644MOL0     C88748   8.306   1.623   7.283  0.8752 -0.1078 -0.0618
  644MOL0     C88749   8.233   1.549   7.400 -0.3683 -0.7653  0.8224
  644MOL0     C88750   8.095   1.531   7.352 -0.0919  0.4413 -0.6933
  644MOL0     N88751   8.033   1.479   7.475 -0.1076 -1.1575 -0.5157
  644MOL0     C88752   8.043   1.352   7.515 -0.5866  0.3555 -1.4824
  644MOL0     C88753   7.954   1.343   7.612  1.0090 -0.5038  0.6597
  644MOL0     C88754   7.913   1.220   7.678  0.1112  0.5104 -0.6519
  644MOL0     C88755   7.824   1.133   7.579 -0.7403 -0.2034  0.7624
  644MOL0     C88756   7.698   1.214   7.523 -0.4946  0.4032  0.0466
  644MOL0     C88757   7.630   1.149   7.406 -0.8927 -0.1843 -0.0969
  644MOL0     O88758   7.539   1.048   7.453  0.0028 -0.5553  0.3145
  644MOL0     C88759   7.408   1.079   7.485 -0.5772 -0.2354 -0.6830
  644MOL0     C88760   7.317   0.976   7.512  0.7587 -0.0954 -0.4975
  644MOL0     C88761   7.195   1.009   7.588  0.6466 -0.8221  0.4990
  644MOL0     C88762   7.113   0.889   7.622  0.0163 -0.7449  0.9944
  644MOL0     C88763   7.159   1.139   7.609 -0.9035 -0.3036 -0.1352
  644MOL0     C88764   7.021   1.186   7.650  0.8863  0.5880  0.3990
  644MOL0     O88765   7.019   1.307   7.706  0.5504 -0.1432 -0.3860
  644MOL0     C88766   6.909   1.372   7.749  0.3678 -0.0821 -0.2052
  644MOL0     C88767   6.828   1.322   7.851  0.0152  0.2317  0.3320
  644MOL0     C88768   6.727   1.402   7.915  0.4259  0.2030  0.3300
  644MOL0     C88769   6.704   1.530   7.864  0.6477 -0.2745 -0.4282
  644MOL0     O88770   6.624   1.625   7.927 -0.3461  0.0197  0.0133
  644MOL0     C88771   6.515   1.596   8.014 -0.0352 -0.8778  0.2695
  644MOL0     C88772   6.539   1.651   8.153  0.1934 -0.5828 -0.1049
  644MOL0     C88773   6.425   1.619   8.259 -0.0322 -0.3077  0.2206
  644MOL0     C88774   6.479   1.637   8.395 -0.6418  0.4327  0.8070
  644MOL0     C88775   6.367   1.602   8.487  0.2205  0.2634  0.6575
  644MOL0     C88776   6.393   1.637   8.632  0.5850 -0.3683 -0.1238
  644MOL0     C88777   6.267   1.591   8.725 -0.1452  0.2978 -0.0198
  644MOL0     C88778   6.320   1.586   8.871  0.0229 -1.0538  0.5431
  644MOL0    Cl88779   6.191   1.526   8.989 -0.1193 -0.0529  0.4468
  644MOL0     C88780   6.789   1.578   7.761  0.1562 -0.2799  0.4617
  644MOL0     C88781   6.894   1.507   7.706  0.2305 -0.3066  0.5390
  644MOL0     O88782   6.927   1.112   7.641 -0.1768  0.7253  0.0876
  644MOL0     C88783   7.252   1.240   7.571  0.2651 -0.7286  0.3017
  644MOL0     C88784   7.367   1.208   7.511  0.3180  1.0524 -1.0001
  644MOL0     N88785   7.891   1.466   7.633  0.3711  0.0369  0.1730
  644MOL0     N88786   7.941   1.548   7.542  0.3494  0.1261 -0.7655
  644MOL0     C88787   8.846   1.269   6.863 -0.3291 -0.9762 -0.4040
  644MOL0     C88788   8.957   1.195   6.817 -1.3070 -0.5302 -0.6918
  644MOL0     C88789   9.202   0.893   6.610 -1.4292 -0.1145 -0.3024
  644MOL0     C88790   9.324   0.965   6.571  0.7261  0.1581  0.4493
  644MOL0     C88791   9.444   0.899   6.539  0.1713 -0.2068 -0.3229
  644MOL0     C88792   9.435   0.765   6.518  0.1627  0.4131  0.5446
  644MOL0     O88793   9.544   0.693   6.474 -0.3787  0.5538  0.2312
  644MOL0     C88794   9.645   0.759   6.406 -0.5057  0.4351  0.5528
  644MOL0     C88795   9.755   0.659   6.362 -0.1347 -0.2642 -0.5105
  644MOL0     C88796   9.870   0.704   6.267  0.9166  0.0317 -0.4153
  644MOL0     C88797   9.905   0.601   6.163 -0.1611  0.3646 -0.0615
  644MOL0     C88798   9.810   0.607   6.056  0.5831  0.1763  1.1592
  644MOL0     C88799   9.710   0.614   5.984 -0.3519  0.6837  0.7743
  644MOL0     C88800   9.321   0.688   6.544  0.7109 -0.4930  0.7130
  644MOL0     C88801   9.201   0.752   6.591 -0.2034  1.0216  0.2681
  644MOL0     C88802   9.104   0.651   6.645  0.6009  0.6554  0.9163
  644MOL0     H88803   8.898   1.235   6.484 -2.2851  0.0040 -0.2565
  644MOL0     H88804   8.699   1.358   6.567 -0.5298 -1.6288 -0.0053
  644MOL0     H88805   8.518   1.437   6.697 -0.3240  2.6666 -1.5120
  644MOL0     H88806   8.658   1.557   6.699 -0.4721  1.7763  0.2859
  644MOL0     H88807   8.614   1.646   6.912 -0.2893 -0.3291  0.4236
  644MOL0     H88808   8.483   1.690   6.801 -4.0177  0.9799  2.6623
  644MOL0     H88809   8.330   1.564   6.889  0.0738  3.4778  0.5650
  644MOL0     H88810   8.442   1.443   6.951  1.6355 -0.0668  1.7680
  644MOL0     H88811   8.511   1.641   7.114  0.4194 -0.9690 -0.5281
  644MOL0     H88812   8.383   1.730   7.046  1.8976  0.2080  0.4628
  644MOL0     H88813   8.385   1.458   7.179 -0.9480  0.0649  2.8063
  644MOL0     H88814   8.233   1.516   7.110  0.2015 -0.8462 -0.4209
  644MOL0     H88815   8.404   1.649   7.322  0.7789 -0.4825  0.4372
  644MOL0     H88816   8.249   1.715   7.266  0.2073  0.1560  3.1136
  644MOL0     H88817   8.236   1.613   7.489  0.0615 -1.8065  1.5664
  644MOL0     H88818   8.280   1.452   7.418 -1.6003 -1.7783 -1.1671
  644MOL0     H88819   8.055   1.629   7.325 -0.4444  0.8810  1.2142
  644MOL0     H88820   8.092   1.453   7.276  0.8178  0.2651 -0.5669
  644MOL0     H88821   8.106   1.280   7.465 -1.2763 -0.4234 -1.2499
  644MOL0     H88822   7.863   1.240   7.773 -0.9087  1.1118 -1.2962
  644MOL0     H88823   8.000   1.155   7.691 -1.0445 -1.7843 -3.3055
  644MOL0     H88824   7.882   1.100   7.493 -1.0652 -1.6028  1.0530
  644MOL0     H88825   7.781   1.046   7.630 -2.1229  1.7593  3.1735
  644MOL0     H88826   7.616   1.230   7.594 -3.5044 -2.0210 -2.5963
  644MOL0     H88827   7.749   1.305   7.488  3.5104 -2.3722 -2.1279
  644MOL0     H88828   7.595   1.224   7.334  1.3173  1.4639  0.4370
  644MOL0     H88829   7.711   1.099   7.354 -1.6811  1.1215 -2.7671
  644MOL0     H88830   7.340   0.871   7.498  2.1903 -0.3780  3.0172
  644MOL0     H88831   7.070   0.906   7.722  1.6378 -0.9772  1.7725
  644MOL0     H88832   7.179   0.802   7.636  0.1290 -0.8975 -0.3692
  644MOL0     H88833   7.031   0.877   7.552 -2.6194  2.8953  3.1425
  644MOL0     H88834   6.845   1.220   7.883 -0.6548  0.2178  0.6765
  644MOL0     H88835   6.688   1.343   7.997  2.3649 -0.0481  1.1342
  644MOL0     H88836   6.426   1.635   7.964  2.1487  2.5684 -1.3007
  644MOL0     H88837   6.495   1.490   8.025  2.1141 -1.6360 -2.0949
  644MOL0     H88838   6.634   1.611   8.191  1.8642  2.7000 -0.4792
  644MOL0     H88839   6.535   1.759   8.142  0.7115 -0.5883 -0.3759
  644MOL0     H88840   6.393   1.517   8.239 -0.6284  0.2493 -2.0131
  644MOL0     H88841   6.342   1.685   8.232  0.4616  0.2424  0.0092
  644MOL0     H88842   6.527   1.735   8.409 -1.8609  1.0589  0.7319
  644MOL0     H88843   6.547   1.556   8.422 -3.0928 -0.6341  4.6911
  644MOL0     H88844   6.273   1.651   8.459 -0.5094 -2.0961 -1.3300
  644MOL0     H88845   6.345   1.496   8.470  4.0932 -1.2478  3.6282
  644MOL0     H88846   6.393   1.746   8.629  0.8021 -0.3913 -2.1434
  644MOL0     H88847   6.482   1.597   8.680  0.2899  0.8793  1.5472
  644MOL0     H88848   6.230   1.491   8.701  1.4311  0.0000 -1.3392
  644MOL0     H88849   6.181   1.657   8.731 -1.0668 -0.9453  1.1869
  644MOL0     H88850   6.351   1.688   8.894 -2.7418  0.5560 -2.0735
  644MOL0     H88851   6.407   1.519   8.868  1.8992  1.2538 -2.1382
  644MOL0     H88852   6.783   1.682   7.730  3.3365 -0.9463 -3.0815
  644MOL0     H88853   6.965   1.558   7.643 -0.7502  1.8466  1.0908
  644MOL0     H88854   7.232   1.345   7.585  1.2471 -0.6806  1.5398
  644MOL0     H88855   7.433   1.291   7.489  0.4707  1.2544  0.1656
  644MOL0     H88856   8.817   1.269   6.967 -3.2672 -3.3014 -1.0743
  644MOL0     H88857   9.034   1.151   6.880 -0.4620 -1.2103 -2.1459
  644MOL0     H88858   9.318   1.073   6.574 -0.7462  0.1260 -0.6263
  644MOL0     H88859   9.524   0.968   6.514 -0.8875  0.4676 -2.0306
  644MOL0     H88860   9.605   0.815   6.321  3.6283  0.3863 -1.7162
  644MOL0     H88861   9.691   0.835   6.470  4.2956 -2.7983  1.5299
  644MOL0     H88862   9.700   0.574   6.323 -0.4610 -1.2689  1.9502
  644MOL0     H88863   9.802   0.636   6.459 -1.3342  0.2043  0.1989
  644MOL0     H88864   9.837   0.804   6.237 -3.6741 -0.7046  1.3291
  644MOL0     H88865   9.963   0.710   6.323  0.6078  0.6398  0.0470
  644MOL0     H88866   9.904   0.499   6.201 -1.5222  0.4058  0.0625
  644MOL0     H88867  10.000   0.641   6.124 -1.3795  1.7212 -1.8557
  644MOL0     H88868   9.613   0.625   5.939  0.5932 -2.8516 -2.6858
  644MOL0     H88869   9.329   0.580   6.539 -0.1214 -0.5167 -0.3048
  644MOL0     H88870   9.071   0.656   6.748 -1.9785  0.0531  0.1762
  644MOL0     H88871   9.021   0.652   6.574  1.3610 -0.2733 -0.0239
  644MOL0     H88872   9.142   0.548   6.641 -1.4320 -0.1270  0.4343
  645MOL0     O88873   5.223  10.283   9.455  0.1305 -0.3481  0.1056
  645MOL0     C88874   5.293  10.264   9.350  0.5008 -0.6393 -0.1878
  645MOL0     O88875   5.313  10.355   9.255  0.8754 -0.4499 -0.3532
  645MOL0     C88876   5.238  10.477   9.249 -0.5811  0.5068 -0.1543
  645MOL0     C88877   5.179  10.515   9.125  0.0129 -0.5404  0.5719
  645MOL0     C88878   5.117  10.647   9.115 -0.7881  0.0209  0.9470
  645MOL0     C88879   5.117  10.730   9.223 -0.4933 -1.3853 -0.1276
  645MOL0     O88880   5.073  10.852   9.210  0.8884  0.0159 -0.0969
  645MOL0     C88881   4.962  10.891   9.125 -0.4013 -0.1140  0.5849
  645MOL0     C88882   4.946  11.040   9.148 -0.3181 -0.1275 -0.8612
  645MOL0     C88883   4.820  11.095   9.090 -0.2774  0.6876 -0.1454
  645MOL0     C88884   4.841  11.248   9.089 -1.3387 -1.0626 -0.4155
  645MOL0     C88885   4.740  11.323   9.001  0.6363 -0.4182 -0.2877
  645MOL0     C88886   4.747  11.471   9.023  0.6462  0.5359 -0.5739
  645MOL0     C88887   4.664  11.546   8.928  0.0720  0.0504  0.5951
  645MOL0     C88888   4.509  11.505   8.914 -0.3547  1.0901 -0.0165
  645MOL0     N88889   4.431  11.563   9.022  0.6023  0.1721  0.3645
  645MOL0     C88890   4.390  11.692   9.035 -0.0125 -0.3113 -0.1357
  645MOL0     C88891   4.301  11.678   9.129  0.2586 -0.6293  0.1292
  645MOL0     C88892   4.213  11.782   9.198 -0.0116  0.9602 -0.5370
  645MOL0     C88893   4.233  11.916   9.135  0.5471 -0.2166 -0.2081
  645MOL0     C88894   4.145  12.021   9.181  0.5814 -0.2319 -0.0900
  645MOL0     C88895   4.191  12.075   9.321 -0.3504 -0.0222 -0.8359
  645MOL0     O88896   4.083  12.145   9.395  0.3717 -0.2308 -0.0905
  645MOL0     C88897   4.064  12.274   9.356 -0.0156  0.4979  0.3916
  645MOL0     C88898   4.007  12.302   9.233 -0.1591 -0.7449  0.4857
  645MOL0     C88899   4.012  12.434   9.179  0.0539 -0.2530  0.0664
  645MOL0     C88900   3.935  12.444   9.040  0.3283 -0.3259 -0.5252
  645MOL0     C88901   4.079  12.533   9.249 -0.7038 -0.6882  0.1128
  645MOL0     C88902   4.095  12.672   9.204  0.5827  0.4276 -0.1909
  645MOL0     O88903   4.135  12.762   9.300 -0.3947 -0.2274  0.4534
  645MOL0     C88904   4.104  12.893   9.260  0.8738 -0.2860 -1.0842
  645MOL0     C88905   4.191  12.998   9.303 -0.1098 -0.1891  1.6122
  645MOL0     C88906   4.156  13.135   9.291 -0.9370  0.1367  0.0369
  645MOL0     C88907   4.038  13.172   9.224 -0.4156  0.5935  1.3460
  645MOL0     O88908   4.023  13.313   9.219  0.1473 -0.1882 -0.0142
  645MOL0     C88909   3.907  13.370   9.156  0.1348  0.6657 -0.6458
  645MOL0     C88910   3.896  13.518   9.203 -0.3763 -0.1100  0.0901
  645MOL0     C88911   3.988  13.607   9.113  1.2264 -0.3912 -0.2304
  645MOL0     C88912   3.978  13.762   9.143 -0.2631  0.7380 -0.2042
  645MOL0     C88913   4.030  13.852   9.035 -0.4285  0.0179 -0.9222
  645MOL0     C88914   4.087  13.983   9.098 -0.7338  0.3157  0.5936
  645MOL0     C88915   4.149  14.076   8.991  0.3572  0.5405  0.6185
  645MOL0     C88916   4.268  14.013   8.927  1.4279 -0.5083 -0.0439
  645MOL0    Cl88917   4.401  13.985   9.055  0.3368  0.2258 -0.5451
  645MOL0     C88918   3.962  13.061   9.180 -1.2478 -0.4807  0.0947
  645MOL0     C88919   3.988  12.931   9.196 -0.5749  0.0750 -0.2410
  645MOL0     O88920   4.100  12.692   9.086  0.1754  0.3788 -0.0184
  645MOL0     C88921   4.136  12.503   9.372 -0.8928  0.5274  0.5345
  645MOL0     C88922   4.132  12.375   9.430  0.4569 -0.0807 -0.3861
  645MOL0     N88923   4.312  11.556   9.190 -0.2930 -0.1714 -0.9146
  645MOL0     N88924   4.400  11.485   9.126  0.8325  0.6317  0.2287
  645MOL0     C88925   5.179  10.692   9.337  0.4687 -0.3129  0.5989
  645MOL0     C88926   5.237  10.565   9.357  0.5084 -0.0217  0.5501
  645MOL0     C88927   5.362  10.134   9.333  0.3473  0.0183 -0.5113
  645MOL0     C88928   5.493  10.135   9.280 -0.5905 -0.1575 -0.2276
  645MOL0     C88929   5.576  10.017   9.286  0.6018 -0.3749  1.2035
  645MOL0     C88930   5.525   9.887   9.325 -0.3552 -0.6977 -0.3437
  645MOL0     O88931   5.613   9.779   9.317 -0.0375  0.0608  0.0800
  645MOL0     C88932   5.594   9.678   9.419  0.0884  0.0124 -0.2281
  645MOL0     C88933   5.718   9.592   9.425  0.0270 -0.2326 -0.5816
  645MOL0     C88934   5.682   9.463   9.499 -1.2842  1.2192  0.7982
  645MOL0     C88935   5.818   9.380   9.510  0.3356 -0.3227 -0.0994
  645MOL0     C88936   5.864   9.324   9.380 -0.3436  0.4012  0.1268
  645MOL0     C88937   5.901   9.291   9.272 -0.7344 -0.7435 -1.3242
  645MOL0     C88938   5.392   9.881   9.361 -0.0838  0.5120  0.8091
  645MOL0     C88939   5.311  10.000   9.369 -0.3710  0.8369  0.7972
  645MOL0     C88940   5.165   9.986   9.402  1.0019 -0.3707  0.4848
  645MOL0     H88941   5.189  10.453   9.037  3.2540  2.5364 -1.5027
  645MOL0     H88942   5.059  10.671   9.026 -0.2492  0.1501  0.6205
  645MOL0     H88943   4.872  10.835   9.153  0.3856 -0.1913  3.3093
  645MOL0     H88944   4.989  10.865   9.023  3.2415 -2.2954  1.8792
  645MOL0     H88945   4.936  11.051   9.256 -0.7555 -0.5959 -0.8501
  645MOL0     H88946   5.040  11.079   9.109  1.1946 -1.7761  0.9272
  645MOL0     H88947   4.814  11.058   8.987  1.8328  1.5326 -0.6246
  645MOL0     H88948   4.728  11.074   9.147 -0.4915  0.5620 -0.5336
  645MOL0     H88949   4.837  11.277   9.195  1.9833 -7.1805  1.9034
  645MOL0     H88950   4.942  11.267   9.054 -1.6206 -0.3140 -0.8270
  645MOL0     H88951   4.649  11.272   9.033  3.1772 -3.8344  2.3177
  645MOL0     H88952   4.756  11.301   8.895  0.0305 -0.1276 -0.4450
  645MOL0     H88953   4.726  11.498   9.127  0.5992 -1.6818  0.0450
  645MOL0     H88954   4.853  11.491   9.008  0.6724  1.0290  0.2252
  645MOL0     H88955   4.705  11.518   8.830 -0.4515  1.1945  0.0233
  645MOL0     H88956   4.677  11.653   8.949  1.3728 -0.6785  4.0781
  645MOL0     H88957   4.458  11.539   8.824  1.5595  0.3765 -1.4278
  645MOL0     H88958   4.507  11.396   8.916 -1.9893  1.0194 -2.2184
  645MOL0     H88959   4.414  11.773   8.968  0.6494 -0.1121  0.3369
  645MOL0     H88960   4.210  11.778   9.307 -1.2972 -1.7275 -0.5998
  645MOL0     H88961   4.116  11.742   9.165  1.3245 -1.8510 -1.2853
  645MOL0     H88962   4.338  11.946   9.125  0.4461 -0.2047 -1.3745
  645MOL0     H88963   4.200  11.897   9.033 -0.2151  2.0820 -0.4610
  645MOL0     H88964   4.148  12.100   9.105  1.6078  0.0109  0.1901
  645MOL0     H88965   4.042  11.982   9.183  0.3660  0.1463 -2.0034
  645MOL0     H88966   4.241  11.999   9.381  1.2731  2.5014  1.2350
  645MOL0     H88967   4.266  12.154   9.307  0.9773 -0.5635  2.2859
  645MOL0     H88968   3.961  12.230   9.167  1.9505 -1.4686 -0.2743
  645MOL0     H88969   3.855  12.369   9.037  1.1851 -1.2814 -0.1730
  645MOL0     H88970   4.011  12.424   8.964  1.4615  4.0153 -0.7789
  645MOL0     H88971   3.893  12.542   9.016  0.8314 -0.6666 -3.0654
  645MOL0     H88972   4.286  12.984   9.354  1.3536  2.4865 -0.1272
  645MOL0     H88973   4.220  13.218   9.319 -1.0620 -0.0542  0.9058
  645MOL0     H88974   3.925  13.369   9.048  0.5556 -1.3121 -0.6099
  645MOL0     H88975   3.821  13.308   9.181 -0.0301  0.3941 -1.8425
  645MOL0     H88976   3.792  13.553   9.204  0.5669  2.9936 -0.5759
  645MOL0     H88977   3.939  13.523   9.304  0.8698  0.2110 -0.4444
  645MOL0     H88978   3.963  13.592   9.008  2.2730  0.1532 -0.5772
  645MOL0     H88979   4.090  13.569   9.126  1.3294  0.2289  0.9045
  645MOL0     H88980   4.042  13.770   9.231 -1.8847 -0.7892  1.1714
  645MOL0     H88981   3.879  13.788   9.181 -0.8658  1.5803 -2.2123
  645MOL0     H88982   4.105  13.794   8.981 -1.1310 -3.2284  1.3251
  645MOL0     H88983   3.945  13.874   8.971 -2.9582  1.4931  2.6157
  645MOL0     H88984   4.165  13.966   9.172  1.6670 -0.1964 -1.9219
  645MOL0     H88985   4.008  14.039   9.149 -0.8625 -0.5423  1.3606
  645MOL0     H88986   4.178  14.163   9.050  3.0783 -2.8925  5.0365
  645MOL0     H88987   4.073  14.080   8.912  1.7609 -3.2269 -1.1911
  645MOL0     H88988   4.299  14.085   8.851  2.1729 -3.2581 -2.5027
  645MOL0     H88989   4.244  13.918   8.880 -0.1950 -0.9211  1.5111
  645MOL0     H88990   3.870  13.079   9.125  0.6198  2.7114 -2.2915
  645MOL0     H88991   3.903  12.870   9.169 -1.6242  0.5603  1.8309
  645MOL0     H88992   4.213  12.562   9.420  1.0593 -2.1605  0.9395
  645MOL0     H88993   4.176  12.341   9.523 -2.9180 -2.1976  0.6140
  645MOL0     H88994   5.184  10.778   9.404  1.5208  0.5493 -0.5407
  645MOL0     H88995   5.280  10.551   9.455  1.2065 -2.0163  0.0170
  645MOL0     H88996   5.544  10.227   9.255 -3.7620  1.8775  0.3169
  645MOL0     H88997   5.678  10.023   9.250 -0.1583  1.6214 -0.9402
  645MOL0     H88998   5.577   9.728   9.515 -3.7510 -2.6875  0.7074
  645MOL0     H88999   5.507   9.623   9.385  0.9064 -0.6236 -1.3513
  645MOL0     H89000   5.795   9.650   9.477  1.2513 -0.9931 -1.4631
  645MOL0     H89001   5.758   9.579   9.324  2.2936  0.6521  0.1303
  645MOL0     H89002   5.649   9.474   9.603 -2.4911 -0.4323  0.6358
  645MOL0     H89003   5.600   9.403   9.458  0.9653 -2.2409  0.8900
  645MOL0     H89004   5.794   9.302   9.582 -1.0880 -0.5332 -0.7809
  645MOL0     H89005   5.895   9.447   9.551 -0.5856  0.4672  0.3924
  645MOL0     H89006   5.940   9.263   9.176  1.8480 -3.5059  0.3587
  645MOL0     H89007   5.351   9.783   9.384 -0.4554 -0.0515 -1.9356
  645MOL0     H89008   5.152  10.017   9.506 -1.8248  1.3792 -0.2701
  645MOL0     H89009   5.104  10.045   9.333  0.1773 -1.2231  0.4665
  645MOL0     H89010   5.128   9.882   9.402  0.8586 -0.3836  2.9158
  646MOL0     O89011   8.509   1.602   9.229  0.0996 -0.0158 -0.7358
  646MOL0     C89012   8.483   1.568   9.120 -0.1601  0.5906 -0.1969
  646MOL0     O89013   8.562   1.495   9.032 -0.0437  0.3106  0.3215
  646MOL0     C89014   8.692   1.472   9.060 -0.3580  0.8203  0.1908
  646MOL0     C89015   8.734   1.334   9.060 -0.5184  0.1799 -0.4179
  646MOL0     C89016   8.871   1.316   9.090 -0.3629  0.1211 -0.9142
  646MOL0     C89017   8.956   1.423   9.118 -0.3432 -0.0899  0.9102
  646MOL0     O89018   9.084   1.392   9.154  0.4357  0.1774  0.5029
  646MOL0     C89019   9.123   1.418   9.293 -0.9458  0.1507  0.4999
  646MOL0     C89020   9.264   1.350   9.326  0.6521 -0.0167  0.7728
  646MOL0     C89021   9.277   1.201   9.306 -0.8593 -0.0281 -0.0177
  646MOL0     C89022   9.427   1.164   9.291 -0.2495 -0.6071 -0.3924
  646MOL0     C89023   9.454   1.026   9.235 -0.4971  0.5005 -0.4289
  646MOL0     C89024   9.406   1.008   9.085 -0.2595 -0.2252  0.7834
  646MOL0     C89025   9.428   0.861   9.042  0.6211 -0.1719 -0.3423
  646MOL0     C89026   9.579   0.834   9.007  0.2258 -0.3202 -0.2702
  646MOL0     N89027   9.636   0.876   8.874 -0.0429 -0.6588  1.4206
  646MOL0     C89028   9.675   1.006   8.836 -0.3234 -0.4193 -0.3921
  646MOL0     C89029   9.678   1.009   8.706  0.3666 -0.3833 -0.9973
  646MOL0     C89030   9.720   1.119   8.617  0.4581  0.1321 -0.3067
  646MOL0     C89031   9.879   1.139   8.614  0.3233  0.6869  0.4739
  646MOL0     C89032   9.958   1.041   8.523  0.4186 -0.5787 -0.3359
  646MOL0     C89033   9.964   0.896   8.567  0.0097  0.1751 -0.4814
  646MOL0     O89034  10.043   0.896   8.686 -0.0660 -0.4642 -0.2801
  646MOL0     C89035  10.067   0.769   8.741  0.0644  0.6129 -0.1770
  646MOL0     C89036  10.182   0.741   8.823 -0.4541  0.2892 -0.1330
  646MOL0     C89037  10.222   0.606   8.859 -0.8814 -0.4711  0.1344
  646MOL0     C89038  10.331   0.586   8.962 -0.4524  0.5225  1.0361
  646MOL0     C89039  10.144   0.507   8.805 -0.6564 -0.3554  1.6716
  646MOL0     C89040  10.196   0.366   8.799  0.7153 -0.7622 -0.3093
  646MOL0     O89041  10.104   0.266   8.831  0.8601  0.7060  0.2408
  646MOL0     C89042  10.155   0.139   8.862  0.3684  0.4282 -0.0255
  646MOL0     C89043  10.243   0.127   8.972 -0.6737 -0.1238  0.9498
  646MOL0     C89044  10.313   0.001   8.992 -0.4826 -0.0376 -0.6447
  646MOL0     C89045  10.273  -0.107   8.906  0.7434 -0.0105  1.6745
  646MOL0     O89046  10.322  -0.236   8.908  0.1361 -0.0122  0.1428
  646MOL0     C89047  10.350  -0.276   9.043  0.4154  0.3512  0.4144
  646MOL0     C89048  10.364  -0.429   9.053 -0.2528  0.8742  0.4101
  646MOL0     C89049  10.242  -0.499   8.999  0.0383  0.0196 -1.2315
  646MOL0     C89050  10.232  -0.644   9.033 -0.2311  1.0648  0.6618
  646MOL0     C89051  10.278  -0.726   8.903 -0.3588 -0.8022 -0.2412
  646MOL0     C89052  10.230  -0.865   8.899 -0.2502  0.4497  0.9990
  646MOL0     C89053  10.267  -0.930   8.764  0.0213 -0.3925 -0.2463
  646MOL0     C89054  10.280  -1.084   8.761  0.1071 -0.1120 -0.0347
  646MOL0    Cl89055  10.160  -1.166   8.855  0.1407  0.4171 -0.2063
  646MOL0     C89056  10.187  -0.084   8.797 -0.2536  0.6318 -0.3837
  646MOL0     C89057  10.133   0.040   8.772 -0.2183  0.2732  0.0175
  646MOL0     O89058  10.295   0.347   8.736 -0.3950  0.0611  0.4095
  646MOL0     C89059  10.025   0.528   8.727 -0.3142  0.6328 -0.6917
  646MOL0     C89060   9.987   0.653   8.710 -0.7647 -0.7156 -0.6756
  646MOL0     N89061   9.635   0.889   8.658  0.5153  0.4782  0.1008
  646MOL0     N89062   9.609   0.804   8.760  0.5929  0.2466 -0.3269
  646MOL0     C89063   8.905   1.553   9.126 -0.9780  0.8042  0.2834
  646MOL0     C89064   8.772   1.572   9.100  0.0378  0.5238 -0.0978
  646MOL0     C89065   8.355   1.613   9.060  0.6283 -0.0238 -0.0641
  646MOL0     C89066   8.337   1.589   8.923 -0.1871 -0.7679 -0.0215
  646MOL0     C89067   8.221   1.640   8.857 -0.1423  0.2711  0.1858
  646MOL0     C89068   8.120   1.716   8.920 -0.4532 -0.4384 -0.1500
  646MOL0     O89069   8.022   1.785   8.857  0.9572  0.4986 -0.0432
  646MOL0     C89070   8.035   1.806   8.722 -0.3283 -0.5984  0.3603
  646MOL0     C89071   7.919   1.895   8.672  0.0852 -0.5594  0.1029
  646MOL0     C89072   7.800   1.820   8.628  1.0204 -0.0100 -0.2001
  646MOL0     C89073   7.818   1.765   8.478  0.5938 -0.0226 -0.5467
  646MOL0     C89074   7.802   1.884   8.391  0.6417 -0.3242 -0.0070
  646MOL0     C89075   7.787   1.985   8.329 -0.9365 -0.6911 -0.0722
  646MOL0     C89076   8.141   1.734   9.059  0.0479  0.7478 -0.5617
  646MOL0     C89077   8.252   1.680   9.133  0.4396  0.0505  0.3714
  646MOL0     C89078   8.256   1.677   9.286  0.6767 -0.6159 -0.7092
  646MOL0     H89079   8.670   1.252   9.028 -0.3934  0.1335 -0.5472
  646MOL0     H89080   8.904   1.213   9.102  0.1170  0.4552  0.8696
  646MOL0     H89081   9.036   1.376   9.345 -1.5200 -1.3021 -1.5338
  646MOL0     H89082   9.138   1.524   9.317  2.9079  0.3592 -2.0363
  646MOL0     H89083   9.336   1.405   9.265  1.7447 -1.3507  0.8104
  646MOL0     H89084   9.278   1.370   9.433  0.7031  0.9221  0.6040
  646MOL0     H89085   9.241   1.142   9.391  1.4111 -0.2690  0.8619
  646MOL0     H89086   9.222   1.173   9.216 -2.9464  2.5966  0.3383
  646MOL0     H89087   9.479   1.241   9.234 -0.1054  0.2747  0.8815
  646MOL0     H89088   9.476   1.155   9.389 -1.6260 -1.8204  0.2237
  646MOL0     H89089   9.421   0.946   9.302 -0.5641  1.9827  1.4056
  646MOL0     H89090   9.562   1.017   9.251 -0.3197  1.5800 -0.8961
  646MOL0     H89091   9.298   1.022   9.077 -0.2836 -0.4090  0.7869
  646MOL0     H89092   9.459   1.076   9.019  2.7683 -4.1177 -1.2075
  646MOL0     H89093   9.370   0.836   8.953 -1.0424  0.2485  0.5770
  646MOL0     H89094   9.389   0.795   9.120 -0.9791  0.1492 -0.8454
  646MOL0     H89095   9.646   0.868   9.087  0.0236 -2.3017  0.8113
  646MOL0     H89096   9.583   0.725   9.019  1.5717  0.0302  4.0166
  646MOL0     H89097   9.723   1.060   8.917 -2.6591 -1.0780  1.5304
  646MOL0     H89098   9.673   1.215   8.641  1.6446  0.4701  0.7968
  646MOL0     H89099   9.682   1.090   8.519 -1.7991  0.4554  0.4132
  646MOL0     H89100   9.893   1.239   8.572  2.5944  0.4838  0.6416
  646MOL0     H89101   9.916   1.145   8.717 -1.2864 -2.1309  1.3287
  646MOL0     H89102   9.909   1.043   8.425 -0.8132 -0.5027  0.2610
  646MOL0     H89103  10.062   1.074   8.523  0.8038 -1.6497  1.3867
  646MOL0     H89104   9.864   0.861   8.595  0.4908 -0.5487  0.3927
  646MOL0     H89105  10.003   0.815   8.504 -0.4866 -3.0759  2.9750
  646MOL0     H89106  10.240   0.823   8.865 -1.7274  1.1979 -0.0733
  646MOL0     H89107  10.284   0.535   9.047  1.8648 -0.6015  1.7202
  646MOL0     H89108  10.383   0.674   9.003  2.2391 -1.6449  2.6264
  646MOL0     H89109  10.402   0.512   8.926 -2.5205 -0.4234 -1.3795
  646MOL0     H89110  10.268   0.212   9.035  1.5660  1.1575 -1.4521
  646MOL0     H89111  10.366  -0.014   9.085 -3.6848 -0.4293  1.2764
  646MOL0     H89112  10.450  -0.240   9.070  0.6825  1.0549 -1.3272
  646MOL0     H89113  10.266  -0.253   9.108 -4.7319 -1.2019 -4.7714
  646MOL0     H89114  10.445  -0.466   8.989  0.8098  3.5214  0.0720
  646MOL0     H89115  10.390  -0.463   9.154 -1.4022 -1.1424  0.0625
  646MOL0     H89116  10.234  -0.482   8.891 -5.1999  2.6286 -0.7314
  646MOL0     H89117  10.155  -0.455   9.048 -0.7825 -1.3311 -1.4342
  646MOL0     H89118  10.130  -0.679   9.052  0.2682  0.0550  1.5265
  646MOL0     H89119  10.291  -0.662   9.124 -3.0137  0.5043  2.4863
  646MOL0     H89120  10.231  -0.674   8.819 -1.0880 -0.2235  0.4978
  646MOL0     H89121  10.387  -0.722   8.894 -0.2535 -1.4417  0.6181
  646MOL0     H89122  10.121  -0.866   8.901 -0.3250  0.0827 -1.2082
  646MOL0     H89123  10.269  -0.916   8.988  0.4345  2.1859  1.7539
  646MOL0     H89124  10.362  -0.882   8.740 -1.5943  3.5728  0.5076
  646MOL0     H89125  10.198  -0.903   8.683 -0.3114 -0.3836  0.0348
  646MOL0     H89126  10.376  -1.129   8.789  0.1869 -1.8633 -2.7930
  646MOL0     H89127  10.265  -1.119   8.659 -1.5618 -2.0842  0.8333
  646MOL0     H89128  10.157  -0.170   8.737  0.4187 -0.3744  0.6697
  646MOL0     H89129  10.067   0.046   8.686  3.1709  1.2071 -2.7019
  646MOL0     H89130   9.960   0.448   8.694  0.0862 -1.5644  3.1964
  646MOL0     H89131   9.891   0.661   8.660 -1.4841  1.1921  0.8845
  646MOL0     H89132   8.988   1.623   9.140  1.0289 -0.8027 -2.5206
  646MOL0     H89133   8.742   1.675   9.112  0.7212  0.5828  1.2988
  646MOL0     H89134   8.423   1.562   8.862 -0.6153  0.3791 -1.1710
  646MOL0     H89135   8.213   1.606   8.754 -1.5722 -0.6979  0.5908
  646MOL0     H89136   8.129   1.857   8.703  0.4091 -2.3378 -0.9077
  646MOL0     H89137   8.048   1.718   8.659 -0.9357 -0.2113 -0.3160
  646MOL0     H89138   7.947   1.963   8.591 -3.7627  0.4940 -0.5856
  646MOL0     H89139   7.892   1.959   8.756  1.4664 -0.9571  0.8760
  646MOL0     H89140   7.786   1.741   8.703 -1.2599  2.0685  1.7596
  646MOL0     H89141   7.710   1.882   8.634  1.6029  0.7572  1.4744
  646MOL0     H89142   7.732   1.703   8.452 -0.7576  2.0108 -1.2515
  646MOL0     H89143   7.919   1.730   8.456  1.5454  1.7492  0.7384
  646MOL0     H89144   7.769   2.070   8.267 -1.6638  0.4700  1.6378
  646MOL0     H89145   8.078   1.794   9.124  0.0585 -0.1191  0.2561
  646MOL0     H89146   8.332   1.751   9.312 -0.7444  0.3999  0.7849
  646MOL0     H89147   8.165   1.710   9.337  1.7550  0.9904  0.2707
  646MOL0     H89148   8.283   1.579   9.325 -0.9708 -0.5331  0.7983
  647MOL0     O89149   7.141  10.436  11.004 -0.7119  0.0094 -0.4669
  647MOL0     C89150   7.168  10.394  11.116  0.7179  0.4187 -0.0996
  647MOL0     O89151   7.286  10.335  11.157 -0.4783  0.4668  0.1864
  647MOL0     C89152   7.389  10.313  11.071  0.6090  0.7620 -0.7655
  647MOL0     C89153   7.505  10.270  11.136  0.0314  0.3513 -0.2085
  647MOL0     C89154   7.617  10.236  11.072  0.1292 -0.4527  0.2882
  647MOL0     C89155   7.617  10.233  10.929  0.2243  0.1892  0.2706
  647MOL0     O89156   7.720  10.186  10.851  0.2544  0.5478 -0.0627
  647MOL0     C89157   7.857  10.209  10.901 -1.2611 -0.5403 -0.4893
  647MOL0     C89158   7.963  10.170  10.796  0.2178  0.3141 -0.5967
  647MOL0     C89159   8.107  10.188  10.846 -0.4645 -0.6555  1.0038
  647MOL0     C89160   8.190  10.147  10.722  0.4196 -0.5323 -0.1061
  647MOL0     C89161   8.340  10.151  10.757  0.8692 -0.7924  0.7510
  647MOL0     C89162   8.441  10.085  10.662 -0.2131 -0.4446  0.3870
  647MOL0     C89163   8.573  10.073  10.732  0.4751 -0.6228  0.0730
  647MOL0     C89164   8.622  10.197  10.802 -0.8468 -0.8737  0.6880
  647MOL0     N89165   8.748  10.174  10.861  0.0177  0.7183 -0.0114
  647MOL0     C89166   8.770  10.163  10.996  0.7516  0.5113  0.0819
  647MOL0     C89167   8.899  10.156  11.015  0.3705 -0.1414 -0.1698
  647MOL0     C89168   8.974  10.129  11.147  0.9159 -0.0376  0.3106
  647MOL0     C89169   8.983  10.254  11.243  0.8709  0.3904  0.6205
  647MOL0     C89170   9.063  10.358  11.160  0.3136 -0.1747 -0.6742
  647MOL0     C89171   9.008  10.493  11.210  0.5637 -1.1241  0.9771
  647MOL0     O89172   9.031  10.491  11.350  0.5551 -0.1828 -1.0536
  647MOL0     C89173   8.963  10.576  11.435 -0.1128  0.4715  0.8407
  647MOL0     C89174   8.994  10.583  11.573  0.5165 -0.6551 -0.1859
  647MOL0     C89175   8.937  10.668  11.672 -0.3680  0.1511  0.4812
  647MOL0     C89176   8.989  10.644  11.814  0.3241 -0.4004 -1.1182
  647MOL0     C89177   8.833  10.757  11.626  0.3775  0.7046 -0.1784
  647MOL0     C89178   8.779  10.865  11.716 -0.7210  0.5708  0.1166
  647MOL0     O89179   8.648  10.882  11.715 -0.9451  0.0905  0.4859
  647MOL0     C89180   8.598  11.002  11.772 -0.0814  0.5492  0.6533
  647MOL0     C89181   8.631  11.130  11.717  0.6437  0.3361 -0.1972
  647MOL0     C89182   8.581  11.247  11.780 -0.6890  0.5188  0.2460
  647MOL0     C89183   8.476  11.243  11.861 -0.1045  0.9933  0.5699
  647MOL0     O89184   8.431  11.358  11.912 -0.6177  0.4266 -0.3692
  647MOL0     C89185   8.333  11.356  12.013  0.1010  0.2544 -0.8157
  647MOL0     C89186   8.342  11.500  12.081  0.5864  0.2509 -0.0135
  647MOL0     C89187   8.292  11.603  11.982  0.6274 -0.9944  0.0249
  647MOL0     C89188   8.335  11.742  12.039  1.0343 -0.6430 -0.0088
  647MOL0     C89189   8.271  11.858  11.958 -1.0293 -1.2166 -0.1916
  647MOL0     C89190   8.258  12.005  12.013 -0.0846  0.6513 -0.1338
  647MOL0     C89191   8.239  12.091  11.889 -0.5090 -0.5629 -0.7148
  647MOL0     C89192   8.099  12.065  11.828 -0.4344 -0.4950  0.2104
  647MOL0    Cl89193   8.036  12.214  11.740  0.3551 -0.3362 -0.0172
  647MOL0     C89194   8.438  11.114  11.906 -0.5515 -0.2953 -0.0888
  647MOL0     C89195   8.493  10.996  11.864  0.8896  0.0157 -0.7914
  647MOL0     O89196   8.860  10.939  11.770 -0.7145 -0.3709  0.0294
  647MOL0     C89197   8.794  10.746  11.494  0.1762 -0.0617  0.6187
  647MOL0     C89198   8.852  10.659  11.400 -0.0264  0.3160 -0.5244
  647MOL0     N89199   8.965  10.153  10.887  0.5557 -0.5991 -0.8704
  647MOL0     N89200   8.869  10.171  10.800 -0.7363 -0.1401  0.4688
  647MOL0     C89201   7.495  10.252  10.858  0.2894  0.3312 -1.3480
  647MOL0     C89202   7.385  10.299  10.936  0.4089  1.1303  0.6244
  647MOL0     C89203   7.072  10.375  11.217 -0.1640 -0.7228 -0.1815
  647MOL0     C89204   7.115  10.435  11.334 -0.5161  0.6874 -0.4627
  647MOL0     C89205   7.045  10.415  11.447 -0.0323 -1.3361  0.4729
  647MOL0     C89206   6.924  10.338  11.451 -0.5706  0.4140  0.1135
  647MOL0     O89207   6.831  10.329  11.552 -0.8475 -0.1653  0.9360
  647MOL0     C89208   6.867  10.362  11.680 -0.1183 -0.0833  1.1116
  647MOL0     C89209   6.818  10.253  11.771  1.4467  0.9518 -0.6109
  647MOL0     C89210   6.820  10.303  11.920  0.5969 -0.2688  0.2410
  647MOL0     C89211   6.762  10.440  11.948  0.2207 -0.9305 -0.3715
  647MOL0     C89212   6.622  10.460  11.901  0.3557  0.7085  0.2919
  647MOL0     C89213   6.504  10.457  11.856  0.0908 -1.0214 -0.2647
  647MOL0     C89214   6.878  10.287  11.327  0.5497  0.3684  0.2142
  647MOL0     C89215   6.957  10.302  11.210 -0.3071  1.0075  0.4826
  647MOL0     C89216   6.894  10.255  11.071 -0.7923 -0.5231 -0.3054
  647MOL0     H89217   7.514  10.258  11.243  7.6299 -3.2514 -0.5241
  647MOL0     H89218   7.698  10.192  11.130 -2.1849 -1.8006  2.7261
  647MOL0     H89219   7.883  10.154  10.991  0.7711  0.4401 -0.4274
  647MOL0     H89220   7.868  10.311  10.939 -5.2443  2.3211 -5.5614
  647MOL0     H89221   7.943  10.066  10.766 -1.8655  1.1710 -2.4681
  647MOL0     H89222   7.944  10.231  10.707 -0.0508 -1.4926 -1.8291
  647MOL0     H89223   8.138  10.289  10.876  1.3388  0.5697 -3.9612
  647MOL0     H89224   8.138  10.121  10.927 -1.6802 -3.1807 -0.5011
  647MOL0     H89225   8.166  10.046  10.689  0.3682  0.1410 -2.3005
  647MOL0     H89226   8.169  10.209  10.634 -1.9500 -0.8827  0.1309
  647MOL0     H89227   8.343  10.094  10.850  3.4710 -0.8586  0.6879
  647MOL0     H89228   8.366  10.256  10.769  1.2979 -0.9424  1.1443
  647MOL0     H89229   8.407   9.989  10.624  0.8729  0.5859 -3.6841
  647MOL0     H89230   8.444  10.139  10.567 -1.9280 -0.7392  0.1462
  647MOL0     H89231   8.659  10.046  10.672  1.5677  0.4294  1.0990
  647MOL0     H89232   8.571   9.993  10.807  0.3857 -1.2706 -0.6121
  647MOL0     H89233   8.650  10.285  10.743  0.5532 -0.7472  1.4986
  647MOL0     H89234   8.549  10.218  10.881 -1.4562 -3.6840  0.9626
  647MOL0     H89235   8.692  10.152  11.071  0.2458 -0.0951 -0.5140
  647MOL0     H89236   9.071  10.077  11.147  1.2239  0.4434  2.1097
  647MOL0     H89237   8.923  10.067  11.221 -0.2492  2.2219  1.4918
  647MOL0     H89238   8.881  10.283  11.270  0.6346  0.9797 -0.7950
  647MOL0     H89239   9.035  10.244  11.339  0.1915 -1.1226  0.8632
  647MOL0     H89240   9.170  10.341  11.170 -0.0992 -2.8504  0.1265
  647MOL0     H89241   9.048  10.352  11.052  1.6427 -3.5220 -0.8030
  647MOL0     H89242   9.053  10.581  11.164 -3.2382  0.5405  0.0428
  647MOL0     H89243   8.899  10.494  11.198  0.7023 -0.9501 -0.4399
  647MOL0     H89244   9.072  10.517  11.609  0.6820  1.7278  4.4395
  647MOL0     H89245   9.081  10.701  11.828 -0.3788  0.1985  1.7135
  647MOL0     H89246   9.006  10.536  11.823 -3.3794 -0.9101  3.7896
  647MOL0     H89247   8.921  10.675  11.894  3.3954 -1.4602  2.1936
  647MOL0     H89248   8.712  11.147  11.647 -0.8329  1.0230 -1.8332
  647MOL0     H89249   8.607  11.342  11.734 -1.3258 -1.1080 -3.9164
  647MOL0     H89250   8.235  11.335  11.968 -0.9217  1.3833  0.7801
  647MOL0     H89251   8.344  11.278  12.090 -1.7170  2.8655  2.3911
  647MOL0     H89252   8.287  11.499  12.176 -0.5313 -1.1286 -0.6434
  647MOL0     H89253   8.446  11.524  12.106  0.5777  0.0277  0.2403
  647MOL0     H89254   8.185  11.601  11.958  0.1363  2.6743  1.1671
  647MOL0     H89255   8.335  11.596  11.882  0.8342 -1.3871  0.1420
  647MOL0     H89256   8.444  11.742  12.049  1.2988 -2.7881 -1.9877
  647MOL0     H89257   8.296  11.735  12.141 -0.0598 -0.0445 -0.3717
  647MOL0     H89258   8.339  11.876  11.874 -2.1170 -2.5396 -1.3975
  647MOL0     H89259   8.175  11.829  11.914 -0.7101 -1.1726 -0.9401
  647MOL0     H89260   8.352  12.031  12.063  1.4828  0.0419 -2.6037
  647MOL0     H89261   8.174  11.987  12.081 -0.7396  1.6895 -0.6538
  647MOL0     H89262   8.323  12.092  11.819  0.1166 -0.7014  0.0279
  647MOL0     H89263   8.242  12.192  11.929 -0.9114 -0.9636  0.3574
  647MOL0     H89264   8.029  12.059  11.911 -1.7646  2.8066 -0.5083
  647MOL0     H89265   8.100  11.978  11.762 -2.6271 -1.4857  1.4011
  647MOL0     H89266   8.355  11.103  11.974  0.5718  1.4781  1.6958
  647MOL0     H89267   8.469  10.900  11.907  3.0475  0.9690  2.9945
  647MOL0     H89268   8.718  10.814  11.456  0.2926 -0.7882 -1.0098
  647MOL0     H89269   8.816  10.651  11.297  1.1067  1.0565 -0.9927
  647MOL0     H89270   7.501  10.218  10.755 -1.0470  0.5477 -1.5255
  647MOL0     H89271   7.297  10.316  10.874  2.8961  1.6776 -3.0895
  647MOL0     H89272   7.209  10.490  11.337 -0.5283  0.7468 -1.2053
  647MOL0     H89273   7.065  10.455  11.545 -0.5024 -2.1603  0.9139
  647MOL0     H89274   6.975  10.365  11.696  0.1928 -4.7493  1.3382
  647MOL0     H89275   6.836  10.462  11.711  0.1391  0.3894 -0.0824
  647MOL0     H89276   6.875  10.162  11.750 -0.8732 -1.0504  1.1642
  647MOL0     H89277   6.717  10.223  11.743  1.9112 -0.5487 -0.7704
  647MOL0     H89278   6.764  10.231  11.981  1.2654  0.3140  1.5686
  647MOL0     H89279   6.923  10.297  11.954  1.3483  2.0833 -1.3263
  647MOL0     H89280   6.830  10.521  11.919 -0.6385  1.4226  3.4023
  647MOL0     H89281   6.743  10.466  12.052 -0.5895  0.1778 -0.7660
  647MOL0     H89282   6.407  10.438  11.817  0.2754 -3.4020  0.2993
  647MOL0     H89283   6.783  10.237  11.343  1.0728  0.5971  6.5289
  647MOL0     H89284   6.874  10.344  11.010  1.2032 -0.4283 -0.9202
  647MOL0     H89285   6.972  10.203  11.015 -0.5648  2.7259 -3.3305
  647MOL0     H89286   6.802  10.200  11.093 -1.9400  0.2600 -2.8023
  648MOL0     O89287   0.589   8.320   8.400 -0.1157  0.0473 -0.5312
  648MOL0     C89288   0.559   8.256   8.505 -0.1892 -0.0420  0.3308
  648MOL0     O89289   0.487   8.303   8.611  0.5108 -0.2668  0.1149
  648MOL0     C89290   0.533   8.408   8.682  0.0633 -0.7044 -0.7153
  648MOL0     C89291   0.667   8.463   8.679 -0.2345  0.1108 -1.4941
  648MOL0     C89292   0.687   8.579   8.768  0.1492  0.1764 -0.8162
  648MOL0     C89293   0.594   8.635   8.852 -0.0464  0.9209 -0.1774
  648MOL0     O89294   0.606   8.745   8.932 -0.0337  0.3303  0.3769
  648MOL0     C89295   0.716   8.748   9.024 -0.3423  0.1635  0.3224
  648MOL0     C89296   0.715   8.884   9.096 -0.2616 -0.2828  0.2720
  648MOL0     C89297   0.798   8.993   9.025 -0.0668  0.4930  0.0158
  648MOL0     C89298   0.809   9.126   9.111 -0.0915  0.7884  0.1253
  648MOL0     C89299   0.864   9.230   9.026  0.3515  0.4974 -0.0067
  648MOL0     C89300   1.012   9.206   9.003 -0.1624 -0.1056 -0.1186
  648MOL0     C89301   1.058   9.319   8.910 -0.7784 -0.0596  1.4288
  648MOL0     C89302   1.205   9.325   8.916  0.4238 -0.4716  0.3739
  648MOL0     N89303   1.265   9.354   9.046  0.0305 -0.3213  0.2467
  648MOL0     C89304   1.237   9.458   9.133  0.0531 -0.6040 -0.6023
  648MOL0     C89305   1.328   9.446   9.232  0.2746  0.1812  0.7842
  648MOL0     C89306   1.341   9.529   9.357 -1.6168 -0.9307 -0.7337
  648MOL0     C89307   1.470   9.616   9.364 -0.1062 -0.6542 -0.1107
  648MOL0     C89308   1.435   9.744   9.288 -0.2424 -0.9020  0.1003
  648MOL0     C89309   1.359   9.856   9.360  0.6098  0.3171  0.1296
  648MOL0     O89310   1.356   9.992   9.311  0.2036  0.8943 -0.7411
  648MOL0     C89311   1.338  10.014   9.180 -0.4860 -0.1741  0.1048
  648MOL0     C89312   1.210  10.055   9.137  0.3316 -0.2681 -0.7316
  648MOL0     C89313   1.183  10.086   9.005  0.3824  0.1432  1.1984
  648MOL0     C89314   1.057  10.161   8.983  0.2549  0.0215  0.7131
  648MOL0     C89315   1.274  10.060   8.906 -0.7098  0.0944  1.0769
  648MOL0     C89316   1.255  10.082   8.766 -0.2654  0.2499  0.4882
  648MOL0     O89317   1.328   9.987   8.682  0.2706 -0.0262 -0.3860
  648MOL0     C89318   1.331  10.019   8.555  0.5908 -0.2570  0.3188
  648MOL0     C89319   1.412  10.128   8.505 -0.2952  0.6077  0.7529
  648MOL0     C89320   1.423  10.147   8.371  0.4102  0.3804 -0.3224
  648MOL0     C89321   1.344  10.071   8.279  0.0424 -0.0198 -0.5807
  648MOL0     O89322   1.353  10.090   8.143  0.4549 -0.1152  0.2617
  648MOL0     C89323   1.455  10.171   8.081  0.2133  0.1127  0.4402
  648MOL0     C89324   1.477  10.128   7.933 -0.5364  0.3420  0.0307
  648MOL0     C89325   1.627  10.100   7.890  0.5763  1.2736  0.0320
  648MOL0     C89326   1.639  10.019   7.758  0.6688  0.4889  0.2417
  648MOL0     C89327   1.784   9.971   7.722  0.4588  0.3772  0.9177
  648MOL0     C89328   1.853  10.082   7.652  0.1192  1.1075  0.9908
  648MOL0     C89329   1.821  10.107   7.508  0.9226  0.3642  0.6237
  648MOL0     C89330   1.911  10.213   7.442  0.5532 -0.1945 -0.1902
  648MOL0    Cl89331   1.813  10.293   7.304  0.1259  0.6681  0.1154
  648MOL0     C89332   1.267   9.965   8.331 -0.2691 -0.1947  0.3174
  648MOL0     C89333   1.250   9.940   8.470  0.4490 -0.5943  0.9304
  648MOL0     O89334   1.221  10.193   8.731  0.2153 -0.0389 -0.6564
  648MOL0     C89335   1.401  10.024   8.948 -0.2643  0.6548  0.0796
  648MOL0     C89336   1.440   9.997   9.082 -0.2477 -0.4685 -0.6047
  648MOL0     N89337   1.396   9.327   9.205  0.1661 -0.2909 -0.2096
  648MOL0     N89338   1.359   9.277   9.090  0.6472 -0.6953 -0.3149
  648MOL0     C89339   0.472   8.566   8.858  0.5150  0.0440 -0.3335
  648MOL0     C89340   0.440   8.458   8.777 -0.5050 -0.3006 -0.7231
  648MOL0     C89341   0.607   8.117   8.526  0.7162 -0.3413  0.0265
  648MOL0     C89342   0.543   8.042   8.630 -0.5644 -0.0889 -0.5111
  648MOL0     C89343   0.579   7.905   8.646  0.2091 -0.2141  0.7626
  648MOL0     C89344   0.674   7.843   8.559  0.1774 -0.3137 -0.7572
  648MOL0     O89345   0.706   7.704   8.555 -1.2347  0.2061 -0.2374
  648MOL0     C89346   0.599   7.611   8.561 -0.5962 -0.3309 -0.5690
  648MOL0     C89347   0.589   7.504   8.684 -0.2239 -0.4924 -0.3191
  648MOL0     C89348   0.724   7.441   8.727  0.5860  0.4875 -0.2448
  648MOL0     C89349   0.773   7.339   8.616 -0.6956 -0.5717  0.4718
  648MOL0     C89350   0.909   7.281   8.642  0.1381  0.9162  0.6912
  648MOL0     C89351   1.020   7.233   8.668  0.1854  0.1830 -0.2889
  648MOL0     C89352   0.735   7.921   8.467 -0.6735 -0.1791  0.5195
  648MOL0     C89353   0.709   8.057   8.448 -0.8799  0.7837  0.4186
  648MOL0     C89354   0.769   8.129   8.328 -0.2001 -0.8037  0.0527
  648MOL0     H89355   0.742   8.424   8.611  0.2444 -0.4101 -0.6822
  648MOL0     H89356   0.789   8.616   8.779  1.8989 -3.2526 -3.4486
  648MOL0     H89357   0.812   8.745   8.971 -0.3859 -0.3569  0.2747
  648MOL0     H89358   0.714   8.659   9.087  4.0981 -1.3616 -1.3075
  648MOL0     H89359   0.609   8.908   9.102 -0.4011 -1.0668  1.2178
  648MOL0     H89360   0.757   8.882   9.197 -0.3629 -0.3737  0.3125
  648MOL0     H89361   0.896   8.953   8.999 -1.3698 -2.0176 -1.4860
  648MOL0     H89362   0.749   9.011   8.928 -2.4985  1.0775  1.2690
  648MOL0     H89363   0.709   9.145   9.153 -0.1655 -1.0150  0.8398
  648MOL0     H89364   0.877   9.099   9.192 -1.4711  0.1597  1.1115
  648MOL0     H89365   0.842   9.325   9.075 -3.7908 -1.0432  1.6008
  648MOL0     H89366   0.807   9.249   8.934 -2.7548 -0.2028  1.6314
  648MOL0     H89367   1.074   9.219   9.092  2.5150  0.4269 -1.9363
  648MOL0     H89368   1.036   9.106   8.965 -0.4740 -0.3425  0.2913
  648MOL0     H89369   1.009   9.413   8.939  0.3737  0.4722  1.7093
  648MOL0     H89370   1.028   9.280   8.812  1.3364  0.1870  0.6294
  648MOL0     H89371   1.237   9.234   8.865 -0.0151 -0.1247 -0.5508
  648MOL0     H89372   1.247   9.412   8.865  0.4806  0.7042  2.3404
  648MOL0     H89373   1.161   9.535   9.127  1.3232  0.7496 -0.0525
  648MOL0     H89374   1.357   9.458   9.438  4.4582 -1.1195 -1.6275
  648MOL0     H89375   1.246   9.576   9.382  0.2642  2.3693  0.9829
  648MOL0     H89376   1.495   9.642   9.467 -1.4971  1.7809 -0.2994
  648MOL0     H89377   1.551   9.564   9.314 -0.6558 -0.7338 -0.9468
  648MOL0     H89378   1.518   9.805   9.250 -1.9919  1.1391 -0.6881
  648MOL0     H89379   1.382   9.720   9.195  3.6887  0.6530 -2.8665
  648MOL0     H89380   1.256   9.819   9.355  0.5355  0.6709 -2.0830
  648MOL0     H89381   1.394   9.846   9.463 -2.4933 -1.2559  1.1431
  648MOL0     H89382   1.145  10.080   9.220 -1.6759  1.8757 -2.7801
  648MOL0     H89383   0.976  10.122   9.045 -1.6424 -0.4538 -1.8983
  648MOL0     H89384   1.032  10.133   8.880  4.1468 -0.6197 -0.2157
  648MOL0     H89385   1.072  10.268   8.997 -2.1650  0.7476 -1.4896
  648MOL0     H89386   1.490  10.169   8.568  0.7929 -2.1882  1.3221
  648MOL0     H89387   1.492  10.224   8.338  0.5349  0.3194 -0.2076
  648MOL0     H89388   1.407  10.270   8.081  0.2705  0.1404  0.5632
  648MOL0     H89389   1.550  10.166   8.133  1.6287  1.4218 -1.8348
  648MOL0     H89390   1.419  10.037   7.917 -2.5822  1.7304 -0.8853
  648MOL0     H89391   1.430  10.208   7.876 -2.4944 -1.6506 -1.3328
  648MOL0     H89392   1.666  10.038   7.971  0.2469 -0.5293 -1.1273
  648MOL0     H89393   1.679  10.195   7.874 -1.8655  2.3950 -1.9155
  648MOL0     H89394   1.607  10.086   7.678  1.4329  1.1452  0.4730
  648MOL0     H89395   1.572   9.933   7.770  2.5911 -1.4599 -1.8666
  648MOL0     H89396   1.843   9.950   7.812 -1.6438 -1.5353  1.9657
  648MOL0     H89397   1.780   9.874   7.671 -0.1353  1.0030 -0.2697
  648MOL0     H89398   1.960  10.060   7.654 -0.0125 -0.1819 -1.8508
  648MOL0     H89399   1.832  10.175   7.707 -0.2509  0.9226  1.1688
  648MOL0     H89400   1.723  10.156   7.504  1.5980  1.7147 -2.1089
  648MOL0     H89401   1.817  10.012   7.453 -0.9356 -0.4651  2.0772
  648MOL0     H89402   2.010  10.173   7.418  1.1134  2.3174 -2.6481
  648MOL0     H89403   1.932  10.294   7.512  0.6010 -0.5544  0.2173
  648MOL0     H89404   1.216   9.906   8.255  1.8618  0.4778 -1.7266
  648MOL0     H89405   1.175   9.868   8.500 -0.2555 -0.6880 -0.9586
  648MOL0     H89406   1.477  10.004   8.872 -0.6899 -1.9038  0.2258
  648MOL0     H89407   1.538   9.955   9.098 -0.2689 -0.4115 -0.3075
  648MOL0     H89408   0.400   8.607   8.929  0.3499  0.3467 -0.6732
  648MOL0     H89409   0.335   8.429   8.781 -0.6409  0.2639  2.9019
  648MOL0     H89410   0.477   8.090   8.701  1.2163 -0.6798  1.6500
  648MOL0     H89411   0.529   7.842   8.719 -1.2929  2.6886  2.4136
  648MOL0     H89412   0.502   7.661   8.555 -1.3282 -1.4933  0.8385
  648MOL0     H89413   0.596   7.554   8.468 -0.7252 -0.5877 -0.4109
  648MOL0     H89414   0.523   7.423   8.651  1.6088 -2.4486  0.5701
  648MOL0     H89415   0.554   7.565   8.767  0.4216  2.6662 -2.2055
  648MOL0     H89416   0.809   7.503   8.755  1.1564  0.1142 -1.0847
  648MOL0     H89417   0.695   7.379   8.812  0.7060  1.1096  0.2549
  648MOL0     H89418   0.774   7.379   8.515 -1.7189  2.3979  1.5274
  648MOL0     H89419   0.699   7.259   8.604 -0.0367 -0.8900 -1.8708
  648MOL0     H89420   1.115   7.200   8.706 -1.5303 -2.1122  2.3949
  648MOL0     H89421   0.807   7.879   8.396 -1.7810  0.4633 -1.0507
  648MOL0     H89422   0.808   8.231   8.330  0.3617 -0.8720 -2.8195
  648MOL0     H89423   0.845   8.065   8.282 -0.2803 -2.0918  1.6309
  648MOL0     H89424   0.677   8.127   8.269 -0.8834  0.7968  0.9958
  649MOL0     O89425   7.650  11.207   4.940  0.4345  0.2894 -0.2280
  649MOL0     C89426   7.638  11.324   4.947 -0.3900 -0.3595 -0.3719
  649MOL0     O89427   7.621  11.406   5.061 -0.3314  0.5176  0.0670
  649MOL0     C89428   7.620  11.345   5.188  0.2173  0.0003 -0.5644
  649MOL0     C89429   7.529  11.242   5.217 -0.3503  0.4229 -0.4420
  649MOL0     C89430   7.523  11.195   5.350  0.1589  0.2834 -1.3068
  649MOL0     C89431   7.623  11.227   5.438 -0.5365  0.9716  0.2594
  649MOL0     O89432   7.629  11.172   5.565  0.0115  0.1246 -0.0543
  649MOL0     C89433   7.502  11.147   5.631 -0.0671  0.6858  0.3865
  649MOL0     C89434   7.516  11.166   5.784 -0.1975 -0.0121  0.6329
  649MOL0     C89435   7.571  11.312   5.812  0.3667  0.0129 -0.3097
  649MOL0     C89436   7.609  11.356   5.954 -0.6630  0.7833  0.0222
  649MOL0     C89437   7.528  11.290   6.066 -0.3020 -0.2812  0.0599
  649MOL0     C89438   7.590  11.307   6.208 -0.2870 -0.4876  0.1286
  649MOL0     C89439   7.632  11.452   6.223 -0.5554 -0.7946  0.4440
  649MOL0     C89440   7.682  11.484   6.365 -0.0257  0.0722 -0.1993
  649MOL0     N89441   7.793  11.408   6.423 -0.2537 -0.0313 -0.9503
  649MOL0     C89442   7.852  11.419   6.557  0.6509  0.5523 -0.2406
  649MOL0     C89443   7.971  11.352   6.552  0.0823  1.0512 -0.2660
  649MOL0     C89444   8.071  11.345   6.667 -0.2468 -0.7709  0.2169
  649MOL0     C89445   8.208  11.368   6.620 -0.5226 -0.2152 -0.5169
  649MOL0     C89446   8.306  11.369   6.739  0.5357 -0.4963 -0.6084
  649MOL0     C89447   8.428  11.444   6.708 -0.3436 -0.0745  0.4989
  649MOL0     O89448   8.390  11.583   6.674  0.0401  0.0933  0.9029
  649MOL0     C89449   8.495  11.664   6.623  0.8824  1.2775  0.3993
  649MOL0     C89450   8.458  11.790   6.567 -0.0457  0.1228 -0.5073
  649MOL0     C89451   8.545  11.880   6.495  0.2171 -0.5357  0.4118
  649MOL0     C89452   8.490  12.002   6.412  0.7674 -0.2259 -1.2817
  649MOL0     C89453   8.676  11.840   6.492  0.3931 -0.1742  1.8025
  649MOL0     C89454   8.783  11.919   6.420 -0.0941 -0.1601 -0.7875
  649MOL0     O89455   8.899  11.850   6.383  0.3353 -0.5699 -0.1092
  649MOL0     C89456   9.003  11.916   6.324 -0.0850 -0.2417 -0.5572
  649MOL0     C89457   9.139  11.910   6.362 -0.1651  0.1041 -0.8970
  649MOL0     C89458   9.244  11.956   6.281  0.4912 -0.2591 -0.7463
  649MOL0     C89459   9.222  12.021   6.159 -0.2678  0.1136  0.6160
  649MOL0     O89460   9.332  12.063   6.092  0.6453 -0.1238 -0.2041
  649MOL0     C89461   9.347  12.018   5.955  1.0008  0.7291 -0.5607
  649MOL0     C89462   9.394  11.871   5.968  0.3543  0.8547  0.0643
  649MOL0     C89463   9.544  11.869   6.015  0.0608  0.3793  0.7245
  649MOL0     C89464   9.589  11.731   6.047 -0.0877  0.2355 -1.1958
  649MOL0     C89465   9.742  11.707   6.077 -0.7152 -0.6418 -0.8427
  649MOL0     C89466   9.780  11.562   6.123 -0.2565  0.9160  0.1605
  649MOL0     C89467   9.740  11.446   6.028  0.0951  0.1760  0.5579
  649MOL0     C89468   9.832  11.325   6.043  0.3430  1.4668  0.0795
  649MOL0    Cl89469  10.006  11.346   5.988 -0.3422 -0.5638  0.0240
  649MOL0     C89470   9.092  12.046   6.126  1.1845 -0.5600  0.0330
  649MOL0     C89471   8.985  11.995   6.203  0.5832  0.9118  1.0337
  649MOL0     O89472   8.775  12.038   6.403 -0.7294  0.0029  0.8725
  649MOL0     C89473   8.713  11.723   6.555 -0.6929  0.8954  0.4460
  649MOL0     C89474   8.628  11.629   6.619 -0.4658  0.6371 -0.5064
  649MOL0     N89475   7.966  11.286   6.434  0.3383  0.1592 -0.7218
  649MOL0     N89476   7.865  11.320   6.363 -0.1374  0.6772  0.3000
  649MOL0     C89477   7.715  11.327   5.410  0.4328 -0.9750  0.5409
  649MOL0     C89478   7.722  11.380   5.281  0.8766  0.4846 -0.4463
  649MOL0     C89479   7.645  11.395   4.826 -0.0701 -0.5381 -0.8488
  649MOL0     C89480   7.565  11.353   4.720  0.1963  0.8375  0.3715
  649MOL0     C89481   7.581  11.416   4.596 -0.0935  0.1361  0.5848
  649MOL0     C89482   7.666  11.527   4.583  1.1360  0.0126 -0.3347
  649MOL0     O89483   7.682  11.570   4.453 -0.6399  0.2324 -0.3693
  649MOL0     C89484   7.742  11.696   4.424  1.0075 -0.7428  0.1842
  649MOL0     C89485   7.712  11.731   4.273 -0.3033  0.5039  0.8613
  649MOL0     C89486   7.583  11.807   4.261  1.1207 -0.3448  0.1655
  649MOL0     C89487   7.582  11.860   4.120 -1.1417  0.4926 -0.5402
  649MOL0     C89488   7.449  11.905   4.097 -0.2312  0.2861  1.3375
  649MOL0     C89489   7.344  11.956   4.068  0.1915 -0.5635  1.0015
  649MOL0     C89490   7.741  11.568   4.689 -0.9095  0.0931 -0.3470
  649MOL0     C89491   7.730  11.510   4.814  0.7110  0.2974 -0.8627
  649MOL0     C89492   7.806  11.564   4.922 -0.5470 -0.6875 -0.4932
  649MOL0     H89493   7.456  11.209   5.143 -0.9648  0.9241 -0.0784
  649MOL0     H89494   7.446  11.127   5.385 -0.1100  1.2577  0.0771
  649MOL0     H89495   7.464  11.047   5.609  0.6436  1.0979 -3.4078
  649MOL0     H89496   7.432  11.217   5.584  1.2174  1.4732 -0.4056
  649MOL0     H89497   7.417  11.141   5.824 -0.1670 -1.0394  0.0830
  649MOL0     H89498   7.595  11.101   5.822 -0.0908  0.6169  1.5156
  649MOL0     H89499   7.665  11.319   5.756  0.1377  2.0160 -0.5142
  649MOL0     H89500   7.507  11.388   5.767 -0.0355  0.8819  1.6255
  649MOL0     H89501   7.716  11.336   5.966 -0.9080  0.1048  1.2862
  649MOL0     H89502   7.594  11.464   5.965 -0.6791  0.6044  2.1676
  649MOL0     H89503   7.544  11.183   6.050 -0.2848 -0.0790 -1.4533
  649MOL0     H89504   7.421  11.311   6.071 -0.5932 -1.6571  0.2001
  649MOL0     H89505   7.520  11.276   6.286  0.8243 -2.3856  0.4295
  649MOL0     H89506   7.680  11.245   6.217  0.2239  0.4912  2.8490
  649MOL0     H89507   7.545  11.517   6.210  1.5081  1.7650 -1.6722
  649MOL0     H89508   7.715  11.455   6.152 -0.6106 -2.8358  0.2530
  649MOL0     H89509   7.712  11.587   6.384 -0.4634 -0.1336  1.8258
  649MOL0     H89510   7.592  11.474   6.427  1.1273 -0.7746  1.4272
  649MOL0     H89511   7.805  11.480   6.632  1.2122  0.0773  0.5102
  649MOL0     H89512   8.066  11.250   6.721 -0.7635 -1.3375 -0.8038
  649MOL0     H89513   8.042  11.424   6.737 -2.1724 -1.3294  0.1007
  649MOL0     H89514   8.211  11.286   6.548 -0.0914  0.1147 -0.8744
  649MOL0     H89515   8.214  11.458   6.559  0.4537 -0.3042 -0.5682
  649MOL0     H89516   8.257  11.406   6.829 -1.6924 -2.7758 -0.7643
  649MOL0     H89517   8.334  11.266   6.764  3.9256  0.5638  0.5150
  649MOL0     H89518   8.487  11.439   6.800  0.7792  0.8323 -0.1487
  649MOL0     H89519   8.492  11.395   6.634 -0.3335  1.3355 -0.4752
  649MOL0     H89520   8.353  11.815   6.578  0.0238 -0.4752  2.0572
  649MOL0     H89521   8.518  12.002   6.306 -3.4146 -0.6361 -2.5868
  649MOL0     H89522   8.514  12.099   6.456 -1.2060 -0.5450  0.6564
  649MOL0     H89523   8.381  12.003   6.414  0.7342 -0.7343  1.5724
  649MOL0     H89524   9.159  11.848   6.449  1.0706  0.4986 -0.8832
  649MOL0     H89525   9.346  11.932   6.308  0.5097  0.9569  0.3848
  649MOL0     H89526   9.260  12.006   5.890  3.5279 -2.2144 -3.8191
  649MOL0     H89527   9.423  12.076   5.901 -0.3415  1.4101 -1.7951
  649MOL0     H89528   9.335  11.802   6.028  1.8488 -1.0373 -0.5234
  649MOL0     H89529   9.398  11.830   5.867  4.1337 -1.4062  0.9396
  649MOL0     H89530   9.554  11.920   6.111  2.6796 -1.1726  1.3754
  649MOL0     H89531   9.607  11.925   5.945 -2.0599  1.1736 -0.6202
  649MOL0     H89532   9.549  11.668   5.968 -3.7131  0.5877  0.2055
  649MOL0     H89533   9.530  11.690   6.129  0.6816  0.5238 -0.4831
  649MOL0     H89534   9.799  11.720   5.984 -0.3530  0.5504 -0.4741
  649MOL0     H89535   9.782  11.782   6.146 -0.5322 -0.6894 -0.8939
  649MOL0     H89536   9.726  11.538   6.215 -1.8172 -4.0220 -1.6986
  649MOL0     H89537   9.882  11.548   6.159  0.3230 -1.0494 -1.9834
  649MOL0     H89538   9.744  11.481   5.925  0.5242 -3.2250 -0.7069
  649MOL0     H89539   9.636  11.417   6.046 -0.1176  0.3043 -0.4439
  649MOL0     H89540   9.788  11.248   5.979  0.8302  0.6424  0.7129
  649MOL0     H89541   9.837  11.298   6.149 -1.0973 -2.0048 -0.5996
  649MOL0     H89542   9.078  12.114   6.043 -1.3115 -1.3223 -0.2498
  649MOL0     H89543   8.886  12.024   6.170  0.1089 -0.6917  0.9591
  649MOL0     H89544   8.818  11.700   6.539 -0.7373 -0.1539  1.5260
  649MOL0     H89545   8.661  11.540   6.673  0.8869  2.5796  2.0997
  649MOL0     H89546   7.794  11.362   5.476 -0.2168  4.6536 -1.1568
  649MOL0     H89547   7.795  11.450   5.243  1.0408 -0.4378 -1.9454
  649MOL0     H89548   7.505  11.265   4.742  3.0933 -1.4827 -0.4252
  649MOL0     H89549   7.530  11.371   4.511  2.3181  0.8154 -1.3443
  649MOL0     H89550   7.710  11.779   4.486  2.7443 -0.3660  0.6255
  649MOL0     H89551   7.848  11.689   4.450  0.4410 -1.5374  2.5608
  649MOL0     H89552   7.708  11.636   4.220  0.3397  0.1355  1.4660
  649MOL0     H89553   7.789  11.799   4.236 -0.6140  0.2702 -0.2609
  649MOL0     H89554   7.494  11.743   4.266  1.7734 -1.4057 -1.0414
  649MOL0     H89555   7.575  11.888   4.334 -1.4734 -0.4287  0.0703
  649MOL0     H89556   7.607  11.780   4.050 -1.0264  0.3075 -0.2907
  649MOL0     H89557   7.656  11.938   4.096  0.6787 -0.6263  1.0827
  649MOL0     H89558   7.252  12.003   4.040  0.4337 -0.9390 -0.5470
  649MOL0     H89559   7.818  11.641   4.666 -1.1438 -0.0926 -1.8205
  649MOL0     H89560   7.854  11.479   4.973  0.1154  1.2033  2.2771
  649MOL0     H89561   7.889  11.626   4.888 -1.5669 -0.1985 -2.1999
  649MOL0     H89562   7.751  11.606   5.006 -1.5918 -2.5254 -0.1891
  650MOL0     O89563   1.777   3.822   2.275 -0.0127  0.2558  0.3635
  650MOL0     C89564   1.667   3.873   2.263  0.3869  0.6907 -0.5334
  650MOL0     O89565   1.545   3.820   2.310  0.4874  0.1035 -0.5383
  650MOL0     C89566   1.553   3.690   2.361 -0.8442  0.9338  0.4877
  650MOL0     C89567   1.581   3.654   2.496  1.0638  0.0258 -0.1392
  650MOL0     C89568   1.582   3.526   2.544  0.9011  0.1014 -0.1863
  650MOL0     C89569   1.544   3.422   2.460  1.7552  0.1130 -0.2678
  650MOL0     O89570   1.533   3.286   2.487 -0.5851 -0.0876 -0.9549
  650MOL0     C89571   1.498   3.243   2.623 -0.3821 -0.8340 -0.3100
  650MOL0     C89572   1.341   3.273   2.640 -0.4893  0.1559 -0.3808
  650MOL0     C89573   1.287   3.188   2.759 -0.0527 -0.8048  0.4322
  650MOL0     C89574   1.137   3.157   2.742 -0.2680  0.0812 -0.9425
  650MOL0     C89575   1.070   3.093   2.872 -0.2578 -0.2250 -0.3869
  650MOL0     C89576   1.078   2.939   2.887 -0.1350 -0.0017  0.2802
  650MOL0     C89577   0.972   2.895   2.985  0.1917  0.6184  0.4867
  650MOL0     C89578   1.022   2.893   3.133 -0.5362 -0.5365  0.2091
  650MOL0     N89579   0.909   2.877   3.227 -0.4994 -0.1350 -0.0379
  650MOL0     C89580   0.803   2.960   3.242  0.3015  0.1347 -0.5866
  650MOL0     C89581   0.736   2.921   3.352 -0.4569  0.7973 -0.9019
  650MOL0     C89582   0.620   2.962   3.427  0.5025  0.0119 -0.1235
  650MOL0     C89583   0.486   2.975   3.344 -0.3914  0.0620 -0.0054
  650MOL0     C89584   0.361   3.036   3.422 -0.6905 -0.4542  0.0900
  650MOL0     C89585   0.242   3.080   3.324  0.4026  0.3931 -0.7647
  650MOL0     O89586   0.284   3.195   3.251 -0.4414  0.2593 -0.4577
  650MOL0     C89587   0.196   3.238   3.153 -0.5880 -0.4980 -0.3782
  650MOL0     C89588   0.062   3.200   3.132 -0.0504  0.9995 -0.5228
  650MOL0     C89589  -0.019   3.254   3.030 -0.6354  0.8471  0.1439
  650MOL0     C89590  -0.158   3.211   3.021  0.2868 -0.6135  0.8168
  650MOL0     C89591   0.041   3.351   2.946 -0.7093 -0.1727 -0.4903
  650MOL0     C89592  -0.008   3.378   2.807 -0.4356 -0.3670 -0.1908
  650MOL0     O89593   0.065   3.465   2.732 -0.6384  0.2717 -0.2793
  650MOL0     C89594   0.026   3.503   2.604  0.3347  0.1302 -0.2210
  650MOL0     C89595  -0.105   3.558   2.576 -0.2234 -0.0050  0.7006
  650MOL0     C89596  -0.135   3.602   2.449  0.1610 -0.7126  0.0857
  650MOL0     C89597  -0.042   3.576   2.348  0.1549  0.4610 -0.0548
  650MOL0     O89598  -0.070   3.623   2.223  0.0468 -0.1526  0.3274
  650MOL0     C89599  -0.035   3.545   2.108 -0.3516  0.3119 -0.9079
  650MOL0     C89600  -0.125   3.606   1.996 -0.2341 -0.3041  0.6090
  650MOL0     C89601  -0.098   3.541   1.865 -0.0073  0.5681 -0.5680
  650MOL0     C89602   0.043   3.554   1.801 -0.4752 -0.2162  0.4009
  650MOL0     C89603   0.136   3.679   1.811  0.1921  0.1394  0.2327
  650MOL0     C89604   0.070   3.806   1.750  0.1842  0.3423  0.2839
  650MOL0     C89605   0.160   3.927   1.768  0.0736  0.2012  0.1562
  650MOL0     C89606   0.102   4.053   1.703 -1.0115  0.4639  0.6723
  650MOL0    Cl89607  -0.060   4.113   1.757  0.0323 -0.2407  0.0191
  650MOL0     C89608   0.077   3.507   2.378  0.4345 -0.2036  0.4804
  650MOL0     C89609   0.114   3.468   2.502 -0.0505 -0.3534  0.5893
  650MOL0     O89610  -0.103   3.318   2.767 -0.0918  0.3340 -0.3634
  650MOL0     C89611   0.176   3.388   2.973 -1.0673 -0.1214 -1.1042
  650MOL0     C89612   0.256   3.338   3.070 -0.0692  0.3451  0.9350
  650MOL0     N89613   0.794   2.797   3.379  0.0543  0.7282 -0.3746
  650MOL0     N89614   0.898   2.774   3.308  0.3457  0.6128  0.9729
  650MOL0     C89615   1.508   3.448   2.327 -0.9775 -0.7286  0.5049
  650MOL0     C89616   1.516   3.580   2.273  0.3937 -0.9765  0.1813
  650MOL0     C89617   1.662   4.002   2.190  1.4029  0.5100  1.1063
  650MOL0     C89618   1.594   4.107   2.261 -0.5323 -0.4667 -0.0895
  650MOL0     C89619   1.583   4.234   2.193 -0.2042 -0.6065 -0.3768
  650MOL0     C89620   1.624   4.245   2.061  0.4697  0.6341 -0.0012
  650MOL0     O89621   1.606   4.369   2.008  0.4643  0.5321  0.1745
  650MOL0     C89622   1.716   4.419   1.932  0.6751 -0.6099  0.3990
  650MOL0     C89623   1.693   4.559   1.901 -0.0424  0.0892  0.6813
  650MOL0     C89624   1.705   4.657   2.031  0.7270  0.3643 -0.1992
  650MOL0     C89625   1.627   4.799   2.006  0.5676 -0.4275  1.1981
  650MOL0     C89626   1.681   4.873   1.889  1.0555 -0.2369 -0.5851
  650MOL0     C89627   1.744   4.908   1.793 -0.2063 -0.4059  0.2626
  650MOL0     C89628   1.681   4.139   1.987 -0.3951  0.0632  0.1217
  650MOL0     C89629   1.713   4.018   2.053  0.3397 -0.8043  0.0142
  650MOL0     C89630   1.800   3.927   1.975 -0.2169  0.4630  0.0601
  650MOL0     H89631   1.604   3.729   2.570  1.0928  0.2251 -0.3470
  650MOL0     H89632   1.613   3.512   2.647 -0.5178  1.8510  0.5454
  650MOL0     H89633   1.550   3.299   2.701  2.2081  0.3555 -2.7166
  650MOL0     H89634   1.520   3.137   2.635  0.7527 -0.5591  0.1377
  650MOL0     H89635   1.317   3.380   2.637 -1.9152 -0.1340 -3.1949
  650MOL0     H89636   1.297   3.229   2.550  0.9354 -0.4602 -0.8016
  650MOL0     H89637   1.337   3.093   2.776 -1.8557 -2.2900 -1.9648
  650MOL0     H89638   1.303   3.250   2.848 -1.6157 -0.4260  0.4924
  650MOL0     H89639   1.083   3.250   2.724  2.0682  1.3258 -2.0336
  650MOL0     H89640   1.142   3.093   2.653  1.5520  0.7728 -1.3900
  650MOL0     H89641   0.966   3.127   2.873  0.0131  0.6304  0.1935
  650MOL0     H89642   1.136   3.131   2.951 -0.4144  0.3446 -0.5293
  650MOL0     H89643   1.059   2.903   2.786  3.3659  1.7282 -1.1564
  650MOL0     H89644   1.181   2.904   2.904  1.3462  2.6171 -2.4499
  650MOL0     H89645   0.929   2.798   2.959  1.2776 -0.0985  1.2752
  650MOL0     H89646   0.880   2.954   2.985 -1.7874 -2.1931 -1.4910
  650MOL0     H89647   1.102   2.818   3.140  0.7084  0.2111 -3.5194
  650MOL0     H89648   1.065   2.990   3.161  1.5453 -1.5927  0.8911
  650MOL0     H89649   0.785   3.044   3.175 -0.9767  0.2740 -0.1022
  650MOL0     H89650   0.647   3.055   3.479 -2.3613  0.4090  0.8262
  650MOL0     H89651   0.596   2.892   3.508  3.4325  0.8982  1.6522
  650MOL0     H89652   0.506   3.036   3.255  0.9931  2.4335  1.8219
  650MOL0     H89653   0.464   2.875   3.303  3.5840 -0.6040 -0.9803
  650MOL0     H89654   0.322   2.975   3.504  2.8009  2.1245  4.0751
  650MOL0     H89655   0.405   3.127   3.462  0.3140 -1.3487  1.0965
  650MOL0     H89656   0.218   2.996   3.258 -0.2597 -0.4399  0.5031
  650MOL0     H89657   0.157   3.104   3.388  0.1086 -0.6953 -0.7273
  650MOL0     H89658   0.022   3.125   3.201  1.0735  0.0287 -0.8992
  650MOL0     H89659  -0.227   3.284   2.979  0.4739 -2.5525 -3.3804
  650MOL0     H89660  -0.192   3.196   3.124 -0.8649 -0.4553  0.4622
  650MOL0     H89661  -0.167   3.119   2.962 -1.6700 -0.1400  0.3146
  650MOL0     H89662  -0.172   3.580   2.659 -1.5797 -2.3341  0.3095
  650MOL0     H89663  -0.228   3.655   2.432  1.3921  1.2992 -0.8133
  650MOL0     H89664   0.071   3.567   2.093  0.1569 -1.1943  0.1463
  650MOL0     H89665  -0.056   3.438   2.110 -0.0305  0.2554 -0.3804
  650MOL0     H89666  -0.232   3.600   2.016 -0.6431  0.6648 -1.1044
  650MOL0     H89667  -0.100   3.710   1.977 -0.3435 -0.5191 -0.7993
  650MOL0     H89668  -0.165   3.586   1.791 -1.3004 -0.9915 -0.4246
  650MOL0     H89669  -0.119   3.433   1.868 -2.4054  0.9745 -0.8306
  650MOL0     H89670   0.019   3.556   1.695 -0.8899  2.2129  0.4856
  650MOL0     H89671   0.112   3.471   1.823 -0.1638  0.5347  2.5685
  650MOL0     H89672   0.159   3.709   1.914  0.5085  0.1695  0.1528
  650MOL0     H89673   0.227   3.648   1.759 -1.3262 -1.1095 -1.8169
  650MOL0     H89674  -0.028   3.820   1.797  0.1260 -1.5403  0.8140
  650MOL0     H89675   0.043   3.805   1.644  0.8426 -2.4543  0.0609
  650MOL0     H89676   0.251   3.894   1.717 -1.1953 -3.4380 -0.0302
  650MOL0     H89677   0.178   3.929   1.876 -0.5882 -2.6756  0.3968
  650MOL0     H89678   0.076   4.026   1.601 -0.6256 -0.2506  0.7598
  650MOL0     H89679   0.183   4.127   1.697 -0.4067 -0.1926  0.5302
  650MOL0     H89680   0.151   3.494   2.300 -0.3639  1.0915 -0.5449
  650MOL0     H89681   0.209   3.420   2.522  0.0202 -0.1856  0.6559
  650MOL0     H89682   0.228   3.456   2.906  0.8523 -1.3688 -0.9651
  650MOL0     H89683   0.362   3.351   3.088  0.2650  1.6523 -1.5314
  650MOL0     H89684   1.481   3.380   2.247 -1.6461  1.2851 -1.0508
  650MOL0     H89685   1.480   3.585   2.170  1.5892  4.8788 -0.3024
  650MOL0     H89686   1.571   4.092   2.366  1.5826 -1.4433  0.2852
  650MOL0     H89687   1.552   4.312   2.263  0.8284 -0.2402 -0.3096
  650MOL0     H89688   1.812   4.406   1.983  2.2065 -1.9597 -2.5433
  650MOL0     H89689   1.723   4.364   1.837  2.6559 -1.7154  1.1376
  650MOL0     H89690   1.588   4.557   1.870 -0.9422 -3.0557  3.4116
  650MOL0     H89691   1.763   4.587   1.822  0.8425  0.6708  1.6440
  650MOL0     H89692   1.651   4.608   2.113 -3.0239  1.0239 -2.0518
  650MOL0     H89693   1.805   4.679   2.067 -0.1030  2.6210  0.9309
  650MOL0     H89694   1.624   4.862   2.095 -2.7499  0.6039  0.5190
  650MOL0     H89695   1.530   4.759   1.975  1.1096  0.0449 -1.3376
  650MOL0     H89696   1.807   4.932   1.710 -1.0115  2.3554  0.3578
  650MOL0     H89697   1.700   4.154   1.881 -2.0105 -2.8492 -0.6907
  650MOL0     H89698   1.749   3.870   1.897 -0.5603 -1.6862  1.7771
  650MOL0     H89699   1.878   3.986   1.927 -1.0762  1.3941 -0.2471
  650MOL0     H89700   1.833   3.846   2.040 -0.7771 -0.8312 -1.1987
  651MOL0     O89701   0.849   5.473   3.332 -0.1937  0.0518 -0.5258
  651MOL0     C89702   0.935   5.417   3.264  0.5673  0.0456  0.1336
  651MOL0     O89703   0.901   5.362   3.141  0.9374 -0.7118  0.3689
  651MOL0     C89704   0.772   5.355   3.099 -0.1498  0.7574  0.6399
  651MOL0     C89705   0.723   5.461   3.029  0.5941 -0.4046  0.1487
  651MOL0     C89706   0.593   5.451   2.974 -0.8279 -0.2097 -0.1786
  651MOL0     C89707   0.509   5.345   3.013  0.5366 -0.0422  0.3280
  651MOL0     O89708   0.374   5.360   2.977 -0.4627  0.3299  0.0235
  651MOL0     C89709   0.275   5.266   3.016  0.0594 -0.1938 -0.1489
  651MOL0     C89710   0.145   5.289   2.937 -1.1772 -0.0367  0.4977
  651MOL0     C89711   0.069   5.422   2.969  0.0433  0.4053 -0.0731
  651MOL0     C89712   0.114   5.541   2.887  0.0826 -0.0294  0.3186
  651MOL0     C89713   0.053   5.674   2.938 -0.6379  0.4453  0.6572
  651MOL0     C89714   0.077   5.707   3.085  0.0974 -0.4832  0.2387
  651MOL0     C89715   0.036   5.846   3.125  0.1990  0.6545 -0.3950
  651MOL0     C89716  -0.125   5.859   3.129 -0.2163  0.1544 -0.8682
  651MOL0     N89717  -0.181   5.775   3.238  0.5211 -0.6022  0.4025
  651MOL0     C89718  -0.166   5.822   3.364  0.4609 -0.1659 -1.4663
  651MOL0     C89719  -0.203   5.718   3.451 -0.2084  0.7058 -0.6991
  651MOL0     C89720  -0.227   5.740   3.600  0.6537 -0.1088  0.1812
  651MOL0     C89721  -0.314   5.618   3.637  0.0560 -0.1674  0.1326
  651MOL0     C89722  -0.345   5.619   3.787 -0.9436 -0.1996  0.0063
  651MOL0     C89723  -0.425   5.499   3.828 -0.3172 -0.3466  0.8701
  651MOL0     O89724  -0.435   5.496   3.968  0.3973 -0.0410 -0.3191
  651MOL0     C89725  -0.500   5.381   4.015 -0.2089 -0.2882 -0.1322
  651MOL0     C89726  -0.522   5.385   4.154  0.2941  0.0266 -0.7965
  651MOL0     C89727  -0.593   5.282   4.215 -0.4829 -0.3072  0.0541
  651MOL0     C89728  -0.604   5.286   4.366 -0.4036 -0.9263 -0.5875
  651MOL0     C89729  -0.652   5.180   4.143 -0.8775  0.1599  0.0285
  651MOL0     C89730  -0.718   5.061   4.196  0.6288  0.1710  0.2073
  651MOL0     O89731  -0.692   5.015   4.318  0.9979  0.0371  0.2866
  651MOL0     C89732  -0.744   4.890   4.350 -0.3004 -0.5195 -0.1385
  651MOL0     C89733  -0.649   4.783   4.362  0.3585 -0.2062  0.3189
  651MOL0     C89734  -0.688   4.655   4.383  0.8794  0.2184 -0.1863
  651MOL0     C89735  -0.822   4.627   4.413 -0.6440  0.3130  1.5928
  651MOL0     O89736  -0.854   4.495   4.428 -0.8713 -0.1195  0.2011
  651MOL0     C89737  -0.984   4.455   4.377  0.3501  1.2449 -0.5201
  651MOL0     C89738  -0.993   4.305   4.419 -0.5783  0.2264  0.0109
  651MOL0     C89739  -1.122   4.248   4.361 -1.4448  0.2413 -0.6096
  651MOL0     C89740  -1.082   4.098   4.343  0.0188  0.1859 -0.0032
  651MOL0     C89741  -1.212   4.018   4.317 -0.0551  1.0092 -0.5551
  651MOL0     C89742  -1.190   3.876   4.279 -0.3710  0.2473 -0.6091
  651MOL0     C89743  -1.325   3.812   4.233 -0.8800  0.6699  0.4166
  651MOL0     C89744  -1.303   3.671   4.169 -0.6556 -0.2747  0.3137
  651MOL0    Cl89745  -1.469   3.596   4.128  0.0133  0.1639  0.0347
  651MOL0     C89746  -0.913   4.734   4.427 -0.0218  0.1160 -0.1206
  651MOL0     C89747  -0.876   4.859   4.380 -0.2457 -0.6647 -0.5659
  651MOL0     O89748  -0.806   5.025   4.119 -0.1378  0.6730  0.4533
  651MOL0     C89749  -0.639   5.186   3.998  0.2855 -0.4134 -0.1025
  651MOL0     C89750  -0.561   5.284   3.932 -0.0175 -0.4424 -0.0108
  651MOL0     N89751  -0.237   5.609   3.372  0.8038  0.3784  0.1132
  651MOL0     N89752  -0.242   5.652   3.246 -1.3473  0.3132 -0.3533
  651MOL0     C89753   0.562   5.236   3.090  0.2204  0.0088  0.0977
  651MOL0     C89754   0.695   5.245   3.137 -0.0099 -0.5314 -0.5436
  651MOL0     C89755   1.077   5.412   3.303 -0.2162  0.4379 -0.3270
  651MOL0     C89756   1.128   5.316   3.389  0.8316  0.0433 -0.6530
  651MOL0     C89757   1.255   5.311   3.441  0.4146  0.1092  0.3321
  651MOL0     C89758   1.347   5.404   3.383 -0.8835 -0.2456 -0.0185
  651MOL0     O89759   1.480   5.415   3.410  0.9733 -0.1683  0.5333
  651MOL0     C89760   1.538   5.335   3.515  0.6904  0.3106  0.8672
  651MOL0     C89761   1.606   5.206   3.464 -0.5846  0.7530  0.6226
  651MOL0     C89762   1.710   5.242   3.366 -0.0345 -0.0092  0.9460
  651MOL0     C89763   1.827   5.151   3.367  0.0214  0.8825 -0.3365
  651MOL0     C89764   1.937   5.169   3.271 -0.2687  0.3738 -0.4569
  651MOL0     C89765   2.033   5.181   3.195  0.2732 -0.0380 -1.0655
  651MOL0     C89766   1.299   5.495   3.294  1.1272 -0.1690  0.3141
  651MOL0     C89767   1.166   5.506   3.259 -0.8124 -0.4157  0.0575
  651MOL0     C89768   1.131   5.623   3.171  0.7271 -0.8070 -0.0843
  651MOL0     H89769   0.778   5.553   3.014 -1.2730  0.4068 -2.5914
  651MOL0     H89770   0.544   5.531   2.920  2.1616 -0.7165 -4.1814
  651MOL0     H89771   0.258   5.271   3.124 -1.7272 -2.1335 -0.2891
  651MOL0     H89772   0.320   5.173   2.980 -0.7128 -0.7994  0.4203
  651MOL0     H89773   0.170   5.306   2.832 -1.6057  4.1631  0.9035
  651MOL0     H89774   0.092   5.195   2.960  0.4899 -0.6368  2.1531
  651MOL0     H89775  -0.034   5.390   2.949 -0.5352  1.8083  0.5283
  651MOL0     H89776   0.087   5.440   3.076  2.2040 -2.7573  0.2126
  651MOL0     H89777   0.221   5.566   2.886 -0.1396  1.1049  1.8708
  651MOL0     H89778   0.088   5.528   2.781  0.8431 -1.0062  0.2327
  651MOL0     H89779  -0.056   5.670   2.927 -1.0459  3.6250  2.3416
  651MOL0     H89780   0.089   5.758   2.879  0.4684 -0.5548 -0.1489
  651MOL0     H89781   0.041   5.632   3.156 -0.5315 -0.6037 -0.2002
  651MOL0     H89782   0.186   5.711   3.093 -0.0463  0.5911  2.5907
  651MOL0     H89783   0.073   5.928   3.063  4.6046 -0.5209  0.3787
  651MOL0     H89784   0.078   5.861   3.225 -2.1974  0.6257  0.6803
  651MOL0     H89785  -0.153   5.964   3.141 -1.6327 -0.4555  2.1798
  651MOL0     H89786  -0.181   5.818   3.045 -1.0000  1.7786 -1.1770
  651MOL0     H89787  -0.120   5.912   3.403  0.6972 -0.6591 -0.5565
  651MOL0     H89788  -0.280   5.831   3.627 -2.0885 -1.2576 -0.9275
  651MOL0     H89789  -0.135   5.730   3.657  2.6959  1.3394 -2.6273
  651MOL0     H89790  -0.413   5.621   3.589 -0.3872 -3.4644  0.6162
  651MOL0     H89791  -0.275   5.523   3.601 -0.7701 -0.5735  0.2782
  651MOL0     H89792  -0.251   5.616   3.843 -1.4729  2.2882  1.1446
  651MOL0     H89793  -0.396   5.711   3.817  0.2213  0.4961 -0.0807
  651MOL0     H89794  -0.521   5.499   3.775 -1.3861 -0.6634  2.7410
  651MOL0     H89795  -0.377   5.408   3.789 -0.2921  0.1562 -0.3106
  651MOL0     H89796  -0.479   5.472   4.204  3.5159 -1.7133 -0.2889
  651MOL0     H89797  -0.711   5.275   4.386 -0.1148 -1.7332  0.6895
  651MOL0     H89798  -0.565   5.381   4.404  0.7845 -1.9412  0.8593
  651MOL0     H89799  -0.538   5.204   4.397  3.6119  1.4756 -2.0106
  651MOL0     H89800  -0.545   4.800   4.339  0.0543  0.1790 -0.7924
  651MOL0     H89801  -0.625   4.567   4.382 -1.3390 -1.5032  1.7753
  651MOL0     H89802  -1.069   4.505   4.423 -0.6186 -0.0079 -0.8712
  651MOL0     H89803  -0.988   4.471   4.269  0.9302  1.2262 -0.5491
  651MOL0     H89804  -0.903   4.250   4.388  0.1763  2.8942 -3.1415
  651MOL0     H89805  -0.988   4.290   4.527  0.9992  1.0357  0.0859
  651MOL0     H89806  -1.140   4.285   4.259 -1.7147 -3.3184 -1.9738
  651MOL0     H89807  -1.205   4.279   4.426 -1.9792  1.6863 -1.9050
  651MOL0     H89808  -1.043   4.051   4.434 -0.7879 -0.9220 -0.1977
  651MOL0     H89809  -1.017   4.091   4.256 -3.4998  4.0477 -3.3676
  651MOL0     H89810  -1.272   4.040   4.406 -2.0460 -0.8793 -1.3469
  651MOL0     H89811  -1.270   4.062   4.235 -1.3392  0.5992  0.1004
  651MOL0     H89812  -1.150   3.813   4.358 -0.9401  0.9372  0.2500
  651MOL0     H89813  -1.125   3.867   4.192  0.4348 -1.3962  0.1332
  651MOL0     H89814  -1.371   3.884   4.165 -1.8281 -0.0578  0.2563
  651MOL0     H89815  -1.399   3.790   4.311  1.5914 -1.9373  2.2285
  651MOL0     H89816  -1.250   3.595   4.226  1.7908  0.3012 -1.0450
  651MOL0     H89817  -1.243   3.699   4.082  0.8251 -0.5747  1.2075
  651MOL0     H89818  -1.013   4.725   4.467 -0.1629  1.2538 -0.1794
  651MOL0     H89819  -0.947   4.937   4.406  0.5188 -0.3981  0.7700
  651MOL0     H89820  -0.692   5.111   3.941  2.2233 -0.1492 -2.3804
  651MOL0     H89821  -0.550   5.277   3.824  2.4475  1.4099  0.0340
  651MOL0     H89822   0.499   5.149   3.108 -0.2971 -0.0436 -1.7462
  651MOL0     H89823   0.732   5.172   3.209 -2.0191  0.2411  1.3833
  651MOL0     H89824   1.064   5.236   3.424 -0.0334  1.0899  0.2667
  651MOL0     H89825   1.293   5.228   3.501 -2.0532 -2.4715 -1.3891
  651MOL0     H89826   1.622   5.389   3.560  0.9461 -0.3783  1.2284
  651MOL0     H89827   1.465   5.310   3.592 -0.5678  0.4010 -0.2660
  651MOL0     H89828   1.529   5.149   3.410  1.4046  0.7132 -2.4551
  651MOL0     H89829   1.659   5.158   3.546  0.2513  0.4822 -0.0550
  651MOL0     H89830   1.664   5.230   3.268 -0.2784 -1.0076  1.1697
  651MOL0     H89831   1.735   5.348   3.364 -0.9425  0.2790 -2.8529
  651MOL0     H89832   1.787   5.050   3.352 -1.0361  1.4305 -1.2821
  651MOL0     H89833   1.882   5.148   3.462 -0.0438 -5.0033 -0.1115
  651MOL0     H89834   2.127   5.189   3.144  2.4340  0.5176  2.6095
  651MOL0     H89835   1.367   5.565   3.246 -1.6029  1.8039 -0.8910
  651MOL0     H89836   1.026   5.631   3.143  1.1902  0.3738 -1.5969
  651MOL0     H89837   1.149   5.718   3.223 -2.6298  0.4100 -0.9368
  651MOL0     H89838   1.197   5.630   3.084  1.3682  3.1046  0.5319
  652MOL0     O89839   6.942   4.796   1.171  0.5113 -0.0538 -0.3722
  652MOL0     C89840   6.837   4.806   1.237  0.2010  0.2953  0.5371
  652MOL0     O89841   6.710   4.782   1.190 -0.0669  0.2728 -0.2367
  652MOL0     C89842   6.683   4.702   1.080 -0.2617 -0.2790 -1.0464
  652MOL0     C89843   6.586   4.604   1.101 -0.0464 -1.1387  0.3273
  652MOL0     C89844   6.543   4.518   0.997 -0.1327 -0.3766  0.0059
  652MOL0     C89845   6.595   4.539   0.869  0.0988 -0.0311  0.8093
  652MOL0     O89846   6.583   4.453   0.748 -0.5158 -0.8293  0.4855
  652MOL0     C89847   6.465   4.391   0.742 -0.4411  0.1243  0.6109
  652MOL0     C89848   6.442   4.314   0.611  0.3462  0.0417  0.4779
  652MOL0     C89849   6.547   4.219   0.579 -0.8151  0.4572  0.8243
  652MOL0     C89850   6.513   4.135   0.451  0.2938 -1.0043 -1.4632
  652MOL0     C89851   6.634   4.058   0.393 -0.4815 -0.6129 -0.0571
  652MOL0     C89852   6.650   3.918   0.477 -0.2831 -0.4175  0.1062
  652MOL0     C89853   6.761   3.830   0.413 -0.5405  0.5143  0.2146
  652MOL0     C89854   6.897   3.897   0.390  0.1454 -0.3309 -0.3537
  652MOL0     N89855   7.000   3.804   0.345 -0.0726  0.4726  0.3158
  652MOL0     C89856   7.095   3.757   0.428 -0.0990 -0.1602  0.0901
  652MOL0     C89857   7.157   3.666   0.349  0.2201  0.1593 -0.6892
  652MOL0     C89858   7.262   3.568   0.389 -0.5173 -0.3694  0.1769
  652MOL0     C89859   7.235   3.431   0.344 -0.3595  0.1236 -0.5862
  652MOL0     C89860   7.119   3.387   0.435  0.2518 -0.2560 -0.4325
  652MOL0     C89861   7.061   3.260   0.379  0.4594  0.7244 -0.0448
  652MOL0     O89862   6.922   3.232   0.420  0.3426  0.3746 -0.3730
  652MOL0     C89863   6.823   3.314   0.367  0.6753  0.9175 -1.1569
  652MOL0     C89864   6.698   3.310   0.433  0.4844 -0.0211  0.7103
  652MOL0     C89865   6.597   3.407   0.402  0.0194  0.0807 -2.1213
  652MOL0     C89866   6.462   3.379   0.469 -0.5932  0.4542  0.3701
  652MOL0     C89867   6.614   3.503   0.301 -0.3488  0.2188 -0.2125
  652MOL0     C89868   6.511   3.606   0.251  0.1994  0.1382 -0.6581
  652MOL0     O89869   6.406   3.652   0.330 -0.5800  0.1098  0.5112
  652MOL0     C89870   6.290   3.675   0.264  0.1268 -0.0382  0.5707
  652MOL0     C89871   6.211   3.798   0.275 -0.2258  0.4376 -1.1713
  652MOL0     C89872   6.089   3.817   0.205 -0.4010  0.5436  0.3137
  652MOL0     C89873   6.037   3.701   0.135 -0.4806 -0.6034 -1.3159
  652MOL0     O89874   5.909   3.709   0.087  0.5587  0.8666  0.3877
  652MOL0     C89875   5.837   3.596   0.034  0.0349  1.2738 -0.4968
  652MOL0     C89876   5.688   3.616   0.040  0.0644  0.5585  0.0150
  652MOL0     C89877   5.622   3.633   0.184 -0.1578  0.7555  0.0306
  652MOL0     C89878   5.695   3.562   0.297  0.5195 -0.1005 -0.3158
  652MOL0     C89879   5.640   3.585   0.441 -0.5933 -0.0101  0.5754
  652MOL0     C89880   5.682   3.478   0.536 -0.6338  0.0358 -0.8331
  652MOL0     C89881   5.610   3.507   0.674 -0.5462 -0.2176  0.5986
  652MOL0     C89882   5.662   3.414   0.778 -0.8306 -0.3148  0.0195
  652MOL0    Cl89883   5.564   3.431   0.926  0.3212  0.1725  0.3367
  652MOL0     C89884   6.121   3.580   0.126  0.1573  0.1057 -0.5111
  652MOL0     C89885   6.244   3.576   0.187  0.9428 -0.1560  0.3596
  652MOL0     O89886   6.528   3.638   0.141 -0.7013 -0.4851  0.2506
  652MOL0     C89887   6.740   3.503   0.242  0.0664  0.3969 -0.0548
  652MOL0     C89888   6.842   3.413   0.273 -0.4075 -0.5054 -0.6093
  652MOL0     N89889   7.099   3.659   0.227  0.1478 -0.0801 -0.3625
  652MOL0     N89890   7.012   3.757   0.215  0.5056 -0.1409  0.9145
  652MOL0     C89891   6.696   4.630   0.853  0.2095 -0.1648 -0.0338
  652MOL0     C89892   6.737   4.709   0.956  0.3363  0.0134  0.9796
  652MOL0     C89893   6.852   4.840   1.385  0.2976 -1.1635 -0.4775
  652MOL0     C89894   6.729   4.834   1.459  0.5088 -0.1125  0.4300
  652MOL0     C89895   6.730   4.876   1.593 -0.1911 -0.0523 -0.9840
  652MOL0     C89896   6.839   4.924   1.658 -0.0927 -0.6791  1.1201
  652MOL0     O89897   6.817   4.958   1.791  0.6150  0.5778  0.3848
  652MOL0     C89898   6.925   4.970   1.886  0.4897  0.0929  0.3858
  652MOL0     C89899   6.857   5.006   2.019 -0.1527 -0.1257 -1.1002
  652MOL0     C89900   6.810   4.875   2.089 -0.3094  1.0663  0.5260
  652MOL0     C89901   6.766   4.908   2.231  0.6431  0.3214  0.5440
  652MOL0     C89902   6.662   5.008   2.228 -0.3352 -0.1664  0.3359
  652MOL0     C89903   6.568   5.082   2.231 -0.4174 -0.5004 -0.1690
  652MOL0     C89904   6.961   4.915   1.586 -0.1394 -0.7304  0.1192
  652MOL0     C89905   6.968   4.878   1.449 -0.2574 -0.0275  0.3519
  652MOL0     C89906   7.112   4.881   1.383 -0.4613 -0.4722  0.0179
  652MOL0     H89907   6.547   4.596   1.202  1.4364  0.2764  1.0529
  652MOL0     H89908   6.466   4.445   1.018 -1.2104  0.7780  0.1413
  652MOL0     H89909   6.382   4.462   0.750 -0.7658 -0.1515 -0.2103
  652MOL0     H89910   6.454   4.326   0.830 -3.7420  2.0297  1.7756
  652MOL0     H89911   6.339   4.279   0.612 -0.0282  0.8463 -2.0103
  652MOL0     H89912   6.429   4.389   0.532 -3.6315 -1.9528 -1.0252
  652MOL0     H89913   6.641   4.270   0.555 -2.3043  3.9978  1.7693
  652MOL0     H89914   6.565   4.166   0.673 -0.9012  1.8314  1.6450
  652MOL0     H89915   6.423   4.076   0.471 -2.4510  2.8235 -1.6488
  652MOL0     H89916   6.481   4.197   0.368 -1.7909 -1.5619 -1.1322
  652MOL0     H89917   6.728   4.115   0.388 -0.1492 -1.2260 -1.1251
  652MOL0     H89918   6.605   4.038   0.290 -0.1011  3.5859 -1.1831
  652MOL0     H89919   6.663   3.937   0.584 -3.2050 -2.9924  1.0330
  652MOL0     H89920   6.555   3.865   0.464 -1.6810  2.2459 -1.4867
  652MOL0     H89921   6.723   3.792   0.318 -0.7136  0.3049  0.3689
  652MOL0     H89922   6.784   3.743   0.474  2.4673  0.8293 -0.3346
  652MOL0     H89923   6.890   3.982   0.321 -3.0063 -0.8929 -0.8867
  652MOL0     H89924   6.919   3.940   0.488  0.5077  1.0393 -1.0021
  652MOL0     H89925   7.110   3.783   0.533 -0.7978  4.2966 -0.7212
  652MOL0     H89926   7.289   3.581   0.494 -0.0742 -2.4971  0.3708
  652MOL0     H89927   7.360   3.590   0.345 -0.7506  0.1066 -0.1185
  652MOL0     H89928   7.219   3.430   0.235  3.8666  3.2434 -1.5127
  652MOL0     H89929   7.328   3.375   0.352  1.1527  2.5981  0.3324
  652MOL0     H89930   7.144   3.385   0.541  1.6429  0.4153 -0.7194
  652MOL0     H89931   7.042   3.463   0.421 -1.7193 -2.4989 -2.9037
  652MOL0     H89932   7.065   3.252   0.270  0.3641  0.0940 -0.0002
  652MOL0     H89933   7.118   3.178   0.423  0.7115  0.8595 -0.1145
  652MOL0     H89934   6.693   3.230   0.506  2.3874  0.3128  1.2534
  652MOL0     H89935   6.446   3.276   0.502 -3.4122 -0.2557 -2.7627
  652MOL0     H89936   6.386   3.383   0.391 -0.4697  2.4935  0.3133
  652MOL0     H89937   6.456   3.456   0.546  1.6706 -0.4972  1.6026
  652MOL0     H89938   6.250   3.873   0.343 -3.2997 -0.3906  1.7228
  652MOL0     H89939   6.033   3.910   0.211 -4.1411 -1.5461  1.1088
  652MOL0     H89940   5.877   3.579  -0.066  0.8668 -0.5615  0.0966
  652MOL0     H89941   5.859   3.509   0.096 -1.5329  0.9393 -0.3730
  652MOL0     H89942   5.675   3.703  -0.025  4.2162  0.1883 -1.6426
  652MOL0     H89943   5.639   3.536  -0.016 -2.3782  0.1583  2.5274
  652MOL0     H89944   5.516   3.609   0.181 -1.0164  4.1182 -2.0343
  652MOL0     H89945   5.632   3.739   0.211 -0.5748  0.4077  1.6627
  652MOL0     H89946   5.803   3.580   0.303  0.9542 -2.4908  0.0943
  652MOL0     H89947   5.700   3.455   0.275 -1.7374 -0.7772  2.0401
  652MOL0     H89948   5.652   3.690   0.469 -0.7551 -0.0265  0.7096
  652MOL0     H89949   5.531   3.584   0.430 -0.6152 -4.3232 -0.3189
  652MOL0     H89950   5.789   3.479   0.559 -0.8198  1.0534  0.0088
  652MOL0     H89951   5.654   3.377   0.504 -1.5014  0.3328 -1.0310
  652MOL0     H89952   5.502   3.493   0.662 -0.8584  1.0949  1.6212
  652MOL0     H89953   5.633   3.611   0.702 -4.9324  1.2827 -0.5298
  652MOL0     H89954   5.765   3.428   0.810 -1.8672  0.5813  3.4629
  652MOL0     H89955   5.643   3.314   0.739 -0.3250 -1.6434  2.9569
  652MOL0     H89956   6.083   3.488   0.084 -2.8495  0.6743  0.7015
  652MOL0     H89957   6.301   3.484   0.188 -3.0103 -3.0756 -3.2380
  652MOL0     H89958   6.758   3.581   0.168  0.7551  1.7348  1.4536
  652MOL0     H89959   6.936   3.427   0.220  0.5408 -1.8381  0.6305
  652MOL0     H89960   6.750   4.633   0.758  0.9912  2.0985  0.4168
  652MOL0     H89961   6.807   4.789   0.936 -0.7708  0.2092 -2.8591
  652MOL0     H89962   6.640   4.794   1.411  0.7929 -0.9005  0.5468
  652MOL0     H89963   6.638   4.874   1.650  2.2200  0.7446  3.3955
  652MOL0     H89964   6.992   4.883   1.894  0.6459  0.3174  1.8576
  652MOL0     H89965   6.984   5.060   1.864 -0.0070 -0.1635 -2.2392
  652MOL0     H89966   6.768   5.067   1.999 -1.1417 -0.5118  1.6865
  652MOL0     H89967   6.928   5.056   2.085 -0.7689  0.5218 -0.9169
  652MOL0     H89968   6.716   4.843   2.043 -0.3291 -0.6971  1.7007
  652MOL0     H89969   6.890   4.800   2.098 -2.5622 -1.9376 -2.0741
  652MOL0     H89970   6.845   4.947   2.296  0.8204  0.3191  0.3308
  652MOL0     H89971   6.735   4.820   2.288 -0.1555  2.6523  4.0178
  652MOL0     H89972   6.470   5.125   2.222 -0.3167 -0.4860 -1.4898
  652MOL0     H89973   7.044   4.947   1.648 -0.7426  2.5833 -0.5999
  652MOL0     H89974   7.129   4.956   1.305  0.5153  0.5524  1.1771
  652MOL0     H89975   7.192   4.904   1.454 -0.8649  3.3219 -0.5543
  652MOL0     H89976   7.137   4.782   1.346 -3.7137 -1.2217 -0.4911
  653MOL0     O89977   9.938   8.374   2.653 -0.2033 -0.6662  0.7637
  653MOL0     C89978   9.907   8.346   2.538  0.1551 -0.6499  0.0420
  653MOL0     O89979   9.785   8.299   2.492  0.1437  0.2450  0.0146
  653MOL0     C89980   9.707   8.217   2.572  0.0780 -0.4822 -0.2235
  653MOL0     C89981   9.609   8.149   2.500  1.2089 -0.1316  0.3166
  653MOL0     C89982   9.503   8.078   2.564  0.8888  0.1067  0.3490
  653MOL0     C89983   9.516   8.048   2.699  0.9382 -0.2550  1.0408
  653MOL0     O89984   9.427   7.987   2.777 -0.1793  0.2634 -0.5293
  653MOL0     C89985   9.317   7.913   2.697 -0.0483  0.1890 -0.4533
  653MOL0     C89986   9.236   7.830   2.798  0.4856 -1.3732 -0.2941
  653MOL0     C89987   9.306   7.717   2.885 -0.4122 -0.7176  0.5294
  653MOL0     C89988   9.409   7.633   2.815  1.0025  0.6856 -0.0985
  653MOL0     C89989   9.458   7.500   2.877  0.6445 -0.3076 -0.3950
  653MOL0     C89990   9.520   7.523   3.017  0.1195 -0.2086 -0.3885
  653MOL0     C89991   9.576   7.396   3.085 -0.8252  0.3787 -0.1682
  653MOL0     C89992   9.527   7.343   3.231  0.4054  0.4580  0.0666
  653MOL0     N89993   9.584   7.419   3.342 -0.9372 -0.2933  0.2377
  653MOL0     C89994   9.689   7.375   3.426  0.3733  0.5691 -0.6120
  653MOL0     C89995   9.685   7.455   3.536  0.7546 -0.2908 -0.3829
  653MOL0     C89996   9.789   7.454   3.642 -0.3708  0.6248 -0.6696
  653MOL0     C89997   9.750   7.399   3.779 -0.2952 -0.2656  0.0705
  653MOL0     C89998   9.870   7.368   3.874  0.2094  0.3509 -0.5340
  653MOL0     C89999   9.949   7.491   3.909  0.8229 -0.3696  0.6231
  653MOL0     O90000  10.061   7.453   3.990  0.2627  0.8167  0.3488
  653MOL0     C90001  10.167   7.542   4.013 -0.1281  0.7447  0.3367
  653MOL0     C90002  10.177   7.603   4.140 -0.4345  0.9627 -0.2378
  653MOL0     C90003  10.274   7.700   4.152 -0.8748 -0.8049 -0.0970
  653MOL0     C90004  10.292   7.772   4.279 -0.1728  0.2559 -0.1810
  653MOL0     C90005  10.368   7.728   4.053  0.1485 -0.8585  0.2599
  653MOL0     C90006  10.483   7.821   4.054 -0.2353  0.3177  0.2001
  653MOL0     O90007  10.530   7.868   3.935 -0.6542 -0.4182  0.3783
  653MOL0     C90008  10.659   7.921   3.954  0.0603 -0.3474 -0.8035
  653MOL0     C90009  10.675   8.054   3.998  0.1291  0.6112  0.2885
  653MOL0     C90010  10.796   8.106   4.009  0.5501  0.0548 -0.0335
  653MOL0     C90011  10.909   8.024   3.987 -0.6273  0.3824  0.3605
  653MOL0     O90012  11.037   8.073   4.009  0.0361 -0.2072 -0.1763
  653MOL0     C90013  11.058   8.188   4.093  0.3436  1.1483 -0.0145
  653MOL0     C90014  11.214   8.226   4.102 -0.3711  0.0337 -1.4457
  653MOL0     C90015  11.258   8.313   3.986  0.0863 -0.3414 -0.5926
  653MOL0     C90016  11.193   8.460   4.001  0.7241 -0.6415  1.0510
  653MOL0     C90017  11.284   8.565   3.945 -0.3974 -0.1319  0.5216
  653MOL0     C90018  11.229   8.714   3.934 -0.2097  0.9204 -0.4128
  653MOL0     C90019  11.140   8.714   3.812 -0.0802  0.0105  0.0665
  653MOL0     C90020  11.134   8.849   3.743  0.0996  0.7806  0.7589
  653MOL0    Cl90021  11.266   8.864   3.635  0.0638 -0.0951 -0.4190
  653MOL0     C90022  10.897   7.891   3.939  0.8482  0.5722  0.7604
  653MOL0     C90023  10.766   7.840   3.915  0.4290  0.7278 -0.1421
  653MOL0     O90024  10.537   7.838   4.163 -0.7795  0.1613  0.3778
  653MOL0     C90025  10.360   7.651   3.935  0.0930 -0.3406  0.0025
  653MOL0     C90026  10.262   7.556   3.914  0.4071  0.5996 -0.1665
  653MOL0     N90027   9.591   7.548   3.512 -0.4883 -0.6459  0.4929
  653MOL0     N90028   9.544   7.542   3.392  0.4119  0.6340  0.2042
  653MOL0     C90029   9.626   8.103   2.768 -0.0240 -0.1782 -0.0038
  653MOL0     C90030   9.721   8.187   2.716 -0.9228 -0.3251  0.0400
  653MOL0     C90031  10.009   8.365   2.429  0.6714 -0.1780 -0.3826
  653MOL0     C90032  10.081   8.258   2.381 -0.1747  0.5253  0.6459
  653MOL0     C90033  10.191   8.283   2.294  0.0249  0.0562  0.7730
  653MOL0     C90034  10.233   8.410   2.259 -0.3580 -0.8696 -0.6335
  653MOL0     O90035  10.337   8.436   2.182 -0.1236 -0.2335 -0.3762
  653MOL0     C90036  10.454   8.485   2.261 -0.6471  0.7147 -0.2524
  653MOL0     C90037  10.566   8.528   2.157  0.7318 -0.0323 -0.8069
  653MOL0     C90038  10.713   8.500   2.217  0.0320 -0.5334  0.9283
  653MOL0     C90039  10.768   8.613   2.310  0.3096  0.0249  0.5326
  653MOL0     C90040  10.754   8.748   2.254 -1.3270 -0.2027  0.3670
  653MOL0     C90041  10.749   8.864   2.204 -0.5289  0.3803  0.0118
  653MOL0     C90042  10.149   8.515   2.302  0.7070  0.6762 -0.2681
  653MOL0     C90043  10.040   8.496   2.388 -0.2559 -0.1830  0.3596
  653MOL0     C90044   9.951   8.614   2.418 -0.3918  0.4981 -0.9322
  653MOL0     H90045   9.608   8.186   2.397  1.2767  2.1093  1.0561
  653MOL0     H90046   9.422   8.044   2.500  0.9027 -0.3150  0.5556
  653MOL0     H90047   9.355   7.844   2.621 -3.9411 -1.8502 -0.7867
  653MOL0     H90048   9.248   7.987   2.654 -2.0983 -0.4144  1.5870
  653MOL0     H90049   9.194   7.902   2.870 -0.4234 -3.4736  1.3996
  653MOL0     H90050   9.149   7.793   2.743 -2.1510  2.6505  0.6920
  653MOL0     H90051   9.346   7.774   2.970 -2.8537 -0.5408  1.6255
  653MOL0     H90052   9.227   7.659   2.933 -2.2003 -0.5026 -1.9757
  653MOL0     H90053   9.349   7.591   2.733 -2.8507  0.0613  2.7982
  653MOL0     H90054   9.493   7.688   2.771 -0.0213  2.0050 -0.4751
  653MOL0     H90055   9.534   7.449   2.816  3.1421  1.6279  0.9009
  653MOL0     H90056   9.366   7.440   2.883 -0.8596  1.9517  0.0392
  653MOL0     H90057   9.604   7.592   3.010  1.1421 -1.5561 -2.3370
  653MOL0     H90058   9.456   7.582   3.083  2.7112  0.0553  2.0840
  653MOL0     H90059   9.685   7.405   3.095 -0.9306  1.5860  0.0331
  653MOL0     H90060   9.554   7.310   3.020 -1.6341 -2.1370  3.1679
  653MOL0     H90061   9.420   7.361   3.232  0.5216  1.7896 -2.8816
  653MOL0     H90062   9.544   7.235   3.241  0.9115  0.5358  0.0893
  653MOL0     H90063   9.747   7.286   3.405 -0.6861 -0.1415 -0.5972
  653MOL0     H90064   9.820   7.558   3.651 -1.6426  1.4326 -4.0869
  653MOL0     H90065   9.872   7.390   3.609 -0.5409  0.5846 -1.0336
  653MOL0     H90066   9.679   7.466   3.829  2.8704  3.5085  0.0250
  653MOL0     H90067   9.703   7.305   3.749 -0.2072  0.0137 -0.9628
  653MOL0     H90068   9.823   7.329   3.965  0.8085 -3.6801 -1.7665
  653MOL0     H90069   9.938   7.292   3.833  1.8904  0.1941  2.3099
  653MOL0     H90070   9.988   7.552   3.827 -1.5520 -0.0133 -0.3484
  653MOL0     H90071   9.890   7.562   3.967  0.7142 -0.2650  0.3855
  653MOL0     H90072  10.124   7.567   4.228 -0.1422  1.1480  0.0170
  653MOL0     H90073  10.206   7.765   4.345 -0.8326  0.5809 -0.9928
  653MOL0     H90074  10.306   7.878   4.255  2.1925 -0.3254 -1.7892
  653MOL0     H90075  10.371   7.733   4.344 -1.4750 -0.4473  1.0317
  653MOL0     H90076  10.590   8.119   4.016  2.7059  4.3519 -0.0132
  653MOL0     H90077  10.809   8.203   4.056 -0.2075 -0.0783  0.4818
  653MOL0     H90078  11.015   8.282   4.058  0.7856  0.5591 -2.2616
  653MOL0     H90079  11.024   8.167   4.195 -1.6950 -2.4712 -1.2989
  653MOL0     H90080  11.239   8.272   4.197  0.0500 -2.2805 -0.3588
  653MOL0     H90081  11.274   8.134   4.096 -0.6441 -0.4804  1.8489
  653MOL0     H90082  11.236   8.260   3.893 -2.5099 -0.9104  0.2571
  653MOL0     H90083  11.364   8.321   4.010 -0.5795  0.8812  2.5908
  653MOL0     H90084  11.169   8.482   4.105  1.1378  1.3395  0.7595
  653MOL0     H90085  11.096   8.470   3.951  1.1127  1.5644  0.6577
  653MOL0     H90086  11.371   8.567   4.012  0.5828  1.0292 -0.7303
  653MOL0     H90087  11.327   8.543   3.847  1.8829  2.8401  0.7197
  653MOL0     H90088  11.306   8.789   3.913  1.7364 -1.6482 -3.3337
  653MOL0     H90089  11.163   8.741   4.017 -1.0674  2.7899 -1.6595
  653MOL0     H90090  11.040   8.698   3.853  0.0196 -1.0791 -0.0666
  653MOL0     H90091  11.165   8.638   3.736 -1.3655  0.9516 -1.3635
  653MOL0     H90092  11.142   8.927   3.820  0.3071  0.8821  0.6362
  653MOL0     H90093  11.040   8.855   3.688  0.2285  0.8891  0.5495
  653MOL0     H90094  10.983   7.840   3.896 -1.1862  0.2950 -3.4412
  653MOL0     H90095  10.757   7.741   3.871  2.8495 -0.0195  0.8813
  653MOL0     H90096  10.430   7.662   3.852  0.6599 -0.9973  0.3851
  653MOL0     H90097  10.253   7.498   3.823  2.4706 -0.4862  0.2574
  653MOL0     H90098   9.623   8.094   2.876 -3.1457  0.5228  0.0484
  653MOL0     H90099   9.797   8.229   2.781  0.6824  0.3734 -2.1432
  653MOL0     H90100  10.066   8.163   2.432 -2.1004  0.9237  0.8709
  653MOL0     H90101  10.252   8.205   2.249 -0.9712 -0.1017 -0.3255
  653MOL0     H90102  10.432   8.566   2.331  0.0971  0.1606  0.6465
  653MOL0     H90103  10.498   8.406   2.322 -1.0200 -0.4856 -1.4950
  653MOL0     H90104  10.533   8.624   2.117 -1.2437 -0.0427  0.6718
  653MOL0     H90105  10.555   8.461   2.071 -1.9581  1.5285 -1.7974
  653MOL0     H90106  10.731   8.403   2.264  0.2154  0.1885  2.4212
  653MOL0     H90107  10.784   8.501   2.134  1.9095 -0.7125  2.4706
  653MOL0     H90108  10.875   8.595   2.326  0.8116  2.7852  0.7728
  653MOL0     H90109  10.710   8.616   2.403 -1.8678  0.7472 -0.7926
  653MOL0     H90110  10.761   8.965   2.169  0.2171  0.1137 -0.5316
  653MOL0     H90111  10.170   8.611   2.256  1.7068 -0.4453 -2.2714
  653MOL0     H90112   9.946   8.628   2.526 -2.7932  2.9322 -1.2361
  653MOL0     H90113   9.985   8.711   2.380  1.7184  0.7146  1.2322
  653MOL0     H90114   9.850   8.581   2.394 -0.8980  2.3472 -1.5177
  654MOL0     O90115   9.499   4.142   4.324 -0.2419  0.6214 -0.5587
  654MOL0     C90116   9.374   4.176   4.328 -0.0325  0.3392  0.5842
  654MOL0     O90117   9.262   4.091   4.288 -0.0660 -1.0511 -0.6255
  654MOL0     C90118   9.278   3.953   4.307  0.0785  0.0028 -1.1260
  654MOL0     C90119   9.208   3.873   4.218  0.1582  0.0284 -1.1095
  654MOL0     C90120   9.210   3.735   4.242  0.2876 -0.8327  0.6477
  654MOL0     C90121   9.285   3.675   4.349 -0.2606 -0.2129  0.5865
  654MOL0     O90122   9.291   3.543   4.370  0.3471 -0.7806  0.3580
  654MOL0     C90123   9.176   3.454   4.354 -0.9847  0.1274 -0.0912
  654MOL0     C90124   9.096   3.471   4.488 -0.3387  0.7995  0.2934
  654MOL0     C90125   9.190   3.462   4.613  1.3285 -0.3196 -0.2637
  654MOL0     C90126   9.270   3.328   4.637  0.9348  0.6452  0.4994
  654MOL0     C90127   9.292   3.287   4.778 -0.2218  0.2324 -0.1982
  654MOL0     C90128   9.355   3.400   4.865  0.5177 -0.2663  0.4066
  654MOL0     C90129   9.404   3.333   4.997  0.2717  0.1203  0.2957
  654MOL0     C90130   9.301   3.249   5.068 -0.0626  0.1144  0.4133
  654MOL0     N90131   9.208   3.336   5.137 -0.3516  0.2253  0.7653
  654MOL0     C90132   9.223   3.384   5.265 -0.5072  0.3610  0.1722
  654MOL0     C90133   9.116   3.455   5.291  0.0371 -0.3821  0.3682
  654MOL0     C90134   9.084   3.521   5.418  0.2670  0.0458 -0.0575
  654MOL0     C90135   9.083   3.672   5.385  0.5312  0.8003 -0.3711
  654MOL0     C90136   9.037   3.754   5.510 -0.0642 -0.2004  0.0411
  654MOL0     C90137   9.015   3.903   5.475 -0.2059  0.9664  0.1854
  654MOL0     O90138   9.117   3.996   5.499  0.1940 -0.0072  0.6199
  654MOL0     C90139   9.151   4.046   5.625  0.2487  0.5228  0.0845
  654MOL0     C90140   9.105   3.998   5.748  0.0843  0.4782 -0.2941
  654MOL0     C90141   9.155   4.034   5.869 -0.0823 -0.2661 -0.4754
  654MOL0     C90142   9.091   3.974   5.994  0.1624  0.1869 -0.1361
  654MOL0     C90143   9.267   4.127   5.874 -0.1279 -1.1199  0.6502
  654MOL0     C90144   9.331   4.160   5.999 -0.1830 -0.4908 -0.9973
  654MOL0     O90145   9.460   4.207   6.004 -0.1212 -0.2306  0.4739
  654MOL0     C90146   9.534   4.218   6.121  0.0278  0.2579  0.6843
  654MOL0     C90147   9.498   4.289   6.227  0.2462  0.7501  0.2990
  654MOL0     C90148   9.577   4.309   6.338 -0.0380 -0.3342 -0.0213
  654MOL0     C90149   9.708   4.249   6.340  0.3212 -0.2268 -0.3495
  654MOL0     O90150   9.809   4.276   6.432 -0.3991  0.0481  0.4838
  654MOL0     C90151   9.783   4.343   6.552 -0.8354 -0.4866 -0.5256
  654MOL0     C90152   9.923   4.376   6.635  0.3634  0.2198  0.7536
  654MOL0     C90153   9.997   4.248   6.672 -0.4124  0.4796 -0.3460
  654MOL0     C90154   9.925   4.126   6.718  0.6283  0.6241  0.0065
  654MOL0     C90155  10.012   4.038   6.804  0.5464 -0.8221  0.3475
  654MOL0     C90156   9.956   3.906   6.843 -0.0652 -0.7816 -0.0206
  654MOL0     C90157   9.922   3.808   6.735  0.4091 -0.4632 -0.3620
  654MOL0     C90158   9.827   3.708   6.784  0.9964 -0.2063 -0.0959
  654MOL0    Cl90159   9.884   3.608   6.922  0.3126 -0.0626 -0.8200
  654MOL0     C90160   9.734   4.161   6.239  1.0524  0.7586  0.4178
  654MOL0     C90161   9.653   4.143   6.129 -0.4764 -0.4793  0.7758
  654MOL0     O90162   9.257   4.171   6.098 -0.2392  0.1618 -0.2140
  654MOL0     C90163   9.319   4.169   5.750 -0.9889  0.3242  0.8744
  654MOL0     C90164   9.264   4.127   5.630 -0.3490 -0.4551 -0.1401
  654MOL0     N90165   9.032   3.454   5.180  0.1785 -0.2268 -0.3234
  654MOL0     N90166   9.096   3.397   5.089 -0.2471 -0.0938 -0.1369
  654MOL0     C90167   9.365   3.749   4.428  0.0215 -0.5220 -0.0039
  654MOL0     C90168   9.341   3.894   4.422 -0.4305 -0.9274 -0.0550
  654MOL0     C90169   9.353   4.317   4.333  0.1260 -0.2342 -0.6303
  654MOL0     C90170   9.412   4.400   4.233  0.9644 -0.7934  0.0772
  654MOL0     C90171   9.383   4.541   4.226 -0.0121 -0.4634 -0.1738
  654MOL0     C90172   9.310   4.599   4.326  0.4329  0.5472 -0.0395
  654MOL0     O90173   9.297   4.739   4.334 -0.1448  0.4683 -0.4437
  654MOL0     C90174   9.235   4.811   4.442 -0.4402  1.0173  0.4101
  654MOL0     C90175   9.281   4.954   4.429  0.5618 -0.6564 -0.7173
  654MOL0     C90176   9.201   5.056   4.511 -0.1844 -0.0389 -1.0092
  654MOL0     C90177   9.164   4.995   4.647 -1.0295 -0.5857  0.7586
  654MOL0     C90178   9.105   5.093   4.744  0.0111 -0.5757 -0.4216
  654MOL0     C90179   9.071   5.182   4.819  0.6758  0.1428  0.0347
  654MOL0     C90180   9.257   4.513   4.434 -0.0075 -0.4124 -0.6945
  654MOL0     C90181   9.274   4.374   4.442 -0.1850  0.6268  0.2983
  654MOL0     C90182   9.194   4.303   4.549  0.0260 -0.5004  0.9452
  654MOL0     H90183   9.152   3.915   4.135 -1.4876  1.6544  0.6929
  654MOL0     H90184   9.160   3.676   4.166 -0.0476 -0.9077  0.9270
  654MOL0     H90185   9.215   3.352   4.348 -0.1620 -0.0960  5.0056
  654MOL0     H90186   9.114   3.474   4.266 -0.5608 -3.1537 -1.2677
  654MOL0     H90187   9.045   3.567   4.489  0.8686  1.4860  1.9561
  654MOL0     H90188   9.027   3.386   4.494 -1.5607  1.5987 -1.6460
  654MOL0     H90189   9.250   3.553   4.620  0.8430 -0.0817  1.1087
  654MOL0     H90190   9.114   3.469   4.690 -1.3992 -3.5444 -2.3666
  654MOL0     H90191   9.214   3.244   4.595 -0.2598  0.6673  1.9429
  654MOL0     H90192   9.368   3.333   4.589  0.4543  0.3597 -0.5451
  654MOL0     H90193   9.352   3.196   4.774  0.6119  0.8210 -2.4577
  654MOL0     H90194   9.193   3.273   4.822  0.5491 -0.1899  1.4846
  654MOL0     H90195   9.430   3.455   4.808  0.0978  1.2844  1.2977
  654MOL0     H90196   9.286   3.479   4.894 -0.1045 -0.9810  0.9275
  654MOL0     H90197   9.458   3.399   5.065  0.5994  0.9749 -0.7582
  654MOL0     H90198   9.479   3.267   4.950  0.4140  1.6285 -1.7445
  654MOL0     H90199   9.236   3.191   5.001  0.0356  0.6844 -0.1840
  654MOL0     H90200   9.352   3.182   5.138  0.7713 -0.6020 -0.8477
  654MOL0     H90201   9.304   3.380   5.337 -1.5991  1.3233  1.5107
  654MOL0     H90202   9.157   3.495   5.495 -0.1261  2.2955  1.1817
  654MOL0     H90203   8.988   3.484   5.456  0.2642  0.6335  0.5403
  654MOL0     H90204   9.180   3.711   5.351  1.5737 -2.9704 -2.3575
  654MOL0     H90205   9.008   3.688   5.307  1.4295 -0.1546 -1.4826
  654MOL0     H90206   8.943   3.720   5.554 -0.6048  2.5106  1.1260
  654MOL0     H90207   9.112   3.741   5.589  0.8612  0.2633 -0.7271
  654MOL0     H90208   8.977   3.916   5.373 -0.8766  0.0190  0.3049
  654MOL0     H90209   8.931   3.937   5.536 -0.5377 -1.0468  0.9057
  654MOL0     H90210   9.031   3.919   5.746  1.7683 -1.2912  1.6004
  654MOL0     H90211   9.039   3.883   5.965  1.2144  0.5434 -3.6045
  654MOL0     H90212   9.016   4.050   6.018 -0.4022 -0.2905 -0.3808
  654MOL0     H90213   9.159   3.953   6.077  0.4207  0.1609 -0.3502
  654MOL0     H90214   9.405   4.344   6.215  1.8432  3.8778  1.1764
  654MOL0     H90215   9.532   4.373   6.413 -1.0189 -2.1008  0.9674
  654MOL0     H90216   9.746   4.442   6.526 -1.3487 -0.7253 -0.7227
  654MOL0     H90217   9.701   4.297   6.608 -2.4762  0.2596 -2.2255
  654MOL0     H90218   9.992   4.444   6.585  2.2138 -1.3724  0.9988
  654MOL0     H90219   9.893   4.435   6.722  2.3430  0.7011  1.1452
  654MOL0     H90220  10.078   4.271   6.741  1.0858 -3.0250 -0.7065
  654MOL0     H90221  10.047   4.228   6.577  1.6126  4.7130 -0.3909
  654MOL0     H90222   9.904   4.067   6.628  1.1707 -1.3247  1.1119
  654MOL0     H90223   9.830   4.152   6.766  0.9512  1.5321  0.1734
  654MOL0     H90224  10.108   4.032   6.751  0.1086 -2.2748 -0.3501
  654MOL0     H90225  10.041   4.092   6.894  0.7923 -0.8919  0.3124
  654MOL0     H90226   9.859   3.926   6.891 -0.2448  0.2601 -0.7910
  654MOL0     H90227  10.026   3.854   6.909 -0.7506  0.4009  1.6976
  654MOL0     H90228  10.016   3.760   6.709  1.8117  1.5312  0.7538
  654MOL0     H90229   9.870   3.862   6.655 -1.0185 -0.8035  0.2904
  654MOL0     H90230   9.807   3.647   6.695  0.5520 -1.5840  0.9262
  654MOL0     H90231   9.737   3.763   6.812  0.0282 -1.0482 -1.4052
  654MOL0     H90232   9.831   4.113   6.246  0.4740 -0.3723  0.9714
  654MOL0     H90233   9.690   4.066   6.061  0.8147  0.3764  0.4978
  654MOL0     H90234   9.414   4.221   5.756 -0.2420 -0.7515 -0.8135
  654MOL0     H90235   9.311   4.156   5.537  2.3184 -1.5981  0.7479
  654MOL0     H90236   9.426   3.704   4.506  0.2755 -2.9851 -1.5233
  654MOL0     H90237   9.393   3.965   4.485 -0.6149 -0.6468 -0.2190
  654MOL0     H90238   9.479   4.351   4.162  0.7294 -1.4395  0.2927
  654MOL0     H90239   9.415   4.617   4.156  1.7328 -2.1912 -1.3483
  654MOL0     H90240   9.126   4.806   4.438 -0.4587 -0.6364  1.8040
  654MOL0     H90241   9.266   4.765   4.537  2.2508  0.6484 -0.5531
  654MOL0     H90242   9.273   4.980   4.323 -0.6340  0.5258 -0.3521
  654MOL0     H90243   9.391   4.955   4.431  0.6043  2.3116 -0.5731
  654MOL0     H90244   9.278   5.132   4.525  3.3185 -3.7586  3.7179
  654MOL0     H90245   9.115   5.088   4.452 -1.2985 -0.0989  0.5313
  654MOL0     H90246   9.252   4.957   4.699 -0.8047  0.8712  1.4783
  654MOL0     H90247   9.082   4.924   4.636 -2.2774  1.1007 -1.6342
  654MOL0     H90248   9.039   5.266   4.879  0.1914 -0.2397  0.3206
  654MOL0     H90249   9.197   4.561   4.511  1.9070  1.1411 -0.0959
  654MOL0     H90250   9.085   4.311   4.538  0.3484  0.3540 -3.4692
  654MOL0     H90251   9.205   4.195   4.555 -4.3150 -1.2842 -1.0327
  654MOL0     H90252   9.216   4.350   4.645 -1.0111  0.2538  0.8336
  655MOL0     O90253   0.243   1.342   7.449 -0.2439 -0.4308  0.2178
  655MOL0     C90254   0.154   1.414   7.409  0.4767 -0.2343  0.7091
  655MOL0     O90255   0.041   1.443   7.476  0.3299 -0.0676  1.0511
  655MOL0     C90256  -0.004   1.345   7.562 -0.3060 -0.0567 -0.5254
  655MOL0     C90257  -0.054   1.220   7.528  0.5482  1.2649  0.1615
  655MOL0     C90258  -0.104   1.131   7.619 -0.1448 -0.5989  0.3997
  655MOL0     C90259  -0.107   1.145   7.752  0.3210 -0.0029 -0.5184
  655MOL0     O90260  -0.145   1.039   7.831 -0.4625 -0.3261  0.1388
  655MOL0     C90261  -0.082   1.029   7.963  0.2718  0.5050  0.5392
  655MOL0     C90262  -0.155   0.940   8.065 -1.2449 -0.5162  0.8232
  655MOL0     C90263  -0.312   0.956   8.065 -0.1882 -0.6957  0.1366
  655MOL0     C90264  -0.384   0.824   8.098 -1.3903 -0.3208  0.1807
  655MOL0     C90265  -0.540   0.839   8.128 -0.9129  0.3764 -0.3853
  655MOL0     C90266  -0.612   0.713   8.200 -0.8511 -0.1791  0.8240
  655MOL0     C90267  -0.589   0.594   8.106  0.1141  0.3025  0.5938
  655MOL0     C90268  -0.656   0.476   8.177  0.0266 -0.5017 -0.5226
  655MOL0     N90269  -0.641   0.351   8.091 -0.2750  0.1309 -0.7542
  655MOL0     C90270  -0.738   0.291   8.018 -0.3569 -0.0018 -0.3062
  655MOL0     C90271  -0.669   0.198   7.955 -0.7903 -0.0141  0.3653
  655MOL0     C90272  -0.730   0.097   7.853  0.8066 -0.3209  0.3246
  655MOL0     C90273  -0.787  -0.021   7.935  0.3141  0.1776  0.1932
  655MOL0     C90274  -0.830  -0.136   7.835 -0.1106 -0.2032 -0.6473
  655MOL0     C90275  -0.863  -0.275   7.901 -0.3928  0.5786  0.3486
  655MOL0     O90276  -0.924  -0.370   7.806 -0.0471  0.5989 -0.0876
  655MOL0     C90277  -0.845  -0.443   7.712 -0.7860  0.0393 -0.4838
  655MOL0     C90278  -0.896  -0.532   7.616 -0.9819 -0.2515  0.4628
  655MOL0     C90279  -0.818  -0.609   7.524  0.7731 -0.1118  0.3792
  655MOL0     C90280  -0.894  -0.697   7.437 -0.8054  0.5327 -0.1249
  655MOL0     C90281  -0.682  -0.609   7.542  0.4259  0.4825 -0.2018
  655MOL0     C90282  -0.596  -0.705   7.466  0.5944  1.0283 -0.8979
  655MOL0     O90283  -0.496  -0.658   7.381 -0.7009 -0.8820  0.4986
  655MOL0     C90284  -0.445  -0.733   7.273 -0.0034 -1.2074  0.8689
  655MOL0     C90285  -0.519  -0.722   7.152 -0.4284  0.5762  0.1675
  655MOL0     C90286  -0.477  -0.792   7.044  0.0584 -0.4069  1.0148
  655MOL0     C90287  -0.363  -0.859   7.039 -0.5310  0.2693 -0.4215
  655MOL0     O90288  -0.320  -0.907   6.921 -0.8292  0.0540 -0.0686
  655MOL0     C90289  -0.183  -0.929   6.903 -0.7323  0.1530 -0.8002
  655MOL0     C90290  -0.168  -0.965   6.764  0.2111 -0.3448  0.1433
  655MOL0     C90291  -0.028  -1.017   6.736  0.1597 -0.3174 -0.2412
  655MOL0     C90292   0.005  -0.990   6.581  0.3277  0.3478 -0.2744
  655MOL0     C90293   0.153  -0.998   6.534 -1.0116 -0.6155  0.0575
  655MOL0     C90294   0.245  -1.095   6.610 -0.0553  0.5163  0.2267
  655MOL0     C90295   0.391  -1.082   6.549  0.0561  0.5545  0.6258
  655MOL0     C90296   0.470  -1.211   6.552 -0.3099 -0.0314 -0.3063
  655MOL0    Cl90297   0.381  -1.345   6.474 -0.3988  0.4413  0.5375
  655MOL0     C90298  -0.278  -0.867   7.160  0.2340 -0.6488 -0.0135
  655MOL0     C90299  -0.327  -0.806   7.279 -0.2488  0.4240  0.1783
  655MOL0     O90300  -0.630  -0.822   7.471 -0.0794  0.5843 -0.1187
  655MOL0     C90301  -0.627  -0.524   7.629 -0.6507  0.2120 -0.6962
  655MOL0     C90302  -0.709  -0.450   7.720 -0.0429  0.0468 -0.2708
  655MOL0     N90303  -0.535   0.207   7.971 -0.5896 -0.7730  0.5368
  655MOL0     N90304  -0.520   0.297   8.057 -0.4109 -0.4661 -0.0846
  655MOL0     C90305  -0.082   1.281   7.791 -0.7855  0.5022 -1.2981
  655MOL0     C90306  -0.019   1.376   7.702  0.7867  0.5161  0.4588
  655MOL0     C90307   0.190   1.493   7.294 -0.5498 -0.2839  1.3177
  655MOL0     C90308   0.152   1.632   7.290 -0.0765  1.4430 -0.4606
  655MOL0     C90309   0.186   1.726   7.184  0.0894  1.4906  0.5693
  655MOL0     C90310   0.276   1.683   7.096  0.3684 -0.1746  0.5769
  655MOL0     O90311   0.326   1.758   6.995  0.0525  0.3318 -0.9485
  655MOL0     C90312   0.457   1.803   7.027 -0.7280  0.0891 -0.1963
  655MOL0     C90313   0.527   1.852   6.902  0.1165  0.3310 -0.1079
  655MOL0     C90314   0.557   1.732   6.801  0.0122 -0.8824 -0.3702
  655MOL0     C90315   0.604   1.786   6.669  0.1440 -1.0603  0.1307
  655MOL0     C90316   0.726   1.862   6.677 -0.7549 -0.5662 -0.5213
  655MOL0     C90317   0.822   1.929   6.688  0.6132 -0.7057 -0.5686
  655MOL0     C90318   0.300   1.545   7.083 -0.7534 -0.5894  0.4883
  655MOL0     C90319   0.264   1.453   7.181  0.4022 -0.2448 -0.5811
  655MOL0     C90320   0.317   1.311   7.162 -0.5880 -0.4901 -0.3211
  655MOL0     H90321  -0.067   1.184   7.426 -0.3011 -0.7786  0.9414
  655MOL0     H90322  -0.143   1.044   7.567 -2.3024  1.2269 -1.2290
  655MOL0     H90323  -0.053   1.128   8.000  2.9171 -0.0446  0.1157
  655MOL0     H90324   0.013   0.979   7.941 -0.1766  0.4124 -1.2916
  655MOL0     H90325  -0.124   0.837   8.046  0.0280 -0.2486  1.3424
  655MOL0     H90326  -0.113   0.974   8.160  1.6136  2.1680 -1.1501
  655MOL0     H90327  -0.341   1.030   8.141 -0.1163 -1.7018  1.1850
  655MOL0     H90328  -0.341   0.998   7.969 -0.8941  0.5423  0.8647
  655MOL0     H90329  -0.369   0.756   8.014 -0.5345  1.5409 -1.2370
  655MOL0     H90330  -0.327   0.788   8.185 -0.3553 -0.0020 -0.3489
  655MOL0     H90331  -0.585   0.854   8.029 -0.3560 -0.3916 -0.7658
  655MOL0     H90332  -0.551   0.934   8.182  2.1415 -0.4025  1.8867
  655MOL0     H90333  -0.573   0.701   8.302 -2.3586  1.6575  1.6983
  655MOL0     H90334  -0.720   0.727   8.217 -1.2029 -1.3583 -0.2675
  655MOL0     H90335  -0.486   0.576   8.075  0.4695  1.9477  0.7442
  655MOL0     H90336  -0.651   0.597   8.016  0.4158  1.1665  0.4068
  655MOL0     H90337  -0.615   0.462   8.277  1.0775 -0.6210 -0.9506
  655MOL0     H90338  -0.763   0.496   8.187  0.5110  2.4091 -0.3083
  655MOL0     H90339  -0.844   0.309   8.028 -0.3531 -0.1963  0.1214
  655MOL0     H90340  -0.651   0.054   7.790  1.1834 -1.9503  1.8445
  655MOL0     H90341  -0.795   0.139   7.775  2.3701 -3.4081 -2.9759
  655MOL0     H90342  -0.708  -0.053   8.003  0.2250 -0.8519 -0.1737
  655MOL0     H90343  -0.875   0.021   7.986  0.3316  1.7008 -0.9619
  655MOL0     H90344  -0.920  -0.100   7.784 -0.0472  1.3770  0.3010
  655MOL0     H90345  -0.757  -0.159   7.757  1.5773 -0.9567  1.0714
  655MOL0     H90346  -0.770  -0.315   7.945 -0.7793  1.7164  2.2958
  655MOL0     H90347  -0.935  -0.257   7.981 -2.5703 -0.3096 -1.3225
  655MOL0     H90348  -1.003  -0.514   7.614 -1.1414 -1.1599 -1.7373
  655MOL0     H90349  -0.978  -0.642   7.394 -0.3322  1.2871 -0.0952
  655MOL0     H90350  -0.925  -0.786   7.493 -0.2457  0.8397  0.6876
  655MOL0     H90351  -0.833  -0.731   7.352  1.2926 -0.4303  1.6639
  655MOL0     H90352  -0.613  -0.667   7.143 -1.8309 -1.6015  0.6792
  655MOL0     H90353  -0.545  -0.798   6.960 -0.0129 -0.5946  1.0861
  655MOL0     H90354  -0.126  -0.841   6.935 -0.3332 -0.9093  1.6877
  655MOL0     H90355  -0.161  -1.016   6.965 -1.2190 -0.5542 -1.5999
  655MOL0     H90356  -0.226  -1.054   6.737  2.7410 -1.8240 -0.8203
  655MOL0     H90357  -0.190  -0.876   6.704 -0.6820 -1.1671 -0.7798
  655MOL0     H90358  -0.023  -1.124   6.760 -2.0414 -1.0885 -2.7817
  655MOL0     H90359   0.051  -0.974   6.798  1.5435  2.3568 -3.4842
  655MOL0     H90360  -0.030  -0.889   6.562  2.0156  0.4593 -3.2885
  655MOL0     H90361  -0.058  -1.061   6.528 -2.7841  1.2876  1.8889
  655MOL0     H90362   0.163  -1.027   6.429  1.5086 -0.1676  0.1147
  655MOL0     H90363   0.208  -0.904   6.538  1.3571 -1.6123 -3.8156
  655MOL0     H90364   0.216  -1.200   6.594  1.2593 -0.2188  2.2810
  655MOL0     H90365   0.261  -1.074   6.716  2.4066  1.2857 -0.2253
  655MOL0     H90366   0.443  -1.009   6.611 -3.4228 -0.4598  5.2880
  655MOL0     H90367   0.387  -1.048   6.445  0.0527 -0.1557  0.3851
  655MOL0     H90368   0.476  -1.239   6.658 -1.2974 -0.7056 -0.4167
  655MOL0     H90369   0.566  -1.204   6.500  1.1109 -0.7376  2.0575
  655MOL0     H90370  -0.189  -0.929   7.163 -0.0887 -1.1029  0.4706
  655MOL0     H90371  -0.281  -0.802   7.377 -0.8987 -0.5902  0.5276
  655MOL0     H90372  -0.519  -0.517   7.630 -0.5637 -0.7344 -1.6802
  655MOL0     H90373  -0.658  -0.396   7.799  1.3719 -2.4995  0.6725
  655MOL0     H90374  -0.098   1.304   7.896 -0.0561  2.8568 -1.6555
  655MOL0     H90375   0.005   1.474   7.741  3.9506 -0.1788  0.4637
  655MOL0     H90376   0.087   1.665   7.370 -0.1312 -0.3562  0.2786
  655MOL0     H90377   0.170   1.831   7.207  1.8123  1.7032  0.9279
  655MOL0     H90378   0.447   1.884   7.100 -2.2123 -0.6007  0.4154
  655MOL0     H90379   0.510   1.721   7.075 -1.6610 -0.7860 -0.6408
  655MOL0     H90380   0.624   1.899   6.922  1.8044 -2.2312 -1.5884
  655MOL0     H90381   0.462   1.918   6.843  0.3127 -0.0252 -0.7370
  655MOL0     H90382   0.630   1.664   6.847 -0.8610 -0.8933  1.0584
  655MOL0     H90383   0.459   1.688   6.781  0.0595 -1.0862 -0.1704
  655MOL0     H90384   0.526   1.850   6.626 -0.5577 -2.0480 -0.1116
  655MOL0     H90385   0.619   1.715   6.587 -0.5617 -0.0994 -0.8624
  655MOL0     H90386   0.905   1.984   6.728 -1.3687  0.8189  1.7210
  655MOL0     H90387   0.368   1.512   7.004  1.7909 -2.2396  3.1467
  655MOL0     H90388   0.234   1.246   7.190 -1.2154  1.2281  2.0431
  655MOL0     H90389   0.325   1.297   7.053 -0.7784 -1.6018 -0.2065
  655MOL0     H90390   0.419   1.296   7.200 -0.5821  2.2146  0.9596
  656MOL0     O90391   9.598   0.600   0.494  0.2745 -0.4931  0.1305
  656MOL0     C90392   9.563   0.632   0.382  0.1591  0.1365 -0.6086
  656MOL0     O90393   9.640   0.631   0.272 -0.5702 -0.9287 -0.2437
  656MOL0     C90394   9.775   0.610   0.290  0.1624 -0.7515  0.6477
  656MOL0     C90395   9.832   0.516   0.203 -0.0309  0.7450 -0.4488
  656MOL0     C90396   9.969   0.501   0.191  0.3425 -0.3601  0.7616
  656MOL0     C90397  10.051   0.574   0.283  0.4997  0.6482 -0.6991
  656MOL0     O90398  10.189   0.561   0.293 -0.6188 -0.3956 -0.1172
  656MOL0     C90399  10.263   0.507   0.187  0.2636  0.4795 -0.3884
  656MOL0     C90400  10.411   0.516   0.229  0.2245  0.7936 -0.4698
  656MOL0     C90401  10.430   0.427   0.345  0.9928  1.1195 -1.6433
  656MOL0     C90402  10.569   0.396   0.401 -0.5535  0.2413  0.0048
  656MOL0     C90403  10.660   0.299   0.325 -0.2744  0.3727 -0.2616
  656MOL0     C90404  10.622   0.150   0.310  0.8000  0.3994 -0.1826
  656MOL0     C90405  10.720   0.088   0.213 -0.0608  0.3688  0.0261
  656MOL0     C90406  10.690  -0.062   0.201  0.5194  0.1230 -0.0254
  656MOL0     N90407  10.787  -0.135   0.118  0.2029 -0.4719 -0.0397
  656MOL0     C90408  10.920  -0.161   0.151  0.1375 -0.1938  0.1614
  656MOL0     C90409  10.961  -0.243   0.044  0.2630 -0.0629 -1.2134
  656MOL0     C90410  11.095  -0.315   0.043 -1.1604  0.1078  0.6630
  656MOL0     C90411  11.133  -0.365  -0.100 -0.1591 -0.4454  0.1691
  656MOL0     C90412  11.066  -0.495  -0.151 -0.9643 -0.5781 -0.3526
  656MOL0     C90413  11.120  -0.521  -0.291  0.1631  0.3207  0.4861
  656MOL0     O90414  11.250  -0.556  -0.271 -0.7005 -0.2544  0.5735
  656MOL0     C90415  11.336  -0.552  -0.381 -0.3250  0.3141 -0.1064
  656MOL0     C90416  11.335  -0.461  -0.492  0.4041  0.4184 -0.2150
  656MOL0     C90417  11.436  -0.452  -0.585 -0.5715  0.3112  0.1138
  656MOL0     C90418  11.440  -0.336  -0.676 -0.6388  0.1094 -1.7062
  656MOL0     C90419  11.535  -0.549  -0.571  0.7055  0.0415 -0.7131
  656MOL0     C90420  11.654  -0.555  -0.663 -0.2545 -0.6500 -0.9336
  656MOL0     O90421  11.628  -0.547  -0.796  0.8684  0.1483  0.4568
  656MOL0     C90422  11.736  -0.565  -0.883 -0.1999  0.6976 -0.6578
  656MOL0     C90423  11.728  -0.673  -0.969  0.5140 -0.2522  1.4589
  656MOL0     C90424  11.833  -0.699  -1.050  0.4776  0.2818  0.1360
  656MOL0     C90425  11.955  -0.630  -1.038 -0.0207  0.8199 -0.6971
  656MOL0     O90426  12.061  -0.661  -1.126  0.3756 -0.1516  0.5920
  656MOL0     C90427  12.195  -0.631  -1.087  0.0542  0.1580 -0.1755
  656MOL0     C90428  12.304  -0.695  -1.178  0.2292 -0.3607 -0.0619
  656MOL0     C90429  12.321  -0.630  -1.316 -0.2974 -0.2114  0.9856
  656MOL0     C90430  12.353  -0.486  -1.317  0.1124 -0.0027  0.8128
  656MOL0     C90431  12.415  -0.469  -1.459  0.0779  0.4562  0.0315
  656MOL0     C90432  12.396  -0.336  -1.527 -0.3675 -0.3379  1.0156
  656MOL0     C90433  12.462  -0.327  -1.668 -0.0707  0.0339  0.2956
  656MOL0     C90434  12.505  -0.186  -1.722  0.3849 -0.1676  0.2380
  656MOL0    Cl90435  12.617  -0.197  -1.857  0.2628  0.0930 -0.3367
  656MOL0     C90436  11.964  -0.513  -0.953  0.8939 -0.6126 -0.1641
  656MOL0     C90437  11.855  -0.483  -0.873  0.9391 -0.5706  0.4206
  656MOL0     O90438  11.766  -0.559  -0.608 -0.1992  0.2740 -0.4202
  656MOL0     C90439  11.541  -0.641  -0.457 -0.3346 -0.4457  0.1391
  656MOL0     C90440  11.441  -0.637  -0.361  0.0644  0.0531 -0.5539
  656MOL0     N90441  10.861  -0.249  -0.049  0.1082 -0.5866 -1.0921
  656MOL0     N90442  10.758  -0.178  -0.004  0.9716 -0.2354 -0.3076
  656MOL0     C90443   9.997   0.673   0.370  0.4486  0.0199  0.1002
  656MOL0     C90444   9.857   0.695   0.371  0.1335 -0.4019 -0.7345
  656MOL0     C90445   9.422   0.679   0.376  0.7107  0.6267  0.5830
  656MOL0     C90446   9.330   0.626   0.461 -0.5431 -0.7118 -0.3471
  656MOL0     C90447   9.200   0.675   0.471  0.5996  0.1099 -0.8945
  656MOL0     C90448   9.157   0.766   0.373 -0.5403 -0.7478  0.0999
  656MOL0     O90449   9.020   0.796   0.368 -0.2853 -0.2854  0.0271
  656MOL0     C90450   8.976   0.917   0.306 -0.4467  0.5181  0.1699
  656MOL0     C90451   8.842   0.950   0.381 -0.4106 -0.1089 -0.4466
  656MOL0     C90452   8.739   0.848   0.371 -0.5795  0.0970 -0.7142
  656MOL0     C90453   8.663   0.834   0.232  0.2969 -0.0173  0.3135
  656MOL0     C90454   8.744   0.780   0.122 -0.6986 -0.8575  0.0872
  656MOL0     C90455   8.810   0.725   0.038  0.6100 -0.0423  0.4273
  656MOL0     C90456   9.256   0.824   0.285 -0.1215  0.0228  0.1555
  656MOL0     C90457   9.387   0.789   0.297 -0.7208 -0.4917 -0.0509
  656MOL0     C90458   9.479   0.856   0.205 -0.3241  0.3106  0.6623
  656MOL0     H90459   9.751   0.474   0.143  0.3440  2.0759 -1.9616
  656MOL0     H90460  10.020   0.427   0.130  3.3599  2.2742 -0.2366
  656MOL0     H90461  10.257   0.567   0.096  1.5426 -1.7823 -2.0778
  656MOL0     H90462  10.237   0.403   0.164  1.1936 -0.3990  2.2717
  656MOL0     H90463  10.476   0.485   0.147  1.7676 -0.9562  1.2984
  656MOL0     H90464  10.434   0.621   0.253  4.6349  0.5107 -2.4507
  656MOL0     H90465  10.377   0.481   0.425  1.9890 -0.8019  0.4219
  656MOL0     H90466  10.401   0.327   0.313 -1.0127  2.0668 -2.9847
  656MOL0     H90467  10.616   0.494   0.410 -1.4321  0.4258  4.2266
  656MOL0     H90468  10.562   0.359   0.503 -0.9989  0.4208  0.0407
  656MOL0     H90469  10.760   0.311   0.367 -0.1228 -0.0319 -0.4978
  656MOL0     H90470  10.677   0.329   0.221  2.0673  0.2184  0.0379
  656MOL0     H90471  10.627   0.097   0.406 -1.1035 -1.3849 -0.9718
  656MOL0     H90472  10.519   0.145   0.272 -0.0456  4.1027  1.2532
  656MOL0     H90473  10.818   0.094   0.263 -0.5669  1.7432  0.8815
  656MOL0     H90474  10.718   0.130   0.112  0.3547 -1.3898 -0.7725
  656MOL0     H90475  10.675  -0.105   0.301  1.0377 -1.8955 -0.7829
  656MOL0     H90476  10.591  -0.073   0.154 -0.4379 -0.7159  2.0541
  656MOL0     H90477  10.976  -0.122   0.235 -0.9225  2.8383 -0.4127
  656MOL0     H90478  11.092  -0.396   0.117 -3.0171 -0.3818  0.1258
  656MOL0     H90479  11.164  -0.238   0.075  0.8314 -1.8925  1.4463
  656MOL0     H90480  11.109  -0.294  -0.179  2.2083 -0.8980 -1.0373
  656MOL0     H90481  11.240  -0.385  -0.109  0.1863  1.7803 -1.3996
  656MOL0     H90482  11.088  -0.579  -0.084 -0.1508 -0.9926 -1.1180
  656MOL0     H90483  10.958  -0.482  -0.161 -1.1534 -2.0825 -0.5663
  656MOL0     H90484  11.068  -0.603  -0.341  0.6976  1.7078 -2.5276
  656MOL0     H90485  11.100  -0.442  -0.364 -1.7723 -1.6833 -1.2710
  656MOL0     H90486  11.249  -0.398  -0.510 -0.2110 -0.2798  0.2358
  656MOL0     H90487  11.451  -0.244  -0.618 -1.3644  0.7328 -2.5379
  656MOL0     H90488  11.344  -0.333  -0.728 -1.1283  0.4589 -0.8015
  656MOL0     H90489  11.529  -0.333  -0.740  0.4321  2.0472 -0.2419
  656MOL0     H90490  11.635  -0.728  -0.968 -0.1232  0.6167 -1.4963
  656MOL0     H90491  11.833  -0.787  -1.114 -1.5745  0.4280 -0.1477
  656MOL0     H90492  12.212  -0.524  -1.075 -2.3895  1.0450 -3.3244
  656MOL0     H90493  12.203  -0.681  -0.989  1.2061 -0.7345 -0.6921
  656MOL0     H90494  12.398  -0.701  -1.123 -0.9893 -0.5832  2.1496
  656MOL0     H90495  12.269  -0.798  -1.186 -1.3529  0.2670 -2.1547
  656MOL0     H90496  12.228  -0.635  -1.373 -0.2812  1.5093  0.7485
  656MOL0     H90497  12.403  -0.675  -1.373  1.2437  0.4827  2.5631
  656MOL0     H90498  12.417  -0.465  -1.231  0.1486  3.2042  0.1143
  656MOL0     H90499  12.270  -0.416  -1.299  1.8096  2.0184  1.2225
  656MOL0     H90500  12.520  -0.495  -1.445 -0.7948 -2.2785  2.5086
  656MOL0     H90501  12.363  -0.535  -1.529 -1.2433  0.3652  1.0487
  656MOL0     H90502  12.437  -0.257  -1.462 -1.6705  0.6788  0.6469
  656MOL0     H90503  12.289  -0.316  -1.538  0.2705  2.8096 -0.6885
  656MOL0     H90504  12.397  -0.385  -1.734  0.0995 -0.9460  0.9593
  656MOL0     H90505  12.556  -0.383  -1.661 -0.7888 -1.1606  0.7339
  656MOL0     H90506  12.561  -0.124  -1.651  0.3524  2.6681 -2.0038
  656MOL0     H90507  12.425  -0.127  -1.769 -0.6620 -2.7908 -1.4694
  656MOL0     H90508  12.046  -0.442  -0.946 -0.5804  1.0077  2.0088
  656MOL0     H90509  11.844  -0.395  -0.811  0.1688 -0.8731  0.7225
  656MOL0     H90510  11.631  -0.701  -0.457 -1.6612 -2.5590  1.3285
  656MOL0     H90511  11.467  -0.701  -0.277  1.2339 -0.3285 -1.1787
  656MOL0     H90512  10.065   0.733   0.429  1.6706 -0.9922 -0.2329
  656MOL0     H90513   9.800   0.769   0.427 -3.3735 -2.2541 -1.5485
  656MOL0     H90514   9.365   0.539   0.517 -0.1498 -1.1727 -1.2815
  656MOL0     H90515   9.132   0.640   0.548 -0.0731  0.9138 -1.1018
  656MOL0     H90516   9.056   0.991   0.312 -1.2887  1.4001  0.9866
  656MOL0     H90517   8.954   0.900   0.200 -1.3048 -1.3115  0.6007
  656MOL0     H90518   8.805   1.047   0.345  2.1324  0.6950 -1.0499
  656MOL0     H90519   8.868   0.948   0.487 -2.7030 -1.3574  0.1628
  656MOL0     H90520   8.761   0.758   0.428  0.4683  0.4428 -0.5652
  656MOL0     H90521   8.671   0.880   0.450  0.2268 -2.0388  0.9331
  656MOL0     H90522   8.616   0.927   0.201 -2.7336 -1.8049 -0.9685
  656MOL0     H90523   8.586   0.761   0.259  1.4933 -1.1993  0.6833
  656MOL0     H90524   8.879   0.671  -0.023 -0.1257  0.5100 -0.9262
  656MOL0     H90525   9.217   0.891   0.209 -0.8842  1.4578  1.7216
  656MOL0     H90526   9.486   0.797   0.113 -0.0784  1.2377  0.0700
  656MOL0     H90527   9.441   0.956   0.183 -1.6526  0.0382  1.5898
  656MOL0     H90528   9.579   0.864   0.249  0.2488  0.6961 -0.6731
  657MOL0     O90529   8.145   9.001  10.200 -0.7388 -1.0073  0.1168
  657MOL0     C90530   8.239   8.952  10.264 -0.3363 -0.0372  0.5941
  657MOL0     O90531   8.370   8.964  10.226 -0.1479  0.6706 -0.8516
  657MOL0     C90532   8.406   9.067  10.139 -0.6494  0.8602  0.1090
  657MOL0     C90533   8.501   9.041  10.040  0.5449  0.0325  0.2249
  657MOL0     C90534   8.541   9.138   9.969 -0.3269 -0.9947  0.3188
  657MOL0     C90535   8.483   9.269   9.973  0.1388 -0.1353  0.5157
  657MOL0     O90536   8.534   9.368   9.894  0.4130 -0.4914 -0.9216
  657MOL0     C90537   8.679   9.393   9.905 -0.2401  0.8103 -0.8120
  657MOL0     C90538   8.693   9.548   9.893 -0.5939 -0.1587 -0.5808
  657MOL0     C90539   8.641   9.596   9.759 -0.1095 -0.3718  0.0305
  657MOL0     C90540   8.687   9.738   9.717  0.4474 -0.2045 -0.3408
  657MOL0     C90541   8.640   9.841   9.819 -0.9222 -0.1823  0.3413
  657MOL0     C90542   8.643   9.988   9.776  0.7274  0.1692 -0.0769
  657MOL0     C90543   8.577  10.066   9.897 -0.2789 -0.1676 -0.0606
  657MOL0     C90544   8.616  10.222   9.877  0.2385  1.1369 -0.2022
  657MOL0     N90545   8.595  10.265  10.012 -0.2842 -1.1346  0.5020
  657MOL0     C90546   8.671  10.362  10.073  0.1542  0.2691  0.5290
  657MOL0     C90547   8.613  10.381  10.196 -0.4368  1.2972 -0.2411
  657MOL0     C90548   8.666  10.480  10.296  0.5855  0.3740 -0.0400
  657MOL0     C90549   8.542  10.515  10.390 -0.7654  0.2720 -0.8225
  657MOL0     C90550   8.587  10.600  10.507  0.1736 -0.0455 -0.1723
  657MOL0     C90551   8.469  10.663  10.591  0.1047 -1.1358  0.0203
  657MOL0     O90552   8.359  10.587  10.624 -0.0936 -0.0936  0.3209
  657MOL0     C90553   8.261  10.642  10.697 -0.3752 -0.0050  0.7655
  657MOL0     C90554   8.250  10.775  10.739  0.9454 -0.6435  0.2630
  657MOL0     C90555   8.135  10.820  10.813 -0.7390  0.6311  1.0556
  657MOL0     C90556   8.132  10.971  10.840  0.4991  0.1794  0.4349
  657MOL0     C90557   8.039  10.728  10.854  0.5790  0.2229 -0.6908
  657MOL0     C90558   7.922  10.763  10.940 -1.2151 -0.3578  0.1527
  657MOL0     O90559   7.838  10.662  10.966 -0.0381 -0.2173  0.3364
  657MOL0     C90560   7.718  10.688  11.027 -0.2660 -0.0900  0.6336
  657MOL0     C90561   7.612  10.605  10.985 -0.8984 -0.3708  0.8929
  657MOL0     C90562   7.481  10.625  11.030 -0.2681  0.3171 -0.4119
  657MOL0     C90563   7.450  10.728  11.120  0.5198  0.5742  0.1657
  657MOL0     O90564   7.319  10.732  11.167 -0.8933  0.5382 -0.4923
  657MOL0     C90565   7.263  10.854  11.218  0.4847  0.4914 -0.7475
  657MOL0     C90566   7.116  10.836  11.233 -0.8192  0.0847  0.6283
  657MOL0     C90567   7.040  10.787  11.108  0.3387  1.3906  0.6780
  657MOL0     C90568   6.904  10.728  11.137 -0.9640 -0.2769  0.6206
  657MOL0     C90569   6.819  10.698  11.004  0.0754  0.9057  0.8492
  657MOL0     C90570   6.681  10.646  11.039 -0.7154 -0.4152 -0.0975
  657MOL0     C90571   6.609  10.602  10.909 -0.6935  0.1254 -0.7368
  657MOL0     C90572   6.461  10.556  10.949  0.2651  0.2638  0.0667
  657MOL0    Cl90573   6.479  10.396  11.040  0.5908  0.5034  0.1477
  657MOL0     C90574   7.547  10.815  11.159 -0.4654  0.7295  0.5077
  657MOL0     C90575   7.682  10.787  11.116 -0.5992 -0.3477  0.0385
  657MOL0     O90576   7.905  10.883  10.961  0.5225  0.2739  0.2509
  657MOL0     C90577   8.049  10.596  10.802 -0.4046 -0.8800  0.2000
  657MOL0     C90578   8.151  10.560  10.718 -0.2896 -0.1432  0.1850
  657MOL0     N90579   8.504  10.295  10.203 -0.0679 -0.0994 -0.1174
  657MOL0     N90580   8.484  10.235  10.089 -0.0454  0.6608  0.2353
  657MOL0     C90581   8.381   9.291  10.064 -0.3197  0.1431  0.3105
  657MOL0     C90582   8.348   9.195  10.160  0.3589 -1.7330  0.8033
  657MOL0     C90583   8.197   8.877  10.383 -0.0071 -0.1106 -0.7711
  657MOL0     C90584   8.278   8.768  10.418 -0.3294 -1.5242 -1.2890
  657MOL0     C90585   8.237   8.670  10.515 -1.2626  0.4129  0.1858
  657MOL0     C90586   8.115   8.690  10.586 -0.9135 -0.9540  1.2090
  657MOL0     O90587   8.062   8.614  10.683  0.2251 -0.0473 -0.1631
  657MOL0     C90588   8.145   8.514  10.749  0.2136  0.2139  0.5087
  657MOL0     C90589   8.126   8.368  10.700  0.0148  0.0231  0.1565
  657MOL0     C90590   7.999   8.336  10.628  0.2100 -0.2986 -0.7610
  657MOL0     C90591   7.899   8.338  10.745 -0.3986  0.0174 -0.3846
  657MOL0     C90592   7.782   8.271  10.697 -0.1212  0.3143  0.7477
  657MOL0     C90593   7.682   8.221  10.653 -0.4122 -0.0080  0.2586
  657MOL0     C90594   8.030   8.801  10.546 -0.4438  0.6481  0.2823
  657MOL0     C90595   8.074   8.886  10.449  0.1926  0.3287 -0.0482
  657MOL0     C90596   7.971   8.983  10.419 -0.0705 -0.2129 -0.2349
  657MOL0     H90597   8.539   8.941  10.020 -1.7965 -0.4992 -2.1377
  657MOL0     H90598   8.606   9.115   9.885 -1.6374  0.4412 -1.1419
  657MOL0     H90599   8.728   9.338   9.824 -2.2832  0.2133 -1.6953
  657MOL0     H90600   8.714   9.352  10.000 -0.9962 -0.6106 -1.1214
  657MOL0     H90601   8.642   9.606   9.970  0.4210  2.6688 -1.9211
  657MOL0     H90602   8.798   9.577   9.887 -0.4078 -1.0325 -2.5384
  657MOL0     H90603   8.652   9.522   9.680  0.1423 -1.6932  1.2735
  657MOL0     H90604   8.533   9.604   9.775 -0.2653  0.0884 -1.1433
  657MOL0     H90605   8.795   9.741   9.700  0.4679 -1.3903 -0.4776
  657MOL0     H90606   8.640   9.758   9.621 -2.9065 -0.5447  1.1149
  657MOL0     H90607   8.698   9.825   9.910  1.7118  1.2324 -0.9452
  657MOL0     H90608   8.535   9.826   9.845 -0.4294 -0.8398  2.1019
  657MOL0     H90609   8.747  10.019   9.761 -0.3471  2.5610 -4.2367
  657MOL0     H90610   8.590  10.000   9.681  2.1887 -0.1006 -0.9663
  657MOL0     H90611   8.620  10.024   9.988 -1.1095 -1.8348 -0.4093
  657MOL0     H90612   8.469  10.048   9.899  0.0017 -2.4564 -1.6021
  657MOL0     H90613   8.719  10.237   9.843  1.6009 -3.4206  1.2205
  657MOL0     H90614   8.547  10.277   9.811 -0.5590 -2.4209 -2.6226
  657MOL0     H90615   8.756  10.412  10.027  0.5141 -0.5571  0.2731
  657MOL0     H90616   8.702  10.575  10.254 -1.2947  1.3195  0.4175
  657MOL0     H90617   8.751  10.437  10.350  1.6810  0.2668 -1.7624
  657MOL0     H90618   8.469  10.568  10.328 -2.1506  1.7162  1.8590
  657MOL0     H90619   8.483  10.426  10.412 -1.2084  0.3473 -1.6749
  657MOL0     H90620   8.662  10.543  10.563 -0.2628 -2.0624 -1.5561
  657MOL0     H90621   8.642  10.690  10.477  2.6664  0.2407  4.2859
  657MOL0     H90622   8.514  10.701  10.683 -2.3482  0.5742  0.6029
  657MOL0     H90623   8.433  10.743  10.527  1.6351 -2.0389 -2.0872
  657MOL0     H90624   8.318  10.855  10.712  0.8798 -1.2961 -2.0463
  657MOL0     H90625   8.040  11.007  10.792 -0.3161 -1.6515  0.5379
  657MOL0     H90626   8.216  11.034  10.809  0.0438  0.3324 -0.5611
  657MOL0     H90627   8.127  10.979  10.949 -0.3183  1.1436  0.3504
  657MOL0     H90628   7.625  10.523  10.915  0.4003 -1.2931  2.1632
  657MOL0     H90629   7.397  10.561  11.006 -0.4391 -0.8579  2.7910
  657MOL0     H90630   7.309  10.873  11.315  0.0305  0.0635 -0.4401
  657MOL0     H90631   7.275  10.938  11.149 -0.6333  1.0329 -0.3087
  657MOL0     H90632   7.082  10.772  11.315 -2.4292  0.5294  0.3542
  657MOL0     H90633   7.066  10.930  11.259 -3.4498 -0.3761 -2.1000
  657MOL0     H90634   7.098  10.712  11.054  0.6288 -0.1160  2.9758
  657MOL0     H90635   7.005  10.873  11.051 -2.4572  1.2238  1.9599
  657MOL0     H90636   6.851  10.799  11.202 -1.3860 -0.6257  0.6603
  657MOL0     H90637   6.914  10.631  11.187  0.1785 -0.2079  0.5488
  657MOL0     H90638   6.826  10.786  10.940 -1.4047  2.6869  2.9811
  657MOL0     H90639   6.877  10.622  10.952  0.9985  1.6311  0.7793
  657MOL0     H90640   6.617  10.715  11.094  0.2569  0.0405  0.4759
  657MOL0     H90641   6.705  10.562  11.106 -1.7253 -0.3218  0.4091
  657MOL0     H90642   6.664  10.522  10.859 -0.9543  0.0546 -0.9137
  657MOL0     H90643   6.617  10.696  10.853  1.0260  0.6137  0.2713
  657MOL0     H90644   6.411  10.528  10.856 -0.9594 -2.6577  1.4799
  657MOL0     H90645   6.400  10.629  11.003  2.1617  2.8297 -1.0450
  657MOL0     H90646   7.523  10.885  11.238  2.8955  2.4047  0.2178
  657MOL0     H90647   7.763  10.840  11.166  2.2156  0.4284 -4.6679
  657MOL0     H90648   7.966  10.527  10.814 -1.7034  0.5287 -0.3475
  657MOL0     H90649   8.141  10.462  10.671 -2.4822 -1.1108  2.4399
  657MOL0     H90650   8.334   9.389  10.057 -2.6682 -0.9460 -0.0119
  657MOL0     H90651   8.284   9.215  10.245  3.9727 -0.8706  3.5910
  657MOL0     H90652   8.370   8.757  10.363 -0.4852  0.1734 -1.9338
  657MOL0     H90653   8.305   8.587  10.533 -0.6852  0.2449 -2.4035
  657MOL0     H90654   8.250   8.546  10.749  0.7671 -1.4879  1.1550
  657MOL0     H90655   8.134   8.519  10.858  0.0465  1.6721  0.4539
  657MOL0     H90656   8.138   8.301  10.786  0.9324 -1.7307 -1.2615
  657MOL0     H90657   8.211   8.357  10.632  2.6189  1.6845  2.8575
  657MOL0     H90658   7.980   8.397  10.540  1.0474 -0.0635 -0.7929
  657MOL0     H90659   7.989   8.231  10.597 -2.1774 -0.7158  1.1637
  657MOL0     H90660   7.872   8.440  10.775 -2.9879 -0.5848 -0.4132
  657MOL0     H90661   7.920   8.284  10.837 -1.8299 -0.2676 -0.2075
  657MOL0     H90662   7.589   8.193  10.608  1.1965 -2.9301 -1.6425
  657MOL0     H90663   7.935   8.818  10.595  0.2662  0.5045  1.7589
  657MOL0     H90664   8.023   9.078  10.405 -0.0104 -0.1385  0.4259
  657MOL0     H90665   7.920   8.964  10.325 -2.5194 -1.9361  1.3327
  657MOL0     H90666   7.889   8.996  10.490 -1.1321 -0.0448 -1.4645
  658MOL0     O90667   2.443   3.547  11.535 -0.5204 -0.6022  1.1078
  658MOL0     C90668   2.566   3.571  11.548  0.6174 -1.0891 -0.1729
  658MOL0     O90669   2.623   3.666  11.634  0.3906 -0.1837  0.9040
  658MOL0     C90670   2.546   3.751  11.719  1.0959  0.0313  0.5937
  658MOL0     C90671   2.623   3.834  11.808  0.8897  0.2435  0.7808
  658MOL0     C90672   2.557   3.914  11.890  0.0167 -1.5420 -0.0187
  658MOL0     C90673   2.420   3.930  11.886  0.1440  0.0249  0.3355
  658MOL0     O90674   2.353   4.018  11.961 -0.4340  0.3869  1.3428
  658MOL0     C90675   2.416   4.132  12.012  0.3943 -0.6715  0.5128
  658MOL0     C90676   2.303   4.226  12.029 -0.3477  0.0709  0.0104
  658MOL0     C90677   2.237   4.285  11.902 -0.3512  0.6523 -0.4726
  658MOL0     C90678   2.140   4.395  11.952  0.0243 -0.0775  0.1197
  658MOL0     C90679   2.124   4.499  11.841  0.6288 -0.2649 -0.1369
  658MOL0     C90680   1.998   4.589  11.868  0.6092  0.8106 -0.9116
  658MOL0     C90681   1.981   4.700  11.757  0.1522  0.0699 -0.0294
  658MOL0     C90682   1.983   4.656  11.608  0.8565  0.1450 -0.0589
  658MOL0     N90683   2.125   4.639  11.565 -0.6319  0.2978  0.2726
  658MOL0     C90684   2.227   4.739  11.556  0.3880  0.5031  0.4732
  658MOL0     C90685   2.322   4.685  11.480 -1.2440 -0.0908 -0.7031
  658MOL0     C90686   2.444   4.761  11.432  0.0615  0.4805 -0.3131
  658MOL0     C90687   2.571   4.699  11.506 -0.7215  0.0059  0.3963
  658MOL0     C90688   2.604   4.546  11.477  0.1743 -0.3165  0.4530
  658MOL0     C90689   2.579   4.515  11.330 -0.7711 -0.4225  0.7882
  658MOL0     O90690   2.628   4.387  11.304 -0.0618  0.3882 -0.3445
  658MOL0     C90691   2.633   4.342  11.177 -0.2443 -0.1660  0.1520
  658MOL0     C90692   2.714   4.232  11.148  0.6944 -0.3310  0.1512
  658MOL0     C90693   2.745   4.187  11.014 -0.2622 -0.5924 -0.2791
  658MOL0     C90694   2.842   4.070  10.997 -0.6490 -0.0742  0.6769
  658MOL0     C90695   2.682   4.256  10.908  0.0396  0.4533  0.4847
  658MOL0     C90696   2.683   4.206  10.766  0.4165  0.1629  0.1589
  658MOL0     O90697   2.702   4.068  10.740 -0.3233  0.6760 -0.3566
  658MOL0     C90698   2.661   4.016  10.624  0.7100 -0.3620  0.1122
  658MOL0     C90699   2.530   4.038  10.570 -0.4643  0.2640 -0.1705
  658MOL0     C90700   2.477   3.971  10.456 -0.6816 -0.2716  0.5263
  658MOL0     C90701   2.565   3.885  10.398 -0.9763  0.2517  0.1303
  658MOL0     O90702   2.533   3.819  10.284  0.2077  0.3459  0.8723
  658MOL0     C90703   2.413   3.741  10.282 -0.3553 -0.0433 -1.0925
  658MOL0     C90704   2.430   3.609  10.210  0.1344 -0.3724 -0.0827
  658MOL0     C90705   2.525   3.523  10.296  0.5610 -0.4244  0.3800
  658MOL0     C90706   2.655   3.487  10.220  0.7188  0.2962  0.0268
  658MOL0     C90707   2.759   3.424  10.316 -0.9431 -0.4080  0.5439
  658MOL0     C90708   2.879   3.352  10.252 -0.4527  0.8098 -1.3255
  658MOL0     C90709   2.940   3.430  10.133  1.0028 -0.8011  0.7469
  658MOL0     C90710   3.061   3.358  10.051  0.1790 -0.9386  0.0430
  658MOL0    Cl90711   3.087   3.445   9.901  0.0711  0.1315  0.3697
  658MOL0     C90712   2.692   3.856  10.441  1.1915  0.0544 -0.0845
  658MOL0     C90713   2.733   3.914  10.561  0.0061 -1.0280 -1.0053
  658MOL0     O90714   2.669   4.287  10.678  0.6103 -0.4740  0.3364
  658MOL0     C90715   2.587   4.365  10.942  0.8674  0.3369  0.7172
  658MOL0     C90716   2.577   4.408  11.069 -0.6459  0.8116  0.2828
  658MOL0     N90717   2.281   4.566  11.434 -0.1654  1.0578 -0.5111
  658MOL0     N90718   2.172   4.529  11.492 -0.0496  0.3838 -0.0762
  658MOL0     C90719   2.342   3.860  11.799 -0.6327  0.9435  0.0714
  658MOL0     C90720   2.403   3.766  11.717 -0.4498 -0.6327 -0.2638
  658MOL0     C90721   2.662   3.474  11.486  0.0093 -0.0009 -0.8088
  658MOL0     C90722   2.603   3.367  11.408 -0.5102 -0.6578 -0.3553
  658MOL0     C90723   2.673   3.276  11.347 -0.7925 -0.2190  0.9168
  658MOL0     C90724   2.813   3.284  11.345  1.2280  0.6141  0.4799
  658MOL0     O90725   2.881   3.184  11.279 -1.3642 -0.3069  0.2992
  658MOL0     C90726   3.021   3.203  11.250 -0.2241 -0.1367 -0.6443
  658MOL0     C90727   3.069   3.110  11.142 -0.1555  0.0514  0.0903
  658MOL0     C90728   3.092   2.980  11.210  0.1831 -0.8195  0.4365
  658MOL0     C90729   3.109   2.866  11.102 -1.6939 -0.6057 -0.0810
  658MOL0     C90730   2.992   2.811  11.023 -0.5612 -0.1436 -0.4149
  658MOL0     C90731   2.883   2.774  10.987  0.4177 -0.1987  0.4866
  658MOL0     C90732   2.871   3.387  11.417  0.0708 -0.0523  0.5474
  658MOL0     C90733   2.802   3.486  11.485  0.2698  0.0725 -0.0502
  658MOL0     C90734   2.884   3.588  11.565  0.1943 -0.1842  0.0278
  658MOL0     H90735   2.731   3.830  11.791  0.7751 -0.8559  0.2444
  658MOL0     H90736   2.605   3.961  11.976 -0.9292  1.3416 -0.9660
  658MOL0     H90737   2.483   4.173  11.936  1.5445 -1.6562  0.9624
  658MOL0     H90738   2.462   4.115  12.110 -1.6432 -0.5238  1.5551
  658MOL0     H90739   2.235   4.172  12.095  1.8119 -1.0799  1.4299
  658MOL0     H90740   2.342   4.311  12.086  1.5634 -1.6161  1.3557
  658MOL0     H90741   2.317   4.316  11.834  2.4297 -3.3530  0.6176
  658MOL0     H90742   2.182   4.206  11.848 -3.3828  1.6562  0.9598
  658MOL0     H90743   2.039   4.360  11.971  0.3391 -0.1224  1.9229
  658MOL0     H90744   2.174   4.443  12.045 -1.8071  0.1511  0.7178
  658MOL0     H90745   2.110   4.440  11.750  1.5492  0.0026 -0.4576
  658MOL0     H90746   2.202   4.571  11.815 -0.7577  0.6778 -1.9248
  658MOL0     H90747   1.905   4.533  11.856 -1.7016  3.9315  0.9096
  658MOL0     H90748   2.002   4.633  11.968 -0.1788 -1.9735  0.4490
  658MOL0     H90749   2.047   4.784  11.780 -2.1794  1.4633  2.2255
  658MOL0     H90750   1.885   4.750  11.776 -0.1452 -0.4223 -0.2063
  658MOL0     H90751   1.924   4.564  11.605  1.8085 -0.4607 -1.2383
  658MOL0     H90752   1.926   4.726  11.547  0.8209 -0.4769 -0.7546
  658MOL0     H90753   2.225   4.838  11.600  3.1814  1.1598 -0.6593
  658MOL0     H90754   2.432   4.863  11.469 -1.6831 -0.0782  0.7696
  658MOL0     H90755   2.460   4.753  11.324  2.3668 -1.3505  0.0657
  658MOL0     H90756   2.655   4.763  11.476 -1.1041  0.6297  0.6454
  658MOL0     H90757   2.567   4.709  11.615 -1.1201  0.2690  0.3595
  658MOL0     H90758   2.706   4.520  11.505  0.8328  0.1866 -1.3882
  658MOL0     H90759   2.539   4.479  11.534 -1.4960  1.6702  1.0156
  658MOL0     H90760   2.476   4.514  11.293 -0.0657 -0.0765 -1.3491
  658MOL0     H90761   2.639   4.587  11.273 -1.2946  0.7818  1.6933
  658MOL0     H90762   2.762   4.171  11.223 -1.5973 -3.5195 -0.7850
  658MOL0     H90763   2.931   4.069  11.061  0.5391  1.0077 -0.8695
  658MOL0     H90764   2.888   4.070  10.898 -0.3798 -1.5468  0.7815
  658MOL0     H90765   2.786   3.978  11.015  1.6014 -1.3717  1.5019
  658MOL0     H90766   2.468   4.097  10.636 -2.8098  1.8261 -3.4975
  658MOL0     H90767   2.374   3.987  10.424 -0.3569 -0.2134 -0.5318
  658MOL0     H90768   2.371   3.715  10.379 -1.4920  1.9031 -1.0045
  658MOL0     H90769   2.328   3.794  10.238 -2.5023 -2.6110 -0.2723
  658MOL0     H90770   2.342   3.545  10.196 -1.3775  1.6127 -0.0387
  658MOL0     H90771   2.484   3.626  10.117 -1.6793  1.6851 -0.8425
  658MOL0     H90772   2.478   3.431  10.331 -0.5665 -0.2105 -0.5250
  658MOL0     H90773   2.561   3.579  10.384  1.0807 -0.4399  0.1834
  658MOL0     H90774   2.702   3.571  10.167 -2.0035  2.9458  1.5142
  658MOL0     H90775   2.632   3.424  10.133 -0.6614  1.6050 -0.6061
  658MOL0     H90776   2.796   3.503  10.382  2.5640 -0.6144 -0.9628
  658MOL0     H90777   2.714   3.363  10.394 -0.7263 -2.1465 -0.6478
  658MOL0     H90778   2.841   3.254  10.222  1.7793 -0.1954 -1.0459
  658MOL0     H90779   2.964   3.339  10.319 -1.6796  0.4774  0.2596
  658MOL0     H90780   2.966   3.530  10.170 -3.8365  1.4035 -1.0195
  658MOL0     H90781   2.865   3.438  10.054 -0.5270  0.3928  2.2389
  658MOL0     H90782   3.027   3.257  10.029  1.2935 -1.0345 -1.3516
  658MOL0     H90783   3.158   3.364  10.100  0.7629 -1.2868 -1.0460
  658MOL0     H90784   2.752   3.781  10.390 -0.0515 -0.3345 -1.0197
  658MOL0     H90785   2.829   3.899  10.609 -1.1869  0.8259  2.2833
  658MOL0     H90786   2.516   4.419  10.880 -0.8093 -0.4849  1.8289
  658MOL0     H90787   2.517   4.498  11.081 -0.4626  0.9976 -0.1736
  658MOL0     H90788   2.235   3.877  11.790 -0.5160  2.4679  1.1453
  658MOL0     H90789   2.337   3.712  11.649 -0.0775 -0.3623 -0.8486
  658MOL0     H90790   2.496   3.366  11.391 -0.2616  2.7708 -3.3962
  658MOL0     H90791   2.631   3.198  11.284  0.3521 -0.6366  0.6392
  658MOL0     H90792   3.021   3.309  11.221 -1.3679 -0.2890 -1.2685
  658MOL0     H90793   3.086   3.198  11.338 -2.2064  0.8441  0.9574
  658MOL0     H90794   3.163   3.134  11.091  0.7104 -4.0659 -0.5941
  658MOL0     H90795   2.996   3.098  11.061  0.1962  4.1041 -1.0619
  658MOL0     H90796   3.177   2.993  11.277  1.1360 -1.5881 -0.5906
  658MOL0     H90797   3.000   2.949  11.261 -1.1895 -1.4741 -2.2573
  658MOL0     H90798   3.156   2.784  11.157 -1.2236  1.6472  3.1780
  658MOL0     H90799   3.180   2.909  11.030  1.3185 -1.3200  2.2745
  658MOL0     H90800   2.792   2.727  10.957  1.5340 -2.1027 -0.1392
  658MOL0     H90801   2.979   3.397  11.422  0.0354  0.4074  0.4934
  658MOL0     H90802   2.861   3.571  11.671  2.2597  1.0309  0.7145
  658MOL0     H90803   2.992   3.571  11.560  0.0780 -0.6783 -1.1387
  658MOL0     H90804   2.853   3.689  11.537  0.2402  0.2098  1.3352
  659MOL0     O90805   0.177   6.379   9.752 -0.6246 -0.4262 -0.1285
  659MOL0     C90806   0.114   6.293   9.814 -0.5707 -0.5074 -0.3433
  659MOL0     O90807  -0.014   6.256   9.805  0.3672 -0.2610  0.7361
  659MOL0     C90808  -0.085   6.306   9.696 -0.1066  0.3409 -0.0273
  659MOL0     C90809  -0.216   6.349   9.723 -0.1662  0.1602 -0.0220
  659MOL0     C90810  -0.297   6.380   9.621 -0.1007  0.1448  0.1850
  659MOL0     C90811  -0.257   6.358   9.488 -0.6359 -0.3749 -0.5401
  659MOL0     O90812  -0.335   6.370   9.381  0.0684 -0.2896  0.2814
  659MOL0     C90813  -0.457   6.442   9.382 -0.9165 -0.4991 -0.4931
  659MOL0     C90814  -0.433   6.588   9.324  0.5996  0.8036 -0.2408
  659MOL0     C90815  -0.572   6.661   9.329  0.5302 -0.0497  0.5700
  659MOL0     C90816  -0.566   6.809   9.274 -0.5753 -0.3844 -1.1107
  659MOL0     C90817  -0.434   6.883   9.307  0.0059 -0.1606 -0.3705
  659MOL0     C90818  -0.454   7.029   9.286 -0.1862 -0.3576 -0.8082
  659MOL0     C90819  -0.322   7.099   9.265  0.0219  0.5691  0.6566
  659MOL0     C90820  -0.225   7.088   9.396  0.1943  0.2122  0.7925
  659MOL0     N90821  -0.255   7.165   9.512  0.2927  0.0768 -0.0461
  659MOL0     C90822  -0.355   7.147   9.603  0.9685 -0.7063 -0.3668
  659MOL0     C90823  -0.334   7.239   9.694 -0.9072  0.1665  0.0785
  659MOL0     C90824  -0.404   7.249   9.825 -0.2146 -0.6185 -0.8006
  659MOL0     C90825  -0.496   7.376   9.835  0.1075 -0.0553 -0.3806
  659MOL0     C90826  -0.644   7.368   9.780 -0.2106 -0.3042 -1.3035
  659MOL0     C90827  -0.663   7.357   9.625  1.1122  0.4206  0.2685
  659MOL0     O90828  -0.804   7.374   9.594 -0.4163  0.4073 -0.0440
  659MOL0     C90829  -0.865   7.313   9.487  0.1941  0.7536 -0.5027
  659MOL0     C90830  -0.803   7.258   9.378 -0.1834 -0.5679  0.0266
  659MOL0     C90831  -0.876   7.197   9.273  0.0974 -0.0841 -0.1207
  659MOL0     C90832  -0.811   7.138   9.149 -0.0069  0.4165 -0.6619
  659MOL0     C90833  -1.020   7.197   9.290  0.5415  0.0565 -0.1635
  659MOL0     C90834  -1.112   7.129   9.184  0.6918 -0.6735  0.1690
  659MOL0     O90835  -1.152   7.185   9.068  0.2413 -0.1591 -0.3103
  659MOL0     C90836  -1.221   7.107   8.982 -0.6400  0.2059  0.2889
  659MOL0     C90837  -1.354   7.071   9.013 -0.0441  0.1854 -0.1246
  659MOL0     C90838  -1.416   6.972   8.933 -0.0872  0.0087 -1.0800
  659MOL0     C90839  -1.352   6.910   8.830 -0.3308  0.3325  0.2878
  659MOL0     O90840  -1.416   6.814   8.759 -0.5518 -0.1049 -0.6291
  659MOL0     C90841  -1.344   6.688   8.721  0.5040 -0.4896  0.8578
  659MOL0     C90842  -1.405   6.625   8.592 -0.0303 -0.2199  0.0335
  659MOL0     C90843  -1.551   6.616   8.612  0.0507 -0.9560 -0.0936
  659MOL0     C90844  -1.618   6.529   8.503 -0.5446 -0.4364  1.0110
  659MOL0     C90845  -1.766   6.516   8.543  0.5917  0.8544  0.6731
  659MOL0     C90846  -1.864   6.454   8.438 -0.2470  0.0349 -0.3656
  659MOL0     C90847  -1.890   6.550   8.326 -1.1007  0.4177 -0.5312
  659MOL0     C90848  -1.974   6.493   8.212 -0.2997 -0.2934 -0.2855
  659MOL0    Cl90849  -1.903   6.352   8.135 -0.2287  0.6291  0.1813
  659MOL0     C90850  -1.219   6.959   8.795  1.4038 -0.5975 -0.3244
  659MOL0     C90851  -1.153   7.056   8.872 -0.2430 -0.4401  0.0184
  659MOL0     O90852  -1.146   7.022   9.234 -0.2705  0.9224  0.4493
  659MOL0     C90853  -1.080   7.234   9.409  1.2534  0.4783 -0.4048
  659MOL0     C90854  -0.997   7.296   9.509  0.2672 -0.2246  0.3834
  659MOL0     N90855  -0.235   7.321   9.663 -0.5683 -0.3343 -0.9234
  659MOL0     N90856  -0.187   7.273   9.554 -0.2089  0.2245  0.4049
  659MOL0     C90857  -0.132   6.306   9.465  0.0347 -0.8472  0.5558
  659MOL0     C90858  -0.042   6.291   9.569  0.2122  0.1454  0.9810
  659MOL0     C90859   0.190   6.232   9.934  0.8889 -0.1822  0.0469
  659MOL0     C90860   0.310   6.165   9.915 -0.5235  0.0558  1.1018
  659MOL0     C90861   0.383   6.112  10.022  0.5397  0.6364 -0.0516
  659MOL0     C90862   0.332   6.116  10.158 -0.2871 -0.6211 -0.1504
  659MOL0     O90863   0.408   6.054  10.255  0.0439 -0.4733  0.1607
  659MOL0     C90864   0.364   6.036  10.389 -0.5282 -0.3486 -0.1370
  659MOL0     C90865   0.443   5.938  10.467  0.1767 -0.2910  0.0251
  659MOL0     C90866   0.404   5.787  10.463 -0.2637  0.1677 -0.8015
  659MOL0     C90867   0.524   5.701  10.491  0.4582  0.2326  0.0920
  659MOL0     C90868   0.592   5.714  10.619  0.3989 -0.3430  0.2533
  659MOL0     C90869   0.655   5.735  10.722 -0.9458 -0.7863 -0.0049
  659MOL0     C90870   0.224   6.195  10.175 -1.1120 -0.2258 -0.6473
  659MOL0     C90871   0.154   6.257  10.071 -0.0957 -0.4176 -0.2196
  659MOL0     C90872   0.035   6.340  10.103 -0.8431  0.5110  0.7258
  659MOL0     H90873  -0.245   6.338   9.827  1.1796  0.1548  0.3730
  659MOL0     H90874  -0.401   6.389   9.651  0.0572 -1.7716  1.4847
  659MOL0     H90875  -0.497   6.455   9.482 -1.0323  3.9828 -0.9136
  659MOL0     H90876  -0.529   6.385   9.323  1.4963 -3.3424 -0.9409
  659MOL0     H90877  -0.363   6.653   9.378  1.3588 -1.0898  1.1571
  659MOL0     H90878  -0.377   6.574   9.232  2.2661  3.0695  0.3237
  659MOL0     H90879  -0.651   6.608   9.273  0.1099  1.3963 -0.2625
  659MOL0     H90880  -0.608   6.669   9.432  1.8265  0.8244  0.9663
  659MOL0     H90881  -0.575   6.811   9.165 -0.3717 -0.0251 -1.1241
  659MOL0     H90882  -0.645   6.869   9.320 -0.3938  0.5677 -1.9864
  659MOL0     H90883  -0.348   6.848   9.251  0.9057 -0.9337  1.4163
  659MOL0     H90884  -0.402   6.860   9.409  4.0445 -1.2791 -1.7236
  659MOL0     H90885  -0.517   7.040   9.196 -0.1586  0.2919 -0.7559
  659MOL0     H90886  -0.512   7.072   9.368  4.6560 -0.5515  3.1370
  659MOL0     H90887  -0.342   7.202   9.234  0.1309 -0.2122 -2.3215
  659MOL0     H90888  -0.262   7.059   9.183  1.4902  2.2898  0.8294
  659MOL0     H90889  -0.203   6.984   9.422  1.5395  0.4526  0.6669
  659MOL0     H90890  -0.132   7.132   9.360  0.5179 -0.5780  0.6476
  659MOL0     H90891  -0.425   7.063   9.597 -0.2221  0.3502 -3.4958
  659MOL0     H90892  -0.327   7.264   9.901 -1.4529 -0.5533  0.4871
  659MOL0     H90893  -0.458   7.156   9.839 -0.7772 -0.1425  0.2633
  659MOL0     H90894  -0.500   7.415   9.937 -0.4630 -0.8806 -0.0764
  659MOL0     H90895  -0.446   7.450   9.771  0.2450  2.4637  2.3871
  659MOL0     H90896  -0.710   7.296   9.829 -1.3351 -0.2044 -2.6065
  659MOL0     H90897  -0.684   7.467   9.804 -0.3452 -0.4535 -0.9134
  659MOL0     H90898  -0.598   7.421   9.564  1.3960 -0.8399 -0.8243
  659MOL0     H90899  -0.639   7.256   9.590 -4.7313 -0.9188 -0.8267
  659MOL0     H90900  -0.699   7.281   9.360 -0.8848  2.8180 -0.4356
  659MOL0     H90901  -0.777   7.035   9.162  2.8611  1.1563 -1.6494
  659MOL0     H90902  -0.724   7.203   9.137  0.2648 -0.0438 -1.2674
  659MOL0     H90903  -0.870   7.155   9.058  0.3601  1.2357 -0.7621
  659MOL0     H90904  -1.396   7.123   9.099  2.7103  2.0266  0.2230
  659MOL0     H90905  -1.513   6.938   8.967  1.3038 -3.5812 -0.1880
  659MOL0     H90906  -1.237   6.709   8.711  0.0975  0.4750 -3.3270
  659MOL0     H90907  -1.353   6.613   8.801  3.2276 -1.8449  0.0174
  659MOL0     H90908  -1.380   6.689   8.507 -0.2164  1.1842  1.0030
  659MOL0     H90909  -1.376   6.521   8.573 -1.9815 -0.2886 -3.4463
  659MOL0     H90910  -1.596   6.715   8.608  3.4467  0.8687  1.8264
  659MOL0     H90911  -1.573   6.579   8.713 -3.1353 -1.1514 -0.7559
  659MOL0     H90912  -1.574   6.429   8.503 -2.5245 -1.3634  1.6185
  659MOL0     H90913  -1.617   6.575   8.404 -2.2768  0.8489  1.5340
  659MOL0     H90914  -1.775   6.456   8.635  1.1317  0.8850  0.7457
  659MOL0     H90915  -1.797   6.619   8.563  0.4296  1.8046 -3.6382
  659MOL0     H90916  -1.964   6.437   8.478 -1.9889  3.6647 -2.6221
  659MOL0     H90917  -1.828   6.358   8.402  0.2799 -0.5973  1.7095
  659MOL0     H90918  -1.796   6.597   8.293 -0.1476 -1.0890 -0.0876
  659MOL0     H90919  -1.957   6.626   8.366 -2.0616 -0.1332 -1.0752
  659MOL0     H90920  -1.989   6.569   8.134  0.1274  0.5657  0.4654
  659MOL0     H90921  -2.068   6.468   8.262  0.3006  1.9816  2.2055
  659MOL0     H90922  -1.171   6.929   8.703  2.1949 -0.5574  0.0721
  659MOL0     H90923  -1.051   7.090   8.863  0.4026 -2.0500  0.8643
  659MOL0     H90924  -1.182   7.233   9.445  1.2747 -0.9851 -0.3320
  659MOL0     H90925  -1.039   7.334   9.601 -0.3915  0.1401 -0.0537
  659MOL0     H90926  -0.093   6.295   9.364 -0.1081  0.8778  0.2645
  659MOL0     H90927   0.057   6.263   9.535 -0.6847 -3.3658  0.8487
  659MOL0     H90928   0.344   6.140   9.815  1.3329 -2.3307  2.2208
  659MOL0     H90929   0.471   6.052  10.001  0.1758 -0.5397  1.5361
  659MOL0     H90930   0.372   6.129  10.446  0.4322 -1.7930  2.2607
  659MOL0     H90931   0.260   6.003  10.383 -1.5597  1.4638  4.1432
  659MOL0     H90932   0.424   5.961  10.573 -2.3190 -2.0804  0.0555
  659MOL0     H90933   0.549   5.946  10.441  0.3235 -0.8505  0.4146
  659MOL0     H90934   0.331   5.770  10.543 -0.1937 -0.1524 -0.8047
  659MOL0     H90935   0.355   5.758  10.370 -0.8396 -1.9131  0.0891
  659MOL0     H90936   0.600   5.720  10.414  1.2111  2.0054  1.2104
  659MOL0     H90937   0.502   5.594  10.479  1.3702  0.2452 -2.3463
  659MOL0     H90938   0.698   5.778  10.811  0.1885  1.6974 -1.6368
  659MOL0     H90939   0.184   6.219  10.273  0.4937  1.1493 -0.2866
  659MOL0     H90940   0.024   6.351  10.212  1.5611  1.9992  0.8935
  659MOL0     H90941   0.037   6.439  10.058 -2.2394 -0.9949 -3.0235
  659MOL0     H90942  -0.059   6.303  10.062  0.6870 -0.2734 -2.3223
  660MOL0     O90943  10.659   8.529   8.394 -0.7095  1.3524 -0.0439
  660MOL0     C90944  10.748   8.536   8.477  0.5320  0.4482 -0.1715
  660MOL0     O90945  10.862   8.597   8.459  0.0981  0.5086 -0.3808
  660MOL0     C90946  10.871   8.675   8.345 -0.2966 -0.0675  0.3415
  660MOL0     C90947  10.834   8.632   8.216  0.5681 -0.0710 -0.3510
  660MOL0     C90948  10.836   8.724   8.107  0.3086  0.0366 -0.3948
  660MOL0     C90949  10.880   8.850   8.122 -0.1057 -0.5420  0.0883
  660MOL0     O90950  10.871   8.923   8.009  0.1411 -0.0341  0.3649
  660MOL0     C90951  10.935   9.052   8.009  0.2766 -0.3352  0.5178
  660MOL0     C90952  10.918   9.149   7.883 -0.7677  0.5163 -0.3069
  660MOL0     C90953  10.784   9.226   7.888  0.1905 -0.2251 -0.3081
  660MOL0     C90954  10.789   9.363   7.829  0.6952 -0.2393 -0.2374
  660MOL0     C90955  10.655   9.437   7.833  0.4129  1.2776  0.2853
  660MOL0     C90956  10.653   9.562   7.738 -0.5115  0.0688 -0.6408
  660MOL0     C90957  10.708   9.686   7.834  0.3386  0.2271  0.6814
  660MOL0     C90958  10.714   9.810   7.733  0.5898  0.5054  0.2960
  660MOL0     N90959  10.831   9.900   7.755  0.2740  0.8115  0.4352
  660MOL0     C90960  10.820  10.030   7.767 -0.3555 -0.0634  0.7416
  660MOL0     C90961  10.949  10.077   7.773  0.5206  0.0696  0.1089
  660MOL0     C90962  10.976  10.227   7.791  0.0840  0.0208 -0.1385
  660MOL0     C90963  10.984  10.302   7.654 -0.2221 -0.1666 -0.8699
  660MOL0     C90964  11.003  10.455   7.679 -0.8345 -0.4374 -0.2692
  660MOL0     C90965  10.875  10.531   7.708  0.1363 -0.4882 -0.0159
  660MOL0     O90966  10.792  10.496   7.820 -0.0073  0.2142  0.6621
  660MOL0     C90967  10.669  10.559   7.831  0.6109  1.0150 -0.3773
  660MOL0     C90968  10.625  10.595   7.956  0.3142  1.2686  0.5119
  660MOL0     C90969  10.495  10.640   7.992  0.4696  0.5903 -0.0098
  660MOL0     C90970  10.463  10.674   8.136 -0.0691  0.0866 -1.0455
  660MOL0     C90971  10.401  10.659   7.889 -0.1098  0.3901  0.0988
  660MOL0     C90972  10.266  10.725   7.913 -0.1893  0.6331  0.1983
  660MOL0     O90973  10.254  10.847   7.966 -1.0927 -0.6482  0.0013
  660MOL0     C90974  10.133  10.907   7.951 -0.0878 -0.2204  0.3179
  660MOL0     C90975  10.024  10.853   8.028 -0.2816 -1.2376  0.7753
  660MOL0     C90976   9.903  10.925   8.023 -0.2269 -0.0285 -1.5445
  660MOL0     C90977   9.885  11.042   7.947  0.1050 -0.1662 -0.3787
  660MOL0     O90978   9.760  11.087   7.933  0.6767 -0.4687  0.1577
  660MOL0     C90979   9.703  11.148   8.052  0.3774  0.3188 -0.2515
  660MOL0     C90980   9.608  11.262   8.006 -0.0601 -0.0026  0.3095
  660MOL0     C90981   9.481  11.202   7.951 -0.0903  0.5331  0.7249
  660MOL0     C90982   9.367  11.181   8.055 -0.2978  0.5535  0.7954
  660MOL0     C90983   9.224  11.178   7.998 -0.1981 -0.2004  0.6550
  660MOL0     C90984   9.147  11.308   7.999 -0.0147  0.6932 -1.1243
  660MOL0     C90985   9.009  11.311   7.961  1.5451  0.6659 -0.4824
  660MOL0     C90986   8.933  11.446   7.978  1.1603 -0.2297  1.0976
  660MOL0    Cl90987   8.967  11.546   7.833  0.0581 -0.2965 -0.1222
  660MOL0     C90988   9.979  11.072   7.854  0.3098 -0.1675  0.4104
  660MOL0     C90989  10.104  11.020   7.865  0.0946  0.0664  0.1292
  660MOL0     O90990  10.174  10.646   7.882 -0.0385 -0.8070 -0.2474
  660MOL0     C90991  10.431  10.606   7.767 -0.6934 -0.5009 -0.3180
  660MOL0     C90992  10.567  10.560   7.735  0.2264 -0.3467 -0.2738
  660MOL0     N90993  11.038   9.973   7.734 -0.2583 -0.2947  0.9807
  660MOL0     N90994  10.964   9.863   7.721 -0.7126  0.5485 -0.3966
  660MOL0     C90995  10.944   8.891   8.244 -0.2783 -0.5168  0.1818
  660MOL0     C90996  10.926   8.807   8.352 -0.5842  0.9536 -0.0212
  660MOL0     C90997  10.712   8.470   8.612  0.4492 -0.7410 -0.1715
  660MOL0     C90998  10.577   8.426   8.634 -0.7067 -0.4251  0.4717
  660MOL0     C90999  10.545   8.348   8.742 -0.6937  0.2474 -0.3020
  660MOL0     C91000  10.642   8.308   8.836  0.2761  0.5116 -0.7123
  660MOL0     O91001  10.606   8.226   8.944 -0.2126  0.1136 -0.2837
  660MOL0     C91002  10.714   8.156   8.999  0.7509 -0.7727 -0.4597
  660MOL0     C91003  10.752   8.227   9.132 -0.5108  1.4220 -0.7201
  660MOL0     C91004  10.824   8.108   9.220  0.1242  0.4705  0.2994
  660MOL0     C91005  10.875   8.164   9.356  0.2631  0.1136 -0.6542
  660MOL0     C91006  10.995   8.246   9.344 -0.7924  0.9700 -0.2311
  660MOL0     C91007  11.090   8.319   9.338  0.0270  0.1884 -0.0922
  660MOL0     C91008  10.778   8.360   8.815 -0.5328 -0.2605 -0.3681
  660MOL0     C91009  10.813   8.436   8.702 -0.4751 -0.9219 -0.4054
  660MOL0     C91010  10.963   8.467   8.677 -0.0954  0.0976  0.5917
  660MOL0     H91011  10.806   8.528   8.202  1.5143 -0.4013  0.1180
  660MOL0     H91012  10.811   8.693   8.006 -1.8807  0.2392  0.0284
  660MOL0     H91013  11.041   9.025   8.005  0.3056 -0.1175 -1.2554
  660MOL0     H91014  10.910   9.113   8.096  0.9881  1.4635 -0.4789
  660MOL0     H91015  10.996   9.224   7.864  0.3720 -0.4496  0.4502
  660MOL0     H91016  10.897   9.092   7.792 -1.8614 -3.8945  2.4055
  660MOL0     H91017  10.703   9.175   7.836 -0.9033  0.1240  0.9945
  660MOL0     H91018  10.753   9.233   7.993  1.4512  0.8134  0.0225
  660MOL0     H91019  10.863   9.413   7.893  0.0413 -0.6425  0.8723
  660MOL0     H91020  10.830   9.358   7.728 -1.9834 -3.1158 -1.3526
  660MOL0     H91021  10.613   9.453   7.933 -0.2676  0.9387  0.0628
  660MOL0     H91022  10.582   9.366   7.793 -0.4589  1.5373  1.3465
  660MOL0     H91023  10.713   9.542   7.649 -0.7975  0.4352 -0.9211
  660MOL0     H91024  10.553   9.587   7.700 -2.0052 -1.6643  1.8603
  660MOL0     H91025  10.806   9.664   7.876 -0.3046  1.2015  2.8080
  660MOL0     H91026  10.639   9.699   7.918  1.7476  0.2970  1.8677
  660MOL0     H91027  10.724   9.774   7.631  2.5570  2.4929 -0.2933
  660MOL0     H91028  10.618   9.862   7.744 -0.1802 -0.8023 -0.0804
  660MOL0     H91029  10.730  10.086   7.789  0.0218 -0.0083  2.2972
  660MOL0     H91030  11.069  10.243   7.845 -0.7168  0.3677  1.1739
  660MOL0     H91031  10.897  10.274   7.850  1.7755  1.0633  1.3874
  660MOL0     H91032  11.063  10.266   7.588 -1.3296 -0.5653 -2.0157
  660MOL0     H91033  10.889  10.282   7.602  0.6986 -5.4171 -1.0004
  660MOL0     H91034  11.071  10.467   7.763  0.8467 -2.8514 -1.1641
  660MOL0     H91035  11.043  10.502   7.589 -0.0780 -0.4021  0.0832
  660MOL0     H91036  10.907  10.635   7.724 -1.6856 -0.0408  1.0507
  660MOL0     H91037  10.815  10.546   7.617  1.0978 -2.6159 -1.0672
  660MOL0     H91038  10.696  10.592   8.038 -1.3944 -0.5836  2.0485
  660MOL0     H91039  10.529  10.615   8.201 -2.1051 -2.0285 -0.7805
  660MOL0     H91040  10.364  10.637   8.165  0.0717 -1.2618 -2.2019
  660MOL0     H91041  10.477  10.780   8.161  1.2431 -0.3651  0.2603
  660MOL0     H91042  10.040  10.773   8.099  0.3558  0.8781  3.1296
  660MOL0     H91043   9.827  10.880   8.086  1.0431 -0.3675 -0.1798
  660MOL0     H91044   9.650  11.071   8.109 -0.6389 -0.3058 -1.9503
  660MOL0     H91045   9.783  11.189   8.113 -1.4230 -1.2944  3.4994
  660MOL0     H91046   9.581  11.329   8.088 -0.2950 -0.7291  0.8340
  660MOL0     H91047   9.651  11.336   7.938  0.4124  3.7513  4.2609
  660MOL0     H91048   9.513  11.109   7.903 -2.0898  1.0936 -1.9230
  660MOL0     H91049   9.445  11.276   7.879 -0.7635 -1.8816 -1.6108
  660MOL0     H91050   9.357  11.260   8.131 -0.5970  2.6538 -1.2941
  660MOL0     H91051   9.388  11.097   8.122  1.1670  1.1215  1.0938
  660MOL0     H91052   9.237  11.150   7.893  2.4214  1.8840  0.2964
  660MOL0     H91053   9.168  11.103   8.054  2.4147 -1.7298  1.4361
  660MOL0     H91054   9.200  11.378   7.933  0.3124  0.5005 -1.0655
  660MOL0     H91055   9.161  11.350   8.099 -2.5740  0.5248 -0.6279
  660MOL0     H91056   8.951  11.241   8.021  1.3845 -0.0933 -1.5057
  660MOL0     H91057   8.996  11.276   7.858 -3.0133 -0.1763  0.1633
  660MOL0     H91058   8.953  11.500   8.071 -0.7834  0.7588  0.9903
  660MOL0     H91059   8.825  11.426   7.979  0.6058  1.5162 -3.1301
  660MOL0     H91060   9.962  11.160   7.793 -1.4234 -2.3491 -2.4941
  660MOL0     H91061  10.191  11.067   7.821 -1.4316  0.6738 -2.4171
  660MOL0     H91062  10.365  10.610   7.681 -2.7948  3.2842  1.2478
  660MOL0     H91063  10.584  10.525   7.633  1.8008  2.0265 -0.9105
  660MOL0     H91064  10.977   8.992   8.266  0.0907 -0.2363 -1.4827
  660MOL0     H91065  10.949   8.842   8.452 -1.2552 -0.6162  0.7252
  660MOL0     H91066  10.500   8.445   8.560 -0.3060  1.8490  0.5813
  660MOL0     H91067  10.442   8.313   8.748 -0.2738 -0.8824  0.6483
  660MOL0     H91068  10.675   8.058   9.028 -0.6972 -0.0709  0.0601
  660MOL0     H91069  10.805   8.144   8.940  1.2071 -0.6982  0.2182
  660MOL0     H91070  10.665   8.263   9.188 -0.5975 -1.0936  0.9328
  660MOL0     H91071  10.827   8.306   9.134 -1.7000  2.5943  1.8286
  660MOL0     H91072  10.750   8.032   9.244 -1.6334  2.3494  1.1642
  660MOL0     H91073  10.906   8.070   9.159 -0.1968  1.3093 -0.6959
  660MOL0     H91074  10.889   8.080   9.424  0.5788 -1.3854 -2.5109
  660MOL0     H91075  10.791   8.219   9.400 -0.0343 -0.6870 -0.2155
  660MOL0     H91076  11.181   8.375   9.337  0.7830 -0.9851  0.5239
  660MOL0     H91077  10.861   8.354   8.884 -1.1608 -1.0248  0.3428
  660MOL0     H91078  10.980   8.572   8.701 -0.7586  0.2436  0.4495
  660MOL0     H91079  11.029   8.406   8.739  1.0813 -0.8799 -1.4993
  660MOL0     H91080  11.009   8.442   8.581  2.1221 -0.2134  1.6676
  661MOL0     O91081   0.610   0.977   2.359 -0.2009  0.6341  0.6614
  661MOL0     C91082   0.494   0.929   2.371 -0.0172  0.4900  0.4181
  661MOL0     O91083   0.412   0.947   2.480  1.4334 -0.3487  0.7957
  661MOL0     C91084   0.456   1.038   2.573  0.0862  0.7551  0.1822
  661MOL0     C91085   0.399   1.167   2.586  0.0514 -0.6983 -0.0374
  661MOL0     C91086   0.449   1.249   2.694  0.1383  0.2255  0.0305
  661MOL0     C91087   0.533   1.203   2.793  0.2657  0.9881  0.5150
  661MOL0     O91088   0.546   1.292   2.896  0.5273  0.3880  0.1581
  661MOL0     C91089   0.656   1.259   2.979  0.7296 -0.4032  0.0930
  661MOL0     C91090   0.670   1.356   3.097  0.2121  0.4638  0.0424
  661MOL0     C91091   0.747   1.482   3.054 -1.3314 -0.6591 -1.2515
  661MOL0     C91092   0.898   1.469   3.111  0.0460 -0.2308  0.5541
  661MOL0     C91093   0.990   1.582   3.077  0.0344  0.5322  0.1441
  661MOL0     C91094   1.096   1.579   3.187 -0.9923 -0.4216 -1.0504
  661MOL0     C91095   1.205   1.702   3.169  0.4304  0.3408 -0.5937
  661MOL0     C91096   1.350   1.664   3.196 -0.1707  1.0063  0.7921
  661MOL0     N91097   1.449   1.760   3.155 -0.4135  0.3770  1.1958
  661MOL0     C91098   1.558   1.735   3.080  0.5222  0.1942  0.6277
  661MOL0     C91099   1.605   1.863   3.063 -0.5613 -0.7024 -0.2710
  661MOL0     C91100   1.723   1.902   2.974  0.0390  0.3628  0.2063
  661MOL0     C91101   1.827   1.981   3.062 -0.3921 -0.9378  0.6780
  661MOL0     C91102   1.903   1.885   3.164  0.5829 -0.2419  0.6161
  661MOL0     C91103   2.012   1.965   3.230 -0.1461  0.3199 -0.2960
  661MOL0     O91104   2.094   1.865   3.284  0.1729  0.0219  0.6285
  661MOL0     C91105   2.188   1.911   3.371 -0.3484  0.1822 -0.3460
  661MOL0     C91106   2.263   1.808   3.429 -0.5329  0.3606 -0.7006
  661MOL0     C91107   2.381   1.835   3.503 -0.3662 -0.4930  0.0460
  661MOL0     C91108   2.466   1.709   3.525 -0.4959 -0.0723  0.3898
  661MOL0     C91109   2.405   1.967   3.550 -0.6566  0.3365 -0.8969
  661MOL0     C91110   2.521   2.008   3.637  0.4318 -0.6083  0.4391
  661MOL0     O91111   2.598   1.902   3.668  0.1396  0.6786 -0.2269
  661MOL0     C91112   2.690   1.907   3.770  0.1909 -0.3955  0.1382
  661MOL0     C91113   2.791   1.809   3.745  0.0953 -0.4944 -0.3656
  661MOL0     C91114   2.888   1.775   3.847 -0.3803 -0.8079 -0.0666
  661MOL0     C91115   2.881   1.845   3.965  0.1035 -1.0575  0.3300
  661MOL0     O91116   2.971   1.823   4.059  0.1931 -0.3282 -0.2518
  661MOL0     C91117   3.082   1.913   4.058 -0.0995 -0.4303 -0.0694
  661MOL0     C91118   3.098   1.963   4.207 -1.4688 -0.1590 -0.9522
  661MOL0     C91119   3.218   2.053   4.224  0.4297  0.7476 -0.3619
  661MOL0     C91120   3.343   1.985   4.201 -0.6902  0.0233  0.3705
  661MOL0     C91121   3.450   2.076   4.260  0.5969 -1.0450  0.0817
  661MOL0     C91122   3.588   2.049   4.224 -1.0485  0.1264  0.3021
  661MOL0     C91123   3.690   2.123   4.314  0.3292 -0.1827  0.2952
  661MOL0     C91124   3.837   2.099   4.264 -0.3844  0.4478  0.7507
  661MOL0    Cl91125   3.959   2.182   4.355 -0.2883 -0.4971 -0.1014
  661MOL0     C91126   2.781   1.944   3.986  0.3568 -0.4710 -0.2081
  661MOL0     C91127   2.690   1.982   3.888  0.1213  0.3836  0.2095
  661MOL0     O91128   2.533   2.119   3.678  0.1223 -0.0567  0.8826
  661MOL0     C91129   2.320   2.068   3.505 -0.5390  0.3751  0.1141
  661MOL0     C91130   2.221   2.045   3.416  0.0949  0.3646 -0.7869
  661MOL0     N91131   1.523   1.961   3.128 -0.5226  0.4387  0.2599
  661MOL0     N91132   1.434   1.893   3.191  0.5453 -0.2507  0.6164
  661MOL0     C91133   0.596   1.076   2.762 -0.0246 -0.2449  0.1153
  661MOL0     C91134   0.552   0.995   2.661 -0.9529  0.1001  0.7229
  661MOL0     C91135   0.465   0.827   2.270  0.5812 -0.1421  0.5439
  661MOL0     C91136   0.354   0.743   2.292  0.7271 -0.1657 -0.5970
  661MOL0     C91137   0.311   0.644   2.208 -0.6034 -0.2736  0.4457
  661MOL0     C91138   0.393   0.619   2.096  0.8931 -0.2778 -0.6461
  661MOL0     O91139   0.343   0.521   2.009 -0.3555 -0.5085 -0.3438
  661MOL0     C91140   0.413   0.491   1.884 -0.2798 -0.4828  0.3705
  661MOL0     C91141   0.335   0.404   1.794 -0.0315  0.2869  1.5451
  661MOL0     C91142   0.431   0.388   1.676 -0.7995  0.7977  0.5861
  661MOL0     C91143   0.344   0.409   1.551 -0.0404  0.3793 -0.3391
  661MOL0     C91144   0.328   0.551   1.530  0.2043  0.3352  0.4098
  661MOL0     C91145   0.289   0.663   1.524  0.0071  0.1191 -0.0839
  661MOL0     C91146   0.513   0.693   2.077 -0.8205 -0.1737  0.1373
  661MOL0     C91147   0.539   0.806   2.158 -0.6475  0.0161 -0.2920
  661MOL0     C91148   0.660   0.889   2.105  0.2494  0.4063  0.2457
  661MOL0     H91149   0.321   1.197   2.517 -0.5992 -0.8330  0.6364
  661MOL0     H91150   0.404   1.347   2.707  0.5050  0.4026 -0.0066
  661MOL0     H91151   0.740   1.268   2.909  1.1116  0.5095  0.6434
  661MOL0     H91152   0.651   1.157   3.017  3.1288  0.2718  2.5076
  661MOL0     H91153   0.568   1.381   3.125  1.0945  1.8734  2.2947
  661MOL0     H91154   0.717   1.302   3.179 -3.0429 -2.8263 -0.0168
  661MOL0     H91155   0.749   1.481   2.944  2.9410 -0.7598 -1.3399
  661MOL0     H91156   0.696   1.565   3.102  2.6828 -0.7269  4.0528
  661MOL0     H91157   0.891   1.459   3.220  4.2641 -0.7744  0.9360
  661MOL0     H91158   0.940   1.376   3.072  1.2825  0.8826 -0.8731
  661MOL0     H91159   0.955   1.686   3.086  0.2764  0.6913 -0.6732
  661MOL0     H91160   1.032   1.565   2.978  1.3101  1.6815  0.4593
  661MOL0     H91161   1.054   1.599   3.286  1.1606  2.4224 -0.5594
  661MOL0     H91162   1.145   1.481   3.191 -0.2952 -0.0836 -1.1944
  661MOL0     H91163   1.189   1.780   3.243  3.5480  2.3893 -1.8867
  661MOL0     H91164   1.198   1.750   3.071 -0.1876  0.4531 -0.5036
  661MOL0     H91165   1.365   1.641   3.302  0.7043  0.4314  0.5564
  661MOL0     H91166   1.377   1.575   3.137  0.8054  1.5803  0.3421
  661MOL0     H91167   1.601   1.636   3.062 -1.6276 -0.8518  0.9135
  661MOL0     H91168   1.693   1.962   2.888 -0.4327 -0.1978 -0.0219
  661MOL0     H91169   1.773   1.814   2.933  0.1880  0.9148 -0.8464
  661MOL0     H91170   1.897   2.023   2.989  0.0596 -4.4260 -1.1013
  661MOL0     H91171   1.782   2.061   3.122  0.2292 -1.7336  2.2567
  661MOL0     H91172   1.827   1.843   3.230  2.0138  0.4663  2.8514
  661MOL0     H91173   1.955   1.803   3.115  0.6095 -0.2055  0.5832
  661MOL0     H91174   2.060   2.024   3.151  1.1933  1.0608  1.0117
  661MOL0     H91175   1.988   2.040   3.306  2.2875 -0.4222  1.2914
  661MOL0     H91176   2.235   1.710   3.391 -2.1638  1.0013 -1.2326
  661MOL0     H91177   2.482   1.686   3.631  1.5278 -0.7291 -0.0219
  661MOL0     H91178   2.565   1.709   3.480  0.3277 -4.0789  1.7285
  661MOL0     H91179   2.412   1.621   3.489 -0.7613  0.7971 -1.4402
  661MOL0     H91180   2.791   1.760   3.648  0.0793  0.1173 -0.6831
  661MOL0     H91181   2.968   1.704   3.829  0.0345 -0.4669  0.4028
  661MOL0     H91182   3.165   1.846   4.036 -1.4432 -1.0970 -3.9308
  661MOL0     H91183   3.091   1.998   3.989 -1.3177 -0.1462  0.0987
  661MOL0     H91184   3.004   2.015   4.230 -1.3262 -0.8358  1.5622
  661MOL0     H91185   3.087   1.888   4.287 -2.2562  3.6386  2.8631
  661MOL0     H91186   3.209   2.097   4.324  1.2316  0.5072 -0.1790
  661MOL0     H91187   3.220   2.124   4.141  0.3581  1.9611  0.6394
  661MOL0     H91188   3.368   1.972   4.096  4.1802  2.8066  0.9085
  661MOL0     H91189   3.337   1.886   4.248  1.5990  0.7186  2.3202
  661MOL0     H91190   3.421   2.177   4.232  0.2620 -0.9484  0.7382
  661MOL0     H91191   3.435   2.069   4.368 -0.5442  2.2174  0.2398
  661MOL0     H91192   3.611   2.073   4.120  0.8971  2.0514  1.0824
  661MOL0     H91193   3.597   1.940   4.228 -2.2504 -0.1255 -2.1240
  661MOL0     H91194   3.681   2.075   4.412 -3.2172  4.4609  2.6311
  661MOL0     H91195   3.684   2.230   4.337  2.3181 -0.1692  0.9666
  661MOL0     H91196   3.848   2.132   4.160 -0.9545 -4.8112 -1.3023
  661MOL0     H91197   3.860   1.992   4.267 -0.4098  0.4371  0.5909
  661MOL0     H91198   2.765   2.003   4.075  3.0919 -0.1324  0.1232
  661MOL0     H91199   2.610   2.053   3.907  1.1592  1.7849 -0.5385
  661MOL0     H91200   2.328   2.169   3.544 -2.5923 -0.7477  3.9000
  661MOL0     H91201   2.170   2.136   3.388 -1.4747 -0.7346 -1.6665
  661MOL0     H91202   0.672   1.032   2.825 -0.7864 -1.9220 -0.0796
  661MOL0     H91203   0.602   0.899   2.647  0.4461  0.8188  0.6776
  661MOL0     H91204   0.294   0.753   2.382  1.1320 -1.8137 -0.1196
  661MOL0     H91205   0.233   0.572   2.232 -0.8264 -1.1893 -2.6243
  661MOL0     H91206   0.414   0.585   1.828  1.5145 -0.3581  0.5239
  661MOL0     H91207   0.513   0.450   1.906 -0.0976 -0.1518  0.1648
  661MOL0     H91208   0.238   0.447   1.768  0.3872 -0.6249 -1.9221
  661MOL0     H91209   0.316   0.304   1.832 -0.6373  0.1617  0.9136
  661MOL0     H91210   0.518   0.454   1.671  0.3776 -0.6946  0.7385
  661MOL0     H91211   0.456   0.282   1.666 -5.2385 -0.3029 -0.9128
  661MOL0     H91212   0.246   0.363   1.565 -0.6539  0.8669 -2.6208
  661MOL0     H91213   0.398   0.369   1.465 -0.5922  1.7996 -1.3779
  661MOL0     H91214   0.277   0.769   1.537 -1.6506 -0.1944  1.1528
  661MOL0     H91215   0.570   0.660   1.990  0.1145  1.5387  0.0637
  661MOL0     H91216   0.749   0.874   2.167  0.2764  1.2606  0.4239
  661MOL0     H91217   0.695   0.855   2.007 -0.5892  0.6681 -0.1592
  661MOL0     H91218   0.628   0.992   2.088  2.2891  1.1229  0.4944
  662MOL0     O91219   5.889  10.375   3.455 -0.0687 -0.2832  0.0016
  662MOL0     C91220   5.930  10.330   3.346  0.8824  0.1142 -1.0795
  662MOL0     O91221   5.912  10.202   3.298  0.2140 -0.6140  0.1067
  662MOL0     C91222   5.862  10.100   3.376  0.0935 -0.2428  0.5378
  662MOL0     C91223   5.950  10.033   3.468  0.5010  0.7222  0.1786
  662MOL0     C91224   5.915   9.924   3.537  0.7891  0.0479  0.1358
  662MOL0     C91225   5.779   9.879   3.525 -0.2535 -0.2453  0.2428
  662MOL0     O91226   5.723   9.785   3.602  0.3641  0.2795  0.2665
  662MOL0     C91227   5.795   9.728   3.716 -1.1245 -0.3194  1.0498
  662MOL0     C91228   5.724   9.605   3.745  0.5014  0.4424  0.0392
  662MOL0     C91229   5.811   9.493   3.799 -0.5218 -0.3529  0.0171
  662MOL0     C91230   5.908   9.519   3.921  0.4142  0.6057  0.5798
  662MOL0     C91231   6.031   9.419   3.928  0.4014  0.6522  0.5047
  662MOL0     C91232   6.125   9.440   4.057  0.4041 -0.1074  0.6084
  662MOL0     C91233   6.258   9.354   4.050 -0.2359 -0.5253 -0.4440
  662MOL0     C91234   6.327   9.357   4.191  0.4683  0.4506  0.3788
  662MOL0     N91235   6.344   9.492   4.243  0.1616 -0.1016 -0.5018
  662MOL0     C91236   6.422   9.582   4.177 -0.2289 -0.4095 -0.0792
  662MOL0     C91237   6.416   9.696   4.241 -0.8373 -1.2519  0.1475
  662MOL0     C91238   6.490   9.825   4.218 -0.2996  0.1967  1.0364
  662MOL0     C91239   6.449   9.873   4.084  0.7139 -0.3046  0.2803
  662MOL0     C91240   6.327   9.954   4.096  0.4199  0.2157  0.6690
  662MOL0     C91241   6.189   9.882   4.120  0.0950  0.5469  0.0865
  662MOL0     O91242   6.077   9.974   4.116 -0.6106  0.2974 -0.4334
  662MOL0     C91243   5.955   9.915   4.121  0.4935  0.3957  0.6571
  662MOL0     C91244   5.928   9.800   4.185 -0.2787  0.4379 -0.4469
  662MOL0     C91245   5.804   9.737   4.189 -0.6282  0.0117  0.0590
  662MOL0     C91246   5.773   9.630   4.283 -0.7240 -0.5461 -0.8856
  662MOL0     C91247   5.701   9.789   4.108  0.1155 -0.2322  0.3841
  662MOL0     C91248   5.566   9.716   4.087  0.1228 -0.5124  0.6116
  662MOL0     O91249   5.448   9.790   4.070 -0.4302 -0.3778 -0.0426
  662MOL0     C91250   5.328   9.725   4.035 -0.3178  0.5266 -0.4921
  662MOL0     C91251   5.314   9.598   3.964  0.1974 -0.4170 -0.9987
  662MOL0     C91252   5.183   9.556   3.925  0.8252  0.0913  0.2268
  662MOL0     C91253   5.069   9.632   3.951 -0.7539 -0.4512  0.1477
  662MOL0     O91254   4.946   9.605   3.906  0.0027 -1.0413  0.4279
  662MOL0     C91255   4.933   9.512   3.805  0.1447 -0.4469 -0.5653
  662MOL0     C91256   4.802   9.532   3.733  0.5582  0.6934  0.5591
  662MOL0     C91257   4.793   9.465   3.601 -1.2408  0.3203  0.6879
  662MOL0     C91258   4.741   9.561   3.490  0.3635  0.4229 -0.2347
  662MOL0     C91259   4.729   9.479   3.358 -0.9859 -1.1664 -0.2415
  662MOL0     C91260   4.660   9.571   3.252  0.1816 -0.3382  0.1920
  662MOL0     C91261   4.680   9.516   3.108  0.0576  0.3268 -0.3559
  662MOL0     C91262   4.619   9.609   3.006 -0.7415 -0.1337 -0.5886
  662MOL0    Cl91263   4.703   9.765   2.993  0.2646 -0.1685  0.4871
  662MOL0     C91264   5.082   9.744   4.025 -0.2220 -0.3325 -0.5422
  662MOL0     C91265   5.206   9.796   4.071  0.4590  0.4306  0.2681
  662MOL0     O91266   5.582   9.600   4.068  0.0238  0.7144 -0.1780
  662MOL0     C91267   5.725   9.914   4.050  0.5079 -0.7816 -0.2482
  662MOL0     C91268   5.850   9.972   4.050 -0.1176  0.2001  0.5240
  662MOL0     N91269   6.339   9.683   4.350 -0.0707  0.6401  0.1231
  662MOL0     N91270   6.303   9.561   4.356 -0.1251  1.2366 -1.0236
  662MOL0     C91271   5.692   9.943   3.438  0.4747 -0.4867  0.7640
  662MOL0     C91272   5.729  10.052   3.362 -0.0531  1.1018  0.8002
  662MOL0     C91273   6.004  10.425   3.267 -0.1083 -0.0817  0.1276
  662MOL0     C91274   6.047  10.383   3.137 -0.3838  0.0720  0.5270
  662MOL0     C91275   6.126  10.460   3.052  0.5516  0.7099  0.5497
  662MOL0     C91276   6.176  10.584   3.092 -0.7531 -0.3792 -0.8984
  662MOL0     O91277   6.261  10.659   3.019  0.3867  0.3271 -0.3808
  662MOL0     C91278   6.289  10.617   2.881 -0.8455  0.4509  0.1110
  662MOL0     C91279   6.394  10.723   2.831 -0.3772 -0.3025 -0.5270
  662MOL0     C91280   6.446  10.698   2.688 -0.3302 -0.1874  0.5202
  662MOL0     C91281   6.522  10.817   2.633 -0.4294  0.2836  0.5003
  662MOL0     C91282   6.526  10.824   2.484 -0.4424  1.3517 -0.2361
  662MOL0     C91283   6.538  10.827   2.367  0.8668 -0.7219 -0.2013
  662MOL0     C91284   6.140  10.626   3.223 -0.3785  0.6516 -0.5161
  662MOL0     C91285   6.055  10.555   3.312  0.2628  0.5270 -0.4068
  662MOL0     C91286   6.022  10.627   3.441 -0.6305 -0.4413 -0.2929
  662MOL0     H91287   6.052  10.068   3.482  0.8200 -0.1381  0.0783
  662MOL0     H91288   5.980   9.885   3.614  1.8849 -0.4945 -1.0172
  662MOL0     H91289   5.801   9.802   3.796  1.4670  2.1938 -1.2462
  662MOL0     H91290   5.899   9.702   3.696 -1.2144 -0.5592  0.8830
  662MOL0     H91291   5.645   9.629   3.818  3.0019 -1.0954  3.5382
  662MOL0     H91292   5.681   9.556   3.657 -1.6259 -1.1695  1.8452
  662MOL0     H91293   5.751   9.409   3.834 -0.3574 -1.8523 -2.9737
  662MOL0     H91294   5.872   9.439   3.726 -2.1068 -1.9446 -0.1989
  662MOL0     H91295   5.954   9.617   3.903  0.8889  0.2266 -0.3282
  662MOL0     H91296   5.847   9.510   4.012 -1.6983 -1.3446 -0.8889
  662MOL0     H91297   6.098   9.415   3.842 -0.9569 -1.2615 -0.5311
  662MOL0     H91298   5.996   9.316   3.934  0.8579  0.4199 -0.5430
  662MOL0     H91299   6.141   9.546   4.082 -1.3226 -0.1305  1.9770
  662MOL0     H91300   6.064   9.388   4.131 -2.0971  1.3903 -0.2799
  662MOL0     H91301   6.332   9.396   3.981 -0.8085  0.4811 -0.4734
  662MOL0     H91302   6.246   9.252   4.013  3.2383 -2.8166  3.9167
  662MOL0     H91303   6.271   9.308   4.272  3.0419  4.0871  4.8770
  662MOL0     H91304   6.425   9.315   4.168  0.0714  0.9550 -2.6409
  662MOL0     H91305   6.480   9.555   4.089 -1.0430 -0.8115 -0.5041
  662MOL0     H91306   6.597   9.804   4.221 -0.6296 -1.6361  0.8890
  662MOL0     H91307   6.459   9.897   4.295 -1.5391  3.3751 -2.1757
  662MOL0     H91308   6.530   9.935   4.047 -1.0472  2.8582  1.3564
  662MOL0     H91309   6.420   9.789   4.019 -0.5012  1.4293 -1.5126
  662MOL0     H91310   6.347  10.037   4.163 -1.6486  2.1952 -0.9932
  662MOL0     H91311   6.296   9.996   4.000 -0.6873 -1.2531  0.3461
  662MOL0     H91312   6.185   9.812   4.037  1.5826 -1.5100  1.6295
  662MOL0     H91313   6.193   9.838   4.220 -0.6171  4.4337  2.0196
  662MOL0     H91314   6.007   9.754   4.244 -0.9240  1.3396  1.1792
  662MOL0     H91315   5.677   9.649   4.331  0.4391  1.0835  0.9492
  662MOL0     H91316   5.845   9.627   4.365 -1.0354 -1.8006 -0.6313
  662MOL0     H91317   5.766   9.534   4.231  1.5226 -0.4132 -1.5406
  662MOL0     H91318   5.395   9.537   3.927 -1.1566 -1.0801 -3.0342
  662MOL0     H91319   5.183   9.472   3.856  4.0474  1.3983 -1.6192
  662MOL0     H91320   5.012   9.520   3.729  0.8151 -3.4196 -0.3324
  662MOL0     H91321   4.939   9.411   3.847  0.7961  0.1487  0.8277
  662MOL0     H91322   4.722   9.501   3.801  2.1131  1.0782  2.6832
  662MOL0     H91323   4.791   9.640   3.720  2.2576  0.5816 -3.5781
  662MOL0     H91324   4.730   9.376   3.609  0.3625 -1.0160 -0.7349
  662MOL0     H91325   4.891   9.430   3.567  2.0867  1.8322  7.1386
  662MOL0     H91326   4.801   9.653   3.481  0.5323  0.5610  1.8368
  662MOL0     H91327   4.640   9.586   3.524  0.2742  0.6306 -0.6423
  662MOL0     H91328   4.828   9.450   3.323 -0.0504 -0.9768  2.0330
  662MOL0     H91329   4.664   9.393   3.378 -1.9706  0.0697  2.5042
  662MOL0     H91330   4.709   9.667   3.236 -1.4003  0.2646 -1.3130
  662MOL0     H91331   4.552   9.583   3.265  0.0738  2.0603 -2.2525
  662MOL0     H91332   4.628   9.420   3.105  0.8100 -0.1111  0.0913
  662MOL0     H91333   4.783   9.497   3.076 -0.0791 -0.4267 -0.3804
  662MOL0     H91334   4.517   9.619   3.046 -0.0007  2.0775  0.9074
  662MOL0     H91335   4.612   9.571   2.904  0.1662 -0.3236 -0.5815
  662MOL0     H91336   4.996   9.802   4.055 -0.4442 -0.3156 -1.2056
  662MOL0     H91337   5.199   9.889   4.127  0.6801  0.4960  0.1885
  662MOL0     H91338   5.653   9.950   3.977  0.2840  1.5280  1.0391
  662MOL0     H91339   5.862  10.063   3.992 -2.2774  0.6843  0.7219
  662MOL0     H91340   5.590   9.909   3.426  0.7373 -0.9012 -0.5350
  662MOL0     H91341   5.653  10.092   3.296  0.0876  1.2913  0.7559
  662MOL0     H91342   6.021  10.283   3.103 -1.2441 -0.2725  2.0922
  662MOL0     H91343   6.153  10.418   2.956 -0.7200 -0.5245  0.6976
  662MOL0     H91344   6.323  10.514   2.866 -0.5705  0.6679 -0.7982
  662MOL0     H91345   6.199  10.638   2.823 -1.3115  1.9987  1.3306
  662MOL0     H91346   6.487  10.713   2.888  1.9931  2.2416 -3.5366
  662MOL0     H91347   6.347  10.822   2.836 -1.7002 -0.9892  1.8065
  662MOL0     H91348   6.497  10.602   2.696  0.4634  0.0754 -0.9542
  662MOL0     H91349   6.367  10.673   2.616  1.2457 -1.0955 -1.0022
  662MOL0     H91350   6.629  10.805   2.657 -1.1595 -1.0657  3.5284
  662MOL0     H91351   6.480  10.914   2.659 -1.0129 -0.4372  2.4561
  662MOL0     H91352   6.522  10.841   2.262  0.1430  2.4691  0.2229
  662MOL0     H91353   6.178  10.721   3.261  1.3291 -1.0307  2.3076
  662MOL0     H91354   5.918  10.662   3.435 -1.1555 -1.4847  1.7640
  662MOL0     H91355   6.028  10.573   3.536  2.9454 -2.4016 -1.4366
  662MOL0     H91356   6.073  10.722   3.456 -3.3522  1.0481  0.2015
  663MOL0     O91357   8.728  10.204   1.113 -0.3917  1.0035 -0.1121
  663MOL0     C91358   8.757  10.298   1.045 -0.0525  0.2493 -0.5521
  663MOL0     O91359   8.812  10.286   0.922  0.4036  0.0303 -0.2737
  663MOL0     C91360   8.827  10.161   0.877  0.6675 -0.8176  0.2374
  663MOL0     C91361   8.934  10.079   0.908 -0.1233 -0.0403  0.0461
  663MOL0     C91362   8.946   9.948   0.853 -0.4616 -0.1319 -0.1979
  663MOL0     C91363   8.842   9.902   0.766 -0.3060  0.9055 -0.0577
  663MOL0     O91364   8.846   9.772   0.702  0.0601 -0.4663  0.4919
  663MOL0     C91365   8.915   9.667   0.765  0.7815  0.2740  0.3790
  663MOL0     C91366   9.058   9.649   0.725  0.1986 -0.1562  0.5634
  663MOL0     C91367   9.066   9.598   0.580  0.0308 -0.1702 -0.5815
  663MOL0     C91368   9.004   9.453   0.561 -0.0692 -0.4204  0.9389
  663MOL0     C91369   8.996   9.426   0.405 -0.2066 -0.3827 -0.5983
  663MOL0     C91370   8.954   9.290   0.372  0.4130  0.7361  0.6030
  663MOL0     C91371   8.955   9.250   0.215  0.7499  0.3837  0.0123
  663MOL0     C91372   8.929   9.096   0.201  0.5266 -0.6797  0.3635
  663MOL0     N91373   8.961   9.063   0.059 -0.6430  0.1259  0.8008
  663MOL0     C91374   8.899   9.103  -0.059  0.0860  0.3737  0.3805
  663MOL0     C91375   8.974   9.043  -0.154  0.0370  0.3014  0.6938
  663MOL0     C91376   8.943   9.026  -0.300 -1.1770  0.0789  0.3610
  663MOL0     C91377   9.045   9.107  -0.387 -0.5880  0.4388  0.6198
  663MOL0     C91378   8.971   9.222  -0.465 -0.6120  0.4113  0.0016
  663MOL0     C91379   9.062   9.306  -0.557 -0.0440  0.4992  0.2597
  663MOL0     O91380   8.979   9.402  -0.626 -0.0651 -0.7286 -0.0682
  663MOL0     C91381   9.043   9.498  -0.694  1.6434  0.0752  0.4132
  663MOL0     C91382   8.960   9.591  -0.760 -0.7161 -0.4687 -0.4894
  663MOL0     C91383   9.026   9.693  -0.839 -1.1735  0.5053  0.9696
  663MOL0     C91384   8.933   9.793  -0.893 -1.1973  0.2671 -0.5567
  663MOL0     C91385   9.169   9.692  -0.861 -0.3707 -0.1879 -0.7362
  663MOL0     C91386   9.246   9.788  -0.944  0.3018  0.5618 -0.4748
  663MOL0     O91387   9.372   9.810  -0.922  0.5476  0.4682  0.2099
  663MOL0     C91388   9.437   9.881  -1.019  1.0652  0.2596  0.2325
  663MOL0     C91389   9.544   9.826  -1.094  0.7671  0.0880  0.3356
  663MOL0     C91390   9.616   9.906  -1.182  0.5826 -1.5797 -0.3287
  663MOL0     C91391   9.583  10.045  -1.215  0.2935  0.6233 -0.4766
  663MOL0     O91392   9.649  10.117  -1.308 -0.3253 -0.1183  0.2921
  663MOL0     C91393   9.746  10.050  -1.394 -0.3285  0.3215  0.4745
  663MOL0     C91394   9.655   9.966  -1.494 -0.6842  0.1624 -0.7600
  663MOL0     C91395   9.737   9.886  -1.596  0.9612 -1.1037  0.6756
  663MOL0     C91396   9.653   9.770  -1.632 -0.5847 -0.5658  0.7085
  663MOL0     C91397   9.716   9.679  -1.739 -0.5036 -0.1701  0.0427
  663MOL0     C91398   9.767   9.757  -1.865 -0.3886 -0.1680 -0.1622
  663MOL0     C91399   9.844   9.667  -1.967  0.0976  0.5774  0.3010
  663MOL0     C91400   9.745   9.565  -2.020 -0.3899 -0.2067 -0.2867
  663MOL0    Cl91401   9.746   9.407  -1.925  0.5712  0.3066 -0.0075
  663MOL0     C91402   9.480  10.096  -1.135  0.0766 -0.4127  0.6729
  663MOL0     C91403   9.407  10.018  -1.043  0.5082 -0.5746  0.3229
  663MOL0     O91404   9.183   9.825  -1.042  0.3229  0.0464  0.1959
  663MOL0     C91405   9.245   9.606  -0.789  0.9238  0.5624  0.4522
  663MOL0     C91406   9.179   9.504  -0.718  0.0273 -0.0474 -0.2311
  663MOL0     N91407   9.082   8.976  -0.090 -0.4153 -0.2631  0.2335
  663MOL0     N91408   9.074   9.001   0.034 -0.6044  0.6955  0.0252
  663MOL0     C91409   8.730   9.983   0.739 -0.4700  0.4171 -0.2865
  663MOL0     C91410   8.726  10.110   0.795  0.3315  0.1801  0.9953
  663MOL0     C91411   8.762  10.429   1.110  0.2137  0.3242  0.1150
  663MOL0     C91412   8.835  10.531   1.045  0.8461 -0.2563  0.6120
  663MOL0     C91413   8.839  10.661   1.099  0.3730 -1.1930 -0.4720
  663MOL0     C91414   8.800  10.686   1.228 -0.1620  0.5470 -0.5353
  663MOL0     O91415   8.819  10.812   1.295  0.3673  0.7539  0.3038
  663MOL0     C91416   8.849  10.804   1.434 -0.0609 -1.0134 -0.0766
  663MOL0     C91417   8.737  10.885   1.509 -1.4568  0.5288 -0.5107
  663MOL0     C91418   8.800  10.983   1.617 -0.2578 -0.0110 -0.0287
  663MOL0     C91419   8.890  11.097   1.554 -1.0943 -0.2418 -0.1537
  663MOL0     C91420   8.930  11.177   1.661  0.5439  0.9247 -0.7843
  663MOL0     C91421   8.980  11.240   1.748  0.0692 -0.7275  0.3907
  663MOL0     C91422   8.723  10.585   1.298  0.4634  0.4762 -0.2636
  663MOL0     C91423   8.701  10.464   1.235  0.7118  0.6645  0.2930
  663MOL0     C91424   8.603  10.369   1.308  0.5191 -0.0731 -0.5411
  663MOL0     H91425   9.027  10.099   0.960 -0.6297 -1.2125  1.4906
  663MOL0     H91426   9.045   9.903   0.862  0.3888  1.9202  1.3358
  663MOL0     H91427   8.849   9.581   0.751 -2.0051  2.3289 -0.0052
  663MOL0     H91428   8.920   9.686   0.873  3.6040  1.6205  0.1076
  663MOL0     H91429   9.117   9.739   0.745 -1.7817  0.9116  1.8505
  663MOL0     H91430   9.099   9.575   0.795 -0.6044  0.0623  1.2792
  663MOL0     H91431   9.003   9.674   0.532  0.5160  0.1213 -0.7584
  663MOL0     H91432   9.168   9.590   0.541  0.5499  0.7632  0.5395
  663MOL0     H91433   9.075   9.383   0.607 -0.2164  0.6514  2.9177
  663MOL0     H91434   8.907   9.431   0.607 -0.0696 -0.8618  0.7312
  663MOL0     H91435   9.090   9.457   0.358  0.1030  0.6323  0.6346
  663MOL0     H91436   8.920   9.490   0.358  0.4705 -0.3362 -1.6725
  663MOL0     H91437   9.031   9.231   0.422  0.7267  0.5643 -0.0835
  663MOL0     H91438   8.859   9.252   0.410  2.7314 -3.4428  2.9759
  663MOL0     H91439   9.053   9.272   0.173  0.5380  3.0435  0.7387
  663MOL0     H91440   8.876   9.307   0.165 -1.0123 -1.4970  0.5234
  663MOL0     H91441   8.995   9.039   0.267  1.9584  1.4365  0.8770
  663MOL0     H91442   8.823   9.082   0.224 -0.2172 -1.1932 -2.8982
  663MOL0     H91443   8.810   9.165  -0.062 -0.0158  0.1897 -1.1337
  663MOL0     H91444   8.841   9.055  -0.328 -0.6064  1.3820 -0.4904
  663MOL0     H91445   8.960   8.920  -0.315 -0.9050  0.1624  0.0690
  663MOL0     H91446   9.129   9.159  -0.340 -0.8350  0.2979  1.2357
  663MOL0     H91447   9.092   9.040  -0.459  0.7071 -1.6283  3.2046
  663MOL0     H91448   8.888   9.178  -0.521 -0.8269  1.2400 -0.3450
  663MOL0     H91449   8.929   9.285  -0.386  0.7612 -1.2577  2.1771
  663MOL0     H91450   9.132   9.362  -0.495 -0.9748 -1.4745  3.3168
  663MOL0     H91451   9.108   9.240  -0.631  1.9335 -0.1136  1.9498
  663MOL0     H91452   8.852   9.581  -0.752 -0.5199 -1.3899  3.6656
  663MOL0     H91453   8.965   9.889  -0.851 -0.9173 -0.3992  0.8376
  663MOL0     H91454   8.835   9.759  -0.858  0.5757 -2.0154  2.8652
  663MOL0     H91455   8.941   9.806  -1.001  0.4670  3.0153 -0.1987
  663MOL0     H91456   9.575   9.722  -1.086 -1.3773 -0.8496 -2.2329
  663MOL0     H91457   9.700   9.866  -1.237  2.8598  0.4379  1.4246
  663MOL0     H91458   9.812  10.121  -1.446 -0.7282  1.1384  1.0697
  663MOL0     H91459   9.817   9.986  -1.341 -1.3684 -2.3681 -1.1671
  663MOL0     H91460   9.596   9.892  -1.439 -0.9073  2.2030  1.9525
  663MOL0     H91461   9.586  10.028  -1.552 -1.2828 -1.0499 -1.3755
  663MOL0     H91462   9.821   9.843  -1.541  0.7955 -1.7765  0.4187
  663MOL0     H91463   9.763   9.959  -1.672  0.9593 -0.4124  1.3284
  663MOL0     H91464   9.556   9.806  -1.668 -0.3612 -1.2737 -0.6451
  663MOL0     H91465   9.654   9.715  -1.537  1.0820  2.5386  2.6794
  663MOL0     H91466   9.793   9.619  -1.689 -2.1939 -0.6054  2.2364
  663MOL0     H91467   9.637   9.610  -1.768 -1.3448  0.9695 -0.4463
  663MOL0     H91468   9.831   9.838  -1.829 -1.6205  1.5174 -1.6031
  663MOL0     H91469   9.683   9.809  -1.912  0.2404 -2.4153 -4.2132
  663MOL0     H91470   9.936   9.633  -1.918 -0.4472 -1.7269 -0.1552
  663MOL0     H91471   9.889   9.731  -2.043  2.8673 -0.0459  1.3215
  663MOL0     H91472   9.770   9.537  -2.122  0.4390 -0.8084  0.0638
  663MOL0     H91473   9.648   9.614  -2.032 -0.0609  1.2055  2.0149
  663MOL0     H91474   9.455  10.201  -1.147 -1.7995 -0.9131 -0.1230
  663MOL0     H91475   9.343  10.081  -0.984  0.0477  0.2452 -1.0143
  663MOL0     H91476   9.352   9.620  -0.800  0.4904  2.9958 -1.7051
  663MOL0     H91477   9.244   9.433  -0.669  0.8824  0.6646 -0.3004
  663MOL0     H91478   8.648   9.952   0.676 -2.0745  0.2205  1.7676
  663MOL0     H91479   8.639  10.169   0.768  1.1676  0.5822 -1.0352
  663MOL0     H91480   8.882  10.508   0.949 -3.5443  0.5289 -2.0467
  663MOL0     H91481   8.901  10.739   1.054  1.4811 -1.9936 -0.3770
  663MOL0     H91482   8.857  10.701   1.470 -0.9379 -0.6944  1.0708
  663MOL0     H91483   8.948  10.847   1.455 -0.5597  1.0712 -1.7016
  663MOL0     H91484   8.684  10.806   1.562 -3.2383  1.0366 -1.4794
  663MOL0     H91485   8.670  10.942   1.444 -0.9000 -0.1036 -1.6768
  663MOL0     H91486   8.727  11.034   1.680  0.0174  1.7866 -1.0923
  663MOL0     H91487   8.865  10.922   1.681 -1.5821 -1.5912 -0.1323
  663MOL0     H91488   8.831  11.154   1.482  1.2820 -0.0811 -2.0833
  663MOL0     H91489   8.980  11.060   1.503  0.8572  3.3342  0.3981
  663MOL0     H91490   9.000  11.287   1.842 -2.1783  2.8880 -0.6893
  663MOL0     H91491   8.686  10.603   1.399  0.0470  0.9267 -0.4926
  663MOL0     H91492   8.659  10.284   1.349  0.0370  0.1174  0.5425
  663MOL0     H91493   8.545  10.422   1.384 -0.9509 -1.1577 -0.8582
  663MOL0     H91494   8.541  10.324   1.231  1.7650 -1.9251 -0.5350
  664MOL0     O91495   2.744   7.706  10.426  0.2919 -1.2749  0.2986
  664MOL0     C91496   2.706   7.733  10.310 -1.0093  0.2435  0.6340
  664MOL0     O91497   2.680   7.639  10.213 -0.4356  1.0438 -0.6021
  664MOL0     C91498   2.639   7.514  10.241 -0.2244  0.9253  0.4742
  664MOL0     C91499   2.632   7.431  10.131 -0.0227 -0.0628  0.1833
  664MOL0     C91500   2.557   7.311  10.132 -0.6254  0.2645  0.3881
  664MOL0     C91501   2.518   7.259  10.256 -0.0085 -0.0877 -1.3636
  664MOL0     O91502   2.463   7.129  10.263  0.0699 -0.4409 -0.2859
  664MOL0     C91503   2.433   7.061  10.389 -0.2046  0.0911 -0.8921
  664MOL0     C91504   2.574   7.031  10.457 -0.2351 -0.0152 -0.7169
  664MOL0     C91505   2.538   6.994  10.608 -0.0925 -0.8504 -0.6592
  664MOL0     C91506   2.655   6.929  10.687  0.3390 -0.2050 -0.4422
  664MOL0     C91507   2.618   6.915  10.837  0.1040  0.5698 -0.4404
  664MOL0     C91508   2.506   6.817  10.866  1.0792 -0.1968 -0.0123
  664MOL0     C91509   2.448   6.829  11.007  0.4424  0.8727  0.0370
  664MOL0     C91510   2.326   6.731  11.017  1.0154 -0.2290  0.2377
  664MOL0     N91511   2.357   6.593  11.040 -0.2058 -0.7168 -0.2792
  664MOL0     C91512   2.449   6.536  11.121  0.6291 -1.0908  0.4891
  664MOL0     C91513   2.454   6.403  11.096  0.2941 -0.2975  0.1773
  664MOL0     C91514   2.557   6.304  11.140 -0.3165  0.5334  0.7431
  664MOL0     C91515   2.486   6.175  11.125  0.1726  0.7967 -0.5479
  664MOL0     C91516   2.576   6.066  11.200 -0.8150  0.7410 -0.5648
  664MOL0     C91517   2.725   6.062  11.151  0.5928 -0.0404  0.2254
  664MOL0     O91518   2.730   6.018  11.020 -0.6948  0.2606  0.5499
  664MOL0     C91519   2.821   5.914  11.014  0.0483  0.0560  0.4486
  664MOL0     C91520   2.781   5.788  11.029  0.0114  0.3987 -0.4484
  664MOL0     C91521   2.871   5.682  10.996  0.9293 -0.1346  0.7118
  664MOL0     C91522   2.810   5.539  10.984  0.9319  0.3017 -0.2525
  664MOL0     C91523   3.006   5.709  10.968 -0.2633  0.7619 -0.2432
  664MOL0     C91524   3.117   5.611  10.975 -0.5126  1.2164  0.2150
  664MOL0     O91525   3.100   5.497  11.045  0.0766  1.1846 -0.1369
  664MOL0     C91526   3.184   5.396  11.029  0.2827 -1.1647  0.7905
  664MOL0     C91527   3.237   5.334  10.908  0.7797 -0.5822  1.1311
  664MOL0     C91528   3.327   5.229  10.913  0.1773  0.9817 -0.6143
  664MOL0     C91529   3.361   5.170  11.034 -0.2298  0.3010 -0.1974
  664MOL0     O91530   3.441   5.057  11.052 -0.2684  0.0375 -0.3502
  664MOL0     C91531   3.350   4.944  11.092 -0.3980  0.6244  0.2288
  664MOL0     C91532   3.410   4.813  11.043 -0.5001 -0.4281 -0.0522
  664MOL0     C91533   3.306   4.700  11.070  0.2022  0.2835 -0.4965
  664MOL0     C91534   3.383   4.573  11.100 -0.0288 -0.9914  0.3206
  664MOL0     C91535   3.303   4.445  11.107  0.8133 -0.3127 -0.0083
  664MOL0     C91536   3.174   4.457  11.194 -0.2609 -0.0943 -0.5860
  664MOL0     C91537   3.108   4.327  11.198 -0.7011  0.3234 -0.1482
  664MOL0     C91538   3.001   4.327  11.310  0.0426 -0.5651  0.5376
  664MOL0    Cl91539   3.076   4.336  11.464 -0.1306  0.0167 -0.4345
  664MOL0     C91540   3.303   5.228  11.148 -0.9755 -0.0862  0.4308
  664MOL0     C91541   3.213   5.338  11.150 -0.1645  0.2970  0.3511
  664MOL0     O91542   3.212   5.627  10.899  0.0917  0.0415 -0.4942
  664MOL0     C91543   3.046   5.843  10.963 -0.2264 -0.3687  0.1367
  664MOL0     C91544   2.953   5.942  10.978 -0.4571 -0.0755  0.5284
  664MOL0     N91545   2.366   6.385  10.987 -0.4668  0.0524 -0.4469
  664MOL0     N91546   2.307   6.495  10.960 -0.0422 -1.0484  0.1782
  664MOL0     C91547   2.549   7.342  10.369 -0.4981  0.4770  0.3089
  664MOL0     C91548   2.594   7.470  10.363 -1.0221  0.1917  0.5757
  664MOL0     C91549   2.707   7.865  10.252 -0.4456  0.1265 -0.1361
  664MOL0     C91550   2.672   7.881  10.115  0.0516  0.0676  0.5213
  664MOL0     C91551   2.674   8.002  10.059 -0.5686 -0.2581  0.6711
  664MOL0     C91552   2.720   8.110  10.125 -0.4260 -0.5278 -0.6707
  664MOL0     O91553   2.730   8.236  10.079 -0.3591 -0.2128 -0.1453
  664MOL0     C91554   2.608   8.317  10.065 -0.5402 -0.3784 -0.4765
  664MOL0     C91555   2.599   8.373   9.929 -0.1592 -0.4395 -0.3810
  664MOL0     C91556   2.719   8.470   9.881  0.6333  0.0028 -1.6897
  664MOL0     C91557   2.707   8.524   9.739 -0.1302  0.6888 -0.4916
  664MOL0     C91558   2.787   8.638   9.701  0.0990 -0.3120  0.0706
  664MOL0     C91559   2.856   8.734   9.667  0.1064  0.4265 -0.6421
  664MOL0     C91560   2.766   8.085  10.260  0.3598 -0.6273 -0.0655
  664MOL0     C91561   2.760   7.970  10.325  0.6624 -0.0352  0.4179
  664MOL0     C91562   2.813   7.968  10.472  0.5302  0.6289  0.9540
  664MOL0     H91563   2.683   7.453  10.038 -1.0410 -4.1912 -1.6050
  664MOL0     H91564   2.551   7.260  10.036 -0.5014 -3.1388  2.0618
  664MOL0     H91565   2.378   6.967  10.378  0.4008 -0.1413 -2.1370
  664MOL0     H91566   2.363   7.114  10.455 -0.3016 -1.3535  0.2235
  664MOL0     H91567   2.619   6.945  10.408 -2.2689 -3.6460  3.1775
  664MOL0     H91568   2.640   7.118  10.455 -1.6746  1.2868  2.0272
  664MOL0     H91569   2.503   7.088  10.652 -3.1489 -1.7217 -0.9827
  664MOL0     H91570   2.453   6.927  10.600 -1.8424  1.3347 -1.5281
  664MOL0     H91571   2.687   6.833  10.646  3.4244  0.3385  0.4745
  664MOL0     H91572   2.745   6.990  10.692  0.8484 -1.0221  1.4176
  664MOL0     H91573   2.600   7.013  10.882  1.4786 -0.2491  2.1274
  664MOL0     H91574   2.709   6.872  10.881 -0.2272 -2.4821 -2.4501
  664MOL0     H91575   2.432   6.835  10.787  2.8981 -0.2835 -1.7947
  664MOL0     H91576   2.551   6.719  10.854  2.6245  0.2824  1.4709
  664MOL0     H91577   2.413   6.930  11.030 -1.9412 -0.1068  0.9814
  664MOL0     H91578   2.525   6.793  11.077  1.0588 -2.1376 -1.9776
  664MOL0     H91579   2.256   6.750  11.099 -1.9131 -2.7685 -1.4580
  664MOL0     H91580   2.276   6.739  10.921  0.8243  0.3091  0.3820
  664MOL0     H91581   2.507   6.589  11.196 -0.8905 -2.3736  2.7136
  664MOL0     H91582   2.599   6.316  11.240  2.4827 -3.4487  0.2471
  664MOL0     H91583   2.637   6.299  11.065 -3.8478 -3.7485 -3.4099
  664MOL0     H91584   2.389   6.167  11.174  1.5369  0.5862  2.3650
  664MOL0     H91585   2.492   6.145  11.020  0.4138 -2.6217  0.3016
  664MOL0     H91586   2.574   6.069  11.309  0.0829  0.8004 -0.5453
  664MOL0     H91587   2.533   5.965  11.194 -2.0880  1.0048  2.3587
  664MOL0     H91588   2.769   6.161  11.162 -3.2194  2.0763 -1.4569
  664MOL0     H91589   2.767   5.994  11.225 -0.0765 -2.3471 -1.3918
  664MOL0     H91590   2.676   5.769  11.049 -0.1932  0.9706 -0.9501
  664MOL0     H91591   2.728   5.538  10.912  0.3205  0.1676  0.4301
  664MOL0     H91592   2.762   5.516  11.080  2.3310 -0.9305  0.1728
  664MOL0     H91593   2.882   5.461  10.960 -1.4443 -1.9048 -0.5995
  664MOL0     H91594   3.207   5.371  10.810 -1.8998 -0.5566  1.8845
  664MOL0     H91595   3.358   5.179  10.821 -1.4375  1.6941 -1.5899
  664MOL0     H91596   3.341   4.940  11.201  1.4496  0.4889  0.4129
  664MOL0     H91597   3.252   4.966  11.048 -0.4895  1.2120  0.7240
  664MOL0     H91598   3.422   4.816  10.935 -1.9003  3.5101 -0.2536
  664MOL0     H91599   3.509   4.786  11.080 -0.2950 -3.9637 -2.6432
  664MOL0     H91600   3.242   4.701  10.982  2.5995 -2.9558 -2.4890
  664MOL0     H91601   3.263   4.732  11.166  0.3891 -0.5386 -0.1324
  664MOL0     H91602   3.440   4.563  11.192  3.2082 -3.6202 -1.7096
  664MOL0     H91603   3.456   4.561  11.019  1.5282 -0.6338  1.6340
  664MOL0     H91604   3.289   4.409  11.005  0.3557  0.5496 -0.2563
  664MOL0     H91605   3.369   4.371  11.152 -0.3051 -1.7255 -0.6324
  664MOL0     H91606   3.099   4.519  11.144 -1.5004  0.8607  2.2298
  664MOL0     H91607   3.197   4.506  11.290 -0.1000  1.2203 -1.2770
  664MOL0     H91608   3.175   4.241  11.205 -2.3084 -1.0451 -0.8069
  664MOL0     H91609   3.054   4.315  11.104 -0.4164  1.4365 -0.4697
  664MOL0     H91610   2.945   4.233  11.310  0.7334 -0.9910 -0.2976
  664MOL0     H91611   2.930   4.410  11.310  0.1385 -0.2941 -3.3704
  664MOL0     H91612   3.320   5.178  11.243 -2.8879  0.4852  1.1165
  664MOL0     H91613   3.166   5.381  11.238  2.1157  4.8739 -0.3882
  664MOL0     H91614   3.153   5.860  10.964  0.3519 -3.4228 -0.9334
  664MOL0     H91615   2.981   6.044  10.955  2.8388 -1.5551 -3.2559
  664MOL0     H91616   2.532   7.300  10.467 -0.4466 -1.3335 -0.4184
  664MOL0     H91617   2.605   7.520  10.459 -1.2975 -1.5439  1.5659
  664MOL0     H91618   2.631   7.799  10.057  2.0386 -1.2673  0.9060
  664MOL0     H91619   2.651   8.021   9.955  2.2025 -2.3370 -0.4544
  664MOL0     H91620   2.519   8.257  10.088  1.5211 -3.5461 -0.0257
  664MOL0     H91621   2.604   8.407  10.127 -0.3747  0.2511 -1.3634
  664MOL0     H91622   2.514   8.441   9.923 -0.6031 -0.6647  2.1559
  664MOL0     H91623   2.583   8.285   9.866 -0.1273 -0.9718  0.3294
  664MOL0     H91624   2.731   8.556   9.948 -3.6043  0.0496 -0.7300
  664MOL0     H91625   2.805   8.403   9.889  0.0747 -0.8352 -2.5023
  664MOL0     H91626   2.605   8.536   9.704  0.7605 -0.4956 -3.9045
  664MOL0     H91627   2.754   8.447   9.677  0.0853  1.9059 -1.9023
  664MOL0     H91628   2.911   8.811   9.618  0.7774 -0.1420 -0.8077
  664MOL0     H91629   2.807   8.175  10.303 -3.4948 -0.1362  3.1706
  664MOL0     H91630   2.893   7.895  10.489 -3.3652 -4.1634  0.9839
  664MOL0     H91631   2.855   8.065  10.502  1.1930  0.8951 -0.7198
  664MOL0     H91632   2.739   7.940  10.547  1.4923 -1.2614  1.2646
  665MOL0     O91633   9.119   0.462   5.275 -0.4742  0.1709  0.3133
  665MOL0     C91634   9.200   0.399   5.343  0.9024  0.4607 -1.7256
  665MOL0     O91635   9.243   0.429   5.464  0.5856 -0.1593 -0.5137
  665MOL0     C91636   9.201   0.546   5.533 -0.3336  0.4191  0.1552
  665MOL0     C91637   9.080   0.609   5.519  0.6910  0.7850 -0.5370
  665MOL0     C91638   9.052   0.722   5.594 -0.1179  1.4926  0.4609
  665MOL0     C91639   9.145   0.780   5.676  0.7703 -0.7601  0.6632
  665MOL0     O91640   9.124   0.892   5.754  0.0039  0.6954  0.0305
  665MOL0     C91641   9.001   0.968   5.746 -0.0723  0.4229  0.1788
  665MOL0     C91642   9.014   1.095   5.841  0.4880  0.5141  0.6551
  665MOL0     C91643   9.090   1.211   5.769  0.6555  0.0630  0.0577
  665MOL0     C91644   9.115   1.331   5.861  0.2284 -0.3117 -0.1724
  665MOL0     C91645   9.134   1.464   5.773  0.3522 -0.6999 -0.3303
  665MOL0     C91646   9.264   1.449   5.702  0.1321  0.7478 -0.8981
  665MOL0     C91647   9.291   1.573   5.613  0.1161  1.0249 -0.0125
  665MOL0     C91648   9.410   1.554   5.517  0.0599 -0.3844  0.7108
  665MOL0     N91649   9.546   1.559   5.573 -0.6844  0.2008  0.5474
  665MOL0     C91650   9.622   1.674   5.562  0.0468 -0.2679  0.6171
  665MOL0     C91651   9.735   1.641   5.630  0.6677 -0.9236 -0.1620
  665MOL0     C91652   9.833   1.752   5.673 -0.0759 -0.6333 -0.5353
  665MOL0     C91653   9.967   1.693   5.732 -0.4567 -0.5108 -0.3646
  665MOL0     C91654  10.048   1.629   5.625 -0.5372  0.0871 -0.0199
  665MOL0     C91655  10.154   1.525   5.679 -0.0078 -0.5194 -1.0367
  665MOL0     O91656  10.231   1.482   5.572  0.2206  0.1727  1.1684
  665MOL0     C91657  10.179   1.376   5.505  0.1351  0.8304  0.0104
  665MOL0     C91658  10.264   1.310   5.421 -0.8063 -1.0096 -0.2055
  665MOL0     C91659  10.238   1.185   5.366 -0.0067  0.3972 -0.0178
  665MOL0     C91660  10.359   1.125   5.304 -0.3633  0.9373  0.1495
  665MOL0     C91661  10.109   1.132   5.369  0.1271 -0.1946  0.7912
  665MOL0     C91662  10.078   1.005   5.302 -0.1749 -0.6037  0.7444
  665MOL0     O91663  10.159   0.939   5.222  0.8927 -0.4209  0.7142
  665MOL0     C91664  10.124   0.809   5.202 -1.2311 -0.4678  0.0383
  665MOL0     C91665  10.087   0.765   5.081  0.0984  0.0824 -0.1853
  665MOL0     C91666  10.060   0.632   5.054  0.7662 -0.1961 -0.0923
  665MOL0     C91667  10.084   0.539   5.154 -0.3203 -0.3159 -0.1854
  665MOL0     O91668  10.058   0.406   5.140 -0.0038 -0.5817 -0.1334
  665MOL0     C91669  10.079   0.356   5.002 -0.3352 -1.0067 -0.8535
  665MOL0     C91670   9.946   0.290   4.949  0.2259 -1.0052  0.9157
  665MOL0     C91671   9.921   0.142   4.987  0.4896 -0.7850  0.4092
  665MOL0     C91672   9.842   0.139   5.119 -0.9641 -2.2191  0.1481
  665MOL0     C91673   9.816  -0.002   5.174  0.6351 -0.2319 -1.0312
  665MOL0     C91674   9.718  -0.091   5.089 -0.5099 -0.6728  0.6404
  665MOL0     C91675   9.751  -0.246   5.107  0.0701  0.3919  0.7072
  665MOL0     C91676   9.684  -0.336   5.003  0.3904 -0.3279 -0.7117
  665MOL0    Cl91677   9.749  -0.320   4.842 -0.1718 -0.1059 -0.0607
  665MOL0     C91678  10.121   0.582   5.280  0.8913  0.9621  0.4597
  665MOL0     C91679  10.143   0.713   5.307 -0.4566  0.9335 -0.9380
  665MOL0     O91680   9.961   0.971   5.325 -0.1153  0.1636  0.1616
  665MOL0     C91681  10.013   1.195   5.454 -0.0140  0.2790 -0.2371
  665MOL0     C91682  10.051   1.311   5.525  0.7911  0.2057  0.6516
  665MOL0     N91683   9.717   1.505   5.677 -1.0074 -0.7593 -0.7534
  665MOL0     N91684   9.607   1.457   5.634 -0.1021  0.9836 -0.0732
  665MOL0     C91685   9.268   0.721   5.685  1.3066  0.2917  0.4497
  665MOL0     C91686   9.294   0.603   5.615 -0.1347  0.8501  0.4345
  665MOL0     C91687   9.238   0.266   5.286  0.6150  0.2518 -0.6799
  665MOL0     C91688   9.136   0.192   5.223  0.8285  0.3677  0.3855
  665MOL0     C91689   9.169   0.066   5.168 -0.3507 -0.7372 -0.3979
  665MOL0     C91690   9.298   0.011   5.186  0.0936  1.0697  0.7545
  665MOL0     O91691   9.331  -0.116   5.152 -0.7041 -0.2972  0.0262
  665MOL0     C91692   9.244  -0.185   5.061 -0.2601  0.4098 -0.9454
  665MOL0     C91693   9.320  -0.290   4.990 -0.1419 -0.4420  0.5014
  665MOL0     C91694   9.236  -0.365   4.893  0.3172  0.0954  0.1226
  665MOL0     C91695   9.311  -0.455   4.792  0.1599 -0.1393 -1.0682
  665MOL0     C91696   9.379  -0.560   4.866  0.2422 -0.0526  0.0404
  665MOL0     C91697   9.434  -0.648   4.930 -0.4885  0.3783 -0.2185
  665MOL0     C91698   9.389   0.075   5.263  0.2255  0.2595 -0.2930
  665MOL0     C91699   9.363   0.210   5.309  0.5591  0.3059  0.0859
  665MOL0     C91700   9.483   0.284   5.355 -0.3548 -0.6244 -0.0800
  665MOL0     H91701   9.000   0.573   5.455  0.2010 -3.4717  2.0914
  665MOL0     H91702   8.960   0.778   5.587  1.2989  3.9681  0.1263
  665MOL0     H91703   8.917   0.904   5.775 -1.2448  0.1053 -3.3686
  665MOL0     H91704   8.990   1.006   5.643 -0.4140  1.4799  0.5922
  665MOL0     H91705   8.913   1.127   5.872 -1.4070 -3.8944 -0.2009
  665MOL0     H91706   9.062   1.076   5.938 -0.6497 -1.2131  0.9402
  665MOL0     H91707   9.191   1.186   5.734  0.2658 -1.0749 -0.2916
  665MOL0     H91708   9.040   1.252   5.680  3.8607  0.4445 -1.7369
  665MOL0     H91709   9.019   1.342   5.912 -1.4806 -0.5243 -3.1130
  665MOL0     H91710   9.199   1.301   5.923  0.2744  0.2615  0.0495
  665MOL0     H91711   9.130   1.551   5.840 -2.2035 -1.1864  0.2490
  665MOL0     H91712   9.053   1.478   5.700  1.6443  6.0245 -1.1338
  665MOL0     H91713   9.342   1.426   5.774  0.5260  0.2547 -1.4705
  665MOL0     H91714   9.275   1.371   5.626  3.5349  0.9038 -0.7199
  665MOL0     H91715   9.311   1.661   5.675  1.6480  0.6647  0.0621
  665MOL0     H91716   9.198   1.588   5.559  0.9157  4.9661 -0.6135
  665MOL0     H91717   9.398   1.462   5.459  1.0202 -0.3161  0.3823
  665MOL0     H91718   9.406   1.638   5.447  0.8519 -1.2040 -0.3600
  665MOL0     H91719   9.610   1.773   5.519  0.0383 -1.1908 -1.6558
  665MOL0     H91720   9.786   1.800   5.759 -1.5394 -2.3372 -0.3268
  665MOL0     H91721   9.847   1.819   5.587  0.7789 -0.5043 -0.2983
  665MOL0     H91722  10.012   1.777   5.787 -2.0732 -1.5911  2.8275
  665MOL0     H91723   9.939   1.625   5.813  2.5351 -2.4108 -0.8092
  665MOL0     H91724   9.989   1.568   5.555 -0.1175 -0.8191  0.3935
  665MOL0     H91725  10.107   1.703   5.571 -2.4051  2.2267  0.6877
  665MOL0     H91726  10.218   1.591   5.738 -0.8117 -0.9016  0.3193
  665MOL0     H91727  10.111   1.448   5.744  2.2947  0.4337  1.8261
  665MOL0     H91728  10.362   1.357   5.412 -2.3194  2.6412  0.3239
  665MOL0     H91729  10.374   1.026   5.349 -2.4276  1.1250  1.3358
  665MOL0     H91730  10.453   1.176   5.329 -0.2603 -0.1689  2.2777
  665MOL0     H91731  10.372   1.105   5.197  3.9529 -2.6359  1.0287
  665MOL0     H91732  10.082   0.814   4.984 -1.5616 -0.3537 -0.3560
  665MOL0     H91733  10.023   0.610   4.955 -0.9237 -1.7642  0.8221
  665MOL0     H91734  10.116   0.430   4.931  0.7128 -2.0794 -1.4617
  665MOL0     H91735  10.157   0.280   5.011 -0.2606 -0.7294  1.3359
  665MOL0     H91736   9.857   0.349   4.970 -1.3359 -3.0379  0.3343
  665MOL0     H91737   9.968   0.282   4.842  3.6597 -1.5103  1.5333
  665MOL0     H91738  10.018   0.090   4.989  1.0029  0.1665  1.4135
  665MOL0     H91739   9.863   0.090   4.910 -1.1170  0.1983  0.9203
  665MOL0     H91740   9.755   0.204   5.114 -1.0337 -2.3582 -0.6048
  665MOL0     H91741   9.896   0.194   5.196 -2.9289 -0.7095  0.5083
  665MOL0     H91742   9.908  -0.060   5.180  1.1281  0.6607  0.9800
  665MOL0     H91743   9.774   0.005   5.275 -0.1621  0.3972 -1.3925
  665MOL0     H91744   9.727  -0.051   4.988 -0.0191  1.4007  1.4454
  665MOL0     H91745   9.614  -0.069   5.117 -0.2932  1.1732  0.0920
  665MOL0     H91746   9.738  -0.262   5.214  3.8413  2.7623  1.7105
  665MOL0     H91747   9.859  -0.256   5.100  0.2182 -1.2829  3.9183
  665MOL0     H91748   9.576  -0.325   4.990  0.4766 -0.1486 -1.3238
  665MOL0     H91749   9.694  -0.439   5.040  2.4547 -0.0759 -0.4408
  665MOL0     H91750  10.133   0.505   5.356  0.5733 -0.5799 -1.0130
  665MOL0     H91751  10.182   0.734   5.406  2.1411 -0.6842 -1.5084
  665MOL0     H91752   9.909   1.163   5.453  0.3218 -0.8682 -1.0626
  665MOL0     H91753   9.979   1.353   5.594 -0.0406  0.7191 -0.4894
  665MOL0     H91754   9.342   0.772   5.746  0.5651  2.9104 -0.6662
  665MOL0     H91755   9.392   0.557   5.624 -0.9424 -1.2434 -0.8164
  665MOL0     H91756   9.042   0.224   5.179  0.9850 -0.4346 -0.5642
  665MOL0     H91757   9.096   0.020   5.103 -1.2661 -0.7050  0.5716
  665MOL0     H91758   9.153  -0.228   5.103  1.6590 -3.4811 -0.2633
  665MOL0     H91759   9.208  -0.116   4.985 -1.2295 -1.3503 -2.1427
  665MOL0     H91760   9.348  -0.364   5.065  0.0702 -0.7178  0.1498
  665MOL0     H91761   9.405  -0.245   4.938 -1.1104 -0.0614 -0.8211
  665MOL0     H91762   9.154  -0.416   4.945 -1.4805  1.0837 -1.6163
  665MOL0     H91763   9.185  -0.288   4.834  0.2690 -0.7029 -0.8928
  665MOL0     H91764   9.388  -0.398   4.739  0.0379  2.1435  1.0349
  665MOL0     H91765   9.240  -0.499   4.721  0.7523 -1.7956 -0.6876
  665MOL0     H91766   9.488  -0.731   4.972  0.7497  0.7635 -0.9773
  665MOL0     H91767   9.480   0.024   5.293  0.7227  2.2513  1.9256
  665MOL0     H91768   9.463   0.392   5.357  1.5874 -0.2056 -0.8474
  665MOL0     H91769   9.507   0.256   5.458 -3.6246 -0.4301  0.8331
  665MOL0     H91770   9.562   0.262   5.282  1.0531  0.2564  1.1087
  666MOL0     O91771   1.891   1.659   9.465 -0.0570  0.0034 -0.1778
  666MOL0     C91772   1.944   1.673   9.357  0.1488 -0.2611  0.5183
  666MOL0     O91773   2.052   1.613   9.314 -0.4715 -0.4759  0.4197
  666MOL0     C91774   2.121   1.529   9.407  0.2279 -0.0472  0.0416
  666MOL0     C91775   2.100   1.390   9.409 -0.5902  0.0579  0.1374
  666MOL0     C91776   2.172   1.301   9.496 -0.5588 -0.5690  0.3361
  666MOL0     C91777   2.271   1.360   9.569  0.0423  0.2576  0.0004
  666MOL0     O91778   2.345   1.276   9.646 -0.1072  0.2598 -0.1297
  666MOL0     C91779   2.485   1.263   9.591 -0.6284 -1.2847  0.0937
  666MOL0     C91780   2.556   1.142   9.651  0.1662 -0.0648 -0.3565
  666MOL0     C91781   2.696   1.111   9.611 -0.4018 -0.7087 -0.8319
  666MOL0     C91782   2.736   0.972   9.679 -0.0098 -0.6713  0.4674
  666MOL0     C91783   2.875   0.919   9.634  0.2321  0.2701 -0.2329
  666MOL0     C91784   2.876   0.854   9.495 -0.5219  0.0559  0.5199
  666MOL0     C91785   2.811   0.719   9.475 -0.0623  0.2204 -0.2836
  666MOL0     C91786   2.834   0.645   9.334  0.2150 -0.7469 -0.1737
  666MOL0     N91787   2.740   0.531   9.322  0.5032  0.0806 -0.1320
  666MOL0     C91788   2.646   0.522   9.211 -0.3949  0.5782  0.2293
  666MOL0     C91789   2.597   0.399   9.254  0.5401  0.0232  0.6272
  666MOL0     C91790   2.477   0.321   9.191  0.3290 -0.0359 -0.8618
  666MOL0     C91791   2.372   0.291   9.297  1.1075 -0.7655  0.6604
  666MOL0     C91792   2.251   0.217   9.225 -0.2981 -1.0881  0.4030
  666MOL0     C91793   2.157   0.158   9.321  0.0077 -1.8319  0.5917
  666MOL0     O91794   2.043   0.129   9.244 -0.8239  0.1949 -0.0402
  666MOL0     C91795   1.927   0.110   9.303 -1.2612  0.0273  1.2500
  666MOL0     C91796   1.914   0.041   9.424  0.0105 -0.7948 -0.5925
  666MOL0     C91797   1.793   0.028   9.491 -0.7101  0.5301 -0.0338
  666MOL0     C91798   1.792  -0.023   9.626 -0.9129 -0.0643 -0.9003
  666MOL0     C91799   1.679   0.077   9.438 -0.5566 -1.0289  0.5782
  666MOL0     C91800   1.544   0.063   9.513 -0.5176  0.1514 -0.2229
  666MOL0     O91801   1.533   0.145   9.627 -0.1100  0.1796 -0.0440
  666MOL0     C91802   1.419   0.147   9.700  0.8497  1.4931  0.4945
  666MOL0     C91803   1.376   0.023   9.765 -0.1811  0.4635 -0.1554
  666MOL0     C91804   1.258   0.028   9.850 -1.0713 -0.4075 -0.4570
  666MOL0     C91805   1.189   0.144   9.862 -1.0885  0.7308  0.2017
  666MOL0     O91806   1.075   0.136   9.932  0.6062 -0.2171 -0.5333
  666MOL0     C91807   0.989   0.254   9.930 -0.1555  0.2633 -0.5101
  666MOL0     C91808   0.890   0.248  10.038 -0.1123 -0.1084 -0.8069
  666MOL0     C91809   0.791   0.136  10.009  0.3817 -0.6641 -0.0273
  666MOL0     C91810   0.678   0.140  10.109  0.1342 -0.0577  1.2998
  666MOL0     C91811   0.585   0.023  10.078  0.2406 -0.5990 -0.6425
  666MOL0     C91812   0.454   0.028  10.154 -0.2531  0.6158 -0.0140
  666MOL0     C91813   0.464   0.002  10.305  0.5012 -0.7700  0.1048
  666MOL0     C91814   0.524  -0.132  10.352 -0.0574  0.0871 -0.5220
  666MOL0    Cl91815   0.433  -0.273  10.289  0.2871  1.0947  0.3196
  666MOL0     C91816   1.231   0.261   9.791 -0.1907  0.0141 -0.4257
  666MOL0     C91817   1.346   0.260   9.711  0.9125  0.2213 -0.5705
  666MOL0     O91818   1.453   0.013   9.445 -0.1412  0.1409  0.2078
  666MOL0     C91819   1.684   0.132   9.301  0.6307  0.5321 -0.3074
  666MOL0     C91820   1.803   0.141   9.235 -1.6663  1.2116 -0.4311
  666MOL0     N91821   2.656   0.337   9.359 -0.2065 -1.0433 -0.2101
  666MOL0     N91822   2.741   0.424   9.402  0.3875  0.6386  0.0562
  666MOL0     C91823   2.295   1.496   9.570  0.2963  0.5850 -0.5512
  666MOL0     C91824   2.217   1.584   9.498  0.0669  0.1250 -1.5574
  666MOL0     C91825   1.895   1.788   9.285 -0.6037  0.4197  0.1751
  666MOL0     C91826   1.842   1.898   9.357 -0.0141  1.2711 -0.2973
  666MOL0     C91827   1.784   1.999   9.289  0.2216 -0.8623  0.1667
  666MOL0     C91828   1.776   1.997   9.153 -0.6224  0.1744  0.5881
  666MOL0     O91829   1.732   2.104   9.074  0.2162 -1.0013  0.3978
  666MOL0     C91830   1.651   2.207   9.128  0.1103 -0.1263  0.2615
  666MOL0     C91831   1.727   2.335   9.125  0.0038  0.2534 -0.6314
  666MOL0     C91832   1.627   2.441   9.107 -0.7600 -0.4529  0.3602
  666MOL0     C91833   1.686   2.582   9.152  0.3222  0.1614 -0.7171
  666MOL0     C91834   1.709   2.577   9.297 -0.9105  0.1197  0.6787
  666MOL0     C91835   1.729   2.565   9.414 -0.0575  0.1738 -0.5477
  666MOL0     C91836   1.811   1.878   9.083 -0.3312 -0.8043 -0.2236
  666MOL0     C91837   1.866   1.770   9.150  1.6300 -0.1010 -0.0879
  666MOL0     C91838   1.901   1.658   9.068  0.3979 -0.3390 -0.5059
  666MOL0     H91839   2.039   1.340   9.335 -0.4153 -0.9476  0.6552
  666MOL0     H91840   2.148   1.195   9.494 -0.2246 -0.6471  0.4921
  666MOL0     H91841   2.538   1.354   9.620 -2.7147  0.0323  0.0158
  666MOL0     H91842   2.484   1.277   9.483  2.6599  3.2215  0.3688
  666MOL0     H91843   2.547   1.158   9.759  1.8344  1.3730 -0.3963
  666MOL0     H91844   2.498   1.054   9.619  0.3721 -0.6878  0.9182
  666MOL0     H91845   2.690   1.102   9.502 -1.2320 -0.9335 -0.7751
  666MOL0     H91846   2.766   1.185   9.650 -0.4318 -1.1388  0.0834
  666MOL0     H91847   2.723   0.967   9.787 -2.1122 -0.0485  0.2969
  666MOL0     H91848   2.660   0.901   9.645  0.7563 -1.1687 -0.2117
  666MOL0     H91849   2.912   0.841   9.701 -1.1383 -2.1132 -2.0755
  666MOL0     H91850   2.949   0.999   9.646  0.2043 -0.1676  5.2383
  666MOL0     H91851   2.838   0.932   9.429 -2.4010  0.5542  2.0826
  666MOL0     H91852   2.981   0.835   9.469 -1.4943 -1.0148 -3.1567
  666MOL0     H91853   2.708   0.713   9.511 -0.3749 -4.1728 -1.3816
  666MOL0     H91854   2.862   0.660   9.552  1.0649  3.0509  1.2989
  666MOL0     H91855   2.820   0.718   9.254 -1.0180  0.3225  0.9755
  666MOL0     H91856   2.935   0.604   9.323  0.1717 -0.9787  0.2494
  666MOL0     H91857   2.622   0.585   9.126 -0.8650 -0.4902 -0.4457
  666MOL0     H91858   2.512   0.233   9.137 -0.5258 -0.6258 -0.4674
  666MOL0     H91859   2.432   0.384   9.114  0.6238  1.2868  0.0113
  666MOL0     H91860   2.417   0.229   9.376  1.3687 -1.6006 -0.1259
  666MOL0     H91861   2.356   0.388   9.345  3.5253  0.5750 -1.0127
  666MOL0     H91862   2.187   0.290   9.175 -1.2046 -3.4001 -2.0696
  666MOL0     H91863   2.281   0.137   9.157 -2.1704  0.1440 -1.9922
  666MOL0     H91864   2.200   0.067   9.365  2.4925 -1.4653 -0.8785
  666MOL0     H91865   2.132   0.239   9.390  0.4018 -2.1081  1.0663
  666MOL0     H91866   2.008   0.010   9.470  1.2358  2.6593 -0.5195
  666MOL0     H91867   1.774   0.051   9.705 -2.6057 -2.4667  1.1542
  666MOL0     H91868   1.879  -0.082   9.657 -1.0374  0.3826  0.3705
  666MOL0     H91869   1.701  -0.082   9.640 -0.5827 -0.2034  1.0216
  666MOL0     H91870   1.413  -0.076   9.742 -1.9276  0.2461 -2.3710
  666MOL0     H91871   1.226  -0.053   9.914 -1.5457  1.6615  2.0582
  666MOL0     H91872   1.050   0.340   9.958  3.1148 -3.1663  4.4366
  666MOL0     H91873   0.953   0.269   9.828  0.9476 -0.1691 -0.9799
  666MOL0     H91874   0.942   0.232  10.133  2.5356  1.2027 -1.9216
  666MOL0     H91875   0.835   0.341  10.059 -2.6823 -1.8444  0.7741
  666MOL0     H91876   0.847   0.043  10.009  1.2635 -0.1817 -1.6570
  666MOL0     H91877   0.768   0.158   9.904  0.9738  3.5083  0.5438
  666MOL0     H91878   0.618   0.230  10.094  1.0465  0.1364 -2.2316
  666MOL0     H91879   0.726   0.136  10.207 -1.7299 -2.8480  2.2408
  666MOL0     H91880   0.540   0.019   9.979  0.7632 -2.6940 -0.8503
  666MOL0     H91881   0.641  -0.071  10.086 -1.3566 -1.9253 -3.4310
  666MOL0     H91882   0.389  -0.055  10.124 -0.3803 -0.3635  2.7277
  666MOL0     H91883   0.402   0.118  10.119 -0.3932  0.6275  0.2279
  666MOL0     H91884   0.357  -0.004  10.325 -0.3621 -0.2639 -3.6352
  666MOL0     H91885   0.514   0.085  10.356  1.0762 -0.1907 -1.3515
  666MOL0     H91886   0.512  -0.135  10.461 -0.9858 -0.7583 -0.6300
  666MOL0     H91887   0.630  -0.145  10.331 -0.5187  0.7500 -3.7330
  666MOL0     H91888   1.169   0.349   9.796  0.8205  0.7365 -0.3466
  666MOL0     H91889   1.377   0.355   9.667 -0.2311  1.7662  1.7429
  666MOL0     H91890   1.583   0.149   9.265  0.2385 -3.0181 -1.2437
  666MOL0     H91891   1.810   0.183   9.135  3.4252 -0.6614 -1.1625
  666MOL0     H91892   2.372   1.535   9.635 -1.9672  7.1019 -1.1089
  666MOL0     H91893   2.232   1.691   9.513  1.4008 -0.3435  0.8607
  666MOL0     H91894   1.848   1.904   9.465 -0.2251  0.7797 -0.2579
  666MOL0     H91895   1.752   2.091   9.339 -0.2795  0.8048 -2.9839
  666MOL0     H91896   1.564   2.208   9.060  1.1708  0.7812 -1.1459
  666MOL0     H91897   1.612   2.198   9.229 -1.5788  5.1754  0.3955
  666MOL0     H91898   1.800   2.331   9.044  1.7101  3.9149  0.4988
  666MOL0     H91899   1.779   2.345   9.221  1.4407  0.0873 -1.3738
  666MOL0     H91900   1.597   2.456   9.003  2.7191  1.6343 -0.4971
  666MOL0     H91901   1.541   2.427   9.174 -0.2203 -1.5406  0.8651
  666MOL0     H91902   1.600   2.650   9.141 -1.2092 -1.4488  0.6154
  666MOL0     H91903   1.776   2.611   9.098  0.5300 -1.8972 -1.5773
  666MOL0     H91904   1.744   2.547   9.519  1.7587 -2.2781 -1.1309
  666MOL0     H91905   1.806   1.887   8.975 -1.1728 -2.9423 -0.4091
  666MOL0     H91906   1.847   1.566   9.091  0.0018 -0.1677 -0.7433
  666MOL0     H91907   1.886   1.683   8.962  0.2277  2.8754  0.1591
  666MOL0     H91908   2.006   1.630   9.081  0.6637  1.1665  0.9430
  667MOL0     O91909   7.892   3.350  11.094  0.3441  1.5964  0.0102
  667MOL0     C91910   7.901   3.231  11.062  0.7855 -0.2749  0.3707
  667MOL0     O91911   7.922   3.191  10.934 -0.4390 -0.7597 -0.0678
  667MOL0     C91912   7.872   3.260  10.834  0.4623 -0.4168 -0.5841
  667MOL0     C91913   7.751   3.330  10.836 -0.1029 -0.6577  0.5088
  667MOL0     C91914   7.709   3.400  10.721  0.8385  0.8556  0.6876
  667MOL0     C91915   7.780   3.395  10.604  0.9540 -0.7056 -0.6148
  667MOL0     O91916   7.727   3.472  10.498  0.1160  1.1415 -0.1845
  667MOL0     C91917   7.816   3.576  10.438  0.0305  0.1374  0.6581
  667MOL0     C91918   7.839   3.553  10.289  0.2582 -0.0046  0.1138
  667MOL0     C91919   7.934   3.657  10.226 -0.2423 -0.0543 -0.2732
  667MOL0     C91920   7.876   3.704  10.093  0.2119 -0.5347  0.1568
  667MOL0     C91921   7.963   3.805  10.023 -0.3908  0.2974  0.9318
  667MOL0     C91922   7.945   3.948  10.067  0.5957 -0.0159  0.8251
  667MOL0     C91923   8.042   4.024   9.975  0.4309 -1.0029  0.1971
  667MOL0     C91924   8.196   4.024  10.003  0.9283  0.5777  0.7061
  667MOL0     N91925   8.235   4.060  10.136 -0.2601 -0.1980 -0.2283
  667MOL0     C91926   8.222   3.983  10.249  0.1497 -0.1247  0.3418
  667MOL0     C91927   8.284   4.054  10.343  0.2400  0.9983 -1.0741
  667MOL0     C91928   8.300   4.012  10.490  0.7390 -0.8498 -0.0640
  667MOL0     C91929   8.174   4.050  10.578 -0.4662 -0.5051  0.2994
  667MOL0     C91930   8.052   3.983  10.518  1.1038  0.1233 -0.0560
  667MOL0     C91931   7.929   4.023  10.613 -0.1982 -0.2935  0.7042
  667MOL0     O91932   7.812   3.932  10.591  0.6013 -0.4913 -0.6040
  667MOL0     C91933   7.699   3.964  10.668 -0.6280  0.2592  0.5775
  667MOL0     C91934   7.585   3.907  10.614  0.9906 -1.0927  1.0266
  667MOL0     C91935   7.459   3.919  10.679 -0.5862 -0.3789 -0.3401
  667MOL0     C91936   7.336   3.849  10.625 -0.0037 -0.8619 -0.9022
  667MOL0     C91937   7.447   4.010  10.787 -0.2548  0.2838  0.3641
  667MOL0     C91938   7.330   4.017  10.868  0.4819  0.6750  0.4283
  667MOL0     O91939   7.280   3.895  10.919  0.7421 -0.9384 -0.3228
  667MOL0     C91940   7.172   3.902  11.011 -0.3359 -0.8457  0.9446
  667MOL0     C91941   7.060   3.980  11.003  0.2229 -0.3915  0.7385
  667MOL0     C91942   6.959   3.977  11.099  0.2108 -0.1447  0.0711
  667MOL0     C91943   6.980   3.897  11.216  0.8158 -0.5915 -0.2892
  667MOL0     O91944   6.859   3.879  11.291  0.7060  0.2638 -0.3624
  667MOL0     C91945   6.865   3.839  11.428  0.4450 -0.0835  0.6042
  667MOL0     C91946   6.761   3.926  11.499  0.0764  0.4854 -0.1777
  667MOL0     C91947   6.612   3.924  11.445  0.2290  0.6794  0.0294
  667MOL0     C91948   6.550   3.787  11.406 -0.1171 -0.0581  0.0507
  667MOL0     C91949   6.396   3.819  11.402  0.4219 -0.7363  0.2116
  667MOL0     C91950   6.329   3.705  11.325  0.0658 -0.7793 -0.6820
  667MOL0     C91951   6.177   3.704  11.330 -1.1064 -0.2959  0.3378
  667MOL0     C91952   6.095   3.833  11.303  0.0998  0.3282  0.6891
  667MOL0    Cl91953   5.927   3.794  11.322  0.0097 -0.1536 -0.6717
  667MOL0     C91954   7.095   3.825  11.237  0.1110 -0.8283 -1.1172
  667MOL0     C91955   7.186   3.825  11.131 -0.2995  0.1842 -0.0709
  667MOL0     O91956   7.288   4.128  10.890  0.2533 -0.0185 -0.6055
  667MOL0     C91957   7.556   4.074  10.837 -0.4006 -0.0034  0.2874
  667MOL0     C91958   7.681   4.050  10.773 -0.5945 -0.4279 -0.5703
  667MOL0     N91959   8.324   4.176  10.295  0.0353 -0.1127  0.2866
  667MOL0     N91960   8.291   4.177  10.173 -0.0168 -0.8542  0.3107
  667MOL0     C91961   7.904   3.322  10.600 -0.6646 -0.6064 -0.4986
  667MOL0     C91962   7.950   3.261  10.713 -0.1431  0.0616 -0.2637
  667MOL0     C91963   7.891   3.124  11.169 -0.1796  0.1960 -0.6134
  667MOL0     C91964   7.934   2.994  11.139  0.6756  0.7702  0.2761
  667MOL0     C91965   7.941   2.886  11.226  0.6840 -0.4339 -0.2076
  667MOL0     C91966   7.930   2.917  11.360  0.3619  0.5070  0.0760
  667MOL0     O91967   7.974   2.810  11.438 -0.3839  0.2203 -0.3731
  667MOL0     C91968   8.030   2.852  11.562 -0.8425  1.2131  0.1499
  667MOL0     C91969   8.037   2.729  11.658  0.5059 -0.2727  0.0382
  667MOL0     C91970   7.914   2.644  11.646  0.0660  0.0592  0.0265
  667MOL0     C91971   7.919   2.531  11.749  0.2597  0.0228 -0.0001
  667MOL0     C91972   7.903   2.578  11.891  0.2326  0.4849 -0.2828
  667MOL0     C91973   7.870   2.619  12.004  0.2279  0.4378  0.4639
  667MOL0     C91974   7.880   3.043  11.402 -0.9907 -0.0224 -0.1709
  667MOL0     C91975   7.871   3.142  11.309  0.6144 -0.6151 -0.9991
  667MOL0     C91976   7.831   3.279  11.379  0.2123  0.8395  0.2575
  667MOL0     H91977   7.704   3.343  10.934  1.9334  0.8340  1.3478
  667MOL0     H91978   7.618   3.459  10.716  0.4982  0.3039  0.2515
  667MOL0     H91979   7.913   3.581  10.488  1.6768  2.0137 -2.4680
  667MOL0     H91980   7.779   3.677  10.457  2.1768  0.8236  1.4593
  667MOL0     H91981   7.871   3.448  10.289 -2.6368 -0.9942 -0.3430
  667MOL0     H91982   7.741   3.550  10.241 -1.1368 -0.7460  2.8093
  667MOL0     H91983   7.949   3.751  10.279  0.8244 -0.8124  0.8232
  667MOL0     H91984   8.033   3.612  10.210 -1.0235 -1.3650 -1.7273
  667MOL0     H91985   7.858   3.626  10.018 -0.3785  0.2530 -0.5317
  667MOL0     H91986   7.780   3.754  10.108 -2.3805 -4.6597 -0.8827
  667MOL0     H91987   7.935   3.808   9.917  1.2014 -0.5134  0.4505
  667MOL0     H91988   8.067   3.769  10.021 -0.0038  1.2219 -2.7632
  667MOL0     H91989   7.843   3.985  10.056  1.1821  2.2290  2.2355
  667MOL0     H91990   7.974   3.980  10.168  0.2463  1.5932  0.4479
  667MOL0     H91991   8.020   4.129   9.994 -0.4121 -0.8917 -1.2296
  667MOL0     H91992   8.026   4.014   9.867 -1.5376  3.2054 -0.0971
  667MOL0     H91993   8.251   3.930   9.993  0.7170  0.1250  3.0463
  667MOL0     H91994   8.232   4.104   9.939 -0.6409  1.2688  0.6525
  667MOL0     H91995   8.176   3.885  10.259  0.0399 -0.1169 -0.0706
  667MOL0     H91996   8.382   4.069  10.535 -2.0817  1.9445  2.0485
  667MOL0     H91997   8.316   3.904  10.500 -5.1290 -1.9740  0.5616
  667MOL0     H91998   8.194   4.024  10.682  1.0312 -0.6562  0.0026
  667MOL0     H91999   8.167   4.159  10.566  2.9897 -0.1044  0.6438
  667MOL0     H92000   8.027   4.009  10.415 -0.6970 -3.2919 -0.6287
  667MOL0     H92001   8.058   3.874  10.524 -1.6620 -0.0997  0.1541
  667MOL0     H92002   7.958   4.034  10.718 -1.3874  5.2744  0.7819
  667MOL0     H92003   7.895   4.125  10.592 -1.3992 -1.0776 -1.4202
  667MOL0     H92004   7.589   3.859  10.517  0.5269 -2.1701  1.5201
  667MOL0     H92005   7.368   3.786  10.542 -0.1543  0.3555 -1.9212
  667MOL0     H92006   7.268   3.930  10.599  2.4788  1.8893  0.5257
  667MOL0     H92007   7.289   3.785  10.700  0.1124 -0.0144 -0.0916
  667MOL0     H92008   7.033   4.039  10.916 -0.8618 -1.8710  0.0276
  667MOL0     H92009   6.864   4.025  11.080  0.1961 -0.5019 -0.7653
  667MOL0     H92010   6.823   3.738  11.421 -1.4572  0.5327  2.3157
  667MOL0     H92011   6.966   3.852  11.469  1.0929  0.6440 -1.1469
  667MOL0     H92012   6.764   3.889  11.602  1.7832 -2.9583 -1.2885
  667MOL0     H92013   6.807   4.024  11.489  0.5625  0.7331  3.4741
  667MOL0     H92014   6.607   3.985  11.355 -3.2437 -1.1455 -1.2181
  667MOL0     H92015   6.540   3.965  11.516  0.0096 -2.5045  1.8542
  667MOL0     H92016   6.576   3.712  11.480 -2.8415 -1.6475 -0.4953
  667MOL0     H92017   6.594   3.756  11.310  0.3019  1.4318 -0.2749
  667MOL0     H92018   6.347   3.837  11.499 -1.5055  1.8871 -1.1127
  667MOL0     H92019   6.378   3.913  11.348  0.6814 -0.4931  0.5391
  667MOL0     H92020   6.361   3.617  11.382  1.4680  0.4015  0.4222
  667MOL0     H92021   6.376   3.692  11.226  0.7266  1.6885 -0.7452
  667MOL0     H92022   6.155   3.687  11.435 -0.4984 -2.2705  0.1811
  667MOL0     H92023   6.139   3.621  11.270  2.6240 -1.3816 -0.8038
  667MOL0     H92024   6.110   3.862  11.199 -1.0925 -0.6093  0.2303
  667MOL0     H92025   6.130   3.916  11.365  1.4682 -0.5669  1.1656
  667MOL0     H92026   7.110   3.780  11.334  4.0111  3.8325  0.8876
  667MOL0     H92027   7.279   3.770  11.127  0.7214  1.7900  0.6605
  667MOL0     H92028   7.535   4.144  10.918 -0.2915  1.8287 -1.1934
  667MOL0     H92029   7.764   4.106  10.816 -2.4404  2.1599 -0.2140
  667MOL0     H92030   7.961   3.323  10.507  1.3931 -2.5432  0.6433
  667MOL0     H92031   8.030   3.188  10.721 -2.2720 -2.5834 -1.4707
  667MOL0     H92032   7.954   2.966  11.036  1.4643 -2.0469  1.1016
  667MOL0     H92033   7.965   2.784  11.200 -0.0160 -1.1800  1.8332
  667MOL0     H92034   8.125   2.902  11.540 -2.7718  3.8267 -3.0940
  667MOL0     H92035   7.976   2.930  11.617  1.7228  2.4464  1.0908
  667MOL0     H92036   8.052   2.763  11.761  0.1697 -2.7326  0.9698
  667MOL0     H92037   8.123   2.664  11.640  0.4243 -0.0115 -1.4161
  667MOL0     H92038   7.832   2.712  11.672  0.9443  1.2067 -0.1772
  667MOL0     H92039   7.894   2.614  11.543 -1.8790  3.2251 -0.6723
  667MOL0     H92040   8.017   2.481  11.750 -0.5095 -1.7153  2.9516
  667MOL0     H92041   7.846   2.453  11.725  0.4517 -0.4161  0.7832
  667MOL0     H92042   7.843   2.670  12.094  1.8227 -0.0650  1.2490
  667MOL0     H92043   7.860   3.063  11.507 -3.5727 -2.2772 -0.1139
  667MOL0     H92044   7.728   3.274  11.414 -0.4956 -2.5138 -1.8285
  667MOL0     H92045   7.902   3.312  11.455 -1.2526 -1.3406  2.7558
  667MOL0     H92046   7.821   3.358  11.305  2.2902 -0.6040 -1.7133
  668MOL0     O92047   2.527   9.729   5.130 -0.0971 -0.1036  0.0424
  668MOL0     C92048   2.417   9.673   5.160  0.2874 -0.2908  0.0525
  668MOL0     O92049   2.336   9.608   5.067 -0.0397  0.4239  0.2164
  668MOL0     C92050   2.342   9.633   4.938  0.0938  0.1316 -0.2347
  668MOL0     C92051   2.296   9.529   4.856 -0.2516 -0.3581 -0.5467
  668MOL0     C92052   2.293   9.551   4.717 -0.4882 -0.2154  0.9514
  668MOL0     C92053   2.335   9.673   4.661  0.4821  0.6803 -0.6688
  668MOL0     O92054   2.344   9.704   4.524  0.0314  0.0227  0.0182
  668MOL0     C92055   2.266   9.631   4.429  0.3836  0.0047  1.2264
  668MOL0     C92056   2.241   9.742   4.328  0.5036 -0.4502 -0.0174
  668MOL0     C92057   2.140   9.850   4.373  0.4885 -0.1995 -0.5226
  668MOL0     C92058   2.104   9.964   4.266 -0.2846  0.5628  0.3679
  668MOL0     C92059   1.959  10.007   4.279  0.5089 -0.7367 -0.3940
  668MOL0     C92060   1.862   9.886   4.257  0.5692  0.7188 -0.2284
  668MOL0     C92061   1.735   9.934   4.183  0.3401 -0.6507 -0.5550
  668MOL0     C92062   1.651   9.824   4.116  0.3235 -0.2378  0.3877
  668MOL0     N92063   1.711   9.794   3.983  0.4379  0.6422  0.5407
  668MOL0     C92064   1.687   9.862   3.867  0.0430  0.5595  1.2194
  668MOL0     C92065   1.768   9.814   3.775  1.0222 -0.5772  0.6377
  668MOL0     C92066   1.779   9.868   3.637 -0.1029 -0.5664  1.2971
  668MOL0     C92067   1.742   9.755   3.526  0.9377 -0.2929  0.3982
  668MOL0     C92068   1.773   9.813   3.394  0.2952 -0.0112 -0.1567
  668MOL0     C92069   1.743   9.710   3.281 -0.5601  0.0120  1.0578
  668MOL0     O92070   1.616   9.661   3.278 -0.0027 -0.1626  0.1647
  668MOL0     C92071   1.594   9.541   3.212  1.1833  0.9100 -0.8706
  668MOL0     C92072   1.654   9.500   3.095 -0.1526 -0.2299 -0.5216
  668MOL0     C92073   1.624   9.378   3.031 -0.2463  0.1508  0.6074
  668MOL0     C92074   1.683   9.365   2.890  0.4117 -0.1853 -0.3918
  668MOL0     C92075   1.519   9.300   3.078  0.5328 -0.0748 -0.0830
  668MOL0     C92076   1.454   9.190   2.984 -0.7479 -0.5314  0.0820
  668MOL0     O92077   1.322   9.175   2.988  1.2164 -0.1513 -0.1237
  668MOL0     C92078   1.257   9.076   2.917 -0.0436 -0.3989  0.3618
  668MOL0     C92079   1.284   8.943   2.939 -0.1977  0.4399 -0.0080
  668MOL0     C92080   1.210   8.846   2.864 -1.1303 -0.2098 -0.3034
  668MOL0     C92081   1.116   8.885   2.768  0.3133  0.3035  0.7853
  668MOL0     O92082   1.057   8.791   2.679 -0.1502  0.3505  0.0178
  668MOL0     C92083   0.944   8.733   2.737 -0.5459 -0.0420 -0.7106
  668MOL0     C92084   0.892   8.610   2.667  0.1488 -0.9116  0.0323
  668MOL0     C92085   0.914   8.601   2.520  0.2224 -0.3413  0.0371
  668MOL0     C92086   0.829   8.699   2.432  0.2163 -0.4766 -0.5138
  668MOL0     C92087   0.824   8.645   2.287  0.4899 -0.1336  0.0206
  668MOL0     C92088   0.803   8.760   2.201  0.1903 -0.1891  0.5428
  668MOL0     C92089   0.806   8.729   2.050  0.3414 -0.8158  0.0952
  668MOL0     C92090   0.933   8.653   2.018 -0.2814 -0.4949  0.3348
  668MOL0    Cl92091   0.955   8.651   1.835  0.0355  0.3637 -0.2573
  668MOL0     C92092   1.095   9.021   2.753  0.0989 -0.0584  0.3874
  668MOL0     C92093   1.162   9.117   2.822 -0.9210 -1.0988 -0.1155
  668MOL0     O92094   1.530   9.120   2.912  0.5859 -0.0826 -0.3464
  668MOL0     C92095   1.457   9.344   3.202 -0.1584  0.3274 -0.1358
  668MOL0     C92096   1.496   9.462   3.266  0.6097 -0.3334  0.4464
  668MOL0     N92097   1.845   9.721   3.835 -0.1804 -0.3417 -0.0858
  668MOL0     N92098   1.814   9.707   3.965 -0.0232  0.4703 -0.3061
  668MOL0     C92099   2.393   9.766   4.746 -0.5176 -0.4350  0.1319
  668MOL0     C92100   2.385   9.752   4.886  0.8431  0.3628  0.2753
  668MOL0     C92101   2.387   9.665   5.300 -0.4110  0.8693 -0.7194
  668MOL0     C92102   2.459   9.752   5.386 -0.4606  0.8666 -0.4609
  668MOL0     C92103   2.451   9.753   5.527 -0.9871  1.4481 -0.0332
  668MOL0     C92104   2.368   9.656   5.589  0.2268  0.2618  0.4957
  668MOL0     O92105   2.345   9.647   5.727  0.6001 -0.2650  0.2804
  668MOL0     C92106   2.447   9.707   5.811  0.0301  0.0604  0.2476
  668MOL0     C92107   2.444   9.648   5.953  0.0883 -0.2929 -0.1462
  668MOL0     C92108   2.586   9.646   6.008 -0.2420 -0.9237  0.4383
  668MOL0     C92109   2.605   9.629   6.162  0.0321  0.6087  0.5708
  668MOL0     C92110   2.535   9.508   6.209  0.1197  0.5196  0.1348
  668MOL0     C92111   2.466   9.419   6.253  0.3768  0.1878 -0.6887
  668MOL0     C92112   2.298   9.575   5.510  0.0796 -0.0948 -1.2374
  668MOL0     C92113   2.297   9.584   5.366 -1.2259 -0.0518 -0.4659
  668MOL0     C92114   2.218   9.471   5.315 -0.7983 -0.5828  0.2027
  668MOL0     H92115   2.255   9.434   4.887 -1.0538 -0.2874 -1.3184
  668MOL0     H92116   2.260   9.467   4.657 -0.4136  0.0598  0.5145
  668MOL0     H92117   2.176   9.589   4.476  0.0391 -1.2576 -0.4649
  668MOL0     H92118   2.340   9.559   4.393  1.7347 -0.2697  4.2998
  668MOL0     H92119   2.337   9.792   4.310 -0.6556  3.2705  2.8020
  668MOL0     H92120   2.205   9.700   4.234  0.6199 -1.4060  0.3498
  668MOL0     H92121   2.055   9.802   4.422  1.2941 -2.8470 -1.5359
  668MOL0     H92122   2.191   9.909   4.449  0.7374  3.3412 -3.1680
  668MOL0     H92123   2.172  10.049   4.276 -2.3434  2.3205  0.2932
  668MOL0     H92124   2.117   9.921   4.166  2.1857  2.8987 -0.4368
  668MOL0     H92125   1.927  10.090   4.216 -3.7232  0.4247  2.8590
  668MOL0     H92126   1.945  10.038   4.383  1.4823  3.5529 -1.3522
  668MOL0     H92127   1.910   9.807   4.199  0.3465  0.2195  0.2687
  668MOL0     H92128   1.830   9.839   4.350  0.1104 -1.0599 -1.2543
  668MOL0     H92129   1.755  10.011   4.109 -0.6744  1.3942  1.1780
  668MOL0     H92130   1.677   9.985   4.260  1.7359  0.4541 -0.1941
  668MOL0     H92131   1.641   9.728   4.167  1.5538 -0.8232 -0.4393
  668MOL0     H92132   1.547   9.857   4.109  0.8275  1.3012 -0.2520
  668MOL0     H92133   1.610   9.938   3.855  2.7168  3.3089  0.2656
  668MOL0     H92134   1.878   9.907   3.615 -0.8145  0.2162 -0.7522
  668MOL0     H92135   1.702   9.945   3.632  2.1336  1.7062 -0.2201
  668MOL0     H92136   1.813   9.672   3.525  1.2828 -0.0773 -3.0044
  668MOL0     H92137   1.640   9.718   3.537 -0.2031  1.9000 -1.8829
  668MOL0     H92138   1.703   9.898   3.392 -2.0433 -1.8300  0.1681
  668MOL0     H92139   1.875   9.852   3.387  1.5266 -3.3430 -3.5234
  668MOL0     H92140   1.744   9.747   3.178 -0.8028 -0.9768  0.6900
  668MOL0     H92141   1.821   9.633   3.277 -1.8285 -1.2730 -0.1947
  668MOL0     H92142   1.718   9.573   3.046 -1.8284  2.5191  1.1157
  668MOL0     H92143   1.761   9.289   2.879  0.8071  0.0537  0.6522
  668MOL0     H92144   1.719   9.466   2.868 -1.1456  1.5281  3.8251
  668MOL0     H92145   1.603   9.348   2.817  1.9539 -0.4551 -2.1031
  668MOL0     H92146   1.361   8.933   3.015  0.4821  0.2181 -0.7185
  668MOL0     H92147   1.238   8.746   2.897 -0.8831 -0.4255 -1.1447
  668MOL0     H92148   0.956   8.699   2.840 -0.4469 -0.2920 -0.8035
  668MOL0     H92149   0.868   8.811   2.740 -0.9978 -0.3657  3.7375
  668MOL0     H92150   0.938   8.518   2.704  1.7268 -0.2058 -0.0769
  668MOL0     H92151   0.784   8.606   2.685  0.1411 -0.0065  0.2303
  668MOL0     H92152   0.896   8.501   2.481  0.3565  0.6201 -2.6647
  668MOL0     H92153   1.017   8.621   2.491  0.6834 -1.3642  0.9094
  668MOL0     H92154   0.869   8.800   2.445 -0.3450 -0.2718 -0.3615
  668MOL0     H92155   0.726   8.706   2.469  0.6724  1.4353  0.5388
  668MOL0     H92156   0.917   8.592   2.264 -0.1117 -0.3154 -2.2333
  668MOL0     H92157   0.736   8.581   2.280 -1.3441  2.2354 -0.0098
  668MOL0     H92158   0.883   8.833   2.221  2.0111 -1.8364 -0.4057
  668MOL0     H92159   0.707   8.804   2.230  0.3941 -0.6737  2.0405
  668MOL0     H92160   0.806   8.825   1.998  0.6307 -0.1720  1.2451
  668MOL0     H92161   0.717   8.674   2.017  0.3479 -1.5030  1.1808
  668MOL0     H92162   0.934   8.551   2.060 -0.7379 -0.5504  0.2117
  668MOL0     H92163   1.018   8.703   2.066  0.9095 -3.5013  1.6674
  668MOL0     H92164   1.026   9.061   2.679  0.7850  0.1602 -0.1503
  668MOL0     H92165   1.155   9.223   2.800  1.7391 -1.0179 -0.8212
  668MOL0     H92166   1.370   9.299   3.247 -1.8199  1.6466 -1.8105
  668MOL0     H92167   1.447   9.494   3.357  0.3607  3.6519 -0.9037
  668MOL0     H92168   2.430   9.856   4.699 -0.1265 -1.2849 -1.2407
  668MOL0     H92169   2.419   9.834   4.949  0.5409 -0.8822  2.1402
  668MOL0     H92170   2.525   9.824   5.339  1.2177 -0.2469  0.0873
  668MOL0     H92171   2.514   9.819   5.586 -1.8933  0.4115  2.2148
  668MOL0     H92172   2.549   9.699   5.770  0.2745 -4.6354  1.3101
  668MOL0     H92173   2.430   9.815   5.814  0.7997  0.3225 -2.0720
  668MOL0     H92174   2.406   9.549   5.926  0.4001 -0.1536 -1.1382
  668MOL0     H92175   2.377   9.701   6.022  0.5755  1.1661 -0.7479
  668MOL0     H92176   2.635   9.569   5.949 -0.8565 -0.3429 -0.8542
  668MOL0     H92177   2.630   9.744   5.985  0.6692 -1.2965  0.5692
  668MOL0     H92178   2.560   9.717   6.210 -0.0609  0.0703  1.5118
  668MOL0     H92179   2.712   9.623   6.181 -0.2409 -1.7232  1.7226
  668MOL0     H92180   2.397   9.350   6.297 -1.5267  2.2676 -0.2675
  668MOL0     H92181   2.217   9.520   5.558 -0.0759  1.1975  0.0611
  668MOL0     H92182   2.113   9.480   5.342 -0.9038 -0.0937 -0.3411
  668MOL0     H92183   2.227   9.458   5.206  0.1208  2.0378 -0.1261
  668MOL0     H92184   2.245   9.376   5.362  2.6085  0.8568  1.5142
  669MOL0     O92185   5.169  10.182   5.710  0.1746 -0.1232  0.4879
  669MOL0     C92186   5.098  10.095   5.659 -1.1441 -0.2859 -0.0998
  669MOL0     O92187   5.141   9.998   5.570  0.2781 -1.2061  0.0518
  669MOL0     C92188   5.279   9.984   5.556  0.2714 -0.0638  0.4748
  669MOL0     C92189   5.348  10.026   5.448  0.0124  1.8699 -1.0399
  669MOL0     C92190   5.480  10.017   5.448 -0.1175  0.1483  0.2681
  669MOL0     C92191   5.552   9.931   5.536 -0.1873 -0.3679  0.4463
  669MOL0     O92192   5.686   9.922   5.503  0.0312 -0.2013  0.3916
  669MOL0     C92193   5.783   9.922   5.610 -0.0872  0.0843 -0.5664
  669MOL0     C92194   5.847   9.786   5.630 -0.0479 -0.6955 -1.0442
  669MOL0     C92195   5.981   9.805   5.705 -0.8793 -1.0247 -0.2925
  669MOL0     C92196   6.042   9.669   5.734  0.9917 -0.2664 -0.9394
  669MOL0     C92197   6.182   9.674   5.785  0.4591  0.8793  0.1965
  669MOL0     C92198   6.180   9.686   5.935 -0.3588  0.2826 -1.1662
  669MOL0     C92199   6.322   9.714   6.001  0.2543  0.4609 -0.3244
  669MOL0     C92200   6.398   9.841   5.952  0.1079 -0.1935 -0.5871
  669MOL0     N92201   6.489   9.888   6.054 -0.0859  0.2819  0.2039
  669MOL0     C92202   6.594   9.814   6.088 -0.5533  0.0377 -0.6411
  669MOL0     C92203   6.631   9.852   6.221  0.2341 -0.3366 -0.2451
  669MOL0     C92204   6.717   9.774   6.313 -0.3076 -0.7514  0.0124
  669MOL0     C92205   6.769   9.867   6.431 -0.6853  0.0482 -0.3937
  669MOL0     C92206   6.875   9.958   6.374 -0.4596 -0.7847 -0.1820
  669MOL0     C92207   6.928  10.055   6.482  0.3085 -0.5581  0.0550
  669MOL0     O92208   6.824  10.149   6.496  0.2486  0.7024 -0.1160
  669MOL0     C92209   6.842  10.276   6.526 -0.2476  1.4230 -0.6883
  669MOL0     C92210   6.928  10.314   6.630 -0.7213 -0.2898 -0.7462
  669MOL0     C92211   6.960  10.447   6.660 -0.1879 -0.4623  0.2754
  669MOL0     C92212   7.054  10.474   6.772  0.3217 -0.5949  0.1403
  669MOL0     C92213   6.901  10.544   6.577 -0.2209 -0.4568  0.3741
  669MOL0     C92214   6.940  10.690   6.573  1.3385 -0.6401  0.2733
  669MOL0     O92215   6.852  10.773   6.511  0.1722  0.5815 -0.1471
  669MOL0     C92216   6.869  10.905   6.504 -0.3504 -0.6982  0.8811
  669MOL0     C92217   6.867  10.962   6.374 -0.1457  0.4577  0.1181
  669MOL0     C92218   6.866  11.105   6.367  0.3886  0.7637 -0.7918
  669MOL0     C92219   6.879  11.187   6.479  0.6010  0.8411 -0.1522
  669MOL0     O92220   6.865  11.320   6.458  0.2299 -0.4399 -0.2393
  669MOL0     C92221   6.921  11.397   6.569 -0.1869 -0.5950 -0.7647
  669MOL0     C92222   6.930  11.543   6.525 -0.3898  0.2556  0.8321
  669MOL0     C92223   6.966  11.630   6.645 -0.4438 -0.4070 -0.3361
  669MOL0     C92224   6.989  11.775   6.619  0.4512 -0.0561  0.3560
  669MOL0     C92225   6.999  11.859   6.747  0.2800  0.1447 -0.4518
  669MOL0     C92226   7.138  11.846   6.805  0.6538 -0.4201 -0.3845
  669MOL0     C92227   7.136  11.943   6.925  0.4973  0.3740 -0.3798
  669MOL0     C92228   7.166  12.093   6.892  0.2327  0.0540 -0.5706
  669MOL0    Cl92229   7.342  12.114   6.904 -0.5775 -0.0223  0.2640
  669MOL0     C92230   6.870  11.118   6.603  0.5602 -0.4568 -0.0271
  669MOL0     C92231   6.872  10.988   6.615 -0.3099  0.3401  0.4520
  669MOL0     O92232   7.047  10.733   6.624  0.4988 -0.4969 -0.0727
  669MOL0     C92233   6.802  10.506   6.488 -0.5287  0.1527 -0.1352
  669MOL0     C92234   6.765  10.370   6.465 -0.3268  0.1773  0.0112
  669MOL0     N92235   6.538   9.949   6.253  0.3571 -0.4739 -0.3835
  669MOL0     N92236   6.464   9.978   6.154 -0.6976 -0.1382  0.2850
  669MOL0     C92237   5.484   9.884   5.651 -0.1834  0.5688  0.2060
  669MOL0     C92238   5.343   9.915   5.657 -1.1646 -0.2224  0.2024
  669MOL0     C92239   4.955  10.107   5.686  0.3641  0.1309 -0.2423
  669MOL0     C92240   4.899  10.231   5.679  0.2280 -0.0482 -0.2458
  669MOL0     C92241   4.768  10.255   5.719  1.2514 -0.6607  0.1662
  669MOL0     C92242   4.681  10.152   5.774  0.5208  0.5185 -0.8401
  669MOL0     O92243   4.553  10.167   5.827  0.0750 -0.3097 -0.2464
  669MOL0     C92244   4.540  10.271   5.925 -1.2558 -1.0354  0.2605
  669MOL0     C92245   4.604  10.223   6.053  0.5926  0.0821  0.5623
  669MOL0     C92246   4.541  10.095   6.115 -0.4068 -0.2509  0.9498
  669MOL0     C92247   4.578  10.089   6.266  0.1856 -1.2194 -0.2848
  669MOL0     C92248   4.495  10.177   6.354  0.0862 -0.0262 -0.4747
  669MOL0     C92249   4.417  10.241   6.420 -0.0916 -1.3387  0.2593
  669MOL0     C92250   4.743  10.018   5.760  1.3050 -0.0108 -0.1510
  669MOL0     C92251   4.868   9.996   5.716  0.5559  1.1723 -0.5731
  669MOL0     C92252   4.899   9.856   5.686 -0.5037  0.0395 -0.1595
  669MOL0     H92253   5.291  10.081   5.374 -0.6271  0.1893 -1.8653
  669MOL0     H92254   5.522  10.064   5.359  0.1904  0.1932  0.4367
  669MOL0     H92255   5.750   9.937   5.714 -0.3677 -1.4190 -0.4153
  669MOL0     H92256   5.864   9.991   5.584  0.7962 -0.4529  0.6388
  669MOL0     H92257   5.774   9.719   5.676 -1.1540 -0.3136 -2.1690
  669MOL0     H92258   5.864   9.748   5.529 -1.8219 -0.9355 -1.2933
  669MOL0     H92259   6.061   9.856   5.651  2.1343 -2.3894  2.5486
  669MOL0     H92260   5.979   9.871   5.793  0.1916 -0.0556 -0.9671
  669MOL0     H92261   5.989   9.620   5.816  3.7489 -2.2173 -0.1893
  669MOL0     H92262   6.033   9.595   5.653 -0.2436 -0.0816 -0.9854
  669MOL0     H92263   6.238   9.758   5.744 -0.5128  0.1423 -2.8515
  669MOL0     H92264   6.234   9.586   5.745 -1.9446 -0.5383 -0.0333
  669MOL0     H92265   6.118   9.772   5.961 -0.1088 -0.0073  0.5085
  669MOL0     H92266   6.141   9.596   5.983  3.2007 -0.9328 -0.2509
  669MOL0     H92267   6.384   9.624   5.992 -1.4196 -0.6802 -1.1121
  669MOL0     H92268   6.310   9.726   6.109 -2.7855 -0.3531 -0.4821
  669MOL0     H92269   6.454   9.821   5.860  0.0984  1.7339 -1.0561
  669MOL0     H92270   6.323   9.916   5.924  1.1005  1.1677  0.3514
  669MOL0     H92271   6.629   9.736   6.021 -0.8166  1.3743 -2.4058
  669MOL0     H92272   6.797   9.711   6.272  1.3044  1.6580 -0.7572
  669MOL0     H92273   6.657   9.695   6.358 -0.5813  0.1902  1.3299
  669MOL0     H92274   6.683   9.916   6.477 -2.0497 -0.9414 -1.7682
  669MOL0     H92275   6.817   9.804   6.506  0.4114  0.0755 -1.0507
  669MOL0     H92276   6.959   9.895   6.345  0.4349  1.0839 -1.9348
  669MOL0     H92277   6.853  10.013   6.282 -1.0543 -1.9273 -0.7378
  669MOL0     H92278   6.945  10.001   6.576 -0.2160 -0.6135  0.1225
  669MOL0     H92279   7.005  10.115   6.433 -3.2036  4.1137 -0.3958
  669MOL0     H92280   6.976  10.233   6.684 -2.0976  0.1646  1.2902
  669MOL0     H92281   7.155  10.443   6.744  0.0855 -0.9187 -0.3623
  669MOL0     H92282   7.026  10.416   6.861  0.9353 -5.4994 -2.4950
  669MOL0     H92283   7.049  10.579   6.802 -2.7503 -0.6279  0.0858
  669MOL0     H92284   6.868  10.897   6.288 -0.2289  0.0059  0.4560
  669MOL0     H92285   6.856  11.156   6.271  1.2734  2.8734  0.1787
  669MOL0     H92286   6.860  11.399   6.660  1.3842 -1.5000  0.3673
  669MOL0     H92287   7.023  11.367   6.596  0.6704  1.7049 -1.1607
  669MOL0     H92288   7.008  11.553   6.449  1.2427  2.0776  2.6432
  669MOL0     H92289   6.836  11.578   6.481  1.0610  1.1820 -1.7161
  669MOL0     H92290   7.057  11.590   6.691  1.0592  2.7767 -0.3076
  669MOL0     H92291   6.889  11.619   6.722 -1.9661 -0.0724 -1.7505
  669MOL0     H92292   6.904  11.814   6.563  1.1156 -0.9856 -1.3658
  669MOL0     H92293   7.072  11.781   6.548 -0.5379  0.8768 -0.7656
  669MOL0     H92294   6.987  11.967   6.735  1.1661  0.1798 -1.1200
  669MOL0     H92295   6.925  11.820   6.818  0.1720  0.4432 -0.4007
  669MOL0     H92296   7.206  11.886   6.730 -1.9201  0.9843 -2.1218
  669MOL0     H92297   7.172  11.745   6.828 -2.2021 -1.3278  0.2263
  669MOL0     H92298   7.211  11.905   6.994  1.4746 -1.1632 -2.2062
  669MOL0     H92299   7.038  11.953   6.974 -0.4755 -0.8524 -1.9789
  669MOL0     H92300   7.108  12.163   6.953 -2.9177 -0.3370 -2.8690
  669MOL0     H92301   7.133  12.133   6.795  0.3634 -2.3790 -1.7061
  669MOL0     H92302   6.866  11.178   6.693 -0.1739 -0.4624 -0.0572
  669MOL0     H92303   6.873  10.939   6.712  1.3069  1.4471  1.0159
  669MOL0     H92304   6.756  10.579   6.422 -0.8617  1.2518  1.2600
  669MOL0     H92305   6.684  10.340   6.399 -2.1043  0.3088  2.0379
  669MOL0     H92306   5.533   9.825   5.728 -3.1168  1.1192  2.6693
  669MOL0     H92307   5.275   9.867   5.726 -2.5740 -0.2143 -1.1291
  669MOL0     H92308   4.968  10.310   5.654 -0.8986  0.5282 -1.6428
  669MOL0     H92309   4.730  10.355   5.703 -1.6660 -1.7661 -0.4306
  669MOL0     H92310   4.577  10.370   5.896 -2.6085 -0.1573  1.4330
  669MOL0     H92311   4.433  10.291   5.933 -0.7579  1.7050  0.9995
  669MOL0     H92312   4.591  10.302   6.127 -2.1666 -1.1190  1.4885
  669MOL0     H92313   4.712  10.212   6.038  0.7960  1.8292  0.4466
  669MOL0     H92314   4.434  10.108   6.098 -0.1167 -0.4143 -1.3901
  669MOL0     H92315   4.585  10.014   6.054  1.0419  1.4121 -0.3390
  669MOL0     H92316   4.686  10.105   6.273  0.0520  0.4586 -1.4312
  669MOL0     H92317   4.561   9.985   6.296  3.6756 -2.1617 -1.0424
  669MOL0     H92318   4.356  10.305   6.481  2.0992 -1.6713  3.0241
  669MOL0     H92319   4.676   9.936   5.785 -0.5595  1.8100  1.2528
  669MOL0     H92320   4.836   9.784   5.739 -1.2941  0.9321  0.1294
  669MOL0     H92321   4.884   9.849   5.578 -1.8448  0.5380 -0.0195
  669MOL0     H92322   5.004   9.847   5.717 -1.6048 -2.1391  3.5120
  670MOL0     O92323   3.652   3.230   2.466 -1.4318  0.5237 -0.1699
  670MOL0     C92324   3.543   3.270   2.481 -0.0380  0.1079 -0.6999
  670MOL0     O92325   3.439   3.209   2.554 -0.2203  0.3927  0.1261
  670MOL0     C92326   3.459   3.098   2.627 -0.2103 -0.3020  0.1626
  670MOL0     C92327   3.577   3.066   2.687 -0.4584 -0.3960 -0.0811
  670MOL0     C92328   3.589   2.961   2.784 -0.3142 -0.0013 -0.2094
  670MOL0     C92329   3.478   2.881   2.813  0.1573  1.0844  0.6534
  670MOL0     O92330   3.474   2.769   2.896 -0.0060  0.3397 -0.4199
  670MOL0     C92331   3.582   2.732   2.978  0.9319  0.5224  0.6696
  670MOL0     C92332   3.603   2.841   3.084 -0.8206  0.0118 -0.3719
  670MOL0     C92333   3.476   2.891   3.167 -0.2371  0.8612 -1.3975
  670MOL0     C92334   3.432   2.787   3.273  1.0756 -0.4435 -0.5274
  670MOL0     C92335   3.298   2.844   3.319 -0.6486  0.2571  0.4349
  670MOL0     C92336   3.312   2.975   3.397  0.3163 -0.4269  0.2944
  670MOL0     C92337   3.185   3.021   3.466  1.1197  0.0177 -0.1092
  670MOL0     C92338   3.145   2.936   3.590 -0.1423  0.0875  0.3093
  670MOL0     N92339   3.239   2.960   3.702 -0.1612  0.7113 -0.9153
  670MOL0     C92340   3.270   3.074   3.768 -0.2564  0.0042  0.4417
  670MOL0     C92341   3.388   3.050   3.825 -0.0414 -0.4553 -0.7233
  670MOL0     C92342   3.465   3.128   3.928  0.2602  0.4218 -0.8283
  670MOL0     C92343   3.607   3.159   3.883 -0.0608  0.6724 -0.7606
  670MOL0     C92344   3.683   3.253   3.983 -0.4238 -0.3927 -0.0967
  670MOL0     C92345   3.624   3.402   3.993  0.6068  0.1117 -0.8070
  670MOL0     O92346   3.662   3.450   4.117 -0.5785  0.0857 -0.5351
  670MOL0     C92347   3.794   3.499   4.144 -0.1875  0.3436  0.6841
  670MOL0     C92348   3.808   3.553   4.269  0.0775  0.0873  0.7882
  670MOL0     C92349   3.926   3.612   4.304 -0.3302  0.1087 -0.1359
  670MOL0     C92350   3.922   3.667   4.441  0.4672 -0.3816 -0.4165
  670MOL0     C92351   4.037   3.621   4.215  0.4482 -0.5137 -0.8260
  670MOL0     C92352   4.170   3.683   4.236 -0.1310 -0.4281  0.1848
  670MOL0     O92353   4.283   3.648   4.160  0.3749  0.0191 -0.3823
  670MOL0     C92354   4.401   3.703   4.192 -0.8529  0.4095  0.2191
  670MOL0     C92355   4.464   3.776   4.094  0.1193 -0.2227  0.9717
  670MOL0     C92356   4.594   3.818   4.119  0.1331  1.2269 -0.0101
  670MOL0     C92357   4.660   3.787   4.233  0.2281 -0.2389  1.1155
  670MOL0     O92358   4.794   3.825   4.234 -0.0321 -0.1591 -0.4206
  670MOL0     C92359   4.873   3.826   4.363  0.2584  0.2326  0.1400
  670MOL0     C92360   5.009   3.890   4.341  0.4055 -0.6676 -0.0108
  670MOL0     C92361   5.008   4.047   4.353  0.6247 -0.6435 -0.7655
  670MOL0     C92362   4.978   4.109   4.219  0.6287 -0.2552  0.2311
  670MOL0     C92363   4.994   4.256   4.215  0.4084 -0.1879 -0.0746
  670MOL0     C92364   4.953   4.335   4.338  0.8635 -0.1467  0.2168
  670MOL0     C92365   4.909   4.474   4.277  0.1232  0.1825 -0.1414
  670MOL0     C92366   4.859   4.575   4.384 -0.4789 -0.0948  0.5179
  670MOL0    Cl92367   4.879   4.729   4.314 -0.0832 -0.4203 -0.1748
  670MOL0     C92368   4.591   3.722   4.340  0.5904 -0.9352  0.2114
  670MOL0     C92369   4.459   3.681   4.316  0.1519  0.1002  0.5986
  670MOL0     O92370   4.172   3.750   4.343 -0.5598  1.5389  0.2555
  670MOL0     C92371   4.025   3.556   4.097  0.2545  0.2024  0.6549
  670MOL0     C92372   3.908   3.496   4.061  0.3842  0.1868  0.0642
  670MOL0     N92373   3.420   2.921   3.813  0.2749  0.5788 -0.0774
  670MOL0     N92374   3.324   2.862   3.746 -0.7217 -0.4154 -0.8836
  670MOL0     C92375   3.360   2.903   2.738  0.3018 -0.4344  0.1591
  670MOL0     C92376   3.354   3.012   2.650  0.2700 -0.0678  0.3356
  670MOL0     C92377   3.524   3.402   2.422 -0.3408 -0.0842 -0.8825
  670MOL0     C92378   3.404   3.461   2.468  0.4389 -0.1350 -0.1182
  670MOL0     C92379   3.378   3.587   2.434 -0.3465  0.2830  0.0563
  670MOL0     C92380   3.457   3.660   2.347 -0.2705 -0.0989 -0.1826
  670MOL0     O92381   3.414   3.784   2.317  0.2078 -1.0387 -0.2477
  670MOL0     C92382   3.388   3.816   2.178  0.7207  0.2331  0.5252
  670MOL0     C92383   3.502   3.902   2.120  0.8795  0.3078  0.2706
  670MOL0     C92384   3.487   3.942   1.972  0.0117  0.4818 -0.3123
  670MOL0     C92385   3.494   3.825   1.865 -0.1912 -0.5221 -0.6747
  670MOL0     C92386   3.605   3.736   1.884  0.3132 -0.4281 -0.1277
  670MOL0     C92387   3.705   3.665   1.903  0.4417 -0.4664  0.0857
  670MOL0     C92388   3.569   3.606   2.298 -0.8807 -0.5577 -0.0764
  670MOL0     C92389   3.608   3.474   2.332 -0.1384  0.4044 -0.0985
  670MOL0     C92390   3.728   3.419   2.258 -0.2362  0.2604  0.0726
  670MOL0     H92391   3.665   3.126   2.664 -0.0695 -1.3580 -1.2096
  670MOL0     H92392   3.686   2.954   2.832  0.4988  0.8753 -1.6651
  670MOL0     H92393   3.663   2.694   2.915 -1.9355 -2.5535 -1.4908
  670MOL0     H92394   3.562   2.642   3.036  3.3392  0.9579  2.3638
  670MOL0     H92395   3.684   2.822   3.154 -0.7626  5.1799  1.3834
  670MOL0     H92396   3.645   2.933   3.041  2.9257  0.6364  3.9374
  670MOL0     H92397   3.507   2.977   3.227 -0.3587 -1.3924  2.1855
  670MOL0     H92398   3.393   2.917   3.100 -2.1653 -0.5651  0.3168
  670MOL0     H92399   3.418   2.687   3.232  0.3041 -0.0133 -1.3391
  670MOL0     H92400   3.507   2.780   3.353  1.1822 -3.6975 -0.8071
  670MOL0     H92401   3.237   2.786   3.388 -2.9342 -1.8222 -2.9978
  670MOL0     H92402   3.230   2.858   3.235 -0.5947  0.8524  0.4825
  670MOL0     H92403   3.388   2.968   3.475  2.1605 -3.5769 -1.5509
  670MOL0     H92404   3.329   3.058   3.328  0.1131  1.0618  1.9783
  670MOL0     H92405   3.107   3.019   3.389  0.3607 -0.0499  0.6462
  670MOL0     H92406   3.187   3.127   3.492  0.0487 -0.6831  3.3103
  670MOL0     H92407   3.045   2.963   3.626  0.8063 -0.1230  3.3950
  670MOL0     H92408   3.137   2.829   3.565  2.1401  0.1907 -1.1555
  670MOL0     H92409   3.208   3.162   3.780 -0.6253  0.0235 -1.3620
  670MOL0     H92410   3.478   3.072   4.021  1.7118  2.9385  0.6121
  670MOL0     H92411   3.397   3.212   3.952  0.6788  0.5707 -0.1320
  670MOL0     H92412   3.663   3.066   3.873  1.6470  1.4697  0.7893
  670MOL0     H92413   3.599   3.194   3.780 -1.8871 -0.5418 -1.0681
  670MOL0     H92414   3.679   3.221   4.088 -2.3776  1.0881  0.3579
  670MOL0     H92415   3.786   3.257   3.948 -0.7299  2.3930 -0.9367
  670MOL0     H92416   3.665   3.470   3.919 -0.6915  0.2995 -1.3721
  670MOL0     H92417   3.517   3.412   3.975  0.2025 -1.9390  0.1301
  670MOL0     H92418   3.720   3.552   4.332 -1.3999  0.7892 -1.1464
  670MOL0     H92419   3.990   3.611   4.506  0.6977  1.0971  0.6891
  670MOL0     H92420   3.821   3.677   4.482  0.5971  1.2498 -0.4012
  670MOL0     H92421   3.953   3.772   4.455 -3.2085  0.8649 -0.5866
  670MOL0     H92422   4.428   3.796   3.993  1.5111 -0.2482  0.4382
  670MOL0     H92423   4.657   3.848   4.036  1.8340  0.7675  1.0623
  670MOL0     H92424   4.814   3.860   4.449  1.4267 -1.0153  1.4823
  670MOL0     H92425   4.888   3.722   4.393  1.4633  0.5426  0.6674
  670MOL0     H92426   5.083   3.850   4.412  0.8196  1.2273  0.6791
  670MOL0     H92427   5.051   3.854   4.246  0.3717  0.6399 -0.5332
  670MOL0     H92428   5.100   4.089   4.394 -2.4549  2.0969  4.2768
  670MOL0     H92429   4.935   4.081   4.426  2.8695  2.2460  0.3458
  670MOL0     H92430   4.874   4.087   4.193  0.0484 -0.3632  2.3926
  670MOL0     H92431   5.032   4.059   4.138  2.2306 -1.0512  1.7130
  670MOL0     H92432   5.101   4.274   4.209  0.1170  1.5576 -0.4535
  670MOL0     H92433   4.949   4.306   4.129  0.1596  0.7183  0.5649
  670MOL0     H92434   5.030   4.355   4.414 -0.8433  1.4478  1.6558
  670MOL0     H92435   4.877   4.294   4.405  0.3491 -2.5059 -1.6839
  670MOL0     H92436   4.823   4.449   4.214  0.0986 -2.1837  0.7278
  670MOL0     H92437   4.992   4.525   4.227  0.9703  3.8875  4.3580
  670MOL0     H92438   4.913   4.572   4.479 -2.0961  0.5124  1.4917
  670MOL0     H92439   4.753   4.559   4.402 -1.1365  1.8715 -1.1921
  670MOL0     H92440   4.650   3.685   4.423  3.2847 -1.4967 -1.7901
  670MOL0     H92441   4.404   3.632   4.396 -0.9122  0.9838  0.4318
  670MOL0     H92442   4.100   3.584   4.024 -0.3210  3.6499  1.1912
  670MOL0     H92443   3.919   3.436   3.971  4.9978 -0.1668  0.6575
  670MOL0     H92444   3.272   2.850   2.772  0.5188 -0.7102  0.2976
  670MOL0     H92445   3.265   3.036   2.593  1.2315  0.4757 -0.9990
  670MOL0     H92446   3.335   3.414   2.537  0.4407 -0.5592 -0.4004
  670MOL0     H92447   3.291   3.640   2.472 -2.4728 -1.6877 -1.7195
  670MOL0     H92448   3.379   3.732   2.109  3.3883  3.3592 -4.1510
  670MOL0     H92449   3.294   3.871   2.166  1.3200  0.8406 -1.7549
  670MOL0     H92450   3.594   3.845   2.137 -0.2671 -1.3760  1.1412
  670MOL0     H92451   3.513   3.998   2.173  0.0084  0.9467 -0.6896
  670MOL0     H92452   3.395   3.995   1.947 -2.0612 -1.4318  2.4667
  670MOL0     H92453   3.563   4.017   1.951  1.0208 -0.8502 -1.6072
  670MOL0     H92454   3.502   3.871   1.767  0.9705 -1.5147 -1.0850
  670MOL0     H92455   3.412   3.753   1.879  0.4353 -1.7342 -2.7809
  670MOL0     H92456   3.798   3.611   1.900  0.8088  0.2077 -0.9516
  670MOL0     H92457   3.630   3.661   2.227 -0.5771  1.0297  1.3567
  670MOL0     H92458   3.724   3.310   2.254  2.3243  0.1050 -0.0504
  670MOL0     H92459   3.735   3.467   2.160 -2.9434 -0.7475 -0.7113
  670MOL0     H92460   3.826   3.449   2.296 -0.7613  2.3911 -0.0909
  671MOL0     O92461   7.425   5.308   1.641 -0.0927  1.0325 -0.2947
  671MOL0     C92462   7.340   5.224   1.608 -0.4110  0.4554 -0.4182
  671MOL0     O92463   7.314   5.100   1.675  0.1295 -0.2445 -0.9067
  671MOL0     C92464   7.405   5.067   1.767 -0.7009 -0.9766 -0.2378
  671MOL0     C92465   7.382   5.093   1.896 -0.1868 -0.1842  0.2998
  671MOL0     C92466   7.483   5.058   1.993  0.2968 -0.4889  0.3857
  671MOL0     C92467   7.597   5.008   1.949 -0.5080  0.4093  0.1618
  671MOL0     O92468   7.690   4.993   2.051 -0.3217  0.5325  0.3478
  671MOL0     C92469   7.768   4.869   2.041 -0.3938 -0.2681  0.4179
  671MOL0     C92470   7.839   4.859   2.171 -0.7870  0.6041  1.0460
  671MOL0     C92471   7.936   4.741   2.164  0.1018  0.9988 -0.2997
  671MOL0     C92472   8.028   4.721   2.287  0.4511  0.4834 -0.3510
  671MOL0     C92473   8.117   4.602   2.276  0.7261  0.2838  0.2311
  671MOL0     C92474   8.183   4.582   2.410 -0.5199  0.1423 -0.0973
  671MOL0     C92475   8.295   4.469   2.408 -0.1095 -0.8130 -0.0909
  671MOL0     C92476   8.246   4.351   2.340  1.4717 -0.1271 -0.6673
  671MOL0     N92477   8.130   4.296   2.407 -0.4670 -0.2778  0.5795
  671MOL0     C92478   8.127   4.216   2.512  0.7703  1.0265  0.8253
  671MOL0     C92479   7.998   4.180   2.531 -0.1917  0.1353  0.4543
  671MOL0     C92480   7.947   4.080   2.629  0.5775 -0.2082  0.8523
  671MOL0     C92481   7.974   4.100   2.777  0.3091  0.3648  0.9384
  671MOL0     C92482   7.972   4.242   2.836 -0.0840 -0.4979 -0.0715
  671MOL0     C92483   7.843   4.320   2.805  1.3282  0.3894  0.3079
  671MOL0     O92484   7.772   4.372   2.912 -0.0264 -0.3104 -0.2906
  671MOL0     C92485   7.703   4.299   2.997 -0.2531 -0.0355 -0.5149
  671MOL0     C92486   7.721   4.336   3.130  0.5189 -0.5044 -0.7653
  671MOL0     C92487   7.659   4.260   3.237  0.3550  0.4277  0.7921
  671MOL0     C92488   7.655   4.317   3.382 -0.6485  0.0311  0.0906
  671MOL0     C92489   7.577   4.148   3.201  0.5812 -0.0986 -0.8274
  671MOL0     C92490   7.500   4.068   3.299 -0.2439 -1.0795  0.0701
  671MOL0     O92491   7.558   4.032   3.418 -0.4348  0.3374  0.3481
  671MOL0     C92492   7.480   3.988   3.524  0.0085  0.2221  0.3788
  671MOL0     C92493   7.463   3.851   3.563 -0.0234 -0.6155 -0.3835
  671MOL0     C92494   7.393   3.809   3.682  0.0129 -0.1665  0.4886
  671MOL0     C92495   7.358   3.909   3.769 -0.0401 -0.3051  0.0116
  671MOL0     O92496   7.301   3.876   3.888 -0.2782  0.2003  0.4886
  671MOL0     C92497   7.213   3.968   3.960 -0.1388 -1.0850 -0.0425
  671MOL0     C92498   7.102   3.902   4.036 -0.1833  0.5436  0.5910
  671MOL0     C92499   7.142   3.775   4.111  0.5772  0.4773 -0.5558
  671MOL0     C92500   7.237   3.799   4.229 -0.4303 -0.2903  0.5970
  671MOL0     C92501   7.227   3.700   4.342 -0.7508 -0.0056 -0.1713
  671MOL0     C92502   7.085   3.702   4.396  0.2714 -0.9838 -0.1330
  671MOL0     C92503   7.021   3.560   4.402 -0.2819 -0.7181  0.0805
  671MOL0     C92504   6.931   3.552   4.531 -0.0738 -0.1290  0.5726
  671MOL0    Cl92505   6.793   3.670   4.533 -0.7698 -0.2833  0.1073
  671MOL0     C92506   7.376   4.046   3.733 -0.6808 -0.8602 -0.2042
  671MOL0     C92507   7.433   4.087   3.610 -0.1407  0.8449 -0.2734
  671MOL0     O92508   7.388   4.040   3.266 -0.0953  0.0703 -0.9357
  671MOL0     C92509   7.553   4.116   3.066  0.9629 -0.5324  0.6243
  671MOL0     C92510   7.616   4.194   2.961 -0.6087  0.0790 -0.2203
  671MOL0     N92511   7.922   4.232   2.429 -0.2299 -0.3023 -0.7049
  671MOL0     N92512   8.001   4.303   2.358 -0.1727  0.5338 -0.0713
  671MOL0     C92513   7.625   4.987   1.812  0.1562  0.7592  0.4257
  671MOL0     C92514   7.523   5.015   1.719  0.7831  0.2642  0.3445
  671MOL0     C92515   7.234   5.271   1.508 -0.1181 -0.2549  0.6594
  671MOL0     C92516   7.100   5.225   1.504 -0.6063 -1.0646  0.2018
  671MOL0     C92517   7.002   5.290   1.427 -0.3278 -0.5845 -0.2329
  671MOL0     C92518   7.042   5.382   1.330  0.0175  0.1635 -0.6479
  671MOL0     O92519   6.957   5.442   1.233 -0.4954  0.1901 -0.6643
  671MOL0     C92520   6.844   5.366   1.194 -0.7214 -1.0994  0.3170
  671MOL0     C92521   6.876   5.228   1.134  0.4728  0.5484 -0.0197
  671MOL0     C92522   6.992   5.233   1.030  0.8351 -0.4277 -1.1285
  671MOL0     C92523   7.009   5.087   0.975  0.7903  0.4037  0.1838
  671MOL0     C92524   7.103   5.081   0.859  0.9737 -0.7848 -0.1379
  671MOL0     C92525   7.175   5.077   0.761  0.4917 -0.6080 -0.0401
  671MOL0     C92526   7.172   5.414   1.331 -0.5074 -0.3380  0.6350
  671MOL0     C92527   7.271   5.367   1.417  1.4128 -0.4172  0.4216
  671MOL0     C92528   7.406   5.417   1.391  1.0412  0.0733 -0.0221
  671MOL0     H92529   7.285   5.138   1.914 -0.6297 -1.7120  2.1001
  671MOL0     H92530   7.458   5.081   2.096 -4.0890 -1.1632 -0.3418
  671MOL0     H92531   7.835   4.888   1.957 -2.5680 -1.0547 -1.6165
  671MOL0     H92532   7.701   4.785   2.019 -1.2176  0.2616  0.8658
  671MOL0     H92533   7.901   4.947   2.189  2.2680 -0.3914 -3.0697
  671MOL0     H92534   7.758   4.855   2.245 -2.5539 -0.0732 -0.8247
  671MOL0     H92535   7.889   4.642   2.156  4.7421 -1.3415 -2.2808
  671MOL0     H92536   7.992   4.754   2.072  1.6654 -3.3103 -0.1966
  671MOL0     H92537   8.101   4.802   2.300  0.8782  0.0356  0.1025
  671MOL0     H92538   7.977   4.700   2.382  5.0253 -0.5028  2.2029
  671MOL0     H92539   8.199   4.606   2.205  1.1477  2.5800  0.7713
  671MOL0     H92540   8.047   4.521   2.251  0.3954 -0.0290  2.0020
  671MOL0     H92541   8.237   4.671   2.443  1.1059  0.3330 -2.9385
  671MOL0     H92542   8.100   4.570   2.481 -1.5303  2.9058 -0.6842
  671MOL0     H92543   8.313   4.445   2.513  1.7688 -3.4745 -0.9253
  671MOL0     H92544   8.391   4.497   2.363  0.3159 -0.4875  0.9929
  671MOL0     H92545   8.217   4.361   2.235 -1.4270 -4.3304 -0.5082
  671MOL0     H92546   8.319   4.270   2.345  1.4069 -0.1634  3.5472
  671MOL0     H92547   8.218   4.188   2.566  1.5652  0.3087 -0.8279
  671MOL0     H92548   7.989   3.986   2.591 -2.7423 -1.4803 -0.0758
  671MOL0     H92549   7.838   4.068   2.621  0.5266 -0.9798  2.2891
  671MOL0     H92550   7.897   4.036   2.821  1.7938 -1.1377  1.4612
  671MOL0     H92551   8.068   4.049   2.799 -0.0776 -0.4994  0.6361
  671MOL0     H92552   7.974   4.234   2.945 -0.3982  0.7738  0.0458
  671MOL0     H92553   8.062   4.293   2.801 -1.2130  1.7405  0.0943
  671MOL0     H92554   7.868   4.413   2.752 -1.9898  2.4059  1.9839
  671MOL0     H92555   7.770   4.268   2.743  1.6852 -1.3379  1.2573
  671MOL0     H92556   7.785   4.422   3.148  2.6002 -1.6828 -2.0784
  671MOL0     H92557   7.747   4.370   3.409  0.0264 -0.8072 -0.5271
  671MOL0     H92558   7.637   4.242   3.459 -2.8090  1.2379  0.8530
  671MOL0     H92559   7.566   4.380   3.390 -0.5341  0.4826 -1.8398
  671MOL0     H92560   7.515   3.781   3.499  0.7026  2.0234 -2.8663
  671MOL0     H92561   7.369   3.704   3.695  0.0543 -0.3312 -0.6752
  671MOL0     H92562   7.267   4.015   4.043  0.3990 -0.6165 -0.6507
  671MOL0     H92563   7.167   4.048   3.902  0.3105 -0.8221 -0.0421
  671MOL0     H92564   7.067   3.969   4.115  0.6433 -1.7219  3.0493
  671MOL0     H92565   7.024   3.886   3.960  0.7119  1.4216 -0.5444
  671MOL0     H92566   7.190   3.711   4.036  6.2539  1.3213  1.8549
  671MOL0     H92567   7.052   3.726   4.150 -2.1271  3.3319 -2.6699
  671MOL0     H92568   7.220   3.899   4.268  2.3322 -1.0283  4.2497
  671MOL0     H92569   7.339   3.802   4.188 -0.4063 -0.8190  0.6009
  671MOL0     H92570   7.265   3.603   4.310  0.3271  0.4539 -0.3502
  671MOL0     H92571   7.293   3.742   4.419  0.1491  0.3296 -1.0968
  671MOL0     H92572   7.015   3.779   4.361 -0.8090 -1.7961  0.1979
  671MOL0     H92573   7.101   3.729   4.501  1.4535 -4.6362  0.7530
  671MOL0     H92574   7.105   3.492   4.417 -0.6272 -0.5379  4.1081
  671MOL0     H92575   6.963   3.548   4.310  2.4619  2.8150 -2.3994
  671MOL0     H92576   6.985   3.559   4.626  0.3804 -0.0270  0.3073
  671MOL0     H92577   6.888   3.451   4.535 -1.4761  0.4771  2.1790
  671MOL0     H92578   7.333   4.131   3.785  1.0254 -0.0974  0.0023
  671MOL0     H92579   7.452   4.188   3.578  0.9220  0.4873 -0.8202
  671MOL0     H92580   7.486   4.034   3.045 -0.1245  0.1699  1.2240
  671MOL0     H92581   7.611   4.158   2.859 -0.0395  1.2998 -0.6883
  671MOL0     H92582   7.715   4.939   1.775 -0.9176 -1.0169 -0.0046
  671MOL0     H92583   7.535   5.010   1.612 -1.7196 -0.4231  0.0227
  671MOL0     H92584   7.068   5.157   1.582 -1.9821  0.1761  0.7549
  671MOL0     H92585   6.900   5.261   1.448 -0.7930  1.4887  0.5417
  671MOL0     H92586   6.786   5.344   1.284  2.9133 -0.8330  2.9528
  671MOL0     H92587   6.799   5.439   1.127  1.7949  2.2885  2.0067
  671MOL0     H92588   6.785   5.186   1.090  0.4507  1.1666 -0.5890
  671MOL0     H92589   6.911   5.164   1.215  1.1505 -0.5962 -1.1812
  671MOL0     H92590   6.973   5.309   0.953 -1.4653  1.7391  1.3901
  671MOL0     H92591   7.084   5.263   1.080  1.8535  1.6794 -3.9725
  671MOL0     H92592   6.907   5.059   0.945 -0.0680  1.3296  2.1164
  671MOL0     H92593   7.034   5.019   1.057 -3.9921 -1.0050  0.8220
  671MOL0     H92594   7.242   5.079   0.677 -0.3756  1.3680 -0.7477
  671MOL0     H92595   7.196   5.481   1.249  1.8954 -0.1909  1.3766
  671MOL0     H92596   7.433   5.504   1.451  2.1076  0.0406 -0.4311
  671MOL0     H92597   7.477   5.333   1.402  1.8864  0.6389 -0.9911
  671MOL0     H92598   7.423   5.448   1.288 -3.3758 -2.0800 -1.6359
  672MOL0     O92599  11.319   8.608   4.291 -0.2619 -0.3514  0.2964
  672MOL0     C92600  11.414   8.685   4.278  0.5426  0.3434 -0.4254
  672MOL0     O92601  11.545   8.639   4.274  0.5968  0.2207 -0.3385
  672MOL0     C92602  11.582   8.513   4.320  0.0725  0.9224  0.4394
  672MOL0     C92603  11.543   8.390   4.262 -0.3707 -0.0168 -0.5032
  672MOL0     C92604  11.570   8.266   4.329  0.4000  1.2201  0.0936
  672MOL0     C92605  11.630   8.262   4.450 -0.3343  0.5894 -1.2169
  672MOL0     O92606  11.646   8.144   4.508  1.3119  0.5951 -0.6473
  672MOL0     C92607  11.777   8.100   4.519  0.4085  0.2777 -0.3922
  672MOL0     C92608  11.786   7.954   4.526  0.0089  0.0497  0.2915
  672MOL0     C92609  11.929   7.902   4.508  0.1763  0.1164 -0.5875
  672MOL0     C92610  11.931   7.764   4.448 -0.0828  0.4810 -0.2894
  672MOL0     C92611  12.073   7.701   4.439  0.0122 -0.0109 -0.0282
  672MOL0     C92612  12.070   7.580   4.340  0.5997  0.2090 -0.3057
  672MOL0     C92613  12.212   7.529   4.310  0.4487  0.3647  0.8241
  672MOL0     C92614  12.200   7.447   4.180 -0.0348 -0.0280  0.0368
  672MOL0     N92615  12.334   7.405   4.138  0.2387  0.7542  0.7804
  672MOL0     C92616  12.394   7.282   4.152 -0.2489  0.1930 -0.8670
  672MOL0     C92617  12.525   7.293   4.121 -0.2841 -0.6077  0.1762
  672MOL0     C92618  12.613   7.176   4.103  0.9176 -0.6652  0.3400
  672MOL0     C92619  12.672   7.177   3.957  0.2843 -0.2350 -0.9510
  672MOL0     C92620  12.727   7.043   3.913 -0.5778  0.1219  0.2173
  672MOL0     C92621  12.790   7.030   3.773  0.6411  0.0164 -1.0880
  672MOL0     O92622  12.936   7.066   3.778 -0.0532 -0.2011 -0.3464
  672MOL0     C92623  12.999   7.032   3.657  0.2487 -0.5996 -1.0147
  672MOL0     C92624  13.130   7.017   3.674 -1.1342  0.2816 -0.2344
  672MOL0     C92625  13.206   6.957   3.570  0.5734 -0.0519  0.2329
  672MOL0     C92626  13.347   6.930   3.600  0.2118  0.1664  0.4433
  672MOL0     C92627  13.146   6.926   3.443 -0.8221  0.1605  0.1461
  672MOL0     C92628  13.219   6.847   3.326  0.5494  0.8444  0.1730
  672MOL0     O92629  13.143   6.817   3.215  0.3456  0.7556  0.8623
  672MOL0     C92630  13.209   6.764   3.104  0.1543  0.0337 -0.2674
  672MOL0     C92631  13.256   6.635   3.106 -0.3767  0.7239  0.0470
  672MOL0     C92632  13.327   6.588   2.997 -0.8643  0.5705 -0.0497
  672MOL0     C92633  13.342   6.663   2.874  0.8049 -0.5541  0.8081
  672MOL0     O92634  13.412   6.627   2.766  0.1469 -0.3370  0.2541
  672MOL0     C92635  13.541   6.572   2.795 -0.0021  0.0205  0.9514
  672MOL0     C92636  13.612   6.632   2.671  0.1813  0.1722  0.6843
  672MOL0     C92637  13.753   6.578   2.673 -0.0445 -0.1046  0.2991
  672MOL0     C92638  13.841   6.623   2.788  0.9617  0.7440  1.2558
  672MOL0     C92639  13.992   6.630   2.736 -1.6958 -0.2463  0.0520
  672MOL0     C92640  14.087   6.591   2.843 -0.3149  0.6076  0.2297
  672MOL0     C92641  14.229   6.618   2.815 -0.7093  0.6899  0.0204
  672MOL0     C92642  14.317   6.528   2.904 -0.2009 -0.8447  0.7033
  672MOL0    Cl92643  14.302   6.349   2.908 -0.0914  0.0568 -0.1185
  672MOL0     C92644  13.280   6.790   2.873  0.7639 -0.4707  0.3815
  672MOL0     C92645  13.216   6.843   2.986  0.6791  0.2567  0.0310
  672MOL0     O92646  13.343   6.856   3.323  0.1298  0.5267 -0.4643
  672MOL0     C92647  13.013   6.950   3.429 -0.4692 -0.3064 -1.0688
  672MOL0     C92648  12.935   7.008   3.538 -0.1084  0.5379  0.7430
  672MOL0     N92649  12.535   7.419   4.069 -0.0641 -0.4846 -0.3755
  672MOL0     N92650  12.416   7.486   4.068 -0.7083  1.0583 -0.5002
  672MOL0     C92651  11.682   8.382   4.499  0.3910 -0.3716  0.4150
  672MOL0     C92652  11.654   8.503   4.444 -0.2973 -0.6326  0.9821
  672MOL0     C92653  11.392   8.825   4.243  0.1619 -0.4910 -0.4668
  672MOL0     C92654  11.505   8.891   4.195  0.2175 -0.5471 -0.2100
  672MOL0     C92655  11.494   9.022   4.168 -1.1321  0.1784  0.6605
  672MOL0     C92656  11.375   9.090   4.177 -0.0589 -0.1679  0.1049
  672MOL0     O92657  11.369   9.226   4.144 -0.4585  0.2223 -0.0749
  672MOL0     C92658  11.236   9.279   4.097  0.4582 -0.6436 -0.8502
  672MOL0     C92659  11.172   9.216   3.975  0.3002  0.1832 -0.5448
  672MOL0     C92660  11.022   9.252   3.961 -0.2092  0.0334 -0.5611
  672MOL0     C92661  10.918   9.173   4.041 -0.4771 -0.4656  0.6232
  672MOL0     C92662  10.956   9.029   4.071 -1.0254 -0.5345 -0.9109
  672MOL0     C92663  10.968   8.907   4.073  0.7527  0.1871  0.2525
  672MOL0     C92664  11.267   9.036   4.247  0.2254 -0.7187  0.6830
  672MOL0     C92665  11.274   8.900   4.274  0.7870  1.7520  0.3245
  672MOL0     C92666  11.155   8.834   4.335  1.1808  0.5512  0.0258
  672MOL0     H92667  11.473   8.402   4.180  0.8472 -0.1163 -1.5866
  672MOL0     H92668  11.526   8.171   4.304  2.6553  0.2840 -0.4996
  672MOL0     H92669  11.796   8.148   4.616  0.6896  1.8920 -1.2211
  672MOL0     H92670  11.838   8.146   4.441 -1.0495  2.8407 -0.1211
  672MOL0     H92671  11.755   7.932   4.629 -0.1494  2.5872  0.8512
  672MOL0     H92672  11.723   7.903   4.453 -1.2618 -0.7412  1.8821
  672MOL0     H92673  11.984   7.966   4.439  0.6750 -0.2323 -0.5191
  672MOL0     H92674  11.986   7.912   4.602 -0.4749  1.4988 -0.3133
  672MOL0     H92675  11.876   7.694   4.512 -1.0237 -2.1020 -3.6625
  672MOL0     H92676  11.896   7.759   4.345 -1.7437 -0.5284  0.2911
  672MOL0     H92677  12.113   7.672   4.536  0.8633 -0.2224 -0.4335
  672MOL0     H92678  12.138   7.776   4.393  0.1988 -0.2130 -0.0941
  672MOL0     H92679  11.992   7.510   4.371 -0.9523  1.6933 -0.7381
  672MOL0     H92680  12.029   7.609   4.242  0.2293 -0.8430 -0.4762
  672MOL0     H92681  12.248   7.461   4.387  0.7506 -0.2914  0.1236
  672MOL0     H92682  12.298   7.595   4.305 -0.4109  1.4192 -1.4017
  672MOL0     H92683  12.147   7.352   4.192  1.8357 -1.5605 -2.6788
  672MOL0     H92684  12.167   7.519   4.105  2.4862  3.0100  1.6161
  672MOL0     H92685  12.347   7.190   4.186 -0.8450  0.1167 -1.8721
  672MOL0     H92686  12.551   7.086   4.113  0.1216 -0.3325 -1.2507
  672MOL0     H92687  12.686   7.178   4.184 -1.4942 -0.5273  2.6250
  672MOL0     H92688  12.601   7.210   3.880 -0.3959  1.2724  0.2638
  672MOL0     H92689  12.751   7.250   3.938  2.1337 -1.7280  0.6475
  672MOL0     H92690  12.804   7.011   3.983 -0.8896  1.2484  1.0896
  672MOL0     H92691  12.647   6.969   3.908 -1.1912  0.8455 -1.8014
  672MOL0     H92692  12.766   6.931   3.733 -2.2362  1.6106 -3.7379
  672MOL0     H92693  12.742   7.106   3.711  0.0754 -0.8086 -1.6857
  672MOL0     H92694  13.175   7.029   3.772  2.0637 -2.0196 -1.2350
  672MOL0     H92695  13.375   6.954   3.703  2.0937 -0.8626  0.2184
  672MOL0     H92696  13.409   6.995   3.537  0.7464 -1.1572 -0.4407
  672MOL0     H92697  13.375   6.829   3.569 -0.3632  0.0383  0.3252
  672MOL0     H92698  13.246   6.568   3.190  0.6632 -0.8359 -1.0133
  672MOL0     H92699  13.381   6.494   2.995  1.3639  1.7611 -2.6556
  672MOL0     H92700  13.578   6.616   2.888 -0.9411  0.2226  1.2441
  672MOL0     H92701  13.551   6.463   2.793 -2.1652 -0.2297  1.6321
  672MOL0     H92702  13.558   6.613   2.577 -0.9749  0.6139  1.2283
  672MOL0     H92703  13.612   6.741   2.681 -2.2618  0.4977 -1.6984
  672MOL0     H92704  13.792   6.592   2.571 -2.0168  0.8543 -0.3722
  672MOL0     H92705  13.753   6.468   2.670 -1.8512 -0.1441 -2.7336
  672MOL0     H92706  13.828   6.558   2.874 -1.7586  1.5959  1.5762
  672MOL0     H92707  13.810   6.721   2.826  0.4335  1.3508 -0.6342
  672MOL0     H92708  14.014   6.561   2.654 -2.9267  0.3078 -0.7799
  672MOL0     H92709  14.011   6.728   2.691 -1.8826 -0.8920 -1.5367
  672MOL0     H92710  14.077   6.487   2.877  4.0710  0.4547  1.6655
  672MOL0     H92711  14.052   6.638   2.935  0.1186  1.4897 -0.0471
  672MOL0     H92712  14.251   6.725   2.823 -1.5742  1.0065 -1.4479
  672MOL0     H92713  14.257   6.586   2.714 -3.7638  0.3434 -0.8025
  672MOL0     H92714  14.294   6.554   3.007 -0.0793 -3.8001  1.5823
  672MOL0     H92715  14.421   6.560   2.891  0.3664 -2.3747  1.2720
  672MOL0     H92716  13.293   6.849   2.783 -4.1179  1.6155  0.6969
  672MOL0     H92717  13.170   6.941   2.988  0.7681  0.3072 -0.2871
  672MOL0     H92718  12.958   6.925   3.338 -0.5372  0.6974 -1.3107
  672MOL0     H92719  12.829   7.028   3.524  0.4369  2.0693 -1.8783
  672MOL0     H92720  11.753   8.381   4.581 -1.1503  2.9922  1.9404
  672MOL0     H92721  11.692   8.599   4.478  4.2778 -2.3902  1.4623
  672MOL0     H92722  11.606   8.852   4.184  0.9030  0.3847  2.0979
  672MOL0     H92723  11.575   9.088   4.141  0.1292 -0.8904  1.7183
  672MOL0     H92724  11.167   9.284   4.182  1.0314 -1.4609 -0.3114
  672MOL0     H92725  11.247   9.386   4.080 -1.2445 -0.3998 -0.5509
  672MOL0     H92726  11.194   9.109   3.974 -0.0200  0.0850  0.8288
  672MOL0     H92727  11.205   9.262   3.881  1.6232 -0.0168 -0.2003
  672MOL0     H92728  10.999   9.358   3.969 -1.9485 -0.1635 -2.3891
  672MOL0     H92729  10.994   9.226   3.859  0.4578  0.3074 -0.8210
  672MOL0     H92730  10.823   9.173   3.987 -0.2751  2.2103  0.1402
  672MOL0     H92731  10.895   9.225   4.135  1.6833  1.0952  0.3277
  672MOL0     H92732  10.973   8.801   4.061  3.3791  0.2862 -0.0486
  672MOL0     H92733  11.187   9.105   4.270 -0.9872 -0.9387 -2.3321
  672MOL0     H92734  11.092   8.787   4.259 -1.8468  0.2891  2.4927
  672MOL0     H92735  11.183   8.776   4.423  2.6054 -2.0051 -1.9653
  672MOL0     H92736  11.096   8.922   4.364 -1.8953 -1.3658  0.0062
  673MOL0     O92737   2.908   9.095   9.442 -0.1587 -0.8315 -0.0102
  673MOL0     C92738   2.945   8.991   9.381  0.1637 -0.4480  0.0868
  673MOL0     O92739   2.868   8.900   9.333  0.0180  0.3850  0.5724
  673MOL0     C92740   2.731   8.908   9.344 -0.2345  0.5922  0.4959
  673MOL0     C92741   2.660   8.784   9.319  0.8841 -0.7574  1.1287
  673MOL0     C92742   2.525   8.771   9.315 -0.0421  1.0990  0.4147
  673MOL0     C92743   2.441   8.878   9.352  0.2182 -0.4041 -0.7741
  673MOL0     O92744   2.306   8.882   9.348  0.1470 -0.2058  0.3104
  673MOL0     C92745   2.238   8.763   9.340  0.5881 -0.7207  0.1971
  673MOL0     C92746   2.214   8.722   9.193 -0.0186 -0.2094  1.0495
  673MOL0     C92747   2.100   8.783   9.114  1.1784  0.4619 -0.2463
  673MOL0     C92748   2.103   8.738   8.974 -0.0271  0.5087  0.3938
  673MOL0     C92749   1.984   8.794   8.896 -0.0109 -0.9098  0.4383
  673MOL0     C92750   1.975   8.756   8.746 -0.1475 -0.3748  0.9072
  673MOL0     C92751   2.103   8.766   8.666 -0.6141 -0.9752  0.2817
  673MOL0     C92752   2.156   8.916   8.666  1.3798 -0.2531  0.6523
  673MOL0     N92753   2.056   9.011   8.619  0.2332 -0.0763 -0.2385
  673MOL0     C92754   2.014   9.027   8.488 -0.1420  0.8231 -0.4196
  673MOL0     C92755   1.931   9.134   8.482  0.1079 -0.0521  0.4117
  673MOL0     C92756   1.853   9.149   8.350 -0.4350  0.1211 -0.4250
  673MOL0     C92757   1.740   9.245   8.369  0.6155 -0.8572  0.1835
  673MOL0     C92758   1.779   9.386   8.403  1.2985 -0.5224  0.5260
  673MOL0     C92759   1.900   9.443   8.317  0.6200 -0.9559  0.2685
  673MOL0     O92760   1.847   9.454   8.191  0.3496 -0.3630  0.6534
  673MOL0     C92761   1.916   9.526   8.094 -0.7532  0.4344  0.3800
  673MOL0     C92762   2.050   9.560   8.091  0.0678  0.3535 -0.4997
  673MOL0     C92763   2.126   9.618   7.979  0.0568  0.7018  0.1294
  673MOL0     C92764   2.272   9.635   7.986 -0.2374 -0.5584 -0.4128
  673MOL0     C92765   2.043   9.664   7.878 -0.8198  0.4296  0.9235
  673MOL0     C92766   2.093   9.742   7.759  0.5044  0.0016 -0.4617
  673MOL0     O92767   2.040   9.713   7.634  0.1304  0.0829  0.0760
  673MOL0     C92768   2.081   9.783   7.521  0.3113 -0.0175  0.2728
  673MOL0     C92769   1.992   9.766   7.413  0.4803  0.2334  0.3246
  673MOL0     C92770   2.009   9.840   7.295  0.2257  1.2214 -0.0955
  673MOL0     C92771   2.117   9.918   7.272  0.7071  0.7914  0.4635
  673MOL0     O92772   2.152   9.991   7.160  0.0969  0.1401 -0.2433
  673MOL0     C92773   2.046  10.024   7.067  0.1799  0.4230  0.3169
  673MOL0     C92774   2.086  10.133   6.969  0.2674 -0.7429 -0.7596
  673MOL0     C92775   2.113  10.272   7.043  0.0686 -0.5418  0.3955
  673MOL0     C92776   2.264  10.285   7.067  0.6349  0.5866  0.8105
  673MOL0     C92777   2.336  10.352   6.946  0.0123  0.5254 -0.1115
  673MOL0     C92778   2.481  10.336   6.993 -0.1107 -0.2390 -0.4029
  673MOL0     C92779   2.583  10.370   6.880  0.1050 -0.0664 -0.7131
  673MOL0     C92780   2.731  10.411   6.924  0.4804 -0.1103 -0.1969
  673MOL0    Cl92781   2.729  10.539   7.052  0.2316 -0.3544  0.2329
  673MOL0     C92782   2.213   9.917   7.370 -0.4241  1.1262 -0.0631
  673MOL0     C92783   2.188   9.877   7.500 -1.1144  0.9748 -0.3488
  673MOL0     O92784   2.172   9.833   7.787  0.0130  0.0777  0.4192
  673MOL0     C92785   1.909   9.619   7.876 -0.2061 -0.8654 -0.0105
  673MOL0     C92786   1.848   9.559   7.979  1.0021  0.2096 -1.1138
  673MOL0     N92787   1.915   9.183   8.616 -0.2838  0.0547 -0.6632
  673MOL0     N92788   1.996   9.107   8.691 -0.9104 -0.3905  0.1679
  673MOL0     C92789   2.505   8.997   9.380  0.4371 -0.2450 -0.1388
  673MOL0     C92790   2.646   9.014   9.373 -0.4911 -0.0733 -0.6240
  673MOL0     C92791   3.088   8.980   9.359 -0.5908  0.8490 -0.2485
  673MOL0     C92792   3.155   8.870   9.412 -0.3381 -0.9307 -0.3604
  673MOL0     C92793   3.297   8.862   9.406  0.6904 -0.3171 -1.2451
  673MOL0     C92794   3.382   8.945   9.328  0.3354 -0.5695 -1.1899
  673MOL0     O92795   3.524   8.931   9.334  0.2725 -0.0109 -0.4468
  673MOL0     C92796   3.569   9.010   9.444  0.2733 -0.5278 -0.7894
  673MOL0     C92797   3.716   9.031   9.463  0.9254 -0.1758 -0.3181
  673MOL0     C92798   3.757   9.105   9.591  0.9421 -0.4872 -1.0572
  673MOL0     C92799   3.748   9.006   9.715 -0.3205  0.0295  0.0499
  673MOL0     C92800   3.767   9.073   9.843 -0.1384  0.3704  0.1203
  673MOL0     C92801   3.778   9.149   9.936 -0.3461  0.0727 -0.4315
  673MOL0     C92802   3.308   9.052   9.279 -0.4152  0.4238  1.2725
  673MOL0     C92803   3.169   9.072   9.292  0.9301  0.2738 -0.4268
  673MOL0     C92804   3.118   9.201   9.227  0.3660  0.7575  0.4203
  673MOL0     H92805   2.704   8.696   9.275 -2.3987 -1.1022 -1.9376
  673MOL0     H92806   2.479   8.677   9.285  1.7399 -0.6024  2.6831
  673MOL0     H92807   2.135   8.788   9.369  2.1118  4.5225  2.1234
  673MOL0     H92808   2.278   8.680   9.400  0.1558 -1.8497 -1.0110
  673MOL0     H92809   2.310   8.738   9.144 -0.6413 -1.5236 -0.6912
  673MOL0     H92810   2.197   8.614   9.185  2.0611 -0.8558  3.9300
  673MOL0     H92811   2.004   8.760   9.161  1.2872 -0.2735 -0.3715
  673MOL0     H92812   2.108   8.892   9.119 -0.2109  0.5837 -0.3092
  673MOL0     H92813   2.192   8.771   8.919  2.4255 -2.0443  2.5059
  673MOL0     H92814   2.096   8.629   8.968  1.5775  0.3819  0.5388
  673MOL0     H92815   1.995   8.903   8.893  2.0162 -0.9943  2.4298
  673MOL0     H92816   1.890   8.769   8.947 -0.9321 -1.4027 -1.4256
  673MOL0     H92817   1.935   8.657   8.724  1.5049 -0.5587 -1.6429
  673MOL0     H92818   1.904   8.826   8.701  3.1757  0.6815 -3.3356
  673MOL0     H92819   2.097   8.748   8.558  1.0813 -3.7014  0.5529
  673MOL0     H92820   2.188   8.706   8.698  2.1470  0.1606 -4.0104
  673MOL0     H92821   2.182   8.938   8.770 -0.4987  0.2292  1.0665
  673MOL0     H92822   2.247   8.922   8.606  0.3615  1.8948 -0.8196
  673MOL0     H92823   2.015   8.951   8.411 -1.6060  0.4432 -0.1051
  673MOL0     H92824   1.806   9.054   8.322 -0.2859  0.1544 -0.7840
  673MOL0     H92825   1.920   9.186   8.273 -0.1666 -0.2840 -0.3865
  673MOL0     H92826   1.677   9.248   8.279  1.3868 -0.1388 -0.3453
  673MOL0     H92827   1.666   9.210   8.441 -0.2700 -0.7075 -0.6249
  673MOL0     H92828   1.695   9.456   8.411 -0.1745 -2.0797 -0.5499
  673MOL0     H92829   1.806   9.395   8.509  1.9664 -1.0196  0.4078
  673MOL0     H92830   1.948   9.532   8.359 -0.6410  0.2557 -0.7558
  673MOL0     H92831   1.984   9.374   8.309  2.4302  1.1971 -0.1769
  673MOL0     H92832   2.106   9.543   8.182  3.0750  3.6688 -1.5035
  673MOL0     H92833   2.315   9.559   8.051 -3.2104 -0.0751  2.3715
  673MOL0     H92834   2.290   9.727   8.041 -2.7297  0.0450 -0.4867
  673MOL0     H92835   2.322   9.623   7.889  0.6107  0.9147 -0.1765
  673MOL0     H92836   1.915   9.690   7.413  0.4440  0.2384 -0.8475
  673MOL0     H92837   1.931   9.825   7.221  0.9349 -0.1800 -0.5897
  673MOL0     H92838   2.011   9.928   7.028 -3.4457  0.6295  2.6511
  673MOL0     H92839   1.954  10.059   7.113 -1.7519 -3.6813  0.0178
  673MOL0     H92840   2.172  10.098   6.911  1.4410 -1.9600  1.5550
  673MOL0     H92841   2.002  10.145   6.900 -1.6117  1.1161  1.6277
  673MOL0     H92842   2.057  10.274   7.136  0.5359  0.0548  0.6731
  673MOL0     H92843   2.073  10.351   6.978 -4.1425 -0.4131  2.8063
  673MOL0     H92844   2.307  10.189   7.096  0.9652  1.0336  1.8488
  673MOL0     H92845   2.268  10.356   7.151 -2.4464  3.3899 -1.1775
  673MOL0     H92846   2.320  10.309   6.847  3.7785  1.0768 -1.1215
  673MOL0     H92847   2.302  10.456   6.940 -4.9185 -0.5607  3.0063
  673MOL0     H92848   2.500  10.243   7.047  0.7807  1.7507  3.0126
  673MOL0     H92849   2.493  10.417   7.065 -0.8921 -0.9052  0.4923
  673MOL0     H92850   2.542  10.459   6.831 -0.8501 -0.3791 -0.4836
  673MOL0     H92851   2.582  10.289   6.807  0.7515  2.7142 -4.0823
  673MOL0     H92852   2.789  10.445   6.838  2.0724  2.7055  1.8308
  673MOL0     H92853   2.768  10.317   6.966 -0.0880 -0.9002 -1.3997
  673MOL0     H92854   2.304   9.971   7.344 -0.4216  2.6044  2.6412
  673MOL0     H92855   2.252   9.902   7.584 -3.8323  1.9309  1.5931
  673MOL0     H92856   1.852   9.642   7.786  0.1832 -0.6449 -0.2092
  673MOL0     H92857   1.742   9.535   7.980  1.0222  0.0153 -2.1876
  673MOL0     H92858   2.454   9.086   9.417  0.4211 -0.2290 -0.1999
  673MOL0     H92859   2.688   9.110   9.401  0.4546 -0.4677 -0.6528
  673MOL0     H92860   3.092   8.796   9.461 -3.1561  1.5149 -0.0243
  673MOL0     H92861   3.344   8.775   9.450  4.6873  2.4810  0.6599
  673MOL0     H92862   3.519   9.107   9.444 -0.5273 -0.9278 -1.0073
  673MOL0     H92863   3.542   8.950   9.531  2.1578  2.4595  2.0883
  673MOL0     H92864   3.759   9.093   9.383 -0.7663 -1.9027 -2.7321
  673MOL0     H92865   3.763   8.932   9.450  1.1612 -0.1778  0.5028
  673MOL0     H92866   3.856   9.151   9.585  0.4801  0.8338  0.5434
  673MOL0     H92867   3.683   9.183   9.612 -0.5356 -2.2024  0.4638
  673MOL0     H92868   3.815   8.920   9.724 -0.2925  0.2488  2.3561
  673MOL0     H92869   3.648   8.964   9.705 -0.9254  0.9862  1.7614
  673MOL0     H92870   3.790   9.217  10.018  0.5436  0.7337 -1.0913
  673MOL0     H92871   3.363   9.128   9.225 -0.8090  2.4885  3.5674
  673MOL0     H92872   3.204   9.268   9.240  0.7958  0.3376 -0.1684
  673MOL0     H92873   3.103   9.191   9.119 -1.7306 -0.3884  0.7755
  673MOL0     H92874   3.031   9.248   9.273  0.4411  2.6214 -1.2090
  674MOL0     O92875   8.349   2.218   0.598  0.0383 -0.0388  0.4632
  674MOL0     C92876   8.339   2.212   0.713  0.1361 -0.4153 -0.0495
  674MOL0     O92877   8.360   2.102   0.788 -0.1392  0.7722  0.1217
  674MOL0     C92878   8.433   1.996   0.738 -0.0950 -0.3327 -0.0197
  674MOL0     C92879   8.389   1.860   0.757 -0.4487 -0.7920 -0.7192
  674MOL0     C92880   8.458   1.748   0.715  0.1609  0.3186  1.1498
  674MOL0     C92881   8.583   1.762   0.648  0.8557 -0.6408 -1.0611
  674MOL0     O92882   8.626   1.644   0.606 -0.5407  0.3500 -0.2601
  674MOL0     C92883   8.697   1.647   0.481  0.1139  0.1080  0.1796
  674MOL0     C92884   8.768   1.515   0.441 -0.0551 -0.8371  0.4423
  674MOL0     C92885   8.695   1.385   0.492  0.0158 -0.2605 -0.3106
  674MOL0     C92886   8.557   1.347   0.427 -0.3185  0.2277 -0.3364
  674MOL0     C92887   8.561   1.243   0.305  0.0135  0.2992  1.3053
  674MOL0     C92888   8.421   1.201   0.278 -0.6912 -0.3756 -0.5032
  674MOL0     C92889   8.358   1.107   0.379  0.0279  0.3254 -0.3985
  674MOL0     C92890   8.262   1.002   0.318  0.7947  0.0283 -0.1618
  674MOL0     N92891   8.146   1.049   0.229  0.1693  0.4041 -0.9061
  674MOL0     C92892   8.151   1.114   0.106  0.0706  0.5053 -0.0799
  674MOL0     C92893   8.014   1.125   0.066 -0.4180 -0.4661  0.1800
  674MOL0     C92894   7.966   1.152  -0.081  2.0302 -0.3778 -0.1725
  674MOL0     C92895   8.002   1.295  -0.134 -0.1765  0.4383 -0.3239
  674MOL0     C92896   7.914   1.404  -0.071 -0.2348  0.3515 -0.9523
  674MOL0     C92897   7.760   1.372  -0.075 -1.1309 -0.7161  0.3088
  674MOL0     O92898   7.683   1.475  -0.018 -0.2830  0.0408 -0.3559
  674MOL0     C92899   7.620   1.425   0.094  0.5758 -0.0464 -0.2820
  674MOL0     C92900   7.672   1.347   0.196  0.3829  0.8171 -0.6839
  674MOL0     C92901   7.596   1.308   0.316 -0.4035 -1.0727  0.1083
  674MOL0     C92902   7.679   1.232   0.418 -0.3501  0.5863  0.0252
  674MOL0     C92903   7.465   1.355   0.335  1.1325  0.4827 -0.0206
  674MOL0     C92904   7.387   1.341   0.457 -1.1483  0.4355 -0.7739
  674MOL0     O92905   7.256   1.388   0.456 -0.0905  0.5534  0.0282
  674MOL0     C92906   7.174   1.415   0.563 -0.3461  0.6002 -0.0530
  674MOL0     C92907   7.040   1.397   0.572  1.3307 -0.2167 -0.6206
  674MOL0     C92908   6.958   1.441   0.675 -1.0109  0.1348  0.2382
  674MOL0     C92909   7.022   1.528   0.769  0.8384  0.5059 -0.3814
  674MOL0     O92910   6.958   1.584   0.875 -0.1007  0.5371  0.4308
  674MOL0     C92911   6.815   1.577   0.873  0.0425  1.2852  0.0978
  674MOL0     C92912   6.773   1.638   1.005  0.3701 -0.1941  0.1771
  674MOL0     C92913   6.781   1.790   1.000  0.5886 -0.9011  0.9368
  674MOL0     C92914   6.678   1.852   0.905 -0.6034  0.4454 -0.1821
  674MOL0     C92915   6.630   1.997   0.934  0.1338  0.0568 -0.4076
  674MOL0     C92916   6.744   2.095   0.936  0.3525 -0.5616 -1.4851
  674MOL0     C92917   6.718   2.219   1.014  0.5368 -0.3260  0.3239
  674MOL0     C92918   6.692   2.201   1.161 -0.0070 -1.0590  0.1268
  674MOL0    Cl92919   6.841   2.140   1.251  0.0573  0.3294 -0.1516
  674MOL0     C92920   7.157   1.566   0.760 -0.2222  0.4973  0.4011
  674MOL0     C92921   7.233   1.497   0.656  0.4029 -0.5971  0.3054
  674MOL0     O92922   7.438   1.291   0.558  0.2306 -0.0267  0.2997
  674MOL0     C92923   7.406   1.420   0.221 -0.1543  0.2348 -0.7477
  674MOL0     C92924   7.485   1.464   0.108  1.3255  0.4900 -1.4529
  674MOL0     N92925   7.931   1.066   0.164  0.2334 -0.7760  0.0622
  674MOL0     N92926   8.011   1.040   0.267 -1.1222 -1.0813 -0.3633
  674MOL0     C92927   8.640   1.896   0.637  0.9892 -0.0003 -0.9781
  674MOL0     C92928   8.554   2.007   0.665 -0.1412  0.6292  0.0228
  674MOL0     C92929   8.309   2.342   0.792 -0.3264 -0.1735  0.0141
  674MOL0     C92930   8.250   2.448   0.716 -0.8956 -0.0577  0.7710
  674MOL0     C92931   8.208   2.568   0.772 -0.0953  0.4170 -0.0983
  674MOL0     C92932   8.228   2.589   0.905  0.2627 -0.6879 -0.3357
  674MOL0     O92933   8.211   2.707   0.975 -0.0620 -0.8402  0.4206
  674MOL0     C92934   8.242   2.831   0.909  0.2260  0.0397  1.0728
  674MOL0     C92935   8.099   2.898   0.917 -0.2368 -1.3702 -0.5798
  674MOL0     C92936   8.075   2.937   1.068 -0.8498 -0.6604 -0.2918
  674MOL0     C92937   8.052   3.088   1.082  0.1549  0.2886 -0.2847
  674MOL0     C92938   8.177   3.162   1.083 -0.4094  0.1546  1.0717
  674MOL0     C92939   8.283   3.225   1.098 -0.9621 -0.1493 -0.1017
  674MOL0     C92940   8.286   2.482   0.984  0.7030  0.4405  0.0514
  674MOL0     C92941   8.323   2.359   0.925 -0.7249 -0.6306 -0.6088
  674MOL0     C92942   8.382   2.255   1.018  0.5610 -0.2172 -0.1101
  674MOL0     H92943   8.303   1.845   0.822  0.6268  2.1367  1.6242
  674MOL0     H92944   8.419   1.648   0.734 -1.6937  0.5699 -0.9800
  674MOL0     H92945   8.775   1.723   0.480  0.7277 -0.4619  1.4712
  674MOL0     H92946   8.630   1.673   0.399  1.6357  2.2980 -0.4746
  674MOL0     H92947   8.796   1.496   0.337  0.9175 -2.7787  1.0065
  674MOL0     H92948   8.867   1.513   0.488 -0.5698 -1.1430  1.5421
  674MOL0     H92949   8.762   1.302   0.469 -0.7881 -1.1220  0.3948
  674MOL0     H92950   8.678   1.395   0.599 -1.6363 -1.1141 -0.4628
  674MOL0     H92951   8.504   1.299   0.509  2.8968 -0.8911  1.2495
  674MOL0     H92952   8.505   1.437   0.392  0.4330  0.4145 -0.9868
  674MOL0     H92953   8.631   1.165   0.335  0.3096  0.8485  2.0565
  674MOL0     H92954   8.608   1.281   0.214  0.4150 -0.6460  1.1046
  674MOL0     H92955   8.362   1.292   0.267  0.3715  1.3392  4.9285
  674MOL0     H92956   8.430   1.155   0.179  0.3705 -0.8491 -0.2023
  674MOL0     H92957   8.325   1.170   0.463 -0.7306 -1.9645  1.1353
  674MOL0     H92958   8.442   1.041   0.405 -1.6438 -3.0636 -2.7700
  674MOL0     H92959   8.327   0.939   0.257  0.6829 -1.1036  0.8629
  674MOL0     H92960   8.228   0.924   0.387  0.6735 -0.4159 -0.7169
  674MOL0     H92961   8.237   1.129   0.041  1.2938 -2.9942  0.4930
  674MOL0     H92962   7.866   1.107  -0.091  3.1383 -2.9410 -0.5717
  674MOL0     H92963   8.036   1.093  -0.141  1.1384 -1.1443 -0.4839
  674MOL0     H92964   8.108   1.318  -0.127  0.3486 -0.1788 -3.9981
  674MOL0     H92965   7.974   1.289  -0.240  0.3172  2.6398 -0.6262
  674MOL0     H92966   7.951   1.425   0.030 -3.6794  3.0385 -0.0530
  674MOL0     H92967   7.918   1.490  -0.138  1.6361 -1.5418 -3.4530
  674MOL0     H92968   7.738   1.386  -0.181 -1.9720  2.0683  0.7727
  674MOL0     H92969   7.744   1.270  -0.038  2.0946 -0.8376  1.6179
  674MOL0     H92970   7.773   1.308   0.180 -0.5032 -3.6383  2.5008
  674MOL0     H92971   7.767   1.182   0.378 -0.9717  0.1641 -0.8396
  674MOL0     H92972   7.631   1.154   0.477  0.3787 -0.2352 -0.4478
  674MOL0     H92973   7.707   1.303   0.496 -1.7648  0.9306  0.2541
  674MOL0     H92974   6.981   1.348   0.495 -0.5770  2.4150 -0.9773
  674MOL0     H92975   6.857   1.401   0.675 -0.8596 -0.6409 -3.5130
  674MOL0     H92976   6.768   1.619   0.783  2.4102  1.6325 -1.0565
  674MOL0     H92977   6.783   1.473   0.871 -0.4351  1.4337 -0.4837
  674MOL0     H92978   6.668   1.613   1.023  0.2628 -2.2875 -2.7635
  674MOL0     H92979   6.824   1.598   1.093  0.9878 -0.7437 -0.4231
  674MOL0     H92980   6.881   1.826   0.976 -0.1381  2.0064  1.7992
  674MOL0     H92981   6.755   1.830   1.099  3.7760 -1.3049  2.0509
  674MOL0     H92982   6.586   1.792   0.902 -1.0241  1.1048 -0.8258
  674MOL0     H92983   6.733   1.845   0.810  2.2981  0.7266  1.3821
  674MOL0     H92984   6.567   2.029   0.850 -3.0772 -1.6783  1.1432
  674MOL0     H92985   6.571   1.999   1.027 -1.8253 -1.0246 -1.5615
  674MOL0     H92986   6.764   2.138   0.837 -0.9149  3.3096 -0.2492
  674MOL0     H92987   6.832   2.048   0.982  0.2760  1.1463  0.5386
  674MOL0     H92988   6.630   2.257   0.961  0.1747 -0.4377  0.8385
  674MOL0     H92989   6.802   2.288   1.013 -0.8533  1.4352 -0.5846
  674MOL0     H92990   6.605   2.138   1.180  1.2569 -2.6552  0.9788
  674MOL0     H92991   6.679   2.299   1.207 -0.7119 -1.7142  1.3916
  674MOL0     H92992   7.218   1.634   0.818  2.6383 -1.2596 -0.3251
  674MOL0     H92993   7.338   1.524   0.648  0.5437 -0.9408  0.9093
  674MOL0     H92994   7.302   1.451   0.210  0.1898  1.5453 -0.4558
  674MOL0     H92995   7.436   1.522   0.030 -2.6846 -0.3168  0.2279
  674MOL0     H92996   8.734   1.922   0.589  2.0372 -1.2911  0.2916
  674MOL0     H92997   8.588   2.106   0.638 -0.8149  0.5663 -1.1331
  674MOL0     H92998   8.243   2.430   0.610 -0.7961 -1.5702  1.0040
  674MOL0     H92999   8.174   2.654   0.715  4.3090  0.5341 -2.9944
  674MOL0     H93000   8.326   2.892   0.945  1.0759  0.8006 -1.9515
  674MOL0     H93001   8.266   2.810   0.805  1.2794  0.1516  1.2877
  674MOL0     H93002   8.012   2.848   0.874 -0.7533  0.7910 -2.2613
  674MOL0     H93003   8.097   2.989   0.856 -3.0025 -1.9019 -1.4233
  674MOL0     H93004   7.992   2.874   1.103 -1.2684 -0.2459 -0.5332
  674MOL0     H93005   8.156   2.913   1.138 -1.4154  4.0492  2.4516
  674MOL0     H93006   8.011   3.098   1.183 -3.8567  0.2689 -1.7238
  674MOL0     H93007   7.980   3.134   1.014  0.8304  1.6981 -0.0791
  674MOL0     H93008   8.360   3.297   1.117 -1.5076  0.2579  0.6094
  674MOL0     H93009   8.293   2.499   1.091 -0.1097 -0.3012  0.2330
  674MOL0     H93010   8.469   2.211   0.968 -1.3325 -0.9816 -2.9853
  674MOL0     H93011   8.414   2.299   1.113 -2.0064  0.4748  0.4999
  674MOL0     H93012   8.301   2.183   1.033 -0.1048  0.8069  1.4228
  675MOL0     O93013  11.278   5.857   9.513 -0.1222  0.6245 -0.5285
  675MOL0     C93014  11.258   5.887   9.396 -0.6403  0.6623  0.0076
  675MOL0     O93015  11.139   5.903   9.337 -0.0467  0.3412 -0.3928
  675MOL0     C93016  11.037   5.929   9.414  0.7872  0.7077 -0.3071
  675MOL0     C93017  10.930   5.833   9.400  0.7117  0.4444 -0.3277
  675MOL0     C93018  10.808   5.842   9.472 -0.0706 -0.0916 -0.0840
  675MOL0     C93019  10.789   5.961   9.543  0.4950 -0.4842  0.2545
  675MOL0     O93020  10.673   5.983   9.611 -0.0887 -0.0378 -0.6910
  675MOL0     C93021  10.673   5.907   9.732  0.1820  0.2739 -0.4295
  675MOL0     C93022  10.564   5.960   9.817 -0.0993  0.1527  0.1871
  675MOL0     C93023  10.433   5.941   9.744 -0.2565 -0.0798 -0.8622
  675MOL0     C93024  10.326   5.890   9.831 -0.6929  0.6939  1.2169
  675MOL0     C93025  10.202   5.838   9.754 -0.9528  0.2296 -0.4982
  675MOL0     C93026  10.080   5.801   9.839 -1.0704 -0.7664  0.0010
  675MOL0     C93027   9.955   5.767   9.764  0.4017 -0.8095 -0.5287
  675MOL0     C93028   9.927   5.839   9.627  0.3390 -0.1339  0.3031
  675MOL0     N93029   9.796   5.807   9.586 -0.9606 -0.3217  0.1037
  675MOL0     C93030   9.755   5.697   9.512  0.0960  0.0354  0.5837
  675MOL0     C93031   9.622   5.693   9.518 -0.4012  0.1108 -0.8565
  675MOL0     C93032   9.533   5.580   9.461 -0.5744  0.1886  0.3554
  675MOL0     C93033   9.605   5.501   9.350  0.3098  0.2508  0.2128
  675MOL0     C93034   9.522   5.381   9.286 -0.3195 -0.8877 -0.0876
  675MOL0     C93035   9.573   5.326   9.148 -0.2744 -0.2160 -0.1370
  675MOL0     O93036   9.704   5.284   9.150 -0.7509 -0.3982 -0.5854
  675MOL0     C93037   9.773   5.295   9.037 -0.9102  0.0331  0.3491
  675MOL0     C93038   9.903   5.345   9.025 -1.0249  0.3562 -0.5463
  675MOL0     C93039   9.979   5.338   8.904 -0.6955  0.4628 -0.4687
  675MOL0     C93040  10.122   5.396   8.921  0.3806  0.0207 -0.4587
  675MOL0     C93041   9.929   5.272   8.798  0.1684 -0.1636 -0.0382
  675MOL0     C93042   9.997   5.259   8.653 -0.4125  0.1562 -0.3477
  675MOL0     O93043   9.928   5.219   8.545 -0.4757  0.3074  0.4883
  675MOL0     C93044  10.000   5.158   8.444  0.4262 -0.7680 -0.0274
  675MOL0     C93045  10.009   5.016   8.449 -0.1218 -0.2311 -0.2948
  675MOL0     C93046  10.067   4.947   8.342 -0.4274  0.4543  0.0310
  675MOL0     C93047  10.131   5.016   8.230  0.4453  0.5674 -1.2121
  675MOL0     O93048  10.196   4.939   8.142 -0.1314  0.0992  0.5211
  675MOL0     C93049  10.280   5.009   8.042  0.4595 -0.1147  0.0203
  675MOL0     C93050  10.327   4.909   7.934  0.3212 -0.5694 -0.1584
  675MOL0     C93051  10.390   4.992   7.814 -0.2206 -0.4345 -0.0029
  675MOL0     C93052  10.502   4.914   7.744 -0.0360  0.8987  0.0574
  675MOL0     C93053  10.457   4.780   7.702  0.8971 -0.2258  0.2734
  675MOL0     C93054  10.332   4.789   7.607 -0.2223  0.4756 -0.8290
  675MOL0     C93055  10.346   4.875   7.474 -0.2332 -0.4450 -0.4640
  675MOL0     C93056  10.373   4.784   7.354  0.1573  0.6957  0.1177
  675MOL0    Cl93057  10.452   4.871   7.215  0.2440 -0.0132 -0.0897
  675MOL0     C93058  10.100   5.153   8.218  0.3632 -0.5108  0.3100
  675MOL0     C93059  10.037   5.229   8.324 -0.1968  0.3537 -0.2297
  675MOL0     O93060  10.111   5.296   8.648  0.3815  0.2447  0.0111
  675MOL0     C93061   9.791   5.221   8.811 -0.2097 -0.6180  0.3629
  675MOL0     C93062   9.724   5.235   8.926  0.1918  0.6239  0.7299
  675MOL0     N93063   9.578   5.798   9.603 -0.0109  0.6342  0.1647
  675MOL0     N93064   9.688   5.858   9.636  0.2790  0.1723  0.0719
  675MOL0     C93065  10.892   6.064   9.552 -0.1938  0.3422  0.7637
  675MOL0     C93066  11.018   6.042   9.494 -0.0894  0.7305 -0.3193
  675MOL0     C93067  11.380   5.933   9.319 -0.3092 -0.7171 -0.6460
  675MOL0     C93068  11.358   6.009   9.202 -0.3582 -0.4279 -0.2974
  675MOL0     C93069  11.461   6.049   9.122  0.3143  0.2124 -0.1336
  675MOL0     C93070  11.592   6.010   9.152 -0.3117 -0.4266  0.3719
  675MOL0     O93071  11.678   6.050   9.055 -0.1728  0.0079 -0.6944
  675MOL0     C93072  11.813   5.990   9.055  0.5772 -0.3488 -0.5654
  675MOL0     C93073  11.917   6.088   9.094  0.0908  0.7659  0.4182
  675MOL0     C93074  12.053   6.009   9.091  0.7394 -0.4179  0.2984
  675MOL0     C93075  12.147   6.035   8.970 -0.8591  0.3109 -0.5195
  675MOL0     C93076  12.094   5.965   8.847  0.0580  0.2436 -0.1375
  675MOL0     C93077  12.059   5.918   8.741 -0.0439  0.2199  0.3025
  675MOL0     C93078  11.621   5.943   9.272 -0.5335  1.6587 -0.2883
  675MOL0     C93079  11.519   5.911   9.360  0.6947 -0.2970  1.1470
  675MOL0     C93080  11.565   5.846   9.494 -0.6971  0.2077  0.3502
  675MOL0     H93081  10.946   5.747   9.337 -0.4353  1.2548 -1.7867
  675MOL0     H93082  10.726   5.771   9.470 -0.2722 -0.2897  4.3302
  675MOL0     H93083  10.770   5.921   9.781 -0.2411 -1.5092  1.0324
  675MOL0     H93084  10.667   5.798   9.721  1.2247  0.1905 -0.2813
  675MOL0     H93085  10.561   5.920   9.918 -1.3577  3.3724  1.5727
  675MOL0     H93086  10.568   6.067   9.840  0.7870 -0.0910  1.2013
  675MOL0     H93087  10.406   6.043   9.713 -1.3620  0.0875  0.5544
  675MOL0     H93088  10.433   5.888   9.649 -1.0554  3.4619 -3.0439
  675MOL0     H93089  10.368   5.810   9.893  1.7850  0.6322 -0.3628
  675MOL0     H93090  10.291   5.966   9.902 -3.2065  1.1923 -0.4379
  675MOL0     H93091  10.219   5.749   9.693 -1.1546  0.4480 -0.8783
  675MOL0     H93092  10.170   5.911   9.679  0.1697 -1.9555 -3.2798
  675MOL0     H93093  10.113   5.727   9.913 -2.0087  1.7130  3.1353
  675MOL0     H93094  10.064   5.894   9.895 -0.8875  0.5754 -2.0632
  675MOL0     H93095   9.872   5.791   9.831  2.9117  0.0086  2.5471
  675MOL0     H93096   9.954   5.658   9.751  0.5493 -0.4975 -4.1165
  675MOL0     H93097   9.944   5.942   9.661 -1.4538 -0.1682  1.4287
  675MOL0     H93098   9.997   5.817   9.546 -2.0914 -2.5242 -1.3293
  675MOL0     H93099   9.808   5.611   9.473 -0.2945 -1.1812  2.5766
  675MOL0     H93100   9.441   5.625   9.423 -0.2851  1.2905  0.9158
  675MOL0     H93101   9.513   5.503   9.535  1.8249 -0.6276  0.2368
  675MOL0     H93102   9.648   5.578   9.286 -1.7003  2.3793  1.2884
  675MOL0     H93103   9.693   5.459   9.400 -1.1268 -1.1577  1.7149
  675MOL0     H93104   9.520   5.309   9.368 -1.1388  0.6234  1.2630
  675MOL0     H93105   9.420   5.411   9.261 -0.3992 -0.4885  0.6810
  675MOL0     H93106   9.507   5.240   9.133 -1.3510  0.6481 -0.5259
  675MOL0     H93107   9.562   5.411   9.080 -1.5506  0.7349  1.1964
  675MOL0     H93108   9.946   5.396   9.111  0.2372 -0.1963 -0.8227
  675MOL0     H93109  10.144   5.479   8.853  0.4016  0.1115 -0.3414
  675MOL0     H93110  10.195   5.319   8.895  0.7135 -0.3229  1.3460
  675MOL0     H93111  10.144   5.416   9.026 -1.1028 -0.6090  0.0053
  675MOL0     H93112   9.982   4.960   8.538  0.1240 -1.8309 -1.2009
  675MOL0     H93113  10.086   4.840   8.333 -0.0858  0.1897  2.9394
  675MOL0     H93114  10.221   5.082   7.986 -1.1698 -1.8336 -0.6076
  675MOL0     H93115  10.365   5.056   8.093  0.7749 -1.0815  0.4164
  675MOL0     H93116  10.404   4.843   7.977 -0.4918 -1.3880  0.0784
  675MOL0     H93117  10.235   4.865   7.893 -1.8767  3.7903 -0.4195
  675MOL0     H93118  10.428   5.088   7.850 -0.3320  0.4419 -2.0753
  675MOL0     H93119  10.306   5.007   7.745 -1.0917  0.8267  1.2920
  675MOL0     H93120  10.583   4.919   7.817  0.9609 -0.0090 -0.9466
  675MOL0     H93121  10.549   4.956   7.654 -0.2670 -3.4737 -2.3816
  675MOL0     H93122  10.532   4.731   7.639  0.3581  1.8293 -2.1576
  675MOL0     H93123  10.435   4.712   7.784 -2.2699  2.5530  1.9657
  675MOL0     H93124  10.246   4.822   7.666 -1.1585 -1.3840 -1.0916
  675MOL0     H93125  10.309   4.686   7.577  1.2898 -0.7339  1.7322
  675MOL0     H93126  10.421   4.953   7.488 -0.2153 -0.4522 -0.5192
  675MOL0     H93127  10.247   4.921   7.465 -0.4897  0.6103  4.6311
  675MOL0     H93128  10.277   4.744   7.319  0.6539  0.0383 -0.5169
  675MOL0     H93129  10.428   4.695   7.386 -1.4818  0.8771  4.0019
  675MOL0     H93130  10.133   5.208   8.130 -0.3469 -0.6355 -0.0434
  675MOL0     H93131  10.015   5.335   8.314  0.7291  0.3476 -4.1934
  675MOL0     H93132   9.733   5.164   8.739 -2.4604 -0.0439  1.6080
  675MOL0     H93133   9.629   5.182   8.929  0.1771  0.6677  1.1132
  675MOL0     H93134  10.867   6.160   9.595 -0.1528  0.1464  1.2359
  675MOL0     H93135  11.098   6.115   9.504  0.3894  0.0635  1.1159
  675MOL0     H93136  11.257   6.035   9.173 -0.2101 -1.8869 -2.3602
  675MOL0     H93137  11.440   6.097   9.027 -1.1125 -0.8037 -0.3653
  675MOL0     H93138  11.816   5.909   9.128 -0.6897  2.0363  2.3334
  675MOL0     H93139  11.835   5.960   8.952  3.5415 -0.6847  0.0828
  675MOL0     H93140  11.896   6.128   9.193  1.5749 -1.5623  1.7800
  675MOL0     H93141  11.909   6.170   9.023 -2.3821 -0.4814 -0.8651
  675MOL0     H93142  12.104   6.059   9.173  0.1691 -0.4722  0.6942
  675MOL0     H93143  12.026   5.906   9.117 -2.8736  0.1123 -0.7468
  675MOL0     H93144  12.245   5.989   8.988  0.5938  3.4017  0.1801
  675MOL0     H93145  12.169   6.141   8.955  2.1301 -0.4046 -1.9979
  675MOL0     H93146  12.008   5.883   8.653 -0.8986  3.2266 -0.5301
  675MOL0     H93147  11.719   5.937   9.318 -0.8710  2.2641  0.5570
  675MOL0     H93148  11.499   5.768   9.533 -1.2965  1.5601  2.2052
  675MOL0     H93149  11.667   5.808   9.498 -0.8743 -0.4940 -1.2030
  675MOL0     H93150  11.552   5.932   9.561 -0.0169 -0.6295  1.6030
  676MOL0     O93151   3.979   4.470   0.252 -0.4490 -0.6091  0.1163
  676MOL0     C93152   3.963   4.568   0.174  0.5516  0.6947 -0.3698
  676MOL0     O93153   3.971   4.702   0.204 -0.4107  1.0192  0.6102
  676MOL0     C93154   3.970   4.735   0.334  0.1131 -0.3165 -0.1146
  676MOL0     C93155   3.846   4.746   0.403 -0.8076 -0.5551  0.1250
  676MOL0     C93156   3.836   4.777   0.545 -0.1768  0.7909 -0.0188
  676MOL0     C93157   3.955   4.804   0.616 -0.4808  0.1683 -0.4190
  676MOL0     O93158   3.971   4.856   0.744  0.0795  1.0437 -0.5855
  676MOL0     C93159   3.850   4.912   0.807  0.3609  0.3286 -0.4289
  676MOL0     C93160   3.885   4.992   0.944 -0.8317 -0.1019  0.3662
  676MOL0     C93161   3.946   5.126   0.923 -0.0554 -0.1826 -1.1433
  676MOL0     C93162   3.840   5.238   0.906  0.3601  0.6525 -1.0679
  676MOL0     C93163   3.910   5.371   0.901 -0.0010  0.2892 -0.7522
  676MOL0     C93164   3.969   5.433   1.029 -0.1665  0.4753 -1.1705
  676MOL0     C93165   3.880   5.411   1.153  0.5734 -0.4367 -0.3198
  676MOL0     C93166   3.955   5.374   1.286 -0.7462  1.4521 -0.0852
  676MOL0     N93167   4.040   5.481   1.343 -0.6277 -0.1772  0.4020
  676MOL0     C93168   4.020   5.558   1.458 -0.2489 -0.1460  0.9352
  676MOL0     C93169   4.111   5.660   1.445  0.1859 -0.2326  0.7881
  676MOL0     C93170   4.109   5.783   1.535  0.0737  0.2362  0.7667
  676MOL0     C93171   3.963   5.808   1.566  0.2023 -0.0642  0.0067
  676MOL0     C93172   3.953   5.956   1.586  0.3569 -0.7545 -0.0361
  676MOL0     C93173   3.818   6.002   1.644 -0.3081 -0.4874 -0.8672
  676MOL0     O93174   3.831   6.134   1.693 -0.0572 -0.0910  0.0002
  676MOL0     C93175   3.722   6.189   1.760 -0.1554  0.1008  0.3272
  676MOL0     C93176   3.603   6.118   1.795 -0.3412  0.1269 -0.3315
  676MOL0     C93177   3.491   6.190   1.846 -0.4035  0.0171  0.2502
  676MOL0     C93178   3.364   6.113   1.829  0.1575  0.4373  0.0924
  676MOL0     C93179   3.511   6.329   1.888  1.0943  0.3998  0.4632
  676MOL0     C93180   3.401   6.414   1.944 -1.1302  0.2438  0.1173
  676MOL0     O93181   3.445   6.528   2.001  0.5244  0.0207  0.1084
  676MOL0     C93182   3.368   6.623   2.072 -0.0395  0.9098 -0.0373
  676MOL0     C93183   3.443   6.723   2.134 -0.0597 -1.0436 -0.0398
  676MOL0     C93184   3.385   6.836   2.183  0.4015 -0.3093  0.9263
  676MOL0     C93185   3.247   6.850   2.192 -0.1932 -0.2521  0.5205
  676MOL0     O93186   3.169   6.957   2.233 -0.0406  0.2516  0.5161
  676MOL0     C93187   3.225   7.051   2.327  0.8174 -0.6579  1.1330
  676MOL0     C93188   3.281   6.986   2.452 -0.5169 -0.0740  0.6651
  676MOL0     C93189   3.331   7.092   2.553 -0.3376 -1.1129 -0.0713
  676MOL0     C93190   3.433   7.037   2.665 -0.1617  1.4678 -0.3521
  676MOL0     C93191   3.374   6.910   2.733 -0.0761  0.0785  0.0245
  676MOL0     C93192   3.244   6.936   2.807  1.1260  0.1749  0.8516
  676MOL0     C93193   3.210   6.830   2.911 -0.2838 -0.6570  0.4353
  676MOL0     C93194   3.178   6.699   2.847  0.4140  0.0344  0.6713
  676MOL0    Cl93195   3.173   6.585   2.974 -0.3299 -0.0943 -0.3442
  676MOL0     C93196   3.171   6.744   2.144  0.1817 -0.7616  0.2690
  676MOL0     C93197   3.227   6.631   2.085 -0.4989 -0.8772  1.1651
  676MOL0     O93198   3.287   6.382   1.937 -0.5691  0.1451 -0.0069
  676MOL0     C93199   3.644   6.374   1.885  0.9169 -0.4304  1.5187
  676MOL0     C93200   3.742   6.316   1.804 -0.1157  0.3557 -0.4011
  676MOL0     N93201   4.183   5.635   1.325  0.3498 -0.1152 -0.5707
  676MOL0     N93202   4.130   5.537   1.258  0.1064  0.3511  0.7124
  676MOL0     C93203   4.082   4.797   0.543 -0.1801  0.5041  0.7685
  676MOL0     C93204   4.086   4.762   0.411 -0.2868  0.7944 -0.3486
  676MOL0     C93205   3.936   4.528   0.031 -0.8364 -0.7815  0.0389
  676MOL0     C93206   3.996   4.610  -0.062 -0.1776 -0.3514  0.5156
  676MOL0     C93207   3.993   4.580  -0.195 -0.7153 -1.1064  0.2991
  676MOL0     C93208   3.918   4.472  -0.245 -0.5563  0.0242  0.6855
  676MOL0     O93209   3.902   4.432  -0.377  0.7320 -0.4073 -0.0633
  676MOL0     C93210   3.917   4.545  -0.469  0.5577  0.6537 -0.7798
  676MOL0     C93211   3.920   4.502  -0.614  0.2872  0.4313  0.4297
  676MOL0     C93212   4.065   4.459  -0.642 -0.1416  0.3498  1.4142
  676MOL0     C93213   4.081   4.437  -0.798 -0.3245  0.7960 -0.7304
  676MOL0     C93214   4.054   4.555  -0.878  0.2889 -1.1661  0.1239
  676MOL0     C93215   4.055   4.662  -0.943  0.2203  0.0088  0.1932
  676MOL0     C93216   3.857   4.390  -0.152 -0.3886 -0.1027 -0.1002
  676MOL0     C93217   3.858   4.415  -0.017 -0.0784 -0.2600 -0.6114
  676MOL0     C93218   3.773   4.345   0.082  0.5877  0.1507 -0.6592
  676MOL0     H93219   3.760   4.722   0.341 -2.0771 -2.6347  2.4972
  676MOL0     H93220   3.743   4.793   0.599 -1.0242  2.4619 -1.8644
  676MOL0     H93221   3.791   4.825   0.838 -2.2645  2.8356  2.2824
  676MOL0     H93222   3.782   4.956   0.734 -1.0228  1.9129  1.7038
  676MOL0     H93223   3.788   4.998   0.995  0.4095  2.1613  2.7512
  676MOL0     H93224   3.960   4.936   1.000  2.5477  0.9083 -2.8026
  676MOL0     H93225   4.008   5.151   1.010 -1.2502 -1.2258  0.0587
  676MOL0     H93226   4.020   5.123   0.843  3.3631 -0.3386  1.7803
  676MOL0     H93227   3.787   5.215   0.813 -0.6224  1.8469 -0.8344
  676MOL0     H93228   3.765   5.219   0.982  0.3967  0.5859 -1.0485
  676MOL0     H93229   3.829   5.442   0.881 -0.9403 -0.4017  0.4536
  676MOL0     H93230   3.985   5.370   0.822  0.9303  0.8415  0.0996
  676MOL0     H93231   4.068   5.388   1.040 -0.2077  0.4208 -1.0204
  676MOL0     H93232   3.983   5.537   0.999  4.5406  0.0351 -1.1898
  676MOL0     H93233   3.814   5.325   1.133  2.3980 -1.3042 -3.1905
  676MOL0     H93234   3.810   5.492   1.175  0.2897 -0.6339 -0.4761
  676MOL0     H93235   3.885   5.338   1.362 -0.9634  3.2907  0.6171
  676MOL0     H93236   4.025   5.290   1.275 -0.2179  1.4036  2.8274
  676MOL0     H93237   3.954   5.547   1.544 -0.3146  2.4398  1.2765
  676MOL0     H93238   4.144   5.865   1.472 -2.4079 -0.4892 -1.7661
  676MOL0     H93239   4.171   5.763   1.623 -0.4255 -0.1395  1.0479
  676MOL0     H93240   3.894   5.783   1.484 -2.7333  1.4132  1.8714
  676MOL0     H93241   3.939   5.746   1.652  0.3848 -0.6868 -0.3803
  676MOL0     H93242   4.031   5.985   1.657 -1.7544 -0.8449  2.4775
  676MOL0     H93243   3.977   6.003   1.490  0.8790 -3.2615 -1.2173
  676MOL0     H93244   3.732   5.988   1.578 -1.0413 -0.7463  0.1332
  676MOL0     H93245   3.794   5.944   1.733  3.4289 -1.3053 -0.2054
  676MOL0     H93246   3.593   6.014   1.764  4.2926 -0.6949  0.0580
  676MOL0     H93247   3.379   6.010   1.796  1.3708  0.5150  0.3462
  676MOL0     H93248   3.300   6.162   1.756 -0.7788  0.6920  1.0492
  676MOL0     H93249   3.307   6.115   1.923 -1.1557  1.4211 -0.6954
  676MOL0     H93250   3.550   6.706   2.119 -0.2488 -0.6900 -2.0653
  676MOL0     H93251   3.459   6.910   2.213  0.9263  0.6345 -2.3446
  676MOL0     H93252   3.290   7.125   2.279 -0.2466 -0.2095  0.3377
  676MOL0     H93253   3.139   7.111   2.358  1.3976  0.1071  1.2978
  676MOL0     H93254   3.200   6.923   2.490 -2.5018  0.3100 -2.5548
  676MOL0     H93255   3.367   6.926   2.422  0.4225  1.9480 -0.9654
  676MOL0     H93256   3.248   7.130   2.614  0.4685  3.3453 -1.3500
  676MOL0     H93257   3.376   7.172   2.494  1.2431 -2.6691 -1.0562
  676MOL0     H93258   3.470   7.110   2.737  1.3781  1.5279 -1.1832
  676MOL0     H93259   3.526   7.004   2.618 -0.9832 -1.3784 -0.2100
  676MOL0     H93260   3.364   6.820   2.671  1.6279 -0.8835  1.0712
  676MOL0     H93261   3.443   6.888   2.815 -1.7559  1.8549  2.0265
  676MOL0     H93262   3.163   6.921   2.734  0.7023  0.0369  1.3460
  676MOL0     H93263   3.236   7.035   2.853  2.4276  0.6872  0.0452
  676MOL0     H93264   3.121   6.856   2.969 -0.1411  1.6040 -0.2794
  676MOL0     H93265   3.294   6.815   2.980  0.2773  0.7637  0.0970
  676MOL0     H93266   3.259   6.659   2.785  2.0873  1.5998  1.7325
  676MOL0     H93267   3.081   6.709   2.799 -0.9423 -1.9164  2.7856
  676MOL0     H93268   3.062   6.748   2.146  0.1647  1.0319 -1.5071
  676MOL0     H93269   3.161   6.560   2.035  2.3806 -1.0780 -2.9019
  676MOL0     H93270   3.656   6.479   1.908 -1.2731  0.0883  0.4965
  676MOL0     H93271   3.831   6.372   1.778  2.4838 -2.8004  0.9363
  676MOL0     H93272   4.185   4.814   0.573  0.3231 -1.8312  0.5359
  676MOL0     H93273   4.182   4.734   0.369 -0.6096  0.1457 -0.6766
  676MOL0     H93274   4.076   4.673  -0.026  2.2224 -2.1745 -1.2194
  676MOL0     H93275   4.047   4.648  -0.260 -0.7428 -1.9469 -0.6172
  676MOL0     H93276   3.820   4.593  -0.458 -1.0138 -2.2289 -0.8867
  676MOL0     H93277   3.986   4.625  -0.442 -2.0781  2.0500  2.6154
  676MOL0     H93278   3.889   4.584  -0.678  0.5875 -1.1342 -1.8473
  676MOL0     H93279   3.851   4.418  -0.620  0.9120 -0.0034 -1.4742
  676MOL0     H93280   4.138   4.536  -0.615  3.2035 -2.1116  0.0369
  676MOL0     H93281   4.089   4.370  -0.583 -1.6060 -0.3866  0.9619
  676MOL0     H93282   4.021   4.348  -0.819  1.8263 -1.3823  1.6881
  676MOL0     H93283   4.187   4.411  -0.807 -0.9268 -1.5878 -1.7367
  676MOL0     H93284   4.073   4.752  -0.998 -2.1310  1.9987  2.4227
  676MOL0     H93285   3.781   4.323  -0.191  0.2880  0.6772 -2.9082
  676MOL0     H93286   3.683   4.301   0.038 -1.9631  3.0985  1.1561
  676MOL0     H93287   3.834   4.267   0.128 -3.9257 -3.7682 -0.6543
  676MOL0     H93288   3.751   4.415   0.163 -1.0423 -1.4934  0.3815
  677MOL0     O93289   8.275   4.815   4.441 -0.4313  0.3258  0.4585
  677MOL0     C93290   8.323   4.905   4.513 -0.7461  0.1014 -0.0218
  677MOL0     O93291   8.424   4.995   4.469  0.2943 -0.1895  0.3521
  677MOL0     C93292   8.489   4.962   4.345 -0.3258 -0.0855 -0.5041
  677MOL0     C93293   8.582   4.852   4.326 -0.2135 -0.0171 -0.1499
  677MOL0     C93294   8.645   4.845   4.200 -0.1313 -0.4705 -0.1909
  677MOL0     C93295   8.609   4.925   4.090  0.5236  0.1887 -0.0255
  677MOL0     O93296   8.667   4.902   3.972 -0.0453 -0.1543 -0.0369
  677MOL0     C93297   8.692   5.015   3.890  1.0292  0.7321 -0.4906
  677MOL0     C93298   8.779   4.998   3.765 -0.8127 -0.1974  0.3107
  677MOL0     C93299   8.714   4.924   3.640  0.2210  0.4602  0.1679
  677MOL0     C93300   8.810   4.935   3.527 -0.8695  0.1753  0.5706
  677MOL0     C93301   8.945   4.855   3.538  0.8518  0.4655  0.3867
  677MOL0     C93302   9.021   4.854   3.404 -0.3047  0.8122  1.0012
  677MOL0     C93303   9.132   4.747   3.432 -0.8844 -0.4396 -0.2193
  677MOL0     C93304   9.228   4.726   3.312 -0.2610  1.1119 -0.1328
  677MOL0     N93305   9.312   4.849   3.289 -0.4955 -0.6309  0.5435
  677MOL0     C93306   9.309   4.916   3.168 -0.1151  0.1635  0.1138
  677MOL0     C93307   9.414   4.997   3.171  0.0175  1.1308  0.0400
  677MOL0     C93308   9.449   5.081   3.056  0.2380 -0.2279  0.5541
  677MOL0     C93309   9.502   5.226   3.093  0.2498 -1.1429  0.1157
  677MOL0     C93310   9.398   5.319   3.148 -0.5102  0.3315  0.4931
  677MOL0     C93311   9.340   5.275   3.284 -0.0321 -0.6674 -0.7396
  677MOL0     O93312   9.256   5.372   3.328 -0.2908 -0.2890 -0.0152
  677MOL0     C93313   9.179   5.349   3.442  0.0634 -0.6828 -0.0855
  677MOL0     C93314   9.197   5.255   3.545 -0.1504  0.5977 -0.0640
  677MOL0     C93315   9.107   5.241   3.661  0.5783  0.6324  0.0465
  677MOL0     C93316   9.147   5.127   3.750  0.2400  0.1718 -0.4363
  677MOL0     C93317   9.017   5.345   3.681  0.5422  0.0278  0.6666
  677MOL0     C93318   8.928   5.362   3.795  0.4450 -0.4879 -0.3846
  677MOL0     O93319   8.851   5.474   3.793 -0.5009 -0.1401 -0.1302
  677MOL0     C93320   8.855   5.568   3.897  0.4108  0.0567 -0.2400
  677MOL0     C93321   8.741   5.645   3.905  0.2443 -0.5430 -0.9758
  677MOL0     C93322   8.732   5.733   4.018 -0.1887 -0.1612  1.2432
  677MOL0     C93323   8.838   5.754   4.103 -0.6991  0.6639 -0.6231
  677MOL0     O93324   8.823   5.847   4.211 -0.1506  1.1346  0.5011
  677MOL0     C93325   8.943   5.858   4.283  0.0469 -0.4740 -0.4100
  677MOL0     C93326   8.936   5.975   4.382  0.3601  1.1923  0.5506
  677MOL0     C93327   9.034   5.974   4.498 -2.1050  0.8462 -0.1932
  677MOL0     C93328   9.064   6.116   4.547 -0.6152  0.2384 -0.4991
  677MOL0     C93329   9.173   6.128   4.661 -0.3805 -0.0671 -0.5030
  677MOL0     C93330   9.310   6.052   4.645  1.0471 -1.3740  0.5337
  677MOL0     C93331   9.379   6.084   4.503 -0.1094  0.0898 -0.5414
  677MOL0     C93332   9.452   6.216   4.538 -0.4134  0.1451  0.6896
  677MOL0    Cl93333   9.507   6.288   4.386  0.1562 -0.0897  0.3125
  677MOL0     C93334   8.947   5.668   4.090 -0.4621  0.8725 -0.2315
  677MOL0     C93335   8.959   5.574   3.983 -0.8841 -0.6787 -0.6587
  677MOL0     O93336   8.932   5.292   3.895 -0.5666  0.4255  0.0520
  677MOL0     C93337   9.001   5.435   3.572 -0.7267  0.0146  0.2929
  677MOL0     C93338   9.079   5.444   3.456  0.4292 -0.0648  0.7655
  677MOL0     N93339   9.478   4.981   3.292 -0.8749 -0.0144 -0.3222
  677MOL0     N93340   9.407   4.904   3.366  0.0992 -0.0579  0.0975
  677MOL0     C93341   8.511   5.025   4.111  0.0056  0.6220  0.3287
  677MOL0     C93342   8.460   5.047   4.240  0.0409  1.4727 -0.6692
  677MOL0     C93343   8.274   4.906   4.654  0.4960  0.4694 -0.4608
  677MOL0     C93344   8.245   4.779   4.709 -0.0034  0.3439 -0.3162
  677MOL0     C93345   8.196   4.775   4.839 -0.2642 -0.2917 -0.6245
  677MOL0     C93346   8.183   4.884   4.921  0.2679 -0.2933  0.1935
  677MOL0     O93347   8.113   4.861   5.041  0.6901  0.1437  0.5334
  677MOL0     C93348   8.007   4.949   5.077  0.0725 -0.4647  0.0513
  677MOL0     C93349   7.889   4.965   4.973 -0.3913  0.5108 -0.0518
  677MOL0     C93350   7.811   4.835   4.940 -0.0742  0.0200 -0.4966
  677MOL0     C93351   7.707   4.866   4.827  0.3258  0.2828  0.6741
  677MOL0     C93352   7.669   4.750   4.746 -0.4888 -0.1424 -0.1314
  677MOL0     C93353   7.653   4.648   4.680 -0.6958  0.1573 -0.4879
  677MOL0     C93354   8.208   5.013   4.864 -0.1075 -0.3016 -0.4558
  677MOL0     C93355   8.260   5.017   4.735 -0.1159 -0.5581  0.0763
  677MOL0     C93356   8.290   5.152   4.669 -0.6190  0.1034  0.4829
  677MOL0     H93357   8.604   4.778   4.402  2.3283  1.9649  1.2101
  677MOL0     H93358   8.714   4.764   4.179  3.1432  2.6245 -2.7157
  677MOL0     H93359   8.747   5.078   3.961  0.9269 -1.7960  2.0116
  677MOL0     H93360   8.598   5.063   3.861  1.0914  0.5354 -1.0122
  677MOL0     H93361   8.810   5.099   3.736 -2.1175 -0.1502 -1.0899
  677MOL0     H93362   8.870   4.946   3.795 -1.4750 -0.7410  1.4023
  677MOL0     H93363   8.702   4.816   3.649  2.2914  0.0956 -0.7815
  677MOL0     H93364   8.619   4.971   3.617  0.2604 -0.0549 -1.0954
  677MOL0     H93365   8.766   4.885   3.440 -2.5329 -1.1536  2.0826
  677MOL0     H93366   8.824   5.038   3.494 -3.8433 -0.6670 -4.3872
  677MOL0     H93367   8.914   4.758   3.578 -3.9376  0.5193 -2.3629
  677MOL0     H93368   8.999   4.918   3.609  0.7022  2.9628 -1.5611
  677MOL0     H93369   8.958   4.825   3.319 -0.6477 -0.4074  1.6594
  677MOL0     H93370   9.070   4.951   3.392  0.6684  0.3003  0.7220
  677MOL0     H93371   9.079   4.653   3.452 -2.1378  0.4430  0.8156
  677MOL0     H93372   9.178   4.779   3.526  1.4656 -1.6440 -0.8857
  677MOL0     H93373   9.290   4.636   3.311  0.9193  1.8890  0.7579
  677MOL0     H93374   9.160   4.705   3.229  0.2759  0.3110 -0.3832
  677MOL0     H93375   9.236   4.909   3.088  0.5803  1.0122 -0.6082
  677MOL0     H93376   9.363   5.081   2.988 -1.2240  2.4801  2.2400
  677MOL0     H93377   9.534   5.031   3.010  1.6283 -0.1856  2.9359
  677MOL0     H93378   9.598   5.218   3.144 -0.1497  0.2266  1.1399
  677MOL0     H93379   9.526   5.276   2.998 -0.9948  1.1878  0.9508
  677MOL0     H93380   9.437   5.420   3.163 -0.3245 -0.1253  3.8025
  677MOL0     H93381   9.313   5.323   3.079  2.5279  0.2298 -3.6034
  677MOL0     H93382   9.271   5.191   3.268  1.0386 -1.1993 -2.8887
  677MOL0     H93383   9.412   5.248   3.361  2.1688 -0.9537 -2.8037
  677MOL0     H93384   9.285   5.193   3.552  1.7695  3.3309  3.1502
  677MOL0     H93385   9.168   5.039   3.689 -3.4602 -0.7365 -0.6363
  677MOL0     H93386   9.072   5.095   3.823  0.1173  0.9026 -0.2323
  677MOL0     H93387   9.234   5.148   3.812 -0.8982 -1.3674  1.7984
  677MOL0     H93388   8.655   5.639   3.838 -2.7918 -2.9405  2.7366
  677MOL0     H93389   8.642   5.793   4.025 -1.5650 -1.8144 -0.8455
  677MOL0     H93390   8.965   5.767   4.340  0.6711  0.7013  1.2874
  677MOL0     H93391   9.025   5.871   4.212 -0.6147 -1.4568 -1.4033
  677MOL0     H93392   8.949   6.060   4.314 -1.5187 -0.3081 -1.8440
  677MOL0     H93393   8.835   5.980   4.422  0.1077 -1.2365  0.3768
  677MOL0     H93394   9.127   5.927   4.466  0.1324  4.0792  1.1034
  677MOL0     H93395   8.994   5.908   4.576  0.5006 -2.8104 -1.6937
  677MOL0     H93396   8.977   6.167   4.591 -0.4168  0.4575 -0.3592
  677MOL0     H93397   9.097   6.176   4.462  2.5601 -0.2393  0.2632
  677MOL0     H93398   9.210   6.230   4.652 -1.3393  0.5035  1.4526
  677MOL0     H93399   9.120   6.105   4.754  1.1889 -1.8116  0.0341
  677MOL0     H93400   9.290   5.945   4.647  2.9298 -2.1158 -4.7699
  677MOL0     H93401   9.376   6.072   4.730  0.6478  0.5906  0.4326
  677MOL0     H93402   9.313   6.092   4.416 -0.0241  0.9744 -0.5276
  677MOL0     H93403   9.456   6.010   4.481  1.9855  2.1403 -0.4974
  677MOL0     H93404   9.534   6.208   4.610  2.1707  0.3254 -2.0335
  677MOL0     H93405   9.382   6.289   4.579 -1.2957  0.0995 -0.6723
  677MOL0     H93406   9.033   5.662   4.156 -1.0627 -0.8318  0.4562
  677MOL0     H93407   9.049   5.513   3.979  0.0823  0.6825 -0.3595
  677MOL0     H93408   8.923   5.509   3.585 -2.1713 -1.7678  2.6640
  677MOL0     H93409   9.064   5.513   3.374 -3.3646 -0.5866  0.8627
  677MOL0     H93410   8.481   5.093   4.032  1.1838 -0.4571 -1.1103
  677MOL0     H93411   8.411   5.143   4.253  0.9049  1.8874 -0.4416
  677MOL0     H93412   8.251   4.689   4.650 -2.7531 -0.5398  0.6159
  677MOL0     H93413   8.153   4.683   4.876 -0.3945 -0.9015 -2.2109
  677MOL0     H93414   7.961   4.902   5.164 -1.4908 -0.4501 -0.7282
  677MOL0     H93415   8.045   5.050   5.095  0.1436 -0.6097  0.7369
  677MOL0     H93416   7.930   5.009   4.881  1.4707 -1.0273 -0.0196
  677MOL0     H93417   7.817   5.038   5.011  0.3508  1.1546  0.1719
  677MOL0     H93418   7.879   4.764   4.892 -0.6798  1.3020 -3.4830
  677MOL0     H93419   7.761   4.778   5.019 -0.6226  0.3121 -0.6324
  677MOL0     H93420   7.747   4.941   4.758 -1.8373  0.8074 -0.0713
  677MOL0     H93421   7.618   4.911   4.872 -1.1588 -0.5337 -1.2937
  677MOL0     H93422   7.630   4.555   4.632 -5.7381  3.2795 -5.4717
  677MOL0     H93423   8.188   5.106   4.916  1.5652  0.1358 -0.5278
  677MOL0     H93424   8.228   5.234   4.706  0.8076  0.0215  3.3747
  677MOL0     H93425   8.392   5.188   4.690 -1.8165  3.5900  1.0991
  677MOL0     H93426   8.284   5.149   4.560  1.4301  0.9275  0.3062
  678MOL0     O93427   0.904  10.890   0.664  0.5359 -0.3081 -0.1225
  678MOL0     C93428   0.958  10.800   0.597 -0.7004  0.0324  1.2913
  678MOL0     O93429   1.079  10.813   0.528 -0.1182 -0.2548 -0.1898
  678MOL0     C93430   1.104  10.943   0.489  0.9132  0.2549  0.0485
  678MOL0     C93431   1.007  11.019   0.412 -0.1448 -0.4081  1.4865
  678MOL0     C93432   1.042  11.144   0.354  0.1985  0.0031 -0.4427
  678MOL0     C93433   1.166  11.205   0.391  0.8509 -0.2361 -0.3966
  678MOL0     O93434   1.171  11.340   0.374  0.2621 -0.3008 -0.7007
  678MOL0     C93435   1.273  11.411   0.444 -0.3690  0.0787  0.3126
  678MOL0     C93436   1.271  11.547   0.377 -0.5625 -0.0938  0.2387
  678MOL0     C93437   1.397  11.636   0.403 -0.6060  0.5474  0.0122
  678MOL0     C93438   1.374  11.776   0.349 -0.0943 -0.8983 -0.7222
  678MOL0     C93439   1.487  11.872   0.388 -0.6846 -0.4589  0.7220
  678MOL0     C93440   1.620  11.845   0.310  1.2562 -0.0748 -0.7211
  678MOL0     C93441   1.724  11.953   0.330 -0.1977 -0.0678 -0.3666
  678MOL0     C93442   1.840  11.924   0.237  0.3429  0.2758  0.1805
  678MOL0     N93443   1.913  12.050   0.227 -0.2824 -0.3713 -0.9184
  678MOL0     C93444   1.994  12.109   0.320  0.5665  0.5148 -0.0943
  678MOL0     C93445   2.039  12.219   0.251 -0.0986 -0.2609 -0.9786
  678MOL0     C93446   2.142  12.320   0.305 -0.2831  0.1312  1.1870
  678MOL0     C93447   2.161  12.454   0.227  1.0122 -0.6942  0.6201
  678MOL0     C93448   2.239  12.566   0.293  0.1787  0.0464 -0.8150
  678MOL0     C93449   2.184  12.636   0.421  0.2869  0.7765 -0.2996
  678MOL0     O93450   2.196  12.535   0.526 -0.4230 -0.4956  0.0264
  678MOL0     C93451   2.110  12.532   0.640 -0.0395 -0.1090 -0.3746
  678MOL0     C93452   1.986  12.598   0.638 -0.8219  0.7552 -0.4060
  678MOL0     C93453   1.902  12.599   0.749 -0.3705  0.1724 -0.1712
  678MOL0     C93454   1.791  12.694   0.741  0.4170  0.0288  0.5007
  678MOL0     C93455   1.937  12.524   0.863  0.1279 -0.2046 -0.3840
  678MOL0     C93456   1.857  12.520   0.997 -0.0463 -0.2373  0.9841
  678MOL0     O93457   1.715  12.524   0.988  0.0115 -0.8901  0.0240
  678MOL0     C93458   1.650  12.500   1.105  0.1464  0.0612  0.2244
  678MOL0     C93459   1.647  12.584   1.221 -0.6560  0.2221 -0.2915
  678MOL0     C93460   1.562  12.550   1.326  0.4278  0.0915  0.3864
  678MOL0     C93461   1.498  12.425   1.327  0.4017 -0.3072 -0.5030
  678MOL0     O93462   1.434  12.390   1.448 -0.7255  0.6420  0.5626
  678MOL0     C93463   1.323  12.297   1.430  0.5138  0.4113 -0.8269
  678MOL0     C93464   1.254  12.253   1.562 -0.5099 -0.4894 -0.7314
  678MOL0     C93465   1.315  12.128   1.632  0.7094  0.0343  0.4673
  678MOL0     C93466   1.202  12.039   1.681  0.3093 -0.1594  0.0546
  678MOL0     C93467   1.233  11.913   1.768 -0.0413  0.8269 -0.1217
  678MOL0     C93468   1.239  11.938   1.921  0.4500 -0.3314 -0.4562
  678MOL0     C93469   1.376  12.001   1.964 -0.2367 -0.3712 -0.8741
  678MOL0     C93470   1.431  11.949   2.102 -0.5257 -0.8483  0.2353
  678MOL0    Cl93471   1.422  11.774   2.121 -0.0107 -0.1262  0.0288
  678MOL0     C93472   1.498  12.348   1.216 -0.0428  1.0011  0.1369
  678MOL0     C93473   1.577  12.382   1.108  0.6097  0.1026  0.0138
  678MOL0     O93474   1.924  12.510   1.099  0.2691 -0.5854 -0.1018
  678MOL0     C93475   2.068  12.455   0.861 -0.1669 -1.2141 -0.1071
  678MOL0     C93476   2.150  12.465   0.751  0.1916  0.3828  0.2196
  678MOL0     N93477   1.988  12.230   0.121 -0.1040 -0.0428  0.6804
  678MOL0     N93478   1.927  12.118   0.113  0.0906  0.2533 -0.2353
  678MOL0     C93479   1.254  11.134   0.464 -1.7204 -0.2903  0.4010
  678MOL0     C93480   1.228  11.003   0.509  0.3263 -0.4862 -0.3298
  678MOL0     C93481   0.879  10.675   0.574  0.3327 -0.4535  0.5806
  678MOL0     C93482   0.735  10.690   0.580 -0.2317 -0.4800  0.1576
  678MOL0     C93483   0.652  10.580   0.571 -0.9427  0.6515  0.2819
  678MOL0     C93484   0.699  10.452   0.554 -0.5648  0.2843 -0.4568
  678MOL0     O93485   0.630  10.338   0.574  0.0063 -0.3913 -0.5148
  678MOL0     C93486   0.485  10.347   0.597 -0.0983  0.5861  0.2342
  678MOL0     C93487   0.411  10.210   0.621 -0.1742 -0.4880  0.0611
  678MOL0     C93488   0.485  10.109   0.701 -1.2819  0.2971  0.1578
  678MOL0     C93489   0.417   9.985   0.736  0.6000 -0.2778 -0.6945
  678MOL0     C93490   0.275   9.996   0.777 -0.2021 -0.0306 -0.6084
  678MOL0     C93491   0.157   9.997   0.810 -0.3456  1.3706  0.6391
  678MOL0     C93492   0.838  10.436   0.542 -0.4727 -0.0297  0.2802
  678MOL0     C93493   0.924  10.543   0.548 -1.3602 -0.3911 -0.0718
  678MOL0     C93494   1.074  10.525   0.503 -0.6021 -0.6355  0.3898
  678MOL0     H93495   0.910  10.974   0.392  0.5138 -1.0311 -0.6168
  678MOL0     H93496   0.962  11.207   0.316  1.7406  2.0264 -0.4818
  678MOL0     H93497   1.373  11.371   0.427 -0.3944 -0.3855  1.1954
  678MOL0     H93498   1.250  11.431   0.549  2.0936  1.8504  0.5898
  678MOL0     H93499   1.261  11.544   0.268  0.0269 -1.9134  0.2150
  678MOL0     H93500   1.191  11.606   0.423 -0.0743 -0.4836  1.6203
  678MOL0     H93501   1.418  11.639   0.511  1.4187 -0.8906 -0.2897
  678MOL0     H93502   1.476  11.585   0.348  2.8056  0.9523  4.0268
  678MOL0     H93503   1.353  11.793   0.243 -1.6006  2.6133 -0.0074
  678MOL0     H93504   1.283  11.817   0.394 -0.8804 -2.9579 -0.2947
  678MOL0     H93505   1.500  11.865   0.497 -0.4161 -1.8614  0.6201
  678MOL0     H93506   1.472  11.979   0.372 -0.1995 -0.7582 -2.2444
  678MOL0     H93507   1.658  11.746   0.335  1.4683 -0.2179 -1.5846
  678MOL0     H93508   1.573  11.838   0.212 -3.4897  0.3610  1.2139
  678MOL0     H93509   1.744  11.935   0.436 -4.7615 -1.5708  0.4761
  678MOL0     H93510   1.691  12.056   0.317 -0.2238  0.1202  0.9989
  678MOL0     H93511   1.905  11.847   0.279  0.3345 -0.4761 -1.1093
  678MOL0     H93512   1.808  11.880   0.142  0.1883  0.7650 -0.0001
  678MOL0     H93513   2.034  12.073   0.414 -0.1190  0.1790  0.0761
  678MOL0     H93514   2.237  12.267   0.300 -0.7903 -0.8097  1.1919
  678MOL0     H93515   2.119  12.328   0.412 -2.2689 -0.8489  0.8892
  678MOL0     H93516   2.219  12.419   0.142 -0.4984 -1.5998 -0.0675
  678MOL0     H93517   2.072  12.503   0.187  2.0140  0.3918 -0.3516
  678MOL0     H93518   2.333  12.521   0.326  0.9747  2.3467  0.2015
  678MOL0     H93519   2.275  12.636   0.218 -1.3436  2.7681  0.8333
  678MOL0     H93520   2.242  12.723   0.453  1.3028  0.6410 -1.6735
  678MOL0     H93521   2.088  12.678   0.390  0.7424  1.5494 -0.6783
  678MOL0     H93522   1.961  12.662   0.554 -0.4732  0.0709 -1.0468
  678MOL0     H93523   1.691  12.656   0.766  0.4079  0.9995  2.0155
  678MOL0     H93524   1.771  12.745   0.646 -2.4416  3.5155  2.6721
  678MOL0     H93525   1.812  12.775   0.811 -1.6823  1.9685 -0.9590
  678MOL0     H93526   1.712  12.672   1.225 -1.2284  0.6453 -0.2163
  678MOL0     H93527   1.556  12.603   1.421  2.4065 -1.3053  1.3662
  678MOL0     H93528   1.241  12.342   1.373 -2.0494 -1.8295  0.8340
  678MOL0     H93529   1.346  12.210   1.369  1.6679 -0.1148  0.3273
  678MOL0     H93530   1.272  12.331   1.636 -0.5613 -0.8718 -0.3096
  678MOL0     H93531   1.147  12.240   1.546 -1.6060  3.4985  1.9585
  678MOL0     H93532   1.381  12.151   1.716  1.2826 -0.7746  0.2523
  678MOL0     H93533   1.371  12.072   1.556  1.3549  1.0714  0.1484
  678MOL0     H93534   1.140  11.991   1.604 -3.5076 -1.3709  3.4912
  678MOL0     H93535   1.132  12.104   1.734 -2.0109 -1.8811 -0.7206
  678MOL0     H93536   1.144  11.852   1.749 -0.0634  1.1821 -1.2548
  678MOL0     H93537   1.320  11.856   1.735 -0.3754  0.3759 -0.2282
  678MOL0     H93538   1.220  11.841   1.967  0.1001 -0.9030 -1.7419
  678MOL0     H93539   1.155  12.001   1.952  0.8951 -0.7013  1.6259
  678MOL0     H93540   1.354  12.108   1.976  2.3751  0.1433 -0.2288
  678MOL0     H93541   1.457  11.994   1.891  2.6591 -1.2207  2.2294
  678MOL0     H93542   1.378  11.988   2.190 -0.3553  1.9280 -0.7845
  678MOL0     H93543   1.535  11.981   2.108 -1.0639  0.9943  0.3320
  678MOL0     H93544   1.453  12.249   1.207 -0.4164  1.3210 -1.9459
  678MOL0     H93545   1.573  12.315   1.022 -0.8873 -0.2590  0.3375
  678MOL0     H93546   2.093  12.391   0.945 -0.0463 -1.0039  0.0164
  678MOL0     H93547   2.239  12.403   0.755 -0.5992 -0.7483  2.5852
  678MOL0     H93548   1.353  11.174   0.483 -1.8788  1.2324 -1.6192
  678MOL0     H93549   1.293  10.943   0.572  0.6950  0.2688  0.0252
  678MOL0     H93550   0.705  10.794   0.579  1.5668  0.0841 -0.0913
  678MOL0     H93551   0.548  10.607   0.585 -1.1615  0.5210 -0.9856
  678MOL0     H93552   0.461  10.415   0.679 -0.7005  2.0684 -1.1151
  678MOL0     H93553   0.443  10.408   0.516  0.5781  3.7455  2.0858
  678MOL0     H93554   0.376  10.180   0.522 -2.0129  1.1236  0.1599
  678MOL0     H93555   0.317  10.239   0.670 -0.6693  1.4395 -1.8670
  678MOL0     H93556   0.575  10.086   0.644 -1.0749  1.5855 -0.0726
  678MOL0     H93557   0.519  10.158   0.793  1.1253  1.6661 -1.3498
  678MOL0     H93558   0.483   9.941   0.812  0.9020  1.5868  0.1796
  678MOL0     H93559   0.418   9.924   0.645  0.7801  2.3473 -2.5644
  678MOL0     H93560   0.051  10.000   0.827 -0.7318  0.0733 -1.2224
  678MOL0     H93561   0.888  10.340   0.534  0.8643  0.6988 -0.4481
  678MOL0     H93562   1.149  10.584   0.557  0.7430 -0.4166 -1.6050
  678MOL0     H93563   1.112  10.423   0.504 -1.5224 -1.1400 -2.9522
  678MOL0     H93564   1.076  10.570   0.403 -2.3649 -0.5776  0.3574
  679MOL0     O93565   7.944   3.218   3.459  0.3548  0.0539 -0.1283
  679MOL0     C93566   7.874   3.174   3.367 -1.0664  0.0445  0.8148
  679MOL0     O93567   7.903   3.063   3.288 -0.5404  0.1578 -0.8887
  679MOL0     C93568   7.809   3.004   3.211  0.1957  0.9566 -0.3807
  679MOL0     C93569   7.693   2.961   3.287  0.2957  0.0172  0.1061
  679MOL0     C93570   7.594   2.898   3.215  0.2794  0.1729  0.3183
  679MOL0     C93571   7.603   2.869   3.072  0.0204 -0.4657  0.5308
  679MOL0     O93572   7.496   2.809   3.006 -0.7245 -0.5548 -0.0488
  679MOL0     C93573   7.421   2.903   2.930  0.0140 -0.4530  0.0558
  679MOL0     C93574   7.309   2.832   2.854 -0.2620 -0.0315 -0.0024
  679MOL0     C93575   7.190   2.780   2.938  0.5187 -0.3429  0.3111
  679MOL0     C93576   7.102   2.687   2.854  0.3568 -0.7128 -0.0742
  679MOL0     C93577   6.985   2.623   2.925  0.2100  0.2104  0.1820
  679MOL0     C93578   6.872   2.717   2.969 -0.1246  1.0010 -0.8755
  679MOL0     C93579   6.758   2.730   2.857 -0.5557 -0.1050 -0.5145
  679MOL0     C93580   6.637   2.816   2.893  0.1563 -0.6417  0.5244
  679MOL0     N93581   6.526   2.803   2.796 -0.5714  0.0304 -0.0899
  679MOL0     C93582   6.515   2.870   2.678 -0.1052  0.5540 -0.6798
  679MOL0     C93583   6.411   2.812   2.608  0.4142 -0.6243 -0.1805
  679MOL0     C93584   6.351   2.853   2.478  0.2028 -0.3549  0.2772
  679MOL0     C93585   6.249   2.759   2.423  1.0188 -1.0349  0.2637
  679MOL0     C93586   6.243   2.736   2.272 -0.2321 -0.0427  0.5341
  679MOL0     C93587   6.364   2.658   2.220  0.4602  0.2005 -0.2827
  679MOL0     O93588   6.412   2.721   2.106  0.4138  0.1863 -0.0194
  679MOL0     C93589   6.326   2.721   1.989  0.3623 -0.6268  0.3695
  679MOL0     C93590   6.355   2.807   1.881 -1.1864 -0.0520 -0.1337
  679MOL0     C93591   6.279   2.801   1.765 -0.4250 -0.4127  0.0624
  679MOL0     C93592   6.315   2.902   1.660 -0.9452 -0.7584 -0.2096
  679MOL0     C93593   6.159   2.727   1.750 -0.2489 -0.3484 -0.1805
  679MOL0     C93594   6.056   2.738   1.643  0.0941 -0.4391 -0.7308
  679MOL0     O93595   5.934   2.795   1.685 -0.8529  0.1344  0.8708
  679MOL0     C93596   5.829   2.808   1.593 -0.5625  0.5344  0.0294
  679MOL0     C93597   5.846   2.813   1.448  0.5309  0.1762 -1.1324
  679MOL0     C93598   5.735   2.819   1.366  0.7539  0.0183  0.0345
  679MOL0     C93599   5.609   2.843   1.419  0.1975  0.1109 -0.5567
  679MOL0     O93600   5.499   2.862   1.332  0.7726 -0.8002 -0.5365
  679MOL0     C93601   5.376   2.926   1.385 -0.0452 -0.3347  1.1388
  679MOL0     C93602   5.314   3.009   1.273 -0.2835 -0.0250 -0.8399
  679MOL0     C93603   5.228   3.119   1.335 -0.0366  0.5660  0.0764
  679MOL0     C93604   5.125   3.070   1.438 -0.7594 -0.7548  0.4480
  679MOL0     C93605   5.021   3.183   1.477 -0.1350 -0.9019  0.8189
  679MOL0     C93606   4.908   3.138   1.568  0.0573  0.3838  0.1391
  679MOL0     C93607   4.803   3.245   1.592 -0.8472  0.6732  0.1845
  679MOL0     C93608   4.695   3.205   1.697  0.0432  0.7456  0.0931
  679MOL0    Cl93609   4.784   3.221   1.853  0.0575  0.0114  0.1144
  679MOL0     C93610   5.589   2.839   1.560 -1.4204  0.6350  0.2076
  679MOL0     C93611   5.708   2.828   1.647  0.4462 -0.1952  0.2447
  679MOL0     O93612   6.091   2.708   1.529 -0.4124  1.1378  0.6079
  679MOL0     C93613   6.125   2.648   1.858 -0.6997 -0.3494  0.0926
  679MOL0     C93614   6.210   2.644   1.969 -0.8094  0.8116  0.3290
  679MOL0     N93615   6.362   2.717   2.693  0.9012 -0.7908 -0.1919
  679MOL0     N93616   6.434   2.709   2.796  0.2835  0.0139 -1.2101
  679MOL0     C93617   7.720   2.898   3.008  1.4128  1.0281 -0.0143
  679MOL0     C93618   7.818   2.966   3.072 -0.0112 -0.4284 -0.3650
  679MOL0     C93619   7.777   3.275   3.317 -0.1311  0.0887  0.2177
  679MOL0     C93620   7.795   3.328   3.186 -0.0970  0.0726 -0.2429
  679MOL0     C93621   7.695   3.407   3.135  0.3777  0.3391 -0.7564
  679MOL0     C93622   7.589   3.466   3.210 -1.1013  0.5478 -0.4743
  679MOL0     O93623   7.492   3.542   3.154 -0.3036 -0.7271 -1.1956
  679MOL0     C93624   7.503   3.600   3.024  0.0796  0.1051 -0.2135
  679MOL0     C93625   7.384   3.694   2.994 -0.3152 -0.6602 -0.1935
  679MOL0     C93626   7.258   3.623   2.958 -0.0372  0.1064 -0.0796
  679MOL0     C93627   7.136   3.714   2.965 -0.4708 -0.3773  0.5114
  679MOL0     C93628   7.157   3.860   2.933  0.0932  1.2376  0.6469
  679MOL0     C93629   7.167   3.977   2.907 -0.5015 -0.1762  0.2691
  679MOL0     C93630   7.579   3.413   3.340 -0.2464 -0.7889 -0.4653
  679MOL0     C93631   7.670   3.322   3.397  0.1261  1.9027  0.1113
  679MOL0     C93632   7.643   3.288   3.544 -0.0911  0.1087  0.3129
  679MOL0     H93633   7.667   2.976   3.391  1.2797 -2.2169  0.7376
  679MOL0     H93634   7.492   2.889   3.250  0.4009 -0.5751  0.5037
  679MOL0     H93635   7.488   2.949   2.857 -0.2241  0.5354  0.4375
  679MOL0     H93636   7.369   2.983   2.983 -0.7502 -1.3456  0.6830
  679MOL0     H93637   7.265   2.895   2.776 -1.0819  1.2917  1.4460
  679MOL0     H93638   7.352   2.749   2.798 -0.3122  0.5827 -0.9758
  679MOL0     H93639   7.236   2.728   3.022 -0.2782  1.3370  1.8563
  679MOL0     H93640   7.139   2.876   2.951 -0.8184 -0.8125 -1.1633
  679MOL0     H93641   7.056   2.741   2.771  0.9894 -2.9200 -1.9692
  679MOL0     H93642   7.165   2.616   2.799 -0.7708 -4.4675  3.0378
  679MOL0     H93643   7.038   2.578   3.010  0.6521  0.7486  0.1958
  679MOL0     H93644   6.944   2.542   2.864  1.8658 -0.4653 -0.0867
  679MOL0     H93645   6.825   2.697   3.066  0.8654 -0.5157 -0.6810
  679MOL0     H93646   6.923   2.812   2.987  1.2802 -0.1545  1.7889
  679MOL0     H93647   6.714   2.634   2.830 -1.1635  0.1556 -0.4679
  679MOL0     H93648   6.806   2.768   2.766  0.8164 -1.0538 -0.2099
  679MOL0     H93649   6.599   2.786   2.991  0.9033  0.3405  1.1346
  679MOL0     H93650   6.663   2.922   2.904 -0.3375 -0.0887 -2.7262
  679MOL0     H93651   6.578   2.949   2.637  2.7415  0.4223  2.9272
  679MOL0     H93652   6.433   2.840   2.407  0.3721 -1.3444  0.6444
  679MOL0     H93653   6.311   2.954   2.489  3.4119  1.1659 -0.8020
  679MOL0     H93654   6.253   2.658   2.464  1.6983 -2.5817 -3.3281
  679MOL0     H93655   6.156   2.810   2.451  2.3160  1.8769 -0.3133
  679MOL0     H93656   6.154   2.673   2.260 -1.8365  2.5443 -2.4497
  679MOL0     H93657   6.230   2.821   2.205  0.9437 -1.2506 -1.3255
  679MOL0     H93658   6.453   2.659   2.284 -0.1510 -1.5749  0.6590
  679MOL0     H93659   6.335   2.553   2.216  0.5900  0.0612  1.6107
  679MOL0     H93660   6.429   2.883   1.907  2.2831 -3.3792  0.6783
  679MOL0     H93661   6.359   2.993   1.701 -0.7008 -0.4998 -1.0364
  679MOL0     H93662   6.218   2.930   1.617 -0.5384 -0.2092 -0.7906
  679MOL0     H93663   6.375   2.864   1.577 -3.0844  1.2312 -2.8298
  679MOL0     H93664   5.942   2.800   1.399  0.7221  1.8981 -1.2707
  679MOL0     H93665   5.742   2.806   1.258 -0.6396  0.2105 -0.0905
  679MOL0     H93666   5.307   2.845   1.413  0.3238 -1.7780 -1.7574
  679MOL0     H93667   5.411   2.997   1.461  0.3799  3.5195 -2.2879
  679MOL0     H93668   5.408   3.048   1.231  2.8683 -4.2896  1.4693
  679MOL0     H93669   5.262   2.954   1.194 -1.5386  0.8738 -0.6730
  679MOL0     H93670   5.175   3.162   1.249 -0.9705 -2.1748 -0.8254
  679MOL0     H93671   5.300   3.187   1.382  0.5427  0.2634 -0.3490
  679MOL0     H93672   5.182   3.043   1.528  1.8600 -0.8958 -1.1464
  679MOL0     H93673   5.070   2.981   1.408  0.7306 -0.8701 -2.2221
  679MOL0     H93674   5.078   3.267   1.518 -1.5510 -0.1109  1.2359
  679MOL0     H93675   4.976   3.224   1.386  2.0154 -2.7102 -1.1757
  679MOL0     H93676   4.940   3.115   1.670  2.1867 -0.0346 -0.5680
  679MOL0     H93677   4.857   3.050   1.526 -2.0628  1.5614  0.1215
  679MOL0     H93678   4.761   3.274   1.495 -0.6002  6.0490  1.3453
  679MOL0     H93679   4.841   3.341   1.629 -0.2967 -0.9361  4.2627
  679MOL0     H93680   4.645   3.108   1.687 -1.8443  1.8503 -2.4388
  679MOL0     H93681   4.616   3.281   1.690  1.2766  2.2881  1.8806
  679MOL0     H93682   5.493   2.842   1.610 -0.5001 -0.7173  2.2187
  679MOL0     H93683   5.696   2.828   1.755  0.6366 -0.2350  0.2669
  679MOL0     H93684   6.026   2.604   1.864 -0.2255 -1.2450  3.8218
  679MOL0     H93685   6.174   2.579   2.049  0.2111  0.7885  0.7879
  679MOL0     H93686   7.727   2.854   2.909 -0.5446 -0.9457  0.6456
  679MOL0     H93687   7.897   2.991   3.003  1.1716  0.5761  1.2736
  679MOL0     H93688   7.875   3.288   3.124  0.0201 -1.3310  0.7489
  679MOL0     H93689   7.701   3.454   3.038 -1.5077  3.1288  0.3297
  679MOL0     H93690   7.597   3.654   3.009 -0.3321  2.0662  3.0882
  679MOL0     H93691   7.500   3.523   2.947 -0.9371 -1.3576  1.2167
  679MOL0     H93692   7.429   3.748   2.911  1.1166 -1.0856  0.2701
  679MOL0     H93693   7.363   3.760   3.079 -5.5826 -1.6264 -0.4415
  679MOL0     H93694   7.258   3.568   2.864 -1.7168 -0.9479  0.4923
  679MOL0     H93695   7.239   3.553   3.040 -3.5086  0.8241 -0.1015
  679MOL0     H93696   7.095   3.702   3.066 -3.3365 -0.4531 -0.5654
  679MOL0     H93697   7.063   3.662   2.903  0.5647 -1.3413  0.0614
  679MOL0     H93698   7.171   4.084   2.911  1.2033 -0.1720 -0.7566
  679MOL0     H93699   7.489   3.455   3.384  0.5644  0.9153 -0.3711
  679MOL0     H93700   7.571   3.365   3.574 -0.5384 -0.0400 -0.3622
  679MOL0     H93701   7.603   3.186   3.549 -1.2094  0.5799  1.3670
  679MOL0     H93702   7.740   3.290   3.595 -0.1887  1.2724  0.4878
  680MOL0     O93703   1.292   9.543   7.045 -0.1689  0.6521  0.3091
  680MOL0     C93704   1.307   9.440   7.112 -0.1464 -0.5026 -0.3026
  680MOL0     O93705   1.384   9.329   7.076 -0.0347  0.2103  0.1631
  680MOL0     C93706   1.423   9.301   6.949 -0.0485 -0.5630 -0.3566
  680MOL0     C93707   1.331   9.301   6.844 -0.9048  0.2415  0.1385
  680MOL0     C93708   1.370   9.283   6.711 -0.6487 -0.5817  1.0912
  680MOL0     C93709   1.502   9.252   6.680  0.3637 -1.1840 -0.6265
  680MOL0     O93710   1.520   9.214   6.555 -0.6570 -0.0372  0.4227
  680MOL0     C93711   1.510   9.068   6.546  1.0307  0.4511  0.5159
  680MOL0     C93712   1.547   9.004   6.405 -0.8581 -0.3550 -0.8444
  680MOL0     C93713   1.535   8.850   6.417 -0.1681 -0.6222  0.1071
  680MOL0     C93714   1.582   8.789   6.285  0.3440  0.0945 -0.8983
  680MOL0     C93715   1.544   8.644   6.270 -0.6690 -0.0104  0.6965
  680MOL0     C93716   1.625   8.534   6.345 -0.2860 -0.7006 -0.8044
  680MOL0     C93717   1.602   8.390   6.294 -0.6753  0.7124 -0.7760
  680MOL0     C93718   1.618   8.283   6.412  0.2822  0.6430  0.5191
  680MOL0     N93719   1.757   8.288   6.461 -0.5156 -0.3458  0.1687
  680MOL0     C93720   1.787   8.325   6.590  0.4347  1.2797  0.0716
  680MOL0     C93721   1.925   8.323   6.589  0.7073  0.1653 -0.0808
  680MOL0     C93722   2.009   8.368   6.709 -0.2081 -0.6191  0.8456
  680MOL0     C93723   2.013   8.527   6.732 -0.9443  0.0339 -0.7179
  680MOL0     C93724   1.888   8.578   6.805 -0.4981 -1.2870 -1.1537
  680MOL0     C93725   1.905   8.724   6.838  0.6715 -0.0563 -0.2003
  680MOL0     O93726   1.973   8.798   6.731  0.1146  0.0491  0.2737
  680MOL0     C93727   1.944   8.933   6.716  0.3433  0.3162  0.2947
  680MOL0     C93728   1.967   9.024   6.815 -0.3383 -1.5187  0.5102
  680MOL0     C93729   1.939   9.162   6.793 -0.2334  0.2736  0.4938
  680MOL0     C93730   1.962   9.258   6.914  0.2642  0.7600 -0.4694
  680MOL0     C93731   1.895   9.199   6.661  0.6624  0.4085  0.1966
  680MOL0     C93732   1.894   9.344   6.629 -0.0115 -0.0280 -0.6901
  680MOL0     O93733   1.797   9.381   6.542  0.2315 -0.0230  0.8662
  680MOL0     C93734   1.761   9.504   6.501  0.3183 -1.1980 -0.2500
  680MOL0     C93735   1.661   9.513   6.400 -0.0803  0.1187 -0.4112
  680MOL0     C93736   1.616   9.631   6.351  0.0853 -0.1060  1.2222
  680MOL0     C93737   1.655   9.752   6.409 -1.3087 -0.1102 -0.4026
  680MOL0     O93738   1.602   9.877   6.379 -0.0509  0.3521 -0.5925
  680MOL0     C93739   1.456   9.900   6.369  0.5543 -0.5137 -0.6253
  680MOL0     C93740   1.389   9.970   6.485  0.8918  0.3245  0.0757
  680MOL0     C93741   1.405   9.907   6.621 -1.2121 -0.3737 -0.8262
  680MOL0     C93742   1.332   9.988   6.720  0.5929 -0.3897  0.3908
  680MOL0     C93743   1.318   9.934   6.863 -0.0218 -0.1866  0.9371
  680MOL0     C93744   1.322  10.038   6.978  0.3533 -0.0023  1.2295
  680MOL0     C93745   1.206  10.139   6.974  0.3193 -0.8507 -0.1893
  680MOL0     C93746   1.146  10.140   7.114  0.0201  0.2646 -0.7295
  680MOL0    Cl93747   1.010  10.245   7.144 -0.3884 -0.7256  0.2908
  680MOL0     C93748   1.764   9.739   6.501 -0.3471  0.3149 -0.4868
  680MOL0     C93749   1.814   9.626   6.555  0.1495  0.6120  0.5161
  680MOL0     O93750   1.976   9.419   6.683  0.3612 -0.2910 -0.4614
  680MOL0     C93751   1.863   9.099   6.561 -0.7715 -0.4711 -0.4449
  680MOL0     C93752   1.874   8.971   6.596  0.0915  0.4594  0.5687
  680MOL0     N93753   1.966   8.284   6.462  0.4648 -0.8242 -0.3134
  680MOL0     N93754   1.866   8.288   6.384 -0.5864 -0.3854  0.0580
  680MOL0     C93755   1.592   9.242   6.786  0.2341  0.0918 -1.0356
  680MOL0     C93756   1.559   9.271   6.926  0.6673  0.5035 -0.2973
  680MOL0     C93757   1.247   9.441   7.253  0.4723  0.8537 -0.0800
  680MOL0     C93758   1.236   9.565   7.312 -0.4791  1.1118  0.0708
  680MOL0     C93759   1.155   9.574   7.428  0.2576  0.4680  0.7425
  680MOL0     C93760   1.105   9.461   7.494  0.1726 -0.1377  0.3077
  680MOL0     O93761   1.014   9.472   7.595 -0.7665 -0.3242 -0.8203
  680MOL0     C93762   1.046   9.566   7.701 -0.2537  1.0492 -0.8752
  680MOL0     C93763   0.978   9.521   7.838 -1.0470 -0.5141 -0.0035
  680MOL0     C93764   0.838   9.535   7.839  0.4175  0.1715  0.0201
  680MOL0     C93765   0.772   9.473   7.963 -0.0094  0.7451 -0.1583
  680MOL0     C93766   0.644   9.548   7.993  0.5246  0.0753  0.2636
  680MOL0     C93767   0.537   9.593   8.021  0.4739  0.0146  0.6069
  680MOL0     C93768   1.123   9.344   7.431 -0.5758  0.5494  0.1079
  680MOL0     C93769   1.189   9.331   7.308 -0.3406  0.4800 -0.6386
  680MOL0     C93770   1.205   9.185   7.255 -0.0420 -0.4658 -0.2522
  680MOL0     H93771   1.225   9.295   6.870 -1.0212 -0.4897 -0.5030
  680MOL0     H93772   1.291   9.284   6.637 -0.5365  1.9920  0.9182
  680MOL0     H93773   1.407   9.039   6.568  1.8857 -3.3709  0.3238
  680MOL0     H93774   1.571   9.025   6.627 -0.3590  0.6466  1.7174
  680MOL0     H93775   1.470   9.046   6.340 -0.7812  0.8354 -0.2017
  680MOL0     H93776   1.645   9.028   6.364  0.3210 -0.8803  1.5016
  680MOL0     H93777   1.599   8.821   6.502  1.0944  1.0440 -0.2301
  680MOL0     H93778   1.429   8.830   6.431  0.2142 -2.5134  0.6403
  680MOL0     H93779   1.526   8.841   6.207  1.0688  3.5371  0.7285
  680MOL0     H93780   1.689   8.809   6.285  0.3527  0.5322  2.6718
  680MOL0     H93781   1.560   8.624   6.163  0.1210  2.9657  0.1680
  680MOL0     H93782   1.439   8.635   6.296 -0.1579  0.4131  3.1459
  680MOL0     H93783   1.731   8.560   6.341 -0.5431  0.3160 -1.3476
  680MOL0     H93784   1.587   8.557   6.445 -0.5427  4.3422 -1.7800
  680MOL0     H93785   1.653   8.368   6.199  0.9350  2.9340 -0.5062
  680MOL0     H93786   1.496   8.383   6.268 -1.1941  1.5243  0.9638
  680MOL0     H93787   1.546   8.324   6.484  0.5121  0.2327  0.9942
  680MOL0     H93788   1.589   8.183   6.377  0.4964  1.6377 -2.8265
  680MOL0     H93789   1.729   8.357   6.676 -1.6662 -1.6741 -0.1019
  680MOL0     H93790   2.114   8.341   6.698 -0.0183 -0.5101  2.1603
  680MOL0     H93791   1.976   8.312   6.797  1.9348 -2.2315  0.6860
  680MOL0     H93792   2.105   8.543   6.788 -0.7093 -1.6037 -0.5994
  680MOL0     H93793   2.027   8.571   6.633  3.8238 -0.7135 -0.6108
  680MOL0     H93794   1.815   8.562   6.725 -0.3221  1.1971 -1.8915
  680MOL0     H93795   1.864   8.519   6.894 -2.0359  4.3252  2.7057
  680MOL0     H93796   1.808   8.757   6.875 -1.6417 -3.4161 -2.6238
  680MOL0     H93797   1.967   8.723   6.928  0.3563  2.6655  0.1281
  680MOL0     H93798   2.006   8.985   6.909  1.1085 -0.8910  0.1982
  680MOL0     H93799   1.877   9.326   6.914 -0.9461 -0.6954 -0.9304
  680MOL0     H93800   2.051   9.321   6.911 -0.1520  1.3224 -2.4852
  680MOL0     H93801   1.941   9.198   7.003 -1.0724  0.2651 -1.0992
  680MOL0     H93802   1.636   9.420   6.349 -3.9558  0.5605  0.3502
  680MOL0     H93803   1.546   9.623   6.269  0.5947  0.8411  0.6803
  680MOL0     H93804   1.430   9.949   6.274 -0.1854 -1.5498 -0.9757
  680MOL0     H93805   1.411   9.802   6.350 -3.2061  0.5624  1.7806
  680MOL0     H93806   1.433  10.069   6.494  1.8451 -0.0492 -0.3266
  680MOL0     H93807   1.282   9.978   6.464  0.7606 -2.5966 -0.7982
  680MOL0     H93808   1.512   9.912   6.645 -1.3149 -1.6501  0.0383
  680MOL0     H93809   1.369   9.803   6.625 -0.0709 -0.7671 -0.3240
  680MOL0     H93810   1.230  10.007   6.685  0.1911  1.8486  2.5037
  680MOL0     H93811   1.388  10.081   6.725 -2.4407  1.7292 -1.6853
  680MOL0     H93812   1.226   9.876   6.864  0.6636 -1.3415  0.0839
  680MOL0     H93813   1.399   9.861   6.873  1.1912  1.0028  0.1722
  680MOL0     H93814   1.420  10.086   6.973  1.4331 -2.0018  1.9179
  680MOL0     H93815   1.329   9.993   7.078 -0.8480 -0.1257  1.2670
  680MOL0     H93816   1.127  10.116   6.902  1.1642 -3.6222 -0.3561
  680MOL0     H93817   1.247  10.237   6.947 -1.4732 -0.0100  0.0299
  680MOL0     H93818   1.233  10.164   7.175 -0.5973 -0.4687  0.4971
  680MOL0     H93819   1.107  10.042   7.144 -0.4499  1.4412  2.9688
  680MOL0     H93820   1.797   9.832   6.546 -3.0989  0.0176  2.5496
  680MOL0     H93821   1.890   9.623   6.632  0.6862 -1.6819 -0.0171
  680MOL0     H93822   1.824   9.141   6.468 -3.3899 -0.5954  0.4936
  680MOL0     H93823   1.837   8.893   6.530  1.3970 -0.7816  1.2577
  680MOL0     H93824   1.691   9.198   6.776  1.4727  2.6018 -0.4703
  680MOL0     H93825   1.627   9.253   7.008 -1.0848 -0.0181  1.0938
  680MOL0     H93826   1.284   9.655   7.274  1.9337  0.5860  1.6076
  680MOL0     H93827   1.137   9.677   7.459  0.9766  1.4560 -1.8595
  680MOL0     H93828   1.155   9.567   7.712 -0.4235  0.6870  1.0456
  680MOL0     H93829   1.018   9.670   7.684 -4.1566  0.4051  0.5442
  680MOL0     H93830   1.022   9.582   7.917  0.0950  1.8125 -2.2755
  680MOL0     H93831   1.011   9.418   7.856  2.1480  0.5126  0.6127
  680MOL0     H93832   0.807   9.639   7.828  2.7809  0.7795 -1.7231
  680MOL0     H93833   0.805   9.479   7.750  0.5824 -1.7732  1.1223
  680MOL0     H93834   0.835   9.470   8.052 -1.4731 -2.4864  0.9458
  680MOL0     H93835   0.746   9.369   7.943  1.8117 -0.3587  2.6213
  680MOL0     H93836   0.447   9.633   8.063  1.0279 -0.5935  2.5092
  680MOL0     H93837   1.088   9.253   7.479  1.6521 -0.4662 -0.0375
  680MOL0     H93838   1.207   9.184   7.146  1.2720  1.6838 -0.3061
  680MOL0     H93839   1.294   9.140   7.299 -0.7989  0.0632  1.9352
  680MOL0     H93840   1.122   9.123   7.291  0.0685 -0.6070 -0.2382
  681MOL0     O93841  11.269   0.037   2.992  0.3468 -0.0741  0.8084
  681MOL0     C93842  11.152   0.036   3.017  0.6677  0.1046  0.6336
  681MOL0     O93843  11.062   0.114   2.948  0.0168  0.0978  0.3795
  681MOL0     C93844  11.104   0.206   2.855  0.2661  0.4674  0.2725
  681MOL0     C93845  11.112   0.176   2.715  0.4919 -0.3905 -0.3161
  681MOL0     C93846  11.136   0.264   2.614 -0.0788  0.0928 -0.4797
  681MOL0     C93847  11.165   0.399   2.645  0.3304  0.0280 -0.6272
  681MOL0     O93848  11.182   0.489   2.551 -0.1258 -0.1794 -0.3667
  681MOL0     C93849  11.315   0.540   2.548  0.8045  0.5442  0.6389
  681MOL0     C93850  11.360   0.544   2.395  0.5235 -0.0923 -0.4154
  681MOL0     C93851  11.403   0.396   2.349  1.1258 -0.8340 -0.2155
  681MOL0     C93852  11.486   0.403   2.214 -0.5385  0.8574 -0.0660
  681MOL0     C93853  11.560   0.271   2.185  0.3104 -0.2462 -0.0107
  681MOL0     C93854  11.484   0.143   2.207  0.5270  0.5562 -0.1720
  681MOL0     C93855  11.348   0.132   2.135 -0.3685 -0.8562 -0.1039
  681MOL0     C93856  11.276   0.004   2.158 -0.1571  0.0488 -0.5401
  681MOL0     N93857  11.197  -0.020   2.277  0.4533  0.0135 -0.0253
  681MOL0     C93858  11.204  -0.133   2.360  0.6829 -0.5674 -1.0895
  681MOL0     C93859  11.110  -0.104   2.461 -0.5636  0.5229 -0.8468
  681MOL0     C93860  11.086  -0.180   2.583  0.2885 -0.3415 -0.0195
  681MOL0     C93861  11.051  -0.330   2.574  1.0881  0.2574 -0.9413
  681MOL0     C93862  11.180  -0.415   2.551  1.1255 -0.0915 -0.3002
  681MOL0     C93863  11.147  -0.556   2.499  0.1606  0.4368 -0.3263
  681MOL0     O93864  11.062  -0.625   2.586 -0.5697 -0.4380  0.7358
  681MOL0     C93865  11.109  -0.697   2.696  0.2289 -0.6655 -0.3027
  681MOL0     C93866  11.241  -0.714   2.733 -0.9070 -0.3569 -0.1399
  681MOL0     C93867  11.283  -0.809   2.831  0.6438 -1.0030  0.5108
  681MOL0     C93868  11.432  -0.830   2.858 -0.3941 -0.3007  0.8464
  681MOL0     C93869  11.171  -0.883   2.898 -0.5678 -0.2124  0.7165
  681MOL0     C93870  11.196  -0.972   3.014  0.2189 -0.0631 -0.3812
  681MOL0     O93871  11.076  -1.038   3.060 -0.2439  0.0653  0.5674
  681MOL0     C93872  11.065  -1.095   3.184  0.2406 -0.2018 -0.1195
  681MOL0     C93873  10.946  -1.079   3.253 -0.0780 -0.8398 -0.2083
  681MOL0     C93874  10.927  -1.161   3.364 -0.0924 -0.5404  0.0970
  681MOL0     C93875  11.017  -1.250   3.420 -0.2028  0.5241  0.1027
  681MOL0     O93876  10.981  -1.319   3.533  0.2138  0.3262  0.8867
  681MOL0     C93877  11.048  -1.436   3.562  0.3069 -0.6663 -0.4504
  681MOL0     C93878  10.968  -1.527   3.664  0.9124 -1.6046  0.4139
  681MOL0     C93879  10.912  -1.448   3.788 -0.5528 -0.0041  0.1754
  681MOL0     C93880  10.784  -1.515   3.844  0.5851 -0.4531  0.0089
  681MOL0     C93881  10.748  -1.448   3.975  0.4801  0.4813 -0.7049
  681MOL0     C93882  10.666  -1.324   3.946 -0.7669 -1.2388  0.5892
  681MOL0     C93883  10.734  -1.208   4.034  0.0478  0.7039 -0.5038
  681MOL0     C93884  10.655  -1.079   4.010 -0.8445 -0.3309  0.7158
  681MOL0    Cl93885  10.477  -1.092   4.013 -0.2561  0.1519  0.0480
  681MOL0     C93886  11.145  -1.245   3.363 -0.0066 -0.5510 -0.1377
  681MOL0     C93887  11.165  -1.180   3.242  0.0300  0.0455 -0.1431
  681MOL0     O93888  11.296  -0.953   3.088 -0.6556 -0.5409  0.0587
  681MOL0     C93889  11.042  -0.864   2.864 -0.1701 -0.9149  0.2556
  681MOL0     C93890  11.008  -0.763   2.770  0.2212  1.0405 -0.9115
  681MOL0     N93891  11.045   0.011   2.428 -0.4477  0.1658 -0.0749
  681MOL0     N93892  11.086   0.053   2.317 -0.7028  0.3005 -0.2812
  681MOL0     C93893  11.162   0.437   2.791  0.4884  0.0684  0.1915
  681MOL0     C93894  11.130   0.338   2.886  0.1343  0.1651  0.0309
  681MOL0     C93895  11.119  -0.057   3.136  0.8173 -0.2384 -0.3718
  681MOL0     C93896  11.041   0.005   3.230  0.3424 -0.0818 -0.5461
  681MOL0     C93897  11.016  -0.055   3.357  0.3625 -0.4675  1.1218
  681MOL0     C93898  11.063  -0.180   3.383 -0.2179  0.2747 -0.6294
  681MOL0     O93899  11.033  -0.250   3.499  0.7150  0.1905  0.2792
  681MOL0     C93900  11.008  -0.177   3.620 -0.4027 -0.6230  1.0548
  681MOL0     C93901  11.027  -0.268   3.738 -0.3703  0.4604  0.2730
  681MOL0     C93902  11.173  -0.324   3.765 -0.5859 -0.5450  0.1150
  681MOL0     C93903  11.261  -0.215   3.815 -0.0391  0.0270  0.8350
  681MOL0     C93904  11.397  -0.244   3.857  0.4778  0.8984 -0.8768
  681MOL0     C93905  11.506  -0.258   3.894 -0.3545  0.7081  0.0853
  681MOL0     C93906  11.147  -0.243   3.296 -0.3639 -0.0085 -0.1633
  681MOL0     C93907  11.172  -0.191   3.172 -0.7206  0.1414  0.2420
  681MOL0     C93908  11.259  -0.261   3.062 -0.2811  0.5776  0.4429
  681MOL0     H93909  11.069   0.080   2.690  0.7114 -0.8531  1.0619
  681MOL0     H93910  11.132   0.222   2.514 -3.2637 -0.7408 -0.0934
  681MOL0     H93911  11.390   0.484   2.606  0.6159 -1.4337 -0.9198
  681MOL0     H93912  11.328   0.640   2.591  2.1799  0.9184 -0.5821
  681MOL0     H93913  11.283   0.572   2.322  1.9166  0.3091 -1.7896
  681MOL0     H93914  11.445   0.613   2.385 -0.1451  0.6520 -1.1713
  681MOL0     H93915  11.466   0.361   2.432  1.1396 -0.8049 -0.2138
  681MOL0     H93916  11.309   0.342   2.362  1.4873 -1.5830 -0.6824
  681MOL0     H93917  11.413   0.420   2.134  0.8384 -1.5275 -1.9864
  681MOL0     H93918  11.560   0.483   2.217  0.0812  0.2825  0.1918
  681MOL0     H93919  11.643   0.279   2.256 -0.2313 -2.3777  0.9380
  681MOL0     H93920  11.603   0.274   2.084 -0.1985 -0.9455 -0.2518
  681MOL0     H93921  11.547   0.062   2.171 -3.7793 -3.0509 -0.4859
  681MOL0     H93922  11.470   0.128   2.315 -0.5033 -1.4178 -0.5348
  681MOL0     H93923  11.369   0.148   2.029  5.2876  1.5672  1.0070
  681MOL0     H93924  11.280   0.211   2.169 -0.0848 -0.2399 -0.9210
  681MOL0     H93925  11.205  -0.007   2.076  0.2232 -2.4474 -0.6095
  681MOL0     H93926  11.349  -0.076   2.143  0.5145  0.6942 -0.7910
  681MOL0     H93927  11.278  -0.212   2.354  2.0506  0.5666  0.0509
  681MOL0     H93928  11.007  -0.129   2.639  1.6520  1.6671  0.1616
  681MOL0     H93929  11.173  -0.172   2.649 -0.9247  1.7964  1.4590
  681MOL0     H93930  11.008  -0.362   2.669 -1.2038  0.3019 -1.8975
  681MOL0     H93931  10.974  -0.335   2.496  0.7238  1.7777 -0.7206
  681MOL0     H93932  11.242  -0.367   2.475  3.6367 -3.0669 -0.3371
  681MOL0     H93933  11.245  -0.421   2.640  1.0312 -1.3486 -0.3012
  681MOL0     H93934  11.104  -0.562   2.398 -0.8422 -1.6534  0.1737
  681MOL0     H93935  11.247  -0.599   2.502  1.4584  3.1932  3.2519
  681MOL0     H93936  11.320  -0.666   2.676 -2.1574  0.5789 -1.1327
  681MOL0     H93937  11.452  -0.938   2.862 -2.6000 -0.7844  0.2208
  681MOL0     H93938  11.466  -0.780   2.949  0.1282  0.6438  0.1440
  681MOL0     H93939  11.469  -0.777   2.770 -0.5407  1.2959  1.7236
  681MOL0     H93940  10.876  -1.002   3.221 -4.2595 -3.6397  1.2863
  681MOL0     H93941  10.826  -1.149   3.400 -1.6045 -0.8002 -3.5808
  681MOL0     H93942  11.071  -1.488   3.468 -1.2456  3.4572 -3.3858
  681MOL0     H93943  11.142  -1.416   3.615 -0.3798 -1.6629  1.1980
  681MOL0     H93944  10.882  -1.568   3.609  0.6802 -0.6821  0.0780
  681MOL0     H93945  11.037  -1.606   3.693  1.6125 -0.3219  2.4651
  681MOL0     H93946  10.888  -1.346   3.757  1.2086  1.2867  2.6435
  681MOL0     H93947  10.991  -1.422   3.860  1.8123  3.7568 -3.2745
  681MOL0     H93948  10.797  -1.624   3.849 -2.8068 -1.0282 -1.1066
  681MOL0     H93949  10.703  -1.501   3.772  2.9051 -0.2520 -2.7208
  681MOL0     H93950  10.674  -1.504   4.032 -0.1619 -0.5443 -2.4505
  681MOL0     H93951  10.836  -1.427   4.037 -0.8040  0.3665  1.2478
  681MOL0     H93952  10.562  -1.339   3.976 -0.3985 -2.8507  1.1879
  681MOL0     H93953  10.666  -1.292   3.842  2.9128  0.5827  0.9917
  681MOL0     H93954  10.841  -1.201   4.013  0.1721  0.2699 -0.0431
  681MOL0     H93955  10.718  -1.241   4.137 -1.7172  1.0716 -0.6243
  681MOL0     H93956  10.679  -1.055   3.906 -3.3124  0.1723  0.1894
  681MOL0     H93957  10.680  -0.998   4.080 -0.3813  1.8824 -1.8340
  681MOL0     H93958  11.230  -1.282   3.419  1.7587 -0.2718 -2.4450
  681MOL0     H93959  11.260  -1.183   3.190  1.8151  0.2819  2.8873
  681MOL0     H93960  10.968  -0.929   2.910  0.9080 -2.7203 -0.4514
  681MOL0     H93961  10.901  -0.756   2.749 -0.1948  1.3344  1.1370
  681MOL0     H93962  11.189   0.532   2.835  2.3330 -0.1232 -0.4660
  681MOL0     H93963  11.128   0.372   2.990 -0.1966 -0.8139  0.3556
  681MOL0     H93964  11.002   0.106   3.225 -0.7227 -0.2834  1.9659
  681MOL0     H93965  10.962   0.002   3.433 -1.6126 -1.0970  0.2463
  681MOL0     H93966  11.075  -0.090   3.620 -3.3347  1.9565 -2.5255
  681MOL0     H93967  10.917  -0.116   3.619  1.1372  1.7952 -0.1420
  681MOL0     H93968  10.974  -0.360   3.710  1.3557 -0.0777 -1.4446
  681MOL0     H93969  10.976  -0.225   3.825 -5.0816  1.2252 -2.5115
  681MOL0     H93970  11.176  -0.400   3.844  1.2512  1.0672  1.7209
  681MOL0     H93971  11.212  -0.365   3.672 -1.0809 -0.4337 -0.1413
  681MOL0     H93972  11.212  -0.173   3.903 -0.7393  0.5168  0.2291
  681MOL0     H93973  11.276  -0.131   3.748  2.4916 -1.8622 -1.1677
  681MOL0     H93974  11.609  -0.276   3.918 -0.3921 -0.9318 -0.8758
  681MOL0     H93975  11.192  -0.339   3.318  1.1328  0.2884 -1.7317
  681MOL0     H93976  11.208  -0.255   2.965 -0.9532 -1.9952  0.5834
  681MOL0     H93977  11.351  -0.204   3.042  0.3170 -0.6712 -0.5178
  681MOL0     H93978  11.286  -0.363   3.088 -0.4048  1.0247  2.5083
  682MOL0     O93979   4.212   0.016   1.376  0.5439  0.5836  0.1837
  682MOL0     C93980   4.311  -0.002   1.447 -0.3893 -0.0452  0.0771
  682MOL0     O93981   4.402  -0.112   1.437 -0.6725 -0.7209 -0.3893
  682MOL0     C93982   4.362  -0.207   1.342  0.6773  0.0317  1.2399
  682MOL0     C93983   4.321  -0.337   1.372 -0.0817 -0.1051  0.0770
  682MOL0     C93984   4.302  -0.420   1.266  0.7482  0.4343 -0.5657
  682MOL0     C93985   4.322  -0.389   1.129  0.7604  0.2427 -0.6682
  682MOL0     O93986   4.299  -0.486   1.035  0.0159  0.0422  0.2719
  682MOL0     C93987   4.375  -0.492   0.915 -0.6499 -0.0804  0.4371
  682MOL0     C93988   4.316  -0.589   0.814 -0.2034  0.5208  0.6937
  682MOL0     C93989   4.174  -0.564   0.769 -1.2641  0.7104  0.2143
  682MOL0     C93990   4.064  -0.563   0.864  0.7051  0.0511 -0.1615
  682MOL0     C93991   3.932  -0.578   0.788 -0.7152 -0.1763  0.3984
  682MOL0     C93992   3.809  -0.519   0.865  0.4768  0.4334 -0.2485
  682MOL0     C93993   3.688  -0.500   0.777  0.4805 -0.8683  0.2730
  682MOL0     C93994   3.571  -0.604   0.773 -1.0002  0.2201  0.0031
  682MOL0     N93995   3.485  -0.560   0.664  0.1330  1.3972  0.8260
  682MOL0     C93996   3.440  -0.632   0.562  0.6873  0.3541 -0.0222
  682MOL0     C93997   3.352  -0.544   0.496 -0.5935  1.4001  1.0333
  682MOL0     C93998   3.271  -0.580   0.373  1.3306  0.2073 -0.3414
  682MOL0     C93999   3.297  -0.476   0.266 -0.0431 -0.2888 -0.2814
  682MOL0     C94000   3.221  -0.526   0.143 -0.4121  0.2357 -0.6983
  682MOL0     C94001   3.219  -0.439   0.027  0.0995  0.8837 -0.5535
  682MOL0     O94002   3.169  -0.500  -0.088 -0.1361  0.4754  0.1434
  682MOL0     C94003   3.050  -0.459  -0.130  0.1070 -0.1337  0.0038
  682MOL0     C94004   3.037  -0.352  -0.222  0.3868  0.3020  0.0589
  682MOL0     C94005   2.914  -0.299  -0.264  0.3709  0.9166 -0.0357
  682MOL0     C94006   2.923  -0.189  -0.356  0.1862 -0.2289  0.3618
  682MOL0     C94007   2.795  -0.364  -0.229 -0.5781 -0.9453 -0.5417
  682MOL0     C94008   2.664  -0.323  -0.272 -0.2464 -0.2757 -0.1422
  682MOL0     O94009   2.629  -0.193  -0.244 -0.0772 -0.5938 -0.5289
  682MOL0     C94010   2.520  -0.140  -0.314 -0.6340 -0.7980 -0.6079
  682MOL0     C94011   2.503  -0.160  -0.454 -0.5928 -1.2423  0.5617
  682MOL0     C94012   2.401  -0.093  -0.524 -0.0054 -0.0334 -0.3918
  682MOL0     C94013   2.317  -0.005  -0.460 -0.6658 -0.3444  0.4309
  682MOL0     O94014   2.209   0.058  -0.520 -0.7604  0.1372  0.1452
  682MOL0     C94015   2.249   0.140  -0.635  0.0308 -0.0976  0.4677
  682MOL0     C94016   2.187   0.080  -0.759 -0.5088  0.3701 -0.9262
  682MOL0     C94017   2.037   0.105  -0.782 -0.4942  0.6401  0.2838
  682MOL0     C94018   1.978   0.237  -0.745 -1.0597  0.2483  0.6203
  682MOL0     C94019   1.834   0.219  -0.778  0.4605  0.1921  0.8324
  682MOL0     C94020   1.771   0.354  -0.733  0.1591  0.4524  0.4369
  682MOL0     C94021   1.620   0.368  -0.750 -0.9235 -0.4924  0.4324
  682MOL0     C94022   1.527   0.260  -0.704  0.1727  0.5213 -0.0144
  682MOL0    Cl94023   1.360   0.298  -0.722  0.3219  0.0643 -0.4217
  682MOL0     C94024   2.337   0.016  -0.322 -0.9050  0.5768 -0.5051
  682MOL0     C94025   2.437  -0.045  -0.250  0.0534  1.2038  0.5809
  682MOL0     O94026   2.612  -0.404  -0.343  0.7759  0.3142  0.7826
  682MOL0     C94027   2.803  -0.481  -0.145 -0.5421 -0.5145  0.8304
  682MOL0     C94028   2.924  -0.522  -0.093  0.0188 -0.5604  0.3375
  682MOL0     N94029   3.354  -0.426   0.556 -0.8683 -0.4299  0.2771
  682MOL0     N94030   3.433  -0.438   0.654 -0.0318 -0.8830  0.3760
  682MOL0     C94031   4.362  -0.262   1.092 -0.4414  0.3240 -0.0691
  682MOL0     C94032   4.385  -0.171   1.206 -0.6828 -0.3794 -0.2601
  682MOL0     C94033   4.344   0.104   1.545 -0.1968  0.1352  1.0533
  682MOL0     C94034   4.427   0.075   1.655  1.3940  0.4770 -0.2913
  682MOL0     C94035   4.467   0.167   1.742  0.5707 -1.0099 -0.2465
  682MOL0     C94036   4.429   0.294   1.737 -0.1458 -0.6458 -0.5044
  682MOL0     O94037   4.454   0.369   1.854 -0.1629 -1.0487  0.1075
  682MOL0     C94038   4.469   0.510   1.841 -0.2300  0.6010 -0.0044
  682MOL0     C94039   4.555   0.561   1.966  0.0794 -0.0627  0.5048
  682MOL0     C94040   4.513   0.702   2.008 -0.0587  0.6051  0.2501
  682MOL0     C94041   4.540   0.719   2.161  0.6597  0.0398  0.5706
  682MOL0     C94042   4.676   0.717   2.195 -0.3071 -0.6785  0.4528
  682MOL0     C94043   4.796   0.713   2.220  0.0690 -0.4012 -0.1291
  682MOL0     C94044   4.355   0.332   1.626  0.3332  0.8580  0.0178
  682MOL0     C94045   4.305   0.240   1.535  0.5866 -0.5444 -0.5320
  682MOL0     C94046   4.218   0.303   1.428  0.2207 -0.3410 -0.1609
  682MOL0     H94047   4.314  -0.355   1.479 -0.8593 -1.4506 -0.1820
  682MOL0     H94048   4.257  -0.516   1.290 -5.2743  2.4794 -1.9706
  682MOL0     H94049   4.469  -0.543   0.939 -0.6007  0.2472  0.9601
  682MOL0     H94050   4.395  -0.400   0.860 -0.9973 -0.1597  0.1756
  682MOL0     H94051   4.384  -0.602   0.730 -0.6729  3.4703 -0.2367
  682MOL0     H94052   4.316  -0.690   0.857  1.4795  1.2730  2.6177
  682MOL0     H94053   4.176  -0.460   0.734 -1.3451  1.9124  3.4400
  682MOL0     H94054   4.150  -0.640   0.694  2.0614 -0.4111  0.1359
  682MOL0     H94055   4.070  -0.652   0.926  0.9293  0.8417  0.9954
  682MOL0     H94056   4.064  -0.469   0.920 -2.3514 -0.5155  0.9896
  682MOL0     H94057   3.911  -0.684   0.771  3.5099 -1.2116  0.6498
  682MOL0     H94058   3.952  -0.521   0.696  0.0660  0.1350  0.7514
  682MOL0     H94059   3.796  -0.592   0.946 -1.5716 -0.2866 -1.1711
  682MOL0     H94060   3.837  -0.424   0.911  2.5260  0.2264 -0.9769
  682MOL0     H94061   3.721  -0.467   0.678 -1.1626 -0.8420 -0.3016
  682MOL0     H94062   3.640  -0.411   0.819  1.6098 -0.8398  1.5872
  682MOL0     H94063   3.604  -0.707   0.757 -3.4304 -0.5379 -0.6276
  682MOL0     H94064   3.516  -0.596   0.868  1.0499 -0.8674  1.3752
  682MOL0     H94065   3.450  -0.740   0.553  1.2363  0.4092 -0.1052
  682MOL0     H94066   3.166  -0.577   0.405  1.3170  2.0979 -0.4374
  682MOL0     H94067   3.297  -0.684   0.355 -0.2386 -0.4864  1.1694
  682MOL0     H94068   3.247  -0.380   0.281  3.3702  2.5632 -4.5874
  682MOL0     H94069   3.401  -0.451   0.244 -0.5731  1.0232 -1.4616
  682MOL0     H94070   3.263  -0.619   0.105 -2.3935 -1.0600  0.1388
  682MOL0     H94071   3.121  -0.564   0.164 -0.7589  0.9986 -0.8970
  682MOL0     H94072   3.157  -0.353   0.053 -1.4968  0.3662 -2.3968
  682MOL0     H94073   3.322  -0.411   0.001  0.3042  0.5474 -0.1115
  682MOL0     H94074   3.126  -0.306  -0.264  1.6912 -2.7216 -0.7868
  682MOL0     H94075   2.981  -0.234  -0.437  1.8213  1.7819  0.2993
  682MOL0     H94076   2.987  -0.110  -0.314 -3.6599  3.9845 -0.8209
  682MOL0     H94077   2.832  -0.133  -0.380  0.3985  0.3839  0.9372
  682MOL0     H94078   2.571  -0.233  -0.497 -0.9465 -2.9401  2.6788
  682MOL0     H94079   2.386  -0.114  -0.629 -0.8775 -0.0622 -0.2667
  682MOL0     H94080   2.225   0.246  -0.623 -0.1237 -0.0281 -0.4155
  682MOL0     H94081   2.357   0.140  -0.647 -0.1658  0.3165 -1.6164
  682MOL0     H94082   2.237   0.137  -0.838  1.7036 -0.9950 -0.6111
  682MOL0     H94083   2.206  -0.028  -0.765  2.7720  0.6793  1.4321
  682MOL0     H94084   1.983   0.018  -0.744 -1.0582  0.8536 -0.0134
  682MOL0     H94085   2.023   0.087  -0.889  0.5933 -0.3126  0.2849
  682MOL0     H94086   2.015   0.313  -0.814 -3.1620 -1.1996 -2.2969
  682MOL0     H94087   2.004   0.262  -0.642  1.6877 -3.2347  0.9525
  682MOL0     H94088   1.810   0.199  -0.883 -1.3817  1.8744  0.8830
  682MOL0     H94089   1.790   0.135  -0.723 -3.3729 -0.5714 -2.8477
  682MOL0     H94090   1.823   0.435  -0.784 -1.6204 -0.5077 -3.2032
  682MOL0     H94091   1.789   0.360  -0.625 -1.3684  1.0957  0.6795
  682MOL0     H94092   1.594   0.375  -0.856 -0.9773 -3.1383  0.1989
  682MOL0     H94093   1.590   0.457  -0.694  0.4267  0.1091  0.2547
  682MOL0     H94094   1.544   0.236  -0.599  0.5108 -3.7907 -0.8898
  682MOL0     H94095   1.545   0.170  -0.764  1.8721  0.0230  1.1794
  682MOL0     H94096   2.276   0.088  -0.269  0.1295  1.3812 -0.3601
  682MOL0     H94097   2.448  -0.038  -0.142 -3.6565  2.3731  1.0143
  682MOL0     H94098   2.715  -0.541  -0.124 -1.3510  0.3701  0.0678
  682MOL0     H94099   2.922  -0.602  -0.020 -3.1135 -0.0322  0.9420
  682MOL0     H94100   4.382  -0.241   0.987  0.0164  0.8788  0.1260
  682MOL0     H94101   4.411  -0.068   1.183  0.2751 -0.9000 -1.6435
  682MOL0     H94102   4.465  -0.025   1.670  0.2917  0.0664 -0.1584
  682MOL0     H94103   4.529   0.134   1.824 -3.2635 -0.8088  3.0523
  682MOL0     H94104   4.530   0.525   1.751 -0.8601  0.3887 -0.4740
  682MOL0     H94105   4.374   0.565   1.842  0.4866  1.8792  0.2356
  682MOL0     H94106   4.661   0.563   1.940  0.6004 -1.3023  2.2857
  682MOL0     H94107   4.529   0.495   2.050  1.1152  1.3272  1.9579
  682MOL0     H94108   4.566   0.785   1.962  0.2467  1.0622  1.4050
  682MOL0     H94109   4.407   0.712   1.983 -0.2637  0.1980  0.9218
  682MOL0     H94110   4.482   0.644   2.217  1.6974 -1.8777 -0.7829
  682MOL0     H94111   4.519   0.818   2.203  0.0718 -0.4594  1.5029
  682MOL0     H94112   4.901   0.701   2.233 -0.0220 -5.5747 -1.9631
  682MOL0     H94113   4.305   0.429   1.626  2.5991  2.4015 -5.6619
  682MOL0     H94114   4.276   0.309   1.335  2.3026  1.1180  1.1310
  682MOL0     H94115   4.128   0.243   1.415  2.4775 -3.7803 -1.4780
  682MOL0     H94116   4.185   0.403   1.458 -0.0834 -0.6699  0.6128
  683MOL0     O94117   5.849  11.109   6.950 -0.6647 -0.0434  0.2034
  683MOL0     C94118   5.753  11.158   6.892  0.3486 -0.4070  0.1574
  683MOL0     O94119   5.619  11.125   6.910  0.1795  0.1824 -0.8314
  683MOL0     C94120   5.592  11.026   6.997  0.1192  0.2041  0.4180
  683MOL0     C94121   5.617  11.022   7.128  0.8122  0.1340  0.0368
  683MOL0     C94122   5.590  10.915   7.212  0.6719  1.2013  0.2399
  683MOL0     C94123   5.515  10.805   7.159 -0.1870  0.1021  1.3589
  683MOL0     O94124   5.471  10.721   7.250 -0.5295 -0.3787  0.3965
  683MOL0     C94125   5.387  10.608   7.212  0.2499  0.0091  0.2808
  683MOL0     C94126   5.383  10.511   7.328  0.4281 -0.8703 -0.0116
  683MOL0     C94127   5.524  10.487   7.375 -0.8004 -0.3503  0.8482
  683MOL0     C94128   5.546  10.353   7.444 -0.5790 -0.4427  0.3969
  683MOL0     C94129   5.675  10.364   7.515  0.1290 -1.0305 -0.6627
  683MOL0     C94130   5.716  10.262   7.616 -0.8264  0.3734  0.3053
  683MOL0     C94131   5.630  10.258   7.740  0.2490  0.0777 -1.2807
  683MOL0     C94132   5.662  10.147   7.830 -0.3324  1.0119 -0.4668
  683MOL0     N94133   5.571  10.124   7.948 -0.3563  0.1717 -0.3919
  683MOL0     C94134   5.609  10.174   8.076 -0.1345  0.3262  0.5983
  683MOL0     C94135   5.503  10.145   8.147 -0.1387 -0.7009  0.5231
  683MOL0     C94136   5.481  10.170   8.295 -0.4134  0.6643 -0.4161
  683MOL0     C94137   5.508  10.312   8.354 -0.0727 -0.2077 -0.6127
  683MOL0     C94138   5.442  10.427   8.265 -1.3206  0.5713  0.9900
  683MOL0     C94139   5.290  10.414   8.283  0.1605 -0.7299 -0.6940
  683MOL0     O94140   5.236  10.327   8.180 -0.3099  0.6273  0.9205
  683MOL0     C94141   5.097  10.332   8.179 -0.1852  0.7528 -0.5072
  683MOL0     C94142   5.034  10.208   8.191 -0.2421 -0.6384  0.5248
  683MOL0     C94143   4.892  10.202   8.169 -0.4602 -0.2827  0.4511
  683MOL0     C94144   4.829  10.062   8.191 -1.0919  0.5630  0.0852
  683MOL0     C94145   4.825  10.321   8.127  0.5806  0.6143 -0.0096
  683MOL0     C94146   4.684  10.322   8.095 -0.2352 -0.3030  0.4489
  683MOL0     O94147   4.590  10.267   8.181  1.1320 -0.1959  0.2473
  683MOL0     C94148   4.460  10.272   8.134 -0.4837  0.7645 -0.1207
  683MOL0     C94149   4.415  10.150   8.065 -0.9312 -0.4129  0.6287
  683MOL0     C94150   4.288  10.140   8.020  1.2801  0.4279 -0.1841
  683MOL0     C94151   4.189  10.231   8.067  0.2208  0.4285 -0.1831
  683MOL0     O94152   4.053  10.207   8.067  0.1231 -0.1444  0.7893
  683MOL0     C94153   3.998  10.083   8.020 -0.3004 -1.1033 -0.3053
  683MOL0     C94154   3.844  10.080   8.023 -0.4434  0.2292 -1.2406
  683MOL0     C94155   3.811  10.189   7.917 -0.7766 -0.7069 -0.0224
  683MOL0     C94156   3.668  10.228   7.921 -0.0166  0.8699  0.6226
  683MOL0     C94157   3.609  10.314   7.815 -0.2140 -0.7355  0.2053
  683MOL0     C94158   3.458  10.331   7.845 -0.1815 -0.2613 -0.4427
  683MOL0     C94159   3.378  10.352   7.727 -0.8136  0.4537 -0.0609
  683MOL0     C94160   3.231  10.376   7.754  0.0729 -0.0040 -0.7885
  683MOL0    Cl94161   3.225  10.544   7.827  0.0879 -0.3975  0.2520
  683MOL0     C94162   4.231  10.356   8.129 -0.0082 -0.0322 -0.9059
  683MOL0     C94163   4.367  10.362   8.175 -0.5983 -0.7641 -0.2371
  683MOL0     O94164   4.669  10.374   7.978  0.1109  0.9182 -0.1542
  683MOL0     C94165   4.892  10.442   8.127  0.7577 -0.3459 -0.7591
  683MOL0     C94166   5.031  10.447   8.141  0.4018 -0.6220 -0.6231
  683MOL0     N94167   5.401  10.079   8.069 -0.2645  0.0620  0.2527
  683MOL0     N94168   5.445  10.060   7.946  0.4438  0.3416  0.7704
  683MOL0     C94169   5.481  10.812   7.022  0.8566 -0.0336 -0.3825
  683MOL0     C94170   5.525  10.918   6.941  0.8905  0.2799  0.7802
  683MOL0     C94171   5.768  11.280   6.819  0.2804  0.5444  0.6665
  683MOL0     C94172   5.727  11.404   6.866  0.3127 -0.3412 -0.7353
  683MOL0     C94173   5.762  11.527   6.803 -0.7031  0.5888 -0.0833
  683MOL0     C94174   5.832  11.526   6.683  0.1398 -0.1362  0.4967
  683MOL0     O94175   5.845  11.639   6.602 -0.3411  0.5108  0.1572
  683MOL0     C94176   5.790  11.763   6.634  0.5283  0.2716  0.3763
  683MOL0     C94177   5.633  11.762   6.646 -0.4646 -0.3439  0.0776
  683MOL0     C94178   5.571  11.717   6.513 -0.6141 -0.8629 -1.3111
  683MOL0     C94179   5.420  11.712   6.518  0.3797  0.3700  0.5750
  683MOL0     C94180   5.356  11.838   6.547 -0.2820  0.6259  0.2785
  683MOL0     C94181   5.307  11.936   6.591  1.1165 -0.8238 -0.4749
  683MOL0     C94182   5.863  11.397   6.624 -0.3369 -0.5992 -0.1436
  683MOL0     C94183   5.832  11.280   6.694  0.3676  0.7015  0.0015
  683MOL0     C94184   5.872  11.154   6.623  0.5602  0.7080 -1.1663
  683MOL0     H94185   5.665  11.109   7.171  0.6715  1.0682 -1.6432
  683MOL0     H94186   5.618  10.921   7.317 -0.6980 -4.8515  1.3059
  683MOL0     H94187   5.414  10.565   7.115 -0.0446 -1.7230  0.9319
  683MOL0     H94188   5.290  10.658   7.198  2.1032  4.2953  1.2743
  683MOL0     H94189   5.325  10.570   7.399  2.2151 -0.6663  1.3546
  683MOL0     H94190   5.335  10.422   7.286 -1.2545  0.2156 -0.4876
  683MOL0     H94191   5.602  10.509   7.301 -2.5310 -0.0413 -0.9438
  683MOL0     H94192   5.517  10.557   7.459 -2.1923 -2.2597  2.4155
  683MOL0     H94193   5.464  10.330   7.513 -0.4231 -1.1053  0.3690
  683MOL0     H94194   5.551  10.268   7.376  1.3756  0.5111 -0.7430
  683MOL0     H94195   5.682  10.463   7.562  1.8551 -0.8479 -1.2177
  683MOL0     H94196   5.753  10.362   7.439  1.7515 -2.0014  0.9573
  683MOL0     H94197   5.707  10.167   7.562 -3.9524  0.9282 -0.2923
  683MOL0     H94198   5.815  10.284   7.657 -0.0835  0.3078 -1.3612
  683MOL0     H94199   5.528  10.234   7.709  0.8672 -3.3802 -0.9902
  683MOL0     H94200   5.627  10.352   7.797  2.1420  0.4351 -1.6958
  683MOL0     H94201   5.674  10.054   7.773  1.6919 -0.2865  1.8871
  683MOL0     H94202   5.759  10.162   7.879 -1.1147  3.4715  0.5112
  683MOL0     H94203   5.701  10.219   8.110 -1.6364  3.0692  1.3348
  683MOL0     H94204   5.549  10.106   8.353  1.8551 -0.2647 -3.8126
  683MOL0     H94205   5.381  10.141   8.329 -0.0415  0.8548  0.8918
  683MOL0     H94206   5.490  10.311   8.461  0.0108  0.4552 -0.5845
  683MOL0     H94207   5.618  10.311   8.356 -0.0792 -1.4549  1.8028
  683MOL0     H94208   5.481  10.522   8.303 -2.2616  1.9263 -1.2555
  683MOL0     H94209   5.468  10.408   8.161 -1.9068 -1.4149  1.1683
  683MOL0     H94210   5.267  10.357   8.373 -0.7434 -1.2096 -1.2107
  683MOL0     H94211   5.235  10.509   8.286 -1.6647 -1.7773  0.1230
  683MOL0     H94212   5.094  10.121   8.214 -0.4559 -0.7397  0.7013
  683MOL0     H94213   4.766  10.036   8.106 -2.9817  2.4911  0.8002
  683MOL0     H94214   4.759  10.066   8.275  0.4452  1.0173  1.3979
  683MOL0     H94215   4.911   9.989   8.194  0.7359  2.5418  2.3593
  683MOL0     H94216   4.486  10.073   8.038 -0.4893 -0.7173  2.5341
  683MOL0     H94217   4.257  10.055   7.961  2.3546  0.5472 -0.9468
  683MOL0     H94218   4.036  10.060   7.920  1.1077 -1.7648  0.3604
  683MOL0     H94219   4.024  10.000   8.087 -0.5264  0.5398  1.9325
  683MOL0     H94220   3.795   9.984   8.004  1.3344 -0.8108 -0.7223
  683MOL0     H94221   3.833  10.115   8.126  1.5124 -0.5087 -0.7317
  683MOL0     H94222   3.839  10.146   7.820 -1.3859  0.7136 -0.8587
  683MOL0     H94223   3.869  10.279   7.937 -0.5523 -0.5838 -1.1636
  683MOL0     H94224   3.660  10.282   8.016  0.0435  1.0159  0.5428
  683MOL0     H94225   3.610  10.135   7.933 -1.0692  1.4059 -0.1391
  683MOL0     H94226   3.648  10.416   7.808  4.5307 -2.3456 -0.4021
  683MOL0     H94227   3.634  10.261   7.723 -0.3360 -1.8099  0.7743
  683MOL0     H94228   3.444  10.418   7.911 -1.3893 -1.0475  0.3772
  683MOL0     H94229   3.418  10.246   7.901  0.8652  0.0939  0.8727
  683MOL0     H94230   3.383  10.260   7.668 -1.9354 -0.3794  1.0943
  683MOL0     H94231   3.423  10.435   7.670  0.8937 -1.9075 -2.3986
  683MOL0     H94232   3.198  10.303   7.829  0.3402 -0.4504 -1.1023
  683MOL0     H94233   3.177  10.357   7.660 -3.5777 -1.9817  1.4809
  683MOL0     H94234   4.162  10.434   8.158  0.5062 -0.1882  0.8449
  683MOL0     H94235   4.393  10.450   8.234 -2.0856  0.1003 -0.8218
  683MOL0     H94236   4.844  10.535   8.100  0.7221  0.0603  0.6228
  683MOL0     H94237   5.087  10.539   8.125  1.5306 -0.7300  2.1849
  683MOL0     H94238   5.441  10.726   6.969  1.4925 -0.2788 -0.4651
  683MOL0     H94239   5.504  10.897   6.837  2.2122 -1.0269  0.7483
  683MOL0     H94240   5.666  11.399   6.955  0.6010  1.6080 -0.3826
  683MOL0     H94241   5.746  11.620   6.855 -0.7626  0.4641  0.1229
  683MOL0     H94242   5.829  11.800   6.730  0.7717 -0.8366  0.7266
  683MOL0     H94243   5.819  11.836   6.558 -0.9862 -0.0066 -0.4950
  683MOL0     H94244   5.584  11.856   6.673 -1.7039 -0.3544 -1.8460
  683MOL0     H94245   5.601  11.685   6.716  0.2985 -2.2565 -1.5527
  683MOL0     H94246   5.586  11.801   6.444 -1.4999  2.0152  1.7201
  683MOL0     H94247   5.609  11.620   6.480 -1.8082 -1.8350  0.0870
  683MOL0     H94248   5.409  11.633   6.594  2.5293  0.7190  1.3221
  683MOL0     H94249   5.388  11.668   6.423  2.8628 -1.3992  0.4502
  683MOL0     H94250   5.263  12.023   6.637  2.1016 -0.6044  0.1008
  683MOL0     H94251   5.898  11.381   6.523  4.0246 -1.5483  1.2883
  683MOL0     H94252   5.785  11.088   6.622  0.2788  1.0099  0.5547
  683MOL0     H94253   5.903  11.174   6.520  1.9891  1.1530 -0.6754
  683MOL0     H94254   5.944  11.101   6.686 -4.5085 -3.3050  2.0916
  684MOL0     O94255   2.409   0.555   1.137 -0.9846 -0.1399  0.0840
  684MOL0     C94256   2.510   0.589   1.213  0.5252 -0.5407 -0.2542
  684MOL0     O94257   2.540   0.532   1.338 -0.1600  0.3836 -0.4588
  684MOL0     C94258   2.504   0.401   1.366  0.2018  0.6732  0.3233
  684MOL0     C94259   2.495   0.365   1.500 -0.2336 -0.3483 -0.1437
  684MOL0     C94260   2.465   0.233   1.544 -0.0099  0.0146  0.3177
  684MOL0     C94261   2.431   0.136   1.450  0.3072  0.3667  0.6659
  684MOL0     O94262   2.414   0.007   1.482  0.7048  0.2469 -0.8831
  684MOL0     C94263   2.391  -0.023   1.622  0.5071 -0.4627 -0.2578
  684MOL0     C94264   2.528  -0.039   1.695  0.5959  0.0945  1.2213
  684MOL0     C94265   2.569  -0.191   1.682 -0.0080 -0.3820 -0.0383
  684MOL0     C94266   2.557  -0.264   1.817  0.1165 -0.9820  0.0813
  684MOL0     C94267   2.607  -0.417   1.806  0.1083  0.2366 -0.3475
  684MOL0     C94268   2.534  -0.504   1.919  0.4742  0.8097  0.4744
  684MOL0     C94269   2.590  -0.463   2.054  1.0218 -0.6267  0.1829
  684MOL0     C94270   2.519  -0.535   2.172  0.4438  0.6701  0.5246
  684MOL0     N94271   2.538  -0.459   2.285  0.8301 -1.0324 -0.7599
  684MOL0     C94272   2.644  -0.463   2.365  0.1382 -0.8528  0.3804
  684MOL0     C94273   2.611  -0.380   2.470 -1.1253  0.8899 -1.3923
  684MOL0     C94274   2.699  -0.345   2.589  0.3327 -0.3380 -0.8190
  684MOL0     C94275   2.835  -0.278   2.546  0.5592  0.0802 -0.5904
  684MOL0     C94276   2.900  -0.200   2.668 -0.1090 -0.3797  0.0689
  684MOL0     C94277   2.963  -0.302   2.768  0.5704  0.7816 -0.9864
  684MOL0     O94278   3.015  -0.224   2.872  0.1980 -0.6780 -0.8469
  684MOL0     C94279   2.952  -0.211   2.994 -0.1450 -0.0237  1.1937
  684MOL0     C94280   2.831  -0.274   3.029  0.9437 -0.4486  1.2092
  684MOL0     C94281   2.759  -0.246   3.143 -0.2140 -0.2973  0.4048
  684MOL0     C94282   2.637  -0.333   3.161  0.0995  0.2220  0.8790
  684MOL0     C94283   2.816  -0.159   3.239  0.9850  0.2308 -0.1055
  684MOL0     C94284   2.758  -0.131   3.374 -0.6239  0.2244  0.9352
  684MOL0     O94285   2.700  -0.235   3.436 -0.2340 -0.2479 -0.3735
  684MOL0     C94286   2.610  -0.200   3.532 -0.0927  0.8962 -0.1644
  684MOL0     C94287   2.640  -0.244   3.657 -0.5172  0.0797 -0.7261
  684MOL0     C94288   2.572  -0.191   3.759 -0.5940  0.5130 -0.1066
  684MOL0     C94289   2.458  -0.103   3.745 -0.5685  0.5574 -0.2692
  684MOL0     O94290   2.388  -0.055   3.847 -0.0859 -0.4208  0.9061
  684MOL0     C94291   2.426  -0.091   3.975  0.2786 -0.1131  0.0141
  684MOL0     C94292   2.303  -0.032   4.052  0.3893 -0.2768 -0.0285
  684MOL0     C94293   2.302   0.126   4.054 -0.6873  0.3951 -0.0780
  684MOL0     C94294   2.207   0.169   3.943  0.5010  0.2490 -0.1340
  684MOL0     C94295   2.187   0.320   3.935  0.3175  0.1517  0.8630
  684MOL0     C94296   2.106   0.363   3.806  0.4249 -0.8189 -0.0563
  684MOL0     C94297   2.072   0.509   3.832 -0.2415  0.1230  0.5703
  684MOL0     C94298   1.978   0.556   3.722 -0.7529  0.3609 -0.1488
  684MOL0    Cl94299   2.081   0.569   3.566 -0.1325 -0.4690 -0.1009
  684MOL0     C94300   2.438  -0.059   3.621  0.1050 -0.8087 -0.4245
  684MOL0     C94301   2.502  -0.107   3.509  0.0664  0.0445  0.0719
  684MOL0     O94302   2.771  -0.021   3.419 -0.5753 -0.3290  1.5477
  684MOL0     C94303   2.941  -0.098   3.212  0.1870  0.0526 -0.4430
  684MOL0     C94304   3.006  -0.117   3.089  0.2950 -0.1018 -0.6194
  684MOL0     N94305   2.495  -0.315   2.437 -0.5864  0.0829  0.2173
  684MOL0     N94306   2.449  -0.369   2.333 -0.2923 -0.6623 -0.6155
  684MOL0     C94307   2.427   0.173   1.317 -0.7710 -0.3390 -0.3314
  684MOL0     C94308   2.455   0.300   1.273  0.5690 -0.4858  0.4946
  684MOL0     C94309   2.592   0.704   1.185  0.2787  0.9462 -0.3019
  684MOL0     C94310   2.653   0.782   1.288  1.3579  0.5586 -0.7275
  684MOL0     C94311   2.710   0.909   1.267  1.0371  1.1099  0.2868
  684MOL0     C94312   2.720   0.957   1.136 -0.2462 -0.9123 -0.5843
  684MOL0     O94313   2.807   1.065   1.122 -0.9211 -0.4072 -0.1741
  684MOL0     C94314   2.942   1.050   1.168  0.0475 -0.0059 -0.0601
  684MOL0     C94315   3.024   1.166   1.117 -0.3249 -0.3573 -0.5335
  684MOL0     C94316   3.172   1.142   1.160 -0.1245  0.2155  0.3125
  684MOL0     C94317   3.281   1.232   1.078  0.2296  1.0367 -0.7370
  684MOL0     C94318   3.264   1.229   0.933  0.1544 -0.6309 -0.8386
  684MOL0     C94319   3.236   1.246   0.815  0.6344  0.7090 -0.4213
  684MOL0     C94320   2.679   0.875   1.035 -0.4875 -0.0946  0.7708
  684MOL0     C94321   2.614   0.758   1.053  0.8231 -0.0361 -0.0354
  684MOL0     C94322   2.563   0.699   0.932 -0.5217  0.8366 -0.0171
  684MOL0     H94323   2.527   0.443   1.569 -0.2913  1.2533 -1.8392
  684MOL0     H94324   2.480   0.213   1.650 -1.1406  0.7871  0.6429
  684MOL0     H94325   2.343  -0.121   1.636  0.2481 -0.3517 -0.3575
  684MOL0     H94326   2.342   0.056   1.680 -0.6239 -1.8756  0.7921
  684MOL0     H94327   2.593   0.027   1.635 -2.4253  1.9043 -0.2984
  684MOL0     H94328   2.515  -0.004   1.798  0.0467  2.5741  0.3902
  684MOL0     H94329   2.529  -0.249   1.599 -0.9440 -0.5182  0.5014
  684MOL0     H94330   2.676  -0.183   1.660 -0.7812  0.5295 -4.4943
  684MOL0     H94331   2.611  -0.213   1.898  2.1117 -1.3384 -0.9558
  684MOL0     H94332   2.449  -0.262   1.832 -0.0789  1.2042 -1.1918
  684MOL0     H94333   2.715  -0.427   1.806 -0.0829 -2.3781 -0.8287
  684MOL0     H94334   2.573  -0.470   1.716 -1.5436 -2.8580  1.9253
  684MOL0     H94335   2.432  -0.466   1.927  0.7499  1.4556  1.0564
  684MOL0     H94336   2.541  -0.612   1.908 -0.4688  0.5279  2.2324
  684MOL0     H94337   2.578  -0.358   2.082  2.4816 -0.7649  1.4817
  684MOL0     H94338   2.698  -0.480   2.061  0.9614 -1.8917 -1.4316
  684MOL0     H94339   2.415  -0.557   2.148  0.4057  0.7015  0.6653
  684MOL0     H94340   2.571  -0.631   2.181  0.2825  0.5199 -0.0907
  684MOL0     H94341   2.734  -0.521   2.345  1.9179  1.5547  0.9677
  684MOL0     H94342   2.721  -0.440   2.638  2.6550  1.0999  1.2147
  684MOL0     H94343   2.647  -0.280   2.660  1.3487  0.6659 -0.9539
  684MOL0     H94344   2.901  -0.355   2.507  0.1634  1.3399 -4.0822
  684MOL0     H94345   2.807  -0.209   2.466  1.3653  1.2648  0.1262
  684MOL0     H94346   2.975  -0.134   2.624  1.4163 -1.2390  1.2812
  684MOL0     H94347   2.832  -0.138   2.727 -0.0609 -0.1793 -0.0849
  684MOL0     H94348   2.894  -0.380   2.799  2.0250  0.0631  0.5606
  684MOL0     H94349   3.050  -0.359   2.733  0.0731 -0.9227  0.4752
  684MOL0     H94350   2.785  -0.340   2.957  1.4455  1.9440 -1.4727
  684MOL0     H94351   2.649  -0.388   3.254  2.3249 -0.1824  0.3993
  684MOL0     H94352   2.611  -0.404   3.081 -1.4343  1.4812  0.2117
  684MOL0     H94353   2.555  -0.261   3.169 -1.4453 -1.3480  0.0712
  684MOL0     H94354   2.718  -0.319   3.674 -1.7016 -0.8012  1.2020
  684MOL0     H94355   2.607  -0.230   3.854 -2.7661 -3.5897 -0.7850
  684MOL0     H94356   2.415  -0.199   3.991 -2.1517 -0.1235 -1.2491
  684MOL0     H94357   2.518  -0.054   4.021 -0.5902  0.3406  1.4667
  684MOL0     H94358   2.210  -0.083   4.025  0.8032 -0.1591 -1.7926
  684MOL0     H94359   2.325  -0.052   4.158  2.5799  2.7257  0.2146
  684MOL0     H94360   2.402   0.157   4.022 -0.8553  0.2764 -0.7184
  684MOL0     H94361   2.289   0.159   4.158  1.9056 -1.9369  1.1382
  684MOL0     H94362   2.109   0.124   3.960 -0.2382  1.8454  0.0445
  684MOL0     H94363   2.245   0.143   3.844  1.4193 -1.9200  0.7233
  684MOL0     H94364   2.140   0.355   4.027 -1.1736 -0.3360  0.3139
  684MOL0     H94365   2.288   0.363   3.939  1.6440 -2.7561  0.7702
  684MOL0     H94366   2.011   0.309   3.813 -0.1299  0.1603  0.0709
  684MOL0     H94367   2.161   0.333   3.717 -2.4189  0.7794 -2.5238
  684MOL0     H94368   2.170   0.558   3.827 -1.0358  1.8223  0.8183
  684MOL0     H94369   2.024   0.523   3.929  0.4215  0.1320  0.9069
  684MOL0     H94370   1.944   0.658   3.743 -1.6468  0.3453 -1.4464
  684MOL0     H94371   1.889   0.494   3.709  0.7991 -1.6551 -1.7113
  684MOL0     H94372   2.364   0.019   3.609 -1.6225 -1.6070  3.3975
  684MOL0     H94373   2.465  -0.092   3.409 -1.7415 -0.8386  0.5648
  684MOL0     H94374   2.981  -0.022   3.278 -2.1362  1.7615 -0.8576
  684MOL0     H94375   3.097  -0.063   3.069  0.1869 -0.6097 -2.6355
  684MOL0     H94376   2.426   0.096   1.241 -2.7711 -0.3216 -0.3775
  684MOL0     H94377   2.439   0.304   1.166  3.4066 -1.3786 -0.0586
  684MOL0     H94378   2.658   0.756   1.393  1.9772 -1.4304 -1.2068
  684MOL0     H94379   2.746   0.965   1.352  1.3252  2.6875 -0.8286
  684MOL0     H94380   2.945   1.054   1.278 -0.3014  3.2421 -0.0662
  684MOL0     H94381   2.995   0.965   1.126 -2.3543 -2.0053  0.7127
  684MOL0     H94382   3.007   1.271   1.142  0.3772 -0.0864 -1.1501
  684MOL0     H94383   3.003   1.160   1.010 -5.3298  1.4444  0.0542
  684MOL0     H94384   3.198   1.161   1.264  3.0275  0.1973 -0.3545
  684MOL0     H94385   3.196   1.036   1.144 -2.2088 -0.5143  1.6875
  684MOL0     H94386   3.381   1.202   1.111 -0.9567 -0.8743  1.3658
  684MOL0     H94387   3.264   1.336   1.107 -2.4087  1.3579 -3.0009
  684MOL0     H94388   3.218   1.251   0.710 -1.1549  1.5021 -0.1102
  684MOL0     H94389   2.709   0.905   0.935 -3.5321  2.1713  0.4270
  684MOL0     H94390   2.547   0.591   0.937 -0.5220  0.5845 -3.1799
  684MOL0     H94391   2.469   0.753   0.912 -0.5210  0.3571 -1.4029
  684MOL0     H94392   2.625   0.711   0.843 -2.2725 -1.8772 -1.7284
  685MOL0     O94393   9.223   4.403   3.440 -0.0285  0.1272 -0.1749
  685MOL0     C94394   9.320   4.397   3.513  0.0843 -0.5250  0.2481
  685MOL0     O94395   9.312   4.355   3.640 -0.2495 -0.4174 -0.3206
  685MOL0     C94396   9.410   4.273   3.692 -0.0717  0.2789  0.1332
  685MOL0     C94397   9.445   4.289   3.822  0.5552 -1.0956 -0.4241
  685MOL0     C94398   9.537   4.220   3.883  0.7054 -0.6335 -0.6244
  685MOL0     C94399   9.611   4.122   3.823  1.0412 -0.9867  0.4145
  685MOL0     O94400   9.701   4.043   3.883  0.0893  0.0307 -0.0277
  685MOL0     C94401   9.690   4.047   4.029 -0.6795  0.4917 -1.3306
  685MOL0     C94402   9.745   3.913   4.084  0.2072  0.9350 -0.0572
  685MOL0     C94403   9.645   3.791   4.072 -0.2655 -0.1875  0.2814
  685MOL0     C94404   9.701   3.684   4.160  0.4353 -0.2392 -0.4428
  685MOL0     C94405   9.643   3.547   4.122  0.4836 -0.3320 -1.3357
  685MOL0     C94406   9.685   3.445   4.235 -0.1474  0.5698  0.5474
  685MOL0     C94407   9.665   3.311   4.180 -0.1822  0.1077 -0.1801
  685MOL0     C94408   9.516   3.261   4.161 -0.2078 -1.2866  0.8368
  685MOL0     N94409   9.496   3.130   4.091  1.5535 -0.2440  0.3002
  685MOL0     C94410   9.514   3.107   3.956 -1.6371 -0.2530 -0.1390
  685MOL0     C94411   9.498   2.971   3.935 -0.3122 -0.4600 -1.3002
  685MOL0     C94412   9.497   2.900   3.797 -0.3799  0.5642 -0.1065
  685MOL0     C94413   9.434   2.976   3.687  0.4079 -0.1725 -0.5040
  685MOL0     C94414   9.461   2.899   3.552 -0.5982  0.2456  0.0713
  685MOL0     C94415   9.368   2.777   3.535 -0.5051  0.0818 -1.1411
  685MOL0     O94416   9.237   2.838   3.526  0.1714 -0.2082  0.3637
  685MOL0     C94417   9.196   2.873   3.398  0.1807 -0.6355  0.3247
  685MOL0     C94418   9.064   2.925   3.376  0.3049 -0.0339 -0.8455
  685MOL0     C94419   9.014   2.971   3.253 -0.4397 -0.2951  0.3022
  685MOL0     C94420   8.869   3.017   3.259  0.4532  1.3661  0.1429
  685MOL0     C94421   9.092   2.967   3.134 -0.1105  0.6516 -0.4286
  685MOL0     C94422   9.046   3.018   3.002 -0.9892 -0.3833  0.3043
  685MOL0     O94423   9.111   2.960   2.893  0.7708 -0.5811  0.2593
  685MOL0     C94424   9.096   3.011   2.764 -0.0497 -0.1545 -1.0056
  685MOL0     C94425   9.109   2.919   2.660 -0.6035 -0.2079 -1.0830
  685MOL0     C94426   9.113   2.964   2.528 -0.4808 -1.3027  0.3013
  685MOL0     C94427   9.091   3.106   2.500  0.6304 -0.9500 -0.2428
  685MOL0     O94428   9.081   3.182   2.385 -0.9734  0.2323 -0.1420
  685MOL0     C94429   9.158   3.112   2.284 -0.0288 -1.6690  0.0042
  685MOL0     C94430   9.185   3.191   2.159 -0.0722  1.0338 -0.4523
  685MOL0     C94431   9.057   3.232   2.097 -0.0609 -0.5641  0.2926
  685MOL0     C94432   9.076   3.306   1.963 -0.4998 -0.3722 -0.2826
  685MOL0     C94433   8.946   3.294   1.870 -0.4921 -0.5909 -0.1189
  685MOL0     C94434   8.834   3.373   1.918 -0.0281  0.3678 -0.4334
  685MOL0     C94435   8.735   3.288   2.006 -0.0769 -0.4221  0.1148
  685MOL0     C94436   8.600   3.255   1.930 -0.9823 -0.5157 -0.0220
  685MOL0    Cl94437   8.629   3.208   1.758  0.2570 -0.1292 -0.2870
  685MOL0     C94438   9.086   3.190   2.603  0.3089 -0.6258 -0.3011
  685MOL0     C94439   9.095   3.146   2.734 -1.0186 -0.7610  0.1139
  685MOL0     O94440   8.959   3.105   2.988 -0.7485 -0.0577 -0.4032
  685MOL0     C94441   9.224   2.899   3.152 -0.4394 -0.1518 -1.3953
  685MOL0     C94442   9.272   2.859   3.280 -0.4231 -0.4565  0.3603
  685MOL0     N94443   9.460   2.923   4.053  0.6025 -0.6989 -0.4369
  685MOL0     N94444   9.459   3.009   4.150 -1.1856  0.2565 -0.4157
  685MOL0     C94445   9.587   4.102   3.682 -0.3422  0.1036  0.0945
  685MOL0     C94446   9.495   4.184   3.620  0.6571  0.0265  0.4689
  685MOL0     C94447   9.440   4.440   3.444 -1.0636 -0.3704 -0.4950
  685MOL0     C94448   9.496   4.365   3.345  0.8120  0.2323  0.3117
  685MOL0     C94449   9.617   4.394   3.270  0.3072  0.6305 -0.5126
  685MOL0     C94450   9.683   4.512   3.309 -0.2621 -0.9605 -0.0935
  685MOL0     O94451   9.807   4.521   3.256 -0.6069 -0.7448 -0.4040
  685MOL0     C94452   9.910   4.580   3.335  0.6692  0.0087  1.0385
  685MOL0     C94453  10.028   4.491   3.325  0.5355  0.0350 -0.0163
  685MOL0     C94454  10.009   4.384   3.440  0.7489  0.5100 -0.0953
  685MOL0     C94455  10.052   4.452   3.569 -0.9735  0.0929 -0.1593
  685MOL0     C94456   9.971   4.411   3.680 -0.1080  0.3834 -0.1162
  685MOL0     C94457   9.900   4.372   3.765  0.0378 -0.4161 -0.6548
  685MOL0     C94458   9.627   4.595   3.398 -0.2033 -0.2170 -0.5146
  685MOL0     C94459   9.507   4.559   3.467  0.4829 -0.7133 -0.6674
  685MOL0     C94460   9.453   4.644   3.586  0.6229 -0.1375  0.4284
  685MOL0     H94461   9.387   4.362   3.878  0.4970 -1.0008 -0.6085
  685MOL0     H94462   9.559   4.259   3.982 -1.3414  1.8893 -1.0409
  685MOL0     H94463   9.589   4.066   4.065 -0.5906  1.8207 -1.7110
  685MOL0     H94464   9.752   4.128   4.071 -2.4247  0.1347  2.3267
  685MOL0     H94465   9.840   3.879   4.042  0.0243 -2.7192  2.0473
  685MOL0     H94466   9.766   3.933   4.190  2.4589  0.5799 -0.3805
  685MOL0     H94467   9.545   3.823   4.100  0.7993  0.3148  4.1176
  685MOL0     H94468   9.640   3.759   3.968  0.7060  2.5206 -0.7129
  685MOL0     H94469   9.810   3.683   4.151  0.6368 -2.2971  1.4551
  685MOL0     H94470   9.667   3.702   4.262 -2.6975  0.6363 -1.5076
  685MOL0     H94471   9.673   3.519   4.021  3.5013 -2.6574  0.0506
  685MOL0     H94472   9.534   3.553   4.121  0.1935 -3.8758 -1.2042
  685MOL0     H94473   9.784   3.464   4.277 -1.2801  1.6803  2.8860
  685MOL0     H94474   9.616   3.465   4.318  0.4686 -0.7442  1.4153
  685MOL0     H94475   9.718   3.251   4.253  1.4157  1.1806 -0.3966
  685MOL0     H94476   9.721   3.301   4.087  1.5551 -2.3069  1.0567
  685MOL0     H94477   9.452   3.268   4.249 -2.6503  1.4122 -0.9841
  685MOL0     H94478   9.475   3.332   4.089  1.4231 -1.0480  0.0884
  685MOL0     H94479   9.525   3.179   3.875 -2.6089  0.4119  0.3014
  685MOL0     H94480   9.448   2.802   3.802  0.2466  0.3054  2.2843
  685MOL0     H94481   9.603   2.874   3.784 -0.5241 -0.0185 -0.1564
  685MOL0     H94482   9.328   2.987   3.714  0.1254  0.9292 -1.9344
  685MOL0     H94483   9.474   3.078   3.682 -1.1324  0.4486 -0.7536
  685MOL0     H94484   9.419   2.967   3.477  0.3140  0.5224 -0.1912
  685MOL0     H94485   9.567   2.881   3.532 -0.9082 -0.2983 -1.2615
  685MOL0     H94486   9.405   2.717   3.451  1.0398  1.6713 -1.6607
  685MOL0     H94487   9.374   2.705   3.617 -1.6902 -1.1464 -2.0990
  685MOL0     H94488   9.008   2.913   3.469 -2.5352 -0.8372 -2.5407
  685MOL0     H94489   8.817   2.986   3.168  3.4802  2.3847 -2.0996
  685MOL0     H94490   8.869   3.125   3.271  2.0860  1.4505 -0.3038
  685MOL0     H94491   8.828   2.974   3.351  0.4700  1.6044  0.2625
  685MOL0     H94492   9.148   2.819   2.677 -1.0291  0.2465  4.1102
  685MOL0     H94493   9.115   2.891   2.447 -1.2565  0.3799 -1.2974
  685MOL0     H94494   9.257   3.098   2.328 -0.3321 -1.2622  0.8359
  685MOL0     H94495   9.113   3.016   2.259 -0.7420 -1.3353 -0.0149
  685MOL0     H94496   9.253   3.271   2.188  1.0199 -0.3857  1.1258
  685MOL0     H94497   9.228   3.128   2.080  0.4659 -1.0217  1.3731
  685MOL0     H94498   8.999   3.300   2.160  0.5309  0.5334 -0.3140
  685MOL0     H94499   8.992   3.144   2.083  0.9883 -0.9895 -2.4918
  685MOL0     H94500   9.166   3.266   1.916  0.8153  0.3871  1.4642
  685MOL0     H94501   9.107   3.407   1.991 -3.2596  0.5458 -0.2759
  685MOL0     H94502   8.974   3.345   1.777  2.8850  0.7069  1.4344
  685MOL0     H94503   8.928   3.187   1.858 -0.6455 -0.7733  1.5451
  685MOL0     H94504   8.766   3.411   1.840 -1.1590 -0.7585 -0.0418
  685MOL0     H94505   8.859   3.469   1.965  0.1560 -1.1103  2.7193
  685MOL0     H94506   8.711   3.348   2.094  0.2920 -1.6399  1.0816
  685MOL0     H94507   8.761   3.192   2.052 -2.0948 -0.4441  1.3594
  685MOL0     H94508   8.539   3.346   1.937 -0.5544 -0.2661  0.4790
  685MOL0     H94509   8.557   3.168   1.979  1.5365 -1.2478  1.0276
  685MOL0     H94510   9.072   3.295   2.580  0.7374 -0.6443 -0.6755
  685MOL0     H94511   9.095   3.221   2.813  0.9271 -1.0618  0.4431
  685MOL0     H94512   9.289   2.890   3.066 -0.6492  0.0299 -1.5749
  685MOL0     H94513   9.365   2.802   3.285 -0.8803 -1.1422  3.4902
  685MOL0     H94514   9.660   4.034   3.639  0.6062 -0.0919  1.9319
  685MOL0     H94515   9.488   4.172   3.513 -0.2855 -1.4570  0.6611
  685MOL0     H94516   9.444   4.273   3.319  0.9239  0.3146 -0.2277
  685MOL0     H94517   9.659   4.330   3.194  2.1852  2.5946 -1.2225
  685MOL0     H94518   9.943   4.663   3.271  1.0814 -1.5371 -0.8732
  685MOL0     H94519   9.885   4.612   3.436  0.7488  3.2386  0.1408
  685MOL0     H94520  10.114   4.557   3.340 -2.0939  4.2960 -1.7807
  685MOL0     H94521  10.025   4.448   3.225  0.1838  1.6338 -0.7394
  685MOL0     H94522   9.910   4.339   3.455  0.6728  0.2204 -1.3594
  685MOL0     H94523  10.082   4.304   3.430  2.8656  2.4664 -1.2432
  685MOL0     H94524  10.048   4.561   3.563  0.7978  0.0978 -4.5072
  685MOL0     H94525  10.155   4.423   3.593 -1.8222 -0.2936  3.6943
  685MOL0     H94526   9.858   4.318   3.847  1.8026 -0.2554  0.3912
  685MOL0     H94527   9.691   4.679   3.424  2.0165 -0.9633 -3.0917
  685MOL0     H94528   9.354   4.681   3.556 -0.0888 -1.9747  0.4183
  685MOL0     H94529   9.449   4.578   3.673 -0.8474 -2.1215 -1.0365
  685MOL0     H94530   9.507   4.731   3.623  0.8533 -0.5884  1.1683
  686MOL0     O94531   2.809   7.197   9.507 -0.0424 -0.6988 -0.4835
  686MOL0     C94532   2.820   7.071   9.494  0.7677  0.3527  0.4442
  686MOL0     O94533   2.714   6.994   9.513 -0.2160 -0.1634 -0.3868
  686MOL0     C94534   2.608   7.040   9.588  0.6832 -0.8850  0.0001
  686MOL0     C94535   2.607   7.041   9.722  0.3148 -1.0920  0.7380
  686MOL0     C94536   2.498   7.087   9.796  0.8469 -1.0216  0.0925
  686MOL0     C94537   2.389   7.140   9.740 -0.4205  0.7572 -0.4226
  686MOL0     O94538   2.282   7.180   9.809  0.8333  0.8354  0.4469
  686MOL0     C94539   2.233   7.090   9.903 -0.5631 -0.8017 -0.4362
  686MOL0     C94540   2.097   7.128   9.950  0.4772  0.1285 -0.4953
  686MOL0     C94541   2.083   7.262  10.030 -0.5106  0.5226 -0.0892
  686MOL0     C94542   2.157   7.253  10.173  0.7594 -0.2733  0.0590
  686MOL0     C94543   2.141   7.394  10.254 -0.4476  0.2626 -0.2295
  686MOL0     C94544   2.172   7.525  10.172 -0.9369  0.8942 -0.7761
  686MOL0     C94545   2.206   7.650  10.258  0.3756  0.4851  0.0463
  686MOL0     C94546   2.336   7.647  10.317 -0.6334 -0.4538 -1.0651
  686MOL0     N94547   2.349   7.768  10.394  0.0435 -0.9092 -0.0429
  686MOL0     C94548   2.394   7.880  10.342  0.1218 -0.1928  0.1000
  686MOL0     C94549   2.381   7.974  10.436  0.6642  0.7191 -0.1041
  686MOL0     C94550   2.395   8.127  10.430 -0.1677  0.0759 -0.0214
  686MOL0     C94551   2.269   8.186  10.497 -0.1744 -0.6658 -0.2891
  686MOL0     C94552   2.136   8.185  10.406 -1.0260 -0.0792 -0.2654
  686MOL0     C94553   2.044   8.072  10.448 -0.0125  0.9360  0.5497
  686MOL0     O94554   1.994   8.098  10.580 -0.0094  0.1869 -0.1179
  686MOL0     C94555   1.909   8.017  10.653 -0.7159 -0.6675 -0.2986
  686MOL0     C94556   1.878   8.068  10.782  0.2800 -0.5330 -0.5682
  686MOL0     C94557   1.784   7.998  10.861 -0.4715  0.1298  0.5236
  686MOL0     C94558   1.721   8.076  10.973 -0.0050  0.1833  0.3769
  686MOL0     C94559   1.726   7.876  10.807  0.2297  0.5986 -0.6659
  686MOL0     C94560   1.626   7.791  10.879 -1.1098 -0.1348  0.0914
  686MOL0     O94561   1.648   7.768  11.014  0.5827 -0.4807 -0.7921
  686MOL0     C94562   1.543   7.711  11.086 -0.1168  0.4940 -0.4223
  686MOL0     C94563   1.403   7.732  11.087  0.3784 -0.1439 -0.1228
  686MOL0     C94564   1.312   7.660  11.170 -0.1024 -0.3311 -0.3322
  686MOL0     C94565   1.374   7.573  11.266  0.4268 -0.1499  0.9133
  686MOL0     O94566   1.300   7.494  11.343  0.1967 -0.4806  0.6766
  686MOL0     C94567   1.152   7.523  11.367 -0.6037 -0.1326  0.9467
  686MOL0     C94568   1.103   7.397  11.448 -0.4060 -0.1609 -0.6629
  686MOL0     C94569   0.958   7.416  11.503 -0.2568 -0.4183  0.6527
  686MOL0     C94570   0.855   7.471  11.398 -0.3114  0.2484  0.7319
  686MOL0     C94571   0.716   7.474  11.464 -0.2359 -0.1486 -0.6605
  686MOL0     C94572   0.667   7.330  11.496 -0.0973  0.4194 -0.4106
  686MOL0     C94573   0.598   7.267  11.383 -0.0003 -0.3046  0.2657
  686MOL0     C94574   0.571   7.115  11.412 -0.2833  0.3408  0.6074
  686MOL0    Cl94575   0.445   7.096  11.543  0.2960 -0.3031 -0.2922
  686MOL0     C94576   1.517   7.574  11.286  1.2974 -0.7022 -0.4813
  686MOL0     C94577   1.592   7.657  11.202  0.2889 -0.4866  0.3712
  686MOL0     O94578   1.543   7.725  10.814  0.3198 -0.1731  0.1054
  686MOL0     C94579   1.763   7.833  10.684 -0.4036  0.2034  1.3421
  686MOL0     C94580   1.859   7.894  10.606  0.5360  0.1680 -0.2933
  686MOL0     N94581   2.346   7.907  10.557 -0.4706  0.4525 -0.3563
  686MOL0     N94582   2.314   7.784  10.523  0.0718  0.8273  0.1156
  686MOL0     C94583   2.391   7.159   9.601 -0.3016 -1.2763  0.1282
  686MOL0     C94584   2.501   7.105   9.525 -0.3183  0.0143 -0.6526
  686MOL0     C94585   2.943   7.004   9.445  0.1375 -0.0226  0.7809
  686MOL0     C94586   2.934   6.881   9.387  0.6283  0.3997  0.3107
  686MOL0     C94587   3.050   6.816   9.337  0.3155  0.9842 -0.8283
  686MOL0     C94588   3.167   6.872   9.333  0.4064  0.3696  0.0261
  686MOL0     O94589   3.271   6.800   9.283 -0.6000 -0.3074  0.1278
  686MOL0     C94590   3.397   6.857   9.253 -0.6656 -0.1611  0.0173
  686MOL0     C94591   3.501   6.743   9.219  1.3107  0.0509  0.0535
  686MOL0     C94592   3.602   6.802   9.122  0.3315 -0.1317  0.2123
  686MOL0     C94593   3.696   6.906   9.173 -0.5033 -0.1122 -0.4511
  686MOL0     C94594   3.756   6.856   9.293 -0.2168 -0.0966  0.7919
  686MOL0     C94595   3.809   6.830   9.393  0.9399  0.1235 -0.6355
  686MOL0     C94596   3.179   6.997   9.392 -0.7031 -0.0307  0.0801
  686MOL0     C94597   3.074   7.063   9.453  0.0723 -0.4040  0.1094
  686MOL0     C94598   3.096   7.193   9.520 -0.1552 -0.3679  0.1723
  686MOL0     H94599   2.689   7.000   9.779  0.2186  0.1019  1.7958
  686MOL0     H94600   2.507   7.069   9.903  1.5397  0.9553  0.4167
  686MOL0     H94601   2.299   7.092   9.991 -2.5169 -1.6348  1.1475
  686MOL0     H94602   2.230   6.989   9.861  1.0452 -2.2818  2.6094
  686MOL0     H94603   2.024   7.144   9.870  0.4795  1.8182 -0.1906
  686MOL0     H94604   2.060   7.060  10.027  3.6201 -1.5749 -0.3281
  686MOL0     H94605   2.122   7.348   9.974 -1.5269  1.8592  1.1698
  686MOL0     H94606   1.975   7.279  10.042 -0.9233 -2.8717  2.7552
  686MOL0     H94607   2.134   7.163  10.232  4.0013 -1.1166  0.2339
  686MOL0     H94608   2.266   7.243  10.162  0.8870  2.8214 -3.7086
  686MOL0     H94609   2.198   7.401  10.347 -0.2541  2.2662 -0.4491
  686MOL0     H94610   2.035   7.406  10.278 -0.3029  1.1894  0.0165
  686MOL0     H94611   2.259   7.505  10.109 -1.5351  0.0268 -1.3503
  686MOL0     H94612   2.092   7.540  10.100 -0.3280  1.2376 -1.3922
  686MOL0     H94613   2.150   7.667  10.350 -0.3293  0.7569 -0.4242
  686MOL0     H94614   2.189   7.735  10.191 -1.2555  1.0587  1.1150
  686MOL0     H94615   2.348   7.555  10.375  1.8460 -0.2940 -1.2269
  686MOL0     H94616   2.410   7.638  10.237 -0.3238  1.0048 -0.9633
  686MOL0     H94617   2.433   7.894  10.241  2.1180 -1.1813  0.6710
  686MOL0     H94618   2.401   8.168  10.328 -2.6597 -2.2800 -1.2584
  686MOL0     H94619   2.488   8.132  10.487 -1.3116 -2.4179  2.2336
  686MOL0     H94620   2.240   8.140  10.592 -3.8387  0.7246 -0.5644
  686MOL0     H94621   2.297   8.290  10.516  3.5425 -1.8854  1.9346
  686MOL0     H94622   2.069   8.268  10.426 -2.8689 -1.5172 -0.2074
  686MOL0     H94623   2.158   8.180  10.299 -1.4237  1.0171 -0.4031
  686MOL0     H94624   1.962   8.060  10.376  0.8026 -1.2793 -0.1054
  686MOL0     H94625   2.093   7.975  10.435  0.6574  1.1724  1.2788
  686MOL0     H94626   1.924   8.153  10.832 -1.6022  0.9577 -1.2038
  686MOL0     H94627   1.692   8.176  10.938  1.2020  0.5971  0.4996
  686MOL0     H94628   1.794   8.078  11.054 -0.4850 -1.5347  0.8819
  686MOL0     H94629   1.629   8.032  11.012  0.0267  1.2761  1.7611
  686MOL0     H94630   1.367   7.788  11.002 -2.0764 -0.7653  0.4306
  686MOL0     H94631   1.205   7.675  11.164 -0.0959  0.2591  0.7904
  686MOL0     H94632   1.129   7.620  11.411  1.3409  0.3140  1.0691
  686MOL0     H94633   1.109   7.510  11.267  1.4004 -1.4671  0.1944
  686MOL0     H94634   1.094   7.317  11.374 -1.6815  0.8976 -1.7068
  686MOL0     H94635   1.160   7.370  11.537 -1.4416 -1.8400 -0.4703
  686MOL0     H94636   0.957   7.483  11.590 -1.9502  3.1518 -1.8740
  686MOL0     H94637   0.931   7.314  11.534 -0.9415 -0.1175  1.0740
  686MOL0     H94638   0.853   7.420  11.301 -1.6834  1.8623 -0.1484
  686MOL0     H94639   0.886   7.572  11.370  1.8386 -0.6113 -0.1793
  686MOL0     H94640   0.720   7.533  11.556 -0.5054  0.4592 -1.0271
  686MOL0     H94641   0.641   7.518  11.397 -2.7830 -2.3930  0.5042
  686MOL0     H94642   0.590   7.356  11.569  1.3226  2.2717  0.5287
  686MOL0     H94643   0.739   7.267  11.547 -0.8283  1.6532  2.3232
  686MOL0     H94644   0.666   7.277  11.299 -0.3369  1.1700  0.1533
  686MOL0     H94645   0.508   7.322  11.356  0.4616 -0.8653 -2.6976
  686MOL0     H94646   0.665   7.064  11.434  0.1078  0.5234 -0.5416
  686MOL0     H94647   0.541   7.065  11.320 -1.2227  1.5302  0.2498
  686MOL0     H94648   1.561   7.499  11.351  1.3578 -2.2301 -2.2272
  686MOL0     H94649   1.699   7.663  11.218  0.5222  5.5510 -0.9246
  686MOL0     H94650   1.730   7.742  10.634 -0.5263 -0.8707  3.2526
  686MOL0     H94651   1.899   7.847  10.517  0.1857 -0.8000  0.0448
  686MOL0     H94652   2.311   7.214   9.552  0.3567 -2.0133 -1.8388
  686MOL0     H94653   2.520   7.124   9.420  1.1908  3.1200  0.0554
  686MOL0     H94654   2.838   6.829   9.390  2.2631 -2.9907 -1.0690
  686MOL0     H94655   3.059   6.715   9.298  0.7322  0.3583  0.7892
  686MOL0     H94656   3.387   6.925   9.168 -1.5035  0.6176  0.7160
  686MOL0     H94657   3.446   6.918   9.329  0.9351  0.2343 -1.2684
  686MOL0     H94658   3.447   6.665   9.165  1.1178  1.2583 -1.5822
  686MOL0     H94659   3.547   6.704   9.310 -1.3913  1.2120  2.0566
  686MOL0     H94660   3.665   6.722   9.082  0.6061  0.2014 -0.0341
  686MOL0     H94661   3.546   6.843   9.037 -0.0545 -3.4722 -1.3157
  686MOL0     H94662   3.641   6.999   9.189 -0.4367  0.3741 -2.7241
  686MOL0     H94663   3.766   6.923   9.090 -2.8748  0.1921 -2.5324
  686MOL0     H94664   3.832   6.794   9.491 -2.7381 -1.7228 -0.2572
  686MOL0     H94665   3.269   7.058   9.386 -0.2754 -0.5784  0.8064
  686MOL0     H94666   3.049   7.278   9.470 -0.4526 -1.5129 -1.5664
  686MOL0     H94667   3.062   7.188   9.624  0.2917  2.4344  0.5310
  686MOL0     H94668   3.202   7.218   9.530 -0.3176  0.1563  0.6758
  687MOL0     O94669   4.958   2.513  10.889 -0.8526  0.8691  0.2410
  687MOL0     C94670   5.049   2.511  10.803 -0.0185  0.9779 -0.5707
  687MOL0     O94671   5.042   2.561  10.674  1.6178 -0.5479  0.3046
  687MOL0     C94672   4.927   2.623  10.634  0.4041  0.6872 -0.4879
  687MOL0     C94673   4.948   2.737  10.552  0.3580 -1.0601  0.1522
  687MOL0     C94674   4.837   2.817  10.499 -0.5446  0.2134  0.3382
  687MOL0     C94675   4.709   2.776  10.529  0.3243 -0.4089  1.0864
  687MOL0     O94676   4.606   2.832  10.458  0.4606  1.1546 -0.5251
  687MOL0     C94677   4.475   2.820  10.518  0.0787  0.6045  1.2521
  687MOL0     C94678   4.375   2.897  10.431 -0.6602  0.1368  0.0261
  687MOL0     C94679   4.348   2.840  10.300  0.2374  0.4583 -0.2287
  687MOL0     C94680   4.225   2.749  10.299  0.8307  0.2707 -0.1564
  687MOL0     C94681   4.204   2.694  10.159 -0.0333 -0.4330 -0.1546
  687MOL0     C94682   4.065   2.638  10.142  0.6760  0.0468 -0.3667
  687MOL0     C94683   4.037   2.584   9.994  1.0246 -0.2356  0.0909
  687MOL0     C94684   4.078   2.438   9.956 -0.0385 -0.1157  0.4072
  687MOL0     N94685   4.040   2.416   9.816  0.4225  0.0897 -0.6539
  687MOL0     C94686   3.911   2.417   9.766  0.7759  0.0190 -0.1575
  687MOL0     C94687   3.915   2.380   9.632  0.9201 -1.0717 -0.4035
  687MOL0     C94688   3.795   2.331   9.551  0.0818  0.2649  1.1974
  687MOL0     C94689   3.758   2.183   9.571 -0.6744 -1.1332 -0.4035
  687MOL0     C94690   3.649   2.127   9.493  0.5575  1.3757  0.0096
  687MOL0     C94691   3.629   1.976   9.525  0.6965  0.1203  0.7366
  687MOL0     O94692   3.723   1.891   9.461  0.8242  0.2584  0.3858
  687MOL0     C94693   3.731   1.768   9.524 -0.5848  0.8054 -0.0626
  687MOL0     C94694   3.867   1.710   9.542 -0.2321 -0.1616 -0.1324
  687MOL0     C94695   3.886   1.607   9.623  0.0244  0.7585 -0.8144
  687MOL0     C94696   4.033   1.565   9.647  0.4928  1.0753  0.4925
  687MOL0     C94697   3.784   1.543   9.688 -0.0802  0.0934  0.2234
  687MOL0     C94698   3.801   1.427   9.776  0.1705 -0.6572 -1.4099
  687MOL0     O94699   3.896   1.425   9.870 -0.1234 -0.3761 -0.2929
  687MOL0     C94700   3.924   1.306   9.928 -0.4914  0.0081 -0.4527
  687MOL0     C94701   3.892   1.291  10.062  0.3821  0.0202  0.3050
  687MOL0     C94702   3.928   1.180  10.139 -0.5428 -0.9703 -0.0269
  687MOL0     C94703   3.985   1.069  10.069 -0.3445 -0.7750  0.4052
  687MOL0     O94704   4.017   0.968  10.147  0.4193  0.4985 -0.3036
  687MOL0     C94705   4.078   0.842  10.098  0.4093 -0.0739 -0.0066
  687MOL0     C94706   4.050   0.738  10.206  0.1380 -0.7759  0.2404
  687MOL0     C94707   4.094   0.601  10.155  0.0820  0.3441  0.2352
  687MOL0     C94708   4.061   0.482  10.245  0.8671  0.9295  0.3874
  687MOL0     C94709   4.107   0.502  10.384  0.5430  0.3757 -0.4456
  687MOL0     C94710   4.259   0.523  10.390 -0.2902 -0.3900 -0.7464
  687MOL0     C94711   4.296   0.563  10.537 -0.4092 -0.4753 -0.2940
  687MOL0     C94712   4.453   0.590  10.550  0.5228  0.7138  0.5059
  687MOL0    Cl94713   4.522   0.422  10.549  0.1386  0.1473  0.2896
  687MOL0     C94714   4.008   1.086   9.935 -0.1780  0.6700  0.2759
  687MOL0     C94715   3.978   1.204   9.866 -0.4721  0.3956 -0.9356
  687MOL0     O94716   3.726   1.334   9.770  0.2383  0.1072  0.1789
  687MOL0     C94717   3.657   1.584   9.660  0.1169 -0.9360 -1.3089
  687MOL0     C94718   3.626   1.695   9.583  0.7374 -0.0483  1.1504
  687MOL0     N94719   4.049   2.359   9.601 -0.0185 -0.1094  0.8293
  687MOL0     N94720   4.118   2.398   9.704 -0.1781 -0.0312 -0.0240
  687MOL0     C94721   4.691   2.659  10.615  0.2651  0.0909  1.3349
  687MOL0     C94722   4.797   2.579  10.650  0.1109 -0.3871  0.0583
  687MOL0     C94723   5.174   2.436  10.832  0.0935 -0.2650 -0.6867
  687MOL0     C94724   5.296   2.498  10.808 -0.3548 -0.1305  0.5502
  687MOL0     C94725   5.420   2.433  10.825 -0.4680  0.0744  0.4148
  687MOL0     C94726   5.429   2.303  10.861 -0.2485 -0.1734 -0.3782
  687MOL0     O94727   5.539   2.220  10.872  0.7159  0.5477  0.0890
  687MOL0     C94728   5.671   2.264  10.871  0.1377  0.7546  0.2427
  687MOL0     C94729   5.727   2.214  10.993 -0.5883  1.5305 -0.6362
  687MOL0     C94730   5.884   2.241  11.000  0.7184 -0.7429 -0.4032
  687MOL0     C94731   5.935   2.197  11.137 -0.5583 -0.9411  0.3973
  687MOL0     C94732   5.867   2.254  11.254 -0.5459 -0.8936 -0.0734
  687MOL0     C94733   5.807   2.290  11.341 -0.1157 -0.4524 -0.4655
  687MOL0     C94734   5.301   2.234  10.869  0.7805  0.7634 -0.9389
  687MOL0     C94735   5.183   2.297  10.862  0.9218 -1.1787  0.0338
  687MOL0     C94736   5.060   2.212  10.874 -0.3423  0.3055  0.2883
  687MOL0     H94737   5.049   2.762  10.520 -0.5073  1.4905 -0.9133
  687MOL0     H94738   4.847   2.908  10.440  1.0623 -0.6253 -0.7730
  687MOL0     H94739   4.480   2.860  10.620  1.5487  0.2957  1.3233
  687MOL0     H94740   4.440   2.717  10.522 -1.2748  1.0273  1.0880
  687MOL0     H94741   4.283   2.909  10.488 -0.6309 -1.6672  0.5074
  687MOL0     H94742   4.407   3.000  10.413 -2.1808  0.7609  0.7086
  687MOL0     H94743   4.338   2.916  10.222 -4.1913 -1.6100 -1.9718
  687MOL0     H94744   4.432   2.773  10.280 -1.7007 -3.0498  2.2036
  687MOL0     H94745   4.229   2.671  10.375  0.0805  1.9717  1.7371
  687MOL0     H94746   4.138   2.807  10.334  0.1168 -1.6964  1.5245
  687MOL0     H94747   4.276   2.621  10.121 -0.6809 -0.4198 -1.4869
  687MOL0     H94748   4.203   2.776  10.087  1.8759  0.9610  1.3215
  687MOL0     H94749   4.048   2.560  10.217  1.2338 -0.5644 -0.8532
  687MOL0     H94750   3.990   2.715  10.165  1.1531  1.3724 -2.8606
  687MOL0     H94751   4.081   2.649   9.918 -1.5514 -2.1433 -3.3087
  687MOL0     H94752   3.930   2.591   9.974  1.5641 -0.8282 -3.7230
  687MOL0     H94753   4.188   2.440   9.957  0.0801 -0.7854 -2.4626
  687MOL0     H94754   4.033   2.356  10.013 -0.1567 -0.4061 -0.1021
  687MOL0     H94755   3.825   2.426   9.831  1.5811  0.5879  0.8548
  687MOL0     H94756   3.815   2.357   9.446 -2.1216  2.8525  1.3163
  687MOL0     H94757   3.706   2.388   9.578 -0.7132 -1.2847  1.9882
  687MOL0     H94758   3.851   2.128   9.554  1.6933  1.4156  2.9812
  687MOL0     H94759   3.725   2.172   9.675  0.6679 -0.2961  0.1389
  687MOL0     H94760   3.553   2.174   9.517  0.6684  1.2268  0.7528
  687MOL0     H94761   3.681   2.141   9.389 -0.6482  2.1713 -0.2706
  687MOL0     H94762   3.642   1.960   9.633 -1.2227  1.4250  1.2215
  687MOL0     H94763   3.530   1.943   9.494  1.0201 -1.5695  1.4046
  687MOL0     H94764   3.944   1.770   9.495 -2.1603  2.1107 -0.6252
  687MOL0     H94765   4.101   1.625   9.587  2.0235  0.5275  1.6220
  687MOL0     H94766   4.052   1.462   9.615 -2.2809  0.8769 -0.8907
  687MOL0     H94767   4.074   1.575   9.747  1.9425  3.8647 -0.2930
  687MOL0     H94768   3.829   1.368  10.104  1.3109  0.8369  0.2328
  687MOL0     H94769   3.901   1.175  10.245 -1.1603  0.1222 -0.1234
  687MOL0     H94770   4.035   0.822  10.000 -1.4276  2.1457  0.2723
  687MOL0     H94771   4.186   0.854  10.087  0.5472  0.2744  1.4227
  687MOL0     H94772   4.107   0.762  10.296  1.1522  0.9450 -0.8258
  687MOL0     H94773   3.945   0.730  10.236  0.5383 -1.6562  1.5132
  687MOL0     H94774   4.202   0.607  10.139  0.0108  2.0892  0.1874
  687MOL0     H94775   4.044   0.582  10.060  0.4100  1.0167 -0.0728
  687MOL0     H94776   4.103   0.393  10.198 -3.9628 -2.0330  1.0530
  687MOL0     H94777   3.953   0.472  10.257  0.9720  0.0014  0.5882
  687MOL0     H94778   4.047   0.583  10.427 -4.8252 -3.2702 -0.1346
  687MOL0     H94779   4.087   0.416  10.449  2.6266  0.9204  1.0482
  687MOL0     H94780   4.294   0.607  10.330 -1.8192  2.6362  2.2613
  687MOL0     H94781   4.309   0.431  10.361 -0.8044 -1.2107  0.8553
  687MOL0     H94782   4.264   0.480  10.601 -1.9476  0.1489 -0.2193
  687MOL0     H94783   4.245   0.652  10.573  1.6701  1.3585 -1.6092
  687MOL0     H94784   4.482   0.626  10.649 -1.9326  1.8868  0.8854
  687MOL0     H94785   4.494   0.653  10.471  0.3193 -0.7878 -0.8438
  687MOL0     H94786   4.059   1.007   9.880 -2.0420  0.7621 -1.7003
  687MOL0     H94787   3.979   1.202   9.758  1.0257  0.0459 -0.9323
  687MOL0     H94788   3.579   1.528   9.709 -0.7923 -0.7127 -2.4556
  687MOL0     H94789   3.521   1.720   9.568  0.8306 -0.4212 -0.1937
  687MOL0     H94790   4.597   2.617  10.649  1.0892 -1.1105  2.2009
  687MOL0     H94791   4.784   2.492  10.713  0.7939  0.4308  1.3909
  687MOL0     H94792   5.300   2.596  10.760 -0.7116  0.3950  1.5558
  687MOL0     H94793   5.507   2.497  10.808 -0.4879  0.1454  0.5786
  687MOL0     H94794   5.716   2.215  10.784  3.1530  1.0097  1.5180
  687MOL0     H94795   5.685   2.372  10.864  2.0314  0.4208 -2.7618
  687MOL0     H94796   5.711   2.106  11.006 -2.7255  1.7630 -1.0338
  687MOL0     H94797   5.663   2.251  11.073 -0.0538  1.0556  0.0246
  687MOL0     H94798   5.946   2.197  10.922 -0.5821 -2.6338 -0.4234
  687MOL0     H94799   5.898   2.350  10.998  2.3688 -0.9308 -0.1954
  687MOL0     H94800   6.042   2.206  11.159 -0.6750 -0.9760  0.9900
  687MOL0     H94801   5.929   2.088  11.139 -0.6594 -0.9578 -0.4830
  687MOL0     H94802   5.757   2.336  11.424 -2.4262  0.4753 -2.2619
  687MOL0     H94803   5.298   2.125  10.874 -1.5563  0.8439  2.5425
  687MOL0     H94804   5.067   2.136  10.796 -0.0668 -0.9387  1.4981
  687MOL0     H94805   5.055   2.162  10.971 -0.7618  0.4289  0.3321
  687MOL0     H94806   4.966   2.264  10.851  0.1696  2.8215  3.2767
  688MOL0     O94807   0.826   4.812   6.898 -0.7971  0.1976 -0.3814
  688MOL0     C94808   0.881   4.711   6.924  0.8415  0.5872 -0.0074
  688MOL0     O94809   1.012   4.679   6.887 -1.1022 -0.1211  0.0805
  688MOL0     C94810   1.114   4.759   6.842  0.5401 -0.3240 -0.4720
  688MOL0     C94811   1.212   4.706   6.771  0.0361  0.9631  0.6351
  688MOL0     C94812   1.308   4.788   6.692  0.5969 -0.7211 -0.1665
  688MOL0     C94813   1.313   4.928   6.708  0.5042 -0.8823 -1.0221
  688MOL0     O94814   1.413   4.988   6.630  0.3940 -0.1119  0.3068
  688MOL0     C94815   1.486   5.103   6.687 -0.0494 -0.0217 -0.3372
  688MOL0     C94816   1.505   5.214   6.580 -0.0773  0.1175  0.8097
  688MOL0     C94817   1.605   5.164   6.482  0.4316  0.6951  0.1375
  688MOL0     C94818   1.616   5.272   6.379 -0.5952  0.9236  0.1606
  688MOL0     C94819   1.727   5.241   6.273  0.5482 -0.7999 -0.0553
  688MOL0     C94820   1.869   5.254   6.325  0.4452 -0.4277 -0.2295
  688MOL0     C94821   1.970   5.257   6.208 -0.6754  0.1689 -0.2122
  688MOL0     C94822   1.977   5.132   6.113 -1.1931  0.1177  1.0847
  688MOL0     N94823   2.089   5.157   6.019  0.8539 -0.3608  0.7793
  688MOL0     C94824   2.089   5.244   5.905 -0.9464  1.0295  0.1032
  688MOL0     C94825   2.214   5.214   5.850 -0.8377 -0.6508  0.1623
  688MOL0     C94826   2.282   5.283   5.742 -0.1868 -0.1342  0.1827
  688MOL0     C94827   2.291   5.196   5.607  0.0089  0.8267  0.0008
  688MOL0     C94828   2.411   5.113   5.600 -0.7351  0.5908 -0.2891
  688MOL0     C94829   2.426   5.042   5.462  0.1604 -0.4149 -0.5512
  688MOL0     O94830   2.569   5.008   5.456 -0.6590 -0.2562 -0.0501
  688MOL0     C94831   2.613   4.962   5.340 -0.5363 -1.2191 -0.1699
  688MOL0     C94832   2.535   4.900   5.247 -0.2002  0.2129  0.5814
  688MOL0     C94833   2.587   4.843   5.125  0.2700 -0.3297  0.5642
  688MOL0     C94834   2.488   4.786   5.022  0.1934  0.7305  0.9669
  688MOL0     C94835   2.729   4.856   5.098  0.0143 -0.0907 -0.6552
  688MOL0     C94836   2.794   4.810   4.972  0.2729 -1.0826 -0.4547
  688MOL0     O94837   2.724   4.745   4.870 -0.2052 -0.3309  0.8352
  688MOL0     C94838   2.812   4.697   4.770  0.5979  0.8757 -0.2889
  688MOL0     C94839   2.827   4.759   4.650  1.1595 -0.2525 -0.9528
  688MOL0     C94840   2.888   4.700   4.537 -0.5477  0.1880  0.2152
  688MOL0     C94841   2.930   4.569   4.547 -0.0108  0.2117 -0.1069
  688MOL0     O94842   2.996   4.514   4.439  1.0213  0.1409 -0.2667
  688MOL0     C94843   3.123   4.455   4.457  0.2162 -0.3049  1.0047
  688MOL0     C94844   3.165   4.433   4.316  0.1233 -0.4214  0.4596
  688MOL0     C94845   3.282   4.352   4.315 -0.3829 -0.1681 -0.2286
  688MOL0     C94846   3.366   4.380   4.183  0.1595  0.3465  0.0809
  688MOL0     C94847   3.482   4.272   4.180  0.0170 -1.0486  0.0122
  688MOL0     C94848   3.593   4.288   4.080 -0.0920  0.5827  0.8180
  688MOL0     C94849   3.658   4.431   4.074  0.1151  0.9693  0.1935
  688MOL0     C94850   3.767   4.431   3.966 -0.6892 -0.7639 -0.8362
  688MOL0    Cl94851   3.915   4.313   3.996 -0.1440  0.0675  0.6468
  688MOL0     C94852   2.914   4.503   4.669 -0.7424  0.5140  0.8307
  688MOL0     C94853   2.867   4.572   4.781  0.1859  0.3795 -0.0659
  688MOL0     O94854   2.911   4.844   4.962  0.5772  0.7701 -0.1240
  688MOL0     C94855   2.803   4.925   5.200  0.5782  0.7306 -1.1875
  688MOL0     C94856   2.749   4.969   5.319 -0.6684  0.0462 -0.6690
  688MOL0     N94857   2.279   5.124   5.931 -0.7681  0.0957  0.0247
  688MOL0     N94858   2.202   5.083   6.025  0.9808 -0.1556 -0.0672
  688MOL0     C94859   1.215   4.988   6.796  1.2655 -0.2440  0.0911
  688MOL0     C94860   1.121   4.898   6.856 -0.2186  0.1623  0.1802
  688MOL0     C94861   0.807   4.603   7.001 -0.8004  0.4474  0.0844
  688MOL0     C94862   0.871   4.472   7.009 -0.0962 -0.2542  0.7383
  688MOL0     C94863   0.812   4.374   7.091 -0.3229  0.6592  0.3413
  688MOL0     C94864   0.705   4.406   7.174 -0.1812 -1.2083  0.2234
  688MOL0     O94865   0.658   4.332   7.284  0.1555  0.6711  0.4520
  688MOL0     C94866   0.705   4.206   7.297 -0.1340  0.2239  0.2489
  688MOL0     C94867   0.659   4.106   7.194 -0.3570 -0.0356 -0.2677
  688MOL0     C94868   0.722   3.976   7.239  0.9204 -0.2952  0.6447
  688MOL0     C94869   0.683   3.871   7.137  0.1162 -0.0721  0.2620
  688MOL0     C94870   0.801   3.780   7.104  0.1970  0.2591  0.7650
  688MOL0     C94871   0.900   3.711   7.075 -0.5481 -0.3508  0.9186
  688MOL0     C94872   0.641   4.528   7.161  0.6242 -0.0651  0.5159
  688MOL0     C94873   0.684   4.632   7.079 -0.6692  0.2909 -0.1502
  688MOL0     C94874   0.602   4.752   7.061 -0.6882  0.1580  0.0215
  688MOL0     H94875   1.216   4.600   6.748 -2.8155  1.1678 -1.3558
  688MOL0     H94876   1.371   4.737   6.620 -0.9353 -0.9977 -1.3378
  688MOL0     H94877   1.584   5.080   6.728  0.9925  0.1979 -2.5556
  688MOL0     H94878   1.431   5.143   6.772 -0.7195  0.0876 -0.8115
  688MOL0     H94879   1.409   5.232   6.530 -0.7370 -3.6286  0.4498
  688MOL0     H94880   1.545   5.305   6.627  2.7873  0.3426 -1.7790
  688MOL0     H94881   1.702   5.156   6.532  0.8622 -0.1092 -0.7987
  688MOL0     H94882   1.567   5.070   6.441 -4.3078  1.8497  1.2659
  688MOL0     H94883   1.523   5.292   6.325  1.1033  2.1912 -2.5126
  688MOL0     H94884   1.652   5.365   6.424  2.8367  0.0284 -0.4233
  688MOL0     H94885   1.712   5.312   6.192 -1.3147 -0.2724  0.7048
  688MOL0     H94886   1.717   5.140   6.231 -1.8657 -1.4663  1.8521
  688MOL0     H94887   1.882   5.350   6.375 -0.3686 -0.5035  0.1548
  688MOL0     H94888   1.897   5.173   6.393 -0.2772 -1.1521 -0.7792
  688MOL0     H94889   2.065   5.269   6.261 -0.3803 -2.6860  0.0630
  688MOL0     H94890   1.957   5.350   6.153  3.6168  0.5394 -0.8798
  688MOL0     H94891   2.008   5.044   6.170  2.4003  1.2537  1.1152
  688MOL0     H94892   1.877   5.116   6.070 -1.2670  0.2229  1.2132
  688MOL0     H94893   2.025   5.325   5.872 -0.3725  2.7923  2.9752
  688MOL0     H94894   2.378   5.327   5.769 -1.5202  1.9373  1.7930
  688MOL0     H94895   2.220   5.368   5.713  2.0061  1.2721 -0.6572
  688MOL0     H94896   2.210   5.124   5.597  2.6234 -2.1877 -1.5626
  688MOL0     H94897   2.286   5.261   5.519  0.6667  0.0876 -0.6038
  688MOL0     H94898   2.502   5.174   5.610 -1.5372  1.4686  2.5066
  688MOL0     H94899   2.410   5.037   5.678 -4.1056 -0.2988 -1.0197
  688MOL0     H94900   2.361   4.954   5.458 -1.1554  0.5646 -1.4412
  688MOL0     H94901   2.404   5.104   5.375 -1.6083 -0.1254  0.0566
  688MOL0     H94902   2.431   4.886   5.273  0.1064 -0.5283  1.4522
  688MOL0     H94903   2.385   4.811   5.048  0.3199 -0.0884  2.3869
  688MOL0     H94904   2.506   4.678   5.017  3.9474  1.2822 -0.3923
  688MOL0     H94905   2.508   4.836   4.927  0.7227  1.1197  1.2716
  688MOL0     H94906   2.805   4.859   4.613  0.7437 -0.1193 -0.3605
  688MOL0     H94907   2.905   4.757   4.447  2.3067  0.7011  0.9723
  688MOL0     H94908   3.201   4.494   4.524  0.9320 -3.0905  1.9155
  688MOL0     H94909   3.107   4.355   4.498 -0.6598 -0.6303 -0.0827
  688MOL0     H94910   3.086   4.386   4.257 -0.0413  0.8943 -0.4234
  688MOL0     H94911   3.185   4.533   4.277 -1.2837  0.0848  0.9648
  688MOL0     H94912   3.252   4.247   4.314 -1.5437  0.1512  0.3476
  688MOL0     H94913   3.335   4.371   4.409 -2.4169  1.0674  0.7399
  688MOL0     H94914   3.398   4.485   4.182 -0.8290  0.6573 -0.9326
  688MOL0     H94915   3.300   4.385   4.096  1.5123 -0.6437 -1.0345
  688MOL0     H94916   3.541   4.284   4.271  2.6491  2.6150 -1.9230
  688MOL0     H94917   3.445   4.171   4.161 -0.7935 -0.4579 -1.7586
  688MOL0     H94918   3.558   4.253   3.982  2.0796 -0.0476  0.1989
  688MOL0     H94919   3.671   4.213   4.097 -0.7097 -0.0485  0.9163
  688MOL0     H94920   3.720   4.452   4.162  0.9367 -1.9132  0.4081
  688MOL0     H94921   3.584   4.511   4.060 -1.7222 -0.6825  0.0318
  688MOL0     H94922   3.809   4.531   3.957 -1.7926 -0.4074 -2.4650
  688MOL0     H94923   3.719   4.400   3.872  0.6106 -0.3579 -1.6572
  688MOL0     H94924   2.950   4.401   4.672  2.1560  1.3642 -0.7882
  688MOL0     H94925   2.859   4.516   4.874 -0.3754  1.5445  0.6131
  688MOL0     H94926   2.907   4.944   5.176 -0.2876  2.2802 -4.2742
  688MOL0     H94927   2.805   5.016   5.399  0.7798 -1.3387 -0.8266
  688MOL0     H94928   1.216   5.096   6.809  0.9625 -0.1130 -0.8818
  688MOL0     H94929   1.033   4.933   6.911 -2.8522 -0.2122 -3.4300
  688MOL0     H94930   0.965   4.447   6.959 -0.5217 -0.8798  0.2365
  688MOL0     H94931   0.881   4.289   7.097  3.9774  3.7762 -0.2149
  688MOL0     H94932   0.814   4.203   7.306 -0.2577 -0.4594  1.9272
  688MOL0     H94933   0.673   4.171   7.395  2.6410  3.1676  2.4156
  688MOL0     H94934   0.686   4.143   7.095  0.5191 -0.5304 -0.2238
  688MOL0     H94935   0.550   4.097   7.192 -0.7576  3.2674  0.6870
  688MOL0     H94936   0.830   3.989   7.251  0.7825  1.8533 -0.1440
  688MOL0     H94937   0.686   3.950   7.339  0.8825 -1.6852  0.2956
  688MOL0     H94938   0.643   3.918   7.046  3.8904  0.8594 -1.1039
  688MOL0     H94939   0.598   3.818   7.181  0.5829 -0.9066  0.1818
  688MOL0     H94940   0.980   3.645   7.046 -1.7587 -1.7204  0.5946
  688MOL0     H94941   0.576   4.535   7.248  1.2282  1.6390  0.8810
  688MOL0     H94942   0.505   4.739   7.110 -0.5511 -2.9476 -0.3550
  688MOL0     H94943   0.650   4.840   7.103  2.7733 -1.0642 -1.0711
  688MOL0     H94944   0.593   4.766   6.953 -1.4212 -2.3861 -0.3100
  689MOL0     O94945   1.478   2.385   6.414 -0.2192 -0.5522  0.1434
  689MOL0     C94946   1.450   2.419   6.304 -0.5859 -0.1963  0.0596
  689MOL0     O94947   1.502   2.534   6.240 -0.1500  0.2006  0.1672
  689MOL0     C94948   1.587   2.612   6.308 -0.0461 -0.5405 -0.6051
  689MOL0     C94949   1.552   2.746   6.298  0.0356 -0.2061  0.8230
  689MOL0     C94950   1.640   2.847   6.348  0.7720  0.0851 -0.1142
  689MOL0     C94951   1.764   2.809   6.415  0.3404 -0.5781  0.5392
  689MOL0     O94952   1.831   2.916   6.459 -0.3319  0.1037  0.3687
  689MOL0     C94953   1.960   2.897   6.524  0.4495 -0.3788 -0.5746
  689MOL0     C94954   1.997   3.022   6.597  0.1489 -0.3788  0.1135
  689MOL0     C94955   2.047   3.143   6.517 -0.1913 -0.2527  1.1006
  689MOL0     C94956   2.101   3.245   6.617  0.0342  0.0946  1.4433
  689MOL0     C94957   2.194   3.361   6.560  0.8142  0.4497 -0.3794
  689MOL0     C94958   2.281   3.434   6.661 -0.0796  0.9652 -0.1430
  689MOL0     C94959   2.206   3.534   6.743 -0.0715  0.2743  1.0557
  689MOL0     C94960   2.149   3.649   6.661  0.4135 -0.6596  1.3428
  689MOL0     N94961   2.263   3.731   6.634 -0.2891 -0.2011  0.1166
  689MOL0     C94962   2.291   3.781   6.514 -0.0317 -0.0895  0.2631
  689MOL0     C94963   2.383   3.876   6.535  0.1732  1.1070  0.1212
  689MOL0     C94964   2.435   3.962   6.424  0.1622 -0.1417 -0.3440
  689MOL0     C94965   2.581   3.938   6.408  0.0578  0.1224 -0.2900
  689MOL0     C94966   2.642   3.805   6.355  0.2276 -0.1281 -0.4050
  689MOL0     C94967   2.584   3.777   6.215  0.0896  0.3001  0.1743
  689MOL0     O94968   2.455   3.721   6.219  0.0831 -0.2382 -0.0449
  689MOL0     C94969   2.434   3.589   6.192  0.7073  0.1995 -0.5369
  689MOL0     C94970   2.530   3.496   6.173  0.3155 -0.3301 -1.1310
  689MOL0     C94971   2.505   3.361   6.140  1.0706  0.7764  0.4646
  689MOL0     C94972   2.619   3.265   6.118 -0.4852 -0.2070 -0.3812
  689MOL0     C94973   2.373   3.314   6.132 -0.0200 -0.0095  0.2551
  689MOL0     C94974   2.334   3.176   6.105 -0.2631  0.5385  0.7175
  689MOL0     O94975   2.211   3.146   6.153  0.4390 -0.4026 -0.5066
  689MOL0     C94976   2.164   3.016   6.174 -0.0965 -0.0178  0.5667
  689MOL0     C94977   2.244   2.899   6.170  0.3288  0.0183 -0.4865
  689MOL0     C94978   2.196   2.767   6.146  0.0075  0.6892 -0.2311
  689MOL0     C94979   2.060   2.762   6.116  0.1998  0.1854 -0.1148
  689MOL0     O94980   2.019   2.636   6.077  0.8970 -0.4502 -0.2622
  689MOL0     C94981   1.886   2.637   6.034  0.4935 -0.3001  0.5403
  689MOL0     C94982   1.850   2.495   5.996  1.1636 -0.2375 -0.4144
  689MOL0     C94983   1.724   2.503   5.905  0.1162  0.0102 -0.8337
  689MOL0     C94984   1.662   2.359   5.886 -0.2125 -0.3069  0.2685
  689MOL0     C94985   1.541   2.376   5.777 -0.4823 -0.1452  0.8017
  689MOL0     C94986   1.500   2.236   5.739 -0.1141 -0.6401  0.5081
  689MOL0     C94987   1.448   2.148   5.858  0.9704  0.5826 -0.7189
  689MOL0     C94988   1.421   2.016   5.793 -0.5760  0.5242  0.6300
  689MOL0    Cl94989   1.373   1.876   5.907  0.2323  0.2470  0.2654
  689MOL0     C94990   1.978   2.875   6.123  1.2119 -0.3960  0.0243
  689MOL0     C94991   2.029   3.002   6.155  0.1241 -0.1738  0.6331
  689MOL0     O94992   2.405   3.105   6.031  0.0934 -1.0804 -0.7702
  689MOL0     C94993   2.269   3.408   6.159  0.0415 -0.6451 -0.1596
  689MOL0     C94994   2.300   3.545   6.188 -0.8450  0.3155 -0.3835
  689MOL0     N94995   2.412   3.885   6.666 -0.2007 -0.7730 -0.6585
  689MOL0     N94996   2.334   3.805   6.726 -0.0788  0.2717 -0.7334
  689MOL0     C94997   1.784   2.678   6.426 -0.8335  0.2284 -0.2011
  689MOL0     C94998   1.700   2.575   6.376 -0.5399  0.3489 -0.4630
  689MOL0     C94999   1.340   2.354   6.237  0.8156  0.7554 -0.0545
  689MOL0     C95000   1.254   2.425   6.154 -0.0782  0.8619 -0.0547
  689MOL0     C95001   1.154   2.366   6.073  0.0775  0.4196 -0.3833
  689MOL0     C95002   1.145   2.221   6.082 -0.7098 -0.0533  0.9603
  689MOL0     O95003   1.068   2.151   5.995 -0.0861  0.2245 -0.0274
  689MOL0     C95004   1.019   2.203   5.868  0.2106 -0.4393 -0.0344
  689MOL0     C95005   0.948   2.089   5.792 -0.4155  0.2747 -0.1200
  689MOL0     C95006   0.826   2.131   5.705 -0.0903 -0.2462 -0.3496
  689MOL0     C95007   0.753   2.016   5.626  0.2689  0.2694  0.9448
  689MOL0     C95008   0.847   1.955   5.520 -0.3046  0.0694 -0.2945
  689MOL0     C95009   0.925   1.904   5.435  0.4320  0.4048  0.8829
  689MOL0     C95010   1.210   2.151   6.175 -1.8004  0.1929  1.3262
  689MOL0     C95011   1.306   2.213   6.259  0.4600 -0.1628  1.1802
  689MOL0     C95012   1.374   2.126   6.360 -0.2153  0.8751 -0.1383
  689MOL0     H95013   1.453   2.781   6.272 -1.4992 -2.1561  3.5360
  689MOL0     H95014   1.619   2.953   6.338  3.6240  0.7813  0.2117
  689MOL0     H95015   2.043   2.859   6.463 -0.0395  0.2020 -1.6407
  689MOL0     H95016   1.949   2.818   6.599 -1.9406  0.1440 -0.2881
  689MOL0     H95017   1.909   3.047   6.658 -1.1906 -2.9635 -0.6125
  689MOL0     H95018   2.076   2.998   6.668  0.1945  1.5190  0.7575
  689MOL0     H95019   2.127   3.105   6.453 -1.3184 -0.2138 -0.4188
  689MOL0     H95020   1.966   3.180   6.452 -0.4326 -1.7363  0.5207
  689MOL0     H95021   2.035   3.289   6.693  2.2211  0.9949  2.9412
  689MOL0     H95022   2.178   3.199   6.679  2.3068  1.0713 -0.4858
  689MOL0     H95023   2.133   3.438   6.513 -0.1453  0.5462  0.9738
  689MOL0     H95024   2.260   3.319   6.483  0.8693 -0.7553  0.3005
  689MOL0     H95025   2.328   3.369   6.736 -2.7858 -0.5328  0.3997
  689MOL0     H95026   2.357   3.487   6.603 -0.0028  0.6881 -0.2975
  689MOL0     H95027   2.273   3.570   6.822 -0.6728 -1.4048  2.3942
  689MOL0     H95028   2.122   3.482   6.791 -1.6548  0.3746 -1.4175
  689MOL0     H95029   2.086   3.625   6.575 -2.2450  0.3070  2.9055
  689MOL0     H95030   2.087   3.709   6.728 -0.6634 -1.0615  0.7330
  689MOL0     H95031   2.244   3.764   6.417 -1.2229  0.3173  0.7424
  689MOL0     H95032   2.412   4.069   6.431  0.9548  0.0889 -1.0859
  689MOL0     H95033   2.377   3.932   6.336  1.3659 -0.2443 -1.1319
  689MOL0     H95034   2.611   4.014   6.335 -2.3935 -1.1757 -2.8473
  689MOL0     H95035   2.632   3.952   6.504  0.5641 -1.9536 -0.2193
  689MOL0     H95036   2.751   3.815   6.350  0.0357  2.3678 -1.3243
  689MOL0     H95037   2.621   3.729   6.431 -0.0827 -0.6132 -0.9654
  689MOL0     H95038   2.578   3.874   6.164  0.8945 -0.3671 -1.2652
  689MOL0     H95039   2.654   3.726   6.148 -2.2183  0.6959 -2.7643
  689MOL0     H95040   2.632   3.525   6.194 -0.0003 -0.7734  1.2264
  689MOL0     H95041   2.598   3.162   6.149 -0.8892 -0.1873 -0.5693
  689MOL0     H95042   2.711   3.313   6.152 -0.9668 -0.6294  1.6144
  689MOL0     H95043   2.633   3.256   6.009  0.1827 -0.7114 -0.2580
  689MOL0     H95044   2.352   2.902   6.173  0.4364 -0.5622 -2.3062
  689MOL0     H95045   2.254   2.678   6.126 -1.5671 -0.4709  0.1661
  689MOL0     H95046   1.814   2.672   6.108 -1.2880 -2.2054 -0.1878
  689MOL0     H95047   1.882   2.701   5.946  1.7944 -3.9488 -2.4326
  689MOL0     H95048   1.930   2.452   5.937  1.9063 -0.7117  0.8873
  689MOL0     H95049   1.834   2.435   6.087 -1.2344  0.0912 -0.5449
  689MOL0     H95050   1.756   2.534   5.805 -0.0044 -0.6602 -1.0921
  689MOL0     H95051   1.656   2.581   5.940  1.0902 -0.0641  1.3903
  689MOL0     H95052   1.630   2.329   5.986  0.8600 -1.0111  0.4136
  689MOL0     H95053   1.742   2.296   5.846 -0.5675 -1.0674  0.7317
  689MOL0     H95054   1.455   2.422   5.826 -1.1477 -2.2727  1.7680
  689MOL0     H95055   1.571   2.433   5.688 -1.2317  0.1695  0.7398
  689MOL0     H95056   1.595   2.198   5.700 -0.8359 -2.5580  0.4988
  689MOL0     H95057   1.427   2.252   5.658 -0.4304 -2.4542  0.3864
  689MOL0     H95058   1.353   2.184   5.899  0.3665  0.1656 -1.7031
  689MOL0     H95059   1.530   2.131   5.929 -0.1753  1.1054  0.7815
  689MOL0     H95060   1.504   1.983   5.731 -2.3306  1.0368 -2.1779
  689MOL0     H95061   1.335   2.043   5.731  0.0659  1.6263  0.2078
  689MOL0     H95062   1.872   2.862   6.109  1.1171 -0.0471  0.4125
  689MOL0     H95063   1.963   3.086   6.140 -0.1764 -0.7520 -1.8153
  689MOL0     H95064   2.165   3.376   6.161  0.6945 -3.2666 -2.2476
  689MOL0     H95065   2.227   3.621   6.216  1.1162  2.7297 -1.4119
  689MOL0     H95066   1.877   2.641   6.468 -1.2532  0.3091  0.8308
  689MOL0     H95067   1.707   2.468   6.396 -1.8385  0.6602  2.0720
  689MOL0     H95068   1.267   2.533   6.151 -0.6526  0.9806  0.9784
  689MOL0     H95069   1.092   2.414   5.998 -1.2563 -0.4576  0.1312
  689MOL0     H95070   0.942   2.278   5.890  0.3094 -0.7384  1.4540
  689MOL0     H95071   1.097   2.246   5.805  0.5980  1.6517  1.7351
  689MOL0     H95072   0.918   2.009   5.860  1.6784  2.1677  3.3152
  689MOL0     H95073   1.024   2.048   5.725 -0.0111  1.9517 -0.7624
  689MOL0     H95074   0.751   2.166   5.775 -0.7939 -0.1383 -1.1450
  689MOL0     H95075   0.858   2.213   5.640  0.9341  2.3401  3.1469
  689MOL0     H95076   0.661   2.060   5.587 -2.2272 -3.3736  2.2559
  689MOL0     H95077   0.722   1.940   5.699  1.5985 -0.3410  0.9115
  689MOL0     H95078   0.984   1.857   5.359  0.5293 -1.4800  2.0692
  689MOL0     H95079   1.190   2.045   6.180  0.6490 -0.6770 -2.8922
  689MOL0     H95080   1.349   2.150   6.464 -1.0672 -0.0353 -0.1163
  689MOL0     H95081   1.343   2.021   6.355 -0.6028  1.0437 -2.4989
  689MOL0     H95082   1.483   2.131   6.354  0.2149 -1.1539  3.2138
  690MOL0     O95083   0.913   2.936   3.740  0.1858 -0.5188  1.0429
  690MOL0     C95084   0.989   2.894   3.826  0.1009  0.1244  0.2857
  690MOL0     O95085   1.123   2.887   3.817  0.5109 -0.7912  0.0924
  690MOL0     C95086   1.197   2.896   3.703  0.0335 -0.7439 -0.2446
  690MOL0     C95087   1.326   2.954   3.732  0.7948 -0.0575  0.4070
  690MOL0     C95088   1.409   2.965   3.621 -0.0925  0.4950 -0.5172
  690MOL0     C95089   1.379   2.938   3.490  0.1649  0.5529 -1.2616
  690MOL0     O95090   1.469   2.953   3.392 -0.6888 -0.1068 -0.4456
  690MOL0     C95091   1.426   2.999   3.260  0.4923  0.3807  0.0602
  690MOL0     C95092   1.342   3.130   3.274  0.2475 -0.5182  0.1096
  690MOL0     C95093   1.442   3.243   3.307  0.0632  0.0051 -0.4851
  690MOL0     C95094   1.381   3.390   3.306  0.3276 -0.3797  0.0132
  690MOL0     C95095   1.485   3.479   3.367  0.9099  0.2020  0.0615
  690MOL0     C95096   1.461   3.624   3.345  0.0817 -0.1223  1.0710
  690MOL0     C95097   1.532   3.710   3.451  0.2819  0.4291  0.0544
  690MOL0     C95098   1.680   3.711   3.413 -0.1209 -0.3485  0.5082
  690MOL0     N95099   1.769   3.776   3.519 -0.4647 -0.9480  0.0678
  690MOL0     C95100   1.798   3.728   3.648 -1.0719 -0.2909 -0.6978
  690MOL0     C95101   1.887   3.825   3.704 -0.5058  0.0926 -0.4449
  690MOL0     C95102   1.927   3.840   3.847  0.3643  0.5942 -0.8985
  690MOL0     C95103   1.882   3.970   3.919 -0.4935  0.5033 -0.1393
  690MOL0     C95104   1.727   3.980   3.929 -0.7798  0.1031  0.7424
  690MOL0     C95105   1.665   4.038   3.795 -0.3928 -0.4600  0.0648
  690MOL0     O95106   1.523   4.069   3.818 -0.1910  0.4618 -0.2395
  690MOL0     C95107   1.436   4.052   3.712 -0.7242 -0.7629 -0.1914
  690MOL0     C95108   1.311   4.012   3.750  0.0978  0.2074  1.1523
  690MOL0     C95109   1.214   3.996   3.648  0.1247  0.6417  0.2388
  690MOL0     C95110   1.083   3.929   3.695 -0.0343 -0.0307  0.7285
  690MOL0     C95111   1.244   4.020   3.508  0.0051 -0.4864  0.1420
  690MOL0     C95112   1.154   3.998   3.388 -0.6673 -0.1105 -0.7588
  690MOL0     O95113   1.216   3.958   3.272  0.2354 -0.4779  0.3145
  690MOL0     C95114   1.126   3.974   3.165 -0.4296  0.1163 -0.0509
  690MOL0     C95115   1.025   3.893   3.136  1.2417 -0.2000  0.3335
  690MOL0     C95116   0.952   3.914   3.014 -0.7816 -0.4966 -0.3573
  690MOL0     C95117   0.981   4.027   2.929  0.4028 -0.4670 -0.1005
  690MOL0     O95118   0.914   4.034   2.810 -0.8114  0.8362  0.6249
  690MOL0     C95119   0.936   4.150   2.717  0.7967  0.0321  0.7367
  690MOL0     C95120   0.822   4.183   2.618 -0.6421 -0.2262  0.0055
  690MOL0     C95121   0.844   4.313   2.546 -1.0082 -0.3623  0.7215
  690MOL0     C95122   0.841   4.295   2.403  0.4083  0.3278  0.2927
  690MOL0     C95123   0.865   4.418   2.325 -0.2685 -0.3186 -0.0175
  690MOL0     C95124   0.756   4.524   2.337  0.2668  0.1377  0.3294
  690MOL0     C95125   0.621   4.469   2.301  0.0720  0.2009  0.2388
  690MOL0     C95126   0.526   4.588   2.302 -0.6271  0.1219  0.2981
  690MOL0    Cl95127   0.518   4.671   2.144  0.2829  0.0469 -0.1034
  690MOL0     C95128   1.083   4.105   2.958 -0.6093 -0.2936  0.8336
  690MOL0     C95129   1.154   4.077   3.076 -0.2953 -0.4014  0.2084
  690MOL0     O95130   1.033   4.015   3.399  0.0636 -0.8510 -0.2829
  690MOL0     C95131   1.366   4.083   3.485 -0.4432  0.7412 -0.2321
  690MOL0     C95132   1.462   4.099   3.587 -0.1959 -0.0687 -0.0665
  690MOL0     N95133   1.924   3.912   3.601  0.0754 -0.3159 -0.5416
  690MOL0     N95134   1.854   3.879   3.495 -0.7231 -0.1964 -0.0219
  690MOL0     C95135   1.250   2.889   3.471 -0.6818 -1.1677  0.3606
  690MOL0     C95136   1.154   2.867   3.571  0.5566  0.0572 -0.3203
  690MOL0     C95137   0.931   2.860   3.955 -0.4486  0.0626  0.1727
  690MOL0     C95138   0.785   2.878   3.972 -0.0286 -0.1894  0.5677
  690MOL0     C95139   0.719   2.866   4.090  0.7272  0.0882 -0.8832
  690MOL0     C95140   0.792   2.834   4.205 -0.4387  0.1343 -0.4678
  690MOL0     O95141   0.736   2.805   4.332  0.1423  0.3703  0.0729
  690MOL0     C95142   0.591   2.785   4.341  0.0095 -0.6886  0.4123
  690MOL0     C95143   0.544   2.768   4.478  0.0534  0.4408 -0.1604
  690MOL0     C95144   0.532   2.890   4.577  0.4366 -0.3218  0.4288
  690MOL0     C95145   0.495   2.833   4.712 -0.4448  0.4905  0.8738
  690MOL0     C95146   0.344   2.806   4.724 -0.6028 -0.5817 -0.3522
  690MOL0     C95147   0.223   2.789   4.729 -0.2034  0.1785  0.7558
  690MOL0     C95148   0.928   2.818   4.202  0.7325  0.4797 -0.1369
  690MOL0     C95149   1.001   2.836   4.073  0.3446 -0.9561 -0.3623
  690MOL0     C95150   1.150   2.820   4.088  1.3223 -1.0349 -0.5170
  690MOL0     H95151   1.353   2.984   3.833 -1.4024  0.8746  0.7888
  690MOL0     H95152   1.504   3.009   3.649 -1.0845 -0.1534  4.8684
  690MOL0     H95153   1.364   2.919   3.220  2.7533 -1.8052  0.6871
  690MOL0     H95154   1.515   3.009   3.197  1.7174 -5.6498  0.2515
  690MOL0     H95155   1.318   3.137   3.167 -0.1800 -0.0576  0.2315
  690MOL0     H95156   1.251   3.133   3.334  1.1093 -0.6974  1.4573
  690MOL0     H95157   1.469   3.232   3.413 -0.7568  2.9027  0.1255
  690MOL0     H95158   1.523   3.246   3.234 -0.9877  1.9596 -1.6772
  690MOL0     H95159   1.356   3.416   3.203 -0.8238 -0.9922  0.1263
  690MOL0     H95160   1.291   3.391   3.367  0.5618 -1.4589  0.4060
  690MOL0     H95161   1.584   3.453   3.328  0.2234 -0.3378 -1.3943
  690MOL0     H95162   1.498   3.463   3.474 -0.8639  0.6339  0.3673
  690MOL0     H95163   1.484   3.647   3.241 -0.7302  0.4377  1.0030
  690MOL0     H95164   1.356   3.652   3.334  0.5201  1.1739  0.0098
  690MOL0     H95165   1.523   3.673   3.553 -0.1671  1.8974  0.5810
  690MOL0     H95166   1.502   3.816   3.449 -0.7857  0.1737 -3.2004
  690MOL0     H95167   1.720   3.610   3.416 -1.0096 -0.7196  0.4143
  690MOL0     H95168   1.696   3.749   3.312 -2.3896  0.9759  0.5586
  690MOL0     H95169   1.757   3.641   3.699  2.2473 -1.2897  0.5671
  690MOL0     H95170   2.033   3.820   3.860  0.1152  1.3159  3.6261
  690MOL0     H95171   1.880   3.757   3.901 -1.3669  2.1216  0.0546
  690MOL0     H95172   1.915   3.982   4.023 -3.1846  2.2536  0.6294
  690MOL0     H95173   1.932   4.054   3.870  2.6210 -0.2556  1.4629
  690MOL0     H95174   1.683   3.881   3.943  0.0227 -0.3104  0.4013
  690MOL0     H95175   1.707   4.037   4.021  0.1627  0.3499  0.8064
  690MOL0     H95176   1.715   4.132   3.767 -3.2417  1.2651  0.3052
  690MOL0     H95177   1.672   3.978   3.704 -0.9709 -1.5285  0.7049
  690MOL0     H95178   1.303   3.963   3.846  0.8856 -1.8406  0.2312
  690MOL0     H95179   0.995   3.978   3.651  0.6456 -1.0535 -2.0137
  690MOL0     H95180   1.066   3.938   3.802  3.2912 -0.5764  1.4279
  690MOL0     H95181   1.083   3.823   3.668 -4.8802 -0.1173  0.2372
  690MOL0     H95182   0.990   3.808   3.194 -1.9870  0.2371 -0.7363
  690MOL0     H95183   0.867   3.852   2.986 -1.3562  0.3502 -0.5262
  690MOL0     H95184   0.940   4.242   2.775 -4.9607  2.7273 -2.2823
  690MOL0     H95185   1.033   4.126   2.673  0.4904  0.2678 -0.0949
  690MOL0     H95186   0.810   4.099   2.549 -0.5128 -0.0025 -0.2873
  690MOL0     H95187   0.726   4.196   2.670 -0.5968 -0.5009  0.1631
  690MOL0     H95188   0.938   4.357   2.581 -0.6281  1.5582 -2.3453
  690MOL0     H95189   0.770   4.390   2.572 -1.2210 -1.0418  2.2725
  690MOL0     H95190   0.740   4.260   2.382  0.3215 -0.3241  1.7378
  690MOL0     H95191   0.918   4.223   2.372 -0.8745 -0.7571 -0.5022
  690MOL0     H95192   0.958   4.450   2.372  1.0665 -1.3305 -1.8271
  690MOL0     H95193   0.887   4.400   2.219  0.5092 -3.8360  0.5900
  690MOL0     H95194   0.779   4.609   2.272 -2.1528 -0.4803 -1.4851
  690MOL0     H95195   0.746   4.572   2.435  1.7733  0.8510  0.1565
  690MOL0     H95196   0.588   4.397   2.377  0.2860  1.7839  1.9098
  690MOL0     H95197   0.613   4.417   2.205 -0.1523  1.2758 -0.3453
  690MOL0     H95198   0.527   4.646   2.395  0.7120  1.7779 -0.6884
  690MOL0     H95199   0.431   4.534   2.301  0.2340 -1.5247  1.4653
  690MOL0     H95200   1.116   4.196   2.911  1.4289 -0.4524  1.8683
  690MOL0     H95201   1.245   4.134   3.093 -1.0116  0.6359  0.7014
  690MOL0     H95202   1.396   4.117   3.387 -0.1100  0.9780 -0.0488
  690MOL0     H95203   1.553   4.140   3.542 -0.4771 -0.7698 -1.3246
  690MOL0     H95204   1.209   2.869   3.372  1.3779  1.7060 -1.2481
  690MOL0     H95205   1.055   2.835   3.541 -1.1350  3.1801  1.4792
  690MOL0     H95206   0.727   2.909   3.886 -1.8550 -0.1636  1.7530
  690MOL0     H95207   0.614   2.894   4.086  1.5302  3.4858 -4.5807
  690MOL0     H95208   0.537   2.867   4.293  0.7187 -0.9066 -0.7836
  690MOL0     H95209   0.576   2.690   4.289 -1.7364  0.0121 -0.4489
  690MOL0     H95210   0.598   2.683   4.522 -2.9571 -1.5177  0.0709
  690MOL0     H95211   0.443   2.732   4.457  0.3921 -2.1334  2.0538
  690MOL0     H95212   0.627   2.943   4.578  0.7817 -0.9327  0.4222
  690MOL0     H95213   0.456   2.958   4.537  2.4365  0.3276 -2.5329
  690MOL0     H95214   0.534   2.902   4.787 -0.7504  1.0244  0.5531
  690MOL0     H95215   0.542   2.735   4.720 -2.2537 -0.5399 -0.3328
  690MOL0     H95216   0.120   2.762   4.719 -0.5357  0.4815  2.8740
  690MOL0     H95217   0.980   2.808   4.296 -0.0021  0.7867  0.3075
  690MOL0     H95218   1.182   2.740   4.021 -0.1930 -0.4658 -2.0199
  690MOL0     H95219   1.201   2.913   4.059 -0.1802  0.9173  2.5510
  690MOL0     H95220   1.175   2.789   4.189 -2.7392 -3.1539  0.0683
  691MOL0     O95221   2.772   1.972   3.333  0.6728  0.0226 -0.0780
  691MOL0     C95222   2.807   2.067   3.267  0.0006 -0.3029 -0.7006
  691MOL0     O95223   2.909   2.153   3.304  0.6448  0.6575  0.0569
  691MOL0     C95224   2.961   2.143   3.434 -0.2897 -0.5610  0.0074
  691MOL0     C95225   3.096   2.159   3.433  0.1950 -1.1124 -1.2884
  691MOL0     C95226   3.161   2.171   3.553 -0.3440  0.0668  1.1091
  691MOL0     C95227   3.096   2.164   3.675 -0.9316 -0.1129  0.7751
  691MOL0     O95228   3.153   2.183   3.795  0.5615 -0.4875 -0.6438
  691MOL0     C95229   3.297   2.140   3.817  0.9951  0.5017 -0.0439
  691MOL0     C95230   3.384   2.271   3.811  0.5248 -0.2301 -0.2818
  691MOL0     C95231   3.418   2.310   3.957  0.2301  0.5270 -0.1835
  691MOL0     C95232   3.505   2.432   3.953  0.4439  0.1657 -0.4338
  691MOL0     C95233   3.563   2.489   4.084 -0.8831  0.0083  0.6026
  691MOL0     C95234   3.470   2.561   4.178 -0.2600  0.3165 -0.7593
  691MOL0     C95235   3.375   2.667   4.134 -0.3039  0.2917  0.1652
  691MOL0     C95236   3.445   2.803   4.095 -0.3457  0.8655 -0.5545
  691MOL0     N95237   3.504   2.879   4.212 -1.0794  0.0687  0.0968
  691MOL0     C95238   3.623   2.943   4.205  0.3328  0.5729 -0.2477
  691MOL0     C95239   3.632   3.029   4.312  0.4772 -0.3970  0.8765
  691MOL0     C95240   3.738   3.140   4.331  0.0392 -0.1213 -0.0273
  691MOL0     C95241   3.815   3.121   4.456  0.5275 -0.1190 -0.0680
  691MOL0     C95242   3.902   3.238   4.465  0.6917 -1.5102 -0.1102
  691MOL0     C95243   4.011   3.277   4.352 -0.4521  0.0900 -0.0338
  691MOL0     O95244   4.080   3.165   4.297 -0.4148 -0.7427  0.0947
  691MOL0     C95245   4.190   3.186   4.218 -0.4304 -0.7664  0.8480
  691MOL0     C95246   4.190   3.143   4.087  0.5495  0.3908 -0.6209
  691MOL0     C95247   4.290   3.177   3.993  0.5025  0.0092  0.3882
  691MOL0     C95248   4.253   3.151   3.843 -0.1952  0.0152  0.8145
  691MOL0     C95249   4.404   3.253   4.038  0.2711 -0.4251  0.1131
  691MOL0     C95250   4.520   3.307   3.953 -0.3253  0.6694  0.7819
  691MOL0     O95251   4.630   3.357   4.011  0.2025  0.2327  0.7391
  691MOL0     C95252   4.713   3.439   3.935  0.7446  0.2759 -0.0523
  691MOL0     C95253   4.661   3.541   3.860 -0.0905  0.9798  0.3287
  691MOL0     C95254   4.733   3.633   3.788  0.2713  0.3867  1.1071
  691MOL0     C95255   4.866   3.635   3.808  0.8425 -0.0391 -0.5342
  691MOL0     O95256   4.942   3.744   3.764  0.5432  0.8916 -0.8194
  691MOL0     C95257   4.992   3.837   3.864 -0.1980  0.4048  0.7182
  691MOL0     C95258   4.941   3.974   3.822  0.3421 -0.7840  0.4334
  691MOL0     C95259   5.017   4.027   3.707 -0.1471 -0.0012 -0.1639
  691MOL0     C95260   4.965   3.962   3.578  0.4657  0.3233  0.3851
  691MOL0     C95261   5.021   4.039   3.452 -0.6645  0.5466 -0.4935
  691MOL0     C95262   4.955   4.003   3.319  0.0190  0.1949  0.3337
  691MOL0     C95263   4.808   4.045   3.304 -0.4752  0.0804 -0.9442
  691MOL0     C95264   4.738   3.995   3.175  0.6045 -0.1162  1.0757
  691MOL0    Cl95265   4.728   3.814   3.144  0.9677 -0.0832  0.2322
  691MOL0     C95266   4.934   3.536   3.879  0.6182 -0.0966  0.2821
  691MOL0     C95267   4.855   3.444   3.948 -0.9309  0.0614  1.5043
  691MOL0     O95268   4.515   3.274   3.829 -0.2606  0.0298  0.2870
  691MOL0     C95269   4.398   3.300   4.174 -0.3194 -0.3249  0.1960
  691MOL0     C95270   4.296   3.262   4.262  0.0725 -0.3547 -0.3206
  691MOL0     N95271   3.507   3.015   4.375  0.9558  0.1121  0.4425
  691MOL0     N95272   3.444   2.924   4.317  0.3156  0.0816  0.3583
  691MOL0     C95273   2.961   2.154   3.668 -0.6150  0.6915 -0.1422
  691MOL0     C95274   2.892   2.140   3.552  0.6652  0.4536 -0.1387
  691MOL0     C95275   2.741   2.093   3.142 -0.3726 -0.5167 -0.1759
  691MOL0     C95276   2.804   2.130   3.024 -0.1512  0.5537 -0.0808
  691MOL0     C95277   2.740   2.179   2.908  0.2302  0.1825 -0.1362
  691MOL0     C95278   2.604   2.186   2.897  0.3233  0.1422  0.6868
  691MOL0     O95279   2.538   2.245   2.787 -0.1851 -0.3833  0.0625
  691MOL0     C95280   2.596   2.234   2.653 -0.4250  0.6782 -1.0587
  691MOL0     C95281   2.509   2.236   2.531  0.3301  0.6859 -0.5036
  691MOL0     C95282   2.459   2.376   2.511  0.0961  0.0447 -0.2177
  691MOL0     C95283   2.334   2.401   2.434 -0.4870 -0.2317  0.0779
  691MOL0     C95284   2.351   2.464   2.303 -0.0449 -0.2974  0.0825
  691MOL0     C95285   2.345   2.526   2.188 -0.5080  0.4614 -0.3174
  691MOL0     C95286   2.536   2.141   3.012  0.3375  0.6264  0.6667
  691MOL0     C95287   2.601   2.094   3.131  1.0237 -0.4090 -0.3306
  691MOL0     C95288   2.508   2.045   3.237 -1.2298 -0.6744 -0.1855
  691MOL0     H95289   3.160   2.148   3.347  2.0428  0.6925 -0.2318
  691MOL0     H95290   3.269   2.178   3.545 -0.2383 -1.9992 -0.3014
  691MOL0     H95291   3.339   2.074   3.741  1.2049  0.6177 -0.0293
  691MOL0     H95292   3.310   2.086   3.912 -0.8316 -1.4647 -0.8187
  691MOL0     H95293   3.479   2.240   3.766  0.2122  0.4204 -1.4233
  691MOL0     H95294   3.345   2.356   3.755 -2.7369  0.3440  2.5633
  691MOL0     H95295   3.322   2.331   4.006 -0.6282 -0.3408 -1.4221
  691MOL0     H95296   3.474   2.234   4.012 -0.3995  0.0527 -0.1896
  691MOL0     H95297   3.592   2.391   3.903  0.8141 -2.3540  2.0400
  691MOL0     H95298   3.435   2.501   3.904 -1.7500 -0.2174  1.9029
  691MOL0     H95299   3.639   2.559   4.048 -1.1853 -0.7315 -1.5819
  691MOL0     H95300   3.614   2.402   4.125 -1.9710 -0.5242  0.8833
  691MOL0     H95301   3.421   2.476   4.228 -1.0534  0.4840 -1.2254
  691MOL0     H95302   3.537   2.607   4.251 -0.8857  2.2141 -1.3270
  691MOL0     H95303   3.300   2.688   4.211  2.4651  0.5787  3.0026
  691MOL0     H95304   3.322   2.635   4.044 -1.1875  3.9578 -0.7752
  691MOL0     H95305   3.527   2.789   4.024  1.8820  2.0777  1.6104
  691MOL0     H95306   3.364   2.857   4.046 -2.4322 -0.8312  0.8585
  691MOL0     H95307   3.685   2.913   4.121 -1.8044 -0.1456 -1.6694
  691MOL0     H95308   3.680   3.233   4.327 -1.4488 -0.9333  1.4710
  691MOL0     H95309   3.815   3.147   4.253  2.6216  1.5094  2.4497
  691MOL0     H95310   3.750   3.107   4.543  1.4170 -0.5968  0.5303
  691MOL0     H95311   3.886   3.039   4.445  0.4059 -0.4379  1.2901
  691MOL0     H95312   3.836   3.326   4.460  0.7518 -1.5353 -2.6849
  691MOL0     H95313   3.963   3.232   4.555  0.8222 -0.8549 -0.1490
  691MOL0     H95314   3.951   3.315   4.269 -0.8173 -0.7938 -0.1865
  691MOL0     H95315   4.077   3.355   4.393 -2.9462  2.0586  0.4945
  691MOL0     H95316   4.106   3.077   4.067  1.0242  0.1861 -2.0249
  691MOL0     H95317   4.149   3.150   3.810  0.3918 -2.1065 -1.2666
  691MOL0     H95318   4.291   3.050   3.821  1.5890  1.0818 -1.4530
  691MOL0     H95319   4.302   3.230   3.786  0.5328 -0.3260  0.9569
  691MOL0     H95320   4.553   3.555   3.851  0.0723  2.7986  0.7544
  691MOL0     H95321   4.690   3.720   3.739 -2.2677 -1.0918  0.5256
  691MOL0     H95322   4.967   3.814   3.968 -0.5871  0.5013  0.6483
  691MOL0     H95323   5.101   3.833   3.859 -0.1991 -2.3220  1.3116
  691MOL0     H95324   4.832   3.975   3.811  0.4082  1.8842 -0.5884
  691MOL0     H95325   4.960   4.037   3.909  2.9222  2.7771 -2.4188
  691MOL0     H95326   5.121   3.997   3.718 -0.3679 -1.9140 -2.6519
  691MOL0     H95327   5.013   4.137   3.709 -0.5129  0.0413  2.9959
  691MOL0     H95328   4.857   3.947   3.580  0.5963 -0.7131  2.7903
  691MOL0     H95329   5.006   3.861   3.577 -0.6665 -0.1554  0.4557
  691MOL0     H95330   4.998   4.146   3.451  0.9223  0.8997 -0.6373
  691MOL0     H95331   5.129   4.027   3.452 -0.6254  0.0671  2.5536
  691MOL0     H95332   4.967   3.894   3.316  1.8846  0.2773  2.2652
  691MOL0     H95333   5.009   4.060   3.244 -1.4520 -0.9333 -1.6816
  691MOL0     H95334   4.805   4.153   3.319 -0.7591 -0.2261  1.8195
  691MOL0     H95335   4.757   4.007   3.393  0.8186  1.9958  0.7001
  691MOL0     H95336   4.787   4.049   3.093  0.3814 -1.7275 -0.1658
  691MOL0     H95337   4.637   4.036   3.175  0.6690  0.0664  2.0629
  691MOL0     H95338   5.042   3.534   3.886  0.7186 -0.8445 -1.0615
  691MOL0     H95339   4.910   3.370   4.005  0.2440  0.6827  1.2043
  691MOL0     H95340   4.491   3.349   4.204  0.3790  0.5593 -3.0162
  691MOL0     H95341   4.306   3.290   4.367 -0.6692  1.5455 -0.7325
  691MOL0     H95342   2.909   2.158   3.763 -0.6530 -1.6835  0.0037
  691MOL0     H95343   2.784   2.137   3.548  0.6675  1.2400 -2.6435
  691MOL0     H95344   2.911   2.123   3.011 -0.1153 -0.9700  0.8642
  691MOL0     H95345   2.808   2.209   2.828 -0.1307 -0.6677 -0.7865
  691MOL0     H95346   2.675   2.309   2.638  0.1236  0.3836  0.2170
  691MOL0     H95347   2.640   2.134   2.654 -0.1251  0.8161  0.0671
  691MOL0     H95348   2.431   2.164   2.558  0.1245  0.9099 -0.4975
  691MOL0     H95349   2.578   2.204   2.453  0.4780 -2.8834  0.8734
  691MOL0     H95350   2.462   2.422   2.610 -1.3541  1.1979 -0.6731
  691MOL0     H95351   2.536   2.425   2.452 -1.6831  1.9415 -1.0850
  691MOL0     H95352   2.265   2.462   2.494  2.4350  0.4474  3.0114
  691MOL0     H95353   2.284   2.304   2.421 -2.0130  0.6743 -1.3200
  691MOL0     H95354   2.333   2.571   2.092 -0.2537  0.9003 -0.1479
  691MOL0     H95355   2.428   2.151   3.007  0.4180  1.0793 -0.6618
  691MOL0     H95356   2.513   2.106   3.328  0.4217 -2.3953  0.9526
  691MOL0     H95357   2.402   2.042   3.209 -1.0294 -0.3651 -0.9863
  691MOL0     H95358   2.543   1.943   3.257 -0.4696 -0.5329 -0.7541
  692MOL0     O95359   0.361  10.884   3.926  0.4283  0.2241 -0.2035
  692MOL0     C95360   0.261  10.814   3.925  1.2270  0.6555 -0.3131
  692MOL0     O95361   0.243  10.692   3.992 -0.0072  0.5066  0.8252
  692MOL0     C95362   0.359  10.632   4.038  0.3473 -0.6202 -0.2433
  692MOL0     C95363   0.376  10.604   4.178  0.5238  0.8396  0.2059
  692MOL0     C95364   0.490  10.534   4.220  0.5556 -0.9746  0.1706
  692MOL0     C95365   0.589  10.484   4.132  0.4038  0.5156 -0.1748
  692MOL0     O95366   0.702  10.423   4.190  0.9851  0.2424  0.1375
  692MOL0     C95367   0.807  10.381   4.109 -0.2027 -0.7111  0.3306
  692MOL0     C95368   0.893  10.277   4.183 -0.1207 -0.0409  0.0414
  692MOL0     C95369   0.971  10.352   4.293 -0.3302 -0.2575 -0.1377
  692MOL0     C95370   1.054  10.257   4.377  0.0679  0.1031 -0.2494
  692MOL0     C95371   1.160  10.344   4.448 -0.8435 -0.4378  0.3062
  692MOL0     C95372   1.118  10.400   4.586 -1.0585  0.6923 -0.0899
  692MOL0     C95373   1.232  10.491   4.649  0.4519 -0.1132 -0.9289
  692MOL0     C95374   1.204  10.524   4.799  0.6499  0.6100  0.2598
  692MOL0     N95375   1.256  10.423   4.891 -0.6335 -0.0733 -0.4160
  692MOL0     C95376   1.284  10.445   5.026  0.6147 -0.1822 -0.0846
  692MOL0     C95377   1.325  10.322   5.070  0.0314  0.2440 -0.3861
  692MOL0     C95378   1.375  10.294   5.208  0.1267 -0.2038 -0.2651
  692MOL0     C95379   1.500  10.202   5.216  0.1852 -0.7268 -0.4082
  692MOL0     C95380   1.457  10.063   5.241  0.6393  1.8585 -0.6538
  692MOL0     C95381   1.561   9.979   5.313 -0.1856  0.2728 -0.4561
  692MOL0     O95382   1.519   9.843   5.331 -0.0351  0.0165  0.1402
  692MOL0     C95383   1.554   9.770   5.439  1.9255  0.1670 -0.2188
  692MOL0     C95384   1.678   9.777   5.495 -0.8290 -0.2188  0.2955
  692MOL0     C95385   1.707   9.700   5.606 -0.0062 -0.1621 -0.3377
  692MOL0     C95386   1.843   9.728   5.667 -0.5169 -0.7448 -0.5574
  692MOL0     C95387   1.617   9.610   5.669  0.8359  0.4417  0.1150
  692MOL0     C95388   1.644   9.518   5.786  0.2299  0.1488  0.2027
  692MOL0     O95389   1.557   9.423   5.822  0.0456 -0.0232  0.3348
  692MOL0     C95390   1.614   9.341   5.907 -0.3343 -0.2359 -0.5497
  692MOL0     C95391   1.683   9.230   5.853  0.4415 -0.4160 -0.4467
  692MOL0     C95392   1.738   9.130   5.935 -0.4542  0.0411  0.0196
  692MOL0     C95393   1.733   9.147   6.072  0.4591 -0.4277  0.1226
  692MOL0     O95394   1.777   9.042   6.154  0.0747  0.1964 -0.1946
  692MOL0     C95395   1.908   9.005   6.134 -0.6675 -0.1636 -0.2302
  692MOL0     C95396   1.937   8.856   6.180 -0.6069  0.8710 -0.1705
  692MOL0     C95397   1.884   8.760   6.073  0.4171  0.1317  0.2075
  692MOL0     C95398   1.968   8.761   5.940  0.6442 -0.0947  0.5234
  692MOL0     C95399   1.903   8.648   5.845 -0.3057 -0.0433  0.3065
  692MOL0     C95400   1.934   8.510   5.900 -0.7030  0.1149  0.2283
  692MOL0     C95401   1.909   8.409   5.793 -0.6271  0.9245 -0.3398
  692MOL0     C95402   1.955   8.271   5.832  0.1981 -0.8939 -0.1255
  692MOL0    Cl95403   1.862   8.181   5.964  0.0079 -0.3205  0.0558
  692MOL0     C95404   1.664   9.250   6.131 -0.2760 -0.7805  0.1187
  692MOL0     C95405   1.605   9.345   6.047  0.2705 -0.2633 -0.9575
  692MOL0     O95406   1.757   9.534   5.839  0.6900  0.5275 -0.2391
  692MOL0     C95407   1.489   9.602   5.603  0.5438  0.2120 -1.0818
  692MOL0     C95408   1.461   9.679   5.488 -0.0501  0.2797 -1.2481
  692MOL0     N95409   1.307  10.234   4.969 -1.4017  0.1746  0.9884
  692MOL0     N95410   1.272  10.293   4.863 -0.7103  0.2629  0.7348
  692MOL0     C95411   0.569  10.525   3.997  0.3867 -0.5399 -0.1458
  692MOL0     C95412   0.459  10.600   3.950  0.0777 -0.0056 -0.4713
  692MOL0     C95413   0.137  10.861   3.854 -0.1582  0.2901  0.0488
  692MOL0     C95414   0.017  10.784   3.868 -0.5087 -0.3010  0.7564
  692MOL0     C95415  -0.097  10.820   3.793  0.4245  0.7287  0.2814
  692MOL0     C95416  -0.103  10.935   3.723 -0.5707 -0.0752  0.4561
  692MOL0     O95417  -0.223  10.970   3.664  0.0299 -0.2319 -0.0529
  692MOL0     C95418  -0.236  10.999   3.521  0.4664  0.5245 -0.7816
  692MOL0     C95419  -0.318  10.887   3.457  1.2252  0.5521  0.9153
  692MOL0     C95420  -0.463  10.903   3.487  1.1705  0.7254 -0.7828
  692MOL0     C95421  -0.568  10.845   3.387 -0.3795  0.4425  0.2969
  692MOL0     C95422  -0.567  10.901   3.257  0.7935  0.7263 -0.0364
  692MOL0     C95423  -0.536  10.967   3.159 -0.7485 -0.9519  0.4216
  692MOL0     C95424   0.014  11.017   3.714  0.3578 -0.3570  1.1152
  692MOL0     C95425   0.128  10.989   3.788 -0.0860  0.6301  0.6865
  692MOL0     C95426   0.241  11.079   3.769  0.1402  0.3708  0.0714
  692MOL0     H95427   0.299  10.628   4.250  1.7722  0.9700  1.5498
  692MOL0     H95428   0.486  10.504   4.324 -1.9932 -1.1634  0.0697
  692MOL0     H95429   0.858  10.466   4.064 -0.9643 -1.4407 -2.1052
  692MOL0     H95430   0.765  10.333   4.019 -0.6263  0.8828 -0.3554
  692MOL0     H95431   0.826  10.202   4.227  1.1833 -0.8724  0.6569
  692MOL0     H95432   0.965  10.223   4.121  2.4624  3.6180 -0.4307
  692MOL0     H95433   1.044  10.421   4.249 -1.0338  1.1055  0.7583
  692MOL0     H95434   0.904  10.398   4.366 -1.4508 -0.6067 -0.9142
  692MOL0     H95435   0.990  10.193   4.438  0.1325  0.3453  0.0725
  692MOL0     H95436   1.104  10.181   4.316  0.3393  0.0604  0.0252
  692MOL0     H95437   1.197  10.428   4.389  0.1852 -0.9554  0.1810
  692MOL0     H95438   1.249  10.280   4.451  0.2909  0.9636 -1.4667
  692MOL0     H95439   1.022  10.452   4.585 -2.7849 -1.9971  3.2528
  692MOL0     H95440   1.107  10.304   4.637  0.6705  0.9446  0.8640
  692MOL0     H95441   1.239  10.589   4.601 -0.5125 -0.6205 -2.1599
  692MOL0     H95442   1.332  10.446   4.645  0.7428  0.5160 -0.7595
  692MOL0     H95443   1.240  10.622   4.832  0.5937 -0.0806  2.5196
  692MOL0     H95444   1.095  10.535   4.809  0.5334 -0.2862  0.0456
  692MOL0     H95445   1.271  10.537   5.082 -2.1624 -0.2957 -0.4121
  692MOL0     H95446   1.290  10.247   5.257  0.2863 -1.3520 -1.0484
  692MOL0     H95447   1.407  10.385   5.259  0.5113  1.5523 -3.3937
  692MOL0     H95448   1.557  10.216   5.124 -1.9108 -2.7619 -2.1487
  692MOL0     H95449   1.563  10.231   5.301  0.2658  1.4533 -1.1443
  692MOL0     H95450   1.357  10.047   5.281  2.3353 -1.0511  3.0994
  692MOL0     H95451   1.455  10.009   5.146  0.7362 -0.8475  0.7920
  692MOL0     H95452   1.657   9.991   5.262  0.5979 -1.1557  0.6117
  692MOL0     H95453   1.573  10.016   5.415 -1.7674 -2.8824  1.0123
  692MOL0     H95454   1.764   9.830   5.454 -0.0738 -1.6390 -0.0195
  692MOL0     H95455   1.904   9.638   5.659  1.4338  0.1698  2.4343
  692MOL0     H95456   1.823   9.751   5.772  1.5643 -2.2605  0.2325
  692MOL0     H95457   1.901   9.815   5.636 -0.1573 -0.4238  0.9349
  692MOL0     H95458   1.696   9.203   5.749  0.1904 -0.8827 -0.3595
  692MOL0     H95459   1.783   9.049   5.879  1.1345  0.4134  0.7098
  692MOL0     H95460   1.943   9.027   6.033 -0.8609  5.9914  0.6982
  692MOL0     H95461   1.977   9.073   6.184  2.0620 -0.4822 -3.2092
  692MOL0     H95462   2.044   8.846   6.195 -0.6787  3.2112  3.0022
  692MOL0     H95463   1.893   8.834   6.277  3.4234 -0.8521  1.4674
  692MOL0     H95464   1.781   8.784   6.047  0.2468  1.3465  1.8670
  692MOL0     H95465   1.880   8.656   6.108 -1.7781 -0.8556 -2.5552
  692MOL0     H95466   2.076   8.747   5.953  0.7248  0.1640  0.1529
  692MOL0     H95467   1.956   8.858   5.892  1.3979  0.6996  1.9029
  692MOL0     H95468   1.796   8.667   5.836 -0.6365 -0.4208  2.7064
  692MOL0     H95469   1.945   8.662   5.746  1.1162 -0.9156  0.7586
  692MOL0     H95470   1.871   8.495   5.989  1.2406 -1.0192  1.4788
  692MOL0     H95471   2.035   8.509   5.941 -0.0333  0.9663 -1.3300
  692MOL0     H95472   1.966   8.438   5.704 -1.8446 -0.6440 -1.6784
  692MOL0     H95473   1.802   8.405   5.776 -0.4791 -3.8233 -1.6732
  692MOL0     H95474   2.059   8.287   5.861 -0.3373  2.2096  0.4524
  692MOL0     H95475   1.956   8.215   5.738  1.4576 -1.7173  0.3564
  692MOL0     H95476   1.659   9.247   6.239  0.2862  2.8627  0.3489
  692MOL0     H95477   1.546   9.417   6.103  3.4873  1.7008  0.1763
  692MOL0     H95478   1.412   9.545   5.655  1.9186 -0.2358  0.5579
  692MOL0     H95479   1.365   9.676   5.437 -1.5370  3.1089  1.0479
  692MOL0     H95480   0.634  10.489   3.918  0.1246 -1.3396 -0.0060
  692MOL0     H95481   0.453  10.634   3.847  3.0743 -1.5941 -1.3051
  692MOL0     H95482   0.011  10.691   3.924 -0.5855 -0.7223  0.0651
  692MOL0     H95483  -0.193  10.768   3.797 -1.4529  3.5599 -2.6139
  692MOL0     H95484  -0.289  11.092   3.497 -1.8419 -0.2855  0.7955
  692MOL0     H95485  -0.136  10.994   3.478  0.5583 -0.8358 -0.4498
  692MOL0     H95486  -0.281  10.794   3.501 -0.0205  0.5625  2.0550
  692MOL0     H95487  -0.299  10.859   3.353 -0.0721  1.1733  0.4880
  692MOL0     H95488  -0.490  10.849   3.578 -0.2111  0.6412 -1.2190
  692MOL0     H95489  -0.486  11.005   3.520 -1.2776 -0.0772  0.1525
  692MOL0     H95490  -0.665  10.864   3.434  0.5247  1.9219  1.6574
  692MOL0     H95491  -0.560  10.736   3.378 -1.8550  0.3787 -0.5959
  692MOL0     H95492  -0.510  11.043   3.089  0.4236 -0.4289  1.3970
  692MOL0     H95493   0.002  11.115   3.669  2.8268  0.0594  1.2172
  692MOL0     H95494   0.287  11.099   3.867 -0.2350 -3.0678  1.0814
  692MOL0     H95495   0.308  11.027   3.700  0.5032  1.4059 -0.3736
  692MOL0     H95496   0.223  11.171   3.713 -2.3761 -1.6043 -2.6392
  693MOL0     O95497   4.879   6.211   9.563  0.1656 -0.2061 -0.0594
  693MOL0     C95498   4.930   6.301   9.621 -0.7602  0.4072 -0.0314
  693MOL0     O95499   5.002   6.294   9.739 -0.1262  0.4027 -0.0533
  693MOL0     C95500   5.009   6.165   9.792  0.6780  1.1094  0.1359
  693MOL0     C95501   4.898   6.089   9.844 -0.5842  0.1579 -0.2337
  693MOL0     C95502   4.902   5.958   9.884 -0.0315  0.3272 -0.8337
  693MOL0     C95503   5.025   5.895   9.893  0.3391 -0.5120  0.4695
  693MOL0     O95504   5.019   5.764   9.929  0.4040  0.2337 -0.1963
  693MOL0     C95505   5.144   5.695   9.942 -0.0946 -0.1288 -0.0566
  693MOL0     C95506   5.183   5.642   9.802  0.5056 -0.1636 -0.3095
  693MOL0     C95507   5.312   5.550   9.825  0.4975 -0.5709 -0.0459
  693MOL0     C95508   5.339   5.468   9.694  0.3155 -0.3808 -0.6523
  693MOL0     C95509   5.457   5.372   9.709  0.3751 -0.2102 -0.1591
  693MOL0     C95510   5.475   5.289   9.579 -0.3923 -0.8926  0.8702
  693MOL0     C95511   5.621   5.229   9.586 -0.4955  0.1113 -0.2495
  693MOL0     C95512   5.645   5.159   9.725 -0.6846  0.1654 -0.2257
  693MOL0     N95513   5.792   5.117   9.740  0.3942  0.2858 -0.3814
  693MOL0     C95514   5.910   5.183   9.698  0.1878 -0.5167 -0.5155
  693MOL0     C95515   6.008   5.112   9.760  0.9661 -0.2335 -0.2395
  693MOL0     C95516   6.156   5.149   9.756 -0.0525  0.9399 -0.6472
  693MOL0     C95517   6.235   5.059   9.653 -0.2325 -0.4772 -0.6900
  693MOL0     C95518   6.382   5.068   9.698 -0.7478 -0.5794  0.1232
  693MOL0     C95519   6.462   5.196   9.702  0.5334  0.6686 -0.4499
  693MOL0     O95520   6.429   5.286   9.596 -0.2404 -0.2755 -0.6495
  693MOL0     C95521   6.531   5.370   9.543 -0.6188 -0.1716  0.1103
  693MOL0     C95522   6.677   5.368   9.577 -0.2677  0.5230  0.7488
  693MOL0     C95523   6.766   5.463   9.517 -0.3234  0.8560 -0.1335
  693MOL0     C95524   6.908   5.472   9.562 -0.1869  0.2340  0.4434
  693MOL0     C95525   6.710   5.570   9.432  0.8274  0.7556  0.2161
  693MOL0     C95526   6.789   5.693   9.372  0.0150  1.0372 -0.0499
  693MOL0     O95527   6.920   5.676   9.352  0.5263 -0.2758  0.0462
  693MOL0     C95528   6.980   5.785   9.290 -0.5093 -0.1429  0.4455
  693MOL0     C95529   6.957   5.820   9.155  0.0394  0.0982 -0.4867
  693MOL0     C95530   7.034   5.933   9.102 -0.0955  0.8996 -0.0650
  693MOL0     C95531   7.128   5.986   9.181 -0.5539  0.4883 -0.4172
  693MOL0     O95532   7.199   6.095   9.124 -0.1106  0.0906 -0.0869
  693MOL0     C95533   7.256   6.066   8.991 -0.9044 -0.0194  0.0341
  693MOL0     C95534   7.394   6.131   8.973  1.1609 -0.6680 -0.1256
  693MOL0     C95535   7.459   6.088   8.845  1.0648 -0.0232 -0.0546
  693MOL0     C95536   7.497   5.946   8.836 -0.4059  1.3108 -1.3667
  693MOL0     C95537   7.563   5.904   8.709  0.0482  0.3185 -0.3910
  693MOL0     C95538   7.600   5.755   8.700  0.4246 -0.3835 -0.3018
  693MOL0     C95539   7.712   5.715   8.795  0.6582  0.1879 -1.1260
  693MOL0     C95540   7.756   5.575   8.755  0.4947 -1.2662  0.1534
  693MOL0    Cl95541   7.910   5.534   8.828  0.1002  0.4595  0.0464
  693MOL0     C95542   7.157   5.940   9.311 -0.4384 -1.0006 -0.5724
  693MOL0     C95543   7.074   5.848   9.366  0.8103  0.0770 -0.9574
  693MOL0     O95544   6.727   5.800   9.349  0.0348  0.0725 -0.2599
  693MOL0     C95545   6.570   5.556   9.393  0.1543  0.2706  0.7549
  693MOL0     C95546   6.488   5.460   9.445 -0.2601  0.5724  0.4986
  693MOL0     N95547   5.959   5.005   9.822  0.4545 -0.2721 -0.9782
  693MOL0     N95548   5.834   5.002   9.801 -0.2180  0.0536 -0.3701
  693MOL0     C95549   5.144   5.969   9.852 -0.3103 -0.5305  1.0792
  693MOL0     C95550   5.134   6.098   9.799 -0.8923  1.0673 -0.6654
  693MOL0     C95551   4.924   6.440   9.558  0.5980  0.4038 -0.3070
  693MOL0     C95552   5.038   6.511   9.576  1.1991 -0.5186 -0.0475
  693MOL0     C95553   5.047   6.638   9.529  0.1036 -0.8683  1.4145
  693MOL0     C95554   4.941   6.703   9.456  0.2451  0.5471  0.0342
  693MOL0     O95555   4.957   6.829   9.404 -0.3081  0.4860 -0.4946
  693MOL0     C95556   4.856   6.890   9.320 -0.0740  0.3206  0.1236
  693MOL0     C95557   4.916   7.027   9.274 -0.5720  0.9319  0.8686
  693MOL0     C95558   4.899   7.145   9.372  0.4723 -0.3341 -0.7774
  693MOL0     C95559   5.028   7.173   9.452  0.9028  0.8194 -0.3935
  693MOL0     C95560   4.996   7.288   9.536 -0.1807  0.5971 -0.3556
  693MOL0     C95561   4.966   7.371   9.621  0.3908 -0.2302  0.1502
  693MOL0     C95562   4.820   6.639   9.444 -0.3826  0.2276 -0.1617
  693MOL0     C95563   4.812   6.508   9.497  0.8455  0.0546  1.1315
  693MOL0     C95564   4.694   6.440   9.448 -0.3179 -0.2531 -0.5042
  693MOL0     H95565   4.804   6.142   9.831 -0.9732 -0.6554 -0.8487
  693MOL0     H95566   4.812   5.910   9.923 -0.1877  1.8247  0.7877
  693MOL0     H95567   5.125   5.617  10.016  0.4520  0.3001  0.5402
  693MOL0     H95568   5.222   5.749   9.995  2.7553 -3.2567 -0.6481
  693MOL0     H95569   5.096   5.612   9.743  2.0273  2.7071 -4.5286
  693MOL0     H95570   5.221   5.724   9.741 -0.2532  0.5623  0.1800
  693MOL0     H95571   5.393   5.623   9.835  0.1327 -0.1870  0.1629
  693MOL0     H95572   5.299   5.489   9.914  2.4761 -3.9538 -1.8648
  693MOL0     H95573   5.254   5.412   9.652  1.8716 -2.4729 -1.1999
  693MOL0     H95574   5.358   5.543   9.617 -2.0407 -0.6991 -1.6482
  693MOL0     H95575   5.426   5.300   9.785  1.7769 -1.4465 -0.7239
  693MOL0     H95576   5.549   5.429   9.724  0.7929 -0.6744 -0.9189
  693MOL0     H95577   5.394   5.216   9.572  0.1558 -1.4700  0.3885
  693MOL0     H95578   5.462   5.352   9.490 -1.6247 -1.4548  0.6453
  693MOL0     H95579   5.692   5.311   9.569 -0.7123  0.5195  0.6975
  693MOL0     H95580   5.634   5.162   9.501  2.2557  1.4334 -1.0174
  693MOL0     H95581   5.633   5.230   9.807 -1.0651 -1.2576  1.0006
  693MOL0     H95582   5.567   5.085   9.745  0.1811 -1.0821 -1.3624
  693MOL0     H95583   5.920   5.275   9.642  2.7941 -0.8259 -0.6543
  693MOL0     H95584   6.203   5.155   9.855 -0.2237  2.1316 -0.6289
  693MOL0     H95585   6.165   5.248   9.710  3.3706  0.3229 -1.6300
  693MOL0     H95586   6.209   4.952   9.654  2.8762 -1.4530  3.0673
  693MOL0     H95587   6.217   5.099   9.553 -2.5073 -1.6531 -0.8020
  693MOL0     H95588   6.387   5.035   9.802 -3.2123  1.9276  1.1487
  693MOL0     H95589   6.445   4.994   9.646  2.4743  0.4614  2.2458
  693MOL0     H95590   6.436   5.236   9.800 -1.3420 -0.7583 -0.3018
  693MOL0     H95591   6.568   5.169   9.704 -0.3913 -4.2177 -2.7023
  693MOL0     H95592   6.723   5.300   9.648 -3.2382 -1.0891  1.3055
  693MOL0     H95593   6.921   5.566   9.616  0.6533  2.0737 -2.6978
  693MOL0     H95594   6.981   5.465   9.481  0.3893  2.4742  0.6910
  693MOL0     H95595   6.932   5.391   9.631 -1.1228  1.4140  2.2396
  693MOL0     H95596   6.894   5.766   9.085 -0.9133  0.6239 -0.0520
  693MOL0     H95597   7.016   5.956   8.998  0.2623 -2.0019 -0.8774
  693MOL0     H95598   7.273   5.959   8.974  1.8657  0.4763 -0.8154
  693MOL0     H95599   7.196   6.112   8.912  0.1945  1.0815 -0.1882
  693MOL0     H95600   7.386   6.240   8.972  0.7890 -0.6766 -1.8406
  693MOL0     H95601   7.462   6.112   9.056  0.7449  2.3961  1.0404
  693MOL0     H95602   7.547   6.149   8.823  1.0936  0.3359  0.9966
  693MOL0     H95603   7.392   6.106   8.761 -1.1885  1.0229  1.8359
  693MOL0     H95604   7.403   5.890   8.842 -0.2260  1.0544 -0.7974
  693MOL0     H95605   7.559   5.905   8.918 -2.3286  2.7515  0.9355
  693MOL0     H95606   7.515   5.945   8.620  3.1861  1.4076 -1.7550
  693MOL0     H95607   7.661   5.953   8.716  0.3993 -0.1427 -1.7549
  693MOL0     H95608   7.637   5.744   8.597 -0.3201 -1.7017 -0.4525
  693MOL0     H95609   7.511   5.693   8.713 -0.4421  0.6079 -1.3108
  693MOL0     H95610   7.685   5.714   8.901 -0.6831  4.6095 -1.2355
  693MOL0     H95611   7.792   5.789   8.783  0.6825  0.2303 -0.7179
  693MOL0     H95612   7.783   5.587   8.650  1.5633  2.1692  0.6935
  693MOL0     H95613   7.682   5.495   8.762  0.4996 -1.2423  0.4950
  693MOL0     H95614   7.245   5.988   9.352 -1.3986  1.1518 -0.8867
  693MOL0     H95615   7.087   5.811   9.467  1.2410 -0.0633 -1.0613
  693MOL0     H95616   6.530   5.635   9.331  0.6992 -0.5374 -0.6941
  693MOL0     H95617   6.383   5.447   9.421  0.1725 -1.0773 -0.6708
  693MOL0     H95618   5.239   5.917   9.852 -0.7699 -1.4144 -0.2521
  693MOL0     H95619   5.224   6.130   9.748 -1.9351  1.1721 -2.5580
  693MOL0     H95620   5.125   6.468   9.625  0.8151  0.4219  1.5233
  693MOL0     H95621   5.144   6.684   9.536 -0.4218  0.2244  1.6002
  693MOL0     H95622   4.850   6.818   9.237 -1.1847  0.1265  0.3613
  693MOL0     H95623   4.756   6.901   9.362 -0.1612 -1.5007  0.4879
  693MOL0     H95624   4.879   7.056   9.176  1.4996  1.1361  0.1063
  693MOL0     H95625   5.021   6.999   9.263 -0.5791  0.9912  0.6482
  693MOL0     H95626   4.885   7.238   9.316 -0.6360 -0.5175 -0.8195
  693MOL0     H95627   4.816   7.128   9.441  0.5899 -0.5927 -0.7006
  693MOL0     H95628   5.102   7.206   9.379  0.0117  2.1300 -0.7525
  693MOL0     H95629   5.061   7.084   9.507 -2.2848 -0.4604 -0.2937
  693MOL0     H95630   4.969   7.447   9.696 -0.4245  1.0434 -1.0729
  693MOL0     H95631   4.737   6.686   9.393 -0.2638  1.0229  0.3628
  693MOL0     H95632   4.715   6.344   9.400  0.4254  0.2131 -1.1405
  693MOL0     H95633   4.625   6.422   9.531  0.2339 -0.7466 -0.1360
  693MOL0     H95634   4.637   6.498   9.375 -0.2763  0.1598 -0.2143
  694MOL0     O95635   1.009   6.720   6.705  0.2954 -0.0696 -0.6104
  694MOL0     C95636   1.107   6.798   6.703  0.3269  0.4817  0.5582
  694MOL0     O95637   1.097   6.922   6.749 -0.8222 -0.5504 -1.0472
  694MOL0     C95638   0.975   6.974   6.782 -0.0112  0.3021 -0.1012
  694MOL0     C95639   0.898   7.067   6.705  0.3014 -0.8254  0.7360
  694MOL0     C95640   0.777   7.127   6.758 -0.3638  0.6561  1.0102
  694MOL0     C95641   0.740   7.097   6.885 -0.5509 -1.0529  0.3800
  694MOL0     O95642   0.640   7.173   6.947  0.0170  0.6069  0.5830
  694MOL0     C95643   0.598   7.149   7.081  0.1710  0.5254 -0.4433
  694MOL0     C95644   0.485   7.239   7.117  0.5784  0.7651  1.0600
  694MOL0     C95645   0.362   7.227   7.029 -0.1764  0.7997 -0.2008
  694MOL0     C95646   0.242   7.277   7.106  0.2371  0.4336 -0.6908
  694MOL0     C95647   0.133   7.316   7.012  0.1692  1.3311 -0.0429
  694MOL0     C95648   0.005   7.358   7.083  1.1277 -0.7304 -0.2960
  694MOL0     C95649  -0.061   7.259   7.200 -0.0099 -0.1699  0.2443
  694MOL0     C95650  -0.109   7.127   7.143 -0.4381 -0.0213  0.7216
  694MOL0     N95651  -0.008   7.035   7.096 -0.0819 -0.5387 -0.0600
  694MOL0     C95652   0.005   6.982   6.968  1.1880 -0.5986  0.0012
  694MOL0     C95653   0.083   6.874   6.978  0.1291 -0.0207  0.4489
  694MOL0     C95654   0.108   6.765   6.881 -0.9983 -0.1307  0.0561
  694MOL0     C95655   0.123   6.630   6.947 -0.4484 -0.4501  0.0132
  694MOL0     C95656   0.174   6.527   6.852 -0.8038  0.0344 -0.1711
  694MOL0     C95657   0.102   6.389   6.881  0.2578 -0.1980 -0.7427
  694MOL0     O95658   0.150   6.285   6.804 -0.0243  0.0022  0.5547
  694MOL0     C95659   0.278   6.245   6.831  0.6248 -0.5766  0.3641
  694MOL0     C95660   0.314   6.179   6.949 -0.1513 -0.8793 -0.0001
  694MOL0     C95661   0.447   6.142   6.974  0.6315 -0.9362 -0.4932
  694MOL0     C95662   0.477   6.057   7.103 -1.1151 -0.1742  0.3130
  694MOL0     C95663   0.550   6.205   6.897 -0.0356 -0.0269 -0.6697
  694MOL0     C95664   0.690   6.186   6.938 -0.3223  0.4417  0.0544
  694MOL0     O95665   0.783   6.194   6.831 -0.5946  0.6408  0.2124
  694MOL0     C95666   0.921   6.208   6.853  0.2620 -0.1690  0.4202
  694MOL0     C95667   0.999   6.173   6.966 -0.3703 -0.1831 -0.4265
  694MOL0     C95668   1.136   6.179   6.969 -0.2150 -1.0965  0.7713
  694MOL0     C95669   1.200   6.234   6.860 -0.1325  0.4980  0.3657
  694MOL0     O95670   1.341   6.234   6.854  0.2193 -0.4049  0.8257
  694MOL0     C95671   1.402   6.361   6.845 -0.1902  0.4316 -0.8146
  694MOL0     C95672   1.548   6.353   6.903  0.1890  0.1364  0.1611
  694MOL0     C95673   1.528   6.349   7.056  0.4604  0.0256  0.2829
  694MOL0     C95674   1.669   6.359   7.120 -0.1670  0.4050  0.5361
  694MOL0     C95675   1.717   6.498   7.159 -0.4417 -0.1767 -0.4674
  694MOL0     C95676   1.631   6.560   7.267 -0.2499 -0.7758 -0.1281
  694MOL0     C95677   1.698   6.693   7.301  0.3510 -0.4024  0.4990
  694MOL0     C95678   1.599   6.781   7.373  0.0089 -0.3335  0.1759
  694MOL0    Cl95679   1.543   6.698   7.530 -0.1530  0.0905 -0.0424
  694MOL0     C95680   1.126   6.266   6.739 -0.1246 -0.3575  0.0591
  694MOL0     C95681   0.990   6.267   6.745 -0.2601 -0.1659  0.9769
  694MOL0     O95682   0.714   6.204   7.057  0.0932  0.1007  0.6652
  694MOL0     C95683   0.510   6.264   6.775 -0.1463 -0.2033  1.0182
  694MOL0     C95684   0.377   6.269   6.741  0.2528 -0.0030  0.2459
  694MOL0     N95685   0.129   6.874   7.107 -0.1172 -0.2063  0.3436
  694MOL0     N95686   0.076   6.965   7.177 -0.3959 -0.0066  0.2085
  694MOL0     C95687   0.811   7.002   6.960  0.0899 -0.5966  0.4629
  694MOL0     C95688   0.927   6.943   6.909  0.0515 -0.2068  0.3188
  694MOL0     C95689   1.235   6.749   6.655 -0.8585 -0.5308 -0.5616
  694MOL0     C95690   1.242   6.612   6.619 -1.3164 -1.6426 -0.6592
  694MOL0     C95691   1.357   6.565   6.564 -0.7508 -0.9663  0.2357
  694MOL0     C95692   1.474   6.642   6.562  0.1381 -0.4593 -0.3479
  694MOL0     O95693   1.585   6.590   6.504 -0.4468 -0.8972 -0.0493
  694MOL0     C95694   1.716   6.608   6.573 -0.6500  0.0191  0.2095
  694MOL0     C95695   1.817   6.551   6.462  0.1406  0.3594  0.4482
  694MOL0     C95696   1.824   6.399   6.485  0.3107 -0.2549  0.6723
  694MOL0     C95697   1.909   6.355   6.598 -0.2930 -0.0221  0.0766
  694MOL0     C95698   1.905   6.203   6.606 -0.2083 -0.3504  0.7533
  694MOL0     C95699   1.917   6.084   6.603  0.2163  0.6881 -0.2054
  694MOL0     C95700   1.470   6.770   6.592  0.4478  1.1505  0.0117
  694MOL0     C95701   1.348   6.832   6.627  0.2983  0.6721  0.3188
  694MOL0     C95702   1.345   6.985   6.625  0.6306  0.4945  0.3384
  694MOL0     H95703   0.933   7.096   6.606 -0.8932 -1.8459 -0.0264
  694MOL0     H95704   0.724   7.193   6.690 -0.9704 -0.8563 -0.0186
  694MOL0     H95705   0.685   7.162   7.146 -1.2045 -0.2897  1.6600
  694MOL0     H95706   0.559   7.047   7.095 -4.0537  2.0567  0.4967
  694MOL0     H95707   0.460   7.220   7.221 -0.6713 -0.9837  0.4883
  694MOL0     H95708   0.522   7.341   7.098  2.6145 -0.1479 -0.1640
  694MOL0     H95709   0.388   7.289   6.942  3.2133 -2.0546 -1.4678
  694MOL0     H95710   0.350   7.128   6.984 -2.0863  1.9669 -2.4929
  694MOL0     H95711   0.208   7.194   7.169  0.7059  0.8732  0.1587
  694MOL0     H95712   0.268   7.359   7.174  0.9419  0.0621 -0.5108
  694MOL0     H95713   0.116   7.228   6.951  0.9635  1.0904  0.0673
  694MOL0     H95714   0.161   7.400   6.948 -1.7855  4.3191  2.7155
  694MOL0     H95715   0.005   7.460   7.124 -3.2084 -0.7026  0.1659
  694MOL0     H95716  -0.074   7.363   7.008  1.3694 -1.1992 -0.5810
  694MOL0     H95717  -0.141   7.310   7.255 -0.8090  1.3182 -2.1608
  694MOL0     H95718   0.007   7.234   7.281  1.7034  1.8636 -0.4766
  694MOL0     H95719  -0.166   7.070   7.217  0.2612 -0.7663  0.7105
  694MOL0     H95720  -0.178   7.144   7.060  0.1705 -2.5471 -0.4101
  694MOL0     H95721  -0.057   7.014   6.885  2.2602 -0.3136 -0.7213
  694MOL0     H95722   0.196   6.800   6.826 -0.7421  1.9412  1.6774
  694MOL0     H95723   0.020   6.764   6.816 -2.2523  2.2507  1.5827
  694MOL0     H95724   0.186   6.638   7.036 -3.0880 -1.2623  2.0943
  694MOL0     H95725   0.021   6.606   6.981 -0.9821  2.0761  0.3435
  694MOL0     H95726   0.158   6.549   6.746  2.5123 -0.6627 -0.9156
  694MOL0     H95727   0.281   6.518   6.869 -0.7188 -3.0136 -1.6580
  694MOL0     H95728   0.105   6.359   6.986  2.6551  2.3716  0.0688
  694MOL0     H95729  -0.003   6.408   6.861 -0.7964 -0.8495  3.2743
  694MOL0     H95730   0.236   6.147   7.018  0.9212  1.8040  2.6868
  694MOL0     H95731   0.406   5.974   7.113 -2.6315  1.2206  1.8654
  694MOL0     H95732   0.480   6.127   7.187 -0.8899 -1.0573  1.0646
  694MOL0     H95733   0.575   6.009   7.105 -1.1040 -0.4845 -2.5833
  694MOL0     H95734   0.947   6.149   7.057  0.9182  1.9256  0.9585
  694MOL0     H95735   1.194   6.157   7.058 -0.2656 -0.7210  0.9016
  694MOL0     H95736   1.411   6.378   6.738  0.6353  2.4590 -0.4612
  694MOL0     H95737   1.353   6.446   6.893 -0.6137  1.3578 -2.8092
  694MOL0     H95738   1.579   6.255   6.866 -1.3049 -0.3775  0.1909
  694MOL0     H95739   1.618   6.427   6.863 -0.2328  0.3656 -0.1687
  694MOL0     H95740   1.472   6.259   7.082 -1.3849  1.8066  3.0287
  694MOL0     H95741   1.466   6.434   7.086  0.5470  0.2932 -0.2891
  694MOL0     H95742   1.751   6.314   7.062 -0.0936 -1.3078  1.8585
  694MOL0     H95743   1.672   6.285   7.202  0.8659  0.0957  0.2414
  694MOL0     H95744   1.818   6.479   7.193 -0.9895 -1.5133  0.4531
  694MOL0     H95745   1.715   6.560   7.068  2.1337  0.7836  0.0519
  694MOL0     H95746   1.634   6.502   7.360  2.1896  1.1181  1.1095
  694MOL0     H95747   1.529   6.578   7.232 -0.1205 -2.4096 -1.4882
  694MOL0     H95748   1.723   6.745   7.208  3.0537  0.7887  1.7822
  694MOL0     H95749   1.786   6.673   7.363 -2.0443 -1.3674  3.8223
  694MOL0     H95750   1.519   6.803   7.302  0.7501  0.2935 -0.4881
  694MOL0     H95751   1.637   6.883   7.382  1.7339 -0.5729 -3.1104
  694MOL0     H95752   1.193   6.300   6.660 -1.0551  2.1466  0.2838
  694MOL0     H95753   0.927   6.293   6.661  0.8500 -1.4382 -0.3092
  694MOL0     H95754   0.583   6.286   6.698 -1.0544 -3.2047 -0.8775
  694MOL0     H95755   0.335   6.288   6.642  1.3087  0.6455 -0.1004
  694MOL0     H95756   0.767   6.963   7.051 -0.2335 -0.3642  0.4083
  694MOL0     H95757   0.973   6.861   6.963 -2.8033 -1.3942  1.1731
  694MOL0     H95758   1.160   6.543   6.634 -2.5059 -0.5516 -1.8506
  694MOL0     H95759   1.370   6.471   6.512  0.5489 -0.4429 -0.4335
  694MOL0     H95760   1.744   6.713   6.586  0.4827 -0.4242  1.6601
  694MOL0     H95761   1.725   6.547   6.663  2.0546 -0.4957 -0.3124
  694MOL0     H95762   1.917   6.592   6.476  0.7236 -0.8720 -0.0024
  694MOL0     H95763   1.774   6.580   6.365  0.3900 -1.8047 -0.3598
  694MOL0     H95764   1.724   6.355   6.489  0.0518  0.3893  1.5236
  694MOL0     H95765   1.863   6.359   6.391 -3.5587 -2.5355 -0.1793
  694MOL0     H95766   1.876   6.400   6.692 -0.6565  1.9954 -0.9483
  694MOL0     H95767   2.016   6.367   6.581 -0.3929  1.6928  0.4116
  694MOL0     H95768   1.914   5.977   6.611 -0.0030  0.5135 -2.0609
  694MOL0     H95769   1.564   6.821   6.606  1.3316 -0.1144 -1.0551
  694MOL0     H95770   1.428   7.025   6.566  1.3283 -0.7134  0.4465
  694MOL0     H95771   1.256   7.034   6.585  0.0286 -1.4747 -0.9139
  694MOL0     H95772   1.377   7.018   6.724  0.9454  0.9002  0.1005
  695MOL0     O95773   2.437   1.444   0.794  0.5590 -0.4373  0.4322
  695MOL0     C95774   2.382   1.356   0.861 -0.3730 -0.4067 -0.0852
  695MOL0     O95775   2.434   1.230   0.868 -0.7543  0.4214  0.4874
  695MOL0     C95776   2.536   1.199   0.776 -0.2149 -0.3477 -0.6657
  695MOL0     C95777   2.671   1.204   0.811 -0.5048 -0.2279  0.1401
  695MOL0     C95778   2.774   1.185   0.721 -0.5899  1.2384  0.4890
  695MOL0     C95779   2.745   1.138   0.595 -0.0084 -0.2892 -1.1730
  695MOL0     O95780   2.860   1.105   0.526  0.3305 -0.0309 -0.6398
  695MOL0     C95781   2.865   1.093   0.381 -0.4493  0.9364 -0.6598
  695MOL0     C95782   2.933   1.208   0.307  0.3837  1.0777 -0.1896
  695MOL0     C95783   3.046   1.265   0.390 -1.0431  0.2772  0.5372
  695MOL0     C95784   3.159   1.162   0.404 -0.2798  0.7066  0.6176
  695MOL0     C95785   3.287   1.237   0.419  1.0614  1.6098  0.3498
  695MOL0     C95786   3.348   1.287   0.286  0.8882  0.1548  0.8405
  695MOL0     C95787   3.486   1.357   0.311  0.4588 -0.2356 -0.0964
  695MOL0     C95788   3.561   1.387   0.182 -0.8593 -0.4814 -0.5856
  695MOL0     N95789   3.508   1.510   0.112 -0.0342  0.1813  0.3155
  695MOL0     C95790   3.421   1.507   0.015  1.2083 -0.3576 -0.9198
  695MOL0     C95791   3.416   1.630  -0.053  0.1913  0.1434 -0.5796
  695MOL0     C95792   3.341   1.672  -0.170 -0.3004 -0.4308 -0.1168
  695MOL0     C95793   3.326   1.828  -0.179 -0.1847 -1.0089  0.5600
  695MOL0     C95794   3.201   1.897  -0.101 -0.6567  0.4650  0.5267
  695MOL0     C95795   3.183   2.039  -0.138 -0.2070  0.1820 -0.1498
  695MOL0     O95796   3.066   2.097  -0.075  0.4603 -0.4360  0.6335
  695MOL0     C95797   3.069   2.165   0.044 -0.6229  0.4167 -0.4401
  695MOL0     C95798   2.946   2.224   0.079 -0.4319 -0.2641  0.8287
  695MOL0     C95799   2.937   2.314   0.180 -0.9190 -0.8041  0.6734
  695MOL0     C95800   2.803   2.392   0.201 -0.5268  0.7295 -0.7128
  695MOL0     C95801   3.059   2.351   0.251  0.4583 -0.2930 -0.2287
  695MOL0     C95802   3.062   2.469   0.332  0.5139  0.2330 -0.4728
  695MOL0     O95803   3.053   2.459   0.469  0.2741 -0.1748 -0.2099
  695MOL0     C95804   3.090   2.344   0.533 -0.0544 -0.2947 -0.6113
  695MOL0     C95805   3.215   2.339   0.599  0.1927 -1.0062 -0.4800
  695MOL0     C95806   3.265   2.241   0.680 -0.2628  0.2470 -0.4349
  695MOL0     C95807   3.184   2.130   0.703 -0.0882 -0.3229  0.4934
  695MOL0     O95808   3.203   2.024   0.793  0.3246  0.5013 -0.3303
  695MOL0     C95809   3.303   2.041   0.898  0.1290 -0.1115 -0.2575
  695MOL0     C95810   3.308   1.920   0.984 -0.1633  0.0346  0.3156
  695MOL0     C95811   3.171   1.892   1.049  0.1653 -0.6974 -1.0394
  695MOL0     C95812   3.196   1.780   1.158 -0.7408  0.0398 -0.3213
  695MOL0     C95813   3.065   1.732   1.213 -0.4003 -0.8137 -0.5865
  695MOL0     C95814   3.081   1.655   1.339  0.7610  0.0641 -0.7095
  695MOL0     C95815   3.175   1.530   1.319  0.5086 -0.0313  0.1000
  695MOL0     C95816   3.183   1.461   1.457 -0.1451 -0.5301 -0.6126
  695MOL0    Cl95817   3.020   1.422   1.505  0.1607  0.1061  0.2586
  695MOL0     C95818   3.056   2.127   0.633  0.2606  0.6981 -0.1047
  695MOL0     C95819   3.008   2.234   0.544  0.8683 -0.4599  0.1735
  695MOL0     O95820   3.079   2.577   0.271 -0.6767  0.2554 -0.0874
  695MOL0     C95821   3.174   2.287   0.225 -0.2073 -0.0800  0.1705
  695MOL0     C95822   3.179   2.185   0.125 -0.4877 -0.4206  0.1692
  695MOL0     N95823   3.510   1.701   0.012 -0.3563  0.2686  0.2061
  695MOL0     N95824   3.566   1.635   0.105 -0.0872 -0.5283  0.1250
  695MOL0     C95825   2.610   1.102   0.561  0.2804  0.4816 -0.0165
  695MOL0     C95826   2.505   1.139   0.656 -0.7086 -0.2195  0.3223
  695MOL0     C95827   2.254   1.381   0.928 -0.6462 -0.4163 -1.0946
  695MOL0     C95828   2.179   1.270   0.976 -0.3703  0.3809 -0.6350
  695MOL0     C95829   2.062   1.286   1.041  0.0673  0.5185 -0.0080
  695MOL0     C95830   2.001   1.405   1.049  0.4242 -0.0333  0.0618
  695MOL0     O95831   1.868   1.403   1.095  0.3026  0.0365  0.6086
  695MOL0     C95832   1.805   1.520   1.156 -0.5911  0.0726  0.4562
  695MOL0     C95833   1.837   1.524   1.308 -0.0669 -0.2329 -0.4623
  695MOL0     C95834   1.829   1.388   1.374 -0.1625  0.5525 -0.6973
  695MOL0     C95835   1.802   1.409   1.525  0.2444 -0.4374 -0.4557
  695MOL0     C95836   1.769   1.279   1.582  1.4536 -0.1178  0.0982
  695MOL0     C95837   1.737   1.164   1.614  0.6085 -0.4125  0.0640
  695MOL0     C95838   2.063   1.516   1.017 -0.0253 -0.4213  0.1119
  695MOL0     C95839   2.199   1.512   0.962  0.0321 -1.1039  0.8503
  695MOL0     C95840   2.268   1.638   0.936  0.7818 -0.3757 -0.2670
  695MOL0     H95841   2.706   1.241   0.907  0.1662  4.0494 -1.5525
  695MOL0     H95842   2.877   1.194   0.754  0.1452 -0.7668 -1.0750
  695MOL0     H95843   2.765   1.069   0.344 -0.5134 -1.9038  1.0730
  695MOL0     H95844   2.926   1.009   0.347 -3.4888 -0.9924 -1.6981
  695MOL0     H95845   2.969   1.185   0.206  1.5526  1.1420  0.1955
  695MOL0     H95846   2.860   1.289   0.305 -0.0459  0.7704  1.5527
  695MOL0     H95847   3.076   1.364   0.357 -2.5443  0.3969 -0.5752
  695MOL0     H95848   3.010   1.283   0.492 -2.3632 -2.2551  0.6054
  695MOL0     H95849   3.128   1.088   0.478  0.1607 -0.9993 -0.8247
  695MOL0     H95850   3.165   1.097   0.316 -1.5270  0.5197  0.6449
  695MOL0     H95851   3.346   1.151   0.451  0.8020  2.3259  3.0095
  695MOL0     H95852   3.280   1.304   0.506  1.1418 -0.2240  1.8405
  695MOL0     H95853   3.390   1.203   0.230  4.7534  0.7207  2.5247
  695MOL0     H95854   3.291   1.356   0.222  1.8222 -2.1725 -2.8288
  695MOL0     H95855   3.542   1.287   0.374  0.1930 -1.8208 -1.5265
  695MOL0     H95856   3.478   1.450   0.368 -3.8006 -1.0126  0.9213
  695MOL0     H95857   3.666   1.397   0.209  0.3190  0.0160 -4.7055
  695MOL0     H95858   3.550   1.300   0.117 -3.5134 -0.7512  0.0984
  695MOL0     H95859   3.369   1.416  -0.016  1.2320 -0.1239 -1.6745
  695MOL0     H95860   3.251   1.611  -0.163  0.4991 -1.5696  0.5127
  695MOL0     H95861   3.400   1.634  -0.253 -2.9026 -2.7617 -1.0465
  695MOL0     H95862   3.423   1.874  -0.157  1.5185 -3.1012 -2.0392
  695MOL0     H95863   3.318   1.861  -0.282  0.5826 -1.4193  0.3628
  695MOL0     H95864   3.117   1.828  -0.117 -1.6191  1.4807  1.0405
  695MOL0     H95865   3.223   1.891   0.007 -0.3982 -2.3085  0.4014
  695MOL0     H95866   3.278   2.088  -0.115 -0.1252 -0.7012  1.5442
  695MOL0     H95867   3.161   2.047  -0.245 -0.0678  2.3711 -0.0596
  695MOL0     H95868   2.854   2.201   0.028 -0.8900 -0.9564  1.9262
  695MOL0     H95869   2.828   2.497   0.184  2.7609  0.1359 -0.1215
  695MOL0     H95870   2.768   2.374   0.303 -0.4182 -1.9297 -1.0823
  695MOL0     H95871   2.717   2.370   0.138 -0.4329  1.1015 -0.9782
  695MOL0     H95872   3.280   2.426   0.589 -0.4832 -0.1937  1.5971
  695MOL0     H95873   3.359   2.251   0.732 -2.0984 -1.0697  3.4886
  695MOL0     H95874   3.406   2.053   0.862  1.8271 -3.3998  2.8115
  695MOL0     H95875   3.284   2.123   0.967  1.6418  1.5000 -1.6613
  695MOL0     H95876   3.339   1.838   0.918  1.5081 -0.4277  1.6389
  695MOL0     H95877   3.385   1.939   1.058  1.2384 -0.5981 -0.9291
  695MOL0     H95878   3.102   1.863   0.969 -1.0551 -1.9270  0.3963
  695MOL0     H95879   3.123   1.981   1.089  2.4199  0.5601 -0.9395
  695MOL0     H95880   3.241   1.832   1.243  1.1741  1.4763 -2.0718
  695MOL0     H95881   3.268   1.708   1.117 -3.1503 -2.1568 -0.9547
  695MOL0     H95882   2.996   1.817   1.213  0.3677 -0.0689 -4.0247
  695MOL0     H95883   3.039   1.659   1.135  1.5125 -0.5824 -1.4888
  695MOL0     H95884   2.982   1.633   1.379 -0.0779  1.9367 -1.6031
  695MOL0     H95885   3.123   1.720   1.416 -0.4928  0.3045 -0.2105
  695MOL0     H95886   3.278   1.555   1.290  0.5256 -1.9634 -1.7344
  695MOL0     H95887   3.129   1.465   1.245 -0.9902 -0.4217  1.3223
  695MOL0     H95888   3.220   1.531   1.532 -0.3089 -4.5022  3.6343
  695MOL0     H95889   3.252   1.376   1.458  0.1131 -0.3338  1.1061
  695MOL0     H95890   2.995   2.040   0.651  2.3395 -0.5438  1.4236
  695MOL0     H95891   2.916   2.253   0.490  1.8616 -0.9383 -1.7579
  695MOL0     H95892   3.269   2.304   0.275 -0.8542 -4.1156  3.3509
  695MOL0     H95893   3.272   2.135   0.103 -0.6666 -0.4318 -0.5908
  695MOL0     H95894   2.570   1.057   0.471 -0.9249  0.5690  0.4437
  695MOL0     H95895   2.400   1.129   0.628 -0.6956 -2.0245  0.7973
  695MOL0     H95896   2.231   1.176   0.959  0.0826  0.7733 -1.5106
  695MOL0     H95897   1.998   1.204   1.072 -1.1911  0.5974 -2.1896
  695MOL0     H95898   1.830   1.613   1.106 -0.7923 -1.4085 -2.6677
  695MOL0     H95899   1.696   1.516   1.144 -0.8215 -0.2447  2.4171
  695MOL0     H95900   1.757   1.587   1.348  0.8829 -0.9770  2.9721
  695MOL0     H95901   1.932   1.576   1.323  0.0938 -0.2824 -1.2413
  695MOL0     H95902   1.756   1.323   1.325 -0.0013 -0.8626  0.8499
  695MOL0     H95903   1.925   1.336   1.367 -1.8094 -3.2548  1.7076
  695MOL0     H95904   1.715   1.473   1.545  1.1194  0.5164  0.4054
  695MOL0     H95905   1.884   1.456   1.580 -0.9203 -0.7099  1.6612
  695MOL0     H95906   1.716   1.064   1.646  0.2518 -0.3300  0.0858
  695MOL0     H95907   2.003   1.605   0.998 -0.9184 -1.1761 -0.6932
  695MOL0     H95908   2.350   1.653   1.006  0.9259  0.4661 -0.6036
  695MOL0     H95909   2.302   1.649   0.832 -2.9166  2.6748 -1.3906
  695MOL0     H95910   2.193   1.717   0.934 -0.2115 -1.3027 -1.5082
  696MOL0     O95911   6.477   3.505   1.878 -0.4351  0.7536  0.2973
  696MOL0     C95912   6.406   3.415   1.829 -0.0576 -0.7743  0.5196
  696MOL0     O95913   6.282   3.414   1.781 -0.0096 -0.7901  0.8236
  696MOL0     C95914   6.208   3.526   1.757  0.1336  0.2400 -0.4917
  696MOL0     C95915   6.251   3.643   1.683  0.5689  0.0461 -0.1702
  696MOL0     C95916   6.156   3.749   1.661 -0.1440  0.5641 -0.1436
  696MOL0     C95917   6.022   3.732   1.695 -0.4023 -0.2112 -0.4957
  696MOL0     O95918   5.936   3.842   1.670  0.5776  0.6302  0.1781
  696MOL0     C95919   5.813   3.842   1.741 -0.0801 -0.4003 -0.1033
  696MOL0     C95920   5.796   3.993   1.779 -0.4751  0.5246 -0.0039
  696MOL0     C95921   5.782   4.104   1.670  0.6474 -0.4415  0.5062
  696MOL0     C95922   5.777   4.248   1.725  1.0293 -0.2100  0.1561
  696MOL0     C95923   5.767   4.340   1.606  1.0400  0.8120 -0.4543
  696MOL0     C95924   5.622   4.342   1.555  0.8000 -0.7232 -0.9602
  696MOL0     C95925   5.601   4.462   1.461  0.3183 -0.5340  0.6541
  696MOL0     C95926   5.689   4.465   1.333  0.9964  0.0305 -0.3212
  696MOL0     N95927   5.804   4.559   1.349 -0.4001  1.0654 -0.2424
  696MOL0     C95928   5.805   4.701   1.366 -0.0880  0.2413 -0.1536
  696MOL0     C95929   5.931   4.723   1.410  0.0230 -0.3265 -1.1719
  696MOL0     C95930   5.963   4.862   1.466 -0.6091  0.6018 -0.7942
  696MOL0     C95931   5.989   4.846   1.624  0.2169 -0.2163 -0.0213
  696MOL0     C95932   6.008   4.982   1.685  0.3645  0.0437 -0.2809
  696MOL0     C95933   6.144   5.048   1.656 -0.6217  0.8695 -1.4436
  696MOL0     O95934   6.261   4.961   1.693  0.3768  0.2030  0.0803
  696MOL0     C95935   6.374   5.038   1.692 -0.3278 -0.0965 -0.8320
  696MOL0     C95936   6.437   5.070   1.569  0.5821 -0.5974 -0.0891
  696MOL0     C95937   6.558   5.146   1.555  0.4846 -0.1990 -0.3020
  696MOL0     C95938   6.604   5.172   1.413  0.3751 -0.0512  0.5648
  696MOL0     C95939   6.596   5.212   1.673  0.0834 -0.1710  0.0663
  696MOL0     C95940   6.700   5.314   1.688 -0.2875  0.5793 -0.1174
  696MOL0     O95941   6.784   5.306   1.795  0.1494 -1.0390  0.3933
  696MOL0     C95942   6.899   5.377   1.817  0.2524  0.2494  0.3477
  696MOL0     C95943   6.960   5.341   1.937  0.1144 -0.8227 -0.1570
  696MOL0     C95944   7.077   5.403   1.986  0.3331  1.6265 -0.2430
  696MOL0     C95945   7.141   5.497   1.905  0.0396  0.3872  0.6578
  696MOL0     O95946   7.270   5.542   1.918 -0.5079 -0.6950  0.0181
  696MOL0     C95947   7.340   5.489   2.031  0.4051  0.2928  0.2776
  696MOL0     C95948   7.485   5.500   1.996 -0.0879  0.5098  0.2674
  696MOL0     C95949   7.566   5.477   2.126  0.4166  0.6355  0.9314
  696MOL0     C95950   7.672   5.589   2.162 -0.3545  0.6424 -0.3092
  696MOL0     C95951   7.743   5.561   2.311  0.1033  0.2400  0.9400
  696MOL0     C95952   7.801   5.423   2.307 -0.6786  1.3234  0.2749
  696MOL0     C95953   7.912   5.393   2.197 -0.5944 -0.3560 -0.0676
  696MOL0     C95954   7.979   5.263   2.211  0.7371  0.4950  0.5165
  696MOL0    Cl95955   8.065   5.253   2.369 -0.2772  0.2150 -0.0582
  696MOL0     C95956   7.086   5.526   1.781 -0.5864  0.6404  0.6063
  696MOL0     C95957   6.964   5.468   1.732  0.7807  0.6625 -0.1115
  696MOL0     O95958   6.710   5.394   1.596  0.0641 -0.0909 -0.1151
  696MOL0     C95959   6.530   5.183   1.797  0.3176 -0.4174  0.4310
  696MOL0     C95960   6.427   5.090   1.810 -0.0943  0.7386 -0.6645
  696MOL0     N95961   6.009   4.611   1.410 -0.4249  0.2112 -0.3844
  696MOL0     N95962   5.931   4.512   1.380 -0.2300 -0.2137  0.8494
  696MOL0     C95963   5.988   3.610   1.755  0.0280 -0.4889 -0.1300
  696MOL0     C95964   6.074   3.501   1.774 -0.4226 -0.0539 -0.8614
  696MOL0     C95965   6.495   3.303   1.776 -0.8140  0.5413  0.6255
  696MOL0     C95966   6.509   3.285   1.643  0.9403 -0.0446 -0.8508
  696MOL0     C95967   6.585   3.184   1.593 -0.6681  0.8210  1.0804
  696MOL0     C95968   6.678   3.117   1.667  0.7022 -0.3322  0.5610
  696MOL0     O95969   6.759   3.032   1.601 -0.3952  0.8276  0.0339
  696MOL0     C95970   6.844   2.941   1.682  0.1351  0.0136  0.2249
  696MOL0     C95971   6.859   2.807   1.609  0.6894  0.2764 -0.7111
  696MOL0     C95972   6.726   2.740   1.561  0.1165 -0.4009  0.0086
  696MOL0     C95973   6.634   2.697   1.683  0.5482 -0.2507  0.2151
  696MOL0     C95974   6.526   2.616   1.635  0.0287 -0.1153  0.7891
  696MOL0     C95975   6.445   2.532   1.608 -0.0152 -0.5181  0.6313
  696MOL0     C95976   6.679   3.145   1.804  0.0299 -0.3545 -0.4920
  696MOL0     C95977   6.580   3.227   1.860  0.4168  0.6173 -0.8236
  696MOL0     C95978   6.566   3.232   2.019  0.2524  0.6561 -0.4111
  696MOL0     H95979   6.353   3.655   1.646  1.5832  0.7622  2.5764
  696MOL0     H95980   6.186   3.827   1.592  1.5256 -2.3043 -2.9904
  696MOL0     H95981   5.817   3.783   1.833  2.0724 -0.3936 -0.1262
  696MOL0     H95982   5.737   3.809   1.670 -0.8534  2.2010 -0.6197
  696MOL0     H95983   5.706   4.000   1.842 -0.3139  1.4238  0.1365
  696MOL0     H95984   5.888   4.026   1.827  0.5202  1.6353 -2.5279
  696MOL0     H95985   5.868   4.087   1.604 -0.8965  0.2544 -1.8096
  696MOL0     H95986   5.695   4.082   1.608 -0.4846  2.5520  0.8607
  696MOL0     H95987   5.695   4.256   1.798 -2.0008  0.4794 -3.0517
  696MOL0     H95988   5.871   4.260   1.780  0.5831  2.6326  0.4463
  696MOL0     H95989   5.827   4.302   1.523  2.3767  2.3927 -0.2743
  696MOL0     H95990   5.803   4.438   1.640 -1.0796  1.1436  1.0058
  696MOL0     H95991   5.581   4.246   1.524 -0.7885 -1.4405  2.7668
  696MOL0     H95992   5.567   4.366   1.647 -0.4105 -1.7492 -1.3817
  696MOL0     H95993   5.628   4.550   1.519 -0.2262  0.0639  0.0220
  696MOL0     H95994   5.496   4.468   1.431 -0.0960 -1.4343  1.8704
  696MOL0     H95995   5.716   4.359   1.330  1.9047  0.2519 -0.2404
  696MOL0     H95996   5.621   4.496   1.253 -0.5609  2.4413  1.7819
  696MOL0     H95997   5.724   4.768   1.340 -1.6417 -0.5964  2.1896
  696MOL0     H95998   5.876   4.929   1.457 -2.3794 -1.3173  0.9994
  696MOL0     H95999   6.049   4.907   1.416  0.1805 -2.6541 -2.6181
  696MOL0     H96000   5.893   4.806   1.657  0.0265  0.9679  0.9108
  696MOL0     H96001   6.074   4.780   1.644  1.5354  1.2107 -0.6562
  696MOL0     H96002   5.925   5.052   1.677  0.4383  0.2095  0.3618
  696MOL0     H96003   5.999   4.944   1.787 -2.7080  0.2456 -0.3994
  696MOL0     H96004   6.147   5.062   1.548 -2.2484  2.2364 -1.3717
  696MOL0     H96005   6.139   5.144   1.708 -3.0278  0.6371 -1.1252
  696MOL0     H96006   6.400   5.022   1.480  3.0970 -0.5692 -1.2394
  696MOL0     H96007   6.711   5.150   1.400  0.3605 -0.4668  1.0876
  696MOL0     H96008   6.592   5.279   1.399  1.6381  0.1363  0.7246
  696MOL0     H96009   6.545   5.126   1.333 -1.2552  0.7618  1.2702
  696MOL0     H96010   6.915   5.273   2.008 -0.5059  2.7910  3.2120
  696MOL0     H96011   7.116   5.384   2.085 -1.7676  0.1297  0.3737
  696MOL0     H96012   7.318   5.552   2.117  3.2364  0.1685  1.1950
  696MOL0     H96013   7.323   5.382   2.039 -0.4048  0.5145  1.9278
  696MOL0     H96014   7.503   5.415   1.929 -0.9978 -1.2054  2.0932
  696MOL0     H96015   7.507   5.594   1.945 -1.5709  0.9327  0.3407
  696MOL0     H96016   7.611   5.377   2.126  2.9364  1.6637 -0.5585
  696MOL0     H96017   7.502   5.485   2.214 -0.4678  1.8885  0.2014
  696MOL0     H96018   7.624   5.685   2.180  1.1530  0.8690  3.3500
  696MOL0     H96019   7.735   5.601   2.073 -0.9056  1.3011 -0.6183
  696MOL0     H96020   7.824   5.634   2.319  1.1859 -0.8754  0.3324
  696MOL0     H96021   7.667   5.589   2.385 -2.3899 -0.1734 -1.3369
  696MOL0     H96022   7.716   5.354   2.303  0.4331 -0.1017  0.5773
  696MOL0     H96023   7.841   5.401   2.406  0.3507 -0.0207 -0.4224
  696MOL0     H96024   7.976   5.481   2.183 -2.4203  0.9095 -0.8832
  696MOL0     H96025   7.869   5.391   2.096 -2.0548  1.3716  0.4606
  696MOL0     H96026   8.042   5.248   2.123  0.0474 -0.3419  0.1471
  696MOL0     H96027   7.902   5.186   2.204  0.4541  0.5137  2.7591
  696MOL0     H96028   7.132   5.605   1.722  1.0911  0.4743  1.6457
  696MOL0     H96029   6.930   5.498   1.633 -0.9080  1.7937  0.7522
  696MOL0     H96030   6.574   5.213   1.892  2.4863  0.4629 -0.8032
  696MOL0     H96031   6.390   5.084   1.912  0.6534  0.4882 -0.3946
  696MOL0     H96032   5.888   3.596   1.795 -0.1284  2.1712  0.5560
  696MOL0     H96033   6.042   3.406   1.816 -0.2746  0.1545 -0.2655
  696MOL0     H96034   6.451   3.344   1.573 -1.1604  0.5863  1.2926
  696MOL0     H96035   6.570   3.154   1.490  0.9472  0.3216  0.9671
  696MOL0     H96036   6.940   2.992   1.693  1.0589 -1.8220  1.1846
  696MOL0     H96037   6.797   2.920   1.778 -2.1299  0.7567 -0.6652
  696MOL0     H96038   6.912   2.727   1.662 -1.1559  0.2602  1.2000
  696MOL0     H96039   6.920   2.826   1.520  1.5210 -1.6558 -0.6243
  696MOL0     H96040   6.676   2.806   1.490  4.7865  1.2642 -2.1470
  696MOL0     H96041   6.747   2.652   1.500  1.5046  1.9968 -3.2179
  696MOL0     H96042   6.597   2.785   1.737  0.3653 -1.2433  1.7576
  696MOL0     H96043   6.699   2.640   1.750  0.7141 -1.9427 -1.3177
  696MOL0     H96044   6.372   2.454   1.593 -3.5861  2.3709  1.6488
  696MOL0     H96045   6.750   3.101   1.873  0.2312  0.3003 -0.2659
  696MOL0     H96046   6.664   3.237   2.068  1.5872 -1.3910 -2.6389
  696MOL0     H96047   6.517   3.326   2.047  0.6507  0.5553  0.6429
  696MOL0     H96048   6.501   3.150   2.048 -3.0707  2.9934 -0.6168
  697MOL0     O96049   4.116   6.545   9.152  0.1392 -0.8780 -0.3456
  697MOL0     C96050   4.090   6.536   9.035  0.1033  1.0030 -0.5978
  697MOL0     O96051   4.017   6.431   8.984 -0.8068 -0.0753  0.1366
  697MOL0     C96052   3.906   6.390   9.055  0.4000  0.4538  0.8775
  697MOL0     C96053   3.833   6.469   9.144  0.0055  0.1839 -0.6478
  697MOL0     C96054   3.731   6.412   9.221 -0.6710 -1.1410 -0.1169
  697MOL0     C96055   3.701   6.276   9.211 -0.6425 -0.8425  0.7995
  697MOL0     O96056   3.605   6.217   9.287 -0.5186 -0.0783  1.1804
  697MOL0     C96057   3.553   6.270   9.411  0.0733  0.3421 -0.3071
  697MOL0     C96058   3.414   6.306   9.383 -0.0043 -0.0999 -0.4731
  697MOL0     C96059   3.357   6.420   9.474  0.5773  0.4952  0.6963
  697MOL0     C96060   3.195   6.421   9.476 -0.6179  0.4894 -0.2522
  697MOL0     C96061   3.153   6.532   9.576  0.0909 -0.0586 -0.0358
  697MOL0     C96062   2.999   6.536   9.614 -0.3322 -0.1073 -0.0054
  697MOL0     C96063   2.952   6.664   9.674  0.3441  0.4159  0.5040
  697MOL0     C96064   2.940   6.658   9.819 -0.2368  1.5933  0.5018
  697MOL0     N96065   2.929   6.789   9.883  0.2820 -0.1235 -0.1064
  697MOL0     C96066   3.030   6.887   9.877  0.6125  0.2089 -0.8327
  697MOL0     C96067   2.973   7.001   9.926  0.1830 -1.0207  0.2144
  697MOL0     C96068   3.031   7.136   9.959  0.0743  0.3922  0.6866
  697MOL0     C96069   3.128   7.124  10.080 -0.1752 -0.0800 -0.4981
  697MOL0     C96070   3.255   7.034  10.054  0.1004  0.6323  0.2639
  697MOL0     C96071   3.351   7.055  10.165  0.3895  0.5360 -1.2198
  697MOL0     O96072   3.379   7.189  10.176 -0.5887 -0.0970 -0.1966
  697MOL0     C96073   3.478   7.230  10.267 -0.0855 -1.1726  0.5925
  697MOL0     C96074   3.518   7.153  10.369 -0.1814 -0.5357 -0.2597
  697MOL0     C96075   3.634   7.193  10.449  0.5037  0.3314  0.4469
  697MOL0     C96076   3.700   7.086  10.539 -0.5199 -0.0469 -0.0415
  697MOL0     C96077   3.688   7.319  10.432  0.3828 -0.8990 -0.3617
  697MOL0     C96078   3.814   7.367  10.507  0.1462 -0.3922 -0.1679
  697MOL0     O96079   3.807   7.492  10.560 -0.2303 -0.1057  0.2229
  697MOL0     C96080   3.686   7.527  10.616  0.4869  0.4290  0.0112
  697MOL0     C96081   3.621   7.437  10.707 -0.2457  0.0778  0.1970
  697MOL0     C96082   3.493   7.465  10.764  0.5928  0.2366  0.6754
  697MOL0     C96083   3.434   7.585  10.731 -0.0373  1.0007  0.6028
  697MOL0     O96084   3.313   7.614  10.781 -0.2214 -0.5882 -0.4250
  697MOL0     C96085   3.233   7.722  10.733  0.9451  0.1038 -0.2611
  697MOL0     C96086   3.104   7.704  10.814  0.1227  0.5334  0.9564
  697MOL0     C96087   2.995   7.628  10.736  0.3579 -0.5012 -0.5557
  697MOL0     C96088   2.865   7.618  10.819 -0.0651 -0.0470  0.1436
  697MOL0     C96089   2.781   7.523  10.727 -0.7453  0.5333  0.5962
  697MOL0     C96090   2.659   7.464  10.801  0.1253 -0.6234  0.1967
  697MOL0     C96091   2.532   7.531  10.761  0.3036 -1.5409  0.2162
  697MOL0     C96092   2.408   7.463  10.822 -0.5256  1.2406  0.0031
  697MOL0    Cl96093   2.377   7.323  10.721  0.3220 -0.2869 -0.2958
  697MOL0     C96094   3.511   7.673  10.653  0.3391  0.5812  0.6040
  697MOL0     C96095   3.633   7.652  10.598  0.7332 -0.2593 -0.1330
  697MOL0     O96096   3.907   7.290  10.508 -0.4330 -0.4045  0.1311
  697MOL0     C96097   3.639   7.399  10.333 -0.1048  0.5892 -0.1577
  697MOL0     C96098   3.536   7.355  10.247  0.5858  0.7858 -0.2804
  697MOL0     N96099   2.849   6.961   9.982 -0.1814 -0.8552  0.7900
  697MOL0     N96100   2.816   6.843   9.939  0.0253  0.4519 -0.0854
  697MOL0     C96101   3.781   6.206   9.125 -0.1233 -0.0050 -0.4258
  697MOL0     C96102   3.870   6.262   9.038  0.6792  0.6821  0.5254
  697MOL0     C96103   4.173   6.613   8.939  0.7964  0.2218  0.5872
  697MOL0     C96104   4.229   6.545   8.828 -0.2446 -0.4374 -0.1215
  697MOL0     C96105   4.288   6.617   8.731  0.7298 -0.5788 -0.4174
  697MOL0     C96106   4.304   6.757   8.736  0.0149 -0.0302  0.7357
  697MOL0     O96107   4.354   6.815   8.627 -0.4285 -0.2380  0.5895
  697MOL0     C96108   4.436   6.924   8.652 -0.0444 -0.5003  0.4670
  697MOL0     C96109   4.503   6.960   8.521 -0.0525 -0.4851  0.2393
  697MOL0     C96110   4.565   7.102   8.518 -0.1774 -0.5838  1.0910
  697MOL0     C96111   4.707   7.128   8.590  0.9334 -0.1919  0.8767
  697MOL0     C96112   4.736   7.270   8.617  0.2642  0.2154  0.6149
  697MOL0     C96113   4.764   7.386   8.636 -0.5486 -0.8334  0.7149
  697MOL0     C96114   4.256   6.813   8.847 -0.8261 -0.4385  0.1303
  697MOL0     C96115   4.189   6.749   8.953 -0.3174 -0.0304 -0.7584
  697MOL0     C96116   4.152   6.828   9.074 -0.0219 -0.4681  0.4043
  697MOL0     H96117   3.847   6.577   9.145 -1.1679  0.3422 -0.6985
  697MOL0     H96118   3.674   6.479   9.285 -1.9370 -0.7573 -1.5884
  697MOL0     H96119   3.618   6.350   9.449 -0.6139 -0.5003  2.9381
  697MOL0     H96120   3.554   6.192   9.487  1.8003  0.8784  0.2750
  697MOL0     H96121   3.410   6.342   9.280  2.3206 -0.9154 -0.8875
  697MOL0     H96122   3.349   6.219   9.396 -0.2429  0.1384 -0.0305
  697MOL0     H96123   3.400   6.401   9.572  2.1644  1.6116  0.2625
  697MOL0     H96124   3.407   6.514   9.445  3.8192 -0.9381  1.2261
  697MOL0     H96125   3.164   6.453   9.375 -0.7036 -0.2505 -0.4644
  697MOL0     H96126   3.157   6.322   9.501 -1.7607  1.4477  2.1538
  697MOL0     H96127   3.178   6.632   9.540  1.9609 -1.0008 -1.4949
  697MOL0     H96128   3.205   6.512   9.670  0.6240 -0.1833 -0.3559
  697MOL0     H96129   2.949   6.540   9.517 -1.9664 -1.6107  0.7168
  697MOL0     H96130   2.957   6.444   9.656 -0.3306  1.1143  2.9254
  697MOL0     H96131   2.850   6.677   9.634 -0.0076 -2.3151  0.3107
  697MOL0     H96132   3.017   6.745   9.640  1.6224  0.4535  2.8947
  697MOL0     H96133   2.851   6.600   9.844  0.6667  1.0263  2.6832
  697MOL0     H96134   3.028   6.616   9.870 -0.0178  4.9827  3.3302
  697MOL0     H96135   3.130   6.881   9.836  0.9724 -0.0355  0.0667
  697MOL0     H96136   2.950   7.209   9.971 -4.0000 -3.6006  0.2070
  697MOL0     H96137   3.097   7.172   9.879 -2.7137 -0.7993 -2.3791
  697MOL0     H96138   3.146   7.229  10.105  0.3012  0.0519 -1.3828
  697MOL0     H96139   3.072   7.086  10.167 -0.6486  0.8614 -0.3802
  697MOL0     H96140   3.234   6.928  10.039 -0.8678  1.1790 -2.9287
  697MOL0     H96141   3.297   7.055   9.955  1.0926 -1.5338  0.1663
  697MOL0     H96142   3.315   7.015  10.260  1.3474 -2.4457 -2.0321
  697MOL0     H96143   3.439   6.997  10.137 -0.9662 -1.9188 -0.6139
  697MOL0     H96144   3.465   7.059  10.381  0.1102 -0.6034  0.4930
  697MOL0     H96145   3.729   7.130  10.635 -3.0211  0.0039  0.7401
  697MOL0     H96146   3.791   7.054  10.486 -2.0910 -0.5268 -2.5813
  697MOL0     H96147   3.625   7.013  10.569  0.7657 -0.8051  1.5065
  697MOL0     H96148   3.652   7.335  10.729 -0.8335 -0.2669 -0.5595
  697MOL0     H96149   3.445   7.394  10.830  1.2392 -0.9921 -0.1179
  697MOL0     H96150   3.276   7.814  10.774  0.4478  0.6962 -1.0528
  697MOL0     H96151   3.221   7.744  10.627  2.1135  1.7096 -0.0877
  697MOL0     H96152   3.127   7.664  10.913  1.2405 -2.1517 -0.3002
  697MOL0     H96153   3.047   7.795  10.835  0.3739  0.7525  0.7067
  697MOL0     H96154   3.036   7.530  10.712 -1.4901 -1.3926 -0.2606
  697MOL0     H96155   2.985   7.676  10.638 -0.1166 -0.0865 -0.3079
  697MOL0     H96156   2.809   7.711  10.832  0.4271  0.1131  1.2595
  697MOL0     H96157   2.877   7.565  10.914  0.1511  2.0575  1.3419
  697MOL0     H96158   2.753   7.582  10.638  0.2434 -0.2433 -0.2565
  697MOL0     H96159   2.846   7.446  10.685 -2.9207  0.3095 -2.7722
  697MOL0     H96160   2.670   7.457  10.910 -1.9631 -1.5680  0.3871
  697MOL0     H96161   2.646   7.362  10.764 -0.5592  0.5682 -3.1949
  697MOL0     H96162   2.506   7.536  10.655  0.8178 -0.4193  0.1234
  697MOL0     H96163   2.546   7.633  10.799  2.7857 -0.7919 -2.3819
  697MOL0     H96164   2.316   7.522  10.825 -1.6011 -0.4014  0.0154
  697MOL0     H96165   2.425   7.440  10.928  1.1333  0.7648 -0.3396
  697MOL0     H96166   3.482   7.773  10.622  2.7488  0.4862 -2.5543
  697MOL0     H96167   3.681   7.729  10.537  0.7134 -0.5646 -0.5392
  697MOL0     H96168   3.688   7.493  10.311  0.6844 -0.0492 -1.2335
  697MOL0     H96169   3.505   7.415  10.162  0.5019  0.8911 -0.1763
  697MOL0     H96170   3.784   6.097   9.126  3.8957 -0.1258 -2.8400
  697MOL0     H96171   3.922   6.199   8.966 -0.8698 -1.2091  0.9819
  697MOL0     H96172   4.226   6.438   8.814 -1.6679 -0.3565 -0.5044
  697MOL0     H96173   4.321   6.557   8.647  3.2628 -1.6978  1.2306
  697MOL0     H96174   4.379   7.010   8.687 -1.6097 -0.5619 -1.7237
  697MOL0     H96175   4.509   6.898   8.729  0.0697  0.2540  0.6176
  697MOL0     H96176   4.437   6.956   8.434  3.1886 -2.2699 -2.3872
  697MOL0     H96177   4.566   6.875   8.493 -1.0957 -1.1932 -0.0183
  697MOL0     H96178   4.590   7.133   8.416  1.3477  2.8295  2.3194
  697MOL0     H96179   4.488   7.171   8.554 -0.5945  0.7703 -2.0210
  697MOL0     H96180   4.784   7.095   8.519  1.5089 -0.0012  1.3997
  697MOL0     H96181   4.711   7.073   8.685  2.6045 -0.2350  0.8165
  697MOL0     H96182   4.788   7.491   8.641 -2.8737 -0.1576 -0.6647
  697MOL0     H96183   4.264   6.921   8.857 -1.8320 -0.2608 -0.8793
  697MOL0     H96184   4.046   6.811   9.099 -0.1809  1.8720  1.6396
  697MOL0     H96185   4.215   6.797   9.157  3.4254  1.3786 -1.3143
  697MOL0     H96186   4.168   6.937   9.070 -0.4157 -0.4571 -1.9830
  698MOL0     O96187   5.582   7.056   4.622 -0.3595  0.1829  0.2446
  698MOL0     C96188   5.520   7.033   4.526  0.5308  0.2613  0.1564
  698MOL0     O96189   5.557   7.057   4.398 -0.2475 -0.5376  0.5367
  698MOL0     C96190   5.662   7.149   4.378  0.7347 -0.2613 -0.7519
  698MOL0     C96191   5.792   7.096   4.376  0.0509  0.0602  0.2716
  698MOL0     C96192   5.897   7.175   4.343 -0.5039 -0.9256  0.3093
  698MOL0     C96193   5.870   7.310   4.328 -0.5424 -0.1089  0.4041
  698MOL0     O96194   5.968   7.408   4.321 -1.4103  0.0368 -0.6068
  698MOL0     C96195   6.106   7.362   4.316 -1.1796 -0.2518 -0.5311
  698MOL0     C96196   6.190   7.492   4.284 -0.5180  0.4085  0.0183
  698MOL0     C96197   6.340   7.473   4.330 -0.2568  1.2463 -0.4853
  698MOL0     C96198   6.352   7.454   4.480  0.0388 -0.2203  0.3126
  698MOL0     C96199   6.491   7.490   4.541  0.1632  0.4210 -0.7374
  698MOL0     C96200   6.482   7.531   4.696  0.6029 -0.1151  0.4562
  698MOL0     C96201   6.424   7.673   4.722 -0.3192  0.2999  0.0058
  698MOL0     C96202   6.508   7.760   4.815  0.1104 -0.1477  0.5754
  698MOL0     N96203   6.419   7.829   4.904  0.2843  0.4369  0.0986
  698MOL0     C96204   6.366   7.762   5.011 -0.7150  0.3700  0.5006
  698MOL0     C96205   6.286   7.854   5.067  0.0728 -0.1672 -0.2971
  698MOL0     C96206   6.200   7.849   5.193  0.7699 -1.3811 -0.8270
  698MOL0     C96207   6.053   7.791   5.171 -0.4020 -0.7201  0.7441
  698MOL0     C96208   5.974   7.865   5.071  0.0273 -0.2733  0.1466
  698MOL0     C96209   5.854   7.787   5.015  0.9362  0.4517 -0.4024
  698MOL0     O96210   5.773   7.755   5.131  0.4300  0.0482  0.3962
  698MOL0     C96211   5.639   7.728   5.111  0.2297  0.6693  0.2856
  698MOL0     C96212   5.549   7.730   5.213 -0.3249 -0.1591 -0.0291
  698MOL0     C96213   5.414   7.690   5.182  0.4377  0.8126 -0.0519
  698MOL0     C96214   5.327   7.670   5.308  0.1042 -0.6313  0.6371
  698MOL0     C96215   5.364   7.670   5.052 -0.4394  0.4571 -0.2592
  698MOL0     C96216   5.215   7.649   5.019  0.0875  0.9272 -0.2201
  698MOL0     O96217   5.127   7.679   5.116  0.2972  0.2376 -0.1483
  698MOL0     C96218   4.989   7.686   5.094 -0.5063  0.2591 -1.0832
  698MOL0     C96219   4.915   7.763   5.188  0.0274 -1.2633  1.1361
  698MOL0     C96220   4.773   7.770   5.184 -0.1007  0.3824 -0.1397
  698MOL0     C96221   4.704   7.684   5.101 -0.1270 -0.7183 -0.3040
  698MOL0     O96222   4.564   7.687   5.107  0.3042 -0.2566 -0.0408
  698MOL0     C96223   4.476   7.627   5.009 -0.0196 -0.0741  0.2705
  698MOL0     C96224   4.469   7.698   4.873 -0.6233  0.5360 -0.3899
  698MOL0     C96225   4.359   7.648   4.779 -0.3644 -1.0872 -0.2523
  698MOL0     C96226   4.338   7.759   4.668  0.2532 -0.8743  0.1495
  698MOL0     C96227   4.466   7.792   4.592 -0.3140 -0.9925 -0.1842
  698MOL0     C96228   4.418   7.852   4.453  0.5779  0.6898 -0.5312
  698MOL0     C96229   4.360   7.996   4.457 -0.8451  0.3140 -0.1218
  698MOL0     C96230   4.316   8.039   4.316  0.1749 -0.5364 -0.1683
  698MOL0    Cl96231   4.457   8.064   4.201  0.1640  0.1219 -0.6515
  698MOL0     C96232   4.772   7.605   5.010 -0.5045  0.0718  0.9741
  698MOL0     C96233   4.912   7.612   4.996 -0.0051  0.1978 -0.3952
  698MOL0     O96234   5.186   7.609   4.906 -0.2076 -0.5924 -0.0920
  698MOL0     C96235   5.464   7.666   4.957  0.3522  0.1977  1.4275
  698MOL0     C96236   5.594   7.702   4.982  0.3002 -0.3258  0.3336
  698MOL0     N96237   6.299   7.968   4.988  0.3190 -0.2750  0.1706
  698MOL0     N96238   6.380   7.957   4.895  0.3491 -0.2051 -0.2671
  698MOL0     C96239   5.739   7.363   4.330  0.3327  0.4983 -0.8370
  698MOL0     C96240   5.627   7.280   4.349  0.4986 -0.4204  0.1584
  698MOL0     C96241   5.404   6.946   4.546  0.0610  0.6360 -0.3556
  698MOL0     C96242   5.284   6.981   4.485 -0.4971  0.5029  0.5951
  698MOL0     C96243   5.161   6.928   4.517 -0.4898 -0.2715  0.8321
  698MOL0     C96244   5.158   6.825   4.601  0.3377  0.6244  0.8690
  698MOL0     O96245   5.035   6.765   4.624  0.6604 -0.0442  0.0136
  698MOL0     C96246   4.996   6.662   4.529  0.0430  0.2182 -0.0341
  698MOL0     C96247   5.053   6.521   4.556  0.1878 -0.8415  0.3605
  698MOL0     C96248   5.001   6.465   4.697  0.5250  0.6535  0.2389
  698MOL0     C96249   5.074   6.338   4.734  0.3402  0.2620 -0.0763
  698MOL0     C96250   5.046   6.221   4.646 -0.4815 -0.0093  0.0471
  698MOL0     C96251   5.013   6.134   4.569 -0.2878  0.8033  0.8827
  698MOL0     C96252   5.274   6.780   4.657 -0.1259  0.7105 -0.3068
  698MOL0     C96253   5.395   6.845   4.646  0.0187 -0.2683 -0.2521
  698MOL0     C96254   5.497   6.799   4.748 -1.2865 -0.0756  1.0138
  698MOL0     H96255   5.802   6.990   4.400  0.5372 -0.2866 -1.3378
  698MOL0     H96256   6.001   7.147   4.335  0.2232  1.7322 -0.5538
  698MOL0     H96257   6.135   7.289   4.240 -0.1171  1.5442 -1.9375
  698MOL0     H96258   6.136   7.318   4.412 -1.4933 -1.8923 -1.1424
  698MOL0     H96259   6.177   7.512   4.177  1.5376 -0.0366 -0.3744
  698MOL0     H96260   6.157   7.577   4.345 -3.0359 -0.2703 -0.3084
  698MOL0     H96261   6.390   7.391   4.280 -0.7243  0.0101  0.9819
  698MOL0     H96262   6.385   7.570   4.307 -1.5309  1.7312 -1.0487
  698MOL0     H96263   6.282   7.527   4.522  0.8190  1.0363 -0.5053
  698MOL0     H96264   6.320   7.354   4.512 -1.1415 -0.0328 -0.2111
  698MOL0     H96265   6.518   7.583   4.491  2.7882 -1.0582 -2.3130
  698MOL0     H96266   6.560   7.407   4.524  0.1222  0.2490 -0.1022
  698MOL0     H96267   6.407   7.459   4.730  0.5773 -0.8363 -1.0096
  698MOL0     H96268   6.570   7.516   4.758  1.2399 -1.4564 -0.7051
  698MOL0     H96269   6.319   7.660   4.752 -0.2581 -0.8821 -0.2556
  698MOL0     H96270   6.424   7.725   4.626  0.6708  0.9108  0.3245
  698MOL0     H96271   6.587   7.703   4.865  3.2389  2.0961 -1.4589
  698MOL0     H96272   6.560   7.828   4.747  1.2573 -1.3061  0.2400
  698MOL0     H96273   6.386   7.659   5.039 -1.0538 -0.3081 -1.5730
  698MOL0     H96274   6.200   7.949   5.236  1.0647 -1.0076 -1.6783
  698MOL0     H96275   6.252   7.787   5.266  1.7936 -0.4574 -0.7470
  698MOL0     H96276   6.074   7.691   5.131  1.4089  0.9667 -3.0353
  698MOL0     H96277   5.996   7.783   5.264  0.2932 -0.6037  1.1861
  698MOL0     H96278   5.937   7.955   5.122 -1.2597  0.0162 -1.2297
  698MOL0     H96279   6.037   7.897   4.988  1.8823 -0.6716  1.3387
  698MOL0     H96280   5.803   7.863   4.954 -1.3005 -0.2935  0.4133
  698MOL0     H96281   5.873   7.692   4.965 -1.6724 -0.1186 -0.4504
  698MOL0     H96282   5.582   7.763   5.311 -1.7424  0.8628  0.1273
  698MOL0     H96283   5.392   7.657   5.395  2.3827  0.4830 -0.8014
  698MOL0     H96284   5.255   7.590   5.289 -1.3472  0.7017  0.3140
  698MOL0     H96285   5.259   7.755   5.318 -0.5620 -1.1801  0.8357
  698MOL0     H96286   4.969   7.822   5.262  0.8729  0.4436 -0.7455
  698MOL0     H96287   4.719   7.827   5.259  1.9827  2.1338  0.1456
  698MOL0     H96288   4.463   7.519   4.995 -4.3095  0.1454  1.0980
  698MOL0     H96289   4.374   7.647   5.041 -0.5633 -0.2086 -1.2884
  698MOL0     H96290   4.467   7.806   4.893 -0.5013  0.5362 -0.3739
  698MOL0     H96291   4.558   7.674   4.815  0.9382  2.3608  1.1104
  698MOL0     H96292   4.266   7.641   4.835  1.2506 -0.2867  2.7128
  698MOL0     H96293   4.371   7.551   4.728  2.7247 -1.2882  0.6613
  698MOL0     H96294   4.305   7.853   4.713 -0.4702  0.1088 -2.2398
  698MOL0     H96295   4.254   7.730   4.603  0.2289 -0.1272 -0.1685
  698MOL0     H96296   4.524   7.869   4.646  1.7583 -1.8730 -1.0355
  698MOL0     H96297   4.523   7.699   4.587 -0.0056 -0.9911  2.0859
  698MOL0     H96298   4.354   7.774   4.410  0.0992 -0.9283  2.7886
  698MOL0     H96299   4.510   7.865   4.396  0.8623  0.0034 -0.2409
  698MOL0     H96300   4.440   8.060   4.495 -1.8156  1.0660  0.7436
  698MOL0     H96301   4.284   7.996   4.536  0.2932 -1.3518  1.0302
  698MOL0     H96302   4.263   8.135   4.323  0.0020 -0.5996 -0.5988
  698MOL0     H96303   4.254   7.958   4.278  1.2219 -1.2935 -0.2909
  698MOL0     H96304   4.721   7.535   4.946 -0.4726  0.1606  0.8512
  698MOL0     H96305   4.956   7.555   4.915  2.1594  0.4445  0.5204
  698MOL0     H96306   5.437   7.637   4.856 -3.8657  4.9820  0.8346
  698MOL0     H96307   5.663   7.692   4.899  0.2054  0.1413  0.1977
  698MOL0     H96308   5.721   7.470   4.324 -0.3270  0.4518  0.1111
  698MOL0     H96309   5.527   7.318   4.370  0.0261 -2.5869  2.4146
  698MOL0     H96310   5.285   7.068   4.420  2.9950 -1.2832 -2.0625
  698MOL0     H96311   5.077   6.961   4.457  0.2591  1.2199  0.5589
  698MOL0     H96312   4.888   6.655   4.545  0.4478 -1.6289  2.5020
  698MOL0     H96313   5.023   6.699   4.429  0.0235  4.1499  1.2524
  698MOL0     H96314   5.161   6.523   4.576  0.3931 -0.9783 -0.6858
  698MOL0     H96315   5.015   6.453   4.479 -5.1844 -0.3319  2.1550
  698MOL0     H96316   5.020   6.538   4.776  0.2521 -0.6492  1.5388
  698MOL0     H96317   4.895   6.440   4.689  0.8007 -0.7315  0.6656
  698MOL0     H96318   5.051   6.309   4.837 -0.4258 -0.6854 -0.4916
  698MOL0     H96319   5.182   6.352   4.727  0.6262 -1.8239 -0.7623
  698MOL0     H96320   4.993   6.053   4.503  0.1395 -0.8874  2.7368
  698MOL0     H96321   5.259   6.687   4.710 -0.4236 -0.6692 -2.6344
  698MOL0     H96322   5.523   6.879   4.818  2.3318 -0.0639 -0.1345
  698MOL0     H96323   5.466   6.703   4.792  1.2940 -1.4587  0.0465
  698MOL0     H96324   5.590   6.774   4.696 -2.1489 -1.9511  0.2830
  699MOL0     O96325  11.280   2.776   9.630 -0.1565  0.0818  0.1049
  699MOL0     C96326  11.285   2.700   9.524 -0.1668  0.0606 -0.2479
  699MOL0     O96327  11.300   2.565   9.525 -0.6490  1.2038 -0.1753
  699MOL0     C96328  11.333   2.502   9.648  0.1836  0.9916  0.4708
  699MOL0     C96329  11.466   2.455   9.662 -0.1661  0.3161 -0.4787
  699MOL0     C96330  11.495   2.360   9.771  0.6150 -0.7152  0.4343
  699MOL0     C96331  11.397   2.345   9.875 -0.5655  0.5032 -0.2688
  699MOL0     O96332  11.426   2.281   9.992  0.5643  0.1473 -0.4350
  699MOL0     C96333  11.442   2.144   9.958 -0.1161 -0.1010 -0.2535
  699MOL0     C96334  11.395   2.068  10.077  1.1330  0.5720  0.8346
  699MOL0     C96335  11.245   2.056  10.074 -0.0399  0.4005  0.4807
  699MOL0     C96336  11.191   1.956  10.175  0.2386 -0.2156 -0.2469
  699MOL0     C96337  11.168   2.034  10.311  0.7561  0.1372  0.1534
  699MOL0     C96338  11.137   1.938  10.427 -0.0524 -0.1964  0.7855
  699MOL0     C96339  10.998   1.869  10.421 -0.7389  0.5785  0.0344
  699MOL0     C96340  10.872   1.961  10.446 -0.2811  0.0960 -0.0246
  699MOL0     N96341  10.758   1.890  10.506  0.1782 -0.1331  0.3736
  699MOL0     C96342  10.724   1.907  10.640  0.4774 -0.1105 -1.1218
  699MOL0     C96343  10.647   1.801  10.661 -0.1727 -0.0493 -0.3843
  699MOL0     C96344  10.600   1.783  10.798 -0.7120  0.3524 -0.4388
  699MOL0     C96345  10.457   1.829  10.824 -0.1489  0.6560 -0.8601
  699MOL0     C96346  10.449   1.970  10.791  0.2285  0.1043 -0.7805
  699MOL0     C96347  10.330   2.054  10.850  1.1081 -0.2465  0.6863
  699MOL0     O96348  10.323   2.184  10.786  0.6140  0.7904 -0.4773
  699MOL0     C96349  10.239   2.277  10.841 -0.7076 -0.5749  0.7023
  699MOL0     C96350  10.282   2.388  10.903  0.3808 -0.1826  0.4856
  699MOL0     C96351  10.199   2.476  10.973  0.5307 -0.1013 -0.8037
  699MOL0     C96352  10.266   2.585  11.048  0.6166 -0.1842 -0.3464
  699MOL0     C96353  10.061   2.448  10.978 -0.7527  0.0393 -0.3908
  699MOL0     C96354   9.954   2.532  11.048 -0.7113  0.2709 -1.4126
  699MOL0     O96355   9.821   2.519  11.020 -0.4798 -0.4609  0.4342
  699MOL0     C96356   9.731   2.616  11.058  0.5228  0.1788  0.9274
  699MOL0     C96357   9.757   2.753  11.068 -0.3996 -0.3344  0.3223
  699MOL0     C96358   9.665   2.842  11.106 -0.7044 -1.3293  0.0902
  699MOL0     C96359   9.525   2.802  11.112 -1.6257 -0.3270 -0.6415
  699MOL0     O96360   9.434   2.894  11.119  0.4950 -0.1855  0.1875
  699MOL0     C96361   9.370   2.909  10.992  0.7863 -0.6735 -0.2798
  699MOL0     C96362   9.231   2.972  11.034  0.2060  0.1531  0.0190
  699MOL0     C96363   9.153   2.879  11.117  0.1577  0.2356  0.6223
  699MOL0     C96364   9.006   2.895  11.086  0.3092  0.4916 -0.2759
  699MOL0     C96365   8.934   3.019  11.145  0.8709  0.5168 -0.7147
  699MOL0     C96366   8.950   3.024  11.302 -0.2216 -0.4599  0.0300
  699MOL0     C96367   8.836   3.099  11.379 -1.7623 -0.2772  0.9926
  699MOL0     C96368   8.738   2.983  11.394  0.3256 -1.1852 -0.2324
  699MOL0    Cl96369   8.585   3.036  11.475 -0.4505  0.2146  0.1264
  699MOL0     C96370   9.496   2.660  11.103 -1.1903 -0.4410  0.7442
  699MOL0     C96371   9.601   2.574  11.064  0.3907  0.3130 -0.2448
  699MOL0     O96372  10.000   2.611  11.128 -0.5767  0.0646  0.0220
  699MOL0     C96373  10.014   2.336  10.895  0.1996  0.1226 -0.9386
  699MOL0     C96374  10.104   2.252  10.838 -0.4868 -0.3032 -0.1431
  699MOL0     N96375  10.620   1.727  10.548  0.7118  0.4048 -0.8628
  699MOL0     N96376  10.683   1.781  10.451  0.6271 -0.6065  0.4013
  699MOL0     C96377  11.276   2.406   9.864 -0.5432 -0.2893  0.0204
  699MOL0     C96378  11.245   2.471   9.749  0.3057 -1.1832 -0.7297
  699MOL0     C96379  11.250   2.755   9.396 -0.8763  0.0654 -0.4516
  699MOL0     C96380  11.153   2.639   9.250  0.1301 -1.0284  0.4679
  699MOL0     C96381  11.090   2.730   9.068 -0.8229  0.5678 -0.8830
  699MOL0     C96382  11.125   2.940   9.039  0.6207 -0.5750  0.0256
  699MOL0     O96383  11.086   3.002   8.924 -0.1975  0.1556 -0.1920
  699MOL0     C96384  11.128   3.140   8.912  0.3384 -0.1995 -0.1202
  699MOL0     C96385  11.050   3.208   8.798 -0.1791 -0.1007 -0.0419
  699MOL0     C96386  11.095   3.182   8.655 -0.3260  0.1536 -0.6529
  699MOL0     C96387  10.985   3.261   8.568 -0.3000 -0.1767 -0.2671
  699MOL0     C96388  11.006   3.405   8.585  0.9357 -0.4732 -0.7748
  699MOL0     C96389  11.006   3.530   8.595  0.1928  0.0923  0.9571
  699MOL0     C96390  11.219   3.053   9.188  0.1198 -0.1704  0.3410
  699MOL0     C96391  11.288   2.958   9.367 -0.0934  0.4162  0.4355
  699MOL0     C96392  11.348   3.042   9.474 -0.2495 -0.5078 -0.5202
  699MOL0     H96393  11.531   2.464   9.576 -0.2407 -0.4384 -0.6285
  699MOL0     H96394  11.593   2.314   9.778  1.5316  1.1261  0.5142
  699MOL0     H96395  11.548   2.122   9.942 -1.4243 -5.0582 -5.1114
  699MOL0     H96396  11.390   2.102   9.872 -2.9068  3.3555 -0.4511
  699MOL0     H96397  11.433   1.965  10.072 -0.6099 -0.0628 -2.3670
  699MOL0     H96398  11.432   2.119  10.166 -1.3213  1.8888  1.1876
  699MOL0     H96399  11.210   2.158  10.091  3.0419  2.1623 -2.6128
  699MOL0     H96400  11.213   2.018   9.977 -2.1560 -0.4739  1.4433
  699MOL0     H96401  11.093   1.915  10.149  0.8041 -1.9847  0.2763
  699MOL0     H96402  11.265   1.876  10.189 -0.0893 -0.4345  0.2847
  699MOL0     H96403  11.087   2.102  10.284  1.5071  1.3298  0.8339
  699MOL0     H96404  11.254   2.101  10.326  2.7726 -2.1062 -0.7213
  699MOL0     H96405  11.228   1.883  10.455  0.4293 -0.0360 -0.3906
  699MOL0     H96406  11.122   1.995  10.519 -1.3440 -2.8181  2.3357
  699MOL0     H96407  10.995   1.789  10.496 -2.2126  0.5391 -0.0360
  699MOL0     H96408  10.984   1.810  10.330  2.8402 -2.5294  1.2307
  699MOL0     H96409  10.899   2.042  10.514  2.0734 -1.0331  0.4910
  699MOL0     H96410  10.843   2.001  10.349  0.2682 -1.0602 -0.6874
  699MOL0     H96411  10.768   1.975  10.713  0.5871 -1.9713  0.6167
  699MOL0     H96412  10.671   1.832  10.864  3.3238 -0.6044 -3.6866
  699MOL0     H96413  10.606   1.678  10.826 -0.2849  0.5653  0.2746
  699MOL0     H96414  10.395   1.763  10.763 -2.0534  1.3109  0.2749
  699MOL0     H96415  10.429   1.798  10.926  3.9117 -0.0201  0.2496
  699MOL0     H96416  10.534   2.021  10.838  0.5564 -1.5233  0.4976
  699MOL0     H96417  10.456   1.981  10.682  0.3792  1.3801 -0.6632
  699MOL0     H96418  10.245   1.988  10.832  2.1368 -1.6195  0.6890
  699MOL0     H96419  10.349   2.072  10.956 -0.2923  1.5114  0.6746
  699MOL0     H96420  10.389   2.410  10.903  0.1726  1.0649 -1.5703
  699MOL0     H96421  10.248   2.545  11.148 -1.4784 -0.9150 -0.9683
  699MOL0     H96422  10.234   2.690  11.049  1.1602  0.0067  1.3483
  699MOL0     H96423  10.373   2.588  11.025  1.6007 -0.9155  3.4511
  699MOL0     H96424   9.852   2.795  11.037 -1.6249  2.5436  0.1680
  699MOL0     H96425   9.694   2.945  11.125 -0.3744 -1.4185  0.0654
  699MOL0     H96426   9.425   2.982  10.932 -0.3034  0.8911  0.5539
  699MOL0     H96427   9.349   2.812  10.945 -0.8025 -0.9052  0.8215
  699MOL0     H96428   9.240   3.063  11.094  0.5052 -2.0478  3.6901
  699MOL0     H96429   9.184   2.996  10.939  0.7098 -1.7885 -0.7927
  699MOL0     H96430   9.183   2.906  11.218  0.7000 -2.0966  1.1330
  699MOL0     H96431   9.183   2.775  11.101  2.3837  1.2692 -3.7358
  699MOL0     H96432   8.967   2.805  11.136 -0.1831  1.6273  1.5063
  699MOL0     H96433   8.989   2.885  10.979 -0.4119  1.3256 -0.2555
  699MOL0     H96434   8.960   3.114  11.097 -1.6709  0.6181 -2.0606
  699MOL0     H96435   8.826   3.014  11.125  1.0373 -1.6030 -1.3757
  699MOL0     H96436   9.033   3.094  11.319 -0.1434  0.5438 -3.5781
  699MOL0     H96437   8.991   2.931  11.342  2.1897 -0.0343 -1.2177
  699MOL0     H96438   8.798   3.186  11.325  0.5778 -0.8024 -1.7605
  699MOL0     H96439   8.878   3.134  11.474 -0.5484  0.4322  0.2131
  699MOL0     H96440   8.780   2.899  11.450  1.0969 -0.1689  0.7753
  699MOL0     H96441   8.710   2.951  11.294  1.3893 -0.1596 -0.8910
  699MOL0     H96442   9.395   2.621  11.107 -0.7049 -1.9433 -0.6994
  699MOL0     H96443   9.567   2.473  11.044  0.2804 -0.1674  2.1086
  699MOL0     H96444   9.909   2.311  10.888  0.1115 -0.3267  1.3007
  699MOL0     H96445  10.073   2.168  10.777  1.4899  0.4306 -2.2969
  699MOL0     H96446  11.222   2.389   9.957 -0.5501 -0.3159  0.0112
  699MOL0     H96447  11.141   2.501   9.744 -0.2771 -2.3428  2.1019
  699MOL0     H96448  11.135   2.534   9.271 -3.1050 -1.0920 -1.8056
  699MOL0     H96449  11.028   2.670   9.003 -0.9063 -0.6075  0.2645
  699MOL0     H96450  11.103   3.199   9.001 -0.1824  2.0861 -1.6966
  699MOL0     H96451  11.233   3.155   8.883 -0.4955  2.5778 -2.1131
  699MOL0     H96452  11.066   3.314   8.822  1.9444 -0.1805 -0.8552
  699MOL0     H96453  10.949   3.169   8.811 -0.4850 -0.2619 -2.4234
  699MOL0     H96454  11.200   3.210   8.646  0.7921 -2.0183  3.3090
  699MOL0     H96455  11.090   3.073   8.641  1.6112  0.1111 -1.3914
  699MOL0     H96456  10.884   3.223   8.587 -1.0214 -0.6256 -4.1831
  699MOL0     H96457  11.013   3.252   8.463  0.0233 -1.4663 -0.0901
  699MOL0     H96458  11.024   3.632   8.621 -1.7253 -0.0344  3.1288
  699MOL0     H96459  11.233   3.158   9.164 -0.6037 -0.2515 -0.4788
  699MOL0     H96460  11.455   3.059   9.460 -0.2240  0.2427  0.4691
  699MOL0     H96461  11.289   3.133   9.471 -1.0828 -1.0629 -2.2429
  699MOL0     H96462  11.318   2.997   9.569  0.1474 -2.1354 -1.1324
  700MOL0     O96463   8.118   9.877   7.233  0.4943 -0.1830 -0.9385
  700MOL0     C96464   8.084   9.763   7.251 -0.4653 -0.5722  0.6228
  700MOL0     O96465   8.112   9.663   7.158 -0.7300  0.1706  1.2404
  700MOL0     C96466   8.178   9.680   7.037 -1.3893  0.3837 -0.3426
  700MOL0     C96467   8.231   9.797   6.985  0.1691  0.0016 -0.4287
  700MOL0     C96468   8.304   9.806   6.871 -0.7460 -0.3023  0.3343
  700MOL0     C96469   8.312   9.685   6.789 -0.6094 -0.4097 -0.4194
  700MOL0     O96470   8.375   9.680   6.667 -0.4908  0.1596  0.5833
  700MOL0     C96471   8.418   9.798   6.596 -1.1246  0.0090  0.0395
  700MOL0     C96472   8.512   9.760   6.484  0.7833  0.2241 -0.2016
  700MOL0     C96473   8.662   9.812   6.492  0.7281 -0.3885 -0.4028
  700MOL0     C96474   8.663   9.964   6.471 -0.8616  0.1326  0.5620
  700MOL0     C96475   8.675   9.998   6.322 -0.1093  0.2208 -1.0377
  700MOL0     C96476   8.668  10.152   6.296 -0.5396 -0.4959 -0.6854
  700MOL0     C96477   8.757  10.192   6.182 -0.1035 -0.8898  0.3050
  700MOL0     C96478   8.906  10.181   6.192 -0.6431 -0.2096  0.2798
  700MOL0     N96479   8.956  10.243   6.307  0.0033 -0.4612 -0.9486
  700MOL0     C96480   8.978  10.378   6.335  0.4178  0.0900 -0.1447
  700MOL0     C96481   9.036  10.393   6.450 -0.9366  0.0902  0.6218
  700MOL0     C96482   9.053  10.527   6.517  0.8554  0.6125 -0.1861
  700MOL0     C96483   8.970  10.532   6.641  0.2762 -0.9597 -0.5838
  700MOL0     C96484   9.008  10.651   6.726 -0.0485  0.2426 -0.7387
  700MOL0     C96485   8.895  10.693   6.831  0.1903  0.0553 -0.3681
  700MOL0     O96486   8.768  10.744   6.779  0.0202  0.0232 -0.2651
  700MOL0     C96487   8.772  10.869   6.719 -0.1906  0.5681 -1.0267
  700MOL0     C96488   8.847  10.978   6.777  0.1700 -0.2135 -0.5947
  700MOL0     C96489   8.845  11.107   6.714  0.1117 -0.3914 -0.4657
  700MOL0     C96490   8.909  11.216   6.789  0.3158 -0.9144  0.0936
  700MOL0     C96491   8.787  11.117   6.591 -0.4925  0.2266  1.4117
  700MOL0     C96492   8.797  11.231   6.504 -0.0877  0.4543  0.9170
  700MOL0     O96493   8.811  11.216   6.365 -0.4698  0.2259 -0.4942
  700MOL0     C96494   8.841  11.321   6.271 -0.0712  0.4145  0.4137
  700MOL0     C96495   8.888  11.456   6.306 -1.2799 -0.0061 -1.3127
  700MOL0     C96496   8.893  11.558   6.211 -0.3495  0.2257  0.2973
  700MOL0     C96497   8.885  11.520   6.074 -0.0523 -0.7476  0.1097
  700MOL0     O96498   8.904  11.605   5.971  0.3295  0.2677  0.2340
  700MOL0     C96499   8.856  11.738   5.979 -0.8469  0.1177  0.3249
  700MOL0     C96500   8.832  11.778   5.832  0.5163 -0.1148  0.8110
  700MOL0     C96501   8.758  11.915   5.831 -0.2194 -0.1894  0.6927
  700MOL0     C96502   8.857  12.025   5.804 -0.1396 -0.5199 -0.2711
  700MOL0     C96503   8.802  12.164   5.827  0.4817  0.4929  0.2418
  700MOL0     C96504   8.692  12.196   5.723  0.3810 -0.9448 -0.3780
  700MOL0     C96505   8.647  12.344   5.754  0.0628  0.5566  0.2496
  700MOL0     C96506   8.536  12.377   5.662  0.2061 -1.5050 -0.4677
  700MOL0    Cl96507   8.588  12.428   5.498 -0.2656 -0.4875  0.2769
  700MOL0     C96508   8.845  11.388   6.043  0.2105 -0.1988  0.9399
  700MOL0     C96509   8.825  11.294   6.139  0.3169 -0.0000 -0.2773
  700MOL0     O96510   8.790  11.344   6.563 -0.7036 -0.2446 -0.2130
  700MOL0     C96511   8.704  11.018   6.543 -0.2238  0.5122  0.4542
  700MOL0     C96512   8.708  10.893   6.607  0.0966 -0.6616  1.1868
  700MOL0     N96513   9.068  10.258   6.495 -0.5433  0.2969  0.3685
  700MOL0     N96514   9.012  10.173   6.417 -0.5397  0.4382 -0.2053
  700MOL0     C96515   8.242   9.571   6.829 -0.6745  0.2681  0.0759
  700MOL0     C96516   8.175   9.568   6.949 -0.2007  0.1436  0.5099
  700MOL0     C96517   8.008   9.736   7.370  0.5687  0.3183  0.0958
  700MOL0     C96518   7.923   9.842   7.417 -1.2306  0.0826  1.1227
  700MOL0     C96519   7.843   9.815   7.530 -0.1373  0.7451 -0.0839
  700MOL0     C96520   7.865   9.698   7.611  0.3227 -0.7793  0.5965
  700MOL0     O96521   7.801   9.682   7.734 -0.9116  0.1983  1.0085
  700MOL0     C96522   7.853   9.778   7.827 -0.2339 -0.3265  0.3635
  700MOL0     C96523   7.809   9.745   7.972 -0.6083 -0.6770 -0.3118
  700MOL0     C96524   7.895   9.638   8.045  0.1330 -0.2983  1.1786
  700MOL0     C96525   7.805   9.584   8.167  0.0720  0.8457 -0.6801
  700MOL0     C96526   7.790   9.676   8.272 -0.8315 -0.4407 -1.1717
  700MOL0     C96527   7.748   9.738   8.374  0.5077 -0.0868  0.0902
  700MOL0     C96528   7.952   9.600   7.556 -0.5999  0.1513  0.2336
  700MOL0     C96529   8.021   9.618   7.438  0.1230 -0.8444 -0.7032
  700MOL0     C96530   8.130   9.520   7.395  0.9461  0.0426 -0.5422
  700MOL0     H96531   8.226   9.891   7.040 -0.7969  0.3024 -0.9964
  700MOL0     H96532   8.362   9.893   6.842  0.1758 -0.0864  2.6072
  700MOL0     H96533   8.477   9.860   6.665 -0.1716  0.0555 -0.7987
  700MOL0     H96534   8.335   9.853   6.551 -0.8113 -1.2028 -2.1355
  700MOL0     H96535   8.512   9.653   6.461  0.4288  0.3211 -0.6618
  700MOL0     H96536   8.466   9.809   6.397 -1.7880 -2.2223 -0.3551
  700MOL0     H96537   8.691   9.780   6.592 -1.3609 -3.8400 -0.7281
  700MOL0     H96538   8.732   9.769   6.421 -1.3714 -0.5143 -2.5280
  700MOL0     H96539   8.562   9.992   6.501 -0.1678  0.4517  2.7985
  700MOL0     H96540   8.736  10.020   6.530  1.2401 -3.1316  1.3077
  700MOL0     H96541   8.599   9.954   6.257 -0.2787  3.2346 -3.0764
  700MOL0     H96542   8.777   9.974   6.289  0.6664 -1.1921  2.0624
  700MOL0     H96543   8.564  10.173   6.269 -1.2252 -1.5476  1.0170
  700MOL0     H96544   8.695  10.206   6.387 -1.2946 -2.8030  0.9722
  700MOL0     H96545   8.736  10.298   6.164 -2.3564 -1.2500  0.6191
  700MOL0     H96546   8.738  10.130   6.093 -2.9259 -1.8581  1.4844
  700MOL0     H96547   8.955  10.083   6.196  2.3819  0.8383 -3.7467
  700MOL0     H96548   8.956  10.227   6.105  1.1428 -2.6964 -0.1134
  700MOL0     H96549   8.951  10.457   6.266  1.8013 -1.3035 -2.4151
  700MOL0     H96550   9.014  10.600   6.445 -1.4693 -0.9679 -0.6223
  700MOL0     H96551   9.158  10.553   6.534  1.1927  2.4117 -4.0030
  700MOL0     H96552   8.865  10.533   6.611  0.1623  0.8898 -0.2319
  700MOL0     H96553   8.992  10.442   6.698 -1.8015 -0.9478  0.3168
  700MOL0     H96554   9.092  10.623   6.789 -0.2778  1.9531  0.4148
  700MOL0     H96555   9.038  10.736   6.663 -2.0179 -0.2703 -2.4793
  700MOL0     H96556   8.868  10.604   6.888  1.4551 -2.4579 -3.3530
  700MOL0     H96557   8.941  10.773   6.889  3.0259 -1.6156 -0.1181
  700MOL0     H96558   8.877  10.973   6.881  0.5263 -1.9689 -0.7618
  700MOL0     H96559   8.971  11.193   6.876 -0.4454  2.4349  1.7139
  700MOL0     H96560   8.832  11.284   6.827  0.7892  0.6045 -1.5255
  700MOL0     H96561   8.981  11.263   6.721 -1.8237  1.4148 -0.7405
  700MOL0     H96562   8.912  11.489   6.406 -0.1356  0.3578 -1.6857
  700MOL0     H96563   8.920  11.659   6.240  1.6356  1.7022 -5.2816
  700MOL0     H96564   8.768  11.747   6.043 -0.1021  1.1583  1.2213
  700MOL0     H96565   8.935  11.801   6.021 -0.1856  0.0670 -0.7852
  700MOL0     H96566   8.924  11.797   5.775  0.6599 -1.4089  0.5736
  700MOL0     H96567   8.790  11.690   5.783 -0.8848  0.5375  0.7876
  700MOL0     H96568   8.701  11.932   5.923 -0.3798 -2.4689  1.0814
  700MOL0     H96569   8.681  11.902   5.754 -0.7706 -2.0787  1.5138
  700MOL0     H96570   8.892  12.023   5.700  0.1382  1.6942 -0.2634
  700MOL0     H96571   8.942  12.010   5.870  0.0692  0.8449 -0.2029
  700MOL0     H96572   8.759  12.170   5.927 -0.7183 -4.0486  0.1991
  700MOL0     H96573   8.884  12.237   5.816  0.9918  0.1269  1.3862
  700MOL0     H96574   8.607  12.130   5.741 -1.6404  1.7695  0.7473
  700MOL0     H96575   8.729  12.167   5.624  3.2783  0.2744  0.2384
  700MOL0     H96576   8.733  12.410   5.746  0.5324  0.0068  0.6816
  700MOL0     H96577   8.608  12.362   5.855  0.9412  1.5454  0.4148
  700MOL0     H96578   8.461  12.445   5.703  0.5204 -0.8720 -0.9192
  700MOL0     H96579   8.469  12.292   5.644 -3.2283  0.7164  0.8556
  700MOL0     H96580   8.847  11.359   5.938 -4.1243 -0.8899  0.8456
  700MOL0     H96581   8.802  11.191   6.114  0.7361 -0.7346  2.1165
  700MOL0     H96582   8.656  11.022   6.445  1.3517  0.6087 -0.3473
  700MOL0     H96583   8.640  10.817   6.568  2.2845 -1.8453 -0.5506
  700MOL0     H96584   8.247   9.494   6.753 -4.3087 -0.7818  0.7258
  700MOL0     H96585   8.133   9.469   6.966  2.0203 -0.9647 -0.1528
  700MOL0     H96586   7.901   9.927   7.353 -1.3912 -2.6481 -2.7667
  700MOL0     H96587   7.772   9.894   7.550  0.2372  0.7576  1.2611
  700MOL0     H96588   7.960   9.789   7.811 -0.1668  0.6062  1.3667
  700MOL0     H96589   7.809   9.873   7.795  3.0160  1.0349 -0.4894
  700MOL0     H96590   7.710   9.697   7.974 -0.6456 -0.5916  1.3789
  700MOL0     H96591   7.816   9.837   8.030  0.5676 -1.5881  1.0610
  700MOL0     H96592   7.916   9.556   7.976 -0.9917  1.3878 -1.3286
  700MOL0     H96593   7.985   9.683   8.088 -0.8100  0.4678  2.4505
  700MOL0     H96594   7.857   9.495   8.203  0.8091  1.8409  0.8136
  700MOL0     H96595   7.711   9.546   8.126  1.5542 -3.2047 -0.7542
  700MOL0     H96596   7.712   9.784   8.464  1.6000  1.4031 -0.1830
  700MOL0     H96597   7.976   9.507   7.607 -0.1885 -0.0560 -0.3277
  700MOL0     H96598   8.131   9.435   7.464  1.5636  0.5692  0.1072
  700MOL0     H96599   8.106   9.489   7.293  1.6878  2.3538 -1.4760
  700MOL0     H96600   8.228   9.568   7.388  2.4797 -2.9121 -1.4454
  701MOL0     O96601   4.727  10.703   7.877  0.3909 -0.4450 -0.5784
  701MOL0     C96602   4.680  10.695   7.761 -0.5250 -1.2400 -0.5877
  701MOL0     O96603   4.749  10.679   7.645  0.5261  0.6007 -0.6132
  701MOL0     C96604   4.888  10.662   7.655  0.0057 -0.2056  0.4803
  701MOL0     C96605   4.973  10.770   7.624 -0.4738 -0.0508  0.6153
  701MOL0     C96606   5.110  10.738   7.626 -0.4496 -0.2251 -0.7053
  701MOL0     C96607   5.161  10.615   7.678  1.2466 -0.7571  1.1171
  701MOL0     O96608   5.294  10.614   7.695 -0.7387 -0.6957 -0.8110
  701MOL0     C96609   5.343  10.524   7.789  0.3608  0.8856 -0.5476
  701MOL0     C96610   5.458  10.589   7.869 -0.3845  0.0679 -0.4014
  701MOL0     C96611   5.421  10.731   7.935  0.5671 -0.5624  0.3832
  701MOL0     C96612   5.309  10.724   8.037 -1.0345 -0.8947 -0.1724
  701MOL0     C96613   5.287  10.865   8.092 -0.5709  1.1375  0.3733
  701MOL0     C96614   5.224  10.966   7.989 -0.3657  0.4085  0.6534
  701MOL0     C96615   5.148  11.066   8.078  0.2551 -0.0138  1.2539
  701MOL0     C96616   5.119  11.199   8.005  0.3647 -0.4282  0.3448
  701MOL0     N96617   5.188  11.323   8.064 -0.3755 -0.1816 -0.1579
  701MOL0     C96618   5.311  11.380   8.029  0.6550  0.6186 -0.4410
  701MOL0     C96619   5.329  11.491   8.095  0.7073 -0.8440 -0.7212
  701MOL0     C96620   5.453  11.576   8.119  0.5181 -0.0860  0.2099
  701MOL0     C96621   5.422  11.732   8.156 -0.3063 -0.5500 -0.4023
  701MOL0     C96622   5.382  11.758   8.300 -0.0117  0.3119  0.3746
  701MOL0     C96623   5.360  11.903   8.301  0.7805  0.4592 -0.7387
  701MOL0     O96624   5.481  11.981   8.310  0.4994  0.0731  0.5445
  701MOL0     C96625   5.458  12.112   8.283  0.2649  0.1684  0.2520
  701MOL0     C96626   5.378  12.167   8.183  0.1092  0.4901 -0.2700
  701MOL0     C96627   5.373  12.305   8.172  0.4832  0.1942 -0.1558
  701MOL0     C96628   5.297  12.377   8.056 -0.3188 -0.1901 -0.5762
  701MOL0     C96629   5.440  12.387   8.264  0.3763  0.6413  0.3272
  701MOL0     C96630   5.418  12.527   8.278  0.7895 -0.5454  0.0147
  701MOL0     O96631   5.507  12.602   8.360  0.8456  0.2267  0.5480
  701MOL0     C96632   5.485  12.733   8.381  0.6734 -1.8493  0.4614
  701MOL0     C96633   5.418  12.823   8.286  0.2226 -0.2768  0.3393
  701MOL0     C96634   5.394  12.961   8.325  0.7150  0.0830  0.5936
  701MOL0     C96635   5.428  13.009   8.449  1.0828  0.9610 -1.1690
  701MOL0     O96636   5.388  13.143   8.482 -0.1444 -0.1898  0.4018
  701MOL0     C96637   5.363  13.190   8.613  0.2221  0.2690 -1.1418
  701MOL0     C96638   5.478  13.259   8.689  0.1067  0.6580 -0.1703
  701MOL0     C96639   5.471  13.240   8.844  0.9087 -0.6247 -0.2844
  701MOL0     C96640   5.526  13.114   8.913 -0.4184 -0.6205  0.5898
  701MOL0     C96641   5.491  13.117   9.069  0.8878  0.2737 -0.6752
  701MOL0     C96642   5.334  13.108   9.093 -0.2071  0.2578 -0.0162
  701MOL0     C96643   5.256  13.000   9.016  0.5891  0.1442 -0.1448
  701MOL0     C96644   5.116  12.983   9.058  0.7223 -0.0646 -1.0401
  701MOL0    Cl96645   5.022  13.123   8.990  0.0225 -0.4054  0.2734
  701MOL0     C96646   5.497  12.927   8.534  0.3749 -0.2695  0.3299
  701MOL0     C96647   5.532  12.800   8.506 -0.5734  0.3438 -0.1869
  701MOL0     O96648   5.306  12.572   8.253 -0.9706 -0.0607  0.1227
  701MOL0     C96649   5.533  12.325   8.346  0.3403  0.2577  0.6127
  701MOL0     C96650   5.553  12.182   8.352 -0.4187 -0.5281 -0.0684
  701MOL0     N96651   5.224  11.488   8.192 -0.2308 -0.9138  0.7185
  701MOL0     N96652   5.130  11.399   8.156  0.3503  0.2436  0.1954
  701MOL0     C96653   5.068  10.523   7.711 -0.4271  0.5460 -0.4614
  701MOL0     C96654   4.934  10.534   7.690 -0.6074 -1.4458 -0.2167
  701MOL0     C96655   4.532  10.699   7.752  0.3311 -0.9517 -0.7607
  701MOL0     C96656   4.459  10.614   7.841  0.8197  0.2359 -0.1061
  701MOL0     C96657   4.321  10.607   7.834  0.1626 -0.1125 -0.1206
  701MOL0     C96658   4.242  10.691   7.751 -0.2018 -0.4785 -0.5185
  701MOL0     O96659   4.109  10.698   7.743  0.9081 -0.0585  0.2844
  701MOL0     C96660   4.030  10.571   7.740 -0.3730  0.7619  0.3322
  701MOL0     C96661   4.053  10.487   7.616 -0.0474 -0.2614 -0.1412
  701MOL0     C96662   4.171  10.394   7.615  0.8304  0.3300  0.2347
  701MOL0     C96663   4.147  10.256   7.545  1.2959 -0.0221  0.8297
  701MOL0     C96664   4.120  10.278   7.403 -1.1815  0.3197  0.5641
  701MOL0     C96665   4.106  10.301   7.286  0.1631 -0.0807  0.6695
  701MOL0     C96666   4.316  10.783   7.667 -0.0424  0.6842 -1.1030
  701MOL0     C96667   4.453  10.785   7.672 -0.0785 -0.7624  0.9795
  701MOL0     C96668   4.515  10.876   7.565 -0.0223 -0.5492  1.1173
  701MOL0     H96669   4.942  10.872   7.602  1.6225  1.0087  2.1791
  701MOL0     H96670   5.179  10.815   7.595 -1.0555  0.7083  0.2278
  701MOL0     H96671   5.365  10.428   7.742  1.5106 -0.0078  1.6786
  701MOL0     H96672   5.277  10.497   7.872  1.7117 -0.2608  0.1969
  701MOL0     H96673   5.482  10.519   7.950  0.7747  2.2292  1.2063
  701MOL0     H96674   5.546  10.593   7.803 -0.6800 -2.8800 -1.1297
  701MOL0     H96675   5.508  10.760   7.994 -0.7843 -0.0498  2.2241
  701MOL0     H96676   5.395  10.815   7.869  2.5607  0.2000  0.5233
  701MOL0     H96677   5.207  10.705   8.001 -1.1870  0.3588 -0.4581
  701MOL0     H96678   5.332  10.650   8.114 -2.7489  0.9267  2.2277
  701MOL0     H96679   5.375  10.912   8.139 -0.9275  1.4098  0.7798
  701MOL0     H96680   5.222  10.850   8.179  0.7121 -1.3781  0.9743
  701MOL0     H96681   5.304  11.009   7.928 -1.5289  0.1531 -1.1199
  701MOL0     H96682   5.150  10.918   7.925 -0.9893  0.2241  1.4901
  701MOL0     H96683   5.203  11.091   8.169 -2.5710  0.3534  2.9745
  701MOL0     H96684   5.054  11.019   8.107 -0.2863  0.1911 -0.0964
  701MOL0     H96685   5.154  11.201   7.902 -0.5905 -1.1915 -0.0099
  701MOL0     H96686   5.011  11.213   8.011 -0.2737 -3.7888 -0.9951
  701MOL0     H96687   5.377  11.344   7.950  1.5677 -0.9601  0.9942
  701MOL0     H96688   5.508  11.583   8.025  0.1217  0.6528  0.0257
  701MOL0     H96689   5.518  11.536   8.198  0.8715  1.5593  0.7817
  701MOL0     H96690   5.513  11.791   8.141  1.4646 -2.8049  0.6912
  701MOL0     H96691   5.337  11.754   8.091 -0.0274  0.8978 -0.3040
  701MOL0     H96692   5.296  11.712   8.349  0.1062  1.5591  1.8559
  701MOL0     H96693   5.450  11.733   8.382  0.5606  5.8872  2.0153
  701MOL0     H96694   5.300  11.926   8.212  3.6877  2.4433 -2.3386
  701MOL0     H96695   5.303  11.920   8.393  0.4587 -1.0896 -0.6273
  701MOL0     H96696   5.325  12.107   8.110 -2.3691 -1.2587  2.7477
  701MOL0     H96697   5.294  12.310   7.969  1.7029 -0.9075 -0.1568
  701MOL0     H96698   5.341  12.471   8.023 -1.6687 -0.3453 -3.0648
  701MOL0     H96699   5.193  12.402   8.081 -0.8691 -2.6516 -0.0658
  701MOL0     H96700   5.367  12.797   8.194 -0.9575 -0.9083  1.1496
  701MOL0     H96701   5.336  13.020   8.255 -1.5494 -2.8232 -0.1725
  701MOL0     H96702   5.283  13.261   8.635 -0.5328 -1.5887  3.3425
  701MOL0     H96703   5.349  13.101   8.675  1.3718 -2.1727 -4.1560
  701MOL0     H96704   5.582  13.234   8.666  0.8057  2.0320  1.3378
  701MOL0     H96705   5.470  13.366   8.669  3.1824  1.1988  0.8942
  701MOL0     H96706   5.369  13.268   8.874  2.0095  2.9795  0.5541
  701MOL0     H96707   5.519  13.324   8.895  0.6435 -1.2042  0.9805
  701MOL0     H96708   5.635  13.127   8.910 -0.2273 -1.8873  1.5849
  701MOL0     H96709   5.493  13.026   8.858 -0.8142  0.1561 -0.4623
  701MOL0     H96710   5.540  13.036   9.123  0.0495  2.8775  4.6284
  701MOL0     H96711   5.524  13.210   9.116  0.6583 -0.9717  2.1725
  701MOL0     H96712   5.290  13.208   9.093  1.2398  0.9513 -1.6733
  701MOL0     H96713   5.334  13.072   9.197  1.7736  0.2943  0.0258
  701MOL0     H96714   5.295  12.901   9.042 -1.6107 -1.0751 -1.1690
  701MOL0     H96715   5.275  13.011   8.909 -0.4188  1.4890 -0.2174
  701MOL0     H96716   5.106  12.981   9.167 -0.4013 -1.6245 -1.1354
  701MOL0     H96717   5.089  12.880   9.035  1.4135 -0.8675  1.3912
  701MOL0     H96718   5.519  12.962   8.634  2.0235  1.4366 -0.5639
  701MOL0     H96719   5.587  12.737   8.576 -0.2398  0.8259 -0.0059
  701MOL0     H96720   5.590  12.390   8.413  1.9907 -1.6049  1.1193
  701MOL0     H96721   5.639  12.145   8.405 -0.0491  1.3329  0.7279
  701MOL0     H96722   5.105  10.425   7.740  0.1622  0.6545 -0.8451
  701MOL0     H96723   4.873  10.446   7.706 -0.0486 -1.7191  0.4722
  701MOL0     H96724   4.502  10.545   7.913 -1.8929 -0.1192  1.3179
  701MOL0     H96725   4.266  10.529   7.886 -0.7051  0.3755 -0.2816
  701MOL0     H96726   4.051  10.521   7.836 -0.1066 -2.3441 -1.2219
  701MOL0     H96727   3.923  10.592   7.744 -0.8359 -1.3404  0.1362
  701MOL0     H96728   4.065  10.558   7.534 -1.8814 -0.9856 -1.0801
  701MOL0     H96729   3.963  10.431   7.587  0.9666 -2.0274 -0.0603
  701MOL0     H96730   4.258  10.449   7.579  0.5038 -0.6740 -2.3212
  701MOL0     H96731   4.181  10.364   7.720  0.1365  5.1151  1.9163
  701MOL0     H96732   4.062  10.197   7.579 -0.1663  1.3107 -0.3048
  701MOL0     H96733   4.236  10.193   7.537  0.9733 -0.3595 -0.2937
  701MOL0     H96734   4.081  10.322   7.184 -2.8871 -1.5306  1.0103
  701MOL0     H96735   4.273  10.840   7.585  4.9088 -0.4810 -5.0527
  701MOL0     H96736   4.523  10.827   7.467  4.1051  0.8541  0.5514
  701MOL0     H96737   4.479  10.979   7.563  0.6554 -0.1120  4.6781
  701MOL0     H96738   4.619  10.897   7.591 -0.3251 -0.3225  2.1593
  702MOL0     O96739   2.057  11.524   6.293 -0.0434  0.0397  0.5170
  702MOL0     C96740   2.093  11.460   6.392  0.7699  0.3169  0.1213
  702MOL0     O96741   2.071  11.334   6.406 -0.7250 -0.7254  0.9542
  702MOL0     C96742   2.076  11.249   6.291  0.6359  0.6734 -1.1248
  702MOL0     C96743   2.134  11.276   6.165  0.7140  0.1612 -0.0017
  702MOL0     C96744   2.120  11.172   6.069  0.8181 -0.1577  0.5969
  702MOL0     C96745   2.045  11.057   6.086  0.2981 -0.1787  0.1902
  702MOL0     O96746   2.007  10.990   5.971 -0.5863 -0.1489 -0.7124
  702MOL0     C96747   1.984  10.847   5.971  0.2749 -0.2382 -0.2880
  702MOL0     C96748   1.828  10.825   5.963 -0.4505 -0.2385 -0.1040
  702MOL0     C96749   1.804  10.675   5.962  1.1359 -0.1233  0.3816
  702MOL0     C96750   1.655  10.646   5.926 -0.0528  0.3810  0.7318
  702MOL0     C96751   1.611  10.501   5.936  0.4225  0.6952  0.5598
  702MOL0     C96752   1.634  10.422   5.799  0.6193  0.4851 -0.1805
  702MOL0     C96753   1.563  10.281   5.805 -0.1854  0.2300  0.9507
  702MOL0     C96754   1.560  10.215   5.661 -0.1268  0.4914  0.6810
  702MOL0     N96755   1.689  10.191   5.594 -0.7455  0.0370  0.3042
  702MOL0     C96756   1.806  10.139   5.651  1.1195 -0.5936 -0.0069
  702MOL0     C96757   1.906  10.145   5.556 -0.1033 -0.3147  0.2314
  702MOL0     C96758   2.054  10.094   5.589 -0.0445 -0.1805  0.0621
  702MOL0     C96759   2.161  10.200   5.561  0.2669  0.8104 -0.0822
  702MOL0     C96760   2.305  10.151   5.608  0.7620 -0.3915  0.5717
  702MOL0     C96761   2.409  10.178   5.506 -0.4276  0.1533  0.2480
  702MOL0     O96762   2.400  10.105   5.384 -0.4164  0.0035  0.1016
  702MOL0     C96763   2.500  10.111   5.297 -0.5153  0.4740  0.0628
  702MOL0     C96764   2.635  10.159   5.314  0.2594  0.1143 -0.2053
  702MOL0     C96765   2.733  10.153   5.216  0.6793 -0.2861  0.4846
  702MOL0     C96766   2.864  10.217   5.257  0.1756 -0.7377 -0.1967
  702MOL0     C96767   2.712  10.085   5.099 -0.0809  0.1585 -0.1023
  702MOL0     C96768   2.829  10.050   5.009 -0.3522  0.3088  0.3520
  702MOL0     O96769   2.844   9.929   4.955 -0.3620 -0.3233 -0.2228
  702MOL0     C96770   2.931   9.903   4.850  0.0603 -0.3037  0.6766
  702MOL0     C96771   3.042   9.972   4.810 -0.6113  0.0706 -0.0226
  702MOL0     C96772   3.120   9.918   4.702  0.5749 -0.4336  0.1845
  702MOL0     C96773   3.080   9.793   4.640 -0.1092  0.7822  0.1887
  702MOL0     O96774   3.158   9.722   4.541  0.5313  0.4807 -0.5731
  702MOL0     C96775   3.299   9.712   4.541 -0.1804 -0.0446  0.5119
  702MOL0     C96776   3.352   9.636   4.416  0.3276  0.7148  0.1000
  702MOL0     C96777   3.271   9.508   4.392  0.1066 -0.3060  0.4036
  702MOL0     C96778   3.286   9.402   4.498  0.5606 -0.0820  0.1544
  702MOL0     C96779   3.172   9.296   4.489 -0.1234  0.3597 -0.2011
  702MOL0     C96780   3.158   9.237   4.349  0.1290 -0.1540  0.8798
  702MOL0     C96781   3.044   9.152   4.345  0.1548  0.1145  0.6335
  702MOL0     C96782   2.958   9.143   4.215  0.6591 -0.0999 -0.2787
  702MOL0    Cl96783   2.821   9.044   4.255 -0.0152 -0.5160 -0.2123
  702MOL0     C96784   2.980   9.719   4.691  0.4924  0.3088 -0.7631
  702MOL0     C96785   2.906   9.775   4.797  0.9541  1.1119  0.5030
  702MOL0     O96786   2.901  10.147   4.980 -0.2730  0.7354  0.5422
  702MOL0     C96787   2.585  10.028   5.082  0.2750  0.4718 -0.1991
  702MOL0     C96788   2.478  10.057   5.170  0.3691  0.4317 -0.1589
  702MOL0     N96789   1.857  10.205   5.447 -0.2942  0.2008  0.6600
  702MOL0     N96790   1.730  10.223   5.467 -0.3805 -1.0815 -0.3386
  702MOL0     C96791   1.994  11.033   6.213 -0.0597 -0.2073 -1.1161
  702MOL0     C96792   2.009  11.125   6.319 -0.0898 -0.5891  0.3291
  702MOL0     C96793   2.144  11.544   6.507  0.5945 -0.4550  0.1332
  702MOL0     C96794   2.187  11.472   6.620  0.4288  0.1667  0.0231
  702MOL0     C96795   2.259  11.527   6.730 -0.0625  0.2218 -0.9812
  702MOL0     C96796   2.280  11.668   6.731  0.3658 -0.1671  0.3287
  702MOL0     O96797   2.328  11.721   6.850 -0.7438  0.1818 -0.2007
  702MOL0     C96798   2.412  11.837   6.832 -0.0992 -0.0609  1.6929
  702MOL0     C96799   2.412  11.933   6.957 -0.1410 -0.1621  0.0721
  702MOL0     C96800   2.503  11.878   7.066  0.4371 -0.5953  0.7613
  702MOL0     C96801   2.481  11.948   7.209  0.5278  0.4667  0.6558
  702MOL0     C96802   2.593  11.913   7.297 -0.4614 -0.3581 -0.3381
  702MOL0     C96803   2.687  11.907   7.373  0.2364 -0.7075 -0.2338
  702MOL0     C96804   2.227  11.744   6.624 -0.4882 -0.3796 -0.7564
  702MOL0     C96805   2.154  11.685   6.517  0.3049 -0.4467 -0.0291
  702MOL0     C96806   2.098  11.782   6.415 -0.2750 -0.2271  0.6871
  702MOL0     H96807   2.196  11.363   6.144  0.6612  0.5425  1.3283
  702MOL0     H96808   2.163  11.176   5.970 -2.9144  0.8928 -1.1842
  702MOL0     H96809   2.028  10.795   6.057 -3.3722 -2.1767  0.6415
  702MOL0     H96810   2.020  10.816   5.873 -3.2951 -0.6535 -1.6057
  702MOL0     H96811   1.773  10.871   6.045  0.9194 -0.2075  0.8375
  702MOL0     H96812   1.794  10.859   5.865 -2.9128 -3.1712 -0.3962
  702MOL0     H96813   1.862  10.624   5.884  0.0994 -2.2924  0.9659
  702MOL0     H96814   1.836  10.634   6.058  2.1903 -1.3869 -0.4813
  702MOL0     H96815   1.598  10.705   5.998 -3.1786 -1.7540  0.1952
  702MOL0     H96816   1.637  10.690   5.827  0.1512  0.1242  0.5767
  702MOL0     H96817   1.501  10.506   5.939  0.2574  0.2414 -2.3098
  702MOL0     H96818   1.652  10.449   6.023 -1.9334  0.3926  1.5937
  702MOL0     H96819   1.583  10.487   5.727  0.6689  0.1074 -0.5540
  702MOL0     H96820   1.740  10.423   5.775  0.6019  0.0203 -0.2739
  702MOL0     H96821   1.463  10.294   5.847 -1.7022 -3.3772 -1.1426
  702MOL0     H96822   1.607  10.210   5.875 -0.0303 -0.1423  0.4812
  702MOL0     H96823   1.504  10.122   5.676 -0.1435  0.2324 -0.8594
  702MOL0     H96824   1.510  10.283   5.591 -2.8378 -0.2542  1.7390
  702MOL0     H96825   1.819  10.089   5.746 -0.4011 -1.5800 -0.2826
  702MOL0     H96826   2.076  10.001   5.535  3.9200  0.4867  0.1840
  702MOL0     H96827   2.054  10.079   5.698  1.8517  2.7517  0.5660
  702MOL0     H96828   2.171  10.207   5.452  2.3536  1.8422  0.1226
  702MOL0     H96829   2.124  10.294   5.602 -0.8676  1.7459 -3.0090
  702MOL0     H96830   2.327  10.213   5.696  1.8576 -1.3440  0.9964
  702MOL0     H96831   2.296  10.046   5.636  0.5303 -1.2326 -2.3110
  702MOL0     H96832   2.416  10.286   5.492 -4.0894  0.4837 -0.0722
  702MOL0     H96833   2.503  10.146   5.552 -0.2868 -0.2090 -0.2808
  702MOL0     H96834   2.644  10.196   5.416 -0.3910 -1.5769  0.5081
  702MOL0     H96835   2.955  10.161   5.232  0.5264  1.0204 -3.5113
  702MOL0     H96836   2.875  10.237   5.364 -0.1670  1.8115 -0.5664
  702MOL0     H96837   2.871  10.306   5.193 -2.1954 -1.7296 -2.0030
  702MOL0     H96838   3.079  10.056   4.867 -0.8745 -3.1708  5.6662
  702MOL0     H96839   3.207   9.977   4.676  1.3680 -1.5526  0.2176
  702MOL0     H96840   3.357   9.804   4.544  1.3584 -0.9650  3.3963
  702MOL0     H96841   3.334   9.663   4.632 -4.0870 -0.6668  1.8915
  702MOL0     H96842   3.339   9.695   4.325  0.2929  0.7206  0.1089
  702MOL0     H96843   3.458   9.610   4.428  0.3814  2.0344  3.3755
  702MOL0     H96844   3.308   9.466   4.298  2.5069  0.7730  0.7888
  702MOL0     H96845   3.166   9.527   4.370  0.4987  1.0223 -0.3954
  702MOL0     H96846   3.287   9.449   4.596  3.4981  0.1038  0.1469
  702MOL0     H96847   3.382   9.350   4.486  1.4313  1.6578 -0.9293
  702MOL0     H96848   3.191   9.213   4.557 -0.0169  2.5803  2.6747
  702MOL0     H96849   3.074   9.342   4.505 -1.2890 -1.7496 -0.9484
  702MOL0     H96850   3.251   9.184   4.324  0.5981  1.1327 -0.1980
  702MOL0     H96851   3.149   9.319   4.277  0.0276 -1.1131 -0.2309
  702MOL0     H96852   2.970   9.181   4.419 -0.4976 -1.1098  0.4927
  702MOL0     H96853   3.069   9.048   4.365  3.0048  0.1754 -1.8634
  702MOL0     H96854   3.017   9.115   4.128  1.1185 -1.9853  0.5795
  702MOL0     H96855   2.907   9.240   4.216 -1.6346 -1.2183  0.6063
  702MOL0     H96856   2.948   9.620   4.661  0.0366 -0.4227  1.8512
  702MOL0     H96857   2.823   9.713   4.829  2.6771 -0.6580  1.7212
  702MOL0     H96858   2.572   9.979   4.985  2.7493  2.0001 -1.4111
  702MOL0     H96859   2.377  10.028   5.143  0.6884  2.3079 -4.0704
  702MOL0     H96860   1.926  10.951   6.234 -1.5402  0.7388 -2.0490
  702MOL0     H96861   1.972  11.112   6.420 -0.3227 -4.0491 -0.0787
  702MOL0     H96862   2.163  11.366   6.618  5.0811 -1.1148  0.4158
  702MOL0     H96863   2.281  11.457   6.810  0.3545 -1.5570 -2.5742
  702MOL0     H96864   2.515  11.807   6.812  0.6395  1.6556  2.7141
  702MOL0     H96865   2.392  11.906   6.749  1.6502  0.3420  1.5761
  702MOL0     H96866   2.310  11.936   6.996 -0.3784 -1.2606 -0.4239
  702MOL0     H96867   2.443  12.035   6.935  1.7502 -1.1226 -2.1698
  702MOL0     H96868   2.475  11.772   7.066 -0.2732 -0.4153  1.2869
  702MOL0     H96869   2.602  11.898   7.023 -0.6077  1.7974 -0.7680
  702MOL0     H96870   2.396  11.895   7.255  0.2726  0.6248  0.3709
  702MOL0     H96871   2.475  12.057   7.201  1.1140  0.4867  0.5172
  702MOL0     H96872   2.770  11.894   7.439  0.8186  0.7377 -0.6383
  702MOL0     H96873   2.247  11.850   6.613  1.3922 -0.6499 -0.3036
  702MOL0     H96874   2.160  11.789   6.326 -0.2425 -1.0492  0.6354
  702MOL0     H96875   2.000  11.750   6.377  0.5634  0.9470 -2.8458
  702MOL0     H96876   2.096  11.885   6.451  2.7046  1.0248 -2.3162
  703MOL0     O96877   3.099   1.867   1.826  0.0296 -0.0425  0.1174
  703MOL0     C96878   3.164   1.831   1.724 -0.0202 -0.8205  1.0191
  703MOL0     O96879   3.221   1.709   1.698  0.4309  0.0073 -1.0016
  703MOL0     C96880   3.269   1.639   1.810  0.5268 -0.8424 -0.2260
  703MOL0     C96881   3.207   1.517   1.838 -0.5452 -0.5435  0.4751
  703MOL0     C96882   3.249   1.439   1.948 -0.8824  0.3275 -0.0955
  703MOL0     C96883   3.342   1.495   2.042  0.6225  0.1754  0.7076
  703MOL0     O96884   3.374   1.433   2.159 -0.0881  0.2980 -0.2730
  703MOL0     C96885   3.284   1.334   2.210 -0.3168 -0.2547  0.2439
  703MOL0     C96886   3.331   1.290   2.355  0.6001  0.5519  0.5031
  703MOL0     C96887   3.234   1.332   2.473 -0.4253  0.0384  1.0145
  703MOL0     C96888   3.263   1.268   2.617 -0.7626 -0.2697 -0.2348
  703MOL0     C96889   3.183   1.338   2.731  1.0760 -0.1013  1.0151
  703MOL0     C96890   3.208   1.279   2.867  0.9143  0.4000  0.4452
  703MOL0     C96891   3.079   1.260   2.942  0.7689  0.0617  0.2757
  703MOL0     C96892   3.093   1.193   3.073 -0.4944  0.4563 -0.8168
  703MOL0     N96893   2.966   1.151   3.141  0.0722 -0.4305 -0.6466
  703MOL0     C96894   2.887   1.237   3.216 -0.8636  0.3604 -0.0885
  703MOL0     C96895   2.787   1.163   3.257  0.9418  0.7202 -0.7887
  703MOL0     C96896   2.676   1.216   3.344  0.3072 -0.1334  0.0564
  703MOL0     C96897   2.535   1.172   3.294 -1.0492  0.3628 -0.1860
  703MOL0     C96898   2.431   1.282   3.338 -0.4612 -0.1052 -0.1165
  703MOL0     C96899   2.300   1.256   3.272 -0.1527 -0.5373  0.1544
  703MOL0     O96900   2.225   1.379   3.285 -0.7115 -0.6592 -0.2070
  703MOL0     C96901   2.086   1.368   3.281 -0.4711  0.8642 -0.1727
  703MOL0     C96902   2.015   1.469   3.349 -0.5013  0.3969  0.9594
  703MOL0     C96903   1.879   1.474   3.353  0.9171  0.0293  0.3084
  703MOL0     C96904   1.807   1.587   3.425  0.3342 -0.5090 -0.5242
  703MOL0     C96905   1.803   1.361   3.300 -0.2262  0.6375 -0.3247
  703MOL0     C96906   1.653   1.343   3.319  0.7340  0.2732  0.5798
  703MOL0     O96907   1.600   1.218   3.276  0.3609 -0.7301 -0.4309
  703MOL0     C96908   1.464   1.199   3.310  1.3333 -0.1911  1.0425
  703MOL0     C96909   1.356   1.216   3.215 -0.8069  0.9652 -0.1188
  703MOL0     C96910   1.220   1.182   3.242 -0.4955  1.4804  0.2319
  703MOL0     C96911   1.183   1.149   3.378  0.0366 -1.0044  1.5973
  703MOL0     O96912   1.055   1.123   3.422 -1.0213  0.0499  0.3415
  703MOL0     C96913   0.949   1.198   3.348 -0.0725  0.3700 -0.7924
  703MOL0     C96914   0.817   1.144   3.405 -0.9786 -0.8176  0.6198
  703MOL0     C96915   0.762   1.023   3.326  0.1821 -1.0995 -0.3721
  703MOL0     C96916   0.859   0.907   3.329 -0.6841  0.2091  0.3663
  703MOL0     C96917   0.772   0.787   3.271  0.0240  0.5635 -0.7546
  703MOL0     C96918   0.846   0.657   3.264 -0.3525  0.0763  0.7240
  703MOL0     C96919   0.771   0.541   3.208  0.4879  0.5185  0.4171
  703MOL0     C96920   0.846   0.457   3.101  0.0797 -0.0141 -0.5464
  703MOL0    Cl96921   0.926   0.569   2.982  0.2764 -0.1671 -0.8349
  703MOL0     C96922   1.288   1.133   3.470  0.7599 -0.4114  0.9383
  703MOL0     C96923   1.419   1.154   3.437  0.3550  0.0995 -0.7172
  703MOL0     O96924   1.591   1.424   3.383  0.5738 -0.0839  0.1556
  703MOL0     C96925   1.875   1.251   3.237 -0.1257 -0.1536 -0.0447
  703MOL0     C96926   2.013   1.260   3.223  1.0485 -0.1276  1.0330
  703MOL0     N96927   2.805   1.032   3.203 -0.0783 -0.6564 -1.1081
  703MOL0     N96928   2.921   1.026   3.141  1.0064  0.0134 -0.0048
  703MOL0     C96929   3.399   1.624   2.009  1.2607  0.0908  0.0060
  703MOL0     C96930   3.350   1.695   1.901 -0.6156  0.4393 -0.0156
  703MOL0     C96931   3.191   1.943   1.623 -0.3771 -0.4958 -0.8113
  703MOL0     C96932   3.294   1.931   1.532  1.3863 -0.7553  0.0861
  703MOL0     C96933   3.312   2.020   1.433  0.3986 -1.0722 -0.3207
  703MOL0     C96934   3.226   2.134   1.424 -0.6355 -0.2330 -0.0382
  703MOL0     O96935   3.240   2.229   1.329  0.2898  0.4189  0.5540
  703MOL0     C96936   3.197   2.361   1.344  0.0144 -0.2539 -0.0906
  703MOL0     C96937   3.300   2.459   1.295  0.3788  0.1294  0.3551
  703MOL0     C96938   3.334   2.438   1.143 -0.4675  0.8757 -0.3066
  703MOL0     C96939   3.364   2.563   1.060  0.5697  0.1489  0.3405
  703MOL0     C96940   3.418   2.537   0.924  0.2808  0.1763  0.4325
  703MOL0     C96941   3.469   2.496   0.822  0.0183 -0.6695  0.2142
  703MOL0     C96942   3.127   2.155   1.520  0.1495 -0.6008 -0.3337
  703MOL0     C96943   3.105   2.062   1.618  0.5211  0.3770  0.4933
  703MOL0     C96944   2.987   2.089   1.710 -0.0332 -0.4256 -0.6496
  703MOL0     H96945   3.128   1.484   1.772 -0.8188  0.7258  0.1464
  703MOL0     H96946   3.184   1.355   1.970  0.0220 -0.0830  1.1635
  703MOL0     H96947   3.285   1.242   2.150 -2.2880  1.2806 -2.3560
  703MOL0     H96948   3.179   1.365   2.203  0.0218  0.8883  0.1319
  703MOL0     H96949   3.319   1.181   2.359 -3.6903  0.8363  1.1662
  703MOL0     H96950   3.437   1.312   2.371  0.6267  0.1290  0.9418
  703MOL0     H96951   3.247   1.439   2.487 -3.8083  1.1384 -2.3709
  703MOL0     H96952   3.131   1.305   2.446 -1.2763  0.5735  3.4303
  703MOL0     H96953   3.262   1.159   2.608 -2.5258 -0.4011  0.9406
  703MOL0     H96954   3.369   1.278   2.641 -0.6640 -0.9144 -0.3741
  703MOL0     H96955   3.078   1.337   2.699  0.1751  0.8460  3.6482
  703MOL0     H96956   3.208   1.443   2.749 -0.8393  0.2406  2.0196
  703MOL0     H96957   3.265   1.186   2.863  0.1582 -0.0612  0.1711
  703MOL0     H96958   3.275   1.347   2.921  1.2950  0.5869 -0.2360
  703MOL0     H96959   3.005   1.206   2.883  0.0303  2.3339 -0.9873
  703MOL0     H96960   3.034   1.358   2.961  0.9215  0.0409  0.7559
  703MOL0     H96961   3.153   1.101   3.069 -3.9878 -2.3249  2.1207
  703MOL0     H96962   3.141   1.259   3.146  1.2164 -1.4197 -0.1270
  703MOL0     H96963   2.909   1.342   3.234 -0.8617  0.5480 -1.1236
  703MOL0     H96964   2.694   1.322   3.366  0.5542 -0.8718  4.2519
  703MOL0     H96965   2.683   1.179   3.446 -0.6604  0.2911  0.2920
  703MOL0     H96966   2.540   1.172   3.185 -1.3618  1.4061 -0.2110
  703MOL0     H96967   2.508   1.068   3.313  1.5187 -1.0389 -3.3649
  703MOL0     H96968   2.417   1.276   3.447 -0.4787 -1.7534 -0.1747
  703MOL0     H96969   2.468   1.377   3.300 -0.2983  0.0545  0.4241
  703MOL0     H96970   2.316   1.246   3.165 -2.8237  1.6345 -0.5475
  703MOL0     H96971   2.258   1.164   3.315  0.0999 -1.1103 -0.7822
  703MOL0     H96972   2.065   1.558   3.385  0.6471  0.5571 -0.8946
  703MOL0     H96973   1.755   1.543   3.511  0.5095  0.0101 -0.1505
  703MOL0     H96974   1.735   1.625   3.352  0.8534  1.5285 -0.0517
  703MOL0     H96975   1.876   1.662   3.463 -1.1243  0.7536 -0.2638
  703MOL0     H96976   1.387   1.244   3.115  0.5991  1.7117  0.4818
  703MOL0     H96977   1.144   1.196   3.167 -1.0621 -0.6927  0.3188
  703MOL0     H96978   0.946   1.300   3.389 -2.8975 -0.9929  2.9773
  703MOL0     H96979   0.957   1.195   3.239  0.9956 -0.1673 -0.7095
  703MOL0     H96980   0.829   1.111   3.509 -1.9712  0.2849  1.1193
  703MOL0     H96981   0.747   1.228   3.416  0.4346  0.6469 -0.9740
  703MOL0     H96982   0.746   1.059   3.224  1.6254  3.9353  0.9010
  703MOL0     H96983   0.664   0.994   3.364  0.5641  0.2194  1.7762
  703MOL0     H96984   0.897   0.882   3.429 -1.4789 -3.0326 -0.0172
  703MOL0     H96985   0.949   0.919   3.267 -0.6471  1.9245  0.7075
  703MOL0     H96986   0.691   0.762   3.341  2.7884  0.3301  2.6137
  703MOL0     H96987   0.723   0.814   3.176 -1.7274 -3.2224 -1.0857
  703MOL0     H96988   0.878   0.629   3.365  0.4282  1.0570  0.7788
  703MOL0     H96989   0.939   0.673   3.207 -0.0494 -2.2104  0.4899
  703MOL0     H96990   0.676   0.559   3.158  0.6531 -1.4091 -0.6764
  703MOL0     H96991   0.740   0.482   3.295  0.5039  1.9840  1.4638
  703MOL0     H96992   0.787   0.379   3.052 -0.9015  0.1171  0.4060
  703MOL0     H96993   0.923   0.405   3.158  1.5622  2.8581  0.2770
  703MOL0     H96994   1.279   1.093   3.571  2.6701  0.6865  1.5956
  703MOL0     H96995   1.496   1.136   3.512 -1.3631 -1.5064  0.7708
  703MOL0     H96996   1.825   1.164   3.195 -1.8474  0.1341  1.2777
  703MOL0     H96997   2.057   1.175   3.173  1.7946  1.3921 -1.0223
  703MOL0     H96998   3.470   1.664   2.081 -1.4978  5.9768  0.0710
  703MOL0     H96999   3.372   1.800   1.883 -0.8401  0.3773 -0.6691
  703MOL0     H97000   3.363   1.848   1.537  1.0145 -1.1030 -0.4396
  703MOL0     H97001   3.385   1.998   1.355  0.7789 -2.1555  0.3267
  703MOL0     H97002   3.106   2.373   1.286 -0.1982  1.8057  0.6030
  703MOL0     H97003   3.166   2.393   1.444  2.2856 -1.2971  1.0354
  703MOL0     H97004   3.386   2.448   1.362  1.4815  4.6120  0.0044
  703MOL0     H97005   3.264   2.562   1.304  1.0218  0.4320 -0.4594
  703MOL0     H97006   3.417   2.368   1.135 -2.5118 -1.8213  0.4857
  703MOL0     H97007   3.249   2.385   1.098 -0.4351 -0.2822  0.9337
  703MOL0     H97008   3.432   2.637   1.104 -2.9611  2.5731  2.2677
  703MOL0     H97009   3.267   2.613   1.053 -1.4110 -3.2724  1.2048
  703MOL0     H97010   3.494   2.444   0.732 -1.1264  0.4135 -0.7861
  703MOL0     H97011   3.068   2.245   1.529  1.6104  0.2711  1.1374
  703MOL0     H97012   3.022   2.125   1.807  0.2472  2.2307 -1.6565
  703MOL0     H97013   2.934   2.177   1.673  0.3513  0.3701  0.6248
  703MOL0     H97014   2.920   2.003   1.700 -0.2754 -0.5672  1.7477
  704MOL0     O97015   1.055  10.578   5.200  0.0357 -0.6761  0.0620
  704MOL0     C97016   1.014  10.648   5.286  1.3472  0.3940 -0.9360
  704MOL0     O97017   1.045  10.656   5.421  0.7421  0.4778 -0.4027
  704MOL0     C97018   1.094  10.536   5.475  0.2988  0.4473 -0.2372
  704MOL0     C97019   1.072  10.406   5.426  0.4710 -0.0174  0.5719
  704MOL0     C97020   1.117  10.289   5.485 -1.0011 -1.1235 -0.8483
  704MOL0     C97021   1.182  10.305   5.615  0.3561 -0.4277 -1.5880
  704MOL0     O97022   1.224  10.193   5.684  0.3691 -0.4241  0.1866
  704MOL0     C97023   1.117  10.114   5.743 -0.3834 -0.6631  0.5009
  704MOL0     C97024   1.171   9.972   5.763 -0.0161 -0.2231  0.1060
  704MOL0     C97025   1.291   9.959   5.864  0.9852 -0.3273  0.6876
  704MOL0     C97026   1.344   9.819   5.861 -0.1591 -0.7199  0.8512
  704MOL0     C97027   1.456   9.787   5.974  0.3047  0.5795 -0.4516
  704MOL0     C97028   1.572   9.882   5.961  0.1409  0.3664  0.4802
  704MOL0     C97029   1.696   9.836   6.039  0.5808  0.5624 -0.2394
  704MOL0     C97030   1.812   9.919   6.028 -0.8759 -0.5167 -0.9723
  704MOL0     N97031   1.803  10.040   6.113  0.4998 -0.4947  0.6320
  704MOL0     C97032   1.814  10.058   6.248  1.2736 -0.1760 -0.8186
  704MOL0     C97033   1.787  10.188   6.272  0.5424  0.8196 -0.3398
  704MOL0     C97034   1.795  10.246   6.412  0.3726  0.0717  0.3845
  704MOL0     C97035   1.737  10.168   6.527  0.2321 -0.5999 -0.0409
  704MOL0     C97036   1.801  10.225   6.657 -0.6328 -0.7270 -0.5872
  704MOL0     C97037   1.745  10.166   6.795  0.3473  0.0606  1.6191
  704MOL0     O97038   1.761  10.036   6.818  0.0388 -0.1239 -0.0044
  704MOL0     C97039   1.706   9.975   6.935 -0.7032  0.9580 -0.1358
  704MOL0     C97040   1.686   9.839   6.929 -0.6715 -0.0559  0.0354
  704MOL0     C97041   1.643   9.776   7.048 -0.0819 -0.1517  0.9914
  704MOL0     C97042   1.624   9.627   7.016 -0.3868  0.6353  0.5242
  704MOL0     C97043   1.621   9.845   7.173  0.0426 -0.2562 -0.1735
  704MOL0     C97044   1.581   9.785   7.305  0.5172 -0.0387 -0.7172
  704MOL0     O97045   1.517   9.858   7.396  0.5718 -0.8795 -0.0427
  704MOL0     C97046   1.482   9.800   7.511 -0.6150  0.4852 -0.0640
  704MOL0     C97047   1.348   9.837   7.561 -0.2655 -0.1809 -0.3381
  704MOL0     C97048   1.320   9.796   7.689  0.1718  0.9121  0.5733
  704MOL0     C97049   1.409   9.721   7.775 -1.0128 -0.2897  0.5712
  704MOL0     O97050   1.349   9.677   7.884 -0.9262  0.4815 -0.0131
  704MOL0     C97051   1.437   9.625   7.985  0.6271  0.4645 -0.7186
  704MOL0     C97052   1.513   9.742   8.051 -0.6996  0.1111  0.5978
  704MOL0     C97053   1.576   9.714   8.189  0.0635  0.3207 -0.6875
  704MOL0     C97054   1.660   9.828   8.233 -0.5785 -0.4699 -0.3526
  704MOL0     C97055   1.709   9.819   8.380  0.0644 -0.4181  0.1203
  704MOL0     C97056   1.601   9.775   8.479  0.5399 -0.8554 -0.6760
  704MOL0     C97057   1.643   9.799   8.629 -0.6635 -0.4660 -0.5877
  704MOL0     C97058   1.540   9.732   8.715 -0.3158  0.1760  1.1611
  704MOL0    Cl97059   1.563   9.740   8.883  0.6882 -0.4848 -0.2180
  704MOL0     C97060   1.533   9.683   7.718  0.3513  0.6689 -0.5485
  704MOL0     C97061   1.570   9.720   7.588  0.7469 -0.2633 -0.0348
  704MOL0     O97062   1.608   9.668   7.313  0.2489 -0.3467 -1.0462
  704MOL0     C97063   1.644   9.977   7.172  0.2033 -0.9798  0.6906
  704MOL0     C97064   1.681  10.044   7.050  0.2690  0.8798 -0.2005
  704MOL0     N97065   1.757  10.243   6.156  0.0399 -0.0169 -0.4876
  704MOL0     N97066   1.775  10.160   6.068  0.4002 -0.3667  0.4978
  704MOL0     C97067   1.209  10.427   5.665 -0.3884  0.2923  0.3925
  704MOL0     C97068   1.172  10.537   5.590  0.3360 -0.0453  1.0712
  704MOL0     C97069   0.926  10.768   5.242 -0.9752 -0.1715 -0.1517
  704MOL0     C97070   0.935  10.889   5.310 -0.3865 -0.2509  0.0617
  704MOL0     C97071   0.872  10.996   5.240  0.3832  0.1399 -0.3318
  704MOL0     C97072   0.791  10.983   5.133 -0.1307  0.2931  0.0284
  704MOL0     O97073   0.725  11.094   5.092 -0.2393  0.5138  0.7513
  704MOL0     C97074   0.598  11.112   5.159  0.3459 -0.3871 -0.1527
  704MOL0     C97075   0.596  11.206   5.280 -0.2126 -0.2242 -0.8805
  704MOL0     C97076   0.443  11.214   5.325 -0.2557  0.0012 -0.7683
  704MOL0     C97077   0.401  11.087   5.413 -0.3320 -0.1634  0.1289
  704MOL0     C97078   0.433  11.094   5.559  0.6349 -0.1880 -0.1165
  704MOL0     C97079   0.473  11.120   5.671 -0.2052 -0.6395  0.2939
  704MOL0     C97080   0.779  10.862   5.071  0.0522  0.3681  0.5290
  704MOL0     C97081   0.844  10.751   5.124  0.6021  0.1022 -0.5277
  704MOL0     C97082   0.808  10.620   5.072  0.0974  0.2367  0.0288
  704MOL0     H97083   1.007  10.390   5.341  0.2263  1.3050  0.4934
  704MOL0     H97084   1.098  10.191   5.441 -1.4209 -0.7183 -1.5871
  704MOL0     H97085   1.029  10.111   5.679  1.4448  2.8305 -2.6062
  704MOL0     H97086   1.088  10.169   5.832  0.3385  2.6270 -1.1174
  704MOL0     H97087   1.094   9.900   5.794  0.9410 -1.4290 -0.2500
  704MOL0     H97088   1.212   9.933   5.669  3.0868 -3.1383  2.4144
  704MOL0     H97089   1.370  10.031   5.841 -1.2742  4.2188  5.1294
  704MOL0     H97090   1.254   9.985   5.964  0.1481  0.1839  0.2573
  704MOL0     H97091   1.261   9.747   5.864 -0.9521 -0.3101 -3.8386
  704MOL0     H97092   1.382   9.812   5.759  0.3382 -1.3822  1.0694
  704MOL0     H97093   1.500   9.689   5.957  2.2593  1.5197 -1.0582
  704MOL0     H97094   1.411   9.797   6.073  1.1470 -1.7415  0.2280
  704MOL0     H97095   1.597   9.887   5.854  0.3207  1.3228  0.5569
  704MOL0     H97096   1.543   9.981   5.997 -3.0707 -0.7557  1.2650
  704MOL0     H97097   1.725   9.736   6.004 -0.0351  0.3977 -0.2939
  704MOL0     H97098   1.674   9.830   6.146 -3.9485  3.4237 -0.7414
  704MOL0     H97099   1.900   9.861   6.057 -1.4219 -0.6421  0.5024
  704MOL0     H97100   1.815   9.935   5.919 -0.8177 -3.9483 -1.5820
  704MOL0     H97101   1.816   9.983   6.326  0.6841  0.7871  0.1444
  704MOL0     H97102   1.757  10.349   6.409  3.6003  1.3436 -1.3939
  704MOL0     H97103   1.902  10.254   6.433  0.7672 -0.7404 -1.1228
  704MOL0     H97104   1.630  10.191   6.533  0.8980  3.9014 -1.7744
  704MOL0     H97105   1.764  10.062   6.530  1.0369 -0.4311 -0.8529
  704MOL0     H97106   1.910  10.215   6.650 -0.7824 -1.0045 -3.3800
  704MOL0     H97107   1.773  10.330   6.665  2.4451  0.1970 -0.7773
  704MOL0     H97108   1.790  10.222   6.877 -1.1472  2.6718  0.7694
  704MOL0     H97109   1.636  10.177   6.785 -0.8168 -7.6294 -2.9377
  704MOL0     H97110   1.715   9.787   6.839  0.2039 -0.3774  0.4968
  704MOL0     H97111   1.570   9.576   7.096  1.5956 -0.4802  1.2426
  704MOL0     H97112   1.714   9.568   6.999  0.0886  1.3763  0.3972
  704MOL0     H97113   1.578   9.615   6.918  0.3019 -1.1136  0.3915
  704MOL0     H97114   1.276   9.898   7.507  1.4864  0.2724 -2.2684
  704MOL0     H97115   1.221   9.814   7.730  0.4729  1.4633  1.0735
  704MOL0     H97116   1.382   9.590   8.073  0.7706 -1.1938 -1.2513
  704MOL0     H97117   1.493   9.539   7.947  1.9010 -0.4084  2.7831
  704MOL0     H97118   1.594   9.765   7.981 -0.7780 -1.9533 -0.2424
  704MOL0     H97119   1.449   9.830   8.066 -2.4401 -1.3436  2.2589
  704MOL0     H97120   1.631   9.620   8.184 -0.2413 -0.0453  1.6934
  704MOL0     H97121   1.493   9.707   8.259  0.2296  2.4327 -0.2261
  704MOL0     H97122   1.588   9.909   8.218 -3.2699 -2.6742 -0.1384
  704MOL0     H97123   1.743   9.843   8.164 -1.2886 -0.8063 -1.3003
  704MOL0     H97124   1.791   9.746   8.383 -0.7138 -1.3007  2.7004
  704MOL0     H97125   1.746   9.918   8.405  0.6297  0.4064 -3.4368
  704MOL0     H97126   1.575   9.669   8.467  1.1048 -1.0983  0.1048
  704MOL0     H97127   1.516   9.842   8.461  1.9029  1.2996  0.4967
  704MOL0     H97128   1.645   9.905   8.655 -4.1960 -0.2875 -0.5912
  704MOL0     H97129   1.733   9.745   8.660 -1.5955 -1.8438 -0.1824
  704MOL0     H97130   1.536   9.628   8.681  2.4586  0.1902  0.5276
  704MOL0     H97131   1.437   9.765   8.700  1.1530  5.1595  0.2789
  704MOL0     H97132   1.611   9.638   7.778  0.0162 -0.0608 -0.6465
  704MOL0     H97133   1.671   9.705   7.552 -0.1136 -1.5059 -2.0893
  704MOL0     H97134   1.620  10.046   7.253  0.2817  1.4173 -1.2076
  704MOL0     H97135   1.691  10.152   7.049 -1.5289  1.0954 -2.1587
  704MOL0     H97136   1.272  10.448   5.751  0.4003  3.9312 -0.9026
  704MOL0     H97137   1.170  10.635   5.637  1.8389  2.3896 -3.3757
  704MOL0     H97138   0.990  10.906   5.402 -2.5169  0.5521  1.2458
  704MOL0     H97139   0.882  11.096   5.282  0.7766  0.5589 -1.4006
  704MOL0     H97140   0.534  11.149   5.079 -2.9628 -3.6901  0.7125
  704MOL0     H97141   0.550  11.020   5.193  0.7070  1.1097  5.4355
  704MOL0     H97142   0.616  11.311   5.255 -1.5484  0.8017  1.9032
  704MOL0     H97143   0.659  11.176   5.364 -0.5026 -0.6342 -0.8045
  704MOL0     H97144   0.431  11.302   5.389 -0.0911 -0.0534 -0.6633
  704MOL0     H97145   0.387  11.219   5.231 -0.5460 -0.9693 -0.6560
  704MOL0     H97146   0.437  10.991   5.377 -1.2924 -0.9588  1.1880
  704MOL0     H97147   0.292  11.084   5.413 -0.4006  1.1619  0.9913
  704MOL0     H97148   0.527  11.138   5.761  0.4792  1.9451 -0.5623
  704MOL0     H97149   0.703  10.857   4.993  2.0347 -1.6612 -1.4140
  704MOL0     H97150   0.883  10.579   5.004 -1.1391  2.2130 -2.7625
  704MOL0     H97151   0.785  10.556   5.157 -5.0645  1.7280  0.1115
  704MOL0     H97152   0.719  10.624   5.009 -1.2897 -1.4105  1.7971
  705MOL0     O97153   1.184   4.318   7.510  0.5665 -0.2285  1.3323
  705MOL0     C97154   1.224   4.325   7.394  0.6403  0.7280  0.0846
  705MOL0     O97155   1.256   4.224   7.319 -0.8837  0.3371 -0.1932
  705MOL0     C97156   1.225   4.091   7.346  0.0908 -0.7310  0.5954
  705MOL0     C97157   1.115   4.038   7.427 -0.0994 -0.2999 -0.6769
  705MOL0     C97158   1.092   3.900   7.427  0.3664 -1.5970 -0.4684
  705MOL0     C97159   1.163   3.816   7.345  0.0962  0.9898 -0.7959
  705MOL0     O97160   1.164   3.673   7.353 -0.5696  0.0466  0.2696
  705MOL0     C97161   1.059   3.620   7.426 -0.2535  0.4367  0.0631
  705MOL0     C97162   1.060   3.471   7.403 -0.6023  0.2198  0.7221
  705MOL0     C97163   1.191   3.405   7.473 -0.1737 -0.7300  0.3446
  705MOL0     C97164   1.181   3.252   7.446 -0.1828 -0.3420 -0.9347
  705MOL0     C97165   1.293   3.174   7.519  0.2558 -0.0204  1.1288
  705MOL0     C97166   1.336   3.047   7.444 -0.5544 -0.2309  0.3168
  705MOL0     C97167   1.405   3.079   7.311 -0.1724  0.2667  0.1408
  705MOL0     C97168   1.523   3.172   7.324 -0.2459 -0.8572  0.0884
  705MOL0     N97169   1.600   3.156   7.206 -0.1674 -0.7116 -0.2516
  705MOL0     C97170   1.549   3.187   7.084 -1.3047  0.1554  0.6900
  705MOL0     C97171   1.637   3.141   6.991 -0.5332  0.4845  0.1906
  705MOL0     C97172   1.624   3.139   6.845 -0.4006 -0.3007 -0.5530
  705MOL0     C97173   1.680   3.266   6.770  0.6605  0.6595 -1.5045
  705MOL0     C97174   1.617   3.286   6.633  0.1432 -0.2878  0.1662
  705MOL0     C97175   1.715   3.358   6.552  0.5984 -0.3392  0.0116
  705MOL0     O97176   1.673   3.381   6.417  0.6550  0.3061  0.9636
  705MOL0     C97177   1.757   3.445   6.328  0.2644 -0.8307 -0.9114
  705MOL0     C97178   1.794   3.578   6.344  0.1570  0.5732  0.5334
  705MOL0     C97179   1.865   3.644   6.242 -0.3135 -0.1610 -0.2820
  705MOL0     C97180   1.892   3.795   6.261  0.4794 -0.1599  0.6293
  705MOL0     C97181   1.919   3.565   6.136  1.2005 -0.3173  0.4506
  705MOL0     C97182   2.002   3.619   6.029  0.7486  1.0726  0.1660
  705MOL0     O97183   1.992   3.552   5.905 -0.3735 -0.3804 -0.2541
  705MOL0     C97184   2.073   3.577   5.807  0.7635  0.8130 -0.0377
  705MOL0     C97185   2.212   3.568   5.817  0.1172  0.2075 -0.4094
  705MOL0     C97186   2.295   3.591   5.711  0.3155  0.2327  0.2658
  705MOL0     C97187   2.244   3.626   5.585  0.5488  0.8585  0.0316
  705MOL0     O97188   2.344   3.633   5.489  0.2049 -0.7120  0.8656
  705MOL0     C97189   2.337   3.595   5.350 -0.2085  0.1821 -0.2714
  705MOL0     C97190   2.463   3.594   5.274 -0.5441  0.3533  0.0682
  705MOL0     C97191   2.440   3.539   5.141 -0.0374  0.4795 -0.1175
  705MOL0     C97192   2.569   3.548   5.057  0.7161  0.0471  1.0533
  705MOL0     C97193   2.652   3.433   5.069  0.7248  0.8942  0.0907
  705MOL0     C97194   2.784   3.441   4.992 -0.6037 -0.2336  1.4883
  705MOL0     C97195   2.788   3.308   4.909  0.5997 -0.6185 -0.5936
  705MOL0     C97196   2.933   3.270   4.866 -0.6418 -0.4055 -0.2038
  705MOL0    Cl97197   2.990   3.365   4.720 -0.1388 -0.3742 -0.1555
  705MOL0     C97198   2.105   3.640   5.573 -0.7443 -1.0879  0.1601
  705MOL0     C97199   2.018   3.620   5.686  0.5958  0.6465 -0.5994
  705MOL0     O97200   2.080   3.707   6.052  0.4390 -0.5643 -0.5631
  705MOL0     C97201   1.883   3.432   6.128 -0.7542  0.1307  1.2796
  705MOL0     C97202   1.796   3.376   6.219  0.3485  0.5320  1.3002
  705MOL0     N97203   1.739   3.071   7.061  0.6640 -0.3032 -0.4822
  705MOL0     N97204   1.718   3.091   7.186 -0.3410  0.1371 -0.0133
  705MOL0     C97205   1.268   3.871   7.269  0.3186 -0.1575  0.0883
  705MOL0     C97206   1.297   4.007   7.269  0.2487 -0.0089  0.4381
  705MOL0     C97207   1.244   4.454   7.336 -0.3890 -0.5919 -0.7715
  705MOL0     C97208   1.131   4.520   7.295  0.4067 -0.4815 -0.4540
  705MOL0     C97209   1.130   4.648   7.231  0.3500  0.4741 -0.6558
  705MOL0     C97210   1.254   4.710   7.233 -0.6395  0.1700  0.5045
  705MOL0     O97211   1.260   4.823   7.159  0.3812 -1.1434 -0.3238
  705MOL0     C97212   1.338   4.931   7.213  0.6229 -0.8288 -0.0559
  705MOL0     C97213   1.311   5.066   7.139  1.1854 -0.3743 -0.2018
  705MOL0     C97214   1.177   5.141   7.170 -0.0875 -0.1466 -0.4477
  705MOL0     C97215   1.138   5.163   7.315  0.4898  0.5497 -0.1661
  705MOL0     C97216   1.030   5.262   7.323  1.5334 -0.0337 -0.4090
  705MOL0     C97217   0.930   5.330   7.330 -0.1368  0.0527 -0.6170
  705MOL0     C97218   1.364   4.652   7.284  0.1596  0.5055  0.0608
  705MOL0     C97219   1.369   4.527   7.337  0.1962 -0.4965  0.5495
  705MOL0     C97220   1.506   4.483   7.385  0.4970 -0.3110 -0.0134
  705MOL0     H97221   1.060   4.100   7.497 -0.0865 -0.6961 -0.3107
  705MOL0     H97222   1.021   3.867   7.503 -1.1380  1.3901 -0.4439
  705MOL0     H97223   0.964   3.659   7.389  0.5347  0.8164 -1.6534
  705MOL0     H97224   1.077   3.637   7.533  2.8725 -1.1531 -0.0837
  705MOL0     H97225   0.974   3.415   7.442  0.7715 -2.4290  0.1628
  705MOL0     H97226   1.073   3.463   7.294  0.3217  2.8129  0.5872
  705MOL0     H97227   1.281   3.446   7.427  1.9610 -4.1507  1.1282
  705MOL0     H97228   1.187   3.418   7.581  1.7809 -0.3915  0.4078
  705MOL0     H97229   1.080   3.215   7.464 -0.4832  0.3281 -1.1888
  705MOL0     H97230   1.186   3.242   7.337 -0.1168  0.2569 -0.9918
  705MOL0     H97231   1.252   3.149   7.617 -4.1751  1.5282 -0.1104
  705MOL0     H97232   1.382   3.238   7.520  0.4066 -0.1468 -0.6553
  705MOL0     H97233   1.402   2.984   7.505  0.4309 -0.7101 -1.1968
  705MOL0     H97234   1.248   2.987   7.421  0.4882 -1.1232 -1.5309
  705MOL0     H97235   1.332   3.124   7.243 -1.0005  0.2044  0.9695
  705MOL0     H97236   1.442   2.980   7.282 -0.7290 -0.3067  1.3291
  705MOL0     H97237   1.501   3.276   7.347 -0.8035 -1.0284  0.3522
  705MOL0     H97238   1.580   3.140   7.411  0.0738 -0.0658  0.1771
  705MOL0     H97239   1.465   3.249   7.054  1.6285  2.6442 -3.5590
  705MOL0     H97240   1.522   3.121   6.809 -0.3146 -0.0833 -0.9152
  705MOL0     H97241   1.679   3.054   6.805 -0.5706 -1.0471  0.7623
  705MOL0     H97242   1.666   3.361   6.823 -2.2071  0.3923 -1.6497
  705MOL0     H97243   1.785   3.253   6.744  0.7960 -0.8187 -0.3240
  705MOL0     H97244   1.591   3.185   6.601  0.4925 -1.9326  4.4684
  705MOL0     H97245   1.528   3.350   6.628 -1.4746 -2.4529 -0.9898
  705MOL0     H97246   1.731   3.448   6.613 -2.6670  1.2442 -1.2075
  705MOL0     H97247   1.815   3.314   6.544  0.2675 -1.1390  0.1521
  705MOL0     H97248   1.739   3.635   6.418 -2.1192 -0.1151 -0.5193
  705MOL0     H97249   1.842   3.829   6.352 -2.2322 -1.4359 -0.2968
  705MOL0     H97250   1.853   3.854   6.178  2.5361 -1.8132 -1.6488
  705MOL0     H97251   1.999   3.814   6.274  0.7934 -0.5895 -1.1367
  705MOL0     H97252   2.259   3.541   5.911 -0.1226  0.3109 -0.2613
  705MOL0     H97253   2.398   3.566   5.733  0.0161  1.2745  3.3399
  705MOL0     H97254   2.277   3.505   5.337 -1.4578  0.9131  0.3183
  705MOL0     H97255   2.272   3.670   5.306 -2.8102 -0.3787  2.3358
  705MOL0     H97256   2.504   3.695   5.263  0.7410 -0.3197 -1.9566
  705MOL0     H97257   2.544   3.534   5.316  0.1377 -0.1483 -1.8229
  705MOL0     H97258   2.351   3.586   5.098 -0.8876 -0.3661  0.6896
  705MOL0     H97259   2.418   3.431   5.142 -1.5467  0.5564 -4.1943
  705MOL0     H97260   2.630   3.633   5.088  0.7278  1.2430 -1.9398
  705MOL0     H97261   2.536   3.568   4.955 -1.3364  1.9091  2.0046
  705MOL0     H97262   2.666   3.409   5.175  0.7836 -3.4603 -0.7396
  705MOL0     H97263   2.593   3.347   5.035 -0.4151  0.4824  2.8499
  705MOL0     H97264   2.869   3.463   5.058  1.8398 -0.9214 -1.2296
  705MOL0     H97265   2.792   3.524   4.921 -0.2116  2.1138  4.0898
  705MOL0     H97266   2.725   3.325   4.821 -0.4331  0.0667  0.2492
  705MOL0     H97267   2.748   3.227   4.971 -2.7038  1.4341  0.2157
  705MOL0     H97268   2.945   3.165   4.838 -0.4443 -0.3732 -0.2439
  705MOL0     H97269   3.006   3.295   4.944  0.3025  1.8540 -1.6939
  705MOL0     H97270   2.057   3.678   5.484 -1.9809  2.1561  2.0188
  705MOL0     H97271   1.913   3.647   5.677  1.0883  2.4707 -1.3385
  705MOL0     H97272   1.917   3.369   6.047  0.4412  0.3873  1.5612
  705MOL0     H97273   1.756   3.277   6.202 -2.5550  2.0319 -2.0508
  705MOL0     H97274   1.326   3.800   7.211 -0.5813 -0.5076 -0.4064
  705MOL0     H97275   1.369   4.041   7.195 -1.6302 -0.3584 -1.6704
  705MOL0     H97276   1.038   4.465   7.306  0.2716 -0.3128 -0.7534
  705MOL0     H97277   1.039   4.689   7.189 -0.6533 -1.1437 -0.1654
  705MOL0     H97278   1.323   4.932   7.322  0.5102  0.1111 -0.0746
  705MOL0     H97279   1.444   4.911   7.195  1.7202  5.5200 -3.2690
  705MOL0     H97280   1.294   5.034   7.036 -1.2824 -1.9485  0.5804
  705MOL0     H97281   1.390   5.139   7.160  0.4934  0.6576 -1.0925
  705MOL0     H97282   1.182   5.244   7.134  0.4268  0.3220  0.8869
  705MOL0     H97283   1.101   5.079   7.122  0.0176 -0.7042  0.0922
  705MOL0     H97284   1.220   5.202   7.375  1.9023 -1.3218 -0.8106
  705MOL0     H97285   1.098   5.072   7.359  1.2294  1.9236  3.6915
  705MOL0     H97286   0.847   5.398   7.339  0.0791  0.0151  2.7819
  705MOL0     H97287   1.462   4.696   7.267  0.5407 -0.3638 -0.0340
  705MOL0     H97288   1.493   4.426   7.478 -2.0335  2.7911  1.7446
  705MOL0     H97289   1.559   4.430   7.306  0.5169  0.8112 -0.7624
  705MOL0     H97290   1.561   4.572   7.416 -0.1391 -0.1847  0.8069
  706MOL0     O97291   5.414   4.165   2.964 -0.8578 -0.1498  0.9720
  706MOL0     C97292   5.458   4.146   2.843 -0.4736 -0.3317 -0.6437
  706MOL0     O97293   5.578   4.184   2.805  0.1077 -0.3837  0.6862
  706MOL0     C97294   5.619   4.138   2.672  0.0764 -0.1641 -0.2064
  706MOL0     C97295   5.603   4.007   2.637  0.2018 -0.5297  0.8362
  706MOL0     C97296   5.632   3.978   2.509  0.1064  0.1859 -0.0868
  706MOL0     C97297   5.671   4.073   2.415  0.4025  0.0500 -0.0569
  706MOL0     O97298   5.698   4.038   2.287 -0.5218 -0.3169  0.0723
  706MOL0     C97299   5.840   4.002   2.271 -0.3709 -0.8139  0.5193
  706MOL0     C97300   5.842   3.883   2.164 -0.4902  0.3081  0.0914
  706MOL0     C97301   5.982   3.829   2.147  0.2941 -0.5273  0.2770
  706MOL0     C97302   6.088   3.936   2.096  0.5290  0.8879 -0.6467
  706MOL0     C97303   6.209   3.870   2.022 -0.1744 -0.0973  0.3632
  706MOL0     C97304   6.270   3.955   1.895  0.1420 -0.0949  0.0323
  706MOL0     C97305   6.297   4.100   1.919  0.5858 -0.1849  0.7997
  706MOL0     C97306   6.359   4.153   1.786  0.5950  0.3497 -0.0771
  706MOL0     N97307   6.498   4.104   1.783  0.1001  0.0339 -0.0227
  706MOL0     C97308   6.529   4.006   1.700 -0.5946 -0.1878  0.0718
  706MOL0     C97309   6.654   3.980   1.731  0.6010 -0.2670  0.4248
  706MOL0     C97310   6.741   3.868   1.684  0.1072 -0.2003  0.6906
  706MOL0     C97311   6.656   3.765   1.605  1.0179  0.2613 -1.3168
  706MOL0     C97312   6.724   3.654   1.541  0.3928  0.9015 -0.1163
  706MOL0     C97313   6.824   3.573   1.628 -0.1321 -0.7330 -0.0218
  706MOL0     O97314   6.952   3.632   1.625  0.3931 -0.3207 -0.1996
  706MOL0     C97315   7.053   3.581   1.694 -0.2176 -0.4159  0.6079
  706MOL0     C97316   7.025   3.502   1.804  0.6039  0.0458 -0.3902
  706MOL0     C97317   7.133   3.436   1.872  0.3766  0.2724 -0.7878
  706MOL0     C97318   7.092   3.344   1.984  0.6598 -0.7606  1.2907
  706MOL0     C97319   7.260   3.456   1.828 -0.3017 -0.1856 -0.0579
  706MOL0     C97320   7.390   3.404   1.888  0.7841  0.0431 -0.9450
  706MOL0     O97321   7.513   3.407   1.823 -0.3544  0.1778  0.2321
  706MOL0     C97322   7.622   3.338   1.865 -0.3186 -0.2547  0.2252
  706MOL0     C97323   7.625   3.231   1.952  0.8941 -0.3160 -0.2557
  706MOL0     C97324   7.735   3.154   1.978 -0.1623 -0.7007  0.0687
  706MOL0     C97325   7.855   3.182   1.913 -0.1499  0.0502  0.2560
  706MOL0     O97326   7.974   3.106   1.931  0.7238 -0.5025  0.0732
  706MOL0     C97327   8.012   3.072   2.066 -0.3438 -1.0984 -0.1105
  706MOL0     C97328   8.162   3.058   2.068  0.1990 -1.0053  0.2899
  706MOL0     C97329   8.223   3.202   2.038 -0.0328 -0.5995  0.1997
  706MOL0     C97330   8.217   3.312   2.147 -0.5132  0.0712 -0.3005
  706MOL0     C97331   8.312   3.284   2.265  0.8457  0.1091 -0.8261
  706MOL0     C97332   8.286   3.377   2.385 -0.1706  0.0647 -0.7433
  706MOL0     C97333   8.259   3.522   2.339  0.0366 -0.4551 -0.1706
  706MOL0     C97334   8.223   3.620   2.449  0.2613  0.2491  0.4714
  706MOL0    Cl97335   8.371   3.647   2.547  0.1755 -0.1207 -0.4175
  706MOL0     C97336   7.860   3.278   1.814 -0.4321  1.0388  0.0795
  706MOL0     C97337   7.742   3.356   1.800 -0.6090 -0.1322  0.4518
  706MOL0     O97338   7.369   3.358   2.004 -0.7074 -0.2896 -0.1408
  706MOL0     C97339   7.293   3.538   1.718 -0.0440  1.0759  0.0431
  706MOL0     C97340   7.190   3.599   1.660 -0.9079 -1.2006 -0.4342
  706MOL0     N97341   6.698   4.058   1.837  1.0502  0.1165  0.0946
  706MOL0     N97342   6.603   4.137   1.868 -0.2263  0.9972 -0.3082
  706MOL0     C97343   5.671   4.208   2.454 -0.2925  0.7306 -0.0007
  706MOL0     C97344   5.645   4.244   2.579 -0.8964 -1.1002  0.3953
  706MOL0     C97345   5.346   4.124   2.753 -1.1591  0.7591 -0.6308
  706MOL0     C97346   5.331   4.220   2.652  0.2997  0.3758  0.3321
  706MOL0     C97347   5.241   4.205   2.544 -0.1077  0.5306 -0.2724
  706MOL0     C97348   5.159   4.096   2.539 -0.2482 -0.4669 -0.5386
  706MOL0     O97349   5.064   4.092   2.438  0.1237  0.1962 -0.4846
  706MOL0     C97350   4.999   3.973   2.396  0.5186 -0.2147  0.2609
  706MOL0     C97351   4.917   4.015   2.278 -0.1730  0.0350 -0.1903
  706MOL0     C97352   4.821   3.903   2.223  0.4583  0.2717  0.9067
  706MOL0     C97353   4.752   3.959   2.094  0.6716  0.5606  0.4082
  706MOL0     C97354   4.663   3.862   2.017  0.5401  0.9441 -0.7600
  706MOL0     C97355   4.588   3.787   1.961  0.0408  0.6107 -0.6763
  706MOL0     C97356   5.176   4.000   2.640 -1.1333  0.2262 -0.6966
  706MOL0     C97357   5.270   4.006   2.746  0.4322  0.6413  0.2036
  706MOL0     C97358   5.271   3.893   2.850  0.4028 -0.0267 -0.3135
  706MOL0     H97359   5.568   3.938   2.713  2.0475 -2.0673  0.3660
  706MOL0     H97360   5.619   3.875   2.479 -2.7596  0.0998  1.1033
  706MOL0     H97361   5.887   3.974   2.366 -0.2585  0.5541  0.8893
  706MOL0     H97362   5.895   4.086   2.227  0.3838 -0.6814  1.6735
  706MOL0     H97363   5.772   3.800   2.175  0.3547 -0.3471  0.6228
  706MOL0     H97364   5.809   3.923   2.068 -1.4206 -0.8151 -0.0716
  706MOL0     H97365   6.016   3.791   2.245  2.4365  0.2939 -0.0787
  706MOL0     H97366   5.974   3.743   2.080 -0.1388 -0.9636  0.8735
  706MOL0     H97367   6.027   4.000   2.032 -0.4913  1.3237  0.6932
  706MOL0     H97368   6.124   4.001   2.177 -2.0984  1.8492 -0.1315
  706MOL0     H97369   6.185   3.778   1.968  1.4392  0.2409 -1.0151
  706MOL0     H97370   6.286   3.843   2.094 -1.3099 -0.0836  1.6274
  706MOL0     H97371   6.359   3.905   1.858 -0.1562  0.8276 -2.0411
  706MOL0     H97372   6.207   3.946   1.806 -1.2172  1.2689  0.8165
  706MOL0     H97373   6.365   4.117   2.003  1.5025  0.0502  0.0319
  706MOL0     H97374   6.197   4.139   1.940  0.4697  1.0960 -1.7322
  706MOL0     H97375   6.311   4.122   1.693  2.1221 -1.4751 -0.3288
  706MOL0     H97376   6.376   4.261   1.791  0.8346  0.3150 -0.0968
  706MOL0     H97377   6.476   3.970   1.613  2.0678 -1.9819 -0.9000
  706MOL0     H97378   6.781   3.829   1.777 -3.7155  0.8416  3.0069
  706MOL0     H97379   6.826   3.905   1.627  1.0900 -2.0452  0.9137
  706MOL0     H97380   6.584   3.723   1.676  1.6542  0.2342 -0.6840
  706MOL0     H97381   6.601   3.811   1.523 -1.8171 -1.0859 -0.3052
  706MOL0     H97382   6.634   3.599   1.513  0.0650  0.5092  1.5765
  706MOL0     H97383   6.776   3.690   1.452  3.8552  1.9426  2.0919
  706MOL0     H97384   6.781   3.547   1.725 -1.9778 -0.0344 -0.6071
  706MOL0     H97385   6.819   3.476   1.577 -0.3538  0.0511 -1.5457
  706MOL0     H97386   6.927   3.487   1.849 -0.0288  0.0801 -1.6942
  706MOL0     H97387   6.986   3.319   1.984  1.3094 -4.0003  1.7998
  706MOL0     H97388   7.106   3.388   2.084  1.2334 -2.4844  2.0141
  706MOL0     H97389   7.159   3.259   1.967  1.0194  0.1478 -2.7915
  706MOL0     H97390   7.526   3.204   1.986  0.1452  0.4030 -1.7666
  706MOL0     H97391   7.732   3.055   2.024 -2.2096 -2.0128 -2.6375
  706MOL0     H97392   7.980   3.155   2.130  1.7185 -1.3323  1.3063
  706MOL0     H97393   7.968   2.978   2.100 -0.9627 -0.9675 -0.5294
  706MOL0     H97394   8.199   3.018   2.163  1.4392 -0.2216  0.1595
  706MOL0     H97395   8.204   3.002   1.984  2.1457  0.8508 -0.0763
  706MOL0     H97396   8.176   3.256   1.955 -1.7935  1.0670  2.1454
  706MOL0     H97397   8.325   3.181   2.006 -0.7665 -1.5810 -1.6275
  706MOL0     H97398   8.114   3.324   2.181  0.1148  1.9453  1.1291
  706MOL0     H97399   8.255   3.402   2.095  2.9110 -1.8721 -1.5267
  706MOL0     H97400   8.296   3.182   2.301  1.4823 -0.0712 -1.0315
  706MOL0     H97401   8.412   3.294   2.221  0.1493  1.5812 -2.1888
  706MOL0     H97402   8.372   3.375   2.453 -0.3746 -2.0173 -0.4921
  706MOL0     H97403   8.208   3.326   2.442 -0.4445  1.8059  0.5499
  706MOL0     H97404   8.174   3.516   2.270 -0.0828  1.1560 -0.2114
  706MOL0     H97405   8.332   3.579   2.282 -3.5552  1.5956 -3.2160
  706MOL0     H97406   8.145   3.566   2.503  0.5697  0.5305  1.2196
  706MOL0     H97407   8.183   3.709   2.401  0.5777  0.6153  0.8751
  706MOL0     H97408   7.948   3.293   1.753  0.0250  0.9108  0.6915
  706MOL0     H97409   7.752   3.434   1.725 -1.7665 -1.0118 -0.6742
  706MOL0     H97410   7.395   3.565   1.694 -0.0923  1.3135  0.1084
  706MOL0     H97411   7.214   3.674   1.585 -0.9459 -1.1153 -0.3622
  706MOL0     H97412   5.689   4.282   2.376  1.6393  1.4639  1.0772
  706MOL0     H97413   5.642   4.349   2.608  0.3190 -0.5525 -1.3630
  706MOL0     H97414   5.391   4.309   2.669  0.6892 -0.1137  1.6050
  706MOL0     H97415   5.232   4.283   2.468  0.1865  0.2318 -0.6185
  706MOL0     H97416   5.065   3.891   2.367  0.7780  0.1905 -0.2963
  706MOL0     H97417   4.930   3.935   2.472 -1.5054 -0.4566 -1.5973
  706MOL0     H97418   4.992   4.042   2.203  1.1016 -3.5026 -0.3899
  706MOL0     H97419   4.867   4.109   2.303 -3.0000 -1.1096 -1.2068
  706MOL0     H97420   4.878   3.813   2.198 -2.4562 -1.2265 -1.0568
  706MOL0     H97421   4.753   3.862   2.298 -0.1235 -0.0562  0.2156
  706MOL0     H97422   4.823   4.002   2.022  0.7971  1.8698  1.2898
  706MOL0     H97423   4.687   4.034   2.139 -2.0746 -0.1647 -2.0158
  706MOL0     H97424   4.517   3.725   1.911 -0.6840 -0.2958  1.3809
  706MOL0     H97425   5.124   3.908   2.615 -2.2741  0.5670  0.3179
  706MOL0     H97426   5.362   3.832   2.846 -0.0254 -0.7434  0.5087
  706MOL0     H97427   5.271   3.943   2.947 -0.3604 -2.2835  0.9302
  706MOL0     H97428   5.190   3.820   2.852  1.8741 -1.7959 -1.3113
  707MOL0     O97429   1.048   8.833   0.979 -0.2902  0.7580 -0.4039
  707MOL0     C97430   1.009   8.825   0.862 -0.0839 -0.6746 -0.3848
  707MOL0     O97431   1.020   8.723   0.779  0.2364  0.7086 -0.5998
  707MOL0     C97432   1.095   8.608   0.813  0.0580  0.1779 -0.8670
  707MOL0     C97433   1.180   8.571   0.703  0.4679 -0.3941 -0.0823
  707MOL0     C97434   1.279   8.477   0.726  0.1610 -0.1461  1.2243
  707MOL0     C97435   1.282   8.400   0.846  0.4371 -1.1364 -0.5010
  707MOL0     O97436   1.378   8.305   0.852 -0.1520  0.2228  0.1485
  707MOL0     C97437   1.391   8.224   0.966 -0.7516  0.5209 -0.5352
  707MOL0     C97438   1.521   8.132   0.970  0.0620  0.3836  0.3519
  707MOL0     C97439   1.550   8.045   0.843  0.5471 -0.2621 -0.7849
  707MOL0     C97440   1.430   7.954   0.795  0.1076 -0.3551 -0.4424
  707MOL0     C97441   1.396   7.853   0.905 -0.6307  0.4189 -1.1820
  707MOL0     C97442   1.292   7.756   0.860  0.2779  0.0334  0.1596
  707MOL0     C97443   1.355   7.651   0.765  0.7914  1.0509  0.9125
  707MOL0     C97444   1.265   7.525   0.758 -0.0714  0.3526  0.4855
  707MOL0     N97445   1.263   7.464   0.888  0.3026 -0.0094 -0.1218
  707MOL0     C97446   1.357   7.374   0.924 -0.1167 -0.2342  0.1449
  707MOL0     C97447   1.337   7.339   1.053  0.7989  0.1079 -0.5071
  707MOL0     C97448   1.419   7.242   1.134 -0.2808 -0.3302  0.7286
  707MOL0     C97449   1.506   7.296   1.249 -1.0716 -0.0184  0.4194
  707MOL0     C97450   1.604   7.192   1.303  0.6502 -0.0922 -0.2419
  707MOL0     C97451   1.666   7.237   1.442 -0.4417 -0.0488  0.4043
  707MOL0     O97452   1.712   7.370   1.416  0.6831 -0.2889 -0.0404
  707MOL0     C97453   1.779   7.437   1.512 -0.2262 -0.4998 -0.3159
  707MOL0     C97454   1.846   7.560   1.468  0.3671 -0.1210 -1.0606
  707MOL0     C97455   1.904   7.656   1.546 -0.6785  0.3455 -0.2891
  707MOL0     C97456   1.990   7.767   1.477  0.6468  0.6024 -0.8360
  707MOL0     C97457   1.912   7.623   1.687 -0.3034 -0.4811 -0.2686
  707MOL0     C97458   1.990   7.708   1.785  0.5872 -0.7965  0.3856
  707MOL0     O97459   2.022   7.658   1.904  0.5614  1.0773  0.0475
  707MOL0     C97460   2.055   7.725   2.020  0.3110  0.5217  0.7313
  707MOL0     C97461   2.157   7.669   2.104 -0.0244 -0.0512 -0.4247
  707MOL0     C97462   2.189   7.726   2.228 -0.0736  0.4493  0.7292
  707MOL0     C97463   2.116   7.830   2.284 -0.1477 -1.0249  0.4279
  707MOL0     O97464   2.146   7.888   2.406  0.2176  0.5455  0.6591
  707MOL0     C97465   2.207   7.796   2.504 -0.1523 -0.0741  0.0190
  707MOL0     C97466   2.218   7.874   2.638  0.0515  1.0701 -0.4129
  707MOL0     C97467   2.306   7.808   2.744  0.4865 -0.1930  1.1033
  707MOL0     C97468   2.455   7.808   2.694 -0.5208  0.7117  0.0347
  707MOL0     C97469   2.526   7.709   2.783 -0.2119  0.5555 -0.2860
  707MOL0     C97470   2.531   7.568   2.723  0.6165  0.0775  0.1177
  707MOL0     C97471   2.626   7.478   2.803  0.2170  0.1297 -0.8532
  707MOL0     C97472   2.581   7.334   2.791 -1.0784  0.2562  0.4903
  707MOL0    Cl97473   2.490   7.301   2.942  0.7350  0.0718 -0.1706
  707MOL0     C97474   2.003   7.877   2.206 -0.2724  0.2653 -0.7571
  707MOL0     C97475   1.980   7.831   2.076 -0.3214 -0.4387 -0.2813
  707MOL0     O97476   2.023   7.819   1.751 -0.4037 -0.2935  0.0166
  707MOL0     C97477   1.847   7.507   1.736 -0.4156 -0.1141 -0.7888
  707MOL0     C97478   1.781   7.421   1.654 -0.2756  0.3352  0.5065
  707MOL0     N97479   1.232   7.420   1.097  0.1362 -0.0761 -0.2590
  707MOL0     N97480   1.191   7.490   1.002  0.5828 -0.2850 -1.6211
  707MOL0     C97481   1.187   8.438   0.948 -0.9643  0.7650 -0.6869
  707MOL0     C97482   1.104   8.545   0.936  0.2479  0.0589 -0.4113
  707MOL0     C97483   0.946   8.944   0.808  0.5569 -0.0996  0.0204
  707MOL0     C97484   0.878   9.026   0.904 -1.0180  0.1709 -0.4182
  707MOL0     C97485   0.802   9.144   0.852 -0.1643  0.9792  0.0649
  707MOL0     C97486   0.830   9.190   0.724 -0.1215 -0.0261 -0.6771
  707MOL0     O97487   0.779   9.313   0.683  0.6872 -0.1297  0.0878
  707MOL0     C97488   0.880   9.407   0.699  1.4900  0.3779  0.5640
  707MOL0     C97489   0.862   9.488   0.824 -0.1122  1.0145 -0.2177
  707MOL0     C97490   0.718   9.551   0.828 -0.6656 -0.2553 -0.1486
  707MOL0     C97491   0.669   9.617   0.690 -0.7529 -0.6959 -0.5790
  707MOL0     C97492   0.776   9.707   0.655  0.0169 -0.4991 -0.7454
  707MOL0     C97493   0.865   9.783   0.638 -0.1046 -0.7093  0.4135
  707MOL0     C97494   0.906   9.117   0.638  0.7749  0.4330 -0.6107
  707MOL0     C97495   0.958   8.986   0.676  0.4665 -0.1597 -0.2058
  707MOL0     C97496   1.020   8.915   0.563  0.5725 -0.2480 -0.9488
  707MOL0     H97497   1.168   8.620   0.607  0.9362  2.0778  1.0535
  707MOL0     H97498   1.359   8.462   0.653  1.0739 -2.6792  2.6253
  707MOL0     H97499   1.311   8.151   0.983  0.7504 -1.0753  0.0245
  707MOL0     H97500   1.388   8.283   1.058 -1.7237  0.0174 -0.2350
  707MOL0     H97501   1.609   8.193   0.992 -0.1936  0.4507  1.2396
  707MOL0     H97502   1.506   8.057   1.048  0.4066 -1.9384 -1.6973
  707MOL0     H97503   1.577   8.111   0.760  2.1172 -0.7270 -0.6785
  707MOL0     H97504   1.643   7.989   0.855 -1.1904 -2.7661  3.0773
  707MOL0     H97505   1.338   8.004   0.764 -0.9439 -3.0036 -1.9562
  707MOL0     H97506   1.469   7.900   0.709  1.6976 -0.9446  0.6124
  707MOL0     H97507   1.352   7.908   0.990  1.0020 -1.2841  0.8586
  707MOL0     H97508   1.485   7.800   0.938 -0.3321  2.8373  2.5311
  707MOL0     H97509   1.240   7.717   0.948 -0.8872 -1.9169 -1.3088
  707MOL0     H97510   1.218   7.823   0.815  0.2910  1.3795  2.0084
  707MOL0     H97511   1.457   7.628   0.795  0.6866  0.6136  0.9382
  707MOL0     H97512   1.357   7.693   0.664 -1.6942 -0.8929 -0.0718
  707MOL0     H97513   1.167   7.561   0.725 -0.3139 -0.0247  0.7972
  707MOL0     H97514   1.305   7.451   0.688 -0.7410 -1.2675  1.7534
  707MOL0     H97515   1.437   7.343   0.858  0.5385  1.2656  0.2081
  707MOL0     H97516   1.489   7.205   1.058  1.8208  4.8532 -0.2649
  707MOL0     H97517   1.357   7.162   1.177  1.0358 -1.4477  0.6104
  707MOL0     H97518   1.556   7.384   1.210 -0.6299 -0.8634 -0.9945
  707MOL0     H97519   1.443   7.340   1.327  0.5697  1.3141  1.0247
  707MOL0     H97520   1.563   7.091   1.313  1.1749 -0.3560 -0.6783
  707MOL0     H97521   1.669   7.187   1.215 -1.9782  0.6095 -2.3681
  707MOL0     H97522   1.597   7.229   1.526 -1.1564 -4.6102 -0.3774
  707MOL0     H97523   1.746   7.164   1.460  1.3033  1.3716 -1.0980
  707MOL0     H97524   1.839   7.590   1.364  1.7469  1.8341 -0.6639
  707MOL0     H97525   2.096   7.755   1.501  0.6927  1.7171 -0.4674
  707MOL0     H97526   1.955   7.863   1.514 -3.8213 -0.9153 -0.4315
  707MOL0     H97527   1.984   7.756   1.368  2.4981  2.2558 -1.1549
  707MOL0     H97528   2.195   7.569   2.086  2.8052  0.5156  1.7197
  707MOL0     H97529   2.256   7.662   2.284  0.9816 -2.0714 -3.0499
  707MOL0     H97530   2.140   7.712   2.526 -0.4885 -0.0319 -0.7992
  707MOL0     H97531   2.303   7.749   2.479 -0.1892 -0.7676  1.0901
  707MOL0     H97532   2.266   7.969   2.611  1.1494  0.2363 -1.4287
  707MOL0     H97533   2.117   7.880   2.681  0.5698 -0.3887  1.1042
  707MOL0     H97534   2.262   7.709   2.761 -0.1627 -0.6213 -2.3051
  707MOL0     H97535   2.307   7.864   2.838 -4.2433  1.6843  0.3106
  707MOL0     H97536   2.499   7.907   2.703 -2.3673  1.5522  0.4018
  707MOL0     H97537   2.474   7.787   2.588 -2.0615  3.2521 -0.8283
  707MOL0     H97538   2.627   7.750   2.790 -0.3225  0.6679  0.7542
  707MOL0     H97539   2.472   7.728   2.876 -1.5215  0.5647 -1.0150
  707MOL0     H97540   2.567   7.569   2.620  0.4655  4.1315 -0.0421
  707MOL0     H97541   2.428   7.533   2.719  0.2736  1.1265 -3.4967
  707MOL0     H97542   2.611   7.519   2.903 -0.5280  2.3713 -1.8221
  707MOL0     H97543   2.731   7.491   2.774  1.3223 -2.3937  1.5137
  707MOL0     H97544   2.660   7.259   2.790  1.8368  2.7303  5.4188
  707MOL0     H97545   2.527   7.320   2.698  1.0499  0.5601 -0.8516
  707MOL0     H97546   1.940   7.945   2.261  2.0817  0.1037  2.4352
  707MOL0     H97547   1.880   7.860   2.043 -1.4050 -1.7152  1.6964
  707MOL0     H97548   1.824   7.484   1.839 -2.8900  1.8025 -0.8011
  707MOL0     H97549   1.753   7.326   1.698 -2.6175  0.5301 -0.4179
  707MOL0     H97550   1.192   8.394   1.047  2.2724  0.6732 -0.7780
  707MOL0     H97551   1.045   8.590   1.016  2.2856  0.4588  0.9292
  707MOL0     H97552   0.882   9.002   1.010 -0.4012  2.7420  0.2082
  707MOL0     H97553   0.741   9.198   0.923  0.1620  0.0168  1.1221
  707MOL0     H97554   0.975   9.354   0.713  1.4623 -0.6256 -2.3371
  707MOL0     H97555   0.895   9.480   0.618  1.0263 -1.2139 -1.0155
  707MOL0     H97556   0.940   9.565   0.826 -1.0026  1.9891 -1.5096
  707MOL0     H97557   0.870   9.428   0.915  0.1418  1.5777  0.1361
  707MOL0     H97558   0.642   9.477   0.854 -0.4858  0.9057  4.4256
  707MOL0     H97559   0.718   9.616   0.916  3.7169 -0.6792  0.3715
  707MOL0     H97560   0.579   9.677   0.712 -1.1617 -1.7010  0.6325
  707MOL0     H97561   0.652   9.539   0.616  0.7845 -0.3634 -1.3165
  707MOL0     H97562   0.949   9.849   0.624 -0.3508 -0.7724 -1.6631
  707MOL0     H97563   0.919   9.163   0.541  0.2489 -0.5947 -1.1836
  707MOL0     H97564   0.946   8.835   0.549 -1.1537  0.7532  1.6403
  707MOL0     H97565   1.038   8.975   0.473 -1.3681  2.6621  0.4696
  707MOL0     H97566   1.118   8.879   0.597  1.9921  2.7174 -1.6433
  708MOL0     O97567   4.710   1.485   9.163 -0.0846  0.1403  0.6599
  708MOL0     C97568   4.661   1.401   9.085 -0.2359 -0.4157 -0.0523
  708MOL0     O97569   4.559   1.416   9.000  0.1978 -0.2542  0.4956
  708MOL0     C97570   4.511   1.549   8.977  0.8602 -0.4602  0.7282
  708MOL0     C97571   4.368   1.567   8.997 -0.0724 -0.7231 -0.4719
  708MOL0     C97572   4.316   1.698   8.986 -0.2264  0.1732  0.1400
  708MOL0     C97573   4.392   1.810   8.943  0.0803  0.2365 -0.3960
  708MOL0     O97574   4.314   1.923   8.929 -0.4605 -0.0890  0.8388
  708MOL0     C97575   4.396   2.040   8.970  0.6980  0.2094  0.6914
  708MOL0     C97576   4.464   2.037   9.114  0.2584  0.1125  0.9294
  708MOL0     C97577   4.370   2.064   9.232  0.6331 -0.3132 -0.5163
  708MOL0     C97578   4.448   2.074   9.361 -0.3691 -0.0468  0.2705
  708MOL0     C97579   4.352   2.051   9.477 -0.5659 -0.8351  0.2190
  708MOL0     C97580   4.435   2.027   9.603  0.1050 -1.2118 -0.4126
  708MOL0     C97581   4.356   1.972   9.717  0.4790  0.0810 -0.7182
  708MOL0     C97582   4.220   2.043   9.738  0.6156 -0.1462 -0.0973
  708MOL0     N97583   4.137   1.997   9.854  0.0470 -0.4895 -0.7228
  708MOL0     C97584   4.069   1.875   9.870 -0.1462 -1.0211  1.0007
  708MOL0     C97585   4.009   1.876   9.990  0.4111  0.2443  0.8207
  708MOL0     C97586   3.918   1.767  10.057  0.2248  0.4943  0.3463
  708MOL0     C97587   3.782   1.753   9.983 -0.2150  0.4593 -0.3397
  708MOL0     C97588   3.681   1.868   9.997 -0.4705  0.2955  0.6229
  708MOL0     C97589   3.551   1.851   9.918 -0.1069  0.6102  0.6045
  708MOL0     O97590   3.481   1.740   9.974 -0.0666 -0.4310 -0.2231
  708MOL0     C97591   3.377   1.688   9.908  0.2616  0.7965  0.0219
  708MOL0     C97592   3.324   1.566   9.949 -0.4194 -0.3624  0.3092
  708MOL0     C97593   3.215   1.504   9.883 -0.5081 -0.0669  0.4836
  708MOL0     C97594   3.162   1.368   9.938 -0.0999 -0.4404  0.0456
  708MOL0     C97595   3.143   1.574   9.777  0.9242 -0.8303  0.2983
  708MOL0     C97596   3.029   1.521   9.692  0.0934  0.7543  0.7759
  708MOL0     O97597   2.999   1.592   9.587  0.1596 -0.6111  0.4045
  708MOL0     C97598   2.895   1.560   9.501 -0.1722  0.5529 -0.5227
  708MOL0     C97599   2.814   1.667   9.464 -0.9417  0.0208  0.5636
  708MOL0     C97600   2.695   1.654   9.384 -1.8597  0.2831 -0.4924
  708MOL0     C97601   2.677   1.524   9.328 -0.5820 -0.0451  0.3028
  708MOL0     O97602   2.580   1.517   9.226 -0.4950  0.6585 -1.2835
  708MOL0     C97603   2.462   1.579   9.264  0.0130 -0.2531  0.1176
  708MOL0     C97604   2.445   1.682   9.148  0.3823 -0.2492 -0.2904
  708MOL0     C97605   2.319   1.766   9.163  0.6584 -0.4287  0.2451
  708MOL0     C97606   2.339   1.896   9.253 -0.3608  0.0204 -0.6777
  708MOL0     C97607   2.225   1.976   9.309 -0.8208 -1.0717  0.5429
  708MOL0     C97608   2.270   2.120   9.358 -0.8182  0.4134  0.2251
  708MOL0     C97609   2.324   2.126   9.500  0.4808 -0.2464 -0.1900
  708MOL0     C97610   2.357   2.271   9.549 -0.2716 -0.2994  0.0393
  708MOL0    Cl97611   2.414   2.288   9.713 -0.2026 -0.0158 -0.2632
  708MOL0     C97612   2.743   1.411   9.369 -0.1634  0.3151  0.1835
  708MOL0     C97613   2.851   1.437   9.453 -0.6071  1.2419  0.1499
  708MOL0     O97614   2.974   1.418   9.735  0.3435  0.6603 -0.5250
  708MOL0     C97615   3.199   1.703   9.744  0.5406 -0.1406 -0.5087
  708MOL0     C97616   3.318   1.751   9.796  0.6875 -0.2659 -1.0636
  708MOL0     N97617   4.026   2.001  10.042 -0.0809  0.9194 -0.1622
  708MOL0     N97618   4.112   2.064   9.968 -1.0036 -0.3191  0.4590
  708MOL0     C97619   4.532   1.789   8.918 -0.0477  0.0791 -0.0787
  708MOL0     C97620   4.592   1.662   8.937  0.3743  0.4709 -0.2427
  708MOL0     C97621   4.736   1.274   9.092 -0.3236 -0.0235 -0.3069
  708MOL0     C97622   4.740   1.183   8.983  0.2575  0.6110  0.5076
  708MOL0     C97623   4.784   1.057   8.988 -0.0770  0.7510  0.1017
  708MOL0     C97624   4.843   1.005   9.102  1.2404  0.3926 -1.4616
  708MOL0     O97625   4.876   0.875   9.130 -1.0351  0.4637 -0.5310
  708MOL0     C97626   4.872   0.770   9.033  0.0050  0.0033 -0.1847
  708MOL0     C97627   4.960   0.647   9.088  0.2927 -0.5052 -0.4180
  708MOL0     C97628   4.877   0.542   9.161 -0.5141 -0.7371  0.1782
  708MOL0     C97629   4.755   0.483   9.098  0.8169  0.5873 -0.2367
  708MOL0     C97630   4.680   0.389   9.189 -0.2466 -1.0715  0.1399
  708MOL0     C97631   4.608   0.342   9.274  0.1143 -0.0533 -0.2931
  708MOL0     C97632   4.855   1.099   9.204 -0.6959 -0.1437  0.0852
  708MOL0     C97633   4.808   1.239   9.209 -0.5502  0.2663 -1.2616
  708MOL0     C97634   4.837   1.318   9.340  1.5536 -0.3583  0.0273
  708MOL0     H97635   4.303   1.481   9.011 -0.7982  0.0167  0.9290
  708MOL0     H97636   4.209   1.709   9.001 -0.2949  1.0901 -0.8618
  708MOL0     H97637   4.323   2.121   8.960  1.0396  0.5329  0.7744
  708MOL0     H97638   4.480   2.066   8.905  1.1321  1.4812  1.7245
  708MOL0     H97639   4.497   1.934   9.131  0.7900  0.2933  1.0001
  708MOL0     H97640   4.542   2.112   9.128 -1.0512  1.4247  1.4923
  708MOL0     H97641   4.305   2.152   9.225  0.1957 -0.4266  1.5338
  708MOL0     H97642   4.304   1.978   9.242 -1.3302  1.0132 -1.4674
  708MOL0     H97643   4.525   1.996   9.365 -2.0553 -1.7242  2.6882
  708MOL0     H97644   4.501   2.168   9.378  2.1433 -1.5281  1.1009
  708MOL0     H97645   4.289   1.962   9.465 -2.2409  0.1155  1.4839
  708MOL0     H97646   4.288   2.140   9.484  0.7164  0.1512 -0.1450
  708MOL0     H97647   4.530   1.976   9.586  1.3298  0.3819  1.2414
  708MOL0     H97648   4.469   2.126   9.634  1.4498 -1.5092 -0.8580
  708MOL0     H97649   4.411   1.979   9.811  2.2212  0.1711 -1.7016
  708MOL0     H97650   4.339   1.865   9.703  2.0688 -0.3131  0.1542
  708MOL0     H97651   4.247   2.149   9.746  0.2131 -0.0566  0.0802
  708MOL0     H97652   4.157   2.014   9.653 -2.8278  3.5461  0.8834
  708MOL0     H97653   4.071   1.780   9.816  2.5261 -1.4792  1.7384
  708MOL0     H97654   3.917   1.802  10.161  0.0139 -1.7894  1.1653
  708MOL0     H97655   3.966   1.669  10.054 -1.7802 -0.5579  0.9294
  708MOL0     H97656   3.808   1.752   9.877 -0.1170 -0.0184 -0.3133
  708MOL0     H97657   3.746   1.655  10.016 -0.6514  0.0746 -1.8788
  708MOL0     H97658   3.655   1.878  10.103 -1.2955  0.6184  0.4046
  708MOL0     H97659   3.740   1.959   9.981  1.8396 -0.3222  4.3868
  708MOL0     H97660   3.492   1.943   9.913 -2.4741 -0.8487 -0.1058
  708MOL0     H97661   3.572   1.836   9.812 -0.7525  0.2056  0.5271
  708MOL0     H97662   3.376   1.513  10.028 -1.3004 -1.4573  0.1812
  708MOL0     H97663   3.056   1.366   9.967  0.1192  3.3021  1.6306
  708MOL0     H97664   3.216   1.340  10.028  0.5382  0.3346 -0.0861
  708MOL0     H97665   3.183   1.295   9.859 -0.2514 -0.5431  0.0987
  708MOL0     H97666   2.830   1.771   9.490  1.1070  0.1801 -1.0957
  708MOL0     H97667   2.645   1.749   9.369 -2.3671  0.0429 -0.3580
  708MOL0     H97668   2.380   1.509   9.246 -0.1507 -0.1523  0.4444
  708MOL0     H97669   2.449   1.627   9.362  1.5545  0.4351  0.0166
  708MOL0     H97670   2.540   1.736   9.149  0.7616 -0.9012  1.1651
  708MOL0     H97671   2.439   1.628   9.053 -0.0997  0.7489 -0.8444
  708MOL0     H97672   2.246   1.703   9.216 -0.3564  0.7988  0.3540
  708MOL0     H97673   2.268   1.775   9.066  0.2183 -0.0525  0.5118
  708MOL0     H97674   2.399   1.968   9.195  0.5423  0.7432  1.0657
  708MOL0     H97675   2.409   1.871   9.334 -2.2667 -1.4922  0.5892
  708MOL0     H97676   2.154   1.991   9.227 -0.4131 -2.5895 -0.1098
  708MOL0     H97677   2.176   1.912   9.383  1.2908 -2.6184  0.6630
  708MOL0     H97678   2.185   2.189   9.351 -0.9007  0.2236 -0.9296
  708MOL0     H97679   2.347   2.156   9.288 -3.0793 -1.2800 -3.4721
  708MOL0     H97680   2.417   2.069   9.508  0.3716 -0.1691  2.9088
  708MOL0     H97681   2.251   2.091   9.574  2.9064  1.1143  3.0631
  708MOL0     H97682   2.273   2.339   9.530 -0.7237 -0.0111  2.7386
  708MOL0     H97683   2.443   2.297   9.487 -1.1477 -4.4997 -3.4427
  708MOL0     H97684   2.720   1.310   9.337  0.6173 -0.5138  2.0700
  708MOL0     H97685   2.916   1.352   9.476  2.2444  2.9375 -1.0920
  708MOL0     H97686   3.147   1.769   9.675  1.3441  2.0574  0.8751
  708MOL0     H97687   3.350   1.844   9.751  0.0388 -0.3672 -1.7525
  708MOL0     H97688   4.595   1.867   8.877 -1.2130  0.6335 -0.8818
  708MOL0     H97689   4.695   1.636   8.917 -0.4353 -1.8806 -1.7116
  708MOL0     H97690   4.707   1.212   8.884 -3.9429 -0.8378  1.2768
  708MOL0     H97691   4.758   0.998   8.900 -0.4176  0.1928  0.5674
  708MOL0     H97692   4.767   0.739   9.028 -0.5641  1.9115 -1.1451
  708MOL0     H97693   4.912   0.806   8.938  1.1393  0.0767  0.3052
  708MOL0     H97694   5.025   0.691   9.165 -1.3924  1.9371 -0.2913
  708MOL0     H97695   5.024   0.612   9.006  0.2154 -4.5937  0.9976
  708MOL0     H97696   4.943   0.461   9.193  0.0710 -0.4258 -0.2043
  708MOL0     H97697   4.845   0.589   9.255  2.7873  0.2061  0.9767
  708MOL0     H97698   4.789   0.439   9.004 -1.1149  2.1990 -1.7934
  708MOL0     H97699   4.689   0.561   9.057 -0.3229  0.2540  0.9086
  708MOL0     H97700   4.562   0.283   9.351  1.5848  1.7855  2.1241
  708MOL0     H97701   4.910   1.064   9.291  0.8281  0.2381 -0.6878
  708MOL0     H97702   4.869   1.256   9.424 -3.0549  2.2948  4.3149
  708MOL0     H97703   4.917   1.389   9.319  1.9321  0.3424  3.2984
  708MOL0     H97704   4.755   1.379   9.380  1.2613 -1.0390  0.4970
  709MOL0     O97705   2.606   9.787   3.951  0.2305 -0.0450  0.9717
  709MOL0     C97706   2.675   9.883   3.919  0.1673  0.2788 -0.5465
  709MOL0     O97707   2.694  10.003   3.986  0.5754  0.1684 -0.2535
  709MOL0     C97708   2.662  10.031   4.116 -0.4991  0.5455  0.2160
  709MOL0     C97709   2.715  10.147   4.184  0.1457 -0.2518 -0.6626
  709MOL0     C97710   2.680  10.177   4.321 -0.5613 -0.6444  0.1937
  709MOL0     C97711   2.590  10.093   4.391 -0.8153  1.0528 -0.0371
  709MOL0     O97712   2.573  10.098   4.532 -0.4430 -0.4979  0.9148
  709MOL0     C97713   2.581  10.237   4.591  0.3191 -0.4180  0.6370
  709MOL0     C97714   2.546  10.217   4.735  0.1581  0.3167 -0.2040
  709MOL0     C97715   2.551  10.354   4.798 -0.1336 -0.6700  0.3372
  709MOL0     C97716   2.478  10.361   4.936 -0.1823  0.5198  0.2749
  709MOL0     C97717   2.503  10.495   5.012 -0.6977  0.7890  0.9452
  709MOL0     C97718   2.592  10.483   5.129  0.1132 -0.0112 -0.1317
  709MOL0     C97719   2.618  10.625   5.205  0.8246  0.3527  1.2763
  709MOL0     C97720   2.695  10.605   5.333 -0.3328 -0.6981 -1.3563
  709MOL0     N97721   2.629  10.556   5.449  0.0697 -0.3692  0.1559
  709MOL0     C97722   2.515  10.600   5.501  0.5140 -1.2722  0.6358
  709MOL0     C97723   2.484  10.523   5.605 -0.9084 -1.0292 -0.0411
  709MOL0     C97724   2.363  10.528   5.698 -0.1008 -0.7015 -0.1123
  709MOL0     C97725   2.333  10.664   5.745  0.0783 -0.6759  0.0314
  709MOL0     C97726   2.440  10.702   5.845  0.0134 -0.3964 -0.5297
  709MOL0     C97727   2.405  10.793   5.958  1.4152 -0.0275 -1.0250
  709MOL0     O97728   2.321  10.719   6.054  0.0975  0.5669  0.4309
  709MOL0     C97729   2.297  10.789   6.174 -0.2615  1.5655  0.2197
  709MOL0     C97730   2.215  10.716   6.259  0.3182  0.4346 -0.0871
  709MOL0     C97731   2.205  10.761   6.395 -0.3547  0.3079 -0.0720
  709MOL0     C97732   2.136  10.658   6.479 -0.1300 -0.9228 -0.9740
  709MOL0     C97733   2.239  10.888   6.438  0.3027 -1.0173  0.0415
  709MOL0     C97734   2.217  10.937   6.569  0.7355 -0.3625 -0.3364
  709MOL0     O97735   2.321  11.000   6.631  0.5333  0.2448  0.1909
  709MOL0     C97736   2.305  11.031   6.770  0.1787  0.3394  0.3098
  709MOL0     C97737   2.217  11.138   6.812  1.3585  0.1858 -0.8869
  709MOL0     C97738   2.201  11.179   6.941  0.4489  0.0067 -0.3828
  709MOL0     C97739   2.282  11.128   7.034  0.2825  0.9215 -0.0601
  709MOL0     O97740   2.280  11.155   7.163 -0.9603  0.7367 -0.0460
  709MOL0     C97741   2.254  11.052   7.257  0.6333  0.4311  0.4531
  709MOL0     C97742   2.370  10.995   7.327 -0.9193 -0.2922 -0.0367
  709MOL0     C97743   2.395  11.032   7.481 -0.2606  0.3117  0.3035
  709MOL0     C97744   2.374  11.172   7.511 -0.5732 -0.5206 -0.0469
  709MOL0     C97745   2.416  11.214   7.657 -0.2863 -0.1744 -0.4807
  709MOL0     C97746   2.563  11.209   7.689 -0.7862  0.9388 -0.0822
  709MOL0     C97747   2.605  11.263   7.829 -0.4058 -0.4008  0.0265
  709MOL0     C97748   2.748  11.289   7.842 -0.3306  0.0399  0.1895
  709MOL0    Cl97749   2.798  11.354   8.002  0.6642 -0.3435 -0.1698
  709MOL0     C97750   2.371  11.021   6.996  1.0686 -0.0032  0.5832
  709MOL0     C97751   2.393  10.988   6.863 -0.3255 -0.3981 -1.2035
  709MOL0     O97752   2.099  10.934   6.610 -0.3564 -0.3563 -0.5343
  709MOL0     C97753   2.319  10.957   6.348  0.4491  0.4611 -0.1520
  709MOL0     C97754   2.343  10.909   6.221  0.4686 -0.9463  0.7802
  709MOL0     N97755   2.582  10.429   5.612  0.2052 -0.4494  0.0999
  709MOL0     N97756   2.674  10.453   5.521  1.0283  0.0267  1.4197
  709MOL0     C97757   2.554   9.971   4.331  0.2049 -1.0743 -0.0845
  709MOL0     C97758   2.578   9.948   4.202 -0.8486  0.1586  0.1013
  709MOL0     C97759   2.757   9.873   3.799 -0.5244 -0.1844  0.7569
  709MOL0     C97760   2.846   9.981   3.781  0.4331 -0.1046 -0.0038
  709MOL0     C97761   2.932   9.991   3.674 -0.2854 -0.2182 -0.0178
  709MOL0     C97762   2.937   9.892   3.579  0.2048  0.2504 -0.8292
  709MOL0     O97763   3.038   9.897   3.482  0.9031 -0.2682 -0.2595
  709MOL0     C97764   3.035   9.794   3.381  0.0230 -0.1100 -0.5671
  709MOL0     C97765   3.141   9.825   3.266  0.3490  0.3613  0.2774
  709MOL0     C97766   3.084   9.936   3.173 -0.0182  0.4729  0.5089
  709MOL0     C97767   3.195  10.026   3.124  0.4073  0.2627  0.4862
  709MOL0     C97768   3.275   9.960   3.020 -0.4814 -0.3587 -0.3098
  709MOL0     C97769   3.346   9.896   2.943 -0.2534  0.0590 -0.1089
  709MOL0     C97770   2.843   9.791   3.587 -0.9756 -0.0838  0.8360
  709MOL0     C97771   2.761   9.770   3.695 -0.5175 -0.1829 -0.6109
  709MOL0     C97772   2.668   9.650   3.704 -0.5228  0.0636 -0.1403
  709MOL0     H97773   2.777  10.206   4.118 -0.5708 -0.5101 -1.5787
  709MOL0     H97774   2.724  10.262   4.373  1.7993 -1.6304 -0.0389
  709MOL0     H97775   2.511  10.302   4.538  0.2954 -0.4809  0.5919
  709MOL0     H97776   2.681  10.278   4.576 -0.4878  1.0902 -1.0997
  709MOL0     H97777   2.441  10.187   4.741 -0.2574  1.5863 -0.7785
  709MOL0     H97778   2.607  10.149   4.795  0.0739  0.8642  0.5285
  709MOL0     H97779   2.656  10.382   4.809  0.4612 -3.4924  3.6735
  709MOL0     H97780   2.501  10.425   4.732  1.5023  0.7303  0.5452
  709MOL0     H97781   2.374  10.357   4.903  0.5682 -3.7228 -2.2933
  709MOL0     H97782   2.507  10.271   4.991 -0.7356 -0.0050 -0.2771
  709MOL0     H97783   2.413  10.553   5.037 -1.6138 -1.1742  2.4431
  709MOL0     H97784   2.556  10.550   4.933 -0.5925 -0.3137  0.2252
  709MOL0     H97785   2.546  10.417   5.203 -1.3030  0.0689 -0.9194
  709MOL0     H97786   2.686  10.436   5.097 -0.0964 -0.9985  0.6690
  709MOL0     H97787   2.523  10.678   5.213  0.8565  0.3038  1.9659
  709MOL0     H97788   2.676  10.694   5.144  1.7000 -0.5408  1.0748
  709MOL0     H97789   2.779  10.540   5.308 -0.6310 -1.3178 -0.7727
  709MOL0     H97790   2.727  10.703   5.369 -2.9632 -0.4900  0.7231
  709MOL0     H97791   2.455  10.679   5.458 -0.4518 -2.1046  0.4219
  709MOL0     H97792   2.382  10.464   5.784  0.4518 -2.9782 -1.8456
  709MOL0     H97793   2.284  10.489   5.633 -0.7327  0.6145 -0.1740
  709MOL0     H97794   2.317  10.730   5.659  2.5710  2.6876  1.9267
  709MOL0     H97795   2.238  10.660   5.800  1.0583  2.1673  2.1582
  709MOL0     H97796   2.470  10.613   5.901  0.4795 -0.0641 -0.2524
  709MOL0     H97797   2.524  10.744   5.790 -1.5710  4.0588  0.0569
  709MOL0     H97798   2.495  10.832   6.007  1.9076 -1.3175 -0.8719
  709MOL0     H97799   2.348  10.876   5.915 -0.0746 -1.3292 -1.6588
  709MOL0     H97800   2.176  10.623   6.219  0.4451  2.0428 -4.5446
  709MOL0     H97801   2.030  10.662   6.452 -0.2006  1.0380 -0.5915
  709MOL0     H97802   2.142  10.666   6.588  0.0769 -0.5186 -1.0109
  709MOL0     H97803   2.191  10.569   6.447 -0.6404 -0.8814 -1.9944
  709MOL0     H97804   2.132  11.169   6.752 -0.7468 -0.3763  1.6563
  709MOL0     H97805   2.129  11.251   6.978  1.0693  0.3475  0.2055
  709MOL0     H97806   2.191  11.093   7.337  2.6877  0.9102  1.9119
  709MOL0     H97807   2.212  10.962   7.213  0.4217  0.0160  1.4683
  709MOL0     H97808   2.363  10.886   7.324  0.0802 -0.4457  1.6146
  709MOL0     H97809   2.458  11.028   7.270 -2.4297  1.6547 -1.3820
  709MOL0     H97810   2.489  10.989   7.517 -0.3346  0.4814  0.6964
  709MOL0     H97811   2.318  10.979   7.537  1.1486 -2.4299 -0.1703
  709MOL0     H97812   2.271  11.206   7.500 -0.2077  1.2646  1.4278
  709MOL0     H97813   2.441  11.227   7.444 -1.0408  0.7868  0.5237
  709MOL0     H97814   2.381  11.317   7.675 -0.6823  0.1628 -2.9101
  709MOL0     H97815   2.366  11.160   7.738 -0.4248  0.0114 -0.4399
  709MOL0     H97816   2.630  11.248   7.612 -0.2421  0.8705  0.3565
  709MOL0     H97817   2.594  11.105   7.690  0.1392  1.1796 -1.2051
  709MOL0     H97818   2.569  11.194   7.906 -0.9874 -1.7638 -1.4057
  709MOL0     H97819   2.551  11.358   7.840 -2.0914 -1.5037  1.8954
  709MOL0     H97820   2.774  11.367   7.769  1.8542  3.3225  4.0720
  709MOL0     H97821   2.803  11.194   7.836 -0.5729 -0.0572 -0.5924
  709MOL0     H97822   2.421  10.975   7.081 -2.0441 -0.5916  2.2424
  709MOL0     H97823   2.473  10.924   6.827  0.0865  0.9353 -2.8062
  709MOL0     H97824   2.366  11.051   6.375  2.7736 -0.4436 -0.8114
  709MOL0     H97825   2.412  10.960   6.156  0.4741  0.1451  1.6081
  709MOL0     H97826   2.492   9.907   4.393  1.3793 -3.3533 -1.1691
  709MOL0     H97827   2.521   9.868   4.157 -2.2335 -0.4956  2.8678
  709MOL0     H97828   2.850  10.072   3.841  0.6168  0.2015 -0.4693
  709MOL0     H97829   3.005  10.071   3.673 -2.9049  2.3489 -1.8888
  709MOL0     H97830   3.063   9.701   3.431 -4.6919 -1.3639  0.2154
  709MOL0     H97831   2.932   9.785   3.346 -0.6200 -1.4616  1.4596
  709MOL0     H97832   3.165   9.737   3.206  3.4497  0.2279  1.5357
  709MOL0     H97833   3.239   9.846   3.311  0.8648  0.4376 -0.8474
  709MOL0     H97834   3.022   9.895   3.092 -2.4540 -0.1095  2.5485
  709MOL0     H97835   3.013   9.996   3.231  2.0575  1.6891  1.9255
  709MOL0     H97836   3.264  10.050   3.206  1.5444 -1.8591  0.2214
  709MOL0     H97837   3.163  10.126   3.091  0.3865  0.4248  0.9958
  709MOL0     H97838   3.411   9.844   2.875  2.3506 -0.0459  2.2676
  709MOL0     H97839   2.865   9.708   3.521  4.3125  1.1680  0.5622
  709MOL0     H97840   2.656   9.618   3.600  3.5149  0.1597 -0.7707
  709MOL0     H97841   2.718   9.575   3.766 -0.8755 -1.9847 -2.2080
  709MOL0     H97842   2.566   9.666   3.741 -1.0574 -2.0651 -0.5647
  710MOL0     O97843   3.817   6.734   0.829 -0.2891  0.8754 -0.6067
  710MOL0     C97844   3.939   6.739   0.807 -0.2845  0.0839 -0.4243
  710MOL0     O97845   3.999   6.826   0.716  0.1192 -0.5332 -0.0775
  710MOL0     C97846   3.932   6.902   0.623  0.6317 -0.0921 -0.2671
  710MOL0     C97847   4.023   6.995   0.571 -0.4557 -0.5915  0.4622
  710MOL0     C97848   3.975   7.087   0.477 -0.6118  0.5766  0.6312
  710MOL0     C97849   3.843   7.064   0.420  0.7401  0.8612 -0.0877
  710MOL0     O97850   3.785   7.149   0.331  0.4665  0.1623 -0.2576
  710MOL0     C97851   3.815   7.290   0.340  0.3839  0.6056 -0.1114
  710MOL0     C97852   3.805   7.341   0.207  0.7492  0.1128  0.1604
  710MOL0     C97853   3.919   7.284   0.119  0.0070  1.2662  0.1902
  710MOL0     C97854   3.963   7.383   0.018  0.0906 -0.3971  0.4688
  710MOL0     C97855   4.023   7.328  -0.115  0.0724  0.7599  0.0473
  710MOL0     C97856   4.058   7.437  -0.214 -0.1930 -0.9626  0.5911
  710MOL0     C97857   4.103   7.382  -0.355  0.7326 -0.5059 -0.2219
  710MOL0     C97858   4.240   7.360  -0.380 -1.1562 -0.1864  0.7215
  710MOL0     N97859   4.268   7.338  -0.519 -0.3921 -1.2540  0.0522
  710MOL0     C97860   4.255   7.219  -0.590 -0.2088  0.3726  0.7729
  710MOL0     C97861   4.334   7.229  -0.704  0.4571 -0.3357  0.6986
  710MOL0     C97862   4.326   7.134  -0.825  0.4361  0.2579 -0.1300
  710MOL0     C97863   4.427   7.172  -0.928 -0.3176 -0.8010  0.1266
  710MOL0     C97864   4.400   7.104  -1.066  0.0152  0.5334  0.4990
  710MOL0     C97865   4.484   7.149  -1.188  0.3184 -0.0843  0.3908
  710MOL0     O97866   4.612   7.104  -1.174 -0.6697 -0.0454  0.6012
  710MOL0     C97867   4.713   7.160  -1.251  0.4957  0.0773  0.4241
  710MOL0     C97868   4.697   7.195  -1.382 -0.3504 -1.3562 -0.1347
  710MOL0     C97869   4.793   7.250  -1.467 -0.8533 -0.3469 -0.1567
  710MOL0     C97870   4.752   7.305  -1.602  0.2763  0.4409 -0.5589
  710MOL0     C97871   4.925   7.290  -1.412  0.3371  0.6200 -0.1213
  710MOL0     C97872   5.031   7.354  -1.490 -0.2458  0.4248  0.6096
  710MOL0     O97873   5.140   7.368  -1.407 -0.1733  0.0701 -0.2578
  710MOL0     C97874   5.217   7.491  -1.421  0.5513 -0.4797 -1.1372
  710MOL0     C97875   5.244   7.570  -1.310 -0.4356 -0.0133  0.7478
  710MOL0     C97876   5.332   7.678  -1.310 -1.0659 -0.1315 -0.6324
  710MOL0     C97877   5.415   7.700  -1.427  0.2866 -0.6758 -0.1876
  710MOL0     O97878   5.494   7.814  -1.444 -0.2332  0.1526  0.7634
  710MOL0     C97879   5.558   7.876  -1.326  0.4028 -0.3819  0.9083
  710MOL0     C97880   5.476   7.967  -1.229 -0.6807 -0.4129  1.0581
  710MOL0     C97881   5.376   8.059  -1.306  0.9959 -0.9536  0.1970
  710MOL0     C97882   5.403   8.208  -1.317  0.7865 -0.2697  0.5948
  710MOL0     C97883   5.534   8.241  -1.401 -0.5864 -0.4756 -0.6903
  710MOL0     C97884   5.518   8.209  -1.549 -0.9682  0.4200 -0.5674
  710MOL0     C97885   5.637   8.259  -1.637  0.3663 -0.3320 -0.0301
  710MOL0     C97886   5.712   8.150  -1.715 -0.0278 -0.6576 -0.2224
  710MOL0    Cl97887   5.768   8.036  -1.595 -0.3941  0.0877  0.7988
  710MOL0     C97888   5.381   7.631  -1.541  0.0699  1.1625 -0.0365
  710MOL0     C97889   5.289   7.531  -1.539 -0.0818  0.0446  0.4045
  710MOL0     O97890   5.027   7.369  -1.614 -0.7274  0.7622 -0.0384
  710MOL0     C97891   4.946   7.247  -1.278 -0.2326 -0.0689  1.0797
  710MOL0     C97892   4.847   7.179  -1.207 -0.5689 -0.3867  0.5448
  710MOL0     N97893   4.387   7.362  -0.698  0.1000  0.2939  0.1063
  710MOL0     N97894   4.355   7.422  -0.593  0.7566 -0.1489 -0.0528
  710MOL0     C97895   3.762   6.958   0.461  0.8770 -0.1259 -0.2509
  710MOL0     C97896   3.804   6.876   0.569 -0.2921  0.2173  0.6142
  710MOL0     C97897   4.029   6.657   0.901  0.6703 -0.4167  0.6628
  710MOL0     C97898   3.973   6.537   0.943 -0.2712 -0.1365  0.2049
  710MOL0     C97899   4.043   6.463   1.039 -0.2530 -1.2349 -0.8480
  710MOL0     C97900   4.169   6.507   1.077 -0.5088  0.0200  0.3408
  710MOL0     O97901   4.254   6.438   1.162  0.1236  0.0281 -0.1906
  710MOL0     C97902   4.207   6.328   1.244  0.5607 -0.1291 -1.4759
  710MOL0     C97903   4.304   6.285   1.350  0.4932 -0.2522  0.4672
  710MOL0     C97904   4.272   6.150   1.412 -0.6606  0.7092  0.6836
  710MOL0     C97905   4.344   6.136   1.550 -0.0184 -0.0923  0.1011
  710MOL0     C97906   4.273   6.224   1.646 -0.0000 -0.0707 -0.3096
  710MOL0     C97907   4.216   6.295   1.725 -0.2093 -0.1532 -0.8432
  710MOL0     C97908   4.223   6.617   1.029  0.1216  0.0660  0.1272
  710MOL0     C97909   4.158   6.702   0.942  1.1297 -0.4362 -0.2402
  710MOL0     C97910   4.203   6.843   0.921 -0.6163  0.7436 -0.4893
  710MOL0     H97911   4.124   7.005   0.609 -1.1077 -1.7226  2.6081
  710MOL0     H97912   4.045   7.162   0.441 -1.0476  2.6211  3.6518
  710MOL0     H97913   3.911   7.326   0.379 -1.0566  1.3525  3.0705
  710MOL0     H97914   3.737   7.344   0.394  0.3074  0.6296 -0.2479
  710MOL0     H97915   3.704   7.317   0.172  1.0070  0.8623 -1.1323
  710MOL0     H97916   3.796   7.449   0.197  2.0174  0.2996  0.7856
  710MOL0     H97917   4.002   7.252   0.182  0.1731  2.5624  0.6546
  710MOL0     H97918   3.886   7.192   0.069 -0.8461  1.4599  0.3759
  710MOL0     H97919   3.881   7.448  -0.015 -0.0086 -0.1401  1.2036
  710MOL0     H97920   4.024   7.464   0.059  0.8956 -0.6776 -0.1654
  710MOL0     H97921   3.952   7.254  -0.153  0.7135  0.6107 -0.9210
  710MOL0     H97922   4.112   7.269  -0.089 -1.8491 -1.9686  0.8540
  710MOL0     H97923   3.963   7.492  -0.224 -0.3734 -1.5851 -1.6304
  710MOL0     H97924   4.137   7.499  -0.171 -3.1146  0.3625  4.7280
  710MOL0     H97925   4.070   7.454  -0.431 -0.2899 -0.8039 -0.0829
  710MOL0     H97926   4.038   7.295  -0.372 -0.8130  0.1593  1.8194
  710MOL0     H97927   4.299   7.448  -0.353  0.1007 -0.4662 -0.9360
  710MOL0     H97928   4.275   7.270  -0.329  1.8092  0.2827 -0.2525
  710MOL0     H97929   4.208   7.126  -0.557 -0.1840 -0.1112 -0.4951
  710MOL0     H97930   4.224   7.127  -0.864  0.7553 -4.4150 -0.6173
  710MOL0     H97931   4.348   7.038  -0.778 -0.4380  0.5096  0.8349
  710MOL0     H97932   4.431   7.278  -0.957  2.9526  0.2042  3.5201
  710MOL0     H97933   4.527   7.154  -0.888  0.4122 -2.0701 -2.0638
  710MOL0     H97934   4.407   6.996  -1.053 -1.6760  0.7306  4.3184
  710MOL0     H97935   4.295   7.111  -1.094 -0.2031 -1.0611  0.8377
  710MOL0     H97936   4.435   7.115  -1.280  1.0801 -0.2294  0.0291
  710MOL0     H97937   4.493   7.258  -1.190 -0.3180 -0.0198 -2.2634
  710MOL0     H97938   4.596   7.178  -1.419 -0.0266 -2.2187 -0.6726
  710MOL0     H97939   4.797   7.249  -1.685 -4.7741 -1.4356 -2.4116
  710MOL0     H97940   4.774   7.411  -1.612  0.7398  0.1959 -2.5966
  710MOL0     H97941   4.643   7.294  -1.609  0.4429 -3.8278  0.6651
  710MOL0     H97942   5.195   7.558  -1.214  2.3117  2.2542  2.6249
  710MOL0     H97943   5.345   7.740  -1.221 -1.4611 -1.8144  0.6589
  710MOL0     H97944   5.590   7.795  -1.259  0.9231  0.1359  1.2962
  710MOL0     H97945   5.645   7.935  -1.357 -0.3521  0.9038  1.1752
  710MOL0     H97946   5.428   7.908  -1.151 -0.2333 -1.2323  0.7198
  710MOL0     H97947   5.558   8.028  -1.188  0.4326 -0.0693 -1.5071
  710MOL0     H97948   5.282   8.052  -1.250 -0.4918  1.3547 -1.8242
  710MOL0     H97949   5.360   8.017  -1.406 -1.5960 -0.3296  0.2563
  710MOL0     H97950   5.428   8.240  -1.215  0.3082 -2.0032  1.2972
  710MOL0     H97951   5.322   8.255  -1.373  0.8811 -1.5440 -0.6740
  710MOL0     H97952   5.540   8.350  -1.407  0.7842 -0.3141  2.0901
  710MOL0     H97953   5.629   8.198  -1.367  0.2925  0.6949 -1.5953
  710MOL0     H97954   5.416   8.240  -1.573 -0.2853  0.9297 -3.0925
  710MOL0     H97955   5.515   8.100  -1.558  1.0734  0.3564 -0.7645
  710MOL0     H97956   5.706   8.308  -1.569 -1.8383  0.4868  1.7445
  710MOL0     H97957   5.608   8.332  -1.713 -1.3220 -1.2844 -0.3583
  710MOL0     H97958   5.794   8.196  -1.771 -0.4077  2.6501  1.6577
  710MOL0     H97959   5.643   8.091  -1.776 -4.4372  2.9096  0.7581
  710MOL0     H97960   5.426   7.654  -1.637 -1.2234  0.5476 -0.8102
  710MOL0     H97961   5.258   7.474  -1.625 -1.9603  0.3508  0.8462
  710MOL0     H97962   5.040   7.250  -1.223 -0.7035  1.7585  1.8654
  710MOL0     H97963   4.871   7.144  -1.107 -0.8545  0.4272  0.9122
  710MOL0     H97964   3.666   6.929   0.419  1.2163  0.2441 -1.3233
  710MOL0     H97965   3.740   6.794   0.601 -2.2855  2.2074  2.0669
  710MOL0     H97966   3.878   6.502   0.902  0.3387 -0.1402 -1.2660
  710MOL0     H97967   3.993   6.382   1.091 -0.2680  0.6019  2.2195
  710MOL0     H97968   4.112   6.331   1.299  1.5591  0.1190  0.3013
  710MOL0     H97969   4.194   6.253   1.165  0.9301 -1.8572  0.0410
  710MOL0     H97970   4.309   6.365   1.424 -2.3880  0.5344 -0.0451
  710MOL0     H97971   4.399   6.272   1.298  0.6806  3.3494 -0.3700
  710MOL0     H97972   4.165   6.132   1.427 -0.2969 -2.1222  0.5414
  710MOL0     H97973   4.316   6.085   1.336  0.0961  1.8493  0.1195
  710MOL0     H97974   4.454   6.137   1.552  0.1392 -3.9229  0.7415
  710MOL0     H97975   4.311   6.035   1.577 -1.0735  0.4970  1.0684
  710MOL0     H97976   4.158   6.363   1.784  0.9290  1.6253 -1.6786
  710MOL0     H97977   4.319   6.641   1.075  0.5859  1.8086 -1.6094
  710MOL0     H97978   4.262   6.842   0.829  1.6055  0.2925  0.8473
  710MOL0     H97979   4.120   6.914   0.913  0.6442  2.1251 -2.0164
  710MOL0     H97980   4.282   6.866   0.995 -1.0658  3.0286 -0.6349
  711MOL0     O97981   0.607  10.244   3.810  0.2693 -0.6686  0.7369
  711MOL0     C97982   0.492  10.268   3.776 -0.1415 -0.4172  0.8288
  711MOL0     O97983   0.380  10.194   3.808  0.0049  0.3245  0.3034
  711MOL0     C97984   0.411  10.106   3.909 -0.0283  0.2390  1.0212
  711MOL0     C97985   0.424   9.979   3.860  0.4040 -0.2831  0.2312
  711MOL0     C97986   0.480   9.875   3.923 -0.1514  0.2056 -1.0422
  711MOL0     C97987   0.522   9.892   4.060 -0.2608 -0.9630  0.0794
  711MOL0     O97988   0.562   9.789   4.139  0.4598  0.0019 -0.0765
  711MOL0     C97989   0.611   9.677   4.080  0.0986  0.4002  0.9306
  711MOL0     C97990   0.652   9.602   4.208  0.0405 -0.3446  0.1944
  711MOL0     C97991   0.734   9.466   4.200  0.8141 -0.3644  0.7490
  711MOL0     C97992   0.888   9.498   4.181  0.8464 -0.0210  1.1770
  711MOL0     C97993   0.966   9.364   4.152  1.0830  0.2935 -0.3591
  711MOL0     C97994   1.119   9.407   4.139  0.2974 -0.1360  1.0884
  711MOL0     C97995   1.207   9.290   4.151  0.0618  0.7616  0.4678
  711MOL0     C97996   1.348   9.328   4.158 -0.1968 -0.6399  0.5830
  711MOL0     N97997   1.390   9.402   4.040  0.2285 -0.2612 -0.6442
  711MOL0     C97998   1.382   9.362   3.908 -0.6162 -0.4485  0.0020
  711MOL0     C97999   1.448   9.463   3.843  0.1234 -0.4471  0.5459
  711MOL0     C98000   1.501   9.459   3.703  0.8209 -0.2345  0.5296
  711MOL0     C98001   1.652   9.428   3.707  0.8355 -0.0232  0.2868
  711MOL0     C98002   1.678   9.281   3.720 -1.1590  0.3865 -0.0125
  711MOL0     C98003   1.808   9.232   3.664  0.3747 -0.6016 -1.1418
  711MOL0     O98004   1.807   9.232   3.523  0.2513  0.5449 -0.0297
  711MOL0     C98005   1.742   9.122   3.460  0.3238  0.5840 -1.4759
  711MOL0     C98006   1.689   9.004   3.529 -0.5081 -0.5026  0.1106
  711MOL0     C98007   1.624   8.902   3.457  0.2354 -0.6935 -0.2301
  711MOL0     C98008   1.592   8.782   3.546 -0.4958 -0.0690  0.9365
  711MOL0     C98009   1.622   8.900   3.313 -0.9828 -0.8685 -0.6668
  711MOL0     C98010   1.563   8.795   3.228 -0.6354  0.6811 -1.1130
  711MOL0     O98011   1.602   8.795   3.103 -0.2383  0.3070 -0.7124
  711MOL0     C98012   1.564   8.704   3.016 -0.7023 -0.4013 -0.5517
  711MOL0     C98013   1.565   8.568   3.045 -0.2578 -0.2078 -0.0675
  711MOL0     C98014   1.527   8.467   2.949  0.5774  0.4754 -0.9756
  711MOL0     C98015   1.498   8.504   2.819 -0.6236 -0.2176  0.0686
  711MOL0     O98016   1.460   8.413   2.722 -0.2586 -0.4587 -0.3485
  711MOL0     C98017   1.317   8.400   2.710 -0.0536  0.2059  0.9259
  711MOL0     C98018   1.284   8.341   2.572 -0.9030  0.7629 -0.7926
  711MOL0     C98019   1.324   8.436   2.457  0.5769 -0.5330 -0.5549
  711MOL0     C98020   1.214   8.423   2.347  1.1039  1.3307 -0.2577
  711MOL0     C98021   1.228   8.498   2.219 -0.1282 -0.0916  1.5190
  711MOL0     C98022   1.359   8.451   2.141  0.3534 -0.6318  0.3055
  711MOL0     C98023   1.406   8.558   2.044  0.7068 -0.2911 -0.6098
  711MOL0     C98024   1.437   8.510   1.904 -0.5682  0.9187  0.2570
  711MOL0    Cl98025   1.511   8.653   1.817 -0.2306  0.3044  0.4782
  711MOL0     C98026   1.516   8.638   2.789  0.3759 -0.8253 -0.4847
  711MOL0     C98027   1.544   8.735   2.882 -0.5186  0.7630 -0.7329
  711MOL0     O98028   1.478   8.722   3.279  0.2598 -0.3585 -0.4853
  711MOL0     C98029   1.667   9.024   3.252  0.9000 -0.5096  0.2088
  711MOL0     C98030   1.723   9.129   3.321 -0.2918  0.3757 -0.1173
  711MOL0     N98031   1.485   9.559   3.935 -0.7172 -0.7494  0.3610
  711MOL0     N98032   1.454   9.522   4.044  0.2566  0.2813 -0.1078
  711MOL0     C98033   0.514  10.028   4.113 -0.4116  0.1165  0.4270
  711MOL0     C98034   0.461  10.141   4.038  0.8492  0.1031 -0.3003
  711MOL0     C98035   0.466  10.383   3.679 -0.3723  0.2911  0.1749
  711MOL0     C98036   0.344  10.449   3.680  1.0099 -0.7333 -0.1980
  711MOL0     C98037   0.317  10.565   3.601 -0.2249  0.8870 -0.8713
  711MOL0     C98038   0.412  10.609   3.511 -0.0364  0.5960 -1.0617
  711MOL0     O98039   0.381  10.706   3.423 -0.2414  0.1082 -0.7482
  711MOL0     C98040   0.353  10.835   3.487 -0.3113 -0.5435  0.5334
  711MOL0     C98041   0.221  10.904   3.444 -0.1147  0.3943 -0.0909
  711MOL0     C98042   0.228  10.926   3.292  0.5865  0.4260  0.0974
  711MOL0     C98043   0.112  11.018   3.238 -0.6616 -0.2078  0.6160
  711MOL0     C98044  -0.009  10.949   3.197 -0.3155  0.4527 -0.1402
  711MOL0     C98045  -0.120  10.909   3.164 -1.2911 -1.0107  0.0276
  711MOL0     C98046   0.535  10.545   3.500 -0.1723  0.2663 -0.7479
  711MOL0     C98047   0.563  10.432   3.578 -0.8230  0.9396 -0.6355
  711MOL0     C98048   0.690  10.360   3.550 -0.3439  0.4284  0.2337
  711MOL0     H98049   0.389   9.968   3.757  1.7146  0.9783 -0.3877
  711MOL0     H98050   0.484   9.777   3.878  1.5808 -0.9113  1.3634
  711MOL0     H98051   0.698   9.701   4.018 -0.4842  1.2094  0.3879
  711MOL0     H98052   0.528   9.625   4.030  0.3300  1.7527 -0.9946
  711MOL0     H98053   0.713   9.669   4.269 -1.6127  2.9960 -1.5714
  711MOL0     H98054   0.555   9.579   4.254  1.2461 -2.3135  1.9214
  711MOL0     H98055   0.722   9.408   4.292 -1.1897 -2.5947 -0.7821
  711MOL0     H98056   0.704   9.402   4.116  2.4496 -1.3039  0.8458
  711MOL0     H98057   0.910   9.565   4.097  2.0386 -1.6188  0.1474
  711MOL0     H98058   0.930   9.549   4.268  0.0271 -0.0362  1.5909
  711MOL0     H98059   0.926   9.310   4.066  0.1977  0.9488 -0.3744
  711MOL0     H98060   0.948   9.310   4.245 -0.7452  0.8222 -0.3775
  711MOL0     H98061   1.139   9.455   4.043  1.2381  0.6787  1.6651
  711MOL0     H98062   1.149   9.476   4.219  2.8411 -1.5437  1.4556
  711MOL0     H98063   1.183   9.214   4.076  3.0402 -1.6719  1.7447
  711MOL0     H98064   1.194   9.245   4.249 -2.0718  1.8572  0.7364
  711MOL0     H98065   1.380   9.386   4.245  0.7206 -0.4070  0.1106
  711MOL0     H98066   1.416   9.242   4.153  3.6129  2.0964  0.2086
  711MOL0     H98067   1.351   9.265   3.871  0.7675 -1.6517  1.8130
  711MOL0     H98068   1.474   9.553   3.655  0.5620 -0.3965  0.3564
  711MOL0     H98069   1.447   9.383   3.646 -1.3475  1.0113  0.8381
  711MOL0     H98070   1.694   9.463   3.612 -2.9718  2.2208 -0.7906
  711MOL0     H98071   1.705   9.483   3.787 -0.7431 -0.8427  1.9691
  711MOL0     H98072   1.670   9.249   3.824  0.0286  1.6077  0.4798
  711MOL0     H98073   1.603   9.238   3.653 -0.0498 -1.6762 -0.0058
  711MOL0     H98074   1.892   9.289   3.703  1.7907 -0.8181 -3.7015
  711MOL0     H98075   1.834   9.131   3.699  0.2320 -0.8159 -1.6496
  711MOL0     H98076   1.697   8.998   3.637 -3.6794 -0.3103  0.4592
  711MOL0     H98077   1.603   8.807   3.652  1.2560  2.6339  0.2104
  711MOL0     H98078   1.672   8.711   3.526  1.1772  2.4208 -1.9505
  711MOL0     H98079   1.493   8.738   3.527 -1.2161  1.1144  1.8141
  711MOL0     H98080   1.591   8.537   3.146  0.2511 -1.2129 -0.5078
  711MOL0     H98081   1.516   8.361   2.974  2.9351  0.6745  1.2460
  711MOL0     H98082   1.282   8.340   2.794  0.0642  2.5778  2.7954
  711MOL0     H98083   1.262   8.494   2.722 -1.4355 -0.4175 -0.1629
  711MOL0     H98084   1.337   8.246   2.562  0.3186  1.3991 -0.5786
  711MOL0     H98085   1.180   8.309   2.569 -0.6552  0.0010 -3.0178
  711MOL0     H98086   1.424   8.402   2.431  0.6310  0.4141 -1.6682
  711MOL0     H98087   1.337   8.541   2.485 -2.8933  1.3651 -4.8392
  711MOL0     H98088   1.120   8.445   2.398  3.0787  2.8394  3.0215
  711MOL0     H98089   1.221   8.317   2.322  0.0035  0.4136  2.8972
  711MOL0     H98090   1.147   8.472   2.150  1.2955  1.1028 -0.7496
  711MOL0     H98091   1.208   8.605   2.230 -5.1509 -0.7921  1.5145
  711MOL0     H98092   1.326   8.358   2.093  1.0772 -0.2314 -1.0215
  711MOL0     H98093   1.441   8.427   2.208  0.7260  0.3987  0.2369
  711MOL0     H98094   1.483   8.613   2.098 -1.1906  0.3547  1.5633
  711MOL0     H98095   1.324   8.630   2.038  0.6467 -0.1275  1.4915
  711MOL0     H98096   1.345   8.488   1.850 -1.0207  2.7040  0.2223
  711MOL0     H98097   1.499   8.420   1.912 -2.3061 -0.2741  0.8743
  711MOL0     H98098   1.499   8.675   2.688  0.3638  0.9123  0.1091
  711MOL0     H98099   1.558   8.837   2.849  0.0245  0.5848 -1.0614
  711MOL0     H98100   1.657   9.029   3.144  3.1098 -1.9482 -0.1257
  711MOL0     H98101   1.765   9.221   3.283  0.5713  0.0938  0.1226
  711MOL0     H98102   0.542  10.047   4.217 -1.2154  1.7699  0.3818
  711MOL0     H98103   0.442  10.240   4.079 -0.0485 -0.3864  0.5154
  711MOL0     H98104   0.275  10.420   3.758  1.2626  1.5733  0.9751
  711MOL0     H98105   0.223  10.616   3.616  1.1354  2.8763  1.6882
  711MOL0     H98106   0.338  10.814   3.593  0.5152 -0.9551  0.5728
  711MOL0     H98107   0.438  10.899   3.463 -0.5850 -0.0762  0.7842
  711MOL0     H98108   0.213  11.003   3.491  1.9231  1.6211 -2.1044
  711MOL0     H98109   0.132  10.842   3.459  0.7698 -1.5972 -2.3392
  711MOL0     H98110   0.323  10.979   3.277  0.9146  0.0078  0.6614
  711MOL0     H98111   0.230  10.827   3.246 -0.1092  1.6850 -2.9059
  711MOL0     H98112   0.159  11.067   3.152  1.5720 -2.1311  0.6649
  711MOL0     H98113   0.093  11.100   3.309 -2.7486 -0.0519 -0.0311
  711MOL0     H98114  -0.216  10.870   3.139 -2.4896 -0.3319  3.1190
  711MOL0     H98115   0.604  10.576   3.423  1.5034 -1.5160 -0.0224
  711MOL0     H98116   0.764  10.362   3.631 -1.0452  0.8167  0.8790
  711MOL0     H98117   0.676  10.255   3.525 -1.1027  0.1422  1.7460
  711MOL0     H98118   0.731  10.396   3.455  0.7174 -4.0990 -1.2496
  712MOL0     O98119  10.578   5.883   2.271  0.0098 -0.3864  0.4930
  712MOL0     C98120  10.682   5.831   2.273 -0.9898 -0.0734 -0.2610
  712MOL0     O98121  10.804   5.870   2.326  0.6121 -0.1203  0.2418
  712MOL0     C98122  10.814   5.982   2.405  0.7893 -0.3075  0.0191
  712MOL0     C98123  10.722   6.096   2.410 -0.7974  0.1949  0.7515
  712MOL0     C98124  10.754   6.200   2.493  0.6022 -1.0150  0.2647
  712MOL0     C98125  10.873   6.196   2.576 -0.0355  0.0041  0.3655
  712MOL0     O98126  10.884   6.298   2.663 -0.5008  0.6917  0.5778
  712MOL0     C98127  10.985   6.397   2.643 -0.3347 -1.1002  0.2943
  712MOL0     C98128  11.013   6.480   2.772 -0.4925 -0.5123  0.1127
  712MOL0     C98129  11.063   6.380   2.888  0.6041  0.1741 -0.4115
  712MOL0     C98130  11.201   6.299   2.856 -0.1011 -0.2575  0.9124
  712MOL0     C98131  11.272   6.248   2.983  0.8985  0.4978  0.5967
  712MOL0     C98132  11.330   6.356   3.077  1.2652 -0.3291 -0.1919
  712MOL0     C98133  11.431   6.442   2.990 -0.3059 -0.8278 -0.1543
  712MOL0     C98134  11.516   6.538   3.076 -0.2082 -0.6528 -0.2476
  712MOL0     N98135  11.620   6.459   3.150 -0.7417  0.1104  0.7363
  712MOL0     C98136  11.717   6.381   3.088  0.2910 -0.8886 -0.4064
  712MOL0     C98137  11.782   6.329   3.190  0.6816 -0.3048 -0.5659
  712MOL0     C98138  11.908   6.261   3.172 -0.5602  0.5470 -0.8087
  712MOL0     C98139  12.018   6.341   3.251 -0.6705 -0.1489 -0.7956
  712MOL0     C98140  12.051   6.465   3.174  1.1923 -0.3947  0.1738
  712MOL0     C98141  12.068   6.580   3.270  0.0202  0.8199 -0.0890
  712MOL0     O98142  12.129   6.694   3.211 -0.4772  0.3073 -0.3225
  712MOL0     C98143  12.060   6.808   3.202  0.0961  0.2717 -0.9089
  712MOL0     C98144  12.121   6.932   3.209  0.0092 -1.2621  0.3014
  712MOL0     C98145  12.046   7.058   3.203  1.6434 -0.3943 -0.5997
  712MOL0     C98146  12.123   7.185   3.225  0.1205  0.8201 -0.9520
  712MOL0     C98147  11.907   7.046   3.181  0.8278  0.5968 -0.0348
  712MOL0     C98148  11.825   7.163   3.155  0.4434 -0.7578 -0.3004
  712MOL0     O98149  11.884   7.283   3.148 -0.2425 -0.2481  0.4449
  712MOL0     C98150  11.804   7.404   3.155  0.5538  0.3342  1.5159
  712MOL0     C98151  11.850   7.515   3.225  1.3404  0.3017 -0.7427
  712MOL0     C98152  11.784   7.639   3.216 -0.0166  0.2099  0.6760
  712MOL0     C98153  11.664   7.654   3.153 -0.1292  0.6146  0.4332
  712MOL0     O98154  11.597   7.774   3.176 -0.2751 -0.4698 -0.2153
  712MOL0     C98155  11.550   7.844   3.055 -0.0079 -0.6356  0.8835
  712MOL0     C98156  11.490   7.971   3.095 -0.1196 -0.8643 -1.2407
  712MOL0     C98157  11.594   8.086   3.108 -0.9210  1.0864  0.6263
  712MOL0     C98158  11.529   8.224   3.132  0.4440 -0.5600 -0.4846
  712MOL0     C98159  11.450   8.234   3.265  0.5500 -0.1224  0.5893
  712MOL0     C98160  11.379   8.369   3.289 -0.6449  0.8691 -0.1921
  712MOL0     C98161  11.325   8.372   3.443  1.0268  1.2157 -0.7464
  712MOL0     C98162  11.235   8.492   3.449  0.1348  0.4262 -0.7713
  712MOL0    Cl98163  11.320   8.624   3.397  1.0621 -0.2551  0.4924
  712MOL0     C98164  11.612   7.548   3.082  0.2461 -0.0979 -0.3849
  712MOL0     C98165  11.678   7.423   3.082 -0.2541  0.3204  0.7602
  712MOL0     O98166  11.705   7.144   3.148 -0.5255 -0.2525  0.7055
  712MOL0     C98167  11.852   6.921   3.146  1.0831 -0.5213  0.7684
  712MOL0     C98168  11.922   6.807   3.165 -0.1049  0.3832  0.4996
  712MOL0     N98169  11.712   6.356   3.305 -0.1034 -0.0159  0.1652
  712MOL0     N98170  11.618   6.438   3.284  0.2430 -0.9829  0.4167
  712MOL0     C98171  10.971   6.088   2.563  0.4655 -1.0613  1.1180
  712MOL0     C98172  10.936   5.992   2.471 -0.1175 -0.4640 -0.1451
  712MOL0     C98173  10.682   5.695   2.221  1.2086 -0.0228 -0.0624
  712MOL0     C98174  10.789   5.667   2.129  0.1930 -0.0609  0.3042
  712MOL0     C98175  10.792   5.547   2.054 -0.1280  0.0821 -0.5585
  712MOL0     C98176  10.690   5.456   2.067 -1.3806  0.2064  0.1423
  712MOL0     O98177  10.710   5.349   1.988 -0.7865  0.0689 -0.8583
  712MOL0     C98178  10.621   5.237   1.993  0.2930 -0.1703  0.3707
  712MOL0     C98179  10.660   5.123   1.899  0.0131 -0.6110  0.9081
  712MOL0     C98180  10.551   5.024   1.876  0.1263 -0.0040  0.5399
  712MOL0     C98181  10.554   4.883   1.949  0.0029 -0.2497  0.9133
  712MOL0     C98182  10.693   4.829   1.924 -1.0445 -0.0688 -0.5746
  712MOL0     C98183  10.811   4.796   1.897  0.7355 -0.4968  0.3153
  712MOL0     C98184  10.581   5.475   2.164 -0.4022 -0.1831 -0.0501
  712MOL0     C98185  10.579   5.598   2.244 -0.3420  0.6846  0.4421
  712MOL0     C98186  10.486   5.592   2.356 -0.3133  0.2893  0.7782
  712MOL0     H98187  10.641   6.106   2.338 -0.6084  1.3098  0.6811
  712MOL0     H98188  10.693   6.289   2.500  1.6319 -0.4130  2.9654
  712MOL0     H98189  10.958   6.462   2.559  3.1578  0.0879 -0.0598
  712MOL0     H98190  11.082   6.348   2.629 -0.1424 -0.7717  0.4727
  712MOL0     H98191  11.083   6.562   2.761  0.9258 -1.7801 -0.6821
  712MOL0     H98192  10.914   6.517   2.801 -0.4096 -1.0705  1.1749
  712MOL0     H98193  11.060   6.429   2.985  1.2164 -0.3768 -0.1071
  712MOL0     H98194  10.986   6.304   2.905  3.2557 -2.3000  1.6492
  712MOL0     H98195  11.199   6.217   2.784 -1.1309 -0.1428  0.8000
  712MOL0     H98196  11.271   6.373   2.816  1.9997 -0.5837  3.6890
  712MOL0     H98197  11.354   6.187   2.945  0.1801 -1.5864  2.2566
  712MOL0     H98198  11.202   6.180   3.033  2.5632 -2.1032 -0.4320
  712MOL0     H98199  11.245   6.411   3.118 -1.6070 -1.9056 -3.4271
  712MOL0     H98200  11.394   6.323   3.159 -1.5681 -2.1212  1.4718
  712MOL0     H98201  11.383   6.511   2.921 -0.1665  0.5992  1.1085
  712MOL0     H98202  11.503   6.373   2.945  1.6330 -1.9918  4.1280
  712MOL0     H98203  11.568   6.596   3.000 -1.3990  1.6459  0.6033
  712MOL0     H98204  11.454   6.600   3.142  0.6895 -1.6512  1.6278
  712MOL0     H98205  11.747   6.369   2.985 -1.7190 -3.5912 -0.7562
  712MOL0     H98206  11.944   6.238   3.071  1.2384  0.9728 -0.2977
  712MOL0     H98207  11.896   6.160   3.213  4.0995  0.0079 -0.2767
  712MOL0     H98208  11.976   6.368   3.349 -1.9410 -0.2331 -1.2939
  712MOL0     H98209  12.103   6.274   3.261  1.9160  2.7404 -1.8222
  712MOL0     H98210  12.149   6.452   3.128  0.5991  0.6270 -1.4801
  712MOL0     H98211  11.967   6.475   3.104  0.4673 -4.7927  0.1268
  712MOL0     H98212  11.965   6.596   3.305  0.2107 -0.9578  1.4272
  712MOL0     H98213  12.134   6.556   3.354 -0.4626  1.1826  0.3998
  712MOL0     H98214  12.228   6.937   3.226 -0.1648 -2.8991  2.2607
  712MOL0     H98215  12.127   7.241   3.131 -0.4361  1.0946 -0.8199
  712MOL0     H98216  12.220   7.159   3.267  0.2934  3.4448  0.5231
  712MOL0     H98217  12.083   7.248   3.306  0.6532  0.5908 -0.5076
  712MOL0     H98218  11.941   7.505   3.284  1.2696  1.8710 -0.3327
  712MOL0     H98219  11.828   7.728   3.260 -0.1101 -0.2380  1.6970
  712MOL0     H98220  11.631   7.860   2.983 -0.0933 -1.9557  0.4592
  712MOL0     H98221  11.471   7.790   3.001  1.4534  0.0055 -2.1227
  712MOL0     H98222  11.397   8.000   3.045  0.3544  3.1715 -0.0869
  712MOL0     H98223  11.453   7.953   3.197  0.2553 -0.7498 -1.0837
  712MOL0     H98224  11.653   8.085   3.016 -0.2768  1.1868  1.0353
  712MOL0     H98225  11.669   8.065   3.184  0.9148  0.1771 -1.3417
  712MOL0     H98226  11.462   8.260   3.054 -3.5888 -0.2565  2.7420
  712MOL0     H98227  11.605   8.303   3.133 -1.6247  1.6815 -3.4850
  712MOL0     H98228  11.373   8.157   3.268 -0.8626  1.2082  0.0535
  712MOL0     H98229  11.518   8.210   3.347  0.3392 -1.1468  0.4777
  712MOL0     H98230  11.289   8.366   3.227 -1.7342 -1.8219  1.3506
  712MOL0     H98231  11.447   8.446   3.252 -2.6833  0.0716 -6.9953
  712MOL0     H98232  11.409   8.361   3.513 -0.5207 -3.1011  0.8240
  712MOL0     H98233  11.277   8.275   3.462  0.7134  0.9525 -2.6622
  712MOL0     H98234  11.201   8.502   3.553  3.4558 -1.0231  0.5873
  712MOL0     H98235  11.142   8.479   3.392 -1.9642  0.7644  2.3200
  712MOL0     H98236  11.512   7.560   3.041  0.1557 -0.1848 -0.1896
  712MOL0     H98237  11.647   7.341   3.018  2.0102  0.7119 -0.9626
  712MOL0     H98238  11.746   6.915   3.122  0.3820  3.0848  2.3400
  712MOL0     H98239  11.881   6.710   3.136  2.9870 -1.3039  1.2717
  712MOL0     H98240  11.057   6.071   2.627  1.2168 -0.5477  0.2694
  712MOL0     H98241  11.002   5.907   2.455 -0.5775 -0.6248 -1.3028
  712MOL0     H98242  10.869   5.735   2.104  1.3994 -1.8240 -0.7781
  712MOL0     H98243  10.875   5.527   1.987  0.3328 -1.2932  0.3830
  712MOL0     H98244  10.614   5.211   2.099  0.3279  0.8630  0.6398
  712MOL0     H98245  10.518   5.266   1.970 -1.3299 -3.7519  2.3094
  712MOL0     H98246  10.760   5.083   1.918  0.3289 -0.8036 -0.9443
  712MOL0     H98247  10.676   5.173   1.803  1.8602 -0.2497  1.3610
  712MOL0     H98248  10.462   5.070   1.922 -0.2583  0.1931 -0.3874
  712MOL0     H98249  10.526   5.007   1.771 -3.9377 -1.9210  1.5976
  712MOL0     H98250  10.482   4.812   1.907  0.1868  0.2405 -0.2865
  712MOL0     H98251  10.552   4.896   2.057  3.6282 -0.7398  1.1848
  712MOL0     H98252  10.909   4.761   1.870  1.6167  0.8044  1.7252
  712MOL0     H98253  10.510   5.394   2.168  0.3020 -0.7726  1.0021
  712MOL0     H98254  10.546   5.616   2.444 -0.1542 -1.7528  1.2742
  712MOL0     H98255  10.405   5.666   2.355  1.0108  1.8261  1.7689
  712MOL0     H98256  10.453   5.489   2.371  0.6168  0.1951  2.4057
  713MOL0     O98257   3.477   4.907  10.136  0.0302  0.7569  0.4849
  713MOL0     C98258   3.444   4.788  10.144  0.0919 -0.0145  0.8655
  713MOL0     O98259   3.528   4.685  10.137 -0.0863  0.1463 -0.7644
  713MOL0     C98260   3.662   4.717  10.160  0.4873  0.7849 -0.0703
  713MOL0     C98261   3.718   4.656  10.271  0.0828  0.0312  0.0319
  713MOL0     C98262   3.847   4.682  10.310 -0.4571 -0.3597 -0.9775
  713MOL0     C98263   3.929   4.771  10.239  0.0830  0.5905  0.6276
  713MOL0     O98264   4.059   4.781  10.288 -0.2800 -0.7574  0.7642
  713MOL0     C98265   4.146   4.887  10.242 -0.2635 -0.1504  0.6537
  713MOL0     C98266   4.227   4.829  10.130  0.1297  0.2001  0.5544
  713MOL0     C98267   4.325   4.708  10.171  0.4628 -0.7746  0.3647
  713MOL0     C98268   4.273   4.606  10.269 -0.2183  0.5237 -0.4489
  713MOL0     C98269   4.362   4.486  10.286  0.9566  0.0936 -1.2489
  713MOL0     C98270   4.287   4.377  10.373  0.1355 -0.0181 -0.3622
  713MOL0     C98271   4.350   4.241  10.382 -0.3968  1.0425 -0.2901
  713MOL0     C98272   4.264   4.140  10.452 -0.0682 -0.4157  0.6979
  713MOL0     N98273   4.164   4.070  10.378 -0.2498 -0.3230  0.3379
  713MOL0     C98274   4.034   4.108  10.331 -0.7520  0.0148 -1.1189
  713MOL0     C98275   3.979   3.990  10.293  0.6891 -1.1978  0.6281
  713MOL0     C98276   3.827   3.977  10.252 -0.1068  0.1091 -0.4047
  713MOL0     C98277   3.821   3.975  10.093  0.5295 -0.7585 -0.3892
  713MOL0     C98278   3.904   3.859  10.035  0.1494 -0.1005 -0.8183
  713MOL0     C98279   3.852   3.727  10.084 -0.5593  0.2095  0.8046
  713MOL0     O98280   3.899   3.614  10.012 -0.1644 -0.5287  0.0352
  713MOL0     C98281   4.032   3.592  10.021 -0.0995 -0.1979  0.5196
  713MOL0     C98282   4.114   3.611   9.904 -0.1521 -0.5984 -0.1435
  713MOL0     C98283   4.252   3.568   9.906 -0.0578 -1.3106  0.5667
  713MOL0     C98284   4.326   3.588   9.783  0.7333 -0.2565  0.2327
  713MOL0     C98285   4.307   3.527  10.025  0.7051 -0.4764 -0.4713
  713MOL0     C98286   4.444   3.486  10.045  0.2434 -0.0129  0.5497
  713MOL0     O98287   4.464   3.396  10.145  1.4637  0.1455  0.6194
  713MOL0     C98288   4.581   3.339  10.164  0.1467  0.3686  0.3941
  713MOL0     C98289   4.567   3.226  10.243  0.0671  0.0879 -0.3217
  713MOL0     C98290   4.673   3.139  10.263 -0.7343  1.2835 -0.0587
  713MOL0     C98291   4.806   3.167  10.225  0.2215  0.1574 -0.4781
  713MOL0     O98292   4.901   3.070  10.253  0.1502  0.5227  1.2102
  713MOL0     C98293   5.027   3.102  10.307 -1.0504  0.1557 -0.9675
  713MOL0     C98294   5.150   3.118  10.204 -0.4312  0.7679  0.0993
  713MOL0     C98295   5.243   2.991  10.201 -1.0480 -0.8242  0.5492
  713MOL0     C98296   5.387   3.018  10.138  0.0353 -0.1050  1.5174
  713MOL0     C98297   5.478   2.902  10.103  0.2321 -0.2889 -0.0811
  713MOL0     C98298   5.482   2.792  10.213  1.1827 -0.6622 -0.0935
  713MOL0     C98299   5.390   2.673  10.177 -0.0738  0.5057 -0.2737
  713MOL0     C98300   5.398   2.564  10.289 -0.1584  0.0703  0.7913
  713MOL0    Cl98301   5.327   2.646  10.423  0.0738  0.3556 -0.0087
  713MOL0     C98302   4.829   3.287  10.166  0.2409  0.2186  0.1840
  713MOL0     C98303   4.715   3.368  10.125 -0.5602 -0.2530 -0.4786
  713MOL0     O98304   4.525   3.540   9.970 -0.6458 -0.7599  0.2555
  713MOL0     C98305   4.232   3.525  10.141  0.4746 -0.5103 -0.3564
  713MOL0     C98306   4.092   3.544  10.132  0.3800  0.5975  0.4280
  713MOL0     N98307   4.058   3.879  10.320 -0.2265 -0.4314 -0.2123
  713MOL0     N98308   4.175   3.932  10.355  0.6051  0.4764  0.9226
  713MOL0     C98309   3.876   4.828  10.117  0.2445  0.5685 -0.1880
  713MOL0     C98310   3.743   4.800  10.079 -0.5377 -0.2693  0.1764
  713MOL0     C98311   3.310   4.760  10.167 -0.4178  0.1601 -0.5512
  713MOL0     C98312   3.284   4.632  10.222 -0.0574  0.4803  0.1352
  713MOL0     C98313   3.153   4.597  10.249  0.3222 -0.2468 -0.0660
  713MOL0     C98314   3.043   4.689  10.232  0.6848  0.7475  0.5602
  713MOL0     O98315   2.914   4.667  10.287  0.4333 -0.0256  0.7396
  713MOL0     C98316   2.867   4.535  10.327  0.6233  0.1430  0.2048
  713MOL0     C98317   2.716   4.530  10.376  0.3656 -0.1300  1.1688
  713MOL0     C98318   2.653   4.402  10.348  0.2803  0.5187  0.2798
  713MOL0     C98319   2.583   4.390  10.210 -0.0649  0.3822 -0.5548
  713MOL0     C98320   2.456   4.465  10.201 -0.3218  0.0650 -0.2797
  713MOL0     C98321   2.352   4.509  10.163 -0.6444 -1.3914 -0.7347
  713MOL0     C98322   3.067   4.794  10.157  0.0846 -0.8429 -0.8061
  713MOL0     C98323   3.202   4.839  10.135 -0.4132  0.3873  0.3047
  713MOL0     C98324   3.212   4.974  10.067 -0.3311 -0.3356  0.8232
  713MOL0     H98325   3.648   4.597  10.329  1.2403  0.9886  2.5132
  713MOL0     H98326   3.897   4.632  10.392 -1.8604 -4.0754 -2.1692
  713MOL0     H98327   4.212   4.918  10.324  3.6794 -2.7531 -1.2341
  713MOL0     H98328   4.090   4.974  10.207  2.7520  2.3688  1.6075
  713MOL0     H98329   4.161   4.788  10.054 -2.0141  0.3201  2.2540
  713MOL0     H98330   4.283   4.921  10.110  0.5522 -0.1124  0.2957
  713MOL0     H98331   4.343   4.651  10.079  0.4788  0.0897 -0.1728
  713MOL0     H98332   4.421   4.749  10.202  1.4094 -0.4638 -2.6573
  713MOL0     H98333   4.256   4.654  10.366  0.4136  2.8188 -1.3851
  713MOL0     H98334   4.178   4.573  10.225 -0.0792  0.6628 -0.8660
  713MOL0     H98335   4.449   4.507  10.349 -0.9955 -2.1951  2.5494
  713MOL0     H98336   4.392   4.457  10.185 -0.5456  1.4905 -2.1449
  713MOL0     H98337   4.288   4.400  10.480  1.4644 -1.1319 -0.1032
  713MOL0     H98338   4.180   4.371  10.350  0.4535 -1.0184 -1.7350
  713MOL0     H98339   4.455   4.244  10.413 -0.3510  2.8866 -0.5153
  713MOL0     H98340   4.360   4.199  10.281 -0.3529 -1.4624  0.6798
  713MOL0     H98341   4.331   4.065  10.497  0.4017 -0.5660 -0.2361
  713MOL0     H98342   4.220   4.189  10.540  0.8458  0.2233  0.8138
  713MOL0     H98343   3.995   4.209  10.320 -3.1704 -0.8448 -0.9897
  713MOL0     H98344   3.776   4.068  10.284  2.5906  1.2814  0.8577
  713MOL0     H98345   3.784   3.888  10.299  1.4935 -0.1174  0.7223
  713MOL0     H98346   3.716   3.975  10.061  0.5093  0.3667 -0.3772
  713MOL0     H98347   3.854   4.072  10.056 -0.1619 -0.4075 -0.1192
  713MOL0     H98348   3.896   3.872   9.927 -2.1324  0.7279 -0.5920
  713MOL0     H98349   4.008   3.890  10.051 -0.5344  2.3841 -0.7028
  713MOL0     H98350   3.882   3.714  10.189  0.9795 -1.8464  0.1766
  713MOL0     H98351   3.743   3.731  10.072 -0.5456 -1.9979 -0.4416
  713MOL0     H98352   4.063   3.652   9.818 -1.1580 -1.4725  0.0116
  713MOL0     H98353   4.394   3.673   9.795 -1.4328  1.1288  4.8223
  713MOL0     H98354   4.260   3.596   9.695  2.8332 -0.7431 -1.4792
  713MOL0     H98355   4.384   3.499   9.756 -0.2470 -0.6452 -0.6899
  713MOL0     H98356   4.470   3.221  10.293  0.3512  1.0161  0.3592
  713MOL0     H98357   4.662   3.050  10.323 -0.6835 -0.5818 -2.6171
  713MOL0     H98358   5.016   3.198  10.358  0.5101  0.6303 -1.4793
  713MOL0     H98359   5.057   3.041  10.393  2.1082  2.6474 -0.0931
  713MOL0     H98360   5.110   3.140  10.105  0.7980  3.0902  0.0512
  713MOL0     H98361   5.204   3.203  10.248 -1.5871  0.1418  2.9217
  713MOL0     H98362   5.201   2.924  10.125 -0.7566 -0.4324  0.0416
  713MOL0     H98363   5.260   2.950  10.301  0.1788  2.2669  1.7371
  713MOL0     H98364   5.447   3.088  10.199  2.2897  0.8117 -1.4890
  713MOL0     H98365   5.377   3.083  10.051 -0.9415  0.1684  1.8222
  713MOL0     H98366   5.461   2.860  10.004 -1.2502 -1.7759  0.7561
  713MOL0     H98367   5.573   2.956  10.107 -0.6565  1.2465  1.9881
  713MOL0     H98368   5.467   2.831  10.314 -0.5082 -1.9060  0.1698
  713MOL0     H98369   5.586   2.761  10.224  1.9016  1.5092 -0.2868
  713MOL0     H98370   5.425   2.633  10.081  0.2849 -0.9824  0.4397
  713MOL0     H98371   5.295   2.725  10.159  1.3002  3.3575  0.0894
  713MOL0     H98372   5.501   2.531  10.310  1.1611  1.2281 -3.0021
  713MOL0     H98373   5.346   2.478  10.247  0.5157 -0.5025  1.0934
  713MOL0     H98374   4.926   3.327  10.139  0.0208  0.6101 -0.0307
  713MOL0     H98375   4.735   3.464  10.078 -1.0760  0.4455  0.6878
  713MOL0     H98376   4.254   3.502  10.244 -0.6905  2.3814  0.6341
  713MOL0     H98377   4.033   3.498  10.211 -0.0011 -2.9392 -1.7141
  713MOL0     H98378   3.933   4.894  10.053 -2.5569  1.0586 -2.3900
  713MOL0     H98379   3.699   4.842   9.990 -1.1645  1.8136  1.3986
  713MOL0     H98380   3.361   4.556  10.227  0.7304  1.1958 -0.7771
  713MOL0     H98381   3.137   4.498  10.291  0.0293  0.6709  2.0657
  713MOL0     H98382   2.876   4.461  10.247 -1.7821  1.6265 -1.6058
  713MOL0     H98383   2.934   4.499  10.405 -1.1573  0.9695  2.1897
  713MOL0     H98384   2.643   4.604  10.342 -2.4019 -3.0946  0.1302
  713MOL0     H98385   2.725   4.523  10.485  1.2765  0.0021  1.1109
  713MOL0     H98386   2.735   4.330  10.353  1.0293  1.4231  2.7788
  713MOL0     H98387   2.580   4.382  10.427  0.6125  0.9723  0.7145
  713MOL0     H98388   2.573   4.285  10.181  2.1278 -0.5482  1.7796
  713MOL0     H98389   2.639   4.448  10.136  1.8709  1.0347  1.3359
  713MOL0     H98390   2.264   4.556  10.125  1.0445  2.2775 -0.5916
  713MOL0     H98391   2.987   4.865  10.139  0.2645 -0.5475 -0.4504
  713MOL0     H98392   3.291   5.042  10.098  0.2506  0.7145 -2.5343
  713MOL0     H98393   3.241   4.946   9.965  1.0471 -0.1981  1.1607
  713MOL0     H98394   3.112   5.019  10.071  0.3153  1.0682  3.2739
  714MOL0     O98395  10.135   6.027   6.980  0.4025 -0.4280 -0.7395
  714MOL0     C98396  10.158   6.126   6.912 -0.3153 -0.3661  0.5333
  714MOL0     O98397  10.075   6.229   6.901 -0.6340  0.2442  0.2994
  714MOL0     C98398   9.942   6.233   6.940 -1.2684  0.6150  0.7769
  714MOL0     C98399   9.864   6.321   6.877 -0.5914  0.2313 -0.2209
  714MOL0     C98400   9.733   6.325   6.906  0.4142  1.2561 -0.1094
  714MOL0     C98401   9.669   6.259   7.008 -0.0678 -0.3774 -0.3201
  714MOL0     O98402   9.536   6.283   7.020  0.5196 -0.1578  1.0431
  714MOL0     C98403   9.498   6.281   7.157  0.1454  0.1726 -0.5438
  714MOL0     C98404   9.362   6.346   7.167  1.0847 -0.4987 -1.1378
  714MOL0     C98405   9.309   6.367   7.311 -0.1049  0.1592  0.2050
  714MOL0     C98406   9.176   6.446   7.327  0.0738  0.6039 -0.4980
  714MOL0     C98407   9.073   6.427   7.220 -0.7795  0.1109  0.3871
  714MOL0     C98408   8.945   6.513   7.240 -0.1348  0.2551 -0.7265
  714MOL0     C98409   8.947   6.645   7.165  0.3277 -0.9273  0.2844
  714MOL0     C98410   8.904   6.760   7.245 -0.6708  0.1792 -0.8657
  714MOL0     N98411   9.011   6.796   7.336  0.7855  0.3963  0.9723
  714MOL0     C98412   9.146   6.833   7.303 -0.2411  0.8634  1.1872
  714MOL0     C98413   9.185   6.868   7.424 -0.0906 -0.6685 -0.2083
  714MOL0     C98414   9.332   6.903   7.447 -0.2355 -0.2177  0.2382
  714MOL0     C98415   9.408   6.771   7.484 -0.4690  0.4294  0.7509
  714MOL0     C98416   9.561   6.803   7.503 -0.5611 -0.2560  0.2719
  714MOL0     C98417   9.642   6.667   7.508  0.0109  0.1276 -0.0919
  714MOL0     O98418   9.629   6.603   7.639 -0.2376 -0.3632 -0.3985
  714MOL0     C98419   9.666   6.472   7.650 -0.4911 -0.5129  0.1883
  714MOL0     C98420   9.738   6.400   7.545  0.2343  0.5037  0.5170
  714MOL0     C98421   9.791   6.274   7.566 -0.8820 -1.1554  0.4739
  714MOL0     C98422   9.869   6.201   7.457 -0.3325 -0.4183 -0.0605
  714MOL0     C98423   9.774   6.221   7.694  0.1074 -0.1496  0.0785
  714MOL0     C98424   9.856   6.110   7.755 -0.3910  0.0444  0.4679
  714MOL0     O98425   9.974   6.078   7.694  0.1064  0.5289  0.4416
  714MOL0     C98426  10.062   5.997   7.748 -0.0515  0.9253  0.2504
  714MOL0     C98427  10.092   5.989   7.879  0.1042 -0.4097 -0.1242
  714MOL0     C98428  10.199   5.913   7.922 -0.0355 -0.1392 -0.0033
  714MOL0     C98429  10.270   5.830   7.839 -0.1910  0.6623 -0.3050
  714MOL0     O98430  10.391   5.776   7.877 -0.4032 -0.4138  0.4851
  714MOL0     C98431  10.496   5.836   7.806 -1.3869 -0.2717  0.2291
  714MOL0     C98432  10.620   5.830   7.891 -0.9342 -0.1696  0.3456
  714MOL0     C98433  10.725   5.933   7.853  0.4997  0.4237  0.2023
  714MOL0     C98434  10.823   5.903   7.730  0.4481 -0.5210  0.2433
  714MOL0     C98435  10.948   5.819   7.768 -0.9878 -0.8542 -0.2703
  714MOL0     C98436  11.049   5.789   7.649  0.8249 -0.1097 -0.4050
  714MOL0     C98437  11.170   5.708   7.694 -0.0576 -0.0554 -0.0710
  714MOL0     C98438  11.291   5.796   7.720  0.2489 -0.4550 -0.8209
  714MOL0    Cl98439  11.350   5.854   7.563  0.0910 -0.3212 -0.2118
  714MOL0     C98440  10.226   5.821   7.705 -0.7526  0.6067 -0.7932
  714MOL0     C98441  10.131   5.915   7.657 -0.1354 -0.4168  0.3424
  714MOL0     O98442   9.796   6.046   7.843  0.2428  0.3049  0.1799
  714MOL0     C98443   9.683   6.278   7.783 -0.2292 -0.5677 -0.4630
  714MOL0     C98444   9.630   6.403   7.759  0.3007  0.6475 -0.4504
  714MOL0     N98445   9.099   6.861   7.525  0.2975 -0.8139 -0.2135
  714MOL0     N98446   8.989   6.803   7.468 -0.5453 -0.1409 -0.1004
  714MOL0     C98447   9.752   6.178   7.083 -0.0028  0.0845 -0.2347
  714MOL0     C98448   9.886   6.161   7.046  0.4682  0.6803  0.9386
  714MOL0     C98449  10.284   6.122   6.822 -0.3254 -0.0043 -0.9572
  714MOL0     C98450  10.378   6.021   6.856  0.8672 -0.1457 -0.2886
  714MOL0     C98451  10.499   6.020   6.786 -0.1127  0.0449  0.2260
  714MOL0     C98452  10.536   6.116   6.694 -0.9693  0.4341  1.0781
  714MOL0     O98453  10.662   6.112   6.639  0.0115 -0.2160  0.0715
  714MOL0     C98454  10.670   6.093   6.498  0.3232  0.1413 -0.1150
  714MOL0     C98455  10.667   5.951   6.458  0.4730  0.0078  0.2921
  714MOL0     C98456  10.781   5.874   6.518 -0.1078  0.0781  0.4399
  714MOL0     C98457  10.829   5.734   6.450  0.6853 -0.4533  0.5622
  714MOL0     C98458  10.725   5.628   6.475  1.4280 -0.8397 -0.0693
  714MOL0     C98459  10.648   5.538   6.492 -0.0250  0.6663  1.0852
  714MOL0     C98460  10.439   6.213   6.659  0.2253  0.3583  0.6564
  714MOL0     C98461  10.310   6.211   6.712  0.4348 -0.2945 -0.3898
  714MOL0     C98462  10.211   6.307   6.655 -0.1534  0.6607 -0.5711
  714MOL0     H98463   9.897   6.387   6.797 -2.1772  1.1119 -0.2072
  714MOL0     H98464   9.681   6.391   6.837  0.6837  0.2213 -1.3446
  714MOL0     H98465   9.574   6.336   7.213 -0.4563 -2.2729  2.9799
  714MOL0     H98466   9.488   6.181   7.199  0.3978  0.6185  0.6073
  714MOL0     H98467   9.352   6.438   7.109  0.8361  0.8823  0.9692
  714MOL0     H98468   9.301   6.276   7.109 -2.6465  1.7294 -0.2257
  714MOL0     H98469   9.293   6.273   7.366  0.6201  0.0511  0.2425
  714MOL0     H98470   9.390   6.419   7.362 -1.5588  0.3774  2.4937
  714MOL0     H98471   9.129   6.412   7.420  1.0911  3.6114  1.2670
  714MOL0     H98472   9.184   6.556   7.328 -0.0258  0.6195  0.6592
  714MOL0     H98473   9.037   6.324   7.225 -1.1007  0.1012 -1.3668
  714MOL0     H98474   9.118   6.441   7.121  2.6427  2.8754  2.1210
  714MOL0     H98475   8.860   6.454   7.203  2.0313 -1.8109 -2.7851
  714MOL0     H98476   8.941   6.519   7.349 -4.5219 -2.7643 -0.4862
  714MOL0     H98477   8.878   6.632   7.082 -0.0152  1.1430  0.1975
  714MOL0     H98478   9.041   6.676   7.118 -0.5623  1.1260 -0.2320
  714MOL0     H98479   8.884   6.847   7.183  1.0958  1.2331 -0.0516
  714MOL0     H98480   8.815   6.733   7.303 -0.5985  1.3968 -0.1444
  714MOL0     H98481   9.199   6.814   7.211 -2.1510 -1.3412  0.4465
  714MOL0     H98482   9.335   6.966   7.537 -1.9357 -1.4025  1.1529
  714MOL0     H98483   9.376   6.951   7.359 -0.3374  0.5538  0.6001
  714MOL0     H98484   9.368   6.737   7.580 -1.3911  1.4888  0.7589
  714MOL0     H98485   9.381   6.695   7.409 -4.2146  2.0243  0.2527
  714MOL0     H98486   9.608   6.860   7.423  1.5956 -1.7638  0.3695
  714MOL0     H98487   9.567   6.859   7.596 -0.6731 -0.1009  0.1848
  714MOL0     H98488   9.615   6.602   7.423  2.6569  0.2504 -1.1297
  714MOL0     H98489   9.750   6.683   7.499  0.2340 -0.5511  1.1005
  714MOL0     H98490   9.776   6.455   7.460  3.7679 -2.0182  0.2195
  714MOL0     H98491   9.835   6.225   7.356 -0.7706  1.4639  0.4939
  714MOL0     H98492   9.860   6.093   7.467  0.0547 -0.2921  2.0757
  714MOL0     H98493   9.973   6.234   7.463 -0.2471 -0.5046 -0.9284
  714MOL0     H98494  10.039   6.043   7.957  0.3574 -3.8512  2.7153
  714MOL0     H98495  10.234   5.946   8.020 -0.1299  2.0657 -0.6515
  714MOL0     H98496  10.507   5.767   7.722  1.0915 -0.1269  0.3479
  714MOL0     H98497  10.473   5.933   7.761 -1.0414 -0.4362 -0.3106
  714MOL0     H98498  10.586   5.868   7.988  1.1990  1.3784  0.5697
  714MOL0     H98499  10.649   5.725   7.890  1.1008  0.3073  1.9918
  714MOL0     H98500  10.796   5.945   7.935 -1.3940  0.3833  1.9276
  714MOL0     H98501  10.681   6.033   7.841  1.2749  0.6954 -0.4731
  714MOL0     H98502  10.869   5.995   7.691  0.9811 -1.2553 -0.9177
  714MOL0     H98503  10.774   5.860   7.642  0.0970 -0.1964  0.2748
  714MOL0     H98504  10.999   5.879   7.844  0.0455 -1.9056 -0.1099
  714MOL0     H98505  10.922   5.727   7.822 -1.2784  0.7169  2.4946
  714MOL0     H98506  11.074   5.880   7.593  3.6537  0.4392  1.5023
  714MOL0     H98507  10.987   5.735   7.578  0.8755  2.1605 -2.3195
  714MOL0     H98508  11.199   5.646   7.608 -1.8070  1.7824 -2.1074
  714MOL0     H98509  11.154   5.638   7.777 -0.8621 -1.0835 -1.0583
  714MOL0     H98510  11.371   5.728   7.751  0.5234  0.1339 -0.2292
  714MOL0     H98511  11.268   5.874   7.793 -1.2220 -2.8079  1.3915
  714MOL0     H98512  10.284   5.756   7.640 -4.1286 -2.9312 -0.6402
  714MOL0     H98513  10.113   5.924   7.551 -3.1766  2.1125  0.9117
  714MOL0     H98514   9.666   6.235   7.882 -1.0147  2.3889  0.8124
  714MOL0     H98515   9.581   6.458   7.838  0.0140 -0.3889  0.1172
  714MOL0     H98516   9.700   6.119   7.158  0.9499  0.9944  1.2087
  714MOL0     H98517   9.946   6.085   7.096  4.6932 -0.4094 -4.7337
  714MOL0     H98518  10.363   5.971   6.951 -1.9694  1.0773 -0.0120
  714MOL0     H98519  10.563   5.940   6.820 -0.3914 -0.3476 -0.1673
  714MOL0     H98520  10.589   6.145   6.446  1.7740  1.8704 -0.7651
  714MOL0     H98521  10.764   6.138   6.464  0.4393  0.0417  0.0695
  714MOL0     H98522  10.660   5.952   6.349  1.2152 -2.2573  0.1788
  714MOL0     H98523  10.576   5.903   6.494 -2.6419  4.4056 -0.8025
  714MOL0     H98524  10.872   5.932   6.505  0.2955 -0.8833 -1.3849
  714MOL0     H98525  10.764   5.848   6.623  0.9325 -1.5894  0.2340
  714MOL0     H98526  10.930   5.720   6.488  1.8721  2.5977 -1.0789
  714MOL0     H98527  10.827   5.733   6.340 -1.3285 -0.5571  0.5530
  714MOL0     H98528  10.571   5.467   6.511 -0.8180  1.9171  2.8310
  714MOL0     H98529  10.476   6.290   6.593 -2.0749  0.6683 -0.3581
  714MOL0     H98530  10.114   6.259   6.643  1.8646 -3.2625 -3.9531
  714MOL0     H98531  10.209   6.399   6.714 -0.2620  0.9093 -0.9666
  714MOL0     H98532  10.226   6.318   6.548 -1.6716 -0.1088 -0.8785
  715MOL0     O98533   8.482   1.949   7.246 -0.0857 -0.3930  1.3768
  715MOL0     C98534   8.503   2.064   7.204 -0.1472 -0.5826 -0.4516
  715MOL0     O98535   8.435   2.179   7.228  0.7702  0.1080 -0.2525
  715MOL0     C98536   8.314   2.155   7.264  0.9578  0.0507 -1.8054
  715MOL0     C98537   8.226   2.121   7.166 -0.5511  0.3713  0.1786
  715MOL0     C98538   8.096   2.069   7.193 -1.0921 -0.0681  0.5076
  715MOL0     C98539   8.054   2.061   7.329 -0.4478  0.8928 -0.2442
  715MOL0     O98540   7.930   2.007   7.362  0.2637 -0.2614  1.0648
  715MOL0     C98541   7.912   1.954   7.496  1.0887 -0.4824  0.4700
  715MOL0     C98542   7.759   1.928   7.520 -0.2796  0.6008  0.0533
  715MOL0     C98543   7.726   1.915   7.667 -0.6068 -0.5240  0.3289
  715MOL0     C98544   7.569   1.901   7.677  0.7753 -0.2745 -0.0755
  715MOL0     C98545   7.510   1.892   7.822 -0.9035  0.6999  0.7913
  715MOL0     C98546   7.545   2.008   7.915 -0.4786  0.6651  1.1969
  715MOL0     C98547   7.474   2.150   7.896  0.6676 -0.2526 -0.3229
  715MOL0     C98548   7.555   2.274   7.919 -0.6116  0.4053  0.1798
  715MOL0     N98549   7.653   2.288   7.813 -0.2035  0.0459  0.0053
  715MOL0     C98550   7.623   2.344   7.695  0.2187  0.1195 -0.0937
  715MOL0     C98551   7.741   2.358   7.627  0.2653  0.5473 -0.7667
  715MOL0     C98552   7.774   2.412   7.491 -0.7391 -0.6857  0.5667
  715MOL0     C98553   7.727   2.334   7.368  1.0916  0.4058  0.4797
  715MOL0     C98554   7.828   2.337   7.244  0.2561 -0.0994 -0.5735
  715MOL0     C98555   7.797   2.282   7.105  0.6401 -0.4068 -0.1269
  715MOL0     O98556   7.918   2.295   7.028  0.0615 -0.0494 -1.1743
  715MOL0     C98557   7.931   2.273   6.897  0.3905 -0.1059  0.3332
  715MOL0     C98558   7.826   2.240   6.810 -0.5778  0.2532  0.5177
  715MOL0     C98559   7.859   2.192   6.677 -0.8164  0.8004 -0.2101
  715MOL0     C98560   7.745   2.148   6.595 -0.7388  0.7163 -0.4439
  715MOL0     C98561   7.995   2.197   6.629 -0.5570  0.3905  0.6726
  715MOL0     C98562   8.055   2.145   6.509  0.7221  0.8445 -0.8338
  715MOL0     O98563   8.186   2.181   6.478 -0.6252 -0.2419  0.3756
  715MOL0     C98564   8.250   2.150   6.356 -0.1696  0.5802 -0.3860
  715MOL0     C98565   8.372   2.218   6.350  0.4315 -0.1993  0.6196
  715MOL0     C98566   8.459   2.192   6.240  0.0965  0.5430 -0.5558
  715MOL0     C98567   8.423   2.083   6.156 -1.0648 -0.1668 -0.5272
  715MOL0     O98568   8.506   2.054   6.052 -0.7806  0.0201 -0.1911
  715MOL0     C98569   8.559   2.167   5.975  0.0363 -0.7358  0.1226
  715MOL0     C98570   8.577   2.127   5.833  0.1383  0.1220  0.0515
  715MOL0     C98571   8.674   2.010   5.814 -0.6166 -0.5890  0.2825
  715MOL0     C98572   8.685   1.956   5.662  0.4073 -0.1295 -0.3725
  715MOL0     C98573   8.794   2.036   5.582 -0.8260  0.0252 -0.8742
  715MOL0     C98574   8.770   1.997   5.436 -0.2980 -0.1637 -0.1432
  715MOL0     C98575   8.897   2.052   5.367  0.5071  0.4430 -0.4208
  715MOL0     C98576   8.887   2.066   5.218 -0.1086 -1.5436 -0.2665
  715MOL0    Cl98577   8.942   1.925   5.123  0.1787 -0.3059 -0.3780
  715MOL0     C98578   8.299   2.016   6.161 -0.9663 -0.5070  0.1581
  715MOL0     C98579   8.216   2.054   6.263  0.2027 -0.1596  0.0699
  715MOL0     O98580   7.987   2.074   6.437 -0.2711 -0.3698 -0.2182
  715MOL0     C98581   8.097   2.251   6.720  0.2144  0.0864  0.3496
  715MOL0     C98582   8.059   2.284   6.850 -0.5960 -0.8211  0.3963
  715MOL0     N98583   7.839   2.296   7.712  0.1957 -0.8185 -0.3512
  715MOL0     N98584   7.785   2.265   7.821  0.1292  1.0797  0.4635
  715MOL0     C98585   8.147   2.104   7.429  1.0392 -0.4473  1.2021
  715MOL0     C98586   8.271   2.144   7.395  0.0183 -0.2169  0.5270
  715MOL0     C98587   8.623   2.084   7.119 -0.2945  1.1744  0.3715
  715MOL0     C98588   8.749   2.120   7.174 -0.1403  0.1442  0.5049
  715MOL0     C98589   8.856   2.166   7.095  1.6111  0.3928  0.3614
  715MOL0     C98590   8.846   2.161   6.953 -0.0398 -0.5671 -0.1761
  715MOL0     O98591   8.963   2.205   6.893 -0.1520 -0.2735 -0.2280
  715MOL0     C98592   8.947   2.242   6.758  0.3774 -0.0912 -0.5924
  715MOL0     C98593   9.084   2.278   6.684  0.3067  0.4555 -0.8558
  715MOL0     C98594   9.159   2.397   6.759 -0.1554 -1.0749  0.8782
  715MOL0     C98595   9.248   2.498   6.696 -0.0122  0.5287  0.1896
  715MOL0     C98596   9.191   2.555   6.577  0.5928  1.2213  0.0335
  715MOL0     C98597   9.131   2.608   6.491  0.2729 -0.1041  0.3332
  715MOL0     C98598   8.718   2.119   6.897 -0.9429 -0.2177  0.1717
  715MOL0     C98599   8.606   2.084   6.976 -1.2316  0.0727 -0.9486
  715MOL0     C98600   8.478   2.032   6.912  0.0545  0.0081  0.4587
  715MOL0     H98601   8.256   2.130   7.062 -0.8266  2.2490  0.2400
  715MOL0     H98602   8.033   2.029   7.114  2.6013 -4.2125 -0.7333
  715MOL0     H98603   7.945   2.021   7.575 -0.1814  1.3620 -0.4895
  715MOL0     H98604   7.975   1.864   7.504  2.3693  0.3170 -0.2360
  715MOL0     H98605   7.701   2.010   7.478 -1.1794  0.4089  0.8959
  715MOL0     H98606   7.745   1.831   7.472  2.0430 -0.1778  0.7863
  715MOL0     H98607   7.775   1.834   7.721 -0.2817 -0.9066 -0.5124
  715MOL0     H98608   7.757   2.004   7.723  4.0548 -1.0694 -0.9146
  715MOL0     H98609   7.524   1.994   7.641  1.9796  2.1447  4.0688
  715MOL0     H98610   7.536   1.814   7.618 -2.1535  0.4794  0.2588
  715MOL0     H98611   7.551   1.801   7.866  3.2521  0.5031 -2.8625
  715MOL0     H98612   7.401   1.889   7.810 -0.8613 -2.0626  0.5544
  715MOL0     H98613   7.527   1.970   8.016  0.1246 -2.9429  0.0814
  715MOL0     H98614   7.652   2.026   7.901  0.1810 -0.9625  3.5047
  715MOL0     H98615   7.387   2.160   7.961 -0.2385  1.5665 -1.7234
  715MOL0     H98616   7.435   2.156   7.794  1.9098  0.1895 -0.7992
  715MOL0     H98617   7.498   2.367   7.922  1.5045  1.7385  3.2245
  715MOL0     H98618   7.602   2.259   8.016  0.6257  4.7123  0.4355
  715MOL0     H98619   7.527   2.379   7.660  0.5653  0.8294 -0.3417
  715MOL0     H98620   7.882   2.426   7.485 -1.0750  2.4579 -4.9399
  715MOL0     H98621   7.724   2.508   7.478  0.5422 -0.2395 -1.4994
  715MOL0     H98622   7.701   2.233   7.400  0.5551  0.2975 -0.2702
  715MOL0     H98623   7.629   2.375   7.342  0.8292  0.4548  1.5153
  715MOL0     H98624   7.864   2.438   7.221  5.3181 -1.4317  0.2900
  715MOL0     H98625   7.917   2.282   7.276  2.0961  2.3925 -1.0982
  715MOL0     H98626   7.783   2.173   7.112  0.0782 -0.3333 -0.0541
  715MOL0     H98627   7.714   2.341   7.065  2.3111  0.9005 -1.8151
  715MOL0     H98628   7.729   2.235   6.859  0.3001  0.0201  2.3288
  715MOL0     H98629   7.651   2.191   6.631 -1.2292 -1.1919  0.6573
  715MOL0     H98630   7.740   2.040   6.604  2.2470  0.5572  0.2519
  715MOL0     H98631   7.747   2.177   6.489 -1.7931 -1.3508 -1.0755
  715MOL0     H98632   8.421   2.279   6.425  3.0615 -1.7828  0.3126
  715MOL0     H98633   8.558   2.235   6.233  0.8627 -0.9362  0.5927
  715MOL0     H98634   8.478   2.240   5.975  0.2216 -0.4797  1.8222
  715MOL0     H98635   8.651   2.206   6.020 -0.0494 -1.1581  0.6760
  715MOL0     H98636   8.483   2.104   5.782  0.0468  1.3088 -0.3458
  715MOL0     H98637   8.626   2.213   5.787  0.8712  1.5740  3.2731
  715MOL0     H98638   8.645   1.927   5.879 -7.1533  0.4540 -0.5965
  715MOL0     H98639   8.773   2.034   5.854 -1.4539  1.1783  1.4315
  715MOL0     H98640   8.592   1.962   5.605  0.0057  1.2789  0.3907
  715MOL0     H98641   8.710   1.850   5.656 -2.8171 -0.9198 -2.8421
  715MOL0     H98642   8.791   2.145   5.594  1.6374  0.0066  0.8525
  715MOL0     H98643   8.895   2.008   5.614 -1.3746 -0.5783  0.3614
  715MOL0     H98644   8.686   2.052   5.392  0.9777  0.7406 -1.5266
  715MOL0     H98645   8.756   1.891   5.414  3.7920 -1.3566  2.0260
  715MOL0     H98646   8.983   1.985   5.373  1.6242  1.8808  0.3667
  715MOL0     H98647   8.945   2.135   5.419  1.0022 -2.0768  3.4997
  715MOL0     H98648   8.948   2.149   5.181  0.0737 -0.1993  2.8255
  715MOL0     H98649   8.782   2.091   5.199 -0.4290 -0.3671  2.5846
  715MOL0     H98650   8.273   1.934   6.095 -5.4237 -2.7593  4.1223
  715MOL0     H98651   8.121   2.002   6.260 -0.1660 -0.3287  5.1039
  715MOL0     H98652   8.201   2.258   6.690  0.3092 -1.2579  0.2805
  715MOL0     H98653   8.133   2.326   6.918 -0.3932 -2.2796  1.1161
  715MOL0     H98654   8.107   2.105   7.530  2.1407 -0.5645  1.6648
  715MOL0     H98655   8.350   2.161   7.467  0.5804  1.7186 -0.4869
  715MOL0     H98656   8.753   2.129   7.282 -1.3890 -0.9165  0.6601
  715MOL0     H98657   8.946   2.194   7.148  1.7041  0.5822  0.1044
  715MOL0     H98658   8.907   2.154   6.708  0.4318 -2.2956  2.8781
  715MOL0     H98659   8.879   2.328   6.762 -1.8153 -1.7523 -0.5497
  715MOL0     H98660   9.074   2.294   6.577 -1.4260 -0.3205 -0.8434
  715MOL0     H98661   9.136   2.183   6.687 -2.4404 -1.1511 -0.6271
  715MOL0     H98662   9.080   2.440   6.821 -3.0067 -1.1610 -2.4087
  715MOL0     H98663   9.226   2.342   6.826 -0.8032 -1.9625  0.8255
  715MOL0     H98664   9.340   2.449   6.662  0.2035  1.2825 -0.3426
  715MOL0     H98665   9.269   2.583   6.761  2.1067  1.2749 -1.3353
  715MOL0     H98666   9.082   2.660   6.411 -0.2986 -2.8589 -1.2262
  715MOL0     H98667   8.731   2.104   6.791  1.0357 -2.3660  0.6374
  715MOL0     H98668   8.490   1.993   6.811 -1.4746  1.3281 -0.2743
  715MOL0     H98669   8.457   1.942   6.971  1.3720  0.1494  1.2016
  715MOL0     H98670   8.409   2.116   6.919 -1.3108 -0.5802 -3.5721
  716MOL0     O98671   0.627  10.997   8.059  0.3037 -0.1144  0.3188
  716MOL0     C98672   0.652  10.879   8.056  0.4272  0.4692  0.6737
  716MOL0     O98673   0.688  10.800   8.160  0.6063  0.0922 -0.1408
  716MOL0     C98674   0.703  10.861   8.281  0.0589 -0.5226 -0.8218
  716MOL0     C98675   0.820  10.934   8.315 -0.3649 -1.1876 -0.9334
  716MOL0     C98676   0.837  10.982   8.452 -0.3389  0.1844 -0.7141
  716MOL0     C98677   0.744  10.965   8.552  0.6567  0.3365  0.2828
  716MOL0     O98678   0.766  10.989   8.683  0.0615 -0.0953 -0.3212
  716MOL0     C98679   0.784  11.129   8.697 -0.2137 -0.0059 -0.2778
  716MOL0     C98680   0.835  11.157   8.843  1.1677  0.3012  0.6795
  716MOL0     C98681   0.989  11.149   8.868 -0.1996  0.8354  0.0286
  716MOL0     C98682   1.030  11.002   8.909 -0.2623 -0.1788  0.5227
  716MOL0     C98683   1.180  10.996   8.946  0.4188  0.1110 -0.2465
  716MOL0     C98684   1.283  11.001   8.840  0.7456  0.1096 -0.3755
  716MOL0     C98685   1.259  10.894   8.730 -0.1295 -0.0651 -0.2035
  716MOL0     C98686   1.380  10.885   8.631  0.1746 -0.4450  0.0479
  716MOL0     N98687   1.345  10.924   8.493  0.1198 -0.1401 -0.3434
  716MOL0     C98688   1.406  10.868   8.381 -0.1572 -0.3394 -0.4273
  716MOL0     C98689   1.386  10.949   8.276  0.4983  0.5592 -0.5607
  716MOL0     C98690   1.433  10.917   8.133 -0.1871 -0.7258  0.1055
  716MOL0     C98691   1.572  10.986   8.100 -0.1380 -0.2181 -0.0455
  716MOL0     C98692   1.631  10.937   7.970  0.8133 -1.1955  0.0597
  716MOL0     C98693   1.568  11.026   7.857 -0.2875 -0.5222 -0.2041
  716MOL0     O98694   1.595  11.166   7.868  0.0440  0.2123 -0.9111
  716MOL0     C98695   1.570  11.252   7.767  0.5354 -0.1344  0.2263
  716MOL0     C98696   1.491  11.221   7.647  0.1584 -0.7195  0.8382
  716MOL0     C98697   1.467  11.314   7.546 -0.1934 -0.2858  0.1919
  716MOL0     C98698   1.380  11.267   7.433  0.1267  0.3668  0.1202
  716MOL0     C98699   1.534  11.442   7.554 -0.3402  0.0729 -0.0820
  716MOL0     C98700   1.510  11.553   7.457 -0.7388 -0.4176  0.0870
  716MOL0     O98701   1.605  11.646   7.445 -0.0893 -0.9020 -0.6049
  716MOL0     C98702   1.583  11.732   7.336  0.7304  1.3531  0.0697
  716MOL0     C98703   1.532  11.859   7.343  0.0278 -0.4371 -0.3268
  716MOL0     C98704   1.538  11.945   7.225  0.5351  0.0782 -0.3623
  716MOL0     C98705   1.575  11.898   7.098  0.4632 -0.0673  0.6821
  716MOL0     O98706   1.587  11.979   6.983  0.2073  0.0631 -0.3276
  716MOL0     C98707   1.531  11.923   6.863  1.3403 -0.6366 -0.1347
  716MOL0     C98708   1.625  11.878   6.743 -0.3468 -0.5102 -0.0221
  716MOL0     C98709   1.740  11.962   6.733 -0.8443  0.0472  0.5013
  716MOL0     C98710   1.806  11.971   6.596  0.4253 -0.2232 -0.0349
  716MOL0     C98711   1.735  12.072   6.499  0.6414  0.1572 -0.1942
  716MOL0     C98712   1.799  12.062   6.364  0.0798  0.1620 -0.0897
  716MOL0     C98713   1.822  12.189   6.274 -0.3600  0.6190 -0.6879
  716MOL0     C98714   1.876  12.182   6.131 -0.3816  0.0674 -0.0585
  716MOL0    Cl98715   1.759  12.123   6.015 -0.2519  0.7398 -0.1555
  716MOL0     C98716   1.628  11.770   7.092 -0.0860 -0.8112 -0.4567
  716MOL0     C98717   1.640  11.694   7.216 -0.1929 -0.2386 -0.0496
  716MOL0     O98718   1.394  11.563   7.414 -0.1740 -0.7181  0.2030
  716MOL0     C98719   1.620  11.468   7.659 -0.6751  0.4817 -0.3046
  716MOL0     C98720   1.629  11.378   7.765  0.4236 -1.4261  0.2160
  716MOL0     N98721   1.336  11.063   8.329 -0.6557  0.6493 -0.1741
  716MOL0     N98722   1.306  11.049   8.451  0.0301  0.7401 -0.1176
  716MOL0     C98723   0.622  10.895   8.521 -0.4661  0.4311 -0.4811
  716MOL0     C98724   0.606  10.843   8.385  0.5164 -0.0397 -0.1637
  716MOL0     C98725   0.667  10.809   7.921  0.2615 -0.2448 -0.1673
  716MOL0     C98726   0.796  10.805   7.872 -0.5511 -0.5064  0.4163
  716MOL0     C98727   0.825  10.746   7.744 -0.3640 -0.3220 -0.7324
  716MOL0     C98728   0.722  10.688   7.674 -0.0774 -0.5026  0.6445
  716MOL0     O98729   0.761  10.608   7.570 -0.5407 -0.4819 -0.9638
  716MOL0     C98730   0.662  10.520   7.515  0.4545  0.6196  1.1621
  716MOL0     C98731   0.737  10.465   7.396 -0.4213 -0.0805  0.2210
  716MOL0     C98732   0.672  10.346   7.324 -0.3815  0.6917  0.1998
  716MOL0     C98733   0.615  10.373   7.178  0.0622  0.3088  1.0169
  716MOL0     C98734   0.578  10.240   7.121 -1.4665  0.5539  0.9547
  716MOL0     C98735   0.561  10.129   7.081 -0.5732 -0.1883  0.6329
  716MOL0     C98736   0.593  10.684   7.725 -0.2260  0.5042  0.1457
  716MOL0     C98737   0.559  10.757   7.836  0.0378  0.7918 -0.0898
  716MOL0     C98738   0.413  10.758   7.875  0.1848 -0.0041  0.3847
  716MOL0     H98739   0.902  10.947   8.246  0.8482  1.2581  0.8166
  716MOL0     H98740   0.926  11.036   8.484 -0.1205 -0.5046 -0.1388
  716MOL0     H98741   0.690  11.182   8.681  0.4645  1.4500  0.3746
  716MOL0     H98742   0.856  11.166   8.624 -1.9897 -0.1318 -2.1934
  716MOL0     H98743   0.803  11.258   8.872  0.1172  0.3275 -0.4909
  716MOL0     H98744   0.783  11.104   8.923  3.3513  0.1937  2.1023
  716MOL0     H98745   1.036  11.169   8.772 -1.1353  1.6651 -0.2735
  716MOL0     H98746   1.028  11.219   8.943 -3.5878  0.1087  2.7294
  716MOL0     H98747   0.966  10.972   8.992 -2.4435  2.0641 -0.1819
  716MOL0     H98748   1.020  10.942   8.819  1.4394  0.3737 -0.0759
  716MOL0     H98749   1.199  10.902   9.000  1.6994  0.7605  0.4829
  716MOL0     H98750   1.197  11.077   9.017 -0.8984 -1.2163  1.6984
  716MOL0     H98751   1.276  11.101   8.797 -0.1128 -0.7786 -2.4351
  716MOL0     H98752   1.379  10.989   8.891 -0.3769 -0.9661  1.6101
  716MOL0     H98753   1.167  10.915   8.675 -1.0047  0.1768  1.2932
  716MOL0     H98754   1.245  10.793   8.770 -0.7775  0.1791  0.2146
  716MOL0     H98755   1.466  10.947   8.658 -0.0586  0.3282 -0.9475
  716MOL0     H98756   1.411  10.781   8.624 -2.0300 -1.1444 -0.1937
  716MOL0     H98757   1.459  10.773   8.387 -0.6851 -0.5531  2.3463
  716MOL0     H98758   1.364  10.979   8.075  3.8824  4.3559  0.0037
  716MOL0     H98759   1.437  10.811   8.104  0.0333 -0.6688 -0.0733
  716MOL0     H98760   1.569  11.094   8.119 -3.2074  0.2900 -2.5844
  716MOL0     H98761   1.639  10.954   8.180 -1.1964  0.6593  1.2406
  716MOL0     H98762   1.740  10.945   7.980  0.9307 -0.6483 -1.4023
  716MOL0     H98763   1.619  10.829   7.956 -1.8713 -0.6338 -3.2590
  716MOL0     H98764   1.615  10.985   7.768 -0.4984 -3.9337  1.0901
  716MOL0     H98765   1.460  11.026   7.835 -0.3765  4.4853 -0.9519
  716MOL0     H98766   1.471  11.115   7.637  4.0970 -1.5624  0.4400
  716MOL0     H98767   1.434  11.188   7.380 -0.6765  0.5705 -1.0588
  716MOL0     H98768   1.356  11.352   7.369  1.1920  2.2513  2.1044
  716MOL0     H98769   1.283  11.222   7.459  0.5496 -0.3371  0.5011
  716MOL0     H98770   1.490  11.893   7.436 -0.6904  0.2907 -0.9019
  716MOL0     H98771   1.507  12.048   7.238 -1.6596 -0.4754 -0.7888
  716MOL0     H98772   1.465  11.841   6.889  0.5122  0.2691  0.6826
  716MOL0     H98773   1.472  12.000   6.813  2.0095  0.2459  0.3944
  716MOL0     H98774   1.671  11.783   6.770  2.4159  0.8675  0.5270
  716MOL0     H98775   1.575  11.878   6.646  0.6003 -0.2451 -0.5296
  716MOL0     H98776   1.814  11.921   6.803  1.0914  0.2768 -1.3176
  716MOL0     H98777   1.722  12.064   6.766 -1.1566 -0.2827  1.3980
  716MOL0     H98778   1.819  11.876   6.543 -2.8535  0.2491 -1.9138
  716MOL0     H98779   1.900  12.024   6.617 -0.7271  1.7854  0.2827
  716MOL0     H98780   1.628  12.051   6.486  0.5009  0.6521  0.1480
  716MOL0     H98781   1.732  12.175   6.535 -2.5806 -0.5023  1.8045
  716MOL0     H98782   1.733  11.992   6.311  0.3333 -2.2140  2.4830
  716MOL0     H98783   1.894  12.014   6.388 -2.0846 -3.5961  1.9652
  716MOL0     H98784   1.888  12.247   6.339  0.2481  0.1966 -0.9150
  716MOL0     H98785   1.728  12.245   6.273  0.4398  2.1447 -3.9905
  716MOL0     H98786   1.968  12.123   6.135 -0.2055  0.3652  0.3658
  716MOL0     H98787   1.900  12.285   6.102  4.3816 -0.7460  0.2996
  716MOL0     H98788   1.653  11.729   6.994  2.2062  0.8317 -0.6251
  716MOL0     H98789   1.683  11.595   7.203 -1.5382 -0.7895 -0.5830
  716MOL0     H98790   1.675  11.561   7.667 -1.4308  1.0410 -1.4335
  716MOL0     H98791   1.695  11.414   7.843 -2.4353  3.9192  0.6810
  716MOL0     H98792   0.547  10.887   8.600  0.3978 -1.8292  0.2058
  716MOL0     H98793   0.533  10.774   8.343  1.1588 -0.6625 -0.2866
  716MOL0     H98794   0.873  10.848   7.935  1.4760 -4.7202  1.2125
  716MOL0     H98795   0.927  10.734   7.708 -0.4755  0.1432 -1.2017
  716MOL0     H98796   0.637  10.431   7.573  3.8255  0.2306  2.2774
  716MOL0     H98797   0.576  10.579   7.483  0.7899 -0.0815 -1.2967
  716MOL0     H98798   0.842  10.445   7.417 -0.5602 -0.7242  0.3284
  716MOL0     H98799   0.750  10.544   7.321 -1.0164 -0.0183  0.1764
  716MOL0     H98800   0.748  10.267   7.328 -1.0055  0.1211  3.2905
  716MOL0     H98801   0.588  10.313   7.386  0.4080  2.6363  2.4385
  716MOL0     H98802   0.694  10.432   7.131 -0.7018  2.3037  2.1020
  716MOL0     H98803   0.521  10.427   7.188 -2.4305 -3.6086  0.7572
  716MOL0     H98804   0.541  10.028   7.052 -0.8245 -0.2862  1.1270
  716MOL0     H98805   0.528  10.612   7.676  0.8366 -0.4021  0.0390
  716MOL0     H98806   0.343  10.764   7.791  1.2118  0.6302 -0.4500
  716MOL0     H98807   0.394  10.673   7.941  0.0857  0.9256  1.6027
  716MOL0     H98808   0.405  10.852   7.932 -0.6540  0.2723 -0.1736
  717MOL0     O98809  10.323   3.548   8.884  0.0892  0.2839  0.4205
  717MOL0     C98810  10.390   3.452   8.911  0.2333  0.7010 -1.3487
  717MOL0     O98811  10.441   3.440   9.031  0.2955  0.1669  0.2667
  717MOL0     C98812  10.405   3.532   9.122 -0.6111 -0.8502  0.2280
  717MOL0     C98813  10.489   3.636   9.164 -1.2782  0.0018  0.1729
  717MOL0     C98814  10.446   3.723   9.260  0.7923  0.1941  0.6265
  717MOL0     C98815  10.311   3.714   9.312 -0.2696  0.3575  0.2494
  717MOL0     O98816  10.272   3.802   9.413 -0.3742  0.7865  0.8445
  717MOL0     C98817  10.158   3.783   9.493  0.2675  0.1398  0.6897
  717MOL0     C98818  10.166   3.656   9.579  0.3508  0.0836 -0.3509
  717MOL0     C98819  10.032   3.657   9.661  0.4134 -0.7206  0.1994
  717MOL0     C98820   9.911   3.644   9.567  1.4825  0.7778 -0.0999
  717MOL0     C98821   9.789   3.634   9.654 -0.2414  0.0660  0.5694
  717MOL0     C98822   9.670   3.605   9.561  0.4070 -0.0086 -0.7388
  717MOL0     C98823   9.534   3.624   9.637 -0.6020  0.0925 -0.5742
  717MOL0     C98824   9.522   3.547   9.765 -0.0557 -0.6834 -0.1698
  717MOL0     N98825   9.381   3.550   9.810 -0.5373 -0.1318  0.5618
  717MOL0     C98826   9.323   3.672   9.837  0.3747 -0.1143 -0.1591
  717MOL0     C98827   9.218   3.635   9.927 -0.9873 -0.4036  0.7897
  717MOL0     C98828   9.127   3.739   9.989 -0.5894  0.2651  0.0144
  717MOL0     C98829   9.017   3.756   9.882  0.8187  0.6271  0.0735
  717MOL0     C98830   8.900   3.847   9.926 -1.4945  0.4212 -0.2770
  717MOL0     C98831   8.946   3.987   9.964 -0.3275 -0.1073  0.2438
  717MOL0     O98832   9.043   4.048   9.879 -0.0813  0.8545  0.4253
  717MOL0     C98833   8.989   4.105   9.764  0.0230  0.1294  0.0524
  717MOL0     C98834   8.987   4.035   9.640  0.3260 -0.5641 -0.2390
  717MOL0     C98835   8.945   4.101   9.527  0.6957 -0.9840 -0.4517
  717MOL0     C98836   8.953   4.035   9.389 -1.2715  0.4234 -0.7732
  717MOL0     C98837   8.894   4.232   9.539 -0.2714 -0.2615 -0.0918
  717MOL0     C98838   8.833   4.309   9.427 -0.0136 -0.7713  0.1533
  717MOL0     O98839   8.829   4.449   9.449 -0.3082  0.0440 -0.0372
  717MOL0     C98840   8.789   4.535   9.352 -0.6083 -0.6902  0.3982
  717MOL0     C98841   8.856   4.531   9.225 -0.2774  0.2504 -0.7326
  717MOL0     C98842   8.802   4.601   9.123 -0.5050  0.0336  0.8681
  717MOL0     C98843   8.695   4.678   9.131 -0.1190 -0.3007 -0.4645
  717MOL0     O98844   8.663   4.747   9.013  0.3223  0.1465 -0.4959
  717MOL0     C98845   8.554   4.837   9.011  0.1111 -0.5411 -0.6542
  717MOL0     C98846   8.544   4.899   8.865  0.0850 -0.0435 -0.0622
  717MOL0     C98847   8.665   4.981   8.832  0.3416 -0.2924  0.2771
  717MOL0     C98848   8.644   5.061   8.712  0.5510 -0.1891  1.3460
  717MOL0     C98849   8.775   5.119   8.678 -0.4572 -0.6688 -0.4710
  717MOL0     C98850   8.785   5.188   8.532  0.3703  0.4269 -0.4211
  717MOL0     C98851   8.927   5.238   8.517  0.3493 -0.9492  0.1852
  717MOL0     C98852   8.966   5.341   8.632 -0.4172 -0.0758  0.2329
  717MOL0    Cl98853   9.114   5.420   8.584 -0.4571  0.3399  0.0603
  717MOL0     C98854   8.626   4.682   9.255 -0.2877 -0.6462  0.3305
  717MOL0     C98855   8.673   4.616   9.367 -0.3495  0.0013  0.3501
  717MOL0     O98856   8.769   4.254   9.330  0.2271  0.0835  0.3593
  717MOL0     C98857   8.894   4.300   9.669 -0.7626 -0.1532 -0.0222
  717MOL0     C98858   8.946   4.238   9.781  0.0085 -0.2727  0.2460
  717MOL0     N98859   9.214   3.496   9.946  0.2492 -0.1337 -0.6826
  717MOL0     N98860   9.316   3.459   9.883 -0.4693 -0.3597 -0.6656
  717MOL0     C98861  10.229   3.612   9.263  0.8763  0.2579 -0.2981
  717MOL0     C98862  10.277   3.514   9.189  1.2769 -0.3637 -0.2070
  717MOL0     C98863  10.404   3.344   8.817 -0.4842  0.9107  0.1218
  717MOL0     C98864  10.336   3.348   8.694  0.0555 -0.2070 -0.4177
  717MOL0     C98865  10.336   3.261   8.593  0.0975 -0.0592 -0.2302
  717MOL0     C98866  10.399   3.140   8.615 -0.0734  0.3847 -0.6011
  717MOL0     O98867  10.387   3.037   8.521  0.4299  0.5368  0.1294
  717MOL0     C98868  10.405   2.902   8.583 -0.4921 -0.5432 -1.1051
  717MOL0     C98869  10.351   2.796   8.494 -0.5911 -0.7284  0.1030
  717MOL0     C98870  10.200   2.820   8.502 -0.1453 -0.9275 -0.1728
  717MOL0     C98871  10.118   2.751   8.396  0.1115 -0.0557  0.6025
  717MOL0     C98872   9.974   2.769   8.418  0.0424  0.7879 -0.3201
  717MOL0     C98873   9.853   2.781   8.434  0.5519  0.4076  1.1332
  717MOL0     C98874  10.471   3.127   8.733 -0.7464  0.2952 -0.4695
  717MOL0     C98875  10.477   3.228   8.833  0.1542 -0.6199  0.4954
  717MOL0     C98876  10.562   3.194   8.956 -0.0892  0.3512 -0.0772
  717MOL0     H98877  10.583   3.651   9.112 -1.9858 -2.9286 -2.2928
  717MOL0     H98878  10.506   3.800   9.308 -0.5718  1.1153  0.9239
  717MOL0     H98879  10.067   3.801   9.435  1.2541  4.5328  0.0916
  717MOL0     H98880  10.149   3.874   9.553  2.5208  1.9758 -1.5012
  717MOL0     H98881  10.181   3.567   9.518  0.8495  0.8355 -1.3435
  717MOL0     H98882  10.248   3.656   9.652  0.7319  0.4718 -0.7743
  717MOL0     H98883  10.035   3.564   9.719  3.7666 -0.6336  0.3347
  717MOL0     H98884  10.011   3.746   9.722 -1.7268 -1.2354  0.2892
  717MOL0     H98885   9.892   3.723   9.494 -0.3550 -0.0046 -0.5151
  717MOL0     H98886   9.930   3.550   9.514 -1.4545  1.0735 -1.9172
  717MOL0     H98887   9.764   3.733   9.691  0.3774 -0.4550  2.5125
  717MOL0     H98888   9.790   3.573   9.745 -2.6441 -1.5339 -0.3751
  717MOL0     H98889   9.672   3.681   9.483 -4.6296  1.2941  0.0910
  717MOL0     H98890   9.687   3.507   9.514  5.3298  2.6547 -5.7569
  717MOL0     H98891   9.448   3.593   9.578 -0.4539  2.0027 -1.9064
  717MOL0     H98892   9.532   3.729   9.668  2.7419 -0.3620  1.7957
  717MOL0     H98893   9.551   3.442   9.760 -2.7851 -1.5416  0.5996
  717MOL0     H98894   9.584   3.603   9.837  1.3966  0.8875 -2.5194
  717MOL0     H98895   9.344   3.772   9.803  2.1976  0.5740  2.6801
  717MOL0     H98896   9.194   3.825   9.999 -1.0578  0.4551  1.7330
  717MOL0     H98897   9.095   3.710  10.089  4.2868  1.3553  2.2206
  717MOL0     H98898   9.051   3.781   9.781 -0.7207 -1.2672 -0.9915
  717MOL0     H98899   8.964   3.662   9.867  0.8553  0.5505  0.4124
  717MOL0     H98900   8.823   3.859   9.850  0.3795  1.5388 -2.1187
  717MOL0     H98901   8.853   3.802  10.014 -3.6679  2.0517 -0.5222
  717MOL0     H98902   8.853   4.046   9.969  1.6373  3.4529 -1.6365
  717MOL0     H98903   8.982   3.986  10.067 -0.1041 -3.6209  0.2518
  717MOL0     H98904   9.036   3.940   9.625  4.7192  1.9751 -5.8828
  717MOL0     H98905   9.003   3.937   9.390 -4.7144 -1.5961  2.1299
  717MOL0     H98906   8.990   4.113   9.323  0.8953 -0.2981 -0.4787
  717MOL0     H98907   8.849   4.014   9.363 -1.3282 -0.0357 -0.2222
  717MOL0     H98908   8.946   4.475   9.202  0.7351  1.7921 -0.6648
  717MOL0     H98909   8.860   4.601   9.031 -0.3376 -1.9743  0.9407
  717MOL0     H98910   8.460   4.796   9.050  0.4968  1.3145  2.5677
  717MOL0     H98911   8.580   4.917   9.080  1.1675 -2.9800  1.9553
  717MOL0     H98912   8.518   4.817   8.797 -5.0595  2.0580 -1.0335
  717MOL0     H98913   8.466   4.975   8.869  2.3388  2.3844  2.1225
  717MOL0     H98914   8.753   4.917   8.822  0.8816  0.3495  0.7566
  717MOL0     H98915   8.702   5.041   8.916  1.4551  1.3583 -1.2896
  717MOL0     H98916   8.569   5.138   8.731  2.9168  2.4890  0.4910
  717MOL0     H98917   8.610   5.007   8.624 -2.1780  3.9079 -0.4244
  717MOL0     H98918   8.795   5.191   8.758 -0.4063 -1.3426  0.1254
  717MOL0     H98919   8.854   5.044   8.676  3.7537  3.3256 -0.6593
  717MOL0     H98920   8.718   5.270   8.508  2.4770  1.7824 -2.0057
  717MOL0     H98921   8.760   5.114   8.455 -2.2882  1.7861 -0.9618
  717MOL0     H98922   8.937   5.288   8.420  0.4063 -2.7731 -0.7910
  717MOL0     H98923   8.992   5.150   8.521 -1.1245 -2.0509  3.2249
  717MOL0     H98924   8.984   5.301   8.733 -0.4175 -0.7674 -0.0350
  717MOL0     H98925   8.891   5.420   8.634 -3.4094 -2.6990  2.2529
  717MOL0     H98926   8.544   4.753   9.258 -0.3423 -0.6528 -0.5328
  717MOL0     H98927   8.617   4.611   9.460  0.4312  0.1923  0.8397
  717MOL0     H98928   8.863   4.403   9.683  2.4311  0.8462  0.5085
  717MOL0     H98929   8.954   4.288   9.877 -2.7215 -0.4453  0.6479
  717MOL0     H98930  10.128   3.594   9.300  0.7198 -0.7897 -1.1911
  717MOL0     H98931  10.205   3.434   9.174  0.6040  0.6774 -3.1305
  717MOL0     H98932  10.279   3.439   8.678 -0.9331 -0.4896  1.3071
  717MOL0     H98933  10.291   3.280   8.497  2.9912  1.5324 -1.4045
  717MOL0     H98934  10.511   2.880   8.595 -0.3180  0.3504 -0.9100
  717MOL0     H98935  10.356   2.900   8.681 -0.9804  4.0590 -1.0206
  717MOL0     H98936  10.374   2.699   8.539  0.2002  0.6285  2.8485
  717MOL0     H98937  10.377   2.804   8.388  0.7033 -2.3177  0.2667
  717MOL0     H98938  10.153   2.794   8.598 -0.9740  0.6886 -0.1084
  717MOL0     H98939  10.181   2.927   8.499  0.6978 -0.7594  0.2336
  717MOL0     H98940  10.142   2.646   8.413  3.3763  0.2697 -1.2315
  717MOL0     H98941  10.150   2.778   8.295 -0.9050 -1.1425 -0.0389
  717MOL0     H98942   9.746   2.773   8.443  0.6338 -2.7742  0.3893
  717MOL0     H98943  10.543   3.047   8.748 -1.9122 -0.5875  0.7156
  717MOL0     H98944  10.516   3.215   9.053 -0.9688 -2.8606  0.3283
  717MOL0     H98945  10.597   3.091   8.962 -3.2087 -0.8708 -0.7698
  717MOL0     H98946  10.654   3.250   8.940  1.5002 -2.3440 -1.1125
  718MOL0     O98947   0.895  10.735   1.227 -0.0712 -0.6785  0.1355
  718MOL0     C98948   0.878  10.812   1.130  0.4722  0.2425  1.1053
  718MOL0     O98949   0.828  10.768   1.006 -0.0227 -0.1153 -0.1280
  718MOL0     C98950   0.810  10.638   0.978 -0.6743  0.0070  0.7485
  718MOL0     C98951   0.903  10.570   0.902  0.5132  0.3700  0.4006
  718MOL0     C98952   0.892  10.434   0.871  0.3620  0.1335 -0.1064
  718MOL0     C98953   0.790  10.355   0.931  0.2467 -0.6902 -0.5883
  718MOL0     O98954   0.763  10.223   0.918 -0.5565 -0.2420  0.5539
  718MOL0     C98955   0.837  10.156   0.814 -1.1128  1.1157  0.2613
  718MOL0     C98956   0.968  10.089   0.860  0.5038  0.8403 -0.7556
  718MOL0     C98957   0.953   9.985   0.970  0.5856 -1.0871 -0.0505
  718MOL0     C98958   0.980  10.039   1.117 -0.8855  0.2675 -0.0808
  718MOL0     C98959   0.954   9.926   1.219 -0.4759  0.6696  0.1801
  718MOL0     C98960   0.808   9.869   1.232  0.1648 -0.1580  0.3578
  718MOL0     C98961   0.708   9.968   1.284  0.2790  0.0846  0.3417
  718MOL0     C98962   0.731  10.012   1.429  0.2266 -0.0474  0.0917
  718MOL0     N98963   0.691  10.158   1.443  0.1439  0.3262 -0.0792
  718MOL0     C98964   0.567  10.216   1.445  0.5347 -1.2122  0.1209
  718MOL0     C98965   0.581  10.347   1.442 -0.2244  1.4063 -1.3492
  718MOL0     C98966   0.483  10.459   1.448 -0.4916 -0.1936 -0.2312
  718MOL0     C98967   0.493  10.560   1.340 -0.3247 -0.9161 -0.4890
  718MOL0     C98968   0.377  10.658   1.369  0.1024  0.6561  0.1570
  718MOL0     C98969   0.351  10.749   1.246 -0.3408  0.0329 -0.2392
  718MOL0     O98970   0.217  10.790   1.237  0.3077 -0.2188 -0.6723
  718MOL0     C98971   0.195  10.924   1.235  0.0538  0.3349 -0.3340
  718MOL0     C98972   0.278  11.027   1.195 -0.3242 -0.1690 -0.1058
  718MOL0     C98973   0.231  11.164   1.188 -0.1461 -0.2062  0.6531
  718MOL0     C98974   0.331  11.256   1.127 -0.0026  0.7626  0.2074
  718MOL0     C98975   0.097  11.192   1.218  0.5898 -0.5165  0.3709
  718MOL0     C98976   0.046  11.334   1.224  0.1476 -0.1257  0.2133
  718MOL0     O98977   0.128  11.421   1.165 -0.3060  0.2339 -0.4638
  718MOL0     C98978   0.097  11.551   1.137 -0.7823 -0.7012 -0.4533
  718MOL0     C98979   0.202  11.634   1.108 -0.7097 -0.0922  1.1594
  718MOL0     C98980   0.186  11.772   1.083 -0.7328 -0.2127  0.0874
  718MOL0     C98981   0.065  11.833   1.113  0.7108  0.8087  0.3914
  718MOL0     O98982   0.068  11.971   1.091  0.4956 -0.0759 -0.4587
  718MOL0     C98983  -0.041  12.040   1.156 -0.9380 -0.8334 -0.2833
  718MOL0     C98984  -0.002  12.185   1.139 -0.1735 -0.1124  1.4414
  718MOL0     C98985  -0.107  12.281   1.193  0.5808 -0.2031  0.0248
  718MOL0     C98986  -0.124  12.275   1.347  0.2804  0.0404 -0.0447
  718MOL0     C98987  -0.216  12.383   1.399 -0.1517  0.5888 -0.6475
  718MOL0     C98988  -0.358  12.389   1.345 -1.4373  0.1560 -0.0548
  718MOL0     C98989  -0.436  12.502   1.401  0.4116  0.7900  0.0648
  718MOL0     C98990  -0.556  12.533   1.315 -0.5119 -0.4130 -0.1538
  718MOL0    Cl98991  -0.522  12.628   1.171  0.2085  0.1538 -0.3665
  718MOL0     C98992  -0.041  11.753   1.153 -0.5951  0.1740  0.0514
  718MOL0     C98993  -0.027  11.620   1.162  0.8439  0.6642  0.3565
  718MOL0     O98994  -0.064  11.361   1.267  0.3869  0.1999 -0.3358
  718MOL0     C98995   0.013  11.083   1.252  0.5062 -0.5534 -0.2054
  718MOL0     C98996   0.055  10.951   1.259 -0.7318 -0.1436  0.1859
  718MOL0     N98997   0.720  10.372   1.459 -0.0799 -0.6875  0.1119
  718MOL0     N98998   0.787  10.260   1.446 -0.2747  0.8130 -0.2725
  718MOL0     C98999   0.708  10.418   1.022 -0.1676  0.7117 -0.5032
  718MOL0     C99000   0.709  10.560   1.040 -1.3360 -0.3530 -0.1096
  718MOL0     C99001   0.886  10.956   1.135 -1.1140  0.2982  1.3549
  718MOL0     C99002   0.797  11.029   1.053  0.3297 -0.3904  0.2236
  718MOL0     C99003   0.801  11.169   1.035  0.5314 -0.7504 -0.1019
  718MOL0     C99004   0.885  11.241   1.122 -0.6309  0.4709  0.3870
  718MOL0     O99005   0.898  11.377   1.134  1.2337  0.2532 -0.5944
  718MOL0     C99006   0.799  11.464   1.080 -0.6753  0.5372  0.5811
  718MOL0     C99007   0.778  11.595   1.146 -0.1392  0.1955 -0.4346
  718MOL0     C99008   0.709  11.695   1.054  1.2312  0.0304  0.0101
  718MOL0     C99009   0.577  11.644   1.012 -0.5614 -0.3747  0.5823
  718MOL0     C99010   0.542  11.728   0.899 -0.5666 -0.0572 -0.0589
  718MOL0     C99011   0.517  11.807   0.818 -1.1505 -0.5878  0.7448
  718MOL0     C99012   0.975  11.169   1.201  0.6337  0.2404 -0.8607
  718MOL0     C99013   0.973  11.026   1.217 -0.0957 -0.7868 -0.4466
  718MOL0     C99014   1.064  10.974   1.318 -0.2620  0.4741 -0.8556
  718MOL0     H99015   0.985  10.626   0.858  0.8162  0.3249  0.8937
  718MOL0     H99016   0.974  10.397   0.810  2.2787  1.6556  1.3680
  718MOL0     H99017   0.860  10.211   0.722 -2.1531  0.0777 -0.6456
  718MOL0     H99018   0.769  10.079   0.777 -0.2414  1.3398 -2.0316
  718MOL0     H99019   1.003  10.039   0.770  1.8568 -1.6305  1.0326
  718MOL0     H99020   1.045  10.163   0.886  0.6202  0.6801 -0.6482
  718MOL0     H99021   0.855   9.936   0.976 -0.1476  0.4489  3.6914
  718MOL0     H99022   1.019   9.899   0.958 -0.3277 -2.7984  4.7921
  718MOL0     H99023   1.082  10.079   1.116 -1.0045  0.6409 -2.6200
  718MOL0     H99024   0.909  10.123   1.119  0.1788  1.1926  0.8296
  718MOL0     H99025   0.992   9.951   1.318 -2.9791 -1.0909  1.7038
  718MOL0     H99026   1.003   9.837   1.178 -1.3839  0.9904 -1.7690
  718MOL0     H99027   0.770   9.835   1.135  0.1154 -1.7981  0.9268
  718MOL0     H99028   0.813   9.783   1.299  0.5736  0.9184  1.7712
  718MOL0     H99029   0.605   9.930   1.278  1.0634 -2.1656 -0.2296
  718MOL0     H99030   0.722  10.060   1.227  0.4192  3.2529  5.0143
  718MOL0     H99031   0.663   9.958   1.495 -0.7388  2.2929  1.1513
  718MOL0     H99032   0.838  10.007   1.452 -0.5117  1.9860  5.5631
  718MOL0     H99033   0.478  10.153   1.440  1.5607 -2.6703 -0.2811
  718MOL0     H99034   0.503  10.507   1.544 -2.1860  0.0978  0.0118
  718MOL0     H99035   0.383  10.415   1.445  0.2325 -2.3683  2.8683
  718MOL0     H99036   0.588  10.614   1.340 -0.6430 -0.3388 -0.2258
  718MOL0     H99037   0.469  10.512   1.245 -0.8124 -0.9577 -0.3474
  718MOL0     H99038   0.283  10.605   1.387  1.8364 -2.9345 -0.5911
  718MOL0     H99039   0.392  10.727   1.453  2.0779 -0.7688  1.0457
  718MOL0     H99040   0.427  10.827   1.242 -0.8650  0.7200  1.8468
  718MOL0     H99041   0.350  10.686   1.156  0.3844 -1.0222  0.4612
  718MOL0     H99042   0.376  11.011   1.150  0.0180 -0.9880  0.9063
  718MOL0     H99043   0.349  11.341   1.194  0.4583  0.0286  1.0375
  718MOL0     H99044   0.311  11.292   1.026  0.1411  3.4938  1.0789
  718MOL0     H99045   0.427  11.203   1.126 -0.6149 -0.3910  1.0012
  718MOL0     H99046   0.296  11.581   1.096 -0.8253  0.0819 -0.7852
  718MOL0     H99047   0.263  11.834   1.038 -0.1140 -1.3998 -0.5596
  718MOL0     H99048  -0.128  12.032   1.091 -1.0071  0.7969 -0.4140
  718MOL0     H99049  -0.050  12.015   1.262  0.4333  1.4793  0.4422
  718MOL0     H99050   0.098  12.203   1.181  1.6662  0.3440 -2.6405
  718MOL0     H99051  -0.005  12.206   1.032 -0.4272  0.2064  1.5114
  718MOL0     H99052  -0.201  12.265   1.138  0.3141 -0.6338  0.6022
  718MOL0     H99053  -0.086  12.385   1.166  0.2754 -0.0128  0.5040
  718MOL0     H99054  -0.032  12.285   1.405 -0.6645 -2.7663  2.1464
  718MOL0     H99055  -0.156  12.173   1.370  0.0781  0.1437  0.1296
  718MOL0     H99056  -0.232  12.360   1.504  0.0437 -2.4509 -1.2032
  718MOL0     H99057  -0.167  12.481   1.394 -0.0125  0.5649  0.1075
  718MOL0     H99058  -0.402  12.290   1.364 -2.2719  0.2573 -1.3567
  718MOL0     H99059  -0.347  12.389   1.236  0.2567 -1.1926  0.0711
  718MOL0     H99060  -0.369  12.587   1.417 -0.0565  1.3180 -0.7140
  718MOL0     H99061  -0.470  12.468   1.499 -2.7558  1.2105 -0.7805
  718MOL0     H99062  -0.621  12.593   1.380 -2.8594 -3.3914  0.5101
  718MOL0     H99063  -0.601  12.438   1.284  0.0742 -0.9292  0.5434
  718MOL0     H99064  -0.136  11.799   1.179  0.0138  1.0606  0.7886
  718MOL0     H99065  -0.109  11.550   1.173  2.0646 -0.4420  3.6460
  718MOL0     H99066  -0.086  11.111   1.286 -0.0655 -0.4563 -1.8293
  718MOL0     H99067  -0.019  10.873   1.275 -1.7790  0.4457 -1.4293
  718MOL0     H99068   0.653  10.353   1.089  0.8718 -0.9681 -1.2086
  718MOL0     H99069   0.648  10.617   1.110  0.2494  2.4012 -0.8656
  718MOL0     H99070   0.718  10.972   1.005  0.5120  1.4061 -2.4017
  718MOL0     H99071   0.725  11.215   0.972 -0.8828 -0.9277  1.4279
  718MOL0     H99072   0.831  11.476   0.976 -2.5142  0.1650 -0.0634
  718MOL0     H99073   0.702  11.412   1.075  0.7490 -2.1825 -2.3001
  718MOL0     H99074   0.873  11.633   1.183 -0.4556 -1.5876  2.5388
  718MOL0     H99075   0.721  11.575   1.238  1.1302  2.4945  0.9462
  718MOL0     H99076   0.703  11.789   1.109 -1.4060  1.3986 -2.3443
  718MOL0     H99077   0.768  11.702   0.963 -1.4735 -0.8279 -1.9525
  718MOL0     H99078   0.510  11.674   1.093 -2.0688  2.5080 -1.5358
  718MOL0     H99079   0.565  11.537   0.994 -1.2990 -0.4515  1.4292
  718MOL0     H99080   0.493  11.888   0.751 -3.3955 -1.2715  0.6445
  718MOL0     H99081   1.043  11.220   1.269 -0.5319 -1.4953  1.7676
  718MOL0     H99082   1.112  10.881   1.287  0.1314 -0.1576  1.5206
  718MOL0     H99083   1.141  11.052   1.324 -2.1061  2.2724  3.5596
  718MOL0     H99084   1.010  10.956   1.411 -2.9640 -0.1558 -2.4528
  719MOL0     O99085   1.351   1.128   6.872 -0.6263 -0.7675 -0.1782
  719MOL0     C99086   1.406   1.196   6.962 -0.5925  0.6081  0.6767
  719MOL0     O99087   1.507   1.292   6.938  0.3638 -0.2099 -0.1881
  719MOL0     C99088   1.526   1.313   6.811 -0.8583 -0.1094  0.4982
  719MOL0     C99089   1.660   1.275   6.768  0.2874 -0.0461  0.5030
  719MOL0     C99090   1.696   1.293   6.630 -0.0528 -0.5213 -0.5201
  719MOL0     C99091   1.604   1.350   6.546  0.5326  0.0040  0.3877
  719MOL0     O99092   1.640   1.375   6.415 -0.0362  0.8457 -0.0288
  719MOL0     C99093   1.744   1.468   6.394 -0.0498  0.7736  0.2766
  719MOL0     C99094   1.856   1.397   6.322 -0.4323 -0.4052  0.4418
  719MOL0     C99095   1.999   1.453   6.352 -0.9626 -0.0760 -0.0744
  719MOL0     C99096   2.019   1.594   6.299  0.1899 -0.6313 -0.1685
  719MOL0     C99097   2.152   1.656   6.338 -0.0280  0.5298  0.1560
  719MOL0     C99098   2.141   1.807   6.327  0.9911  0.4152  0.3214
  719MOL0     C99099   2.283   1.875   6.337  0.7370  0.6186 -1.0201
  719MOL0     C99100   2.371   1.851   6.210  1.1221  0.6779  0.3533
  719MOL0     N99101   2.313   1.910   6.089  0.2794  0.4188 -1.4744
  719MOL0     C99102   2.276   2.043   6.084 -0.7144 -0.4402 -0.1728
  719MOL0     C99103   2.207   2.064   5.965  0.5975 -0.1036 -0.3750
  719MOL0     C99104   2.133   2.188   5.917 -1.0405  0.3390  0.4915
  719MOL0     C99105   2.230   2.270   5.828  0.7533 -0.0871  0.2777
  719MOL0     C99106   2.161   2.407   5.808 -0.0476  1.1672 -0.6245
  719MOL0     C99107   2.217   2.482   5.696 -0.4704 -0.8378  0.5876
  719MOL0     O99108   2.215   2.420   5.572  0.1284 -1.3996  0.0693
  719MOL0     C99109   2.241   2.485   5.458 -0.0292 -0.1562 -0.0359
  719MOL0     C99110   2.243   2.625   5.445  0.0810  0.3825  0.1243
  719MOL0     C99111   2.277   2.697   5.333 -0.9373 -0.0146 -0.4240
  719MOL0     C99112   2.266   2.849   5.343 -0.5972  0.4532  0.1596
  719MOL0     C99113   2.311   2.627   5.216  1.1947  0.3853  0.5222
  719MOL0     C99114   2.329   2.677   5.084 -0.1423  0.3828 -0.1963
  719MOL0     O99115   2.336   2.588   4.981  0.1918 -0.0408  0.3969
  719MOL0     C99116   2.313   2.619   4.854  0.1421  0.8294 -0.1866
  719MOL0     C99117   2.314   2.503   4.770  0.6281 -0.7461 -0.1008
  719MOL0     C99118   2.281   2.503   4.629  0.4927  0.0591 -0.5003
  719MOL0     C99119   2.249   2.629   4.574 -0.5417  0.1725  0.6656
  719MOL0     O99120   2.243   2.630   4.433  0.4146  0.2506 -0.7249
  719MOL0     C99121   2.323   2.733   4.380 -0.2918 -0.4755  0.4161
  719MOL0     C99122   2.376   2.704   4.242 -0.2890  0.5391  0.3842
  719MOL0     C99123   2.489   2.604   4.233  0.7389 -0.4145  0.2512
  719MOL0     C99124   2.616   2.643   4.153 -0.3745  0.0272  0.9770
  719MOL0     C99125   2.711   2.522   4.112 -0.7553  0.2206 -0.9749
  719MOL0     C99126   2.800   2.553   3.992 -0.3777  0.0374  0.3662
  719MOL0     C99127   2.949   2.521   4.014  0.4250  0.5326 -0.2766
  719MOL0     C99128   3.020   2.542   3.880 -0.4331 -0.7796 -0.3855
  719MOL0    Cl99129   2.985   2.705   3.804  0.2298  0.2047 -0.4746
  719MOL0     C99130   2.236   2.736   4.650  0.1696 -0.2194 -0.0664
  719MOL0     C99131   2.275   2.738   4.789 -0.4617 -0.8871  0.1117
  719MOL0     O99132   2.326   2.801   5.074 -0.0473  0.2027 -0.3122
  719MOL0     C99133   2.330   2.486   5.234 -0.3258 -0.5641 -0.7140
  719MOL0     C99134   2.299   2.414   5.354 -0.7112 -0.0565 -0.1050
  719MOL0     N99135   2.214   1.940   5.909 -0.8077  0.0197  0.2013
  719MOL0     N99136   2.283   1.850   5.981  0.4572 -0.3212 -0.2974
  719MOL0     C99137   1.473   1.383   6.591 -0.0168 -0.0702  0.5790
  719MOL0     C99138   1.433   1.368   6.724 -0.5443 -0.1350  0.3632
  719MOL0     C99139   1.361   1.190   7.098 -0.2385  0.4129 -0.4126
  719MOL0     C99140   1.397   1.296   7.189  0.1599 -0.2517  0.6972
  719MOL0     C99141   1.351   1.306   7.317  0.0420 -0.9091 -0.8232
  719MOL0     C99142   1.278   1.198   7.371 -0.4853 -0.6181  0.2653
  719MOL0     O99143   1.250   1.212   7.502  0.3021 -0.1454  0.5710
  719MOL0     C99144   1.160   1.115   7.555  0.0070 -0.0807  0.2061
  719MOL0     C99145   1.118   1.132   7.697  0.1178  1.1400 -0.2440
  719MOL0     C99146   1.025   1.016   7.739  0.2584  0.2524 -0.3433
  719MOL0     C99147   0.889   1.004   7.663  0.4765 -0.2193 -0.0850
  719MOL0     C99148   0.787   0.927   7.736 -0.1172  0.4305 -0.3535
  719MOL0     C99149   0.703   0.862   7.795  1.1306 -0.2828  1.0855
  719MOL0     C99150   1.252   1.079   7.289  0.5344  0.7449 -0.7286
  719MOL0     C99151   1.281   1.078   7.156 -0.9900 -0.0869  0.4834
  719MOL0     C99152   1.237   0.961   7.070 -0.6524  0.1190  0.4519
  719MOL0     H99153   1.734   1.220   6.824  0.2533  1.3697  2.0315
  719MOL0     H99154   1.789   1.251   6.592  0.4364  0.3101 -0.2824
  719MOL0     H99155   1.779   1.505   6.491 -0.6664 -1.9680  1.6628
  719MOL0     H99156   1.704   1.549   6.333 -1.0807 -0.5472 -0.8788
  719MOL0     H99157   1.865   1.298   6.367  0.3948  0.2546  1.7993
  719MOL0     H99158   1.835   1.396   6.214  3.2721  4.5561 -0.7284
  719MOL0     H99159   2.026   1.440   6.457 -0.2668 -0.0257 -0.2405
  719MOL0     H99160   2.065   1.384   6.299 -0.5013  1.0083 -0.9628
  719MOL0     H99161   2.024   1.591   6.190 -0.5774 -1.6689 -0.1900
  719MOL0     H99162   1.931   1.655   6.322  0.3628 -0.3992 -0.1256
  719MOL0     H99163   2.230   1.610   6.276  0.2609 -3.6524  3.1894
  719MOL0     H99164   2.175   1.632   6.442 -0.2730  2.3234  0.6438
  719MOL0     H99165   2.094   1.821   6.229 -0.9690  2.0665  1.4167
  719MOL0     H99166   2.071   1.849   6.399  0.4060  0.1296 -0.0665
  719MOL0     H99167   2.341   1.845   6.425  2.1387  3.7974 -0.6865
  719MOL0     H99168   2.264   1.983   6.345  0.3329  0.5009 -0.3563
  719MOL0     H99169   2.473   1.879   6.236  1.1865 -0.9627  2.0471
  719MOL0     H99170   2.370   1.743   6.199 -1.5902 -0.0100  4.7783
  719MOL0     H99171   2.284   2.126   6.154  0.3102  1.3819 -2.3319
  719MOL0     H99172   2.101   2.245   6.005 -1.6224 -1.2747  1.3672
  719MOL0     H99173   2.041   2.164   5.863 -3.1269 -0.0530  3.8846
  719MOL0     H99174   2.323   2.298   5.879 -0.6642  1.9856  1.9010
  719MOL0     H99175   2.245   2.226   5.729 -0.7016 -1.7440  0.7475
  719MOL0     H99176   2.061   2.378   5.776  1.2163 -1.7736 -2.3114
  719MOL0     H99177   2.171   2.462   5.902  1.1849 -0.3104  0.1511
  719MOL0     H99178   2.158   2.574   5.698  0.1242 -0.2345 -2.7681
  719MOL0     H99179   2.323   2.504   5.706 -0.3701 -0.9883 -0.0776
  719MOL0     H99180   2.217   2.682   5.534  2.6189 -1.5130  2.2503
  719MOL0     H99181   2.262   2.889   5.445 -2.6424 -0.5260  0.5068
  719MOL0     H99182   2.179   2.881   5.286 -0.6272 -2.0346 -1.3137
  719MOL0     H99183   2.355   2.896   5.300 -0.8428  0.2366 -0.5932
  719MOL0     H99184   2.357   2.419   4.823  2.2798  1.0687  1.6379
  719MOL0     H99185   2.275   2.409   4.573 -0.2648  0.2597 -0.7674
  719MOL0     H99186   2.265   2.825   4.367  2.4156  0.9890 -2.6754
  719MOL0     H99187   2.413   2.757   4.437  1.6649  2.3612 -3.4395
  719MOL0     H99188   2.294   2.665   4.181  0.5998 -1.1043  0.1829
  719MOL0     H99189   2.412   2.799   4.201  1.6110 -0.6104 -0.7800
  719MOL0     H99190   2.451   2.512   4.189  2.8095 -0.8230 -0.8158
  719MOL0     H99191   2.510   2.565   4.333 -3.5100 -2.6446  0.4671
  719MOL0     H99192   2.681   2.715   4.204 -1.0402  0.4910  1.1912
  719MOL0     H99193   2.577   2.693   4.064 -1.6139  1.8465  2.4560
  719MOL0     H99194   2.767   2.502   4.204 -1.4867  1.2056 -0.2995
  719MOL0     H99195   2.651   2.436   4.080 -0.9480 -0.2424  0.5386
  719MOL0     H99196   2.782   2.658   3.971  0.5464  0.1409  0.0582
  719MOL0     H99197   2.760   2.503   3.902 -0.4833  0.4311  0.1943
  719MOL0     H99198   2.959   2.415   4.040 -1.0998  0.1412 -1.1368
  719MOL0     H99199   2.987   2.578   4.099 -2.1412 -0.3193  1.5752
  719MOL0     H99200   2.988   2.477   3.798 -2.3320  0.5451 -0.7495
  719MOL0     H99201   3.126   2.518   3.898 -1.5667 -3.2806  5.0159
  719MOL0     H99202   2.236   2.834   4.604 -1.0570 -1.1772 -2.2215
  719MOL0     H99203   2.252   2.834   4.833  0.4415  0.2171 -1.7270
  719MOL0     H99204   2.345   2.425   5.146  1.2224 -2.1824  0.5981
  719MOL0     H99205   2.313   2.307   5.356  0.3029  0.0572 -0.6219
  719MOL0     H99206   1.399   1.428   6.526 -0.8256 -1.2143  0.6607
  719MOL0     H99207   1.329   1.378   6.755 -0.6642  0.8644 -0.3042
  719MOL0     H99208   1.460   1.382   7.168 -0.5391 -0.0428 -0.6503
  719MOL0     H99209   1.361   1.392   7.381  1.1203 -1.7056  0.1250
  719MOL0     H99210   1.067   1.106   7.499  0.1868  2.4001 -0.6240
  719MOL0     H99211   1.224   1.026   7.550  0.4554  0.1514  1.2895
  719MOL0     H99212   1.064   1.227   7.708  0.7677  1.4776  0.1435
  719MOL0     H99213   1.200   1.130   7.770  0.8088  2.6120 -0.9300
  719MOL0     H99214   1.079   0.922   7.722 -0.4459 -0.1874 -0.1761
  719MOL0     H99215   0.994   1.033   7.843  0.2169  0.6274 -0.4186
  719MOL0     H99216   0.896   0.969   7.560 -1.4050 -2.1118  0.3515
  719MOL0     H99217   0.850   1.105   7.670 -2.0656 -1.0746 -0.8693
  719MOL0     H99218   0.626   0.806   7.845  0.4781 -1.6863 -1.3154
  719MOL0     H99219   1.193   0.997   7.328 -0.0410  1.7050  0.5394
  719MOL0     H99220   1.312   0.911   7.007 -0.7291  0.5151  0.0387
  719MOL0     H99221   1.192   0.876   7.123 -0.3661  0.2433  0.9018
  719MOL0     H99222   1.165   1.003   6.999  1.5727  1.6112 -1.0504
  720MOL0     O99223   5.202   8.051   9.218 -0.2295 -0.7890 -0.8413
  720MOL0     C99224   5.187   8.175   9.237 -0.5098 -0.7706  0.2137
  720MOL0     O99225   5.235   8.251   9.341 -0.0128 -0.0737 -0.2748
  720MOL0     C99226   5.292   8.167   9.435  0.7702 -1.2095 -0.6031
  720MOL0     C99227   5.432   8.163   9.454  0.2115  0.3996 -0.4475
  720MOL0     C99228   5.483   8.069   9.551 -0.7798 -0.3588  0.5614
  720MOL0     C99229   5.394   7.994   9.633  0.4023  0.2172  0.0280
  720MOL0     O99230   5.437   7.916   9.732 -0.1054  0.3891 -0.3048
  720MOL0     C99231   5.498   7.783   9.685 -0.1328 -0.0454  0.1939
  720MOL0     C99232   5.389   7.674   9.664  0.4189 -0.4077  1.2704
  720MOL0     C99233   5.450   7.540   9.649 -0.9337  0.4154  0.4968
  720MOL0     C99234   5.335   7.445   9.612  0.7184 -0.0084 -0.2879
  720MOL0     C99235   5.372   7.303   9.649 -0.2032  0.2976 -0.2473
  720MOL0     C99236   5.506   7.255   9.594  0.6464 -0.2333  0.5929
  720MOL0     C99237   5.504   7.235   9.440  0.3170 -0.4599  0.2108
  720MOL0     C99238   5.425   7.104   9.409 -0.1452  1.1640  0.1336
  720MOL0     N99239   5.405   7.082   9.270  0.1392  0.6924  0.1354
  720MOL0     C99240   5.389   6.958   9.196  0.3826 -0.5956  0.5597
  720MOL0     C99241   5.402   6.993   9.069 -0.0774 -0.0229  0.1455
  720MOL0     C99242   5.400   6.899   8.956  0.2840  0.9521  0.2864
  720MOL0     C99243   5.310   6.777   8.960 -0.4269  0.0252 -0.5759
  720MOL0     C99244   5.173   6.827   8.982 -0.4148 -0.1414 -0.1728
  720MOL0     C99245   5.081   6.706   8.962  0.3480  0.3061 -0.4463
  720MOL0     O99246   5.078   6.646   9.093 -0.4780 -0.0531 -0.3405
  720MOL0     C99247   5.021   6.526   9.101  0.8487  0.1203 -0.0979
  720MOL0     C99248   4.943   6.467   8.994  0.7139 -0.5055  0.0657
  720MOL0     C99249   4.882   6.341   8.991 -0.0097  1.1336 -0.9530
  720MOL0     C99250   4.801   6.294   8.870 -0.5189  0.3510 -0.1846
  720MOL0     C99251   4.909   6.258   9.106  0.3855  0.2240 -0.5453
  720MOL0     C99252   4.869   6.119   9.126 -0.2952  1.0972 -0.2970
  720MOL0     O99253   4.872   6.033   9.019  0.4665 -0.2478 -0.6364
  720MOL0     C99254   4.852   5.894   9.029  0.0021 -0.9340  0.0837
  720MOL0     C99255   4.767   5.833   9.125  0.6555  0.2635  0.9905
  720MOL0     C99256   4.752   5.699   9.117 -0.2600  0.5364 -0.2862
  720MOL0     C99257   4.804   5.614   9.019 -0.4481 -0.4505  0.5492
  720MOL0     O99258   4.787   5.475   9.004  0.1129 -0.5560 -0.1057
  720MOL0     C99259   4.689   5.400   9.073  0.4422  0.9003 -1.0279
  720MOL0     C99260   4.707   5.254   9.059 -0.1698  0.2707 -0.7155
  720MOL0     C99261   4.595   5.172   9.133 -0.1943 -0.4609 -1.2218
  720MOL0     C99262   4.602   5.194   9.287  1.1041  0.6851 -0.4082
  720MOL0     C99263   4.477   5.109   9.346  0.5777  0.7309  0.5125
  720MOL0     C99264   4.492   5.080   9.497 -0.3513 -0.8336  0.2590
  720MOL0     C99265   4.393   4.977   9.544  0.0437 -0.7819 -0.8976
  720MOL0     C99266   4.427   4.965   9.696  0.0785 -0.0364 -0.6792
  720MOL0    Cl99267   4.315   4.855   9.776 -0.2330 -0.0092  0.1104
  720MOL0     C99268   4.895   5.673   8.928 -0.1644  0.4356  1.0839
  720MOL0     C99269   4.914   5.813   8.923 -0.2579  0.9917 -0.8551
  720MOL0     O99270   4.851   6.081   9.242  0.9478 -0.3862 -0.6145
  720MOL0     C99271   4.952   6.318   9.228 -0.0235  0.1024 -1.0546
  720MOL0     C99272   5.009   6.444   9.220 -0.1166 -1.0803  0.5099
  720MOL0     N99273   5.425   7.125   9.060  0.1545 -0.1894 -0.7588
  720MOL0     N99274   5.424   7.177   9.175 -0.6193 -0.3397 -0.4290
  720MOL0     C99275   5.254   8.010   9.624 -1.1288 -1.4119  0.1792
  720MOL0     C99276   5.210   8.105   9.530 -0.2999  0.3992 -0.2027
  720MOL0     C99277   5.119   8.250   9.133  0.6790  0.2249 -0.2800
  720MOL0     C99278   5.014   8.188   9.066  0.0577 -0.9050  0.9363
  720MOL0     C99279   4.939   8.258   8.978 -0.3727 -0.2439 -1.0949
  720MOL0     C99280   4.940   8.397   8.962 -0.3546  0.7489  0.4301
  720MOL0     O99281   4.843   8.455   8.882  0.8647 -0.1515 -0.1563
  720MOL0     C99282   4.885   8.583   8.832  0.0767 -0.9017  0.1358
  720MOL0     C99283   4.795   8.619   8.717 -0.4170  0.4257  0.6518
  720MOL0     C99284   4.654   8.634   8.776  0.5529  0.8148 -0.3766
  720MOL0     C99285   4.552   8.538   8.716  0.1946 -0.1741 -0.3924
  720MOL0     C99286   4.428   8.555   8.798  0.6564  0.0701  0.2672
  720MOL0     C99287   4.329   8.580   8.869 -0.0910 -0.0949  0.3380
  720MOL0     C99288   5.048   8.463   9.025  0.0500  0.2642 -0.0895
  720MOL0     C99289   5.136   8.388   9.108  0.7214 -0.0284  0.1455
  720MOL0     C99290   5.231   8.485   9.174  0.3269  0.7260 -0.0305
  720MOL0     H99291   5.499   8.225   9.396 -0.1888  0.8838 -0.3959
  720MOL0     H99292   5.590   8.058   9.567 -0.6082  0.1722 -0.1546
  720MOL0     H99293   5.582   7.744   9.743 -0.5717 -1.5616 -0.1342
  720MOL0     H99294   5.539   7.802   9.585  0.3581  0.3211  0.4636
  720MOL0     H99295   5.310   7.673   9.739 -0.6701  1.1444  0.2254
  720MOL0     H99296   5.336   7.689   9.569 -0.5691 -1.3262  1.6461
  720MOL0     H99297   5.531   7.539   9.575  0.7685 -1.3813  2.2829
  720MOL0     H99298   5.498   7.521   9.745  0.4553  1.2273 -0.0069
  720MOL0     H99299   5.245   7.456   9.673 -0.8368  1.8343 -2.6803
  720MOL0     H99300   5.299   7.448   9.508 -0.7474 -2.7328  0.0468
  720MOL0     H99301   5.290   7.242   9.610 -0.6237  2.5518 -3.1840
  720MOL0     H99302   5.375   7.293   9.758  1.3945 -0.0985 -0.2996
  720MOL0     H99303   5.576   7.338   9.607 -1.2682  1.4367  0.6605
  720MOL0     H99304   5.533   7.156   9.634  0.6381 -1.5336 -2.3423
  720MOL0     H99305   5.598   7.228   9.385 -1.1919 -0.5520 -2.5410
  720MOL0     H99306   5.455   7.323   9.399  0.0700 -0.6472  0.0995
  720MOL0     H99307   5.470   7.018   9.458  1.2309  2.3782  1.0991
  720MOL0     H99308   5.320   7.101   9.438 -0.2863 -2.6271 -0.2442
  720MOL0     H99309   5.370   6.859   9.236  0.4796 -0.8348  0.0231
  720MOL0     H99310   5.500   6.858   8.941  0.1887 -0.3009  2.6079
  720MOL0     H99311   5.380   6.963   8.869  1.7557  1.5940  0.3928
  720MOL0     H99312   5.337   6.727   8.867 -0.3128  1.7127 -1.4853
  720MOL0     H99313   5.338   6.718   9.048 -1.5212 -1.2456 -1.0585
  720MOL0     H99314   5.157   6.871   9.081  0.9790  0.3258 -0.1459
  720MOL0     H99315   5.126   6.903   8.919 -2.9609 -0.7989  0.8042
  720MOL0     H99316   4.981   6.735   8.929 -0.2489  0.4814  1.3933
  720MOL0     H99317   5.114   6.637   8.884 -1.3956 -0.9044 -0.1838
  720MOL0     H99318   4.928   6.505   8.894  1.6405  0.1443  0.1614
  720MOL0     H99319   4.708   6.349   8.854 -0.0006  1.0131 -1.0703
  720MOL0     H99320   4.780   6.188   8.886  1.8595 -0.0351  0.9188
  720MOL0     H99321   4.863   6.310   8.780  0.1011 -0.7441  0.0282
  720MOL0     H99322   4.708   5.893   9.194 -0.4448  1.2116 -0.7142
  720MOL0     H99323   4.695   5.650   9.195  0.7699 -0.9732 -0.4464
  720MOL0     H99324   4.713   5.428   9.176 -0.6885  0.0053 -0.5042
  720MOL0     H99325   4.585   5.425   9.051  0.4039  0.2000 -1.6728
  720MOL0     H99326   4.710   5.230   8.952 -0.1074 -2.6810 -0.1500
  720MOL0     H99327   4.801   5.224   9.108 -0.8495 -0.6571  0.0479
  720MOL0     H99328   4.614   5.068   9.106  0.0954 -0.6707 -0.2551
  720MOL0     H99329   4.495   5.205   9.103 -0.1442  1.1192  0.1712
  720MOL0     H99330   4.583   5.300   9.310 -5.2810 -0.1374 -0.0497
  720MOL0     H99331   4.694   5.153   9.328 -1.3820 -5.0754  0.3053
  720MOL0     H99332   4.384   5.160   9.320 -0.1853  0.1941  2.0588
  720MOL0     H99333   4.472   5.009   9.303 -1.0910  0.8631  0.3461
  720MOL0     H99334   4.464   5.172   9.549 -0.3987 -0.5384 -0.2711
  720MOL0     H99335   4.596   5.054   9.519  0.4880  2.4549  0.6744
  720MOL0     H99336   4.407   4.893   9.476 -2.4758 -0.4068 -1.9960
  720MOL0     H99337   4.292   5.016   9.525 -0.1543 -0.1199  1.2557
  720MOL0     H99338   4.434   5.063   9.744  1.1657  0.6545 -2.1750
  720MOL0     H99339   4.523   4.912   9.701 -1.1436 -2.9504 -3.9658
  720MOL0     H99340   4.951   5.614   8.856 -0.5598 -0.1076  1.2082
  720MOL0     H99341   4.982   5.852   8.849 -1.9952  0.7920 -2.6229
  720MOL0     H99342   4.949   6.271   9.325 -0.5683  1.4294 -0.4093
  720MOL0     H99343   5.051   6.494   9.307 -0.2085  0.5777 -0.3520
  720MOL0     H99344   5.189   7.935   9.668 -0.6330 -2.9897 -1.6454
  720MOL0     H99345   5.105   8.118   9.509  0.1467  1.5100 -2.0166
  720MOL0     H99346   5.004   8.080   9.073  1.5516 -1.3498 -2.2704
  720MOL0     H99347   4.860   8.192   8.944  0.2221 -2.1269  0.9593
  720MOL0     H99348   4.873   8.660   8.909 -3.2321 -0.9482 -0.2042
  720MOL0     H99349   4.987   8.582   8.792 -0.2885  0.1175 -0.8619
  720MOL0     H99350   4.790   8.542   8.639 -0.6526  2.0661 -1.0338
  720MOL0     H99351   4.843   8.700   8.662 -0.1225  0.8166  1.4699
  720MOL0     H99352   4.654   8.615   8.884  5.2460 -1.5743 -0.5294
  720MOL0     H99353   4.621   8.735   8.751 -2.1974 -0.3500 -1.9019
  720MOL0     H99354   4.583   8.433   8.721  1.5898 -0.0696 -3.9916
  720MOL0     H99355   4.518   8.570   8.617 -2.1630  0.8528  0.6533
  720MOL0     H99356   4.239   8.600   8.924 -0.4711  2.3386 -1.0018
  720MOL0     H99357   5.053   8.570   9.010 -0.0852  0.3490  0.4389
  720MOL0     H99358   5.334   8.450   9.164  0.1524 -0.7776  2.4623
  720MOL0     H99359   5.214   8.587   9.138  0.6631  0.0813 -2.1453
  720MOL0     H99360   5.210   8.496   9.281 -1.1441 -0.9878 -0.1023
  721MOL0     O99361   4.898   3.839   0.766  0.8146 -0.2227 -0.7794
  721MOL0     C99362   4.999   3.863   0.698 -0.6135  0.1962 -0.2982
  721MOL0     O99363   5.001   3.878   0.566  0.5512  0.7402 -0.7297
  721MOL0     C99364   4.881   3.877   0.495 -0.0425 -0.3838 -0.3438
  721MOL0     C99365   4.871   3.986   0.416  0.4829  0.4328  1.5226
  721MOL0     C99366   4.755   4.001   0.328 -0.7854  0.0112  0.2168
  721MOL0     C99367   4.653   3.901   0.331 -0.4427 -0.3862 -0.8026
  721MOL0     O99368   4.530   3.917   0.264 -0.5660  0.0759 -0.8175
  721MOL0     C99369   4.532   3.900   0.128 -0.1995 -0.1632  0.6189
  721MOL0     C99370   4.589   3.776   0.082 -0.5919 -0.3295  0.2585
  721MOL0     C99371   4.648   3.799  -0.062 -0.3964  0.3307  0.1695
  721MOL0     C99372   4.801   3.798  -0.078 -0.0549  0.0204  0.4551
  721MOL0     C99373   4.846   3.783  -0.216 -0.2042  0.4761 -0.3043
  721MOL0     C99374   4.828   3.909  -0.284 -0.7647 -0.1827 -0.2582
  721MOL0     C99375   4.892   3.887  -0.422  0.1147 -0.0881 -0.6796
  721MOL0     C99376   4.838   3.992  -0.523 -0.2420 -0.6053 -0.4063
  721MOL0     N99377   4.697   3.979  -0.565  0.2800 -0.0262 -0.3803
  721MOL0     C99378   4.650   3.901  -0.664  0.9656 -0.6284 -0.0419
  721MOL0     C99379   4.520   3.930  -0.689 -0.2053  1.2316 -0.4779
  721MOL0     C99380   4.424   3.865  -0.777  0.8032 -0.2037 -0.0415
  721MOL0     C99381   4.272   3.872  -0.735 -0.1213 -0.3252  0.2052
  721MOL0     C99382   4.242   3.795  -0.601  0.1041  0.7335 -0.1422
  721MOL0     C99383   4.093   3.814  -0.550 -0.9995  0.3173 -0.4072
  721MOL0     O99384   4.049   3.954  -0.553 -0.7943  0.2179  0.0156
  721MOL0     C99385   3.936   3.992  -0.632 -0.1819 -0.4550 -0.0675
  721MOL0     C99386   3.847   4.097  -0.601 -0.1631  0.0389  0.0054
  721MOL0     C99387   3.758   4.145  -0.686  0.7625 -0.1428 -0.3270
  721MOL0     C99388   3.666   4.247  -0.629  0.5686  0.2917 -0.1992
  721MOL0     C99389   3.731   4.083  -0.818  0.0054 -0.3071 -0.7115
  721MOL0     C99390   3.625   4.124  -0.911  0.2329  0.0785 -0.6905
  721MOL0     O99391   3.650   4.090  -1.040  0.2866 -0.5409 -0.1759
  721MOL0     C99392   3.583   4.150  -1.142 -0.5035  0.0879 -0.5227
  721MOL0     C99393   3.472   4.078  -1.197 -0.2337 -0.8558 -0.2767
  721MOL0     C99394   3.431   4.103  -1.330  0.2954 -0.5757 -1.3055
  721MOL0     C99395   3.482   4.224  -1.392 -0.1355  0.7839 -0.8444
  721MOL0     O99396   3.441   4.241  -1.521 -0.6828 -1.0978  0.1846
  721MOL0     C99397   3.382   4.365  -1.553 -0.0086  1.1148 -0.1376
  721MOL0     C99398   3.344   4.365  -1.694 -0.4248 -0.7191 -0.0859
  721MOL0     C99399   3.288   4.503  -1.741  0.1329 -0.5034  0.8686
  721MOL0     C99400   3.365   4.561  -1.866  0.7526  0.1926 -1.1104
  721MOL0     C99401   3.302   4.695  -1.899  0.5224  0.1149  0.8503
  721MOL0     C99402   3.370   4.769  -2.016 -0.2186  0.2272 -0.6541
  721MOL0     C99403   3.512   4.814  -1.984 -0.6183 -0.0796 -0.1749
  721MOL0     C99404   3.581   4.876  -2.117 -1.1251  0.3604  0.0610
  721MOL0    Cl99405   3.607   4.743  -2.236 -0.0813  0.4010  0.0809
  721MOL0     C99406   3.578   4.311  -1.328 -0.4894 -0.5835 -0.3137
  721MOL0     C99407   3.625   4.268  -1.203  0.0266  0.6591 -0.1132
  721MOL0     O99408   3.536   4.193  -0.868  0.1095  0.5339 -0.3109
  721MOL0     C99409   3.830   3.992  -0.855 -0.7637  0.6417  0.3902
  721MOL0     C99410   3.930   3.958  -0.772 -0.1621  0.0786 -0.0890
  721MOL0     N99411   4.490   4.027  -0.597  0.4492 -0.1982 -0.1228
  721MOL0     N99412   4.601   4.057  -0.524 -0.3782 -0.0515 -0.6612
  721MOL0     C99413   4.665   3.794   0.425 -0.4463  0.0461  0.1177
  721MOL0     C99414   4.784   3.782   0.498 -0.1047 -0.6343 -0.3731
  721MOL0     C99415   5.124   3.863   0.779 -1.1707  0.6635  1.1006
  721MOL0     C99416   5.120   3.864   0.921 -0.5516 -0.1470  0.7633
  721MOL0     C99417   5.238   3.856   0.994  0.1289  1.4975  0.1247
  721MOL0     C99418   5.360   3.829   0.930  0.9410 -0.0316  1.0388
  721MOL0     O99419   5.478   3.797   0.994  0.2227  0.2879  0.0397
  721MOL0     C99420   5.591   3.878   0.971  0.1349  0.0623  0.4358
  721MOL0     C99421   5.665   3.887   1.102 -0.5822  0.6588 -0.1941
  721MOL0     C99422   5.585   3.983   1.203 -0.8312 -0.2096 -0.5178
  721MOL0     C99423   5.679   4.012   1.329  0.0360 -0.9438 -0.4758
  721MOL0     C99424   5.788   4.100   1.290 -0.2464  0.4917 -0.8532
  721MOL0     C99425   5.883   4.168   1.267 -0.1952 -0.7667  0.5890
  721MOL0     C99426   5.362   3.837   0.791  0.2423 -1.1191 -0.6998
  721MOL0     C99427   5.250   3.844   0.716 -0.0353  0.4060 -0.0703
  721MOL0     C99428   5.268   3.807   0.565  0.3310 -0.5799 -0.6707
  721MOL0     H99429   4.951   4.059   0.408 -1.3489  2.5298  1.0248
  721MOL0     H99430   4.752   4.090   0.266  1.0844 -0.4997 -0.6975
  721MOL0     H99431   4.589   3.980   0.080 -3.4797  2.6308  0.9392
  721MOL0     H99432   4.428   3.912   0.096  0.0883  1.3705  0.2114
  721MOL0     H99433   4.663   3.732   0.150 -1.2544 -0.8589  0.6491
  721MOL0     H99434   4.509   3.703   0.069 -1.0434  0.2552 -0.3063
  721MOL0     H99435   4.624   3.709  -0.120 -2.4511  1.3145 -0.6208
  721MOL0     H99436   4.598   3.881  -0.116 -3.5463 -1.1206  0.6518
  721MOL0     H99437   4.849   3.889  -0.042  1.2459 -0.2269 -0.5945
  721MOL0     H99438   4.839   3.712  -0.022  0.2656  0.8566  1.5639
  721MOL0     H99439   4.794   3.697  -0.260  0.4270 -2.4231  4.0304
  721MOL0     H99440   4.950   3.749  -0.208 -0.3153 -0.6852 -2.7146
  721MOL0     H99441   4.725   3.939  -0.306  0.5363  2.3137 -3.9047
  721MOL0     H99442   4.880   3.995  -0.241 -0.1701  0.1819 -1.6296
  721MOL0     H99443   4.882   3.786  -0.464 -2.5743  0.5359 -1.7655
  721MOL0     H99444   4.999   3.903  -0.407  0.2602 -1.4951 -0.0487
  721MOL0     H99445   4.865   4.092  -0.489  1.2663 -2.1726  3.6108
  721MOL0     H99446   4.901   3.981  -0.612 -0.9126  0.0721 -0.9821
  721MOL0     H99447   4.709   3.829  -0.719 -0.3009 -1.2825 -0.5849
  721MOL0     H99448   4.457   3.761  -0.785 -2.7245 -1.4955  0.3765
  721MOL0     H99449   4.435   3.912  -0.875 -0.2223 -1.5912 -0.8574
  721MOL0     H99450   4.244   3.977  -0.720  2.5663  0.5319 -0.1754
  721MOL0     H99451   4.207   3.828  -0.811 -3.2707  2.7496  0.8676
  721MOL0     H99452   4.252   3.693  -0.638 -0.8765  1.0693 -1.3853
  721MOL0     H99453   4.303   3.830  -0.517 -3.3214  2.8722  1.6743
  721MOL0     H99454   4.034   3.748  -0.615  2.0656  0.7358 -3.9032
  721MOL0     H99455   4.089   3.775  -0.447  2.7736  1.8352  0.4528
  721MOL0     H99456   3.853   4.143  -0.503  1.2644  0.6541 -0.3488
  721MOL0     H99457   3.629   4.318  -0.704 -4.7014  0.3126  1.9810
  721MOL0     H99458   3.698   4.298  -0.538 -2.8273  4.4559 -0.9926
  721MOL0     H99459   3.572   4.197  -0.606 -1.3472  4.3226  1.8506
  721MOL0     H99460   3.428   3.989  -1.153 -4.2178  0.8059 -0.4019
  721MOL0     H99461   3.345   4.065  -1.383 -1.1833  0.5087  0.2278
  721MOL0     H99462   3.289   4.386  -1.500  0.6813 -1.7712  2.5128
  721MOL0     H99463   3.446   4.452  -1.535  0.4448  1.0572 -1.3784
  721MOL0     H99464   3.425   4.332  -1.761 -0.7013 -0.4369 -0.5615
  721MOL0     H99465   3.262   4.294  -1.711 -0.2096 -0.2380 -4.2155
  721MOL0     H99466   3.289   4.585  -1.669 -0.9276 -0.8812  1.3265
  721MOL0     H99467   3.183   4.491  -1.769  0.8592 -0.3405 -2.2692
  721MOL0     H99468   3.352   4.491  -1.948 -4.3893 -2.9355  1.8593
  721MOL0     H99469   3.472   4.568  -1.844  0.5630 -0.1857 -0.0149
  721MOL0     H99470   3.199   4.674  -1.928  1.3893 -2.4033 -0.6181
  721MOL0     H99471   3.297   4.776  -1.825  0.9022  0.1085  0.8876
  721MOL0     H99472   3.325   4.867  -2.031 -2.2046 -0.9820 -3.4905
  721MOL0     H99473   3.363   4.714  -2.110 -3.5797 -0.4194 -0.1306
  721MOL0     H99474   3.564   4.722  -1.956 -0.8981  0.2573  1.5397
  721MOL0     H99475   3.526   4.883  -1.900  0.9836  0.7909 -1.1077
  721MOL0     H99476   3.679   4.916  -2.089 -1.5980  2.0551 -0.5548
  721MOL0     H99477   3.521   4.961  -2.151 -2.3350 -0.2645  0.5854
  721MOL0     H99478   3.618   4.405  -1.363  1.7582 -1.1071  0.7161
  721MOL0     H99479   3.700   4.320  -1.146  0.6805 -2.4918  2.2172
  721MOL0     H99480   3.844   3.959  -0.958  3.4355  1.8369  0.4310
  721MOL0     H99481   4.006   3.887  -0.804  0.8024 -0.0640  2.2940
  721MOL0     H99482   4.576   3.733   0.417 -2.1637  2.7096 -3.9809
  721MOL0     H99483   4.785   3.702   0.571 -2.7124 -1.2399 -0.9135
  721MOL0     H99484   5.027   3.870   0.976 -0.1937 -0.3214  1.3944
  721MOL0     H99485   5.238   3.868   1.102  1.0872 -0.2475  0.3424
  721MOL0     H99486   5.650   3.836   0.890  0.4765 -1.0004  1.2172
  721MOL0     H99487   5.557   3.979   0.945 -0.4704 -0.3917 -0.5689
  721MOL0     H99488   5.762   3.916   1.061 -1.5318  1.5004 -1.9548
  721MOL0     H99489   5.669   3.785   1.140  0.5438  0.7624  0.0024
  721MOL0     H99490   5.554   4.075   1.154 -0.1580  1.1391  1.4866
  721MOL0     H99491   5.501   3.920   1.233 -0.8535  0.1159  0.1029
  721MOL0     H99492   5.723   3.921   1.370 -1.3995  0.1760  4.0718
  721MOL0     H99493   5.618   4.068   1.400  1.5503  4.1189 -2.6914
  721MOL0     H99494   5.949   4.252   1.262 -0.3178 -0.7364 -0.8175
  721MOL0     H99495   5.457   3.837   0.737  1.7105 -2.0672  1.7014
  721MOL0     H99496   5.233   3.888   0.500  0.7875 -1.6378 -2.3156
  721MOL0     H99497   5.372   3.786   0.538  0.0870 -3.6146  0.2681
  721MOL0     H99498   5.201   3.723   0.542 -2.3763  0.8415  1.4599
  722MOL0     O99499   9.030   7.524   0.272  0.3908 -0.4720 -0.0295
  722MOL0     C99500   9.143   7.544   0.312 -0.8285  0.2898  1.0556
  722MOL0     O99501   9.185   7.631   0.410  0.2960  0.3733 -0.6613
  722MOL0     C99502   9.091   7.686   0.498 -0.3438  0.7417 -0.1114
  722MOL0     C99503   9.014   7.792   0.449  0.3507  0.1554  0.8252
  722MOL0     C99504   8.922   7.862   0.524  0.0712 -1.0041 -0.2936
  722MOL0     C99505   8.916   7.833   0.668  0.1963 -0.4719 -0.4576
  722MOL0     O99506   8.835   7.902   0.747  0.6374  0.0764 -0.4752
  722MOL0     C99507   8.897   7.946   0.880 -0.2606  0.4204  0.5248
  722MOL0     C99508   9.037   8.009   0.859  0.0296 -0.3953  0.2328
  722MOL0     C99509   9.077   8.075   0.987 -0.4548  1.0138  0.1739
  722MOL0     C99510   9.224   8.134   0.982  0.0429  0.0943  0.3662
  722MOL0     C99511   9.255   8.176   1.123 -0.2118  0.0647 -0.4945
  722MOL0     C99512   9.352   8.295   1.120 -0.5557 -0.7919 -0.3103
  722MOL0     C99513   9.356   8.346   1.267 -0.0685  0.4340 -0.8424
  722MOL0     C99514   9.447   8.464   1.284 -0.1244 -0.3122  0.5786
  722MOL0     N99515   9.595   8.436   1.273 -0.5120  0.1600 -0.7190
  722MOL0     C99516   9.677   8.512   1.192  0.6785 -0.3582 -0.8318
  722MOL0     C99517   9.804   8.497   1.233 -0.5058  0.4879 -0.1982
  722MOL0     C99518   9.927   8.546   1.169  0.2550 -0.3217  0.4674
  722MOL0     C99519  10.037   8.580   1.270  0.1530 -0.3217  0.6685
  722MOL0     C99520  10.075   8.734   1.298 -0.7154  0.6658  0.1156
  722MOL0     C99521   9.960   8.813   1.352 -0.3637  0.0383 -0.7165
  722MOL0     O99522   9.851   8.826   1.260 -0.6425 -0.4044  0.3549
  722MOL0     C99523   9.737   8.900   1.274 -0.7320  0.4007 -0.7577
  722MOL0     C99524   9.705   8.983   1.386  0.2827  0.0592  1.2406
  722MOL0     C99525   9.578   9.044   1.395 -0.0551  0.7163  0.0754
  722MOL0     C99526   9.556   9.116   1.518  0.4432  0.4837  0.8502
  722MOL0     C99527   9.474   9.009   1.302 -0.3813 -0.6695 -0.3366
  722MOL0     C99528   9.324   9.047   1.315 -0.4073 -0.7935  0.5193
  722MOL0     O99529   9.227   8.999   1.229  0.5270  0.5105  0.1209
  722MOL0     C99530   9.094   9.036   1.255 -0.2315 -0.6692 -0.5621
  722MOL0     C99531   9.010   9.069   1.153  0.0599  0.4966  1.2236
  722MOL0     C99532   8.882   9.110   1.172  0.0572 -0.0551  0.5065
  722MOL0     C99533   8.824   9.112   1.299  0.3077 -0.0690 -0.2424
  722MOL0     O99534   8.689   9.162   1.329  0.0859  0.2396 -0.4414
  722MOL0     C99535   8.593   9.217   1.242 -0.4348  0.3850 -0.4735
  722MOL0     C99536   8.479   9.269   1.327 -0.3876  0.2105 -0.3972
  722MOL0     C99537   8.364   9.170   1.355 -0.0475  0.0979  0.5011
  722MOL0     C99538   8.250   9.224   1.439  0.7826 -0.7391  0.4141
  722MOL0     C99539   8.126   9.132   1.411  0.0775 -0.6926  0.6407
  722MOL0     C99540   8.165   8.988   1.460 -0.1537  0.1909  0.7199
  722MOL0     C99541   8.039   8.907   1.488  1.1241 -0.8854  0.2677
  722MOL0     C99542   7.966   8.833   1.373  1.1333 -0.0557  0.1667
  722MOL0    Cl99543   7.845   8.738   1.451 -0.8234  0.1750  0.3244
  722MOL0     C99544   8.909   9.084   1.400  0.4909  0.2985 -0.2446
  722MOL0     C99545   9.040   9.042   1.382 -0.1905  0.0425  0.1025
  722MOL0     O99546   9.308   9.143   1.388 -0.3893 -0.0290  0.3583
  722MOL0     C99547   9.513   8.930   1.194  1.0466 -0.0472  0.3997
  722MOL0     C99548   9.642   8.875   1.190 -0.0353  0.3290  0.6290
  722MOL0     N99549   9.799   8.404   1.334 -0.4525 -0.3415 -0.2200
  722MOL0     N99550   9.680   8.369   1.369 -0.6163 -0.5911 -1.1988
  722MOL0     C99551   9.000   7.726   0.713 -0.2892 -0.0298 -0.6523
  722MOL0     C99552   9.080   7.655   0.626 -0.5262 -1.0300 -1.5753
  722MOL0     C99553   9.265   7.470   0.251 -0.3290 -0.6583  0.1646
  722MOL0     C99554   9.400   7.513   0.287 -0.2626 -0.2669  0.2591
  722MOL0     C99555   9.510   7.450   0.235  0.3436  0.0511  0.2639
  722MOL0     C99556   9.501   7.326   0.159 -0.2954  0.0079  0.5303
  722MOL0     O99557   9.607   7.247   0.113  0.4885 -0.8411 -0.4343
  722MOL0     C99558   9.738   7.304   0.144 -0.2031  0.0603  0.1351
  722MOL0     C99559   9.845   7.198   0.100 -0.0741  1.1806  0.4843
  722MOL0     C99560   9.873   7.162  -0.045  0.0852 -0.2654  0.5467
  722MOL0     C99561   9.976   7.052  -0.052 -0.4056  0.0351 -1.0801
  722MOL0     C99562   9.987   6.994  -0.187 -0.1510  0.5538  0.1117
  722MOL0     C99563   9.965   6.950  -0.302  0.3985  0.2844 -0.4330
  722MOL0     C99564   9.374   7.277   0.140 -1.0598  0.2379  0.0714
  722MOL0     C99565   9.264   7.353   0.173  0.2558 -0.1358  0.8638
  722MOL0     C99566   9.134   7.277   0.161  0.1869 -0.9062  0.5752
  722MOL0     H99567   9.038   7.827   0.349 -0.6861  1.9987  1.1868
  722MOL0     H99568   8.855   7.940   0.490 -0.2735 -0.4787  1.4918
  722MOL0     H99569   8.909   7.857   0.943 -4.1415 -1.0348 -0.5126
  722MOL0     H99570   8.831   8.022   0.922 -1.1290  0.1817 -0.3785
  722MOL0     H99571   9.113   7.932   0.845 -0.6618 -1.0731  0.1359
  722MOL0     H99572   9.041   8.083   0.779 -0.6886 -2.6907 -2.0557
  722MOL0     H99573   9.006   8.157   1.000  1.4065  2.5840  0.9438
  722MOL0     H99574   9.072   8.003   1.069 -1.1299  0.4990 -0.3061
  722MOL0     H99575   9.281   8.044   0.956 -0.0773 -0.0505  0.5942
  722MOL0     H99576   9.236   8.223   0.920  0.7886 -0.2070  0.0596
  722MOL0     H99577   9.304   8.090   1.171 -0.9300  0.0950  0.3144
  722MOL0     H99578   9.159   8.200   1.169 -1.0214 -2.3100 -0.8025
  722MOL0     H99579   9.455   8.268   1.092  0.3935  1.5787  0.6397
  722MOL0     H99580   9.320   8.380   1.060  0.2452  1.0899  1.7612
  722MOL0     H99581   9.381   8.266   1.338 -0.5182 -0.6954 -1.9093
  722MOL0     H99582   9.262   8.389   1.301  1.0029  0.1304  3.0043
  722MOL0     H99583   9.401   8.533   1.213 -1.9405 -0.7073  1.3059
  722MOL0     H99584   9.432   8.502   1.385  0.3208 -1.7227  1.2090
  722MOL0     H99585   9.642   8.586   1.121  2.6688  0.1270 -1.3692
  722MOL0     H99586   9.899   8.633   1.109  0.1313 -1.6579 -1.5221
  722MOL0     H99587   9.969   8.475   1.098  0.6221  0.5985 -0.2531
  722MOL0     H99588  10.002   8.546   1.368 -2.6332  1.1380  0.3010
  722MOL0     H99589  10.127   8.540   1.222 -1.6781 -0.6400 -2.8262
  722MOL0     H99590  10.159   8.730   1.367  0.3232  1.3876 -1.0624
  722MOL0     H99591  10.105   8.781   1.203 -0.4471  1.7357  0.7166
  722MOL0     H99592   9.926   8.778   1.451  1.5478 -0.7542 -0.2815
  722MOL0     H99593  10.011   8.904   1.384  3.6598 -2.0710 -0.4485
  722MOL0     H99594   9.782   9.002   1.461  0.7130 -0.9870  1.0699
  722MOL0     H99595   9.468   9.066   1.560  1.5920 -5.1902 -2.3263
  722MOL0     H99596   9.561   9.221   1.489  2.8511 -0.1137 -1.2064
  722MOL0     H99597   9.635   9.097   1.590  0.4240 -0.6248  0.5977
  722MOL0     H99598   9.046   9.054   1.052 -1.0431 -5.3245  1.3690
  722MOL0     H99599   8.815   9.132   1.090 -0.5275  1.0957  1.2483
  722MOL0     H99600   8.638   9.303   1.190  0.3779  0.7068  0.7203
  722MOL0     H99601   8.561   9.135   1.178 -0.9297  0.6722 -0.5978
  722MOL0     H99602   8.522   9.300   1.422  0.7623  1.2301 -1.2221
  722MOL0     H99603   8.444   9.362   1.280  1.9044  0.9069 -0.8338
  722MOL0     H99604   8.403   9.080   1.405  2.9024  1.6524  1.2244
  722MOL0     H99605   8.327   9.146   1.255 -1.4876  2.9439  0.2712
  722MOL0     H99606   8.227   9.326   1.406 -1.6863 -1.3940 -0.0591
  722MOL0     H99607   8.273   9.221   1.546 -0.1546  0.9964  0.7002
  722MOL0     H99608   8.045   9.172   1.473  0.9252  3.1282 -0.4133
  722MOL0     H99609   8.105   9.131   1.304  2.3018 -1.2196  0.1647
  722MOL0     H99610   8.233   8.991   1.545  1.3314  2.5649 -0.4464
  722MOL0     H99611   8.214   8.941   1.374 -1.3106 -1.0002  0.6900
  722MOL0     H99612   7.968   8.976   1.535  3.4366  2.6340 -0.9922
  722MOL0     H99613   8.072   8.820   1.546  2.5504 -1.8861 -1.9099
  722MOL0     H99614   8.029   8.765   1.316  0.4141  0.3441 -1.1541
  722MOL0     H99615   7.914   8.909   1.313 -2.6001 -0.9139  1.9871
  722MOL0     H99616   8.870   9.088   1.501 -3.8472 -2.0523 -1.5862
  722MOL0     H99617   9.099   9.030   1.472  0.7773  0.9661 -0.3821
  722MOL0     H99618   9.445   8.906   1.113  1.7333  0.6003 -0.3972
  722MOL0     H99619   9.667   8.826   1.097  0.7223 -0.3774  1.1826
  722MOL0     H99620   9.008   7.712   0.820  1.2781  4.1845 -0.0628
  722MOL0     H99621   9.150   7.584   0.669  2.0240  3.2614  2.3482
  722MOL0     H99622   9.412   7.603   0.346 -1.4773  0.6297 -0.7916
  722MOL0     H99623   9.605   7.496   0.259 -0.3523  0.7246  1.8959
  722MOL0     H99624   9.751   7.402   0.098  0.5038  0.2946  0.7984
  722MOL0     H99625   9.755   7.321   0.251  0.6838 -0.3719  0.0712
  722MOL0     H99626   9.824   7.111   0.163 -0.4140  1.5974  0.9562
  722MOL0     H99627   9.944   7.226   0.139  0.1531  0.5379  0.3891
  722MOL0     H99628   9.784   7.120  -0.093 -0.9004  1.6252  0.6025
  722MOL0     H99629   9.906   7.248  -0.104 -1.4189  1.7395  2.4963
  722MOL0     H99630   9.952   6.978   0.024 -0.6575  1.4748  0.3064
  722MOL0     H99631  10.072   7.092  -0.017 -1.4580 -0.8467  3.3376
  722MOL0     H99632   9.949   6.895  -0.393 -0.7488 -2.0002  1.0319
  722MOL0     H99633   9.352   7.181   0.096  2.6849 -0.4213 -0.7293
  722MOL0     H99634   9.091   7.248   0.258  3.1712 -1.2095  1.9328
  722MOL0     H99635   9.077   7.333   0.087  2.2560 -1.2931 -1.3952
  722MOL0     H99636   9.153   7.184   0.106  3.3826 -0.5216  0.8612
  723MOL0     O99637   1.287   9.084   0.260 -0.5606 -0.0500  0.1472
  723MOL0     C99638   1.313   9.101   0.378  0.5836 -0.3662 -0.7896
  723MOL0     O99639   1.285   9.213   0.450  0.0100 -0.5853  0.8872
  723MOL0     C99640   1.195   9.309   0.403 -0.6216 -0.2451  0.2748
  723MOL0     C99641   1.208   9.434   0.479  0.0928  0.4620 -0.3472
  723MOL0     C99642   1.108   9.535   0.444  0.0200  0.6672  1.0332
  723MOL0     C99643   0.997   9.516   0.350 -1.6391 -1.3627 -0.4089
  723MOL0     O99644   0.921   9.628   0.332 -0.2696 -0.0472 -0.2601
  723MOL0     C99645   0.830   9.613   0.225 -0.3124 -0.4264 -0.5355
  723MOL0     C99646   0.718   9.710   0.263 -0.0377 -0.0913  0.2784
  723MOL0     C99647   0.763   9.860   0.252 -0.0196 -0.0151 -0.4993
  723MOL0     C99648   0.663   9.963   0.295  0.0557 -0.0913  0.3029
  723MOL0     C99649   0.731  10.101   0.303 -0.1194 -0.0936 -0.6137
  723MOL0     C99650   0.724  10.175   0.167  0.1435  0.2102  0.5622
  723MOL0     C99651   0.754  10.324   0.187  0.4591 -0.8095 -0.1287
  723MOL0     C99652   0.763  10.405   0.053 -0.2401 -0.7203 -0.5582
  723MOL0     N99653   0.849  10.515   0.068 -0.2181  0.5126 -0.3757
  723MOL0     C99654   0.982  10.524   0.065 -0.9097 -0.7673  0.8175
  723MOL0     C99655   1.016  10.650   0.104 -0.5079  0.5229  0.0145
  723MOL0     C99656   1.154  10.720   0.081 -0.2831  0.2206 -0.0423
  723MOL0     C99657   1.152  10.830  -0.026 -1.0615 -0.4312  0.6382
  723MOL0     C99658   1.287  10.895  -0.052  0.3260  0.1238  0.1591
  723MOL0     C99659   1.280  11.011  -0.154 -0.0056 -0.3566 -0.3113
  723MOL0     O99660   1.406  11.039  -0.211 -0.1899 -0.3108  0.1421
  723MOL0     C99661   1.484  11.135  -0.168  0.3104 -0.3788 -0.9398
  723MOL0     C99662   1.454  11.223  -0.058 -0.1790  0.3739  1.0630
  723MOL0     C99663   1.549  11.324  -0.031 -0.6263 -0.6934 -0.3731
  723MOL0     C99664   1.500  11.410   0.079 -0.4017  0.1576  0.2272
  723MOL0     C99665   1.682  11.331  -0.089 -0.2235 -0.8371 -1.0321
  723MOL0     C99666   1.783  11.424  -0.046 -0.1848  0.5610 -0.0597
  723MOL0     O99667   1.911  11.369  -0.076 -0.5389  0.0653  0.1159
  723MOL0     C99668   2.018  11.441  -0.030 -0.8764  0.0116  0.2280
  723MOL0     C99669   2.067  11.564  -0.079  0.1916  0.5573  0.3147
  723MOL0     C99670   2.172  11.640  -0.006  0.8762  0.6679  0.0007
  723MOL0     C99671   2.220  11.592   0.116  1.0891  0.1992  0.5337
  723MOL0     O99672   2.313  11.673   0.172 -0.5634  0.3456  1.0119
  723MOL0     C99673   2.359  11.675   0.308 -0.4189  0.0641  0.1136
  723MOL0     C99674   2.501  11.719   0.316 -0.7350 -0.1128 -0.1246
  723MOL0     C99675   2.561  11.758   0.454 -0.5151 -1.5628 -0.6533
  723MOL0     C99676   2.604  11.640   0.551 -0.4012  0.5946  0.5373
  723MOL0     C99677   2.746  11.587   0.523  0.3824 -0.5065  0.3552
  723MOL0     C99678   2.859  11.683   0.565 -0.0935 -0.1734 -0.1324
  723MOL0     C99679   2.991  11.658   0.489 -0.4791  0.4293  0.1328
  723MOL0     C99680   3.083  11.561   0.566  0.4244 -0.6133  0.5562
  723MOL0    Cl99681   3.119  11.626   0.728  0.1196 -0.0224  0.5841
  723MOL0     C99682   2.179  11.464   0.157 -0.1434  0.3355  1.0953
  723MOL0     C99683   2.083  11.386   0.086  1.1464  0.7404 -0.2778
  723MOL0     O99684   1.763  11.540  -0.014 -0.2332  0.2539  0.1757
  723MOL0     C99685   1.706  11.241  -0.193  0.5126 -0.9162 -0.2367
  723MOL0     C99686   1.607  11.146  -0.222 -0.5498  0.0702  0.4171
  723MOL0     N99687   0.908  10.716   0.142  0.8825  0.3133 -0.2747
  723MOL0     N99688   0.808  10.631   0.126  0.3989 -1.4551  0.6524
  723MOL0     C99689   1.002   9.391   0.268 -0.2848 -0.2450 -0.6583
  723MOL0     C99690   1.090   9.294   0.309 -1.1928  0.7506  0.2157
  723MOL0     C99691   1.365   8.987   0.467 -0.7465 -0.1650 -0.3653
  723MOL0     C99692   1.360   9.011   0.611 -0.6883 -0.5776  0.8072
  723MOL0     C99693   1.403   8.913   0.703  0.3464 -0.0683 -0.1813
  723MOL0     C99694   1.443   8.789   0.646  0.1721  0.1392 -0.0541
  723MOL0     O99695   1.490   8.685   0.720 -0.2941 -0.5122  0.1094
  723MOL0     C99696   1.540   8.716   0.853  0.4236 -0.3108  0.1379
  723MOL0     C99697   1.642   8.603   0.867 -0.3848 -0.8256  0.3299
  723MOL0     C99698   1.755   8.628   0.974  0.3749 -0.2189  0.0231
  723MOL0     C99699   1.832   8.498   1.018 -0.0216 -0.2287 -0.2171
  723MOL0     C99700   1.891   8.425   0.909  0.4370  0.4666  0.6935
  723MOL0     C99701   1.928   8.354   0.821  0.6549 -0.6473 -0.2314
  723MOL0     C99702   1.422   8.765   0.506  0.1702 -0.4207  0.1860
  723MOL0     C99703   1.393   8.865   0.420 -0.9668  0.2404 -0.3971
  723MOL0     C99704   1.405   8.828   0.280  0.7732 -0.7166  0.3124
  723MOL0     H99705   1.278   9.468   0.556  1.0358  1.2302 -1.4957
  723MOL0     H99706   1.116   9.623   0.507 -0.0685  2.3294 -1.1554
  723MOL0     H99707   0.785   9.514   0.215  1.6191 -1.2118 -2.0553
  723MOL0     H99708   0.869   9.650   0.130 -2.7315  2.6743 -0.4830
  723MOL0     H99709   0.635   9.700   0.192  1.3271 -0.9956 -1.2674
  723MOL0     H99710   0.672   9.686   0.359  3.3294 -2.3075  1.5287
  723MOL0     H99711   0.855   9.870   0.311  0.7080  1.9957 -1.8505
  723MOL0     H99712   0.796   9.881   0.150  0.3881  1.0731 -0.1639
  723MOL0     H99713   0.585   9.977   0.219  0.5503  0.6161 -0.0844
  723MOL0     H99714   0.628   9.925   0.391  1.4418 -1.0126  0.4599
  723MOL0     H99715   0.837  10.085   0.326  0.1673  2.1207 -0.1549
  723MOL0     H99716   0.693  10.160   0.387  2.8525 -1.3182  1.7610
  723MOL0     H99717   0.795  10.120   0.105 -1.2645 -0.7864 -0.2429
  723MOL0     H99718   0.625  10.177   0.121 -1.4396 -1.8765  3.5174
  723MOL0     H99719   0.850  10.333   0.239  1.2878 -0.6815 -1.6247
  723MOL0     H99720   0.681  10.374   0.251  1.3493 -1.7115  1.6511
  723MOL0     H99721   0.793  10.347  -0.035 -1.8966 -2.8240  0.1836
  723MOL0     H99722   0.665  10.451   0.034  1.7817  4.5055 -0.2008
  723MOL0     H99723   1.051  10.458   0.014 -1.7583  0.2124 -1.7699
  723MOL0     H99724   1.223  10.641   0.048 -2.6233 -2.9325  2.0369
  723MOL0     H99725   1.190  10.761   0.176  1.8238  0.6467 -0.9493
  723MOL0     H99726   1.093  10.797  -0.112  0.3373 -1.6109  0.0846
  723MOL0     H99727   1.093  10.914   0.013  3.1045  1.9437  2.4597
  723MOL0     H99728   1.328  10.934   0.042 -0.5468 -0.1808  0.6798
  723MOL0     H99729   1.350  10.819  -0.099 -0.5441  0.1703 -1.1182
  723MOL0     H99730   1.209  10.970  -0.227  0.6617  0.2303 -1.3283
  723MOL0     H99731   1.241  11.105  -0.116  0.3644 -0.0056 -0.7796
  723MOL0     H99732   1.361  11.223  -0.002  0.3540 -0.1655  1.9576
  723MOL0     H99733   1.393  11.396   0.097 -0.0681  0.0672  2.3625
  723MOL0     H99734   1.506  11.511   0.038  0.5443  0.2991  0.6712
  723MOL0     H99735   1.548  11.400   0.177  1.6443  0.9940 -0.6314
  723MOL0     H99736   2.019  11.617  -0.161 -0.3585  0.0338  0.2860
  723MOL0     H99737   2.203  11.738  -0.040  1.8658  0.7365  1.0528
  723MOL0     H99738   2.300  11.746   0.367 -1.1085 -1.5009  1.3663
  723MOL0     H99739   2.342  11.577   0.353 -1.6880 -0.9228 -2.2852
  723MOL0     H99740   2.556  11.640   0.265 -1.6548 -0.7911 -0.0770
  723MOL0     H99741   2.488  11.818   0.271 -7.7480 -0.6267 -0.2255
  723MOL0     H99742   2.478  11.806   0.508  0.7315  2.3951 -1.8994
  723MOL0     H99743   2.637  11.836   0.447  0.0682 -1.6551  2.8434
  723MOL0     H99744   2.533  11.558   0.534  1.2888 -0.4738 -1.9597
  723MOL0     H99745   2.607  11.681   0.653 -0.0726  1.5211  0.1565
  723MOL0     H99746   2.763  11.491   0.572 -0.5814 -0.4596  0.8117
  723MOL0     H99747   2.750  11.566   0.416  2.1087  2.7912 -0.3967
  723MOL0     H99748   2.877  11.653   0.669 -2.1091 -2.1087 -0.2713
  723MOL0     H99749   2.826  11.785   0.544  1.4950  0.3458 -0.2328
  723MOL0     H99750   3.034  11.756   0.468 -1.4786  0.8213 -0.1471
  723MOL0     H99751   2.970  11.613   0.391  2.3571 -1.0264  0.0727
  723MOL0     H99752   3.180  11.562   0.516 -1.3957  0.7345 -3.2986
  723MOL0     H99753   3.047  11.459   0.548  1.5909 -0.3760 -5.0123
  723MOL0     H99754   2.227  11.435   0.250 -2.1444  1.3013  2.5167
  723MOL0     H99755   2.055  11.290   0.128  3.5538  0.4906  0.9467
  723MOL0     H99756   1.806  11.248  -0.233  1.3639 -0.2745  1.8565
  723MOL0     H99757   1.640  11.070  -0.292  0.1663  0.8388 -0.1034
  723MOL0     H99758   0.925   9.370   0.194  0.2321 -0.2649 -1.1958
  723MOL0     H99759   1.067   9.206   0.250 -0.5396  1.9952 -2.0123
  723MOL0     H99760   1.327   9.104   0.654 -0.0969 -0.8032  1.7872
  723MOL0     H99761   1.404   8.945   0.806 -1.3916  1.2938 -0.5415
  723MOL0     H99762   1.575   8.819   0.860 -0.0583 -0.0389 -1.1642
  723MOL0     H99763   1.457   8.691   0.920 -0.7377  0.0605 -1.1296
  723MOL0     H99764   1.681   8.567   0.771 -3.6113 -0.6386 -1.1885
  723MOL0     H99765   1.576   8.527   0.908 -2.4046 -0.5728 -2.1883
  723MOL0     H99766   1.822   8.710   0.946 -0.4907  0.4816 -0.0387
  723MOL0     H99767   1.711   8.657   1.069  1.4814 -0.9462  0.7887
  723MOL0     H99768   1.761   8.430   1.066  0.6139 -0.5754  0.2595
  723MOL0     H99769   1.910   8.531   1.087  0.6211  0.0171 -1.0486
  723MOL0     H99770   1.950   8.290   0.738  0.2937 -0.0428 -0.7992
  723MOL0     H99771   1.445   8.667   0.467  0.4491 -0.6353  0.8786
  723MOL0     H99772   1.310   8.845   0.228 -0.5813  0.3864  2.9834
  723MOL0     H99773   1.481   8.884   0.226 -2.3996  1.9063 -1.8844
  723MOL0     H99774   1.418   8.720   0.270  1.7645 -0.7841  2.0047
  724MOL0     O99775   9.702   6.246   9.292  0.1909 -1.1174 -0.5285
  724MOL0     C99776   9.780   6.154   9.304  0.1523  0.1137 -0.0759
  724MOL0     O99777   9.742   6.026   9.260  0.3939  0.0622 -0.9389
  724MOL0     C99778   9.615   5.974   9.252  0.6633  0.1245  0.1405
  724MOL0     C99779   9.611   5.854   9.184  1.2353  0.9553 -0.1704
  724MOL0     C99780   9.485   5.785   9.191 -0.0477  0.1249 -1.2862
  724MOL0     C99781   9.368   5.840   9.243  0.7919 -0.0858 -0.2116
  724MOL0     O99782   9.265   5.754   9.243 -0.2321 -0.7562 -0.6469
  724MOL0     C99783   9.133   5.804   9.245 -0.1346  0.2102 -0.2211
  724MOL0     C99784   9.039   5.685   9.228 -0.0419  0.2656 -0.9559
  724MOL0     C99785   8.938   5.680   9.343  0.3811 -0.0137 -0.0555
  724MOL0     C99786   8.800   5.753   9.306  0.0375 -0.0395  1.0104
  724MOL0     C99787   8.809   5.914   9.307 -0.1273  0.6960 -0.1557
  724MOL0     C99788   8.830   5.982   9.441 -1.2456  1.2108  0.3585
  724MOL0     C99789   8.789   6.139   9.430  0.0919  0.2138  0.1391
  724MOL0     C99790   8.823   6.214   9.558  0.0419 -0.2669 -0.0958
  724MOL0     N99791   8.963   6.242   9.572 -0.7840 -0.7915  0.4338
  724MOL0     C99792   9.028   6.337   9.498 -0.5093  0.0118 -0.4310
  724MOL0     C99793   9.162   6.298   9.509  1.1018  0.1179  0.0166
  724MOL0     C99794   9.276   6.371   9.448 -0.3634 -0.6533  0.2545
  724MOL0     C99795   9.260   6.352   9.293 -0.1813  0.4735 -0.3668
  724MOL0     C99796   9.389   6.367   9.217  0.7082  0.5354 -0.0703
  724MOL0     C99797   9.450   6.513   9.222 -0.0523 -0.2200  0.5330
  724MOL0     O99798   9.500   6.550   9.345 -0.8176 -0.4286 -0.4977
  724MOL0     C99799   9.588   6.657   9.362  0.0131 -0.0424  0.1284
  724MOL0     C99800   9.658   6.661   9.481 -0.4027 -0.0467 -0.3324
  724MOL0     C99801   9.743   6.767   9.518 -0.1353  0.9165 -0.6099
  724MOL0     C99802   9.835   6.746   9.643  0.5224 -0.7819 -0.1477
  724MOL0     C99803   9.752   6.886   9.437 -0.0962 -0.0822  0.1438
  724MOL0     C99804   9.813   7.017   9.475  0.4179  0.0522  0.2445
  724MOL0     O99805   9.812   7.108   9.378 -0.0263  0.1829  0.5862
  724MOL0     C99806   9.863   7.236   9.391  0.0523 -0.8068  0.4924
  724MOL0     C99807   9.994   7.260   9.340 -0.3091  0.9012 -0.2774
  724MOL0     C99808  10.049   7.389   9.333 -0.0387 -0.2801  0.1180
  724MOL0     C99809   9.972   7.495   9.370 -0.1262 -0.2332 -0.7211
  724MOL0     O99810  10.003   7.632   9.352  0.3887  1.1401  0.3864
  724MOL0     C99811  10.018   7.674   9.215  0.4121  0.7032  0.3711
  724MOL0     C99812  10.027   7.825   9.226  0.1251  0.7931 -0.3344
  724MOL0     C99813   9.898   7.883   9.272  0.0224 -0.6054 -1.0690
  724MOL0     C99814   9.888   8.036   9.247  0.1984  0.6130  0.3996
  724MOL0     C99815   9.756   8.108   9.275 -0.4056  1.0586 -0.0060
  724MOL0     C99816   9.722   8.127   9.423 -0.3210 -0.3248 -0.1261
  724MOL0     C99817   9.575   8.130   9.443  0.2039 -0.3442 -0.4061
  724MOL0     C99818   9.551   8.160   9.592  0.3258 -0.2796 -0.1437
  724MOL0    Cl99819   9.396   8.244   9.591 -0.1040  0.4269 -0.1031
  724MOL0     C99820   9.845   7.472   9.421  0.7382  0.0820 -0.2190
  724MOL0     C99821   9.788   7.345   9.430  0.4366 -0.0507 -0.1207
  724MOL0     O99822   9.875   7.025   9.579 -0.1193 -0.4116  0.3165
  724MOL0     C99823   9.687   6.877   9.307 -0.2187 -0.1398  0.6367
  724MOL0     C99824   9.612   6.759   9.269  0.9721 -0.6329  0.1894
  724MOL0     N99825   9.174   6.202   9.606  0.9196  0.4408  0.6033
  724MOL0     N99826   9.056   6.167   9.643 -0.0221 -0.0639 -0.0691
  724MOL0     C99827   9.374   5.974   9.298 -0.2009 -0.0799  0.9824
  724MOL0     C99828   9.500   6.035   9.309 -0.0139  0.9169 -0.8653
  724MOL0     C99829   9.917   6.173   9.354  0.0130  0.5888 -0.5967
  724MOL0     C99830   9.997   6.061   9.388 -0.3593  0.0190  0.5490
  724MOL0     C99831  10.124   6.073   9.445  0.3205 -0.4366 -0.6554
  724MOL0     C99832  10.182   6.202   9.463 -0.2531 -0.1921 -0.8075
  724MOL0     O99833  10.306   6.207   9.517  0.5086 -0.4797  0.1449
  724MOL0     C99834  10.413   6.135   9.447  1.0678  0.3334  0.0390
  724MOL0     C99835  10.434   6.189   9.307 -0.1159 -0.4272 -0.6265
  724MOL0     C99836  10.561   6.137   9.237 -0.9906 -0.4368  1.2440
  724MOL0     C99837  10.681   6.225   9.264  0.0104  0.8617  0.2307
  724MOL0     C99838  10.819   6.184   9.215  0.4873  0.3343 -0.0607
  724MOL0     C99839  10.928   6.151   9.165 -0.1938  0.2791 -0.3418
  724MOL0     C99840  10.103   6.315   9.437 -0.4556  0.7748  0.7681
  724MOL0     C99841   9.967   6.301   9.380  0.3614 -0.0688 -0.9213
  724MOL0     C99842   9.888   6.431   9.374 -0.6082  0.2153  0.2116
  724MOL0     H99843   9.694   5.799   9.140  1.7645 -0.5681  2.5176
  724MOL0     H99844   9.476   5.685   9.150 -3.6279 -0.4836  0.5225
  724MOL0     H99845   9.114   5.889   9.179 -1.6886  0.7813  0.9068
  724MOL0     H99846   9.108   5.850   9.341 -1.2302  0.0822 -0.4320
  724MOL0     H99847   8.989   5.698   9.131  1.2367  0.1052 -1.6570
  724MOL0     H99848   9.098   5.595   9.208 -1.5025 -0.9255 -0.1637
  724MOL0     H99849   8.910   5.576   9.357  0.1468 -0.0870 -0.9865
  724MOL0     H99850   8.979   5.715   9.438 -0.9282  0.4907  0.3455
  724MOL0     H99851   8.771   5.720   9.206 -0.2858  1.0184  0.7387
  724MOL0     H99852   8.717   5.713   9.365  0.1401 -0.4869  0.8522
  724MOL0     H99853   8.708   5.945   9.280  0.0706  2.5616  1.1263
  724MOL0     H99854   8.890   5.949   9.241  0.5537 -0.8239 -0.1735
  724MOL0     H99855   8.752   5.935   9.502  0.9297 -2.9606  0.3085
  724MOL0     H99856   8.934   5.961   9.466 -0.9617  2.0130 -0.1098
  724MOL0     H99857   8.689   6.165   9.394 -0.3980 -1.0924  0.5045
  724MOL0     H99858   8.849   6.177   9.347 -1.5409 -0.7123 -1.5416
  724MOL0     H99859   8.763   6.304   9.575 -0.7723 -1.1537  2.0912
  724MOL0     H99860   8.808   6.131   9.627 -1.7889 -0.8419 -1.1191
  724MOL0     H99861   8.979   6.408   9.432 -1.6156 -2.9350 -3.0284
  724MOL0     H99862   9.374   6.334   9.478  0.4138 -0.5418 -1.9593
  724MOL0     H99863   9.249   6.472   9.480 -2.2422 -1.4102  1.2448
  724MOL0     H99864   9.235   6.248   9.272 -2.1947  0.1956  2.7430
  724MOL0     H99865   9.183   6.420   9.256 -1.0827 -0.7453 -0.7757
  724MOL0     H99866   9.475   6.301   9.234  3.0844  3.6660  1.1488
  724MOL0     H99867   9.357   6.341   9.116  1.9777  0.7096 -0.5326
  724MOL0     H99868   9.533   6.520   9.152  1.4467  3.9955  2.4182
  724MOL0     H99869   9.386   6.592   9.182  2.2286  0.5064 -1.8968
  724MOL0     H99870   9.639   6.578   9.548  0.9904 -0.5751 -0.5545
  724MOL0     H99871   9.857   6.638   9.646  0.7504 -0.8878 -2.9024
  724MOL0     H99872   9.777   6.788   9.725  3.1555 -0.7688  1.8414
  724MOL0     H99873   9.934   6.794   9.638  1.9646 -3.4594  0.4144
  724MOL0     H99874  10.058   7.176   9.313 -1.6372 -1.2232  2.6253
  724MOL0     H99875  10.155   7.397   9.315  0.6814 -1.5998  3.1920
  724MOL0     H99876  10.110   7.632   9.175 -0.0554  1.6448 -1.8096
  724MOL0     H99877   9.936   7.635   9.155 -0.7123  0.2917  2.0866
  724MOL0     H99878  10.109   7.844   9.297  0.4348 -3.1127  0.5663
  724MOL0     H99879  10.062   7.868   9.132  2.5671 -1.6988 -0.6942
  724MOL0     H99880   9.889   7.867   9.380  0.4153  3.9160 -0.1366
  724MOL0     H99881   9.809   7.844   9.223 -1.1127  1.7813 -1.0733
  724MOL0     H99882   9.908   8.047   9.140  1.4632 -0.4169  0.4939
  724MOL0     H99883   9.957   8.089   9.313  1.6105 -1.5351  0.7467
  724MOL0     H99884   9.766   8.210   9.236  0.6662  1.6282  1.6383
  724MOL0     H99885   9.674   8.055   9.225  1.5393 -3.2098  0.8533
  724MOL0     H99886   9.777   8.214   9.460  0.9201 -0.3024 -1.9437
  724MOL0     H99887   9.759   8.039   9.478  0.9127 -0.4367 -1.1107
  724MOL0     H99888   9.513   8.049   9.406 -0.6653 -1.3103  2.8134
  724MOL0     H99889   9.530   8.219   9.398  0.4093 -1.1035 -2.2096
  724MOL0     H99890   9.625   8.234   9.624  2.9397 -2.0470 -1.6792
  724MOL0     H99891   9.560   8.075   9.660 -1.5648 -0.9406 -0.6638
  724MOL0     H99892   9.786   7.556   9.457 -2.8226 -2.4013  0.3217
  724MOL0     H99893   9.686   7.329   9.463 -1.1021 -0.1560 -4.3466
  724MOL0     H99894   9.698   6.952   9.230 -1.1968  0.5974  1.1838
  724MOL0     H99895   9.562   6.754   9.173 -1.8251  2.8899  1.2426
  724MOL0     H99896   9.284   6.029   9.323  1.4379  2.3141  1.9481
  724MOL0     H99897   9.515   6.131   9.358 -1.5889  0.9893 -0.4711
  724MOL0     H99898   9.950   5.964   9.377  1.1238 -0.7911  1.0650
  724MOL0     H99899  10.183   5.986   9.473  3.5849  1.4966 -0.9417
  724MOL0     H99900  10.509   6.162   9.492  1.8812 -0.9804 -0.8620
  724MOL0     H99901  10.402   6.026   9.452  2.0266  0.2546  3.8828
  724MOL0     H99902  10.437   6.296   9.332 -0.6577 -0.9439  1.9660
  724MOL0     H99903  10.353   6.176   9.235  0.9682  1.1657 -2.2057
  724MOL0     H99904  10.593   6.042   9.282  2.7333 -0.1605 -0.4618
  724MOL0     H99905  10.537   6.122   9.131  1.9381  1.7306  0.1583
  724MOL0     H99906  10.695   6.238   9.371  0.8452 -0.3792  0.2796
  724MOL0     H99907  10.672   6.328   9.226  1.1099  0.5944 -0.8194
  724MOL0     H99908  11.022   6.130   9.118 -0.7703 -0.4729 -1.1942
  724MOL0     H99909  10.157   6.408   9.452  0.6122 -0.0978  2.7295
  724MOL0     H99910   9.949   6.516   9.405 -0.6912 -0.5144  2.5370
  724MOL0     H99911   9.851   6.447   9.272 -0.0130  1.2044  0.1393
  724MOL0     H99912   9.812   6.423   9.451 -0.0034  0.2069  0.8129
  725MOL0     O99913   2.150  11.040   0.395  0.7774 -0.8553 -0.6577
  725MOL0     C99914   2.080  11.135   0.438  0.7083 -0.7790 -1.2408
  725MOL0     O99915   1.949  11.157   0.425 -0.1032  0.0434  0.4730
  725MOL0     C99916   1.866  11.065   0.357  0.4259  1.6774  0.2923
  725MOL0     C99917   1.838  11.072   0.222  0.2223  0.0548 -0.4080
  725MOL0     C99918   1.772  10.968   0.154  0.1540 -0.5943  0.0668
  725MOL0     C99919   1.724  10.854   0.226 -0.6661  0.9079  0.3364
  725MOL0     O99920   1.656  10.744   0.177 -0.6487 -0.4355  0.3886
  725MOL0     C99921   1.574  10.761   0.062 -1.2466 -1.0139  0.1943
  725MOL0     C99922   1.650  10.696  -0.056  0.1653  0.0684  0.0589
  725MOL0     C99923   1.615  10.546  -0.050  0.3173 -0.0090  0.0866
  725MOL0     C99924   1.680  10.461  -0.157 -0.3812 -0.0357 -0.3838
  725MOL0     C99925   1.655  10.311  -0.130  0.4660  0.6545  0.3213
  725MOL0     C99926   1.737  10.226  -0.225 -0.6614 -0.0293 -0.1023
  725MOL0     C99927   1.767  10.091  -0.166 -0.5391  0.9248  0.2376
  725MOL0     C99928   1.834  10.087  -0.028 -1.3887  0.7323  0.5911
  725MOL0     N99929   1.863   9.952   0.019  0.7733 -0.2305  0.0109
  725MOL0     C99930   1.963   9.869  -0.021  0.1151 -0.5506  0.0410
  725MOL0     C99931   1.932   9.745   0.026 -0.7758  0.0958  0.8801
  725MOL0     C99932   2.019   9.634  -0.005 -0.3909  1.0318 -0.7016
  725MOL0     C99933   2.059   9.569   0.133 -0.2937 -0.0155  0.5077
  725MOL0     C99934   2.114   9.425   0.132 -0.0430 -0.6077  0.1478
  725MOL0     C99935   2.222   9.402   0.030  0.3067  0.4476  0.0082
  725MOL0     O99936   2.264   9.265   0.048 -1.2124  0.1892  0.0626
  725MOL0     C99937   2.375   9.218  -0.025  0.5794 -0.1414 -0.0607
  725MOL0     C99938   2.457   9.299  -0.104  0.6053 -0.0342  0.2369
  725MOL0     C99939   2.562   9.247  -0.174  0.2523  0.3478 -0.2583
  725MOL0     C99940   2.642   9.363  -0.233 -0.0970  1.0706 -0.4373
  725MOL0     C99941   2.581   9.108  -0.166 -0.0358 -0.0884 -0.0277
  725MOL0     C99942   2.692   9.037  -0.236 -0.3109  0.6922  0.1558
  725MOL0     O99943   2.693   8.897  -0.243  0.6918  0.8410 -0.2983
  725MOL0     C99944   2.798   8.830  -0.300  0.1704 -0.1344 -0.0125
  725MOL0     C99945   2.774   8.781  -0.430  0.5323  0.3428  0.5153
  725MOL0     C99946   2.861   8.690  -0.495 -0.1122 -0.0434 -0.7630
  725MOL0     C99947   2.983   8.663  -0.431  0.2575  0.1607 -0.4100
  725MOL0     O99948   3.067   8.573  -0.491  0.2721  0.6248 -0.0927
  725MOL0     C99949   3.211   8.575  -0.461  0.4538  0.3159  0.3715
  725MOL0     C99950   3.273   8.446  -0.512  0.6880 -0.0582 -0.5057
  725MOL0     C99951   3.243   8.391  -0.655 -0.1699  0.9399 -0.8102
  725MOL0     C99952   3.340   8.289  -0.710  0.8213  0.8562 -0.5231
  725MOL0     C99953   3.294   8.249  -0.847  0.6317 -0.7771  0.1750
  725MOL0     C99954   3.408   8.158  -0.907  0.8165  0.9795  0.2846
  725MOL0     C99955   3.511   8.233  -0.991  0.2300 -0.0087  0.1419
  725MOL0     C99956   3.583   8.157  -1.099  0.8021 -0.4228  1.0252
  725MOL0    Cl99957   3.708   8.058  -1.018  0.1694  0.1691  0.3658
  725MOL0     C99958   3.013   8.722  -0.303  0.6798  0.1528 -0.4143
  725MOL0     C99959   2.923   8.803  -0.242  0.0765 -0.1524  0.0133
  725MOL0     O99960   2.795   9.097  -0.266 -0.1780 -0.4950  0.4818
  725MOL0     C99961   2.489   9.024  -0.103  0.6733  0.6394  0.7391
  725MOL0     C99962   2.385   9.077  -0.030 -0.3430  0.6062 -0.9462
  725MOL0     N99963   1.818   9.753   0.103 -0.4966 -0.0617 -0.0409
  725MOL0     N99964   1.790   9.880   0.096 -0.6867  0.3857 -0.9099
  725MOL0     C99965   1.756  10.853   0.363  0.2898  0.3569 -0.6560
  725MOL0     C99966   1.825  10.957   0.426 -0.3385  0.5846  0.7314
  725MOL0     C99967   2.152  11.237   0.523  0.0192  0.9660  0.1200
  725MOL0     C99968   2.078  11.317   0.612 -0.1211  0.8450  0.0371
  725MOL0     C99969   2.137  11.403   0.699 -0.4027  0.3155 -0.0444
  725MOL0     C99970   2.276  11.419   0.717 -0.7088  0.0128  0.5290
  725MOL0     O99971   2.331  11.522   0.797  0.0723 -0.9364  0.4856
  725MOL0     C99972   2.457  11.483   0.848 -0.9602  0.4913  0.2154
  725MOL0     C99973   2.488  11.559   0.978  0.9947  0.5000 -0.4304
  725MOL0     C99974   2.635  11.541   1.022 -0.1302 -0.4016  0.0272
  725MOL0     C99975   2.752  11.592   0.922  0.3977 -0.4150 -0.9356
  725MOL0     C99976   2.726  11.735   0.906 -0.4985 -1.1734  1.0676
  725MOL0     C99977   2.715  11.847   0.858  0.5521  0.2062 -0.7397
  725MOL0     C99978   2.351  11.360   0.609 -0.0669 -0.2772 -0.2263
  725MOL0     C99979   2.295  11.265   0.518 -0.4406 -0.3859 -0.3658
  725MOL0     C99980   2.394  11.200   0.428  0.6416  0.0517  0.5358
  725MOL0     H99981   1.859  11.168   0.175  0.2883 -0.3660 -1.2682
  725MOL0     H99982   1.748  10.976   0.048  0.7088  2.2216  0.1005
  725MOL0     H99983   1.549  10.865   0.040 -2.7559 -1.4361 -0.1518
  725MOL0     H99984   1.476  10.719   0.086 -0.0768 -3.0314  1.9165
  725MOL0     H99985   1.614  10.738  -0.151  1.7575 -0.0635 -0.6477
  725MOL0     H99986   1.757  10.717  -0.064  0.0920  0.2051 -0.6699
  725MOL0     H99987   1.654  10.515   0.047  1.1584  0.7421 -0.0043
  725MOL0     H99988   1.507  10.536  -0.037  0.1787  2.4656  1.7182
  725MOL0     H99989   1.635  10.494  -0.251  1.3393  1.5486 -0.7194
  725MOL0     H99990   1.783  10.497  -0.168 -1.5647  4.1930  0.4806
  725MOL0     H99991   1.547  10.290  -0.133  0.0928  1.8468  2.8562
  725MOL0     H99992   1.694  10.301  -0.028  0.1305  0.9343  0.4787
  725MOL0     H99993   1.692  10.226  -0.325  2.1130  3.2544 -1.5240
  725MOL0     H99994   1.833  10.279  -0.232 -0.9661  0.3667 -1.5987
  725MOL0     H99995   1.832  10.042  -0.239 -1.8528  0.8696 -0.9492
  725MOL0     H99996   1.671  10.037  -0.165 -0.6838  1.1798  0.8863
  725MOL0     H99997   1.923  10.150  -0.026 -0.1988 -0.6250 -2.7875
  725MOL0     H99998   1.765  10.130   0.046 -0.3472  2.5831  0.5460
  725MOL0     H99999   2.051   9.898  -0.077  1.4065  1.3411  2.8033
  725MOL0     H    0   2.107   9.662  -0.064 -0.5772 -4.4029 -4.2303
  725MOL0     H    1   1.962   9.562  -0.064  1.8132 -2.4608  1.0579
  725MOL0     H    2   2.130   9.640   0.177 -2.3166  1.5785  1.3173
  725MOL0     H    3   1.984   9.579   0.212 -0.5839 -1.6736  0.4758
  725MOL0     H    4   2.155   9.417   0.233  0.7250 -0.9714 -0.1824
  725MOL0     H    5   2.038   9.347   0.139  0.4547 -1.1134 -0.0261
  725MOL0     H    6   2.167   9.410  -0.064 -0.7382 -0.9421  0.4683
  725MOL0     H    7   2.296   9.482   0.038 -0.1149  0.7381  1.1715
  725MOL0     H    8   2.443   9.406  -0.114 -0.6573 -0.1028  1.0100
  725MOL0     H    9   2.664   9.355  -0.340 -0.1898  1.4206 -0.4839
  725MOL0     H   10   2.743   9.370  -0.191 -0.7667  2.4571  1.0430
  725MOL0     H   11   2.595   9.461  -0.220 -1.7306  0.5242 -1.7781
  725MOL0     H   12   2.695   8.818  -0.494  4.1549  0.0473 -4.7246
  725MOL0     H   13   2.839   8.643  -0.590 -4.0858  0.9359 -0.5047
  725MOL0     H   14   3.260   8.658  -0.513 -0.2230  0.8359  0.5501
  725MOL0     H   15   3.236   8.588  -0.355 -2.0890 -2.5934  1.4918
  725MOL0     H   16   3.379   8.449  -0.487 -0.1754 -0.8153  4.1756
  725MOL0     H   17   3.225   8.373  -0.446 -4.4849 -0.2384 -3.8898
  725MOL0     H   18   3.226   8.482  -0.712 -2.2866  0.9405 -0.2591
  725MOL0     H   19   3.146   8.340  -0.652  1.9190 -3.5008  1.5397
  725MOL0     H   20   3.339   8.199  -0.648 -0.9066 -0.2508 -2.0481
  725MOL0     H   21   3.437   8.339  -0.705  2.3149 -1.8822 -0.1875
  725MOL0     H   22   3.198   8.197  -0.832 -0.4154  1.4840  2.1825
  725MOL0     H   23   3.284   8.335  -0.914 -0.0976  0.8324  2.2049
  725MOL0     H   24   3.370   8.085  -0.979  2.2684  0.9456 -0.4931
  725MOL0     H   25   3.470   8.106  -0.833 -2.2130  1.0049  3.1039
  725MOL0     H   26   3.593   8.276  -0.933  2.4207 -1.3972 -1.8081
  725MOL0     H   27   3.467   8.320  -1.040  0.5614 -0.5473 -1.1544
  725MOL0     H   28   3.639   8.224  -1.165 -1.8414  0.9412  0.0236
  725MOL0     H   29   3.515   8.099  -1.162  0.9017  1.6243 -1.1231
  725MOL0     H   30   3.112   8.706  -0.262  1.5258  0.3679 -2.2798
  725MOL0     H   31   2.945   8.852  -0.148 -1.7529 -2.4471  1.7497
  725MOL0     H   32   2.493   8.916  -0.104 -0.6173  0.5575 -1.8150
  725MOL0     H   33   2.321   9.005   0.019 -1.2167  0.5732 -2.0862
  725MOL0     H   34   1.722  10.779   0.435 -0.0957  0.5763 -0.6117
  725MOL0     H   35   1.844  10.952   0.533 -0.2415 -0.4006  0.6763
  725MOL0     H   36   1.969  11.311   0.619  0.0487 -1.0983  2.5510
  725MOL0     H   37   2.068  11.457   0.763  0.1208 -2.7048  3.4122
  725MOL0     H   38   2.470  11.379   0.879 -1.0475  0.3652 -0.1774
  725MOL0     H   39   2.533  11.512   0.775 -0.8291 -0.0886  0.1184
  725MOL0     H   40   2.411  11.540   1.053  0.4691  1.7819 -0.6187
  725MOL0     H   41   2.477  11.666   0.955 -0.6898 -0.1552 -3.1530
  725MOL0     H   42   2.649  11.595   1.116  0.7676  0.6259 -0.6837
  725MOL0     H   43   2.655  11.440   1.058  0.8489 -0.0728  0.4236
  725MOL0     H   44   2.740  11.532   0.831  1.3734 -0.9546 -0.7204
  725MOL0     H   45   2.850  11.584   0.969  2.3161  0.6658 -4.4858
  725MOL0     H   46   2.704  11.950   0.829 -0.8258  0.6629  1.2065
  725MOL0     H   47   2.458  11.370   0.598  0.1755 -1.9642  0.2878
  725MOL0     H   48   2.407  11.100   0.471 -0.5912  0.0261  0.8731
  725MOL0     H   49   2.346  11.181   0.332 -4.6718  0.0254  2.8427
  725MOL0     H   50   2.489  11.252   0.413 -0.2017  0.8764 -2.5541
  726MOL0     O   51   6.230   0.831   5.180 -0.1793 -0.2980 -0.0420
  726MOL0     C   52   6.306   0.768   5.261 -0.2942 -0.1095  0.0235
  726MOL0     O   53   6.346   0.636   5.250  0.2962 -0.1917 -0.5556
  726MOL0     C   54   6.275   0.569   5.149  0.2940 -0.4850 -0.4088
  726MOL0     C   55   6.284   0.596   5.017 -0.0906 -0.2172  0.0193
  726MOL0     C   56   6.233   0.517   4.913  0.0956  0.1261  0.1615
  726MOL0     C   57   6.173   0.398   4.949 -0.3014  0.0200  0.5206
  726MOL0     O   58   6.129   0.311   4.852  0.4674  0.4796 -0.0211
  726MOL0     C   59   6.141   0.344   4.715  0.3280  0.6949 -1.2541
  726MOL0     C   60   6.066   0.232   4.630 -0.6792 -1.5643 -0.1354
  726MOL0     C   61   5.911   0.218   4.634  0.7127  0.3126  0.5523
  726MOL0     C   62   5.857   0.183   4.768  0.3584  0.8356 -0.7507
  726MOL0     C   63   5.711   0.149   4.746 -0.2754 -0.2872  0.6598
  726MOL0     C   64   5.647   0.099   4.871  0.3215  1.5806  0.3710
  726MOL0     C   65   5.621  -0.057   4.878  0.3045  0.1575 -0.1192
  726MOL0     C   66   5.489  -0.083   4.801 -0.1086  0.0023  0.3271
  726MOL0     N   67   5.474  -0.225   4.785 -0.6993 -0.3714 -0.3387
  726MOL0     C   68   5.489  -0.321   4.887  0.0528  0.4686  0.0869
  726MOL0     C   69   5.462  -0.440   4.824  0.5004 -0.2898  0.4931
  726MOL0     C   70   5.440  -0.582   4.881 -0.9457  0.0859  0.1787
  726MOL0     C   71   5.569  -0.671   4.876  0.0233  0.1084 -0.3153
  726MOL0     C   72   5.563  -0.789   4.975 -0.0557 -0.4825  0.3814
  726MOL0     C   73   5.595  -0.755   5.120 -0.1808  0.5068 -0.2927
  726MOL0     O   74   5.567  -0.878   5.197  0.1662 -0.2768 -0.6326
  726MOL0     C   75   5.559  -0.882   5.338 -0.1912  0.6536 -0.2608
  726MOL0     C   76   5.502  -0.995   5.396 -0.1698  0.1034 -0.1096
  726MOL0     C   77   5.482  -1.001   5.538 -1.1132 -0.5380 -0.0445
  726MOL0     C   78   5.413  -1.127   5.588 -0.6427 -0.0718 -0.3347
  726MOL0     C   79   5.526  -0.886   5.624 -0.9280  0.2396  0.2914
  726MOL0     C   80   5.511  -0.871   5.778 -1.0154  0.5019 -0.3557
  726MOL0     O   81   5.448  -0.970   5.846 -0.0741 -0.0170  0.0727
  726MOL0     C   82   5.426  -0.968   5.978 -0.8422 -0.8024 -1.0642
  726MOL0     C   83   5.455  -1.081   6.054  0.2035 -0.0414 -0.3972
  726MOL0     C   84   5.446  -1.093   6.193  0.2765 -0.9916 -0.5916
  726MOL0     C   85   5.383  -0.985   6.263  0.2602  0.7370 -0.3182
  726MOL0     O   86   5.363  -0.984   6.399  0.0301  0.0021 -0.7774
  726MOL0     C   87   5.380  -1.107   6.481 -0.1008 -0.0250 -0.2395
  726MOL0     C   88   5.386  -1.062   6.627  0.2146 -0.2036  0.1011
  726MOL0     C   89   5.451  -1.171   6.709 -1.1586  0.2056 -0.1547
  726MOL0     C   90   5.485  -1.126   6.852 -0.6794 -0.0409 -0.0107
  726MOL0     C   91   5.549  -1.237   6.938  1.3621  0.2006 -0.8014
  726MOL0     C   92   5.453  -1.346   6.975 -0.2287  1.0450 -0.2397
  726MOL0     C   93   5.509  -1.468   7.043 -0.3955 -0.4418 -0.8406
  726MOL0     C   94   5.400  -1.578   7.036 -0.3191 -0.0521  0.6073
  726MOL0    Cl   95   5.453  -1.718   7.128 -0.5411  0.4514 -0.1846
  726MOL0     C   96   5.362  -0.864   6.191 -0.4980 -0.3667 -1.6302
  726MOL0     C   97   5.382  -0.860   6.052 -0.0735 -0.1818 -0.3157
  726MOL0     O   98   5.552  -0.768   5.834  0.4059 -0.0144 -0.6029
  726MOL0     C   99   5.582  -0.780   5.554 -0.3648 -0.0735 -0.6775
  726MOL0     C  100   5.602  -0.775   5.416  0.2867  1.2618 -0.2235
  726MOL0     N  101   5.448  -0.424   4.692 -0.7974 -0.2083  0.1653
  726MOL0     N  102   5.460  -0.295   4.667 -0.4930 -0.5267 -0.1761
  726MOL0     C  103   6.154   0.369   5.086  0.5843  0.3162 -1.7738
  726MOL0     C  104   6.202   0.445   5.191 -0.6151 -0.8770  0.0789
  726MOL0     C  105   6.376   0.846   5.379  0.0544 -0.3022  0.8303
  726MOL0     C  106   6.507   0.814   5.405  0.0668  0.2293 -0.4144
  726MOL0     C  107   6.581   0.861   5.515  0.3965  0.2672 -0.0336
  726MOL0     C  108   6.526   0.961   5.591  0.6260 -0.9875 -0.2686
  726MOL0     O  109   6.597   0.997   5.702  0.2736  0.3938  0.1741
  726MOL0     C  110   6.517   1.046   5.808  0.2368 -0.7743 -0.3443
  726MOL0     C  111   6.533   1.205   5.788  0.5767  0.4772  1.5272
  726MOL0     C  112   6.479   1.269   5.919 -0.0463 -0.1995 -0.4025
  726MOL0     C  113   6.504   1.417   5.915  0.2115  0.0431 -0.1155
  726MOL0     C  114   6.444   1.491   6.029 -0.1514  0.2459 -0.5437
  726MOL0     C  115   6.427   1.551   6.136  0.2575 -0.6413 -0.1256
  726MOL0     C  116   6.389   1.001   5.551 -2.2871 -0.3615 -0.5762
  726MOL0     C  117   6.314   0.947   5.452  0.2807 -0.7230 -0.0841
  726MOL0     C  118   6.168   0.979   5.437 -0.0207  0.2782  0.1955
  726MOL0     H  119   6.334   0.688   4.987 -1.4693  0.2699 -0.8569
  726MOL0     H  120   6.257   0.543   4.810  2.4675  1.3499  0.9594
  726MOL0     H  121   6.247   0.339   4.693  0.7254  1.5973  0.2884
  726MOL0     H  122   6.101   0.445   4.699  2.6077  1.6320 -1.3751
  726MOL0     H  123   6.083   0.250   4.523 -3.9371  1.8780 -0.2811
  726MOL0     H  124   6.108   0.132   4.645  0.9624 -0.5306  3.0157
  726MOL0     H  125   5.866   0.310   4.597  2.3249  0.5491 -0.9683
  726MOL0     H  126   5.889   0.140   4.560  1.8730 -0.5527  1.0765
  726MOL0     H  127   5.908   0.095   4.807 -1.1585  0.1927 -0.1372
  726MOL0     H  128   5.870   0.271   4.832  0.7437 -0.1401  0.5598
  726MOL0     H  129   5.698   0.067   4.673 -2.6963  1.4229 -0.9828
  726MOL0     H  130   5.658   0.236   4.706  0.9470  0.7341  1.1928
  726MOL0     H  131   5.710   0.128   4.956  0.0966  3.1862  0.0174
  726MOL0     H  132   5.556   0.152   4.901 -1.3807 -1.2647  0.6103
  726MOL0     H  133   5.619  -0.086   4.983  3.6193  2.4416  0.7485
  726MOL0     H  134   5.705  -0.109   4.831  2.1506  0.6436  2.4262
  726MOL0     H  135   5.397  -0.052   4.851 -1.6865 -4.4935  0.7131
  726MOL0     H  136   5.505  -0.044   4.700  1.5107 -2.8022 -0.6010
  726MOL0     H  137   5.519  -0.306   4.990  1.3584  0.2906 -0.2435
  726MOL0     H  138   5.372  -0.642   4.820 -0.3472 -3.9623  3.0009
  726MOL0     H  139   5.396  -0.566   4.980 -3.4055  1.7855 -1.0745
  726MOL0     H  140   5.580  -0.707   4.773 -0.9759  0.3080 -0.5033
  726MOL0     H  141   5.655  -0.606   4.895  1.0482 -1.4137  0.5083
  726MOL0     H  142   5.462  -0.830   4.980  1.5147 -4.8435  1.1025
  726MOL0     H  143   5.639  -0.858   4.936 -1.4217 -1.2796 -0.9702
  726MOL0     H  144   5.701  -0.734   5.128 -0.7949  3.6390  1.0097
  726MOL0     H  145   5.542  -0.672   5.168 -3.0864 -2.0979  1.3996
  726MOL0     H  146   5.480  -1.083   5.337  1.3245 -2.3865  2.7295
  726MOL0     H  147   5.344  -1.115   5.672 -0.1479  0.6758 -0.0259
  726MOL0     H  148   5.488  -1.200   5.618  2.2355  3.1135  0.7524
  726MOL0     H  149   5.360  -1.167   5.500  2.2389  2.0960 -3.2927
  726MOL0     H  150   5.481  -1.166   5.991 -0.5074  0.6416 -1.6731
  726MOL0     H  151   5.470  -1.193   6.229 -0.8952 -1.1692 -0.2732
  726MOL0     H  152   5.306  -1.186   6.470 -0.1823  0.3135 -2.7871
  726MOL0     H  153   5.479  -1.148   6.460 -0.4801 -0.5681 -1.0322
  726MOL0     H  154   5.445  -0.970   6.634 -1.1050  0.7605 -1.0755
  726MOL0     H  155   5.286  -1.035   6.662 -0.4484 -0.7699 -1.2898
  726MOL0     H  156   5.547  -1.203   6.666  0.1284  2.2219  1.0047
  726MOL0     H  157   5.382  -1.255   6.704 -2.1528  0.9745  0.3066
  726MOL0     H  158   5.385  -1.099   6.886  0.3650  4.3123  0.0952
  726MOL0     H  159   5.550  -1.038   6.851  0.2996 -0.7371  0.3601
  726MOL0     H  160   5.636  -1.282   6.889 -0.5125 -1.9813 -2.3735
  726MOL0     H  161   5.595  -1.196   7.028  1.5502 -1.9295  0.1376
  726MOL0     H  162   5.399  -1.377   6.885  0.9680  0.3097 -0.7147
  726MOL0     H  163   5.382  -1.301   7.045 -0.1813 -1.6518  1.6746
  726MOL0     H  164   5.541  -1.458   7.147 -1.3233 -1.9761 -0.3792
  726MOL0     H  165   5.599  -1.498   6.990 -0.1439  3.2804 -2.8844
  726MOL0     H  166   5.367  -1.599   6.934  0.3867  0.7071  0.2125
  726MOL0     H  167   5.312  -1.546   7.092 -0.3093  2.2747 -0.5787
  726MOL0     H  168   5.328  -0.771   6.235 -0.4148 -0.8354 -0.5247
  726MOL0     H  169   5.370  -0.769   5.995  0.1505 -0.1893 -0.3755
  726MOL0     H  170   5.625  -0.702   5.616 -0.1401 -1.6494  1.2399
  726MOL0     H  171   5.650  -0.691   5.367 -1.7893  2.9529  0.4536
  726MOL0     H  172   6.107   0.282   5.131  1.2066  0.4066 -0.9094
  726MOL0     H  173   6.195   0.406   5.292  1.3235  2.1967  1.5590
  726MOL0     H  174   6.570   0.754   5.340  2.1496  3.3995 -1.5475
  726MOL0     H  175   6.678   0.814   5.525  0.4413  0.5029  0.7209
  726MOL0     H  176   6.411   1.021   5.797  0.4461 -1.1658 -1.6013
  726MOL0     H  177   6.545   0.992   5.898 -0.9788 -1.3744 -0.3136
  726MOL0     H  178   6.472   1.248   5.708 -3.2273  1.3602  4.6278
  726MOL0     H  179   6.637   1.236   5.779  0.6357 -0.0549  0.1705
  726MOL0     H  180   6.370   1.262   5.931  0.1375 -0.4239  1.5303
  726MOL0     H  181   6.517   1.219   6.009  0.3770  0.0368 -0.4520
  726MOL0     H  182   6.465   1.464   5.824  0.8670  0.6582 -0.0877
  726MOL0     H  183   6.608   1.450   5.905  0.6312 -1.6637 -2.1858
  726MOL0     H  184   6.403   1.601   6.227 -1.2498 -1.8544  0.1921
  726MOL0     H  185   6.340   1.084   5.601  0.8751  1.7600 -0.6302
  726MOL0     H  186   6.130   1.042   5.517 -5.7644 -1.5858 -0.5697
  726MOL0     H  187   6.140   1.021   5.340 -2.9086 -3.5176 -0.8943
  726MOL0     H  188   6.107   0.888   5.445 -1.4717  1.0829 -1.3051
  727MOL0     O  189  10.139   9.610   1.866 -0.1748 -0.3087 -0.3718
  727MOL0     C  190  10.048   9.690   1.885  0.8108 -0.4684  0.0040
  727MOL0     O  191  10.054   9.825   1.864 -1.3526  0.7806 -0.5985
  727MOL0     C  192  10.166   9.876   1.800 -0.8990 -0.7357 -0.2187
  727MOL0     C  193  10.277   9.905   1.882  0.4792  0.1679 -0.9485
  727MOL0     C  194  10.392   9.968   1.828  0.4784  0.2487  0.0376
  727MOL0     C  195  10.379  10.003   1.696  0.5516 -0.3671  0.0796
  727MOL0     O  196  10.475  10.082   1.645 -0.0326 -0.1590 -0.6973
  727MOL0     C  197  10.597  10.015   1.634  0.5216 -0.3211 -0.1387
  727MOL0     C  198  10.690  10.112   1.555  0.2948 -1.0449 -0.8044
  727MOL0     C  199  10.745  10.230   1.633 -0.1491 -0.5319  0.1943
  727MOL0     C  200  10.845  10.326   1.553  0.9857  0.1042 -0.9101
  727MOL0     C  201  10.840  10.459   1.628 -0.4359 -0.1172 -0.0399
  727MOL0     C  202  10.947  10.553   1.588  0.1647 -0.7159  0.8567
  727MOL0     C  203  10.919  10.695   1.614  0.1450  0.4724  0.1371
  727MOL0     C  204  11.056  10.773   1.614 -0.1633  0.8976 -0.0274
  727MOL0     N  205  11.055  10.904   1.682  0.0589 -0.6196 -0.0296
  727MOL0     C  206  11.055  10.927   1.822 -0.2737 -0.4054 -0.6078
  727MOL0     C  207  11.069  11.066   1.833 -0.6705  0.2574 -0.5680
  727MOL0     C  208  11.087  11.150   1.960  0.7310  0.3295  0.1658
  727MOL0     C  209  10.964  11.247   1.966 -0.3952 -0.3988 -0.5661
  727MOL0     C  210  10.968  11.328   2.093 -0.3326 -0.3405 -0.7395
  727MOL0     C  211  10.866  11.443   2.102  0.5065 -0.7076 -1.0176
  727MOL0     O  212  10.853  11.511   1.971 -0.1391 -0.0555 -0.4787
  727MOL0     C  213  10.923  11.624   1.956  0.3539 -0.2904  0.9840
  727MOL0     C  214  10.900  11.728   2.051 -0.1822  0.6788 -0.1275
  727MOL0     C  215  10.996  11.838   2.054 -0.0113  0.7187  0.5193
  727MOL0     C  216  10.994  11.909   2.183 -0.1542  0.5181  0.7274
  727MOL0     C  217  11.078  11.863   1.940 -0.3613 -0.0059  1.2020
  727MOL0     C  218  11.169  11.982   1.923  0.6441 -0.7152  0.1021
  727MOL0     O  219  11.246  11.995   1.813 -0.7364  0.1041 -0.0343
  727MOL0     C  220  11.340  12.095   1.818 -0.1183  0.4506  0.8209
  727MOL0     C  221  11.314  12.218   1.769  1.4165 -0.0953 -0.1781
  727MOL0     C  222  11.406  12.315   1.759 -0.8913 -0.3958 -0.6544
  727MOL0     C  223  11.537  12.289   1.805 -0.1003 -0.4336 -0.8580
  727MOL0     O  224  11.632  12.388   1.779 -0.3164 -0.2937 -0.7148
  727MOL0     C  225  11.699  12.442   1.896 -0.4172 -0.7191  0.8194
  727MOL0     C  226  11.775  12.577   1.852  1.0225  0.4232 -0.2757
  727MOL0     C  227  11.856  12.653   1.960 -0.3777  0.0478 -0.1224
  727MOL0     C  228  11.786  12.770   2.032 -0.0120  0.1949  0.3736
  727MOL0     C  229  11.665  12.730   2.120 -0.1253  0.3393  0.9175
  727MOL0     C  230  11.708  12.650   2.246  0.5642  0.1512  0.0862
  727MOL0     C  231  11.598  12.662   2.346  0.7953  0.5325  0.3628
  727MOL0     C  232  11.468  12.591   2.312 -0.9253  0.3173  0.2725
  727MOL0    Cl  233  11.512  12.415   2.326  0.1194 -0.3757 -0.4122
  727MOL0     C  234  11.569  12.166   1.853 -0.3483  0.5124  0.2720
  727MOL0     C  235  11.471  12.073   1.868  0.4684  0.0919  0.5590
  727MOL0     O  236  11.165  12.063   2.012 -0.5837 -0.2904 -0.6672
  727MOL0     C  237  11.088  11.763   1.840 -0.3433  0.1242  0.6356
  727MOL0     C  238  11.020  11.643   1.853  0.0425 -0.1009 -0.5656
  727MOL0     N  239  11.078  11.120   1.709 -0.6918 -0.2286  1.2443
  727MOL0     N  240  11.073  11.030   1.621 -0.2777 -0.3933 -0.6917
  727MOL0     C  241  10.269   9.973   1.610  0.0806  0.2852 -0.6089
  727MOL0     C  242  10.160   9.906   1.661  0.0906  0.5636 -0.8434
  727MOL0     C  243   9.921   9.639   1.930 -0.8339 -0.4287 -0.0911
  727MOL0     C  244   9.807   9.720   1.942  0.1960 -0.1600 -0.2791
  727MOL0     C  245   9.673   9.680   1.982  0.2207  0.1326 -0.2648
  727MOL0     C  246   9.655   9.547   2.002 -1.0450 -0.2026 -0.4112
  727MOL0     O  247   9.528   9.508   2.048 -0.4506 -0.2775  0.6815
  727MOL0     C  248   9.485   9.368   2.030  0.3952  0.2252 -0.9906
  727MOL0     C  249   9.492   9.295   2.163  0.1015  0.0921  0.0903
  727MOL0     C  250   9.349   9.270   2.218  0.4545 -0.1440 -0.5624
  727MOL0     C  251   9.341   9.216   2.368 -0.1469  0.3481 -1.1858
  727MOL0     C  252   9.407   9.085   2.366  0.0039 -0.0359  0.6238
  727MOL0     C  253   9.444   8.971   2.356 -0.3311  0.3515  1.4918
  727MOL0     C  254   9.766   9.460   1.990  1.0433 -0.5181 -0.3692
  727MOL0     C  255   9.892   9.500   1.954 -0.3253 -0.8357  0.0593
  727MOL0     C  256   9.995   9.388   1.941 -0.0565  0.0206  0.3368
  727MOL0     H  257  10.276   9.869   1.984 -1.8811  1.5018 -0.4258
  727MOL0     H  258  10.476   9.999   1.889  2.7034 -0.9719 -2.2113
  727MOL0     H  259  10.574   9.924   1.579 -0.4597  0.2950 -0.7817
  727MOL0     H  260  10.642   9.997   1.732 -1.5157 -0.2145  0.8861
  727MOL0     H  261  10.779  10.054   1.530  1.5145  0.0170  0.9295
  727MOL0     H  262  10.640  10.136   1.460  0.4469  0.1668 -0.5941
  727MOL0     H  263  10.669  10.286   1.687 -1.5176  1.3290 -3.3668
  727MOL0     H  264  10.799  10.177   1.713 -0.4227  1.0281  1.4462
  727MOL0     H  265  10.947  10.287   1.554  1.0234  0.1829 -1.4769
  727MOL0     H  266  10.836  10.338   1.445  1.9220  3.2365 -0.7425
  727MOL0     H  267  10.863  10.437   1.732  0.4137 -0.2874 -0.2592
  727MOL0     H  268  10.746  10.512   1.605  0.0387  0.6186 -0.3180
  727MOL0     H  269  11.032  10.535   1.654 -2.3932  0.3733  4.7816
  727MOL0     H  270  10.983  10.535   1.486  2.5341  0.5923  1.3820
  727MOL0     H  271  10.885  10.714   1.716 -1.7383  0.4192 -0.4393
  727MOL0     H  272  10.841  10.739   1.550 -0.9197 -1.0472  0.3262
  727MOL0     H  273  11.141  10.721   1.659 -0.1747 -0.5525 -1.5987
  727MOL0     H  274  11.093  10.791   1.512 -0.7065  0.7713 -0.2467
  727MOL0     H  275  11.066  10.851   1.899  0.9167 -1.0780 -1.4108
  727MOL0     H  276  11.186  11.195   1.946  0.7120  0.3655  0.1470
  727MOL0     H  277  11.068  11.086   2.046 -1.0398 -3.4377 -2.7385
  727MOL0     H  278  10.988  11.310   1.880  0.7608 -0.8208 -0.5678
  727MOL0     H  279  10.871  11.191   1.954 -0.6985 -0.5580  2.0190
  727MOL0     H  280  10.968  11.257   2.176  2.5918  1.1925  0.7255
  727MOL0     H  281  11.068  11.373   2.097 -1.2966  2.1199 -1.9796
  727MOL0     H  282  10.769  11.394   2.116  1.3243 -1.6017  2.2734
  727MOL0     H  283  10.882  11.499   2.195 -0.5472 -1.9911 -0.0211
  727MOL0     H  284  10.827  11.706   2.128 -2.6814  1.6334 -2.0843
  727MOL0     H  285  10.930  11.851   2.251 -0.3281  2.1134  1.9943
  727MOL0     H  286  10.959  12.013   2.177 -0.4871  0.5691  2.8191
  727MOL0     H  287  11.088  11.903   2.239  0.9072 -0.9271 -1.1056
  727MOL0     H  288  11.219  12.236   1.720  0.5448 -2.6864  0.4178
  727MOL0     H  289  11.391  12.409   1.706 -2.2632  0.1164  0.5838
  727MOL0     H  290  11.626  12.462   1.976 -0.6204  0.3403  0.3843
  727MOL0     H  291  11.785  12.382   1.929  2.1456  1.5906 -1.2503
  727MOL0     H  292  11.846  12.549   1.774 -1.2051 -0.3865 -2.1154
  727MOL0     H  293  11.700  12.645   1.810 -2.0044 -1.8886  0.9393
  727MOL0     H  294  11.942  12.696   1.908 -0.6290 -1.0741 -1.5475
  727MOL0     H  295  11.888  12.587   2.041  0.6822  1.7563  0.9015
  727MOL0     H  296  11.746  12.847   1.965 -0.9168  0.8459  1.6101
  727MOL0     H  297  11.854  12.828   2.094  2.1898 -2.2605  0.4154
  727MOL0     H  298  11.615  12.823   2.150 -2.8304 -0.6283 -0.2664
  727MOL0     H  299  11.591  12.674   2.062 -3.1663  0.9907  3.8408
  727MOL0     H  300  11.789  12.698   2.302  1.1365 -1.0491  0.3168
  727MOL0     H  301  11.724  12.547   2.214  1.2711  1.0379 -2.6978
  727MOL0     H  302  11.571  12.768   2.347  0.2966  0.4070  0.6463
  727MOL0     H  303  11.624  12.627   2.447 -1.1399  0.3708  0.8639
  727MOL0     H  304  11.420  12.617   2.217 -2.3956 -0.6179  0.7357
  727MOL0     H  305  11.392  12.613   2.387 -0.4960 -1.8077  1.4144
  727MOL0     H  306  11.671  12.147   1.886 -0.4714 -1.4606 -0.3977
  727MOL0     H  307  11.508  11.980   1.912  1.4373 -1.2790 -2.8033
  727MOL0     H  308  11.170  11.761   1.769 -0.7896 -4.1303 -0.0480
  727MOL0     H  309  11.037  11.556   1.792 -1.3623  0.0042 -1.1575
  727MOL0     H  310  10.279   9.995   1.504 -2.3310  2.4829 -0.4913
  727MOL0     H  311  10.077   9.893   1.592 -1.1045  0.2010  0.6104
  727MOL0     H  312   9.805   9.829   1.936 -0.6861 -0.0511  1.4284
  727MOL0     H  313   9.603   9.760   2.002  0.2899  0.8355 -2.5412
  727MOL0     H  314   9.380   9.370   2.000 -0.8819 -2.1502  2.6715
  727MOL0     H  315   9.545   9.322   1.951  0.4111  0.8711 -1.3619
  727MOL0     H  316   9.545   9.358   2.235  1.6087  0.8796 -1.6166
  727MOL0     H  317   9.552   9.204   2.147 -0.4268 -0.4814  1.2723
  727MOL0     H  318   9.300   9.367   2.224 -0.1712 -0.3861 -1.5065
  727MOL0     H  319   9.284   9.208   2.157 -1.3085 -0.7005  1.7517
  727MOL0     H  320   9.243   9.195   2.412  0.3129 -0.8781 -0.6956
  727MOL0     H  321   9.382   9.281   2.445  1.0359  1.7070 -2.8894
  727MOL0     H  322   9.464   8.866   2.353  1.3327  0.6692  0.6002
  727MOL0     H  323   9.752   9.357   2.019 -3.1600  0.6507  2.7960
  727MOL0     H  324   9.964   9.291   1.980  0.2779 -0.6887 -1.1246
  727MOL0     H  325  10.024   9.378   1.836  0.0837 -1.7003  0.5227
  727MOL0     H  326  10.083   9.417   1.999  0.9200 -1.9274 -0.1098
  728MOL0     O  327   5.311  10.357   0.426  0.4945  0.1798 -0.2954
  728MOL0     C  328   5.421  10.404   0.454 -0.5167 -0.2274 -0.1449
  728MOL0     O  329   5.428  10.532   0.509  0.9716  0.1900  0.6183
  728MOL0     C  330   5.548  10.588   0.537 -0.0869 -0.5473  0.7378
  728MOL0     C  331   5.611  10.546   0.645 -0.4847  0.3645 -0.3866
  728MOL0     C  332   5.729  10.611   0.686  0.2442 -0.1385  0.1522
  728MOL0     C  333   5.786  10.707   0.602 -0.4468 -0.0884 -0.4400
  728MOL0     O  334   5.920  10.741   0.639 -0.0838 -0.2054  0.1659
  728MOL0     C  335   5.980  10.841   0.554  0.3815  0.3032  0.5665
  728MOL0     C  336   6.101  10.901   0.624 -0.5231 -0.0370  0.1330
  728MOL0     C  337   6.221  10.802   0.632 -0.3665 -0.9827  0.2811
  728MOL0     C  338   6.357  10.863   0.679 -0.0758  0.6065 -0.8497
  728MOL0     C  339   6.469  10.791   0.602 -0.5369 -0.1163 -0.7376
  728MOL0     C  340   6.609  10.855   0.614 -0.0582  0.7766 -0.1121
  728MOL0     C  341   6.714  10.766   0.558  0.6917  0.2977  0.4275
  728MOL0     C  342   6.858  10.823   0.576 -0.3346 -0.6412 -0.0340
  728MOL0     N  343   6.945  10.709   0.594  0.4278 -0.9615  0.2837
  728MOL0     C  344   6.966  10.640   0.704 -0.0635  0.7424 -0.1880
  728MOL0     C  345   7.046  10.537   0.668 -0.2617 -1.0286  0.3329
  728MOL0     C  346   7.107  10.440   0.762  0.6343  0.9297 -0.5115
  728MOL0     C  347   7.022  10.307   0.759  1.0048 -1.5228  0.0740
  728MOL0     C  348   7.104  10.195   0.818  0.9845  0.1816 -0.2070
  728MOL0     C  349   7.038  10.058   0.801 -0.3099 -0.5621 -0.1643
  728MOL0     O  350   7.138   9.962   0.810  0.2926 -0.0882  0.3588
  728MOL0     C  351   7.176   9.891   0.923  0.3433  1.4053 -0.5409
  728MOL0     C  352   7.281   9.806   0.911 -0.4241 -0.3336 -0.5432
  728MOL0     C  353   7.335   9.739   1.027  0.1052 -0.2240  0.0045
  728MOL0     C  354   7.466   9.673   1.018  0.8346  0.1161  0.1212
  728MOL0     C  355   7.272   9.750   1.154  0.3906 -1.2566  0.5305
  728MOL0     C  356   7.314   9.678   1.281  0.3868 -1.0311 -0.4982
  728MOL0     O  357   7.271   9.729   1.406  0.0442 -0.1343  0.1520
  728MOL0     C  358   7.320   9.655   1.510 -0.0250 -1.2286  1.1441
  728MOL0     C  359   7.253   9.544   1.558 -0.1587  0.3545 -0.4965
  728MOL0     C  360   7.322   9.470   1.655 -0.2530  0.0240  0.1083
  728MOL0     C  361   7.435   9.513   1.713  0.0992 -0.7947 -0.4481
  728MOL0     O  362   7.479   9.451   1.827  0.3000  0.3694 -0.3499
  728MOL0     C  363   7.466   9.540   1.940 -0.3046 -0.1541  0.2496
  728MOL0     C  364   7.607   9.540   2.007 -0.5987  0.6097  0.1020
  728MOL0     C  365   7.618   9.659   2.106 -0.1543  0.3128 -0.0811
  728MOL0     C  366   7.725   9.638   2.215  0.1410 -0.5448 -0.2736
  728MOL0     C  367   7.730   9.759   2.301 -0.4705  0.4194 -0.5622
  728MOL0     C  368   7.779   9.727   2.443 -1.1426 -0.7798 -0.4610
  728MOL0     C  369   7.810   9.846   2.527 -0.9535 -1.5681  0.0978
  728MOL0     C  370   7.732   9.835   2.657  0.6391 -0.1170 -0.2584
  728MOL0    Cl  371   7.811   9.951   2.785 -0.2256  0.0487  0.5130
  728MOL0     C  372   7.506   9.622   1.656  0.5609  0.6725  0.0198
  728MOL0     C  373   7.448   9.685   1.549  0.3487  0.6863 -0.5849
  728MOL0     O  374   7.394   9.585   1.270 -0.0110 -0.4025  0.2969
  728MOL0     C  375   7.168   9.843   1.156  0.9398  0.3073  0.2370
  728MOL0     C  376   7.117   9.908   1.044  1.3222 -0.1221  0.1682
  728MOL0     N  377   7.072  10.549   0.536 -0.7509 -0.2429  0.4492
  728MOL0     N  378   7.015  10.650   0.489  0.2828 -0.0494 -0.1102
  728MOL0     C  379   5.719  10.751   0.484  0.7308 -0.7980 -0.3735
  728MOL0     C  380   5.594  10.691   0.451  0.6917 -0.3134 -1.0460
  728MOL0     C  381   5.536  10.322   0.421  0.2476 -0.8619  0.6821
  728MOL0     C  382   5.584  10.236   0.524 -0.3129 -0.4044 -0.0415
  728MOL0     C  383   5.691  10.146   0.498 -0.0667  0.0470 -0.8712
  728MOL0     C  384   5.731  10.127   0.363 -0.1176 -0.4803 -0.6252
  728MOL0     O  385   5.832  10.044   0.325  0.5488  0.3385 -0.2043
  728MOL0     C  386   5.871   9.932   0.405 -0.2772  0.1220  0.0623
  728MOL0     C  387   6.018   9.977   0.448  0.3578  0.4461  0.8466
  728MOL0     C  388   6.057   9.940   0.591 -0.2121 -0.0748  0.4496
  728MOL0     C  389   6.202   9.977   0.617  0.1712  0.2572  0.4787
  728MOL0     C  390   6.296   9.908   0.528 -0.5209  0.1604 -0.4371
  728MOL0     C  391   6.365   9.858   0.448 -1.0488  0.0101  0.0586
  728MOL0     C  392   5.681  10.207   0.261  0.4102 -0.0017  0.0776
  728MOL0     C  393   5.586  10.313   0.288  0.0847 -0.5471 -0.6376
  728MOL0     C  394   5.541  10.406   0.180 -0.1291 -0.2431 -0.0020
  728MOL0     H  395   5.564  10.467   0.703  2.4659 -0.2079  1.4194
  728MOL0     H  396   5.784  10.577   0.773 -0.7594  0.8664  1.2156
  728MOL0     H  397   5.920  10.926   0.520  1.5128  0.5113 -1.0559
  728MOL0     H  398   6.014  10.791   0.462  0.3484  0.6612  0.3549
  728MOL0     H  399   6.127  10.998   0.581 -0.5685 -0.2818 -0.4661
  728MOL0     H  400   6.073  10.925   0.727 -0.3942 -2.0966  0.6960
  728MOL0     H  401   6.189  10.735   0.712 -3.6464  0.4062  0.2870
  728MOL0     H  402   6.244  10.748   0.540  1.4202 -1.4923  0.9780
  728MOL0     H  403   6.353  10.968   0.649 -3.3696  0.6902 -0.4285
  728MOL0     H  404   6.379  10.837   0.783  0.4956 -5.9950 -2.1671
  728MOL0     H  405   6.447  10.796   0.495  0.6784 -2.4308 -1.1550
  728MOL0     H  406   6.476  10.687   0.634 -1.1877  0.6201  2.1246
  728MOL0     H  407   6.602  10.950   0.560  1.2199  3.4171  3.9288
  728MOL0     H  408   6.625  10.880   0.719 -0.4797  0.0236  0.1379
  728MOL0     H  409   6.718  10.762   0.449 -1.1737 -0.4109  0.3481
  728MOL0     H  410   6.702  10.665   0.598 -0.1410 -0.0428 -0.6370
  728MOL0     H  411   6.904  10.878   0.494 -0.0191  1.3925  1.4320
  728MOL0     H  412   6.864  10.904   0.650  1.8937 -1.3284  0.6062
  728MOL0     H  413   6.920  10.662   0.800 -1.5098 -0.6002 -0.5382
  728MOL0     H  414   7.116  10.471   0.867  0.5406 -0.6777  0.0022
  728MOL0     H  415   7.210  10.413   0.735  0.3435 -1.1604  0.2511
  728MOL0     H  416   6.930  10.327   0.815  1.3888  2.1521 -0.4148
  728MOL0     H  417   6.988  10.282   0.658  0.6197  2.4029 -0.9038
  728MOL0     H  418   7.205  10.185   0.779  1.8002 -0.4265  1.9227
  728MOL0     H  419   7.108  10.216   0.925 -2.8588  4.9333 -0.6551
  728MOL0     H  420   6.954  10.043   0.869 -1.3047 -5.9015 -2.0580
  728MOL0     H  421   7.000  10.052   0.698  1.0615  0.4085 -0.7682
  728MOL0     H  422   7.329   9.807   0.813 -1.5279 -0.6595 -1.1112
  728MOL0     H  423   7.462   9.564   1.018  1.6903 -0.0006 -3.3299
  728MOL0     H  424   7.533   9.724   1.088  0.9529 -0.6029  0.5485
  728MOL0     H  425   7.512   9.691   0.921  1.8199 -3.0319 -0.0933
  728MOL0     H  426   7.161   9.508   1.514 -0.4421  0.5726 -0.0984
  728MOL0     H  427   7.283   9.376   1.694 -1.1143 -1.4421 -3.8580
  728MOL0     H  428   7.437   9.644   1.920 -2.6157 -0.6378  0.8068
  728MOL0     H  429   7.391   9.496   2.006  1.3820 -2.5820  0.6708
  728MOL0     H  430   7.623   9.448   2.065  1.7535  1.1541  0.4494
  728MOL0     H  431   7.686   9.547   1.931  0.5590 -2.6992  0.7939
  728MOL0     H  432   7.518   9.670   2.149  0.7989  0.7114  2.1805
  728MOL0     H  433   7.650   9.745   2.045 -1.9391  0.6091 -0.6525
  728MOL0     H  434   7.826   9.621   2.177  0.4549  2.5884 -1.1546
  728MOL0     H  435   7.708   9.549   2.275  5.0869 -0.2990  2.0023
  728MOL0     H  436   7.801   9.829   2.256 -0.3722  1.2129  0.7821
  728MOL0     H  437   7.636   9.814   2.296 -0.0619  1.1000 -1.0878
  728MOL0     H  438   7.876   9.678   2.454  0.8451  3.0481  1.0656
  728MOL0     H  439   7.697   9.671   2.488 -1.0521  1.0608  2.2462
  728MOL0     H  440   7.794   9.935   2.466  1.4603 -0.0876  1.4577
  728MOL0     H  441   7.917   9.854   2.549 -0.4211 -1.3954 -2.2828
  728MOL0     H  442   7.752   9.736   2.698  1.5912  0.0097 -0.3991
  728MOL0     H  443   7.625   9.855   2.647  0.6637  0.1735  0.0320
  728MOL0     H  444   7.607   9.642   1.691  1.3852 -1.8691 -0.7089
  728MOL0     H  445   7.501   9.747   1.477  0.2118  0.5607 -0.7945
  728MOL0     H  446   7.116   9.850   1.250  0.4030  2.9205 -0.1890
  728MOL0     H  447   7.030   9.969   1.062  2.7573  1.3034  3.0276
  728MOL0     H  448   5.758  10.826   0.416  0.6601  2.1626  2.5892
  728MOL0     H  449   5.527  10.718   0.370 -0.3719 -2.4339 -0.9484
  728MOL0     H  450   5.543  10.253   0.624 -0.8028  0.7377 -0.4112
  728MOL0     H  451   5.737  10.095   0.582  1.6308  1.8335 -0.6352
  728MOL0     H  452   5.814   9.914   0.497 -2.4349  1.8586 -0.8428
  728MOL0     H  453   5.877   9.838   0.349 -1.8514 -0.3621  0.6618
  728MOL0     H  454   6.016  10.086   0.441  1.8417  0.4504 -0.1357
  728MOL0     H  455   6.091   9.948   0.371 -1.3358  0.9757 -1.0618
  728MOL0     H  456   6.008  10.011   0.658 -0.0698 -1.7334  2.3949
  728MOL0     H  457   6.027   9.838   0.617  0.5920 -0.7298 -1.0765
  728MOL0     H  458   6.207   9.931   0.716 -1.2281  0.2475  0.5625
  728MOL0     H  459   6.200  10.087   0.624 -4.4412  0.3027  1.2940
  728MOL0     H  460   6.432   9.807   0.381 -0.9148 -1.2646  1.1363
  728MOL0     H  461   5.732  10.187   0.168 -0.7325 -1.8585 -0.1945
  728MOL0     H  462   5.433  10.403   0.165 -0.3757  1.1769  1.2166
  728MOL0     H  463   5.579  10.506   0.201 -1.4200  0.8828 -2.6360
  728MOL0     H  464   5.590  10.385   0.084 -0.4866  3.3031 -1.0707
  729MOL0     O  465   9.276   5.617   1.002  0.5776  0.6732  0.1538
  729MOL0     C  466   9.289   5.726   1.046 -0.4867  1.1128 -0.7444
  729MOL0     O  467   9.200   5.837   1.029  0.6998  0.4210  0.3436
  729MOL0     C  468   9.094   5.833   0.940  0.1287 -0.5714  0.4049
  729MOL0     C  469   9.039   5.964   0.925 -0.7368  0.2559 -0.2311
  729MOL0     C  470   8.924   5.992   0.859 -0.4692  0.4098  0.5538
  729MOL0     C  471   8.847   5.886   0.801  1.1023 -0.0597  0.3383
  729MOL0     O  472   8.739   5.917   0.722  0.2162  0.3209 -0.4638
  729MOL0     C  473   8.760   5.997   0.605  0.0744  0.6268 -0.4417
  729MOL0     C  474   8.662   5.953   0.496  0.0974 -0.4900 -0.7331
  729MOL0     C  475   8.522   5.986   0.543  0.0062  0.5245 -0.0310
  729MOL0     C  476   8.494   6.133   0.523  0.3265  0.0505 -0.3856
  729MOL0     C  477   8.345   6.160   0.572 -0.0999  0.0361  0.2359
  729MOL0     C  478   8.290   6.304   0.577  1.2691 -0.7004  0.1325
  729MOL0     C  479   8.141   6.303   0.607  0.4119  0.3424 -0.1029
  729MOL0     C  480   8.124   6.282   0.754 -0.1754 -0.3065  0.0000
  729MOL0     N  481   8.146   6.399   0.833 -0.8786 -0.1997  0.1087
  729MOL0     C  482   8.176   6.531   0.778 -0.1982  0.9209  0.3590
  729MOL0     C  483   8.185   6.602   0.888  0.1614 -0.0868  0.5462
  729MOL0     C  484   8.229   6.745   0.888 -0.6095 -0.7581  0.2740
  729MOL0     C  485   8.382   6.777   0.882 -0.2257  0.3050 -0.6288
  729MOL0     C  486   8.436   6.766   0.737 -0.1244  0.2226 -0.7506
  729MOL0     C  487   8.565   6.864   0.717  0.4230  0.0986 -0.7634
  729MOL0     O  488   8.665   6.835   0.814 -0.7610 -0.4106 -0.5330
  729MOL0     C  489   8.760   6.934   0.837 -0.2064  0.8145 -0.3532
  729MOL0     C  490   8.734   7.029   0.933  0.3062 -0.8490  0.0239
  729MOL0     C  491   8.837   7.125   0.973 -0.6925  0.5478  0.0066
  729MOL0     C  492   8.799   7.232   1.072 -0.6059 -0.1925 -0.1249
  729MOL0     C  493   8.968   7.112   0.920 -0.0461  0.1099 -0.0287
  729MOL0     C  494   9.068   7.215   0.941  0.2689  0.3858  0.2670
  729MOL0     O  495   9.199   7.173   0.957  0.3056  0.5583 -0.7528
  729MOL0     C  496   9.301   7.262   0.993 -1.0655  1.3845  0.1123
  729MOL0     C  497   9.425   7.242   0.922  0.5468 -0.4480 -0.0441
  729MOL0     C  498   9.525   7.334   0.925  0.4936  0.6764 -0.3047
  729MOL0     C  499   9.513   7.452   1.007 -0.0089  1.2037 -0.9196
  729MOL0     O  500   9.617   7.533   1.028  0.1618 -1.0165  0.2561
  729MOL0     C  501   9.730   7.540   0.939  0.3297  0.0243 -0.3225
  729MOL0     C  502   9.820   7.662   0.959 -0.1960  0.1931 -0.5298
  729MOL0     C  503   9.803   7.792   0.882  0.7860 -0.6617  0.5995
  729MOL0     C  504   9.666   7.853   0.930 -1.1051 -0.2487 -0.4222
  729MOL0     C  505   9.660   8.005   0.875  0.6479 -0.3978 -0.5307
  729MOL0     C  506   9.730   8.102   0.968 -0.1989 -0.4778  0.7252
  729MOL0     C  507   9.735   8.252   0.921 -0.3606  0.4171 -0.2374
  729MOL0     C  508   9.864   8.275   0.838  0.5878  0.5223  0.9988
  729MOL0    Cl  509   9.826   8.426   0.732 -0.1774  0.3226 -0.4576
  729MOL0     C  510   9.406   7.460   1.087 -0.5594  0.2380 -1.0319
  729MOL0     C  511   9.296   7.367   1.088  0.2263 -0.1720  0.4452
  729MOL0     O  512   9.036   7.334   0.921  0.2399 -0.3955 -0.1009
  729MOL0     C  513   8.994   7.010   0.822 -0.2675 -0.2340  0.3652
  729MOL0     C  514   8.896   6.918   0.794 -0.5093  0.6409 -0.2997
  729MOL0     N  515   8.149   6.533   0.996 -0.9521 -0.2687  0.3926
  729MOL0     N  516   8.155   6.407   0.970  0.4524  0.4020  0.3817
  729MOL0     C  517   8.903   5.755   0.808 -0.1775 -0.9214  0.1040
  729MOL0     C  518   9.018   5.731   0.886 -0.6089  0.4167 -0.7931
  729MOL0     C  519   9.415   5.765   1.106 -0.1104  0.0485  0.3152
  729MOL0     C  520   9.459   5.897   1.094 -0.6919  0.1772 -0.2186
  729MOL0     C  521   9.580   5.935   1.143 -0.2948 -1.4010  0.5870
  729MOL0     C  522   9.665   5.853   1.199  0.2637  0.3762  0.0664
  729MOL0     O  523   9.783   5.904   1.235 -0.6009 -0.3254  0.3121
  729MOL0     C  524   9.868   5.826   1.315  1.1511  0.0352 -0.4947
  729MOL0     C  525   9.822   5.847   1.458  0.3518 -0.1510 -0.5907
  729MOL0     C  526   9.942   5.815   1.552  0.3404 -0.6720 -0.3600
  729MOL0     C  527   9.897   5.799   1.701  0.9498 -0.7214  0.1393
  729MOL0     C  528   9.875   5.926   1.769  1.1023  0.1974  0.1467
  729MOL0     C  529   9.856   6.024   1.831  0.2459 -0.1923 -0.1492
  729MOL0     C  530   9.619   5.721   1.220 -0.5772 -0.7202  0.1440
  729MOL0     C  531   9.497   5.667   1.171 -0.4004  0.1389  0.2289
  729MOL0     C  532   9.470   5.513   1.191 -0.5755  0.0158 -0.2579
  729MOL0     H  533   9.080   6.043   0.987 -2.9744  1.0586  0.3602
  729MOL0     H  534   8.882   6.092   0.864 -2.3109 -0.3427  0.8257
  729MOL0     H  535   8.862   5.989   0.566  1.0323  2.6487  1.4286
  729MOL0     H  536   8.740   6.103   0.624 -0.3797  1.0935 -3.1006
  729MOL0     H  537   8.680   6.010   0.404 -3.0719  1.7974 -0.0720
  729MOL0     H  538   8.670   5.846   0.474 -1.9285 -1.2409  1.7769
  729MOL0     H  539   8.447   5.929   0.487  1.4058  0.3197 -1.8058
  729MOL0     H  540   8.509   5.956   0.647  1.0775  0.7459  0.1786
  729MOL0     H  541   8.558   6.190   0.592 -0.9694  2.6277 -1.1700
  729MOL0     H  542   8.505   6.177   0.423  1.5006  2.6625  0.7980
  729MOL0     H  543   8.330   6.115   0.670 -0.5641  0.8374  0.5380
  729MOL0     H  544   8.277   6.102   0.509 -0.3644  0.2579  0.3185
  729MOL0     H  545   8.347   6.370   0.643 -0.5691  0.0831  1.0130
  729MOL0     H  546   8.287   6.354   0.480  1.3428  2.8066  1.7780
  729MOL0     H  547   8.097   6.219   0.554  0.4963  0.3963 -0.2584
  729MOL0     H  548   8.088   6.392   0.573 -0.1275  1.3112  2.8950
  729MOL0     H  549   8.017   6.261   0.765 -0.7105  2.9633  2.3731
  729MOL0     H  550   8.166   6.189   0.795 -2.7280 -1.2722  0.6122
  729MOL0     H  551   8.208   6.564   0.680 -0.1396  0.1805  0.1264
  729MOL0     H  552   8.188   6.784   0.982 -2.8364 -2.5258  0.0876
  729MOL0     H  553   8.167   6.810   0.825  0.5501  1.6464  1.4501
  729MOL0     H  554   8.385   6.882   0.912 -2.8190  0.1563  0.4307
  729MOL0     H  555   8.448   6.719   0.947 -1.8620 -1.3011 -0.3219
  729MOL0     H  556   8.476   6.667   0.716 -0.0077  0.0712  0.1333
  729MOL0     H  557   8.359   6.786   0.662 -0.7687 -2.2456 -0.8302
  729MOL0     H  558   8.609   6.862   0.617 -1.8644  4.0858 -2.0861
  729MOL0     H  559   8.522   6.961   0.744 -1.9986 -1.2016  0.3838
  729MOL0     H  560   8.632   7.026   0.969 -0.3585 -0.2654 -1.6891
  729MOL0     H  561   8.708   7.212   1.129 -0.0548  0.4209  0.9970
  729MOL0     H  562   8.788   7.321   1.009 -1.2200 -0.4396 -0.3830
  729MOL0     H  563   8.882   7.237   1.142 -0.3379  1.6574 -0.5262
  729MOL0     H  564   9.417   7.176   0.836  1.2341 -3.6956  2.2028
  729MOL0     H  565   9.615   7.315   0.868 -0.1123 -0.8610 -0.8024
  729MOL0     H  566   9.792   7.456   0.972 -1.4994 -2.0255 -1.8548
  729MOL0     H  567   9.705   7.522   0.834  1.0352  0.2550 -0.5428
  729MOL0     H  568   9.817   7.679   1.067 -0.6978 -1.9114 -0.1579
  729MOL0     H  569   9.920   7.633   0.924 -0.7512  0.6244 -2.6231
  729MOL0     H  570   9.794   7.777   0.774  2.1471  3.7715 -0.3379
  729MOL0     H  571   9.889   7.859   0.891  0.8244 -0.8042  1.3356
  729MOL0     H  572   9.657   7.860   1.039  1.1242 -4.8588  0.3123
  729MOL0     H  573   9.579   7.794   0.899 -1.0538  0.0236 -1.1039
  729MOL0     H  574   9.719   8.005   0.784  0.1291 -2.6778 -0.9528
  729MOL0     H  575   9.556   8.035   0.860  0.8854  1.2227  0.7570
  729MOL0     H  576   9.835   8.071   0.969  0.8274  2.4553 -1.2185
  729MOL0     H  577   9.690   8.085   1.068  1.9995 -0.5999  1.6210
  729MOL0     H  578   9.743   8.316   1.010 -1.3675  0.2095  0.0179
  729MOL0     H  579   9.645   8.269   0.861 -0.3170 -2.3560 -1.2122
  729MOL0     H  580   9.878   8.187   0.776 -1.3964  1.2014 -0.5140
  729MOL0     H  581   9.960   8.278   0.892  0.5520  0.6064  1.0595
  729MOL0     H  582   9.391   7.524   1.174  0.4841 -1.2873  0.3210
  729MOL0     H  583   9.210   7.381   1.152 -0.5160  0.6138 -0.6759
  729MOL0     H  584   9.093   7.008   0.778  0.3879 -2.1092  1.8053
  729MOL0     H  585   8.908   6.846   0.714 -1.8770  1.2542 -1.0983
  729MOL0     H  586   8.854   5.682   0.745  1.5582 -0.5850 -1.7191
  729MOL0     H  587   9.056   5.630   0.895 -0.2508  0.7044  1.8394
  729MOL0     H  588   9.405   5.969   1.032  0.1842  0.5356 -0.5851
  729MOL0     H  589   9.611   6.036   1.117  0.5236 -1.3329  1.7823
  729MOL0     H  590   9.864   5.718   1.296 -0.2902 -0.0288  0.0649
  729MOL0     H  591   9.973   5.856   1.308  1.0775  0.2349 -0.7367
  729MOL0     H  592   9.731   5.791   1.481 -0.5779  0.6502 -2.1649
  729MOL0     H  593   9.803   5.955   1.461 -1.0308 -0.3154 -1.9218
  729MOL0     H  594   9.986   5.722   1.516 -0.4540 -1.7424  1.2745
  729MOL0     H  595  10.029   5.881   1.550  0.7561 -1.2102 -0.3024
  729MOL0     H  596   9.982   5.752   1.752  0.5345  0.1220  1.6646
  729MOL0     H  597   9.801   5.747   1.715 -0.4333  1.4303 -0.8677
  729MOL0     H  598   9.864   6.103   1.903  2.9289 -1.2909  0.9022
  729MOL0     H  599   9.687   5.652   1.268  0.2424  1.9640  3.2051
  729MOL0     H  600   9.469   5.464   1.093  1.0064  1.2768 -0.9423
  729MOL0     H  601   9.564   5.473   1.230 -0.4608  0.9217  0.4348
  729MOL0     H  602   9.384   5.492   1.255 -0.6412 -0.2654 -0.4339
  730MOL0     O  603   6.361   7.358   6.045  0.4993 -0.3677  0.3411
  730MOL0     C  604   6.303   7.260   6.093  0.8246  0.0320 -0.6952
  730MOL0     O  605   6.326   7.209   6.217  0.4205 -0.1764 -0.5460
  730MOL0     C  606   6.406   7.284   6.307  0.2753  0.0459 -0.1770
  730MOL0     C  607   6.539   7.281   6.280 -0.2088  0.5985 -0.0518
  730MOL0     C  608   6.620   7.353   6.360  0.1804  0.4624 -0.0556
  730MOL0     C  609   6.573   7.411   6.485  0.0266 -0.1076  0.0148
  730MOL0     O  610   6.664   7.487   6.550  0.3374  0.0039 -0.0353
  730MOL0     C  611   6.640   7.490   6.697  0.6442 -0.0865 -1.3859
  730MOL0     C  612   6.683   7.356   6.757 -0.0795 -0.2651  0.4109
  730MOL0     C  613   6.671   7.360   6.905 -0.2536 -1.0420  0.2133
  730MOL0     C  614   6.753   7.251   6.982 -0.2008 -0.3613  0.4210
  730MOL0     C  615   6.738   7.261   7.140  0.5830  0.4975  0.0060
  730MOL0     C  616   6.873   7.295   7.194  0.0551 -0.1218 -0.0451
  730MOL0     C  617   6.874   7.312   7.351 -0.3433 -0.1537 -0.0601
  730MOL0     C  618   6.803   7.194   7.416 -0.4679 -0.0942 -0.0819
  730MOL0     N  619   6.820   7.213   7.562 -0.0137 -0.5417 -0.8207
  730MOL0     C  620   6.865   7.116   7.648 -0.3764  0.1792 -0.2046
  730MOL0     C  621   6.858   7.182   7.770 -0.4896  0.8193 -0.6410
  730MOL0     C  622   6.885   7.106   7.894  0.0067 -0.7351  0.2097
  730MOL0     C  623   6.798   6.983   7.908 -0.8055  0.6803  0.4799
  730MOL0     C  624   6.844   6.894   8.033  0.2532 -0.7531 -0.8682
  730MOL0     C  625   6.733   6.786   8.033  0.2070  0.4366  0.5815
  730MOL0     O  626   6.769   6.708   7.917  0.7709  0.3361  0.0665
  730MOL0     C  627   6.689   6.605   7.867 -0.8325  0.1724 -0.1506
  730MOL0     C  628   6.566   6.575   7.913 -0.4303  0.6274  0.6103
  730MOL0     C  629   6.497   6.461   7.867  0.3638  1.0784  0.1076
  730MOL0     C  630   6.358   6.439   7.926  0.5676 -0.6117  0.0801
  730MOL0     C  631   6.550   6.382   7.765 -0.1234 -0.4281 -0.2701
  730MOL0     C  632   6.483   6.269   7.709 -0.0199 -0.9980  0.5181
  730MOL0     O  633   6.549   6.148   7.686 -0.3362  0.1645 -0.1320
  730MOL0     C  634   6.471   6.041   7.645  0.0913 -0.0392  0.1304
  730MOL0     C  635   6.534   5.957   7.563 -0.9341 -0.5800  0.6359
  730MOL0     C  636   6.474   5.837   7.530 -0.6342  0.2455 -0.2199
  730MOL0     C  637   6.343   5.800   7.566 -0.4478  0.9455 -0.1623
  730MOL0     O  638   6.297   5.673   7.542  0.1731 -0.0796  0.1357
  730MOL0     C  639   6.311   5.592   7.427  0.2283  0.2510 -0.2397
  730MOL0     C  640   6.220   5.467   7.449  0.7945  0.9675 -0.3480
  730MOL0     C  641   6.182   5.388   7.326 -0.0238 -0.3335 -0.0468
  730MOL0     C  642   6.099   5.262   7.359 -0.1084  0.1817  0.7290
  730MOL0     C  643   6.071   5.197   7.219  0.0209 -0.5752 -0.4482
  730MOL0     C  644   6.005   5.058   7.226 -0.7171 -0.4748 -0.0972
  730MOL0     C  645   6.111   4.946   7.220  0.0815  1.2424 -0.4256
  730MOL0     C  646   6.210   4.925   7.335  0.3516 -0.3468  0.2478
  730MOL0    Cl  647   6.341   5.051   7.328 -0.9089  0.1776 -0.5148
  730MOL0     C  648   6.283   5.891   7.650  0.2559 -0.0533  0.7173
  730MOL0     C  649   6.343   6.012   7.688 -0.4860  0.1911  0.2298
  730MOL0     O  650   6.372   6.293   7.672 -0.3120 -0.3178  0.1689
  730MOL0     C  651   6.681   6.413   7.724  0.2672 -0.3656 -0.5235
  730MOL0     C  652   6.746   6.522   7.776  0.4002  0.0462  0.4778
  730MOL0     N  653   6.792   7.303   7.759  1.0516 -0.3258  1.2313
  730MOL0     N  654   6.775   7.323   7.632 -0.4758  0.6902 -0.1721
  730MOL0     C  655   6.436   7.404   6.505  0.2454 -0.6659 -0.4519
  730MOL0     C  656   6.356   7.336   6.424 -0.3190 -0.6748 -0.2503
  730MOL0     C  657   6.201   7.194   6.011 -0.3221  0.5094 -0.5082
  730MOL0     C  658   6.172   7.049   6.034 -1.1807  0.0186 -0.0423
  730MOL0     C  659   6.083   6.981   5.951  0.3590 -0.2905 -0.3173
  730MOL0     C  660   6.011   7.049   5.844 -0.2070  0.0918 -0.3214
  730MOL0     O  661   5.924   6.996   5.749 -0.4861  0.3509 -0.3423
  730MOL0     C  662   5.893   6.853   5.763 -0.8650  0.3173 -0.3455
  730MOL0     C  663   5.890   6.799   5.622  0.8527  0.1822 -0.7022
  730MOL0     C  664   6.038   6.777   5.577 -0.8840  0.0707  0.9255
  730MOL0     C  665   6.087   6.632   5.568 -0.2756 -0.1776  0.2994
  730MOL0     C  666   6.106   6.577   5.707 -0.9847 -0.3623 -0.4855
  730MOL0     C  667   6.138   6.541   5.821 -0.0669 -0.8614  0.4571
  730MOL0     C  668   6.034   7.184   5.833 -0.6825 -0.1697 -0.0006
  730MOL0     C  669   6.113   7.257   5.919  0.2249  0.2430 -0.2499
  730MOL0     C  670   6.116   7.407   5.913  0.8274 -0.1227 -0.2972
  730MOL0     H  671   6.573   7.233   6.190  0.0719  0.4858  0.1135
  730MOL0     H  672   6.727   7.343   6.342 -0.0740  0.3573 -1.7033
  730MOL0     H  673   6.535   7.513   6.717  0.4240 -0.5270 -2.0038
  730MOL0     H  674   6.705   7.571   6.730  1.7089 -1.1297 -0.8849
  730MOL0     H  675   6.624   7.275   6.712  1.8495 -2.3847  1.4820
  730MOL0     H  676   6.790   7.342   6.737 -0.4919 -2.0057 -0.8009
  730MOL0     H  677   6.718   7.454   6.934 -2.0107  0.0937 -0.5068
  730MOL0     H  678   6.566   7.363   6.934  0.2071  1.3308  1.9388
  730MOL0     H  679   6.714   7.155   6.947  0.4243  0.4362 -2.7911
  730MOL0     H  680   6.855   7.263   6.946  0.5697  0.7121  2.7652
  730MOL0     H  681   6.701   7.163   7.172  2.1330 -0.0113  0.3367
  730MOL0     H  682   6.665   7.331   7.179 -1.9472 -2.3452  0.7528
  730MOL0     H  683   6.945   7.222   7.154  0.7344  1.1918 -1.2887
  730MOL0     H  684   6.911   7.390   7.156 -2.6343  0.9643 -0.2576
  730MOL0     H  685   6.835   7.408   7.384  1.2789  0.6146 -0.3224
  730MOL0     H  686   6.981   7.319   7.373 -0.3549 -1.3202  0.4508
  730MOL0     H  687   6.694   7.187   7.407 -0.6455 -2.7087  2.5290
  730MOL0     H  688   6.849   7.097   7.396 -0.1784  0.1150 -0.4166
  730MOL0     H  689   6.918   7.024   7.625 -0.2689 -0.2113  1.4420
  730MOL0     H  690   6.836   7.166   7.972 -1.3714  0.3854 -1.4452
  730MOL0     H  691   6.994   7.098   7.899  0.0691 -0.5164 -0.6621
  730MOL0     H  692   6.694   7.016   7.922 -0.8553  0.8260 -0.2158
  730MOL0     H  693   6.801   6.919   7.820 -0.9143 -1.4597  1.9637
  730MOL0     H  694   6.951   6.872   8.019  0.4332  0.3930 -1.4680
  730MOL0     H  695   6.830   6.952   8.125  0.0223 -0.9219 -0.7991
  730MOL0     H  696   6.754   6.738   8.129  5.1284  0.0017 -0.4495
  730MOL0     H  697   6.634   6.832   8.025  1.1890  2.7420  0.9496
  730MOL0     H  698   6.516   6.651   7.971 -1.4131  1.1018 -0.8160
  730MOL0     H  699   6.335   6.335   7.949 -1.6359 -0.3876 -0.8460
  730MOL0     H  700   6.275   6.458   7.857  2.2936 -1.5144 -2.3873
  730MOL0     H  701   6.336   6.503   8.012 -0.9122 -2.9343  1.5450
  730MOL0     H  702   6.639   5.980   7.543 -1.2012 -1.9157 -2.9261
  730MOL0     H  703   6.531   5.761   7.476 -0.0817 -0.3220  1.1236
  730MOL0     H  704   6.280   5.653   7.342 -2.1362  2.3043  1.9293
  730MOL0     H  705   6.417   5.564   7.415  1.0448  2.5472  1.0091
  730MOL0     H  706   6.269   5.397   7.516  0.5441  1.1668  0.0463
  730MOL0     H  707   6.131   5.504   7.502  0.6827  1.4902 -0.8840
  730MOL0     H  708   6.268   5.360   7.265 -2.3274 -2.0769 -2.7267
  730MOL0     H  709   6.122   5.453   7.262 -0.0672 -1.5112 -1.2507
  730MOL0     H  710   6.003   5.286   7.406 -0.1292 -2.3688  2.1878
  730MOL0     H  711   6.144   5.192   7.430 -1.1136 -1.0684  0.1763
  730MOL0     H  712   6.010   5.265   7.157  0.9104 -1.4912 -2.4220
  730MOL0     H  713   6.156   5.196   7.151 -0.3974 -0.6583 -0.9834
  730MOL0     H  714   5.956   5.048   7.128  2.0788 -1.0206 -1.5543
  730MOL0     H  715   5.939   5.046   7.312 -0.0849 -2.2695  0.1666
  730MOL0     H  716   6.174   4.967   7.134 -2.1306  3.7692 -1.5770
  730MOL0     H  717   6.053   4.853   7.212  0.8676  0.3809  2.5972
  730MOL0     H  718   6.258   4.828   7.318 -0.9611 -1.0408  0.3825
  730MOL0     H  719   6.173   4.915   7.437  1.4604 -2.8691  0.4700
  730MOL0     H  720   6.183   5.863   7.682  0.0738 -2.1214 -1.3589
  730MOL0     H  721   6.287   6.082   7.750 -2.3118 -0.4775 -0.5803
  730MOL0     H  722   6.716   6.356   7.639 -3.9130 -2.4020 -1.1787
  730MOL0     H  723   6.835   6.564   7.729  0.0692 -0.2767 -0.4531
  730MOL0     H  724   6.402   7.471   6.584 -0.3382  0.3999 -1.5815
  730MOL0     H  725   6.252   7.320   6.450  0.2851 -2.4907  1.2276
  730MOL0     H  726   6.233   6.999   6.109 -0.6733  0.0641 -0.4133
  730MOL0     H  727   6.067   6.877   5.977 -0.3622 -0.2691 -0.6756
  730MOL0     H  728   5.961   6.791   5.821 -0.2710  1.2154 -0.0677
  730MOL0     H  729   5.792   6.850   5.804 -0.3719  1.8706  1.0905
  730MOL0     H  730   5.826   6.861   5.558  0.8130  0.9481  0.0521
  730MOL0     H  731   5.843   6.701   5.626  1.4094 -0.1043 -1.1340
  730MOL0     H  732   6.036   6.823   5.477 -0.8251  0.1522  0.9626
  730MOL0     H  733   6.110   6.824   5.644 -0.0848 -1.5939  1.3068
  730MOL0     H  734   6.182   6.618   5.515 -0.5933 -2.1539  0.1757
  730MOL0     H  735   6.014   6.571   5.513  0.7124 -2.8699  1.7796
  730MOL0     H  736   6.172   6.515   5.920  3.2137 -0.4418 -0.4381
  730MOL0     H  737   5.998   7.234   5.743 -1.3905 -1.1313 -0.2738
  730MOL0     H  738   6.206   7.433   5.856 -1.2251  2.0014 -2.8289
  730MOL0     H  739   6.037   7.438   5.844  2.4377 -1.7518 -3.0934
  730MOL0     H  740   6.122   7.456   6.011  0.8128 -0.8035  0.0532
  731MOL0     O  741   3.294   4.566   6.123 -0.6565 -0.1611  0.5314
  731MOL0     C  742   3.244   4.680   6.143 -0.0814 -0.4565  0.1739
  731MOL0     O  743   3.149   4.702   6.240  0.1047  0.6199  0.1900
  731MOL0     C  744   3.123   4.603   6.323 -0.0064  0.5596 -0.0650
  731MOL0     C  745   3.211   4.559   6.421  0.5177 -0.0368 -0.4268
  731MOL0     C  746   3.176   4.454   6.510  0.0208 -0.8750  0.6194
  731MOL0     C  747   3.057   4.398   6.500 -0.7328  0.3839  0.6900
  731MOL0     O  748   3.018   4.299   6.590 -0.6337 -0.9295  0.4338
  731MOL0     C  749   3.001   4.163   6.534 -0.5662  0.2458 -0.5551
  731MOL0     C  750   2.860   4.105   6.557  0.0323 -1.4851 -0.4315
  731MOL0     C  751   2.820   4.099   6.702 -0.5912  0.1527 -0.0632
  731MOL0     C  752   2.897   3.999   6.792 -0.2228 -0.0920  0.9731
  731MOL0     C  753   2.867   3.852   6.769 -1.0289  0.7391  0.9530
  731MOL0     C  754   2.737   3.805   6.836  0.7362  0.1465  1.8959
  731MOL0     C  755   2.704   3.659   6.801 -0.5997 -0.5644  0.0444
  731MOL0     C  756   2.605   3.586   6.894 -0.5020  0.2248 -0.5812
  731MOL0     N  757   2.657   3.544   7.025 -1.4956 -0.5971  0.2797
  731MOL0     C  758   2.670   3.622   7.142  0.2891 -0.7572 -0.1435
  731MOL0     C  759   2.762   3.565   7.222  0.6380  0.9675 -0.4921
  731MOL0     C  760   2.792   3.601   7.365  1.2184 -0.1480 -1.0933
  731MOL0     C  761   2.661   3.619   7.443 -0.0242  0.7511 -0.3620
  731MOL0     C  762   2.696   3.641   7.599 -0.0748  0.6047  0.4255
  731MOL0     C  763   2.589   3.718   7.681 -0.3009  0.0790  0.4433
  731MOL0     O  764   2.626   3.730   7.817  0.5961 -0.2037 -0.2572
  731MOL0     C  765   2.546   3.808   7.898  0.9419  0.8988  0.2620
  731MOL0     C  766   2.572   3.791   8.034  0.8828  0.6525 -0.5591
  731MOL0     C  767   2.489   3.861   8.133 -0.6700  0.4795 -0.6074
  731MOL0     C  768   2.512   3.817   8.278  0.3896  0.5238 -0.0762
  731MOL0     C  769   2.400   3.963   8.093  0.0044  0.0236  0.1026
  731MOL0     C  770   2.325   4.049   8.196 -0.0722  0.0716  0.8856
  731MOL0     O  771   2.198   4.079   8.165 -0.2003 -0.5888  0.1393
  731MOL0     C  772   2.111   4.104   8.261  0.1236  0.7205  0.2987
  731MOL0     C  773   2.100   4.021   8.372  0.4717  0.0228 -0.8697
  731MOL0     C  774   2.006   4.056   8.469  0.4094  0.6086 -0.2577
  731MOL0     C  775   1.924   4.172   8.460  1.1038  0.5681  0.1743
  731MOL0     O  776   1.845   4.201   8.565  0.1192  0.4418 -0.4735
  731MOL0     C  777   1.767   4.317   8.569 -0.4369 -0.6373  0.1328
  731MOL0     C  778   1.708   4.328   8.710 -0.3974 -0.7705  0.1105
  731MOL0     C  779   1.638   4.202   8.756  0.1549 -0.9142 -0.3549
  731MOL0     C  780   1.516   4.184   8.663  0.1084 -1.0240 -0.8387
  731MOL0     C  781   1.428   4.083   8.728  0.6096  1.0937 -0.2764
  731MOL0     C  782   1.311   4.044   8.654  0.1318  0.8601  0.1621
  731MOL0     C  783   1.234   3.915   8.685  0.6667 -0.4024 -0.1656
  731MOL0     C  784   1.096   3.896   8.619  0.0758 -0.0492  1.2918
  731MOL0    Cl  785   1.156   3.895   8.444  0.0503 -0.3370  0.2012
  731MOL0     C  786   1.932   4.252   8.344 -0.0332  0.0427  0.1457
  731MOL0     C  787   2.018   4.212   8.244  0.2154  0.2551  0.6408
  731MOL0     O  788   2.375   4.085   8.301 -0.4426 -0.5870 -0.8575
  731MOL0     C  789   2.377   3.966   7.953 -0.3593  0.3719 -0.8926
  731MOL0     C  790   2.446   3.892   7.859  0.3735  0.1097  0.3930
  731MOL0     N  791   2.796   3.439   7.168 -0.0987 -0.9480 -0.6496
  731MOL0     N  792   2.734   3.429   7.045 -0.4994  0.1513 -0.6960
  731MOL0     C  793   2.968   4.438   6.400 -0.6565  0.7508  0.3203
  731MOL0     C  794   2.993   4.542   6.318 -0.2511 -1.0811 -0.1348
  731MOL0     C  795   3.266   4.800   6.057  0.2929  0.7158  0.3527
  731MOL0     C  796   3.197   4.981   6.130  0.3851 -0.1927 -0.1005
  731MOL0     C  797   3.258   5.160   6.052 -0.9915 -0.8799 -0.7688
  731MOL0     C  798   3.401   5.164   5.891 -0.6189 -0.0741 -1.8614
  731MOL0     O  799   3.456   5.274   5.838  0.4160 -0.5819  0.2210
  731MOL0     C  800   3.402   5.405   5.886 -0.0072 -0.5600 -0.0023
  731MOL0     C  801   3.451   5.526   5.804 -0.4472 -0.3562  0.4361
  731MOL0     C  802   3.413   5.652   5.894 -0.4727  0.2893  0.2774
  731MOL0     C  803   3.529   5.748   5.930 -0.9655  0.9431 -0.2096
  731MOL0     C  804   3.642   5.665   5.989 -0.3441 -0.9373 -0.5084
  731MOL0     C  805   3.732   5.601   6.032  0.1147 -0.3205 -0.2340
  731MOL0     C  806   3.473   4.980   5.815 -0.1717 -0.2773 -0.0411
  731MOL0     C  807   3.403   4.796   5.898 -0.6810 -0.0335  0.5160
  731MOL0     C  808   3.463   4.663   5.859  0.5260 -0.5217 -0.0412
  731MOL0     H  809   3.298   4.619   6.448  0.7376 -1.3646  2.1901
  731MOL0     H  810   3.249   4.425   6.585  1.4967  1.3248  0.1430
  731MOL0     H  811   3.068   4.092   6.583 -0.8953 -0.1083 -0.6125
  731MOL0     H  812   3.031   4.166   6.428 -1.3566 -0.5588 -0.8121
  731MOL0     H  813   2.790   4.165   6.498 -1.3724 -1.3575  1.2976
  731MOL0     H  814   2.861   4.005   6.513 -0.1636 -0.8137 -2.0367
  731MOL0     H  815   2.839   4.199   6.743  0.2223  0.2523 -0.6404
  731MOL0     H  816   2.714   4.076   6.707 -0.3937 -1.2649 -1.5434
  731MOL0     H  817   3.004   4.020   6.787 -0.0112 -1.1196  1.0142
  731MOL0     H  818   2.869   4.016   6.896 -2.4026  0.1546  0.4090
  731MOL0     H  819   2.942   3.787   6.814  1.7676  2.6993 -0.5610
  731MOL0     H  820   2.860   3.827   6.663  0.5748 -0.9042  1.1976
  731MOL0     H  821   2.732   3.812   6.945  0.7983  1.1364  1.8508
  731MOL0     H  822   2.663   3.868   6.786  2.1642  1.1224  0.9154
  731MOL0     H  823   2.797   3.605   6.821 -1.1711 -0.5729  3.0602
  731MOL0     H  824   2.670   3.654   6.697  1.7372 -1.6696 -0.7345
  731MOL0     H  825   2.512   3.642   6.904 -0.4283  0.3263 -0.4689
  731MOL0     H  826   2.589   3.498   6.830 -2.5165  0.4040 -0.3700
  731MOL0     H  827   2.611   3.711   7.158  2.6164  0.5696  1.8455
  731MOL0     H  828   2.842   3.698   7.362  0.0326  0.7185  2.3538
  731MOL0     H  829   2.862   3.532   7.414  1.8007  0.2550 -1.3470
  731MOL0     H  830   2.611   3.709   7.404 -1.2910 -0.0323 -0.5990
  731MOL0     H  831   2.589   3.537   7.437  0.2390  0.5495 -0.8014
  731MOL0     H  832   2.721   3.541   7.636  1.6883  0.5223 -0.8099
  731MOL0     H  833   2.789   3.695   7.622  0.5871 -0.6732  0.8507
  731MOL0     H  834   2.593   3.816   7.633  1.4879  0.3094  0.9861
  731MOL0     H  835   2.486   3.681   7.674 -0.0105 -1.2078  2.2486
  731MOL0     H  836   2.650   3.719   8.058 -0.0698 -0.7297 -1.4251
  731MOL0     H  837   2.550   3.715   8.273  1.9856  1.1483 -2.3866
  731MOL0     H  838   2.413   3.811   8.323  0.2668 -1.6882 -0.5201
  731MOL0     H  839   2.589   3.881   8.321 -0.3261  1.2964  0.0913
  731MOL0     H  840   2.164   3.933   8.369  3.6293  2.1311 -0.1343
  731MOL0     H  841   2.007   3.994   8.558  0.0128 -1.3717 -1.5625
  731MOL0     H  842   1.828   4.406   8.551 -3.3024  1.5781  0.8029
  731MOL0     H  843   1.693   4.311   8.488  2.0634 -0.9630 -2.3117
  731MOL0     H  844   1.800   4.342   8.768  0.0258 -2.8777  0.0281
  731MOL0     H  845   1.641   4.413   8.724 -0.9475 -1.2300  0.3223
  731MOL0     H  846   1.605   4.217   8.859 -0.3207 -1.9823 -0.3337
  731MOL0     H  847   1.709   4.119   8.751  1.6520  0.3617 -1.3321
  731MOL0     H  848   1.554   4.149   8.567  4.1361 -0.7145  0.4167
  731MOL0     H  849   1.450   4.269   8.646  1.8968 -0.0596 -3.6315
  731MOL0     H  850   1.481   3.990   8.747  1.2635  1.6095  0.5037
  731MOL0     H  851   1.408   4.121   8.829  2.8583  0.1896  0.5723
  731MOL0     H  852   1.347   4.036   8.551 -0.8337  1.0142 -0.1967
  731MOL0     H  853   1.250   4.134   8.650  0.0572  1.0484  3.0759
  731MOL0     H  854   1.214   3.920   8.792 -1.4227 -1.0092 -0.4787
  731MOL0     H  855   1.296   3.830   8.654  0.9034 -1.8166  3.6911
  731MOL0     H  856   1.038   3.987   8.639  1.8771  1.1996  1.0956
  731MOL0     H  857   1.057   3.800   8.652  2.6918 -1.2585  1.0781
  731MOL0     H  858   1.866   4.336   8.322 -4.5872 -3.1807  0.0069
  731MOL0     H  859   2.019   4.275   8.156  0.4079 -0.0166  0.4467
  731MOL0     H  860   2.301   4.019   7.896  0.1463 -0.0975 -2.0294
  731MOL0     H  861   2.424   3.886   7.753  2.0688 -0.0633  0.0152
  731MOL0     H  862   2.873   4.388   6.383 -0.3349 -0.3714  1.6725
  731MOL0     H  863   2.922   4.567   6.239 -0.0338  0.6599  0.1784
  731MOL0     H  864   3.115   4.977   6.201  0.2925  0.7958 -0.1270
  731MOL0     H  865   3.207   5.254   6.073  3.2768  1.7736 -0.9790
  731MOL0     H  866   3.293   5.418   5.890  0.1145  3.1331 -2.9827
  731MOL0     H  867   3.438   5.421   5.988 -1.0791 -0.6808  0.4107
  731MOL0     H  868   3.403   5.528   5.705 -1.7525 -3.5742  0.8884
  731MOL0     H  869   3.556   5.518   5.776 -1.1241 -0.0707 -2.5927
  731MOL0     H  870   3.346   5.720   5.840  0.3873  5.5906  4.9228
  731MOL0     H  871   3.359   5.623   5.985 -0.2458 -0.2562  0.2399
  731MOL0     H  872   3.493   5.823   6.002 -6.0705 -0.4831 -0.8864
  731MOL0     H  873   3.565   5.791   5.836  0.9424 -0.5907 -0.2445
  731MOL0     H  874   3.806   5.543   6.084  0.1833 -1.0601 -1.1377
  731MOL0     H  875   3.560   4.979   5.750  1.2277  0.0784  1.7464
  731MOL0     H  876   3.387   4.585   5.862  0.0619 -0.0458  1.7869
  731MOL0     H  877   3.509   4.670   5.760  0.6324  0.2057  0.0564
  731MOL0     H  878   3.549   4.636   5.921 -0.4055 -0.1405  1.4464
  732MOL0     O  879   5.066  10.873   4.595  0.2853 -0.3907 -0.6258
  732MOL0     C  880   5.175  10.830   4.552  0.2139  0.1440  0.0460
  732MOL0     O  881   5.235  10.879   4.434 -0.0476  0.6635 -0.2025
  732MOL0     C  882   5.170  10.988   4.368 -0.8705  0.3455  0.6928
  732MOL0     C  883   5.085  10.959   4.263  0.1594 -0.6479  0.0351
  732MOL0     C  884   5.031  11.067   4.182 -0.0073 -0.4626  0.6230
  732MOL0     C  885   5.061  11.199   4.222 -0.0128 -0.5092  0.3872
  732MOL0     O  886   5.022  11.316   4.153  0.5730  0.7558  0.1166
  732MOL0     C  887   5.098  11.337   4.034  0.2458  0.6151  0.4404
  732MOL0     C  888   5.157  11.473   4.036 -0.6789 -0.4485 -0.5540
  732MOL0     C  889   5.286  11.485   3.959 -0.6103 -0.2314  1.1525
  732MOL0     C  890   5.368  11.615   4.008  0.5197 -0.6010  0.2086
  732MOL0     C  891   5.507  11.605   3.952  0.5350 -1.2003 -0.6459
  732MOL0     C  892   5.582  11.737   3.983 -0.5064 -0.5103  0.2881
  732MOL0     C  893   5.702  11.752   3.884  1.1620 -0.0039  0.2180
  732MOL0     C  894   5.800  11.860   3.916  0.1018  0.3518 -0.2835
  732MOL0     N  895   5.922  11.825   3.847 -0.1569 -0.1959  0.0911
  732MOL0     C  896   6.034  11.781   3.902 -0.1488  0.1069 -0.6496
  732MOL0     C  897   6.123  11.768   3.799  0.4487 -0.3944 -0.3611
  732MOL0     C  898   6.263  11.728   3.822 -0.3512  0.2059  0.3556
  732MOL0     C  899   6.300  11.584   3.790  0.5015  0.3628 -1.2966
  732MOL0     C  900   6.439  11.565   3.840  0.2240 -0.0836 -0.4292
  732MOL0     C  901   6.513  11.457   3.767 -0.9580  0.0467 -0.1682
  732MOL0     O  902   6.450  11.326   3.758 -0.3675  0.6854 -0.5557
  732MOL0     C  903   6.500  11.227   3.835  0.0632  0.5836  0.9034
  732MOL0     C  904   6.457  11.098   3.780 -0.0162  0.1121  0.1996
  732MOL0     C  905   6.481  10.976   3.846 -0.5591 -0.3216  0.1950
  732MOL0     C  906   6.439  10.845   3.771 -0.5923  0.0564 -0.5905
  732MOL0     C  907   6.567  10.986   3.967  0.5209 -0.0887  0.8469
  732MOL0     C  908   6.602  10.860   4.041  1.0158 -0.0089 -0.7974
  732MOL0     O  909   6.527  10.756   4.028 -0.0570  0.5232 -0.3783
  732MOL0     C  910   6.551  10.654   4.118  0.6536  0.8701  0.0004
  732MOL0     C  911   6.665  10.580   4.114  0.0976  0.0005  0.2543
  732MOL0     C  912   6.674  10.489   4.220  0.3717  0.2483  0.1213
  732MOL0     C  913   6.575  10.466   4.319 -0.0527  0.3831  0.0510
  732MOL0     O  914   6.586  10.370   4.417 -0.7806  0.4656 -0.4575
  732MOL0     C  915   6.568  10.240   4.362  0.3779  0.1643 -0.2341
  732MOL0     C  916   6.474  10.171   4.468  0.2852 -0.1595  0.3055
  732MOL0     C  917   6.331  10.225   4.471  1.1738 -0.3151  0.1580
  732MOL0     C  918   6.234  10.159   4.576 -0.3747  0.3327 -0.8619
  732MOL0     C  919   6.202  10.016   4.541 -0.1023  1.4158  0.8834
  732MOL0     C  920   6.081   9.948   4.598 -0.3029  0.4013  0.5940
  732MOL0     C  921   6.059   9.798   4.565 -0.1807 -0.1346 -0.3097
  732MOL0     C  922   5.922   9.743   4.628 -0.2991 -1.2971  0.3519
  732MOL0    Cl  923   5.782   9.835   4.564 -0.0684 -0.5355  0.3380
  732MOL0     C  924   6.449  10.523   4.298 -0.1260 -0.7036 -0.0645
  732MOL0     C  925   6.438  10.615   4.194 -0.2548 -0.6466 -0.4897
  732MOL0     O  926   6.699  10.870   4.120 -0.7680  0.0530  0.3161
  732MOL0     C  927   6.601  11.112   4.016  0.1587 -0.1979  0.8304
  732MOL0     C  928   6.567  11.228   3.948 -0.2269 -0.8896  0.6576
  732MOL0     N  929   6.069  11.823   3.691  0.3893  0.9914  0.0899
  732MOL0     N  930   5.943  11.853   3.714 -0.6274 -0.2865 -0.1079
  732MOL0     C  931   5.122  11.220   4.343 -0.2376  0.1626  0.1849
  732MOL0     C  932   5.192  11.120   4.402 -0.8959  1.0735 -0.3475
  732MOL0     C  933   5.244  10.724   4.628 -0.8502 -0.9722  0.4405
  732MOL0     C  934   5.385  10.695   4.601  0.0471 -0.0718  0.7713
  732MOL0     C  935   5.459  10.601   4.676 -0.1760 -0.0544 -0.0117
  732MOL0     C  936   5.393  10.537   4.788 -0.8011 -1.2085 -0.3639
  732MOL0     O  937   5.452  10.432   4.860  0.6584 -0.0913 -0.2164
  732MOL0     C  938   5.596  10.419   4.848  0.3247 -0.3775 -0.6462
  732MOL0     C  939   5.648  10.291   4.906  0.1008  0.2070 -0.5186
  732MOL0     C  940   5.659  10.302   5.062 -0.1535 -0.0687 -0.4997
  732MOL0     C  941   5.695  10.174   5.131  0.4200 -0.2389 -0.2814
  732MOL0     C  942   5.826  10.122   5.085 -0.1803 -0.0206  0.3564
  732MOL0     C  943   5.927  10.070   5.050 -0.7460 -0.1898 -0.7192
  732MOL0     C  944   5.269  10.573   4.814  0.1630  1.0517  0.3926
  732MOL0     C  945   5.189  10.655   4.737  0.0270 -0.0079 -0.7561
  732MOL0     C  946   5.043  10.655   4.780 -0.0653  0.3923  0.3930
  732MOL0     H  947   5.056  10.855   4.246  0.1495 -0.6620  0.1397
  732MOL0     H  948   4.979  11.053   4.088 -1.0540 -2.0092  1.3933
  732MOL0     H  949   5.027  11.316   3.953 -1.6054  2.0659  1.6211
  732MOL0     H  950   5.178  11.262   4.032  0.8048  1.2199 -0.7222
  732MOL0     H  951   5.084  11.543   3.996  1.2033  1.0937 -1.4764
  732MOL0     H  952   5.178  11.503   4.139 -0.3968 -1.9870 -0.1341
  732MOL0     H  953   5.348  11.396   3.977  1.3430  0.5781 -1.0941
  732MOL0     H  954   5.286  11.508   3.852  1.9574  3.6406  1.7525
  732MOL0     H  955   5.317  11.703   3.969 -4.9082 -2.0736  2.9730
  732MOL0     H  956   5.378  11.625   4.117  0.2897 -0.9318  0.2618
  732MOL0     H  957   5.500  11.595   3.843 -1.3943  0.8567 -0.7871
  732MOL0     H  958   5.551  11.524   4.011  2.4850  1.3315  1.6180
  732MOL0     H  959   5.507  11.815   3.972 -0.7646 -0.5328  1.7825
  732MOL0     H  960   5.607  11.744   4.089  0.8142 -2.7452  0.2050
  732MOL0     H  961   5.668  11.769   3.782  3.6743  1.2068 -0.4769
  732MOL0     H  962   5.740  11.649   3.890 -1.6828 -1.0985  1.6795
  732MOL0     H  963   5.762  11.959   3.889 -1.3543 -0.0825  0.1025
  732MOL0     H  964   5.819  11.856   4.024 -2.1128 -1.9273  0.0981
  732MOL0     H  965   6.062  11.749   4.002  2.1820  0.4939 -1.1202
  732MOL0     H  966   6.296  11.753   3.924  1.6486  0.2727 -0.2674
  732MOL0     H  967   6.331  11.789   3.761 -0.6189 -1.0234 -1.2147
  732MOL0     H  968   6.229  11.510   3.829  2.8364 -1.8893 -1.0236
  732MOL0     H  969   6.297  11.570   3.682 -0.1559  0.5659 -1.3056
  732MOL0     H  970   6.497  11.657   3.826 -0.6920  0.4401 -0.8850
  732MOL0     H  971   6.429  11.535   3.945  3.2271 -2.1223 -0.6108
  732MOL0     H  972   6.542  11.488   3.666  0.2343 -2.0808 -0.5466
  732MOL0     H  973   6.611  11.445   3.815 -1.0740  0.7105  0.2526
  732MOL0     H  974   6.396  11.103   3.691  1.1718 -0.6272 -0.6829
  732MOL0     H  975   6.376  10.866   3.684 -2.6911  0.8278  1.0058
  732MOL0     H  976   6.381  10.774   3.832  0.9141  0.2304  1.1167
  732MOL0     H  977   6.533  10.795   3.747  1.8266  2.6242  2.7671
  732MOL0     H  978   6.755  10.584   4.054 -0.8962 -0.1473 -1.2916
  732MOL0     H  979   6.765  10.434   4.236  1.2617  1.6769  0.1602
  732MOL0     H  980   6.522  10.241   4.263  1.4064 -1.5375 -0.7677
  732MOL0     H  981   6.666  10.193   4.357 -0.3631 -1.5869  0.8192
  732MOL0     H  982   6.466  10.063   4.450  0.2393  0.1427 -1.6220
  732MOL0     H  983   6.535  10.193   4.556  0.3569  0.7394  0.0392
  732MOL0     H  984   6.282  10.211   4.374 -0.1257  1.4712  0.5155
  732MOL0     H  985   6.347  10.331   4.494  1.8933 -0.6463  1.2302
  732MOL0     H  986   6.145  10.223   4.564 -0.5274 -0.1672 -2.6727
  732MOL0     H  987   6.269  10.160   4.680 -2.4982 -3.4696  0.0832
  732MOL0     H  988   6.187  10.007   4.433 -0.1538  0.1604  0.9839
  732MOL0     H  989   6.288   9.951   4.554 -0.9054 -0.0691 -0.7884
  732MOL0     H  990   6.006  10.009   4.546  0.8164  3.1970  2.0405
  732MOL0     H  991   6.071   9.960   4.706  1.5758  0.9381  0.7447
  732MOL0     H  992   6.144   9.741   4.604  1.3837 -0.1351 -3.3906
  732MOL0     H  993   6.068   9.783   4.457  1.2977  0.1992 -0.2624
  732MOL0     H  994   5.925   9.771   4.733  0.2206  1.7722 -0.3809
  732MOL0     H  995   5.922   9.635   4.607  3.0174 -1.6102  1.3882
  732MOL0     H  996   6.359  10.493   4.351 -1.3231 -0.2371 -1.7309
  732MOL0     H  997   6.348  10.666   4.162 -0.1726 -1.1688 -1.6061
  732MOL0     H  998   6.647  11.098   4.114 -0.7255 -3.1372  0.9357
  732MOL0     H  999   6.612  11.316   3.994 -1.3593  0.5430 -0.8421
  732MOL0     H 1000   5.126  11.325   4.370 -2.5908  1.2046 -2.9530
  732MOL0     H 1001   5.265  11.134   4.482  2.3847 -1.2450 -2.6503
  732MOL0     H 1002   5.438  10.744   4.520  0.9105 -1.0387  0.7334
  732MOL0     H 1003   5.564  10.584   4.653 -0.2234  2.1382 -2.2460
  732MOL0     H 1004   5.634  10.424   4.746 -1.1981 -0.3187 -1.2342
  732MOL0     H 1005   5.646  10.505   4.894  0.5273 -1.3584  1.0509
  732MOL0     H 1006   5.750  10.270   4.874 -0.2376 -0.8256 -0.9898
  732MOL0     H 1007   5.577  10.211   4.879  0.2092  0.3088 -1.1157
  732MOL0     H 1008   5.730  10.373   5.106  2.0925 -1.7820 -1.1680
  732MOL0     H 1009   5.558  10.333   5.092 -0.2296  1.8825 -2.5417
  732MOL0     H 1010   5.627  10.093   5.103 -1.1712  0.8506  0.3295
  732MOL0     H 1011   5.690  10.195   5.238 -3.4047 -1.1675 -0.1322
  732MOL0     H 1012   6.021  10.028   5.023  0.9285 -0.1259  4.0249
  732MOL0     H 1013   5.223  10.524   4.899  1.5701  0.2028  0.6962
  732MOL0     H 1014   4.998  10.755   4.773  2.2505  1.3943 -1.3565
  732MOL0     H 1015   4.992  10.583   4.716  3.1532 -0.4859 -1.3739
  732MOL0     H 1016   5.027  10.626   4.884  0.1763  0.2978  0.4044
  733MOL0     O 1017   8.416   3.289   8.043 -0.1661  0.0401  0.2983
  733MOL0     C 1018   8.480   3.380   7.992  0.6265  1.4683 -0.1883
  733MOL0     O 1019   8.576   3.366   7.900  0.2615  0.2483  0.0731
  733MOL0     C 1020   8.618   3.246   7.857 -0.9560  0.6918  0.3893
  733MOL0     C 1021   8.666   3.235   7.724 -0.8883  0.2525  0.2846
  733MOL0     C 1022   8.704   3.107   7.679  0.2150 -0.9214  0.0312
  733MOL0     C 1023   8.705   3.001   7.761  0.1796 -0.4131 -0.1281
  733MOL0     O 1024   8.752   2.895   7.695  0.0850 -0.1051  0.0035
  733MOL0     C 1025   8.720   2.770   7.737  0.9593 -0.2786  0.1565
  733MOL0     C 1026   8.764   2.667   7.630 -0.0375 -0.7804 -0.8452
  733MOL0     C 1027   8.686   2.690   7.501 -0.4080 -0.3862 -0.6748
  733MOL0     C 1028   8.677   2.559   7.425 -0.5820  0.0215  0.3913
  733MOL0     C 1029   8.632   2.587   7.289 -0.7580  0.3985  0.6626
  733MOL0     C 1030   8.606   2.451   7.221 -0.2451 -0.4829  0.1298
  733MOL0     C 1031   8.540   2.446   7.077 -0.0247  0.1516  0.3494
  733MOL0     C 1032   8.628   2.511   6.971  1.1863 -0.2154 -0.1058
  733MOL0     N 1033   8.554   2.502   6.840 -0.2746  0.2751  0.0217
  733MOL0     C 1034   8.473   2.603   6.780 -0.0001  1.0459  0.5454
  733MOL0     C 1035   8.428   2.539   6.668 -0.3043 -0.3535 -0.1246
  733MOL0     C 1036   8.347   2.589   6.552  0.6896 -0.0295  0.3092
  733MOL0     C 1037   8.196   2.597   6.598  0.2795 -0.3600 -0.7592
  733MOL0     C 1038   8.104   2.568   6.482 -0.5754 -0.0101  0.4728
  733MOL0     C 1039   7.955   2.556   6.528  0.3949 -0.6694  0.3038
  733MOL0     O 1040   7.918   2.680   6.583 -0.7827 -0.4702 -0.0440
  733MOL0     C 1041   7.787   2.690   6.595 -0.0487  1.3501 -1.1904
  733MOL0     C 1042   7.718   2.791   6.533  0.4295 -0.3399  0.9398
  733MOL0     C 1043   7.583   2.799   6.528 -0.0749  1.2174  0.4451
  733MOL0     C 1044   7.514   2.918   6.453  0.5783 -0.9347 -0.3288
  733MOL0     C 1045   7.512   2.697   6.606  0.0056 -0.8476 -0.4655
  733MOL0     C 1046   7.363   2.690   6.620 -0.7931 -0.3908 -0.1607
  733MOL0     O 1047   7.316   2.593   6.708 -0.4017 -0.3335  0.5023
  733MOL0     C 1048   7.180   2.569   6.699 -1.0192 -0.6331 -0.1971
  733MOL0     C 1049   7.101   2.613   6.812 -0.5360  0.8361 -0.3751
  733MOL0     C 1050   6.976   2.578   6.824  0.4861 -0.1979  0.5287
  733MOL0     C 1051   6.913   2.505   6.718  0.9230  0.1141  0.3988
  733MOL0     O 1052   6.777   2.482   6.737 -0.6400  0.4978  0.6229
  733MOL0     C 1053   6.705   2.436   6.619 -0.0309 -0.4976 -1.2890
  733MOL0     C 1054   6.560   2.406   6.670 -0.0386  0.6407 -0.7234
  733MOL0     C 1055   6.493   2.327   6.564  0.9576  0.6176  0.7500
  733MOL0     C 1056   6.350   2.281   6.618  0.4052  0.1615 -0.1022
  733MOL0     C 1057   6.269   2.193   6.524  0.2498  0.6713  0.4841
  733MOL0     C 1058   6.120   2.216   6.514 -0.7007  0.0607  0.3763
  733MOL0     C 1059   6.051   2.163   6.393  1.0350  0.6966  0.2469
  733MOL0     C 1060   5.900   2.209   6.401 -0.0405  0.0937 -0.2758
  733MOL0    Cl 1061   5.783   2.150   6.283  0.2022 -0.1761 -0.2815
  733MOL0     C 1062   6.980   2.476   6.599  0.2600 -0.2968  1.2803
  733MOL0     C 1063   7.120   2.503   6.592  0.8437  0.5257 -0.0793
  733MOL0     O 1064   7.290   2.752   6.544 -0.1807  0.4072 -0.4364
  733MOL0     C 1065   7.584   2.599   6.686 -0.5706 -1.1987  0.1060
  733MOL0     C 1066   7.721   2.589   6.685  0.2249 -0.8231 -0.7375
  733MOL0     N 1067   8.485   2.410   6.658  0.0054 -0.5465 -0.6907
  733MOL0     N 1068   8.567   2.394   6.758  0.6644  0.7174  0.4697
  733MOL0     C 1069   8.657   3.012   7.890 -1.2096 -0.3183 -0.2633
  733MOL0     C 1070   8.607   3.128   7.939 -0.5793 -1.2260 -0.6311
  733MOL0     C 1071   8.438   3.513   8.020  0.4235 -1.5991 -1.0459
  733MOL0     C 1072   8.452   3.617   7.925 -0.1078 -0.3344  0.2843
  733MOL0     C 1073   8.406   3.748   7.953  0.7974 -0.0572 -0.3006
  733MOL0     C 1074   8.337   3.775   8.074  1.2760 -0.2561  0.1527
  733MOL0     O 1075   8.269   3.896   8.085 -0.4587 -0.0037 -0.5237
  733MOL0     C 1076   8.220   3.941   8.218  1.2122  0.0947  0.9434
  733MOL0     C 1077   8.066   3.959   8.220 -0.3365  0.2809  0.3107
  733MOL0     C 1078   8.028   4.068   8.330  0.2402  0.6908 -0.2258
  733MOL0     C 1079   8.078   4.011   8.463  0.4852  0.0715 -0.2675
  733MOL0     C 1080   8.047   4.099   8.575  0.3744 -0.4495  1.0502
  733MOL0     C 1081   8.003   4.173   8.656  0.5731  1.1292 -0.6413
  733MOL0     C 1082   8.337   3.667   8.171 -0.0982 -0.3385  0.3756
  733MOL0     C 1083   8.378   3.544   8.153  0.8263  0.3911  0.2734
  733MOL0     C 1084   8.354   3.448   8.274 -0.1853 -0.2129  0.8941
  733MOL0     H 1085   8.660   3.329   7.669 -2.6423  1.5131  2.4556
  733MOL0     H 1086   8.723   3.100   7.573 -1.5445 -3.2357 -0.2139
  733MOL0     H 1087   8.613   2.754   7.755  0.3285  0.4602 -2.4583
  733MOL0     H 1088   8.782   2.753   7.826  1.0114  2.4712  0.7568
  733MOL0     H 1089   8.873   2.671   7.623 -0.0364 -1.7156 -1.5879
  733MOL0     H 1090   8.769   2.562   7.659  1.7227 -0.3017  0.7923
  733MOL0     H 1091   8.588   2.735   7.522  1.3173  3.1572  0.6581
  733MOL0     H 1092   8.736   2.771   7.447 -1.4486  0.7040 -0.0682
  733MOL0     H 1093   8.770   2.503   7.413 -0.3499  0.6556 -1.0302
  733MOL0     H 1094   8.599   2.504   7.478 -0.2759  2.7276  4.1008
  733MOL0     H 1095   8.702   2.645   7.227  0.5928 -0.6248  1.1736
  733MOL0     H 1096   8.539   2.642   7.298 -0.5179  1.3744 -2.0255
  733MOL0     H 1097   8.701   2.396   7.218 -0.2000 -0.5794  2.2599
  733MOL0     H 1098   8.533   2.397   7.281 -0.5520 -3.4715 -2.6492
  733MOL0     H 1099   8.440   2.492   7.072 -0.5836 -1.1111 -0.7067
  733MOL0     H 1100   8.531   2.340   7.053 -2.8511  0.8034 -2.0399
  733MOL0     H 1101   8.639   2.617   6.998 -1.8944  0.4649 -1.1615
  733MOL0     H 1102   8.728   2.468   6.959  1.7170  1.6359 -4.0736
  733MOL0     H 1103   8.439   2.698   6.820  0.1161  1.4123 -0.2022
  733MOL0     H 1104   8.353   2.518   6.469 -2.9710 -0.4851  0.2530
  733MOL0     H 1105   8.382   2.684   6.512  3.7354 -2.5071 -3.7178
  733MOL0     H 1106   8.172   2.541   6.689  0.6988  1.6180  0.6357
  733MOL0     H 1107   8.193   2.701   6.629  2.0607 -0.6793  0.6436
  733MOL0     H 1108   8.110   2.643   6.403 -1.8338 -2.2351 -1.8987
  733MOL0     H 1109   8.138   2.473   6.440 -0.1389  1.3288 -2.4234
  733MOL0     H 1110   7.895   2.537   6.439 -0.1694  0.4767  0.4209
  733MOL0     H 1111   7.947   2.467   6.591 -1.0298 -1.4861 -0.9674
  733MOL0     H 1112   7.773   2.862   6.473  0.4087 -0.3560  0.9016
  733MOL0     H 1113   7.582   2.968   6.384  2.4714 -3.6316 -0.6077
  733MOL0     H 1114   7.467   2.990   6.521 -3.1246 -1.9545 -1.6152
  733MOL0     H 1115   7.430   2.873   6.400  2.0000 -2.2983 -1.5071
  733MOL0     H 1116   7.158   2.669   6.886  2.1975  1.0318 -2.4646
  733MOL0     H 1117   6.904   2.594   6.905 -2.5156 -1.6296 -1.6555
  733MOL0     H 1118   6.688   2.521   6.553 -2.8637  1.3153  1.4813
  733MOL0     H 1119   6.749   2.346   6.575  0.1483 -0.7804 -0.5444
  733MOL0     H 1120   6.554   2.341   6.758  2.6758  0.6505 -0.4356
  733MOL0     H 1121   6.513   2.500   6.701 -2.9296 -1.0090  0.2337
  733MOL0     H 1122   6.558   2.240   6.556 -2.1035 -1.9967  2.0528
  733MOL0     H 1123   6.480   2.381   6.470  2.2283  0.8918  0.7196
  733MOL0     H 1124   6.283   2.367   6.617 -1.9346 -1.4941  1.6720
  733MOL0     H 1125   6.355   2.244   6.721  3.3780  1.6582  0.4054
  733MOL0     H 1126   6.303   2.210   6.421 -0.8451 -0.4830 -0.0831
  733MOL0     H 1127   6.277   2.085   6.536  0.0611  0.5811 -0.1655
  733MOL0     H 1128   6.083   2.318   6.525 -1.2632 -0.3089  2.2213
  733MOL0     H 1129   6.093   2.157   6.602  2.0417 -2.3765 -0.2244
  733MOL0     H 1130   6.053   2.054   6.390  1.8623  0.6513  1.6030
  733MOL0     H 1131   6.107   2.214   6.313 -1.0555  0.4204 -1.4736
  733MOL0     H 1132   5.903   2.318   6.405  0.3335  0.0595  3.0843
  733MOL0     H 1133   5.853   2.168   6.491 -3.2286 -2.2780 -2.7533
  733MOL0     H 1134   6.936   2.428   6.512  0.1446 -0.7213  1.5721
  733MOL0     H 1135   7.170   2.478   6.499 -1.4808  1.2813 -1.6115
  733MOL0     H 1136   7.539   2.530   6.757  1.2279 -1.2540  1.2584
  733MOL0     H 1137   7.761   2.514   6.751 -0.2245  0.6232  1.2626
  733MOL0     H 1138   8.649   2.924   7.953 -0.2228 -0.8302 -0.8290
  733MOL0     H 1139   8.577   3.142   8.043 -1.7715  2.3875 -1.3064
  733MOL0     H 1140   8.500   3.605   7.828 -3.8140 -3.1356 -1.4731
  733MOL0     H 1141   8.413   3.836   7.889 -2.9376  1.0550  0.5246
  733MOL0     H 1142   8.252   3.890   8.309  2.0030  0.1160  0.6833
  733MOL0     H 1143   8.263   4.037   8.247  0.0196  0.7201  0.7383
  733MOL0     H 1144   8.013   3.866   8.242  1.9481 -1.4078 -0.8602
  733MOL0     H 1145   8.017   3.987   8.126 -0.2548  0.0924  0.2104
  733MOL0     H 1146   8.070   4.166   8.302 -1.1904  0.5022 -3.4230
  733MOL0     H 1147   7.922   4.094   8.341 -0.2592 -0.1061 -2.6598
  733MOL0     H 1148   8.186   3.998   8.474  0.1373 -3.1462  0.3131
  733MOL0     H 1149   8.033   3.913   8.483 -0.9768  0.6708 -0.4764
  733MOL0     H 1150   7.962   4.239   8.731  1.6930  3.3131 -1.8572
  733MOL0     H 1151   8.299   3.688   8.270 -0.5210 -4.3164  1.2312
  733MOL0     H 1152   8.412   3.355   8.271 -0.8860 -0.6573  0.6242
  733MOL0     H 1153   8.375   3.496   8.369 -1.6799  1.1003  0.6077
  733MOL0     H 1154   8.245   3.434   8.274 -0.4828  1.4684 -1.6847
  734MOL0     O 1155   5.315   9.591   0.233  0.0203 -0.5019  0.1743
  734MOL0     C 1156   5.298   9.710   0.218 -0.2829  0.5321 -0.2185
  734MOL0     O 1157   5.329   9.804   0.310 -0.2508 -0.1485 -0.0312
  734MOL0     C 1158   5.385   9.759   0.433 -0.1018  0.6503 -0.0187
  734MOL0     C 1159   5.323   9.660   0.508 -0.3770  0.3390  0.1277
  734MOL0     C 1160   5.389   9.611   0.619  0.6919  0.1318 -0.5093
  734MOL0     C 1161   5.504   9.658   0.675  0.0505 -0.1376  0.3787
  734MOL0     O 1162   5.546   9.573   0.776 -0.2963  0.2522  0.5238
  734MOL0     C 1163   5.672   9.604   0.838 -0.7596 -1.4881 -0.9537
  734MOL0     C 1164   5.673   9.582   0.991 -0.2720  0.1688 -0.8976
  734MOL0     C 1165   5.813   9.569   1.041  0.2368 -0.0329 -0.0742
  734MOL0     C 1166   5.826   9.485   1.166 -0.2220  0.3177 -0.0080
  734MOL0     C 1167   5.770   9.564   1.288  0.1669  0.6018 -1.2890
  734MOL0     C 1168   5.740   9.468   1.412 -1.0788  0.9261  0.0037
  734MOL0     C 1169   5.863   9.402   1.478 -0.6672  0.7513 -0.1469
  734MOL0     C 1170   5.886   9.258   1.424  0.4576 -0.0258  0.1426
  734MOL0     N 1171   6.005   9.185   1.486  0.0488 -0.5767  0.5122
  734MOL0     C 1172   6.020   9.175   1.617  0.1531  0.6583  0.4858
  734MOL0     C 1173   6.143   9.109   1.620 -0.3745 -0.2226 -0.4517
  734MOL0     C 1174   6.217   9.058   1.744 -0.8411 -0.1853 -0.4415
  734MOL0     C 1175   6.213   8.902   1.766  0.2576  0.5580 -1.1485
  734MOL0     C 1176   6.263   8.813   1.652 -0.2258  0.0914  0.6731
  734MOL0     C 1177   6.297   8.670   1.699 -0.1577  0.0672 -0.8208
  734MOL0     O 1178   6.176   8.632   1.775  0.0684  0.8228  0.2805
  734MOL0     C 1179   6.195   8.532   1.865  1.0145  0.9944 -0.5582
  734MOL0     C 1180   6.229   8.410   1.815 -0.0804  0.2116 -0.1931
  734MOL0     C 1181   6.237   8.293   1.896 -0.6639  0.6126  0.4385
  734MOL0     C 1182   6.262   8.173   1.804 -1.3636  0.5322 -0.7393
  734MOL0     C 1183   6.181   8.299   2.026 -0.2065 -1.5238  0.5437
  734MOL0     C 1184   6.161   8.178   2.107  0.2141 -0.2094  0.2633
  734MOL0     O 1185   6.160   8.187   2.237 -0.2049 -0.4309 -0.0427
  734MOL0     C 1186   6.139   8.077   2.318 -1.2416  0.6813  0.6055
  734MOL0     C 1187   6.026   8.002   2.297 -0.3933 -0.4277  1.3004
  734MOL0     C 1188   5.999   7.900   2.379 -0.7278  0.4106 -0.3318
  734MOL0     C 1189   6.083   7.883   2.490  0.2278  0.5146 -0.6122
  734MOL0     O 1190   6.025   7.806   2.592 -0.2463  0.0898  0.2055
  734MOL0     C 1191   6.111   7.741   2.685  0.3994  0.6486 -1.2666
  734MOL0     C 1192   6.020   7.641   2.751 -1.2649 -0.0660 -0.5941
  734MOL0     C 1193   6.098   7.565   2.859  0.4970  0.3583 -1.4202
  734MOL0     C 1194   6.038   7.427   2.878 -1.0123  0.2572 -0.0740
  734MOL0     C 1195   6.133   7.349   2.974 -1.2617  0.0718  0.0025
  734MOL0     C 1196   6.145   7.401   3.115 -0.3665  0.2539 -0.2288
  734MOL0     C 1197   6.020   7.394   3.197  0.9507 -0.4209  0.9366
  734MOL0     C 1198   6.038   7.442   3.334  0.0846 -0.7384 -0.0227
  734MOL0    Cl 1199   5.898   7.429   3.436 -0.1483  0.0556 -0.3752
  734MOL0     C 1200   6.204   7.948   2.506 -0.6185 -0.0773  0.5213
  734MOL0     C 1201   6.233   8.055   2.427 -0.6253 -0.8210 -0.0838
  734MOL0     O 1202   6.155   8.071   2.047  0.1873  0.0691 -0.0683
  734MOL0     C 1203   6.152   8.427   2.080  0.1279  0.1088  1.0177
  734MOL0     C 1204   6.158   8.545   1.999  0.7748  0.7091 -1.3844
  734MOL0     N 1205   6.192   9.096   1.492  0.0131 -0.2933  0.1759
  734MOL0     N 1206   6.110   9.148   1.411 -0.9571  0.7608 -1.4144
  734MOL0     C 1207   5.554   9.768   0.602  0.0743  0.1390  0.0471
  734MOL0     C 1208   5.495   9.816   0.481 -0.2749 -0.1719 -1.2979
  734MOL0     C 1209   5.244   9.763   0.096 -0.1587  0.6416  0.4025
  734MOL0     C 1210   5.223   9.679  -0.015  1.1836  0.2203  0.4918
  734MOL0     C 1211   5.197   9.727  -0.142 -0.3222 -0.4109  0.2037
  734MOL0     C 1212   5.172   9.861  -0.169  0.0051 -0.0817  0.1687
  734MOL0     O 1213   5.114   9.917  -0.281 -0.0389  0.0387  0.6055
  734MOL0     C 1214   5.198   9.892  -0.397  0.5546  0.8993 -0.5076
  734MOL0     C 1215   5.302  10.006  -0.389  0.1527 -0.6478  0.8166
  734MOL0     C 1216   5.355  10.033  -0.532  0.1768 -0.0430 -0.7828
  734MOL0     C 1217   5.483  10.131  -0.528  0.6049  0.2553  0.0555
  734MOL0     C 1218   5.601  10.049  -0.499 -0.2769  0.2243 -0.4025
  734MOL0     C 1219   5.702   9.995  -0.460 -0.0743  0.1926  0.2198
  734MOL0     C 1220   5.185   9.946  -0.058  0.5691 -0.2312 -0.4711
  734MOL0     C 1221   5.209   9.899   0.072 -0.2934 -0.3035  0.5134
  734MOL0     C 1222   5.204  10.003   0.166  0.9148 -0.5280  0.1181
  734MOL0     H 1223   5.227   9.616   0.480 -0.0697  0.1804 -0.7166
  734MOL0     H 1224   5.351   9.520   0.663 -2.3584  2.3234  1.8592
  734MOL0     H 1225   5.715   9.704   0.822 -2.1474 -0.8538 -0.8459
  734MOL0     H 1226   5.751   9.541   0.796 -1.1902 -0.7183 -3.0098
  734MOL0     H 1227   5.628   9.672   1.034  1.0264  1.4540 -2.1277
  734MOL0     H 1228   5.627   9.485   1.013  1.0911 -0.1027  0.9846
  734MOL0     H 1229   5.879   9.532   0.963 -1.1216 -0.8915 -0.8578
  734MOL0     H 1230   5.832   9.675   1.062 -1.7663  0.7556 -1.9027
  734MOL0     H 1231   5.771   9.391   1.158  1.3921 -0.9324  2.5695
  734MOL0     H 1232   5.929   9.457   1.189 -1.4010 -1.8958  3.3661
  734MOL0     H 1233   5.678   9.619   1.266 -1.1975 -0.4509  1.2950
  734MOL0     H 1234   5.837   9.638   1.334 -0.0606 -2.6323  5.5139
  734MOL0     H 1235   5.695   9.523   1.495 -1.1759 -2.0052  2.0416
  734MOL0     H 1236   5.670   9.389   1.384 -2.8116  1.8600  1.4923
  734MOL0     H 1237   5.847   9.402   1.587 -2.0220  0.8201 -0.3247
  734MOL0     H 1238   5.955   9.459   1.467  1.9580 -2.1016  4.0836
  734MOL0     H 1239   5.795   9.199   1.439  1.5086 -2.0391 -0.9707
  734MOL0     H 1240   5.897   9.254   1.315 -1.1148 -4.3804 -0.0358
  734MOL0     H 1241   5.945   9.189   1.694 -1.5754  1.4264 -1.2399
  734MOL0     H 1242   6.166   9.107   1.828  0.9676 -3.1000  2.6054
  734MOL0     H 1243   6.320   9.095   1.750 -1.6976  2.4908 -0.6888
  734MOL0     H 1244   6.273   8.877   1.854  0.6630  3.4347 -0.5121
  734MOL0     H 1245   6.110   8.868   1.780  0.3699  0.8733  0.6591
  734MOL0     H 1246   6.196   8.812   1.565  1.4587 -2.6848 -0.7305
  734MOL0     H 1247   6.359   8.862   1.633 -0.5240  0.1408 -0.8595
  734MOL0     H 1248   6.327   8.606   1.616  1.0936  1.7112 -1.7133
  734MOL0     H 1249   6.381   8.669   1.768 -2.6088  2.6316  2.5969
  734MOL0     H 1250   6.264   8.397   1.713  2.3145  2.4923  0.2347
  734MOL0     H 1251   6.168   8.117   1.795 -2.0549  1.8757 -2.2901
  734MOL0     H 1252   6.342   8.109   1.842 -0.2366  0.6369 -2.7780
  734MOL0     H 1253   6.298   8.202   1.705  0.1097 -1.7319 -0.9510
  734MOL0     H 1254   5.962   8.026   2.213 -0.1902  4.4542  2.2217
  734MOL0     H 1255   5.911   7.838   2.363  1.1072 -1.9815 -1.7884
  734MOL0     H 1256   6.190   7.686   2.635 -0.2874  0.2715 -1.9687
  734MOL0     H 1257   6.150   7.808   2.762  3.9606 -0.3665 -2.0260
  734MOL0     H 1258   5.935   7.700   2.788 -0.8301 -0.1008  0.5147
  734MOL0     H 1259   5.977   7.564   2.686 -1.2255 -0.8561  0.2919
  734MOL0     H 1260   6.090   7.616   2.955  0.3656 -0.1776 -1.1435
  734MOL0     H 1261   6.202   7.545   2.832  1.2000 -0.1520  1.3900
  734MOL0     H 1262   6.039   7.375   2.782  2.1552 -1.5314  0.7841
  734MOL0     H 1263   5.936   7.419   2.918 -0.2973 -2.1406  1.4994
  734MOL0     H 1264   6.100   7.245   2.968 -0.1846 -0.2240 -1.4344
  734MOL0     H 1265   6.235   7.341   2.936 -0.6073  0.6144  1.5727
  734MOL0     H 1266   6.184   7.503   3.106  2.5358 -0.6137  1.0571
  734MOL0     H 1267   6.216   7.341   3.173 -1.0484 -0.8280 -0.4935
  734MOL0     H 1268   6.003   7.287   3.207  0.8673 -0.7863 -2.0960
  734MOL0     H 1269   5.936   7.446   3.149  1.0751 -0.0080  1.1604
  734MOL0     H 1270   6.055   7.551   3.340  0.3606 -0.7964  0.3176
  734MOL0     H 1271   6.116   7.386   3.386 -2.3823 -4.4738 -0.0441
  734MOL0     H 1272   6.254   7.943   2.603 -3.0331 -1.3684  1.8085
  734MOL0     H 1273   6.319   8.119   2.443 -0.2465 -0.7352 -2.1349
  734MOL0     H 1274   6.128   8.448   2.184 -0.2121  1.8196  0.6214
  734MOL0     H 1275   6.144   8.650   2.023 -1.8956  0.2277 -0.6314
  734MOL0     H 1276   5.646   9.822   0.622 -1.3511  2.1727  1.4576
  734MOL0     H 1277   5.558   9.892   0.435  1.5002  0.5114  1.9279
  734MOL0     H 1278   5.245   9.573  -0.018  6.9351  1.1144 -0.0561
  734MOL0     H 1279   5.184   9.655  -0.223  0.1464 -2.0155  1.5002
  734MOL0     H 1280   5.253   9.798  -0.387 -2.3333 -0.7823  1.0558
  734MOL0     H 1281   5.136   9.898  -0.487 -2.2242  2.4208  1.3532
  734MOL0     H 1282   5.382   9.985  -0.318  0.0081  1.3925  1.6437
  734MOL0     H 1283   5.253  10.101  -0.367  1.2104  1.3410 -4.0581
  734MOL0     H 1284   5.382   9.943  -0.588  2.4815  1.8143 -2.9457
  734MOL0     H 1285   5.266  10.076  -0.580 -0.8156 -2.2894 -1.0487
  734MOL0     H 1286   5.476  10.206  -0.449  0.1805 -0.5710  0.8133
  734MOL0     H 1287   5.498  10.185  -0.622  3.3024 -0.2284  0.1062
  734MOL0     H 1288   5.791   9.963  -0.410 -0.4415  0.5588  1.1226
  734MOL0     H 1289   5.183  10.052  -0.080  0.9215 -0.0485  0.3324
  734MOL0     H 1290   5.152  10.085   0.115 -2.3700 -2.8783 -0.6321
  734MOL0     H 1291   5.143   9.967   0.249  0.8761 -1.2145 -0.1977
  734MOL0     H 1292   5.299  10.035   0.210  1.6247  0.6556 -2.1163
  735MOL0     O 1293  10.532   6.651   9.295 -0.9247 -0.0515 -0.5388
  735MOL0     C 1294  10.451   6.728   9.343  0.6254  0.3723  0.3114
  735MOL0     O 1295  10.475   6.815   9.448  0.0219  0.0139  0.2687
  735MOL0     C 1296  10.586   6.799   9.519 -0.0402  0.1555  0.4631
  735MOL0     C 1297  10.624   6.688   9.587 -0.1659  0.6427 -0.6540
  735MOL0     C 1298  10.746   6.676   9.645 -0.7182  0.5974  0.8685
  735MOL0     C 1299  10.838   6.784   9.639 -0.0204  0.8670 -0.1314
  735MOL0     O 1300  10.970   6.785   9.685  0.5371 -0.4381  0.8019
  735MOL0     C 1301  11.001   6.766   9.822 -0.1223  0.1992  0.4859
  735MOL0     C 1302  11.146   6.813   9.834 -0.1023 -0.0051  0.2726
  735MOL0     C 1303  11.226   6.701   9.759  0.6377  0.1948  1.6683
  735MOL0     C 1304  11.370   6.721   9.789  0.2361 -0.1036  0.1930
  735MOL0     C 1305  11.412   6.696   9.932 -0.3555 -0.0005 -0.2353
  735MOL0     C 1306  11.565   6.679   9.949  0.9300  0.6744 -0.7712
  735MOL0     C 1307  11.639   6.799   9.904  0.0010  0.3725  0.0457
  735MOL0     C 1308  11.787   6.781   9.917  0.6449 -0.2906  0.2385
  735MOL0     N 1309  11.833   6.758  10.053  0.5656  0.0963 -0.8209
  735MOL0     C 1310  11.841   6.631  10.113  0.4163 -0.2600  0.7828
  735MOL0     C 1311  11.845   6.661  10.243 -0.2755  0.2328  0.3255
  735MOL0     C 1312  11.855   6.564  10.365 -0.9443  0.0802 -0.4997
  735MOL0     C 1313  11.724   6.572  10.443  0.6524 -0.2086  0.3522
  735MOL0     C 1314  11.728   6.494  10.566  0.1234  0.5639 -0.0451
  735MOL0     C 1315  11.606   6.405  10.574  0.4489 -2.2101 -0.2939
  735MOL0     O 1316  11.615   6.298  10.478 -0.5034 -0.3907  0.1250
  735MOL0     C 1317  11.508   6.209  10.472 -0.3417 -1.3391 -0.1825
  735MOL0     C 1318  11.504   6.108  10.563  1.1717 -0.7731 -0.4580
  735MOL0     C 1319  11.390   6.032  10.571  0.8136 -0.3205  0.5678
  735MOL0     C 1320  11.395   5.919  10.672 -0.5172 -0.9351  0.4291
  735MOL0     C 1321  11.271   6.061  10.492 -0.8199 -0.3793 -0.2799
  735MOL0     C 1322  11.142   5.983  10.491 -0.8046 -0.3762 -1.3238
  735MOL0     O 1323  11.033   6.044  10.453 -0.4109  0.2523 -0.3228
  735MOL0     C 1324  10.907   6.012  10.504  0.2486 -0.3462  0.0897
  735MOL0     C 1325  10.806   6.088  10.446  1.2222 -0.1727  0.6038
  735MOL0     C 1326  10.666   6.074  10.472  0.1862  0.3250 -1.1138
  735MOL0     C 1327  10.626   5.998  10.578  0.0174  0.5976  0.2923
  735MOL0     O 1328  10.495   5.993  10.612  0.6701  0.5340  0.0874
  735MOL0     C 1329  10.415   5.942  10.507 -0.2725  0.8257  0.0899
  735MOL0     C 1330  10.273   5.905  10.555 -0.0236 -0.2615  0.5846
  735MOL0     C 1331  10.187   5.861  10.439 -0.5402  0.4292 -0.2339
  735MOL0     C 1332  10.042   5.898  10.437  0.5877 -0.1650 -0.1337
  735MOL0     C 1333   9.974   5.836  10.316 -0.5695  0.3324  0.3534
  735MOL0     C 1334   9.827   5.833  10.301  0.3610 -0.2091 -0.1530
  735MOL0     C 1335   9.755   5.949  10.366 -0.3182  0.5248 -0.3048
  735MOL0     C 1336   9.603   5.917  10.369  0.4983  0.2154 -0.0070
  735MOL0    Cl 1337   9.558   5.885  10.199  0.1463  0.2169 -0.1700
  735MOL0     C 1338  10.725   5.911  10.634  1.0449 -0.7560  0.5361
  735MOL0     C 1339  10.857   5.919  10.602  0.1150 -0.7661  0.3405
  735MOL0     O 1340  11.143   5.864  10.531 -0.6190  0.3410 -0.6036
  735MOL0     C 1341  11.284   6.170  10.402  0.7517  0.2375 -0.2295
  735MOL0     C 1342  11.403   6.248  10.391  0.4121 -0.3262 -0.7601
  735MOL0     N 1343  11.849   6.798  10.265 -0.1688  0.3064  0.3868
  735MOL0     N 1344  11.847   6.848  10.153  0.4667 -0.4745 -0.1368
  735MOL0     C 1345  10.804   6.896   9.564 -0.3413  0.2365  0.3093
  735MOL0     C 1346  10.676   6.906   9.507 -0.3073 -0.0187 -0.3516
  735MOL0     C 1347  10.316   6.733   9.276 -0.6888  1.2739 -0.5828
  735MOL0     C 1348  10.292   6.644   9.173  0.2486 -0.0377  0.6147
  735MOL0     C 1349  10.173   6.646   9.097  0.3175  0.3065  0.1681
  735MOL0     C 1350  10.060   6.719   9.147  0.6841 -0.7341  0.5947
  735MOL0     O 1351   9.931   6.714   9.098  0.7818  0.1869 -0.2572
  735MOL0     C 1352   9.913   6.613   8.995  0.4074  0.0843 -0.3056
  735MOL0     C 1353   9.761   6.597   8.959  0.1726  0.0777 -0.1086
  735MOL0     C 1354   9.714   6.728   8.904  1.5356 -0.1116 -0.3061
  735MOL0     C 1355   9.561   6.739   8.886  0.3957 -0.1428  0.3977
  735MOL0     C 1356   9.505   6.603   8.840 -0.4453 -0.8198 -0.8033
  735MOL0     C 1357   9.454   6.503   8.791  0.3833  0.1106 -0.1520
  735MOL0     C 1358  10.079   6.801   9.252 -0.2177 -1.1264 -0.4282
  735MOL0     C 1359  10.202   6.812   9.313 -0.3433 -0.2405 -0.5511
  735MOL0     C 1360  10.192   6.898   9.434  0.3426 -0.5603  0.7981
  735MOL0     H 1361  10.553   6.607   9.597  1.8838 -1.6577 -3.1083
  735MOL0     H 1362  10.775   6.586   9.698  0.9749  2.2627  2.9563
  735MOL0     H 1363  10.992   6.661   9.853  1.4629 -0.7499 -1.9186
  735MOL0     H 1364  10.932   6.815   9.891 -0.9750 -2.8718  1.9953
  735MOL0     H 1365  11.159   6.914   9.794  0.7876 -0.3993 -0.4590
  735MOL0     H 1366  11.178   6.826   9.938  3.9136  0.8113 -0.8843
  735MOL0     H 1367  11.195   6.602   9.794 -0.4039  0.9116  2.8572
  735MOL0     H 1368  11.213   6.707   9.650  1.0769 -1.7204  1.4693
  735MOL0     H 1369  11.422   6.654   9.720  0.3500  0.6296 -0.4505
  735MOL0     H 1370  11.403   6.817   9.748 -0.9446 -0.3816 -1.5155
  735MOL0     H 1371  11.360   6.605   9.965 -0.4006 -1.6746 -4.3303
  735MOL0     H 1372  11.383   6.786   9.987 -2.3562  0.3689 -1.7868
  735MOL0     H 1373  11.583   6.664  10.056 -1.0204 -1.1772 -0.6330
  735MOL0     H 1374  11.601   6.584   9.908  1.3706 -0.6101  2.3259
  735MOL0     H 1375  11.613   6.882   9.971  1.1347  2.1653 -1.6473
  735MOL0     H 1376  11.609   6.823   9.802  0.6015 -0.0073 -0.2248
  735MOL0     H 1377  11.824   6.703   9.850  1.1626 -0.2920  0.5269
  735MOL0     H 1378  11.835   6.873   9.881  1.2519 -1.3551 -1.8466
  735MOL0     H 1379  11.843   6.533  10.066 -2.3250 -0.4275  0.8273
  735MOL0     H 1380  11.925   6.601  10.441 -0.4954 -1.1613 -0.2894
  735MOL0     H 1381  11.886   6.465  10.331  2.6943  1.0419 -0.3837
  735MOL0     H 1382  11.703   6.674  10.475  3.2112  0.4526  0.1451
  735MOL0     H 1383  11.636   6.552  10.382  1.2028  2.0980 -1.3379
  735MOL0     H 1384  11.824   6.442  10.572  0.9266  1.9298 -0.6248
  735MOL0     H 1385  11.737   6.556  10.656  1.1984 -1.3338  1.2328
  735MOL0     H 1386  11.588   6.360  10.673 -2.0309  2.1399  1.5270
  735MOL0     H 1387  11.511   6.454  10.550  1.8957  1.3234  0.6657
  735MOL0     H 1388  11.589   6.081  10.624  1.5783  1.5126  0.0808
  735MOL0     H 1389  11.482   5.931  10.737 -1.3358  1.3419  1.2085
  735MOL0     H 1390  11.403   5.825  10.616 -0.8594 -0.1853 -0.9104
  735MOL0     H 1391  11.309   5.926  10.740  1.6964  2.2992  3.1855
  735MOL0     H 1392  10.828   6.163  10.371 -3.0131  0.8501  0.0923
  735MOL0     H 1393  10.589   6.128  10.417  0.6994  0.7458 -1.4298
  735MOL0     H 1394  10.403   6.026  10.438  2.3986  1.4491  0.2803
  735MOL0     H 1395  10.455   5.853  10.457  1.7070  2.6001 -1.6747
  735MOL0     H 1396  10.273   5.836  10.640 -0.0949 -2.4411 -1.0742
  735MOL0     H 1397  10.216   5.989  10.595 -1.8098  0.3918 -2.9498
  735MOL0     H 1398  10.199   5.752  10.436  1.9476  0.6261  0.6559
  735MOL0     H 1399  10.246   5.890  10.351 -0.8981 -0.8469 -0.9242
  735MOL0     H 1400  10.020   6.005  10.444 -0.4644 -0.3348 -0.5271
  735MOL0     H 1401  10.000   5.860  10.531  2.2021  1.7846  1.4535
  735MOL0     H 1402  10.013   5.882  10.225 -1.7952 -0.3498 -0.5498
  735MOL0     H 1403  10.001   5.730  10.307 -3.0089 -0.2479 -1.1067
  735MOL0     H 1404   9.795   5.740  10.349  0.3805  0.2388  0.7355
  735MOL0     H 1405   9.817   5.822  10.192 -2.0470  2.7598 -0.3381
  735MOL0     H 1406   9.790   6.045  10.328  2.7520 -0.6705 -0.8209
  735MOL0     H 1407   9.778   5.964  10.472  0.6208  0.0045 -0.4176
  735MOL0     H 1408   9.540   5.993  10.416 -2.2043 -0.3165 -2.4905
  735MOL0     H 1409   9.585   5.825  10.425  2.4183  0.3257  0.8831
  735MOL0     H 1410  10.692   5.841  10.709 -1.1131 -0.3635  0.0374
  735MOL0     H 1411  10.925   5.852  10.654  1.9024 -0.1337 -1.0627
  735MOL0     H 1412  11.206   6.195  10.331  1.2194 -2.4070 -1.8175
  735MOL0     H 1413  11.395   6.317  10.308 -3.5171  0.1435 -0.2206
  735MOL0     H 1414  10.877   6.974   9.544  3.0106 -1.9290  2.9306
  735MOL0     H 1415  10.667   6.988   9.437  0.1568 -0.2515 -0.6940
  735MOL0     H 1416  10.360   6.571   9.131  0.2159  1.3143 -2.0258
  735MOL0     H 1417  10.182   6.586   9.007  0.1774  0.9819 -0.2997
  735MOL0     H 1418   9.966   6.641   8.904 -3.5455  2.4910 -2.1542
  735MOL0     H 1419   9.953   6.523   9.042 -0.3101  0.5333  1.2378
  735MOL0     H 1420   9.689   6.570   9.037 -1.9571 -0.2522 -2.0620
  735MOL0     H 1421   9.750   6.522   8.880 -1.3423 -0.2045  0.3327
  735MOL0     H 1422   9.745   6.817   8.959 -2.3337  1.4437 -0.3112
  735MOL0     H 1423   9.748   6.741   8.801 -2.9589  0.3430 -1.9443
  735MOL0     H 1424   9.534   6.810   8.808  3.3491 -1.7207 -2.2734
  735MOL0     H 1425   9.499   6.773   8.970 -0.8112 -1.1314 -0.0473
  735MOL0     H 1426   9.422   6.407   8.758 -0.2631  0.1019  0.4664
  735MOL0     H 1427   9.992   6.864   9.271  0.3614 -0.6132  0.6690
  735MOL0     H 1428  10.238   6.992   9.406 -2.7134  0.1548 -2.7587
  735MOL0     H 1429  10.089   6.927   9.460  1.0006  0.8126  1.9608
  735MOL0     H 1430  10.240   6.859   9.524  2.5584  3.8590  1.7961
  736MOL0     O 1431   7.780   8.820   3.910 -0.1635  0.3064  0.0474
  736MOL0     C 1432   7.725   8.842   3.802  0.0567  0.3344 -0.2113
  736MOL0     O 1433   7.743   8.770   3.690  0.9266 -0.0813 -0.0446
  736MOL0     C 1434   7.852   8.686   3.693  0.1861 -0.3416 -0.2570
  736MOL0     C 1435   7.835   8.550   3.691 -0.3393 -0.0413  0.1357
  736MOL0     C 1436   7.952   8.474   3.714 -0.1355 -0.4510  1.5122
  736MOL0     C 1437   8.086   8.531   3.716 -0.0797  0.5076  0.3787
  736MOL0     O 1438   8.180   8.430   3.752  0.4146 -0.8461 -0.1112
  736MOL0     C 1439   8.307   8.486   3.789  0.3382  0.0526  0.6172
  736MOL0     C 1440   8.370   8.373   3.881  0.4956  0.1653 -0.2418
  736MOL0     C 1441   8.390   8.239   3.813  1.2143 -0.1206 -0.0477
  736MOL0     C 1442   8.460   8.240   3.681  0.4939 -0.0608  0.2378
  736MOL0     C 1443   8.456   8.102   3.608 -0.5020  0.2622 -0.1833
  736MOL0     C 1444   8.567   8.018   3.673 -0.4708  0.3026 -0.4106
  736MOL0     C 1445   8.614   7.908   3.592  0.3573  0.9728  1.1975
  736MOL0     C 1446   8.512   7.790   3.597  0.5922 -0.1454  0.3872
  736MOL0     N 1447   8.555   7.673   3.523  0.5199  0.2661 -0.0490
  736MOL0     C 1448   8.654   7.581   3.568 -0.3519 -0.0035 -0.2381
  736MOL0     C 1449   8.663   7.498   3.460  0.1737  0.8165 -1.0009
  736MOL0     C 1450   8.764   7.390   3.460  0.2288  0.0152  0.3451
  736MOL0     C 1451   8.745   7.296   3.574 -0.3179  0.7986  0.0684
  736MOL0     C 1452   8.859   7.187   3.563 -0.2364 -0.0305  0.1327
  736MOL0     C 1453   8.843   7.073   3.459  0.1618 -0.3798  0.4421
  736MOL0     O 1454   8.723   7.000   3.484  0.2662  0.0888  0.6397
  736MOL0     C 1455   8.712   6.873   3.424 -0.6584 -0.5823  0.1814
  736MOL0     C 1456   8.772   6.841   3.303 -0.8473 -0.9390  0.6257
  736MOL0     C 1457   8.781   6.706   3.255 -0.4889 -0.0845 -0.2153
  736MOL0     C 1458   8.867   6.678   3.131  0.1708 -0.0005 -0.0940
  736MOL0     C 1459   8.717   6.602   3.328 -0.0731  0.7674 -0.0496
  736MOL0     C 1460   8.729   6.454   3.286  0.2055 -0.7688  0.1891
  736MOL0     O 1461   8.616   6.384   3.310  0.2881 -0.4089  0.9482
  736MOL0     C 1462   8.605   6.285   3.218 -0.8335  0.7731 -1.2301
  736MOL0     C 1463   8.588   6.152   3.270  0.3540  0.0095  0.4064
  736MOL0     C 1464   8.556   6.050   3.182 -0.1266 -0.5217 -0.0821
  736MOL0     C 1465   8.559   6.079   3.042  0.0843 -0.0349  0.0311
  736MOL0     O 1466   8.549   5.963   2.976 -0.5098  0.1735  0.7362
  736MOL0     C 1467   8.572   5.961   2.834  0.8500 -0.6629 -1.2089
  736MOL0     C 1468   8.575   5.831   2.772  0.3463  0.7397 -0.1996
  736MOL0     C 1469   8.708   5.762   2.815  0.4413 -0.6615 -1.3424
  736MOL0     C 1470   8.717   5.619   2.755  0.3905 -0.5277  0.0174
  736MOL0     C 1471   8.856   5.549   2.747 -0.8605  0.0607 -0.1027
  736MOL0     C 1472   8.845   5.401   2.703 -0.0325 -0.3955 -0.2461
  736MOL0     C 1473   8.979   5.358   2.642 -0.2709  0.2290  0.5134
  736MOL0     C 1474   8.991   5.218   2.585 -0.6909 -0.7181  0.0415
  736MOL0    Cl 1475   9.168   5.207   2.527 -0.3475 -0.0611  0.5826
  736MOL0     C 1476   8.575   6.208   2.989 -0.4264  0.1325 -0.3064
  736MOL0     C 1477   8.599   6.314   3.083 -0.5926  0.2544  0.3778
  736MOL0     O 1478   8.834   6.408   3.238  0.5640  0.1965  0.1581
  736MOL0     C 1479   8.649   6.640   3.438  0.4421 -0.4393 -0.6013
  736MOL0     C 1480   8.651   6.767   3.499 -0.2918  0.3681 -0.0956
  736MOL0     N 1481   8.581   7.537   3.357 -0.1805  0.6363 -0.7376
  736MOL0     N 1482   8.507   7.633   3.402 -0.1843 -0.0957  0.0810
  736MOL0     C 1483   8.103   8.668   3.694  0.0387  0.1411  0.8968
  736MOL0     C 1484   7.985   8.745   3.682 -0.7676 -0.0209  0.0229
  736MOL0     C 1485   7.650   8.973   3.783  0.2232  0.0409 -1.8022
  736MOL0     C 1486   7.651   9.031   3.654  0.7875  0.0780 -0.1387
  736MOL0     C 1487   7.570   9.146   3.636 -1.0404  1.2645  0.0252
  736MOL0     C 1488   7.496   9.204   3.744 -0.4217 -0.6819  0.4232
  736MOL0     O 1489   7.417   9.306   3.733  0.8282 -1.0504  0.1322
  736MOL0     C 1490   7.388   9.346   3.604  0.1652  0.2578  0.3818
  736MOL0     C 1491   7.289   9.458   3.592 -0.6846 -0.5406  1.3103
  736MOL0     C 1492   7.342   9.589   3.665  0.0121  0.3912 -0.4947
  736MOL0     C 1493   7.218   9.656   3.728 -0.2916 -0.2561 -0.2379
  736MOL0     C 1494   7.253   9.775   3.812  0.4961 -0.5327  0.1855
  736MOL0     C 1495   7.290   9.872   3.874  0.4748 -0.4261  0.2357
  736MOL0     C 1496   7.506   9.160   3.873  0.2483 -0.4642  0.5930
  736MOL0     C 1497   7.583   9.041   3.891 -0.3668  0.5596  0.1795
  736MOL0     C 1498   7.577   8.976   4.027 -0.8965  0.4301  1.3140
  736MOL0     H 1499   7.737   8.509   3.674 -0.4703  0.7212 -1.0254
  736MOL0     H 1500   7.932   8.368   3.719 -0.8095 -0.4708 -0.7044
  736MOL0     H 1501   8.304   8.573   3.855 -0.7870  2.5471 -2.4514
  736MOL0     H 1502   8.372   8.509   3.705 -2.9544  2.0888 -1.6160
  736MOL0     H 1503   8.463   8.406   3.928 -0.0913 -1.1539  1.9600
  736MOL0     H 1504   8.286   8.368   3.951 -1.3881 -2.9593 -2.4847
  736MOL0     H 1505   8.443   8.176   3.885  2.7113  4.6296  3.5547
  736MOL0     H 1506   8.290   8.208   3.781  1.3570  0.9993 -1.6531
  736MOL0     H 1507   8.407   8.308   3.614 -1.3252  0.3580  2.0055
  736MOL0     H 1508   8.563   8.278   3.685  0.4037  1.7050 -5.5539
  736MOL0     H 1509   8.482   8.127   3.504  2.6772  2.6740  1.0452
  736MOL0     H 1510   8.354   8.061   3.611 -1.2940  2.2050  2.2609
  736MOL0     H 1511   8.654   8.072   3.713  0.6770 -0.3072 -2.0088
  736MOL0     H 1512   8.518   7.982   3.765  1.0348  2.6556  1.4418
  736MOL0     H 1513   8.708   7.863   3.625 -0.8056 -3.8887 -1.2036
  736MOL0     H 1514   8.628   7.929   3.485 -1.1652 -1.9962  0.3015
  736MOL0     H 1515   8.506   7.752   3.699  2.4763 -0.1737  0.5184
  736MOL0     H 1516   8.416   7.823   3.556  1.0132  1.7027  0.7674
  736MOL0     H 1517   8.717   7.577   3.656  0.8949 -0.0611 -1.0901
  736MOL0     H 1518   8.863   7.436   3.468 -0.2304  0.7674  2.8717
  736MOL0     H 1519   8.757   7.344   3.361  1.0409  1.0294 -0.2004
  736MOL0     H 1520   8.760   7.352   3.667 -0.9670 -2.7486  2.5415
  736MOL0     H 1521   8.646   7.250   3.579  1.7037 -4.0288  2.5454
  736MOL0     H 1522   8.958   7.225   3.540  0.5533 -2.8953 -1.7569
  736MOL0     H 1523   8.860   7.138   3.661 -0.5942 -0.1718  0.0692
  736MOL0     H 1524   8.831   7.118   3.360  3.0018 -4.4523 -2.0592
  736MOL0     H 1525   8.939   7.023   3.443  0.5022  0.9456 -2.0366
  736MOL0     H 1526   8.819   6.922   3.248  1.0969 -1.2469  1.7543
  736MOL0     H 1527   8.964   6.638   3.164  0.1584  1.9100  2.5506
  736MOL0     H 1528   8.889   6.769   3.075  3.6608 -0.9349 -0.5033
  736MOL0     H 1529   8.819   6.602   3.068 -0.3961 -0.9063  1.3686
  736MOL0     H 1530   8.595   6.151   3.378  0.9651 -0.1083  0.3659
  736MOL0     H 1531   8.550   5.947   3.213  4.2120 -0.9918 -0.2424
  736MOL0     H 1532   8.487   6.011   2.786  0.1657 -0.7178 -0.0762
  736MOL0     H 1533   8.659   6.025   2.815 -0.0421  1.3309  0.9769
  736MOL0     H 1534   8.492   5.767   2.803  0.8989  0.7158  1.3148
  736MOL0     H 1535   8.558   5.851   2.665 -2.1075  0.1861  0.0230
  736MOL0     H 1536   8.701   5.758   2.924  1.0989 -2.2206 -1.3379
  736MOL0     H 1537   8.800   5.815   2.792  0.7722  0.0933  1.3590
  736MOL0     H 1538   8.675   5.630   2.655 -0.3477 -0.6617  0.3064
  736MOL0     H 1539   8.646   5.560   2.813 -3.6379  0.9704 -2.9364
  736MOL0     H 1540   8.912   5.599   2.668  1.7790 -1.4422  0.6811
  736MOL0     H 1541   8.909   5.565   2.842 -0.2742  0.6471 -0.5140
  736MOL0     H 1542   8.772   5.378   2.625 -1.7049 -2.2424  1.7359
  736MOL0     H 1543   8.826   5.332   2.786 -0.6932 -0.9218 -0.8220
  736MOL0     H 1544   9.066   5.380   2.706  0.0268 -0.7571  0.4747
  736MOL0     H 1545   8.993   5.422   2.555 -0.8751 -1.5869 -0.9818
  736MOL0     H 1546   8.918   5.192   2.508 -0.4938 -2.8633  0.5210
  736MOL0     H 1547   8.966   5.150   2.667 -3.5983 -0.0219 -0.1678
  736MOL0     H 1548   8.571   6.241   2.886  2.3366 -2.5245 -1.4378
  736MOL0     H 1549   8.616   6.417   3.052  1.3152  0.3653  1.6479
  736MOL0     H 1550   8.601   6.567   3.502 -0.1774  1.9823  1.8968
  736MOL0     H 1551   8.619   6.787   3.600  3.6659 -2.5152  2.0181
  736MOL0     H 1552   8.202   8.709   3.712  0.6605 -1.5426  1.4258
  736MOL0     H 1553   7.991   8.853   3.684  0.0834 -0.0469 -0.5740
  736MOL0     H 1554   7.711   8.995   3.572 -1.2444  1.3225 -2.3139
  736MOL0     H 1555   7.568   9.153   3.527 -0.7640 -2.4415 -0.3668
  736MOL0     H 1556   7.482   9.390   3.569  0.1230 -0.0328 -0.1019
  736MOL0     H 1557   7.353   9.267   3.536  2.1260  0.0734 -0.4969
  736MOL0     H 1558   7.190   9.419   3.616 -0.2827 -3.8508 -1.4815
  736MOL0     H 1559   7.285   9.488   3.487  0.7121  0.0091  1.3931
  736MOL0     H 1560   7.406   9.545   3.742  0.1209 -1.4961 -1.6117
  736MOL0     H 1561   7.406   9.652   3.602  1.0711 -1.9848 -1.9490
  736MOL0     H 1562   7.159   9.585   3.787 -1.7575 -0.1533 -1.5322
  736MOL0     H 1563   7.145   9.680   3.650 -2.5065 -1.0117  1.5063
  736MOL0     H 1564   7.298   9.963   3.929 -1.2528 -0.3747  0.4459
  736MOL0     H 1565   7.439   9.191   3.952  0.3976 -0.4402  0.7101
  736MOL0     H 1566   7.548   8.871   4.027  3.2963 -0.8900  0.6808
  736MOL0     H 1567   7.675   8.955   4.069 -0.2782 -2.4588 -1.1803
  736MOL0     H 1568   7.518   9.037   4.096 -1.5185  1.1146  0.2209
  737MOL0     O 1569   5.109   8.876  11.462 -0.4255 -0.2773  0.6195
  737MOL0     C 1570   5.040   8.777  11.498  0.5880 -0.3358 -0.3140
  737MOL0     O 1571   4.939   8.721  11.428  0.0554 -0.3876  0.1664
  737MOL0     C 1572   4.896   8.762  11.302 -0.3442 -0.3539  0.0844
  737MOL0     C 1573   4.827   8.664  11.237 -0.1777  0.1545 -0.0166
  737MOL0     C 1574   4.786   8.680  11.102  0.6166 -0.4349 -0.1553
  737MOL0     C 1575   4.834   8.786  11.026  0.5452 -1.1861 -0.1814
  737MOL0     O 1576   4.822   8.784  10.887 -0.1987  1.1684 -0.3995
  737MOL0     C 1577   4.887   8.668  10.830 -0.0175  0.7015  0.0112
  737MOL0     C 1578   4.808   8.649  10.696  0.0219  0.9335 -0.0459
  737MOL0     C 1579   4.674   8.575  10.715  0.3011 -0.7384 -0.0954
  737MOL0     C 1580   4.618   8.557  10.572 -0.4524  0.1834  0.2407
  737MOL0     C 1581   4.477   8.497  10.586 -0.4037  0.4023 -0.5851
  737MOL0     C 1582   4.442   8.451  10.445 -0.0890  0.8637  0.3565
  737MOL0     C 1583   4.293   8.414  10.433 -0.2569 -0.5218  0.1285
  737MOL0     C 1584   4.262   8.391  10.276  0.1765  0.1159  0.2727
  737MOL0     N 1585   4.277   8.507  10.187 -1.3634 -1.1767 -0.4250
  737MOL0     C 1586   4.225   8.636  10.216 -0.1170  0.6157 -0.4428
  737MOL0     C 1587   4.274   8.718  10.118 -0.1302  0.0254  0.2404
  737MOL0     C 1588   4.238   8.868  10.108 -0.5047 -0.0284  0.3916
  737MOL0     C 1589   4.145   8.898   9.991  0.6621 -0.4367 -0.9204
  737MOL0     C 1590   4.108   9.048   9.970  0.0438 -0.0584  0.0941
  737MOL0     C 1591   4.216   9.151   9.979  1.1488  0.0249  0.3635
  737MOL0     O 1592   4.233   9.185  10.116 -0.5420 -0.5303 -0.6145
  737MOL0     C 1593   4.349   9.253  10.160  1.7521  0.3003  0.2201
  737MOL0     C 1594   4.335   9.337  10.266 -0.6538 -0.5295 -0.3591
  737MOL0     C 1595   4.434   9.426  10.315  0.4309 -0.0881 -0.4173
  737MOL0     C 1596   4.397   9.516  10.432 -0.8089  0.3489 -0.5448
  737MOL0     C 1597   4.563   9.423  10.240 -0.2130  0.4212 -2.0149
  737MOL0     C 1598   4.687   9.499  10.291  0.8908 -0.1712 -0.7614
  737MOL0     O 1599   4.798   9.460  10.224 -0.8086 -0.3751  0.6355
  737MOL0     C 1600   4.925   9.522  10.235 -0.5084 -0.0865 -0.7849
  737MOL0     C 1601   4.936   9.656  10.280  0.0558 -0.5152 -0.1857
  737MOL0     C 1602   5.073   9.705  10.299  0.6546  1.0135 -0.8470
  737MOL0     C 1603   5.182   9.624  10.270 -0.5006 -0.6795 -0.0900
  737MOL0     O 1604   5.318   9.670  10.297 -0.2181  0.0900  0.4945
  737MOL0     C 1605   5.325   9.793  10.369 -0.3117  1.2740  0.2401
  737MOL0     C 1606   5.466   9.804  10.424 -0.8849 -1.0909  0.3442
  737MOL0     C 1607   5.515   9.946  10.456 -0.4252  0.5856 -0.4191
  737MOL0     C 1608   5.644   9.940  10.531 -0.7857  0.8159 -0.3885
  737MOL0     C 1609   5.704  10.075  10.567 -0.8221  0.5112  0.4453
  737MOL0     C 1610   5.802  10.058  10.693  0.0166  0.3899  0.9653
  737MOL0     C 1611   5.842  10.196  10.738 -0.4272  0.3624 -0.5978
  737MOL0     C 1612   5.988  10.204  10.774  0.7245  0.6225  0.1951
  737MOL0    Cl 1613   6.047  10.092  10.902 -0.0739  0.2116  0.3208
  737MOL0     C 1614   5.159   9.498  10.215 -0.1595 -0.7380 -0.4142
  737MOL0     C 1615   5.035   9.442  10.200  0.4191  0.3302 -0.6061
  737MOL0     O 1616   4.677   9.596  10.370  0.5387  0.2004  0.3258
  737MOL0     C 1617   4.581   9.334  10.138  1.0595  0.3892  1.0350
  737MOL0     C 1618   4.475   9.239  10.099 -0.7827 -0.5611  0.4879
  737MOL0     N 1619   4.362   8.637  10.046  0.0651 -0.4372 -0.2121
  737MOL0     N 1620   4.358   8.517  10.083 -0.6947 -0.9966 -0.5218
  737MOL0     C 1621   4.906   8.888  11.082 -0.5120 -0.8779 -0.9629
  737MOL0     C 1622   4.942   8.879  11.222 -0.2091  0.1991 -0.0297
  737MOL0     C 1623   5.066   8.717  11.628 -0.8237 -0.3598 -0.7234
  737MOL0     C 1624   4.965   8.635  11.684 -0.9461 -0.3857 -0.4659
  737MOL0     C 1625   4.970   8.584  11.811 -0.4174  0.5865  0.1096
  737MOL0     C 1626   5.076   8.617  11.882  0.4761 -0.7490  0.2519
  737MOL0     O 1627   5.082   8.566  12.010 -0.0540  0.3855 -0.3133
  737MOL0     C 1628   5.129   8.430  11.999  0.2361  0.7004  0.4807
  737MOL0     C 1629   5.019   8.335  12.036 -0.0245  0.3031  0.4797
  737MOL0     C 1630   5.064   8.189  12.073 -0.4509  0.1568  0.3471
  737MOL0     C 1631   4.947   8.091  12.108 -0.7660 -0.1726  0.2480
  737MOL0     C 1632   4.998   7.964  12.151 -0.7701 -0.2707  0.1459
  737MOL0     C 1633   5.040   7.853  12.181 -0.2487 -1.0333  0.0065
  737MOL0     C 1634   5.184   8.699  11.834  0.2860 -0.0467 -0.0384
  737MOL0     C 1635   5.179   8.752  11.707 -0.4864 -0.0838  0.0711
  737MOL0     C 1636   5.288   8.852  11.660  0.3079  0.8779  0.1047
  737MOL0     H 1637   4.805   8.575  11.295  0.7418 -1.0382 -1.4289
  737MOL0     H 1638   4.728   8.599  11.057 -1.6682  2.1793 -2.2912
  737MOL0     H 1639   4.885   8.577  10.891 -2.4259 -0.6140 -1.8628
  737MOL0     H 1640   4.990   8.697  10.808  0.6433 -0.2376  1.7055
  737MOL0     H 1641   4.797   8.751  10.658 -0.4166  0.8215 -0.2286
  737MOL0     H 1642   4.866   8.590  10.624 -1.8229 -2.5458  1.0747
  737MOL0     H 1643   4.684   8.480  10.769 -2.8497  0.4557  3.0078
  737MOL0     H 1644   4.602   8.641  10.763  1.5086  1.7279 -1.5218
  737MOL0     H 1645   4.621   8.654  10.523 -1.5095  0.2053  0.1914
  737MOL0     H 1646   4.686   8.491  10.516 -1.5202  0.5443 -1.5590
  737MOL0     H 1647   4.415   8.583  10.610  0.4198  0.9158 -0.2472
  737MOL0     H 1648   4.459   8.412  10.653 -3.3020  0.5881 -0.9976
  737MOL0     H 1649   4.469   8.532  10.377  3.5476  0.7943  1.5035
  737MOL0     H 1650   4.504   8.363  10.432  0.8848  1.0825  2.8586
  737MOL0     H 1651   4.221   8.481  10.482 -1.5636 -2.4775  1.0536
  737MOL0     H 1652   4.295   8.324  10.496  0.5653 -0.2718  0.4666
  737MOL0     H 1653   4.320   8.306  10.239  0.4429  0.7233 -0.7274
  737MOL0     H 1654   4.159   8.356  10.263 -0.7355  2.9681 -1.1341
  737MOL0     H 1655   4.153   8.668  10.291 -1.2416 -3.3644  0.4097
  737MOL0     H 1656   4.333   8.921  10.091 -0.7573 -0.0185 -1.0465
  737MOL0     H 1657   4.198   8.896  10.206 -3.2028 -0.2569 -0.5693
  737MOL0     H 1658   4.191   8.865   9.898  0.9738 -1.1283 -0.5310
  737MOL0     H 1659   4.047   8.856  10.014 -1.0783  4.0930  1.2350
  737MOL0     H 1660   4.072   9.055   9.867 -0.3163  0.8579  0.2717
  737MOL0     H 1661   4.022   9.073  10.033 -0.7257 -1.2066 -0.4614
  737MOL0     H 1662   4.307   9.110   9.933  0.7647 -0.1191 -0.2793
  737MOL0     H 1663   4.190   9.245   9.930  0.2323 -0.7328 -0.6682
  737MOL0     H 1664   4.238   9.351  10.312  1.0948  1.7139  3.1279
  737MOL0     H 1665   4.293   9.513  10.465  0.2174 -0.8292  3.0147
  737MOL0     H 1666   4.420   9.621  10.408  0.8834  0.3355  0.7907
  737MOL0     H 1667   4.465   9.493  10.515  0.2099  1.4376 -1.0514
  737MOL0     H 1668   4.846   9.717  10.290 -0.5292 -1.6930  4.1279
  737MOL0     H 1669   5.081   9.809  10.332 -0.1404  0.3769  1.5581
  737MOL0     H 1670   5.309   9.875  10.299 -0.3913  1.1425  0.1042
  737MOL0     H 1671   5.252   9.801  10.451 -1.8469  1.1058 -1.0623
  737MOL0     H 1672   5.477   9.740  10.512 -1.3845  1.2416  2.2176
  737MOL0     H 1673   5.541   9.768  10.353 -0.0854 -1.0372  1.1384
  737MOL0     H 1674   5.434   9.986  10.517 -1.3631 -2.0725  0.2252
  737MOL0     H 1675   5.529  10.004  10.364  6.0980  0.5125  0.0540
  737MOL0     H 1676   5.718   9.869  10.493 -1.1818 -0.1412  0.5938
  737MOL0     H 1677   5.612   9.887  10.621 -3.2729  0.0110 -1.6513
  737MOL0     H 1678   5.742  10.119  10.475 -1.0794  0.4622  0.3161
  737MOL0     H 1679   5.639  10.156  10.603 -2.0634 -0.4138  0.3186
  737MOL0     H 1680   5.884  10.001  10.647 -0.2061  1.3885 -0.7782
  737MOL0     H 1681   5.762   9.991  10.769  0.4851 -1.7628 -0.5682
  737MOL0     H 1682   5.785  10.223  10.827  0.3248 -3.2960  1.2002
  737MOL0     H 1683   5.823  10.264  10.655 -0.0177 -0.9245 -1.7782
  737MOL0     H 1684   6.005  10.299  10.826  0.5763 -0.2253  1.8702
  737MOL0     H 1685   6.059  10.187  10.692  1.9029  3.2804  0.5329
  737MOL0     H 1686   5.253   9.457  10.178  0.5742  3.1947 -3.5740
  737MOL0     H 1687   5.025   9.339  10.166  1.3212  0.6619 -1.9525
  737MOL0     H 1688   4.675   9.320  10.087  0.3039 -0.3187 -0.2223
  737MOL0     H 1689   4.508   9.182  10.013  1.1026  2.7145 -1.1582
  737MOL0     H 1690   4.950   8.975  11.035  0.4907 -1.9095 -2.0114
  737MOL0     H 1691   4.990   8.962  11.272 -2.6483  1.4070  0.4435
  737MOL0     H 1692   4.871   8.607  11.637 -0.7311 -2.3341  0.2138
  737MOL0     H 1693   4.886   8.532  11.855 -0.8026  1.4773  0.4556
  737MOL0     H 1694   5.171   8.405  11.901  2.2085  0.3407  1.3712
  737MOL0     H 1695   5.217   8.422  12.063  0.8607  4.1878  0.2538
  737MOL0     H 1696   4.956   8.332  11.946 -0.4061 -1.9844  0.7775
  737MOL0     H 1697   4.965   8.386  12.116  2.0200  0.2945  1.9231
  737MOL0     H 1698   5.119   8.145  11.989  2.6193  2.4557  0.9745
  737MOL0     H 1699   5.132   8.189  12.159 -2.3042 -3.0122  1.9614
  737MOL0     H 1700   4.882   8.083  12.020  0.5887 -1.8385 -0.6665
  737MOL0     H 1701   4.892   8.129  12.194 -2.1693 -1.9025  0.1677
  737MOL0     H 1702   5.090   7.759  12.197  3.0345  0.3054 -1.5894
  737MOL0     H 1703   5.275   8.726  11.886  0.3366  1.3920 -0.8253
  737MOL0     H 1704   5.354   8.817  11.580 -0.6637 -0.5327 -0.1099
  737MOL0     H 1705   5.249   8.952  11.637 -0.3685  0.8956  1.2400
  737MOL0     H 1706   5.352   8.879  11.744  3.0583 -2.3760 -0.7478
  738MOL0     O 1707   0.229  11.470   5.601 -0.6049  0.2457 -0.2850
  738MOL0     C 1708   0.206  11.389   5.701  0.5062 -0.9613  0.2474
  738MOL0     O 1709   0.230  11.421   5.823 -0.2461  0.9756  0.3985
  738MOL0     C 1710   0.333  11.506   5.855 -0.2400 -0.0065  0.2092
  738MOL0     C 1711   0.464  11.473   5.840 -0.8209  0.3471 -0.1820
  738MOL0     C 1712   0.565  11.553   5.898 -0.1988 -0.1642 -0.2180
  738MOL0     C 1713   0.532  11.666   5.963 -0.2703 -0.9831  0.0259
  738MOL0     O 1714   0.637  11.720   6.048  0.1142  0.5985  0.2438
  738MOL0     C 1715   0.676  11.854   6.024 -0.2329 -0.2949 -0.1741
  738MOL0     C 1716   0.785  11.896   6.123 -0.0266  0.5183  0.1676
  738MOL0     C 1717   0.844  12.028   6.084 -0.0110 -0.0127  0.5480
  738MOL0     C 1718   0.954  12.069   6.183 -0.6597 -0.4083 -0.5382
  738MOL0     C 1719   1.030  12.182   6.121 -0.1436  0.3784  0.0250
  738MOL0     C 1720   1.156  12.167   6.034 -0.8968 -1.1492  0.4364
  738MOL0     C 1721   1.221  12.296   5.976  1.1955  0.2389 -0.1400
  738MOL0     C 1722   1.359  12.277   5.919 -0.9413 -0.3625 -0.8057
  738MOL0     N 1723   1.359  12.172   5.815  0.0645  0.2716 -0.0142
  738MOL0     C 1724   1.309  12.211   5.693  0.1732  0.7074 -0.2723
  738MOL0     C 1725   1.371  12.130   5.606  0.1545  0.6172  0.6117
  738MOL0     C 1726   1.362  12.141   5.458 -0.1599 -0.0416 -0.5494
  738MOL0     C 1727   1.216  12.142   5.408  0.1496 -0.0465 -1.0873
  738MOL0     C 1728   1.148  12.007   5.426  0.7077 -0.1257 -1.4427
  738MOL0     C 1729   1.099  11.965   5.567  0.5847 -0.9968  0.0118
  738MOL0     O 1730   1.050  12.077   5.640  0.2159  0.2730  0.2714
  738MOL0     C 1731   0.924  12.127   5.627  0.1098 -0.2492 -1.0994
  738MOL0     C 1732   0.820  12.065   5.556  0.2744 -0.4617  0.1562
  738MOL0     C 1733   0.697  12.129   5.531 -0.4397  0.2123 -0.1235
  738MOL0     C 1734   0.601  12.073   5.429  0.1343  0.4412  0.7352
  738MOL0     C 1735   0.675  12.247   5.598 -0.2281 -0.7292 -0.3983
  738MOL0     C 1736   0.546  12.326   5.591 -0.3682  0.9568 -0.1577
  738MOL0     O 1737   0.436  12.257   5.568 -0.7213  0.7418  0.4987
  738MOL0     C 1738   0.314  12.315   5.563 -0.6551 -0.3648 -0.5387
  738MOL0     C 1739   0.222  12.255   5.475  0.5284  0.6968 -0.3838
  738MOL0     C 1740   0.094  12.304   5.479  0.7537 -0.4510  0.3902
  738MOL0     C 1741   0.051  12.401   5.573 -0.4255 -0.3751 -0.0524
  738MOL0     O 1742  -0.077  12.450   5.566 -0.6069  0.2563  0.6854
  738MOL0     C 1743  -0.165  12.414   5.669 -0.0386  0.4755 -0.7374
  738MOL0     C 1744  -0.216  12.268   5.642  0.6445 -0.8353  0.7819
  738MOL0     C 1745  -0.334  12.260   5.541 -0.4027 -0.6269  0.0465
  738MOL0     C 1746  -0.292  12.171   5.421 -0.1996 -0.3155  0.0664
  738MOL0     C 1747  -0.402  12.160   5.310  0.6940  0.8737 -0.0207
  738MOL0     C 1748  -0.433  12.298   5.239 -0.1745 -0.2436 -0.3849
  738MOL0     C 1749  -0.508  12.286   5.099 -0.0690 -0.6534 -0.4952
  738MOL0     C 1750  -0.448  12.376   4.987  0.0268  0.0133  0.8023
  738MOL0    Cl 1751  -0.495  12.550   5.000  1.2052 -0.1625  0.1603
  738MOL0     C 1752   0.143  12.454   5.662  0.7963  0.0637 -0.4611
  738MOL0     C 1753   0.277  12.416   5.650 -0.2098 -0.1243  0.5794
  738MOL0     O 1754   0.554  12.448   5.609  0.5439 -0.1040  0.7660
  738MOL0     C 1755   0.785  12.311   5.666 -0.7742 -0.4131  0.5029
  738MOL0     C 1756   0.907  12.248   5.689  0.4851  0.7221  1.0320
  738MOL0     N 1757   1.443  12.040   5.671  0.6042  0.0029 -0.1465
  738MOL0     N 1758   1.445  12.058   5.797 -0.6996 -0.1621  0.1777
  738MOL0     C 1759   0.400  11.720   5.965 -0.0181  0.2594  0.3274
  738MOL0     C 1760   0.306  11.627   5.917  0.5544  0.2189 -0.0536
  738MOL0     C 1761   0.123  11.265   5.664 -1.2049 -0.1543  0.0914
  738MOL0     C 1762   0.107  11.165   5.765 -0.2803 -0.6946  0.2393
  738MOL0     C 1763   0.058  11.044   5.721  0.3417 -0.3645  0.2693
  738MOL0     C 1764   0.004  11.028   5.592 -0.0057 -0.5551 -0.7047
  738MOL0     O 1765  -0.039  10.906   5.551 -0.3680 -0.1618  0.2094
  738MOL0     C 1766   0.033  10.852   5.435 -0.5431  0.1548  0.2618
  738MOL0     C 1767   0.174  10.803   5.474  0.3939 -1.0708  0.8135
  738MOL0     C 1768   0.158  10.654   5.517 -0.0569 -0.0770  0.8080
  738MOL0     C 1769   0.290  10.592   5.513 -0.4646  0.5329  1.2552
  738MOL0     C 1770   0.289  10.458   5.570  0.3387 -0.1467 -0.2337
  738MOL0     C 1771   0.279  10.346   5.613  0.0702 -0.2922 -0.3874
  738MOL0     C 1772  -0.000  11.132   5.506 -1.3417  1.1618  0.5114
  738MOL0     C 1773   0.055  11.252   5.539  0.7868  0.3762  0.3101
  738MOL0     C 1774   0.055  11.353   5.429 -0.3991  0.3424 -0.0517
  738MOL0     H 1775   0.493  11.379   5.795 -1.9659  0.4150 -1.1032
  738MOL0     H 1776   0.672  11.540   5.884 -0.2716  0.3451 -1.4226
  738MOL0     H 1777   0.592  11.921   6.043 -0.3554  0.5411 -3.2403
  738MOL0     H 1778   0.704  11.866   5.919 -2.1238 -1.1459 -0.8150
  738MOL0     H 1779   0.741  11.905   6.223  1.5676  1.0239  0.8456
  738MOL0     H 1780   0.859  11.815   6.121 -1.0328 -0.4341 -1.7337
  738MOL0     H 1781   0.881  12.012   5.983 -0.1815 -1.4985  0.6967
  738MOL0     H 1782   0.766  12.103   6.073 -0.0108  0.0752  1.1308
  738MOL0     H 1783   0.907  12.104   6.275  0.0076 -3.1370  0.9179
  738MOL0     H 1784   1.022  11.987   6.207  1.1976  0.5799 -2.0892
  738MOL0     H 1785   1.063  12.238   6.208  3.3347  2.3484 -2.3106
  738MOL0     H 1786   0.966  12.245   6.058 -0.4420  1.0269  0.9699
  738MOL0     H 1787   1.225  12.120   6.105 -0.5123 -0.4132  0.5605
  738MOL0     H 1788   1.132  12.095   5.955  1.9719  0.5643 -2.2114
  738MOL0     H 1789   1.211  12.378   6.048 -3.5834  0.5302 -0.8603
  738MOL0     H 1790   1.160  12.334   5.894  1.3221  1.6970  0.3965
  738MOL0     H 1791   1.393  12.374   5.881 -0.9478  0.2948  0.7677
  738MOL0     H 1792   1.419  12.249   6.006  0.5531 -2.6737 -2.4610
  738MOL0     H 1793   1.246  12.297   5.676  0.2130  0.1894 -3.6029
  738MOL0     H 1794   1.414  12.067   5.397  1.5547 -0.0591  0.8493
  738MOL0     H 1795   1.410  12.231   5.420  1.7661 -2.1135 -3.3964
  738MOL0     H 1796   1.151  12.217   5.455 -2.4423 -2.7145 -0.1337
  738MOL0     H 1797   1.227  12.157   5.300 -0.8674 -1.3157 -1.3833
  738MOL0     H 1798   1.053  12.006   5.372 -0.7624  1.4817  0.9507
  738MOL0     H 1799   1.216  11.925   5.400 -2.8441 -2.8322 -2.9263
  738MOL0     H 1800   1.022  11.889   5.549  1.0659 -2.0953  2.2253
  738MOL0     H 1801   1.186  11.930   5.624  1.1899  2.0760  1.1807
  738MOL0     H 1802   0.842  11.977   5.496 -0.6777 -1.2085  0.8907
  738MOL0     H 1803   0.638  12.004   5.353 -0.7126  0.9126 -0.1263
  738MOL0     H 1804   0.564  12.154   5.364  4.0261  2.1249  0.3606
  738MOL0     H 1805   0.528  12.023   5.494  2.2755  0.5673  3.4086
  738MOL0     H 1806   0.254  12.177   5.407 -0.2753 -1.1817  1.2909
  738MOL0     H 1807   0.022  12.258   5.413 -0.6059  1.7642  0.1951
  738MOL0     H 1808  -0.112  12.416   5.765 -0.6411  1.5114 -0.4110
  738MOL0     H 1809  -0.249  12.480   5.691  0.2568 -0.5771  5.1331
  738MOL0     H 1810  -0.142  12.194   5.611  1.3835  0.9429 -2.0619
  738MOL0     H 1811  -0.257  12.235   5.738 -0.9395  1.9677  1.1829
  738MOL0     H 1812  -0.366  12.362   5.516 -0.9055 -1.0948 -1.3120
  738MOL0     H 1813  -0.415  12.210   5.595  0.2245  0.2985  1.9462
  738MOL0     H 1814  -0.252  12.080   5.467 -0.2321  0.8797  2.6291
  738MOL0     H 1815  -0.207  12.219   5.372 -1.7012  4.2827  1.4849
  738MOL0     H 1816  -0.357  12.090   5.239  2.5068  0.5661  1.3512
  738MOL0     H 1817  -0.491  12.111   5.350  0.0682  0.4911 -1.7883
  738MOL0     H 1818  -0.335  12.344   5.222 -0.5699  1.1628  1.0034
  738MOL0     H 1819  -0.487  12.363   5.307 -0.2586 -2.2810  1.6131
  738MOL0     H 1820  -0.608  12.331   5.107 -1.8993 -3.8801 -2.7468
  738MOL0     H 1821  -0.518  12.180   5.076  3.6075 -1.1345 -0.4420
  738MOL0     H 1822  -0.476  12.329   4.893  0.0822 -0.8529  1.2067
  738MOL0     H 1823  -0.340  12.365   4.996 -0.0366 -0.0451  1.5795
  738MOL0     H 1824   0.107  12.531   5.729 -3.4024 -1.1496 -0.9870
  738MOL0     H 1825   0.349  12.457   5.720  2.0175 -0.5075 -1.3626
  738MOL0     H 1826   0.774  12.413   5.702  2.8687  1.6370 -3.2645
  738MOL0     H 1827   0.988  12.301   5.738  1.5707  1.2649 -1.1914
  738MOL0     H 1828   0.371  11.807   6.023  2.6037  1.7930 -0.5171
  738MOL0     H 1829   0.205  11.655   5.945  0.8855  0.1275  1.3167
  738MOL0     H 1830   0.133  11.181   5.869  0.6772  0.5681 -0.1552
  738MOL0     H 1831   0.030  10.972   5.797 -2.2554 -2.1266 -2.1341
  738MOL0     H 1832  -0.021  10.764   5.398  1.7276 -1.4457  0.5826
  738MOL0     H 1833   0.039  10.926   5.354 -4.3115  0.6259  0.2268
  738MOL0     H 1834   0.220  10.870   5.547  0.9701  3.9632 -3.5516
  738MOL0     H 1835   0.249  10.814   5.395 -0.0161 -0.4876  0.4991
  738MOL0     H 1836   0.109  10.648   5.615 -0.1559 -3.1689  0.6557
  738MOL0     H 1837   0.093  10.600   5.448 -0.6965 -0.1872  1.4855
  738MOL0     H 1838   0.357  10.652   5.576  1.2458  0.5026 -0.4605
  738MOL0     H 1839   0.335  10.593   5.413 -1.9787  2.7359  0.5284
  738MOL0     H 1840   0.271  10.247   5.653  1.4837 -0.9175 -1.5433
  738MOL0     H 1841  -0.041  11.118   5.406 -0.8027  0.9721  0.3177
  738MOL0     H 1842  -0.019  11.320   5.355 -3.6254  4.2733  1.0334
  738MOL0     H 1843   0.032  11.456   5.458 -1.4795 -0.4457  2.1461
  738MOL0     H 1844   0.158  11.357   5.394  0.7072  2.9993  3.1323
  739MOL0     O 1845   1.939   8.429   4.623 -0.0935 -0.7835  0.1712
  739MOL0     C 1846   1.869   8.452   4.719  0.0059  0.1559 -0.3682
  739MOL0     O 1847   1.736   8.489   4.714 -0.4149  0.7116 -0.0854
  739MOL0     C 1848   1.662   8.513   4.594 -1.1624 -0.1050 -0.7080
  739MOL0     C 1849   1.670   8.426   4.486 -0.4503 -1.0049 -1.1345
  739MOL0     C 1850   1.616   8.467   4.370 -0.0013  0.0624  0.5561
  739MOL0     C 1851   1.537   8.586   4.352 -0.6699  0.6104 -0.2735
  739MOL0     O 1852   1.477   8.632   4.232  0.3229  0.3324 -0.6949
  739MOL0     C 1853   1.531   8.590   4.109  0.7908 -0.5526 -0.0069
  739MOL0     C 1854   1.452   8.472   4.061  0.9350  0.6661 -0.2417
  739MOL0     C 1855   1.467   8.442   3.917  0.5567 -0.5728  0.4050
  739MOL0     C 1856   1.365   8.329   3.878 -0.4441 -0.1331 -1.1432
  739MOL0     C 1857   1.346   8.307   3.729  0.0373  0.8690  0.9129
  739MOL0     C 1858   1.300   8.166   3.673 -0.3718 -0.0455 -1.0847
  739MOL0     C 1859   1.406   8.087   3.590 -0.5445 -0.0493  0.3220
  739MOL0     C 1860   1.561   8.082   3.614 -0.5153 -0.3211 -0.7518
  739MOL0     N 1861   1.591   8.025   3.751  0.1945 -0.4758  0.4947
  739MOL0     C 1862   1.700   8.047   3.826  0.9449  0.1671  0.9644
  739MOL0     C 1863   1.690   7.968   3.938  0.5834 -0.3970  0.5117
  739MOL0     C 1864   1.807   7.951   4.026  0.2202  0.1348 -1.0515
  739MOL0     C 1865   1.829   8.073   4.118  0.3229  0.2758 -0.0569
  739MOL0     C 1866   1.717   8.103   4.221  0.3634  0.3362 -0.1041
  739MOL0     C 1867   1.692   7.987   4.314 -0.6288 -0.3027  0.1505
  739MOL0     O 1868   1.583   8.021   4.399 -0.0864 -1.0267 -0.1819
  739MOL0     C 1869   1.454   8.009   4.369 -0.4961  0.1491  0.5621
  739MOL0     C 1870   1.402   7.959   4.240 -0.4358 -0.5540 -0.7945
  739MOL0     C 1871   1.267   7.954   4.214 -1.1620  0.0500  0.2549
  739MOL0     C 1872   1.237   7.912   4.075  0.2290  0.2868 -1.0137
  739MOL0     C 1873   1.172   7.993   4.307 -0.1821 -0.6542 -0.4903
  739MOL0     C 1874   1.029   7.982   4.280 -0.3223 -0.5387 -0.5052
  739MOL0     O 1875   0.970   7.992   4.162 -0.3470 -0.3590  0.0754
  739MOL0     C 1876   0.835   7.971   4.142 -0.8155  0.0717  0.1107
  739MOL0     C 1877   0.751   8.081   4.109  0.0663 -0.0106  0.4823
  739MOL0     C 1878   0.616   8.053   4.097 -0.2714 -0.4050 -0.1227
  739MOL0     C 1879   0.567   7.923   4.095  0.5725  0.4919 -0.2982
  739MOL0     O 1880   0.439   7.881   4.078 -0.0673  0.1038 -0.1687
  739MOL0     C 1881   0.341   7.979   4.056 -0.1275 -0.8508  0.3711
  739MOL0     C 1882   0.204   7.950   4.128  0.3128  0.0791 -0.2005
  739MOL0     C 1883   0.105   7.886   4.033  0.0687 -0.9090  0.4879
  739MOL0     C 1884   0.013   7.802   4.118  0.1861  0.8443  0.6506
  739MOL0     C 1885   0.065   7.659   4.100  0.5042 -0.0996 -0.2094
  739MOL0     C 1886   0.040   7.578   4.222 -0.5423 -0.2043 -0.4508
  739MOL0     C 1887   0.152   7.474   4.236  0.3326  0.3244  0.0143
  739MOL0     C 1888   0.166   7.381   4.115  1.3298 -0.0705 -0.0297
  739MOL0    Cl 1889   0.326   7.305   4.110 -0.2206 -0.1800  0.0584
  739MOL0     C 1890   0.655   7.815   4.105 -0.7918 -0.0782  0.4879
  739MOL0     C 1891   0.792   7.842   4.126 -0.0476 -0.2908 -0.9687
  739MOL0     O 1892   0.968   7.949   4.378  0.1508 -0.7091 -0.2870
  739MOL0     C 1893   1.217   8.030   4.436  0.2410 -0.1844  0.7424
  739MOL0     C 1894   1.351   8.041   4.461  0.9204 -0.5523  1.0254
  739MOL0     N 1895   1.576   7.900   3.929 -0.4114 -0.6037 -0.3740
  739MOL0     N 1896   1.513   7.934   3.817  0.3254  0.3805 -0.0808
  739MOL0     C 1897   1.509   8.662   4.469 -0.3270  0.7676 -0.8464
  739MOL0     C 1898   1.571   8.620   4.590  0.7156 -0.1750 -0.7283
  739MOL0     C 1899   1.926   8.419   4.854  0.7098 -0.3373 -0.1203
  739MOL0     C 1900   1.834   8.414   4.964 -0.2834  0.3715 -0.2781
  739MOL0     C 1901   1.864   8.372   5.093 -0.6727  0.0481 -0.5927
  739MOL0     C 1902   1.995   8.352   5.121 -0.4670  0.5443 -0.1130
  739MOL0     O 1903   2.024   8.326   5.253 -0.2365  0.1137  0.3885
  739MOL0     C 1904   2.138   8.238   5.276 -0.1506 -0.2019 -0.3823
  739MOL0     C 1905   2.143   8.201   5.426  0.7584 -0.5389  0.1651
  739MOL0     C 1906   2.178   8.048   5.439  0.8364 -1.1920  0.4944
  739MOL0     C 1907   2.115   7.969   5.567 -0.4021 -0.1573 -0.1452
  739MOL0     C 1908   2.173   8.009   5.698  0.1283  0.3107 -0.3894
  739MOL0     C 1909   2.218   8.019   5.818  0.2993  0.7899 -0.4548
  739MOL0     C 1910   2.093   8.354   5.017 -1.1875  0.5705  0.6784
  739MOL0     C 1911   2.067   8.386   4.882  0.1825  0.0916 -0.0970
  739MOL0     C 1912   2.189   8.410   4.785 -0.9887  0.2581  0.8853
  739MOL0     H 1913   1.727   8.335   4.498 -0.2322 -1.3243 -3.9424
  739MOL0     H 1914   1.628   8.408   4.280 -1.0102 -1.2388  1.2421
  739MOL0     H 1915   1.637   8.565   4.114  1.0567 -0.6363 -3.3155
  739MOL0     H 1916   1.519   8.677   4.043  1.3382 -0.5717 -0.1344
  739MOL0     H 1917   1.482   8.383   4.116  2.0663 -0.8468 -3.0708
  739MOL0     H 1918   1.346   8.494   4.077  1.0718 -0.0635  2.0226
  739MOL0     H 1919   1.440   8.528   3.856 -1.9412 -0.3189  1.7733
  739MOL0     H 1920   1.572   8.412   3.902  1.1043  1.1613  0.5108
  739MOL0     H 1921   1.385   8.239   3.936 -0.9679 -0.6159 -1.6999
  739MOL0     H 1922   1.266   8.354   3.918  0.4605 -1.0275  1.9298
  739MOL0     H 1923   1.438   8.323   3.672 -1.2206 -0.5346 -1.6661
  739MOL0     H 1924   1.274   8.374   3.682 -0.1617  1.9198  2.6127
  739MOL0     H 1925   1.283   8.107   3.763 -2.4297  2.9337  0.6761
  739MOL0     H 1926   1.203   8.176   3.624 -1.3353 -0.1135  0.7065
  739MOL0     H 1927   1.389   8.117   3.486  0.4161 -2.3961 -0.5685
  739MOL0     H 1928   1.371   7.983   3.587  0.2519 -0.3169  0.2453
  739MOL0     H 1929   1.589   8.009   3.538 -1.5205  0.2541 -1.6997
  739MOL0     H 1930   1.615   8.174   3.591 -0.7898  0.0939  0.2180
  739MOL0     H 1931   1.779   8.114   3.792  1.9148 -1.2786  0.2985
  739MOL0     H 1932   1.897   7.932   3.967  0.7613 -2.2937  0.4279
  739MOL0     H 1933   1.792   7.864   4.090 -2.3533  0.3309 -1.2770
  739MOL0     H 1934   1.926   8.051   4.162 -1.2823 -1.2151  3.0499
  739MOL0     H 1935   1.834   8.163   4.056  0.3217 -0.5100 -1.2159
  739MOL0     H 1936   1.743   8.191   4.280  2.0187 -1.1890  1.5752
  739MOL0     H 1937   1.629   8.126   4.159  0.3835 -2.5357 -1.3413
  739MOL0     H 1938   1.677   7.890   4.265  2.1222 -0.5801 -0.2994
  739MOL0     H 1939   1.782   7.977   4.376 -2.8132  0.9826  3.8317
  739MOL0     H 1940   1.470   7.927   4.162  0.9342 -1.1454  0.5952
  739MOL0     H 1941   1.323   7.902   4.008  0.0811 -2.0547 -0.9612
  739MOL0     H 1942   1.166   7.979   4.025  1.5494  2.9270  0.4738
  739MOL0     H 1943   1.190   7.814   4.087  1.1010  0.0032  0.2546
  739MOL0     H 1944   0.777   8.186   4.099 -2.1742  0.5869  0.5829
  739MOL0     H 1945   0.554   8.141   4.084 -0.9312 -0.9690 -0.8883
  739MOL0     H 1946   0.371   8.082   4.079  1.6949 -1.1392 -0.6014
  739MOL0     H 1947   0.317   7.976   3.950  0.8412  1.1980  0.0415
  739MOL0     H 1948   0.237   7.899   4.219  2.4660  4.2040  1.6183
  739MOL0     H 1949   0.161   8.041   4.170  3.2211  0.5494  2.0485
  739MOL0     H 1950   0.147   7.833   3.946 -1.6598  0.1355 -1.0402
  739MOL0     H 1951   0.046   7.961   3.980  1.3968 -0.8180 -0.9538
  739MOL0     H 1952  -0.087   7.809   4.073 -0.1806  1.8092  1.5616
  739MOL0     H 1953   0.018   7.837   4.221  1.1727  2.8951 -0.0259
  739MOL0     H 1954   0.024   7.615   4.009 -1.6641  0.7997  0.2691
  739MOL0     H 1955   0.172   7.671   4.079  0.4610  2.2331  0.6127
  739MOL0     H 1956  -0.056   7.525   4.225  0.3545 -1.9622  3.3312
  739MOL0     H 1957   0.038   7.655   4.301 -1.9521  3.5974 -3.8529
  739MOL0     H 1958   0.131   7.417   4.328 -1.7099 -1.7122 -1.5964
  739MOL0     H 1959   0.248   7.522   4.261  2.0497 -3.0856  0.6066
  739MOL0     H 1960   0.138   7.420   4.017  0.0090  3.4258  1.5690
  739MOL0     H 1961   0.103   7.291   4.125  1.5656 -0.6135 -2.7519
  739MOL0     H 1962   0.624   7.713   4.084 -1.0387  0.2428 -0.8579
  739MOL0     H 1963   0.857   7.756   4.125 -3.5085 -3.4560  3.2091
  739MOL0     H 1964   1.159   8.042   4.528 -0.7754  0.5895  0.0207
  739MOL0     H 1965   1.381   8.082   4.557 -0.5983 -0.9441  1.7067
  739MOL0     H 1966   1.443   8.747   4.479 -1.6747 -0.1501 -1.6190
  739MOL0     H 1967   1.565   8.676   4.684 -0.1125 -2.7261  0.8342
  739MOL0     H 1968   1.729   8.437   4.948  0.2130  1.8777 -1.7211
  739MOL0     H 1969   1.785   8.370   5.168 -0.8979 -1.4990 -0.8287
  739MOL0     H 1970   2.125   8.166   5.194 -1.8179  1.1928 -1.4102
  739MOL0     H 1971   2.231   8.284   5.242 -1.5555  1.9608 -1.5488
  739MOL0     H 1972   2.047   8.221   5.473  2.8442  2.4661  3.7612
  739MOL0     H 1973   2.217   8.266   5.475 -0.3732  1.0319 -0.1267
  739MOL0     H 1974   2.132   8.000   5.352  2.5994  0.5128 -1.4927
  739MOL0     H 1975   2.285   8.025   5.443  1.5253  1.6011  0.4447
  739MOL0     H 1976   2.149   7.866   5.551  1.3307  0.6371 -1.9930
  739MOL0     H 1977   2.007   7.983   5.570 -0.1949  1.5106  1.6474
  739MOL0     H 1978   2.232   8.040   5.922 -0.0603  1.8647 -0.6149
  739MOL0     H 1979   2.197   8.337   5.043 -0.8819  2.0975  0.5301
  739MOL0     H 1980   2.180   8.512   4.746  3.0357  0.2409 -0.5478
  739MOL0     H 1981   2.280   8.403   4.844 -0.8301 -2.6646  0.4236
  739MOL0     H 1982   2.181   8.335   4.706 -4.0608 -0.6176  1.8774
  740MOL0     O 1983   4.756   7.023   7.122  0.3250 -0.6852  0.5754
  740MOL0     C 1984   4.752   6.998   7.237  0.1223 -0.1493 -1.0946
  740MOL0     O 1985   4.733   6.870   7.294 -0.2598  0.2112  0.4168
  740MOL0     C 1986   4.726   6.758   7.213 -0.0364 -0.1530  0.5457
  740MOL0     C 1987   4.832   6.670   7.198 -0.1342 -0.6206  0.1797
  740MOL0     C 1988   4.834   6.547   7.115  0.1856  0.2485  0.6430
  740MOL0     C 1989   4.716   6.523   7.042 -0.0611  0.3951  1.1051
  740MOL0     O 1990   4.696   6.406   6.973  0.7264  0.6074 -0.5971
  740MOL0     C 1991   4.807   6.316   6.951 -1.0615 -0.3630  0.0459
  740MOL0     C 1992   4.752   6.196   6.871  0.6604 -0.4218  0.5565
  740MOL0     C 1993   4.864   6.105   6.811 -0.1043 -0.2916  0.2409
  740MOL0     C 1994   4.808   5.974   6.758 -0.4763  0.0129  0.0438
  740MOL0     C 1995   4.742   5.956   6.614  1.0626  0.9086 -0.1749
  740MOL0     C 1996   4.652   5.821   6.612 -0.9786  0.1575  0.3382
  740MOL0     C 1997   4.680   5.747   6.482  0.4461  0.1176  0.1059
  740MOL0     C 1998   4.814   5.682   6.467 -1.1848  0.2334 -0.0239
  740MOL0     N 1999   4.844   5.585   6.578  0.2329 -0.9061  0.5560
  740MOL0     C 2000   4.769   5.481   6.616  0.1302 -0.3093  0.2888
  740MOL0     C 2001   4.805   5.441   6.734  0.5209  0.1243 -0.0712
  740MOL0     C 2002   4.753   5.325   6.811 -0.0056 -0.7752  0.5620
  740MOL0     C 2003   4.684   5.373   6.942  0.8218  0.0909  0.9748
  740MOL0     C 2004   4.600   5.259   7.004 -1.1044  0.0772 -0.5789
  740MOL0     C 2005   4.542   5.293   7.143  0.5711 -0.2429 -0.0681
  740MOL0     O 2006   4.475   5.178   7.200  0.1954  0.5395  0.0208
  740MOL0     C 2007   4.463   5.177   7.333 -0.1547 -0.0725 -0.4069
  740MOL0     C 2008   4.422   5.054   7.393  0.3246 -0.8032  0.5632
  740MOL0     C 2009   4.405   5.047   7.531 -0.0041  0.1701  0.0629
  740MOL0     C 2010   4.364   4.908   7.575 -0.1178 -0.4368  0.4083
  740MOL0     C 2011   4.439   5.157   7.623 -0.7859 -0.7560  1.4145
  740MOL0     C 2012   4.417   5.174   7.769 -1.2872  0.2121  0.1155
  740MOL0     O 2013   4.419   5.297   7.822 -0.0020  0.1197  0.5950
  740MOL0     C 2014   4.443   5.304   7.956 -1.3320 -0.3832 -0.4609
  740MOL0     C 2015   4.522   5.214   8.037  0.6505 -0.2987  0.2561
  740MOL0     C 2016   4.532   5.231   8.177 -0.2651  0.0324 -0.1751
  740MOL0     C 2017   4.482   5.345   8.230  0.2523  0.2634 -0.7161
  740MOL0     O 2018   4.492   5.390   8.362  0.5353  0.9183  0.7427
  740MOL0     C 2019   4.610   5.342   8.433  1.6075 -0.2202  0.3190
  740MOL0     C 2020   4.616   5.399   8.574 -0.4716 -0.3166  0.1537
  740MOL0     C 2021   4.633   5.552   8.568 -0.0477  0.5618 -0.7039
  740MOL0     C 2022   4.619   5.620   8.710  0.0975  0.1794 -0.1821
  740MOL0     C 2023   4.660   5.776   8.698  0.1271  0.7163  0.1995
  740MOL0     C 2024   4.543   5.859   8.640  0.5261  0.3194 -0.5653
  740MOL0     C 2025   4.537   5.999   8.713 -0.1116 -1.1048  0.0148
  740MOL0     C 2026   4.399   6.073   8.707  0.2831 -0.1623  0.3908
  740MOL0    Cl 2027   4.428   6.252   8.736  0.0428 -0.1865 -0.6961
  740MOL0     C 2028   4.406   5.434   8.155 -0.0723 -0.7195  0.6366
  740MOL0     C 2029   4.393   5.417   8.020  0.2663 -0.2088  1.0023
  740MOL0     O 2030   4.390   5.072   7.836  0.2222  0.0687  0.1004
  740MOL0     C 2031   4.483   5.274   7.551  0.1732  0.7381 -0.2624
  740MOL0     C 2032   4.493   5.282   7.414 -0.3334  0.3090  0.1317
  740MOL0     N 2033   4.897   5.534   6.773  0.2872 -0.3708  0.2159
  740MOL0     N 2034   4.914   5.620   6.683 -0.3034 -0.3782 -0.3210
  740MOL0     C 2035   4.615   6.621   7.053  0.7689  0.0655 -0.1582
  740MOL0     C 2036   4.616   6.733   7.139  0.8424 -0.3674 -0.7176
  740MOL0     C 2037   4.743   7.115   7.332 -0.2465 -0.3864  0.1319
  740MOL0     C 2038   4.677   7.092   7.454 -0.0552  0.8966 -0.3689
  740MOL0     C 2039   4.673   7.188   7.552  0.1369 -0.2364 -0.4805
  740MOL0     C 2040   4.728   7.314   7.536  0.1248  0.8053  0.7250
  740MOL0     O 2041   4.715   7.397   7.639  0.3286 -0.8120  0.2578
  740MOL0     C 2042   4.741   7.536   7.625 -0.3110 -0.2545  0.2594
  740MOL0     C 2043   4.759   7.604   7.756  0.3708  0.2844 -0.8946
  740MOL0     C 2044   4.823   7.513   7.872  0.6926 -0.3112  0.0762
  740MOL0     C 2045   4.872   7.601   7.990  0.3990 -0.6032 -0.0835
  740MOL0     C 2046   4.969   7.706   7.942  0.1603 -0.7325 -0.1267
  740MOL0     C 2047   5.063   7.777   7.925 -0.2994 -0.2256  0.2823
  740MOL0     C 2048   4.793   7.343   7.410 -0.3044  0.0628  0.3456
  740MOL0     C 2049   4.786   7.251   7.303  0.0786  0.7653  1.5931
  740MOL0     C 2050   4.856   7.291   7.163  0.2680 -0.1172 -0.5198
  740MOL0     H 2051   4.922   6.686   7.257 -0.2374 -0.9057  0.4158
  740MOL0     H 2052   4.934   6.504   7.110  0.0998 -0.1566  1.9513
  740MOL0     H 2053   4.855   6.288   7.045  0.4532  1.2197 -0.2116
  740MOL0     H 2054   4.883   6.367   6.891  2.2247 -3.4497  1.2119
  740MOL0     H 2055   4.688   6.140   6.939 -0.6989 -2.6276 -2.2967
  740MOL0     H 2056   4.693   6.224   6.782 -0.9423  0.3124  1.7935
  740MOL0     H 2057   4.910   6.156   6.726  1.8054 -1.4537  0.5330
  740MOL0     H 2058   4.937   6.084   6.889 -0.4724 -0.4596  0.5414
  740MOL0     H 2059   4.881   5.893   6.752  0.6746  1.1119 -1.8350
  740MOL0     H 2060   4.729   5.951   6.831  0.3397 -0.4888  0.7909
  740MOL0     H 2061   4.822   5.953   6.540  2.5721  1.4711  1.3674
  740MOL0     H 2062   4.679   6.045   6.600 -0.8173 -0.2801  0.3352
  740MOL0     H 2063   4.673   5.758   6.699  0.0283 -2.0461 -1.3986
  740MOL0     H 2064   4.547   5.851   6.616 -1.0952 -0.2008  0.0285
  740MOL0     H 2065   4.656   5.807   6.393  1.2535 -1.4688 -1.2259
  740MOL0     H 2066   4.602   5.671   6.472  0.0822  0.2638  1.5749
  740MOL0     H 2067   4.834   5.634   6.371  2.2660 -1.4579  1.3908
  740MOL0     H 2068   4.889   5.761   6.466 -0.0923 -0.6734  2.3337
  740MOL0     H 2069   4.688   5.442   6.557 -0.9334 -0.7543  1.9680
  740MOL0     H 2070   4.827   5.245   6.815 -0.9315 -1.8808 -1.9423
  740MOL0     H 2071   4.669   5.277   6.760 -0.5876 -0.5201  1.2658
  740MOL0     H 2072   4.745   5.417   7.021  2.2496  0.4699 -0.2998
  740MOL0     H 2073   4.614   5.451   6.910  2.1501  1.3774  1.1234
  740MOL0     H 2074   4.518   5.236   6.934  1.2102  0.2641 -3.5421
  740MOL0     H 2075   4.654   5.165   7.018 -3.1034 -1.2529 -1.2602
  740MOL0     H 2076   4.627   5.319   7.206  0.9947 -1.7848  0.0315
  740MOL0     H 2077   4.477   5.381   7.140 -0.4052 -0.9725 -0.6573
  740MOL0     H 2078   4.402   4.972   7.325 -3.1339 -0.4289  0.9477
  740MOL0     H 2079   4.404   4.883   7.674 -1.2166  4.2694  2.3087
  740MOL0     H 2080   4.391   4.830   7.503  1.4223 -1.3110  1.8711
  740MOL0     H 2081   4.256   4.896   7.580 -0.6674  1.5966 -3.1566
  740MOL0     H 2082   4.568   5.132   7.984 -0.4422 -1.3568  0.8912
  740MOL0     H 2083   4.582   5.156   8.237 -1.0325 -0.4910 -0.1825
  740MOL0     H 2084   4.593   5.235   8.446  1.2484  0.0122  1.9872
  740MOL0     H 2085   4.697   5.379   8.378  2.5092  0.3983  2.0819
  740MOL0     H 2086   4.534   5.387   8.645 -0.2962  2.4502  0.9470
  740MOL0     H 2087   4.702   5.358   8.627  0.5227  1.0601 -0.3498
  740MOL0     H 2088   4.556   5.609   8.516 -0.9008  1.5717  1.5051
  740MOL0     H 2089   4.726   5.589   8.524  0.4446 -0.3025 -0.4097
  740MOL0     H 2090   4.681   5.558   8.775 -2.9467 -1.7933  1.0272
  740MOL0     H 2091   4.520   5.607   8.753  0.1776  1.6471  0.5236
  740MOL0     H 2092   4.696   5.817   8.793  0.1771 -0.5639  0.7646
  740MOL0     H 2093   4.742   5.780   8.627 -1.9649  3.0831 -2.3015
  740MOL0     H 2094   4.449   5.804   8.648  0.3536  0.8209  1.4509
  740MOL0     H 2095   4.559   5.858   8.532 -2.6435 -1.5633 -1.1344
  740MOL0     H 2096   4.612   6.068   8.673 -1.7450 -0.2298 -1.6941
  740MOL0     H 2097   4.558   5.981   8.819 -0.1115 -1.5323 -0.0564
  740MOL0     H 2098   4.337   6.038   8.791  0.9657 -0.4810  0.7722
  740MOL0     H 2099   4.362   6.052   8.606  1.4622 -1.9348  0.2778
  740MOL0     H 2100   4.360   5.522   8.199  0.4490  0.1903 -0.5831
  740MOL0     H 2101   4.326   5.490   7.976 -1.4810 -3.2181 -1.8433
  740MOL0     H 2102   4.517   5.357   7.612  4.1634  0.2881 -1.5701
  740MOL0     H 2103   4.518   5.382   7.380  0.5908  0.1628  0.3635
  740MOL0     H 2104   4.528   6.595   6.995  0.7191 -2.1827  0.8278
  740MOL0     H 2105   4.526   6.793   7.149  0.0049 -1.9007  1.8837
  740MOL0     H 2106   4.627   6.997   7.469 -1.5325  2.0494  2.7696
  740MOL0     H 2107   4.625   7.169   7.648  0.6787 -0.3011 -0.2190
  740MOL0     H 2108   4.837   7.550   7.574 -0.5784 -2.1829 -0.8783
  740MOL0     H 2109   4.656   7.589   7.582  0.2934  1.9426  1.5640
  740MOL0     H 2110   4.661   7.640   7.787  0.0923 -0.2960 -1.0772
  740MOL0     H 2111   4.822   7.686   7.721  1.7365 -0.1955  0.3193
  740MOL0     H 2112   4.760   7.432   7.912  0.4554  0.3369  1.0439
  740MOL0     H 2113   4.913   7.465   7.832  0.2278  1.0260 -2.7812
  740MOL0     H 2114   4.920   7.539   8.067  1.6789  0.1197 -0.2668
  740MOL0     H 2115   4.784   7.653   8.030 -0.2946 -0.0340 -2.2188
  740MOL0     H 2116   5.150   7.834   7.898 -0.5596 -0.0515 -0.1941
  740MOL0     H 2117   4.839   7.440   7.398  0.9610 -0.1947  2.6045
  740MOL0     H 2118   4.915   7.383   7.164 -1.1950  0.9080  1.9213
  740MOL0     H 2119   4.924   7.211   7.133 -0.3361 -0.2118 -1.6810
  740MOL0     H 2120   4.779   7.299   7.085 -3.9986  0.4595  3.3403
  741MOL0     O 2121   1.080   9.308   8.242  0.5970  0.6168  0.4513
  741MOL0     C 2122   1.112   9.201   8.306 -1.0583 -0.4473  0.6588
  741MOL0     O 2123   1.034   9.093   8.301  0.9552  0.6934 -0.6235
  741MOL0     C 2124   0.940   9.090   8.202 -0.4077  0.1332  0.3224
  741MOL0     C 2125   0.967   9.074   8.064 -0.2409 -0.3153  0.3097
  741MOL0     C 2126   0.861   9.080   7.973 -0.8419 -0.0102 -0.0703
  741MOL0     C 2127   0.730   9.118   8.006  0.5294  0.0805 -0.6769
  741MOL0     O 2128   0.633   9.107   7.909  0.6292 -0.1183  0.4290
  741MOL0     C 2129   0.490   9.100   7.947  0.3718 -0.7100 -0.0632
  741MOL0     C 2130   0.403   9.045   7.824  0.0578 -0.3397 -0.3316
  741MOL0     C 2131   0.411   8.891   7.836 -0.3442  0.3214 -0.2165
  741MOL0     C 2132   0.295   8.821   7.758 -0.2837 -0.0653  0.3795
  741MOL0     C 2133   0.305   8.672   7.796  0.3206  0.1158  0.1869
  741MOL0     C 2134   0.171   8.604   7.741  0.2417 -1.1718 -0.6801
  741MOL0     C 2135   0.029   8.641   7.800  0.8478  0.2936 -0.3919
  741MOL0     C 2136   0.022   8.679   7.950  0.8602 -0.0131 -0.4955
  741MOL0     N 2137   0.055   8.567   8.034 -0.4073  0.2865  0.8039
  741MOL0     C 2138   0.167   8.485   8.055 -0.1137  0.3543  0.5531
  741MOL0     C 2139   0.136   8.408   8.164  0.4687  0.6095 -0.2034
  741MOL0     C 2140   0.228   8.303   8.230  0.6153  0.3737  0.8045
  741MOL0     C 2141   0.228   8.177   8.138  0.4005  0.0252  0.5070
  741MOL0     C 2142   0.243   8.044   8.198  0.3783 -0.4635  0.6578
  741MOL0     C 2143   0.388   8.033   8.258 -0.4691 -0.8297 -0.1051
  741MOL0     O 2144   0.435   7.901   8.291 -0.3694 -0.5088  0.3260
  741MOL0     C 2145   0.349   7.819   8.356  0.3562  0.6376  0.2077
  741MOL0     C 2146   0.292   7.851   8.478 -0.4186 -0.1272 -0.0385
  741MOL0     C 2147   0.219   7.750   8.546  0.8159 -0.3545  0.3255
  741MOL0     C 2148   0.163   7.781   8.684 -0.0841  0.1919  0.0346
  741MOL0     C 2149   0.196   7.623   8.489 -0.3841 -0.7379 -0.4362
  741MOL0     C 2150   0.123   7.513   8.550 -0.5024  0.0237 -0.7113
  741MOL0     O 2151   0.068   7.439   8.452 -0.4911 -0.0054 -0.3611
  741MOL0     C 2152  -0.016   7.336   8.450  0.2969  0.7047 -1.0385
  741MOL0     C 2153  -0.105   7.315   8.349  0.0192  0.0991 -0.5482
  741MOL0     C 2154  -0.189   7.198   8.346 -0.2554 -0.7271  0.0522
  741MOL0     C 2155  -0.180   7.098   8.443  0.5702  0.3110 -0.6701
  741MOL0     O 2156  -0.262   6.989   8.428  0.5354 -0.1196 -0.3445
  741MOL0     C 2157  -0.240   6.881   8.518 -0.4316  0.2780 -0.3604
  741MOL0     C 2158  -0.311   6.747   8.473  0.5147  0.7214 -0.3426
  741MOL0     C 2159  -0.262   6.629   8.569  0.3354 -1.3717 -0.2509
  741MOL0     C 2160  -0.318   6.509   8.515  0.6444 -0.2018  0.0895
  741MOL0     C 2161  -0.302   6.382   8.596  0.5382  0.5993 -0.0506
  741MOL0     C 2162  -0.309   6.258   8.517  0.3900  0.2578 -0.7915
  741MOL0     C 2163  -0.292   6.131   8.608  1.4453 -0.3690  0.0692
  741MOL0     C 2164  -0.362   6.010   8.549  0.3792  1.5810 -0.0013
  741MOL0    Cl 2165  -0.402   5.900   8.687 -0.1907  0.1547  0.0820
  741MOL0     C 2166  -0.100   7.127   8.557  0.2441  0.1679 -0.7268
  741MOL0     C 2167  -0.015   7.243   8.558  0.1202 -0.1103 -0.5094
  741MOL0     O 2168   0.111   7.494   8.668 -0.1619 -0.2009 -0.6370
  741MOL0     C 2169   0.270   7.590   8.370 -0.0339 -0.7522 -0.5759
  741MOL0     C 2170   0.336   7.692   8.302  0.9093  0.5021  0.0033
  741MOL0     N 2171   0.007   8.443   8.215  0.0796 -0.4792  0.1167
  741MOL0     N 2172  -0.034   8.531   8.128 -0.6823  0.7512  0.0421
  741MOL0     C 2173   0.702   9.138   8.145 -0.4016  0.1791  0.1310
  741MOL0     C 2174   0.811   9.127   8.239  0.1315  0.4678  0.3967
  741MOL0     C 2175   1.231   9.202   8.398  0.0531 -0.6760 -0.5239
  741MOL0     C 2176   1.247   9.101   8.485  0.4692  0.1450  0.1391
  741MOL0     C 2177   1.346   9.103   8.585 -0.6669 -0.6526 -0.5451
  741MOL0     C 2178   1.432   9.208   8.604 -0.3421  0.4130  0.1198
  741MOL0     O 2179   1.516   9.227   8.715 -0.2337 -0.4683  0.0402
  741MOL0     C 2180   1.583   9.120   8.776  0.0813 -0.0082  0.1605
  741MOL0     C 2181   1.652   9.161   8.918  0.0955 -0.1785 -0.6399
  741MOL0     C 2182   1.736   9.298   8.906  0.3680  0.0429 -0.0531
  741MOL0     C 2183   1.784   9.335   9.049  0.0555  0.4501 -0.0806
  741MOL0     C 2184   1.875   9.454   9.029  0.9657  0.3028 -0.4192
  741MOL0     C 2185   1.956   9.554   9.026  0.2904  0.8226  0.5479
  741MOL0     C 2186   1.419   9.313   8.513 -0.1428 -0.1863 -0.7532
  741MOL0     C 2187   1.327   9.304   8.409 -0.3504  0.2161  0.7150
  741MOL0     C 2188   1.343   9.423   8.306 -0.0508 -0.2806 -0.1664
  741MOL0     H 2189   1.064   9.047   8.023  0.6287  2.4544  0.3427
  741MOL0     H 2190   0.881   9.038   7.875 -1.0948 -0.1127 -0.0789
  741MOL0     H 2191   0.456   9.204   7.957  0.7074 -0.6428  0.3708
  741MOL0     H 2192   0.469   9.040   8.036 -1.9940  0.2970  0.1495
  741MOL0     H 2193   0.302   9.072   7.857  1.2467  0.4036  3.0991
  741MOL0     H 2194   0.423   9.087   7.726  2.4178 -0.6754 -0.0457
  741MOL0     H 2195   0.511   8.876   7.794  0.7883  0.2080  2.3532
  741MOL0     H 2196   0.420   8.853   7.938 -0.4335  2.5394  0.6620
  741MOL0     H 2197   0.197   8.855   7.794  0.8420  3.5485  0.4003
  741MOL0     H 2198   0.304   8.844   7.651 -2.0137 -0.7232  0.0436
  741MOL0     H 2199   0.316   8.654   7.903  1.9738 -0.4313 -0.0366
  741MOL0     H 2200   0.386   8.622   7.741  0.6169  1.2030 -0.3942
  741MOL0     H 2201   0.159   8.630   7.635  1.8989  3.8085  0.0798
  741MOL0     H 2202   0.186   8.496   7.734  3.6268 -0.8149 -0.3539
  741MOL0     H 2203  -0.046   8.566   7.773  0.9646 -0.4024  1.1104
  741MOL0     H 2204  -0.008   8.732   7.752 -0.8878  0.3888  1.0355
  741MOL0     H 2205   0.100   8.755   7.966  0.1356  0.2222  2.4150
  741MOL0     H 2206  -0.074   8.728   7.968  0.8290 -0.3783  0.3640
  741MOL0     H 2207   0.266   8.488   8.010  1.4409  3.4091  3.7123
  741MOL0     H 2208   0.182   8.276   8.325 -2.1343 -0.6119 -0.6768
  741MOL0     H 2209   0.333   8.332   8.235  0.6929  0.7701 -1.6207
  741MOL0     H 2210   0.137   8.177   8.077  2.7257 -1.7565 -3.3230
  741MOL0     H 2211   0.303   8.202   8.063 -0.7559  1.8888 -0.1174
  741MOL0     H 2212   0.171   8.023   8.278  0.7171  0.0079  1.0959
  741MOL0     H 2213   0.236   7.964   8.123 -0.1757  1.8409 -1.8754
  741MOL0     H 2214   0.454   8.091   8.192 -1.1089 -1.4473 -1.3206
  741MOL0     H 2215   0.379   8.095   8.348  2.0008  0.4372 -0.6271
  741MOL0     H 2216   0.316   7.948   8.522 -0.0878 -0.0527 -0.3730
  741MOL0     H 2217   0.247   7.763   8.751  0.4188  3.0726  0.3094
  741MOL0     H 2218   0.073   7.724   8.708 -2.4822  2.3382 -3.0150
  741MOL0     H 2219   0.140   7.885   8.709  2.8280  0.5402  1.6650
  741MOL0     H 2220  -0.126   7.376   8.262 -1.5981 -0.2126 -0.4160
  741MOL0     H 2221  -0.263   7.177   8.270 -4.1868  2.1702  2.6642
  741MOL0     H 2222  -0.134   6.854   8.522 -0.8996 -1.6058  0.5559
  741MOL0     H 2223  -0.271   6.914   8.617  2.0536  0.2546  0.4784
  741MOL0     H 2224  -0.416   6.758   8.500  0.1488 -4.0516  1.0136
  741MOL0     H 2225  -0.284   6.723   8.369  1.0971  4.4265 -1.1797
  741MOL0     H 2226  -0.306   6.660   8.665  3.9188  5.6855 -0.1953
  741MOL0     H 2227  -0.155   6.626   8.589  0.2972 -1.7558 -0.1122
  741MOL0     H 2228  -0.254   6.496   8.427  2.1307 -0.9021  1.2406
  741MOL0     H 2229  -0.423   6.525   8.490  0.3615  0.7067  1.7583
  741MOL0     H 2230  -0.210   6.376   8.653  0.6372 -0.8134 -0.3317
  741MOL0     H 2231  -0.380   6.380   8.673 -1.1206  0.5339 -1.6575
  741MOL0     H 2232  -0.224   6.249   8.449  0.6291  0.3495 -0.5079
  741MOL0     H 2233  -0.401   6.261   8.459 -0.1663 -2.4692 -0.1798
  741MOL0     H 2234  -0.340   6.144   8.705 -0.9496 -1.8173 -0.8294
  741MOL0     H 2235  -0.190   6.107   8.636  1.9335 -0.2642 -1.5019
  741MOL0     H 2236  -0.312   5.956   8.468 -1.9052 -2.3646  0.9747
  741MOL0     H 2237  -0.450   6.045   8.495  1.2047  2.9839 -0.4996
  741MOL0     H 2238  -0.083   7.069   8.646 -0.2275  1.7830  0.4570
  741MOL0     H 2239   0.050   7.267   8.642 -0.5440 -1.9178  0.5552
  741MOL0     H 2240   0.270   7.485   8.341 -2.1154 -1.2287  0.8944
  741MOL0     H 2241   0.390   7.676   8.209  0.8799 -2.7347  0.4318
  741MOL0     H 2242   0.602   9.169   8.174  0.9746  2.3080  3.2705
  741MOL0     H 2243   0.787   9.164   8.339  2.5088 -1.9291  2.0032
  741MOL0     H 2244   1.180   9.016   8.482  1.9477 -1.0362 -1.8237
  741MOL0     H 2245   1.354   9.024   8.658  2.7846  2.3516  2.7777
  741MOL0     H 2246   1.505   9.051   8.810 -2.0650  2.6140  0.8270
  741MOL0     H 2247   1.659   9.082   8.707  1.0708  2.0532  0.0323
  741MOL0     H 2248   1.718   9.079   8.950  0.1095 -0.6789 -1.8802
  741MOL0     H 2249   1.575   9.178   8.994 -1.5281  0.7437 -2.3918
  741MOL0     H 2250   1.823   9.276   8.844  0.7241  1.6555 -0.1483
  741MOL0     H 2251   1.688   9.378   8.849  1.3401  1.6658  1.3302
  741MOL0     H 2252   1.819   9.240   9.091 -0.0728 -0.5814 -2.1242
  741MOL0     H 2253   1.697   9.356   9.111 -1.5897 -0.3671 -1.9591
  741MOL0     H 2254   2.016   9.637   8.995  3.1024 -1.4855 -0.5657
  741MOL0     H 2255   1.495   9.390   8.523 -0.5087  0.1995 -0.9319
  741MOL0     H 2256   1.329   9.388   8.203 -1.4594 -0.4995  0.0833
  741MOL0     H 2257   1.268   9.499   8.330  0.1337 -0.5068  1.2174
  741MOL0     H 2258   1.441   9.472   8.312 -0.5417  0.9114 -1.4661
  742MOL0     O 2259   6.318   1.270   8.117  0.4675 -0.2082  0.1242
  742MOL0     C 2260   6.412   1.218   8.168  0.5362  0.3692 -1.3166
  742MOL0     O 2261   6.509   1.148   8.101  0.0943  0.0125  0.4742
  742MOL0     C 2262   6.476   1.082   7.979 -0.4327 -0.9414 -0.4545
  742MOL0     C 2263   6.494   1.139   7.852  0.4702 -0.4754 -0.4863
  742MOL0     C 2264   6.443   1.067   7.739 -0.1639  0.2887 -0.3892
  742MOL0     C 2265   6.365   0.954   7.747  0.8887  0.1733 -0.6395
  742MOL0     O 2266   6.308   0.906   7.634  0.5631  0.0842 -0.0421
  742MOL0     C 2267   6.175   0.872   7.638  0.5436  0.6844 -0.3012
  742MOL0     C 2268   6.128   0.826   7.509 -0.2356  0.1706 -0.9804
  742MOL0     C 2269   5.985   0.778   7.508  0.3159  0.5112 -0.4412
  742MOL0     C 2270   5.966   0.655   7.417 -0.2286 -0.3308 -1.0978
  742MOL0     C 2271   5.814   0.627   7.417 -0.4656 -0.0036  0.2619
  742MOL0     C 2272   5.752   0.693   7.296  0.4177 -0.3974 -0.0533
  742MOL0     C 2273   5.606   0.741   7.327  0.1553  0.8286 -0.4333
  742MOL0     C 2274   5.550   0.852   7.240  0.2040 -0.4736  0.4264
  742MOL0     N 2275   5.616   0.975   7.219  0.1755 -0.1174 -1.0290
  742MOL0     C 2276   5.705   1.039   7.307  0.1842  0.3556  0.2466
  742MOL0     C 2277   5.714   1.175   7.255  0.2200 -1.1247 -1.7562
  742MOL0     C 2278   5.781   1.304   7.318  0.4218 -0.3346 -0.1414
  742MOL0     C 2279   5.677   1.389   7.400 -0.6967  0.5988 -0.2233
  742MOL0     C 2280   5.742   1.468   7.519 -0.6036 -0.6896  0.4758
  742MOL0     C 2281   5.633   1.534   7.604  0.6207 -0.9774  0.7027
  742MOL0     O 2282   5.541   1.618   7.531  0.1512  0.8444  0.3919
  742MOL0     C 2283   5.405   1.603   7.527 -0.6853 -0.3487 -0.1329
  742MOL0     C 2284   5.336   1.492   7.562  0.3223 -0.6742  0.4047
  742MOL0     C 2285   5.205   1.477   7.506 -0.1553 -0.1616  0.1383
  742MOL0     C 2286   5.123   1.354   7.544  0.2152 -0.3617  0.5909
  742MOL0     C 2287   5.155   1.572   7.411 -0.1137  0.7668 -0.5352
  742MOL0     C 2288   5.009   1.557   7.363  0.6883  0.0984 -0.0750
  742MOL0     O 2289   4.919   1.659   7.399 -0.3553  0.2672  0.3957
  742MOL0     C 2290   4.787   1.648   7.369 -0.3942  0.1617 -0.0449
  742MOL0     C 2291   4.745   1.612   7.242 -0.4008 -1.1044 -0.7929
  742MOL0     C 2292   4.610   1.622   7.200  0.5335 -1.4482  1.0331
  742MOL0     C 2293   4.511   1.660   7.294  1.6515  0.4529  0.4984
  742MOL0     O 2294   4.378   1.657   7.244  0.2040  0.7210  0.1223
  742MOL0     C 2295   4.277   1.614   7.342 -0.6383 -0.5866 -0.8037
  742MOL0     C 2296   4.237   1.464   7.321  0.1719 -1.1483  0.1001
  742MOL0     C 2297   4.345   1.358   7.326  0.4248  0.2732 -0.4450
  742MOL0     C 2298   4.420   1.354   7.461 -0.5674  0.0670  0.2630
  742MOL0     C 2299   4.530   1.251   7.460  0.3473  0.3418  0.2933
  742MOL0     C 2300   4.647   1.273   7.358  0.7464 -0.5726  0.5151
  742MOL0     C 2301   4.738   1.145   7.346 -0.8924  0.2504 -0.3999
  742MOL0     C 2302   4.831   1.166   7.226  0.0947 -1.1989 -0.5265
  742MOL0    Cl 2303   4.901   1.009   7.193 -0.1068 -0.1402  0.2977
  742MOL0     C 2304   4.554   1.689   7.426 -0.0403  0.8802  0.5850
  742MOL0     C 2305   4.685   1.687   7.456  0.0581 -0.0640 -0.2566
  742MOL0     O 2306   4.979   1.462   7.295  0.6134  0.1054  0.5829
  742MOL0     C 2307   5.221   1.688   7.399  0.5151 -0.6177 -0.8363
  742MOL0     C 2308   5.345   1.704   7.456  0.1605  0.3547 -0.1783
  742MOL0     N 2309   5.646   1.191   7.143  0.8344  0.2740  0.2423
  742MOL0     N 2310   5.584   1.071   7.128  0.1815  0.1694  0.1893
  742MOL0     C 2311   6.342   0.901   7.874 -1.1651 -0.2360  0.1026
  742MOL0     C 2312   6.401   0.964   7.987  0.0105 -0.5283 -0.2170
  742MOL0     C 2313   6.421   1.236   8.312 -0.2331  0.0677 -0.0939
  742MOL0     C 2314   6.303   1.215   8.381 -0.1826 -0.5995 -0.5510
  742MOL0     C 2315   6.300   1.215   8.517 -0.6052 -0.9416 -0.0434
  742MOL0     C 2316   6.408   1.242   8.595 -0.5203 -0.2007  0.2393
  742MOL0     O 2317   6.386   1.233   8.728 -0.2772  0.8747  0.6578
  742MOL0     C 2318   6.492   1.197   8.818  0.0509  0.1265  0.5305
  742MOL0     C 2319   6.432   1.169   8.959  0.3191 -0.4992  1.2383
  742MOL0     C 2320   6.537   1.154   9.069 -0.9854  0.7645  0.5750
  742MOL0     C 2321   6.500   1.189   9.209 -0.1195  0.2348 -0.4464
  742MOL0     C 2322   6.434   1.321   9.233  0.2828  0.2155  0.1182
  742MOL0     C 2323   6.385   1.428   9.265 -0.1813  0.4704 -0.3259
  742MOL0     C 2324   6.533   1.275   8.529 -0.5491  0.1038  0.1235
  742MOL0     C 2325   6.537   1.280   8.390 -0.7324 -0.2374 -0.1145
  742MOL0     C 2326   6.667   1.311   8.318 -1.1636  0.4524  1.1919
  742MOL0     H 2327   6.543   1.235   7.837 -2.5265  1.4158  0.8097
  742MOL0     H 2328   6.443   1.102   7.637 -1.1287 -0.0117 -0.4962
  742MOL0     H 2329   6.123   0.967   7.655  2.6494  1.5865  1.5368
  742MOL0     H 2330   6.151   0.801   7.718 -1.2429 -2.6622 -3.4953
  742MOL0     H 2331   6.141   0.896   7.426 -0.0450 -2.0131 -2.9057
  742MOL0     H 2332   6.183   0.736   7.478 -1.2311 -1.7474  2.2948
  742MOL0     H 2333   5.957   0.752   7.610  1.3319  1.0561 -0.0125
  742MOL0     H 2334   5.914   0.857   7.483 -0.1785  0.4496  0.7228
  742MOL0     H 2335   6.001   0.661   7.313 -1.2703  0.7678 -1.4233
  742MOL0     H 2336   6.017   0.569   7.460 -1.0949 -2.0033 -3.1959
  742MOL0     H 2337   5.772   0.652   7.515 -1.2334 -0.0731 -0.0469
  742MOL0     H 2338   5.806   0.518   7.402  1.6971 -0.4075  1.6036
  742MOL0     H 2339   5.787   0.794   7.277 -0.3689  0.2605  1.7667
  742MOL0     H 2340   5.750   0.623   7.211 -1.0895  0.6588 -0.9255
  742MOL0     H 2341   5.604   0.787   7.426  0.1143  2.1429 -1.0184
  742MOL0     H 2342   5.536   0.657   7.329 -0.0924  1.0268  1.9969
  742MOL0     H 2343   5.556   0.816   7.137 -0.1049  3.8717 -1.2910
  742MOL0     H 2344   5.445   0.875   7.261 -0.2499  2.4453 -3.7969
  742MOL0     H 2345   5.743   0.997   7.400  1.8499 -1.9984 -1.3752
  742MOL0     H 2346   5.829   1.369   7.245 -0.1943  1.7166  1.2036
  742MOL0     H 2347   5.859   1.253   7.377  0.9721  0.2152 -0.3836
  742MOL0     H 2348   5.634   1.456   7.325  1.8604  4.6688  1.6055
  742MOL0     H 2349   5.601   1.316   7.429 -2.6207  1.7232 -2.1016
  742MOL0     H 2350   5.825   1.415   7.567 -0.6262 -0.4626  0.7726
  742MOL0     H 2351   5.791   1.549   7.465 -1.1339 -0.6954 -0.0220
  742MOL0     H 2352   5.569   1.468   7.664 -0.1130  3.7618  5.9338
  742MOL0     H 2353   5.687   1.604   7.668  0.5061  0.4949 -0.7610
  742MOL0     H 2354   5.368   1.425   7.641  0.3478  0.3945  1.3247
  742MOL0     H 2355   5.126   1.288   7.457 -0.0280  2.9311 -2.0966
  742MOL0     H 2356   5.020   1.381   7.569  0.7991 -0.6020  3.6715
  742MOL0     H 2357   5.167   1.311   7.635  0.3346 -0.9047  0.2816
  742MOL0     H 2358   4.820   1.582   7.170 -1.1229 -1.5873 -1.3559
  742MOL0     H 2359   4.582   1.583   7.103  2.1790 -3.6920  1.3820
  742MOL0     H 2360   4.288   1.634   7.449  0.4349  6.1613 -1.7748
  742MOL0     H 2361   4.195   1.683   7.320  0.8247  1.0809 -1.2025
  742MOL0     H 2362   4.158   1.442   7.394  0.8256  0.6620  1.4416
  742MOL0     H 2363   4.183   1.453   7.226 -0.9326 -3.6511  0.9209
  742MOL0     H 2364   4.410   1.371   7.240  2.2933  1.6983  1.0853
  742MOL0     H 2365   4.301   1.260   7.310  2.7007 -0.2759 -4.4974
  742MOL0     H 2366   4.349   1.326   7.540 -0.0649 -0.6270  0.4806
  742MOL0     H 2367   4.455   1.458   7.463 -0.3907  0.1721 -3.0942
  742MOL0     H 2368   4.569   1.236   7.561  2.4929  0.3033 -0.4691
  742MOL0     H 2369   4.490   1.152   7.437  1.5351 -0.1763  0.3738
  742MOL0     H 2370   4.698   1.361   7.397  0.1090 -1.4210  3.5169
  742MOL0     H 2371   4.596   1.286   7.262  0.6212 -3.0454  0.1871
  742MOL0     H 2372   4.675   1.060   7.321 -0.1148 -0.3687 -0.3169
  742MOL0     H 2373   4.793   1.130   7.440  1.6713 -1.0899 -1.9890
  742MOL0     H 2374   4.899   1.245   7.260 -2.3453  0.8496 -0.1350
  742MOL0     H 2375   4.770   1.204   7.143 -1.4673  0.5757  1.3220
  742MOL0     H 2376   4.476   1.712   7.499  0.3060 -0.5158  1.4465
  742MOL0     H 2377   4.720   1.715   7.555 -1.5597 -4.2340  1.7177
  742MOL0     H 2378   5.182   1.766   7.334  0.4689 -0.6652 -0.8655
  742MOL0     H 2379   5.415   1.786   7.447  2.9431 -1.5126  2.2156
  742MOL0     H 2380   6.280   0.812   7.878  0.1321 -1.2646 -1.4179
  742MOL0     H 2381   6.395   0.916   8.084 -0.9678  0.1242  0.0674
  742MOL0     H 2382   6.207   1.222   8.331 -0.1996 -1.6755 -0.7079
  742MOL0     H 2383   6.217   1.179   8.576  0.4756 -1.5955  1.1439
  742MOL0     H 2384   6.556   1.111   8.799  0.6012  0.9994 -1.9926
  742MOL0     H 2385   6.566   1.276   8.833  0.2803 -0.4351  2.6313
  742MOL0     H 2386   6.363   1.084   8.961 -0.1511 -0.2049 -0.5382
  742MOL0     H 2387   6.376   1.254   8.999  0.2916 -1.3890  3.2369
  742MOL0     H 2388   6.577   1.053   9.059  0.7746  1.4011  0.9195
  742MOL0     H 2389   6.609   1.230   9.037  0.9069 -0.6780  1.2084
  742MOL0     H 2390   6.589   1.180   9.271 -0.1823  1.6151 -0.1063
  742MOL0     H 2391   6.431   1.112   9.243  0.0507  0.9605  1.6879
  742MOL0     H 2392   6.348   1.527   9.282 -0.0191  0.4448  0.2100
  742MOL0     H 2393   6.625   1.306   8.577 -1.0092 -1.7750  2.3748
  742MOL0     H 2394   6.743   1.239   8.349 -1.0684  1.4526  3.4398
  742MOL0     H 2395   6.654   1.320   8.210  3.5540  1.6958  0.5098
  742MOL0     H 2396   6.696   1.406   8.364 -0.4591  0.7202  0.2414
  743MOL0     O 2397   3.009   8.843   3.266  0.5483  0.2793  0.9295
  743MOL0     C 2398   3.049   8.765   3.180  0.7073 -0.2037 -0.3371
  743MOL0     O 2399   3.174   8.770   3.131 -0.2871  0.4235 -0.1136
  743MOL0     C 2400   3.285   8.832   3.189  0.3357 -0.2412  0.2572
  743MOL0     C 2401   3.304   8.972   3.194 -0.0551  0.8209 -0.2587
  743MOL0     C 2402   3.428   9.024   3.231  0.1918 -0.7331 -0.6348
  743MOL0     C 2403   3.528   8.950   3.283 -0.3902  0.1588  0.5092
  743MOL0     O 2404   3.651   9.013   3.300 -0.2855 -0.0309  0.5443
  743MOL0     C 2405   3.707   8.986   3.438 -0.3226 -1.1731 -0.1872
  743MOL0     C 2406   3.783   9.107   3.507  0.0136 -0.0734 -0.0661
  743MOL0     C 2407   3.829   9.079   3.643 -0.4163  0.7523 -0.4205
  743MOL0     C 2408   3.896   9.186   3.706 -0.6825 -0.6936  0.1566
  743MOL0     C 2409   3.921   9.141   3.851  1.1724 -0.5548  0.1533
  743MOL0     C 2410   4.004   9.245   3.935 -0.1088  0.3230 -0.0565
  743MOL0     C 2411   4.042   9.174   4.071 -0.8629 -0.6502  0.6254
  743MOL0     C 2412   3.935   9.174   4.178  0.2865  0.1071 -0.4117
  743MOL0     N 2413   4.000   9.161   4.303 -0.0256  0.3659 -0.1846
  743MOL0     C 2414   3.965   9.055   4.389  0.0123  0.4310  0.6425
  743MOL0     C 2415   4.076   9.057   4.469  0.6422 -0.1856  0.2773
  743MOL0     C 2416   4.103   8.955   4.575 -0.4734 -0.4868  0.1010
  743MOL0     C 2417   4.002   8.984   4.682  0.1802 -0.1006  0.6953
  743MOL0     C 2418   4.024   9.108   4.765 -0.0010  0.1347 -0.7494
  743MOL0     C 2419   3.928   9.133   4.886 -0.4710  0.0081 -0.7090
  743MOL0     O 2420   3.901   9.018   4.972  0.4837 -0.2047  0.0921
  743MOL0     C 2421   3.789   8.945   4.949  0.1392  0.3853  0.4579
  743MOL0     C 2422   3.762   8.855   5.051  0.8931  0.6621 -0.1279
  743MOL0     C 2423   3.651   8.777   5.050 -0.5621 -0.5528  0.0522
  743MOL0     C 2424   3.622   8.684   5.151  0.5891  0.2115 -0.3172
  743MOL0     C 2425   3.566   8.769   4.934 -0.9737  1.1807 -0.0730
  743MOL0     C 2426   3.457   8.679   4.910 -0.1037  0.3865 -0.2904
  743MOL0     O 2427   3.360   8.670   5.006  0.5529 -0.3098  0.3850
  743MOL0     C 2428   3.296   8.545   5.016  0.0362  0.2547 -0.9557
  743MOL0     C 2429   3.309   8.493   5.144 -0.4517  0.1837  0.1276
  743MOL0     C 2430   3.225   8.384   5.181 -0.1301  0.3880 -0.3203
  743MOL0     C 2431   3.145   8.313   5.089 -0.2148 -0.4667  0.7141
  743MOL0     O 2432   3.091   8.195   5.131  0.3662 -0.2823 -0.6144
  743MOL0     C 2433   2.983   8.146   5.054 -0.1815  0.5629  0.0733
  743MOL0     C 2434   2.924   8.032   5.131 -0.5074 -0.2468  0.3398
  743MOL0     C 2435   2.802   7.959   5.059 -0.5501  0.5457  0.3811
  743MOL0     C 2436   2.856   7.865   4.952  0.9881  0.1600 -0.4017
  743MOL0     C 2437   2.743   7.761   4.924 -0.1240 -0.5473  0.2803
  743MOL0     C 2438   2.803   7.641   4.849  0.5665  0.6591 -0.1313
  743MOL0     C 2439   2.901   7.561   4.934  0.5587 -0.0545 -0.8370
  743MOL0     C 2440   2.928   7.413   4.880 -0.5756 -0.9121 -0.6929
  743MOL0    Cl 2441   2.774   7.320   4.927 -0.1135  0.3632  0.3461
  743MOL0     C 2442   3.142   8.365   4.958 -0.4537 -0.4747  0.0085
  743MOL0     C 2443   3.221   8.481   4.919 -0.3762  0.8796 -0.1458
  743MOL0     O 2444   3.447   8.620   4.800 -0.3830  0.4336  0.4389
  743MOL0     C 2445   3.595   8.858   4.827  0.1754 -0.4799 -0.4448
  743MOL0     C 2446   3.697   8.959   4.841 -0.5075 -0.1392 -0.2506
  743MOL0     N 2447   4.157   9.165   4.445 -0.1339  0.1419 -0.2225
  743MOL0     N 2448   4.105   9.229   4.341 -0.0133  0.3156  0.0199
  743MOL0     C 2449   3.514   8.816   3.289  0.5884 -0.6166  0.1860
  743MOL0     C 2450   3.390   8.753   3.242  0.2938  0.8583  0.5391
  743MOL0     C 2451   2.956   8.659   3.136 -0.6332  0.6437 -0.2592
  743MOL0     C 2452   3.027   8.546   3.082 -0.1321  0.5109  0.1874
  743MOL0     C 2453   2.948   8.445   3.029 -0.4995  0.3097 -0.3098
  743MOL0     C 2454   2.805   8.440   3.031 -0.7639  1.1001  0.6826
  743MOL0     O 2455   2.754   8.312   2.999  0.1854  0.1905  0.8898
  743MOL0     C 2456   2.612   8.285   3.022  0.0927 -0.9748 -0.3673
  743MOL0     C 2457   2.575   8.162   2.937  0.6503 -0.9408 -0.3706
  743MOL0     C 2458   2.562   8.204   2.792  0.6285  0.7886 -0.0276
  743MOL0     C 2459   2.693   8.176   2.708  0.1835  0.1446 -0.2968
  743MOL0     C 2460   2.664   8.187   2.567 -0.3202 -0.8062 -0.1862
  743MOL0     C 2461   2.624   8.199   2.451 -0.6847 -0.7163 -0.1255
  743MOL0     C 2462   2.748   8.548   3.087 -0.1204  0.0214 -0.3225
  743MOL0     C 2463   2.813   8.657   3.146 -0.7280  0.2524 -0.8999
  743MOL0     C 2464   2.733   8.773   3.208  0.4553  0.1388 -0.3552
  743MOL0     H 2465   3.229   9.042   3.158 -0.7827 -0.9507 -2.4327
  743MOL0     H 2466   3.434   9.132   3.223 -3.1168 -0.4197 -0.5323
  743MOL0     H 2467   3.779   8.904   3.432  0.0859 -0.7048 -2.6796
  743MOL0     H 2468   3.631   8.954   3.510  0.8249 -0.8569  1.2290
  743MOL0     H 2469   3.870   9.114   3.441 -0.3170 -1.6783 -0.7128
  743MOL0     H 2470   3.713   9.190   3.519  0.6935  0.4454  0.3956
  743MOL0     H 2471   3.737   9.041   3.688 -2.7746  1.6908 -3.9835
  743MOL0     H 2472   3.897   8.993   3.633 -0.3320  0.9362 -1.5781
  743MOL0     H 2473   3.988   9.218   3.657 -1.8877  0.7054 -1.2988
  743MOL0     H 2474   3.828   9.271   3.694 -0.8868 -0.9352 -0.4554
  743MOL0     H 2475   3.974   9.045   3.849 -1.1336 -1.8929 -0.7483
  743MOL0     H 2476   3.822   9.124   3.893  0.5514 -0.4248 -1.2058
  743MOL0     H 2477   4.094   9.265   3.876  1.7097 -0.1662  2.3746
  743MOL0     H 2478   3.961   9.345   3.947 -1.0389  0.0770 -1.1741
  743MOL0     H 2479   4.137   9.224   4.092 -1.7580  1.6316 -0.3642
  743MOL0     H 2480   4.061   9.067   4.056  1.0504  0.0222 -3.0292
  743MOL0     H 2481   3.886   9.272   4.181  1.2673  0.6220 -0.5495
  743MOL0     H 2482   3.852   9.104   4.169 -1.1855  1.2567  2.8693
  743MOL0     H 2483   3.891   8.977   4.377  1.3360 -0.8600  0.5000
  743MOL0     H 2484   4.204   8.965   4.615 -0.6177  1.2925  0.0641
  743MOL0     H 2485   4.086   8.855   4.533 -2.4822 -0.5268  0.8896
  743MOL0     H 2486   3.906   8.975   4.630  1.8231 -2.6868 -2.2329
  743MOL0     H 2487   4.020   8.888   4.732 -4.3644 -1.5372  0.0403
  743MOL0     H 2488   4.128   9.107   4.800  0.2478 -0.9165 -1.4764
  743MOL0     H 2489   4.008   9.195   4.701 -0.3815  1.9016  1.6014
  743MOL0     H 2490   3.968   9.218   4.941 -0.4494  0.1830 -0.9950
  743MOL0     H 2491   3.834   9.178   4.852 -0.6788  0.1122 -0.0093
  743MOL0     H 2492   3.831   8.854   5.134  0.4285  2.5905  0.3356
  743MOL0     H 2493   3.620   8.583   5.110 -0.3574 -0.1357  0.5342
  743MOL0     H 2494   3.521   8.696   5.193 -0.1609 -0.9205 -1.7157
  743MOL0     H 2495   3.695   8.693   5.231  0.9118  2.0701 -0.7744
  743MOL0     H 2496   3.369   8.532   5.226 -4.5918  3.0101  2.2131
  743MOL0     H 2497   3.223   8.345   5.282 -1.1956  0.7960 -0.1701
  743MOL0     H 2498   2.902   8.218   5.038 -0.8895 -0.4909 -1.2705
  743MOL0     H 2499   3.010   8.099   4.958 -0.6108  1.7254 -0.6403
  743MOL0     H 2500   3.010   7.965   5.140 -0.2103 -0.2192 -1.8678
  743MOL0     H 2501   2.898   8.060   5.234 -0.1921 -1.7514  0.8688
  743MOL0     H 2502   2.732   8.020   5.001 -0.2073 -0.2756 -0.9320
  743MOL0     H 2503   2.746   7.916   5.143 -0.8254  1.7132  0.8174
  743MOL0     H 2504   2.941   7.816   4.999 -0.1958  0.4240  2.2417
  743MOL0     H 2505   2.880   7.933   4.869 -0.6868  0.5815 -0.5852
  743MOL0     H 2506   2.698   7.727   5.018  1.7178 -1.2555  0.9582
  743MOL0     H 2507   2.660   7.801   4.865 -2.4428 -1.9862  2.3644
  743MOL0     H 2508   2.860   7.672   4.761  0.6665 -2.1637 -1.1535
  743MOL0     H 2509   2.717   7.579   4.822  1.2344 -0.7891  0.9248
  743MOL0     H 2510   2.872   7.558   5.040 -1.0027 -0.2323 -1.2507
  743MOL0     H 2511   3.000   7.608   4.941  0.1450  0.8818 -1.1953
  743MOL0     H 2512   3.010   7.373   4.941  0.0063 -0.1588 -0.9712
  743MOL0     H 2513   2.961   7.413   4.776  0.4669 -0.8053 -0.3799
  743MOL0     H 2514   3.104   8.309   4.873 -1.2297 -1.7176  1.1275
  743MOL0     H 2515   3.231   8.521   4.819 -0.4151 -1.1087 -0.9865
  743MOL0     H 2516   3.526   8.857   4.743 -0.0161  1.9507 -0.3844
  743MOL0     H 2517   3.705   9.029   4.758  2.3176  1.3590  1.1561
  743MOL0     H 2518   3.596   8.757   3.330  2.8669  1.7605 -0.6156
  743MOL0     H 2519   3.377   8.645   3.239 -3.1454  1.2014 -1.4814
  743MOL0     H 2520   3.134   8.529   3.083 -0.3088 -0.7434  0.5196
  743MOL0     H 2521   3.008   8.363   2.991  0.5708  1.3814 -0.9854
  743MOL0     H 2522   2.606   8.264   3.129  0.7869  1.6192  0.2421
  743MOL0     H 2523   2.546   8.369   3.001  3.6659  2.4457  0.8299
  743MOL0     H 2524   2.481   8.116   2.969  1.2105 -2.1383 -0.4093
  743MOL0     H 2525   2.652   8.085   2.948  1.1207 -0.7826 -2.3395
  743MOL0     H 2526   2.485   8.146   2.741  0.2423  0.9122  0.4127
  743MOL0     H 2527   2.542   8.312   2.788  0.2554  0.7175 -3.3716
  743MOL0     H 2528   2.715   8.072   2.736 -2.6877 -0.4428  0.0901
  743MOL0     H 2529   2.781   8.238   2.728  1.5642 -1.1469 -2.0323
  743MOL0     H 2530   2.601   8.214   2.347 -3.3337 -2.2481  0.1368
  743MOL0     H 2531   2.640   8.539   3.090  0.0424 -2.3274  1.3505
  743MOL0     H 2532   2.634   8.762   3.164 -0.1773  2.7635  0.2079
  743MOL0     H 2533   2.734   8.772   3.317  0.1357  2.6324 -0.2709
  743MOL0     H 2534   2.768   8.873   3.180 -0.1157  0.9708  1.7108
  744MOL0     O 2535   3.700   7.176  10.899 -0.0967 -0.2401 -0.4024
  744MOL0     C 2536   3.735   7.246  10.991  0.9474 -0.5374 -0.5919
  744MOL0     O 2537   3.699   7.227  11.127 -0.8968  0.0065  0.2494
  744MOL0     C 2538   3.586   7.159  11.183 -0.0472 -1.1812 -0.9139
  744MOL0     C 2539   3.500   7.068  11.118  0.1378  0.4302  0.2956
  744MOL0     C 2540   3.401   6.999  11.177  0.0881  0.2965 -0.1525
  744MOL0     C 2541   3.392   7.001  11.322 -0.5539  0.3201  0.5773
  744MOL0     O 2542   3.300   6.920  11.388  0.5393 -0.6175 -0.0363
  744MOL0     C 2543   3.281   6.779  11.352 -0.0029 -0.4759 -0.7556
  744MOL0     C 2544   3.223   6.709  11.481 -0.1245  0.6862 -0.5789
  744MOL0     C 2545   3.242   6.555  11.462 -0.8060  0.6966 -0.5455
  744MOL0     C 2546   3.375   6.490  11.514  0.9793  0.5516  1.3848
  744MOL0     C 2547   3.390   6.343  11.489 -0.2794  0.4403  0.2328
  744MOL0     C 2548   3.506   6.269  11.558  0.2774 -0.0819 -0.5846
  744MOL0     C 2549   3.637   6.340  11.523 -0.3305 -1.0851 -0.3009
  744MOL0     C 2550   3.754   6.259  11.590 -0.0728 -0.4211 -0.3830
  744MOL0     N 2551   3.750   6.116  11.560  0.2967 -0.1344 -1.1714
  744MOL0     C 2552   3.725   6.010  11.656  0.6576  0.1942  1.3885
  744MOL0     C 2553   3.731   5.894  11.578  0.1114  0.0540 -0.7539
  744MOL0     C 2554   3.739   5.750  11.623  0.5251 -0.0507  0.6405
  744MOL0     C 2555   3.682   5.700  11.761 -0.3039  0.2681 -0.8986
  744MOL0     C 2556   3.531   5.708  11.760 -0.1596  1.3136 -0.8221
  744MOL0     C 2557   3.467   5.673  11.896  0.7353  0.0111 -0.5417
  744MOL0     O 2558   3.518   5.744  12.006  0.3157 -0.4807  0.2955
  744MOL0     C 2559   3.435   5.805  12.094 -0.1209 -0.9790  0.1153
  744MOL0     C 2560   3.314   5.760  12.149  0.4081  0.1636  0.9890
  744MOL0     C 2561   3.244   5.824  12.252  0.2808 -1.0589 -0.7401
  744MOL0     C 2562   3.123   5.747  12.312 -0.7026 -0.0950 -0.1813
  744MOL0     C 2563   3.293   5.947  12.307 -0.3461 -0.1638  0.1137
  744MOL0     C 2564   3.221   6.035  12.401 -0.5185 -0.3616  0.2024
  744MOL0     O 2565   3.082   6.017  12.419  0.3699  0.2345 -0.0420
  744MOL0     C 2566   3.026   6.107  12.502 -0.3079 -0.0826  0.2361
  744MOL0     C 2567   3.033   6.244  12.502 -0.5456 -0.2524 -0.9716
  744MOL0     C 2568   2.965   6.324  12.596 -0.3568  0.1792  0.7230
  744MOL0     C 2569   2.869   6.268  12.685  0.1519  0.4225  0.4814
  744MOL0     O 2570   2.781   6.335  12.769 -0.0656 -0.3674 -0.0359
  744MOL0     C 2571   2.767   6.474  12.759  0.0602  0.1248 -0.0355
  744MOL0     C 2572   2.640   6.533  12.824  0.4905  0.0181  0.2333
  744MOL0     C 2573   2.620   6.484  12.969  0.1088  0.2640 -0.3489
  744MOL0     C 2574   2.538   6.586  13.056 -0.5096  0.5744  0.1150
  744MOL0     C 2575   2.523   6.556  13.212 -0.2153 -0.5143  0.4688
  744MOL0     C 2576   2.446   6.418  13.243 -0.9538 -1.2924  0.6506
  744MOL0     C 2577   2.385   6.411  13.380  0.1082 -0.2583 -0.4317
  744MOL0     C 2578   2.338   6.272  13.425 -0.5630  0.2259  0.4471
  744MOL0    Cl 2579   2.278   6.297  13.586 -0.0596  0.2603 -0.4912
  744MOL0     C 2580   2.851   6.132  12.670 -0.3773  0.0611  0.2624
  744MOL0     C 2581   2.927   6.053  12.583 -0.2056 -0.1768 -0.0908
  744MOL0     O 2582   3.294   6.114  12.464 -0.1558 -0.0398 -0.8618
  744MOL0     C 2583   3.424   5.986  12.263  0.7778  0.1945 -0.1286
  744MOL0     C 2584   3.492   5.911  12.164 -0.9252 -0.7846  0.8781
  744MOL0     N 2585   3.732   5.930  11.445 -0.3513  0.8085  0.4741
  744MOL0     N 2586   3.753   6.059  11.437 -0.2763 -0.6441 -0.4731
  744MOL0     C 2587   3.472   7.095  11.391 -0.4021 -0.3697  0.6347
  744MOL0     C 2588   3.577   7.169  11.323 -0.1565  0.2565  0.5061
  744MOL0     C 2589   3.809   7.370  10.969 -0.4673  0.5590  0.1003
  744MOL0     C 2590   3.904   7.373  10.873  0.6333 -0.3209 -0.3073
  744MOL0     C 2591   3.992   7.468  10.847 -0.5910  0.2001  0.2556
  744MOL0     C 2592   3.975   7.589  10.919 -0.6027 -0.0584  0.2318
  744MOL0     O 2593   4.043   7.713  10.899  0.8256  0.3618 -0.0042
  744MOL0     C 2594   4.151   7.737  10.808 -0.1466  0.0003 -0.1072
  744MOL0     C 2595   4.165   7.882  10.767 -0.3570  1.0528 -0.5409
  744MOL0     C 2596   4.059   7.921  10.663  0.3312  1.1106  0.3543
  744MOL0     C 2597   4.080   8.058  10.605 -0.2624  0.6191  0.5588
  744MOL0     C 2598   4.195   8.052  10.503 -0.3312 -0.6841  0.0982
  744MOL0     C 2599   4.275   8.067  10.421 -0.5785 -0.3575  0.2531
  744MOL0     C 2600   3.865   7.600  11.008  0.9816 -0.1893  0.1735
  744MOL0     C 2601   3.779   7.500  11.030 -0.3735  0.6745 -0.7691
  744MOL0     C 2602   3.664   7.519  11.119  0.3493 -0.4290  0.4021
  744MOL0     H 2603   3.521   7.044  11.014  1.0459  0.7889  0.3888
  744MOL0     H 2604   3.361   6.915  11.120  1.1039  1.8549 -3.4188
  744MOL0     H 2605   3.370   6.733  11.310  0.9104  1.2896 -0.8642
  744MOL0     H 2606   3.188   6.769  11.296 -0.6579 -0.5402  0.2990
  744MOL0     H 2607   3.266   6.744  11.575 -1.6870  1.1098 -0.0009
  744MOL0     H 2608   3.115   6.724  11.474 -0.4939  0.7369  3.4214
  744MOL0     H 2609   3.152   6.514  11.509 -1.2610 -0.5125 -2.3839
  744MOL0     H 2610   3.238   6.538  11.354 -1.7235  0.5013 -0.4875
  744MOL0     H 2611   3.452   6.541  11.455 -0.4041  2.0653  0.8088
  744MOL0     H 2612   3.394   6.505  11.621  1.6852  1.4784  1.1404
  744MOL0     H 2613   3.415   6.339  11.382 -3.5305 -1.4908 -0.5859
  744MOL0     H 2614   3.300   6.285  11.512 -2.4122  2.8242 -1.5416
  744MOL0     H 2615   3.484   6.249  11.663  3.1536  0.0403  0.1288
  744MOL0     H 2616   3.509   6.168  11.515  0.7859  0.5306 -2.0725
  744MOL0     H 2617   3.621   6.443  11.558  0.7639  0.0046 -2.7389
  744MOL0     H 2618   3.663   6.341  11.416  0.4718 -1.5316 -0.1171
  744MOL0     H 2619   3.850   6.300  11.558 -1.2048  1.7149 -1.1955
  744MOL0     H 2620   3.730   6.259  11.697 -0.3371 -4.1512 -0.3057
  744MOL0     H 2621   3.723   6.024  11.763 -0.0274 -2.4031  1.7674
  744MOL0     H 2622   3.844   5.720  11.619  0.5977 -0.3702  3.4633
  744MOL0     H 2623   3.690   5.691  11.545  1.2656  0.6643 -0.3972
  744MOL0     H 2624   3.720   5.601  11.788 -0.9437 -1.0183 -4.2234
  744MOL0     H 2625   3.722   5.763  11.842  1.9036 -0.8359 -1.0317
  744MOL0     H 2626   3.490   5.807  11.739 -2.0510  0.6552 -0.4599
  744MOL0     H 2627   3.491   5.641  11.683 -2.2005  1.8630 -0.3148
  744MOL0     H 2628   3.358   5.682  11.887  0.4874 -2.3395 -0.6018
  744MOL0     H 2629   3.480   5.564  11.898 -0.9620 -0.2623 -1.6836
  744MOL0     H 2630   3.287   5.662  12.111 -0.5767  1.0914 -0.8252
  744MOL0     H 2631   3.127   5.642  12.282 -0.0019 -1.3256  3.6317
  744MOL0     H 2632   3.023   5.786  12.294 -1.8835 -1.0380  3.4549
  744MOL0     H 2633   3.121   5.753  12.422 -1.5769 -0.3741 -0.1781
  744MOL0     H 2634   3.106   6.292  12.437 -2.4373  3.0780 -0.8994
  744MOL0     H 2635   2.976   6.432  12.595 -0.4759  0.3085 -3.4199
  744MOL0     H 2636   2.850   6.515  12.818  0.6503 -1.4318  0.2665
  744MOL0     H 2637   2.773   6.508  12.656  0.7468 -0.4463 -0.1841
  744MOL0     H 2638   2.653   6.642  12.820 -0.6275  0.1728  0.5781
  744MOL0     H 2639   2.555   6.500  12.763  3.0206 -1.4888 -2.7816
  744MOL0     H 2640   2.715   6.465  13.019 -0.0036  1.1768  0.2424
  744MOL0     H 2641   2.566   6.389  12.977  1.7593 -0.5460  3.0736
  744MOL0     H 2642   2.435   6.592  13.019 -1.6826  1.0340  3.1086
  744MOL0     H 2643   2.579   6.685  13.039  1.1716  0.2883  2.0472
  744MOL0     H 2644   2.620   6.574  13.261 -1.3493  0.6413  2.4378
  744MOL0     H 2645   2.460   6.630  13.261  0.4537 -0.9395  2.0522
  744MOL0     H 2646   2.509   6.332  13.218 -0.4915 -0.0856 -2.8392
  744MOL0     H 2647   2.370   6.416  13.164  0.5461  1.6180 -1.0348
  744MOL0     H 2648   2.296   6.474  13.387  0.7196  1.0219 -2.9386
  744MOL0     H 2649   2.451   6.447  13.459 -1.3834 -0.8759  1.1450
  744MOL0     H 2650   2.424   6.205  13.436 -0.7557 -0.2129 -0.6162
  744MOL0     H 2651   2.266   6.222  13.361  0.3001 -0.2461 -0.1769
  744MOL0     H 2652   2.786   6.092  12.747  0.1814  1.6460  1.6053
  744MOL0     H 2653   2.915   5.945  12.581 -1.9501 -0.0228 -2.2039
  744MOL0     H 2654   3.468   6.075  12.307  1.3090 -0.6596  1.1442
  744MOL0     H 2655   3.589   5.948  12.134 -2.1357  2.6584  0.7255
  744MOL0     H 2656   3.453   7.118  11.495  0.1986  0.2050  0.6259
  744MOL0     H 2657   3.635   7.247  11.371 -2.5523  1.4230  1.6903
  744MOL0     H 2658   3.933   7.280  10.825  2.5456  0.1916 -0.2184
  744MOL0     H 2659   4.075   7.459  10.777 -1.1929 -1.0078 -0.3272
  744MOL0     H 2660   4.236   7.710  10.871 -1.3783  1.1888  2.1521
  744MOL0     H 2661   4.132   7.684  10.714 -1.6207  0.1898  0.0595
  744MOL0     H 2662   4.264   7.879  10.720 -0.8083  1.6209 -1.5685
  744MOL0     H 2663   4.162   7.952  10.850 -2.8263 -0.6750  0.9218
  744MOL0     H 2664   4.062   7.852  10.578 -0.4970  1.5809 -0.0680
  744MOL0     H 2665   3.959   7.900  10.704  0.1084 -0.3094 -0.8215
  744MOL0     H 2666   4.103   8.137  10.678 -1.8584  2.5583 -0.9017
  744MOL0     H 2667   3.992   8.088  10.547  1.0509  2.8666 -0.4265
  744MOL0     H 2668   4.353   8.071  10.348 -1.3694  0.8679 -0.5543
  744MOL0     H 2669   3.864   7.701  11.047  0.5096 -0.1697  0.1127
  744MOL0     H 2670   3.585   7.449  11.090  1.2470 -1.3789  0.1984
  744MOL0     H 2671   3.689   7.499  11.224  0.6277 -1.0255  0.2284
  744MOL0     H 2672   3.619   7.618  11.109  1.3992  0.0040 -0.1648
  745MOL0     O 2673   2.393   4.296   3.722  0.0758  0.0672  0.4600
  745MOL0     C 2674   2.485   4.271   3.793 -0.3116  0.9451 -0.2804
  745MOL0     O 2675   2.587   4.352   3.824  0.0692 -0.3227  0.2313
  745MOL0     C 2676   2.572   4.492   3.815 -0.1233  0.5183 -0.4758
  745MOL0     C 2677   2.564   4.557   3.694 -0.4961  0.6571  0.8164
  745MOL0     C 2678   2.550   4.692   3.686  0.6494 -0.0173 -0.0593
  745MOL0     C 2679   2.533   4.767   3.793 -0.4543  0.0273 -0.0938
  745MOL0     O 2680   2.490   4.897   3.779  0.4290 -0.1136 -0.6052
  745MOL0     C 2681   2.355   4.922   3.835  0.2636  0.1047 -0.6191
  745MOL0     C 2682   2.274   5.013   3.749  0.3543  0.3652 -0.3053
  745MOL0     C 2683   2.342   5.157   3.732  0.0186  0.2534 -1.0209
  745MOL0     C 2684   2.256   5.266   3.669 -0.0163 -0.9596  0.7186
  745MOL0     C 2685   2.343   5.402   3.646  0.0959  0.8016  0.1411
  745MOL0     C 2686   2.415   5.455   3.770  0.6821  0.0723 -0.1004
  745MOL0     C 2687   2.532   5.545   3.723  0.8754  0.2532 -0.0717
  745MOL0     C 2688   2.589   5.642   3.831 -0.2944  0.2815 -0.1405
  745MOL0     N 2689   2.679   5.729   3.760 -0.0400 -0.0868 -0.5551
  745MOL0     C 2690   2.815   5.725   3.776 -0.8416  0.1890  0.0993
  745MOL0     C 2691   2.857   5.815   3.681 -0.5081 -0.1879 -0.5008
  745MOL0     C 2692   2.997   5.859   3.667  0.3474 -0.2903 -0.0357
  745MOL0     C 2693   3.024   5.958   3.782  0.6764  0.1044 -0.1726
  745MOL0     C 2694   3.131   6.058   3.734  0.2097 -0.0929 -0.5858
  745MOL0     C 2695   3.152   6.170   3.843 -0.0217  0.0158  0.3297
  745MOL0     O 2696   3.281   6.225   3.826 -0.8990 -0.8727  0.1459
  745MOL0     C 2697   3.299   6.347   3.892  0.0418  0.3551  0.5575
  745MOL0     C 2698   3.265   6.364   4.027 -0.7766 -0.3932  0.7565
  745MOL0     C 2699   3.282   6.481   4.100 -0.5183  0.2747  1.2878
  745MOL0     C 2700   3.212   6.506   4.232  0.2334 -0.6260  0.3140
  745MOL0     C 2701   3.369   6.575   4.033 -0.4918  1.0583  0.1012
  745MOL0     C 2702   3.419   6.699   4.113  0.3469 -0.1874 -0.3756
  745MOL0     O 2703   3.434   6.811   4.036 -0.8263  0.1867  0.2150
  745MOL0     C 2704   3.493   6.928   4.080 -0.1042  0.3208 -1.0939
  745MOL0     C 2705   3.557   6.962   4.207  0.4691 -0.1629 -0.5789
  745MOL0     C 2706   3.622   7.094   4.222  0.5445 -0.0088 -0.6378
  745MOL0     C 2707   3.623   7.183   4.115  0.0089  0.5584  0.2700
  745MOL0     O 2708   3.683   7.302   4.121  0.3956 -0.6326  0.3152
  745MOL0     C 2709   3.702   7.376   4.243 -0.1053 -0.6693 -0.3919
  745MOL0     C 2710   3.748   7.520   4.225  0.3961 -0.5410 -0.2110
  745MOL0     C 2711   3.631   7.606   4.171 -0.8650  0.8774 -0.0347
  745MOL0     C 2712   3.647   7.751   4.199 -0.2873  0.1782  0.2077
  745MOL0     C 2713   3.542   7.833   4.117  0.5668  0.0653 -0.6848
  745MOL0     C 2714   3.401   7.802   4.150 -0.1226  0.4834  0.0388
  745MOL0     C 2715   3.303   7.919   4.118 -0.8089 -0.2934 -0.6694
  745MOL0     C 2716   3.176   7.872   4.070 -0.4483 -0.4213  0.5125
  745MOL0    Cl 2717   3.062   8.003   4.037 -0.1920 -0.0383 -0.2137
  745MOL0     C 2718   3.564   7.146   3.997  0.0674  0.3103  0.8160
  745MOL0     C 2719   3.498   7.027   3.976 -0.2656  0.0539  0.2951
  745MOL0     O 2720   3.478   6.685   4.218  0.7679  0.1280 -0.0309
  745MOL0     C 2721   3.399   6.560   3.901  0.8453  0.2511 -0.2815
  745MOL0     C 2722   3.364   6.448   3.826  0.8669  0.3882 -0.2276
  745MOL0     N 2723   2.746   5.866   3.607 -0.9166 -0.2246  0.3605
  745MOL0     N 2724   2.643   5.820   3.675 -0.5618  0.6653  0.4468
  745MOL0     C 2725   2.569   4.706   3.920 -0.5073  0.6042 -0.6744
  745MOL0     C 2726   2.588   4.566   3.932 -0.2414  0.0041  0.7273
  745MOL0     C 2727   2.483   4.131   3.854  0.5594 -0.1339  0.4751
  745MOL0     C 2728   2.607   4.081   3.895 -0.2786  1.0645 -0.6299
  745MOL0     C 2729   2.618   3.949   3.937 -1.0024  0.1105 -0.5830
  745MOL0     C 2730   2.508   3.864   3.943 -0.0055 -0.0622  1.0935
  745MOL0     O 2731   2.516   3.735   3.984  0.4427  0.1902 -0.3892
  745MOL0     C 2732   2.455   3.717   4.118  0.0401  0.5293  0.2934
  745MOL0     C 2733   2.564   3.707   4.231  0.0601  0.4036  0.3904
  745MOL0     C 2734   2.511   3.733   4.375 -0.6452  0.6793  0.9182
  745MOL0     C 2735   2.467   3.599   4.443  0.1463  0.1224 -0.0624
  745MOL0     C 2736   2.587   3.526   4.492  0.1624 -0.0975 -0.2723
  745MOL0     C 2737   2.691   3.467   4.516 -0.1992 -0.5176  0.3917
  745MOL0     C 2738   2.384   3.905   3.893 -0.3969  0.1080  0.4507
  745MOL0     C 2739   2.370   4.040   3.851  0.7434  0.2338  0.3476
  745MOL0     C 2740   2.237   4.084   3.806  0.7618 -0.4007 -0.4186
  745MOL0     H 2741   2.580   4.507   3.598 -2.7696  2.8754 -0.8528
  745MOL0     H 2742   2.544   4.727   3.583  2.2019 -1.9154 -0.8606
  745MOL0     H 2743   2.356   4.950   3.941 -2.2850 -3.4924  0.5652
  745MOL0     H 2744   2.294   4.830   3.838  2.9936 -1.8511 -1.1984
  745MOL0     H 2745   2.272   4.969   3.648 -0.4876  0.3421 -0.2874
  745MOL0     H 2746   2.173   5.031   3.786 -0.0608 -1.9087 -0.1835
  745MOL0     H 2747   2.375   5.183   3.833  0.0183  0.3649 -1.0497
  745MOL0     H 2748   2.432   5.144   3.670  0.7959 -3.3030  0.5686
  745MOL0     H 2749   2.208   5.238   3.574 -0.1761 -1.7414  1.0227
  745MOL0     H 2750   2.172   5.298   3.730 -1.6271  1.9566 -2.7055
  745MOL0     H 2751   2.277   5.479   3.606  1.4580  2.8198  1.5878
  745MOL0     H 2752   2.412   5.368   3.568 -0.4270  1.2586 -0.5291
  745MOL0     H 2753   2.344   5.508   3.835 -0.9599 -2.0364 -0.0506
  745MOL0     H 2754   2.464   5.379   3.832  1.0734  0.7981  0.4996
  745MOL0     H 2755   2.507   5.600   3.632  1.6111 -1.8942 -1.6442
  745MOL0     H 2756   2.607   5.474   3.687 -1.5476 -2.0056 -1.0230
  745MOL0     H 2757   2.498   5.693   3.864 -2.2632 -2.3145 -1.2747
  745MOL0     H 2758   2.637   5.584   3.911  0.1400  4.0330  2.6260
  745MOL0     H 2759   2.874   5.667   3.846 -1.0503  0.3426  0.4033
  745MOL0     H 2760   3.010   5.906   3.569 -1.6486 -1.5029 -0.9354
  745MOL0     H 2761   3.070   5.777   3.670  2.4245  1.4788  1.9170
  745MOL0     H 2762   2.941   6.025   3.807  1.4893  0.6083  1.3185
  745MOL0     H 2763   3.048   5.910   3.878  0.8319  1.0231  0.2684
  745MOL0     H 2764   3.222   5.998   3.722 -0.2893 -0.7728 -1.0307
  745MOL0     H 2765   3.107   6.101   3.637  0.1310  1.9250  0.2869
  745MOL0     H 2766   3.076   6.248   3.835  0.4147  0.5418  1.2156
  745MOL0     H 2767   3.128   6.126   3.941 -1.2705 -2.2748 -0.9238
  745MOL0     H 2768   3.218   6.278   4.073 -0.6717 -1.9408 -1.8085
  745MOL0     H 2769   3.113   6.550   4.223  1.2564  1.5299 -1.4471
  745MOL0     H 2770   3.262   6.581   4.294 -1.7607 -0.3465  1.6657
  745MOL0     H 2771   3.201   6.415   4.291 -3.3211  0.7004  1.9966
  745MOL0     H 2772   3.579   6.889   4.284  2.2289 -0.0809 -0.9571
  745MOL0     H 2773   3.675   7.108   4.316 -2.4383 -0.3853  1.2173
  745MOL0     H 2774   3.614   7.389   4.307  0.5559  1.8523  0.1084
  745MOL0     H 2775   3.772   7.322   4.308  1.6167  0.0154 -1.6098
  745MOL0     H 2776   3.783   7.566   4.318 -1.4740  2.0701 -0.6686
  745MOL0     H 2777   3.835   7.528   4.159 -0.4574  1.5262 -1.1707
  745MOL0     H 2778   3.540   7.575   4.224  0.4799 -1.3057  1.1254
  745MOL0     H 2779   3.619   7.601   4.062  2.2362 -0.6356 -0.4214
  745MOL0     H 2780   3.751   7.780   4.180  0.9306 -3.1566  1.1153
  745MOL0     H 2781   3.630   7.763   4.307 -3.0051  1.4753 -0.2883
  745MOL0     H 2782   3.554   7.940   4.136  1.0647 -0.0397 -0.3621
  745MOL0     H 2783   3.556   7.824   4.009  1.3837  1.5256 -0.7258
  745MOL0     H 2784   3.399   7.769   4.254 -1.2608 -1.8470 -0.6628
  745MOL0     H 2785   3.375   7.715   4.090  0.7021 -1.2954  2.1022
  745MOL0     H 2786   3.356   7.994   4.059  0.0041  1.8999  2.5426
  745MOL0     H 2787   3.271   7.976   4.206 -0.5331  1.3673 -1.6158
  745MOL0     H 2788   3.122   7.809   4.142 -1.1727 -1.0455 -0.5450
  745MOL0     H 2789   3.180   7.817   3.975  1.4509  1.0090 -0.3123
  745MOL0     H 2790   3.565   7.207   3.907  1.3174 -0.9421 -0.0498
  745MOL0     H 2791   3.465   7.006   3.875 -2.0629 -1.9369  1.2089
  745MOL0     H 2792   3.462   6.640   3.863 -1.4233  1.5780 -1.4572
  745MOL0     H 2793   3.407   6.442   3.727  0.2284 -2.2709 -0.4191
  745MOL0     H 2794   2.559   4.775   4.004  0.9501  0.0211  0.0194
  745MOL0     H 2795   2.616   4.507   4.019 -0.0049  1.7791  1.8947
  745MOL0     H 2796   2.698   4.140   3.900  2.1242 -2.3417 -0.3974
  745MOL0     H 2797   2.715   3.910   3.967 -2.5105 -2.7220  0.9971
  745MOL0     H 2798   2.388   3.800   4.140  1.1509  1.6945 -0.6027
  745MOL0     H 2799   2.394   3.627   4.105 -1.8757  2.1056 -2.7792
  745MOL0     H 2800   2.637   3.787   4.215 -0.5911  0.7553 -0.9682
  745MOL0     H 2801   2.611   3.608   4.238 -1.6112 -0.2859  2.9269
  745MOL0     H 2802   2.568   3.793   4.447 -0.2132  1.1125  0.2278
  745MOL0     H 2803   2.420   3.794   4.376  0.8900  3.1015  1.5031
  745MOL0     H 2804   2.406   3.547   4.369  0.3031  2.0315 -1.6379
  745MOL0     H 2805   2.410   3.631   4.530  0.2425  3.9636 -1.2095
  745MOL0     H 2806   2.771   3.409   4.559 -2.4450 -3.6420  0.7321
  745MOL0     H 2807   2.308   3.827   3.880  1.6730 -1.8943 -0.3036
  745MOL0     H 2808   2.243   4.128   3.706  0.3107  0.4466 -0.0778
  745MOL0     H 2809   2.164   4.002   3.813  0.6429 -0.1725  4.4735
  745MOL0     H 2810   2.197   4.163   3.870  1.1036  0.1016 -0.8208
  746MOL0     O 2811  10.604   2.167   8.479  0.0412  0.1228  0.3480
  746MOL0     C 2812  10.579   2.045   8.504  0.5362 -0.9231  0.3794
  746MOL0     O 2813  10.554   1.995   8.633 -0.7156 -0.6737 -0.1111
  746MOL0     C 2814  10.552   2.069   8.748  0.0005 -0.0276  0.1597
  746MOL0     C 2815  10.562   2.000   8.874  0.1804  0.4324  0.2527
  746MOL0     C 2816  10.538   2.055   8.997 -0.2277 -0.3903 -0.9505
  746MOL0     C 2817  10.509   2.193   9.011 -0.1816  0.6893  0.5521
  746MOL0     O 2818  10.494   2.230   9.143  0.3981  0.3363 -0.2513
  746MOL0     C 2819  10.396   2.342   9.171 -1.4617  0.2046  0.3003
  746MOL0     C 2820  10.448   2.410   9.306  0.1697  0.3324 -0.0997
  746MOL0     C 2821  10.428   2.335   9.441 -1.6840 -0.2027  0.1612
  746MOL0     C 2822  10.317   2.234   9.451  0.2854 -0.2661  1.0706
  746MOL0     C 2823  10.324   2.114   9.543  0.3998 -0.7690  0.9768
  746MOL0     C 2824  10.319   2.166   9.684 -0.6601  0.0470 -0.1215
  746MOL0     C 2825  10.331   2.061   9.797  0.0409 -1.0423 -0.2228
  746MOL0     C 2826  10.210   1.971   9.799 -0.3722  1.3859 -0.0704
  746MOL0     N 2827  10.081   2.042   9.806  0.3415 -0.4904  0.0928
  746MOL0     C 2828  10.021   2.084   9.923  0.0596  0.3151  0.2371
  746MOL0     C 2829   9.910   2.145   9.882 -0.7716  0.3674  1.1593
  746MOL0     C 2830   9.793   2.186   9.970 -1.2654 -0.3076  0.3767
  746MOL0     C 2831   9.853   2.215  10.110 -0.1214 -0.3607  0.7983
  746MOL0     C 2832   9.757   2.246  10.215  0.5599 -0.6732  0.5039
  746MOL0     C 2833   9.693   2.387  10.213  0.4368  0.4850 -0.3866
  746MOL0     O 2834   9.607   2.396  10.328  0.0803  0.1485  0.7654
  746MOL0     C 2835   9.576   2.522  10.369  0.3976  0.1085 -0.3558
  746MOL0     C 2836   9.533   2.525  10.501  0.4200 -0.7705 -0.2989
  746MOL0     C 2837   9.507   2.649  10.566 -0.8197  0.4487  0.6171
  746MOL0     C 2838   9.486   2.646  10.715 -0.0728 -0.6176 -0.1780
  746MOL0     C 2839   9.497   2.767  10.487  0.0316 -0.2462 -0.4547
  746MOL0     C 2840   9.443   2.894  10.542 -0.5482 -0.3032 -0.2575
  746MOL0     O 2841   9.509   3.008  10.493  0.1606  0.0493 -0.6950
  746MOL0     C 2842   9.452   3.124  10.508 -0.6095 -0.6240  0.6397
  746MOL0     C 2843   9.328   3.160  10.544  0.1794 -0.5252 -0.1088
  746MOL0     C 2844   9.288   3.289  10.574  0.6715 -0.0561 -0.4038
  746MOL0     C 2845   9.379   3.396  10.560 -0.3721  0.3608 -0.3558
  746MOL0     O 2846   9.329   3.523  10.601  0.1405 -0.6516 -0.1593
  746MOL0     C 2847   9.409   3.592  10.703 -0.0250 -0.3678 -0.0490
  746MOL0     C 2848   9.465   3.512  10.823 -0.1492  0.3197  0.4705
  746MOL0     C 2849   9.365   3.452  10.919  0.2581  0.1947 -0.3864
  746MOL0     C 2850   9.333   3.547  11.038  0.0682 -0.0730 -0.8302
  746MOL0     C 2851   9.241   3.472  11.125 -0.2965 -0.4336  0.0509
  746MOL0     C 2852   9.213   3.543  11.254 -0.0499 -0.0409  0.5160
  746MOL0     C 2853   9.137   3.448  11.359 -0.2807  0.2347  0.0095
  746MOL0     C 2854   9.073   3.557  11.442 -0.3033  0.6145 -0.5178
  746MOL0    Cl 2855   9.053   3.480  11.613  0.3653 -0.2663 -0.3303
  746MOL0     C 2856   9.513   3.360  10.513  0.4750 -0.8825 -0.6550
  746MOL0     C 2857   9.540   3.228  10.501 -1.0390 -0.1690  0.0882
  746MOL0     O 2858   9.346   2.893  10.615  0.0773 -0.1766 -0.1444
  746MOL0     C 2859   9.538   2.762  10.354  0.6315 -0.4488 -0.2030
  746MOL0     C 2860   9.587   2.647  10.300  0.4032  0.3913  0.0305
  746MOL0     N 2861   9.890   2.115   9.749 -1.1721  0.3270  0.5443
  746MOL0     N 2862   9.997   2.055   9.696 -0.8909 -0.5026 -1.8533
  746MOL0     C 2863  10.509   2.267   8.890  0.0847  0.0926 -0.1023
  746MOL0     C 2864  10.530   2.207   8.763  0.1236  0.6458 -0.0977
  746MOL0     C 2865  10.579   1.941   8.391  0.0895 -0.1111 -0.3870
  746MOL0     C 2866  10.605   1.984   8.258 -0.5718 -0.5379 -1.0654
  746MOL0     C 2867  10.608   1.893   8.151 -1.0813  0.0848  0.7226
  746MOL0     C 2868  10.590   1.760   8.172  0.3394 -0.3952 -0.2212
  746MOL0     O 2869  10.590   1.652   8.080 -0.0532 -0.0718 -0.5469
  746MOL0     C 2870  10.594   1.671   7.936  0.4559  0.0134 -0.1115
  746MOL0     C 2871  10.741   1.675   7.893 -0.5808  0.6649  0.0019
  746MOL0     C 2872  10.763   1.733   7.758 -0.0850  0.9761 -1.2769
  746MOL0     C 2873  10.721   1.640   7.642  0.6182 -0.0941 -0.0549
  746MOL0     C 2874  10.785   1.674   7.515  0.1570  0.6723 -0.5454
  746MOL0     C 2875  10.847   1.673   7.412  0.0212 -0.3247  0.1326
  746MOL0     C 2876  10.564   1.714   8.304 -0.3098  0.2584  0.1083
  746MOL0     C 2877  10.560   1.803   8.417  0.1580 -0.3119  0.7380
  746MOL0     C 2878  10.530   1.741   8.548  0.1360  0.1853  0.2400
  746MOL0     H 2879  10.564   1.892   8.860 -2.0974  0.3768 -0.1011
  746MOL0     H 2880  10.551   1.987   9.081 -3.3015 -0.6547 -0.5721
  746MOL0     H 2881  10.290   2.318   9.180 -1.2217 -0.6554  0.8968
  746MOL0     H 2882  10.401   2.415   9.090  1.4209 -0.3948 -0.1931
  746MOL0     H 2883  10.554   2.433   9.293  0.3660  0.1662  1.0780
  746MOL0     H 2884  10.388   2.501   9.315  1.5535  1.0924  1.8932
  746MOL0     H 2885  10.513   2.269   9.465 -0.5793  0.9787 -0.4034
  746MOL0     H 2886  10.427   2.411   9.519 -0.2596  0.5404 -0.5034
  746MOL0     H 2887  10.223   2.286   9.467  0.1283 -0.4748  0.8427
  746MOL0     H 2888  10.300   2.187   9.353 -2.6076 -0.0373  1.3699
  746MOL0     H 2889  10.415   2.058   9.521  1.1833  0.8376 -0.0863
  746MOL0     H 2890  10.242   2.044   9.525  0.3981 -0.3209 -0.9858
  746MOL0     H 2891  10.398   2.240   9.698 -1.9367  1.9735 -2.4367
  746MOL0     H 2892  10.224   2.220   9.693 -2.3540 -2.9236  1.6287
  746MOL0     H 2893  10.329   2.118   9.890 -1.4219  2.1127 -2.0200
  746MOL0     H 2894  10.423   2.001   9.792 -0.7844 -2.5287  1.4800
  746MOL0     H 2895  10.206   1.911   9.707 -0.0420  1.0641  0.1219
  746MOL0     H 2896  10.208   1.895   9.878 -0.7444  0.3722 -1.0193
  746MOL0     H 2897  10.050   2.076  10.027 -3.6799  0.3883  1.4163
  746MOL0     H 2898   9.726   2.100   9.974 -0.3055 -1.1761 -1.2890
  746MOL0     H 2899   9.741   2.266   9.918  0.0347 -0.3932 -1.1337
  746MOL0     H 2900   9.894   2.122  10.151 -5.1849 -3.8212 -0.9430
  746MOL0     H 2901   9.933   2.289  10.098  0.0179 -0.7155 -0.6977
  746MOL0     H 2902   9.673   2.177  10.212 -1.3154  1.2987  3.1503
  746MOL0     H 2903   9.807   2.224  10.310 -0.8111  2.8864  2.2217
  746MOL0     H 2904   9.771   2.463  10.227 -2.3607  3.4862  0.1179
  746MOL0     H 2905   9.632   2.407  10.124 -1.4462 -0.6011  0.5957
  746MOL0     H 2906   9.544   2.434  10.558  1.1106 -2.7090 -3.2896
  746MOL0     H 2907   9.530   2.563  10.772 -2.7435 -1.8811  0.2258
  746MOL0     H 2908   9.379   2.642  10.740  0.2565 -1.8763  1.2055
  746MOL0     H 2909   9.524   2.732  10.770 -0.5728  0.2454 -1.1595
  746MOL0     H 2910   9.252   3.083  10.550  0.7105 -1.0848 -0.4171
  746MOL0     H 2911   9.194   3.317  10.621  0.5417 -1.4452  0.1920
  746MOL0     H 2912   9.496   3.635  10.652  0.4805 -1.8322 -0.4823
  746MOL0     H 2913   9.352   3.675  10.745  3.1484  3.2460 -2.2325
  746MOL0     H 2914   9.521   3.432  10.774 -1.8179  0.7103 -2.2657
  746MOL0     H 2915   9.532   3.575  10.883  1.5229 -0.9765  0.0506
  746MOL0     H 2916   9.412   3.371  10.976 -0.2384  1.0183  1.2607
  746MOL0     H 2917   9.272   3.410  10.880 -1.0706  0.9835  1.7405
  746MOL0     H 2918   9.279   3.635  11.002 -1.1716  0.6753  2.5216
  746MOL0     H 2919   9.422   3.568  11.099 -0.3409 -1.0827  0.1540
  746MOL0     H 2920   9.142   3.442  11.090 -1.8736  3.1116  1.0427
  746MOL0     H 2921   9.279   3.377  11.164  0.9284 -0.7144 -1.6984
  746MOL0     H 2922   9.159   3.635  11.232 -0.7021 -0.3777  0.6890
  746MOL0     H 2923   9.301   3.590  11.299 -1.6709  2.3359  1.3725
  746MOL0     H 2924   9.216   3.390  11.407 -0.3343 -0.2717 -0.4936
  746MOL0     H 2925   9.065   3.374  11.321 -0.4926 -0.0200  0.8989
  746MOL0     H 2926   8.975   3.581  11.401 -1.1923 -0.1160  1.0735
  746MOL0     H 2927   9.134   3.646  11.432 -0.5773  0.5419 -3.7131
  746MOL0     H 2928   9.575   3.447  10.491  0.2146  0.7811  4.0705
  746MOL0     H 2929   9.640   3.207  10.464 -1.6397  1.5169 -2.8078
  746MOL0     H 2930   9.528   2.850  10.291 -2.6377  0.1966  1.0539
  746MOL0     H 2931   9.634   2.660  10.204  5.3656  2.3979  2.3984
  746MOL0     H 2932  10.488   2.373   8.885 -0.1225  0.0388 -0.4011
  746MOL0     H 2933  10.521   2.271   8.675 -1.5009  1.4628  0.6092
  746MOL0     H 2934  10.624   2.087   8.231 -2.7293  1.4348  3.7754
  746MOL0     H 2935  10.645   1.926   8.055  0.2804 -0.0260  1.1951
  746MOL0     H 2936  10.544   1.584   7.892 -0.3975 -0.9702  2.6168
  746MOL0     H 2937  10.535   1.757   7.905 -0.3671  0.0627  1.5202
  746MOL0     H 2938  10.798   1.582   7.897 -0.2187  0.7649 -1.9145
  746MOL0     H 2939  10.790   1.751   7.956  0.5350 -0.2160  0.2313
  746MOL0     H 2940  10.724   1.833   7.734  4.1865  2.5305 -2.7196
  746MOL0     H 2941  10.871   1.747   7.745 -0.0614  1.8103 -0.3230
  746MOL0     H 2942  10.612   1.640   7.645  0.5564  0.3898  4.4576
  746MOL0     H 2943  10.750   1.537   7.662  0.3927 -0.1779 -0.1599
  746MOL0     H 2944  10.902   1.670   7.319 -0.5308 -0.2991 -0.1982
  746MOL0     H 2945  10.540   1.608   8.303 -0.0341  0.1366 -3.0143
  746MOL0     H 2946  10.548   1.633   8.545  1.6432  0.4201 -2.5911
  746MOL0     H 2947  10.591   1.768   8.634  4.3944 -1.1019 -2.1013
  746MOL0     H 2948  10.422   1.760   8.559 -0.3563 -0.7715 -2.2146
  747MOL0     O 2949   0.875   5.271   0.683 -0.2527 -0.0943  1.4357
  747MOL0     C 2950   0.779   5.254   0.760  1.1971 -0.6371 -0.4911
  747MOL0     O 2951   0.657   5.213   0.717 -0.1635 -1.2884 -0.0441
  747MOL0     C 2952   0.641   5.206   0.578  0.3258  0.2858 -1.1720
  747MOL0     C 2953   0.582   5.315   0.513 -1.1556  0.5307  0.1404
  747MOL0     C 2954   0.542   5.304   0.382 -0.0490 -0.0845 -0.1444
  747MOL0     C 2955   0.592   5.207   0.307  0.1547  0.0956  0.7671
  747MOL0     O 2956   0.561   5.213   0.171 -0.1975 -0.5561 -0.4551
  747MOL0     C 2957   0.441   5.146   0.125 -0.7663  0.4188 -0.5241
  747MOL0     C 2958   0.458   5.111  -0.025  0.1682 -0.3718 -0.5307
  747MOL0     C 2959   0.602   5.083  -0.072  0.0411  0.3702 -0.3505
  747MOL0     C 2960   0.614   5.022  -0.203 -0.3530 -0.2323 -0.3669
  747MOL0     C 2961   0.758   5.036  -0.264  0.2423 -0.1769  0.0330
  747MOL0     C 2962   0.792   4.958  -0.397 -0.5957  0.2247 -0.6840
  747MOL0     C 2963   0.941   4.974  -0.430 -0.0379  0.0231 -0.4576
  747MOL0     C 2964   1.001   4.890  -0.542  0.1818  1.2548 -0.1397
  747MOL0     N 2965   1.142   4.926  -0.561 -1.4023 -1.1189  0.0682
  747MOL0     C 2966   1.246   4.863  -0.498  0.0068  0.0355  0.0277
  747MOL0     C 2967   1.357   4.917  -0.555 -0.8424  0.8508 -0.1715
  747MOL0     C 2968   1.500   4.879  -0.527 -0.4630 -0.5838 -0.8008
  747MOL0     C 2969   1.599   4.996  -0.523  0.1169  0.3088 -0.4799
  747MOL0     C 2970   1.578   5.092  -0.401 -1.2607  1.7019 -0.2112
  747MOL0     C 2971   1.710   5.179  -0.401  0.4314  0.9374  0.1863
  747MOL0     O 2972   1.726   5.253  -0.522  0.4990  0.3650 -0.2638
  747MOL0     C 2973   1.694   5.389  -0.530  0.5495  0.3497  0.4969
  747MOL0     C 2974   1.642   5.457  -0.428  0.2739 -0.6609 -0.8853
  747MOL0     C 2975   1.627   5.600  -0.434 -1.0155 -0.5358  0.5098
  747MOL0     C 2976   1.559   5.662  -0.314 -0.4016 -0.5225 -0.5124
  747MOL0     C 2977   1.646   5.671  -0.554 -0.5582 -0.3442  0.2460
  747MOL0     C 2978   1.598   5.810  -0.580 -0.9603 -0.1396  0.2367
  747MOL0     O 2979   1.629   5.858  -0.711  0.4984 -1.3537 -1.0590
  747MOL0     C 2980   1.589   5.995  -0.719 -0.7685  1.1162  1.1279
  747MOL0     C 2981   1.680   6.098  -0.697  0.8675  0.3124 -0.1413
  747MOL0     C 2982   1.646   6.233  -0.722 -0.2259  0.4078  0.6418
  747MOL0     C 2983   1.526   6.261  -0.785 -0.4261  0.5015 -0.3333
  747MOL0     O 2984   1.491   6.391  -0.789 -0.5343  0.0114  0.6134
  747MOL0     C 2985   1.440   6.441  -0.925 -0.4123 -0.0034  0.2193
  747MOL0     C 2986   1.361   6.570  -0.908 -0.9023  0.1739  0.1804
  747MOL0     C 2987   1.232   6.561  -0.834  1.1262  0.3874  0.5887
  747MOL0     C 2988   1.116   6.509  -0.928 -0.2913 -0.3445  0.2137
  747MOL0     C 2989   0.978   6.517  -0.864 -0.4582  0.4294  0.0678
  747MOL0     C 2990   0.919   6.658  -0.846  0.5376  0.5186 -0.1618
  747MOL0     C 2991   0.781   6.673  -0.766 -0.0219  0.6909 -0.4108
  747MOL0     C 2992   0.671   6.590  -0.837 -0.4831  0.2986  0.1533
  747MOL0    Cl 2993   0.494   6.592  -0.779 -0.3469 -0.0898 -0.1631
  747MOL0     C 2994   1.447   6.157  -0.832 -0.5896  0.0578  0.6834
  747MOL0     C 2995   1.470   6.026  -0.793  0.4527  0.2132 -1.4355
  747MOL0     O 2996   1.535   5.876  -0.493  0.5735 -0.0708 -0.0896
  747MOL0     C 2997   1.684   5.588  -0.662 -0.5358  0.7646 -0.0748
  747MOL0     C 2998   1.717   5.452  -0.649  0.4052 -0.6702 -0.4794
  747MOL0     N 2999   1.323   5.020  -0.647 -0.3111 -0.8723 -0.3460
  747MOL0     N 3000   1.193   5.018  -0.654  0.0042  0.5066  0.2336
  747MOL0     C 3001   0.667   5.103   0.366 -0.7593  0.4623 -0.9550
  747MOL0     C 3002   0.682   5.091   0.504  0.2944 -0.2997 -0.3414
  747MOL0     C 3003   0.802   5.268   0.911 -0.1885  0.0999 -0.1443
  747MOL0     C 3004   0.718   5.209   1.009  0.6023 -1.1975  0.8895
  747MOL0     C 3005   0.760   5.202   1.139 -0.0335 -0.6939 -0.2686
  747MOL0     C 3006   0.875   5.258   1.189  0.2971 -0.2378 -0.0209
  747MOL0     O 3007   0.908   5.265   1.323 -0.4354  0.3442  0.4817
  747MOL0     C 3008   0.801   5.328   1.403 -0.1738  0.4175 -1.0583
  747MOL0     C 3009   0.850   5.458   1.470 -0.4793  0.2681  0.4402
  747MOL0     C 3010   0.904   5.558   1.371  0.5352  1.7635 -0.6235
  747MOL0     C 3011   0.800   5.624   1.280 -0.2816  0.8092  0.9802
  747MOL0     C 3012   0.697   5.703   1.334 -0.0112  0.2154 -1.1575
  747MOL0     C 3013   0.614   5.775   1.389 -0.6456  0.3192  0.1858
  747MOL0     C 3014   0.955   5.331   1.100  0.4301 -0.5062 -0.8667
  747MOL0     C 3015   0.920   5.330   0.965 -0.6188 -0.6611  0.7785
  747MOL0     C 3016   1.027   5.400   0.876 -0.2178 -0.1014  0.6294
  747MOL0     H 3017   0.552   5.411   0.553  0.2538  2.3325 -2.8177
  747MOL0     H 3018   0.476   5.380   0.343 -0.3416 -0.8460 -1.1669
  747MOL0     H 3019   0.348   5.203   0.130 -1.1216  0.2577 -3.5382
  747MOL0     H 3020   0.430   5.056   0.185 -1.4049  1.3197  0.7429
  747MOL0     H 3021   0.385   5.034  -0.054 -1.1774  0.9815 -0.8749
  747MOL0     H 3022   0.410   5.191  -0.082  1.6077  1.8561  1.1965
  747MOL0     H 3023   0.655   5.179  -0.070 -2.6808  1.9992  0.8927
  747MOL0     H 3024   0.653   5.021   0.001  3.4906  2.5208 -0.7142
  747MOL0     H 3025   0.567   4.924  -0.205  0.1419 -0.4629 -0.7078
  747MOL0     H 3026   0.549   5.081  -0.269  0.8576  1.0550 -0.4522
  747MOL0     H 3027   0.826   5.018  -0.180 -1.1978 -2.7734  0.7659
  747MOL0     H 3028   0.766   5.143  -0.288 -1.8144 -0.1944 -0.9000
  747MOL0     H 3029   0.765   4.854  -0.375 -1.0389  0.6141  0.7186
  747MOL0     H 3030   0.733   5.007  -0.475  0.4862  0.3627 -1.4331
  747MOL0     H 3031   0.996   4.951  -0.338  1.2266 -2.2217 -1.6751
  747MOL0     H 3032   0.968   5.078  -0.446 -0.4931  1.0456  4.0319
  747MOL0     H 3033   0.984   4.783  -0.527 -0.3432  1.4097  0.4206
  747MOL0     H 3034   0.961   4.927  -0.637 -0.1712  3.9596  0.9493
  747MOL0     H 3035   1.246   4.782  -0.425 -0.3573  1.8134  2.1254
  747MOL0     H 3036   1.524   4.825  -0.619  2.8485 -3.1836  1.3580
  747MOL0     H 3037   1.495   4.808  -0.444  0.9434 -3.5185 -3.0272
  747MOL0     H 3038   1.705   4.970  -0.524  1.0552  3.6518 -1.4032
  747MOL0     H 3039   1.579   5.065  -0.606 -0.4014  0.2792 -0.3831
  747MOL0     H 3040   1.487   5.149  -0.421 -2.1646 -0.2037 -2.0149
  747MOL0     H 3041   1.569   5.034  -0.309  1.2025  1.7962  0.1563
  747MOL0     H 3042   1.711   5.237  -0.308  2.2332 -0.6354  1.2248
  747MOL0     H 3043   1.796   5.113  -0.391 -0.1240  0.0190 -0.8985
  747MOL0     H 3044   1.620   5.413  -0.332  2.0781  1.6016  0.6819
  747MOL0     H 3045   1.561   5.596  -0.226 -2.4275 -0.1113 -0.1159
  747MOL0     H 3046   1.455   5.685  -0.336  0.2636  2.4571 -0.9771
  747MOL0     H 3047   1.608   5.750  -0.271 -1.1847 -0.4843  0.3197
  747MOL0     H 3048   1.775   6.073  -0.652  0.5375 -0.5632  0.1064
  747MOL0     H 3049   1.716   6.311  -0.693  0.5987  0.3637 -1.0906
  747MOL0     H 3050   1.527   6.465  -0.987  0.4073  1.6185  1.8975
  747MOL0     H 3051   1.377   6.372  -0.982 -0.2616 -0.4424  0.5807
  747MOL0     H 3052   1.426   6.643  -0.858 -1.5117  2.7722 -2.5553
  747MOL0     H 3053   1.323   6.608  -1.003 -2.1932 -4.4251 -1.3860
  747MOL0     H 3054   1.211   6.665  -0.809 -0.2245  0.8540 -2.1029
  747MOL0     H 3055   1.246   6.501  -0.744  3.2102  1.5400  1.1038
  747MOL0     H 3056   1.139   6.408  -0.963 -2.7240 -1.3181  1.2423
  747MOL0     H 3057   1.109   6.571  -1.018  1.5744  0.0876  0.3272
  747MOL0     H 3058   0.902   6.457  -0.914  0.4024 -1.3747  0.8171
  747MOL0     H 3059   0.995   6.467  -0.768 -0.6648 -1.2405 -0.7331
  747MOL0     H 3060   0.912   6.697  -0.948  3.7045  0.1150 -0.6438
  747MOL0     H 3061   0.997   6.716  -0.796  1.9775 -2.0899  0.8163
  747MOL0     H 3062   0.738   6.773  -0.766 -0.3200  0.5683  0.1451
  747MOL0     H 3063   0.799   6.642  -0.662  1.9884  3.5192  0.1973
  747MOL0     H 3064   0.696   6.484  -0.852 -0.1113  0.1016  1.9014
  747MOL0     H 3065   0.673   6.632  -0.938  0.2737  1.8441  0.7748
  747MOL0     H 3066   1.355   6.172  -0.888 -0.6435 -0.8054  0.5262
  747MOL0     H 3067   1.401   5.945  -0.817  0.2933  0.0276 -0.3832
  747MOL0     H 3068   1.688   5.627  -0.763 -1.1052  0.1972 -0.3273
  747MOL0     H 3069   1.754   5.408  -0.741  3.0338 -2.4224  1.3010
  747MOL0     H 3070   0.697   5.013   0.312  1.4302  0.7978 -0.4140
  747MOL0     H 3071   0.717   4.999   0.549  0.5070 -1.8157 -3.3357
  747MOL0     H 3072   0.616   5.176   0.992 -1.6542  4.7871  0.3559
  747MOL0     H 3073   0.698   5.148   1.210 -1.3896  1.3761  0.2119
  747MOL0     H 3074   0.707   5.350   1.350 -2.7153 -2.0981  1.9524
  747MOL0     H 3075   0.774   5.258   1.482 -0.1683 -1.2677 -2.4840
  747MOL0     H 3076   0.931   5.434   1.540  0.4139  1.3004 -0.1996
  747MOL0     H 3077   0.771   5.497   1.534 -0.7566  0.8013 -0.2196
  747MOL0     H 3078   0.954   5.644   1.417  0.1082  1.9723 -0.5493
  747MOL0     H 3079   0.974   5.506   1.305  0.4955  1.0557 -0.1086
  747MOL0     H 3080   0.765   5.550   1.207  1.5992  0.6015  0.2488
  747MOL0     H 3081   0.855   5.692   1.215  1.8656 -0.7820  1.0392
  747MOL0     H 3082   0.554   5.844   1.446 -0.6247  2.9678 -2.6905
  747MOL0     H 3083   1.052   5.377   1.120  0.3026  1.2812 -3.7271
  747MOL0     H 3084   1.108   5.336   0.839  0.4446  2.5879 -3.0887
  747MOL0     H 3085   0.963   5.451   0.804 -2.7391 -1.8361  1.4902
  747MOL0     H 3086   1.080   5.475   0.936 -0.3832 -0.5127  1.3122
  748MOL0     O 3087   8.155   3.575  10.540 -0.4614 -0.0226  0.3937
  748MOL0     C 3088   8.254   3.580  10.613  0.0798  0.7246 -0.0689
  748MOL0     O 3089   8.389   3.564  10.565  0.0371 -0.4375 -0.7033
  748MOL0     C 3090   8.416   3.563  10.427  0.4578  0.6953  0.0126
  748MOL0     C 3091   8.342   3.628  10.323  0.7301 -0.0987 -0.4617
  748MOL0     C 3092   8.381   3.629  10.198  0.5017 -0.0065  0.4402
  748MOL0     C 3093   8.491   3.559  10.159  0.5831  0.0407 -0.1758
  748MOL0     O 3094   8.523   3.550  10.026  0.0200 -0.0228 -0.0709
  748MOL0     C 3095   8.644   3.501   9.978 -0.3476  0.5396 -0.7778
  748MOL0     C 3096   8.663   3.520   9.832  0.2782 -0.7749  0.3027
  748MOL0     C 3097   8.531   3.519   9.757  0.3703 -0.5018 -0.3248
  748MOL0     C 3098   8.551   3.546   9.607 -0.0089 -0.9618 -0.6403
  748MOL0     C 3099   8.596   3.693   9.576  0.4449  0.1343 -0.7866
  748MOL0     C 3100   8.666   3.699   9.432  0.4282  0.6057  0.3163
  748MOL0     C 3101   8.617   3.830   9.363 -0.3285 -0.9790  0.6239
  748MOL0     C 3102   8.477   3.816   9.300 -0.0608  0.1733 -0.2028
  748MOL0     N 3103   8.468   3.910   9.185 -0.3034 -0.1205  0.8472
  748MOL0     C 3104   8.500   4.042   9.183  0.0070 -0.4076  0.0703
  748MOL0     C 3105   8.447   4.095   9.073 -0.6607  0.9978 -0.3759
  748MOL0     C 3106   8.460   4.240   9.036 -0.0801  0.0540 -0.0408
  748MOL0     C 3107   8.345   4.337   9.070  0.5607 -0.4874 -0.1252
  748MOL0     C 3108   8.203   4.283   9.036  0.4918  0.1637  0.2128
  748MOL0     C 3109   8.111   4.210   9.149 -0.6655 -0.5724  1.2689
  748MOL0     O 3110   8.012   4.136   9.072 -0.5618  0.2041 -0.4732
  748MOL0     C 3111   7.915   4.065   9.139 -0.0501  0.1453  0.0042
  748MOL0     C 3112   7.837   3.997   9.042 -0.1313 -0.3427 -0.6391
  748MOL0     C 3113   7.743   3.909   9.094  0.2497  0.2460  0.9374
  748MOL0     C 3114   7.668   3.819   8.990 -0.5832  0.1817 -0.1237
  748MOL0     C 3115   7.712   3.919   9.231 -0.2228  0.3581 -0.0794
  748MOL0     C 3116   7.610   3.828   9.290 -1.0598  0.5187  0.4024
  748MOL0     O 3117   7.542   3.875   9.401 -1.4447  0.6167  0.5663
  748MOL0     C 3118   7.440   3.811   9.453 -0.1434  0.2578  0.2068
  748MOL0     C 3119   7.442   3.677   9.494 -0.1830 -0.1210 -0.3338
  748MOL0     C 3120   7.324   3.617   9.534 -0.0675  0.3813 -0.1506
  748MOL0     C 3121   7.207   3.686   9.552  0.3040  0.9413 -0.5887
  748MOL0     O 3122   7.100   3.612   9.594  0.0717  0.1333  0.0205
  748MOL0     C 3123   6.965   3.648   9.560 -0.6618  0.7328  0.3964
  748MOL0     C 3124   6.875   3.526   9.583 -0.7439  0.9385 -0.3192
  748MOL0     C 3125   6.927   3.401   9.537  0.4028 -0.0869 -0.0190
  748MOL0     C 3126   6.822   3.324   9.464  0.0874  0.1060  0.3888
  748MOL0     C 3127   6.741   3.219   9.552 -0.0220  0.4670 -0.3212
  748MOL0     C 3128   6.616   3.165   9.493  0.0565  1.0724  0.0179
  748MOL0     C 3129   6.653   3.098   9.361  0.6979  1.1422 -0.0374
  748MOL0     C 3130   6.536   3.010   9.307  0.4223 -0.2440 -0.5142
  748MOL0    Cl 3131   6.421   3.094   9.207 -0.2270 -0.1648 -0.1496
  748MOL0     C 3132   7.215   3.828   9.537  0.7414  0.4935 -0.0750
  748MOL0     C 3133   7.325   3.890   9.481 -0.5483 -0.0461  0.0141
  748MOL0     O 3134   7.584   3.717   9.236  0.8825 -0.0678  0.2930
  748MOL0     C 3135   7.777   4.004   9.314  0.5297  0.7989 -1.0879
  748MOL0     C 3136   7.876   4.081   9.268 -0.6707  0.0932 -0.7191
  748MOL0     N 3137   8.388   3.989   9.014 -0.0897  0.3786 -0.0559
  748MOL0     N 3138   8.401   3.882   9.077 -0.2568  0.2959  0.4159
  748MOL0     C 3139   8.563   3.486  10.253  0.5868  0.1347  0.4614
  748MOL0     C 3140   8.528   3.488  10.391  0.3064  0.5152  0.7886
  748MOL0     C 3141   8.230   3.589  10.758 -0.7866 -0.5825  0.9037
  748MOL0     C 3142   8.096   3.604  10.793  0.3945 -0.2630 -0.4711
  748MOL0     C 3143   8.070   3.621  10.934  0.4146 -0.7071 -0.5497
  748MOL0     C 3144   8.171   3.634  11.029  0.6224 -0.7692 -0.5301
  748MOL0     O 3145   8.136   3.667  11.161  0.4547  0.3271 -0.0744
  748MOL0     C 3146   8.220   3.647  11.274 -0.4982  0.1351 -0.2011
  748MOL0     C 3147   8.142   3.697  11.397 -0.3761 -0.0627  1.4337
  748MOL0     C 3148   8.209   3.691  11.526 -0.0482 -0.7023 -0.1955
  748MOL0     C 3149   8.302   3.812  11.542 -1.1273  0.0043 -0.6537
  748MOL0     C 3150   8.427   3.757  11.617 -0.3642  0.2791  0.4067
  748MOL0     C 3151   8.524   3.709  11.671 -0.1538 -0.1229  0.4294
  748MOL0     C 3152   8.301   3.610  10.983 -0.6057  0.0787  0.0645
  748MOL0     C 3153   8.330   3.578  10.850 -1.0004  0.2098 -0.6006
  748MOL0     C 3154   8.476   3.542  10.829  0.2894  0.8868  0.0920
  748MOL0     H 3155   8.253   3.684  10.349  1.1240  1.8291 -2.9322
  748MOL0     H 3156   8.329   3.687  10.123  2.6397  0.3079 -0.9204
  748MOL0     H 3157   8.635   3.395  10.005 -1.0712  0.9319  0.6210
  748MOL0     H 3158   8.733   3.541  10.027 -0.5860  2.9566 -2.1748
  748MOL0     H 3159   8.727   3.608   9.828 -0.6439 -0.0941 -0.1345
  748MOL0     H 3160   8.729   3.441   9.796  0.9009 -0.7096  1.2912
  748MOL0     H 3161   8.471   3.429   9.775 -0.2225  0.2805  1.8642
  748MOL0     H 3162   8.478   3.610   9.786  3.7418  1.6161 -0.3181
  748MOL0     H 3163   8.625   3.473   9.572  1.3929 -1.2443  2.5743
  748MOL0     H 3164   8.453   3.532   9.559  0.6101 -5.7865 -1.0009
  748MOL0     H 3165   8.663   3.738   9.650 -4.0482  3.7371  1.5976
  748MOL0     H 3166   8.507   3.752   9.600  0.2533 -1.0913  1.8989
  748MOL0     H 3167   8.775   3.691   9.444  0.4613  0.2449 -0.2013
  748MOL0     H 3168   8.641   3.612   9.370 -0.2497  0.6256  0.5559
  748MOL0     H 3169   8.682   3.849   9.277 -0.9761  0.9784  0.5296
  748MOL0     H 3170   8.623   3.918   9.427  1.2904 -1.5160  1.2495
  748MOL0     H 3171   8.479   3.717   9.255  0.2858  0.8196 -1.6517
  748MOL0     H 3172   8.395   3.826   9.373  0.0031  2.0117 -0.3259
  748MOL0     H 3173   8.547   4.100   9.262  0.4288  1.8576 -1.7554
  748MOL0     H 3174   8.475   4.232   8.928  4.9908 -0.4241  0.4959
  748MOL0     H 3175   8.550   4.269   9.090 -1.0433  1.9308  0.6258
  748MOL0     H 3176   8.348   4.351   9.179 -0.9271  3.7126 -0.4469
  748MOL0     H 3177   8.351   4.433   9.017  0.5374 -1.4099 -1.8518
  748MOL0     H 3178   8.139   4.362   8.996 -1.9691 -0.1969  3.1021
  748MOL0     H 3179   8.219   4.215   8.951 -1.5906  0.6321 -0.6109
  748MOL0     H 3180   8.182   4.140   9.193  1.5853 -1.5997 -3.3239
  748MOL0     H 3181   8.074   4.291   9.213  0.3244  1.1763 -0.2388
  748MOL0     H 3182   7.855   3.999   8.935  0.5545  1.0007 -0.5291
  748MOL0     H 3183   7.684   3.714   9.016 -2.4186 -0.0871  0.0018
  748MOL0     H 3184   7.729   3.829   8.900  1.7649 -1.5100  1.1642
  748MOL0     H 3185   7.565   3.846   8.965 -0.2684  1.0004 -0.5582
  748MOL0     H 3186   7.540   3.630   9.485  0.5737  1.2913  0.2848
  748MOL0     H 3187   7.332   3.514   9.567  0.5137  1.2639  2.7214
  748MOL0     H 3188   6.927   3.724   9.630 -2.1813 -1.0929  1.6668
  748MOL0     H 3189   6.946   3.695   9.463  0.0944  0.8075  0.2804
  748MOL0     H 3190   6.872   3.513   9.692 -0.9169 -1.4912 -0.5730
  748MOL0     H 3191   6.773   3.553   9.551 -0.5871  0.3309 -1.3608
  748MOL0     H 3192   6.956   3.337   9.621 -0.2022 -2.8564 -1.7859
  748MOL0     H 3193   7.016   3.420   9.477  1.4537  2.7242  2.1726
  748MOL0     H 3194   6.875   3.271   9.385 -0.2988  0.9556 -0.4666
  748MOL0     H 3195   6.749   3.390   9.417 -0.7728 -0.0107  1.4945
  748MOL0     H 3196   6.804   3.129   9.559 -2.0119 -0.9528  0.0354
  748MOL0     H 3197   6.723   3.275   9.644  2.6571  0.0956  0.5243
  748MOL0     H 3198   6.543   3.244   9.471 -0.2106  1.1734  1.1745
  748MOL0     H 3199   6.554   3.106   9.561 -1.6899  2.0596 -0.6345
  748MOL0     H 3200   6.734   3.027   9.377 -1.6713 -1.7934 -0.2916
  748MOL0     H 3201   6.678   3.176   9.288  0.2741 -1.1405 -2.7752
  748MOL0     H 3202   6.489   2.971   9.398 -0.5830 -0.8938 -1.2870
  748MOL0     H 3203   6.575   2.919   9.259 -1.8813 -0.5368 -1.9972
  748MOL0     H 3204   7.125   3.871   9.580  1.2372 -0.2622  1.7777
  748MOL0     H 3205   7.339   3.991   9.445  4.3276 -0.5644 -0.1413
  748MOL0     H 3206   7.730   4.020   9.410  1.4452 -0.9269 -0.2943
  748MOL0     H 3207   7.928   4.146   9.338  0.7508 -0.5487 -1.1505
  748MOL0     H 3208   8.641   3.414  10.229 -1.1010 -1.1582 -1.5568
  748MOL0     H 3209   8.580   3.432  10.467  2.0909 -1.2140 -1.5572
  748MOL0     H 3210   8.006   3.597  10.734 -0.0465  0.4809  0.0834
  748MOL0     H 3211   7.970   3.646  10.970  0.6093  0.4779 -0.7973
  748MOL0     H 3212   8.214   3.539  11.292 -0.6960  0.4600  1.9042
  748MOL0     H 3213   8.325   3.676  11.267  0.1767 -1.2469  2.8207
  748MOL0     H 3214   8.048   3.642  11.410 -0.0552 -1.1645 -0.5344
  748MOL0     H 3215   8.116   3.802  11.382  3.7034  0.7292 -1.5836
  748MOL0     H 3216   8.142   3.699  11.612  0.4319  1.0476  0.0374
  748MOL0     H 3217   8.267   3.599  11.536  1.4942  0.3646  1.1294
  748MOL0     H 3218   8.251   3.894  11.594 -0.0789  0.2814 -0.0246
  748MOL0     H 3219   8.334   3.859  11.448 -4.3685 -0.3246 -2.0383
  748MOL0     H 3220   8.619   3.676  11.711  1.8874  2.7883 -1.6360
  748MOL0     H 3221   8.379   3.612  11.058  1.1436 -0.3397 -1.6823
  748MOL0     H 3222   8.519   3.638  10.799 -0.9728  2.1714  2.1507
  748MOL0     H 3223   8.516   3.515  10.927  0.3354 -0.6752 -0.3290
  748MOL0     H 3224   8.499   3.465  10.754  0.6155  2.2477 -1.2606
  749MOL0     O 3225   7.890   3.326   4.132 -0.1996 -0.0996 -0.2175
  749MOL0     C 3226   7.958   3.361   4.033 -0.3517  0.0769 -1.0541
  749MOL0     O 3227   7.975   3.296   3.918  0.8717 -0.0947 -0.2657
  749MOL0     C 3228   7.888   3.205   3.858 -0.2693 -0.9857 -0.4860
  749MOL0     C 3229   7.756   3.194   3.905  0.6901  0.2205  0.3379
  749MOL0     C 3230   7.682   3.089   3.856 -0.0193 -0.5009 -0.6676
  749MOL0     C 3231   7.734   3.000   3.757 -0.7205 -0.8786 -0.8946
  749MOL0     O 3232   7.661   2.895   3.708  0.1124  0.4182  0.0609
  749MOL0     C 3233   7.524   2.879   3.745 -0.9465 -0.3634  0.7125
  749MOL0     C 3234   7.459   2.808   3.621 -0.0688 -0.3116 -0.8339
  749MOL0     C 3235   7.309   2.850   3.604 -0.4704 -0.9418 -0.7507
  749MOL0     C 3236   7.224   2.823   3.728 -0.2824 -1.8547  0.4558
  749MOL0     C 3237   7.083   2.858   3.672  0.1721  0.2259  0.2071
  749MOL0     C 3238   6.988   2.820   3.780 -1.3161  0.9222  0.9314
  749MOL0     C 3239   7.014   2.871   3.924  0.1967 -0.6893 -0.0465
  749MOL0     C 3240   7.038   3.025   3.938 -0.3783 -0.3915 -0.2837
  749MOL0     N 3241   6.908   3.100   3.935 -0.0044 -0.3860 -1.0724
  749MOL0     C 3242   6.860   3.183   4.034  0.4203 -0.9602  0.0484
  749MOL0     C 3243   6.766   3.262   3.973 -0.1500  0.9475 -0.2605
  749MOL0     C 3244   6.666   3.352   4.044 -0.9525  0.3175  0.4942
  749MOL0     C 3245   6.715   3.492   4.023 -0.6773 -0.5637 -0.1649
  749MOL0     C 3246   6.678   3.596   4.130  0.3019 -0.2229  0.7480
  749MOL0     C 3247   6.739   3.731   4.096  0.4056 -1.2003  0.3862
  749MOL0     O 3248   6.739   3.835   4.199  0.2164  0.0391  0.1522
  749MOL0     C 3249   6.612   3.877   4.237 -0.2157 -0.3682  1.0004
  749MOL0     C 3250   6.564   3.999   4.190  0.3418 -0.8760  0.3985
  749MOL0     C 3251   6.428   4.035   4.189  0.0790 -0.0227  0.3014
  749MOL0     C 3252   6.385   4.156   4.109 -0.2002 -0.2046 -0.1741
  749MOL0     C 3253   6.345   3.949   4.270  0.1827 -0.3108  0.0109
  749MOL0     C 3254   6.215   3.979   4.333 -0.3664 -0.1683 -0.3152
  749MOL0     O 3255   6.147   3.881   4.400 -0.2088 -0.2818  0.7516
  749MOL0     C 3256   6.011   3.903   4.431  0.3506 -0.7662 -0.7463
  749MOL0     C 3257   5.911   3.949   4.341 -0.6773 -0.2169  0.4187
  749MOL0     C 3258   5.778   3.973   4.390 -0.2922 -0.1568  0.4036
  749MOL0     C 3259   5.737   3.934   4.521  0.9131  0.6543 -0.1093
  749MOL0     O 3260   5.612   3.937   4.574  0.5939  0.0598 -0.1023
  749MOL0     C 3261   5.497   3.984   4.502  0.3714 -0.3709 -0.1391
  749MOL0     C 3262   5.428   3.884   4.420 -0.9959 -0.4338  0.4714
  749MOL0     C 3263   5.445   3.745   4.471  0.5902  0.5556  0.6345
  749MOL0     C 3264   5.379   3.643   4.378 -0.3892  0.4601  0.8404
  749MOL0     C 3265   5.399   3.510   4.428 -0.3261 -0.8421  0.0579
  749MOL0     C 3266   5.330   3.405   4.351  0.0373 -0.1404  0.5341
  749MOL0     C 3267   5.381   3.265   4.400 -0.2674 -0.6120  0.8063
  749MOL0     C 3268   5.514   3.223   4.331 -0.1979  0.0670 -0.5155
  749MOL0    Cl 3269   5.610   3.120   4.441  0.4879 -0.1692 -0.0772
  749MOL0     C 3270   5.837   3.883   4.597 -0.0888  0.3439 -0.3556
  749MOL0     C 3271   5.972   3.873   4.557 -0.2424  0.7419 -0.5381
  749MOL0     O 3272   6.175   4.091   4.315  0.0443 -0.3000  0.6775
  749MOL0     C 3273   6.396   3.829   4.315  0.1413  0.3831 -0.0150
  749MOL0     C 3274   6.527   3.787   4.293  0.1796  0.3310  0.5354
  749MOL0     N 3275   6.766   3.241   3.837 -0.0669 -0.4922  1.1932
  749MOL0     N 3276   6.852   3.138   3.816 -0.8723  0.0498  0.2383
  749MOL0     C 3277   7.865   3.029   3.701 -0.2247  0.8730  0.4910
  749MOL0     C 3278   7.941   3.125   3.760  0.5148  0.9172  0.3671
  749MOL0     C 3279   8.039   3.479   4.040  0.0039 -0.3702 -0.4867
  749MOL0     C 3280   8.163   3.484   3.968  0.9908  0.9185 -0.4663
  749MOL0     C 3281   8.260   3.581   3.992  0.6438  0.0310  0.5509
  749MOL0     C 3282   8.225   3.686   4.075  0.3440  1.0433 -0.4290
  749MOL0     O 3283   8.336   3.766   4.102  0.3379  0.5213 -0.0826
  749MOL0     C 3284   8.316   3.893   4.153  0.4128 -0.8513 -0.1130
  749MOL0     C 3285   8.407   3.996   4.083 -0.0973 -0.7335  0.1584
  749MOL0     C 3286   8.359   4.012   3.939 -1.2276  0.3891 -0.1596
  749MOL0     C 3287   8.457   4.101   3.858 -0.4614  0.2296 -0.9863
  749MOL0     C 3288   8.571   4.021   3.814 -0.4616 -0.4932 -0.1884
  749MOL0     C 3289   8.678   3.986   3.772 -0.8327  0.1319  0.3417
  749MOL0     C 3290   8.102   3.689   4.148 -0.3921  0.4233 -0.6294
  749MOL0     C 3291   8.012   3.585   4.133 -0.6406 -0.5551  0.4763
  749MOL0     C 3292   7.883   3.593   4.225 -0.2030 -0.4157 -0.3816
  749MOL0     H 3293   7.719   3.261   3.982 -0.3170  1.4738 -1.1670
  749MOL0     H 3294   7.593   3.072   3.916 -0.7165 -1.9366 -2.0341
  749MOL0     H 3295   7.492   2.983   3.753  0.5799 -0.0207  3.2673
  749MOL0     H 3296   7.503   2.825   3.837  1.2670 -3.0648 -0.1990
  749MOL0     H 3297   7.525   2.832   3.537 -0.5940  2.8241 -0.4895
  749MOL0     H 3298   7.457   2.699   3.633 -2.3738 -0.6362 -3.2627
  749MOL0     H 3299   7.308   2.954   3.570  1.4025 -0.2681  1.0180
  749MOL0     H 3300   7.267   2.791   3.522  0.9902  0.9986 -3.0651
  749MOL0     H 3301   7.231   2.716   3.752  0.9590 -1.8966  0.0069
  749MOL0     H 3302   7.252   2.888   3.811  0.0468 -0.4361 -0.7233
  749MOL0     H 3303   7.058   2.806   3.579 -0.8287  0.8320  0.1168
  749MOL0     H 3304   7.061   2.961   3.643 -2.5500 -0.5426 -0.8242
  749MOL0     H 3305   6.890   2.846   3.740 -0.7749  0.3670 -0.8497
  749MOL0     H 3306   6.997   2.711   3.786  0.5867  1.0224  0.6907
  749MOL0     H 3307   7.105   2.826   3.964  0.7023 -0.9702 -1.4266
  749MOL0     H 3308   6.935   2.829   3.987  0.6268 -2.7102 -0.7573
  749MOL0     H 3309   7.082   3.039   4.037 -0.1909  3.8116 -0.7868
  749MOL0     H 3310   7.097   3.063   3.854 -1.3466 -1.5208 -1.5325
  749MOL0     H 3311   6.879   3.179   4.141  2.9492  1.0008 -0.2230
  749MOL0     H 3312   6.669   3.323   4.149  0.3745 -0.4925  0.2579
  749MOL0     H 3313   6.564   3.343   4.008 -0.8591  1.2007 -0.0132
  749MOL0     H 3314   6.824   3.502   4.012 -0.5866  0.6510  1.4149
  749MOL0     H 3315   6.672   3.515   3.925  0.4720 -0.5150 -0.6748
  749MOL0     H 3316   6.569   3.602   4.137  0.2625 -1.3769  1.3361
  749MOL0     H 3317   6.708   3.555   4.226 -0.0248 -0.8049  0.6103
  749MOL0     H 3318   6.839   3.708   4.057  0.0265  0.7900 -2.0638
  749MOL0     H 3319   6.687   3.761   4.005  0.5847 -2.3482 -0.1117
  749MOL0     H 3320   6.635   4.055   4.130 -2.0767  2.5043  0.4630
  749MOL0     H 3321   6.423   4.253   4.143  0.0234  0.1005 -1.2772
  749MOL0     H 3322   6.278   4.162   4.088  0.1104  2.9101 -1.5605
  749MOL0     H 3323   6.429   4.163   4.009 -2.0971  0.0820 -1.0320
  749MOL0     H 3324   5.940   3.967   4.238  2.5363 -3.5259  0.5265
  749MOL0     H 3325   5.705   4.027   4.330  0.8237  0.2700 -0.5832
  749MOL0     H 3326   5.413   4.004   4.570 -3.4923  0.3602 -4.6565
  749MOL0     H 3327   5.519   4.080   4.454  0.1842  0.3780  1.2159
  749MOL0     H 3328   5.329   3.924   4.395 -0.5563  0.5958  0.3171
  749MOL0     H 3329   5.480   3.888   4.323 -0.2844  0.4521  0.8753
  749MOL0     H 3330   5.403   3.727   4.570 -0.5841  0.0296  0.0637
  749MOL0     H 3331   5.552   3.728   4.457  0.8438  1.8258  0.9470
  749MOL0     H 3332   5.436   3.651   4.285  1.5521  1.1348  2.0399
  749MOL0     H 3333   5.274   3.672   4.360 -0.2565  1.4248  1.5415
  749MOL0     H 3334   5.508   3.508   4.430 -0.2902 -0.7312 -1.3194
  749MOL0     H 3335   5.366   3.502   4.533 -1.4862  2.3675  0.0505
  749MOL0     H 3336   5.345   3.419   4.244 -0.4028  4.0535  0.8585
  749MOL0     H 3337   5.221   3.416   4.362 -0.3022 -0.9685 -1.5005
  749MOL0     H 3338   5.310   3.186   4.374 -0.2223 -0.2745 -0.4286
  749MOL0     H 3339   5.372   3.266   4.509 -0.0507 -2.2745  0.8576
  749MOL0     H 3340   5.572   3.312   4.307 -1.7080  0.5485 -2.6108
  749MOL0     H 3341   5.486   3.159   4.247 -4.1340 -0.9690  1.3631
  749MOL0     H 3342   5.805   3.863   4.699  0.2558  4.9678  0.8721
  749MOL0     H 3343   6.048   3.831   4.622 -3.1934 -0.3121  2.5202
  749MOL0     H 3344   6.335   3.759   4.370 -1.5947  2.5676  0.9888
  749MOL0     H 3345   6.555   3.694   4.342  0.2280 -1.1455 -2.1172
  749MOL0     H 3346   7.899   2.963   3.622  0.5279  3.0655 -1.1037
  749MOL0     H 3347   8.043   3.145   3.729  0.1324  1.6255 -0.4794
  749MOL0     H 3348   8.181   3.403   3.899  3.3831  0.9903 -0.0046
  749MOL0     H 3349   8.357   3.582   3.942  0.2285 -1.4822 -0.3366
  749MOL0     H 3350   8.212   3.924   4.138  0.3521  0.3399  2.2351
  749MOL0     H 3351   8.337   3.882   4.260  0.5474 -0.2964 -0.0784
  749MOL0     H 3352   8.512   3.964   4.084 -0.2695 -1.5135 -1.8233
  749MOL0     H 3353   8.427   4.092   4.131  2.1235  0.2744 -2.5037
  749MOL0     H 3354   8.356   3.913   3.894  0.3455  0.2859 -0.0935
  749MOL0     H 3355   8.261   4.058   3.924  0.2397  3.6703 -0.5554
  749MOL0     H 3356   8.479   4.201   3.897 -1.7682 -0.2003  1.0215
  749MOL0     H 3357   8.410   4.132   3.765 -0.2129  1.3773 -0.7407
  749MOL0     H 3358   8.775   3.958   3.737 -1.6523  0.6720 -2.5539
  749MOL0     H 3359   8.103   3.750   4.238 -0.5570 -2.5497  1.5481
  749MOL0     H 3360   7.878   3.512   4.298 -0.7267  0.6413  0.7900
  749MOL0     H 3361   7.902   3.680   4.288 -0.7960 -0.0292 -0.7247
  749MOL0     H 3362   7.785   3.590   4.176 -1.0404 -1.8703  1.2623
  750MOL0     O 3363  11.448   1.946   7.009 -0.3705 -0.0168 -0.1523
  750MOL0     C 3364  11.448   1.849   6.934 -0.2328  0.9963 -0.3372
  750MOL0     O 3365  11.417   1.714   6.970  0.0577 -0.8798  0.2945
  750MOL0     C 3366  11.364   1.691   7.090  1.3408 -0.7582 -0.3750
  750MOL0     C 3367  11.397   1.576   7.164  0.8853 -0.2367  0.0744
  750MOL0     C 3368  11.333   1.551   7.283  0.4974  0.2534 -0.0620
  750MOL0     C 3369  11.242   1.629   7.347  0.0632  0.0729 -0.0274
  750MOL0     O 3370  11.212   1.599   7.475  0.2818 -0.5483 -0.5731
  750MOL0     C 3371  11.209   1.707   7.564  0.9761  0.1572 -0.2735
  750MOL0     C 3372  11.266   1.665   7.692 -0.2748 -0.1425 -0.4320
  750MOL0     C 3373  11.279   1.777   7.798  0.8780 -0.7596  0.0256
  750MOL0     C 3374  11.139   1.805   7.866 -0.4558  0.8415 -0.0138
  750MOL0     C 3375  11.162   1.912   7.973  0.8546 -0.5161  0.0933
  750MOL0     C 3376  11.035   1.924   8.061 -0.4184 -0.2875 -0.2672
  750MOL0     C 3377  11.081   2.018   8.177 -0.7440 -0.3075  0.3962
  750MOL0     C 3378  10.971   2.052   8.281 -0.3479 -1.1820  0.0810
  750MOL0     N 3379  11.004   2.164   8.370 -0.4130 -0.3824  0.4903
  750MOL0     C 3380  10.930   2.279   8.380 -0.0250  0.4530 -0.6283
  750MOL0     C 3381  10.977   2.341   8.500 -0.3787 -0.6617  0.3121
  750MOL0     C 3382  10.929   2.465   8.569  0.1640  0.3050  0.7110
  750MOL0     C 3383  10.784   2.473   8.605  1.4160 -0.1998 -0.3687
  750MOL0     C 3384  10.723   2.608   8.595  0.2362  0.7490  0.0915
  750MOL0     C 3385  10.775   2.699   8.705 -0.1697 -0.0512  0.2846
  750MOL0     O 3386  10.766   2.649   8.839  0.0670 -0.3497 -0.2438
  750MOL0     C 3387  10.694   2.707   8.942  0.4114 -0.5454  0.1548
  750MOL0     C 3388  10.575   2.770   8.923  0.3297 -0.1395 -0.4141
  750MOL0     C 3389  10.500   2.830   9.033 -1.1993  0.9447 -0.3285
  750MOL0     C 3390  10.376   2.908   9.005  0.3911  0.6701 -0.4020
  750MOL0     C 3391  10.554   2.819   9.166 -0.6614  0.4849 -0.3239
  750MOL0     C 3392  10.484   2.875   9.289  0.3299 -0.0554  0.3418
  750MOL0     O 3393  10.428   2.999   9.273  0.5682  0.2834  0.7399
  750MOL0     C 3394  10.329   3.043   9.352  0.2868 -0.7926 -0.4146
  750MOL0     C 3395  10.282   3.174   9.327  0.9844  0.1255  0.1466
  750MOL0     C 3396  10.185   3.244   9.406  0.5044 -0.0042 -0.1264
  750MOL0     C 3397  10.126   3.181   9.515  0.0528  1.6331  0.1897
  750MOL0     O 3398  10.024   3.245   9.578 -0.6220  0.1238  0.3500
  750MOL0     C 3399   9.954   3.173   9.688 -0.2481 -1.3859 -0.0038
  750MOL0     C 3400   9.863   3.266   9.768 -0.2827  0.9213  0.0702
  750MOL0     C 3401   9.749   3.204   9.841  0.5695  0.8472 -0.2948
  750MOL0     C 3402   9.631   3.170   9.741 -0.3098 -0.3681 -0.3164
  750MOL0     C 3403   9.500   3.153   9.811 -0.0990  0.3857  0.1144
  750MOL0     C 3404   9.481   3.023   9.890  0.6763 -0.1659  0.4505
  750MOL0     C 3405   9.332   3.002   9.902 -0.7819 -0.2948 -0.6530
  750MOL0     C 3406   9.299   2.908  10.016 -0.7732  0.4449  0.2189
  750MOL0    Cl 3407   9.356   2.742  10.011 -0.2617 -0.1237 -0.1645
  750MOL0     C 3408  10.184   3.055   9.548  0.9130  0.2498 -0.2663
  750MOL0     C 3409  10.272   2.991   9.465 -0.0047  0.4521  1.0237
  750MOL0     O 3410  10.508   2.823   9.395  0.2427  0.0426 -0.4084
  750MOL0     C 3411  10.678   2.746   9.181  0.2297  0.2888 -0.7169
  750MOL0     C 3412  10.750   2.691   9.072  0.0162 -0.5574  0.1955
  750MOL0     N 3413  11.080   2.269   8.548  0.6788  0.9767 -0.6346
  750MOL0     N 3414  11.090   2.155   8.476  0.0541  0.3409  0.1590
  750MOL0     C 3415  11.217   1.750   7.278 -0.0477  0.0355 -0.5121
  750MOL0     C 3416  11.273   1.773   7.154  0.8985  0.7933  0.1722
  750MOL0     C 3417  11.494   1.880   6.795 -0.3297  0.4767  0.1352
  750MOL0     C 3418  11.412   1.832   6.691 -0.0423 -0.3658 -0.1263
  750MOL0     C 3419  11.439   1.845   6.549  0.3338 -0.9408 -0.3205
  750MOL0     C 3420  11.565   1.907   6.519 -0.0292  0.1256  0.7194
  750MOL0     O 3421  11.629   1.920   6.391  1.1880  0.5294 -0.2033
  750MOL0     C 3422  11.579   1.830   6.279 -0.3344 -0.1503 -0.0753
  750MOL0     C 3423  11.469   1.900   6.209 -0.5378 -0.4587  0.2061
  750MOL0     C 3424  11.511   2.022   6.122  0.5149  0.2636 -0.9955
  750MOL0     C 3425  11.489   1.996   5.977  0.1657 -0.0803  0.1508
  750MOL0     C 3426  11.581   2.082   5.892  1.0359  0.6765 -0.6468
  750MOL0     C 3427  11.665   2.159   5.854  0.0730 -0.0351  0.3052
  750MOL0     C 3428  11.647   1.953   6.624 -1.9574 -0.2175 -0.5487
  750MOL0     C 3429  11.616   1.935   6.758 -0.2400  0.0566 -0.2558
  750MOL0     C 3430  11.703   2.005   6.856  0.6341 -0.4925 -0.5233
  750MOL0     H 3431  11.474   1.511   7.124  0.8963 -0.3130  0.2211
  750MOL0     H 3432  11.357   1.461   7.339 -2.3993  0.1815  1.2691
  750MOL0     H 3433  11.110   1.750   7.583 -0.0294 -1.9231 -0.5448
  750MOL0     H 3434  11.271   1.788   7.523  2.3509 -1.5123 -1.6207
  750MOL0     H 3435  11.207   1.582   7.732 -0.2538  0.6373  1.3162
  750MOL0     H 3436  11.364   1.625   7.666  0.0515  0.6625 -0.4736
  750MOL0     H 3437  11.354   1.750   7.873  0.9546  1.7372  0.9482
  750MOL0     H 3438  11.312   1.865   7.741 -2.5572 -0.9821 -2.7036
  750MOL0     H 3439  11.067   1.835   7.789 -1.8935 -0.4967  0.7366
  750MOL0     H 3440  11.101   1.710   7.906  1.8762  0.4307  1.3966
  750MOL0     H 3441  11.190   2.009   7.933  0.6131 -1.6568 -3.1322
  750MOL0     H 3442  11.251   1.891   8.034  0.1126  0.1575  1.4605
  750MOL0     H 3443  10.957   1.967   7.997 -0.5754 -0.3104 -0.0939
  750MOL0     H 3444  10.979   1.838   8.098  0.4328 -0.6268  0.2693
  750MOL0     H 3445  11.109   2.113   8.132 -1.7251  0.5656  1.5627
  750MOL0     H 3446  11.172   1.978   8.224  0.3338  2.9196  1.2701
  750MOL0     H 3447  10.879   2.062   8.223  0.1392 -0.4446 -0.5736
  750MOL0     H 3448  10.964   1.966   8.348  5.2291 -0.0903  2.6755
  750MOL0     H 3449  10.850   2.311   8.314 -1.7528 -1.1555  0.5790
  750MOL0     H 3450  10.942   2.546   8.496 -0.5049 -0.3079 -0.1081
  750MOL0     H 3451  10.990   2.489   8.656 -2.3660  4.0074  1.7080
  750MOL0     H 3452  10.732   2.405   8.537  1.0538 -1.2989  0.9664
  750MOL0     H 3453  10.764   2.423   8.700  0.4291 -0.7921 -0.8721
  750MOL0     H 3454  10.750   2.657   8.501 -1.9129  2.4922  0.2981
  750MOL0     H 3455  10.617   2.580   8.599  0.8003 -3.5290 -4.5916
  750MOL0     H 3456  10.883   2.704   8.689 -0.0720  5.5597  0.8618
  750MOL0     H 3457  10.744   2.803   8.691  1.2959  0.2971 -0.6038
  750MOL0     H 3458  10.545   2.784   8.819  0.2569 -0.0621 -0.3813
  750MOL0     H 3459  10.302   2.865   9.074  2.8759 -1.9254  0.8241
  750MOL0     H 3460  10.334   2.898   8.905  0.8547  0.5024 -0.5799
  750MOL0     H 3461  10.388   3.015   9.027  1.5952  0.3911  0.3570
  750MOL0     H 3462  10.313   3.218   9.233 -1.0599  0.0903 -0.5888
  750MOL0     H 3463  10.160   3.343   9.372  0.5241 -0.6153 -2.0056
  750MOL0     H 3464   9.892   3.099   9.637 -1.5505 -0.7620  0.6138
  750MOL0     H 3465  10.023   3.131   9.761  1.1492 -0.2916 -0.6380
  750MOL0     H 3466   9.933   3.318   9.834 -1.0631  1.3939  0.5428
  750MOL0     H 3467   9.827   3.352   9.710 -2.8297  1.1524  1.8599
  750MOL0     H 3468   9.706   3.275   9.913 -0.9469 -0.5019  0.1918
  750MOL0     H 3469   9.785   3.113   9.889 -1.5049 -0.1059 -0.4153
  750MOL0     H 3470   9.658   3.084   9.678  0.6441 -0.0502 -0.3533
  750MOL0     H 3471   9.616   3.251   9.670  0.6764  1.5778  1.5859
  750MOL0     H 3472   9.479   3.226   9.889 -0.5113 -1.8076  2.1784
  750MOL0     H 3473   9.423   3.157   9.733 -0.3396 -1.0862  0.2447
  750MOL0     H 3474   9.535   3.031   9.985  2.2207  0.1367 -0.4212
  750MOL0     H 3475   9.527   2.940   9.836  1.4548 -0.6185  1.7503
  750MOL0     H 3476   9.298   2.959   9.807 -3.1570  0.9649 -0.4217
  750MOL0     H 3477   9.279   3.097   9.904 -0.8815 -0.3557  0.7677
  750MOL0     H 3478   9.190   2.910  10.014 -0.7989 -0.7162 -1.7343
  750MOL0     H 3479   9.336   2.952  10.109 -0.7238  0.5176  0.1652
  750MOL0     H 3480  10.147   3.001   9.634  2.6499  1.0118  1.0095
  750MOL0     H 3481  10.286   2.888   9.497 -1.3126 -0.2514 -0.5458
  750MOL0     H 3482  10.710   2.713   9.279 -0.9725 -1.0124 -0.7314
  750MOL0     H 3483  10.835   2.625   9.088  0.6810  0.5436  1.4717
  750MOL0     H 3484  11.160   1.835   7.314 -1.3936 -1.3733  0.8911
  750MOL0     H 3485  11.239   1.864   7.104  1.4847  0.9463  0.0337
  750MOL0     H 3486  11.317   1.787   6.718  0.4990 -0.3504  1.9175
  750MOL0     H 3487  11.373   1.802   6.474  0.1850 -1.3442  0.0370
  750MOL0     H 3488  11.662   1.810   6.211  2.3200  2.0171  2.2796
  750MOL0     H 3489  11.536   1.736   6.315 -0.2159 -0.8825 -1.7431
  750MOL0     H 3490  11.401   1.931   6.289  1.9533 -0.3799  2.4113
  750MOL0     H 3491  11.407   1.833   6.148 -1.6298  1.4033 -0.8294
  750MOL0     H 3492  11.452   2.107   6.157  2.3777  0.7420  1.2663
  750MOL0     H 3493  11.614   2.050   6.145  0.6827 -0.1602 -1.2367
  750MOL0     H 3494  11.382   1.997   5.953 -0.4540 -0.2188  2.6330
  750MOL0     H 3495  11.513   1.890   5.960 -1.0069 -0.4177  0.5186
  750MOL0     H 3496  11.739   2.232   5.831  0.4256 -0.4213  0.2041
  750MOL0     H 3497  11.743   1.984   6.583 -1.4319 -2.1556 -0.9016
  750MOL0     H 3498  11.684   2.112   6.847 -1.7818 -0.8763 -0.5731
  750MOL0     H 3499  11.679   1.965   6.955 -0.3816 -3.2306 -1.7654
  750MOL0     H 3500  11.808   1.989   6.828  0.3306 -0.9745 -1.4230
  751MOL0     O 3501   6.607   1.847   8.894  0.5698  0.6822 -0.5166
  751MOL0     C 3502   6.670   1.944   8.845  0.6391  0.6241  0.8825
  751MOL0     O 3503   6.773   1.933   8.759 -0.0963 -0.4245  0.3128
  751MOL0     C 3504   6.815   1.808   8.734  0.0360  0.1382  0.3210
  751MOL0     C 3505   6.800   1.754   8.604 -0.1115 -0.2199  0.0334
  751MOL0     C 3506   6.841   1.616   8.574 -0.3501  0.5693 -0.1043
  751MOL0     C 3507   6.899   1.529   8.671  0.0160 -0.1210  0.3835
  751MOL0     O 3508   6.921   1.395   8.638  0.1914 -0.5761  0.3709
  751MOL0     C 3509   6.931   1.300   8.746  1.6382  0.7932  0.2972
  751MOL0     C 3510   6.945   1.155   8.695 -0.2955 -0.0267 -0.1350
  751MOL0     C 3511   6.997   1.068   8.814  0.2665 -0.5066  0.3713
  751MOL0     C 3512   6.898   1.076   8.936  0.5729 -0.3023 -0.2856
  751MOL0     C 3513   6.924   0.972   9.042  1.1775  0.2367 -0.2275
  751MOL0     C 3514   6.913   1.034   9.180  0.6231 -0.1669 -0.2275
  751MOL0     C 3515   6.905   0.941   9.305  0.6591 -0.9701 -0.3815
  751MOL0     C 3516   6.913   1.018   9.439  0.7032  0.2447  0.6638
  751MOL0     N 3517   6.839   0.944   9.542 -0.0800  0.4999 -0.0533
  751MOL0     C 3518   6.704   0.941   9.550  0.0054  0.1801 -0.4898
  751MOL0     C 3519   6.679   0.843   9.636  0.4764 -0.0003  0.3920
  751MOL0     C 3520   6.546   0.836   9.705  0.1327 -0.0099 -0.6035
  751MOL0     C 3521   6.447   0.727   9.642 -0.0934  0.3762 -0.4322
  751MOL0     C 3522   6.322   0.778   9.560  0.0591 -0.2144 -0.2391
  751MOL0     C 3523   6.341   0.742   9.413 -0.7823  1.0457  0.2546
  751MOL0     O 3524   6.454   0.810   9.367 -0.0111 -0.1051  1.2645
  751MOL0     C 3525   6.496   0.781   9.240  1.0136  1.3952  0.3758
  751MOL0     C 3526   6.605   0.693   9.208  0.3745  0.3388  0.0096
  751MOL0     C 3527   6.647   0.652   9.077 -0.7758 -0.5988  1.2457
  751MOL0     C 3528   6.774   0.576   9.062  0.1775 -0.7955 -0.2750
  751MOL0     C 3529   6.569   0.697   8.967 -1.0162 -0.1237 -0.8770
  751MOL0     C 3530   6.595   0.657   8.831  0.6463 -0.6064  0.4435
  751MOL0     O 3531   6.541   0.742   8.733  0.1788  0.2486  0.5512
  751MOL0     C 3532   6.602   0.779   8.616 -0.3262  0.0634 -1.1868
  751MOL0     C 3533   6.744   0.771   8.606  0.7651  0.1218 -0.6241
  751MOL0     C 3534   6.797   0.818   8.484  0.4418  1.1159  0.0316
  751MOL0     C 3535   6.726   0.877   8.387 -0.6689 -0.1240  0.1677
  751MOL0     O 3536   6.783   0.925   8.272  1.3643 -0.2078  0.4045
  751MOL0     C 3537   6.735   0.886   8.145 -0.6808  0.7660 -0.8592
  751MOL0     C 3538   6.855   0.892   8.047 -0.5305  0.6017  0.4217
  751MOL0     C 3539   6.861   0.776   7.944  0.6202  0.2906  0.0375
  751MOL0     C 3540   6.733   0.789   7.852  0.3889  0.2506  0.6280
  751MOL0     C 3541   6.745   0.675   7.743  0.2513 -0.5602  0.5489
  751MOL0     C 3542   6.611   0.647   7.681  0.4115 -1.2496  0.3370
  751MOL0     C 3543   6.602   0.514   7.597 -1.2632  0.0793 -0.6545
  751MOL0     C 3544   6.461   0.485   7.542 -0.1183  0.4052 -0.0645
  751MOL0    Cl 3545   6.421   0.315   7.516 -0.1490  0.4329 -0.1353
  751MOL0     C 3546   6.584   0.874   8.397  0.1929  0.6908  0.3911
  751MOL0     C 3547   6.529   0.841   8.519 -0.3408 -0.8944 -1.2627
  751MOL0     O 3548   6.665   0.558   8.805 -0.6888 -0.7667  0.2488
  751MOL0     C 3549   6.463   0.790   9.000  0.3685 -0.0216  0.1676
  751MOL0     C 3550   6.427   0.837   9.125  0.1778  0.5357 -0.3957
  751MOL0     N 3551   6.789   0.765   9.656 -0.0867  0.9809  0.6624
  751MOL0     N 3552   6.892   0.829   9.595  0.9019 -0.0751  0.3409
  751MOL0     C 3553   6.925   1.592   8.796 -0.0733 -0.1796  0.1186
  751MOL0     C 3554   6.889   1.724   8.825  0.1760  0.2286 -1.7350
  751MOL0     C 3555   6.640   2.084   8.888  0.2425  0.4661  0.5730
  751MOL0     C 3556   6.737   2.187   8.861  0.0360  0.5155 -0.2445
  751MOL0     C 3557   6.720   2.317   8.898  1.2553  0.2878  0.1273
  751MOL0     C 3558   6.592   2.360   8.951  0.2407  0.0328  0.0983
  751MOL0     O 3559   6.578   2.491   8.997  0.2751  0.0336  0.1452
  751MOL0     C 3560   6.666   2.597   8.965  0.3586 -0.0717 -0.5087
  751MOL0     C 3561   6.615   2.730   9.013 -0.8815  0.6760  0.0708
  751MOL0     C 3562   6.483   2.775   8.944  0.2689 -1.5428 -0.5485
  751MOL0     C 3563   6.358   2.699   8.994 -0.0339 -0.3036  0.5304
  751MOL0     C 3564   6.242   2.755   8.933  0.9506 -0.1564 -0.2770
  751MOL0     C 3565   6.135   2.798   8.904  0.3829  1.0451 -0.3473
  751MOL0     C 3566   6.492   2.263   8.975  0.3425 -0.0522  0.0350
  751MOL0     C 3567   6.512   2.118   8.946 -0.3930 -1.1768 -0.2469
  751MOL0     C 3568   6.394   2.029   8.977  0.6520 -0.9183  0.3245
  751MOL0     H 3569   6.754   1.819   8.530  2.1140  2.0903  0.5488
  751MOL0     H 3570   6.838   1.576   8.473  0.7991 -1.7586  0.7207
  751MOL0     H 3571   6.831   1.308   8.790 -0.0476 -2.0083 -2.5971
  751MOL0     H 3572   7.006   1.310   8.826  2.9577  1.1460 -0.9334
  751MOL0     H 3573   6.850   1.121   8.653  0.2626  0.7821 -2.1763
  751MOL0     H 3574   7.023   1.160   8.619  1.0492 -0.6480  1.1469
  751MOL0     H 3575   7.007   0.964   8.784  1.9617 -0.0241 -0.8907
  751MOL0     H 3576   7.094   1.109   8.844 -1.0382  2.4152  0.9950
  751MOL0     H 3577   6.894   1.177   8.978 -1.3749 -0.1832 -0.6706
  751MOL0     H 3578   6.797   1.048   8.905  0.7153 -2.0380  0.7098
  751MOL0     H 3579   7.024   0.928   9.034  0.6064 -1.3351  0.8052
  751MOL0     H 3580   6.850   0.893   9.025 -1.4853  2.4936  0.2757
  751MOL0     H 3581   7.003   1.095   9.191  1.1595 -0.5105 -2.3149
  751MOL0     H 3582   6.832   1.108   9.189  2.3160  1.8056 -0.4634
  751MOL0     H 3583   6.985   0.868   9.292  1.0449 -0.2522 -2.3278
  751MOL0     H 3584   6.809   0.887   9.306 -0.8811  1.6249 -0.0896
  751MOL0     H 3585   7.017   1.036   9.467  1.3400 -0.6260 -0.9805
  751MOL0     H 3586   6.881   1.121   9.423  2.3913  0.9382  1.5017
  751MOL0     H 3587   6.629   1.010   9.512 -0.4114 -0.8733 -1.6618
  751MOL0     H 3588   6.502   0.934   9.685  2.1461  1.1550  0.4538
  751MOL0     H 3589   6.552   0.823   9.813 -1.7285 -3.7193 -0.7685
  751MOL0     H 3590   6.511   0.663   9.580  1.9829  2.5552 -0.6702
  751MOL0     H 3591   6.405   0.662   9.720 -4.2821  1.4344 -1.5244
  751MOL0     H 3592   6.242   0.706   9.581  2.1221 -2.8729 -0.9472
  751MOL0     H 3593   6.310   0.885   9.577 -3.9346 -0.5273  0.0226
  751MOL0     H 3594   6.358   0.635   9.397 -1.6588  0.5762  2.2300
  751MOL0     H 3595   6.252   0.763   9.352  0.1977  2.5763 -0.7231
  751MOL0     H 3596   6.669   0.646   9.283  0.6073 -1.3940 -1.1986
  751MOL0     H 3597   6.832   0.611   8.976 -0.8839 -1.1877 -1.1738
  751MOL0     H 3598   6.758   0.468   9.067  2.3055 -1.1222  3.2004
  751MOL0     H 3599   6.839   0.586   9.150 -1.1365  0.1340  0.6386
  751MOL0     H 3600   6.810   0.746   8.689 -0.2084 -3.4952 -0.7928
  751MOL0     H 3601   6.904   0.829   8.472  0.3817  1.3533 -0.2595
  751MOL0     H 3602   6.690   0.786   8.151  1.1385 -0.4005 -4.2111
  751MOL0     H 3603   6.650   0.953   8.128  0.3887  2.9950  1.6698
  751MOL0     H 3604   6.845   0.989   7.998  3.2180  0.8064 -0.1893
  751MOL0     H 3605   6.953   0.887   8.094  1.0321 -2.8589 -2.7323
  751MOL0     H 3606   6.872   0.673   7.979 -0.3154 -1.2857 -3.7686
  751MOL0     H 3607   6.945   0.800   7.877 -0.3507  0.4036 -1.1620
  751MOL0     H 3608   6.704   0.890   7.821 -2.9068 -0.6310  0.4662
  751MOL0     H 3609   6.655   0.754   7.920  0.8087 -1.9535  0.0532
  751MOL0     H 3610   6.807   0.695   7.655 -3.3390  0.9424 -1.8901
  751MOL0     H 3611   6.779   0.584   7.793 -0.6717  0.0194  2.3245
  751MOL0     H 3612   6.582   0.736   7.625 -0.8661 -0.1960  2.5099
  751MOL0     H 3613   6.536   0.643   7.761 -0.1808  0.9303 -0.0585
  751MOL0     H 3614   6.628   0.435   7.668 -1.7597  0.6865  0.2293
  751MOL0     H 3615   6.679   0.513   7.520 -0.1693 -0.7188  0.4098
  751MOL0     H 3616   6.460   0.537   7.446  0.8375  0.6206  0.0329
  751MOL0     H 3617   6.377   0.514   7.607 -1.5125 -4.2386  0.6486
  751MOL0     H 3618   6.518   0.916   8.322 -0.8641  0.7887  1.3393
  751MOL0     H 3619   6.422   0.850   8.530 -0.3028  4.3975 -2.3201
  751MOL0     H 3620   6.396   0.832   8.925 -0.5936 -1.6176  0.0796
  751MOL0     H 3621   6.369   0.929   9.130 -0.3387  0.4097 -2.7187
  751MOL0     H 3622   6.967   1.541   8.882 -2.0725 -0.1802  1.1409
  751MOL0     H 3623   6.915   1.766   8.921  2.4854 -0.3210 -2.0620
  751MOL0     H 3624   6.823   2.168   8.797 -0.8211  1.8785 -1.8738
  751MOL0     H 3625   6.801   2.385   8.871  2.6150 -1.2063  0.2468
  751MOL0     H 3626   6.756   2.584   9.025  0.3568 -0.4688 -0.5869
  751MOL0     H 3627   6.694   2.616   8.861  0.1951  2.5692 -0.1449
  751MOL0     H 3628   6.695   2.801   8.993 -0.7808  1.5316  3.0304
  751MOL0     H 3629   6.602   2.729   9.122 -0.4298 -0.7871  0.1285
  751MOL0     H 3630   6.458   2.882   8.947  0.8401 -1.4210  1.0010
  751MOL0     H 3631   6.475   2.767   8.836 -3.1883  0.2701 -0.5648
  751MOL0     H 3632   6.363   2.703   9.103 -0.9173  0.4243  0.5558
  751MOL0     H 3633   6.364   2.597   8.955  0.2687  1.0187 -3.2970
  751MOL0     H 3634   6.040   2.842   8.879 -0.6307 -1.0902 -0.5376
  751MOL0     H 3635   6.408   2.310   9.025  1.0449  1.3027 -0.0051
  751MOL0     H 3636   6.356   1.996   8.880  1.4069  3.6106 -1.7590
  751MOL0     H 3637   6.433   1.944   9.034  0.0475 -2.6503 -1.6969
  751MOL0     H 3638   6.302   2.071   9.019 -0.3652 -1.1279 -1.5580
  752MOL0     O 3639   6.564   8.414   5.704 -0.4414 -0.5171 -0.5513
  752MOL0     C 3640   6.601   8.362   5.603 -0.8084  0.3278  0.4545
  752MOL0     O 3641   6.726   8.294   5.592 -0.9640 -0.0553 -0.0910
  752MOL0     C 3642   6.794   8.284   5.707  0.1573  0.0166  0.0455
  752MOL0     C 3643   6.827   8.160   5.766 -0.2996 -0.4970 -0.8137
  752MOL0     C 3644   6.880   8.152   5.899  0.3391 -0.0887 -0.1299
  752MOL0     C 3645   6.924   8.278   5.960  0.0631 -0.5817  0.4767
  752MOL0     O 3646   6.984   8.293   6.083 -0.2184  0.2365 -0.2952
  752MOL0     C 3647   6.934   8.191   6.171  0.1956 -0.3279  0.1119
  752MOL0     C 3648   6.999   8.207   6.304 -1.2477 -0.2190  0.4727
  752MOL0     C 3649   6.981   8.349   6.367  0.2527  0.0973  1.4670
  752MOL0     C 3650   6.987   8.346   6.524  0.2424 -0.5294  0.3148
  752MOL0     C 3651   6.858   8.280   6.589 -0.6520  0.2102  0.0380
  752MOL0     C 3652   6.878   8.301   6.743 -0.4575 -0.0518  0.1279
  752MOL0     C 3653   6.778   8.207   6.831  0.1188  0.2186  1.1060
  752MOL0     C 3654   6.635   8.269   6.809 -0.6457 -0.7415  0.0444
  752MOL0     N 3655   6.555   8.214   6.922 -0.2767 -0.1922  1.3591
  752MOL0     C 3656   6.537   8.287   7.032  0.8021 -0.4645  0.0515
  752MOL0     C 3657   6.483   8.208   7.123 -0.2536  0.1768  0.4414
  752MOL0     C 3658   6.454   8.264   7.261 -0.3754  0.0065 -0.6079
  752MOL0     C 3659   6.470   8.165   7.376  0.6492 -0.6786 -0.5948
  752MOL0     C 3660   6.395   8.207   7.508 -0.6717  0.2949  0.0979
  752MOL0     C 3661   6.493   8.297   7.591 -0.3422 -0.5020  0.2460
  752MOL0     O 3662   6.451   8.358   7.722  0.4167  0.4620  0.3886
  752MOL0     C 3663   6.418   8.295   7.843 -1.0244 -0.0796 -0.5896
  752MOL0     C 3664   6.347   8.379   7.928 -0.5190  0.0466  0.6286
  752MOL0     C 3665   6.316   8.327   8.054 -0.0674 -0.2971  0.8158
  752MOL0     C 3666   6.222   8.403   8.145 -0.1174  0.4365  0.6002
  752MOL0     C 3667   6.368   8.203   8.102 -0.4097 -0.0208  0.5197
  752MOL0     C 3668   6.350   8.148   8.238 -0.8069  0.7567 -0.2471
  752MOL0     O 3669   6.426   8.211   8.333  0.1056  0.0548 -0.3428
  752MOL0     C 3670   6.416   8.168   8.462  0.7917  0.4069 -0.0533
  752MOL0     C 3671   6.496   8.063   8.504  0.1305 -0.6018  0.1307
  752MOL0     C 3672   6.504   8.050   8.640 -0.4273 -0.3195 -0.6856
  752MOL0     C 3673   6.431   8.122   8.729 -0.6841  0.2292  0.1556
  752MOL0     O 3674   6.449   8.088   8.868 -0.1195 -0.9903 -0.4764
  752MOL0     C 3675   6.455   8.199   8.964 -0.1647 -0.0790 -0.6606
  752MOL0     C 3676   6.364   8.176   9.088  0.3631 -0.4620 -0.1060
  752MOL0     C 3677   6.219   8.174   9.061  0.5417  0.5944  0.0162
  752MOL0     C 3678   6.157   8.054   8.991  0.3423  0.4954 -0.6239
  752MOL0     C 3679   6.008   8.074   8.985 -0.0778  0.9250  0.3379
  752MOL0     C 3680   5.960   7.997   8.865 -0.2080  0.8944 -0.7463
  752MOL0     C 3681   5.816   8.041   8.837 -0.3069  0.4499 -0.9304
  752MOL0     C 3682   5.715   7.998   8.943  0.5456 -0.3778  0.0471
  752MOL0    Cl 3683   5.680   8.128   9.066 -0.1403  0.0384  0.0788
  752MOL0     C 3684   6.344   8.224   8.683 -0.5505 -0.1597  0.6331
  752MOL0     C 3685   6.330   8.241   8.544 -0.2716 -0.5476 -0.3263
  752MOL0     O 3686   6.309   8.036   8.250  0.0932 -0.1729  0.2533
  752MOL0     C 3687   6.441   8.130   8.010 -0.2133 -1.1398  0.5883
  752MOL0     C 3688   6.478   8.177   7.883  0.5622  0.2142  0.4176
  752MOL0     N 3689   6.482   8.081   7.072  0.3005  0.2227  0.0680
  752MOL0     N 3690   6.520   8.091   6.945 -0.2129  0.9555 -0.4923
  752MOL0     C 3691   6.904   8.399   5.889 -0.1496 -1.0506  0.1108
  752MOL0     C 3692   6.838   8.400   5.768 -0.0980 -0.4513  0.4236
  752MOL0     C 3693   6.506   8.361   5.484 -0.7948 -0.6372 -0.4699
  752MOL0     C 3694   6.505   8.266   5.384 -0.2639 -0.2124 -0.7834
  752MOL0     C 3695   6.444   8.283   5.263  0.5967 -0.7636 -0.0598
  752MOL0     C 3696   6.372   8.402   5.238  0.7863  0.8997  0.5625
  752MOL0     O 3697   6.308   8.420   5.115  0.0188 -0.1244  0.2569
  752MOL0     C 3698   6.302   8.321   5.014  0.1990 -0.8798 -0.7272
  752MOL0     C 3699   6.235   8.365   4.878 -0.6867  0.2126 -0.5418
  752MOL0     C 3700   6.114   8.446   4.900  0.9297  0.3876  0.4246
  752MOL0     C 3701   6.030   8.455   4.767 -0.7347 -0.5143 -0.3667
  752MOL0     C 3702   6.107   8.504   4.650 -0.3930  1.2389  0.4033
  752MOL0     C 3703   6.186   8.541   4.567 -0.2851 -0.0876  0.2381
  752MOL0     C 3704   6.366   8.492   5.337  1.0911 -0.3878 -0.4544
  752MOL0     C 3705   6.433   8.479   5.456 -0.0817  0.9581  0.2296
  752MOL0     C 3706   6.426   8.598   5.556  0.5995 -0.3157 -0.5647
  752MOL0     H 3707   6.800   8.067   5.717  0.9115 -0.2073 -2.1012
  752MOL0     H 3708   6.902   8.053   5.937  1.1303  0.0996 -0.0784
  752MOL0     H 3709   6.962   8.091   6.134  0.0622 -0.2903 -0.0873
  752MOL0     H 3710   6.827   8.204   6.190  0.7862  2.5073  2.1156
  752MOL0     H 3711   6.955   8.126   6.364  1.5164 -2.2601 -0.0763
  752MOL0     H 3712   7.107   8.197   6.292 -1.4728 -0.3612 -1.7045
  752MOL0     H 3713   7.061   8.416   6.335  0.6004  0.5353  3.1166
  752MOL0     H 3714   6.884   8.389   6.334 -1.3258 -2.1830  3.0328
  752MOL0     H 3715   7.076   8.291   6.554 -0.7204 -4.3957 -3.0487
  752MOL0     H 3716   6.993   8.448   6.563 -2.7820 -0.7810  1.6968
  752MOL0     H 3717   6.858   8.174   6.562  3.8503  0.1958 -0.5748
  752MOL0     H 3718   6.766   8.328   6.554  1.3481  0.9740 -5.0784
  752MOL0     H 3719   6.976   8.259   6.764 -0.8076 -0.9887 -0.0875
  752MOL0     H 3720   6.877   8.407   6.771  1.2938 -0.0608  0.3218
  752MOL0     H 3721   6.808   8.227   6.934 -1.8485 -0.5445  1.8700
  752MOL0     H 3722   6.785   8.103   6.799  0.9348  0.6383 -0.1654
  752MOL0     H 3723   6.638   8.378   6.807  0.4931 -0.7558 -2.4504
  752MOL0     H 3724   6.596   8.230   6.715 -1.2811 -0.0468  0.0122
  752MOL0     H 3725   6.559   8.390   7.057  3.0232 -1.4155  2.4250
  752MOL0     H 3726   6.350   8.296   7.266  0.1453  1.7875  4.3519
  752MOL0     H 3727   6.510   8.356   7.280  0.3324 -0.1299 -1.8949
  752MOL0     H 3728   6.425   8.069   7.350  0.6070 -1.4865  2.0966
  752MOL0     H 3729   6.572   8.159   7.414  0.4519  3.6139  1.2611
  752MOL0     H 3730   6.294   8.245   7.489 -0.7166  1.2678  2.0717
  752MOL0     H 3731   6.374   8.116   7.565 -1.1052 -1.0494 -2.0779
  752MOL0     H 3732   6.585   8.243   7.617 -0.3347 -0.3651  0.5136
  752MOL0     H 3733   6.529   8.376   7.524 -0.4817 -2.5902 -2.4581
  752MOL0     H 3734   6.305   8.475   7.899 -0.7672  0.9352  3.6485
  752MOL0     H 3735   6.175   8.490   8.096  1.0618  0.2519 -0.9278
  752MOL0     H 3736   6.266   8.439   8.238 -2.1782 -0.9733  2.2209
  752MOL0     H 3737   6.127   8.356   8.172  0.6382 -1.0704  0.6759
  752MOL0     H 3738   6.559   8.008   8.435 -0.6068  1.2109 -2.1419
  752MOL0     H 3739   6.565   7.970   8.680 -0.7689  1.8477  5.0676
  752MOL0     H 3740   6.555   8.240   8.981 -1.3990  3.4831 -1.0574
  752MOL0     H 3741   6.412   8.285   8.911 -0.4249 -0.2181 -0.6759
  752MOL0     H 3742   6.385   8.077   9.129 -3.8643 -0.6664  2.0247
  752MOL0     H 3743   6.394   8.251   9.162  0.6003  2.9320 -3.3547
  752MOL0     H 3744   6.217   8.262   8.996 -1.4687  2.4889  2.4181
  752MOL0     H 3745   6.167   8.213   9.149  1.0435  0.9413  0.1658
  752MOL0     H 3746   6.181   7.963   9.048  2.8524  0.9737 -0.8182
  752MOL0     H 3747   6.194   8.048   8.889 -1.7927  0.7176 -1.4647
  752MOL0     H 3748   5.952   8.054   9.077  2.2922  3.1255  2.4357
  752MOL0     H 3749   5.991   8.181   8.973  1.1819  1.1037  0.0492
  752MOL0     H 3750   5.975   7.888   8.870 -1.2414  0.7918  0.7356
  752MOL0     H 3751   6.020   8.028   8.778  0.9455  0.8954  0.0315
  752MOL0     H 3752   5.790   7.992   8.742  0.5415 -2.4005  0.2245
  752MOL0     H 3753   5.806   8.148   8.816 -0.9109  0.3018 -1.4701
  752MOL0     H 3754   5.740   7.906   8.997  1.9777 -0.3662 -0.5581
  752MOL0     H 3755   5.621   7.957   8.906  1.3013 -1.8222 -0.3556
  752MOL0     H 3756   6.263   8.261   8.746 -2.4213 -3.7038  0.5655
  752MOL0     H 3757   6.253   8.310   8.510 -1.9439  1.0763  5.5071
  752MOL0     H 3758   6.486   8.038   8.046 -3.9185 -2.9629  1.0120
  752MOL0     H 3759   6.548   8.114   7.828  1.0842  1.9951 -1.0885
  752MOL0     H 3760   6.930   8.493   5.935 -0.8315 -1.0252  0.4533
  752MOL0     H 3761   6.824   8.493   5.714  2.2474 -0.8030 -0.9630
  752MOL0     H 3762   6.559   8.177   5.416 -0.8835 -0.0623  0.7917
  752MOL0     H 3763   6.443   8.203   5.188  3.4332  0.8378 -1.9804
  752MOL0     H 3764   6.402   8.281   4.993  0.3396 -1.5383  1.0914
  752MOL0     H 3765   6.243   8.234   5.043  1.0004 -1.6069 -1.2372
  752MOL0     H 3766   6.224   8.284   4.806 -1.2599  0.1773 -0.4203
  752MOL0     H 3767   6.314   8.433   4.844  2.0349 -1.8308  1.2538
  752MOL0     H 3768   6.047   8.411   4.979 -2.2298  2.6468 -1.0079
  752MOL0     H 3769   6.140   8.551   4.919  1.1042  0.8585 -2.0387
  752MOL0     H 3770   5.941   8.519   4.777  0.8102  1.6948 -0.0075
  752MOL0     H 3771   5.989   8.354   4.753  0.3749 -1.4013  2.1857
  752MOL0     H 3772   6.256   8.578   4.495 -2.3109  0.0816 -1.7518
  752MOL0     H 3773   6.299   8.576   5.325 -0.0035 -0.4830  3.4634
  752MOL0     H 3774   6.402   8.555   5.654  2.0183  1.4385  0.6102
  752MOL0     H 3775   6.518   8.651   5.582  3.0864 -3.5985 -1.9438
  752MOL0     H 3776   6.351   8.674   5.533  1.1980  0.5257  0.1551
  753MOL0     O 3777   8.439   9.349   6.465  0.3252  0.4071 -0.0721
  753MOL0     C 3778   8.411   9.234   6.458  0.8874 -0.7423  0.4586
  753MOL0     O 3779   8.282   9.183   6.481  0.3289  0.4262  0.2612
  753MOL0     C 3780   8.186   9.265   6.542  0.0824 -0.0945  0.3419
  753MOL0     C 3781   8.100   9.332   6.456  0.3040 -0.3613  0.2471
  753MOL0     C 3782   7.977   9.375   6.508  0.3428  0.3379 -0.1507
  753MOL0     C 3783   7.941   9.363   6.641 -0.7708 -0.3714 -0.3470
  753MOL0     O 3784   7.819   9.397   6.694 -0.4243  0.0519  0.0735
  753MOL0     C 3785   7.803   9.486   6.804 -0.1369  0.3741  0.7514
  753MOL0     C 3786   7.684   9.445   6.891  0.2994  0.0857  0.4438
  753MOL0     C 3787   7.551   9.458   6.806  0.0066 -0.0119 -0.0705
  753MOL0     C 3788   7.495   9.333   6.743 -0.7647  0.6667 -0.0453
  753MOL0     C 3789   7.362   9.348   6.683 -0.9257  0.3853 -0.1863
  753MOL0     C 3790   7.313   9.224   6.618 -0.3567 -0.2389  0.2565
  753MOL0     C 3791   7.162   9.232   6.602  0.7966  0.6544  1.1894
  753MOL0     C 3792   7.107   9.338   6.512  0.4597 -0.9849  0.8905
  753MOL0     N 3793   6.960   9.347   6.522 -0.1762 -0.0652  0.5849
  753MOL0     C 3794   6.894   9.379   6.632  0.3917  0.0341  0.6410
  753MOL0     C 3795   6.758   9.379   6.602  0.9825 -0.2402 -0.3984
  753MOL0     C 3796   6.646   9.410   6.701  0.0254 -0.6184  0.3849
  753MOL0     C 3797   6.674   9.551   6.765 -0.3743 -0.2000 -0.8065
  753MOL0     C 3798   6.558   9.596   6.856 -0.2184 -0.5413  0.0114
  753MOL0     C 3799   6.586   9.720   6.926  0.3442 -0.0450  0.6317
  753MOL0     O 3800   6.632   9.824   6.852 -0.5889  0.3025 -0.4113
  753MOL0     C 3801   6.633   9.957   6.896  0.1836 -0.7439 -0.7633
  753MOL0     C 3802   6.600   9.995   7.033  0.8732 -0.4996  1.2058
  753MOL0     C 3803   6.595  10.138   7.066 -0.0990  0.4804 -0.2752
  753MOL0     C 3804   6.569  10.163   7.206  0.5656  0.8879 -1.0379
  753MOL0     C 3805   6.628  10.236   6.970 -0.2649  0.0741  0.1049
  753MOL0     C 3806   6.644  10.384   6.989 -0.4893  0.2402 -0.5068
  753MOL0     O 3807   6.716  10.462   6.906 -0.5719  0.4525 -0.1539
  753MOL0     C 3808   6.713  10.595   6.922 -0.1959  0.6062  0.7106
  753MOL0     C 3809   6.655  10.673   6.820  0.4608  0.1173  1.0816
  753MOL0     C 3810   6.648  10.809   6.838  0.5759 -0.0794  0.3676
  753MOL0     C 3811   6.691  10.880   6.954 -0.0856  0.6646 -0.0789
  753MOL0     O 3812   6.688  11.020   6.957 -0.7733  0.3773 -0.6595
  753MOL0     C 3813   6.599  11.072   7.051 -0.1028  1.1429  0.1242
  753MOL0     C 3814   6.587  11.223   7.045 -0.3876  0.0445 -0.1365
  753MOL0     C 3815   6.649  11.298   7.171 -0.8724  0.3633  0.1022
  753MOL0     C 3816   6.642  11.443   7.144 -0.9522 -0.7810  0.2022
  753MOL0     C 3817   6.668  11.533   7.262  0.6225 -0.4858  0.1989
  753MOL0     C 3818   6.623  11.675   7.232  0.4440 -0.5678 -0.5177
  753MOL0     C 3819   6.703  11.753   7.137 -0.4444 -0.2253  0.5469
  753MOL0     C 3820   6.641  11.890   7.116  0.0699 -0.5519  0.0386
  753MOL0    Cl 3821   6.733  11.987   7.000 -0.0164 -0.2607  0.6841
  753MOL0     C 3822   6.773  10.798   7.035 -0.6918 -0.1513 -0.9041
  753MOL0     C 3823   6.775  10.659   7.025  1.2556  0.1262 -0.5547
  753MOL0     O 3824   6.596  10.425   7.094  0.0436 -0.1769 -0.4476
  753MOL0     C 3825   6.657  10.192   6.839  0.1778  0.4728  0.0945
  753MOL0     C 3826   6.656  10.061   6.810  0.0371 -0.4298 -0.0437
  753MOL0     N 3827   6.747   9.371   6.466 -0.5720  0.1159  0.5990
  753MOL0     N 3828   6.870   9.357   6.416  0.5282 -0.0510  0.4026
  753MOL0     C 3829   8.024   9.297   6.730  0.2414  0.0090  0.2831
  753MOL0     C 3830   8.139   9.238   6.675  0.3925 -0.4792 -0.3783
  753MOL0     C 3831   8.514   9.140   6.414 -0.1896 -0.7224  0.3653
  753MOL0     C 3832   8.502   9.005   6.445 -0.4055 -0.3371  0.6194
  753MOL0     C 3833   8.601   8.911   6.401  1.4680  0.1864  1.0896
  753MOL0     C 3834   8.721   8.951   6.338  0.8332 -0.6939  0.8717
  753MOL0     O 3835   8.825   8.872   6.312  0.0795 -0.3434 -0.1415
  753MOL0     C 3836   8.823   8.734   6.299 -0.6709  0.0471 -0.6766
  753MOL0     C 3837   8.719   8.682   6.191 -0.3328 -0.3550 -0.1517
  753MOL0     C 3838   8.768   8.536   6.169 -0.6000  0.9021 -0.4161
  753MOL0     C 3839   8.647   8.444   6.141 -0.3481 -0.2536  0.8006
  753MOL0     C 3840   8.682   8.300   6.154  1.2899 -0.5538  0.2015
  753MOL0     C 3841   8.708   8.196   6.203  0.2421 -0.1757 -0.2309
  753MOL0     C 3842   8.733   9.087   6.299  0.0116 -0.1072 -0.6608
  753MOL0     C 3843   8.631   9.184   6.331  0.9721 -0.4464 -0.0541
  753MOL0     C 3844   8.652   9.326   6.291 -0.7180  0.3123  0.2956
  753MOL0     H 3845   8.135   9.335   6.353 -2.1576 -1.6402 -0.7376
  753MOL0     H 3846   7.905   9.413   6.435  0.8618  3.1119  0.6671
  753MOL0     H 3847   7.792   9.590   6.772 -0.5182  0.2305  0.3983
  753MOL0     H 3848   7.884   9.482   6.877 -0.1115  0.7897  0.7486
  753MOL0     H 3849   7.696   9.349   6.941 -1.2573 -0.9046 -0.9614
  753MOL0     H 3850   7.686   9.520   6.970 -0.4711  1.0292 -0.3962
  753MOL0     H 3851   7.471   9.480   6.877  1.0517 -0.1233  1.1800
  753MOL0     H 3852   7.553   9.528   6.723 -0.4810 -3.3269 -3.1275
  753MOL0     H 3853   7.568   9.299   6.669 -0.2279 -0.0244  0.7729
  753MOL0     H 3854   7.491   9.265   6.828 -4.4696  0.6285 -0.1163
  753MOL0     H 3855   7.363   9.435   6.616 -2.3188 -0.1954 -1.0176
  753MOL0     H 3856   7.300   9.378   6.768  0.4774 -1.2119  1.4812
  753MOL0     H 3857   7.361   9.215   6.520 -0.2837  3.1697 -0.1216
  753MOL0     H 3858   7.340   9.131   6.668 -0.0868 -2.8995 -4.2498
  753MOL0     H 3859   7.116   9.240   6.701 -0.3660  0.4368  0.6797
  753MOL0     H 3860   7.151   9.132   6.560  0.4987  0.3290  2.0079
  753MOL0     H 3861   7.147   9.437   6.536 -2.3718  0.0683  1.7358
  753MOL0     H 3862   7.123   9.319   6.406 -1.0561 -0.2376  0.5027
  753MOL0     H 3863   6.955   9.409   6.717  0.0649 -1.9629  1.6271
  753MOL0     H 3864   6.652   9.332   6.779  0.3989 -1.7505 -0.7411
  753MOL0     H 3865   6.552   9.414   6.645 -1.4705 -2.5470  2.5307
  753MOL0     H 3866   6.754   9.520   6.833 -1.3613 -1.4152 -0.1792
  753MOL0     H 3867   6.715   9.626   6.696  0.1681  0.2698  0.0033
  753MOL0     H 3868   6.474   9.622   6.791  0.7812 -0.1066 -1.1426
  753MOL0     H 3869   6.526   9.519   6.927  0.0049 -1.3699 -0.7668
  753MOL0     H 3870   6.489   9.751   6.966  0.0838 -0.9061  0.6905
  753MOL0     H 3871   6.658   9.697   7.005  0.5019  0.3879  0.6195
  753MOL0     H 3872   6.578   9.920   7.109  2.5294 -0.6073  1.6294
  753MOL0     H 3873   6.657  10.217   7.243  0.3389 -0.9185  2.5180
  753MOL0     H 3874   6.557  10.074   7.268 -0.9050  3.0005  1.9170
  753MOL0     H 3875   6.477  10.218   7.228  0.4265 -0.2842  1.6435
  753MOL0     H 3876   6.613  10.629   6.730 -0.4650  1.3298  0.8956
  753MOL0     H 3877   6.597  10.849   6.751  1.4903 -1.0613 -0.6615
  753MOL0     H 3878   6.505  11.018   7.038  0.2356  0.7542 -0.8236
  753MOL0     H 3879   6.655  11.043   7.141  0.8312 -0.6095 -0.9475
  753MOL0     H 3880   6.630  11.263   6.952  0.9266  0.1374  0.4965
  753MOL0     H 3881   6.483  11.257   7.032 -0.4755  0.8333  2.1332
  753MOL0     H 3882   6.756  11.276   7.181 -0.4612  1.9625 -0.4675
  753MOL0     H 3883   6.592  11.279   7.262 -0.7584  1.6332  0.4574
  753MOL0     H 3884   6.541  11.467   7.107 -0.1959  0.3109 -1.2712
  753MOL0     H 3885   6.705  11.470   7.059 -1.3213 -0.6282 -0.0298
  753MOL0     H 3886   6.622  11.491   7.352 -0.3898 -1.5839 -0.7981
  753MOL0     H 3887   6.777  11.546   7.271  0.2676  3.8648  0.3216
  753MOL0     H 3888   6.625  11.723   7.331 -0.1394 -0.9053 -0.3401
  753MOL0     H 3889   6.520  11.665   7.199  0.4024 -4.9322  0.3436
  753MOL0     H 3890   6.699  11.706   7.038 -0.9646 -2.2014  1.4558
  753MOL0     H 3891   6.805  11.762   7.177 -0.3958  4.1709 -0.0493
  753MOL0     H 3892   6.655  11.936   7.215 -2.5389  0.0059  0.2044
  753MOL0     H 3893   6.534  11.895   7.095  0.1430 -3.3223 -1.4227
  753MOL0     H 3894   6.817  10.849   7.120 -3.0976 -0.6752  0.7810
  753MOL0     H 3895   6.833  10.607   7.100  0.7034  3.3519  2.3999
  753MOL0     H 3896   6.683  10.262   6.760  2.4448 -0.5364 -0.1334
  753MOL0     H 3897   6.689  10.023   6.715  1.1741 -0.4711  0.3605
  753MOL0     H 3898   7.998   9.265   6.830  1.7578  0.2375  0.7622
  753MOL0     H 3899   8.183   9.163   6.739  1.5070 -0.7946 -1.4604
  753MOL0     H 3900   8.419   8.959   6.497 -2.1830 -1.5635 -2.9883
  753MOL0     H 3901   8.595   8.804   6.414  0.9013  0.0326 -0.2282
  753MOL0     H 3902   8.926   8.710   6.270 -1.5634 -2.7150 -1.8668
  753MOL0     H 3903   8.803   8.682   6.393  1.9894 -2.1496 -1.1914
  753MOL0     H 3904   8.725   8.747   6.103 -1.9421 -0.1636 -0.1474
  753MOL0     H 3905   8.618   8.692   6.231 -1.1669  1.8368 -2.5345
  753MOL0     H 3906   8.842   8.524   6.090  0.3578 -0.9076  0.6819
  753MOL0     H 3907   8.811   8.492   6.260 -1.3318  0.8703 -0.0776
  753MOL0     H 3908   8.600   8.459   6.044  0.2091 -1.4566  0.3267
  753MOL0     H 3909   8.570   8.459   6.218 -0.2767  1.5784  0.5519
  753MOL0     H 3910   8.733   8.103   6.250  2.0899 -0.6595 -2.0436
  753MOL0     H 3911   8.817   9.125   6.243  1.5970  0.4494  1.9265
  753MOL0     H 3912   8.665   9.386   6.382 -1.8333  2.2312 -0.7508
  753MOL0     H 3913   8.735   9.335   6.220 -1.0035  0.0728 -0.0694
  753MOL0     H 3914   8.566   9.377   6.248 -1.3210 -1.6534 -0.9283
  754MOL0     O 3915   0.775   7.640   9.204  0.2306  0.2497  0.5344
  754MOL0     C 3916   0.677   7.671   9.141 -0.5020 -0.0461 -0.3355
  754MOL0     O 3917   0.667   7.766   9.040  0.1618  0.2141  0.2720
  754MOL0     C 3918   0.772   7.840   9.008 -0.7882 -0.1588  0.2692
  754MOL0     C 3919   0.820   7.938   9.090  0.8690  0.4198 -1.1148
  754MOL0     C 3920   0.922   8.033   9.039  0.1634 -0.6719 -1.2942
  754MOL0     C 3921   0.976   8.000   8.911  0.4070  0.1552 -0.9410
  754MOL0     O 3922   1.058   8.083   8.847  0.2603  0.6268 -0.4028
  754MOL0     C 3923   0.996   8.185   8.764 -0.2692 -0.2244 -0.6765
  754MOL0     C 3924   1.007   8.163   8.616  0.4288 -1.1820  0.7263
  754MOL0     C 3925   1.144   8.165   8.560 -0.3145 -0.2935  0.5351
  754MOL0     C 3926   1.145   8.129   8.410  0.1564  0.2869 -0.1848
  754MOL0     C 3927   1.293   8.149   8.352  0.3576 -0.4394  0.0808
  754MOL0     C 3928   1.293   8.288   8.276 -0.4496 -0.6784  0.8616
  754MOL0     C 3929   1.435   8.295   8.224 -0.2042  0.1550 -0.4048
  754MOL0     C 3930   1.473   8.416   8.141 -0.9529 -1.1313  0.5051
  754MOL0     N 3931   1.600   8.387   8.081  0.3536 -0.8566  0.2300
  754MOL0     C 3932   1.716   8.461   8.111  0.1071 -1.1287 -0.3329
  754MOL0     C 3933   1.818   8.436   8.026 -0.7933  0.3699  0.9751
  754MOL0     C 3934   1.961   8.484   8.026 -0.6296  0.2628 -0.0098
  754MOL0     C 3935   2.073   8.399   8.088 -0.1113  0.8829  1.0219
  754MOL0     C 3936   2.056   8.364   8.243  0.1591  0.2580 -0.8536
  754MOL0     C 3937   2.085   8.490   8.330 -0.5525 -0.2188 -0.0053
  754MOL0     O 3938   1.990   8.586   8.318 -0.2518 -0.7408 -0.0600
  754MOL0     C 3939   1.878   8.571   8.386 -0.4869 -0.9306  0.4460
  754MOL0     C 3940   1.799   8.692   8.400 -0.4997  1.0552  0.4640
  754MOL0     C 3941   1.681   8.696   8.476  0.3595  0.4600 -0.2013
  754MOL0     C 3942   1.600   8.834   8.486 -0.0885  0.6060 -0.3058
  754MOL0     C 3943   1.636   8.578   8.544  0.6225 -0.4712 -0.9353
  754MOL0     C 3944   1.500   8.557   8.607 -1.0026  0.0794  0.1638
  754MOL0     O 3945   1.465   8.638   8.712 -0.1137  0.0255  0.1689
  754MOL0     C 3946   1.348   8.601   8.782 -0.8536 -0.6058 -0.1006
  754MOL0     C 3947   1.336   8.479   8.851 -0.7192  0.7092 -1.7015
  754MOL0     C 3948   1.220   8.449   8.919 -0.1455  0.4516  1.1232
  754MOL0     C 3949   1.101   8.541   8.918 -0.8092 -0.8069 -0.0710
  754MOL0     O 3950   0.981   8.517   8.986  0.1620  0.4420 -0.3241
  754MOL0     C 3951   0.989   8.412   9.088 -0.7806  0.1545 -0.4141
  754MOL0     C 3952   0.863   8.413   9.180  0.5957  0.6312 -0.7393
  754MOL0     C 3953   0.739   8.356   9.110 -0.5210  0.1126 -0.3768
  754MOL0     C 3954   0.612   8.341   9.191 -0.6848 -0.1910 -0.9807
  754MOL0     C 3955   0.497   8.315   9.093 -0.4486  1.0875 -0.3024
  754MOL0     C 3956   0.513   8.175   9.016 -0.1734  0.5862  0.0100
  754MOL0     C 3957   0.364   8.117   8.993  0.2739 -0.5717 -0.5989
  754MOL0     C 3958   0.375   7.968   8.975  0.6918 -0.5356 -0.3870
  754MOL0    Cl 3959   0.219   7.895   8.991  0.1523  0.2713  0.1322
  754MOL0     C 3960   1.129   8.677   8.859  0.1853 -0.3273  0.4411
  754MOL0     C 3961   1.249   8.697   8.790  0.3481  0.3638 -0.2437
  754MOL0     O 3962   1.435   8.460   8.570  0.4863  0.5660 -0.0842
  754MOL0     C 3963   1.712   8.463   8.530 -0.2185  0.4503  0.5151
  754MOL0     C 3964   1.831   8.466   8.451  0.0443  0.2581 -0.0781
  754MOL0     N 3965   1.760   8.347   7.942 -0.2889 -0.4754 -0.0228
  754MOL0     N 3966   1.634   8.334   7.968 -0.0623  0.1043 -0.2677
  754MOL0     C 3967   0.921   7.897   8.838 -0.3319  0.2198 -0.0394
  754MOL0     C 3968   0.816   7.818   8.879  0.0675 -1.4109  0.5707
  754MOL0     C 3969   0.546   7.603   9.184 -0.3154 -0.0428  0.4945
  754MOL0     C 3970   0.468   7.557   9.078  0.6709 -0.8352  0.4071
  754MOL0     C 3971   0.344   7.499   9.105 -0.7952  0.0183  0.1571
  754MOL0     C 3972   0.295   7.486   9.235 -0.1964  0.9758  1.0691
  754MOL0     O 3973   0.181   7.418   9.251  0.5085  0.2087  0.4847
  754MOL0     C 3974   0.121   7.406   9.381  0.4094 -0.1855  0.0567
  754MOL0     C 3975   0.039   7.523   9.433 -0.3788 -0.3181  0.0145
  754MOL0     C 3976   0.051   7.531   9.593  0.3220 -0.7745 -0.5977
  754MOL0     C 3977   0.020   7.671   9.637 -0.3552  0.2873 -0.2573
  754MOL0     C 3978   0.128   7.765   9.603 -0.0889 -0.1952  0.3109
  754MOL0     C 3979   0.232   7.815   9.565 -0.0234 -1.0247  1.4449
  754MOL0     C 3980   0.373   7.546   9.334 -0.0477  0.2123  0.1718
  754MOL0     C 3981   0.503   7.598   9.315  0.4322  0.3121 -0.5004
  754MOL0     C 3982   0.580   7.659   9.426  0.5203  0.2010 -0.2350
  754MOL0     H 3983   0.760   7.950   9.179  1.0352 -1.6454 -0.6822
  754MOL0     H 3984   0.955   8.119   9.096  2.4290 -3.0321  1.2805
  754MOL0     H 3985   1.048   8.276   8.795  0.0091 -1.4041  2.7639
  754MOL0     H 3986   0.889   8.194   8.786  0.2866  2.2230  1.4798
  754MOL0     H 3987   0.956   8.068   8.596  0.4630 -0.9564 -0.5381
  754MOL0     H 3988   0.946   8.233   8.557  2.9152 -1.0431 -1.8955
  754MOL0     H 3989   1.184   8.265   8.578  0.8171 -0.1035 -2.4855
  754MOL0     H 3990   1.202   8.087   8.611  0.5198  0.0416  0.1154
  754MOL0     H 3991   1.111   8.026   8.394  1.0092  0.2641 -2.1277
  754MOL0     H 3992   1.074   8.198   8.364  0.5450  1.0689  0.3467
  754MOL0     H 3993   1.311   8.061   8.289 -0.4708 -0.2831 -0.3912
  754MOL0     H 3994   1.365   8.139   8.433 -0.4917 -2.7971  0.6152
  754MOL0     H 3995   1.215   8.292   8.199 -1.9130  1.0182  2.3449
  754MOL0     H 3996   1.287   8.375   8.341 -2.6702  0.9843 -1.3809
  754MOL0     H 3997   1.446   8.205   8.162  1.1916  1.1909 -1.7447
  754MOL0     H 3998   1.505   8.285   8.308 -0.3658 -1.4369 -0.4261
  754MOL0     H 3999   1.400   8.440   8.063 -0.6598  1.0714  0.8547
  754MOL0     H 4000   1.477   8.500   8.211 -0.2276 -0.8711  0.1604
  754MOL0     H 4001   1.733   8.532   8.192 -0.5146 -1.2410 -0.1011
  754MOL0     H 4002   1.947   8.586   8.062  2.5820  0.4332  1.0642
  754MOL0     H 4003   1.996   8.505   7.924 -1.2486  2.9692  0.2708
  754MOL0     H 4004   2.102   8.311   8.030 -0.9250  1.1795  0.1393
  754MOL0     H 4005   2.166   8.455   8.074  0.3047 -0.4088 -2.5428
  754MOL0     H 4006   1.958   8.316   8.255  0.7621 -0.2445  3.6304
  754MOL0     H 4007   2.131   8.288   8.268  1.7099  1.3823 -1.9310
  754MOL0     H 4008   2.112   8.468   8.434  0.5718 -1.1040 -0.4616
  754MOL0     H 4009   2.179   8.530   8.291  1.1592 -3.9028 -0.1043
  754MOL0     H 4010   1.836   8.778   8.345 -0.4950  0.6025 -0.2483
  754MOL0     H 4011   1.497   8.821   8.452 -0.0130 -0.0495 -0.3041
  754MOL0     H 4012   1.649   8.902   8.416 -0.0483 -0.2224 -1.1026
  754MOL0     H 4013   1.610   8.878   8.586  1.5745 -0.1854 -0.0936
  754MOL0     H 4014   1.412   8.403   8.835 -3.4813 -2.3310 -1.4127
  754MOL0     H 4015   1.203   8.352   8.963  1.2196 -0.0442  0.5938
  754MOL0     H 4016   1.002   8.312   9.046  0.4771  0.1050  0.0338
  754MOL0     H 4017   1.084   8.430   9.141  0.5895  3.0892 -3.4744
  754MOL0     H 4018   0.885   8.343   9.261  0.4011  1.3795 -0.0276
  754MOL0     H 4019   0.851   8.515   9.218  1.0324  1.1221 -1.8748
  754MOL0     H 4020   0.761   8.259   9.063 -3.3990 -0.0172 -1.6888
  754MOL0     H 4021   0.727   8.437   9.038  0.4362  2.9377  2.3932
  754MOL0     H 4022   0.599   8.433   9.248 -1.2370 -0.7122 -0.2319
  754MOL0     H 4023   0.626   8.256   9.259 -3.3410  0.0169 -0.0402
  754MOL0     H 4024   0.402   8.323   9.147 -1.4843  2.5567 -2.2328
  754MOL0     H 4025   0.486   8.398   9.024 -3.5674  0.5040 -0.6433
  754MOL0     H 4026   0.567   8.104   9.079  0.8076  0.2062 -1.2079
  754MOL0     H 4027   0.566   8.181   8.920  2.8189 -1.7629  1.3405
  754MOL0     H 4028   0.315   8.178   8.917  5.3192  1.4481 -2.7071
  754MOL0     H 4029   0.310   8.133   9.087  0.6598 -2.1241 -0.0744
  754MOL0     H 4030   0.442   7.936   9.056 -0.9308 -0.4296  1.0686
  754MOL0     H 4031   0.421   7.951   8.877  0.3491 -0.9694 -0.4774
  754MOL0     H 4032   1.048   8.750   8.865 -0.7807 -1.3794  0.4945
  754MOL0     H 4033   1.261   8.792   8.740 -0.1640  1.0187  0.8429
  754MOL0     H 4034   1.675   8.366   8.561 -0.4323  0.4487  0.2615
  754MOL0     H 4035   1.884   8.371   8.452  0.9445  0.7424 -0.9267
  754MOL0     H 4036   0.947   7.880   8.734 -2.4063 -2.7355 -0.1912
  754MOL0     H 4037   0.762   7.742   8.823  0.5362 -2.0032  0.9085
  754MOL0     H 4038   0.493   7.573   8.973 -1.1312  0.3432  0.1184
  754MOL0     H 4039   0.279   7.460   9.027 -1.5119 -1.9364  1.6535
  754MOL0     H 4040   0.057   7.318   9.383 -2.3160  1.6984  1.8785
  754MOL0     H 4041   0.206   7.390   9.449  2.6838 -1.4681 -2.8529
  754MOL0     H 4042  -0.065   7.502   9.406 -0.1574 -0.9656 -0.3610
  754MOL0     H 4043   0.075   7.606   9.372  0.7917 -1.6592 -1.1908
  754MOL0     H 4044  -0.024   7.469   9.644  2.1715 -1.8470  0.9776
  754MOL0     H 4045   0.146   7.504   9.638 -1.1572 -1.3309  2.4244
  754MOL0     H 4046   0.038   7.674   9.745  0.1171 -0.5290 -0.3106
  754MOL0     H 4047  -0.085   7.689   9.612 -1.6657  0.2329  4.1933
  754MOL0     H 4048   0.312   7.873   9.524 -0.5518 -0.0815  1.7148
  754MOL0     H 4049   0.330   7.548   9.433  1.2212 -0.7910  0.7680
  754MOL0     H 4050   0.670   7.605   9.456  0.2250 -0.4423 -0.4967
  754MOL0     H 4051   0.606   7.759   9.390  0.5045  0.8698  1.4828
  754MOL0     H 4052   0.523   7.691   9.514 -0.2366 -0.2210 -0.5700
  755MOL0     O 4053   2.396   7.927   8.173  0.3440 -0.3315  0.0224
  755MOL0     C 4054   2.429   7.832   8.238 -0.2018  0.1737 -0.9822
  755MOL0     O 4055   2.539   7.825   8.317  0.0163 -0.9036  0.2833
  755MOL0     C 4056   2.628   7.929   8.301 -0.2163 -0.8288  0.5590
  755MOL0     C 4057   2.719   7.924   8.188  0.8044  0.4928 -0.9007
  755MOL0     C 4058   2.813   8.025   8.175 -0.4203 -1.1228  0.1616
  755MOL0     C 4059   2.813   8.133   8.266  0.8898  0.9502 -0.0044
  755MOL0     O 4060   2.892   8.248   8.281 -0.2088  0.0272 -0.2512
  755MOL0     C 4061   2.994   8.273   8.188 -0.3259  0.1814 -0.6522
  755MOL0     C 4062   3.121   8.190   8.196  0.1341 -0.8343  0.2542
  755MOL0     C 4063   3.196   8.199   8.327 -0.0277 -0.5025 -0.5657
  755MOL0     C 4064   3.343   8.147   8.317 -0.4077  0.2019 -0.1636
  755MOL0     C 4065   3.424   8.269   8.287  0.4614  0.3711  0.0736
  755MOL0     C 4066   3.567   8.234   8.334 -0.3533 -0.6702 -0.4407
  755MOL0     C 4067   3.676   8.312   8.259  0.3575 -0.4663  0.3503
  755MOL0     C 4068   3.816   8.260   8.298  0.6764  0.0830 -0.0531
  755MOL0     N 4069   3.861   8.136   8.233  0.5316  0.3021 -0.2055
  755MOL0     C 4070   3.952   8.040   8.278 -0.7014 -0.2487 -0.4100
  755MOL0     C 4071   3.972   7.950   8.182  0.4840 -0.2218 -0.5484
  755MOL0     C 4072   4.077   7.838   8.184  0.3607 -1.0163  0.2814
  755MOL0     C 4073   4.044   7.738   8.068  1.2825 -0.5582  0.0743
  755MOL0     C 4074   4.100   7.599   8.102 -0.5547 -0.2950  0.0811
  755MOL0     C 4075   4.242   7.598   8.164  0.1538  0.4697 -0.5185
  755MOL0     O 4076   4.280   7.455   8.182 -0.6730 -0.1469  0.1840
  755MOL0     C 4077   4.232   7.415   8.298  0.7806 -0.4416  0.4965
  755MOL0     C 4078   4.137   7.317   8.308  0.3057 -0.3287  0.1233
  755MOL0     C 4079   4.104   7.252   8.423  0.4999  0.0640  0.5125
  755MOL0     C 4080   3.987   7.155   8.419 -0.1407 -0.0788 -0.7544
  755MOL0     C 4081   4.182   7.281   8.543  0.3577  0.8408  0.1244
  755MOL0     C 4082   4.171   7.206   8.677 -0.2751  0.4020  0.2422
  755MOL0     O 4083   4.210   7.288   8.783  0.0329 -0.2033  0.5094
  755MOL0     C 4084   4.168   7.256   8.910  0.1068  0.5635 -1.1373
  755MOL0     C 4085   4.042   7.200   8.942 -0.1572 -0.4909  0.0160
  755MOL0     C 4086   4.009   7.175   9.075 -0.0372 -0.4389  0.5637
  755MOL0     C 4087   4.102   7.200   9.185 -0.3521  0.6586  0.9390
  755MOL0     O 4088   4.066   7.158   9.308  0.5046  0.2511  0.4889
  755MOL0     C 4089   4.160   7.195   9.414  0.2055  0.5283 -0.9683
  755MOL0     C 4090   4.117   7.139   9.550  0.3370 -0.3222 -0.5499
  755MOL0     C 4091   4.231   7.148   9.656 -0.5509  0.0964  0.1520
  755MOL0     C 4092   4.207   7.081   9.791  0.1416  0.2223 -0.7040
  755MOL0     C 4093   4.297   7.158   9.894  0.8088 -0.3703  0.2959
  755MOL0     C 4094   4.260   7.129  10.041 -0.2261  0.0642  1.0273
  755MOL0     C 4095   4.113   7.164  10.078 -0.9330 -0.1569 -0.2450
  755MOL0     C 4096   4.079   7.167  10.229 -0.7741  1.5052  0.1672
  755MOL0    Cl 4097   4.044   6.995  10.270 -0.1148  0.0575 -0.1077
  755MOL0     C 4098   4.222   7.267   9.149  0.3862  0.2421  0.1245
  755MOL0     C 4099   4.253   7.297   9.014  0.5098  0.3041 -0.3657
  755MOL0     O 4100   4.121   7.096   8.679 -0.1313 -0.7170  0.2382
  755MOL0     C 4101   4.287   7.372   8.530  0.6820  0.1369  0.3742
  755MOL0     C 4102   4.311   7.440   8.413 -0.5555 -0.1011 -0.3025
  755MOL0     N 4103   3.904   7.996   8.072 -0.1701  1.1061 -0.0803
  755MOL0     N 4104   3.837   8.109   8.102 -0.8759 -0.3690  0.1619
  755MOL0     C 4105   2.717   8.136   8.371 -0.6727 -0.0467 -0.5112
  755MOL0     C 4106   2.624   8.037   8.394  0.3098  1.3629  0.6385
  755MOL0     C 4107   2.331   7.719   8.254  0.0203 -0.9731  0.3589
  755MOL0     C 4108   2.332   7.656   8.375 -0.3104 -0.5390  0.6157
  755MOL0     C 4109   2.234   7.560   8.414  0.9972 -0.2963  0.6471
  755MOL0     C 4110   2.128   7.528   8.321 -0.1274  0.6512 -0.0862
  755MOL0     O 4111   2.036   7.439   8.367 -0.2798  0.3194  0.0268
  755MOL0     C 4112   1.940   7.368   8.288  0.3712 -0.0968 -0.1570
  755MOL0     C 4113   2.004   7.250   8.209 -0.0051 -0.5311 -0.5103
  755MOL0     C 4114   1.902   7.147   8.159  0.1364 -1.0864  0.2103
  755MOL0     C 4115   1.838   7.211   8.033  1.1432  1.0771 -0.4059
  755MOL0     C 4116   1.793   7.112   7.939 -0.0075 -0.4259  0.2173
  755MOL0     C 4117   1.747   7.033   7.865 -0.1415 -0.2518  0.0104
  755MOL0     C 4118   2.132   7.587   8.195  0.2675 -0.7756  0.6349
  755MOL0     C 4119   2.232   7.677   8.158 -0.9356 -0.7208 -0.0305
  755MOL0     C 4120   2.244   7.726   8.020  0.2985 -0.6107 -0.5399
  755MOL0     H 4121   2.715   7.847   8.112  0.3268 -0.7601  0.3520
  755MOL0     H 4122   2.879   8.032   8.089  2.6611  1.3405  2.5004
  755MOL0     H 4123   3.017   8.380   8.191 -0.1277  0.1405 -0.6519
  755MOL0     H 4124   2.956   8.263   8.087  0.3001  0.9704 -0.9786
  755MOL0     H 4125   3.087   8.087   8.179 -0.4465 -0.5823 -0.1803
  755MOL0     H 4126   3.178   8.211   8.105  0.2680  0.1617  0.5620
  755MOL0     H 4127   3.195   8.295   8.380 -0.7467 -1.2007  0.7222
  755MOL0     H 4128   3.147   8.123   8.389 -1.7576  1.0418  0.0527
  755MOL0     H 4129   3.384   8.117   8.413 -0.3573  4.9343  1.5457
  755MOL0     H 4130   3.347   8.070   8.239 -0.2335  0.4485 -0.4055
  755MOL0     H 4131   3.386   8.357   8.339 -0.7828 -1.3245  2.2275
  755MOL0     H 4132   3.417   8.289   8.179  3.5924 -0.7276 -0.4409
  755MOL0     H 4133   3.577   8.252   8.441 -1.8814  1.9535 -0.6516
  755MOL0     H 4134   3.576   8.127   8.310 -3.4500 -0.9749 -0.6482
  755MOL0     H 4135   3.653   8.418   8.274 -2.9195 -0.7495 -1.6420
  755MOL0     H 4136   3.679   8.317   8.150  1.8204  1.3892  0.4180
  755MOL0     H 4137   3.886   8.343   8.288 -0.8778  1.2790 -1.5520
  755MOL0     H 4138   3.805   8.246   8.406 -2.3929 -0.5116 -0.3611
  755MOL0     H 4139   3.995   8.038   8.377 -0.4234 -2.2475 -0.5279
  755MOL0     H 4140   4.072   7.799   8.286 -2.6669 -2.7126 -0.3718
  755MOL0     H 4141   4.174   7.879   8.155 -1.2280  0.6360 -3.5688
  755MOL0     H 4142   3.936   7.727   8.082  1.7388 -1.8357  3.5932
  755MOL0     H 4143   4.083   7.780   7.975 -1.6226 -0.8288 -1.3765
  755MOL0     H 4144   4.021   7.566   8.169  0.1985 -0.1751  1.0555
  755MOL0     H 4145   4.094   7.531   8.017 -0.2118  0.7416 -0.8055
  755MOL0     H 4146   4.306   7.645   8.088  0.1446  2.5923  0.7120
  755MOL0     H 4147   4.232   7.648   8.260 -3.6329  1.2269 -1.1370
  755MOL0     H 4148   4.083   7.296   8.216  2.3816  0.6393 -1.4006
  755MOL0     H 4149   3.918   7.161   8.335  0.5280 -0.0492 -1.3142
  755MOL0     H 4150   3.925   7.176   8.507  0.8546 -3.4937  0.9627
  755MOL0     H 4151   4.011   7.048   8.413  0.8064  0.2214 -3.2963
  755MOL0     H 4152   3.969   7.170   8.868  0.7816  0.6181 -1.4341
  755MOL0     H 4153   3.913   7.137   9.108 -0.1023 -0.1377  0.7203
  755MOL0     H 4154   4.262   7.163   9.390  0.3792 -2.5000  2.8692
  755MOL0     H 4155   4.154   7.304   9.425 -0.2767  0.4229 -0.0205
  755MOL0     H 4156   4.030   7.190   9.593  0.7293 -0.2263  0.1435
  755MOL0     H 4157   4.087   7.034   9.545 -0.6312 -0.0570 -0.4346
  755MOL0     H 4158   4.252   7.253   9.677 -2.0831  1.0198 -2.5185
  755MOL0     H 4159   4.320   7.101   9.613 -1.9636  0.3690 -3.4641
  755MOL0     H 4160   4.236   6.976   9.790  3.6350  1.0674 -0.9599
  755MOL0     H 4161   4.100   7.090   9.812 -0.2903 -2.0056 -1.6687
  755MOL0     H 4162   4.398   7.132   9.860  1.3783  4.4548 -2.7007
  755MOL0     H 4163   4.291   7.266   9.876  0.5731 -0.4114  0.1207
  755MOL0     H 4164   4.342   7.162  10.106 -0.2842  1.8195  0.2572
  755MOL0     H 4165   4.268   7.020  10.047 -0.6146  0.0099  0.5866
  755MOL0     H 4166   4.037   7.110  10.020 -0.1767 -1.1101 -0.3702
  755MOL0     H 4167   4.103   7.270  10.053 -1.7696  0.0579  0.9167
  755MOL0     H 4168   3.995   7.229  10.262 -1.6420 -0.5276  2.0889
  755MOL0     H 4169   4.169   7.195  10.285 -0.9531  2.2638  0.0767
  755MOL0     H 4170   4.298   7.305   9.217  0.2272  0.9917 -0.1002
  755MOL0     H 4171   4.343   7.357   9.005  0.8607 -0.4695 -2.4301
  755MOL0     H 4172   4.349   7.400   8.615 -0.2032 -1.8190  1.7506
  755MOL0     H 4173   4.405   7.494   8.411 -1.5154  1.7966  1.5869
  755MOL0     H 4174   2.718   8.220   8.441  1.9189 -0.5915  0.2062
  755MOL0     H 4175   2.541   8.042   8.464 -4.5279  2.5029 -4.4479
  755MOL0     H 4176   2.405   7.684   8.451 -0.3240  2.6207 -0.4029
  755MOL0     H 4177   2.230   7.527   8.517  3.2592  0.8109  1.1620
  755MOL0     H 4178   1.861   7.332   8.354 -1.4898  0.9664 -1.7278
  755MOL0     H 4179   1.883   7.433   8.222  0.1548 -1.1595 -1.0481
  755MOL0     H 4180   2.083   7.201   8.266  3.7348 -0.4801 -5.0236
  755MOL0     H 4181   2.058   7.292   8.123  0.4943  4.1491  1.8149
  755MOL0     H 4182   1.964   7.066   8.119  0.3361  0.3759 -2.7077
  755MOL0     H 4183   1.831   7.108   8.233 -2.2953  0.0540 -1.3994
  755MOL0     H 4184   1.902   7.289   7.991  5.4446 -0.8474  1.9480
  755MOL0     H 4185   1.747   7.265   8.064  1.8815  0.5565  3.0342
  755MOL0     H 4186   1.702   6.967   7.793 -0.8476 -0.4913  0.6532
  755MOL0     H 4187   2.064   7.559   8.116  0.9412  1.3443 -0.7731
  755MOL0     H 4188   2.217   7.832   8.012 -1.1368 -1.0274 -1.5179
  755MOL0     H 4189   2.348   7.705   7.991  0.7843  0.2845  0.4908
  755MOL0     H 4190   2.172   7.678   7.953 -0.6417  1.3204 -0.9870
  756MOL0     O 4191   6.834   8.453  11.122 -0.5000 -0.3165 -0.4645
  756MOL0     C 4192   6.806   8.396  11.019 -0.1532  0.9430 -0.1280
  756MOL0     O 4193   6.897   8.342  10.931  0.4074 -0.2199 -0.2602
  756MOL0     C 4194   7.019   8.327  10.974 -0.3077  0.0171  0.1556
  756MOL0     C 4195   7.129   8.405  10.927  0.7913 -0.4736  0.1040
  756MOL0     C 4196   7.256   8.375  10.955 -0.0394  0.0405  0.1481
  756MOL0     C 4197   7.287   8.269  11.038  0.1002  0.0007 -0.3726
  756MOL0     O 4198   7.413   8.232  11.073 -0.7393  0.5140  0.3513
  756MOL0     C 4199   7.519   8.323  11.041 -0.6559 -0.2502  0.2254
  756MOL0     C 4200   7.658   8.273  11.068 -0.3790  0.0455 -0.7994
  756MOL0     C 4201   7.747   8.388  11.104 -0.0119  0.7612 -0.0813
  756MOL0     C 4202   7.883   8.333  11.168  1.3425 -0.4799 -0.2012
  756MOL0     C 4203   7.975   8.458  11.206 -1.0127 -0.7037 -0.2474
  756MOL0     C 4204   7.930   8.532  11.337  0.4696 -0.2789  0.2279
  756MOL0     C 4205   8.035   8.609  11.412 -0.4778  0.0781 -0.0252
  756MOL0     C 4206   7.968   8.710  11.518 -0.7770  0.9513  0.2292
  756MOL0     N 4207   7.895   8.639  11.621  0.1648 -0.1452 -0.4608
  756MOL0     C 4208   7.764   8.636  11.642  0.6239  0.6680  0.3372
  756MOL0     C 4209   7.744   8.588  11.763  0.6371  0.0396 -0.1781
  756MOL0     C 4210   7.613   8.591  11.832  0.1464  0.1259 -0.2402
  756MOL0     C 4211   7.601   8.529  11.968  0.3022  0.1489  0.4880
  756MOL0     C 4212   7.467   8.451  11.999 -0.1199 -0.2374 -0.5748
  756MOL0     C 4213   7.492   8.364  12.123  0.0963  0.5942  0.0767
  756MOL0     O 4214   7.382   8.277  12.153  0.2472 -0.7232 -0.9853
  756MOL0     C 4215   7.366   8.233  12.280  0.4024 -0.6493 -0.5638
  756MOL0     C 4216   7.236   8.254  12.342  0.8328  0.5833  0.2382
  756MOL0     C 4217   7.217   8.215  12.472  0.1821 -0.7586 -0.1005
  756MOL0     C 4218   7.074   8.223  12.523  0.8961 -0.1309 -0.1797
  756MOL0     C 4219   7.333   8.184  12.549 -1.1764 -0.3782 -0.1515
  756MOL0     C 4220   7.333   8.167  12.698  0.6414 -0.3999 -1.1978
  756MOL0     O 4221   7.219   8.232  12.755 -0.1683 -0.4088 -0.0865
  756MOL0     C 4222   7.215   8.250  12.888  0.5217 -1.6447  0.3219
  756MOL0     C 4223   7.120   8.341  12.927 -0.2433 -0.0712 -0.4750
  756MOL0     C 4224   7.102   8.388  13.056 -0.6340 -0.0876  0.2096
  756MOL0     C 4225   7.186   8.336  13.150  0.5634 -0.6433 -0.4290
  756MOL0     O 4226   7.165   8.391  13.281  0.2946  0.0818 -0.0209
  756MOL0     C 4227   7.180   8.302  13.393  0.6236 -0.5735 -0.0923
  756MOL0     C 4228   7.163   8.392  13.517 -1.1729 -0.0670 -0.4185
  756MOL0     C 4229   7.134   8.311  13.641  0.5362  0.8964 -0.3296
  756MOL0     C 4230   7.099   8.404  13.761 -0.2622 -0.4993 -0.8680
  756MOL0     C 4231   7.082   8.316  13.886  0.5769 -1.0094  0.3626
  756MOL0     C 4232   6.962   8.358  13.975 -0.1246 -0.5717  0.7961
  756MOL0     C 4233   6.978   8.308  14.125  0.3948  0.2896 -0.3723
  756MOL0     C 4234   7.088   8.358  14.209  0.0423  0.0838 -0.2508
  756MOL0    Cl 4235   7.030   8.482  14.318 -0.3181 -0.2135  0.2251
  756MOL0     C 4236   7.267   8.218  13.125  0.4113  0.0938 -0.0967
  756MOL0     C 4237   7.280   8.172  12.985  0.3934 -0.8520 -0.4305
  756MOL0     O 4238   7.423   8.112  12.761 -0.7971 -0.2373 -0.3760
  756MOL0     C 4239   7.457   8.155  12.485  0.4386 -0.2949 -0.7741
  756MOL0     C 4240   7.468   8.171  12.348  0.3881  0.9275 -1.0009
  756MOL0     N 4241   7.852   8.542  11.820 -1.0157 -0.1314  1.3647
  756MOL0     N 4242   7.950   8.567  11.725  0.0680  0.2879  0.1567
  756MOL0     C 4243   7.184   8.186  11.089  0.1012 -0.5529 -0.2056
  756MOL0     C 4244   7.050   8.218  11.068  0.1928 -0.6745  0.6730
  756MOL0     C 4245   6.662   8.406  10.973  0.2251  0.6462  0.9244
  756MOL0     C 4246   6.639   8.389  10.838  0.2887 -0.2474 -0.0718
  756MOL0     C 4247   6.519   8.429  10.783 -0.3017 -0.2129  0.7286
  756MOL0     C 4248   6.416   8.485  10.861  0.5295  0.0443  0.4611
  756MOL0     O 4249   6.316   8.544  10.792  0.2030  0.5587 -0.0147
  756MOL0     C 4250   6.216   8.596  10.880 -0.4095  0.1646  1.6867
  756MOL0     C 4251   6.115   8.670  10.791 -0.6202  0.2200  0.2758
  756MOL0     C 4252   6.142   8.822  10.771 -0.5244 -0.7747 -0.3529
  756MOL0     C 4253   6.064   8.884  10.652 -0.3510  0.0779  0.5282
  756MOL0     C 4254   5.924   8.907  10.671 -0.5603 -0.5112 -0.4768
  756MOL0     C 4255   5.805   8.937  10.688 -0.8150 -0.7072  0.9513
  756MOL0     C 4256   6.434   8.481  11.001 -0.1135 -0.3214  0.0797
  756MOL0     C 4257   6.556   8.438  11.062 -0.0992  0.0092 -0.3268
  756MOL0     C 4258   6.569   8.464  11.216  0.0252 -0.0981  0.2387
  756MOL0     H 4259   7.106   8.492  10.866  0.2738 -0.7597 -0.1219
  756MOL0     H 4260   7.331   8.446  10.920 -1.6848  1.1584 -1.2515
  756MOL0     H 4261   7.505   8.419  11.091 -0.8305  0.8662 -1.8399
  756MOL0     H 4262   7.526   8.342  10.933  0.6642  3.1114  0.7646
  756MOL0     H 4263   7.649   8.211  11.157 -1.4447  0.9662 -0.2471
  756MOL0     H 4264   7.693   8.209  10.986 -0.6383 -0.7951 -0.2695
  756MOL0     H 4265   7.771   8.445  11.013 -2.1851  0.8340 -0.6512
  756MOL0     H 4266   7.686   8.454  11.166 -2.0341 -0.2346 -0.9539
  756MOL0     H 4267   7.854   8.284  11.262 -2.5351  2.7316  0.5906
  756MOL0     H 4268   7.925   8.259  11.099 -1.3357 -0.4958 -1.9539
  756MOL0     H 4269   8.010   8.519  11.123  0.0588 -0.7542  0.1401
  756MOL0     H 4270   8.067   8.417  11.249 -1.4974  0.1166  1.6524
  756MOL0     H 4271   7.852   8.601  11.303 -0.9527 -2.1280 -0.4572
  756MOL0     H 4272   7.888   8.465  11.412  3.1135 -1.4485  0.7849
  756MOL0     H 4273   8.087   8.673  11.340 -1.3795  1.8470  0.8383
  756MOL0     H 4274   8.107   8.541  11.457 -0.3124  0.2862  0.0284
  756MOL0     H 4275   8.037   8.784  11.560  1.4378 -0.9916  0.1584
  756MOL0     H 4276   7.897   8.772  11.461 -2.3764 -0.4099  0.6512
  756MOL0     H 4277   7.687   8.681  11.580 -1.0217 -1.4410  0.7393
  756MOL0     H 4278   7.553   8.525  11.768  0.1059  0.1319 -0.2091
  756MOL0     H 4279   7.583   8.696  11.837 -0.3743 -0.0428  0.3532
  756MOL0     H 4280   7.682   8.459  11.989  2.8313  2.9663  0.7522
  756MOL0     H 4281   7.603   8.608  12.044  2.9883 -0.6750  1.3654
  756MOL0     H 4282   7.389   8.523  12.023 -1.8143 -1.0981 -3.0803
  756MOL0     H 4283   7.425   8.397  11.914 -1.3055 -1.1829  0.5619
  756MOL0     H 4284   7.579   8.299  12.112 -0.9982 -0.6882 -1.3425
  756MOL0     H 4285   7.486   8.430  12.210  0.1714  0.4325  0.2034
  756MOL0     H 4286   7.163   8.299  12.275 -0.5330  0.4631  1.6033
  756MOL0     H 4287   7.005   8.208  12.440  1.1994 -1.0999 -0.2672
  756MOL0     H 4288   7.062   8.316  12.581  1.1261  0.4753 -1.0872
  756MOL0     H 4289   7.054   8.145  12.597  1.5677 -0.4544 -0.3305
  756MOL0     H 4290   7.058   8.380  12.847  0.5007  0.1685 -0.9395
  756MOL0     H 4291   7.026   8.458  13.091  0.2226 -0.2712  2.6609
  756MOL0     H 4292   7.107   8.220  13.385 -0.3701  0.4266 -1.8877
  756MOL0     H 4293   7.278   8.252  13.399  1.9501  1.2453 -3.8499
  756MOL0     H 4294   7.258   8.445  13.531  0.0359 -2.1277 -0.4913
  756MOL0     H 4295   7.080   8.458  13.489 -0.3657  1.6609  1.0770
  756MOL0     H 4296   7.220   8.249  13.667  0.9693  1.5957 -0.0603
  756MOL0     H 4297   7.052   8.244  13.613 -1.5191  2.5718  1.3460
  756MOL0     H 4298   7.009   8.463  13.740  0.6280  1.6015  0.8872
  756MOL0     H 4299   7.178   8.477  13.778 -0.6475  0.0391 -1.3366
  756MOL0     H 4300   7.054   8.213  13.862 -3.4201  0.1672 -0.8242
  756MOL0     H 4301   7.180   8.308  13.935  1.2068 -4.0384 -1.1919
  756MOL0     H 4302   6.875   8.320  13.921 -0.6195  2.5606 -0.8064
  756MOL0     H 4303   6.957   8.466  13.986 -2.6068 -0.5783  0.2980
  756MOL0     H 4304   6.984   8.199  14.132 -1.8651  0.2281  1.5833
  756MOL0     H 4305   6.881   8.336  14.166  0.3009 -0.5311 -0.0194
  756MOL0     H 4306   7.170   8.389  14.144 -0.5218 -1.8635 -2.0055
  756MOL0     H 4307   7.124   8.279  14.275  0.1705  0.5321  0.2236
  756MOL0     H 4308   7.318   8.168  13.207 -1.5109 -0.3475  0.8697
  756MOL0     H 4309   7.332   8.078  12.969  1.8490  0.1920 -2.2961
  756MOL0     H 4310   7.541   8.130  12.550 -0.4807  1.1752  1.0884
  756MOL0     H 4311   7.566   8.138  12.317 -0.9699 -2.1777 -2.3999
  756MOL0     H 4312   7.201   8.094  11.144  0.0121 -0.5635 -0.1953
  756MOL0     H 4313   6.972   8.160  11.115  1.3058 -1.0669  2.1302
  756MOL0     H 4314   6.712   8.346  10.770 -1.0006 -1.3748 -0.8008
  756MOL0     H 4315   6.518   8.443  10.675 -1.3031 -3.4837  0.2078
  756MOL0     H 4316   6.163   8.511  10.924 -2.7832 -0.1687 -1.4109
  756MOL0     H 4317   6.252   8.665  10.956  0.7056  2.2177 -0.5629
  756MOL0     H 4318   6.016   8.661  10.837 -1.4949  1.6390 -1.2551
  756MOL0     H 4319   6.111   8.619  10.695 -1.1311  1.3391 -0.3094
  756MOL0     H 4320   6.120   8.873  10.865  0.0219 -0.9829 -0.1066
  756MOL0     H 4321   6.250   8.817  10.754 -0.4351 -3.5613  0.4590
  756MOL0     H 4322   6.059   8.831  10.556  2.3439  1.9211 -0.7307
  756MOL0     H 4323   6.120   8.973  10.624 -0.1343  0.3056  1.6498
  756MOL0     H 4324   5.700   8.950  10.701 -0.5174  0.0364  3.2394
  756MOL0     H 4325   6.366   8.521  11.076  1.0908  1.5606  0.2125
  756MOL0     H 4326   6.662   8.435  11.266  2.2000  1.6338 -2.5083
  756MOL0     H 4327   6.557   8.571  11.232  1.8091  0.6252 -2.5950
  756MOL0     H 4328   6.488   8.418  11.273 -0.3383  0.2292 -0.0061
  757MOL0     O 4329   1.128   8.390   1.420  0.0357 -0.7831 -0.0985
  757MOL0     C 4330   1.072   8.479   1.355  0.4671 -0.3892 -0.2320
  757MOL0     O 4331   1.129   8.557   1.264 -0.0575 -0.0728  0.2548
  757MOL0     C 4332   1.260   8.592   1.263  0.0082 -1.0364  0.1120
  757MOL0     C 4333   1.274   8.732   1.237  0.3826  0.2360 -0.3766
  757MOL0     C 4334   1.407   8.772   1.243 -0.7567 -0.3752  0.2215
  757MOL0     C 4335   1.517   8.689   1.268 -0.4241  0.0812  0.6034
  757MOL0     O 4336   1.637   8.740   1.288  0.3729 -0.4861 -0.0165
  757MOL0     C 4337   1.645   8.860   1.370  0.1900  0.2010 -1.3954
  757MOL0     C 4338   1.795   8.875   1.412  0.6133  0.7583  0.9352
  757MOL0     C 4339   1.821   8.739   1.494 -0.4224  0.2054 -0.3272
  757MOL0     C 4340   1.960   8.725   1.554 -0.5714  0.9039 -0.3076
  757MOL0     C 4341   1.992   8.593   1.607  0.2998  0.4484 -0.3850
  757MOL0     C 4342   2.142   8.564   1.624 -0.0438 -0.2047  0.4866
  757MOL0     C 4343   2.244   8.653   1.702 -0.4630  0.6517  0.2495
  757MOL0     C 4344   2.313   8.581   1.824 -0.2181  0.2439 -0.1001
  757MOL0     N 4345   2.217   8.534   1.932 -0.0072 -0.8781  0.2636
  757MOL0     C 4346   2.195   8.417   1.989  0.2205  0.4180  0.2888
  757MOL0     C 4347   2.106   8.434   2.096  0.4730 -0.3433 -0.7585
  757MOL0     C 4348   2.029   8.324   2.160 -0.5323  1.2780  0.8414
  757MOL0     C 4349   1.922   8.268   2.058 -0.0334 -0.5038  0.2202
  757MOL0     C 4350   1.993   8.192   1.949  0.1397 -0.2658 -0.1158
  757MOL0     C 4351   1.890   8.120   1.856 -0.4462  0.0304  0.3982
  757MOL0     O 4352   1.804   8.213   1.790  0.3833 -0.4617 -0.4768
  757MOL0     C 4353   1.709   8.179   1.696 -0.6983  0.3266 -0.3266
  757MOL0     C 4354   1.678   8.041   1.672 -0.1562 -0.7512 -0.7856
  757MOL0     C 4355   1.584   8.002   1.577  1.0422 -0.9579 -0.8301
  757MOL0     C 4356   1.548   7.851   1.558 -0.8065 -0.3308 -0.1993
  757MOL0     C 4357   1.506   8.106   1.512  0.6252 -0.1674  0.6902
  757MOL0     C 4358   1.398   8.070   1.425  1.3086  0.5046 -0.6854
  757MOL0     O 4359   1.278   8.015   1.474 -0.4910  0.6846 -0.2966
  757MOL0     C 4360   1.203   7.967   1.373 -0.5600 -0.2824  0.3500
  757MOL0     C 4361   1.202   7.838   1.316  0.5862  0.1592 -0.0784
  757MOL0     C 4362   1.121   7.812   1.205  0.4123 -0.0204 -0.0396
  757MOL0     C 4363   1.052   7.917   1.135  0.5118  0.0917  0.2351
  757MOL0     O 4364   0.985   7.903   1.009  0.0251  0.9568  0.5872
  757MOL0     C 4365   0.948   7.766   0.970 -0.0290 -0.0565 -0.5607
  757MOL0     C 4366   0.853   7.766   0.846 -0.1702  1.3976  1.5700
  757MOL0     C 4367   0.851   7.614   0.811  0.6938  0.4363 -0.0530
  757MOL0     C 4368   0.796   7.585   0.676 -0.3609 -0.4959  0.6152
  757MOL0     C 4369   0.757   7.444   0.651  0.2676  1.2484  0.2870
  757MOL0     C 4370   0.872   7.347   0.670  0.3504 -0.3570 -0.1189
  757MOL0     C 4371   0.819   7.201   0.715 -0.2484  0.5922  1.3480
  757MOL0     C 4372   0.943   7.109   0.741  0.3589  0.3479 -0.4064
  757MOL0    Cl 4373   1.013   7.086   0.573  0.1086 -0.2046 -0.1626
  757MOL0     C 4374   1.063   8.048   1.191 -0.0274  0.5323 -0.1993
  757MOL0     C 4375   1.123   8.068   1.311  0.2094  0.3844  0.4814
  757MOL0     O 4376   1.428   8.077   1.303  0.1796 -0.1500 -0.2457
  757MOL0     C 4377   1.539   8.239   1.529 -0.4679  1.0567  0.3081
  757MOL0     C 4378   1.637   8.274   1.624 -0.0109 -0.0387  0.0025
  757MOL0     N 4379   2.082   8.564   2.095 -0.1785 -0.0081  0.2179
  757MOL0     N 4380   2.152   8.628   2.001  0.0915  0.3730  0.5254
  757MOL0     C 4381   1.503   8.551   1.275  0.4545  0.4102 -1.2752
  757MOL0     C 4382   1.377   8.505   1.276  0.0925  0.7840 -0.0386
  757MOL0     C 4383   0.916   8.501   1.366  0.6311 -0.6139 -0.0663
  757MOL0     C 4384   0.861   8.609   1.294  0.2493  0.2757 -0.4869
  757MOL0     C 4385   0.726   8.630   1.288 -0.0647  0.0404  0.4784
  757MOL0     C 4386   0.636   8.547   1.354 -0.7169 -1.0489 -0.5384
  757MOL0     O 4387   0.506   8.582   1.340  0.2762 -0.1376 -0.3259
  757MOL0     C 4388   0.421   8.486   1.260  0.0383  0.1993 -0.3602
  757MOL0     C 4389   0.286   8.562   1.223 -0.3446 -0.3510  0.0471
  757MOL0     C 4390   0.314   8.663   1.108  0.6269  0.1959 -0.8370
  757MOL0     C 4391   0.212   8.768   1.092  0.2311  0.1148  1.0488
  757MOL0     C 4392   0.115   8.744   0.984  0.4665 -0.5934 -0.5336
  757MOL0     C 4393   0.016   8.722   0.918 -0.5683 -0.2617  0.8475
  757MOL0     C 4394   0.692   8.438   1.411  0.2463  1.0174 -0.0281
  757MOL0     C 4395   0.823   8.415   1.424 -0.0218  0.3122 -0.2950
  757MOL0     C 4396   0.860   8.286   1.504 -0.3260  0.3084  0.4061
  757MOL0     H 4397   1.198   8.807   1.217 -1.5274 -1.6938 -0.7407
  757MOL0     H 4398   1.416   8.880   1.230 -1.6848 -0.5067 -1.9194
  757MOL0     H 4399   1.575   8.855   1.454  3.6144  1.7801  1.8265
  757MOL0     H 4400   1.613   8.945   1.309 -2.2478 -1.1449 -2.1450
  757MOL0     H 4401   1.858   8.876   1.323 -2.2984  0.1000 -1.2962
  757MOL0     H 4402   1.805   8.957   1.483 -0.5453  1.1057  0.7327
  757MOL0     H 4403   1.748   8.721   1.573 -1.5206 -0.7899 -1.5165
  757MOL0     H 4404   1.814   8.655   1.424  0.6274  0.6754 -1.0261
  757MOL0     H 4405   2.035   8.749   1.479  0.1803  0.5582  0.3234
  757MOL0     H 4406   1.967   8.801   1.633 -2.4294  0.3310  0.4906
  757MOL0     H 4407   1.948   8.506   1.557 -0.9432 -0.0903  1.5153
  757MOL0     H 4408   1.930   8.582   1.697 -2.1795 -2.3175 -2.2313
  757MOL0     H 4409   2.140   8.463   1.665  0.6035 -0.8847 -1.0501
  757MOL0     H 4410   2.182   8.541   1.524  0.3434 -2.3304  1.0731
  757MOL0     H 4411   2.185   8.741   1.731 -3.5134 -1.2781  0.3058
  757MOL0     H 4412   2.321   8.687   1.632  0.1079 -0.0694  0.5108
  757MOL0     H 4413   2.373   8.504   1.774 -0.5148  1.5460 -2.6340
  757MOL0     H 4414   2.386   8.646   1.875  0.2279 -2.6508  3.3335
  757MOL0     H 4415   2.226   8.320   1.951  0.3683  0.8644 -0.7403
  757MOL0     H 4416   1.977   8.342   2.255 -0.2125  2.5034  0.8024
  757MOL0     H 4417   2.102   8.247   2.187 -0.9843  0.7071  0.4751
  757MOL0     H 4418   1.866   8.198   2.120  0.9049 -0.3331  1.2861
  757MOL0     H 4419   1.863   8.350   2.016  0.3737 -0.4334 -0.2185
  757MOL0     H 4420   2.041   8.262   1.880  0.6410  1.0775  1.5233
  757MOL0     H 4421   2.074   8.128   1.985 -0.2513 -2.3205 -2.5599
  757MOL0     H 4422   1.939   8.074   1.770 -3.3420  4.0818 -3.9817
  757MOL0     H 4423   1.828   8.042   1.902 -0.0795 -0.4254  0.1279
  757MOL0     H 4424   1.729   7.966   1.731 -0.5290 -1.2715 -1.1247
  757MOL0     H 4425   1.461   7.826   1.618 -0.8420  1.4520  0.5735
  757MOL0     H 4426   1.639   7.800   1.590 -0.0050  0.3363 -1.3140
  757MOL0     H 4427   1.549   7.805   1.459  0.8253 -1.4331  0.2803
  757MOL0     H 4428   1.264   7.761   1.361  0.2752 -0.1864 -0.2360
  757MOL0     H 4429   1.111   7.716   1.156 -0.7252  0.0180  0.0778
  757MOL0     H 4430   1.030   7.695   0.955 -1.8788 -2.2768 -0.7146
  757MOL0     H 4431   0.905   7.725   1.062  0.8274  3.9500  1.8622
  757MOL0     H 4432   0.752   7.800   0.871 -1.7291 -3.1550  2.5266
  757MOL0     H 4433   0.895   7.822   0.762 -1.8455  2.6392  1.5175
  757MOL0     H 4434   0.796   7.564   0.891  0.9527 -3.1479 -1.9535
  757MOL0     H 4435   0.951   7.571   0.809  0.2303 -0.6340 -0.9707
  757MOL0     H 4436   0.876   7.608   0.605 -1.0767 -3.7071 -1.4641
  757MOL0     H 4437   0.710   7.652   0.660  0.2870  0.5086  1.2671
  757MOL0     H 4438   0.682   7.420   0.726 -1.4390  1.9670 -1.1267
  757MOL0     H 4439   0.701   7.437   0.558  0.4280  4.3907 -0.1428
  757MOL0     H 4440   0.946   7.385   0.740 -0.7178 -0.4495  1.0934
  757MOL0     H 4441   0.911   7.356   0.568  1.5513 -0.7375  0.2906
  757MOL0     H 4442   0.746   7.148   0.653  0.5919  1.7656 -0.7342
  757MOL0     H 4443   0.772   7.209   0.814 -0.0480  0.8584  1.4229
  757MOL0     H 4444   0.931   7.009   0.784  0.7763 -0.1300 -1.3595
  757MOL0     H 4445   1.016   7.149   0.811 -0.9516  0.4899  0.9102
  757MOL0     H 4446   1.012   8.124   1.132 -1.0367 -0.8312 -1.1573
  757MOL0     H 4447   1.122   8.157   1.372  1.7821 -0.4025  1.7481
  757MOL0     H 4448   1.483   8.315   1.476 -3.2482 -2.1253 -1.7421
  757MOL0     H 4449   1.663   8.379   1.638  0.9220  0.0142 -1.8241
  757MOL0     H 4450   1.578   8.476   1.296 -2.5425 -2.8397 -1.4025
  757MOL0     H 4451   1.372   8.401   1.307  0.7228  0.9184  0.5226
  757MOL0     H 4452   0.932   8.687   1.266  1.1150 -1.0439 -2.1873
  757MOL0     H 4453   0.674   8.714   1.242 -1.3509 -0.2361  1.3823
  757MOL0     H 4454   0.470   8.439   1.174 -1.6779 -2.4410 -0.0055
  757MOL0     H 4455   0.403   8.405   1.332 -0.4560  1.2983  0.7775
  757MOL0     H 4456   0.250   8.615   1.312  0.4312  1.8568 -0.8691
  757MOL0     H 4457   0.208   8.491   1.195 -0.4663 -0.0764 -0.3098
  757MOL0     H 4458   0.412   8.709   1.125  1.0561 -1.3678  1.3791
  757MOL0     H 4459   0.334   8.620   1.010  1.8015 -0.2490 -0.4139
  757MOL0     H 4460   0.263   8.862   1.069  0.1751  1.0994  4.4099
  757MOL0     H 4461   0.154   8.795   1.181 -1.0293 -1.3281  0.6939
  757MOL0     H 4462  -0.070   8.701   0.857  1.2349  0.8966 -2.3421
  757MOL0     H 4463   0.627   8.367   1.462  0.9611 -0.2316 -0.8189
  757MOL0     H 4464   0.949   8.310   1.564 -1.1921  4.7173  0.2846
  757MOL0     H 4465   0.787   8.261   1.581 -3.7541 -0.4607 -2.8003
  757MOL0     H 4466   0.888   8.207   1.434 -0.8541  2.0431 -1.8698
  758MOL0     O 4467   0.713  10.035   8.784  0.0186 -0.1625  0.5613
  758MOL0     C 4468   0.642  10.140   8.784 -0.8644 -0.1703  1.3666
  758MOL0     O 4469   0.574  10.195   8.886 -0.3439  0.4479  0.1746
  758MOL0     C 4470   0.593  10.168   9.016 -0.5752  0.1682  0.0700
  758MOL0     C 4471   0.651  10.258   9.099  0.1529  0.5759  0.0232
  758MOL0     C 4472   0.679  10.224   9.231  0.2273  0.2019  0.3020
  758MOL0     C 4473   0.638  10.105   9.285 -0.7902  0.2678  0.9526
  758MOL0     O 4474   0.649  10.067   9.420  0.1561 -0.0525 -0.3664
  758MOL0     C 4475   0.774  10.089   9.482  0.0383 -1.4577  0.3503
  758MOL0     C 4476   0.842   9.963   9.546 -0.1768 -0.1580 -0.0335
  758MOL0     C 4477   0.829   9.843   9.451 -0.9135  1.3019 -0.2231
  758MOL0     C 4478   0.902   9.719   9.508  0.6776 -0.6869 -0.3477
  758MOL0     C 4479   0.870   9.593   9.421  0.2807  0.4299 -0.2840
  758MOL0     C 4480   0.892   9.463   9.495 -0.3186  0.4505  0.3418
  758MOL0     C 4481   0.896   9.343   9.390 -0.3263 -1.0747  0.1678
  758MOL0     C 4482   0.931   9.213   9.460  0.0648  0.2104 -0.0868
  758MOL0     N 4483   0.820   9.148   9.526  0.3734  0.7211 -0.2921
  758MOL0     C 4484   0.744   9.045   9.463 -0.4778  0.1674 -0.5314
  758MOL0     C 4485   0.679   8.990   9.573 -0.3453 -0.1376  0.0291
  758MOL0     C 4486   0.563   8.892   9.574 -0.0969  0.3428  0.5925
  758MOL0     C 4487   0.624   8.753   9.564 -0.3627 -0.3261  0.4243
  758MOL0     C 4488   0.701   8.723   9.696 -0.5110 -0.8472 -0.3585
  758MOL0     C 4489   0.761   8.584   9.716  0.3872  0.0587 -0.0437
  758MOL0     O 4490   0.891   8.560   9.661  0.6322  0.0065  0.0292
  758MOL0     C 4491   1.001   8.601   9.738  0.2973  0.2108  0.3528
  758MOL0     C 4492   0.982   8.665   9.857  0.5209 -0.3105 -0.8188
  758MOL0     C 4493   1.089   8.699   9.943  0.2669  0.3124 -0.0630
  758MOL0     C 4494   1.055   8.774  10.068  0.5490  0.5873  0.0745
  758MOL0     C 4495   1.213   8.644   9.914  0.4586  0.9581  0.1270
  758MOL0     C 4496   1.331   8.649  10.002 -0.7803  0.0544 -0.9826
  758MOL0     O 4497   1.460   8.675   9.957 -0.0380  0.0402 -0.6427
  758MOL0     C 4498   1.564   8.713  10.038  0.0375 -0.2200 -0.0536
  758MOL0     C 4499   1.690   8.678   9.996 -0.1539 -0.0271 -0.0926
  758MOL0     C 4500   1.800   8.717  10.076  0.5761  0.5382 -0.5350
  758MOL0     C 4501   1.779   8.791  10.193 -0.3261 -0.0805 -0.6212
  758MOL0     O 4502   1.875   8.850  10.275  0.2710 -0.9830  0.6567
  758MOL0     C 4503   2.003   8.899  10.218  0.6631 -0.7793 -0.2892
  758MOL0     C 4504   2.093   8.953  10.325  0.0544  0.3496 -0.3756
  758MOL0     C 4505   2.201   9.049  10.267 -0.7823  0.4930  0.2308
  758MOL0     C 4506   2.293   8.997  10.158  0.2895 -0.7651  0.5103
  758MOL0     C 4507   2.266   9.071  10.029 -0.4168 -0.2111  0.4905
  758MOL0     C 4508   2.329   9.003   9.908  0.2041  0.0335 -0.8314
  758MOL0     C 4509   2.480   8.989   9.924 -0.4160  0.1224 -0.3269
  758MOL0     C 4510   2.538   8.959   9.780  0.2142 -0.3248 -0.2107
  758MOL0    Cl 4511   2.473   8.806   9.705  0.2786 -0.0099  0.1454
  758MOL0     C 4512   1.656   8.836  10.226 -0.6027  0.1123 -0.3419
  758MOL0     C 4513   1.542   8.796  10.152  0.3934 -0.1352  0.5040
  758MOL0     O 4514   1.309   8.608  10.118 -0.3748  0.3924  0.0734
  758MOL0     C 4515   1.241   8.587   9.790  0.1279  0.1014 -0.7116
  758MOL0     C 4516   1.130   8.573   9.699 -0.8180 -0.7472 -0.3320
  758MOL0     N 4517   0.730   9.047   9.688  0.9802 -0.2156 -0.4332
  758MOL0     N 4518   0.808   9.144   9.658 -1.3980  0.8528 -0.5465
  758MOL0     C 4519   0.585  10.008   9.203  0.2417  0.6999  0.1055
  758MOL0     C 4520   0.565  10.042   9.066 -0.0884  0.2991  0.2368
  758MOL0     C 4521   0.635  10.212   8.654 -0.4163 -0.0572 -0.0686
  758MOL0     C 4522   0.749  10.216   8.577 -0.0260  0.3111 -1.1849
  758MOL0     C 4523   0.751  10.276   8.451 -0.1301 -0.5546  0.3082
  758MOL0     C 4524   0.634  10.327   8.394  0.9263 -0.0535 -0.9213
  758MOL0     O 4525   0.604  10.375   8.274 -0.1359 -0.0685  0.6421
  758MOL0     C 4526   0.720  10.360   8.184  0.3936 -0.7401  0.4535
  758MOL0     C 4527   0.693  10.411   8.045  0.1387 -0.4181 -0.1633
  758MOL0     C 4528   0.588  10.325   7.974  0.9001  1.0195  0.0097
  758MOL0     C 4529   0.558  10.371   7.831  0.1202 -0.0397 -0.2216
  758MOL0     C 4530   0.536  10.253   7.751  0.5649  0.4573 -0.5032
  758MOL0     C 4531   0.500  10.152   7.693 -0.3609 -0.5201 -0.1924
  758MOL0     C 4532   0.520  10.335   8.479 -0.1894 -0.0943  0.3287
  758MOL0     C 4533   0.520  10.264   8.603  0.8954 -0.2406  0.9058
  758MOL0     C 4534   0.393  10.274   8.681 -0.8611  0.3090 -0.2437
  758MOL0     H 4535   0.679  10.351   9.050 -0.6170  0.2245 -1.1147
  758MOL0     H 4536   0.724  10.297   9.298  0.4521 -0.7711  1.2465
  758MOL0     H 4537   0.771  10.170   9.555  2.3939 -1.2833  0.3007
  758MOL0     H 4538   0.841  10.124   9.403 -1.1140  0.7571  0.2825
  758MOL0     H 4539   0.948   9.985   9.558 -0.5858  0.9926  1.9226
  758MOL0     H 4540   0.792   9.948   9.642 -4.3467 -0.7892 -2.0395
  758MOL0     H 4541   0.724   9.816   9.444 -0.6586 -1.0892  3.1240
  758MOL0     H 4542   0.861   9.866   9.348  1.6908  5.6708  1.2972
  758MOL0     H 4543   1.009   9.741   9.506  1.1006 -2.5803 -2.8320
  758MOL0     H 4544   0.868   9.702   9.611 -1.2602 -1.6930 -1.1025
  758MOL0     H 4545   0.932   9.603   9.332 -3.3491 -0.7217 -3.1697
  758MOL0     H 4546   0.769   9.600   9.380  0.2550  2.6902  0.0007
  758MOL0     H 4547   0.978   9.466   9.561  0.1280 -1.0261 -0.1450
  758MOL0     H 4548   0.806   9.451   9.562 -0.5995  2.3909  0.3963
  758MOL0     H 4549   0.988   9.359   9.334  0.8073  0.2666  2.2572
  758MOL0     H 4550   0.808   9.340   9.327 -1.1054  2.9249  0.8410
  758MOL0     H 4551   0.975   9.144   9.387  0.3613 -0.2655  0.5285
  758MOL0     H 4552   1.012   9.239   9.530  2.1922  1.5384 -2.8401
  758MOL0     H 4553   0.724   9.022   9.359  3.0499  2.5710 -1.9527
  758MOL0     H 4554   0.501   8.920   9.488 -0.3494 -1.3838  0.1855
  758MOL0     H 4555   0.507   8.896   9.667 -0.1248 -1.9128  0.7076
  758MOL0     H 4556   0.539   8.686   9.548 -1.2644  0.5174  1.5117
  758MOL0     H 4557   0.696   8.743   9.483  0.9241  0.5227  1.4208
  758MOL0     H 4558   0.789   8.788   9.702 -0.2949 -1.1507 -0.2589
  758MOL0     H 4559   0.632   8.730   9.781 -0.6946 -0.0365 -0.5624
  758MOL0     H 4560   0.759   8.567   9.824  2.2661  0.8447  0.1554
  758MOL0     H 4561   0.700   8.507   9.670  1.7505 -0.7627 -0.5401
  758MOL0     H 4562   0.888   8.706   9.895  2.3191  1.2554  2.3355
  758MOL0     H 4563   1.137   8.825  10.118 -1.8772  1.0961  4.0249
  758MOL0     H 4564   1.012   8.708  10.144  0.9763  1.5691  1.1992
  758MOL0     H 4565   0.983   8.851  10.039  0.2092  0.5160  0.7037
  758MOL0     H 4566   1.688   8.617   9.907  1.7101 -2.0961  1.1826
  758MOL0     H 4567   1.899   8.692  10.039 -0.4100  0.0762 -3.0434
  758MOL0     H 4568   2.059   8.824  10.162  1.2277  0.0287 -0.8409
  758MOL0     H 4569   1.975   8.982  10.153 -2.2093 -1.2678  0.2099
  758MOL0     H 4570   2.035   9.002  10.403  3.9427  1.4754  2.0827
  758MOL0     H 4571   2.153   8.869  10.361 -0.6071 -1.6097 -3.4694
  758MOL0     H 4572   2.269   9.087  10.345  1.5413 -0.1935 -1.3429
  758MOL0     H 4573   2.148   9.138  10.234  2.7064  2.4017 -0.6676
  758MOL0     H 4574   2.276   8.891  10.139  1.3252 -0.7522 -0.6064
  758MOL0     H 4575   2.397   9.006  10.190 -0.0074 -0.2045  1.3785
  758MOL0     H 4576   2.157   9.065  10.020 -0.7510 -1.1936  3.6842
  758MOL0     H 4577   2.289   9.178  10.038 -1.1126  0.2854 -2.6258
  758MOL0     H 4578   2.305   9.065   9.821 -3.8011 -0.9625 -0.6152
  758MOL0     H 4579   2.299   8.901   9.883  2.0386 -0.5673 -0.6899
  758MOL0     H 4580   2.502   8.911   9.997  2.7226  1.6790  0.5786
  758MOL0     H 4581   2.535   9.074   9.966  0.7968 -0.8281  0.0877
  758MOL0     H 4582   2.647   8.949   9.784  0.2176 -0.3341 -0.3307
  758MOL0     H 4583   2.508   9.052   9.732 -2.1965 -0.3597  1.0956
  758MOL0     H 4584   1.648   8.888  10.321 -0.1705 -2.0273  0.9327
  758MOL0     H 4585   1.442   8.832  10.176  1.5239  3.3654  0.3901
  758MOL0     H 4586   1.344   8.561   9.768 -0.0690  0.2216 -1.8299
  758MOL0     H 4587   1.145   8.533   9.599 -1.9935  3.0736 -2.2530
  758MOL0     H 4588   0.546   9.920   9.253 -0.4935  0.6641 -0.5167
  758MOL0     H 4589   0.504   9.978   9.003  0.0152  2.0092 -1.7077
  758MOL0     H 4590   0.847  10.184   8.612 -0.1976  0.1819 -0.8188
  758MOL0     H 4591   0.847  10.279   8.401 -0.1285 -0.5277  0.3128
  758MOL0     H 4592   0.807  10.419   8.213  0.4372 -0.1070 -0.8856
  758MOL0     H 4593   0.743  10.254   8.188 -0.8484 -1.0878 -0.8824
  758MOL0     H 4594   0.787  10.399   7.989 -0.0587 -1.3331 -0.3229
  758MOL0     H 4595   0.662  10.515   8.037  0.0017 -0.4883 -0.5855
  758MOL0     H 4596   0.615  10.219   7.978  1.1456  1.0404 -0.9377
  758MOL0     H 4597   0.494  10.321   8.030 -0.7156 -1.7962 -2.6069
  758MOL0     H 4598   0.654  10.410   7.798  1.8188 -2.3988  1.5757
  758MOL0     H 4599   0.481  10.448   7.840  0.4595  0.0364  2.9760
  758MOL0     H 4600   0.466  10.066   7.640 -0.0881 -2.6191  2.8009
  758MOL0     H 4601   0.426  10.382   8.453 -0.2489 -0.4231 -0.0438
  758MOL0     H 4602   0.409  10.347   8.760 -0.9328  0.1947 -0.1240
  758MOL0     H 4603   0.312  10.295   8.610  0.9900  1.7249 -2.0589
  758MOL0     H 4604   0.377  10.178   8.732 -0.4180  0.9742  1.2039
  759MOL0     O 4605   9.606  10.133   1.414 -0.5989 -0.3612  1.1627
  759MOL0     C 4606   9.523  10.080   1.483  0.2217 -0.7230 -0.4163
  759MOL0     O 4607   9.398  10.050   1.435  0.5461  0.8473  0.9118
  759MOL0     C 4608   9.385  10.040   1.293 -0.2992  1.2141 -0.3026
  759MOL0     C 4609   9.330   9.933   1.243  0.2084 -0.4097 -0.3749
  759MOL0     C 4610   9.309   9.923   1.100  0.3418 -0.0160 -0.7370
  759MOL0     C 4611   9.335  10.025   1.012  0.6191  0.0394  0.1889
  759MOL0     O 4612   9.332   9.997   0.875 -0.1238 -0.0184  0.8409
  759MOL0     C 4613   9.282  10.102   0.783 -0.7033  0.0385  0.6734
  759MOL0     C 4614   9.238  10.036   0.653 -0.4877 -0.2298 -0.1485
  759MOL0     C 4615   9.348   9.963   0.586  0.2015  0.1467 -1.0414
  759MOL0     C 4616   9.291   9.878   0.469  0.7593 -0.4569  0.3748
  759MOL0     C 4617   9.399   9.788   0.412 -0.0598 -0.0764  0.2202
  759MOL0     C 4618   9.535   9.863   0.393 -0.2821  0.6207  0.3575
  759MOL0     C 4619   9.633   9.755   0.327  0.4790 -0.6654  0.0660
  759MOL0     C 4620   9.744   9.807   0.242 -0.4599 -0.1741  1.4624
  759MOL0     N 4621   9.839   9.876   0.338  0.2506 -0.4133 -0.0090
  759MOL0     C 4622   9.952   9.825   0.398 -1.6452 -0.6065 -0.3480
  759MOL0     C 4623  10.009   9.933   0.468 -0.2659  1.1269  0.2124
  759MOL0     C 4624  10.137   9.934   0.559 -0.4531 -0.4183  1.2902
  759MOL0     C 4625  10.136   9.874   0.708  0.5210 -0.2682 -0.5891
  759MOL0     C 4626  10.096   9.725   0.703  0.4634  0.8108  0.2920
  759MOL0     C 4627  10.217   9.635   0.681  0.0058 -0.1715  0.4234
  759MOL0     O 4628  10.273   9.620   0.548 -0.4003  0.7402  0.0272
  759MOL0     C 4629  10.209   9.543   0.453 -0.5152  0.0297 -0.3683
  759MOL0     C 4630  10.276   9.537   0.329 -0.2060 -0.0722  0.1306
  759MOL0     C 4631  10.222   9.466   0.227  0.3379  0.1526  0.1672
  759MOL0     C 4632  10.302   9.460   0.094  0.6637  0.1600  0.2044
  759MOL0     C 4633  10.101   9.389   0.250  0.4099  0.0690  0.2040
  759MOL0     C 4634  10.055   9.302   0.148  0.7123 -0.1911 -1.1721
  759MOL0     O 4635  10.069   9.166   0.174 -0.7971  0.1089  0.3271
  759MOL0     C 4636  10.081   9.078   0.073  0.5469 -0.5692  0.3118
  759MOL0     C 4637   9.967   9.027   0.010  0.3372  0.8780 -0.0386
  759MOL0     C 4638   9.980   8.919  -0.076 -0.3862  0.3554  0.7317
  759MOL0     C 4639  10.108   8.886  -0.131 -0.0923 -0.0795  0.4931
  759MOL0     O 4640  10.142   8.791  -0.232 -0.0926 -0.2525  0.1843
  759MOL0     C 4641  10.202   8.841  -0.354  0.1453  0.1764 -1.3359
  759MOL0     C 4642  10.186   8.738  -0.458  0.2039 -0.8144 -0.3739
  759MOL0     C 4643  10.268   8.611  -0.446 -0.7245  0.4261 -0.8702
  759MOL0     C 4644  10.274   8.531  -0.573 -0.1885 -0.9820 -0.4025
  759MOL0     C 4645  10.355   8.396  -0.562  0.5440  0.6971  0.3722
  759MOL0     C 4646  10.288   8.286  -0.485  0.6226  0.2473 -0.4548
  759MOL0     C 4647  10.144   8.246  -0.540 -0.4429 -0.0631  0.0388
  759MOL0     C 4648  10.074   8.141  -0.449 -0.9885 -0.9835 -0.1351
  759MOL0    Cl 4649  10.167   7.980  -0.438 -0.1014  0.2142 -0.1607
  759MOL0     C 4650  10.220   8.942  -0.070  0.4506 -0.5484 -1.1010
  759MOL0     C 4651  10.207   9.028   0.038  0.0867  0.5001  0.0679
  759MOL0     O 4652  10.020   9.345   0.044  0.1532  0.4454  0.1708
  759MOL0     C 4653  10.032   9.408   0.375  0.7387  0.5624  0.0508
  759MOL0     C 4654  10.088   9.478   0.481 -0.1531 -0.3355 -0.6256
  759MOL0     N 4655   9.933  10.042   0.437 -0.1954  0.3974  0.1903
  759MOL0     N 4656   9.840  10.012   0.358 -0.3421  0.5640  0.3344
  759MOL0     C 4657   9.385  10.142   1.067 -0.6705 -0.1148 -0.0812
  759MOL0     C 4658   9.402  10.150   1.207  1.1080  0.6091  0.3481
  759MOL0     C 4659   9.554  10.074   1.631 -1.0753  0.2038  0.1387
  759MOL0     C 4660   9.447  10.062   1.717  0.4679  0.4432  0.0210
  759MOL0     C 4661   9.469  10.047   1.855 -0.8791 -0.0048 -0.0469
  759MOL0     C 4662   9.595  10.058   1.908 -0.2740 -0.3819 -0.1935
  759MOL0     O 4663   9.598  10.062   2.045  0.1775  0.3279  0.7882
  759MOL0     C 4664   9.728  10.058   2.110 -0.2224  0.3295  0.2704
  759MOL0     C 4665   9.749  10.184   2.187  1.0703 -0.6022 -0.3076
  759MOL0     C 4666   9.635  10.205   2.292  0.2324 -0.1117 -0.2704
  759MOL0     C 4667   9.673  10.307   2.402 -0.2405  0.1988 -0.7654
  759MOL0     C 4668   9.571  10.316   2.505  0.0268 -0.2768 -0.3590
  759MOL0     C 4669   9.515  10.346   2.604 -0.7667  0.9917 -1.1339
  759MOL0     C 4670   9.704  10.066   1.815  0.7610 -0.0933  0.7716
  759MOL0     C 4671   9.689  10.072   1.679  0.5101 -0.2818 -0.6378
  759MOL0     C 4672   9.823  10.087   1.594  0.2462  0.6322 -0.2612
  759MOL0     H 4673   9.309   9.852   1.312  3.0190  0.3378  1.5578
  759MOL0     H 4674   9.266   9.834   1.055 -0.3448 -0.7174  1.2211
  759MOL0     H 4675   9.360  10.177   0.763  1.9188 -1.8679  3.0003
  759MOL0     H 4676   9.185  10.141   0.814 -0.9526 -0.8137  1.0016
  759MOL0     H 4677   9.147   9.976   0.659 -0.8152  0.3111  0.4005
  759MOL0     H 4678   9.208  10.122   0.592  2.5074  4.6557  4.4126
  759MOL0     H 4679   9.426  10.031   0.551  1.1145  0.0817  0.7450
  759MOL0     H 4680   9.399   9.888   0.647 -1.1124 -1.7284 -2.1612
  759MOL0     H 4681   9.202   9.827   0.508  0.8262 -0.8763 -0.0162
  759MOL0     H 4682   9.247   9.939   0.389  3.3992  2.6918  1.0808
  759MOL0     H 4683   9.375   9.756   0.311  1.5748 -2.5718  0.5371
  759MOL0     H 4684   9.406   9.695   0.470 -1.3274 -0.3690 -0.0597
  759MOL0     H 4685   9.523   9.953   0.331 -2.1752 -0.2823 -0.6784
  759MOL0     H 4686   9.587   9.876   0.488 -0.6743 -4.1071  1.4575
  759MOL0     H 4687   9.568   9.690   0.268 -1.3486  2.1328 -1.2066
  759MOL0     H 4688   9.680   9.698   0.408  2.3239 -0.2798 -0.6746
  759MOL0     H 4689   9.789   9.722   0.190  0.9385  2.2065 -1.4944
  759MOL0     H 4690   9.706   9.870   0.161  0.8838 -0.8783  0.2390
  759MOL0     H 4691   9.986   9.722   0.403 -2.0498 -0.7562 -0.6921
  759MOL0     H 4692  10.162  10.040   0.570 -0.9117 -0.3831  2.0561
  759MOL0     H 4693  10.220   9.880   0.514 -0.5884 -1.5668  2.3626
  759MOL0     H 4694  10.224   9.887   0.772 -1.6701 -0.2825  2.6426
  759MOL0     H 4695  10.060   9.930   0.762  3.0178 -0.9173  4.1313
  759MOL0     H 4696  10.048   9.702   0.798 -3.5627  0.2316 -1.6812
  759MOL0     H 4697  10.012   9.703   0.636  0.3032 -1.3650  1.1085
  759MOL0     H 4698  10.298   9.675   0.743 -0.7377  0.4761  1.0021
  759MOL0     H 4699  10.201   9.537   0.726 -0.0921  0.1883  1.1904
  759MOL0     H 4700  10.366   9.595   0.311 -0.4121  0.9865  2.2254
  759MOL0     H 4701  10.404   9.497   0.102  1.3864 -1.1050 -2.1678
  759MOL0     H 4702  10.260   9.528   0.019 -2.2913 -1.3930  0.3031
  759MOL0     H 4703  10.312   9.364   0.044 -1.0199  0.8077 -1.5045
  759MOL0     H 4704   9.870   9.062   0.044 -0.0088 -1.3309  1.4750
  759MOL0     H 4705   9.889   8.878  -0.118 -0.6123  0.2816  1.2777
  759MOL0     H 4706  10.156   8.938  -0.379  0.5244  0.6583 -0.2131
  759MOL0     H 4707  10.305   8.875  -0.344 -0.5725  2.7554 -1.7969
  759MOL0     H 4708  10.080   8.710  -0.450 -0.5026  1.7744  0.4751
  759MOL0     H 4709  10.210   8.787  -0.553 -2.3487  1.1034 -0.1794
  759MOL0     H 4710  10.225   8.540  -0.374 -1.8998 -0.1840 -2.1332
  759MOL0     H 4711  10.368   8.644  -0.417 -2.3448  4.7963  0.5670
  759MOL0     H 4712  10.326   8.590  -0.649  0.7784 -1.1189  0.1412
  759MOL0     H 4713  10.167   8.519  -0.596 -0.6125  0.6043  0.5438
  759MOL0     H 4714  10.376   8.357  -0.662  1.4149  1.9086  0.0603
  759MOL0     H 4715  10.454   8.420  -0.524  0.1077  1.3270  1.1446
  759MOL0     H 4716  10.275   8.316  -0.381  1.7215 -0.3104 -0.1389
  759MOL0     H 4717  10.349   8.195  -0.476  0.3782  0.2609  2.1326
  759MOL0     H 4718  10.162   8.191  -0.633  0.9097 -1.7309  1.2374
  759MOL0     H 4719  10.081   8.332  -0.563  0.9871  0.9739 -0.1092
  759MOL0     H 4720   9.977   8.129  -0.498 -0.8542 -0.8763 -0.4335
  759MOL0     H 4721  10.063   8.193  -0.353 -2.0433  1.3288 -1.4087
  759MOL0     H 4722  10.320   8.912  -0.101  0.9807  1.3452 -1.3402
  759MOL0     H 4723  10.291   9.063   0.097  1.9695 -1.1262 -1.4944
  759MOL0     H 4724   9.935   9.361   0.385 -1.0379  2.4862 -4.8761
  759MOL0     H 4725  10.040   9.494   0.577 -0.7831  3.0240 -1.3822
  759MOL0     H 4726   9.403  10.231   1.008 -2.3312  1.7343  2.0112
  759MOL0     H 4727   9.434  10.245   1.250  1.4341 -0.3484  2.3363
  759MOL0     H 4728   9.344  10.063   1.682  1.1187 -0.5487 -2.0615
  759MOL0     H 4729   9.383  10.034   1.919 -1.2324 -0.4779 -0.6032
  759MOL0     H 4730   9.741   9.981   2.187  2.3742  0.8029  0.3705
  759MOL0     H 4731   9.807  10.026   2.042 -1.7334 -0.7207 -1.0757
  759MOL0     H 4732   9.752  10.271   2.121  1.5265 -0.9694 -0.7818
  759MOL0     H 4733   9.845  10.179   2.239  0.9393 -3.6426 -0.1707
  759MOL0     H 4734   9.536  10.225   2.251 -0.2189  0.5631  1.0741
  759MOL0     H 4735   9.622  10.116   2.354 -0.6066  1.5709  2.1234
  759MOL0     H 4736   9.686  10.410   2.369 -1.9250  0.7103  0.0656
  759MOL0     H 4737   9.771  10.275   2.439 -0.0369  1.3595 -0.2540
  759MOL0     H 4738   9.453  10.367   2.689  1.8006  1.0724  0.8391
  759MOL0     H 4739   9.808  10.063   1.844  1.9913 -0.5404 -3.1139
  759MOL0     H 4740   9.808  10.024   1.506 -4.2084  0.1678  0.5766
  759MOL0     H 4741   9.834  10.193   1.571 -2.0359  1.3352  1.5128
  759MOL0     H 4742   9.901  10.050   1.662  2.2679 -1.2282 -3.3190
  760MOL0     O 4743   2.097   2.145  10.983  0.2427  0.3317 -0.3048
  760MOL0     C 4744   2.214   2.173  11.020  0.2859 -0.0082  0.0194
  760MOL0     O 4745   2.300   2.083  11.079  0.1467 -0.4558  0.1854
  760MOL0     C 4746   2.248   2.016  11.189 -0.1403  0.0881  0.1886
  760MOL0     C 4747   2.117   2.037  11.250 -0.1664  0.0009 -0.9350
  760MOL0     C 4748   2.084   1.957  11.360  0.6555  0.3267  0.2824
  760MOL0     C 4749   2.161   1.852  11.409 -0.0070  0.5308 -1.0403
  760MOL0     O 4750   2.135   1.760  11.519 -1.0842  0.5861  0.3787
  760MOL0     C 4751   2.030   1.795  11.617 -0.5480  0.4219  0.5951
  760MOL0     C 4752   2.068   1.902  11.716 -0.4599  0.2799 -0.1687
  760MOL0     C 4753   1.959   1.972  11.788  0.4053 -0.4194  0.1288
  760MOL0     C 4754   1.890   1.892  11.893 -0.5947  0.4072  0.8093
  760MOL0     C 4755   1.772   1.950  11.957  0.3911 -0.1579 -0.0710
  760MOL0     C 4756   1.652   1.969  11.863 -0.1985  0.4699 -0.2627
  760MOL0     C 4757   1.529   2.011  11.943 -0.2450  0.5177  0.7341
  760MOL0     C 4758   1.538   2.146  12.014 -0.4692 -0.2310 -0.3537
  760MOL0     N 4759   1.451   2.123  12.128  0.1914  0.5619  0.0849
  760MOL0     C 4760   1.504   2.094  12.247 -0.4997  0.6374  0.2482
  760MOL0     C 4761   1.389   2.093  12.330 -1.2301 -0.3521 -0.1370
  760MOL0     C 4762   1.391   2.037  12.473 -0.6446 -0.5130  0.3237
  760MOL0     C 4763   1.257   2.013  12.531 -0.4383 -0.6802  0.2336
  760MOL0     C 4764   1.262   1.991  12.690  1.2159 -0.4369 -0.1379
  760MOL0     C 4765   1.315   1.856  12.716 -0.2034  0.5305  0.0834
  760MOL0     O 4766   1.268   1.823  12.843 -0.7714 -0.4436  0.0460
  760MOL0     C 4767   1.353   1.799  12.946 -0.6469 -0.2696 -0.8047
  760MOL0     C 4768   1.289   1.786  13.064 -0.0919  0.4334 -0.0512
  760MOL0     C 4769   1.352   1.770  13.192  0.4727  0.3612 -0.4516
  760MOL0     C 4770   1.268   1.731  13.313  0.2122  0.0753 -0.1318
  760MOL0     C 4771   1.496   1.767  13.194 -0.3541 -0.1514  0.7853
  760MOL0     C 4772   1.583   1.734  13.316 -0.1453  0.2815 -0.2477
  760MOL0     O 4773   1.714   1.677  13.295  0.1812  0.0453 -0.4039
  760MOL0     C 4774   1.792   1.675  13.407  0.4926 -0.9880 -0.5432
  760MOL0     C 4775   1.875   1.782  13.449  0.1856 -0.0689  0.8567
  760MOL0     C 4776   1.936   1.783  13.575 -0.2131  0.3459  0.0070
  760MOL0     C 4777   1.911   1.681  13.666  0.4219 -0.3860 -0.5032
  760MOL0     O 4778   1.947   1.694  13.793 -0.8686 -0.1438  0.5635
  760MOL0     C 4779   2.090   1.673  13.815  0.0073 -0.1596 -0.0727
  760MOL0     C 4780   2.114   1.687  13.959  0.1163  0.3501 -0.4253
  760MOL0     C 4781   2.036   1.589  14.048 -0.2761 -0.3105  1.3992
  760MOL0     C 4782   2.021   1.646  14.184 -0.1069  0.3634  0.1966
  760MOL0     C 4783   1.979   1.534  14.279 -0.5476 -0.1821  0.3376
  760MOL0     C 4784   1.916   1.584  14.404 -0.0772 -0.2465 -0.3085
  760MOL0     C 4785   1.857   1.488  14.499  0.4876  1.3024  0.3149
  760MOL0     C 4786   1.743   1.405  14.419  0.8629  0.0082 -0.2813
  760MOL0    Cl 4787   1.647   1.319  14.541 -0.0959  0.3555  0.0427
  760MOL0     C 4788   1.840   1.570  13.624 -0.3911  0.9498 -0.7679
  760MOL0     C 4789   1.779   1.567  13.498 -0.2023 -0.0447  0.0396
  760MOL0     O 4790   1.531   1.761  13.425  0.3068  0.6302 -0.5599
  760MOL0     C 4791   1.563   1.767  13.065  0.0977 -0.0565  0.2543
  760MOL0     C 4792   1.487   1.773  12.946 -1.2415  0.5305 -0.3898
  760MOL0     N 4793   1.284   2.136  12.256 -0.0876 -0.1297 -0.7628
  760MOL0     N 4794   1.316   2.143  12.125  0.2673  0.3688 -1.1830
  760MOL0     C 4795   2.284   1.827  11.347  0.0307 -0.6179  0.1022
  760MOL0     C 4796   2.333   1.907  11.239  0.4783  0.1688  0.7642
  760MOL0     C 4797   2.263   2.311  10.997 -0.3091 -0.9604 -0.0641
  760MOL0     C 4798   2.391   2.334  11.059  0.3831 -0.4494  0.0314
  760MOL0     C 4799   2.462   2.448  11.039 -0.2182 -0.1324  0.5954
  760MOL0     C 4800   2.409   2.551  10.951 -0.4010  0.5742 -1.2463
  760MOL0     O 4801   2.489   2.662  10.935  0.6995 -0.6489 -0.0702
  760MOL0     C 4802   2.435   2.780  10.878 -0.6102 -0.0783 -0.5862
  760MOL0     C 4803   2.353   2.868  10.980  0.6846  0.7109 -1.6212
  760MOL0     C 4804   2.443   2.932  11.086 -0.0492  0.6915  0.2056
  760MOL0     C 4805   2.356   3.005  11.187  0.3578  0.1734  0.0024
  760MOL0     C 4806   2.413   2.988  11.319 -0.4939  0.6012 -0.6442
  760MOL0     C 4807   2.467   2.960  11.428  0.7041 -0.2386  0.7543
  760MOL0     C 4808   2.286   2.533  10.891  0.4824 -0.1039  0.2781
  760MOL0     C 4809   2.201   2.418  10.919  0.6562 -0.7388  0.3347
  760MOL0     C 4810   2.063   2.407  10.882  0.0159 -0.2023  0.3829
  760MOL0     H 4811   2.052   2.119  11.222  0.2895  1.2121  1.2491
  760MOL0     H 4812   1.989   1.970  11.412  0.6875 -1.0082  0.7112
  760MOL0     H 4813   2.016   1.700  11.668  0.2673 -1.3600 -2.3142
  760MOL0     H 4814   1.936   1.820  11.566 -0.4273  4.5494  2.0109
  760MOL0     H 4815   2.130   1.872  11.801  1.5104  1.3503 -1.1544
  760MOL0     H 4816   2.129   1.972  11.658 -0.9678  0.9660  0.1138
  760MOL0     H 4817   2.001   2.062  11.835 -1.9072  1.2090 -0.7814
  760MOL0     H 4818   1.884   2.018  11.724  0.4736  0.1231  0.4212
  760MOL0     H 4819   1.858   1.799  11.847 -2.8617  0.9525  1.1824
  760MOL0     H 4820   1.959   1.857  11.971  1.0355 -1.0680 -1.1882
  760MOL0     H 4821   1.806   2.045  11.999  0.7412  0.0834 -0.8721
  760MOL0     H 4822   1.742   1.884  12.039  0.8733  0.0790  0.3015
  760MOL0     H 4823   1.682   2.047  11.792  0.8921  1.7027  1.4799
  760MOL0     H 4824   1.636   1.881  11.800  1.3218  0.5887 -0.8616
  760MOL0     H 4825   1.517   1.937  12.023  0.3311  3.1896  3.5003
  760MOL0     H 4826   1.439   2.008  11.881 -0.5200 -0.6180  1.1433
  760MOL0     H 4827   1.636   2.177  12.050 -1.2983  2.5052 -0.2447
  760MOL0     H 4828   1.506   2.231  11.954 -0.9261  0.4394  0.8133
  760MOL0     H 4829   1.609   2.074  12.266 -0.2683  1.7835  0.2845
  760MOL0     H 4830   1.438   2.106  12.544  1.2453 -1.3610 -0.0346
  760MOL0     H 4831   1.447   1.944  12.482  1.0765  0.3134 -1.2553
  760MOL0     H 4832   1.207   2.109  12.514 -0.1117 -0.2666  1.4479
  760MOL0     H 4833   1.213   1.931  12.474  1.2207 -0.9310 -0.7725
  760MOL0     H 4834   1.325   2.067  12.736  1.3369 -0.2461 -0.6144
  760MOL0     H 4835   1.160   1.999  12.730  0.3058 -1.1483 -2.1779
  760MOL0     H 4836   1.288   1.785  12.637  3.1316 -0.1476 -0.6073
  760MOL0     H 4837   1.424   1.861  12.713 -0.1580 -0.3259 -0.1264
  760MOL0     H 4838   1.181   1.796  13.056  0.2239  2.5833 -2.5752
  760MOL0     H 4839   1.267   1.819  13.378 -5.4409  0.7456 -0.5692
  760MOL0     H 4840   1.300   1.637  13.359 -1.9131 -0.5100  0.2668
  760MOL0     H 4841   1.164   1.706  13.289  0.1416 -1.9347  1.9135
  760MOL0     H 4842   1.912   1.867  13.394 -3.1526  1.5260  0.8521
  760MOL0     H 4843   1.994   1.874  13.589 -0.4463  1.1871 -3.4524
  760MOL0     H 4844   2.121   1.575  13.777 -1.1464 -0.0272 -1.4498
  760MOL0     H 4845   2.143   1.750  13.758  1.0209  1.2420  2.5963
  760MOL0     H 4846   2.219   1.678  13.989  0.7628 -0.9315 -2.7390
  760MOL0     H 4847   2.077   1.784  13.992  1.0709  0.7900 -0.6110
  760MOL0     H 4848   2.096   1.498  14.053  0.1732 -0.1393 -0.3042
  760MOL0     H 4849   1.934   1.569  14.011 -1.7637  1.6175  4.0934
  760MOL0     H 4850   1.945   1.725  14.183  0.0780  0.5476 -1.1710
  760MOL0     H 4851   2.107   1.705  14.217 -0.7689 -0.4487  3.8224
  760MOL0     H 4852   1.905   1.472  14.228  0.7131 -0.3293 -1.3935
  760MOL0     H 4853   2.062   1.472  14.312 -2.4265 -3.8480 -1.2757
  760MOL0     H 4854   1.836   1.652  14.372 -0.2550 -1.5197 -2.8048
  760MOL0     H 4855   1.992   1.637  14.463 -0.4997 -1.8927  1.8290
  760MOL0     H 4856   1.812   1.553  14.575 -1.3679  1.8213 -1.1481
  760MOL0     H 4857   1.929   1.420  14.544  1.5166  2.2238  0.1172
  760MOL0     H 4858   1.791   1.337  14.348  0.4976  1.0113 -1.5150
  760MOL0     H 4859   1.685   1.475  14.359 -0.3005 -0.2637  0.5019
  760MOL0     H 4860   1.839   1.481  13.687 -1.0627  0.1510 -1.8797
  760MOL0     H 4861   1.721   1.480  13.468  2.1375 -1.0058 -1.9628
  760MOL0     H 4862   1.669   1.756  13.050 -0.0290  0.3757 -1.1050
  760MOL0     H 4863   1.546   1.754  12.857 -1.6820 -0.0259 -0.5698
  760MOL0     H 4864   2.354   1.751  11.382 -1.4454 -1.8259  0.5671
  760MOL0     H 4865   2.430   1.895  11.191 -0.8712 -3.2071 -1.4691
  760MOL0     H 4866   2.446   2.258  11.114  1.0247  0.7949  1.1555
  760MOL0     H 4867   2.546   2.458  11.106 -2.2212 -2.7309  3.8125
  760MOL0     H 4868   2.520   2.844  10.851  0.2938 -1.6339 -1.5794
  760MOL0     H 4869   2.380   2.769  10.784 -3.8261  0.9525  1.0321
  760MOL0     H 4870   2.265   2.818  11.023 -0.6712  3.3203 -1.1953
  760MOL0     H 4871   2.309   2.947  10.919 -1.2658  1.7036  0.8548
  760MOL0     H 4872   2.495   2.852  11.139 -2.5387 -1.6624 -0.6868
  760MOL0     H 4873   2.500   3.014  11.041 -2.5157  1.4056 -1.8788
  760MOL0     H 4874   2.258   2.957  11.196  0.5600 -0.1821  0.3487
  760MOL0     H 4875   2.342   3.110  11.160 -3.4709 -0.4303 -0.9569
  760MOL0     H 4876   2.529   2.942  11.514  1.2905  1.1878  0.6524
  760MOL0     H 4877   2.249   2.611  10.826  0.9389  0.1345  0.2981
  760MOL0     H 4878   1.995   2.372  10.960 -1.2846  1.4662  0.0502
  760MOL0     H 4879   2.031   2.502  10.838 -0.5648 -0.5810 -0.0254
  760MOL0     H 4880   2.056   2.344  10.793 -1.7863 -0.7012  0.8358
  761MOL0     O 4881   9.873  11.406   0.148 -0.6303  0.4328  0.2270
  761MOL0     C 4882   9.786  11.488   0.127 -0.2090  0.9681  0.5461
  761MOL0     O 4883   9.805  11.616   0.100 -0.0790 -0.0886 -0.1341
  761MOL0     C 4884   9.933  11.651   0.079 -0.3150  0.5606  0.7094
  761MOL0     C 4885  10.023  11.684   0.180 -0.2467 -0.0131 -1.1642
  761MOL0     C 4886  10.155  11.715   0.147 -0.4293 -0.2637  0.1537
  761MOL0     C 4887  10.191  11.725   0.016  0.1495  0.4883 -0.0621
  761MOL0     O 4888  10.325  11.759   0.001 -0.4502  0.2642 -0.4853
  761MOL0     C 4889  10.381  11.776  -0.127 -0.0826 -0.1801 -0.5131
  761MOL0     C 4890  10.527  11.820  -0.092 -0.0060  0.6153  1.1228
  761MOL0     C 4891  10.624  11.780  -0.201 -0.1662 -0.4102  0.1072
  761MOL0     C 4892  10.768  11.846  -0.172  0.0262  0.4379 -0.0252
  761MOL0     C 4893  10.805  11.984  -0.226  0.2770  0.6656  0.8001
  761MOL0     C 4894  10.798  11.988  -0.384  0.2903 -0.5399 -0.3627
  761MOL0     C 4895  10.880  12.102  -0.419  0.0380 -0.1149 -0.0498
  761MOL0     C 4896  10.832  12.170  -0.550 -0.5172  0.2605 -0.0141
  761MOL0     N 4897  10.864  12.086  -0.665  0.8820 -0.6634  0.6908
  761MOL0     C 4898  10.984  12.032  -0.696 -0.1149  0.3632 -0.5605
  761MOL0     C 4899  10.970  11.971  -0.817  0.0688 -0.0074 -1.0140
  761MOL0     C 4900  11.092  11.916  -0.891  0.2285 -0.0614 -0.1881
  761MOL0     C 4901  11.165  12.010  -0.983  0.4159  0.5086  0.9597
  761MOL0     C 4902  11.297  12.058  -0.909  0.4047  0.1358 -0.0808
  761MOL0     C 4903  11.382  12.175  -0.960 -0.4431 -0.6510  0.6834
  761MOL0     O 4904  11.449  12.145  -1.082  0.1085  0.4201 -0.0699
  761MOL0     C 4905  11.534  12.242  -1.135  0.3531 -0.7079  0.0736
  761MOL0     C 4906  11.606  12.220  -1.255  0.5043 -0.0542  0.8858
  761MOL0     C 4907  11.678  12.318  -1.327  1.0429 -0.6897 -0.9737
  761MOL0     C 4908  11.747  12.273  -1.452 -0.3987  0.7544  0.3362
  761MOL0     C 4909  11.684  12.451  -1.269 -0.6580  1.5572  0.5362
  761MOL0     C 4910  11.768  12.562  -1.329 -0.6363  0.1531  0.0496
  761MOL0     O 4911  11.790  12.668  -1.239  0.3996 -0.2849 -0.0421
  761MOL0     C 4912  11.887  12.758  -1.274  0.5979 -0.2957  0.0665
  761MOL0     C 4913  11.848  12.885  -1.308 -0.1104  0.4093  0.0806
  761MOL0     C 4914  11.938  12.986  -1.349  0.4426 -1.0302 -0.0246
  761MOL0     C 4915  12.074  12.962  -1.381 -0.5829 -0.8710  0.0628
  761MOL0     O 4916  12.151  13.068  -1.435  0.3731 -0.7707  0.0629
  761MOL0     C 4917  12.292  13.035  -1.457 -0.3675  0.0536  0.5916
  761MOL0     C 4918  12.370  13.173  -1.446 -0.4986  0.1883  1.5044
  761MOL0     C 4919  12.524  13.162  -1.437  0.5524 -0.0622 -0.3945
  761MOL0     C 4920  12.595  13.295  -1.443  0.2535  0.1977  0.0174
  761MOL0     C 4921  12.749  13.283  -1.428  1.0151 -0.0618 -0.0417
  761MOL0     C 4922  12.808  13.420  -1.471 -0.1596  0.3016  0.1796
  761MOL0     C 4923  12.960  13.426  -1.452  0.0927  0.4443 -0.3828
  761MOL0     C 4924  13.017  13.570  -1.442 -1.6375  0.0578  0.1187
  761MOL0    Cl 4925  13.200  13.546  -1.401  0.7075  0.2061  0.2655
  761MOL0     C 4926  12.111  12.827  -1.356  0.1611  0.6052 -0.2129
  761MOL0     C 4927  12.023  12.728  -1.284  0.4443 -0.9137  0.1012
  761MOL0     O 4928  11.824  12.552  -1.445  0.1455  0.6769  0.1958
  761MOL0     C 4929  11.629  12.472  -1.149  0.9861 -0.3117  1.2405
  761MOL0     C 4930  11.548  12.374  -1.084 -0.0151 -0.4312  0.7752
  761MOL0     N 4931  10.836  11.985  -0.850  1.3904  0.0913  0.9139
  761MOL0     N 4932  10.774  12.060  -0.762 -1.1240 -0.4485  0.0529
  761MOL0     C 4933  10.095  11.699  -0.084  0.0479  0.2171 -0.3542
  761MOL0     C 4934   9.974  11.647  -0.051 -0.0059 -1.1182 -0.9364
  761MOL0     C 4935   9.655  11.436   0.097  0.1224 -0.6305 -0.7005
  761MOL0     C 4936   9.594  11.497  -0.016  0.1134  0.8011 -0.2219
  761MOL0     C 4937   9.476  11.442  -0.064 -0.2036 -0.7972  0.0930
  761MOL0     C 4938   9.413  11.345   0.014  0.0132 -0.2659 -0.7954
  761MOL0     O 4939   9.294  11.308  -0.026 -0.0823 -0.1670  0.2663
  761MOL0     C 4940   9.204  11.392   0.037  1.3163 -0.1237  0.0820
  761MOL0     C 4941   9.068  11.354  -0.017 -0.0798  0.3756  0.6466
  761MOL0     C 4942   9.064  11.394  -0.170  0.3763 -0.0715  0.1076
  761MOL0     C 4943   8.929  11.367  -0.243 -0.4906  0.4777 -0.1145
  761MOL0     C 4944   8.817  11.451  -0.197 -1.3399  0.0472  0.0356
  761MOL0     C 4945   8.741  11.540  -0.167  0.2119  0.5203  0.2466
  761MOL0     C 4946   9.461  11.293   0.140 -0.2916  0.8204 -0.7207
  761MOL0     C 4947   9.586  11.347   0.182  0.9119 -0.0436  0.0548
  761MOL0     C 4948   9.623  11.327   0.319 -0.4521 -0.5342  0.8585
  761MOL0     H 4949   9.998  11.674   0.285  0.8470  1.4759 -0.7448
  761MOL0     H 4950  10.227  11.735   0.226 -0.9053  0.1632  0.4827
  761MOL0     H 4951  10.333  11.855  -0.187 -0.8364 -1.5086 -1.7318
  761MOL0     H 4952  10.377  11.687  -0.190 -1.6384 -1.6311  1.5124
  761MOL0     H 4953  10.525  11.929  -0.079  2.1766  0.8093  0.2507
  761MOL0     H 4954  10.566  11.788   0.004 -2.5502 -1.2657  1.6389
  761MOL0     H 4955  10.637  11.672  -0.198  0.3702 -0.3632 -0.3209
  761MOL0     H 4956  10.576  11.816  -0.292  0.9574  1.6168  0.2389
  761MOL0     H 4957  10.790  11.849  -0.065 -1.4905 -0.4265  0.3467
  761MOL0     H 4958  10.831  11.768  -0.216 -0.7037  0.6870 -1.5700
  761MOL0     H 4959  10.908  11.991  -0.191  0.6307  0.9690 -0.2593
  761MOL0     H 4960  10.744  12.061  -0.177  1.9006  1.4891  1.6142
  761MOL0     H 4961  10.847  11.896  -0.418  1.0154 -0.2927  0.0015
  761MOL0     H 4962  10.697  11.989  -0.426  0.0345 -0.2256  0.2494
  761MOL0     H 4963  10.987  12.080  -0.421  0.3759  0.9633  2.3674
  761MOL0     H 4964  10.862  12.179  -0.343 -2.4839 -0.2780 -0.3815
  761MOL0     H 4965  10.731  12.210  -0.565 -0.7517  0.2228  1.3186
  761MOL0     H 4966  10.891  12.261  -0.559  1.1740 -0.7788  0.1251
  761MOL0     H 4967  11.067  12.035  -0.626 -0.5737  1.4734 -0.0345
  761MOL0     H 4968  11.070  11.819  -0.936  0.2684  0.5146 -1.5151
  761MOL0     H 4969  11.162  11.892  -0.811 -0.0660  2.3249  0.8768
  761MOL0     H 4970  11.188  11.961  -1.078 -1.3460 -0.6311  1.0869
  761MOL0     H 4971  11.100  12.097  -0.999 -1.3916 -1.1272 -1.1778
  761MOL0     H 4972  11.257  12.086  -0.811 -0.4699  0.8581 -0.6233
  761MOL0     H 4973  11.361  11.970  -0.898  3.3172  2.1183 -0.0092
  761MOL0     H 4974  11.310  12.256  -0.972  0.8273  0.3372 -0.4811
  761MOL0     H 4975  11.449  12.209  -0.881 -1.9085  1.9113  0.9503
  761MOL0     H 4976  11.598  12.121  -1.300  0.1046  1.9371 -4.0260
  761MOL0     H 4977  11.722  12.169  -1.473  1.0566  0.6922 -1.3490
  761MOL0     H 4978  11.854  12.296  -1.446 -0.0114 -0.8408 -0.0445
  761MOL0     H 4979  11.719  12.321  -1.546 -1.7636 -0.9951 -0.1995
  761MOL0     H 4980  11.744  12.915  -1.307  0.0315  1.1882 -2.1379
  761MOL0     H 4981  11.898  13.083  -1.377  1.5924  0.4040  2.8611
  761MOL0     H 4982  12.331  12.979  -1.372  1.2898  3.0736  2.0032
  761MOL0     H 4983  12.294  12.984  -1.553  1.4817 -1.0413  1.1619
  761MOL0     H 4984  12.352  13.222  -1.541 -0.3226  0.5735  1.6682
  761MOL0     H 4985  12.336  13.229  -1.358  0.1352 -0.0266  1.8982
  761MOL0     H 4986  12.559  13.101  -1.521 -2.3070 -2.1897 -0.2138
  761MOL0     H 4987  12.553  13.112  -1.344 -1.7431 -2.1581 -0.6907
  761MOL0     H 4988  12.547  13.370  -1.380  0.6111  1.2291 -0.9130
  761MOL0     H 4989  12.557  13.334  -1.537 -2.5899 -0.0102  0.9657
  761MOL0     H 4990  12.781  13.257  -1.327 -2.3093 -2.1218  0.6327
  761MOL0     H 4991  12.781  13.202  -1.494  0.0256 -0.1738 -0.4101
  761MOL0     H 4992  12.755  13.493  -1.410 -0.4085  1.7893 -1.7105
  761MOL0     H 4993  12.781  13.451  -1.573  0.5646 -4.0236 -1.5386
  761MOL0     H 4994  13.004  13.373  -1.537 -1.3837 -1.2431 -0.1484
  761MOL0     H 4995  12.989  13.369  -1.363 -2.3199 -0.5092 -0.1421
  761MOL0     H 4996  12.968  13.617  -1.357  0.6211  2.8198  0.0282
  761MOL0     H 4997  12.998  13.622  -1.536 -0.2227 -4.0506 -2.7535
  761MOL0     H 4998  12.211  12.789  -1.378  0.1525 -1.8009  3.0618
  761MOL0     H 4999  12.067  12.633  -1.256  2.3635 -0.4661 -1.1837
  761MOL0     H 5000  11.622  12.573  -1.111 -0.3589  0.3014 -0.5226
  761MOL0     H 5001  11.499  12.392  -0.988  1.4564  1.5686  1.2202
  761MOL0     H 5002  10.120  11.708  -0.190 -1.4825  2.8678 -0.5825
  761MOL0     H 5003   9.895  11.621  -0.122 -0.0605  0.1649 -1.3887
  761MOL0     H 5004   9.635  11.579  -0.074  0.6452  1.9620  1.7293
  761MOL0     H 5005   9.426  11.495  -0.144 -0.4882  1.5372  1.7090
  761MOL0     H 5006   9.200  11.376   0.145 -1.7212 -2.1767 -0.2125
  761MOL0     H 5007   9.210  11.499   0.015 -0.3942 -0.2791 -1.3804
  761MOL0     H 5008   8.988  11.402   0.039  2.6211  2.0088  3.4317
  761MOL0     H 5009   9.059  11.246   0.003 -2.4319  0.9567  3.2977
  761MOL0     H 5010   9.090  11.499  -0.186  0.8194 -0.1149  0.5079
  761MOL0     H 5011   9.134  11.324  -0.215  0.5403 -0.8847  1.5565
  761MOL0     H 5012   8.908  11.260  -0.245  2.7440 -0.2852  1.1780
  761MOL0     H 5013   8.948  11.392  -0.348 -0.4888 -1.8948 -0.7351
  761MOL0     H 5014   8.699  11.633  -0.133  1.7567  1.4896 -0.3532
  761MOL0     H 5015   9.409  11.218   0.199 -2.9705  0.4328 -3.3450
  761MOL0     H 5016   9.539  11.341   0.389 -0.9956 -2.2534  0.5908
  761MOL0     H 5017   9.662  11.225   0.326  1.3670  0.0888  0.2435
  761MOL0     H 5018   9.707  11.394   0.337 -1.7567  2.0315 -1.8017
  762MOL0     O 5019   5.062   5.347   7.274 -0.0930 -0.0830  0.1228
  762MOL0     C 5020   4.973   5.285   7.223  0.2664 -0.4117  1.2775
  762MOL0     O 5021   4.855   5.246   7.287 -0.3497 -0.1279 -0.3095
  762MOL0     C 5022   4.841   5.311   7.417  0.0180  0.4750  0.0326
  762MOL0     C 5023   4.842   5.451   7.430  0.0675  0.1110  0.1222
  762MOL0     C 5024   4.809   5.511   7.554  0.0518 -0.2831 -0.1493
  762MOL0     C 5025   4.786   5.433   7.673 -1.4935 -0.4509  1.3995
  762MOL0     O 5026   4.760   5.499   7.788  0.6139  0.4365 -0.1397
  762MOL0     C 5027   4.800   5.440   7.913  0.3860  0.5682 -1.2424
  762MOL0     C 5028   4.775   5.519   8.037  0.3649 -0.3543 -0.2473
  762MOL0     C 5029   4.870   5.639   8.064 -1.5076  0.0428 -0.6649
  762MOL0     C 5030   4.856   5.694   8.207 -0.3271  0.3005  0.0973
  762MOL0     C 5031   4.893   5.847   8.195 -0.4802  0.2723 -0.6192
  762MOL0     C 5032   4.867   5.940   8.314 -0.7134 -0.3420  0.4952
  762MOL0     C 5033   4.861   6.090   8.273 -0.0219  0.2979 -0.6755
  762MOL0     C 5034   4.975   6.126   8.180  0.5036 -0.4063 -0.5315
  762MOL0     N 5035   4.959   6.260   8.151 -0.6245  0.3006 -0.8057
  762MOL0     C 5036   4.995   6.357   8.231 -1.0347 -0.3951 -0.6066
  762MOL0     C 5037   5.008   6.473   8.153  0.3479  0.7126  0.6252
  762MOL0     C 5038   5.070   6.591   8.200  0.2813  0.2548 -0.1134
  762MOL0     C 5039   5.224   6.578   8.232 -0.0150  0.8878  0.3305
  762MOL0     C 5040   5.310   6.575   8.106  0.2890  0.4380  1.0059
  762MOL0     C 5041   5.266   6.488   7.984 -0.3409 -0.4465  0.1148
  762MOL0     O 5042   5.379   6.485   7.885  0.2526  0.3517 -0.1270
  762MOL0     C 5043   5.412   6.597   7.810  0.2079  0.8518  0.1703
  762MOL0     C 5044   5.503   6.573   7.701  0.9975  0.8487  0.4477
  762MOL0     C 5045   5.533   6.681   7.619 -0.0838 -0.6679  0.9078
  762MOL0     C 5046   5.628   6.644   7.502  0.0378  0.3057  0.8393
  762MOL0     C 5047   5.447   6.799   7.631  0.1710 -0.9028  0.5000
  762MOL0     C 5048   5.476   6.917   7.540  0.4854 -0.7811 -0.5555
  762MOL0     O 5049   5.610   6.924   7.500 -0.1528 -0.0377 -0.5846
  762MOL0     C 5050   5.643   7.024   7.412 -0.1216 -1.1075 -0.7375
  762MOL0     C 5051   5.725   7.134   7.452 -0.0450  0.0085 -0.1443
  762MOL0     C 5052   5.754   7.238   7.362 -0.1355  1.1586  0.6415
  762MOL0     C 5053   5.699   7.242   7.234 -0.7218 -0.6877  0.0229
  762MOL0     O 5054   5.719   7.341   7.147 -0.0848 -0.2730 -0.6431
  762MOL0     C 5055   5.859   7.379   7.122  0.3408  0.2888 -0.0569
  762MOL0     C 5056   5.862   7.497   7.029 -0.3665  0.0735 -1.0492
  762MOL0     C 5057   5.777   7.612   7.087 -0.5793 -0.1873 -0.1432
  762MOL0     C 5058   5.803   7.741   7.016  0.1085 -0.5845 -0.5360
  762MOL0     C 5059   5.717   7.846   7.091  0.3163 -0.5805 -1.0607
  762MOL0     C 5060   5.727   7.972   7.006  0.3595  0.3499  0.1028
  762MOL0     C 5061   5.641   8.088   7.063 -0.4757 -0.3304  0.8037
  762MOL0     C 5062   5.692   8.224   7.015 -0.6674 -0.6247 -0.2287
  762MOL0    Cl 5063   5.628   8.341   7.120 -0.4548 -0.3169  0.3837
  762MOL0     C 5064   5.608   7.140   7.202  0.4496 -1.1014 -0.1523
  762MOL0     C 5065   5.578   7.030   7.283 -0.1573  0.1188 -0.1363
  762MOL0     O 5066   5.394   7.011   7.524  0.0146  0.0258  1.1796
  762MOL0     C 5067   5.345   6.807   7.717  0.3579 -0.6263  1.3697
  762MOL0     C 5068   5.327   6.707   7.810 -1.2104  0.6191 -0.8668
  762MOL0     N 5069   4.968   6.437   8.037  0.0641 -0.3577  0.3869
  762MOL0     N 5070   4.940   6.306   8.033 -1.0003 -0.0297 -0.3948
  762MOL0     C 5071   4.793   5.293   7.657 -0.5975  0.0594 -0.3591
  762MOL0     C 5072   4.817   5.238   7.530  0.6573 -0.1351  0.2023
  762MOL0     C 5073   5.003   5.231   7.083  0.8113  0.2622  0.2253
  762MOL0     C 5074   4.944   5.107   7.045  1.1221 -1.3939 -0.5916
  762MOL0     C 5075   4.975   5.052   6.920  0.5543  0.3417 -0.5393
  762MOL0     C 5076   5.061   5.106   6.831  0.7375 -1.4614 -1.0818
  762MOL0     O 5077   5.108   5.033   6.730  0.5414  0.6071  0.9789
  762MOL0     C 5078   5.093   5.090   6.600 -0.3656 -0.3520  0.1105
  762MOL0     C 5079   5.230   5.113   6.528  0.5577 -0.0218  0.1751
  762MOL0     C 5080   5.289   4.978   6.492 -0.6258 -0.6385  0.4788
  762MOL0     C 5081   5.443   4.985   6.475 -0.2426  0.3841 -0.6676
  762MOL0     C 5082   5.460   5.055   6.345 -0.9263 -0.8748  0.7823
  762MOL0     C 5083   5.462   5.119   6.237 -0.6948  0.3647 -0.7140
  762MOL0     C 5084   5.117   5.229   6.859  0.3538 -0.8831  0.4024
  762MOL0     C 5085   5.077   5.301   6.978 -0.7279  0.5346 -0.6238
  762MOL0     C 5086   5.137   5.433   6.990  0.5508  0.5762  0.6013
  762MOL0     H 5087   4.858   5.518   7.346  3.8136  0.2261  0.7540
  762MOL0     H 5088   4.796   5.618   7.545 -0.3920 -0.1070  2.1036
  762MOL0     H 5089   4.899   5.394   7.919  0.6794  1.1041 -1.8268
  762MOL0     H 5090   4.733   5.355   7.931  0.1226  0.9517 -0.3744
  762MOL0     H 5091   4.674   5.557   8.025 -0.3328 -0.9388  2.8372
  762MOL0     H 5092   4.766   5.459   8.128 -0.7435  0.2630  0.0727
  762MOL0     H 5093   4.974   5.605   8.055 -1.6513 -0.4185 -0.5908
  762MOL0     H 5094   4.862   5.714   7.985  2.0971 -0.9462 -2.2047
  762MOL0     H 5095   4.754   5.676   8.242  0.7810  0.0251  3.5568
  762MOL0     H 5096   4.929   5.643   8.270  0.3590  1.8325  0.5945
  762MOL0     H 5097   4.835   5.892   8.113 -0.5944 -0.1650 -0.7801
  762MOL0     H 5098   5.001   5.861   8.186 -0.4703  1.9349  1.2581
  762MOL0     H 5099   4.775   5.922   8.370  0.4445  0.6325  2.8393
  762MOL0     H 5100   4.946   5.926   8.388  0.8992  0.6300 -0.9820
  762MOL0     H 5101   4.868   6.149   8.366 -1.1703  2.5122 -1.9185
  762MOL0     H 5102   4.761   6.109   8.233 -0.8578  4.9556  2.6878
  762MOL0     H 5103   5.072   6.112   8.229 -0.2370  3.6122  2.6150
  762MOL0     H 5104   4.959   6.073   8.086  0.0155 -1.0247 -0.1151
  762MOL0     H 5105   5.023   6.340   8.335  0.3235  1.1424 -0.6969
  762MOL0     H 5106   5.027   6.611   8.298 -0.8068 -0.3273 -0.4543
  762MOL0     H 5107   5.035   6.668   8.130 -3.0770 -1.0214 -0.0515
  762MOL0     H 5108   5.251   6.661   8.298 -0.7522 -1.2230  3.4799
  762MOL0     H 5109   5.245   6.487   8.289 -0.4213  0.5573 -0.0411
  762MOL0     H 5110   5.314   6.679   8.072 -1.0897  0.2872  0.3157
  762MOL0     H 5111   5.411   6.546   8.138 -0.7539 -0.7187  3.5141
  762MOL0     H 5112   5.244   6.386   8.016 -1.5847 -0.1568  0.2336
  762MOL0     H 5113   5.175   6.538   7.949 -0.9548  0.4782  2.8274
  762MOL0     H 5114   5.555   6.478   7.701  1.3279  1.0242 -0.4289
  762MOL0     H 5115   5.724   6.695   7.488 -0.2584  0.7275  0.3243
  762MOL0     H 5116   5.571   6.666   7.411 -1.1916  0.7377  1.6765
  762MOL0     H 5117   5.651   6.537   7.502 -3.0120 -0.4554 -0.1629
  762MOL0     H 5118   5.769   7.120   7.550 -0.5877 -1.8778 -0.1360
  762MOL0     H 5119   5.818   7.315   7.405  2.0274 -0.1782 -0.0665
  762MOL0     H 5120   5.914   7.400   7.214 -0.2269 -3.5178  1.3223
  762MOL0     H 5121   5.912   7.301   7.067  0.2499 -0.9659  1.5581
  762MOL0     H 5122   5.967   7.521   7.011  0.1496 -2.3537 -1.6190
  762MOL0     H 5123   5.822   7.470   6.931  1.8657 -0.1237 -1.9792
  762MOL0     H 5124   5.804   7.628   7.192 -4.1973  2.0005  0.6448
  762MOL0     H 5125   5.670   7.591   7.099 -0.5578 -1.4157 -1.8246
  762MOL0     H 5126   5.760   7.733   6.916 -0.6248 -2.3828 -0.1261
  762MOL0     H 5127   5.909   7.767   7.009  1.4740 -3.5244  4.3843
  762MOL0     H 5128   5.613   7.824   7.115  0.2743  0.4116 -0.2681
  762MOL0     H 5129   5.754   7.851   7.194 -0.6114  2.2262 -0.7894
  762MOL0     H 5130   5.691   7.947   6.906  5.5109 -1.2568 -1.6948
  762MOL0     H 5131   5.834   7.991   6.993  0.5871 -1.1629 -0.4955
  762MOL0     H 5132   5.652   8.075   7.171  1.6909  3.2853  1.1915
  762MOL0     H 5133   5.536   8.084   7.032 -0.2974 -4.1509  0.2518
  762MOL0     H 5134   5.656   8.240   6.913  3.1846 -1.4773 -1.9070
  762MOL0     H 5135   5.801   8.221   7.009 -0.6951 -0.7530 -0.6996
  762MOL0     H 5136   5.554   7.159   7.111  2.9202  0.5677 -1.3832
  762MOL0     H 5137   5.514   6.948   7.253  4.0739 -3.6129 -0.0025
  762MOL0     H 5138   5.276   6.891   7.704  0.6333 -0.8012 -2.5290
  762MOL0     H 5139   5.239   6.724   7.871 -0.1710  2.3673  0.2541
  762MOL0     H 5140   4.777   5.213   7.729  0.3864 -2.8636 -3.1420
  762MOL0     H 5141   4.809   5.130   7.516  0.1589 -0.1241  0.3717
  762MOL0     H 5142   4.882   5.057   7.118 -1.2493  1.1410 -0.6983
  762MOL0     H 5143   4.939   4.951   6.905 -1.3071  0.9144 -0.1972
  762MOL0     H 5144   5.030   5.038   6.527  0.9591  2.8627 -3.6158
  762MOL0     H 5145   5.060   5.193   6.613 -3.0224 -0.9825 -1.0250
  762MOL0     H 5146   5.295   5.173   6.592 -0.5400  1.4989 -0.0902
  762MOL0     H 5147   5.222   5.172   6.436  0.1360  2.4130  1.6874
  762MOL0     H 5148   5.266   4.909   6.574  1.0007  0.8355  2.2907
  762MOL0     H 5149   5.248   4.941   6.398  0.1147  0.6483 -0.3834
  762MOL0     H 5150   5.476   4.881   6.472  0.5068  0.4197  2.5140
  762MOL0     H 5151   5.492   5.031   6.561  0.9044 -0.8534 -0.6304
  762MOL0     H 5152   5.448   5.167   6.143  1.6817  2.4914 -0.0995
  762MOL0     H 5153   5.179   5.288   6.792 -0.0654 -0.5501  0.2999
  762MOL0     H 5154   5.105   5.485   6.899 -1.0312 -1.2883  0.0146
  762MOL0     H 5155   5.103   5.478   7.083  1.0513 -1.0437  1.6174
  762MOL0     H 5156   5.246   5.437   6.984  0.4929  1.3566 -3.6421
  763MOL0     O 5157  11.491   6.101   5.979  0.3219 -0.0490 -0.0377
  763MOL0     C 5158  11.455   6.016   6.055 -0.4010  0.1706  0.9129
  763MOL0     O 5159  11.517   5.894   6.072  1.0373 -0.0894  0.3492
  763MOL0     C 5160  11.650   5.869   6.043  0.4550 -0.2780  0.6875
  763MOL0     C 5161  11.679   5.735   6.018 -0.2393 -1.2729  0.1305
  763MOL0     C 5162  11.810   5.693   5.983  0.2677  0.0820  0.3058
  763MOL0     C 5163  11.910   5.789   5.989 -1.2985  0.2512 -1.1178
  763MOL0     O 5164  12.039   5.745   5.978 -0.8225  0.1889 -0.5390
  763MOL0     C 5165  12.082   5.679   6.106 -0.5774  0.1973  1.0195
  763MOL0     C 5166  12.219   5.727   6.161  0.5084  0.0551  0.0958
  763MOL0     C 5167  12.343   5.658   6.114  0.6371  0.0302  0.1516
  763MOL0     C 5168  12.452   5.738   6.186 -1.0459 -0.0845  0.5127
  763MOL0     C 5169  12.601   5.692   6.159  1.1749 -0.1546  0.3731
  763MOL0     C 5170  12.642   5.581   6.248  0.8626 -0.5865 -0.1415
  763MOL0     C 5171  12.773   5.520   6.186 -0.1284 -0.4876 -0.0412
  763MOL0     C 5172  12.753   5.430   6.064  0.6037  0.2254  0.5329
  763MOL0     N 5173  12.882   5.387   6.025 -0.1274  0.1940  0.3631
  763MOL0     C 5174  12.958   5.460   5.937 -1.2787 -0.0492 -0.2618
  763MOL0     C 5175  13.082   5.410   5.953 -0.2598 -0.2752 -0.2036
  763MOL0     C 5176  13.197   5.452   5.875 -0.2750  0.0675 -0.0183
  763MOL0     C 5177  13.306   5.538   5.951 -0.2460  0.0698  0.2875
  763MOL0     C 5178  13.298   5.680   5.897 -0.3787 -0.9481 -0.0273
  763MOL0     C 5179  13.202   5.769   5.975  0.5555  0.1994  0.4941
  763MOL0     O 5180  13.085   5.787   5.892  0.7945  0.2590 -1.0727
  763MOL0     C 5181  12.977   5.873   5.932  0.3723  0.6462  0.0644
  763MOL0     C 5182  12.860   5.887   5.856  0.2641  0.6068 -0.0283
  763MOL0     C 5183  12.750   5.954   5.903  0.3650 -0.0984 -0.1555
  763MOL0     C 5184  12.634   5.960   5.796  0.0278  0.0453  0.6801
  763MOL0     C 5185  12.748   6.025   6.028 -0.0845  0.5973 -0.2000
  763MOL0     C 5186  12.631   6.095   6.082  0.6230  0.1661 -0.0525
  763MOL0     O 5187  12.640   6.135   6.215 -0.0486  0.0669  1.2709
  763MOL0     C 5188  12.542   6.210   6.270  0.5807  0.5866  1.1101
  763MOL0     C 5189  12.410   6.182   6.263 -0.2351 -0.3197  0.7997
  763MOL0     C 5190  12.308   6.255   6.330  0.2995 -0.2005  1.1034
  763MOL0     C 5191  12.341   6.378   6.391  0.0937  0.1913 -0.0293
  763MOL0     O 5192  12.244   6.434   6.469  0.0630 -0.1257 -0.3590
  763MOL0     C 5193  12.267   6.557   6.531  0.1625  1.0110 -0.1482
  763MOL0     C 5194  12.159   6.585   6.641  0.4323  1.1574  0.4768
  763MOL0     C 5195  12.160   6.743   6.665 -0.2609 -0.7589 -0.2469
  763MOL0     C 5196  12.048   6.815   6.582 -0.3450  0.6620 -0.2393
  763MOL0     C 5197  12.041   6.974   6.598 -0.1093 -0.1665  0.1357
  763MOL0     C 5198  11.912   7.049   6.572 -0.4231 -0.8979  0.5663
  763MOL0     C 5199  11.943   7.196   6.608  0.6648 -0.5893 -0.4507
  763MOL0     C 5200  11.827   7.295   6.571  0.2732  0.3969 -0.9151
  763MOL0    Cl 5201  11.846   7.352   6.401  0.2156  0.0187 -0.0208
  763MOL0     C 5202  12.478   6.418   6.383 -0.3086  0.4093 -0.1228
  763MOL0     C 5203  12.579   6.334   6.324  0.6322  0.0183 -0.0758
  763MOL0     O 5204  12.535   6.106   6.012 -0.0688  0.6895 -0.0162
  763MOL0     C 5205  12.865   6.010   6.100 -0.1882 -0.2212 -0.1816
  763MOL0     C 5206  12.978   5.942   6.051 -0.4014 -0.1284  0.3809
  763MOL0     N 5207  13.082   5.323   6.051 -0.0932 -0.3963  0.1077
  763MOL0     N 5208  12.962   5.296   6.092 -0.0437 -0.8114 -0.1800
  763MOL0     C 5209  11.883   5.927   6.011 -0.0216 -0.0951  0.3579
  763MOL0     C 5210  11.755   5.967   6.035 -0.4739  0.5224 -0.2289
  763MOL0     C 5211  11.316   6.015   6.109 -0.2858  0.0825  0.2017
  763MOL0     C 5212  11.269   5.898   6.172 -0.7821 -0.2587 -0.3447
  763MOL0     C 5213  11.141   5.879   6.194  0.7668  0.2034  0.2486
  763MOL0     C 5214  11.043   5.970   6.161  0.1141  0.0722 -0.9564
  763MOL0     O 5215  10.914   5.924   6.187  0.4790  0.0201  0.2261
  763MOL0     C 5216  10.807   5.995   6.115  0.0765  0.5977 -0.5375
  763MOL0     C 5217  10.715   5.893   6.040  0.6037 -0.5666 -0.0264
  763MOL0     C 5218  10.587   5.963   5.980 -0.1200  0.7031  0.6704
  763MOL0     C 5219  10.494   5.875   5.902 -0.9782 -0.0125  0.0476
  763MOL0     C 5220  10.562   5.782   5.808 -0.1371 -0.1968  0.2035
  763MOL0     C 5221  10.622   5.711   5.736 -0.3666  0.7728  0.4528
  763MOL0     C 5222  11.082   6.098   6.123 -0.8523  0.4774  0.0453
  763MOL0     C 5223  11.223   6.118   6.092 -0.5311  0.7143  0.2396
  763MOL0     C 5224  11.259   6.258   6.049  0.0796  0.7087  0.4073
  763MOL0     H 5225  11.599   5.663   6.002 -1.6238  0.3604 -0.5310
  763MOL0     H 5226  11.823   5.590   5.954  3.5454  1.2937 -3.4625
  763MOL0     H 5227  12.081   5.570   6.094  1.2130  0.1398  1.0584
  763MOL0     H 5228  11.996   5.694   6.172 -0.3961 -1.8964  1.8180
  763MOL0     H 5229  12.219   5.834   6.137 -0.8208 -0.0254 -0.3766
  763MOL0     H 5230  12.209   5.722   6.269 -4.6501  0.7149 -0.0900
  763MOL0     H 5231  12.352   5.552   6.140 -0.8603 -0.0989  0.2733
  763MOL0     H 5232  12.370   5.658   6.008 -1.2788 -2.5860 -0.4306
  763MOL0     H 5233  12.444   5.836   6.138 -0.7341 -1.6985 -3.1771
  763MOL0     H 5234  12.429   5.735   6.293  1.3314  1.1305  1.1197
  763MOL0     H 5235  12.666   5.779   6.175  2.1193 -0.6265 -0.7416
  763MOL0     H 5236  12.611   5.660   6.055 -0.3302 -1.5216  0.6077
  763MOL0     H 5237  12.652   5.619   6.350  1.0342  2.9109 -1.3572
  763MOL0     H 5238  12.568   5.500   6.252  0.8272 -0.5697 -0.3984
  763MOL0     H 5239  12.808   5.449   6.262 -1.6584 -1.4481 -0.1922
  763MOL0     H 5240  12.851   5.596   6.174  2.8430 -2.9388  1.9802
  763MOL0     H 5241  12.686   5.352   6.103 -1.0104  2.8749  3.5827
  763MOL0     H 5242  12.716   5.470   5.968 -3.6120 -0.3679  1.7116
  763MOL0     H 5243  12.926   5.537   5.868 -0.0699 -2.9626 -4.4974
  763MOL0     H 5244  13.166   5.517   5.793  1.4274  3.2013  1.6052
  763MOL0     H 5245  13.250   5.363   5.842  1.6771  0.0383  2.7732
  763MOL0     H 5246  13.303   5.521   6.059  3.1753 -2.5805  0.1552
  763MOL0     H 5247  13.406   5.503   5.925  0.7138  2.7672  0.0370
  763MOL0     H 5248  13.398   5.724   5.909 -1.2417  0.6246  2.1225
  763MOL0     H 5249  13.297   5.690   5.788  1.2516 -0.5130 -0.0288
  763MOL0     H 5250  13.173   5.725   6.070  3.1533  2.5563  2.5617
  763MOL0     H 5251  13.257   5.861   5.996 -0.6144  1.8825 -2.9961
  763MOL0     H 5252  12.857   5.842   5.757  1.4280  1.5851 -0.5290
  763MOL0     H 5253  12.654   5.898   5.708 -1.7518 -1.0285  0.9772
  763MOL0     H 5254  12.628   6.063   5.759 -2.7132 -0.8904 -1.8553
  763MOL0     H 5255  12.539   5.930   5.840 -0.7276  3.2572  1.5495
  763MOL0     H 5256  12.375   6.092   6.214  0.2377 -0.9145  1.5533
  763MOL0     H 5257  12.207   6.216   6.323 -1.1722  3.2589  0.9097
  763MOL0     H 5258  12.367   6.561   6.574 -0.0083  1.2363  0.2301
  763MOL0     H 5259  12.270   6.639   6.459 -0.4337 -0.0743 -1.4671
  763MOL0     H 5260  12.056   6.553   6.624  0.5604  2.1407 -2.5912
  763MOL0     H 5261  12.204   6.543   6.733  2.0762  3.2628  0.7194
  763MOL0     H 5262  12.262   6.777   6.644  0.1875 -2.5887 -1.3071
  763MOL0     H 5263  12.140   6.769   6.769  0.1391  1.6124 -0.6928
  763MOL0     H 5264  11.960   6.770   6.627  0.5839  1.4400  2.5610
  763MOL0     H 5265  12.061   6.804   6.474  0.3369 -0.2860 -0.0692
  763MOL0     H 5266  12.068   6.992   6.702  0.6796 -0.8457  0.0589
  763MOL0     H 5267  12.123   7.019   6.540 -1.5497  3.0701  0.3763
  763MOL0     H 5268  11.827   7.022   6.636 -1.1369 -1.0397 -0.4244
  763MOL0     H 5269  11.889   7.051   6.465  1.5810  5.0554 -0.1337
  763MOL0     H 5270  12.034   7.231   6.559  0.6685  1.5791  1.0003
  763MOL0     H 5271  11.955   7.196   6.717  0.4910 -1.2246 -0.4264
  763MOL0     H 5272  11.854   7.383   6.630  0.4345 -1.2314  1.5789
  763MOL0     H 5273  11.729   7.262   6.606  0.2924  0.7355 -0.5389
  763MOL0     H 5274  12.503   6.519   6.411  0.6323 -0.4474  2.4069
  763MOL0     H 5275  12.685   6.355   6.318  0.8384 -1.4518 -3.0762
  763MOL0     H 5276  12.875   6.065   6.193  0.0661  0.0374 -0.3613
  763MOL0     H 5277  13.067   5.948   6.113  1.1181  2.2175 -1.8425
  763MOL0     H 5278  11.967   5.995   6.013  1.6352 -2.0699  1.1110
  763MOL0     H 5279  11.723   6.070   6.050  0.4531  0.6973  0.6011
  763MOL0     H 5280  11.338   5.817   6.189 -0.4502 -0.0130 -0.5092
  763MOL0     H 5281  11.092   5.788   6.228  1.5044  0.3743  1.8642
  763MOL0     H 5282  10.751   6.063   6.179  0.3298  1.2483 -1.0088
  763MOL0     H 5283  10.841   6.061   6.035 -1.5993  0.6192 -1.2561
  763MOL0     H 5284  10.681   5.818   6.112  0.5333 -0.8456 -0.3471
  763MOL0     H 5285  10.773   5.832   5.970 -1.3744 -1.5257 -0.9229
  763MOL0     H 5286  10.525   5.980   6.068 -2.2751 -1.7571 -0.2670
  763MOL0     H 5287  10.618   6.058   5.936 -1.6332 -0.7715 -4.2023
  763MOL0     H 5288  10.437   5.935   5.831  0.6482 -0.2414 -1.5165
  763MOL0     H 5289  10.447   5.816   5.982  1.1861 -0.7782  0.8336
  763MOL0     H 5290  10.690   5.648   5.683 -0.3832  1.5449 -0.5016
  763MOL0     H 5291  11.006   6.174   6.108  0.6164  1.5246 -2.7400
  763MOL0     H 5292  11.173   6.324   6.064 -0.1887  0.2703  0.8180
  763MOL0     H 5293  11.338   6.304   6.110  1.5633  0.5843 -1.3147
  763MOL0     H 5294  11.273   6.263   5.941 -4.2199  1.2732 -0.2703
  764MOL0     O 5295   0.960   6.479   5.304  0.7859 -0.4787  0.2593
  764MOL0     C 5296   0.907   6.418   5.203  1.0076 -0.2031 -0.4942
  764MOL0     O 5297   0.773   6.407   5.181  0.6062 -0.0721 -0.2426
  764MOL0     C 5298   0.684   6.485   5.262 -0.2769  1.4138 -0.3631
  764MOL0     C 5299   0.611   6.435   5.365  0.3772 -0.6380 -0.0056
  764MOL0     C 5300   0.509   6.502   5.438 -0.6512 -0.4219  0.1056
  764MOL0     C 5301   0.486   6.637   5.408  0.0001  0.1686  0.2902
  764MOL0     O 5302   0.371   6.690   5.471 -0.9112 -0.2285  0.2776
  764MOL0     C 5303   0.355   6.839   5.478  0.2472  0.2128 -0.6533
  764MOL0     C 5304   0.276   6.874   5.603 -0.4305  0.0994  0.3164
  764MOL0     C 5305   0.128   6.838   5.594  0.7394  0.3787  0.3128
  764MOL0     C 5306   0.078   6.804   5.734  0.3633  0.2730 -0.4109
  764MOL0     C 5307  -0.068   6.765   5.731 -0.2430  0.2900  0.3753
  764MOL0     C 5308  -0.106   6.710   5.870  0.8432 -0.6054 -0.0728
  764MOL0     C 5309  -0.227   6.604   5.882  0.1202 -0.2322 -0.1899
  764MOL0     C 5310  -0.359   6.657   5.836 -0.1241  0.0855  0.1172
  764MOL0     N 5311  -0.459   6.552   5.842 -0.2468  0.0519  0.6322
  764MOL0     C 5312  -0.484   6.465   5.743  0.2407 -0.0084  0.3295
  764MOL0     C 5313  -0.581   6.385   5.783  0.4911  0.8962 -0.1525
  764MOL0     C 5314  -0.615   6.259   5.721 -0.3908 -0.5198  0.3684
  764MOL0     C 5315  -0.767   6.239   5.739  0.3434  0.2464 -0.1912
  764MOL0     C 5316  -0.809   6.107   5.666 -0.4668 -0.5469 -0.3154
  764MOL0     C 5317  -0.953   6.094   5.643  0.5349 -0.7579 -0.9194
  764MOL0     O 5318  -1.008   6.208   5.588  0.5550 -0.5739  0.2448
  764MOL0     C 5319  -1.139   6.204   5.554 -0.0318 -0.9798  0.8300
  764MOL0     C 5320  -1.170   6.299   5.445 -0.4683  0.4229 -0.1309
  764MOL0     C 5321  -1.299   6.304   5.392 -0.1568  0.0878 -0.1852
  764MOL0     C 5322  -1.315   6.415   5.283 -0.6381 -0.2511  0.0587
  764MOL0     C 5323  -1.400   6.220   5.435 -0.1894  0.2879  0.2294
  764MOL0     C 5324  -1.542   6.221   5.396 -0.1510 -0.0228  0.5425
  764MOL0     O 5325  -1.626   6.204   5.503  0.6742  0.2118 -0.0876
  764MOL0     C 5326  -1.756   6.166   5.484  0.0627  0.7432  0.0241
  764MOL0     C 5327  -1.860   6.262   5.484  0.3165 -0.3834 -0.6499
  764MOL0     C 5328  -1.991   6.214   5.459 -0.1254 -0.2510 -0.5119
  764MOL0     C 5329  -2.013   6.073   5.433  0.3547 -0.4870  0.2873
  764MOL0     O 5330  -2.137   6.028   5.410  0.7955  0.5726 -0.2695
  764MOL0     C 5331  -2.252   6.116   5.429  0.4661  0.6090  1.4118
  764MOL0     C 5332  -2.369   6.022   5.390 -0.2726 -0.6675  0.6256
  764MOL0     C 5333  -2.384   6.014   5.235 -0.2290 -0.5930  0.2664
  764MOL0     C 5334  -2.515   5.954   5.193  1.0601  0.8563  0.1998
  764MOL0     C 5335  -2.509   5.858   5.071 -0.8706  1.0551  0.0780
  764MOL0     C 5336  -2.613   5.740   5.080 -0.2881 -0.8032  0.1541
  764MOL0     C 5337  -2.631   5.652   4.953  0.6455 -0.1208 -0.4639
  764MOL0     C 5338  -2.508   5.577   4.892 -0.9111 -0.8852  0.6674
  764MOL0    Cl 5339  -2.433   5.694   4.778  0.1479 -0.1019  0.1849
  764MOL0     C 5340  -1.907   5.988   5.435  0.5732 -0.1097 -0.8970
  764MOL0     C 5341  -1.779   6.030   5.469  0.4048 -0.7620  0.0543
  764MOL0     O 5342  -1.575   6.221   5.282 -0.8384  0.4770 -0.4539
  764MOL0     C 5343  -1.357   6.118   5.535 -0.0301  0.1289 -0.3869
  764MOL0     C 5344  -1.237   6.110   5.599  0.3766 -0.1335  0.2025
  764MOL0     N 5345  -0.590   6.402   5.924  0.2536 -0.5359 -0.2215
  764MOL0     N 5346  -0.527   6.508   5.954  0.4800 -0.1347  0.5724
  764MOL0     C 5347   0.570   6.704   5.311 -0.4700  0.3850 -0.3103
  764MOL0     C 5348   0.670   6.624   5.243 -0.7826  0.3041  0.5403
  764MOL0     C 5349   0.996   6.349   5.096 -0.7043  0.6193 -0.3447
  764MOL0     C 5350   0.931   6.288   4.990 -0.6987 -0.5303  0.7502
  764MOL0     C 5351   1.006   6.239   4.881 -0.5096  0.2819 -1.3617
  764MOL0     C 5352   1.147   6.241   4.882 -1.0340  0.1724 -0.0931
  764MOL0     O 5353   1.227   6.175   4.789 -0.2724  0.6061 -0.2161
  764MOL0     C 5354   1.166   6.108   4.673 -0.0759 -0.3134 -0.6824
  764MOL0     C 5355   1.142   6.199   4.547 -0.5946 -0.3956 -0.2661
  764MOL0     C 5356   1.276   6.265   4.510  0.4383 -0.3535 -0.2127
  764MOL0     C 5357   1.271   6.369   4.397 -0.4525  0.0434 -0.6828
  764MOL0     C 5358   1.401   6.378   4.318 -0.0471  0.3310 -0.6246
  764MOL0     C 5359   1.513   6.381   4.264  0.4336  0.3661 -0.3230
  764MOL0     C 5360   1.213   6.301   4.989 -0.3403 -0.4010  1.3295
  764MOL0     C 5361   1.140   6.358   5.090 -0.7003 -0.5554 -0.0736
  764MOL0     C 5362   1.221   6.435   5.188 -0.2507 -0.2606  0.6974
  764MOL0     H 5363   0.621   6.337   5.411  0.1331 -0.6354  0.0501
  764MOL0     H 5364   0.445   6.443   5.503  0.9222 -1.0936  1.0920
  764MOL0     H 5365   0.304   6.875   5.389  1.5806 -0.1238 -1.5928
  764MOL0     H 5366   0.441   6.907   5.482  1.3244 -0.8506 -3.3962
  764MOL0     H 5367   0.326   6.835   5.692  0.1641 -0.7495 -0.3766
  764MOL0     H 5368   0.285   6.983   5.597 -1.3609  0.1014 -2.0091
  764MOL0     H 5369   0.084   6.931   5.557  2.9992  1.6114  0.5401
  764MOL0     H 5370   0.121   6.750   5.530  1.2213  1.3497 -1.1328
  764MOL0     H 5371   0.141   6.725   5.776  1.5652  1.2622 -0.2881
  764MOL0     H 5372   0.081   6.883   5.810 -1.5294 -1.7560  1.9342
  764MOL0     H 5373  -0.079   6.681   5.661  1.0381 -0.6376  1.2387
  764MOL0     H 5374  -0.135   6.846   5.700  1.4517  1.8823  0.6751
  764MOL0     H 5375  -0.018   6.658   5.910  0.3593 -0.7181  0.8773
  764MOL0     H 5376  -0.118   6.797   5.935  0.0373 -0.7828  0.0234
  764MOL0     H 5377  -0.228   6.565   5.984  0.5425  0.9549  0.2782
  764MOL0     H 5378  -0.212   6.511   5.825  1.9982  0.1011 -0.2799
  764MOL0     H 5379  -0.383   6.740   5.905  2.2113 -0.5836  1.8604
  764MOL0     H 5380  -0.343   6.697   5.736  1.6055 -1.4249 -0.2589
  764MOL0     H 5381  -0.455   6.483   5.639 -1.9183  0.0701 -0.2976
  764MOL0     H 5382  -0.555   6.180   5.767 -2.5508 -1.9358  0.9274
  764MOL0     H 5383  -0.599   6.276   5.615  2.3904 -0.7001  0.6886
  764MOL0     H 5384  -0.797   6.236   5.844 -2.1776  0.1007 -0.8424
  764MOL0     H 5385  -0.809   6.327   5.689  1.0787  1.5537  1.4032
  764MOL0     H 5386  -0.758   6.097   5.569  0.6532  1.0126  0.0661
  764MOL0     H 5387  -0.769   6.029   5.731 -3.1050 -1.1387  0.7065
  764MOL0     H 5388  -0.950   6.005   5.580 -1.3416 -0.0126 -2.1305
  764MOL0     H 5389  -1.007   6.074   5.737  1.6301 -0.7403 -0.2630
  764MOL0     H 5390  -1.092   6.363   5.404  0.6315 -0.3932  0.6059
  764MOL0     H 5391  -1.420   6.445   5.291 -0.7709  0.7272 -3.4950
  764MOL0     H 5392  -1.314   6.367   5.185  0.1048 -1.7532  0.7581
  764MOL0     H 5393  -1.255   6.506   5.289 -3.0459  1.5614 -1.6991
  764MOL0     H 5394  -1.836   6.367   5.499 -3.3341  0.2718  2.0824
  764MOL0     H 5395  -2.068   6.286   5.432 -0.8133 -0.4376  0.8628
  764MOL0     H 5396  -2.271   6.147   5.532  0.4613  0.6756  1.3907
  764MOL0     H 5397  -2.242   6.206   5.367  3.9050 -0.7003 -0.2010
  764MOL0     H 5398  -2.341   5.925   5.434  0.8319 -1.0068 -0.7282
  764MOL0     H 5399  -2.466   6.051   5.432 -0.7143 -0.4350 -0.5184
  764MOL0     H 5400  -2.299   5.973   5.180  0.7650  1.3143  0.2949
  764MOL0     H 5401  -2.387   6.116   5.196  0.9274 -1.4192 -2.2508
  764MOL0     H 5402  -2.592   6.031   5.178 -1.5163 -1.7728 -1.1890
  764MOL0     H 5403  -2.553   5.900   5.280  0.3422 -2.0154 -1.7464
  764MOL0     H 5404  -2.516   5.912   4.976  1.8413  0.8750 -0.3055
  764MOL0     H 5405  -2.409   5.816   5.061 -0.8186  0.8553  1.3076
  764MOL0     H 5406  -2.709   5.790   5.099  1.8348  4.5818 -1.5097
  764MOL0     H 5407  -2.581   5.671   5.159  3.6926  0.9522  0.2972
  764MOL0     H 5408  -2.685   5.702   4.872  0.1086  3.2411  1.7752
  764MOL0     H 5409  -2.701   5.572   4.981  2.8055 -1.2056  2.2737
  764MOL0     H 5410  -2.546   5.489   4.839 -0.6483 -0.0994 -0.8779
  764MOL0     H 5411  -2.446   5.549   4.977 -1.7804 -1.6585  1.0717
  764MOL0     H 5412  -1.923   5.881   5.441  1.0620 -0.1381  4.1920
  764MOL0     H 5413  -1.694   5.963   5.472  0.6010 -0.4908  2.6490
  764MOL0     H 5414  -1.431   6.043   5.560  1.8258 -1.9861 -0.8676
  764MOL0     H 5415  -1.228   6.041   5.682  0.5246 -3.2285 -2.1656
  764MOL0     H 5416   0.551   6.808   5.283 -0.2481  0.8479  1.1503
  764MOL0     H 5417   0.736   6.683   5.181  2.2575 -0.8952  2.4036
  764MOL0     H 5418   0.823   6.277   4.987 -0.9080  1.2208  0.6282
  764MOL0     H 5419   0.959   6.202   4.791  0.7378 -2.2593 -1.0604
  764MOL0     H 5420   1.225   6.021   4.643  2.2047  0.5828  0.9884
  764MOL0     H 5421   1.068   6.068   4.702  0.3811 -0.5333  0.6562
  764MOL0     H 5422   1.063   6.267   4.579  1.4630  2.7683 -1.3783
  764MOL0     H 5423   1.115   6.140   4.459  2.7069  1.3210 -2.6312
  764MOL0     H 5424   1.321   6.314   4.597  1.6637 -1.0482 -0.4260
  764MOL0     H 5425   1.348   6.187   4.482 -0.9076 -1.6981 -0.0305
  764MOL0     H 5426   1.243   6.470   4.428 -0.7544  0.9882 -3.6331
  764MOL0     H 5427   1.190   6.338   4.329  1.7974 -2.8040 -2.2754
  764MOL0     H 5428   1.609   6.378   4.218  1.1821  1.1577  1.1360
  764MOL0     H 5429   1.321   6.311   4.983 -0.4715  2.4880  2.3175
  764MOL0     H 5430   1.196   6.541   5.190  0.9786  0.0391  2.3001
  764MOL0     H 5431   1.214   6.392   5.288 -0.7298 -1.3966  0.2005
  764MOL0     H 5432   1.326   6.424   5.159 -0.3489 -2.1029  0.9212
  765MOL0     O 5433   3.178   7.123   3.309  0.0247 -1.2820  0.5126
  765MOL0     C 5434   3.176   7.001   3.294  0.3682  0.4304 -0.0936
  765MOL0     O 5435   3.272   6.920   3.243 -0.0869  0.2974  0.5777
  765MOL0     C 5436   3.384   6.977   3.177 -0.0298  0.4607 -0.3352
  765MOL0     C 5437   3.405   7.098   3.109 -0.1829 -0.5715 -0.4088
  765MOL0     C 5438   3.530   7.122   3.052  0.3217 -0.2108  0.4342
  765MOL0     C 5439   3.635   7.028   3.061 -0.1422 -1.0383  0.1773
  765MOL0     O 5440   3.760   7.064   3.018 -0.0158 -0.1506 -0.3669
  765MOL0     C 5441   3.824   7.180   3.076 -0.4123  0.5654  0.1213
  765MOL0     C 5442   3.880   7.141   3.214 -0.0645 -0.4593 -0.3828
  765MOL0     C 5443   3.781   7.158   3.329  0.2606 -0.2848  0.6231
  765MOL0     C 5444   3.849   7.130   3.462 -0.5577  0.3314 -0.1101
  765MOL0     C 5445   3.752   7.147   3.579  0.1437  0.0783 -0.8306
  765MOL0     C 5446   3.616   7.076   3.556  0.6814 -0.1402 -0.1169
  765MOL0     C 5447   3.612   6.927   3.532  0.1561 -0.0264  0.1645
  765MOL0     C 5448   3.678   6.849   3.645  1.1229  0.9989  0.5118
  765MOL0     N 5449   3.679   6.700   3.605 -0.3650  0.0125 -0.1574
  765MOL0     C 5450   3.793   6.629   3.588 -0.7491 -0.4010  1.2745
  765MOL0     C 5451   3.759   6.505   3.552 -0.6100 -0.2764 -0.5061
  765MOL0     C 5452   3.856   6.399   3.514 -0.2506  0.6972  0.0820
  765MOL0     C 5453   3.936   6.448   3.389  0.3937  0.3985 -0.3974
  765MOL0     C 5454   4.025   6.335   3.323  1.1174 -0.1088  0.0448
  765MOL0     C 5455   4.160   6.337   3.390 -0.1307 -0.1924  0.1641
  765MOL0     O 5456   4.231   6.461   3.373 -0.8873 -0.3611  0.2059
  765MOL0     C 5457   4.346   6.472   3.444  0.2389 -0.7433  0.6629
  765MOL0     C 5458   4.396   6.393   3.551  0.9198 -0.1071 -0.9274
  765MOL0     C 5459   4.518   6.425   3.620  0.0252 -0.5535  0.0394
  765MOL0     C 5460   4.566   6.344   3.736  0.1400 -0.4511  0.2106
  765MOL0     C 5461   4.594   6.544   3.577 -0.3662 -0.4957 -0.1608
  765MOL0     C 5462   4.713   6.609   3.648  0.2246 -0.0367  0.7983
  765MOL0     O 5463   4.821   6.646   3.568 -0.5778 -0.2188 -0.2383
  765MOL0     C 5464   4.959   6.644   3.604  0.1709 -0.2218  0.2118
  765MOL0     C 5465   5.006   6.601   3.723  0.0821  0.8171 -0.0261
  765MOL0     C 5466   5.146   6.601   3.750 -0.0587  0.0776 -0.0040
  765MOL0     C 5467   5.235   6.657   3.656 -1.2426  0.6298 -0.6438
  765MOL0     O 5468   5.373   6.676   3.693  0.1769  0.9250  0.3361
  765MOL0     C 5469   5.452   6.558   3.708  0.0812  0.1248  0.2272
  765MOL0     C 5470   5.610   6.589   3.720  0.8285  0.3061  0.4639
  765MOL0     C 5471   5.630   6.715   3.812  0.6863  0.4324  0.7263
  765MOL0     C 5472   5.764   6.716   3.891  0.6016 -0.7886 -0.4537
  765MOL0     C 5473   5.751   6.837   3.988 -0.2303 -1.5581  0.6922
  765MOL0     C 5474   5.775   6.979   3.934 -0.7217 -0.9523  0.1001
  765MOL0     C 5475   5.709   7.082   4.021 -0.0480  0.9163  0.4201
  765MOL0     C 5476   5.561   7.096   4.013  0.5181  0.2583  0.1065
  765MOL0    Cl 5477   5.508   7.097   3.835 -0.2580 -0.0534  0.0051
  765MOL0     C 5478   5.181   6.708   3.544 -0.3442 -1.5424 -1.1976
  765MOL0     C 5479   5.046   6.702   3.514 -0.1102 -1.3515  0.1184
  765MOL0     O 5480   4.702   6.629   3.770  0.2685  0.3545 -0.0469
  765MOL0     C 5481   4.540   6.622   3.469 -0.1720  0.8693  0.3663
  765MOL0     C 5482   4.420   6.580   3.409 -0.0227  0.7749 -0.3353
  765MOL0     N 5483   3.617   6.490   3.585 -0.7911  0.4695  0.2848
  765MOL0     N 5484   3.573   6.613   3.597  0.2184  0.4060 -0.0831
  765MOL0     C 5485   3.616   6.912   3.125  0.1543  1.0115  0.1821
  765MOL0     C 5486   3.492   6.888   3.184 -0.0038 -0.2923 -0.0109
  765MOL0     C 5487   3.055   6.922   3.328 -0.5554 -0.3840  0.2395
  765MOL0     C 5488   3.053   6.789   3.265 -0.3191  0.4776 -0.9978
  765MOL0     C 5489   2.946   6.712   3.293  0.5796  0.2166  0.3206
  765MOL0     C 5490   2.841   6.747   3.385  0.4359  0.2284  0.8326
  765MOL0     O 5491   2.724   6.684   3.414  0.4653  0.7409  0.3045
  765MOL0     C 5492   2.660   6.617   3.305  0.1299  0.3885  0.5331
  765MOL0     C 5493   2.528   6.580   3.357  0.4816 -0.3321  0.1120
  765MOL0     C 5494   2.457   6.487   3.255 -0.1624  0.2815 -0.6356
  765MOL0     C 5495   2.339   6.411   3.329 -0.2891  0.2020  0.0050
  765MOL0     C 5496   2.238   6.366   3.238  0.5331 -0.2216 -0.5647
  765MOL0     C 5497   2.148   6.333   3.172  0.3608 -0.2067  0.1207
  765MOL0     C 5498   2.863   6.864   3.449  0.5753  1.4554  0.1206
  765MOL0     C 5499   2.954   6.953   3.421 -0.5996 -0.3763  0.2874
  765MOL0     C 5500   2.959   7.088   3.498  0.4661  0.0043  0.4954
  765MOL0     H 5501   3.331   7.177   3.104  1.8971  1.6023  0.8407
  765MOL0     H 5502   3.537   7.212   2.991  0.2855 -0.3894  0.1620
  765MOL0     H 5503   3.753   7.263   3.081  0.6547  1.7951 -2.7790
  765MOL0     H 5504   3.911   7.201   3.013  1.4893 -2.9505  1.2692
  765MOL0     H 5505   3.918   7.039   3.203  2.3956  0.3963 -0.3758
  765MOL0     H 5506   3.967   7.202   3.241 -0.7875 -0.1073  1.3064
  765MOL0     H 5507   3.756   7.264   3.330 -0.3171 -0.3327  4.1536
  765MOL0     H 5508   3.686   7.111   3.302 -0.4524  0.6624  1.4059
  765MOL0     H 5509   3.892   7.030   3.462  3.9347  2.0284  1.1460
  765MOL0     H 5510   3.940   7.190   3.470  0.5392 -1.2190 -0.5735
  765MOL0     H 5511   3.721   7.251   3.595 -2.3722 -0.5239 -1.2992
  765MOL0     H 5512   3.807   7.104   3.663  0.2069  0.0695 -0.8768
  765MOL0     H 5513   3.558   7.092   3.647  0.6176 -0.3583 -0.1191
  765MOL0     H 5514   3.559   7.127   3.478  0.6274  0.9240  0.5938
  765MOL0     H 5515   3.658   6.898   3.437  0.5412 -3.0339  1.1523
  765MOL0     H 5516   3.507   6.902   3.515  0.3805  0.7402 -3.0837
  765MOL0     H 5517   3.777   6.886   3.670  1.0381  2.2062 -0.7888
  765MOL0     H 5518   3.613   6.853   3.733 -2.4272 -3.6743 -1.4859
  765MOL0     H 5519   3.893   6.670   3.575 -1.8195  2.1951  0.7712
  765MOL0     H 5520   3.814   6.301   3.488  3.0718 -0.7649 -0.2638
  765MOL0     H 5521   3.914   6.382   3.605  0.6333  0.1047 -0.5765
  765MOL0     H 5522   3.855   6.477   3.322 -0.2605  2.4036  1.1668
  765MOL0     H 5523   3.993   6.538   3.412  0.1144  0.2620  0.9463
  765MOL0     H 5524   3.980   6.236   3.315  1.0865 -0.0855 -0.0674
  765MOL0     H 5525   4.052   6.360   3.220  0.5751  0.7862  0.1059
  765MOL0     H 5526   4.138   6.323   3.496 -2.1987  2.5912  0.2197
  765MOL0     H 5527   4.227   6.262   3.346 -1.6854 -0.8314 -1.2424
  765MOL0     H 5528   4.338   6.312   3.596  0.2709  0.7555 -0.1773
  765MOL0     H 5529   4.503   6.374   3.821 -2.0498 -1.0037 -1.1167
  765MOL0     H 5530   4.672   6.367   3.749  1.2631 -3.1171 -2.8951
  765MOL0     H 5531   4.542   6.237   3.725 -2.0826  0.1585 -1.8812
  765MOL0     H 5532   4.938   6.565   3.800  0.4542  0.1801  0.0145
  765MOL0     H 5533   5.189   6.575   3.847  1.5695  1.6201 -0.2700
  765MOL0     H 5534   5.406   6.504   3.791 -1.0004  0.5390 -0.0793
  765MOL0     H 5535   5.439   6.491   3.623  2.7777 -0.7735  0.4508
  765MOL0     H 5536   5.655   6.497   3.758  0.8739 -0.3959 -1.2005
  765MOL0     H 5537   5.651   6.599   3.619 -0.9559 -0.0051 -0.3160
  765MOL0     H 5538   5.545   6.725   3.881 -0.0915  2.2961 -0.4463
  765MOL0     H 5539   5.618   6.809   3.759 -3.6937 -0.4821 -0.2789
  765MOL0     H 5540   5.856   6.722   3.832  3.0252 -0.7757  3.0240
  765MOL0     H 5541   5.764   6.628   3.957  0.6023  0.0054  0.6274
  765MOL0     H 5542   5.655   6.842   4.040  1.4459 -0.2889  3.9388
  765MOL0     H 5543   5.821   6.833   4.073  3.0237  1.3358 -1.5544
  765MOL0     H 5544   5.763   6.983   3.826  3.6695 -0.0084 -0.5467
  765MOL0     H 5545   5.882   6.996   3.946 -1.0063  0.6847  0.6562
  765MOL0     H 5546   5.758   7.173   3.984  0.2337  0.5555 -0.1026
  765MOL0     H 5547   5.750   7.067   4.121  0.6168 -1.7122 -0.1970
  765MOL0     H 5548   5.525   7.178   4.076  0.8977  0.5331 -0.0304
  765MOL0     H 5549   5.515   7.015   4.070 -0.2228  2.3446  2.6562
  765MOL0     H 5550   5.250   6.764   3.482 -1.0603  1.5402  0.5859
  765MOL0     H 5551   5.009   6.757   3.428 -4.2439  1.2732  3.2012
  765MOL0     H 5552   4.601   6.703   3.430  2.9223 -1.9672 -1.2268
  765MOL0     H 5553   4.379   6.630   3.322  0.5458  0.8059 -0.5920
  765MOL0     H 5554   3.690   6.833   3.117 -0.1793  0.7450 -0.3745
  765MOL0     H 5555   3.490   6.797   3.244  1.9193 -1.3567 -1.4740
  765MOL0     H 5556   3.122   6.749   3.191  0.1161  0.0204 -0.3626
  765MOL0     H 5557   2.959   6.610   3.257  0.0460 -0.5757  2.2145
  765MOL0     H 5558   2.636   6.682   3.220 -0.1473 -0.8711 -0.3756
  765MOL0     H 5559   2.725   6.533   3.279 -0.6513 -0.5162  1.4066
  765MOL0     H 5560   2.455   6.661   3.363 -0.0708 -0.7753 -0.3924
  765MOL0     H 5561   2.540   6.528   3.453  3.4607 -3.4829 -1.7214
  765MOL0     H 5562   2.406   6.551   3.182 -3.2818 -0.2421  0.9168
  765MOL0     H 5563   2.527   6.413   3.215 -0.3967 -0.4886  0.3400
  765MOL0     H 5564   2.283   6.470   3.402 -1.3042 -0.7310  0.0142
  765MOL0     H 5565   2.379   6.324   3.383  1.0206  1.5368  1.2705
  765MOL0     H 5566   2.062   6.307   3.114  0.5286  1.8879 -1.1797
  765MOL0     H 5567   2.780   6.888   3.515 -0.6044 -1.2469 -0.2554
  765MOL0     H 5568   3.044   7.072   3.565  0.4993  1.0008  0.7027
  765MOL0     H 5569   2.963   7.174   3.431  1.3111 -0.9845 -0.7782
  765MOL0     H 5570   2.882   7.095   3.575 -1.4545  0.8242 -1.4093
  766MOL0     O 5571  10.964   5.546   0.759 -0.9439  0.4217 -0.1899
  766MOL0     C 5572  11.079   5.577   0.737 -0.5338  0.1742 -0.5138
  766MOL0     O 5573  11.113   5.688   0.683 -0.9391 -0.3068  0.3371
  766MOL0     C 5574  11.013   5.770   0.627 -0.3647  1.0038 -0.0422
  766MOL0     C 5575  10.921   5.834   0.710 -0.0282 -0.1125  0.4596
  766MOL0     C 5576  10.816   5.906   0.652 -0.7209 -1.0934  0.0901
  766MOL0     C 5577  10.812   5.917   0.513  0.5308  0.7748 -0.3088
  766MOL0     O 5578  10.692   5.973   0.465  0.1991  0.2381  0.6065
  766MOL0     C 5579  10.668   5.984   0.331 -0.2691  0.1346  0.7324
  766MOL0     C 5580  10.599   5.854   0.300  0.7308 -0.2678  0.3368
  766MOL0     C 5581  10.464   5.827   0.373  0.9081 -0.2377  0.5210
  766MOL0     C 5582  10.346   5.903   0.325  0.1547  0.0089 -0.0388
  766MOL0     C 5583  10.303   5.865   0.181  0.1229  0.0252 -0.4322
  766MOL0     C 5584  10.185   5.950   0.130 -1.1622  0.2661 -0.7661
  766MOL0     C 5585  10.098   5.892   0.019  0.2765 -0.0163  0.6493
  766MOL0     C 5586   9.952   5.856   0.064 -0.9255 -0.8432  1.0072
  766MOL0     N 5587   9.931   5.714   0.049 -0.2345  0.9800 -0.2050
  766MOL0     C 5588   9.974   5.614   0.140  0.0370  0.5392 -1.3989
  766MOL0     C 5589   9.946   5.490   0.082  0.3413 -0.0265  0.3169
  766MOL0     C 5590   9.962   5.353   0.140  0.2555  0.3045  0.9266
  766MOL0     C 5591   9.822   5.322   0.188  0.5120  0.2842  0.1874
  766MOL0     C 5592   9.788   5.393   0.320  0.3775 -0.6381  0.0708
  766MOL0     C 5593   9.683   5.313   0.407  0.1913 -0.3318  0.2889
  766MOL0     O 5594   9.739   5.186   0.430 -0.3575  0.1393  0.9439
  766MOL0     C 5595   9.656   5.098   0.505  0.2051 -1.1869  0.8806
  766MOL0     C 5596   9.545   5.134   0.591  0.1450  0.6271  0.2007
  766MOL0     C 5597   9.466   5.034   0.657  0.2893  1.0225 -0.3597
  766MOL0     C 5598   9.344   5.079   0.726 -0.7269  0.2722 -0.1845
  766MOL0     C 5599   9.520   4.896   0.654 -0.1773 -0.4570  0.5976
  766MOL0     C 5600   9.453   4.773   0.709 -0.0190 -0.8209 -0.1162
  766MOL0     O 5601   9.500   4.653   0.671 -0.2769  0.6309  0.5451
  766MOL0     C 5602   9.429   4.540   0.678  0.0398  0.1557  0.9224
  766MOL0     C 5603   9.385   4.479   0.792  0.0778  0.7421  0.7678
  766MOL0     C 5604   9.307   4.362   0.795  0.0021  0.6679 -0.2598
  766MOL0     C 5605   9.309   4.284   0.679  0.6843  0.1174  1.1974
  766MOL0     O 5606   9.239   4.163   0.664 -1.2145  0.9636 -0.0543
  766MOL0     C 5607   9.261   4.068   0.763  0.4428 -0.1869  0.2402
  766MOL0     C 5608   9.187   3.947   0.736  0.3536 -0.4383  1.0778
  766MOL0     C 5609   9.040   3.969   0.766 -0.9605 -0.4057 -0.2592
  766MOL0     C 5610   8.959   3.842   0.750  0.5078  0.2844  0.1803
  766MOL0     C 5611   8.809   3.868   0.737 -0.4998 -0.1677  0.3516
  766MOL0     C 5612   8.742   3.743   0.675  0.5282  0.8913 -1.0214
  766MOL0     C 5613   8.589   3.772   0.618  0.3981  0.1789 -0.5546
  766MOL0     C 5614   8.491   3.646   0.624  0.3758 -0.2844  0.1249
  766MOL0    Cl 5615   8.554   3.509   0.525  0.3324  0.2028  0.0928
  766MOL0     C 5616   9.359   4.337   0.559  0.1885 -0.6030 -0.3570
  766MOL0     C 5617   9.401   4.471   0.552 -0.9610  0.0277  0.8982
  766MOL0     O 5618   9.362   4.781   0.797 -0.0413 -0.5651  0.3522
  766MOL0     C 5619   9.623   4.868   0.568  0.4409 -0.1409  0.8757
  766MOL0     C 5620   9.688   4.970   0.494  0.6650  0.0126 -0.0949
  766MOL0     N 5621   9.888   5.517  -0.040 -0.0122 -0.0906  0.2196
  766MOL0     N 5622   9.881   5.650  -0.054  0.5625  0.1453  0.4658
  766MOL0     C 5623  10.904   5.849   0.438 -0.3232 -1.0551 -0.8512
  766MOL0     C 5624  11.011   5.785   0.491  0.2841  1.0794 -0.7771
  766MOL0     C 5625  11.204   5.496   0.773 -0.2814  0.7906  0.4286
  766MOL0     C 5626  11.329   5.541   0.719 -0.5860 -1.5717 -0.5687
  766MOL0     C 5627  11.437   5.455   0.738 -0.9336  0.5012 -1.0009
  766MOL0     C 5628  11.436   5.341   0.822  0.4477 -0.2737  1.9898
  766MOL0     O 5629  11.550   5.276   0.837 -0.1929  0.2633  0.0985
  766MOL0     C 5630  11.564   5.222   0.965 -0.3026 -0.0340 -0.2807
  766MOL0     C 5631  11.714   5.177   0.995  0.6339  0.0383 -0.3623
  766MOL0     C 5632  11.810   5.288   0.986  0.0207 -1.3335  0.2495
  766MOL0     C 5633  11.830   5.354   0.843 -0.5495  0.2390  0.0677
  766MOL0     C 5634  11.960   5.431   0.825  0.1692  0.3734  0.0026
  766MOL0     C 5635  12.057   5.497   0.837 -0.1836  0.2458  0.9196
  766MOL0     C 5636  11.308   5.309   0.873 -0.3740  0.4102 -0.7901
  766MOL0     C 5637  11.194   5.376   0.852  0.2427 -0.0523 -0.7115
  766MOL0     C 5638  11.075   5.322   0.929  0.3405  0.3079  0.1557
  766MOL0     H 5639  10.924   5.813   0.816  0.3446  0.1675  0.5066
  766MOL0     H 5640  10.742   5.943   0.723  2.6922  0.0238  3.3915
  766MOL0     H 5641  10.760   5.991   0.273 -0.9683 -0.7189 -0.5339
  766MOL0     H 5642  10.606   6.071   0.307  1.0614  0.3029 -2.7063
  766MOL0     H 5643  10.594   5.848   0.191  1.6154  0.8955  0.2130
  766MOL0     H 5644  10.666   5.772   0.327 -0.6554 -2.0738 -1.4240
  766MOL0     H 5645  10.435   5.722   0.362  1.2031 -0.0621 -3.3611
  766MOL0     H 5646  10.473   5.849   0.480 -0.3954  1.1723  0.3775
  766MOL0     H 5647  10.273   5.888   0.405 -0.0162 -2.9314 -0.6290
  766MOL0     H 5648  10.365   6.009   0.312 -1.5094  0.8317  3.0579
  766MOL0     H 5649  10.265   5.762   0.182 -4.0944  1.3807  0.5596
  766MOL0     H 5650  10.384   5.884   0.110  0.5157 -0.3216 -0.0854
  766MOL0     H 5651  10.116   5.977   0.211  1.7565  0.7782  1.7579
  766MOL0     H 5652  10.218   6.047   0.093 -2.8537  1.4562  0.6288
  766MOL0     H 5653  10.136   5.820  -0.055  0.9179  2.0032 -1.0751
  766MOL0     H 5654  10.082   5.980  -0.043  1.0314  0.6261  1.3539
  766MOL0     H 5655   9.915   5.913   0.150 -1.1732  0.9501 -0.2384
  766MOL0     H 5656   9.883   5.900  -0.008 -0.4287  1.5476  1.9057
  766MOL0     H 5657  10.018   5.638   0.236  0.3476  0.6341 -1.5639
  766MOL0     H 5658  10.039   5.341   0.217 -1.3031 -0.8870  2.4008
  766MOL0     H 5659   9.979   5.278   0.062 -2.0584 -1.3038  1.8299
  766MOL0     H 5660   9.753   5.365   0.115 -0.8301  0.2317  1.3738
  766MOL0     H 5661   9.797   5.215   0.195  1.8440 -0.1983 -1.7033
  766MOL0     H 5662   9.881   5.401   0.376  2.0538 -1.6605 -2.4234
  766MOL0     H 5663   9.752   5.495   0.300 -2.2142 -1.4031  0.3962
  766MOL0     H 5664   9.652   5.369   0.496 -1.1072  0.9044 -0.8790
  766MOL0     H 5665   9.593   5.297   0.346 -0.3373 -0.2048  1.0125
  766MOL0     H 5666   9.500   5.232   0.602 -0.1206  0.6630 -1.0585
  766MOL0     H 5667   9.339   5.188   0.732 -0.2606  0.3604 -1.1940
  766MOL0     H 5668   9.352   5.043   0.829  0.7342  1.0285 -0.0048
  766MOL0     H 5669   9.262   5.038   0.668  0.3521 -1.7094 -0.3888
  766MOL0     H 5670   9.410   4.541   0.878  3.3892  3.5560 -1.9300
  766MOL0     H 5671   9.259   4.323   0.884 -0.1688 -2.7918 -1.7434
  766MOL0     H 5672   9.367   4.040   0.766  0.3355 -0.6108 -0.0119
  766MOL0     H 5673   9.231   4.106   0.861 -4.2882 -3.1830  0.2705
  766MOL0     H 5674   9.200   3.922   0.630  1.3819  1.4659  0.7076
  766MOL0     H 5675   9.220   3.857   0.788 -2.0902 -1.6504  0.6881
  766MOL0     H 5676   9.009   4.059   0.712  2.3274  2.4369  2.1421
  766MOL0     H 5677   9.037   4.004   0.870 -2.2126 -2.1925  0.3550
  766MOL0     H 5678   8.971   3.769   0.831 -1.8658 -0.5607 -0.1297
  766MOL0     H 5679   8.993   3.788   0.661  0.1231 -0.1806  0.3066
  766MOL0     H 5680   8.784   3.889   0.841 -0.8634 -0.3012  0.2930
  766MOL0     H 5681   8.780   3.949   0.670 -0.5331 -0.4513  0.0187
  766MOL0     H 5682   8.733   3.675   0.760 -2.2122  2.4137  0.0314
  766MOL0     H 5683   8.798   3.693   0.595  1.2343  0.3842 -0.2219
  766MOL0     H 5684   8.589   3.820   0.520  1.9002  1.3723 -0.0205
  766MOL0     H 5685   8.544   3.851   0.679 -2.5737 -0.3126 -1.9289
  766MOL0     H 5686   8.396   3.682   0.583 -0.9890 -0.4330  2.9256
  766MOL0     H 5687   8.490   3.626   0.731 -0.5929  1.8696  0.5821
  766MOL0     H 5688   9.367   4.267   0.476  2.1310 -2.8184  1.5321
  766MOL0     H 5689   9.433   4.515   0.458  0.1372 -1.8867  0.3272
  766MOL0     H 5690   9.662   4.767   0.557 -0.6012 -0.4740  0.1068
  766MOL0     H 5691   9.776   4.937   0.438  0.1278  1.4815 -1.8735
  766MOL0     H 5692  10.917   5.870   0.332  0.5024 -1.2464 -0.7963
  766MOL0     H 5693  11.082   5.743   0.420  0.1338 -0.1785 -0.2131
  766MOL0     H 5694  11.350   5.639   0.677  1.6117 -0.9565  1.7715
  766MOL0     H 5695  11.528   5.480   0.684 -0.6548  2.1050  0.1606
  766MOL0     H 5696  11.536   5.294   1.043 -0.2259  0.0227 -0.3055
  766MOL0     H 5697  11.503   5.132   0.976 -2.8043  1.7135  1.0404
  766MOL0     H 5698  11.741   5.099   0.924 -0.5775 -0.0811 -0.7152
  766MOL0     H 5699  11.704   5.132   1.094 -0.2763  1.9429  0.4727
  766MOL0     H 5700  11.787   5.357   1.068  0.7292 -2.3262  1.3256
  766MOL0     H 5701  11.910   5.255   1.016  0.6379 -0.8037 -1.1386
  766MOL0     H 5702  11.743   5.408   0.805 -2.1997 -2.8444 -0.8056
  766MOL0     H 5703  11.834   5.266   0.778 -1.2907  0.0279  0.2988
  766MOL0     H 5704  12.151   5.545   0.851 -0.5030  1.2386 -0.1460
  766MOL0     H 5705  11.316   5.224   0.941  0.2445  2.3918  1.7673
  766MOL0     H 5706  11.100   5.269   1.022  0.3453 -1.6317 -0.8885
  766MOL0     H 5707  10.995   5.393   0.949 -1.2434 -2.3949  5.3819
  766MOL0     H 5708  11.043   5.238   0.867  0.6845 -1.5638  2.3703
  767MOL0     O 5709   4.507   0.300   9.628 -0.7039  0.4120  0.9903
  767MOL0     C 5710   4.469   0.263   9.737  1.0061  1.2152  0.0283
  767MOL0     O 5711   4.438   0.355   9.837 -0.1571 -0.3026 -0.0197
  767MOL0     C 5712   4.432   0.491   9.800 -0.3988  0.0003  0.0276
  767MOL0     C 5713   4.306   0.553   9.824  0.0300  0.4447 -0.7315
  767MOL0     C 5714   4.297   0.693   9.806 -0.0283  1.0971  0.7516
  767MOL0     C 5715   4.406   0.765   9.749 -0.5532 -1.3156 -0.8255
  767MOL0     O 5716   4.368   0.889   9.710 -0.5807 -0.0162  0.9777
  767MOL0     C 5717   4.474   0.986   9.674  0.5166  0.5298  0.0150
  767MOL0     C 5718   4.405   1.122   9.676  0.3000  0.6256 -0.0490
  767MOL0     C 5719   4.520   1.232   9.664  0.5327  0.1038  0.1490
  767MOL0     C 5720   4.453   1.374   9.661 -0.5250  0.0346 -0.0887
  767MOL0     C 5721   4.543   1.465   9.582 -0.2123 -0.0270  0.7844
  767MOL0     C 5722   4.510   1.612   9.586 -0.2903  0.7037 -0.0481
  767MOL0     C 5723   4.622   1.700   9.540  0.2813 -0.6689  0.6360
  767MOL0     C 5724   4.614   1.727   9.394 -0.4418 -0.3141 -0.6210
  767MOL0     N 5725   4.728   1.814   9.360 -0.4027 -0.3667  0.1465
  767MOL0     C 5726   4.789   1.808   9.246  0.1658  0.6061 -0.2796
  767MOL0     C 5727   4.877   1.906   9.247  0.5461  0.1290 -0.0121
  767MOL0     C 5728   4.962   1.953   9.133 -0.3642  0.1448 -0.7110
  767MOL0     C 5729   4.893   2.079   9.051 -0.3425  0.5984 -0.1322
  767MOL0     C 5730   4.827   2.191   9.132  0.0877 -0.6439  0.4031
  767MOL0     C 5731   4.794   2.304   9.038 -0.8865  0.0119 -0.4194
  767MOL0     O 5732   4.914   2.355   8.969 -0.2120 -0.5797 -0.0425
  767MOL0     C 5733   5.010   2.416   9.054 -0.0401  0.4638  0.6203
  767MOL0     C 5734   4.985   2.453   9.192 -0.6773 -0.4688 -0.3341
  767MOL0     C 5735   5.087   2.528   9.256  0.9215  0.7578  0.8203
  767MOL0     C 5736   5.060   2.589   9.387 -0.9519 -0.5146  0.5077
  767MOL0     C 5737   5.215   2.522   9.196  0.6227  0.1902 -0.0823
  767MOL0     C 5738   5.339   2.566   9.271 -0.4454 -0.1363  1.3330
  767MOL0     O 5739   5.338   2.699   9.293  0.0131 -0.0425 -0.0583
  767MOL0     C 5740   5.437   2.765   9.367 -0.1418  0.0551  0.0566
  767MOL0     C 5741   5.574   2.725   9.386  0.4575 -0.4400 -0.5374
  767MOL0     C 5742   5.653   2.817   9.452 -0.2755  0.0238 -0.6107
  767MOL0     C 5743   5.599   2.919   9.526 -1.1152 -0.1644  0.4219
  767MOL0     O 5744   5.688   2.978   9.610 -0.0306 -0.3298 -0.1142
  767MOL0     C 5745   5.654   3.099   9.681 -0.0366  0.5770 -0.0419
  767MOL0     C 5746   5.770   3.169   9.730  0.3993 -0.5272 -0.1567
  767MOL0     C 5747   5.730   3.316   9.768  0.6161  0.3109  0.3830
  767MOL0     C 5748   5.619   3.320   9.882  1.0332 -0.1583  0.0263
  767MOL0     C 5749   5.617   3.444   9.961 -0.8109 -0.3105 -1.4316
  767MOL0     C 5750   5.509   3.430  10.074 -0.0752 -1.3504  0.7767
  767MOL0     C 5751   5.361   3.440  10.020  0.9711  0.2234  0.2370
  767MOL0     C 5752   5.321   3.594   9.985  0.4870  1.2614 -0.5724
  767MOL0    Cl 5753   5.172   3.589   9.905 -0.0677  0.2753 -0.3551
  767MOL0     C 5754   5.466   2.940   9.536 -0.4207 -0.0900  0.9943
  767MOL0     C 5755   5.388   2.873   9.440 -0.3073 -1.1446  1.1381
  767MOL0     O 5756   5.434   2.494   9.275 -0.1642  0.1264  0.2106
  767MOL0     C 5757   5.235   2.468   9.071  0.7307  1.2021  0.1390
  767MOL0     C 5758   5.131   2.420   8.989 -0.7317 -0.3613  1.0192
  767MOL0     N 5759   4.875   1.964   9.375  0.0502  1.2225 -0.4254
  767MOL0     N 5760   4.776   1.908   9.441  0.0181 -0.3111  0.8055
  767MOL0     C 5761   4.532   0.708   9.736  0.3746  0.4688  0.7338
  767MOL0     C 5762   4.540   0.568   9.762  0.8352 -0.0444  0.6616
  767MOL0     C 5763   4.464   0.120   9.775 -0.5513 -0.7989  0.0201
  767MOL0     C 5764   4.404   0.081   9.896 -0.2740 -0.8797 -0.6901
  767MOL0     C 5765   4.390  -0.049   9.936 -0.5854  0.2558  0.3847
  767MOL0     C 5766   4.458  -0.148   9.864  0.6639 -0.1974  0.6558
  767MOL0     O 5767   4.450  -0.270   9.919  0.6672  0.5416 -0.0753
  767MOL0     C 5768   4.504  -0.390   9.846  0.4715  0.4475  1.1823
  767MOL0     C 5769   4.641  -0.421   9.900 -1.1327  0.0322  0.3393
  767MOL0     C 5770   4.628  -0.483  10.048  0.0354  0.2283 -0.3910
  767MOL0     C 5771   4.744  -0.564  10.104 -0.1419 -0.0461 -0.0187
  767MOL0     C 5772   4.855  -0.470  10.081 -0.9850 -0.7294  0.7472
  767MOL0     C 5773   4.950  -0.389  10.061  0.2733  0.3748  0.0514
  767MOL0     C 5774   4.518  -0.108   9.740 -0.1633  0.8782  0.2839
  767MOL0     C 5775   4.521   0.020   9.692  0.8806  0.7012  0.9014
  767MOL0     C 5776   4.575   0.027   9.556  0.2824  0.1712 -0.0255
  767MOL0     H 5777   4.225   0.496   9.868 -0.7091  0.5673 -1.9013
  767MOL0     H 5778   4.202   0.747   9.808 -1.1620 -0.4655 -2.5398
  767MOL0     H 5779   4.513   0.958   9.576 -0.6698 -1.0332 -0.0465
  767MOL0     H 5780   4.559   0.964   9.740 -0.8333  0.0291  1.6702
  767MOL0     H 5781   4.351   1.135   9.582  0.0875  0.3262  0.0316
  767MOL0     H 5782   4.354   1.142   9.771  2.2641  0.7628  1.0304
  767MOL0     H 5783   4.591   1.224   9.746  0.1112 -2.4302  0.3643
  767MOL0     H 5784   4.566   1.212   9.567 -1.0038  0.9380 -0.8039
  767MOL0     H 5785   4.358   1.362   9.609  0.8458 -0.6305 -2.5969
  767MOL0     H 5786   4.453   1.405   9.766  2.6748 -2.3053  0.7579
  767MOL0     H 5787   4.565   1.433   9.480  1.2651  1.1368  0.7052
  767MOL0     H 5788   4.637   1.445   9.635  0.6974 -0.8705 -1.0690
  767MOL0     H 5789   4.412   1.632   9.542 -3.0565 -3.1409  3.6182
  767MOL0     H 5790   4.495   1.624   9.694 -0.6435  0.4742 -0.0692
  767MOL0     H 5791   4.727   1.674   9.560  0.4403  1.6628  3.5213
  767MOL0     H 5792   4.593   1.790   9.595  0.8297  0.6174 -1.1027
  767MOL0     H 5793   4.619   1.631   9.341 -0.5041 -0.8042  0.2360
  767MOL0     H 5794   4.522   1.777   9.362  0.2123  0.7735 -0.8423
  767MOL0     H 5795   4.776   1.728   9.174  0.4453  0.6776 -0.4107
  767MOL0     H 5796   4.991   1.875   9.062 -1.4113 -0.0569 -0.9362
  767MOL0     H 5797   5.061   1.984   9.168 -1.5476  1.1285  1.9785
  767MOL0     H 5798   4.974   2.107   8.982  0.2959 -4.6349 -1.9516
  767MOL0     H 5799   4.825   2.045   8.972  1.2557  0.0655 -1.3305
  767MOL0     H 5800   4.734   2.148   9.171 -1.2952  0.4768 -1.4719
  767MOL0     H 5801   4.881   2.226   9.220 -1.9925  0.1429  1.4296
  767MOL0     H 5802   4.713   2.282   8.969 -0.3160  1.5587 -1.6259
  767MOL0     H 5803   4.755   2.390   9.094 -0.2709  1.6764 -2.4164
  767MOL0     H 5804   4.888   2.439   9.239  0.1328 -0.7942  1.2827
  767MOL0     H 5805   4.968   2.559   9.437 -1.7429 -0.1861 -0.6921
  767MOL0     H 5806   5.053   2.695   9.358 -2.8873 -0.9252 -0.7310
  767MOL0     H 5807   5.146   2.582   9.455 -0.4453  1.4947  0.1376
  767MOL0     H 5808   5.610   2.631   9.346  1.9541 -0.1550  0.0770
  767MOL0     H 5809   5.758   2.789   9.457 -0.8936 -2.4080  1.9401
  767MOL0     H 5810   5.600   3.163   9.610  0.4465 -0.6008 -1.5339
  767MOL0     H 5811   5.579   3.076   9.757  0.0295  0.7278  0.0692
  767MOL0     H 5812   5.806   3.111   9.816  0.9741  0.6421  0.4084
  767MOL0     H 5813   5.850   3.181   9.656  2.5279 -0.7174  2.0019
  767MOL0     H 5814   5.687   3.358   9.676 -1.1551 -0.7307  0.6924
  767MOL0     H 5815   5.819   3.374   9.792  0.7561  0.1000  0.3789
  767MOL0     H 5816   5.639   3.241   9.954  0.7191  1.1387  1.5980
  767MOL0     H 5817   5.525   3.301   9.828  0.4942  2.0131  0.0948
  767MOL0     H 5818   5.703   3.468  10.024 -2.1849 -4.4664  2.5697
  767MOL0     H 5819   5.606   3.530   9.895  0.1105  0.6604 -0.3634
  767MOL0     H 5820   5.541   3.502  10.150  0.7190 -1.8649  0.9368
  767MOL0     H 5821   5.527   3.333  10.121 -0.1718 -0.9868  1.5820
  767MOL0     H 5822   5.283   3.398  10.083 -0.0463  0.4969 -0.8111
  767MOL0     H 5823   5.366   3.379   9.929  0.9734 -1.8862  1.5744
  767MOL0     H 5824   5.399   3.645   9.927  3.3047 -1.5554  0.4536
  767MOL0     H 5825   5.317   3.644  10.082  0.7691 -0.1848  0.2106
  767MOL0     H 5826   5.417   3.004   9.609 -3.6196 -1.6642  0.4113
  767MOL0     H 5827   5.284   2.903   9.427 -0.0832 -0.7207  0.2423
  767MOL0     H 5828   5.330   2.468   9.018  1.2643  0.7562  1.0829
  767MOL0     H 5829   5.148   2.388   8.887  0.6434  2.0064  0.4321
  767MOL0     H 5830   4.621   0.762   9.705  0.3964  0.4936  0.8380
  767MOL0     H 5831   4.635   0.521   9.737  0.8266 -0.3577  1.2083
  767MOL0     H 5832   4.357   0.145   9.969 -1.4886 -1.4866 -0.9131
  767MOL0     H 5833   4.345  -0.075  10.032 -3.3716 -3.6103 -1.6775
  767MOL0     H 5834   4.441  -0.475   9.870  1.2483  0.0619  1.9303
  767MOL0     H 5835   4.508  -0.376   9.738 -0.7567  0.5417  1.1373
  767MOL0     H 5836   4.706  -0.334   9.892 -1.4740  0.2110 -0.6418
  767MOL0     H 5837   4.684  -0.493   9.829 -1.2870  1.1221 -0.8806
  767MOL0     H 5838   4.605  -0.413  10.129 -0.7321  0.6767 -0.9905
  767MOL0     H 5839   4.545  -0.553  10.055  0.2445 -0.0012 -0.1434
  767MOL0     H 5840   4.749  -0.656  10.045 -0.7743 -0.5526  0.7057
  767MOL0     H 5841   4.732  -0.590  10.209 -0.6485  0.9623  0.1865
  767MOL0     H 5842   5.035  -0.327  10.042  0.2323 -0.2553 -2.4785
  767MOL0     H 5843   4.561  -0.186   9.678  1.0201  1.2332  0.6388
  767MOL0     H 5844   4.524   0.102   9.495  2.0472  1.9498  0.5416
  767MOL0     H 5845   4.679   0.061   9.556  2.0434 -4.2555 -2.8878
  767MOL0     H 5846   4.568  -0.069   9.505 -1.4989  0.4213 -0.2992
  768MOL0     O 5847   4.374   2.362   2.415  0.8889 -0.0245  1.0555
  768MOL0     C 5848   4.474   2.327   2.469 -0.7862 -0.0967 -0.7655
  768MOL0     O 5849   4.509   2.201   2.495 -0.4021 -0.3478  0.5805
  768MOL0     C 5850   4.466   2.101   2.400  0.2567  0.1956 -0.0725
  768MOL0     C 5851   4.482   2.126   2.262 -0.2569 -0.3431  0.3164
  768MOL0     C 5852   4.449   2.039   2.163  0.6139  0.3398  0.7333
  768MOL0     C 5853   4.412   1.910   2.200  0.0318  0.7081  0.7694
  768MOL0     O 5854   4.381   1.816   2.103  1.2548  0.5056 -0.1450
  768MOL0     C 5855   4.238   1.778   2.101  0.3911 -0.4106  0.1705
  768MOL0     C 5856   4.178   1.751   1.962  0.5912 -0.8272  0.0956
  768MOL0     C 5857   4.183   1.886   1.884 -0.0931 -0.3691  0.2894
  768MOL0     C 5858   4.117   1.884   1.744 -0.0846 -0.7429  0.5107
  768MOL0     C 5859   4.083   2.015   1.681  0.3845 -0.4280  0.3092
  768MOL0     C 5860   4.201   2.115   1.660 -0.3080 -0.4188 -0.6608
  768MOL0     C 5861   4.140   2.248   1.628 -0.9825 -0.7810 -0.3292
  768MOL0     C 5862   4.169   2.284   1.477  0.0933 -0.6266  0.3340
  768MOL0     N 5863   4.306   2.273   1.440 -0.2384  0.5507  0.0880
  768MOL0     C 5864   4.386   2.369   1.474 -0.0861  0.2903 -0.1693
  768MOL0     C 5865   4.509   2.330   1.435  1.0328  0.9763  0.6934
  768MOL0     C 5866   4.631   2.419   1.453 -0.2680 -0.5448  0.5257
  768MOL0     C 5867   4.622   2.535   1.348  0.3067  0.6387  0.6636
  768MOL0     C 5868   4.692   2.498   1.211  0.3425 -0.2019 -0.1688
  768MOL0     C 5869   4.680   2.601   1.100  0.7742  0.0911  0.4559
  768MOL0     O 5870   4.554   2.649   1.063 -0.1839 -0.7991  0.3822
  768MOL0     C 5871   4.543   2.788   1.068  0.5134  0.0163 -1.1890
  768MOL0     C 5872   4.552   2.875   1.182  0.1694 -0.6552  0.1837
  768MOL0     C 5873   4.520   3.016   1.166 -0.1830 -0.0101 -0.4083
  768MOL0     C 5874   4.544   3.098   1.291 -0.4221 -0.6364 -0.5090
  768MOL0     C 5875   4.461   3.061   1.046  0.0366  0.1981  0.3789
  768MOL0     C 5876   4.407   3.207   1.035  0.5838  0.3375  0.1949
  768MOL0     O 5877   4.387   3.248   0.905  0.5268  0.9089 -0.4879
  768MOL0     C 5878   4.336   3.373   0.873 -0.5456 -0.6197  0.4151
  768MOL0     C 5879   4.393   3.433   0.763 -0.1326  0.6166  0.1038
  768MOL0     C 5880   4.356   3.562   0.722  0.0940 -0.6924 -1.2912
  768MOL0     C 5881   4.271   3.636   0.809 -0.1046  0.3782  0.6877
  768MOL0     O 5882   4.213   3.758   0.778 -0.4107 -0.2814 -0.1543
  768MOL0     C 5883   4.266   3.863   0.692  0.1571  0.1667  0.0176
  768MOL0     C 5884   4.382   3.928   0.764  1.0323  0.5703  0.1022
  768MOL0     C 5885   4.324   4.015   0.880  0.1048 -0.0686  0.0451
  768MOL0     C 5886   4.435   4.100   0.948  0.3873  0.2796 -0.4183
  768MOL0     C 5887   4.375   4.171   1.073 -0.5755  0.3731 -0.1174
  768MOL0     C 5888   4.452   4.295   1.124 -0.0806 -0.9466  0.1826
  768MOL0     C 5889   4.570   4.254   1.203 -0.5058  0.6788  1.1481
  768MOL0     C 5890   4.677   4.368   1.206  0.1185  0.6506 -0.2903
  768MOL0    Cl 5891   4.604   4.516   1.265  0.2056  0.0387 -0.2889
  768MOL0     C 5892   4.213   3.572   0.915  0.2629  0.3081 -0.2927
  768MOL0     C 5893   4.240   3.442   0.941 -0.1023  0.5081  1.0409
  768MOL0     O 5894   4.384   3.275   1.140 -0.5026 -0.4776  0.3704
  768MOL0     C 5895   4.459   2.975   0.941 -0.1451 -0.5834  0.1479
  768MOL0     C 5896   4.493   2.839   0.952 -0.6178 -0.3669  0.3254
  768MOL0     N 5897   4.501   2.207   1.364  0.5636 -0.4610 -0.1415
  768MOL0     N 5898   4.368   2.177   1.380 -0.9316 -0.0344  0.6034
  768MOL0     C 5899   4.393   1.881   2.337 -0.5301  0.4817  0.2428
  768MOL0     C 5900   4.416   1.979   2.434 -0.7341  0.0250  0.7706
  768MOL0     C 5901   4.570   2.417   2.529 -0.1735 -0.1425  0.1561
  768MOL0     C 5902   4.694   2.373   2.587 -0.1378  0.1409  0.3667
  768MOL0     C 5903   4.785   2.461   2.639 -0.0365  0.1233  0.5231
  768MOL0     C 5904   4.768   2.596   2.643  0.2336 -0.7031  0.5156
  768MOL0     O 5905   4.879   2.662   2.685 -0.7852 -0.1556 -0.0151
  768MOL0     C 5906   4.858   2.803   2.707  0.0470  0.0610 -1.3603
  768MOL0     C 5907   4.973   2.855   2.791  0.8100  0.5739 -0.0896
  768MOL0     C 5908   5.097   2.861   2.707 -0.8266  0.2442 -0.1092
  768MOL0     C 5909   5.226   2.851   2.787 -0.0321 -0.1485  0.2369
  768MOL0     C 5910   5.341   2.881   2.697 -0.5740 -0.1955  0.1506
  768MOL0     C 5911   5.433   2.907   2.626 -0.6020  0.2849  0.2258
  768MOL0     C 5912   4.655   2.644   2.583  0.2484 -0.3113 -0.6485
  768MOL0     C 5913   4.550   2.558   2.537  0.5927  0.2513 -0.5382
  768MOL0     C 5914   4.420   2.634   2.491  0.3528  0.1288  0.2567
  768MOL0     H 5915   4.521   2.224   2.236  0.5813 -0.2531  1.7803
  768MOL0     H 5916   4.448   2.077   2.062  1.4128  2.1057  1.3492
  768MOL0     H 5917   4.195   1.861   2.158  4.0311  0.6344  1.6851
  768MOL0     H 5918   4.225   1.684   2.154  1.9664 -1.0681 -0.5426
  768MOL0     H 5919   4.218   1.671   1.900  1.7355  1.1957 -1.9495
  768MOL0     H 5920   4.071   1.732   1.971  0.2633 -0.1192 -1.9316
  768MOL0     H 5921   4.136   1.966   1.943  0.5099  0.9333 -0.9204
  768MOL0     H 5922   4.290   1.908   1.872  0.0300  0.1165  1.9480
  768MOL0     H 5923   4.188   1.837   1.676 -0.7793  0.6148 -1.2579
  768MOL0     H 5924   4.026   1.824   1.743 -0.3596 -0.5443 -3.4580
  768MOL0     H 5925   4.012   2.067   1.746  0.0875  0.3707 -0.6230
  768MOL0     H 5926   4.045   2.001   1.579  2.2604  2.0535 -0.8428
  768MOL0     H 5927   4.253   2.112   1.755  2.0035 -3.4790 -1.8493
  768MOL0     H 5928   4.282   2.081   1.594  1.0791  1.6140 -0.1009
  768MOL0     H 5929   4.198   2.321   1.686 -0.6903 -0.2225 -1.3011
  768MOL0     H 5930   4.036   2.267   1.654 -0.2276  2.2960  0.9263
  768MOL0     H 5931   4.097   2.227   1.418 -0.1929 -0.0959  0.1681
  768MOL0     H 5932   4.143   2.388   1.457  2.7305  0.2720  1.1560
  768MOL0     H 5933   4.363   2.452   1.540 -4.2430 -0.0673 -0.9202
  768MOL0     H 5934   4.716   2.354   1.430  2.1891  2.7469 -0.6125
  768MOL0     H 5935   4.649   2.456   1.555 -2.8110  1.1309  0.4432
  768MOL0     H 5936   4.519   2.564   1.329 -0.0509 -1.8559 -2.0612
  768MOL0     H 5937   4.674   2.622   1.388 -0.0674  0.6621  1.1031
  768MOL0     H 5938   4.800   2.482   1.221  0.7162  1.5318 -1.1089
  768MOL0     H 5939   4.663   2.399   1.176  0.8855 -0.1609 -0.7387
  768MOL0     H 5940   4.757   2.675   1.125  0.3346  0.7240 -0.0431
  768MOL0     H 5941   4.722   2.554   1.010 -0.3264 -0.5911  0.2816
  768MOL0     H 5942   4.565   2.834   1.281  2.3692 -1.1804 -0.2623
  768MOL0     H 5943   4.450   3.129   1.336 -1.9585 -3.0228 -1.8691
  768MOL0     H 5944   4.599   3.188   1.263  0.2980 -1.6665 -2.6345
  768MOL0     H 5945   4.603   3.048   1.369  0.1228  0.4192 -0.2236
  768MOL0     H 5946   4.468   3.371   0.715 -0.0067  2.6440 -2.5961
  768MOL0     H 5947   4.394   3.612   0.633  0.8938 -0.9444 -1.0996
  768MOL0     H 5948   4.280   3.831   0.589  0.8867 -0.8667  0.4262
  768MOL0     H 5949   4.180   3.931   0.690  0.8141  1.0094 -0.2295
  768MOL0     H 5950   4.449   3.850   0.802 -0.2229 -1.0738 -0.8670
  768MOL0     H 5951   4.430   3.999   0.697 -0.1381 -0.2855 -1.7388
  768MOL0     H 5952   4.274   3.949   0.952 -0.9645  1.0679  0.3691
  768MOL0     H 5953   4.251   4.085   0.839 -2.2030 -2.0573  0.5546
  768MOL0     H 5954   4.476   4.173   0.878 -1.6091  1.9435  0.0539
  768MOL0     H 5955   4.516   4.032   0.977  1.8809  0.7204 -3.2337
  768MOL0     H 5956   4.271   4.188   1.043 -0.5877 -1.4505 -1.2478
  768MOL0     H 5957   4.368   4.109   1.163 -0.5706 -0.0060 -0.3755
  768MOL0     H 5958   4.381   4.349   1.187  1.8588  0.4208  1.2851
  768MOL0     H 5959   4.483   4.368   1.049 -1.5966  1.7681  2.0253
  768MOL0     H 5960   4.621   4.163   1.169  0.0291  0.8077  1.5967
  768MOL0     H 5961   4.535   4.222   1.301 -1.1614 -4.3939 -0.4604
  768MOL0     H 5962   4.738   4.377   1.115 -1.4497 -0.2541 -1.4954
  768MOL0     H 5963   4.758   4.340   1.275  2.3189  0.3381 -2.8207
  768MOL0     H 5964   4.152   3.635   0.979  0.2245  3.2352 -2.9298
  768MOL0     H 5965   4.201   3.404   1.035 -0.5758 -1.6529  0.0378
  768MOL0     H 5966   4.423   3.015   0.847 -2.0409 -0.4731  0.8827
  768MOL0     H 5967   4.463   2.776   0.869 -1.2860 -1.4758  1.3859
  768MOL0     H 5968   4.348   1.792   2.379 -4.9367  3.1405  1.7836
  768MOL0     H 5969   4.402   1.943   2.535  0.6875 -2.2967  0.2230
  768MOL0     H 5970   4.718   2.268   2.586 -0.8811 -0.0376  0.8976
  768MOL0     H 5971   4.869   2.411   2.685 -1.6474 -1.1345  2.2386
  768MOL0     H 5972   4.828   2.859   2.618  1.6987  2.6459 -0.3936
  768MOL0     H 5973   4.764   2.806   2.763 -0.1116 -2.0645 -1.4420
  768MOL0     H 5974   4.987   2.790   2.878 -0.9845  0.2813  0.0289
  768MOL0     H 5975   4.931   2.953   2.816 -1.3266 -0.4135  0.4502
  768MOL0     H 5976   5.093   2.771   2.644 -1.5224 -0.4406  0.8821
  768MOL0     H 5977   5.100   2.950   2.644 -0.2771  1.8019  1.9976
  768MOL0     H 5978   5.237   2.748   2.823 -4.4323 -1.5573 -1.7050
  768MOL0     H 5979   5.215   2.911   2.878  1.1172  0.8944 -0.2809
  768MOL0     H 5980   5.521   2.932   2.569 -1.9856  3.8362 -0.6370
  768MOL0     H 5981   4.648   2.751   2.572 -0.0051 -0.2221  0.3468
  768MOL0     H 5982   4.330   2.590   2.536  1.2432 -1.0546  0.9478
  768MOL0     H 5983   4.425   2.741   2.514 -2.6001  0.1143  1.3455
  768MOL0     H 5984   4.413   2.624   2.382 -0.3499 -1.1764  0.4006
  769MOL0     O 5985   4.687  11.182   8.324  0.3530  0.6762  0.2688
  769MOL0     C 5986   4.693  11.099   8.421  0.1566 -0.8839 -0.5580
  769MOL0     O 5987   4.737  11.141   8.551 -0.3775 -0.3760  0.4963
  769MOL0     C 5988   4.782  11.263   8.569 -0.2933 -0.7431 -0.4318
  769MOL0     C 5989   4.897  11.297   8.643  0.1923  0.3384  0.6254
  769MOL0     C 5990   4.933  11.429   8.678  1.2140  0.2946  0.4074
  769MOL0     C 5991   4.860  11.535   8.615 -1.1290 -0.1509 -0.8839
  769MOL0     O 5992   4.883  11.674   8.629  0.6676  0.0392  0.2132
  769MOL0     C 5993   4.977  11.703   8.729 -0.3267  0.3938 -0.0360
  769MOL0     C 5994   4.984  11.842   8.786  1.1322  0.5302 -0.7311
  769MOL0     C 5995   5.015  11.951   8.679 -1.1989 -0.1913  0.4660
  769MOL0     C 5996   5.135  12.046   8.727  0.6531 -0.3786  0.0216
  769MOL0     C 5997   5.164  12.142   8.620 -0.4382 -0.5915  0.2181
  769MOL0     C 5998   5.075  12.266   8.609  0.2425  0.1443 -0.7214
  769MOL0     C 5999   5.104  12.350   8.487 -0.1569  0.0399  0.4465
  769MOL0     C 6000   4.992  12.443   8.448  0.0303 -0.7641 -0.2427
  769MOL0     N 6001   4.987  12.552   8.541  0.0973 -0.7300  0.1602
  769MOL0     C 6002   5.070  12.663   8.543  0.5189 -0.0434  0.4971
  769MOL0     C 6003   5.013  12.754   8.627 -0.6427 -0.3861  0.6245
  769MOL0     C 6004   5.064  12.895   8.657 -0.0660  0.1452  0.5600
  769MOL0     C 6005   5.035  12.993   8.546 -0.5235 -0.4037  0.1260
  769MOL0     C 6006   4.905  13.066   8.563  0.3811 -0.3768 -0.4835
  769MOL0     C 6007   4.873  13.177   8.459 -0.7187 -0.7797  0.6417
  769MOL0     O 6008   4.771  13.264   8.511 -0.2092  0.7656 -0.0085
  769MOL0     C 6009   4.652  13.242   8.445  0.5936 -0.2572  0.3024
  769MOL0     C 6010   4.552  13.163   8.499 -0.7053 -0.1354  0.2653
  769MOL0     C 6011   4.417  13.170   8.457  0.1875 -0.5422 -0.0472
  769MOL0     C 6012   4.315  13.091   8.523  0.4643  0.7052  1.0132
  769MOL0     C 6013   4.385  13.264   8.349 -0.2893 -0.1013 -0.2252
  769MOL0     C 6014   4.241  13.293   8.305  0.4616 -0.5141 -0.3443
  769MOL0     O 6015   4.230  13.337   8.179  0.0611 -0.2772  0.2101
  769MOL0     C 6016   4.120  13.410   8.147 -0.1085 -1.3722  0.1975
  769MOL0     C 6017   4.068  13.526   8.206 -1.1267 -0.1242  0.2907
  769MOL0     C 6018   3.948  13.588   8.164 -0.3398  0.3717  1.0841
  769MOL0     C 6019   3.887  13.536   8.048  0.1805 -0.0973 -0.0228
  769MOL0     O 6020   3.803  13.614   7.973 -0.7556 -0.9133 -0.3058
  769MOL0     C 6021   3.670  13.614   8.011  0.1447 -0.3532 -1.0842
  769MOL0     C 6022   3.613  13.755   7.997  0.5857 -0.6275  0.5626
  769MOL0     C 6023   3.688  13.854   7.907  1.0400  0.1386 -0.6275
  769MOL0     C 6024   3.583  13.957   7.853  0.1924  0.1123  0.7951
  769MOL0     C 6025   3.640  14.074   7.768 -1.7139 -0.9611 -0.1030
  769MOL0     C 6026   3.547  14.193   7.718  0.2371 -0.0555  0.0119
  769MOL0     C 6027   3.517  14.303   7.823 -0.3770  0.4547  0.6080
  769MOL0     C 6028   3.532  14.442   7.758 -0.1159 -0.2610  0.1454
  769MOL0    Cl 6029   3.479  14.581   7.852  0.1575 -0.8127  0.1197
  769MOL0     C 6030   3.925  13.405   8.000  0.5138 -0.6603 -0.3711
  769MOL0     C 6031   4.038  13.346   8.055  0.1511 -0.2893  0.4456
  769MOL0     O 6032   4.144  13.269   8.380 -0.3875 -0.8636 -0.7596
  769MOL0     C 6033   4.494  13.315   8.278 -0.9772  0.1548 -0.7223
  769MOL0     C 6034   4.625  13.317   8.324  0.5769 -0.2840 -0.6670
  769MOL0     N 6035   4.894  12.704   8.664 -0.4545  0.4163  0.1984
  769MOL0     N 6036   4.874  12.590   8.610  0.8211  0.8107  0.3598
  769MOL0     C 6037   4.746  11.505   8.547  0.4315 -0.1585 -0.6755
  769MOL0     C 6038   4.705  11.373   8.523 -0.1603 -0.0414 -0.9052
  769MOL0     C 6039   4.684  10.948   8.410  0.1113 -0.4801  0.1961
  769MOL0     C 6040   4.708  10.862   8.525 -0.2781 -0.3681  0.5491
  769MOL0     C 6041   4.734  10.725   8.508 -0.9050  0.0866 -0.5896
  769MOL0     C 6042   4.703  10.663   8.389 -0.4480 -0.1767 -1.0628
  769MOL0     O 6043   4.726  10.532   8.360 -0.6494 -0.2315 -0.1633
  769MOL0     C 6044   4.771  10.446   8.468  0.5377  0.6448 -0.3900
  769MOL0     C 6045   4.651  10.413   8.557  0.0734 -0.1386  0.0888
  769MOL0     C 6046   4.686  10.316   8.674  0.2960 -0.4552  0.2531
  769MOL0     C 6047   4.714  10.167   8.639 -0.2979  0.3705  0.1092
  769MOL0     C 6048   4.806  10.117   8.736  0.8580  0.4471 -0.0856
  769MOL0     C 6049   4.882  10.088   8.829  0.0882  0.5948 -0.1416
  769MOL0     C 6050   4.667  10.738   8.275  0.0502 -0.1750 -0.0512
  769MOL0     C 6051   4.669  10.880   8.293  0.0982 -0.4658 -0.3745
  769MOL0     C 6052   4.645  10.948   8.150 -0.4835 -0.2467 -0.5464
  769MOL0     H 6053   4.968  11.218   8.665  1.0659  0.6940 -0.8102
  769MOL0     H 6054   5.014  11.447   8.746 -0.9451  0.5541  3.0796
  769MOL0     H 6055   5.076  11.667   8.701 -0.2043  0.8045 -0.1375
  769MOL0     H 6056   4.945  11.649   8.819 -3.9594  0.7085 -0.9599
  769MOL0     H 6057   4.885  11.866   8.826 -0.1587 -2.0276 -2.1553
  769MOL0     H 6058   5.050  11.846   8.874 -1.7845  2.7947  1.5778
  769MOL0     H 6059   5.039  11.887   8.594 -1.2244  0.2697  0.1066
  769MOL0     H 6060   4.926  12.008   8.651 -0.1153  1.0007 -0.6627
  769MOL0     H 6061   5.098  12.091   8.820 -0.0717 -0.0697 -0.4069
  769MOL0     H 6062   5.221  11.979   8.737  0.8342 -0.0440  0.8209
  769MOL0     H 6063   5.166  12.085   8.527  4.2906 -1.8938  0.8205
  769MOL0     H 6064   5.271  12.167   8.619 -0.6303  0.2729  0.3341
  769MOL0     H 6065   4.968  12.245   8.597  0.5525 -0.5564 -2.6026
  769MOL0     H 6066   5.084  12.330   8.697  1.5750 -0.3913 -0.4549
  769MOL0     H 6067   5.121  12.296   8.393 -0.3829 -0.9478  0.9601
  769MOL0     H 6068   5.199  12.402   8.507 -0.6284  1.4745 -0.8761
  769MOL0     H 6069   5.020  12.486   8.352  1.8408  1.7930  1.2945
  769MOL0     H 6070   4.890  12.406   8.434 -0.2321 -0.1116 -0.0931
  769MOL0     H 6071   5.162  12.671   8.486 -0.9319  2.3905 -1.7078
  769MOL0     H 6072   5.172  12.880   8.670 -0.2244 -0.5976  1.0832
  769MOL0     H 6073   5.046  12.939   8.756  0.1094  1.1931  0.1314
  769MOL0     H 6074   5.116  13.067   8.545  1.1615 -2.1568 -0.5153
  769MOL0     H 6075   5.038  12.948   8.446  3.9249  3.5040 -1.9091
  769MOL0     H 6076   4.828  12.989   8.568 -0.1695  0.2116  3.0099
  769MOL0     H 6077   4.914  13.118   8.659 -2.1589  0.4622 -0.6437
  769MOL0     H 6078   4.961  13.238   8.437 -1.1994 -0.4857 -0.5572
  769MOL0     H 6079   4.856  13.131   8.361  1.5764  0.8896 -0.6434
  769MOL0     H 6080   4.578  13.099   8.583  1.6747  1.7815  1.1045
  769MOL0     H 6081   4.242  13.162   8.562  0.9292  1.2847  0.8522
  769MOL0     H 6082   4.346  13.023   8.603 -0.9054  0.7670  1.6086
  769MOL0     H 6083   4.266  13.026   8.449  1.9841 -4.0239  3.7162
  769MOL0     H 6084   4.122  13.567   8.291  1.9879  1.4336 -2.2385
  769MOL0     H 6085   3.910  13.675   8.216 -1.2794  1.4901 -1.3003
  769MOL0     H 6086   3.618  13.537   7.954  2.4891 -3.0073  0.0980
  769MOL0     H 6087   3.661  13.597   8.119 -0.0300 -0.1812 -1.0696
  769MOL0     H 6088   3.509  13.746   7.962  0.8550  0.0178 -0.4458
  769MOL0     H 6089   3.598  13.804   8.094  0.3769  1.2859 -0.3998
  769MOL0     H 6090   3.721  13.811   7.812  0.6163  1.2500 -1.3089
  769MOL0     H 6091   3.778  13.904   7.944  1.0521  0.6834 -1.3714
  769MOL0     H 6092   3.532  14.010   7.934 -0.5703 -2.0185  1.7939
  769MOL0     H 6093   3.503  13.914   7.791  0.3151  0.4482  0.4021
  769MOL0     H 6094   3.710  14.115   7.841 -2.0838 -0.3652 -0.0776
  769MOL0     H 6095   3.691  14.041   7.677 -4.7513  1.1199 -2.7633
  769MOL0     H 6096   3.453  14.146   7.687 -1.1118  1.4166  1.6831
  769MOL0     H 6097   3.595  14.239   7.631 -2.3949  2.0481 -0.4687
  769MOL0     H 6098   3.587  14.297   7.907  1.6513  1.4247 -0.9444
  769MOL0     H 6099   3.414  14.297   7.860 -0.0698  0.1703  1.4503
  769MOL0     H 6100   3.475  14.454   7.665  1.6004  4.5497 -0.5524
  769MOL0     H 6101   3.635  14.457   7.725 -0.5106 -2.2285 -2.3259
  769MOL0     H 6102   3.860  13.360   7.926  0.5307  0.4965 -1.1135
  769MOL0     H 6103   4.072  13.256   8.006 -1.5540 -2.1288  2.4509
  769MOL0     H 6104   4.471  13.377   8.192 -0.7741  2.3994  0.7542
  769MOL0     H 6105   4.706  13.365   8.271  0.1791  0.3048 -0.7457
  769MOL0     H 6106   4.695  11.584   8.492  0.7111  0.9448  0.6055
  769MOL0     H 6107   4.617  11.351   8.464 -0.5405  1.9060 -1.1343
  769MOL0     H 6108   4.719  10.914   8.620  3.1127  2.6261 -1.2410
  769MOL0     H 6109   4.745  10.657   8.592 -4.7643  0.7959  0.6945
  769MOL0     H 6110   4.803  10.346   8.437  1.0071  0.1712  1.5059
  769MOL0     H 6111   4.859  10.494   8.513  2.1026 -0.2295 -2.3503
  769MOL0     H 6112   4.567  10.366   8.505  1.7332 -1.1486 -1.8364
  769MOL0     H 6113   4.605  10.502   8.602  1.4186  0.0717  1.1539
  769MOL0     H 6114   4.777  10.351   8.725  1.3454 -0.6641 -1.4248
  769MOL0     H 6115   4.608  10.332   8.750  0.0037 -0.4747 -0.0408
  769MOL0     H 6116   4.759  10.154   8.540  4.2102 -0.4707  2.0278
  769MOL0     H 6117   4.626  10.102   8.645  1.3565 -2.0292 -0.2186
  769MOL0     H 6118   4.953  10.091   8.910  0.8825 -1.3154 -0.7105
  769MOL0     H 6119   4.659  10.692   8.177 -1.7838  0.8525 -0.4255
  769MOL0     H 6120   4.743  10.971   8.106 -0.3231  1.6642  0.6761
  769MOL0     H 6121   4.592  10.888   8.076 -2.1306  0.2354  0.1918
  769MOL0     H 6122   4.602  11.048   8.158  0.8122  0.3111 -0.2123
  770MOL0     O 6123   6.665   9.674   0.104 -0.7007  0.3831  0.1088
  770MOL0     C 6124   6.700   9.788   0.143  0.0030 -0.2844 -0.5531
  770MOL0     O 6125   6.716   9.895   0.054 -0.6143 -0.3083  1.4076
  770MOL0     C 6126   6.711   9.884  -0.085 -0.0714 -1.2619 -0.7745
  770MOL0     C 6127   6.758   9.778  -0.152 -0.2359  0.1435 -0.7155
  770MOL0     C 6128   6.750   9.766  -0.291 -0.2916  0.2681 -0.8847
  770MOL0     C 6129   6.684   9.862  -0.369  0.2712 -0.4555  0.5569
  770MOL0     O 6130   6.665   9.856  -0.508 -0.3114 -0.4393  0.2318
  770MOL0     C 6131   6.665   9.727  -0.584  0.1976 -1.5325  0.7107
  770MOL0     C 6132   6.524   9.687  -0.629  0.1199 -0.3754 -0.1414
  770MOL0     C 6133   6.416   9.725  -0.518 -0.2104  0.1312 -0.2516
  770MOL0     C 6134   6.285   9.649  -0.566 -0.0611 -0.0068 -0.4085
  770MOL0     C 6135   6.164   9.694  -0.484  0.7189 -0.5487  0.1996
  770MOL0     C 6136   6.041   9.608  -0.500 -0.0444  0.3196 -0.8447
  770MOL0     C 6137   5.988   9.616  -0.640 -0.3343 -0.8348  0.5759
  770MOL0     C 6138   5.855   9.530  -0.655  0.1710 -0.2737 -0.1538
  770MOL0     N 6139   5.740   9.593  -0.589 -0.2878 -0.4616  0.2772
  770MOL0     C 6140   5.717   9.580  -0.457 -1.0603  0.5558  0.1455
  770MOL0     C 6141   5.607   9.643  -0.420  0.1787 -0.0794 -1.1445
  770MOL0     C 6142   5.561   9.666  -0.278  0.0636  0.3353 -0.1050
  770MOL0     C 6143   5.663   9.742  -0.203  0.4586  0.1196 -0.1438
  770MOL0     C 6144   5.615   9.783  -0.059 -1.1580  0.8337  0.2785
  770MOL0     C 6145   5.622   9.667   0.034 -0.1580 -0.0410 -0.3132
  770MOL0     O 6146   5.730   9.680   0.135  0.1184  0.0609 -0.1396
  770MOL0     C 6147   5.724   9.603   0.248  0.1790  0.1880  1.2549
  770MOL0     C 6148   5.622   9.523   0.308 -0.2282  1.0497  0.3813
  770MOL0     C 6149   5.638   9.428   0.411  0.1839  0.6784  0.1297
  770MOL0     C 6150   5.513   9.356   0.450  0.1298  0.5684 -0.1859
  770MOL0     C 6151   5.764   9.411   0.466  0.1318 -0.2887 -0.5654
  770MOL0     C 6152   5.805   9.316   0.575 -0.4461  0.2161  0.5560
  770MOL0     O 6153   5.937   9.310   0.611  0.3131 -0.4617  0.3473
  770MOL0     C 6154   5.983   9.208   0.695 -0.0169  0.4090  0.5342
  770MOL0     C 6155   5.945   9.192   0.823  0.2359 -0.2795 -0.8276
  770MOL0     C 6156   6.008   9.102   0.910  0.0585 -0.1364  0.4001
  770MOL0     C 6157   6.116   9.029   0.866 -0.7568  0.4068 -0.9332
  770MOL0     O 6158   6.197   8.958   0.953 -0.2531  0.8507  0.3511
  770MOL0     C 6159   6.241   9.019   1.080 -0.0372  0.1270 -0.1735
  770MOL0     C 6160   6.266   8.898   1.172 -0.5638  1.3767  1.1589
  770MOL0     C 6161   6.392   8.808   1.141 -0.1461  0.4181 -0.2101
  770MOL0     C 6162   6.519   8.892   1.158  0.1587 -0.0753  0.2308
  770MOL0     C 6163   6.655   8.823   1.131  0.4410  0.4824  0.0792
  770MOL0     C 6164   6.664   8.687   1.202  0.0997  1.0082  0.2382
  770MOL0     C 6165   6.639   8.692   1.353 -0.3805  0.5387 -0.1124
  770MOL0     C 6166   6.682   8.558   1.426 -0.4319  0.5299 -0.0289
  770MOL0    Cl 6167   6.560   8.426   1.390  0.0284  0.4812 -0.6480
  770MOL0     C 6168   6.160   9.046   0.731  1.0121  0.0975  0.8249
  770MOL0     C 6169   6.080   9.129   0.640 -0.9419 -0.3246  0.2858
  770MOL0     O 6170   5.724   9.238   0.620  0.2321  0.5148  0.2667
  770MOL0     C 6171   5.868   9.501   0.415  0.1390 -0.6047 -0.0003
  770MOL0     C 6172   5.847   9.589   0.306  0.4896 -1.5448 -0.3553
  770MOL0     N 6173   5.562   9.715  -0.534 -0.1232  0.6535  0.1770
  770MOL0     N 6174   5.637   9.671  -0.641 -0.8495 -0.4768 -0.1287
  770MOL0     C 6175   6.632   9.975  -0.302  0.3974  0.7250  0.1813
  770MOL0     C 6176   6.643   9.979  -0.162 -0.3548  0.1107  0.6740
  770MOL0     C 6177   6.718   9.805   0.285 -0.0246  0.4365 -0.6117
  770MOL0     C 6178   6.686   9.929   0.348  0.1976 -0.3488  0.7166
  770MOL0     C 6179   6.702   9.946   0.479  1.6778  0.9509 -0.2030
  770MOL0     C 6180   6.754   9.847   0.561 -0.4138  0.2673 -0.2159
  770MOL0     O 6181   6.789   9.889   0.689 -0.5151  1.1860 -0.7414
  770MOL0     C 6182   6.825   9.778   0.786  0.0455  0.0797 -0.0392
  770MOL0     C 6183   6.706   9.700   0.831 -0.5007  0.9906 -1.1783
  770MOL0     C 6184   6.583   9.775   0.896  0.5222  0.6416  0.5492
  770MOL0     C 6185   6.620   9.856   1.025 -0.2898  0.2251 -0.5730
  770MOL0     C 6186   6.673   9.761   1.124  0.6410 -0.6120  0.4023
  770MOL0     C 6187   6.715   9.672   1.180  1.5209 -0.2717  0.0453
  770MOL0     C 6188   6.794   9.721   0.506  0.5785  0.3149 -0.0984
  770MOL0     C 6189   6.764   9.696   0.367 -0.5105  0.2044 -0.5398
  770MOL0     C 6190   6.795   9.554   0.322  1.1633 -0.6703 -0.4540
  770MOL0     H 6191   6.814   9.708  -0.091  0.7600  2.6354  1.4056
  770MOL0     H 6192   6.801   9.691  -0.351 -0.2730  1.4821 -2.4640
  770MOL0     H 6193   6.703   9.647  -0.520  2.5542 -0.4696  0.7532
  770MOL0     H 6194   6.740   9.730  -0.664  3.2975 -3.7499  3.2540
  770MOL0     H 6195   6.506   9.745  -0.719  1.1580 -2.4273 -1.7542
  770MOL0     H 6196   6.526   9.580  -0.652  1.3687 -0.4938  0.4574
  770MOL0     H 6197   6.453   9.686  -0.422 -1.1714 -3.8190 -1.2837
  770MOL0     H 6198   6.405   9.830  -0.492  0.5581 -0.1106  1.1882
  770MOL0     H 6199   6.262   9.684  -0.667  1.7714 -1.7685 -1.5098
  770MOL0     H 6200   6.310   9.543  -0.554  1.5920  0.3801 -0.1687
  770MOL0     H 6201   6.144   9.795  -0.520 -0.6996 -0.4382  1.2333
  770MOL0     H 6202   6.205   9.699  -0.383 -3.2239  0.3318  1.9360
  770MOL0     H 6203   6.041   9.502  -0.472  1.2322  0.8027  1.2077
  770MOL0     H 6204   5.961   9.653  -0.441 -1.2758 -4.0570  1.3020
  770MOL0     H 6205   6.057   9.588  -0.720 -2.1041  0.4506 -1.5310
  770MOL0     H 6206   5.953   9.718  -0.661  0.3836 -1.0163 -1.7089
  770MOL0     H 6207   5.842   9.512  -0.762 -0.6898 -2.6311  0.2703
  770MOL0     H 6208   5.882   9.437  -0.603  0.1283  0.6638  1.6170
  770MOL0     H 6209   5.784   9.532  -0.386 -0.0415 -3.6979 -3.2908
  770MOL0     H 6210   5.538   9.568  -0.236  0.9585 -0.2149 -0.8791
  770MOL0     H 6211   5.468   9.725  -0.278 -1.1345 -1.3839 -2.3439
  770MOL0     H 6212   5.754   9.684  -0.187  0.1026 -1.3907 -2.8652
  770MOL0     H 6213   5.691   9.836  -0.250 -1.0211  1.7608  2.0553
  770MOL0     H 6214   5.691   9.856  -0.029 -0.6812  1.2449 -1.7569
  770MOL0     H 6215   5.522   9.841  -0.051 -0.5640  1.6716  1.5826
  770MOL0     H 6216   5.523   9.650   0.076 -0.6200  1.9045 -0.5179
  770MOL0     H 6217   5.628   9.576  -0.027 -3.2840 -0.0321 -0.7863
  770MOL0     H 6218   5.527   9.540   0.258 -0.1082  0.2050 -0.1489
  770MOL0     H 6219   5.521   9.251   0.423  1.1931  0.7726 -0.7351
  770MOL0     H 6220   5.426   9.400   0.400  0.8017 -0.0422 -1.9595
  770MOL0     H 6221   5.514   9.365   0.559  2.7879  1.2536 -0.2044
  770MOL0     H 6222   5.871   9.257   0.869 -1.5035 -2.1263 -0.8562
  770MOL0     H 6223   5.979   9.086   1.013 -0.5367 -2.1678 -0.0394
  770MOL0     H 6224   6.328   9.081   1.060 -0.3785  0.5604 -0.3319
  770MOL0     H 6225   6.169   9.087   1.126  0.7979  0.8731  0.0640
  770MOL0     H 6226   6.262   8.928   1.277 -0.5114  3.8114  0.5300
  770MOL0     H 6227   6.183   8.829   1.159  0.8276 -0.0180 -1.0689
  770MOL0     H 6228   6.388   8.766   1.040  3.5301  1.6581 -0.9978
  770MOL0     H 6229   6.385   8.726   1.213  3.1055  0.2497  0.0445
  770MOL0     H 6230   6.512   8.923   1.263 -0.3026  2.1815 -0.4103
  770MOL0     H 6231   6.512   8.973   1.085 -1.2359 -1.5986 -1.4071
  770MOL0     H 6232   6.682   8.813   1.025 -0.2434  1.3907 -0.1942
  770MOL0     H 6233   6.723   8.892   1.181 -0.0319  0.5789  0.5959
  770MOL0     H 6234   6.766   8.650   1.186 -0.8176 -1.5259 -0.2821
  770MOL0     H 6235   6.588   8.624   1.153 -1.5183  3.5384 -0.6932
  770MOL0     H 6236   6.533   8.704   1.375 -0.8213 -0.6131 -1.4512
  770MOL0     H 6237   6.701   8.765   1.405  0.2279 -0.2829  0.3327
  770MOL0     H 6238   6.697   8.565   1.534 -0.3424  1.9833 -0.1111
  770MOL0     H 6239   6.784   8.530   1.401  1.3758  0.6266  5.7839
  770MOL0     H 6240   6.237   8.989   0.679  2.5722  2.4981  0.3273
  770MOL0     H 6241   6.123   9.133   0.540  0.0568  0.0461  0.7109
  770MOL0     H 6242   5.966   9.492   0.461  0.4339  0.6548 -0.3527
  770MOL0     H 6243   5.928   9.647   0.263 -0.0433  0.0084  0.6584
  770MOL0     H 6244   6.580  10.060  -0.344  0.7985  0.5085 -0.7791
  770MOL0     H 6245   6.621  10.078  -0.125 -3.2548 -0.4726  0.7631
  770MOL0     H 6246   6.645  10.005   0.283 -2.0785 -3.9048 -2.4675
  770MOL0     H 6247   6.700  10.042   0.530  3.2487  0.5189  0.7345
  770MOL0     H 6248   6.908   9.720   0.745 -1.0699 -1.3728 -0.3507
  770MOL0     H 6249   6.858   9.819   0.881  1.4716 -2.9185  0.9042
  770MOL0     H 6250   6.744   9.619   0.893 -0.3349  1.1291 -1.0963
  770MOL0     H 6251   6.669   9.647   0.743 -0.2115 -2.7354  0.7433
  770MOL0     H 6252   6.524   9.848   0.839  1.4704  1.2424  0.3192
  770MOL0     H 6253   6.505   9.700   0.915  1.4994 -0.0995  1.7288
  770MOL0     H 6254   6.528   9.900   1.067  0.6179  1.5765  0.0773
  770MOL0     H 6255   6.695   9.935   1.013  2.2016 -1.6483  1.5063
  770MOL0     H 6256   6.751   9.581   1.224  3.1659  0.3477  0.0426
  770MOL0     H 6257   6.841   9.646   0.568  0.5766  2.0787  2.1305
  770MOL0     H 6258   6.838   9.576   0.224 -1.5226  0.4941 -1.4650
  770MOL0     H 6259   6.872   9.501   0.379  2.3205  1.0676 -0.2947
  770MOL0     H 6260   6.701   9.502   0.305 -0.2221  1.3809  0.4963
  771MOL0     O 6261   6.340   7.890   0.524  0.5645  0.3181 -0.1834
  771MOL0     C 6262   6.224   7.920   0.503  0.3330  0.2630  0.1702
  771MOL0     O 6263   6.145   7.995   0.587 -0.4866  0.7716  0.1144
  771MOL0     C 6264   6.211   8.068   0.679 -0.0499  0.3229 -0.7133
  771MOL0     C 6265   6.151   8.198   0.684 -0.0478 -0.4025 -0.6535
  771MOL0     C 6266   6.194   8.296   0.776  0.2015 -0.1154  1.0984
  771MOL0     C 6267   6.300   8.261   0.865 -0.3414  0.3316  0.0902
  771MOL0     O 6268   6.352   8.356   0.950 -0.1549  0.2673 -0.4907
  771MOL0     C 6269   6.267   8.439   1.035 -0.0877 -0.5643  0.3097
  771MOL0     C 6270   6.208   8.344   1.141  0.2456 -0.3205 -0.8360
  771MOL0     C 6271   6.120   8.419   1.243  0.2452  0.1520  0.0177
  771MOL0     C 6272   5.983   8.460   1.173 -0.0156  0.0141 -0.1547
  771MOL0     C 6273   5.877   8.517   1.261 -0.9677 -0.1623 -1.0640
  771MOL0     C 6274   5.913   8.651   1.314 -0.5863 -0.3047  0.2983
  771MOL0     C 6275   5.818   8.705   1.413  0.6746 -1.1952 -0.2879
  771MOL0     C 6276   5.862   8.844   1.461  0.8475  0.9043  0.2024
  771MOL0     N 6277   5.801   8.945   1.379  0.7679 -0.1476 -0.1129
  771MOL0     C 6278   5.669   8.973   1.382 -0.1123 -0.4760 -0.8960
  771MOL0     C 6279   5.639   9.033   1.266  0.7084 -0.0492  0.1191
  771MOL0     C 6280   5.504   9.081   1.232  0.2663 -0.2200  0.0324
  771MOL0     C 6281   5.410   8.969   1.172 -0.1358  0.2056 -0.3002
  771MOL0     C 6282   5.282   9.038   1.127 -0.5053 -1.0910 -0.1714
  771MOL0     C 6283   5.301   9.142   1.024 -1.5008 -0.2823 -0.1362
  771MOL0     O 6284   5.284   9.271   1.095  0.3161  0.2178 -0.4910
  771MOL0     C 6285   5.233   9.371   1.020 -0.1872  0.7047  0.0045
  771MOL0     C 6286   5.303   9.495   1.020  0.0559 -0.4273 -0.0226
  771MOL0     C 6287   5.246   9.607   0.946 -0.3836  0.1816 -0.3363
  771MOL0     C 6288   5.320   9.733   0.952 -0.5970  0.1707  0.2488
  771MOL0     C 6289   5.125   9.585   0.860 -0.6632  0.3498  0.5703
  771MOL0     C 6290   5.066   9.688   0.769  0.5614  0.6185  0.5654
  771MOL0     O 6291   5.107   9.817   0.767  0.3997 -0.3583  0.7317
  771MOL0     C 6292   5.054   9.905   0.674  0.3582 -0.6974  1.2620
  771MOL0     C 6293   4.921   9.937   0.666  0.3918 -0.1096  0.7509
  771MOL0     C 6294   4.871  10.020   0.561 -0.2795  0.8178  0.0555
  771MOL0     C 6295   4.963  10.078   0.476  1.2931 -0.1050 -0.3382
  771MOL0     O 6296   4.909  10.166   0.389 -0.7232  0.2360 -0.2744
  771MOL0     C 6297   4.993  10.275   0.339 -0.3669 -0.4024 -0.9614
  771MOL0     C 6298   4.901  10.392   0.303  0.4891 -0.7504  0.8736
  771MOL0     C 6299   4.972  10.499   0.230  0.7905 -0.8611 -0.2764
  771MOL0     C 6300   4.887  10.612   0.173  0.6957 -0.0133 -1.5347
  771MOL0     C 6301   4.778  10.683   0.272  0.5455  0.2190  0.0845
  771MOL0     C 6302   4.729  10.809   0.216 -0.9639  0.5920 -0.2857
  771MOL0     C 6303   4.611  10.865   0.295  1.3604  0.8579  0.5733
  771MOL0     C 6304   4.557  10.987   0.232  0.6172 -0.1299 -0.4937
  771MOL0    Cl 6305   4.463  10.943   0.090  0.2510 -0.1815  0.0075
  771MOL0     C 6306   5.101  10.060   0.487  0.4321  1.1322  1.2027
  771MOL0     C 6307   5.142   9.971   0.580 -0.3652  0.2637 -0.0803
  771MOL0     O 6308   4.980   9.635   0.695  0.0023  0.2578  0.0647
  771MOL0     C 6309   5.067   9.457   0.868  0.6754  0.9690  0.2145
  771MOL0     C 6310   5.112   9.360   0.956  0.5832 -0.0588  0.0923
  771MOL0     N 6311   5.750   9.050   1.191 -0.2958 -0.2252  0.8740
  771MOL0     N 6312   5.848   8.997   1.264  0.2270  0.3300  0.1349
  771MOL0     C 6313   6.351   8.126   0.867 -0.4767 -0.0899 -0.0082
  771MOL0     C 6314   6.315   8.036   0.770 -0.2207  0.4858 -1.0771
  771MOL0     C 6315   6.153   7.860   0.388 -0.3010  0.7720 -0.0284
  771MOL0     C 6316   6.036   7.929   0.352  0.3661  1.5814 -0.3466
  771MOL0     C 6317   5.959   7.883   0.239 -0.9594  0.7625 -0.9285
  771MOL0     C 6318   5.988   7.764   0.176 -1.0939  1.0559  0.1838
  771MOL0     O 6319   5.918   7.714   0.071  0.1678 -0.5611 -0.4757
  771MOL0     C 6320   5.989   7.693  -0.046 -0.1104 -1.2148  0.2207
  771MOL0     C 6321   5.906   7.751  -0.158 -0.5241  0.7951 -0.2911
  771MOL0     C 6322   5.918   7.903  -0.169  0.5305  1.1624  1.0149
  771MOL0     C 6323   5.824   7.944  -0.283  0.8822  0.0695  0.1066
  771MOL0     C 6324   5.843   8.087  -0.302 -0.3323  0.1526  0.2408
  771MOL0     C 6325   5.866   8.213  -0.307  0.1123 -0.0069 -0.9967
  771MOL0     C 6326   6.103   7.691   0.221  0.6579  0.0197 -0.3024
  771MOL0     C 6327   6.191   7.742   0.317 -0.1870  0.3036  0.0108
  771MOL0     C 6328   6.314   7.664   0.334 -0.8220 -0.2124 -0.3272
  771MOL0     H 6329   6.068   8.231   0.621  0.5931  2.8234 -0.0080
  771MOL0     H 6330   6.130   8.383   0.771 -2.4450 -1.9325  0.9276
  771MOL0     H 6331   6.197   8.489   0.967  0.8210  1.0365  0.5060
  771MOL0     H 6332   6.329   8.521   1.071 -0.1965 -0.7250  0.8672
  771MOL0     H 6333   6.148   8.264   1.096  1.1043 -2.6293  1.7688
  771MOL0     H 6334   6.290   8.293   1.193 -1.5635 -1.8226  0.6987
  771MOL0     H 6335   6.104   8.350   1.327  0.2237 -0.3807 -0.4191
  771MOL0     H 6336   6.157   8.510   1.291 -1.3723  0.0840  1.4919
  771MOL0     H 6337   5.988   8.536   1.094 -3.9622  0.4465 -0.1816
  771MOL0     H 6338   5.943   8.366   1.135  3.8714 -1.5488 -0.7888
  771MOL0     H 6339   5.863   8.448   1.345  3.5325  0.0493  0.1223
  771MOL0     H 6340   5.789   8.530   1.198 -0.6270  3.6473 -0.9780
  771MOL0     H 6341   6.014   8.647   1.354  0.5147  2.3046 -1.8905
  771MOL0     H 6342   5.914   8.727   1.236  0.5033  0.0818  0.6699
  771MOL0     H 6343   5.820   8.643   1.503  1.8058  0.8160  1.1576
  771MOL0     H 6344   5.717   8.711   1.370 -1.2197 -4.5286  3.1545
  771MOL0     H 6345   5.832   8.868   1.563 -0.0570  5.2404 -0.8532
  771MOL0     H 6346   5.971   8.854   1.466  1.4807 -4.3316  3.0163
  771MOL0     H 6347   5.589   8.942   1.447  1.4705 -3.3816 -0.1485
  771MOL0     H 6348   5.501   9.161   1.158 -1.1807 -0.7782 -0.5568
  771MOL0     H 6349   5.461   9.130   1.320 -1.1716  1.0730 -1.3273
  771MOL0     H 6350   5.451   8.918   1.084  0.5561  2.0540 -1.0927
  771MOL0     H 6351   5.389   8.892   1.247 -1.0343 -0.3370 -1.0896
  771MOL0     H 6352   5.216   8.958   1.093  0.3788 -2.8498  2.0108
  771MOL0     H 6353   5.220   9.074   1.209 -0.2914 -0.5160 -0.2570
  771MOL0     H 6354   5.396   9.125   0.973 -2.3537  1.4900 -2.5397
  771MOL0     H 6355   5.226   9.136   0.944  0.4682 -0.3703 -2.0540
  771MOL0     H 6356   5.399   9.499   1.071  0.1573 -0.8951 -0.1741
  771MOL0     H 6357   5.257   9.821   0.972 -1.9031  0.7912 -5.0475
  771MOL0     H 6358   5.367   9.761   0.857 -1.9899 -1.1096 -0.8661
  771MOL0     H 6359   5.401   9.724   1.025  1.9563  2.2719 -2.0790
  771MOL0     H 6360   4.860   9.895   0.745  1.0166 -0.6388  0.9575
  771MOL0     H 6361   4.764  10.033   0.553 -0.4460 -0.9298 -1.3257
  771MOL0     H 6362   5.076  10.301   0.405  0.6014 -1.4380 -1.7293
  771MOL0     H 6363   5.049  10.238   0.253  1.6569 -0.1939  0.2099
  771MOL0     H 6364   4.823  10.345   0.242  0.1587  0.4799  0.3315
  771MOL0     H 6365   4.867  10.433   0.398  2.6553  0.3690  1.2178
  771MOL0     H 6366   5.028  10.453   0.148 -3.1676 -2.0698 -2.5685
  771MOL0     H 6367   5.038  10.532   0.310 -1.6506 -2.6295  2.6749
  771MOL0     H 6368   4.841  10.563   0.086  1.6575 -1.3646 -1.3159
  771MOL0     H 6369   4.951  10.696   0.147  0.4061  0.8559  0.4062
  771MOL0     H 6370   4.695  10.612   0.283  1.4509 -0.6494  1.6723
  771MOL0     H 6371   4.814  10.716   0.370 -2.0610  0.2310  1.0997
  771MOL0     H 6372   4.693  10.798   0.114 -1.6866 -1.7967  0.1666
  771MOL0     H 6373   4.805  10.886   0.228  0.6990 -1.0535  0.1592
  771MOL0     H 6374   4.641  10.874   0.399 -0.1298  2.0150  0.9412
  771MOL0     H 6375   4.536  10.787   0.279  1.9098  0.6006 -0.9874
  771MOL0     H 6376   4.629  11.059   0.192  0.1962  0.3171 -0.4720
  771MOL0     H 6377   4.507  11.058   0.300 -2.7212 -2.4922 -0.2657
  771MOL0     H 6378   5.168  10.112   0.419  0.6064  0.9418  1.2272
  771MOL0     H 6379   5.247   9.944   0.584 -0.1106  1.3784  1.1396
  771MOL0     H 6380   4.983   9.427   0.805  1.4387  0.9300 -0.8105
  771MOL0     H 6381   5.050   9.272   0.969  0.1793  0.1185 -0.5623
  771MOL0     H 6382   6.430   8.104   0.938 -0.9303  0.7431  0.7700
  771MOL0     H 6383   6.340   7.930   0.776 -0.9507  0.3062 -1.0892
  771MOL0     H 6384   6.016   8.022   0.405  0.2427  1.7774 -0.7305
  771MOL0     H 6385   5.861   7.927   0.218 -0.8733  0.9179 -1.0055
  771MOL0     H 6386   6.087   7.741  -0.052  0.5502 -2.7049 -2.0346
  771MOL0     H 6387   6.008   7.585  -0.056 -0.5598 -1.2591 -0.1983
  771MOL0     H 6388   5.805   7.708  -0.155 -0.8515  1.6173  1.6766
  771MOL0     H 6389   5.946   7.710  -0.251 -2.7225 -1.2261 -0.4658
  771MOL0     H 6390   5.882   7.952  -0.077  0.2838  0.8931  1.0632
  771MOL0     H 6391   6.023   7.925  -0.189  0.3199  0.4507 -1.1356
  771MOL0     H 6392   5.722   7.924  -0.247  0.5091  0.1178 -0.9047
  771MOL0     H 6393   5.837   7.884  -0.373 -1.4415 -0.5931  0.1416
  771MOL0     H 6394   5.869   8.319  -0.322 -1.5600  0.5932  2.0787
  771MOL0     H 6395   6.134   7.611   0.154 -2.0764  1.1442 -3.1462
  771MOL0     H 6396   6.305   7.611   0.430  0.8773 -0.1134 -0.0758
  771MOL0     H 6397   6.329   7.591   0.254  1.1585 -0.9128  0.6147
  771MOL0     H 6398   6.405   7.723   0.351  0.9493 -3.1936  1.5347
  772MOL0     O 6399   3.315  11.470   2.247  0.0157 -0.1202  0.5445
  772MOL0     C 6400   3.206  11.480   2.310 -0.4748  0.4162 -0.3878
  772MOL0     O 6401   3.169  11.400   2.418  0.2549 -0.3585 -0.2515
  772MOL0     C 6402   3.234  11.291   2.464 -0.6392 -0.2604  0.4857
  772MOL0     C 6403   3.225  11.171   2.392 -0.0562 -0.0171 -0.0903
  772MOL0     C 6404   3.279  11.049   2.432  0.5167 -0.0001  0.5433
  772MOL0     C 6405   3.355  11.049   2.547 -0.0632 -0.8016  0.1950
  772MOL0     O 6406   3.419  10.936   2.591  0.3763 -0.2213  0.3467
  772MOL0     C 6407   3.528  10.931   2.685 -0.6792 -0.0377 -0.7314
  772MOL0     C 6408   3.588  10.789   2.681 -0.7824 -0.9343 -0.6159
  772MOL0     C 6409   3.696  10.764   2.794  0.2820  0.1729  0.1526
  772MOL0     C 6410   3.809  10.874   2.800 -0.4744  0.1842  0.2104
  772MOL0     C 6411   3.939  10.829   2.878 -0.0952  0.2161 -0.1346
  772MOL0     C 6412   3.926  10.875   3.024 -0.5121  0.6318  0.3551
  772MOL0     C 6413   4.036  10.814   3.114  0.4362  0.2504 -0.7799
  772MOL0     C 6414   4.033  10.845   3.264 -0.0693 -0.2260  0.0882
  772MOL0     N 6415   4.046  10.985   3.292 -0.5169  0.7355  0.7385
  772MOL0     C 6416   4.141  11.048   3.376 -0.2607  0.6580  0.1130
  772MOL0     C 6417   4.084  11.176   3.379  0.2185  0.1818 -0.0813
  772MOL0     C 6418   4.168  11.291   3.436 -0.0733  0.1933  1.2232
  772MOL0     C 6419   4.103  11.423   3.389 -0.4577 -0.2008 -0.1856
  772MOL0     C 6420   4.174  11.548   3.446  0.3369 -1.1180 -0.0084
  772MOL0     C 6421   4.131  11.677   3.373  0.7291  0.5293  0.0228
  772MOL0     O 6422   4.214  11.786   3.388 -0.3059 -0.2666 -0.7649
  772MOL0     C 6423   4.289  11.799   3.505 -0.3475 -0.9001  0.7390
  772MOL0     C 6424   4.236  11.867   3.613 -0.2725  0.1350  0.0712
  772MOL0     C 6425   4.324  11.914   3.715  0.6992 -0.7258 -0.1287
  772MOL0     C 6426   4.267  11.993   3.831  0.2776  0.0843 -0.5021
  772MOL0     C 6427   4.462  11.881   3.714  1.0127 -0.2929  0.3661
  772MOL0     C 6428   4.567  11.943   3.801  0.4769  0.1340 -0.2480
  772MOL0     O 6429   4.650  11.853   3.856 -0.7458  0.2111  0.0395
  772MOL0     C 6430   4.770  11.902   3.911 -0.0429  0.7511 -0.4090
  772MOL0     C 6431   4.850  11.991   3.854 -0.3166 -0.5268  0.6095
  772MOL0     C 6432   4.982  12.016   3.910  0.0725  0.5369  1.0303
  772MOL0     C 6433   5.028  11.953   4.033 -0.0470 -0.2962  0.0055
  772MOL0     O 6434   5.146  11.987   4.095 -0.2158  0.8474 -0.4431
  772MOL0     C 6435   5.253  12.021   4.014 -0.2916 -0.4094  0.3486
  772MOL0     C 6436   5.260  12.174   3.996  0.6712  0.3647 -0.4883
  772MOL0     C 6437   5.398  12.219   3.949 -0.7605  0.3663  0.6191
  772MOL0     C 6438   5.396  12.365   3.896  0.6050 -0.0958 -0.9121
  772MOL0     C 6439   5.366  12.457   4.012 -0.6321  0.0933 -0.1050
  772MOL0     C 6440   5.221  12.507   4.016 -0.9835  0.9446  0.2851
  772MOL0     C 6441   5.223  12.598   4.138 -0.2579 -0.2422  0.0678
  772MOL0     C 6442   5.097  12.696   4.128 -1.3217  0.0842 -0.0736
  772MOL0    Cl 6443   5.089  12.756   4.294 -0.3324 -0.1182  0.6384
  772MOL0     C 6444   4.941  11.868   4.095 -0.7667  0.8374  0.0462
  772MOL0     C 6445   4.819  11.840   4.030 -0.3141  1.0145  0.1681
  772MOL0     O 6446   4.563  12.059   3.832 -0.1907  0.3932  0.5305
  772MOL0     C 6447   4.506  11.801   3.608 -0.1753  1.1882 -0.9147
  772MOL0     C 6448   4.424  11.765   3.499 -0.0221  1.1313 -0.2596
  772MOL0     N 6449   3.963  11.181   3.323  0.0898  0.6305  0.2933
  772MOL0     N 6450   3.932  11.063   3.271 -0.4092 -0.1678 -0.6984
  772MOL0     C 6451   3.372  11.165   2.627 -0.0740  0.3544  0.5335
  772MOL0     C 6452   3.310  11.287   2.579 -0.3401 -0.5871 -0.1604
  772MOL0     C 6453   3.129  11.609   2.298 -0.1173 -0.7857  0.5149
  772MOL0     C 6454   3.006  11.603   2.365  0.5072  0.4934  0.8668
  772MOL0     C 6455   2.923  11.719   2.360  0.3164  0.7337  0.1730
  772MOL0     C 6456   2.957  11.837   2.293 -0.1502  0.2259 -0.3016
  772MOL0     O 6457   2.881  11.956   2.285  0.2299 -0.2018 -0.7077
  772MOL0     C 6458   2.787  11.977   2.184 -0.5849  0.3733  0.6656
  772MOL0     C 6459   2.848  12.080   2.087  0.3351  0.1967 -0.5310
  772MOL0     C 6460   2.764  12.083   1.962  0.8398 -0.6375  0.6043
  772MOL0     C 6461   2.806  12.192   1.870  0.1143  0.5584 -0.5672
  772MOL0     C 6462   2.802  12.143   1.730  0.0954 -0.6529  0.7102
  772MOL0     C 6463   2.802  12.094   1.611  0.5386 -1.2417 -0.1945
  772MOL0     C 6464   3.086  11.849   2.246 -0.8942 -0.1508 -0.9690
  772MOL0     C 6465   3.176  11.736   2.246 -0.0268  0.3716 -0.6745
  772MOL0     C 6466   3.317  11.769   2.203  0.8006  0.4692  0.1401
  772MOL0     H 6467   3.184  11.179   2.292  1.2133  2.4745 -0.5040
  772MOL0     H 6468   3.271  10.961   2.369  1.3018  1.3789 -1.5733
  772MOL0     H 6469   3.492  10.941   2.788 -0.5015  0.0295 -0.6770
  772MOL0     H 6470   3.595  11.014   2.663 -0.5530 -0.5420 -2.3928
  772MOL0     H 6471   3.508  10.716   2.696 -0.0186 -1.4669  1.1802
  772MOL0     H 6472   3.621  10.769   2.579  0.0228 -1.1682 -0.3210
  772MOL0     H 6473   3.639  10.757   2.888 -1.1644 -0.3885 -0.7290
  772MOL0     H 6474   3.734  10.661   2.788 -0.0363  0.0664 -0.0515
  772MOL0     H 6475   3.836  10.889   2.695 -1.5048 -0.7644 -0.2198
  772MOL0     H 6476   3.753  10.959   2.840 -3.9461 -0.9085 -1.8320
  772MOL0     H 6477   4.029  10.870   2.831 -1.9119  1.1221 -3.0354
  772MOL0     H 6478   3.943  10.719   2.874  2.5502  0.2363  0.3541
  772MOL0     H 6479   3.947  10.982   3.036 -0.9432  0.7697 -0.0599
  772MOL0     H 6480   3.827  10.860   3.068 -0.2040  1.5060  1.3951
  772MOL0     H 6481   4.138  10.836   3.082  1.4279 -0.7979  1.4049
  772MOL0     H 6482   4.022  10.706   3.115 -2.5907  0.5150  1.5508
  772MOL0     H 6483   3.940  10.814   3.311  1.5026 -2.4427  1.9718
  772MOL0     H 6484   4.106  10.776   3.308 -1.3395 -1.5701  0.1542
  772MOL0     H 6485   4.226  10.996   3.418  1.8896  0.8832 -3.5479
  772MOL0     H 6486   4.271  11.291   3.398 -0.4025  0.8477  0.2883
  772MOL0     H 6487   4.171  11.291   3.545 -0.4636 -3.1527  1.3275
  772MOL0     H 6488   4.106  11.419   3.280 -3.6577 -4.5931 -0.3470
  772MOL0     H 6489   3.999  11.428   3.423 -0.5628 -3.1582  0.1299
  772MOL0     H 6490   4.141  11.570   3.548 -0.7503 -0.6956 -0.4347
  772MOL0     H 6491   4.282  11.533   3.449  0.2997 -1.2819  1.0138
  772MOL0     H 6492   4.131  11.642   3.269 -3.9715  1.7155 -0.6199
  772MOL0     H 6493   4.032  11.712   3.403  1.8841  3.9885  0.2294
  772MOL0     H 6494   4.128  11.877   3.618 -0.1037  2.2512  0.5080
  772MOL0     H 6495   4.178  11.945   3.874  0.8367 -1.4792 -0.9942
  772MOL0     H 6496   4.231  12.091   3.799 -2.6365 -0.6678  0.1034
  772MOL0     H 6497   4.343  12.010   3.907  2.0683 -0.8164 -2.0153
  772MOL0     H 6498   4.823  12.024   3.755  1.9303  1.0680  0.4694
  772MOL0     H 6499   5.037  12.085   3.847 -0.4562  0.0635  0.0231
  772MOL0     H 6500   5.343  11.987   4.066 -1.8864 -1.9216  2.3281
  772MOL0     H 6501   5.257  11.952   3.930 -1.2224 -0.2099  0.1246
  772MOL0     H 6502   5.185  12.209   3.925 -0.0879 -0.0043  0.1128
  772MOL0     H 6503   5.218  12.216   4.088 -2.0607 -1.7980 -0.6096
  772MOL0     H 6504   5.442  12.141   3.885 -0.3264  2.7468 -2.1816
  772MOL0     H 6505   5.468  12.214   4.033  2.0853 -0.5736 -1.6153
  772MOL0     H 6506   5.324  12.375   3.815  0.3227 -1.6239 -0.8710
  772MOL0     H 6507   5.496  12.374   3.853  1.1997  0.8377  0.5697
  772MOL0     H 6508   5.373  12.402   4.106 -4.1880  0.9254  0.8222
  772MOL0     H 6509   5.440  12.537   4.021 -1.7343  1.0207  1.1327
  772MOL0     H 6510   5.145  12.430   4.032 -1.7406  1.9708  1.9089
  772MOL0     H 6511   5.203  12.574   3.931  1.5786  1.2599 -0.0707
  772MOL0     H 6512   5.309  12.664   4.151 -1.8369  1.6135  1.7304
  772MOL0     H 6513   5.218  12.533   4.226  0.4478  0.1648  0.4139
  772MOL0     H 6514   5.007  12.640   4.103 -1.8240  0.1689  1.4382
  772MOL0     H 6515   5.119  12.786   4.068 -2.5670 -0.4628 -1.4059
  772MOL0     H 6516   4.963  11.822   4.191 -1.2616 -1.1746 -0.7446
  772MOL0     H 6517   4.763  11.756   4.071 -0.4098  1.0736  0.1600
  772MOL0     H 6518   4.609  11.770   3.604  0.0149  1.4557  0.8706
  772MOL0     H 6519   4.448  11.712   3.407  1.6296 -0.6941  1.1461
  772MOL0     H 6520   3.434  11.182   2.714 -1.4692  0.4337  1.5485
  772MOL0     H 6521   3.335  11.376   2.636 -1.0075  0.8801 -2.0414
  772MOL0     H 6522   2.965  11.513   2.410  1.4522 -0.1362  0.4886
  772MOL0     H 6523   2.823  11.737   2.398  0.4055  2.4862 -0.3664
  772MOL0     H 6524   2.781  11.886   2.125  0.0248 -1.6725  3.5466
  772MOL0     H 6525   2.692  12.013   2.227 -1.5151  0.3144 -1.2576
  772MOL0     H 6526   2.952  12.051   2.068  0.7829  2.6352 -2.4214
  772MOL0     H 6527   2.851  12.180   2.130 -0.1326  1.1148 -2.4884
  772MOL0     H 6528   2.780  11.985   1.916  2.8540 -1.0100  1.9374
  772MOL0     H 6529   2.660  12.105   1.986  0.6291  3.4670 -2.8538
  772MOL0     H 6530   2.910  12.213   1.894 -0.3301  1.1581  0.9718
  772MOL0     H 6531   2.758  12.287   1.893 -1.7613 -1.0103  2.8532
  772MOL0     H 6532   2.815  12.046   1.516  3.3221  0.0717 -0.5823
  772MOL0     H 6533   3.125  11.942   2.206  1.1948 -0.2431  0.6927
  772MOL0     H 6534   3.328  11.873   2.170  1.6402 -0.7118 -3.8567
  772MOL0     H 6535   3.374  11.749   2.294  2.7733 -2.0237 -1.5371
  772MOL0     H 6536   3.338  11.700   2.121  0.3275 -2.6351  2.4411
  773MOL0     O 6537   9.044  10.893   7.732  0.2224 -0.2292  0.0587
  773MOL0     C 6538   8.999  10.782   7.736  0.9484 -0.9061  0.1176
  773MOL0     O 6539   9.060  10.674   7.677  0.0061 -0.4651 -0.0075
  773MOL0     C 6540   9.162  10.681   7.588  0.3523 -0.1339 -0.3547
  773MOL0     C 6541   9.298  10.654   7.626  1.1429  0.0937 -0.3337
  773MOL0     C 6542   9.397  10.651   7.531  0.5056 -0.9561  0.3445
  773MOL0     C 6543   9.361  10.660   7.390 -0.5266 -0.1524  0.1325
  773MOL0     O 6544   9.455  10.649   7.284  0.9799  0.5251 -0.1202
  773MOL0     C 6545   9.596  10.660   7.324  1.2942  0.1114  1.1957
  773MOL0     C 6546   9.690  10.692   7.200 -0.0002  0.5671  1.0086
  773MOL0     C 6547   9.841  10.671   7.233 -0.0514 -0.1164 -0.5699
  773MOL0     C 6548   9.921  10.728   7.126 -0.1841 -0.4833 -0.4574
  773MOL0     C 6549  10.074  10.708   7.132 -0.1101  0.1125  0.1598
  773MOL0     C 6550  10.140  10.780   7.013 -0.1466 -0.9601  0.9865
  773MOL0     C 6551  10.295  10.756   7.025 -0.3617  0.2617  0.1690
  773MOL0     C 6552  10.364  10.849   6.924 -0.1346 -0.1849 -0.2028
  773MOL0     N 6553  10.502  10.808   6.912 -0.4780  0.3066 -1.1813
  773MOL0     C 6554  10.551  10.695   6.848  0.5213 -0.2361 -0.3192
  773MOL0     C 6555  10.686  10.694   6.883  0.5684  0.2057  0.2923
  773MOL0     C 6556  10.782  10.598   6.825  0.2645 -0.2027 -0.2111
  773MOL0     C 6557  10.766  10.580   6.674 -0.0565 -0.4683  1.0468
  773MOL0     C 6558  10.894  10.521   6.612 -0.2418 -0.0546 -0.8472
  773MOL0     C 6559  11.005  10.633   6.596  0.1967 -0.1257 -0.0853
  773MOL0     O 6560  11.114  10.581   6.519  0.5760  0.3325  0.4689
  773MOL0     C 6561  11.183  10.660   6.429  0.7543  0.6374 -0.2738
  773MOL0     C 6562  11.269  10.584   6.352 -0.3965  0.3644 -0.2086
  773MOL0     C 6563  11.370  10.641   6.271  0.4228  0.1711  0.4778
  773MOL0     C 6564  11.460  10.546   6.194 -0.5660  0.1120 -0.0018
  773MOL0     C 6565  11.378  10.779   6.260  0.5116 -0.1630  0.0727
  773MOL0     C 6566  11.484  10.849   6.178 -0.2740  0.3040 -0.2884
  773MOL0     O 6567  11.526  10.967   6.225 -0.1094 -0.0957 -0.2626
  773MOL0     C 6568  11.649  11.018   6.196  0.4431 -0.5896 -0.9311
  773MOL0     C 6569  11.768  10.940   6.183 -0.2566  0.9512 -0.1601
  773MOL0     C 6570  11.891  10.993   6.164  0.0861 -0.0530 -0.5793
  773MOL0     C 6571  11.901  11.126   6.119 -0.9734  0.4664 -0.4143
  773MOL0     O 6572  12.009  11.194   6.073 -0.6553  0.2632  0.3693
  773MOL0     C 6573  12.141  11.126   6.092  0.8577 -0.2338 -0.7133
  773MOL0     C 6574  12.253  11.227   6.109  0.4741 -0.3396  0.3662
  773MOL0     C 6575  12.215  11.360   6.194 -0.5770 -0.4100  0.4557
  773MOL0     C 6576  12.161  11.336   6.336  0.6581  0.8156  0.0678
  773MOL0     C 6577  12.156  11.469   6.420 -1.1400  0.1724 -0.0821
  773MOL0     C 6578  12.301  11.498   6.487 -0.1460  0.2966  0.1556
  773MOL0     C 6579  12.273  11.612   6.581 -0.8227  0.0754 -0.4615
  773MOL0     C 6580  12.226  11.736   6.521 -1.1398 -0.8293 -0.6934
  773MOL0    Cl 6581  12.285  11.882   6.599  0.2859  0.1535 -0.0621
  773MOL0     C 6582  11.784  11.202   6.116  0.2066  0.0644  0.3868
  773MOL0     C 6583  11.655  11.149   6.160  0.1517 -0.2074 -0.2440
  773MOL0     O 6584  11.524  10.797   6.077 -0.3784 -0.5494  0.1648
  773MOL0     C 6585  11.283  10.859   6.323  0.6802 -0.3081 -0.2097
  773MOL0     C 6586  11.189  10.804   6.413  0.2237 -0.9146  0.3962
  773MOL0     N 6587  10.716  10.806   6.966 -0.2055 -0.0490 -0.0057
  773MOL0     N 6588  10.601  10.869   6.992 -0.4242 -0.0620  0.4365
  773MOL0     C 6589   9.226  10.674   7.345 -0.1343 -0.6181 -0.5242
  773MOL0     C 6590   9.130  10.681   7.448  0.1297 -0.2549 -0.1952
  773MOL0     C 6591   8.873  10.762   7.814 -0.5164  0.6595  0.0474
  773MOL0     C 6592   8.831  10.630   7.841  0.2587  0.4740  0.0062
  773MOL0     C 6593   8.729  10.600   7.933 -0.4451  0.5383  0.5299
  773MOL0     C 6594   8.651  10.704   7.982  0.2564 -0.0323 -0.7282
  773MOL0     O 6595   8.557  10.662   8.077  0.4393  0.5953 -0.3421
  773MOL0     C 6596   8.485  10.764   8.143  0.4483 -0.6747 -0.6575
  773MOL0     C 6597   8.383  10.713   8.251  0.8942  0.7766 -0.3524
  773MOL0     C 6598   8.446  10.594   8.340 -0.1899  0.2138  0.1198
  773MOL0     C 6599   8.568  10.644   8.431  0.4805  0.0289  0.1933
  773MOL0     C 6600   8.689  10.577   8.385  0.2926  0.2487 -0.6830
  773MOL0     C 6601   8.789  10.548   8.329  0.6082  0.2001  1.3143
  773MOL0     C 6602   8.681  10.834   7.950  0.0935  1.0929  0.5854
  773MOL0     C 6603   8.794  10.864   7.876 -0.3122  0.2729  0.2568
  773MOL0     C 6604   8.798  11.011   7.837  0.8170 -1.0937  0.0251
  773MOL0     H 6605   9.325  10.642   7.731 -0.3678  0.3865  0.1208
  773MOL0     H 6606   9.498  10.653   7.572  0.1227  2.3669  1.4696
  773MOL0     H 6607   9.643  10.572   7.368  0.9593 -0.3425  0.6536
  773MOL0     H 6608   9.611  10.750   7.385  1.7500  0.0687  1.1511
  773MOL0     H 6609   9.662  10.637   7.110  0.6952  0.7336  0.6836
  773MOL0     H 6610   9.671  10.797   7.177 -1.1265  0.8332  2.9795
  773MOL0     H 6611   9.872  10.725   7.323  1.9186  0.9180 -1.7810
  773MOL0     H 6612   9.870  10.567   7.247  0.6485  0.1541  0.1118
  773MOL0     H 6613   9.875  10.691   7.034  2.2835 -4.6821 -0.2784
  773MOL0     H 6614   9.914  10.837   7.130  0.0990 -0.3470 -2.6338
  773MOL0     H 6615  10.112  10.606   7.122 -0.5565  0.1992 -3.7112
  773MOL0     H 6616  10.111  10.747   7.227 -1.5046  1.2291  0.2685
  773MOL0     H 6617  10.110  10.742   6.915  2.6654 -1.0200  0.0814
  773MOL0     H 6618  10.119  10.887   7.018  0.7865 -0.6240 -1.4378
  773MOL0     H 6619  10.322  10.652   7.004  0.4343  0.9175 -2.4782
  773MOL0     H 6620  10.335  10.773   7.125 -1.5870  0.7622  0.5978
  773MOL0     H 6621  10.311  10.849   6.829  0.0321  3.2052 -0.4305
  773MOL0     H 6622  10.357  10.955   6.953 -0.4301  0.1830 -1.5378
  773MOL0     H 6623  10.488  10.632   6.786  1.6345 -1.5763 -0.1228
  773MOL0     H 6624  10.759  10.501   6.870 -3.0101  1.1970  1.4558
  773MOL0     H 6625  10.876  10.632   6.868  0.4069 -0.4278 -0.3416
  773MOL0     H 6626  10.680  10.516   6.651 -2.9429  3.9681 -1.8986
  773MOL0     H 6627  10.734  10.677   6.637  0.3129 -0.4948  0.6534
  773MOL0     H 6628  10.936  10.440   6.672 -1.2436  0.2124  0.2551
  773MOL0     H 6629  10.875  10.492   6.508 -1.0189  1.4664 -1.1596
  773MOL0     H 6630  10.958  10.721   6.551  2.0723  0.8070 -0.3479
  773MOL0     H 6631  11.046  10.660   6.694  2.0863 -0.1105 -0.8455
  773MOL0     H 6632  11.270  10.476   6.360 -1.4045  0.4423  1.4319
  773MOL0     H 6633  11.431  10.545   6.088  1.5949 -0.1383 -0.6276
  773MOL0     H 6634  11.442  10.443   6.228  0.2643  0.0251  0.1753
  773MOL0     H 6635  11.564  10.567   6.219 -1.3163  1.4591  2.1880
  773MOL0     H 6636  11.769  10.836   6.215  1.4692  1.2899  1.0410
  773MOL0     H 6637  11.975  10.929   6.186  0.7692  0.7608 -0.7663
  773MOL0     H 6638  12.149  11.062   6.181 -0.2978 -2.5550 -2.1730
  773MOL0     H 6639  12.164  11.062   6.007  0.1217 -0.5177 -0.7120
  773MOL0     H 6640  12.337  11.180   6.161  0.1292 -1.5958 -0.1579
  773MOL0     H 6641  12.290  11.256   6.011  0.7375 -2.1852 -0.1174
  773MOL0     H 6642  12.138  11.416   6.142  0.7723  3.3211  2.1532
  773MOL0     H 6643  12.300  11.428   6.203 -0.7928 -0.0094 -0.4687
  773MOL0     H 6644  12.232  11.272   6.389  2.4009  1.4623 -1.3710
  773MOL0     H 6645  12.063  11.289   6.326  2.3304 -3.5073  1.8886
  773MOL0     H 6646  12.127  11.556   6.361  0.1753  0.1918 -0.7511
  773MOL0     H 6647  12.082  11.460   6.500 -0.4184  0.9149  0.6901
  773MOL0     H 6648  12.371  11.526   6.407 -1.8841  1.4011 -1.0458
  773MOL0     H 6649  12.349  11.413   6.538  0.1475  0.0262 -0.5489
  773MOL0     H 6650  12.372  11.639   6.620 -2.3520  2.3570  2.2803
  773MOL0     H 6651  12.202  11.582   6.659 -0.0521 -1.1181 -0.1874
  773MOL0     H 6652  12.118  11.735   6.534 -0.7657 -0.1847  6.8353
  773MOL0     H 6653  12.256  11.740   6.416  3.1203 -3.6893  0.1653
  773MOL0     H 6654  11.788  11.301   6.071 -1.1047 -0.1285 -0.2082
  773MOL0     H 6655  11.567  11.212   6.166 -1.0590 -1.5211 -2.7475
  773MOL0     H 6656  11.286  10.968   6.315 -2.2432 -0.2439 -1.4391
  773MOL0     H 6657  11.126  10.877   6.462 -0.5816 -1.7716  0.6551
  773MOL0     H 6658   9.190  10.672   7.242 -0.0020  0.2231 -0.5932
  773MOL0     H 6659   9.026  10.699   7.423 -0.2877  0.7283  2.0192
  773MOL0     H 6660   8.892  10.550   7.799 -1.4524 -2.1894  2.2125
  773MOL0     H 6661   8.708  10.496   7.956 -0.4635  0.2456 -0.7714
  773MOL0     H 6662   8.550  10.834   8.196  0.3019 -2.0747  1.5044
  773MOL0     H 6663   8.418  10.823   8.079 -2.6312 -2.4392  0.6918
  773MOL0     H 6664   8.295  10.669   8.202  0.3607 -0.2402  1.4306
  773MOL0     H 6665   8.349  10.793   8.317  2.1702 -1.0850  2.7837
  773MOL0     H 6666   8.372  10.545   8.403  0.8471 -3.6783 -1.4050
  773MOL0     H 6667   8.472  10.516   8.268 -1.7791  1.2392 -1.6560
  773MOL0     H 6668   8.539  10.638   8.536 -2.9745  2.4722 -0.4302
  773MOL0     H 6669   8.579  10.750   8.407  2.2558  0.1559  1.4414
  773MOL0     H 6670   8.869  10.517   8.265 -0.6494  1.4686 -1.0535
  773MOL0     H 6671   8.618  10.915   7.986 -2.8135 -0.4475 -0.6565
  773MOL0     H 6672   8.902  11.046   7.829  0.3487  0.1374 -0.9624
  773MOL0     H 6673   8.733  11.017   7.749 -1.0863 -0.4704  1.4141
  773MOL0     H 6674   8.751  11.085   7.903  2.4662  2.3869 -2.3554
  774MOL0     O 6675  10.717   2.605   5.344 -0.0191 -0.2103 -0.2021
  774MOL0     C 6676  10.784   2.669   5.260  0.4701  0.3366 -0.4749
  774MOL0     O 6677  10.750   2.683   5.129  0.3673 -0.3112  0.1577
  774MOL0     C 6678  10.620   2.653   5.099 -0.8517  0.2559  0.5592
  774MOL0     C 6679  10.567   2.528   5.123 -0.1672 -0.4593  0.6641
  774MOL0     C 6680  10.432   2.498   5.078  0.2820 -0.2322  0.0504
  774MOL0     C 6681  10.360   2.605   5.023  0.2003  0.2002  0.2154
  774MOL0     O 6682  10.230   2.582   4.988 -0.5047  0.5623  0.8324
  774MOL0     C 6683  10.138   2.675   5.036  0.3906 -0.2791 -0.2883
  774MOL0     C 6684  10.023   2.589   5.079 -0.3655  0.3308 -0.0092
  774MOL0     C 6685   9.968   2.491   4.977 -0.9470  0.3509  0.4861
  774MOL0     C 6686   9.839   2.425   5.028  0.0708  0.4657 -0.4339
  774MOL0     C 6687   9.785   2.324   4.931 -0.0264  0.4109 -0.6007
  774MOL0     C 6688   9.665   2.237   4.991 -0.3552 -0.1706 -0.2662
  774MOL0     C 6689   9.688   2.179   5.122  0.9666 -0.0509 -0.3503
  774MOL0     C 6690   9.637   2.262   5.250 -0.8099  0.4409  0.4531
  774MOL0     N 6691   9.670   2.200   5.385  0.1567  0.6413  0.1584
  774MOL0     C 6692   9.743   2.260   5.490 -0.3879  0.5200  1.0387
  774MOL0     C 6693   9.746   2.162   5.584  0.0374  0.2170  0.2595
  774MOL0     C 6694   9.805   2.158   5.716 -0.0472  0.4939 -0.0852
  774MOL0     C 6695   9.707   2.229   5.814 -0.2482 -0.5149  0.1609
  774MOL0     C 6696   9.772   2.271   5.947  0.8893  0.4767  0.2486
  774MOL0     C 6697   9.666   2.323   6.049  0.5093 -0.1922 -0.1562
  774MOL0     O 6698   9.655   2.467   6.056  0.4203 -0.3938  0.0952
  774MOL0     C 6699   9.530   2.516   6.060 -0.0993 -1.2299 -0.1912
  774MOL0     C 6700   9.527   2.644   6.022  0.2242  0.7095 -0.2004
  774MOL0     C 6701   9.419   2.724   6.030  0.6766 -0.1890 -0.4619
  774MOL0     C 6702   9.431   2.872   6.001 -0.7258  0.4016 -0.1500
  774MOL0     C 6703   9.298   2.660   6.076  0.3959  0.6449 -0.9246
  774MOL0     C 6704   9.169   2.732   6.087  0.1495 -0.5838 -0.9974
  774MOL0     O 6705   9.149   2.848   6.016  0.6230 -0.6655 -0.0763
  774MOL0     C 6706   9.021   2.903   5.997  1.2284 -0.0418  0.8842
  774MOL0     C 6707   8.898   2.837   5.986  0.0745  0.9634  0.2503
  774MOL0     C 6708   8.777   2.911   5.966  0.0258  0.6872 -1.5988
  774MOL0     C 6709   8.783   3.049   5.935  0.4246 -0.4859 -0.2437
  774MOL0     O 6710   8.668   3.120   5.907  0.0260 -0.0327 -0.1684
  774MOL0     C 6711   8.597   3.065   5.790  0.1451  0.2464  0.8122
  774MOL0     C 6712   8.676   3.073   5.660  0.0674  0.6098 -0.6478
  774MOL0     C 6713   8.596   3.001   5.547 -0.2472  0.2459  0.0630
  774MOL0     C 6714   8.683   2.983   5.416 -0.1968  0.1172  0.0505
  774MOL0     C 6715   8.723   3.110   5.354  0.4828 -0.0339  0.0385
  774MOL0     C 6716   8.753   3.116   5.210 -0.5594  0.0247  0.0898
  774MOL0     C 6717   8.872   3.016   5.177  0.1070  0.5565 -0.9986
  774MOL0     C 6718   8.936   3.040   5.042 -0.0042 -0.2718  0.7104
  774MOL0    Cl 6719   9.096   2.954   5.037 -0.0088  0.0554 -0.3979
  774MOL0     C 6720   8.901   3.110   5.945 -0.2570 -0.4276 -0.4992
  774MOL0     C 6721   9.025   3.041   5.973 -0.3264 -0.0659  0.6225
  774MOL0     O 6722   9.087   2.677   6.161  0.4361 -0.1890 -0.0958
  774MOL0     C 6723   9.302   2.523   6.119  0.0451 -0.6697  0.8238
  774MOL0     C 6724   9.416   2.447   6.113  0.1687  0.1071  0.2555
  774MOL0     N 6725   9.661   2.058   5.542  0.4355  0.2620 -0.8812
  774MOL0     N 6726   9.615   2.083   5.428 -0.3696 -0.7844  1.1543
  774MOL0     C 6727  10.414   2.728   4.987  0.5960  0.1065 -0.9005
  774MOL0     C 6728  10.548   2.750   5.032  0.0796 -0.3401 -0.2647
  774MOL0     C 6729  10.912   2.717   5.312 -0.7047  0.5240 -0.6875
  774MOL0     C 6730  11.003   2.770   5.222 -0.5803  0.4874  0.3177
  774MOL0     C 6731  11.134   2.823   5.255  0.0239  0.1290  1.0355
  774MOL0     C 6732  11.177   2.824   5.384 -0.6485 -0.2658  0.8260
  774MOL0     O 6733  11.294   2.876   5.421  0.1046 -0.0356 -0.5289
  774MOL0     C 6734  11.405   2.856   5.328  1.0105 -0.3704 -1.0106
  774MOL0     C 6735  11.538   2.837   5.404  0.2233 -0.5646 -0.3619
  774MOL0     C 6736  11.577   2.969   5.490  0.6840  0.1913  0.5550
  774MOL0     C 6737  11.604   3.089   5.389 -0.4690 -0.4043  1.2920
  774MOL0     C 6738  11.662   3.210   5.452 -0.1932  0.0419 -0.2863
  774MOL0     C 6739  11.694   3.309   5.508 -1.3303  0.9328 -0.2033
  774MOL0     C 6740  11.081   2.784   5.480  0.5941  0.5141  0.5990
  774MOL0     C 6741  10.949   2.731   5.444  0.9182 -0.9302  0.5651
  774MOL0     C 6742  10.857   2.691   5.557  0.5815 -0.4756 -0.4628
  774MOL0     H 6743  10.631   2.458   5.176  3.1430 -0.4526 -2.8867
  774MOL0     H 6744  10.394   2.398   5.097  1.5844 -0.8559 -0.4744
  774MOL0     H 6745  10.117   2.738   4.949 -1.0291 -0.1367  0.1285
  774MOL0     H 6746  10.171   2.725   5.128  0.1882 -0.8577  0.1042
  774MOL0     H 6747  10.065   2.529   5.160  3.0760  0.5199 -1.4769
  774MOL0     H 6748   9.943   2.654   5.116  0.8815  0.8455  1.8937
  774MOL0     H 6749   9.947   2.540   4.881  1.7369 -0.1744 -0.4532
  774MOL0     H 6750  10.046   2.415   4.968 -0.1969  1.1848 -0.2172
  774MOL0     H 6751   9.861   2.375   5.123  2.1641 -2.1087 -2.1422
  774MOL0     H 6752   9.759   2.497   5.048  0.1706  0.0173  1.8869
  774MOL0     H 6753   9.858   2.258   4.882 -2.6837 -1.0710 -2.8328
  774MOL0     H 6754   9.731   2.378   4.853 -1.3381  0.4608  0.3318
  774MOL0     H 6755   9.582   2.308   4.991 -0.1393  0.1147 -1.8897
  774MOL0     H 6756   9.629   2.163   4.920 -0.4070 -1.7034  1.2959
  774MOL0     H 6757   9.796   2.161   5.130  0.7723 -0.8320  0.7228
  774MOL0     H 6758   9.627   2.089   5.133  0.2626  0.3226 -1.0964
  774MOL0     H 6759   9.685   2.361   5.250  1.1497 -0.3273 -2.9233
  774MOL0     H 6760   9.529   2.274   5.237 -1.2197 -2.5730  0.4764
  774MOL0     H 6761   9.805   2.349   5.485  2.4778 -1.4243 -1.2110
  774MOL0     H 6762   9.902   2.208   5.709  0.9217 -1.2134  0.3237
  774MOL0     H 6763   9.804   2.055   5.753 -4.2077  0.5500  0.3884
  774MOL0     H 6764   9.671   2.318   5.762 -2.7603 -0.4676  1.7923
  774MOL0     H 6765   9.613   2.177   5.839 -2.8196  3.3154 -0.6532
  774MOL0     H 6766   9.813   2.180   5.991  1.5604  0.1688 -0.9455
  774MOL0     H 6767   9.863   2.329   5.924  0.0533  0.7363 -2.8249
  774MOL0     H 6768   9.574   2.270   6.022 -0.5431  1.3899  0.1706
  774MOL0     H 6769   9.687   2.298   6.154 -3.2844  3.0016  1.6532
  774MOL0     H 6770   9.619   2.694   5.992  1.7971 -2.4253 -0.9879
  774MOL0     H 6771   9.394   2.929   6.087  1.8287  1.5161  0.2821
  774MOL0     H 6772   9.365   2.880   5.913 -0.4677  1.5249 -0.2598
  774MOL0     H 6773   9.531   2.911   5.982 -0.7159 -0.2558 -1.6282
  774MOL0     H 6774   8.882   2.730   5.995  0.6621  1.0227  2.9165
  774MOL0     H 6775   8.677   2.870   5.971 -0.3093  1.3776 -2.3642
  774MOL0     H 6776   8.563   2.962   5.805 -3.9516  1.2525 -0.1719
  774MOL0     H 6777   8.507   3.123   5.770  0.3657 -0.2386 -1.9581
  774MOL0     H 6778   8.693   3.179   5.641 -2.7172  0.9467 -1.7217
  774MOL0     H 6779   8.764   3.013   5.689 -1.1915 -1.0246 -0.0448
  774MOL0     H 6780   8.504   3.054   5.523 -0.6283 -0.5978 -0.3817
  774MOL0     H 6781   8.572   2.895   5.563  0.1415  0.2416  0.6541
  774MOL0     H 6782   8.629   2.914   5.350  0.2044  0.9121 -1.1229
  774MOL0     H 6783   8.773   2.925   5.441 -0.6927 -1.0635 -0.8213
  774MOL0     H 6784   8.644   3.185   5.367  0.3856 -0.1840  0.3083
  774MOL0     H 6785   8.805   3.144   5.418 -1.0439 -2.0323  3.2844
  774MOL0     H 6786   8.782   3.214   5.171 -0.1007  0.8059  2.2536
  774MOL0     H 6787   8.671   3.090   5.143  2.0102 -1.4956 -2.6977
  774MOL0     H 6788   8.831   2.914   5.180  0.9220  0.2066  2.0303
  774MOL0     H 6789   8.948   3.023   5.255 -1.2136  0.4929  0.3341
  774MOL0     H 6790   8.965   3.145   5.037 -0.8777 -0.0589 -2.4375
  774MOL0     H 6791   8.870   3.005   4.962  0.0146  3.6471 -1.2635
  774MOL0     H 6792   8.904   3.217   5.928 -0.2946 -0.3395  0.0479
  774MOL0     H 6793   9.128   3.075   5.969  0.0032 -1.0775 -2.9006
  774MOL0     H 6794   9.213   2.485   6.168  0.1780 -2.1473 -0.0250
  774MOL0     H 6795   9.398   2.346   6.147  0.1784  0.3390  0.9540
  774MOL0     H 6796  10.353   2.810   4.950 -1.2374  0.7866  3.0252
  774MOL0     H 6797  10.598   2.838   4.993  2.9943 -1.9854 -0.5653
  774MOL0     H 6798  10.968   2.790   5.122 -0.4740 -1.7797 -0.2125
  774MOL0     H 6799  11.202   2.878   5.190  1.0184 -1.6868  0.4912
  774MOL0     H 6800  11.376   2.767   5.271 -2.4411  0.6113 -1.0098
  774MOL0     H 6801  11.420   2.941   5.261  1.7088 -1.0886 -1.7923
  774MOL0     H 6802  11.625   2.814   5.342  1.2447 -0.3113  0.9113
  774MOL0     H 6803  11.519   2.763   5.482  2.9090  1.1612  2.1586
  774MOL0     H 6804  11.497   2.992   5.561 -2.0458 -0.3829 -2.1314
  774MOL0     H 6805  11.670   2.966   5.548  1.8066 -2.2815 -1.2144
  774MOL0     H 6806  11.515   3.129   5.339  0.3567 -0.0340  0.0706
  774MOL0     H 6807  11.673   3.064   5.308 -0.5870  2.6479  0.1138
  774MOL0     H 6808  11.728   3.399   5.554  0.5191  0.7919 -1.2116
  774MOL0     H 6809  11.098   2.776   5.587 -0.1152 -1.2318  0.6121
  774MOL0     H 6810  10.778   2.767   5.563  1.3233  0.4858 -2.2718
  774MOL0     H 6811  10.821   2.587   5.557 -1.6644 -0.0805  5.1428
  774MOL0     H 6812  10.904   2.700   5.655 -0.6354 -1.4288  0.2428
  775MOL0     O 6813  11.469   5.240   7.318 -0.1372  0.5374  0.1030
  775MOL0     C 6814  11.363   5.190   7.287  0.9635  0.0029 -0.0526
  775MOL0     O 6815  11.269   5.253   7.202  0.1809 -0.3216  0.8670
  775MOL0     C 6816  11.278   5.391   7.202 -0.7556 -0.6619  0.3036
  775MOL0     C 6817  11.184   5.468   7.272  1.2700  0.1254 -0.6408
  775MOL0     C 6818  11.198   5.604   7.281 -0.2169  0.1977 -0.3942
  775MOL0     C 6819  11.302   5.671   7.208 -0.4629  0.0734  0.0239
  775MOL0     O 6820  11.315   5.809   7.206  0.0738 -0.1069 -0.3657
  775MOL0     C 6821  11.206   5.870   7.129 -0.7221  0.0150 -0.0234
  775MOL0     C 6822  11.165   5.990   7.211 -0.1133  0.1177 -0.5443
  775MOL0     C 6823  11.037   6.062   7.177 -0.5837  0.2513 -0.0888
  775MOL0     C 6824  11.004   6.161   7.289  0.5436 -0.4869  0.8176
  775MOL0     C 6825  10.864   6.218   7.268 -0.3473 -0.5955 -0.8257
  775MOL0     C 6826  10.834   6.275   7.133  1.0503  0.6085  0.1785
  775MOL0     C 6827  10.686   6.323   7.146 -0.7811 -0.4027  0.1206
  775MOL0     C 6828  10.600   6.225   7.078 -0.0180 -0.3116  0.7539
  775MOL0     N 6829  10.459   6.261   7.097  0.3770 -0.5142  0.2623
  775MOL0     C 6830  10.405   6.384   7.070 -0.0186  0.2058 -0.5102
  775MOL0     C 6831  10.280   6.386   7.107 -0.7115  0.4845 -0.0921
  775MOL0     C 6832  10.174   6.496   7.094 -0.5398  0.0577 -0.2294
  775MOL0     C 6833  10.166   6.588   7.212  0.6528  0.0901 -0.3973
  775MOL0     C 6834  10.005   6.619   7.230 -0.3451  0.1784 -0.1822
  775MOL0     C 6835   9.974   6.734   7.320 -0.5131 -0.0297  0.0656
  775MOL0     O 6836  10.001   6.685   7.445  0.4315  0.2665  0.3651
  775MOL0     C 6837  10.055   6.771   7.526 -0.1394 -0.4473 -0.1527
  775MOL0     C 6838   9.993   6.885   7.576  0.9655 -0.9786 -0.2007
  775MOL0     C 6839  10.048   6.977   7.668  0.7911 -0.3010 -1.2371
  775MOL0     C 6840   9.963   7.098   7.716  0.8674 -0.0678 -1.1262
  775MOL0     C 6841  10.186   6.962   7.704  0.2425 -0.5837  0.2936
  775MOL0     C 6842  10.272   7.056   7.792 -0.5767 -0.5505 -0.6723
  775MOL0     O 6843  10.367   6.986   7.873 -0.4617 -0.9464  0.8041
  775MOL0     C 6844  10.420   7.060   7.971 -0.7096  0.6866 -0.2850
  775MOL0     C 6845  10.369   7.155   8.067  0.1936 -0.6003  0.9874
  775MOL0     C 6846  10.451   7.238   8.144  0.6384 -0.1783 -0.3921
  775MOL0     C 6847  10.596   7.220   8.139  0.0587 -0.4464 -0.7815
  775MOL0     O 6848  10.674   7.301   8.216 -0.8483  0.1514 -0.0276
  775MOL0     C 6849  10.802   7.340   8.163 -0.1658 -0.8277 -0.5169
  775MOL0     C 6850  10.892   7.428   8.260  1.1841 -0.0447 -0.0985
  775MOL0     C 6851  10.939   7.357   8.388 -0.5138 -0.0396 -0.3452
  775MOL0     C 6852  11.023   7.439   8.498 -0.4031  0.1645 -0.2441
  775MOL0     C 6853  11.128   7.525   8.437 -0.5718 -0.0756  0.1144
  775MOL0     C 6854  11.218   7.593   8.540 -1.5772 -0.2560  0.5014
  775MOL0     C 6855  11.350   7.665   8.494  0.1056  0.1344  0.2913
  775MOL0     C 6856  11.336   7.812   8.495 -0.2903  0.1006 -0.0754
  775MOL0    Cl 6857  11.182   7.884   8.418  0.1784  0.3719  0.2915
  775MOL0     C 6858  10.647   7.131   8.046 -0.6415 -1.1882  0.4524
  775MOL0     C 6859  10.558   7.061   7.964 -0.2140 -0.0283  0.6422
  775MOL0     O 6860  10.258   7.177   7.779  0.1304 -0.3266  0.2566
  775MOL0     C 6861  10.244   6.833   7.672 -0.7325  0.3365  0.4761
  775MOL0     C 6862  10.181   6.744   7.586 -0.6216  0.5608 -0.0724
  775MOL0     N 6863  10.254   6.258   7.164 -0.1349  0.0793  0.0586
  775MOL0     N 6864  10.366   6.192   7.163  0.7771 -0.3093  0.2739
  775MOL0     C 6865  11.398   5.593   7.128  0.8175  0.3084  0.0416
  775MOL0     C 6866  11.381   5.454   7.134  0.0532 -0.3510  0.6860
  775MOL0     C 6867  11.341   5.044   7.331  0.2749  0.6144  1.0484
  775MOL0     C 6868  11.446   4.967   7.382 -0.0973 -0.0879 -0.3171
  775MOL0     C 6869  11.433   4.829   7.393 -0.7591 -0.1218 -0.2012
  775MOL0     C 6870  11.312   4.768   7.381 -0.4310 -0.2224 -1.1983
  775MOL0     O 6871  11.306   4.632   7.411  0.6802  0.3957 -0.1338
  775MOL0     C 6872  11.318   4.547   7.301 -0.6887 -0.6711  0.9473
  775MOL0     C 6873  11.209   4.439   7.306  0.1710  0.3288 -0.7681
  775MOL0     C 6874  11.225   4.358   7.433 -0.2420  0.0471 -0.5242
  775MOL0     C 6875  11.114   4.262   7.460 -0.8670  0.9503  0.6179
  775MOL0     C 6876  11.096   4.151   7.363 -0.6524  0.8906 -0.1410
  775MOL0     C 6877  11.097   4.062   7.286 -0.5200  0.6819  0.7047
  775MOL0     C 6878  11.195   4.841   7.334 -0.1290  1.0141  0.4714
  775MOL0     C 6879  11.208   4.984   7.317  0.6228  0.2315 -0.4769
  775MOL0     C 6880  11.087   5.059   7.277  0.1741  0.1799 -0.0436
  775MOL0     H 6881  11.101   5.425   7.328  0.1656  1.9252 -0.8340
  775MOL0     H 6882  11.130   5.660   7.345  0.5588  2.3888 -1.3740
  775MOL0     H 6883  11.120   5.804   7.114 -0.4065 -0.5933  0.7812
  775MOL0     H 6884  11.250   5.902   7.034 -3.2123 -1.2685 -1.7265
  775MOL0     H 6885  11.166   5.952   7.314 -3.0438 -1.1506 -0.8935
  775MOL0     H 6886  11.256   6.051   7.207  1.1002 -1.6422 -1.9673
  775MOL0     H 6887  11.040   6.115   7.081 -0.1663  0.3002 -0.0494
  775MOL0     H 6888  10.962   5.983   7.170  1.0846 -1.6528  2.0132
  775MOL0     H 6889  11.005   6.123   7.391  1.0577  1.3709  1.5455
  775MOL0     H 6890  11.082   6.236   7.303  1.4408 -1.2811  0.2514
  775MOL0     H 6891  10.863   6.299   7.342  1.1388 -0.7433 -0.6094
  775MOL0     H 6892  10.787   6.144   7.293  1.5361 -1.4541  3.2148
  775MOL0     H 6893  10.903   6.357   7.111  3.9951 -1.1242  2.1126
  775MOL0     H 6894  10.845   6.198   7.057 -3.3806  0.8285 -0.9643
  775MOL0     H 6895  10.674   6.428   7.119  2.6343 -0.0516 -0.4350
  775MOL0     H 6896  10.646   6.322   7.249 -0.3139  0.7025  0.3232
  775MOL0     H 6897  10.630   6.235   6.973 -0.8654  1.0379  0.6094
  775MOL0     H 6898  10.611   6.121   7.111 -0.3649 -0.4461  0.4579
  775MOL0     H 6899  10.459   6.469   7.028  1.1545  2.6118  4.9632
  775MOL0     H 6900  10.076   6.467   7.056 -1.1313  3.2089 -1.4525
  775MOL0     H 6901  10.212   6.559   7.012 -2.1092  3.1467  1.2275
  775MOL0     H 6902  10.206   6.545   7.304  0.3079 -0.7689 -0.6387
  775MOL0     H 6903  10.214   6.684   7.191  1.1556  0.2507  1.3548
  775MOL0     H 6904   9.960   6.633   7.131  0.3413 -3.0618 -1.0832
  775MOL0     H 6905   9.949   6.535   7.273  1.8063 -2.1153 -1.5673
  775MOL0     H 6906  10.036   6.817   7.285 -1.0177  0.2949 -0.0710
  775MOL0     H 6907   9.868   6.759   7.314 -0.5474 -0.0555  0.5487
  775MOL0     H 6908   9.887   6.907   7.566  1.2836  0.4524 -0.5417
  775MOL0     H 6909   9.941   7.178   7.645 -2.2809  2.0127  1.8327
  775MOL0     H 6910  10.005   7.143   7.806 -2.5315 -0.0445  0.6257
  775MOL0     H 6911   9.865   7.061   7.749  0.6770  0.1847 -1.4018
  775MOL0     H 6912  10.261   7.166   8.072  0.4026  1.5841  1.4201
  775MOL0     H 6913  10.425   7.315   8.215  0.7801  1.2894 -1.8664
  775MOL0     H 6914  10.857   7.253   8.127  0.9149 -0.6008  0.5098
  775MOL0     H 6915  10.772   7.399   8.076 -0.1097 -0.6017 -0.3839
  775MOL0     H 6916  10.973   7.461   8.194  0.6723 -0.3156 -0.8805
  775MOL0     H 6917  10.832   7.510   8.300  1.9025  0.0948  0.7251
  775MOL0     H 6918  10.996   7.268   8.359 -2.2672 -0.7255 -1.9283
  775MOL0     H 6919  10.851   7.322   8.442 -0.3084  0.7175  0.5154
  775MOL0     H 6920  11.070   7.363   8.562  0.1179 -1.1602 -2.1183
  775MOL0     H 6921  10.970   7.519   8.550  2.3622  1.4140  0.8350
  775MOL0     H 6922  11.200   7.459   8.388  1.2035  1.6714  0.2319
  775MOL0     H 6923  11.085   7.599   8.369  1.9155  2.6356  1.2936
  775MOL0     H 6924  11.256   7.521   8.613  4.0664  1.0707 -0.6438
  775MOL0     H 6925  11.149   7.657   8.595 -1.7123 -2.4061  3.0259
  775MOL0     H 6926  11.368   7.635   8.390 -3.0476 -1.0473 -0.0287
  775MOL0     H 6927  11.435   7.643   8.559  1.4862  0.6441 -1.2802
  775MOL0     H 6928  11.420   7.854   8.438  0.3710  0.7607  1.3294
  775MOL0     H 6929  11.339   7.845   8.599  2.5868 -0.1283  0.0150
  775MOL0     H 6930  10.751   7.130   8.016 -1.0900 -1.2239 -1.2448
  775MOL0     H 6931  10.598   6.996   7.887  1.5428 -1.0886  2.3727
  775MOL0     H 6932  10.343   6.818   7.714  0.0070  2.8927 -0.1914
  775MOL0     H 6933  10.244   6.660   7.560 -1.8011 -1.6580  3.4958
  775MOL0     H 6934  11.480   5.635   7.071  0.7579 -0.9771 -1.0154
  775MOL0     H 6935  11.445   5.402   7.064  2.0546 -0.1385  2.2779
  775MOL0     H 6936  11.546   4.995   7.413 -0.9540 -0.3200  3.0738
  775MOL0     H 6937  11.512   4.763   7.426 -2.6172 -0.9079  3.2128
  775MOL0     H 6938  11.313   4.601   7.206  2.5008  3.5180  2.8111
  775MOL0     H 6939  11.414   4.495   7.309 -0.8425 -1.7957 -2.8077
  775MOL0     H 6940  11.214   4.371   7.220 -0.6057 -0.7624  0.0338
  775MOL0     H 6941  11.112   4.489   7.304  2.4031  5.2094 -1.7233
  775MOL0     H 6942  11.313   4.294   7.417 -0.5836 -1.1751  2.0155
  775MOL0     H 6943  11.244   4.430   7.513  0.9172 -0.8405  0.0339
  775MOL0     H 6944  11.022   4.322   7.452 -1.8557 -0.1503  2.8873
  775MOL0     H 6945  11.123   4.216   7.559  1.7247 -1.7653 -0.7390
  775MOL0     H 6946  11.095   3.998   7.200  3.0812 -0.6098  1.4000
  775MOL0     H 6947  11.098   4.793   7.318  1.4144 -2.0905 -0.3160
  775MOL0     H 6948  11.000   4.998   7.297  1.0457 -0.7554  1.0002
  775MOL0     H 6949  11.066   5.151   7.331 -2.9075 -0.4413 -0.0476
  775MOL0     H 6950  11.102   5.081   7.170  1.2891 -1.1662 -0.1939
  776MOL0     O 6951   2.176   0.351   2.683  0.2698  0.0323  0.2202
  776MOL0     C 6952   2.229   0.311   2.786  0.0429  0.1449  1.0342
  776MOL0     O 6953   2.358   0.262   2.785 -0.5914  0.3592  0.0831
  776MOL0     C 6954   2.424   0.232   2.663 -0.4169 -0.2619  0.2451
  776MOL0     C 6955   2.462   0.331   2.572  0.6118  0.4737  0.6437
  776MOL0     C 6956   2.526   0.287   2.454 -0.7666  0.8601  0.2033
  776MOL0     C 6957   2.550   0.150   2.418  0.0472  0.7719  0.2347
  776MOL0     O 6958   2.616   0.126   2.297  0.0930  0.2030 -0.4229
  776MOL0     C 6959   2.597   0.010   2.221  0.1255  0.6419  0.1906
  776MOL0     C 6960   2.591   0.054   2.075  0.9869  0.3634  0.8624
  776MOL0     C 6961   2.485   0.159   2.028 -0.1327  0.0070 -0.0364
  776MOL0     C 6962   2.355   0.171   2.104  0.1985 -0.2198  0.3071
  776MOL0     C 6963   2.275   0.290   2.053 -0.4398 -0.5198  0.2224
  776MOL0     C 6964   2.148   0.329   2.123 -0.3321  0.5038 -0.1663
  776MOL0     C 6965   2.174   0.343   2.275  0.0634  0.0829 -0.2703
  776MOL0     C 6966   2.074   0.430   2.346 -0.0503  0.1528  0.8346
  776MOL0     N 6967   1.940   0.367   2.339 -0.1121 -0.8894 -0.3488
  776MOL0     C 6968   1.902   0.264   2.423  0.3524 -0.3739 -0.1635
  776MOL0     C 6969   1.763   0.238   2.404 -1.0087 -0.1606  0.7132
  776MOL0     C 6970   1.684   0.140   2.481 -0.3547 -0.0134  0.2004
  776MOL0     C 6971   1.537   0.194   2.498  0.0283  0.0485 -0.2110
  776MOL0     C 6972   1.446   0.102   2.592 -0.3134 -0.5548 -0.6893
  776MOL0     C 6973   1.475   0.114   2.743 -0.8458 -0.6294 -0.7032
  776MOL0     O 6974   1.425  -0.005   2.817 -0.6687  0.2269 -0.3694
  776MOL0     C 6975   1.306   0.008   2.875  0.4972 -0.3837 -0.7580
  776MOL0     C 6976   1.241  -0.113   2.912  0.3081 -0.9703  0.5004
  776MOL0     C 6977   1.122  -0.115   2.980  0.1851  0.3274 -0.1848
  776MOL0     C 6978   1.071  -0.261   2.998 -0.6161 -0.8572  0.2271
  776MOL0     C 6979   1.053   0.002   3.017  0.3127 -0.3033  0.4857
  776MOL0     C 6980   0.919   0.011   3.076  0.1330 -0.4129 -0.5059
  776MOL0     O 6981   0.883   0.128   3.135  0.1976 -0.0425  0.0965
  776MOL0     C 6982   0.765   0.124   3.200 -0.5644  0.1843 -0.1739
  776MOL0     C 6983   0.774   0.112   3.340  0.0021  0.2998 -0.4746
  776MOL0     C 6984   0.656   0.089   3.410  0.2847  0.1560 -1.0772
  776MOL0     C 6985   0.529   0.112   3.349  0.6250 -0.6669  0.0796
  776MOL0     O 6986   0.413   0.113   3.419  0.9500  0.3724 -0.0481
  776MOL0     C 6987   0.389   0.225   3.506 -0.9620 -0.5244 -0.6422
  776MOL0     C 6988   0.274   0.321   3.471 -0.3624  0.4713  0.1622
  776MOL0     C 6989   0.309   0.400   3.339 -1.3538 -0.2520 -0.0367
  776MOL0     C 6990   0.256   0.541   3.343 -1.0032  0.1984 -0.6689
  776MOL0     C 6991   0.108   0.565   3.342 -0.4723 -0.3937  0.2093
  776MOL0     C 6992   0.033   0.492   3.232  0.3462  0.0588  0.3215
  776MOL0     C 6993  -0.124   0.500   3.260 -0.5328 -0.5058  0.6177
  776MOL0     C 6994  -0.191   0.386   3.329  0.0637  0.2180 -0.5161
  776MOL0    Cl 6995  -0.193   0.249   3.225 -0.5851  0.3197  0.4578
  776MOL0     C 6996   0.521   0.135   3.211 -0.5580  0.2054  0.6273
  776MOL0     C 6997   0.645   0.127   3.139 -1.5929 -0.5390 -0.3162
  776MOL0     O 6998   0.848  -0.086   3.065 -0.5735  0.6772  0.5425
  776MOL0     C 6999   1.119   0.123   2.986  0.4582  0.1474 -0.2874
  776MOL0     C 7000   1.237   0.126   2.911  0.1135  0.2497  0.6542
  776MOL0     N 7001   1.725   0.339   2.322 -1.0968  1.0254 -0.0773
  776MOL0     N 7002   1.825   0.414   2.287  0.2201  0.5670  0.8769
  776MOL0     C 7003   2.512   0.053   2.513  0.2771 -0.3369 -0.3177
  776MOL0     C 7004   2.452   0.094   2.633  0.6987 -0.0974 -0.4042
  776MOL0     C 7005   2.156   0.298   2.908  0.0286  0.6681 -0.2475
  776MOL0     C 7006   2.234   0.282   3.023 -0.2715  0.2116 -0.1937
  776MOL0     C 7007   2.171   0.253   3.142  0.5249 -0.1566 -0.1555
  776MOL0     C 7008   2.034   0.249   3.156 -1.2203  0.2497  0.0878
  776MOL0     O 7009   1.966   0.202   3.269 -0.7657 -0.3780  0.2286
  776MOL0     C 7010   2.043   0.131   3.371  0.2164  0.5781  0.3010
  776MOL0     C 7011   1.944   0.085   3.473 -0.1321 -0.1067 -1.1140
  776MOL0     C 7012   1.894   0.212   3.548  0.2334  0.9359  0.3240
  776MOL0     C 7013   1.778   0.185   3.650 -0.3924  0.1029 -0.4053
  776MOL0     C 7014   1.822   0.094   3.757 -0.2875 -0.3213  0.0327
  776MOL0     C 7015   1.858   0.023   3.846 -0.1296  0.3925 -1.0653
  776MOL0     C 7016   1.954   0.289   3.044  1.1334  0.1515  0.3219
  776MOL0     C 7017   2.015   0.296   2.917 -0.4505 -0.6563 -0.1030
  776MOL0     C 7018   1.913   0.325   2.804 -0.8174  0.5384  0.3368
  776MOL0     H 7019   2.453   0.437   2.593 -3.1174  0.2511  0.8837
  776MOL0     H 7020   2.574   0.355   2.385 -4.1470  1.8050 -1.3973
  776MOL0     H 7021   2.506  -0.042   2.252 -0.1155  0.4045 -0.8940
  776MOL0     H 7022   2.673  -0.066   2.238 -1.4598 -1.1027 -0.2212
  776MOL0     H 7023   2.693   0.083   2.049  0.5286  0.9111 -0.4327
  776MOL0     H 7024   2.577  -0.039   2.019  3.2497 -0.5613  1.7287
  776MOL0     H 7025   2.527   0.259   2.043 -0.5396  0.4987 -1.9682
  776MOL0     H 7026   2.446   0.149   1.926 -3.8457 -1.7346  1.3494
  776MOL0     H 7027   2.311   0.072   2.087  0.2726  0.0320 -1.5073
  776MOL0     H 7028   2.359   0.169   2.213  0.9924 -1.4395  0.2781
  776MOL0     H 7029   2.252   0.273   1.947 -2.5095  1.3077  0.3072
  776MOL0     H 7030   2.340   0.376   2.074 -0.9737  0.3536 -1.5150
  776MOL0     H 7031   2.096   0.416   2.083 -1.4434  0.2922  0.7633
  776MOL0     H 7032   2.076   0.247   2.115 -1.3425  1.3090  0.3832
  776MOL0     H 7033   2.264   0.404   2.286 -0.7673  1.0063  2.1331
  776MOL0     H 7034   2.186   0.243   2.317  3.3359 -0.6170 -2.4890
  776MOL0     H 7035   2.103   0.432   2.451 -1.2006 -2.1379  1.2396
  776MOL0     H 7036   2.078   0.532   2.306  3.1689  0.4062  1.4898
  776MOL0     H 7037   1.967   0.211   2.492 -1.0209 -2.7543 -0.5692
  776MOL0     H 7038   1.730   0.131   2.579  0.7053  0.3369 -0.2475
  776MOL0     H 7039   1.669   0.045   2.427 -1.0425  0.4594 -0.4692
  776MOL0     H 7040   1.538   0.296   2.538 -2.2398 -0.3791  1.0981
  776MOL0     H 7041   1.496   0.195   2.396  0.1050  2.8555 -0.3015
  776MOL0     H 7042   1.343   0.139   2.584 -0.7765 -1.9400 -1.6870
  776MOL0     H 7043   1.438  -0.000   2.553  1.9455 -0.9907 -0.1105
  776MOL0     H 7044   1.584   0.114   2.751 -0.9146 -1.6402  0.6041
  776MOL0     H 7045   1.447   0.209   2.789 -0.9583 -0.4601 -1.1144
  776MOL0     H 7046   1.283  -0.211   2.890  1.5248 -0.1001 -1.3612
  776MOL0     H 7047   0.983  -0.255   2.933 -1.8087  1.2464  1.8926
  776MOL0     H 7048   1.036  -0.275   3.101 -2.4772  4.0697  0.5643
  776MOL0     H 7049   1.139  -0.338   2.964  1.6892 -0.1457  2.8579
  776MOL0     H 7050   0.870   0.086   3.384  0.8720 -0.5278 -2.6960
  776MOL0     H 7051   0.671   0.069   3.516  0.6604 -0.5372 -1.2549
  776MOL0     H 7052   0.365   0.173   3.600 -1.6764 -1.7262 -1.4546
  776MOL0     H 7053   0.468   0.298   3.522 -1.2720 -0.4396  0.6788
  776MOL0     H 7054   0.175   0.275   3.460  0.1134 -0.5227 -0.0331
  776MOL0     H 7055   0.270   0.398   3.549  0.4647  1.4351 -0.7272
  776MOL0     H 7056   0.264   0.343   3.257  0.2091 -0.6565 -0.6592
  776MOL0     H 7057   0.416   0.417   3.324 -0.7326 -1.8719  2.0695
  776MOL0     H 7058   0.301   0.591   3.257 -0.5475  2.4442  0.7796
  776MOL0     H 7059   0.296   0.588   3.433 -4.3984  2.6157 -0.2340
  776MOL0     H 7060   0.070   0.558   3.444 -1.1457  1.6374  0.1348
  776MOL0     H 7061   0.090   0.672   3.327  1.9037  0.2563  1.4479
  776MOL0     H 7062   0.063   0.389   3.214 -1.6997 -0.1790 -2.1318
  776MOL0     H 7063   0.053   0.541   3.136 -2.3208  1.3111  0.3274
  776MOL0     H 7064  -0.175   0.500   3.164 -0.7899 -3.0377  0.6745
  776MOL0     H 7065  -0.143   0.590   3.318  3.9029  0.9727  0.1653
  776MOL0     H 7066  -0.291   0.415   3.365 -0.0160 -0.7275  0.0373
  776MOL0     H 7067  -0.143   0.362   3.424 -1.6292  1.9306  0.8633
  776MOL0     H 7068   0.425   0.148   3.161  0.2495 -1.4720 -1.4802
  776MOL0     H 7069   0.626   0.116   3.033 -2.7965  1.0208 -0.3122
  776MOL0     H 7070   1.073   0.216   3.020  3.2935  0.6741  2.5324
  776MOL0     H 7071   1.274   0.228   2.912 -2.7195  1.4178 -0.9485
  776MOL0     H 7072   2.514  -0.055   2.501 -4.4455 -0.7203  0.3937
  776MOL0     H 7073   2.409   0.032   2.711  1.8044  4.4887  4.4443
  776MOL0     H 7074   2.342   0.275   3.024 -0.0276  2.5515 -1.8466
  776MOL0     H 7075   2.231   0.203   3.218  0.0479 -0.5804 -0.0578
  776MOL0     H 7076   2.099   0.057   3.312  0.5063  1.2427 -0.2625
  776MOL0     H 7077   2.119   0.199   3.410 -1.9969  3.8912 -0.7258
  776MOL0     H 7078   1.994   0.023   3.548  0.5130  1.2035 -0.4327
  776MOL0     H 7079   1.864   0.024   3.429 -0.3722 -1.7317  1.3643
  776MOL0     H 7080   1.977   0.246   3.610  0.7145 -1.6283  1.1861
  776MOL0     H 7081   1.860   0.294   3.484  1.1116  0.9338 -0.1545
  776MOL0     H 7082   1.696   0.139   3.595 -0.8622 -3.5516  2.9619
  776MOL0     H 7083   1.751   0.283   3.692 -0.5161  0.1027 -0.4847
  776MOL0     H 7084   1.893  -0.024   3.936 -2.3600  0.1735 -0.2663
  776MOL0     H 7085   1.847   0.283   3.063  1.3561  2.4476  2.9475
  776MOL0     H 7086   1.943   0.421   2.762  1.1097 -0.2218 -0.1395
  776MOL0     H 7087   1.933   0.250   2.727  1.2183  0.4081  0.9233
  776MOL0     H 7088   1.808   0.307   2.828 -0.3407 -2.3968  0.6437
  777MOL0     O 7089   0.014   6.989   1.374 -0.3916  0.1424 -0.8805
  777MOL0     C 7090  -0.076   6.968   1.461  0.0299 -0.4446 -0.5380
  777MOL0     O 7091  -0.178   7.052   1.494  0.6271  0.7757 -0.6156
  777MOL0     C 7092  -0.204   7.181   1.453  0.0504 -0.2816  0.0083
  777MOL0     C 7093  -0.107   7.257   1.381 -0.4013  0.4662  0.3077
  777MOL0     C 7094  -0.147   7.383   1.316  0.0380 -0.1527 -1.2404
  777MOL0     C 7095  -0.289   7.412   1.314  0.9537  0.5892 -1.2212
  777MOL0     O 7096  -0.350   7.515   1.249 -1.1801  0.1846  0.2003
  777MOL0     C 7097  -0.251   7.610   1.196 -0.0091  0.1198 -0.7091
  777MOL0     C 7098  -0.328   7.727   1.149  0.4584 -0.6259 -0.0655
  777MOL0     C 7099  -0.359   7.803   1.273 -0.2150 -0.1525 -0.6715
  777MOL0     C 7100  -0.397   7.956   1.240 -0.8149  0.9688 -0.1256
  777MOL0     C 7101  -0.422   8.023   1.377  0.2776 -0.2288 -0.3453
  777MOL0     C 7102  -0.485   8.164   1.361  0.1130 -0.1874 -0.5524
  777MOL0     C 7103  -0.548   8.227   1.482 -0.0955 -0.1768  0.1134
  777MOL0     C 7104  -0.665   8.139   1.525  0.4094 -0.0699  0.4187
  777MOL0     N 7105  -0.710   8.176   1.658 -0.2095  0.4102  0.1959
  777MOL0     C 7106  -0.811   8.117   1.730  0.8955 -0.5329  0.8816
  777MOL0     C 7107  -0.834   8.204   1.827  0.1392  0.3885  0.9681
  777MOL0     C 7108  -0.952   8.167   1.913 -0.7167  0.3746  0.0809
  777MOL0     C 7109  -0.917   8.060   2.018 -0.1269  0.5524 -0.1459
  777MOL0     C 7110  -0.897   8.122   2.158 -0.5399 -0.2441  0.6266
  777MOL0     C 7111  -0.883   8.019   2.267  0.8275 -0.2030  0.4628
  777MOL0     O 7112  -0.753   7.954   2.249 -0.3859  0.2263  0.3733
  777MOL0     C 7113  -0.724   7.868   2.352  0.5828  0.2268 -0.1020
  777MOL0     C 7114  -0.618   7.779   2.328 -0.4922 -0.0536 -0.0457
  777MOL0     C 7115  -0.581   7.664   2.408  0.1201 -0.5312  0.3123
  777MOL0     C 7116  -0.458   7.588   2.372  0.4359 -0.4106  0.7521
  777MOL0     C 7117  -0.671   7.631   2.510 -1.1026 -0.2506 -0.5670
  777MOL0     C 7118  -0.637   7.525   2.600 -0.6734  0.7943 -1.1000
  777MOL0     O 7119  -0.537   7.554   2.689 -0.0842 -0.4485 -0.0238
  777MOL0     C 7120  -0.476   7.451   2.761  0.3010 -0.5213  0.2182
  777MOL0     C 7121  -0.553   7.352   2.826 -0.3820  0.5263  0.2723
  777MOL0     C 7122  -0.474   7.266   2.907 -0.3587 -0.0721 -0.3347
  777MOL0     C 7123  -0.336   7.286   2.942 -0.1400  0.3357  0.2911
  777MOL0     O 7124  -0.278   7.194   3.019  0.2358 -0.3175  0.1343
  777MOL0     C 7125  -0.187   7.123   2.937  0.1151  0.4060  0.8132
  777MOL0     C 7126  -0.153   6.991   3.012 -0.4690  0.2574 -1.3407
  777MOL0     C 7127  -0.254   6.882   2.996 -1.1683  0.3996 -0.0192
  777MOL0     C 7128  -0.382   6.907   3.072  0.2493  0.4127 -0.7680
  777MOL0     C 7129  -0.470   6.777   3.070 -0.9643 -0.4911  0.3080
  777MOL0     C 7130  -0.603   6.799   3.144  0.3329 -0.0125 -0.1713
  777MOL0     C 7131  -0.686   6.673   3.141  0.6957 -0.2594  0.2490
  777MOL0     C 7132  -0.832   6.713   3.168  1.2545  0.7519  0.0286
  777MOL0    Cl 7133  -0.935   6.564   3.163 -0.2725  0.0521 -0.1968
  777MOL0     C 7134  -0.267   7.385   2.875 -0.6564 -0.0106 -0.1346
  777MOL0     C 7135  -0.336   7.475   2.791  0.2787  0.2339  0.9713
  777MOL0     O 7136  -0.684   7.417   2.580  0.8817 -0.7439 -0.3398
  777MOL0     C 7137  -0.781   7.714   2.543  1.2032 -0.8604  0.4564
  777MOL0     C 7138  -0.807   7.831   2.470  0.6316  0.0185 -0.0605
  777MOL0     N 7139  -0.742   8.306   1.827 -0.5105  0.0798 -1.2096
  777MOL0     N 7140  -0.667   8.291   1.722  0.0756  0.1387  0.6594
  777MOL0     C 7141  -0.380   7.320   1.377 -0.3368 -0.9569  0.4230
  777MOL0     C 7142  -0.338   7.211   1.454  0.4942 -0.8814 -0.2358
  777MOL0     C 7143  -0.076   6.833   1.535  0.6971  0.1191  0.0790
  777MOL0     C 7144  -0.198   6.766   1.541 -0.0510  0.1357 -0.2449
  777MOL0     C 7145  -0.212   6.645   1.610 -0.5117 -0.4548  0.7789
  777MOL0     C 7146  -0.094   6.573   1.634  1.3555  0.1591  0.5680
  777MOL0     O 7147  -0.086   6.444   1.678 -0.0510 -0.1597 -0.0076
  777MOL0     C 7148  -0.201   6.360   1.684 -0.4917 -0.9596  0.0413
  777MOL0     C 7149  -0.256   6.313   1.548  0.4921  0.0817 -0.4032
  777MOL0     C 7150  -0.343   6.193   1.566  1.2258  0.7164  0.0270
  777MOL0     C 7151  -0.466   6.198   1.470 -0.5970  0.5379 -0.2310
  777MOL0     C 7152  -0.565   6.287   1.514 -0.1184 -0.2055  0.0231
  777MOL0     C 7153  -0.643   6.368   1.569 -0.0744  0.1433 -0.3048
  777MOL0     C 7154   0.026   6.643   1.630 -0.1991 -0.4816 -0.3255
  777MOL0     C 7155   0.038   6.772   1.586  0.0645 -0.1167 -0.0652
  777MOL0     C 7156   0.160   6.862   1.604 -0.0839  0.0811 -0.4157
  777MOL0     H 7157  -0.004   7.228   1.362 -0.1989  0.9812  0.5972
  777MOL0     H 7158  -0.073   7.437   1.258  0.1003  1.8806  0.6057
  777MOL0     H 7159  -0.208   7.567   1.105 -0.7833 -0.3915 -0.8436
  777MOL0     H 7160  -0.173   7.636   1.268 -0.5326  2.4008 -0.8909
  777MOL0     H 7161  -0.264   7.780   1.077 -0.8008  0.4657 -0.4181
  777MOL0     H 7162  -0.424   7.703   1.103 -0.8920  3.6331  0.1199
  777MOL0     H 7163  -0.442   7.758   1.328  0.6609 -1.7573 -0.6175
  777MOL0     H 7164  -0.280   7.803   1.349 -0.9695 -0.4694  0.1350
  777MOL0     H 7165  -0.321   8.009   1.182  0.0825 -1.3871 -1.2072
  777MOL0     H 7166  -0.483   7.952   1.172 -1.1632 -0.5097  0.3615
  777MOL0     H 7167  -0.335   8.019   1.443  0.1748 -1.4535 -0.2772
  777MOL0     H 7168  -0.495   7.957   1.424 -0.1944  0.0689 -0.6484
  777MOL0     H 7169  -0.403   8.233   1.337  2.6809 -2.3922  1.2298
  777MOL0     H 7170  -0.550   8.159   1.274  1.2177  1.2753 -1.5041
  777MOL0     H 7171  -0.589   8.323   1.452 -1.3592 -0.5068  0.7384
  777MOL0     H 7172  -0.472   8.245   1.558 -0.9416 -0.4264  1.0381
  777MOL0     H 7173  -0.753   8.137   1.460  0.0332  4.6179  0.4885
  777MOL0     H 7174  -0.642   8.032   1.531 -1.0293 -0.5045 -1.2375
  777MOL0     H 7175  -0.876   8.035   1.703  2.3585 -1.2734 -0.5693
  777MOL0     H 7176  -1.025   8.143   1.834  0.6865 -0.5208 -0.9771
  777MOL0     H 7177  -0.989   8.255   1.968  3.0580  3.7560 -2.2550
  777MOL0     H 7178  -0.997   7.986   2.027  1.2869 -0.9360  0.7721
  777MOL0     H 7179  -0.831   7.998   1.989 -0.7122 -1.2252  1.6956
  777MOL0     H 7180  -0.812   8.188   2.141  0.4107 -1.3584  0.9514
  777MOL0     H 7181  -0.977   8.190   2.190 -0.8240 -0.7300  0.9685
  777MOL0     H 7182  -0.873   8.067   2.365 -1.7682  0.0516  0.6829
  777MOL0     H 7183  -0.965   7.947   2.260  0.2559  0.4983 -0.3685
  777MOL0     H 7184  -0.561   7.818   2.245  0.2925  0.6762  0.8075
  777MOL0     H 7185  -0.470   7.487   2.331  1.8305  0.0774 -1.0005
  777MOL0     H 7186  -0.398   7.575   2.462  2.1768  0.4444 -0.2128
  777MOL0     H 7187  -0.403   7.649   2.299  1.3027 -0.2914  1.4904
  777MOL0     H 7188  -0.655   7.334   2.793  0.7204 -4.3212 -1.4929
  777MOL0     H 7189  -0.538   7.186   2.945 -0.1201  0.6451  1.7085
  777MOL0     H 7190  -0.230   7.091   2.841  0.3080 -1.2120  1.2266
  777MOL0     H 7191  -0.095   7.179   2.923 -0.7183  1.5229 -0.4633
  777MOL0     H 7192  -0.060   6.944   2.980 -0.0270 -0.9038  1.3470
  777MOL0     H 7193  -0.121   7.023   3.112  1.4973  2.6039 -2.5926
  777MOL0     H 7194  -0.219   6.789   3.042 -1.1724  1.1613  1.5900
  777MOL0     H 7195  -0.280   6.852   2.894 -0.1341  1.2621 -0.5656
  777MOL0     H 7196  -0.451   6.982   3.032 -1.0472 -0.2280  0.2016
  777MOL0     H 7197  -0.363   6.927   3.178  1.5115  0.1751 -0.9246
  777MOL0     H 7198  -0.495   6.753   2.966 -0.3460  2.7437 -0.7112
  777MOL0     H 7199  -0.419   6.701   3.129 -0.5382  0.9298  1.8320
  777MOL0     H 7200  -0.643   6.884   3.089  0.8314  0.7060  0.5370
  777MOL0     H 7201  -0.590   6.839   3.246  0.6217 -1.3248  0.3193
  777MOL0     H 7202  -0.651   6.597   3.211  0.7838 -1.3594 -0.9481
  777MOL0     H 7203  -0.685   6.631   3.040 -1.0562 -3.3817  1.3780
  777MOL0     H 7204  -0.866   6.779   3.088  0.5993  1.1282  0.6073
  777MOL0     H 7205  -0.844   6.758   3.267  0.4219 -1.0499  0.7939
  777MOL0     H 7206  -0.159   7.395   2.888  0.2752 -1.1944 -4.9493
  777MOL0     H 7207  -0.286   7.559   2.744  0.5201  1.5375  3.3558
  777MOL0     H 7208  -0.842   7.681   2.627  1.4230  2.3160  1.9747
  777MOL0     H 7209  -0.892   7.888   2.504 -0.0630 -2.1966  2.1790
  777MOL0     H 7210  -0.488   7.335   1.376  0.1104  3.2876 -0.4121
  777MOL0     H 7211  -0.417   7.148   1.493 -0.8505 -0.5824 -2.2711
  777MOL0     H 7212  -0.291   6.812   1.511 -2.1530 -1.9645  2.4256
  777MOL0     H 7213  -0.316   6.615   1.622 -1.3039  1.3638 -1.0207
  777MOL0     H 7214  -0.181   6.272   1.745  0.7959 -1.7828 -1.4960
  777MOL0     H 7215  -0.277   6.420   1.735  1.6424  3.5080 -1.5211
  777MOL0     H 7216  -0.185   6.271   1.476 -0.4071 -2.2291 -0.0244
  777MOL0     H 7217  -0.317   6.393   1.504  1.2265 -0.3647 -2.3397
  777MOL0     H 7218  -0.298   6.101   1.528  1.0174  0.7413 -0.2835
  777MOL0     H 7219  -0.373   6.174   1.669 -1.8449  0.6513 -0.7682
  777MOL0     H 7220  -0.501   6.098   1.443  0.6363  0.5660 -2.1236
  777MOL0     H 7221  -0.423   6.234   1.376  4.0311  1.0217  1.8081
  777MOL0     H 7222  -0.713   6.422   1.628  1.1560  1.1909  0.2566
  777MOL0     H 7223   0.108   6.597   1.684  0.0624  0.5633  0.1982
  777MOL0     H 7224   0.206   6.832   1.699 -2.9743 -1.3742  0.6381
  777MOL0     H 7225   0.225   6.833   1.521 -1.5159  3.7501 -3.1093
  777MOL0     H 7226   0.139   6.970   1.610 -3.0268 -0.4771  1.0833
  778MOL0     O 7227   6.355   5.279   2.037  0.0778 -0.2579 -0.3428
  778MOL0     C 7228   6.327   5.392   2.086  0.1008 -0.5707  0.1538
  778MOL0     O 7229   6.208   5.446   2.121 -0.3385  0.0707  0.7278
  778MOL0     C 7230   6.091   5.385   2.087  0.2083  0.5119  0.6161
  778MOL0     C 7231   5.971   5.429   2.139  0.5933 -0.1820 -0.3430
  778MOL0     C 7232   5.844   5.378   2.098 -0.9384  0.0833 -0.1691
  778MOL0     C 7233   5.830   5.270   2.008  0.1410  0.6756 -1.1125
  778MOL0     O 7234   5.712   5.207   1.973 -0.1611  0.4058 -1.0828
  778MOL0     C 7235   5.591   5.254   2.029  0.7731 -0.5247 -0.8652
  778MOL0     C 7236   5.478   5.220   1.940 -0.9413  0.1706  0.1556
  778MOL0     C 7237   5.487   5.283   1.806 -0.1237 -0.3726  0.5353
  778MOL0     C 7238   5.402   5.407   1.784  0.0503 -0.4535 -0.4171
  778MOL0     C 7239   5.452   5.491   1.666  0.2325 -0.3756  0.3341
  778MOL0     C 7240   5.341   5.604   1.650 -0.3781  0.4723 -0.0305
  778MOL0     C 7241   5.419   5.723   1.589  0.6772 -0.2309  0.2327
  778MOL0     C 7242   5.321   5.836   1.532 -0.2222 -0.8344 -0.0577
  778MOL0     N 7243   5.269   5.925   1.636 -0.5786  0.9551 -0.1423
  778MOL0     C 7244   5.186   5.885   1.735 -1.0364  0.5504  0.8225
  778MOL0     C 7245   5.150   5.998   1.792 -0.8047  0.6627  0.1528
  778MOL0     C 7246   5.067   6.026   1.915  0.0816 -0.1138 -1.2537
  778MOL0     C 7247   5.169   6.024   2.041  0.7614  0.8507 -0.6896
  778MOL0     C 7248   5.280   6.133   2.039 -0.0620  0.0100  0.0964
  778MOL0     C 7249   5.222   6.281   2.025 -0.2577  0.5903 -0.1319
  778MOL0     O 7250   5.115   6.312   2.115  0.3599 -0.5178  0.2919
  778MOL0     C 7251   5.056   6.441   2.124 -0.0619 -0.1292  0.0197
  778MOL0     C 7252   5.071   6.534   2.024 -0.8463 -0.2598 -0.2484
  778MOL0     C 7253   5.003   6.655   2.027 -0.3781  0.5056 -0.3704
  778MOL0     C 7254   5.044   6.751   1.921 -0.6144 -0.0084 -0.7944
  778MOL0     C 7255   4.901   6.680   2.121  1.5353  0.6288  0.5982
  778MOL0     C 7256   4.799   6.792   2.116  0.3365 -0.8901 -1.1124
  778MOL0     O 7257   4.781   6.861   2.005 -0.8315 -0.2787 -0.1903
  778MOL0     C 7258   4.739   6.994   2.003  1.0236  0.7246  0.6814
  778MOL0     C 7259   4.714   7.031   1.874  1.4148  0.0342  0.4127
  778MOL0     C 7260   4.686   7.169   1.857 -0.0198 -0.0979  0.7147
  778MOL0     C 7261   4.704   7.270   1.955  0.2245  0.0653 -0.6895
  778MOL0     O 7262   4.707   7.398   1.904  0.0954 -0.1411 -0.1062
  778MOL0     C 7263   4.686   7.514   1.991  0.1175  0.2966 -0.0967
  778MOL0     C 7264   4.712   7.631   1.910  0.0773 -0.3700 -0.8218
  778MOL0     C 7265   4.703   7.753   1.997  0.1961  0.6760  0.5736
  778MOL0     C 7266   4.560   7.793   2.039  0.5717 -0.2917  0.2928
  778MOL0     C 7267   4.561   7.925   2.124  0.8330 -0.3198 -0.2067
  778MOL0     C 7268   4.425   7.964   2.184 -0.0764  0.0406 -0.8245
  778MOL0     C 7269   4.440   8.091   2.264  0.3648 -0.4694 -1.8660
  778MOL0     C 7270   4.302   8.160   2.286  0.2279  0.4495  0.8766
  778MOL0    Cl 7271   4.181   8.076   2.372  0.6501  0.1206  0.3652
  778MOL0     C 7272   4.731   7.225   2.090  0.5708  0.7968 -0.2219
  778MOL0     C 7273   4.750   7.087   2.116  0.4284 -0.3718 -0.4303
  778MOL0     O 7274   4.737   6.824   2.220  0.1409 -0.1536  0.1315
  778MOL0     C 7275   4.894   6.586   2.231 -0.3465 -0.0061 -0.1459
  778MOL0     C 7276   4.969   6.475   2.225 -0.0550  0.8530 -0.9777
  778MOL0     N 7277   5.196   6.104   1.709  0.4117  0.3896  0.1909
  778MOL0     N 7278   5.289   6.061   1.633  0.4753 -0.9028 -1.0294
  778MOL0     C 7279   5.950   5.233   1.951  0.3483 -0.2472 -1.1971
  778MOL0     C 7280   6.075   5.293   1.983  0.6387  0.0707  0.7194
  778MOL0     C 7281   6.447   5.477   2.134  0.1246 -0.6345 -0.1968
  778MOL0     C 7282   6.573   5.428   2.106 -0.8614 -0.5310 -0.7595
  778MOL0     C 7283   6.685   5.501   2.138 -0.5842 -0.6368 -0.3132
  778MOL0     C 7284   6.691   5.611   2.217 -0.5437 -0.7232 -0.0788
  778MOL0     O 7285   6.816   5.653   2.261 -0.1962 -0.3013  0.3373
  778MOL0     C 7286   6.824   5.703   2.395 -0.1838  0.2859 -0.2931
  778MOL0     C 7287   6.973   5.732   2.419 -0.0006  0.3597 -0.1826
  778MOL0     C 7288   7.055   5.603   2.421 -0.0583 -0.0062 -1.3523
  778MOL0     C 7289   7.196   5.631   2.468  0.2062 -0.7432 -0.0567
  778MOL0     C 7290   7.273   5.724   2.394 -0.0748 -0.8965  0.8885
  778MOL0     C 7291   7.336   5.812   2.342  0.5321  0.1663  0.1406
  778MOL0     C 7292   6.556   5.658   2.255  0.1939 -0.1733 -0.8983
  778MOL0     C 7293   6.435   5.596   2.216  0.2473 -0.5119  0.1697
  778MOL0     C 7294   6.302   5.658   2.251 -0.7830  0.1140 -0.0340
  778MOL0     H 7295   5.982   5.511   2.209 -1.2035 -2.2518  2.5670
  778MOL0     H 7296   5.755   5.402   2.155 -2.3823 -2.3548 -1.2395
  778MOL0     H 7297   5.588   5.362   2.043  3.3281 -0.6536  1.6715
  778MOL0     H 7298   5.597   5.215   2.131  2.0318 -1.1014 -1.1483
  778MOL0     H 7299   5.482   5.113   1.917 -1.2594  0.7038 -2.7302
  778MOL0     H 7300   5.377   5.244   1.976 -1.6809 -1.2319 -0.8513
  778MOL0     H 7301   5.590   5.310   1.777  0.0047 -3.9895 -3.2030
  778MOL0     H 7302   5.459   5.211   1.729  2.9307 -3.6141  2.1899
  778MOL0     H 7303   5.304   5.368   1.755  1.5747 -1.2327 -5.5661
  778MOL0     H 7304   5.399   5.473   1.871  0.1821  0.6419 -1.2167
  778MOL0     H 7305   5.457   5.444   1.567  1.8903  1.7361 -0.6574
  778MOL0     H 7306   5.545   5.545   1.686  0.9906 -0.9400 -1.4594
  778MOL0     H 7307   5.260   5.586   1.579 -0.9117  2.0561  0.1389
  778MOL0     H 7308   5.304   5.625   1.751  3.0883 -1.5939  1.8451
  778MOL0     H 7309   5.484   5.682   1.512  2.5371  0.3101  1.4502
  778MOL0     H 7310   5.486   5.765   1.665 -2.1993  6.1676 -0.0785
  778MOL0     H 7311   5.388   5.895   1.468  0.2159  0.1961  1.2979
  778MOL0     H 7312   5.238   5.779   1.489  0.1206 -1.1428 -0.3171
  778MOL0     H 7313   5.157   5.782   1.754  0.5618  0.1394  1.1357
  778MOL0     H 7314   4.983   5.956   1.924 -0.2063  0.2117 -1.3513
  778MOL0     H 7315   5.024   6.126   1.926  0.3296 -0.2250  1.3245
  778MOL0     H 7316   5.107   6.048   2.128  2.0696 -0.0137  0.5070
  778MOL0     H 7317   5.209   5.923   2.052  1.3823  0.7610 -3.2070
  778MOL0     H 7318   5.337   6.123   2.133  0.2911  1.1694  0.0144
  778MOL0     H 7319   5.347   6.120   1.953  1.1023  2.2453  0.6017
  778MOL0     H 7320   5.301   6.357   2.022  0.7180 -0.4064 -2.5506
  778MOL0     H 7321   5.177   6.296   1.926 -3.4594  2.0036  1.3865
  778MOL0     H 7322   5.152   6.511   1.956  1.8331  0.2379  2.5977
  778MOL0     H 7323   5.044   6.855   1.953 -0.8145  0.7947 -3.2310
  778MOL0     H 7324   4.967   6.748   1.844 -2.1317 -3.0779  0.6295
  778MOL0     H 7325   5.138   6.742   1.867 -0.3329 -0.0187 -0.3132
  778MOL0     H 7326   4.728   6.967   1.787  5.2707  0.3060  0.6391
  778MOL0     H 7327   4.641   7.195   1.762  1.4151 -2.9931 -0.8983
  778MOL0     H 7328   4.581   7.504   2.020 -0.3184  3.1680 -0.4249
  778MOL0     H 7329   4.766   7.502   2.065  2.8938  2.2355 -2.5796
  778MOL0     H 7330   4.818   7.624   1.884  0.7577  1.1896  1.2366
  778MOL0     H 7331   4.657   7.640   1.816 -1.0177  1.9745 -0.0449
  778MOL0     H 7332   4.739   7.830   1.928  1.7645 -3.2144 -3.4437
  778MOL0     H 7333   4.764   7.735   2.086 -1.6990 -3.3560  1.2778
  778MOL0     H 7334   4.515   7.711   2.095 -0.0238 -1.1613 -1.3806
  778MOL0     H 7335   4.504   7.824   1.950 -1.1532 -0.3297  1.3337
  778MOL0     H 7336   4.632   7.909   2.206 -0.2082  2.2622  1.3134
  778MOL0     H 7337   4.588   8.004   2.055 -0.0213 -0.3978 -0.6405
  778MOL0     H 7338   4.383   7.881   2.242 -0.5090  0.6965 -0.1821
  778MOL0     H 7339   4.355   7.989   2.103 -0.0585  0.8993 -0.5876
  778MOL0     H 7340   4.496   8.167   2.210  2.7791  0.7474  1.9294
  778MOL0     H 7341   4.494   8.073   2.358 -1.8340  1.5196 -0.0995
  778MOL0     H 7342   4.261   8.170   2.185  3.0860  0.6711 -0.3450
  778MOL0     H 7343   4.317   8.265   2.315 -0.6762  0.4350  1.4354
  778MOL0     H 7344   4.749   7.285   2.179 -0.7638  1.5695 -0.4465
  778MOL0     H 7345   4.789   7.064   2.215  1.3711  1.9866 -0.1763
  778MOL0     H 7346   4.828   6.592   2.317  0.7003 -1.2733  0.7992
  778MOL0     H 7347   4.951   6.400   2.301 -0.8973 -0.8611 -2.7657
  778MOL0     H 7348   5.938   5.158   1.873  1.2668 -1.0013 -0.6330
  778MOL0     H 7349   6.158   5.273   1.917 -0.1482 -0.4656 -0.1331
  778MOL0     H 7350   6.602   5.335   2.057  2.9475  1.1321 -2.0539
  778MOL0     H 7351   6.774   5.447   2.110 -0.7025 -0.5165 -0.9360
  778MOL0     H 7352   6.761   5.793   2.394 -2.0048 -0.9181 -1.4739
  778MOL0     H 7353   6.783   5.637   2.473  1.8002 -1.5137 -0.6887
  778MOL0     H 7354   6.983   5.781   2.516  0.9242 -4.6814  2.6019
  778MOL0     H 7355   7.016   5.784   2.333  0.5011 -2.2718 -1.6236
  778MOL0     H 7356   7.020   5.537   2.500 -1.9196  4.0387  1.5651
  778MOL0     H 7357   7.051   5.559   2.321 -6.6964  0.8414 -1.8742
  778MOL0     H 7358   7.254   5.538   2.460  1.9559  0.0506  2.1127
  778MOL0     H 7359   7.188   5.654   2.575 -1.3815 -3.1208  0.4179
  778MOL0     H 7360   7.401   5.878   2.289  1.2799  1.4058  2.4456
  778MOL0     H 7361   6.552   5.744   2.320 -3.0036  0.3039 -1.5289
  778MOL0     H 7362   6.239   5.595   2.314  0.0499 -2.0610 -1.2774
  778MOL0     H 7363   6.318   5.752   2.305 -1.9214  0.5831 -0.4793
  778MOL0     H 7364   6.243   5.696   2.166 -2.6086  2.2586  2.0325
  779MOL0     O 7365  11.330   7.957   2.298 -0.2461 -1.1824 -0.7323
  779MOL0     C 7366  11.278   8.068   2.319 -0.4422  1.2328  0.0296
  779MOL0     O 7367  11.220   8.105   2.431 -0.3630 -0.0540  0.2670
  779MOL0     C 7368  11.222   8.013   2.533 -1.1752 -0.9479  0.2632
  779MOL0     C 7369  11.103   7.964   2.574  0.0863 -0.9844  0.1568
  779MOL0     C 7370  11.096   7.905   2.703 -0.6130  0.0247 -0.1136
  779MOL0     C 7371  11.215   7.882   2.784  0.7316 -0.8217 -0.5620
  779MOL0     O 7372  11.219   7.848   2.916  0.0218 -0.2269 -0.3609
  779MOL0     C 7373  11.098   7.838   2.977  0.0307  0.4474 -1.1716
  779MOL0     C 7374  11.127   7.795   3.121  0.2218  0.1773  0.6174
  779MOL0     C 7375  11.192   7.650   3.130  0.4483  0.6548  0.7014
  779MOL0     C 7376  11.221   7.589   3.269  1.0254 -0.3806  0.6041
  779MOL0     C 7377  11.286   7.451   3.245  0.0741 -0.8328  1.1137
  779MOL0     C 7378  11.339   7.389   3.378 -0.5329 -0.4264  0.3412
  779MOL0     C 7379  11.458   7.291   3.353  0.1161 -0.2448 -0.3500
  779MOL0     C 7380  11.499   7.241   3.485 -0.2042  0.1151 -0.3066
  779MOL0     N 7381  11.549   7.352   3.565 -1.2335 -0.1628 -0.6955
  779MOL0     C 7382  11.631   7.452   3.514  0.5884 -0.4324 -0.2559
  779MOL0     C 7383  11.658   7.519   3.630  0.3569 -0.1632  0.5440
  779MOL0     C 7384  11.723   7.650   3.638 -0.7427 -0.1402  0.1985
  779MOL0     C 7385  11.883   7.648   3.650  0.0289 -0.4229 -0.6183
  779MOL0     C 7386  11.928   7.574   3.774  0.9370  0.5237  0.9073
  779MOL0     C 7387  12.067   7.615   3.815  0.4905  0.2489 -0.3690
  779MOL0     O 7388  12.167   7.553   3.729  0.5286 -0.9621 -0.1369
  779MOL0     C 7389  12.252   7.639   3.666 -0.1512  0.0276  1.2691
  779MOL0     C 7390  12.345   7.719   3.743 -0.4521 -0.6793  0.3374
  779MOL0     C 7391  12.439   7.800   3.668  0.0156 -0.1436  0.9269
  779MOL0     C 7392  12.525   7.890   3.755  0.1279  0.8652  0.4187
  779MOL0     C 7393  12.466   7.776   3.530 -0.0734  0.0747  0.4670
  779MOL0     C 7394  12.553   7.854   3.440 -0.8120  0.9061  0.6041
  779MOL0     O 7395  12.541   7.841   3.306  0.3791  0.4445  0.1534
  779MOL0     C 7396  12.644   7.888   3.228  0.4683 -0.2969 -0.3848
  779MOL0     C 7397  12.752   7.799   3.209  0.9455  0.3137  0.2745
  779MOL0     C 7398  12.858   7.846   3.134  0.0264  0.7233 -0.9524
  779MOL0     C 7399  12.864   7.967   3.071 -0.3987 -1.5646  0.6307
  779MOL0     O 7400  12.962   8.019   2.988  0.7388  0.4120 -0.4951
  779MOL0     C 7401  12.995   7.935   2.882  0.5937 -0.9978 -0.1409
  779MOL0     C 7402  13.137   7.960   2.824  0.5697  0.2567  1.1358
  779MOL0     C 7403  13.168   7.880   2.688  0.0579  0.3407  0.0033
  779MOL0     C 7404  13.312   7.912   2.629  0.3752 -0.5155 -0.3616
  779MOL0     C 7405  13.333   7.863   2.483  0.5273 -0.6299 -0.2521
  779MOL0     C 7406  13.239   7.934   2.377  0.3955 -0.1055 -0.8961
  779MOL0     C 7407  13.254   8.088   2.365  0.9031  0.8576 -0.7146
  779MOL0     C 7408  13.167   8.140   2.256  1.0984  0.3506 -0.4442
  779MOL0    Cl 7409  12.998   8.131   2.300  0.0178  0.1072  0.4347
  779MOL0     C 7410  12.756   8.054   3.096  0.3203 -1.0282  0.5585
  779MOL0     C 7411  12.638   8.015   3.171 -0.9725 -0.1019 -1.2388
  779MOL0     O 7412  12.637   7.930   3.490  0.9060  0.1344 -0.0063
  779MOL0     C 7413  12.379   7.694   3.463  0.6278 -0.0565  0.7659
  779MOL0     C 7414  12.270   7.622   3.528  0.0261  0.1294 -0.4372
  779MOL0     N 7415  11.604   7.461   3.742 -0.4944  0.0014 -0.5398
  779MOL0     N 7416  11.533   7.360   3.701 -0.7592  0.3942 -0.6336
  779MOL0     C 7417  11.330   7.923   2.730 -0.5708 -1.1433  0.2884
  779MOL0     C 7418  11.335   7.997   2.617  0.2570 -0.7592  0.2883
  779MOL0     C 7419  11.300   8.169   2.217 -0.7529  0.5852  1.0557
  779MOL0     C 7420  11.427   8.229   2.217 -0.5569  0.3824  0.1382
  779MOL0     C 7421  11.456   8.326   2.119  0.1361 -0.2032 -0.3350
  779MOL0     C 7422  11.353   8.365   2.033  0.1433 -0.7141 -0.0259
  779MOL0     O 7423  11.375   8.474   1.950  1.5877 -0.0547  0.5430
  779MOL0     C 7424  11.288   8.509   1.848 -0.6356 -0.6298 -0.3969
  779MOL0     C 7425  11.165   8.590   1.877 -0.1253 -0.8155 -0.3351
  779MOL0     C 7426  11.076   8.615   1.755  0.2105 -0.5009  0.4950
  779MOL0     C 7427  10.942   8.689   1.784 -0.2238  0.3710 -0.3769
  779MOL0     C 7428  10.952   8.816   1.851 -0.1316 -0.4704 -0.7738
  779MOL0     C 7429  10.968   8.920   1.903  0.9313  0.4776 -0.7200
  779MOL0     C 7430  11.229   8.296   2.034  0.4739  0.1975 -0.0614
  779MOL0     C 7431  11.205   8.200   2.123  0.2200  1.2108  0.1778
  779MOL0     C 7432  11.075   8.124   2.131 -0.5282 -0.0711  0.8074
  779MOL0     H 7433  11.019   7.989   2.510  1.0431  1.6092 -0.1821
  779MOL0     H 7434  10.997   7.870   2.731 -0.0138 -1.9876 -0.3924
  779MOL0     H 7435  11.027   7.772   2.926 -1.2788  2.1987 -1.7302
  779MOL0     H 7436  11.051   7.936   2.986  0.0201  0.2763  1.1864
  779MOL0     H 7437  11.197   7.861   3.172  0.4853  1.5068 -1.3682
  779MOL0     H 7438  11.037   7.798   3.184 -0.1097  1.8894  0.1152
  779MOL0     H 7439  11.134   7.582   3.066  1.0998  1.8374 -1.2258
  779MOL0     H 7440  11.290   7.664   3.084 -0.0177  0.2186 -0.4574
  779MOL0     H 7441  11.281   7.666   3.318  0.1294  1.6815 -1.3302
  779MOL0     H 7442  11.130   7.568   3.326  0.7194 -1.5826 -0.2841
  779MOL0     H 7443  11.376   7.457   3.183 -2.2553  2.0389 -2.3875
  779MOL0     H 7444  11.216   7.384   3.194  1.2600 -0.6821 -0.8019
  779MOL0     H 7445  11.362   7.477   3.439  1.6649 -0.7310  0.0364
  779MOL0     H 7446  11.250   7.352   3.428 -0.9447 -0.6541 -0.5439
  779MOL0     H 7447  11.542   7.329   3.294  1.2872 -3.0984 -0.6713
  779MOL0     H 7448  11.410   7.210   3.297  1.1267 -0.7219 -0.5452
  779MOL0     H 7449  11.413   7.199   3.538  0.3255 -1.8986 -0.9660
  779MOL0     H 7450  11.586   7.175   3.473  2.3168  2.9290  1.0875
  779MOL0     H 7451  11.660   7.474   3.411  1.1096 -2.0115 -0.4832
  779MOL0     H 7452  11.679   7.707   3.720 -0.8706 -0.2970  0.2376
  779MOL0     H 7453  11.695   7.707   3.548  1.3334  2.0934  0.8600
  779MOL0     H 7454  11.929   7.611   3.558  0.5637 -1.8950  0.2011
  779MOL0     H 7455  11.914   7.752   3.667 -0.6371 -0.1215 -1.2235
  779MOL0     H 7456  11.862   7.593   3.859  1.4613  0.1716  1.4054
  779MOL0     H 7457  11.925   7.466   3.757 -3.1603  1.0084 -3.2355
  779MOL0     H 7458  12.072   7.724   3.825  1.3153  0.0119  3.5057
  779MOL0     H 7459  12.081   7.576   3.916 -2.1660  1.6848  0.6580
  779MOL0     H 7460  12.327   7.724   3.850 -0.0494 -2.2158  0.4941
  779MOL0     H 7461  12.486   7.878   3.856  1.2131  1.1175  0.8840
  779MOL0     H 7462  12.505   7.994   3.728 -1.0101  0.1186 -1.8301
  779MOL0     H 7463  12.626   7.850   3.738 -0.4849 -0.6679  0.2112
  779MOL0     H 7464  12.746   7.700   3.253 -1.2895 -1.2041 -3.0377
  779MOL0     H 7465  12.943   7.781   3.117  0.6718  0.8359  1.4619
  779MOL0     H 7466  12.990   7.828   2.905 -1.3789 -0.8816  0.1389
  779MOL0     H 7467  12.916   7.954   2.808  1.3169  5.0245  0.1584
  779MOL0     H 7468  13.157   8.067   2.816  0.8276  0.1820  0.7625
  779MOL0     H 7469  13.203   7.918   2.901 -0.0400 -1.2003  0.8949
  779MOL0     H 7470  13.098   7.912   2.612  0.3077 -1.2788 -0.9570
  779MOL0     H 7471  13.162   7.774   2.715  2.9144 -0.0098 -0.3992
  779MOL0     H 7472  13.382   7.878   2.706  1.5362  3.2225  0.3952
  779MOL0     H 7473  13.325   8.019   2.644  0.3117 -0.4450 -0.7978
  779MOL0     H 7474  13.433   7.888   2.448  0.4332 -0.4844 -0.4196
  779MOL0     H 7475  13.321   7.755   2.491 -2.4587 -0.3125  0.9057
  779MOL0     H 7476  13.130   7.925   2.389  0.0811  1.2547 -2.2950
  779MOL0     H 7477  13.253   7.894   2.276 -1.3486 -2.2169 -0.3784
  779MOL0     H 7478  13.357   8.111   2.337  1.9479 -3.2893 -0.8303
  779MOL0     H 7479  13.225   8.138   2.458  0.1515  3.2025 -2.0999
  779MOL0     H 7480  13.188   8.085   2.164 -1.8119 -0.8604 -0.4931
  779MOL0     H 7481  13.189   8.247   2.242 -0.1727  0.4985 -1.4958
  779MOL0     H 7482  12.721   8.142   3.042 -3.1883 -1.7466  1.4212
  779MOL0     H 7483  12.560   8.090   3.176 -0.8733  0.2584 -3.7637
  779MOL0     H 7484  12.384   7.673   3.357  0.1028  0.9499  0.5211
  779MOL0     H 7485  12.210   7.554   3.469 -1.0387 -0.2406  1.0069
  779MOL0     H 7486  11.424   7.911   2.783  0.5200 -0.3789 -1.3852
  779MOL0     H 7487  11.428   8.048   2.594  1.2797 -2.0139  1.4732
  779MOL0     H 7488  11.502   8.193   2.287 -0.7933  0.5242  0.4650
  779MOL0     H 7489  11.555   8.369   2.118  0.3612 -0.7037 -1.7907
  779MOL0     H 7490  11.351   8.553   1.770 -2.5932  2.0170 -0.6251
  779MOL0     H 7491  11.248   8.420   1.798 -1.3717 -1.3029  1.3348
  779MOL0     H 7492  11.190   8.691   1.912 -1.5226 -0.9633  1.2149
  779MOL0     H 7493  11.106   8.539   1.954  0.7842 -0.1781  0.8115
  779MOL0     H 7494  11.129   8.671   1.678 -1.6620  3.8781  2.0857
  779MOL0     H 7495  11.053   8.519   1.707  0.5145  1.2980 -3.6389
  779MOL0     H 7496  10.877   8.622   1.841  0.7114  1.1668  1.7240
  779MOL0     H 7497  10.887   8.697   1.690  1.7887 -0.2040 -1.6873
  779MOL0     H 7498  10.974   9.018   1.946  0.2086  0.3047 -0.2057
  779MOL0     H 7499  11.154   8.315   1.958 -1.8955 -0.5705  1.9417
  779MOL0     H 7500  10.999   8.146   2.055  1.7158  0.5971 -1.3965
  779MOL0     H 7501  11.095   8.021   2.100  2.1527  0.9083 -1.0568
  779MOL0     H 7502  11.031   8.116   2.231 -1.2207 -1.6828  0.4074
  780MOL0     O 7503   3.165   2.636   5.961 -0.4996  0.2265 -0.4841
  780MOL0     C 7504   3.264   2.667   5.901 -0.1398 -0.4742  0.4170
  780MOL0     O 7505   3.385   2.673   5.947 -0.1956 -0.7199  0.1300
  780MOL0     C 7506   3.411   2.618   6.067  0.3942  0.2889  0.3184
  780MOL0     C 7507   3.342   2.645   6.188 -0.3478  0.1194  1.2350
  780MOL0     C 7508   3.366   2.577   6.305 -1.3177  0.4393  0.1597
  780MOL0     C 7509   3.477   2.500   6.306 -1.7317  0.2576 -0.4608
  780MOL0     O 7510   3.527   2.453   6.430  0.2403  0.1826  0.4718
  780MOL0     C 7511   3.625   2.537   6.489 -0.1674 -0.0759 -0.4797
  780MOL0     C 7512   3.666   2.471   6.625  0.3664  0.2274 -0.3651
  780MOL0     C 7513   3.559   2.472   6.734  0.0424 -0.3503  0.2455
  780MOL0     C 7514   3.617   2.422   6.864  0.7384 -0.0937 -0.3564
  780MOL0     C 7515   3.551   2.484   6.993  0.0666 -0.8177 -0.6332
  780MOL0     C 7516   3.640   2.453   7.107  0.9789 -0.4737  0.5885
  780MOL0     C 7517   3.563   2.445   7.246 -0.5411  0.4674  0.0698
  780MOL0     C 7518   3.560   2.577   7.321  0.9923 -0.6588  0.1993
  780MOL0     N 7519   3.424   2.631   7.320 -0.4322  0.9466  0.7129
  780MOL0     C 7520   3.325   2.614   7.415 -0.3508 -0.3551  0.1472
  780MOL0     C 7521   3.215   2.666   7.364 -0.2317  0.5762  0.2023
  780MOL0     C 7522   3.074   2.696   7.424  1.1207  0.5256 -0.3792
  780MOL0     C 7523   3.065   2.846   7.469  0.0874 -0.0062 -0.6985
  780MOL0     C 7524   3.187   2.895   7.548  0.1968  0.2328  0.0804
  780MOL0     C 7525   3.164   3.011   7.641  1.0308  0.0279  0.8027
  780MOL0     O 7526   3.136   3.122   7.558  0.5761 -0.7487  0.9987
  780MOL0     C 7527   3.079   3.237   7.617  0.4009 -0.3546 -0.0587
  780MOL0     C 7528   3.145   3.358   7.593  0.2299  0.2923  0.3935
  780MOL0     C 7529   3.107   3.472   7.670  0.4377 -0.2238  0.1375
  780MOL0     C 7530   3.177   3.611   7.642 -0.4852 -1.1373  0.9753
  780MOL0     C 7531   3.007   3.456   7.767 -0.2778  0.1641 -0.7493
  780MOL0     C 7532   2.969   3.561   7.869  0.3992  1.1260  0.2100
  780MOL0     O 7533   3.061   3.653   7.903  0.0048 -0.0378 -0.1716
  780MOL0     C 7534   3.016   3.742   7.995 -0.5261 -0.8946  0.3972
  780MOL0     C 7535   2.948   3.852   7.954 -0.4637  0.7143  0.6919
  780MOL0     C 7536   2.886   3.938   8.039  0.7681 -0.2021 -0.3914
  780MOL0     C 7537   2.918   3.931   8.176 -0.1222 -1.0959  0.3036
  780MOL0     O 7538   2.895   4.032   8.268 -0.6050 -0.4532 -0.4564
  780MOL0     C 7539   2.798   4.135   8.236  0.4786 -0.8123  0.6442
  780MOL0     C 7540   2.794   4.230   8.360 -0.4411  0.2862  0.6251
  780MOL0     C 7541   2.728   4.172   8.477  0.4951  0.4455 -1.0452
  780MOL0     C 7542   2.696   4.274   8.585  0.2786 -0.3777  0.0396
  780MOL0     C 7543   2.610   4.227   8.703 -0.3059 -0.7720  0.1225
  780MOL0     C 7544   2.460   4.187   8.671  0.1859  0.2840  0.0279
  780MOL0     C 7545   2.394   4.132   8.790 -0.7650 -0.2500  0.1509
  780MOL0     C 7546   2.255   4.083   8.770 -0.2896  0.4103 -0.0585
  780MOL0    Cl 7547   2.158   4.233   8.753 -0.6729 -0.6126  0.0902
  780MOL0     C 7548   2.989   3.819   8.221 -0.3716  0.5342  0.1026
  780MOL0     C 7549   3.039   3.727   8.132  0.3967  0.2646  0.7765
  780MOL0     O 7550   2.860   3.543   7.923  0.2302  0.1734  0.3071
  780MOL0     C 7551   2.940   3.338   7.776 -0.2166  0.2018  0.0070
  780MOL0     C 7552   2.973   3.229   7.702  0.0825  0.6140 -0.6743
  780MOL0     N 7553   3.247   2.727   7.245 -0.0974  0.2635 -0.5146
  780MOL0     N 7554   3.373   2.705   7.220  0.0744 -0.1567 -0.0676
  780MOL0     C 7555   3.558   2.469   6.196  0.8456 -0.2064  0.5595
  780MOL0     C 7556   3.530   2.528   6.071  0.2572 -0.5235  0.1275
  780MOL0     C 7557   3.269   2.715   5.751 -0.3579 -0.0187  0.4207
  780MOL0     C 7558   3.389   2.765   5.697 -0.1308  0.4629 -0.0842
  780MOL0     C 7559   3.402   2.804   5.563 -0.3486  0.0982 -0.4438
  780MOL0     C 7560   3.300   2.777   5.471  0.6263 -1.2210 -0.2184
  780MOL0     O 7561   3.316   2.806   5.339  0.4307 -0.4476 -0.1291
  780MOL0     C 7562   3.447   2.853   5.286  0.1932 -0.3576  0.1310
  780MOL0     C 7563   3.422   2.898   5.144  0.0812 -0.2409  0.0168
  780MOL0     C 7564   3.546   2.968   5.087 -0.6777 -0.3533  0.4196
  780MOL0     C 7565   3.675   2.883   5.074 -0.5992 -0.4722 -0.8440
  780MOL0     C 7566   3.756   2.939   4.968  0.1494 -1.1343 -0.4105
  780MOL0     C 7567   3.832   2.989   4.888  0.5933 -0.6631 -0.0160
  780MOL0     C 7568   3.176   2.741   5.522  0.0840 -0.6113 -0.4477
  780MOL0     C 7569   3.166   2.712   5.660  0.4736  1.1097  0.0064
  780MOL0     C 7570   3.027   2.650   5.688  0.3587 -0.2964  0.0080
  780MOL0     H 7571   3.258   2.712   6.179 -1.1626 -0.8568  1.3902
  780MOL0     H 7572   3.300   2.590   6.390 -0.0365  1.1504  1.0824
  780MOL0     H 7573   3.597   2.639   6.517  0.2458 -0.2644  0.6616
  780MOL0     H 7574   3.716   2.539   6.428 -1.4951 -0.8958 -2.5961
  780MOL0     H 7575   3.709   2.372   6.605 -0.3664 -0.1089 -0.3086
  780MOL0     H 7576   3.747   2.531   6.668 -1.2344  2.5838 -0.5102
  780MOL0     H 7577   3.530   2.577   6.748  1.8811  0.5831 -2.1614
  780MOL0     H 7578   3.467   2.423   6.702  0.4697 -1.5015  0.7024
  780MOL0     H 7579   3.610   2.313   6.862  2.2829 -0.2569  0.9862
  780MOL0     H 7580   3.725   2.436   6.868  0.8026 -0.8107  1.0560
  780MOL0     H 7581   3.451   2.439   6.999 -0.3182 -0.0747 -1.2546
  780MOL0     H 7582   3.527   2.589   6.972 -2.4261 -2.0672 -5.4007
  780MOL0     H 7583   3.695   2.361   7.088  3.0718 -0.2551  4.5735
  780MOL0     H 7584   3.725   2.519   7.126  1.0164 -1.3452  4.1511
  780MOL0     H 7585   3.629   2.386   7.310  0.7616 -0.4360 -2.0005
  780MOL0     H 7586   3.462   2.403   7.246  0.4145 -1.9817 -0.5378
  780MOL0     H 7587   3.616   2.584   7.415 -1.8867  2.1947  1.9145
  780MOL0     H 7588   3.621   2.649   7.266  2.4726 -0.7745  1.6263
  780MOL0     H 7589   3.324   2.559   7.508 -1.0049 -0.1255  0.2800
  780MOL0     H 7590   3.069   2.629   7.510  2.8133 -1.0366 -1.4213
  780MOL0     H 7591   2.986   2.667   7.365 -0.5936 -1.3587  2.8237
  780MOL0     H 7592   3.046   2.898   7.375 -0.0291  0.0528 -0.6429
  780MOL0     H 7593   2.976   2.869   7.529  0.0154 -0.2711 -0.7021
  780MOL0     H 7594   3.212   2.804   7.603 -3.0906 -0.8330 -0.0119
  780MOL0     H 7595   3.252   2.918   7.463 -1.6052  0.2167 -1.3615
  780MOL0     H 7596   3.089   2.999   7.719 -0.6662  0.8790 -0.6367
  780MOL0     H 7597   3.265   3.032   7.678  0.4047  2.4967  1.2800
  780MOL0     H 7598   3.212   3.349   7.508 -1.3741  1.1665 -1.0286
  780MOL0     H 7599   3.104   3.691   7.657 -0.2986 -0.7337 -0.1946
  780MOL0     H 7600   3.216   3.614   7.540  0.5684  0.5693  1.3927
  780MOL0     H 7601   3.260   3.620   7.712 -0.9180 -1.4115  1.5362
  780MOL0     H 7602   2.925   3.861   7.848  0.7131  2.0699  0.5230
  780MOL0     H 7603   2.849   4.029   7.993 -1.1454 -0.3210  0.7563
  780MOL0     H 7604   2.822   4.204   8.155  1.3085 -1.3677  0.4033
  780MOL0     H 7605   2.700   4.089   8.216 -0.1580 -0.3394  2.4812
  780MOL0     H 7606   2.898   4.252   8.382 -0.6167  0.6232  1.1287
  780MOL0     H 7607   2.742   4.322   8.335 -2.7048 -1.4488 -1.5467
  780MOL0     H 7608   2.772   4.089   8.534 -1.4968  0.5256  0.7760
  780MOL0     H 7609   2.630   4.135   8.443 -0.9117  1.1748  1.8966
  780MOL0     H 7610   2.639   4.358   8.543 -1.2675 -0.4641  1.8766
  780MOL0     H 7611   2.786   4.319   8.628  1.0130 -1.0722 -0.7270
  780MOL0     H 7612   2.661   4.139   8.743 -0.4412 -1.2448 -0.7072
  780MOL0     H 7613   2.615   4.305   8.779  1.1307  0.1566 -0.8713
  780MOL0     H 7614   2.450   4.108   8.595  0.8361 -0.5593  0.7920
  780MOL0     H 7615   2.410   4.274   8.628 -1.2879 -0.3553  0.3905
  780MOL0     H 7616   2.383   4.213   8.863  4.3590  1.8535 -1.0024
  780MOL0     H 7617   2.459   4.059   8.840 -0.4475 -0.2303 -0.2280
  780MOL0     H 7618   2.234   4.043   8.869  2.4783  1.5302  1.0992
  780MOL0     H 7619   2.236   4.004   8.697 -0.5107 -0.7341  1.2014
  780MOL0     H 7620   3.001   3.796   8.327 -1.0694 -1.1785 -0.1557
  780MOL0     H 7621   3.097   3.636   8.150 -0.8751 -1.0602 -1.3229
  780MOL0     H 7622   2.852   3.318   7.835 -0.5566  2.9121  0.5555
  780MOL0     H 7623   2.918   3.136   7.707 -0.5818  1.0739  2.4047
  780MOL0     H 7624   3.647   2.408   6.208  1.3687  0.8014  2.1885
  780MOL0     H 7625   3.597   2.512   5.987 -0.3421 -0.7027 -0.3206
  780MOL0     H 7626   3.467   2.782   5.770  0.6676 -2.3243 -0.1740
  780MOL0     H 7627   3.496   2.857   5.555 -1.5923  3.2886  2.9319
  780MOL0     H 7628   3.487   2.932   5.351  1.5280  0.8721 -2.0857
  780MOL0     H 7629   3.513   2.767   5.292 -0.0549 -0.4883  1.1826
  780MOL0     H 7630   3.342   2.969   5.167  2.7635  2.5968  1.3650
  780MOL0     H 7631   3.393   2.818   5.075  1.4346 -0.6316 -0.1293
  780MOL0     H 7632   3.510   3.001   4.989 -0.0740 -1.8162 -0.3345
  780MOL0     H 7633   3.575   3.048   5.155 -1.9865  1.9553 -1.5853
  780MOL0     H 7634   3.649   2.779   5.052  0.9867 -1.1644  0.3528
  780MOL0     H 7635   3.728   2.891   5.169 -1.6937 -0.4205 -0.2188
  780MOL0     H 7636   3.894   3.027   4.809  0.2983 -0.2880 -0.0684
  780MOL0     H 7637   3.087   2.737   5.461  0.5878  2.0738 -1.5191
  780MOL0     H 7638   2.976   2.610   5.600  0.7115 -1.1939  0.2016
  780MOL0     H 7639   3.037   2.559   5.749 -0.5010  1.5094  3.0739
  780MOL0     H 7640   2.959   2.716   5.743 -3.0580 -2.6163 -1.0576
  781MOL0     O 7641   2.214   4.037   1.668  1.1045 -0.8431  0.0890
  781MOL0     C 7642   2.277   4.130   1.616 -0.2587 -0.0895  0.8002
  781MOL0     O 7643   2.411   4.149   1.645  0.3861 -0.2974  0.0736
  781MOL0     C 7644   2.479   4.058   1.730 -0.1345 -0.7424 -0.0165
  781MOL0     C 7645   2.565   3.958   1.683 -0.3427 -0.7911 -0.0889
  781MOL0     C 7646   2.623   3.871   1.781  0.0413  0.7495  0.4103
  781MOL0     C 7647   2.588   3.885   1.917 -0.4386  0.5429 -0.0483
  781MOL0     O 7648   2.637   3.801   2.017  0.1460  0.4976  0.0503
  781MOL0     C 7649   2.696   3.678   1.974 -0.8133  0.0658 -0.6333
  781MOL0     C 7650   2.722   3.601   2.102  0.4772 -0.1053  0.3454
  781MOL0     C 7651   2.733   3.445   2.092 -0.2830  0.2817 -0.1681
  781MOL0     C 7652   2.798   3.387   2.220 -1.1881 -0.5921 -0.2149
  781MOL0     C 7653   2.705   3.397   2.349 -0.0972 -0.5880  0.2919
  781MOL0     C 7654   2.570   3.317   2.349 -0.1711  0.4196  0.5713
  781MOL0     C 7655   2.503   3.306   2.483 -0.6725  0.3681  0.3754
  781MOL0     C 7656   2.378   3.222   2.492 -0.3573 -0.5493 -0.0630
  781MOL0     N 7657   2.381   3.085   2.442  0.3702 -0.0255 -0.3762
  781MOL0     C 7658   2.461   2.992   2.507 -0.4698 -0.6084 -0.4953
  781MOL0     C 7659   2.435   2.876   2.441 -0.0688  0.2363  0.9943
  781MOL0     C 7660   2.509   2.752   2.469 -0.3401  0.5114  0.0195
  781MOL0     C 7661   2.620   2.716   2.370  0.0687 -0.4325  0.2005
  781MOL0     C 7662   2.597   2.733   2.220  0.3158  0.4708  0.2275
  781MOL0     C 7663   2.674   2.852   2.168 -0.0344  0.5937  0.2378
  781MOL0     O 7664   2.814   2.824   2.153  0.3218 -0.4524 -0.3429
  781MOL0     C 7665   2.877   2.818   2.031 -0.0359 -0.8353 -1.6567
  781MOL0     C 7666   2.900   2.696   1.985 -0.5148 -0.1760  0.0104
  781MOL0     C 7667   2.971   2.663   1.864 -0.0494  0.5763 -0.3161
  781MOL0     C 7668   2.982   2.516   1.823 -0.8528 -0.1591 -0.1898
  781MOL0     C 7669   3.009   2.773   1.787  1.1054 -1.1910 -0.0553
  781MOL0     C 7670   3.076   2.761   1.655  0.3339  0.2131  0.2811
  781MOL0     O 7671   3.104   2.878   1.591 -0.8492 -0.2898 -0.7317
  781MOL0     C 7672   3.184   2.866   1.486  0.1724  0.4296 -0.2986
  781MOL0     C 7673   3.142   2.859   1.355  0.3568 -0.9009  0.2996
  781MOL0     C 7674   3.240   2.881   1.246  0.1871 -0.9477 -0.8854
  781MOL0     C 7675   3.379   2.884   1.277  0.1592  0.6158  1.4207
  781MOL0     O 7676   3.471   2.870   1.177 -0.1835  0.0623  0.0715
  781MOL0     C 7677   3.443   2.946   1.055 -0.3044 -0.3954  0.8417
  781MOL0     C 7678   3.568   2.978   0.968 -0.1491 -0.9369 -0.3032
  781MOL0     C 7679   3.663   2.862   0.941  0.5319  1.1750  0.5775
  781MOL0     C 7680   3.784   2.909   0.861 -0.1840 -0.0988 -0.7174
  781MOL0     C 7681   3.902   2.821   0.875 -0.3277  0.2224  0.3775
  781MOL0     C 7682   3.900   2.678   0.820  0.3766 -0.6923 -0.3719
  781MOL0     C 7683   3.953   2.655   0.675 -0.1161 -0.2522 -0.2405
  781MOL0     C 7684   3.983   2.501   0.661 -0.4563  0.4180  0.0292
  781MOL0    Cl 7685   4.109   2.421   0.772  0.0325  0.5305  0.0564
  781MOL0     C 7686   3.408   2.873   1.410 -0.2749  0.2447  0.1494
  781MOL0     C 7687   3.321   2.864   1.515 -0.2742  0.0882  0.3061
  781MOL0     O 7688   3.110   2.647   1.613  0.1498  0.3938  0.5511
  781MOL0     C 7689   2.969   2.904   1.826  1.0710 -0.4110 -0.1930
  781MOL0     C 7690   2.906   2.927   1.953 -0.4572 -0.6838 -0.8627
  781MOL0     N 7691   2.348   2.899   2.336 -0.5001 -0.7518 -0.5015
  781MOL0     N 7692   2.316   3.025   2.340 -0.2038  0.1362 -0.0874
  781MOL0     C 7693   2.491   3.981   1.957 -0.5861  1.3464  0.3509
  781MOL0     C 7694   2.434   4.058   1.859  0.5609 -0.4296 -0.4006
  781MOL0     C 7695   2.219   4.213   1.509  0.3416  1.3755 -0.3002
  781MOL0     C 7696   2.301   4.303   1.450 -0.7259 -0.4234  0.7089
  781MOL0     C 7697   2.260   4.382   1.347  0.5226 -0.1252 -0.1230
  781MOL0     C 7698   2.130   4.354   1.290 -1.0851 -0.6014 -0.3074
  781MOL0     O 7699   2.090   4.418   1.175 -0.0221  0.3430 -0.4845
  781MOL0     C 7700   2.137   4.538   1.116  0.4484  1.2697  0.5342
  781MOL0     C 7701   2.243   4.514   1.018 -0.2617 -0.0303  0.2498
  781MOL0     C 7702   2.225   4.402   0.916 -0.2987  0.2503 -0.9526
  781MOL0     C 7703   2.101   4.403   0.832  0.5689  0.1811 -0.0402
  781MOL0     C 7704   2.086   4.527   0.756 -1.0274 -0.0436  0.2353
  781MOL0     C 7705   2.061   4.636   0.707  0.4731  0.2022 -0.7166
  781MOL0     C 7706   2.047   4.268   1.350  0.3715 -0.0485  0.0527
  781MOL0     C 7707   2.084   4.201   1.462  0.4703  0.8017  0.6782
  781MOL0     C 7708   1.971   4.127   1.533 -0.0623  0.5777  0.3179
  781MOL0     H 7709   2.604   3.959   1.582  0.2114 -3.6687  0.0119
  781MOL0     H 7710   2.685   3.789   1.748  0.0116 -0.2039  2.5499
  781MOL0     H 7711   2.790   3.698   1.922 -0.4812  1.1944  0.3630
  781MOL0     H 7712   2.620   3.628   1.913 -0.1455  0.2843 -1.6854
  781MOL0     H 7713   2.817   3.639   2.140  1.5964 -2.1112 -0.3257
  781MOL0     H 7714   2.641   3.635   2.168  1.4616  2.6593  0.2437
  781MOL0     H 7715   2.632   3.407   2.077 -0.5070  0.9134 -0.3163
  781MOL0     H 7716   2.789   3.421   2.000 -1.1385 -0.8685 -0.4033
  781MOL0     H 7717   2.830   3.283   2.210  1.0181 -0.1292  1.4272
  781MOL0     H 7718   2.883   3.453   2.238 -1.3889 -0.7897  1.6551
  781MOL0     H 7719   2.684   3.503   2.369 -2.4344 -0.3599 -2.6776
  781MOL0     H 7720   2.764   3.356   2.431  0.4314 -1.9713 -0.7395
  781MOL0     H 7721   2.511   3.371   2.274 -1.0653 -2.4328 -0.9510
  781MOL0     H 7722   2.586   3.216   2.310  0.2324  1.5784 -2.5740
  781MOL0     H 7723   2.471   3.410   2.493  0.7383  0.8854 -0.1982
  781MOL0     H 7724   2.570   3.283   2.567  0.8551  4.3347  0.4790
  781MOL0     H 7725   2.330   3.241   2.589  0.6637  2.5483 -0.0797
  781MOL0     H 7726   2.306   3.271   2.424 -1.8458 -2.3547  0.1227
  781MOL0     H 7727   2.532   3.006   2.588  2.1712  1.7805 -3.0006
  781MOL0     H 7728   2.421   2.687   2.470 -0.1502  0.0481  4.1637
  781MOL0     H 7729   2.555   2.760   2.568  1.4334 -2.4396 -0.4389
  781MOL0     H 7730   2.706   2.773   2.408 -0.7808  1.6957 -0.8712
  781MOL0     H 7731   2.639   2.609   2.383 -2.5096 -1.2697 -1.9888
  781MOL0     H 7732   2.638   2.643   2.173  1.0303  0.8582  0.0930
  781MOL0     H 7733   2.489   2.737   2.201  0.2704  3.6456  0.6579
  781MOL0     H 7734   2.637   2.875   2.068 -1.5980  0.5325  0.7837
  781MOL0     H 7735   2.653   2.944   2.223 -1.1241  0.1221  0.6339
  781MOL0     H 7736   2.857   2.618   2.048  1.1683 -1.5849 -0.5243
  781MOL0     H 7737   2.950   2.488   1.722  0.1115 -4.3068  0.4654
  781MOL0     H 7738   2.939   2.440   1.889 -0.0352 -2.9206 -2.5771
  781MOL0     H 7739   3.088   2.488   1.812 -0.6789  0.5396 -0.3066
  781MOL0     H 7740   3.034   2.853   1.347  0.1423 -1.3766  2.7531
  781MOL0     H 7741   3.206   2.878   1.143 -0.4946 -0.7870 -0.6675
  781MOL0     H 7742   3.369   2.904   0.986  1.8499 -1.6339 -0.8200
  781MOL0     H 7743   3.406   3.044   1.087  0.8077  0.9257 -1.6338
  781MOL0     H 7744   3.537   3.023   0.874 -1.6815  1.3867  1.1896
  781MOL0     H 7745   3.625   3.056   1.020  1.3905  0.1062 -3.3070
  781MOL0     H 7746   3.618   2.783   0.880  1.0193  1.0069  0.4229
  781MOL0     H 7747   3.689   2.807   1.032 -0.7889 -4.1350 -1.8381
  781MOL0     H 7748   3.809   3.000   0.916 -1.7812  0.4775 -0.8803
  781MOL0     H 7749   3.770   2.942   0.757 -0.2472  2.8896  0.1400
  781MOL0     H 7750   3.987   2.879   0.839 -0.7326  0.0706 -0.8770
  781MOL0     H 7751   3.924   2.822   0.982  0.2088  1.6387  0.2819
  781MOL0     H 7752   3.801   2.631   0.830 -0.2670  0.5469 -0.7465
  781MOL0     H 7753   3.966   2.633   0.894 -0.6104 -1.9758 -0.2371
  781MOL0     H 7754   4.042   2.714   0.653 -0.6213  0.3653 -0.6984
  781MOL0     H 7755   3.873   2.691   0.608 -0.2217  2.8232  1.3682
  781MOL0     H 7756   4.021   2.481   0.561 -4.5218 -1.2251 -1.3837
  781MOL0     H 7757   3.886   2.453   0.667 -0.6710  0.1536 -3.5673
  781MOL0     H 7758   3.511   2.859   1.441 -0.2038 -1.4352 -0.7260
  781MOL0     H 7759   3.351   2.854   1.618  3.1629  1.6722 -0.3936
  781MOL0     H 7760   2.986   2.988   1.760 -0.4977 -2.6621 -3.7415
  781MOL0     H 7761   2.891   3.027   1.993  2.8027 -0.7494  0.9208
  781MOL0     H 7762   2.446   3.990   2.056  0.3462  0.6744  0.8484
  781MOL0     H 7763   2.362   4.134   1.890 -1.3754 -0.8675 -3.4651
  781MOL0     H 7764   2.405   4.317   1.479  0.5536 -1.2998 -2.8335
  781MOL0     H 7765   2.325   4.448   1.290 -0.3900 -2.0836 -3.7349
  781MOL0     H 7766   2.054   4.592   1.071  0.2895  0.6955  0.1295
  781MOL0     H 7767   2.181   4.601   1.194  1.6267 -1.4489  2.2175
  781MOL0     H 7768   2.335   4.501   1.075 -1.0121  0.0083  1.4990
  781MOL0     H 7769   2.259   4.600   0.953  0.6629 -0.9112 -0.7367
  781MOL0     H 7770   2.319   4.398   0.859  0.1711  0.0927 -0.1775
  781MOL0     H 7771   2.238   4.304   0.963 -3.2580 -0.3298 -1.1902
  781MOL0     H 7772   2.013   4.396   0.897  1.7136  2.7783  1.9578
  781MOL0     H 7773   2.090   4.318   0.765 -3.3584  1.9522 -1.9584
  781MOL0     H 7774   2.034   4.727   0.657  0.8204  0.3025 -0.7288
  781MOL0     H 7775   1.943   4.254   1.321  0.6254  0.1073 -0.9793
  781MOL0     H 7776   1.875   4.175   1.509 -1.7469 -2.3716  0.5958
  781MOL0     H 7777   1.973   4.028   1.486  2.7549  0.2889  0.8940
  781MOL0     H 7778   1.966   4.110   1.641 -3.5369  0.2740  0.2310
  782MOL0     O 7779   1.149   5.212   0.129 -0.1132  0.2493 -0.0053
  782MOL0     C 7780   1.076   5.138   0.060 -0.1064 -0.0842 -0.9791
  782MOL0     O 7781   1.014   5.024   0.111 -0.1621 -0.8205 -0.2618
  782MOL0     C 7782   1.045   4.990   0.247  0.4181 -0.4109  0.8911
  782MOL0     C 7783   1.054   4.853   0.275  0.0547  0.4554  0.2350
  782MOL0     C 7784   1.062   4.814   0.408  0.3987  0.3451 -0.5432
  782MOL0     C 7785   1.058   4.897   0.516  0.1092  0.5885  0.4568
  782MOL0     O 7786   1.071   4.842   0.637 -0.5937 -0.1182  0.2285
  782MOL0     C 7787   1.027   4.919   0.747  1.1783 -0.8999  0.1780
  782MOL0     C 7788   1.019   4.823   0.866  0.0716  0.7257  1.1976
  782MOL0     C 7789   0.950   4.901   0.988  0.0868  0.1135 -0.3724
  782MOL0     C 7790   0.883   4.796   1.077  0.2502 -0.6544  0.4631
  782MOL0     C 7791   0.821   4.850   1.208 -0.2827  0.0683  0.3058
  782MOL0     C 7792   0.924   4.919   1.300  0.2988  0.0935  0.3717
  782MOL0     C 7793   0.895   4.920   1.445 -0.6965 -0.4671 -0.1448
  782MOL0     C 7794   1.009   4.992   1.516  0.1403 -0.0347 -0.2737
  782MOL0     N 7795   0.971   5.053   1.644  0.3666  1.0848  0.6652
  782MOL0     C 7796   0.916   4.973   1.745  0.7506 -0.6481 -0.8371
  782MOL0     C 7797   0.888   5.066   1.843 -0.8539  1.3125  0.2080
  782MOL0     C 7798   0.844   5.035   1.979  0.6599  0.1003  0.1660
  782MOL0     C 7799   0.944   4.959   2.061 -0.0630 -0.4940  1.0070
  782MOL0     C 7800   1.045   5.064   2.092  0.3767  0.6829 -0.1302
  782MOL0     C 7801   1.160   5.025   2.188  0.7336  0.8268 -0.1051
  782MOL0     O 7802   1.248   4.928   2.118 -0.1616 -0.0678 -0.1132
  782MOL0     C 7803   1.249   4.801   2.168 -0.1511  0.1247 -0.5721
  782MOL0     C 7804   1.222   4.707   2.078 -0.4893 -0.5359  0.4188
  782MOL0     C 7805   1.224   4.569   2.104  0.2958 -0.3482  0.2780
  782MOL0     C 7806   1.247   4.472   1.985  0.0472 -0.5246 -0.1636
  782MOL0     C 7807   1.238   4.527   2.238 -0.7302 -0.1155 -0.0175
  782MOL0     C 7808   1.239   4.386   2.285 -0.5050 -0.3903 -0.1546
  782MOL0     O 7809   1.264   4.367   2.419  0.4113 -0.0252  0.1340
  782MOL0     C 7810   1.274   4.243   2.481 -0.2196 -0.8777  0.7047
  782MOL0     C 7811   1.306   4.115   2.424  1.0633 -0.1069 -0.2410
  782MOL0     C 7812   1.352   4.014   2.517 -0.0052  0.4699 -0.6634
  782MOL0     C 7813   1.363   4.030   2.660  0.4938  1.0044  0.3505
  782MOL0     O 7814   1.412   3.927   2.738 -0.2460 -0.1409  0.0476
  782MOL0     C 7815   1.439   3.938   2.881 -0.3255  0.2034 -0.7289
  782MOL0     C 7816   1.517   3.813   2.932  0.4932 -0.4346 -0.2768
  782MOL0     C 7817   1.442   3.683   2.892 -0.3770 -0.1287 -0.1253
  782MOL0     C 7818   1.295   3.672   2.938  0.1719  0.3408  0.0549
  782MOL0     C 7819   1.216   3.538   2.923 -0.8180 -0.8126 -0.7205
  782MOL0     C 7820   1.080   3.545   2.979  0.4929 -1.0302  0.6142
  782MOL0     C 7821   1.024   3.405   2.985  0.5855  0.5141 -0.1615
  782MOL0     C 7822   0.895   3.412   3.066  0.6022 -0.0370  0.0872
  782MOL0    Cl 7823   0.816   3.259   3.052  0.1289 -0.4609 -0.0937
  782MOL0     C 7824   1.326   4.155   2.708 -0.6449 -0.4445 -0.5811
  782MOL0     C 7825   1.287   4.261   2.619 -0.7502 -0.7296  0.2837
  782MOL0     O 7826   1.227   4.291   2.204 -0.1140  0.0396 -0.2654
  782MOL0     C 7827   1.266   4.623   2.334  0.2739  0.1972  0.8180
  782MOL0     C 7828   1.275   4.758   2.299 -0.2738 -1.1205 -0.1323
  782MOL0     N 7829   0.912   5.188   1.794 -0.5951 -0.1823 -0.4116
  782MOL0     N 7830   0.966   5.179   1.681  0.0366 -0.3507 -1.4462
  782MOL0     C 7831   1.040   5.034   0.488  0.0512  0.3927  0.3932
  782MOL0     C 7832   1.035   5.080   0.350  0.4162 -0.2021  0.4487
  782MOL0     C 7833   1.089   5.191  -0.076  0.2887 -0.2879 -0.5680
  782MOL0     C 7834   1.046   5.321  -0.107  0.7209  0.4817  0.4335
  782MOL0     C 7835   1.065   5.371  -0.235 -0.9889 -0.0715  0.0672
  782MOL0     C 7836   1.144   5.303  -0.331 -0.1387  0.9532  0.4784
  782MOL0     O 7837   1.164   5.380  -0.441 -0.0053  0.1524  0.1316
  782MOL0     C 7838   1.270   5.343  -0.527  0.7138 -0.2493 -0.1876
  782MOL0     C 7839   1.255   5.410  -0.669  0.2453 -0.3563  0.1536
  782MOL0     C 7840   1.227   5.561  -0.665 -0.2573  0.4643 -0.3116
  782MOL0     C 7841   1.208   5.636  -0.797  0.4374  0.2550 -0.1449
  782MOL0     C 7842   1.318   5.621  -0.889  0.0712  0.0907 -0.1007
  782MOL0     C 7843   1.413   5.609  -0.959 -0.4870 -0.1204 -0.1228
  782MOL0     C 7844   1.192   5.177  -0.292  0.7847 -0.1547  0.9050
  782MOL0     C 7845   1.160   5.120  -0.166  0.4035  0.8274  1.0213
  782MOL0     C 7846   1.206   4.981  -0.141  0.7535  0.3677  0.9017
  782MOL0     H 7847   1.064   4.788   0.188 -5.7121  0.3852 -0.7760
  782MOL0     H 7848   1.071   4.706   0.422 -3.2128  0.3601  5.1254
  782MOL0     H 7849   0.932   4.960   0.713  0.7522 -0.9912  1.2217
  782MOL0     H 7850   1.090   5.001   0.783  1.2880 -1.1917  0.6631
  782MOL0     H 7851   0.969   4.730   0.838  1.7919  0.7077 -2.2898
  782MOL0     H 7852   1.125   4.806   0.889  1.4468  1.6817 -3.3670
  782MOL0     H 7853   1.029   4.945   1.050  0.1479  0.0967 -0.4391
  782MOL0     H 7854   0.876   4.974   0.954 -0.2983  0.8879  1.9456
  782MOL0     H 7855   0.798   4.749   1.026  1.6490 -0.0924 -2.5830
  782MOL0     H 7856   0.960   4.725   1.108  3.5212  2.8844  1.1911
  782MOL0     H 7857   0.783   4.768   1.269 -3.4566  0.3649 -1.0855
  782MOL0     H 7858   0.734   4.911   1.180 -1.3514 -0.5189  2.1929
  782MOL0     H 7859   1.017   4.862   1.291  1.4676  1.9554  0.1158
  782MOL0     H 7860   0.939   5.023   1.270  2.9473  0.4544  2.5202
  782MOL0     H 7861   0.881   4.824   1.494 -0.6831  0.3163  1.4716
  782MOL0     H 7862   0.809   4.987   1.448 -0.5053 -0.1941 -0.6006
  782MOL0     H 7863   1.095   4.929   1.537  1.2495  0.6923 -2.3315
  782MOL0     H 7864   1.052   5.071   1.454 -1.4134  2.2081  1.3520
  782MOL0     H 7865   0.906   4.866   1.759  1.0969 -0.7435 -1.2881
  782MOL0     H 7866   0.754   4.977   1.956  0.6484  0.3088 -0.3374
  782MOL0     H 7867   0.816   5.129   2.028 -1.6609  0.0105 -0.8514
  782MOL0     H 7868   0.909   4.911   2.153  2.9524 -4.1869  0.4739
  782MOL0     H 7869   0.988   4.875   2.007 -0.9712 -1.2211  1.3880
  782MOL0     H 7870   1.084   5.102   1.997 -0.5123 -2.3365 -1.8223
  782MOL0     H 7871   1.003   5.148   2.149 -0.3863 -0.4264  0.9934
  782MOL0     H 7872   1.220   5.111   2.218  0.3891  0.1678  2.7158
  782MOL0     H 7873   1.105   4.978   2.270 -1.8481  1.7492 -1.1794
  782MOL0     H 7874   1.207   4.739   1.976 -0.3579 -0.7407  0.3365
  782MOL0     H 7875   1.335   4.409   2.001  2.2632  2.1866 -0.8535
  782MOL0     H 7876   1.272   4.529   1.895 -2.3696  1.0491  0.0693
  782MOL0     H 7877   1.161   4.405   1.975 -0.0216 -0.4128 -0.3235
  782MOL0     H 7878   1.299   4.094   2.318 -0.0188  2.9934 -0.8798
  782MOL0     H 7879   1.388   3.920   2.476  2.2117  1.7211 -1.7384
  782MOL0     H 7880   1.502   4.024   2.905  0.0500  0.3659 -2.2502
  782MOL0     H 7881   1.351   3.946   2.946 -0.3829 -1.9627 -0.4883
  782MOL0     H 7882   1.615   3.813   2.884  0.3422 -0.0725 -0.5965
  782MOL0     H 7883   1.540   3.816   3.039 -1.3347  0.6017  0.1363
  782MOL0     H 7884   1.506   3.602   2.927 -1.1398 -0.1659  1.2652
  782MOL0     H 7885   1.439   3.677   2.783  5.0107 -0.0908 -0.5328
  782MOL0     H 7886   1.249   3.757   2.888  2.2613  1.7303  0.3501
  782MOL0     H 7887   1.287   3.694   3.045  1.2074  2.5279 -0.2574
  782MOL0     H 7888   1.213   3.513   2.817 -1.4172  3.7906 -1.9621
  782MOL0     H 7889   1.276   3.466   2.979 -0.9051 -1.0804 -0.9666
  782MOL0     H 7890   1.021   3.590   2.899 -1.5495 -5.5001 -0.6737
  782MOL0     H 7891   1.079   3.601   3.073  2.5615  0.6948 -0.3054
  782MOL0     H 7892   1.093   3.325   3.013  1.0161  1.2698  1.0642
  782MOL0     H 7893   0.988   3.378   2.886 -0.5825  1.3816  0.0086
  782MOL0     H 7894   0.820   3.478   3.020  0.3423  0.0607  0.6392
  782MOL0     H 7895   0.911   3.449   3.168  0.5938 -0.3876  0.2182
  782MOL0     H 7896   1.332   4.176   2.814  0.0671 -1.0424 -0.4989
  782MOL0     H 7897   1.254   4.355   2.662  0.7585  0.5450 -1.1844
  782MOL0     H 7898   1.281   4.595   2.438 -1.3514  1.4202  1.4280
  782MOL0     H 7899   1.301   4.826   2.379 -0.9282 -2.1212  0.9595
  782MOL0     H 7900   1.023   5.100   0.572 -4.6882 -1.3339  1.0678
  782MOL0     H 7901   1.024   5.184   0.324  2.5739  0.3538  1.5698
  782MOL0     H 7902   0.995   5.385  -0.036  1.2974  1.4403 -0.0078
  782MOL0     H 7903   1.031   5.470  -0.263 -1.3112 -0.4080 -0.7698
  782MOL0     H 7904   1.371   5.359  -0.488  0.0099 -1.1714  2.2402
  782MOL0     H 7905   1.252   5.236  -0.541  2.4528 -0.6492  0.4026
  782MOL0     H 7906   1.170   5.368  -0.724 -0.3333  1.5285 -0.4705
  782MOL0     H 7907   1.350   5.389  -0.718 -0.1597 -0.1923 -0.7216
  782MOL0     H 7908   1.140   5.578  -0.601 -0.0049 -3.7988  1.5011
  782MOL0     H 7909   1.318   5.602  -0.620 -0.8960 -0.3182  1.8203
  782MOL0     H 7910   1.194   5.743  -0.780  1.5412  0.9407 -3.0471
  782MOL0     H 7911   1.119   5.597  -0.847  1.1709  0.1028 -1.3751
  782MOL0     H 7912   1.511   5.611  -1.003 -0.1400 -1.9456  0.5076
  782MOL0     H 7913   1.234   5.116  -0.372 -3.4533  0.0693 -1.7924
  782MOL0     H 7914   1.222   4.939  -0.241  3.0860 -0.8017  1.7119
  782MOL0     H 7915   1.301   4.995  -0.090  1.2774 -2.0732  0.7092
  782MOL0     H 7916   1.138   4.915  -0.085 -0.5372  1.1621  0.3216
  783MOL0     O 7917   8.159   2.254  11.171 -1.0409  0.3535  0.3591
  783MOL0     C 7918   8.187   2.348  11.094 -0.1135  0.4790  0.0568
  783MOL0     O 7919   8.158   2.348  10.961  0.0158 -0.5423  0.1939
  783MOL0     C 7920   8.144   2.237  10.879 -0.3908 -0.5118  0.2265
  783MOL0     C 7921   8.156   2.103  10.907  0.0150  0.2541 -0.5767
  783MOL0     C 7922   8.133   2.006  10.802 -0.2621  0.0050  0.4875
  783MOL0     C 7923   8.120   2.044  10.671 -1.2382  0.8882 -0.1004
  783MOL0     O 7924   8.111   1.952  10.570 -0.0658  0.1523 -0.4691
  783MOL0     C 7925   8.236   1.880  10.549 -0.2342  0.3827  0.1486
  783MOL0     C 7926   8.212   1.771  10.444 -0.8163  0.6390 -0.4458
  783MOL0     C 7927   8.149   1.809  10.310 -0.6173 -0.4419 -0.0798
  783MOL0     C 7928   8.134   1.679  10.231  0.2393  0.2503 -0.5152
  783MOL0     C 7929   8.089   1.670  10.086 -0.3680  0.5374  0.3865
  783MOL0     C 7930   8.060   1.520  10.055 -0.3259  0.2970 -0.3413
  783MOL0     C 7931   8.006   1.492   9.917 -0.7665 -0.5605 -0.4835
  783MOL0     C 7932   7.853   1.509   9.892 -0.6675 -0.3759 -0.6967
  783MOL0     N 7933   7.824   1.632   9.816 -0.1818  0.0463 -0.8562
  783MOL0     C 7934   7.867   1.655   9.690 -0.6993 -0.3518  0.3580
  783MOL0     C 7935   7.841   1.787   9.669  0.1908 -0.7478 -0.5453
  783MOL0     C 7936   7.855   1.862   9.543 -0.5099  0.5283 -1.1830
  783MOL0     C 7937   7.965   1.967   9.537 -0.7753 -0.2220  0.3392
  783MOL0     C 7938   7.982   2.028   9.403  0.8706 -0.9945  0.8417
  783MOL0     C 7939   8.074   2.150   9.422  0.3119 -0.1763  0.0949
  783MOL0     O 7940   8.106   2.228   9.307  0.4065  0.0651  0.0688
  783MOL0     C 7941   8.183   2.173   9.214 -0.0925  0.1755  0.6115
  783MOL0     C 7942   8.325   2.161   9.210  1.2244 -0.3123 -0.6837
  783MOL0     C 7943   8.396   2.098   9.114  0.0336 -0.3428  0.4592
  783MOL0     C 7944   8.545   2.091   9.135  0.1108 -0.1969 -0.2968
  783MOL0     C 7945   8.327   2.041   8.998 -0.6192  0.2491 -0.2722
  783MOL0     C 7946   8.404   1.975   8.886  0.3035  0.0797 -0.1477
  783MOL0     O 7947   8.541   1.969   8.896  0.1799 -0.2977  0.2353
  783MOL0     C 7948   8.593   1.943   8.778  0.3160  0.5375 -0.3968
  783MOL0     C 7949   8.627   2.047   8.699 -1.0446 -0.3948  0.0888
  783MOL0     C 7950   8.690   2.025   8.579 -0.1254 -0.3495  0.4175
  783MOL0     C 7951   8.722   1.894   8.545  0.0128 -0.0212 -0.1622
  783MOL0     O 7952   8.796   1.865   8.430  0.3589 -0.1824  1.2570
  783MOL0     C 7953   8.723   1.798   8.320 -0.2226 -0.5143 -0.8845
  783MOL0     C 7954   8.759   1.865   8.192 -0.2808  0.0548 -0.2420
  783MOL0     C 7955   8.693   1.807   8.075  0.1755 -0.6574  0.2456
  783MOL0     C 7956   8.540   1.832   8.054  0.8406  0.7597 -0.1871
  783MOL0     C 7957   8.489   1.730   7.955  0.7267  0.3525  0.3707
  783MOL0     C 7958   8.331   1.742   7.943 -0.3528 -0.6671 -0.5878
  783MOL0     C 7959   8.272   1.626   7.863 -0.4758  0.2860 -0.4839
  783MOL0     C 7960   8.121   1.626   7.876  0.2888  0.8572 -0.0894
  783MOL0    Cl 7961   8.060   1.568   8.037 -0.3663  0.2023 -0.1409
  783MOL0     C 7962   8.691   1.784   8.623 -0.8053  0.3917 -0.9830
  783MOL0     C 7963   8.630   1.808   8.745  0.6747  0.3562 -0.3602
  783MOL0     O 7964   8.338   1.944   8.790  0.5586  1.1691  0.2491
  783MOL0     C 7965   8.190   2.057   9.004  0.6893 -0.5378 -0.5229
  783MOL0     C 7966   8.112   2.125   9.103  0.0015 -0.6116  0.4074
  783MOL0     N 7967   7.773   1.840   9.777  1.0341 -0.2092  0.3935
  783MOL0     N 7968   7.766   1.747   9.870 -0.4084  0.3160  0.0016
  783MOL0     C 7969   8.121   2.178  10.637 -0.2378 -0.3473 -0.0548
  783MOL0     C 7970   8.129   2.269  10.744 -0.1005  0.0806  0.4187
  783MOL0     C 7971   8.221   2.476  11.154 -0.0732  0.0577  0.0557
  783MOL0     C 7972   8.234   2.593  11.066  0.0437  0.0308  1.3090
  783MOL0     C 7973   8.258   2.719  11.115  0.5468  0.0940  0.6956
  783MOL0     C 7974   8.265   2.748  11.247 -0.7366  0.0845 -0.5449
  783MOL0     O 7975   8.306   2.870  11.307 -0.6737  0.3221  0.8245
  783MOL0     C 7976   8.299   2.983  11.223 -0.1453  0.0087 -0.9473
  783MOL0     C 7977   8.285   3.107  11.314  0.2159 -1.1479 -0.4364
  783MOL0     C 7978   8.245   3.248  11.250  0.8940  0.5070  0.0492
  783MOL0     C 7979   8.301   3.272  11.100 -0.7358 -0.2001  0.3162
  783MOL0     C 7980   8.447   3.263  11.084  0.1078  0.3375 -0.1078
  783MOL0     C 7981   8.560   3.223  11.059 -0.6458 -0.3490 -0.1060
  783MOL0     C 7982   8.246   2.644  11.326  0.3480  0.6014  0.4864
  783MOL0     C 7983   8.218   2.513  11.290 -0.7649 -0.1582  0.4761
  783MOL0     C 7984   8.201   2.421  11.400  0.0066  0.2915  0.2638
  783MOL0     H 7985   8.166   2.065  11.008 -0.7673 -0.2201 -0.6698
  783MOL0     H 7986   8.117   1.903  10.831 -2.0177  0.1240  0.0647
  783MOL0     H 7987   8.260   1.827  10.642  1.0297  1.0438  0.2172
  783MOL0     H 7988   8.322   1.937  10.514  1.5850 -1.9689  0.5223
  783MOL0     H 7989   8.305   1.714  10.435  2.8092  4.9123  4.1091
  783MOL0     H 7990   8.151   1.696  10.495  1.8056  1.6532  4.9736
  783MOL0     H 7991   8.051   1.859  10.317 -0.5008 -0.0167 -1.2276
  783MOL0     H 7992   8.208   1.883  10.256  0.4927 -1.4300 -0.2479
  783MOL0     H 7993   8.230   1.629  10.248 -0.1654 -0.1355  0.7555
  783MOL0     H 7994   8.054   1.624  10.283 -2.0846  3.5000 -0.3305
  783MOL0     H 7995   8.177   1.703  10.029 -0.6578  0.6637  0.0080
  783MOL0     H 7996   7.998   1.730  10.074  0.6254  1.9334 -0.4362
  783MOL0     H 7997   8.145   1.453  10.070 -1.3435 -0.6930  1.2302
  783MOL0     H 7998   7.997   1.477  10.134  1.1375  1.5571  1.6069
  783MOL0     H 7999   8.048   1.393   9.899 -1.6524 -1.0116 -0.1339
  783MOL0     H 8000   8.067   1.540   9.840  3.1936 -2.1164  1.4445
  783MOL0     H 8001   7.806   1.422   9.845 -2.3860  1.6057 -2.9186
  783MOL0     H 8002   7.793   1.500   9.983 -2.6205 -1.6056 -2.0288
  783MOL0     H 8003   7.918   1.591   9.619  0.6000  3.4976 -2.5386
  783MOL0     H 8004   7.759   1.911   9.523 -1.3623  0.8350  2.8429
  783MOL0     H 8005   7.873   1.785   9.466  3.6434  0.5379 -0.4392
  783MOL0     H 8006   7.931   2.041   9.609 -2.2465  2.1951 -2.6199
  783MOL0     H 8007   8.055   1.924   9.582 -0.4096  1.0905  0.9026
  783MOL0     H 8008   8.035   1.970   9.327  2.4428 -1.2608  2.1024
  783MOL0     H 8009   7.883   2.058   9.365  1.9269 -0.3129 -1.5732
  783MOL0     H 8010   8.023   2.212   9.496 -2.9467  1.0095 -2.8762
  783MOL0     H 8011   8.164   2.107   9.465  1.3096  0.0067 -1.7202
  783MOL0     H 8012   8.361   2.202   9.304 -0.2185  1.3167 -0.7775
  783MOL0     H 8013   8.575   1.989   9.164  0.5195  0.1562  0.5514
  783MOL0     H 8014   8.556   2.163   9.216 -2.2528  1.5359 -1.4184
  783MOL0     H 8015   8.605   2.122   9.049 -1.8720 -1.3135 -2.1778
  783MOL0     H 8016   8.617   2.150   8.731 -0.3098 -0.6237  1.1261
  783MOL0     H 8017   8.711   2.105   8.508 -2.4318 -1.4824 -1.6879
  783MOL0     H 8018   8.752   1.693   8.307  2.5489 -0.2458  1.9137
  783MOL0     H 8019   8.615   1.806   8.338 -0.0112  3.3609 -0.5615
  783MOL0     H 8020   8.730   1.970   8.206 -1.2602 -0.5816  3.4949
  783MOL0     H 8021   8.866   1.862   8.168  0.1008 -0.8485  1.4316
  783MOL0     H 8022   8.705   1.698   8.074  0.6036 -0.6400 -2.0153
  783MOL0     H 8023   8.745   1.850   7.990  0.1320  2.1444  1.5400
  783MOL0     H 8024   8.508   1.933   8.026 -2.7937 -0.2471 -0.1606
  783MOL0     H 8025   8.491   1.819   8.151  2.6947  2.6090  1.0812
  783MOL0     H 8026   8.546   1.726   7.862  0.9412 -0.6418  0.5353
  783MOL0     H 8027   8.507   1.626   7.983  0.2923  0.0163 -0.5662
  783MOL0     H 8028   8.294   1.830   7.890 -0.7447 -0.2985  0.2725
  783MOL0     H 8029   8.287   1.747   8.043  0.5065 -1.9280 -0.1230
  783MOL0     H 8030   8.298   1.531   7.911  0.0616  1.6288  2.0784
  783MOL0     H 8031   8.302   1.635   7.758 -0.1701 -2.2694 -0.6754
  783MOL0     H 8032   8.079   1.570   7.792 -0.4156 -1.8140  1.9027
  783MOL0     H 8033   8.090   1.728   7.853  0.2568  0.9601  0.4169
  783MOL0     H 8034   8.727   1.684   8.597 -0.0687 -0.3365  2.3623
  783MOL0     H 8035   8.631   1.724   8.813 -2.3215  2.2862  2.3826
  783MOL0     H 8036   8.123   2.002   8.939 -0.6549 -0.6754  0.9129
  783MOL0     H 8037   8.004   2.117   9.090  0.0591  0.1036 -0.7186
  783MOL0     H 8038   8.116   2.217  10.536  1.6961 -0.1055 -0.0944
  783MOL0     H 8039   8.125   2.373  10.714 -0.4267  0.5615  2.0184
  783MOL0     H 8040   8.200   2.580  10.964  0.7165  0.3934  1.0359
  783MOL0     H 8041   8.236   2.793  11.039  0.2152  0.6411  1.3146
  783MOL0     H 8042   8.391   2.987  11.163  0.1502  1.1029 -0.4569
  783MOL0     H 8043   8.211   2.990  11.159  0.0335  0.6035 -1.1427
  783MOL0     H 8044   8.365   3.126  11.386  0.2549 -0.5721 -0.6275
  783MOL0     H 8045   8.203   3.093  11.386  1.0612  1.8376  1.2431
  783MOL0     H 8046   8.137   3.259  11.248  0.5040 -2.2723 -2.6954
  783MOL0     H 8047   8.280   3.335  11.307 -1.1664  1.2271  0.2872
  783MOL0     H 8048   8.254   3.363  11.061  4.2023  2.0731 -1.1340
  783MOL0     H 8049   8.261   3.189  11.042 -1.0729  1.5568 -2.1046
  783MOL0     H 8050   8.663   3.197  11.043 -1.0451 -3.2331  1.3775
  783MOL0     H 8051   8.247   2.670  11.431  1.0122  0.0063  0.6375
  783MOL0     H 8052   8.244   2.322  11.386 -3.2181 -1.1170 -0.4729
  783MOL0     H 8053   8.241   2.468  11.491 -1.6473 -0.6485  1.5307
  783MOL0     H 8054   8.095   2.396  11.409 -0.0565 -1.6767 -3.7594
  784MOL0     O 8055   6.822   7.093   1.341  0.0713  0.6936 -1.3917
  784MOL0     C 8056   6.700   7.115   1.365  0.7156  0.1586 -0.0533
  784MOL0     O 8057   6.617   7.186   1.282 -0.1559 -0.6383 -0.4901
  784MOL0     C 8058   6.650   7.248   1.166 -0.8793 -0.1420 -1.2998
  784MOL0     C 8059   6.628   7.388   1.162 -0.6394  0.1621  0.6413
  784MOL0     C 8060   6.649   7.449   1.040  0.1708  0.1350  0.3661
  784MOL0     C 8061   6.675   7.378   0.925  0.2856  0.0118  0.7510
  784MOL0     O 8062   6.681   7.446   0.804  0.2200 -0.6546  0.0410
  784MOL0     C 8063   6.657   7.370   0.683  0.3467 -0.1771  0.1031
  784MOL0     C 8064   6.573   7.465   0.590  0.0672  0.6931  0.0429
  784MOL0     C 8065   6.656   7.545   0.481 -0.0731  1.4181 -0.8494
  784MOL0     C 8066   6.699   7.458   0.366  0.5364  0.5805 -0.5727
  784MOL0     C 8067   6.732   7.535   0.239 -0.3125  0.2233 -0.1440
  784MOL0     C 8068   6.851   7.628   0.255  0.6899  0.6798 -0.9464
  784MOL0     C 8069   6.862   7.748   0.172  0.7406 -0.2544  0.0867
  784MOL0     C 8070   6.856   7.707   0.022 -0.0982 -0.4384  0.1966
  784MOL0     N 8071   6.972   7.613  -0.025  0.9992 -0.0000  0.0144
  784MOL0     C 8072   7.108   7.637  -0.006 -0.3073  0.3749  0.9775
  784MOL0     C 8073   7.161   7.518  -0.047  0.7446 -0.6329  0.5237
  784MOL0     C 8074   7.302   7.471  -0.046 -0.1205  0.1270 -0.2848
  784MOL0     C 8075   7.364   7.474   0.095 -0.4265 -0.0850  0.6869
  784MOL0     C 8076   7.485   7.378   0.086 -1.1331  0.3949 -0.4830
  784MOL0     C 8077   7.620   7.425   0.027 -0.0231  0.4603  0.1698
  784MOL0     O 8078   7.644   7.562   0.048  0.3183 -0.5368  0.0908
  784MOL0     C 8079   7.766   7.614  -0.006  0.4477 -0.1308  0.7925
  784MOL0     C 8080   7.835   7.703   0.066 -0.6145  0.8246 -0.3106
  784MOL0     C 8081   7.969   7.734   0.033  0.0403 -0.9722 -0.6808
  784MOL0     C 8082   8.043   7.812   0.143 -0.3865  0.3106  1.0420
  784MOL0     C 8083   8.029   7.689  -0.082  0.0713 -0.0027 -1.1218
  784MOL0     C 8084   8.164   7.739  -0.135  0.1511  0.5635  0.0198
  784MOL0     O 8085   8.196   7.685  -0.254 -0.1558 -0.0826 -0.4140
  784MOL0     C 8086   8.322   7.701  -0.308  0.1794 -0.5208 -0.3124
  784MOL0     C 8087   8.439   7.638  -0.266 -0.1771 -0.9264 -0.2640
  784MOL0     C 8088   8.565   7.683  -0.320  0.6227 -0.2602  0.4197
  784MOL0     C 8089   8.568   7.775  -0.431  0.3920  0.4489 -1.0384
  784MOL0     O 8090   8.690   7.813  -0.490 -0.2020 -0.8034  0.1261
  784MOL0     C 8091   8.687   7.924  -0.587 -0.3591  0.8912  0.5925
  784MOL0     C 8092   8.823   7.919  -0.657  1.0085  0.1534 -0.2181
  784MOL0     C 8093   8.935   7.947  -0.561  0.0401 -0.4394 -0.5996
  784MOL0     C 8094   8.910   8.050  -0.453  0.7496  0.9210  0.4653
  784MOL0     C 8095   9.036   8.090  -0.377  0.0575  0.2692  0.1712
  784MOL0     C 8096   9.007   8.119  -0.227 -0.0544 -0.1461  0.0188
  784MOL0     C 8097   9.119   8.182  -0.144 -0.4085  0.4430  0.5438
  784MOL0     C 8098   9.066   8.217  -0.010  0.1411 -0.3250  0.9702
  784MOL0    Cl 8099   9.179   8.299   0.109  0.1142  0.2281 -0.1327
  784MOL0     C 8100   8.438   7.803  -0.485  1.1430 -0.0895 -0.2281
  784MOL0     C 8101   8.319   7.779  -0.421 -0.9416  0.1497 -0.0445
  784MOL0     O 8102   8.236   7.809  -0.069 -0.8913  0.6736 -0.2469
  784MOL0     C 8103   7.954   7.604  -0.160  0.1389 -0.4385 -0.3912
  784MOL0     C 8104   7.822   7.566  -0.126 -0.3624 -0.3786  1.1965
  784MOL0     N 8105   7.050   7.444  -0.101 -0.9301 -0.0287 -0.6372
  784MOL0     N 8106   6.939   7.495  -0.090 -0.0053 -0.4397 -0.3560
  784MOL0     C 8107   6.706   7.246   0.933  0.1206  0.2876 -0.5905
  784MOL0     C 8108   6.683   7.171   1.054  1.6611 -1.9647 -0.1966
  784MOL0     C 8109   6.626   7.021   1.456  0.4251 -0.2402 -0.7140
  784MOL0     C 8110   6.485   7.040   1.460 -0.1120  0.2077 -0.0187
  784MOL0     C 8111   6.417   6.974   1.557  0.0782 -0.5267  0.1602
  784MOL0     C 8112   6.471   6.880   1.639 -0.6967  0.9892  0.7985
  784MOL0     O 8113   6.389   6.821   1.734 -0.7906  0.2175  0.0444
  784MOL0     C 8114   6.373   6.678   1.708  0.5373 -0.1445  0.2081
  784MOL0     C 8115   6.290   6.646   1.579  0.9777  0.4314  0.6266
  784MOL0     C 8116   6.269   6.504   1.532 -0.1094 -0.2212 -0.2222
  784MOL0     C 8117   6.163   6.433   1.624  0.1987  0.0598 -0.9215
  784MOL0     C 8118   6.213   6.386   1.755 -0.0103 -0.5763  0.0615
  784MOL0     C 8119   6.239   6.344   1.866 -0.4350  0.3582 -0.5938
  784MOL0     C 8120   6.612   6.856   1.640  0.5026 -0.2681  0.5754
  784MOL0     C 8121   6.687   6.930   1.549 -0.2929  0.4466 -0.0494
  784MOL0     C 8122   6.831   6.892   1.565  0.1853  0.3808  0.3956
  784MOL0     H 8123   6.593   7.443   1.249  1.3959  0.9449  1.0434
  784MOL0     H 8124   6.633   7.556   1.028  0.3054  0.0497 -0.6849
  784MOL0     H 8125   6.611   7.272   0.696 -0.2747  0.2338  1.2147
  784MOL0     H 8126   6.759   7.357   0.647 -0.0930 -2.5767 -0.4269
  784MOL0     H 8127   6.496   7.403   0.542  0.3802  0.5795 -0.3145
  784MOL0     H 8128   6.525   7.549   0.642 -0.8722  0.8859 -1.0772
  784MOL0     H 8129   6.602   7.628   0.435  1.9526  1.0798 -4.1038
  784MOL0     H 8130   6.746   7.586   0.530 -0.3623  0.0112  0.9737
  784MOL0     H 8131   6.784   7.399   0.399 -0.1697  0.4877  1.2161
  784MOL0     H 8132   6.616   7.395   0.333 -0.5122 -0.0249  2.7937
  784MOL0     H 8133   6.640   7.575   0.196  0.3342  1.3258 -0.5384
  784MOL0     H 8134   6.770   7.457   0.173 -0.3943 -0.7516  0.9295
  784MOL0     H 8135   6.842   7.672   0.355  1.2939  0.2740 -0.7056
  784MOL0     H 8136   6.927   7.549   0.249 -0.1832 -0.0584 -3.9931
  784MOL0     H 8137   6.960   7.793   0.191 -0.3357  2.5180 -0.4191
  784MOL0     H 8138   6.782   7.818   0.203 -0.1850  0.8955 -4.2888
  784MOL0     H 8139   6.761   7.663  -0.010 -0.5942 -1.7339  3.1184
  784MOL0     H 8140   6.872   7.800  -0.033  4.5808 -0.5458  0.9847
  784MOL0     H 8141   7.168   7.710   0.047  5.3703 -2.9287 -0.0710
  784MOL0     H 8142   7.360   7.541  -0.106 -0.8012  0.6256 -0.3719
  784MOL0     H 8143   7.306   7.369  -0.085 -0.9907 -0.0912  0.1625
  784MOL0     H 8144   7.405   7.573   0.118  2.6404 -0.9945 -0.3683
  784MOL0     H 8145   7.282   7.462   0.166 -0.9619  3.7634  0.9019
  784MOL0     H 8146   7.516   7.354   0.189  0.9174  2.4007 -0.5588
  784MOL0     H 8147   7.451   7.280   0.052 -2.0429  0.3711  0.4255
  784MOL0     H 8148   7.691   7.360   0.080 -0.3095 -1.2100 -1.3889
  784MOL0     H 8149   7.630   7.393  -0.077  1.5623 -1.7337  0.9132
  784MOL0     H 8150   7.784   7.743   0.152  0.3285  0.8307  0.2644
  784MOL0     H 8151   8.146   7.776   0.153 -0.8813 -1.1940  1.0489
  784MOL0     H 8152   7.990   7.788   0.235 -2.0037 -1.5325 -0.3053
  784MOL0     H 8153   8.047   7.920   0.124 -0.3935  0.0027 -0.9062
  784MOL0     H 8154   8.435   7.560  -0.192 -3.6290 -4.4681 -3.6993
  784MOL0     H 8155   8.658   7.643  -0.281  0.7786  0.4601  0.7981
  784MOL0     H 8156   8.608   7.903  -0.659  0.7198  3.4947 -1.5227
  784MOL0     H 8157   8.667   8.019  -0.537  0.6438  1.1594  0.5058
  784MOL0     H 8158   8.840   7.816  -0.690  3.5194  0.7707 -1.0852
  784MOL0     H 8159   8.833   7.968  -0.755  3.1451  0.1629 -0.0574
  784MOL0     H 8160   9.023   7.986  -0.612 -0.9773  4.9105  1.1243
  784MOL0     H 8161   8.972   7.856  -0.513 -2.7985 -2.4095 -1.8501
  784MOL0     H 8162   8.842   8.011  -0.376  1.1806  0.7384  0.7596
  784MOL0     H 8163   8.875   8.145  -0.495  0.7043  0.8636  0.3731
  784MOL0     H 8164   9.107   8.008  -0.387 -2.2352 -1.7142 -0.9831
  784MOL0     H 8165   9.083   8.174  -0.428  0.5177 -0.8447 -1.3090
  784MOL0     H 8166   8.970   8.027  -0.181 -3.5880  0.6028 -0.9632
  784MOL0     H 8167   8.935   8.201  -0.239  2.0411  1.7370 -0.2607
  784MOL0     H 8168   9.154   8.274  -0.191 -1.0544  1.0959  1.3231
  784MOL0     H 8169   9.205   8.115  -0.140 -0.1889  0.6321 -0.5693
  784MOL0     H 8170   9.031   8.124   0.036 -1.1064 -0.5634 -0.3775
  784MOL0     H 8171   8.985   8.289  -0.023 -0.9057 -1.7002 -0.4599
  784MOL0     H 8172   8.429   7.870  -0.570  5.5346  0.6751 -0.3079
  784MOL0     H 8173   8.226   7.829  -0.444  0.3006  4.8516  3.6435
  784MOL0     H 8174   7.997   7.562  -0.251 -0.2194 -0.0381 -0.7522
  784MOL0     H 8175   7.779   7.480  -0.176 -0.6364 -0.5819  1.7705
  784MOL0     H 8176   6.741   7.188   0.849  0.3167 -0.6907  0.1417
  784MOL0     H 8177   6.698   7.064   1.060  1.6685 -1.9421  0.2527
  784MOL0     H 8178   6.432   7.117   1.406 -2.4119 -0.4318  1.2030
  784MOL0     H 8179   6.309   6.988   1.565 -0.0434 -1.6996  0.8549
  784MOL0     H 8180   6.471   6.633   1.691  0.4711 -1.0882  2.0414
  784MOL0     H 8181   6.319   6.625   1.788 -2.5744 -0.2560 -1.7712
  784MOL0     H 8182   6.332   6.700   1.494 -0.9078  1.3250  0.2139
  784MOL0     H 8183   6.196   6.702   1.579  0.2421 -0.6064 -1.9722
  784MOL0     H 8184   6.207   6.510   1.442 -1.5993 -0.1803  0.7663
  784MOL0     H 8185   6.365   6.453   1.521 -0.4319 -0.8124 -0.3249
  784MOL0     H 8186   6.134   6.342   1.570  3.8163 -2.5156  1.0208
  784MOL0     H 8187   6.073   6.493   1.642 -1.5082 -3.0472  2.4275
  784MOL0     H 8188   6.253   6.311   1.967  0.0056 -0.6426 -0.9784
  784MOL0     H 8189   6.641   6.781   1.713 -0.6824 -0.8018  0.5243
  784MOL0     H 8190   6.852   6.823   1.647 -1.2722 -0.1884  0.3141
  784MOL0     H 8191   6.852   6.846   1.468 -1.4817 -1.0127  0.6422
  784MOL0     H 8192   6.896   6.980   1.561 -0.9984  1.2979  0.4766
  785MOL0     O 8193   6.985  11.194   5.767 -0.7828 -0.6415  0.6270
  785MOL0     C 8194   7.065  11.128   5.700  0.6605 -1.1537 -0.7988
  785MOL0     O 8195   7.156  11.178   5.622  0.1812 -0.4892  0.0047
  785MOL0     C 8196   7.203  11.310   5.658  1.5216  0.1788  0.1276
  785MOL0     C 8197   7.238  11.390   5.549  0.2441 -0.7377  0.0441
  785MOL0     C 8198   7.275  11.529   5.564  0.3198 -0.8675 -0.6517
  785MOL0     C 8199   7.284  11.584   5.696  0.2559  0.6405  0.5529
  785MOL0     O 8200   7.326  11.717   5.708 -0.0162  0.2871 -0.5277
  785MOL0     C 8201   7.317  11.785   5.831  0.0149 -0.0516 -1.3878
  785MOL0     C 8202   7.460  11.760   5.888  0.6059 -0.0099 -1.6634
  785MOL0     C 8203   7.455  11.794   6.041  0.5881 -0.4280  0.0888
  785MOL0     C 8204   7.599  11.847   6.074  0.9431 -1.3014 -0.2561
  785MOL0     C 8205   7.602  11.928   6.209 -1.4598  0.3004 -0.3854
  785MOL0     C 8206   7.545  11.852   6.328 -0.6998 -1.7080 -0.0772
  785MOL0     C 8207   7.543  11.935   6.459 -0.2000  0.1910 -0.4188
  785MOL0     C 8208   7.452  11.876   6.576 -0.7498  1.2090  0.8883
  785MOL0     N 8209   7.451  11.724   6.573 -0.9668  0.5858 -0.4748
  785MOL0     C 8210   7.354  11.638   6.532 -0.4394 -0.6652 -0.7009
  785MOL0     C 8211   7.378  11.518   6.598 -0.5441 -1.0393 -0.7224
  785MOL0     C 8212   7.328  11.369   6.569 -0.2595 -1.1007  0.3839
  785MOL0     C 8213   7.325  11.291   6.696  0.8986 -0.2503  0.2495
  785MOL0     C 8214   7.276  11.143   6.689 -0.2324  0.2183 -0.1936
  785MOL0     C 8215   7.290  11.060   6.822 -0.1683  0.1300 -0.9144
  785MOL0     O 8216   7.224  11.122   6.932 -0.4684 -0.0966 -0.1417
  785MOL0     C 8217   7.176  11.038   7.041 -0.8645  0.6457  0.2398
  785MOL0     C 8218   7.099  11.099   7.146 -0.1358  1.4683  0.6460
  785MOL0     C 8219   7.030  11.027   7.247 -0.0740  0.5359  0.7374
  785MOL0     C 8220   6.923  11.100   7.330 -0.0265  0.5871  0.6530
  785MOL0     C 8221   7.060  10.886   7.258  0.1068 -0.3641 -0.0436
  785MOL0     C 8222   6.999  10.788   7.349  0.1701  0.4048  0.4565
  785MOL0     O 8223   7.008  10.656   7.323 -0.7234  0.0529 -0.7506
  785MOL0     C 8224   6.940  10.581   7.406  0.6129  0.3064 -0.3106
  785MOL0     C 8225   6.800  10.578   7.416 -0.4084  0.2117  0.0140
  785MOL0     C 8226   6.741  10.493   7.499  0.8930  0.7321 -0.0273
  785MOL0     C 8227   6.819  10.427   7.596  0.5328  0.0909  0.9564
  785MOL0     O 8228   6.778  10.333   7.689 -0.7259  0.0218 -0.0627
  785MOL0     C 8229   6.635  10.311   7.715 -0.9866  0.4327  0.0367
  785MOL0     C 8230   6.596  10.166   7.683 -0.4998  0.9426 -0.7101
  785MOL0     C 8231   6.689  10.061   7.744  0.2419  0.5866  0.2569
  785MOL0     C 8232   6.640  10.046   7.886  0.2823  0.4524  0.2517
  785MOL0     C 8233   6.738   9.954   7.961 -0.1288  0.5430 -0.1226
  785MOL0     C 8234   6.723   9.972   8.116 -0.0652  0.1491  0.4189
  785MOL0     C 8235   6.591   9.924   8.164 -1.0375 -0.6182  0.5219
  785MOL0     C 8236   6.503  10.043   8.204 -0.4078  0.0071  0.5887
  785MOL0    Cl 8237   6.571  10.143   8.335 -0.0919  0.0299 -0.4031
  785MOL0     C 8238   6.956  10.431   7.589  0.7544 -0.2199 -0.3369
  785MOL0     C 8239   7.021  10.514   7.492 -0.4796  0.1559  0.3879
  785MOL0     O 8240   6.938  10.834   7.445  0.3302  0.3485 -0.0210
  785MOL0     C 8241   7.136  10.827   7.157 -0.0131 -0.5185 -1.3692
  785MOL0     C 8242   7.199  10.898   7.051  2.1074 -1.2343  0.0444
  785MOL0     N 8243   7.496  11.545   6.674  0.0498  0.1700  0.4399
  785MOL0     N 8244   7.540  11.658   6.656  0.1760 -1.2384  0.0779
  785MOL0     C 8245   7.252  11.498   5.806 -0.0325 -0.3382 -0.3955
  785MOL0     C 8246   7.206  11.364   5.787 -0.4420  0.4523 -0.3830
  785MOL0     C 8247   7.061  10.982   5.700 -0.2410  0.0888 -0.4954
  785MOL0     C 8248   7.137  10.915   5.603  0.1120 -0.1296  0.6140
  785MOL0     C 8249   7.164  10.778   5.603  0.2663 -0.5329  0.3180
  785MOL0     C 8250   7.105  10.700   5.698 -0.1210  0.8081 -0.4348
  785MOL0     O 8251   7.138  10.567   5.685 -0.1283  0.4551  0.5383
  785MOL0     C 8252   7.054  10.456   5.727  0.3792  0.7689  0.5837
  785MOL0     C 8253   6.992  10.406   5.608  0.1516  0.2742  0.3777
  785MOL0     C 8254   6.913  10.269   5.626 -0.4689 -0.3101 -0.4889
  785MOL0     C 8255   6.856  10.214   5.494 -0.3396  0.0474 -0.0275
  785MOL0     C 8256   6.780  10.315   5.411  0.0808 -0.0697 -0.0376
  785MOL0     C 8257   6.714  10.392   5.345 -0.0969  0.0496 -0.4346
  785MOL0     C 8258   7.008  10.755   5.776 -0.1458  0.1608 -0.8005
  785MOL0     C 8259   6.986  10.896   5.781  0.4061  0.2825 -0.0856
  785MOL0     C 8260   6.887  10.939   5.888 -0.1811 -0.7652  0.6817
  785MOL0     H 8261   7.214  11.345   5.454 -0.7381 -2.4290  1.0482
  785MOL0     H 8262   7.311  11.580   5.475  0.3526 -2.1007 -1.3664
  785MOL0     H 8263   7.232  11.742   5.885  1.4620 -1.8114 -0.4378
  785MOL0     H 8264   7.318  11.893   5.814  2.6183 -0.5374 -5.5624
  785MOL0     H 8265   7.493  11.655   5.888  2.2393  0.2087  3.6704
  785MOL0     H 8266   7.531  11.823   5.834  0.0062  4.7220  2.3651
  785MOL0     H 8267   7.379  11.869   6.061  0.5500  0.0002 -1.5728
  785MOL0     H 8268   7.443  11.709   6.109  0.9756  1.0402  2.0872
  785MOL0     H 8269   7.660  11.756   6.070 -0.6459 -2.4063 -4.2207
  785MOL0     H 8270   7.634  11.912   5.993 -1.0771 -4.1692 -3.7481
  785MOL0     H 8271   7.548  12.023   6.203  0.0203  1.2556  0.5537
  785MOL0     H 8272   7.702  11.970   6.224 -1.7847  1.2955 -0.8875
  785MOL0     H 8273   7.442  11.825   6.301 -0.9436  1.6855 -3.3693
  785MOL0     H 8274   7.601  11.760   6.343 -0.3045 -1.8377 -2.0425
  785MOL0     H 8275   7.501  12.029   6.423  0.5783 -0.1577 -2.3492
  785MOL0     H 8276   7.649  11.937   6.487  0.0028 -1.3851 -0.9609
  785MOL0     H 8277   7.485  11.917   6.672  1.1434  2.2476 -0.1490
  785MOL0     H 8278   7.350  11.899   6.546 -1.9885 -0.8991  3.0936
  785MOL0     H 8279   7.278  11.666   6.459 -0.7928 -2.8512 -1.2530
  785MOL0     H 8280   7.402  11.328   6.500  1.8444 -1.5457  2.7666
  785MOL0     H 8281   7.233  11.372   6.513 -0.8847  1.2144  1.4073
  785MOL0     H 8282   7.417  11.290   6.755  0.5706 -3.2797  0.8877
  785MOL0     H 8283   7.268  11.340   6.776  3.6795  1.6425  1.2043
  785MOL0     H 8284   7.169  11.149   6.670 -0.7700  1.9309  2.7913
  785MOL0     H 8285   7.339  11.102   6.609  3.3492  0.1598  2.4112
  785MOL0     H 8286   7.260  10.956   6.810 -1.4949 -0.3315  3.9628
  785MOL0     H 8287   7.396  11.055   6.849  0.2878 -1.7675 -2.8596
  785MOL0     H 8288   7.080  11.204   7.128 -1.4922  0.7262 -3.1493
  785MOL0     H 8289   6.936  11.069   7.434 -1.3424  0.0065  0.6631
  785MOL0     H 8290   6.822  11.074   7.296 -0.0268  1.9131 -0.4467
  785MOL0     H 8291   6.931  11.209   7.322 -0.5107  0.5520 -0.5533
  785MOL0     H 8292   6.747  10.637   7.342 -0.3700  2.6128  1.7847
  785MOL0     H 8293   6.632  10.494   7.498  0.6974 -2.4379  2.6921
  785MOL0     H 8294   6.619  10.346   7.818  0.6770  1.1938  0.0683
  785MOL0     H 8295   6.557  10.368   7.663  2.3044  3.3423 -2.1710
  785MOL0     H 8296   6.496  10.139   7.720  1.3920 -3.7240  1.8360
  785MOL0     H 8297   6.590  10.148   7.575  1.0358 -3.4950 -0.2430
  785MOL0     H 8298   6.794  10.092   7.743  0.3676  0.1636 -0.7776
  785MOL0     H 8299   6.686   9.967   7.688 -0.5926  1.7352 -1.7224
  785MOL0     H 8300   6.544   9.995   7.889  0.5147  0.0390  0.7948
  785MOL0     H 8301   6.625  10.142   7.936 -1.6216 -0.4359  1.4711
  785MOL0     H 8302   6.731   9.846   7.945  2.4013  0.0638  1.4260
  785MOL0     H 8303   6.842   9.973   7.933 -0.4195 -0.8054 -2.4098
  785MOL0     H 8304   6.744  10.075   8.146  2.3574 -0.1707 -0.0170
  785MOL0     H 8305   6.804   9.913   8.160  1.6302  0.8762 -1.5727
  785MOL0     H 8306   6.609   9.853   8.245 -0.9205 -0.7665  0.3660
  785MOL0     H 8307   6.545   9.863   8.085 -0.2813 -1.4343  0.7013
  785MOL0     H 8308   6.404  10.005   8.228 -1.9588  4.4035  2.2854
  785MOL0     H 8309   6.485  10.118   8.126 -2.5362 -0.7295  0.3130
  785MOL0     H 8310   7.006  10.368   7.662  3.3727 -0.3743 -2.1382
  785MOL0     H 8311   7.126  10.508   7.464 -0.5942 -0.4880  0.0934
  785MOL0     H 8312   7.150  10.720   7.146  1.2512 -0.1381 -4.0738
  785MOL0     H 8313   7.266  10.843   6.986  1.9423 -1.5634  0.1495
  785MOL0     H 8314   7.266  11.533   5.908  0.2508  0.4991 -0.7118
  785MOL0     H 8315   7.167  11.304   5.868 -0.9208 -2.3931 -2.5483
  785MOL0     H 8316   7.180  10.968   5.519  1.1097 -1.3150  0.3614
  785MOL0     H 8317   7.231  10.752   5.522 -2.0922  3.3834 -3.3258
  785MOL0     H 8318   7.110  10.376   5.777 -0.2349  0.9720  1.6358
  785MOL0     H 8319   6.971  10.485   5.793 -0.6263 -0.6447 -0.0135
  785MOL0     H 8320   7.068  10.398   5.531  1.9939  0.5401  2.0934
  785MOL0     H 8321   6.914  10.479   5.584 -0.2901 -0.8419 -1.9132
  785MOL0     H 8322   6.979  10.200   5.680  2.2796 -1.6760 -5.0898
  785MOL0     H 8323   6.828  10.292   5.691  0.1458  0.1957  0.1564
  785MOL0     H 8324   6.787  10.135   5.525  0.1722  1.1163  4.5500
  785MOL0     H 8325   6.924  10.159   5.430 -1.2814 -1.9973  0.6556
  785MOL0     H 8326   6.649  10.454   5.287 -1.7013 -0.1712  1.0420
  785MOL0     H 8327   6.950  10.686   5.837  0.8722 -1.5164 -1.6393
  785MOL0     H 8328   6.931  10.942   5.988 -1.2011 -2.1703  1.2085
  785MOL0     H 8329   6.842  11.038   5.876  2.1494  0.3810  0.8914
  785MOL0     H 8330   6.806  10.865   5.887  0.7153 -1.9818 -3.8146
  786MOL0     O 8331   0.035   7.282   4.820  0.0704  0.6306  0.5987
  786MOL0     C 8332   0.033   7.252   4.705 -0.3514 -0.0993  0.0688
  786MOL0     O 8333  -0.017   7.327   4.601  0.9185 -0.0518 -0.5039
  786MOL0     C 8334  -0.058   7.454   4.623  0.5107  0.6223 -1.6109
  786MOL0     C 8335  -0.191   7.484   4.619  0.3234 -0.8776  0.3050
  786MOL0     C 8336  -0.232   7.622   4.658 -0.6983 -0.3918 -0.2561
  786MOL0     C 8337  -0.146   7.719   4.678 -0.2591 -0.9300 -0.2116
  786MOL0     O 8338  -0.200   7.839   4.708 -0.3657 -1.0276  0.6424
  786MOL0     C 8339  -0.117   7.954   4.679 -0.8669 -0.5377 -0.0563
  786MOL0     C 8340  -0.200   8.081   4.700  0.5247 -0.7664  0.6745
  786MOL0     C 8341  -0.253   8.130   4.562  0.4600  0.3368 -0.8687
  786MOL0     C 8342  -0.383   8.204   4.589 -0.3298 -0.7621  0.3195
  786MOL0     C 8343  -0.440   8.274   4.454  0.1483 -0.5243  0.3325
  786MOL0     C 8344  -0.594   8.309   4.468 -0.2802 -0.4953  0.5673
  786MOL0     C 8345  -0.624   8.434   4.377  0.3696 -0.8447 -0.8745
  786MOL0     C 8346  -0.782   8.448   4.397 -0.8316  0.8360 -0.3397
  786MOL0     N 8347  -0.840   8.566   4.337  0.6181  0.0929  1.1143
  786MOL0     C 8348  -0.861   8.591   4.199 -0.0340  0.3010  0.1023
  786MOL0     C 8349  -0.928   8.713   4.191 -0.4568  0.2261 -0.2565
  786MOL0     C 8350  -0.990   8.789   4.078  0.1768  0.7282  0.0428
  786MOL0     C 8351  -1.033   8.691   3.964 -0.0222  0.1631 -0.7400
  786MOL0     C 8352  -1.077   8.781   3.842  0.5943  0.5618 -0.5863
  786MOL0     C 8353  -1.169   8.898   3.858 -0.4554 -0.4814  0.3024
  786MOL0     O 8354  -1.183   8.942   3.724  0.9314 -0.5476  0.0770
  786MOL0     C 8355  -1.254   9.065   3.701 -0.2190  0.1422 -0.1530
  786MOL0     C 8356  -1.304   9.087   3.578 -0.1119  0.1867  0.3209
  786MOL0     C 8357  -1.366   9.203   3.555 -0.2396 -0.6680  0.0474
  786MOL0     C 8358  -1.424   9.212   3.413  0.2184 -0.0459  0.0010
  786MOL0     C 8359  -1.409   9.295   3.659  0.1762 -0.1918 -0.1635
  786MOL0     C 8360  -1.483   9.425   3.638  0.1071 -0.1369  0.2699
  786MOL0     O 8361  -1.486   9.510   3.749 -0.6069  0.1346  0.2922
  786MOL0     C 8362  -1.517   9.639   3.730  1.0929  0.1558 -0.1159
  786MOL0     C 8363  -1.632   9.702   3.779 -0.2249  0.8062  0.5968
  786MOL0     C 8364  -1.654   9.834   3.746 -0.1466 -0.6200 -0.3710
  786MOL0     C 8365  -1.571   9.911   3.670 -0.5655  0.3142 -1.0563
  786MOL0     O 8366  -1.588  10.041   3.629  0.8635  0.0050 -0.0652
  786MOL0     C 8367  -1.580  10.063   3.491 -0.8320  0.1435 -0.0460
  786MOL0     C 8368  -1.708  10.019   3.416  0.0500  0.0685  0.5311
  786MOL0     C 8369  -1.849  10.058   3.474 -0.1908  0.5365 -1.0753
  786MOL0     C 8370  -1.965   9.984   3.410  0.0031  0.1334  0.3256
  786MOL0     C 8371  -2.098  10.069   3.421 -0.1299  0.3114  1.1143
  786MOL0     C 8372  -2.097  10.184   3.319 -0.2340 -0.0577 -0.4389
  786MOL0     C 8373  -2.231  10.220   3.267  0.1555  0.1945  0.2251
  786MOL0     C 8374  -2.222  10.369   3.228  0.1051  0.8382  0.1696
  786MOL0    Cl 8375  -2.082  10.413   3.119 -0.4536 -0.0338  0.3104
  786MOL0     C 8376  -1.441   9.854   3.659 -1.4914  0.4837 -0.2712
  786MOL0     C 8377  -1.410   9.719   3.687  0.2918 -0.3123  0.1783
  786MOL0     O 8378  -1.553   9.438   3.539  0.1813  0.0408 -0.1542
  786MOL0     C 8379  -1.362   9.266   3.784 -0.2408  0.4423 -0.0427
  786MOL0     C 8380  -1.276   9.159   3.806  0.0522 -0.7482  0.2818
  786MOL0     N 8381  -0.917   8.766   4.319  0.0225 -0.3408 -0.1390
  786MOL0     N 8382  -0.872   8.677   4.407 -0.4580  0.3591  1.4687
  786MOL0     C 8383  -0.008   7.696   4.672  0.0973 -0.3423 -0.4416
  786MOL0     C 8384   0.030   7.559   4.639  0.0974 -0.3953  0.2161
  786MOL0     C 8385   0.097   7.118   4.660 -0.0425 -0.9489 -0.3824
  786MOL0     C 8386   0.108   7.086   4.523 -0.6049  0.7014 -0.6505
  786MOL0     C 8387   0.155   6.957   4.485 -0.4852  0.1324  0.1867
  786MOL0     C 8388   0.212   6.867   4.575 -0.2754 -0.4032  0.0476
  786MOL0     O 8389   0.301   6.767   4.537  0.6587 -0.6940  0.1013
  786MOL0     C 8390   0.403   6.806   4.440  1.3315  0.2306 -0.6489
  786MOL0     C 8391   0.403   6.703   4.321  0.0483  0.4667 -0.3555
  786MOL0     C 8392   0.409   6.553   4.371 -0.2364  0.6798  0.4532
  786MOL0     C 8393   0.394   6.458   4.257 -0.2703  0.5817  0.0897
  786MOL0     C 8394   0.511   6.451   4.174 -0.1478  0.0861 -0.3727
  786MOL0     C 8395   0.607   6.464   4.104 -0.2605  1.0126 -0.8630
  786MOL0     C 8396   0.212   6.908   4.711 -0.1343 -0.7942  0.3584
  786MOL0     C 8397   0.137   7.026   4.764 -0.9177  0.7268  0.5431
  786MOL0     C 8398   0.132   7.050   4.916  0.7900  0.1500  0.5111
  786MOL0     H 8399  -0.268   7.408   4.601 -0.0818 -0.0376 -1.7244
  786MOL0     H 8400  -0.336   7.650   4.661 -0.1880  1.6945  2.7993
  786MOL0     H 8401  -0.068   7.941   4.582 -1.7021  0.0124 -0.5592
  786MOL0     H 8402  -0.042   7.954   4.759 -2.1502  1.4993  1.2385
  786MOL0     H 8403  -0.279   8.065   4.774 -2.4659  0.8999 -1.8738
  786MOL0     H 8404  -0.142   8.161   4.746 -1.7571  0.6502  1.2650
  786MOL0     H 8405  -0.181   8.188   4.504 -1.3636 -0.4856 -4.2083
  786MOL0     H 8406  -0.275   8.042   4.502  2.8732 -0.2393 -1.0034
  786MOL0     H 8407  -0.441   8.132   4.648  0.1111  1.3375  3.6264
  786MOL0     H 8408  -0.369   8.282   4.665  0.2562  0.3277 -0.8762
  786MOL0     H 8409  -0.429   8.201   4.372  0.2560  1.0842 -1.1340
  786MOL0     H 8410  -0.381   8.361   4.425  2.8949 -1.8887  1.5365
  786MOL0     H 8411  -0.651   8.232   4.416  1.4878 -0.8895 -0.9001
  786MOL0     H 8412  -0.634   8.306   4.570  1.2230  2.2238  1.3315
  786MOL0     H 8413  -0.586   8.412   4.277 -0.5410 -4.5656 -0.5261
  786MOL0     H 8414  -0.578   8.525   4.417  1.7013 -2.0894  0.5669
  786MOL0     H 8415  -0.839   8.363   4.359 -3.0279  3.3509 -3.1437
  786MOL0     H 8416  -0.795   8.450   4.506 -1.4508 -1.3729 -0.3191
  786MOL0     H 8417  -0.845   8.527   4.113 -0.7142 -1.5350  1.2868
  786MOL0     H 8418  -0.907   8.854   4.046  1.2489  0.0911  1.4320
  786MOL0     H 8419  -1.078   8.837   4.122 -2.7101 -1.7089 -2.6196
  786MOL0     H 8420  -0.959   8.616   3.937 -0.7877 -0.3397 -1.5252
  786MOL0     H 8421  -1.115   8.630   4.003  1.2771 -0.8683  0.4818
  786MOL0     H 8422  -0.980   8.817   3.807  2.2898 -0.7928  2.4091
  786MOL0     H 8423  -1.118   8.709   3.770  0.1781  0.6463 -0.4367
  786MOL0     H 8424  -1.270   8.874   3.892 -0.4497 -1.7378 -0.4906
  786MOL0     H 8425  -1.124   8.979   3.915 -2.0865 -0.5354  1.7544
  786MOL0     H 8426  -1.270   9.017   3.503 -1.0387  0.0330  0.0290
  786MOL0     H 8427  -1.413   9.311   3.368 -3.4873 -0.7197 -2.9439
  786MOL0     H 8428  -1.532   9.200   3.405  0.0613  0.7411  0.7605
  786MOL0     H 8429  -1.381   9.141   3.342 -0.6584  0.0936 -0.6941
  786MOL0     H 8430  -1.710   9.641   3.824  0.5479 -1.3206 -0.8119
  786MOL0     H 8431  -1.741   9.889   3.782  0.2245  0.0083 -0.4233
  786MOL0     H 8432  -1.552  10.167   3.475 -0.3393  0.1064  0.5497
  786MOL0     H 8433  -1.497  10.005   3.451 -1.3846 -0.4536 -0.3521
  786MOL0     H 8434  -1.698  10.067   3.319 -0.7052  0.4053  0.6151
  786MOL0     H 8435  -1.705   9.910   3.408  0.0393 -0.4675  5.0349
  786MOL0     H 8436  -1.866  10.166   3.473 -3.5327  0.2095  1.1793
  786MOL0     H 8437  -1.852  10.037   3.582 -1.6556 -2.3850 -1.5824
  786MOL0     H 8438  -1.969   9.888   3.462  0.6166  0.0770  0.2713
  786MOL0     H 8439  -1.938   9.960   3.307 -0.2476  3.0289 -0.5244
  786MOL0     H 8440  -2.188  10.017   3.387  0.5684 -0.2675  0.0627
  786MOL0     H 8441  -2.107  10.101   3.525  2.1864 -2.4851  2.2928
  786MOL0     H 8442  -2.038  10.161   3.230 -1.3449  1.9618 -1.7767
  786MOL0     H 8443  -2.046  10.267   3.369  1.0924 -0.1164 -1.6385
  786MOL0     H 8444  -2.296  10.207   3.355  1.3005 -2.6425  0.7401
  786MOL0     H 8445  -2.276  10.159   3.189 -0.5542  0.5173  0.3702
  786MOL0     H 8446  -2.218  10.427   3.321  0.3266 -0.9923  1.3689
  786MOL0     H 8447  -2.308  10.399   3.168  0.8338  1.8053 -0.4140
  786MOL0     H 8448  -1.359   9.918   3.628 -1.7465  0.6575 -0.5863
  786MOL0     H 8449  -1.311   9.678   3.672  0.3481  0.0811 -0.5518
  786MOL0     H 8450  -1.361   9.340   3.864 -1.4548 -0.5483  0.9318
  786MOL0     H 8451  -1.238   9.137   3.905  4.9889  0.3015 -1.0917
  786MOL0     H 8452   0.065   7.771   4.700 -1.3415  0.9259  0.0062
  786MOL0     H 8453   0.133   7.524   4.643 -0.5007 -2.1311  2.8671
  786MOL0     H 8454   0.070   7.159   4.452  1.0475  2.9958  0.6802
  786MOL0     H 8455   0.156   6.946   4.377 -0.4204 -2.3491  0.3844
  786MOL0     H 8456   0.388   6.905   4.398 -3.5916  0.3624  0.8260
  786MOL0     H 8457   0.499   6.799   4.494 -0.1124 -2.7153  1.8639
  786MOL0     H 8458   0.485   6.713   4.250 -0.4913  0.2681 -1.0171
  786MOL0     H 8459   0.311   6.714   4.262  0.9367  1.3843 -1.6066
  786MOL0     H 8460   0.502   6.521   4.420 -0.7764  0.1142  1.1394
  786MOL0     H 8461   0.317   6.529   4.425 -0.4651  1.6760  0.5103
  786MOL0     H 8462   0.314   6.491   4.188  1.3916  0.8774 -1.7844
  786MOL0     H 8463   0.367   6.360   4.297  1.2874 -1.2965 -3.0287
  786MOL0     H 8464   0.693   6.479   4.042  0.7036  0.4753  0.2963
  786MOL0     H 8465   0.271   6.853   4.785  0.1515  1.2331  1.6998
  786MOL0     H 8466   0.029   7.076   4.944  1.6548  3.5261  0.9972
  786MOL0     H 8467   0.171   6.970   4.979  1.7761 -0.1801 -0.4779
  786MOL0     H 8468   0.201   7.134   4.929  1.7255 -0.3286 -1.1084
  787MOL0     O 8469   7.396   5.536   2.726  0.7547  0.2382  0.1856
  787MOL0     C 8470   7.408   5.431   2.793  0.0846 -0.1944  0.1139
  787MOL0     O 8471   7.300   5.369   2.845 -0.7160  0.0334 -0.4375
  787MOL0     C 8472   7.181   5.430   2.857  0.7547 -0.2409  0.5263
  787MOL0     C 8473   7.159   5.546   2.928 -0.4272 -0.3636 -0.4409
  787MOL0     C 8474   7.031   5.604   2.924 -0.4963  0.5972  0.3544
  787MOL0     C 8475   6.934   5.568   2.831  0.2755  0.7542  0.4962
  787MOL0     O 8476   6.827   5.645   2.798  0.4907  0.0137  0.6111
  787MOL0     C 8477   6.821   5.783   2.867  0.0135  0.3249 -0.1085
  787MOL0     C 8478   6.709   5.866   2.803  0.0971  1.2269  0.5480
  787MOL0     C 8479   6.586   5.858   2.896  0.3685 -1.2857 -0.1462
  787MOL0     C 8480   6.524   5.713   2.906  0.2130 -0.8103  0.1418
  787MOL0     C 8481   6.379   5.723   2.970  0.0841  0.5312 -0.3332
  787MOL0     C 8482   6.305   5.587   2.951 -0.2463  0.3790 -0.1855
  787MOL0     C 8483   6.370   5.477   3.040 -0.2504  0.4888 -0.1038
  787MOL0     C 8484   6.282   5.357   3.090 -0.1439 -0.2511  0.1164
  787MOL0     N 8485   6.206   5.293   2.976 -0.1581 -0.7377 -0.6433
  787MOL0     C 8486   6.268   5.256   2.855 -0.2330  0.4316 -0.1339
  787MOL0     C 8487   6.175   5.181   2.793  1.4826 -0.4011 -0.8666
  787MOL0     C 8488   6.196   5.116   2.664 -0.0384  0.4439 -0.6279
  787MOL0     C 8489   6.159   5.195   2.544  0.6245  0.4436 -0.4152
  787MOL0     C 8490   6.214   5.336   2.528 -0.0162 -0.1849 -0.2840
  787MOL0     C 8491   6.364   5.344   2.484 -0.3743  0.2162 -0.2539
  787MOL0     O 8492   6.445   5.302   2.596  0.4250  0.8751  0.8293
  787MOL0     C 8493   6.578   5.280   2.562  0.0724 -0.0296 -0.3097
  787MOL0     C 8494   6.655   5.191   2.637  0.7445 -0.9053 -0.8643
  787MOL0     C 8495   6.788   5.157   2.605  0.1873 -0.1678 -0.6622
  787MOL0     C 8496   6.868   5.077   2.709  0.7816 -0.0390 -0.1295
  787MOL0     C 8497   6.848   5.210   2.490 -1.2969  0.0219  1.3070
  787MOL0     C 8498   6.997   5.185   2.454 -0.0077 -1.6052  0.2811
  787MOL0     O 8499   7.053   5.074   2.485  0.7118 -0.1232  1.1692
  787MOL0     C 8500   7.191   5.078   2.491 -0.6975 -0.8217 -0.5650
  787MOL0     C 8501   7.263   5.045   2.373 -0.2525 -0.0759  0.0790
  787MOL0     C 8502   7.402   5.040   2.377 -0.2788 -0.3793  0.2303
  787MOL0     C 8503   7.471   5.057   2.502 -0.0809  0.3767  0.2309
  787MOL0     O 8504   7.599   5.037   2.492 -0.1921 -0.2442  0.2381
  787MOL0     C 8505   7.675   5.086   2.598 -0.0023 -0.7289  0.2128
  787MOL0     C 8506   7.828   5.088   2.571 -0.6045 -0.3564  0.0380
  787MOL0     C 8507   7.880   4.950   2.523 -0.5102 -0.4419 -0.3079
  787MOL0     C 8508   7.996   4.890   2.620 -0.3666  0.2086  0.4399
  787MOL0     C 8509   7.944   4.832   2.747  0.0888  0.9741 -0.3463
  787MOL0     C 8510   8.039   4.751   2.832  0.4445  0.5738 -0.4017
  787MOL0     C 8511   7.966   4.691   2.949  0.2709 -0.2371  0.2718
  787MOL0     C 8512   7.968   4.795   3.071  0.7359 -0.1418 -0.4325
  787MOL0    Cl 8513   7.939   4.703   3.213  0.0322 -0.2478 -0.2927
  787MOL0     C 8514   7.398   5.081   2.621 -0.0727  0.4005 -0.2060
  787MOL0     C 8515   7.257   5.085   2.619 -1.3571  1.2292 -0.0877
  787MOL0     O 8516   7.060   5.276   2.403 -0.3067 -0.0638 -0.6518
  787MOL0     C 8517   6.778   5.303   2.414  0.7011 -1.0645 -0.1683
  787MOL0     C 8518   6.645   5.339   2.452 -0.8713  0.6704 -0.1496
  787MOL0     N 8519   6.059   5.171   2.879 -1.0031 -0.1881  0.9184
  787MOL0     N 8520   6.082   5.239   2.986  0.1493 -0.5458  0.4898
  787MOL0     C 8521   6.953   5.461   2.748  0.4545 -0.4340 -0.7846
  787MOL0     C 8522   7.080   5.398   2.761  0.6856  0.7390 -0.0427
  787MOL0     C 8523   7.540   5.368   2.831  0.0941 -0.3098  0.2194
  787MOL0     C 8524   7.541   5.253   2.909 -0.8175  1.3843  0.6828
  787MOL0     C 8525   7.666   5.210   2.954 -0.0965 -0.1663  0.2298
  787MOL0     C 8526   7.796   5.280   2.929  0.4060  0.8236 -0.1808
  787MOL0     O 8527   7.913   5.236   2.976  0.4221  1.2436 -0.4875
  787MOL0     C 8528   7.920   5.165   3.099  0.6861 -0.4717 -1.2570
  787MOL0     C 8529   7.896   5.262   3.222  0.0400  0.5122  0.2726
  787MOL0     C 8530   8.035   5.322   3.255 -0.5185  0.6124 -0.6126
  787MOL0     C 8531   8.080   5.431   3.154 -0.2872 -0.3029  0.2119
  787MOL0     C 8532   8.179   5.511   3.226 -0.9907  0.3319 -0.1012
  787MOL0     C 8533   8.252   5.564   3.306  0.2633  0.0686  0.2427
  787MOL0     C 8534   7.791   5.391   2.842  0.0250  0.7039 -0.1417
  787MOL0     C 8535   7.662   5.434   2.797  0.4848  1.3623 -0.0320
  787MOL0     C 8536   7.665   5.529   2.681  0.2022 -0.0543 -0.1991
  787MOL0     H 8537   7.235   5.575   3.000 -1.2507  1.4442 -0.2535
  787MOL0     H 8538   7.003   5.678   2.998 -0.8643 -2.5003  3.5738
  787MOL0     H 8539   6.910   5.846   2.871 -0.9982  1.7498  1.9448
  787MOL0     H 8540   6.798   5.769   2.973  0.4165  1.1070  0.0907
  787MOL0     H 8541   6.739   5.970   2.792  3.4238  0.3564  0.3671
  787MOL0     H 8542   6.673   5.815   2.713 -0.8092 -1.5081  2.3170
  787MOL0     H 8543   6.612   5.910   2.988 -3.3790  2.6695 -0.9627
  787MOL0     H 8544   6.510   5.923   2.852 -1.6236 -1.2820  2.9863
  787MOL0     H 8545   6.521   5.675   2.804 -2.0346  1.2443 -0.6340
  787MOL0     H 8546   6.583   5.652   2.975  0.2806  0.1932  0.9956
  787MOL0     H 8547   6.317   5.801   2.925  1.9199  1.8943 -0.6340
  787MOL0     H 8548   6.403   5.741   3.076 -1.6348  3.1125 -0.2996
  787MOL0     H 8549   6.199   5.584   2.977 -0.3924 -2.5380 -0.8399
  787MOL0     H 8550   6.313   5.566   2.844  2.1967 -1.4201  0.2709
  787MOL0     H 8551   6.401   5.528   3.131  2.0313 -1.2631  0.1931
  787MOL0     H 8552   6.458   5.434   2.991 -0.1691  0.2089  0.2809
  787MOL0     H 8553   6.341   5.281   3.141  1.7205 -0.0772 -1.6349
  787MOL0     H 8554   6.202   5.401   3.150  0.0267  0.9900 -0.5290
  787MOL0     H 8555   6.370   5.271   2.824  0.3611  0.1168  1.5788
  787MOL0     H 8556   6.144   5.021   2.670 -4.6151  2.6609 -1.0916
  787MOL0     H 8557   6.305   5.101   2.670  0.0906  1.5880  0.4884
  787MOL0     H 8558   6.178   5.120   2.468 -0.5576 -0.6971  0.3705
  787MOL0     H 8559   6.052   5.214   2.561 -0.5952 -2.1967 -4.0193
  787MOL0     H 8560   6.152   5.395   2.459  1.8220  1.4294 -0.6357
  787MOL0     H 8561   6.191   5.396   2.617 -5.3074  2.0478 -2.7094
  787MOL0     H 8562   6.384   5.271   2.405  2.1712 -0.7031  1.1233
  787MOL0     H 8563   6.393   5.444   2.449  0.9675 -0.4645 -1.1716
  787MOL0     H 8564   6.589   5.148   2.712 -1.3986  1.9811 -0.9293
  787MOL0     H 8565   6.826   5.086   2.809  1.3853  0.5374  0.0785
  787MOL0     H 8566   6.972   5.111   2.713  0.7105  0.1414  0.1380
  787MOL0     H 8567   6.866   4.973   2.675 -0.7491  0.1141 -0.5793
  787MOL0     H 8568   7.216   5.039   2.276 -1.0645 -2.8217  0.5674
  787MOL0     H 8569   7.471   5.019   2.296  0.9353  1.9110  0.5643
  787MOL0     H 8570   7.649   5.191   2.617  3.3480  0.7305 -2.2215
  787MOL0     H 8571   7.668   5.024   2.687  0.7646 -0.5743  0.3885
  787MOL0     H 8572   7.838   5.150   2.481 -3.6453  2.0799  1.1741
  787MOL0     H 8573   7.883   5.127   2.657  2.3186 -1.2526 -1.3178
  787MOL0     H 8574   7.930   4.963   2.426 -0.1207  2.7475  0.2070
  787MOL0     H 8575   7.789   4.890   2.517 -1.7176  0.7996  3.2100
  787MOL0     H 8576   8.067   4.971   2.639 -0.3000  0.4476 -0.7532
  787MOL0     H 8577   8.048   4.808   2.569  3.3217  2.8909 -0.5366
  787MOL0     H 8578   7.891   4.902   2.812  1.0273  0.4542  1.0062
  787MOL0     H 8579   7.866   4.761   2.717  1.0134 -0.1090 -0.2364
  787MOL0     H 8580   8.121   4.814   2.867  1.2746 -1.8892  2.5198
  787MOL0     H 8581   8.087   4.672   2.772  0.4625  0.9966 -0.9476
  787MOL0     H 8582   8.026   4.604   2.979  2.8661  1.7486  1.2522
  787MOL0     H 8583   7.863   4.661   2.929 -0.1987  1.0737  0.6153
  787MOL0     H 8584   7.883   4.865   3.064 -1.5364 -2.5811  0.9175
  787MOL0     H 8585   8.059   4.844   3.104  0.1652 -0.4288  1.6923
  787MOL0     H 8586   7.449   5.076   2.717 -2.5211 -2.1216  1.1316
  787MOL0     H 8587   7.199   5.079   2.710  0.9480 -1.8907  1.3639
  787MOL0     H 8588   6.804   5.350   2.320 -1.2844  2.4173  0.8557
  787MOL0     H 8589   6.593   5.406   2.385 -0.3658 -1.1242 -2.4435
  787MOL0     H 8590   6.868   5.444   2.682 -2.0780  0.9696  1.8962
  787MOL0     H 8591   7.108   5.312   2.700  1.1175 -2.1259  3.8132
  787MOL0     H 8592   7.447   5.203   2.931 -0.2527  0.5137  1.1920
  787MOL0     H 8593   7.660   5.124   3.021  0.4582 -2.0624 -2.0403
  787MOL0     H 8594   7.855   5.076   3.101  0.9087 -0.7524 -3.5677
  787MOL0     H 8595   8.023   5.127   3.095  2.1000  2.8312 -0.0421
  787MOL0     H 8596   7.865   5.200   3.308 -1.8068  0.8989 -0.0751
  787MOL0     H 8597   7.823   5.343   3.215  0.8643  1.3236  0.8673
  787MOL0     H 8598   8.038   5.362   3.357 -3.3112 -4.0829  1.6032
  787MOL0     H 8599   8.106   5.239   3.256  1.8459  2.5089  0.1399
  787MOL0     H 8600   8.013   5.508   3.114 -0.8433 -1.4893 -1.2327
  787MOL0     H 8601   8.129   5.386   3.067 -1.7734 -1.2923 -0.1449
  787MOL0     H 8602   8.316   5.622   3.369 -0.3700  2.2171 -0.9743
  787MOL0     H 8603   7.885   5.443   2.831  1.1292 -0.4113  2.9283
  787MOL0     H 8604   7.624   5.485   2.589  0.7817 -1.9861  0.4232
  787MOL0     H 8605   7.618   5.624   2.705  2.9064  1.5070 -0.6972
  787MOL0     H 8606   7.766   5.566   2.658  0.4961 -1.7524 -1.9573
  788MOL0     O 8607   9.274   2.663   7.379 -0.0057 -0.7209 -0.3635
  788MOL0     C 8608   9.293   2.591   7.473  0.7418  1.7320  0.7516
  788MOL0     O 8609   9.410   2.571   7.538 -0.0865  0.0176  0.3527
  788MOL0     C 8610   9.496   2.675   7.550 -0.9297 -0.8177  0.3490
  788MOL0     C 8611   9.551   2.737   7.426  0.7216 -1.0920  0.8529
  788MOL0     C 8612   9.654   2.831   7.428  0.9774 -0.5125  0.1424
  788MOL0     C 8613   9.705   2.872   7.554  0.0969  0.4751  0.5991
  788MOL0     O 8614   9.800   2.969   7.582  0.2391 -0.0988  1.1315
  788MOL0     C 8615   9.772   3.099   7.520  0.4238 -0.2863 -0.4032
  788MOL0     C 8616   9.761   3.213   7.627  0.3462  0.2701  0.2805
  788MOL0     C 8617   9.905   3.234   7.682  0.3439  0.9239  0.1648
  788MOL0     C 8618   9.919   3.360   7.765 -0.0599 -0.3982  0.3785
  788MOL0     C 8619  10.054   3.343   7.829 -0.2002  0.0571 -1.0868
  788MOL0     C 8620  10.113   3.481   7.863 -0.2807  0.4699 -0.3227
  788MOL0     C 8621  10.218   3.454   7.982 -0.1441  0.6689 -0.7897
  788MOL0     C 8622  10.156   3.466   8.119  0.4240 -0.2849 -0.1652
  788MOL0     N 8623  10.251   3.502   8.221 -0.2662  0.0583  0.5877
  788MOL0     C 8624  10.385   3.468   8.229  0.1805 -0.1393  1.1826
  788MOL0     C 8625  10.441   3.545   8.332 -0.2418  0.4007  0.0587
  788MOL0     C 8626  10.591   3.558   8.360  0.3069 -0.0942 -0.4621
  788MOL0     C 8627  10.614   3.658   8.477 -0.1113  0.1132  0.3894
  788MOL0     C 8628  10.591   3.587   8.607 -0.0781 -0.0455 -0.9961
  788MOL0     C 8629  10.586   3.697   8.723 -1.0741  0.0595 -1.0364
  788MOL0     O 8630  10.680   3.807   8.708  0.1054  0.4969 -0.2935
  788MOL0     C 8631  10.727   3.851   8.829 -0.1454 -0.3734  0.0508
  788MOL0     C 8632  10.651   3.953   8.903  0.1745 -0.0898 -0.3413
  788MOL0     C 8633  10.691   3.992   9.028 -0.5497  0.7244  0.0351
  788MOL0     C 8634  10.596   4.088   9.104  0.8288 -0.0003 -0.6019
  788MOL0     C 8635  10.788   3.918   9.098 -0.1669  0.1803  0.0476
  788MOL0     C 8636  10.831   3.945   9.237  0.2026  0.2419  0.2774
  788MOL0     O 8637  10.808   4.073   9.292  0.3520 -0.6569  0.2473
  788MOL0     C 8638  10.848   4.091   9.426  0.8280  0.1025  1.1070
  788MOL0     C 8639  10.955   4.170   9.464  0.4055  0.7989  0.2087
  788MOL0     C 8640  10.988   4.170   9.602  0.0154 -0.5260  1.0112
  788MOL0     C 8641  10.913   4.101   9.699  0.1371  0.1210 -0.6159
  788MOL0     O 8642  10.929   4.104   9.836  0.0622  0.0072 -0.3335
  788MOL0     C 8643  10.967   4.229   9.899  0.4059 -0.1824 -0.5566
  788MOL0     C 8644  10.864   4.253  10.008 -0.7734 -0.5189  0.3940
  788MOL0     C 8645  10.865   4.400  10.067 -0.2842  0.9469 -0.3444
  788MOL0     C 8646  10.793   4.416  10.204 -0.4619  0.1298 -0.8297
  788MOL0     C 8647  10.797   4.567  10.253 -0.3927  0.9729  0.6764
  788MOL0     C 8648  10.684   4.648  10.182  0.8508  0.4753 -0.7071
  788MOL0     C 8649  10.694   4.798  10.207 -0.1159 -1.1233 -0.6849
  788MOL0     C 8650  10.574   4.884  10.189  0.1891  0.6565  0.0259
  788MOL0    Cl 8651  10.619   5.051  10.134 -0.2851  0.2662  0.1490
  788MOL0     C 8652  10.811   4.020   9.656  0.4272 -1.3294 -0.4062
  788MOL0     C 8653  10.778   4.012   9.522  0.8280  0.3361 -0.0958
  788MOL0     O 8654  10.871   3.850   9.298 -0.4104  0.1546 -0.5777
  788MOL0     C 8655  10.858   3.817   9.036  0.9113  0.4447  0.6464
  788MOL0     C 8656  10.829   3.789   8.897 -0.4102  0.4403  0.2742
  788MOL0     N 8657  10.336   3.617   8.381  0.1278  0.6949  0.0615
  788MOL0     N 8658  10.228   3.597   8.316  1.0026 -0.6039 -0.3437
  788MOL0     C 8659   9.664   2.798   7.671  0.5226  0.6201  0.1251
  788MOL0     C 8660   9.567   2.702   7.669  0.1164 -0.1688  0.4670
  788MOL0     C 8661   9.183   2.509   7.531 -0.8829  0.1867 -0.7676
  788MOL0     C 8662   9.107   2.435   7.436 -1.0263  0.1797  0.5195
  788MOL0     C 8663   9.009   2.349   7.474 -0.7464 -0.1226 -0.3186
  788MOL0     C 8664   8.984   2.334   7.608 -0.1002  0.6315 -0.7402
  788MOL0     O 8665   8.882   2.254   7.653  0.7641  0.0711 -0.5237
  788MOL0     C 8666   8.926   2.128   7.709  0.3468 -0.1488  0.1839
  788MOL0     C 8667   8.852   2.003   7.640 -0.8502 -0.5909 -0.6984
  788MOL0     C 8668   8.703   1.981   7.647  1.1182  0.7223  0.0912
  788MOL0     C 8669   8.659   1.867   7.557 -0.4395 -0.0308  0.6772
  788MOL0     C 8670   8.515   1.841   7.589  0.5011 -0.4346 -0.8071
  788MOL0     C 8671   8.392   1.832   7.603  0.3691 -0.7704 -0.8595
  788MOL0     C 8672   9.064   2.396   7.700  0.7054  0.7263  0.7264
  788MOL0     C 8673   9.162   2.485   7.669  0.7270 -0.6522 -0.2792
  788MOL0     C 8674   9.235   2.550   7.783  0.3009 -0.0664 -0.1450
  788MOL0     H 8675   9.523   2.704   7.326  1.1503  1.8043 -0.3253
  788MOL0     H 8676   9.696   2.879   7.339  3.6992 -1.7738  0.6233
  788MOL0     H 8677   9.677   3.094   7.466 -1.4331 -0.0848  2.5979
  788MOL0     H 8678   9.847   3.125   7.445  1.2711 -0.5454  0.3326
  788MOL0     H 8679   9.723   3.308   7.587  2.1272  1.6976  1.8010
  788MOL0     H 8680   9.686   3.186   7.701 -2.9298 -0.1917 -2.9341
  788MOL0     H 8681   9.937   3.145   7.737 -4.6255 -3.2366 -2.7637
  788MOL0     H 8682   9.972   3.244   7.595  0.8382  1.8356  0.6336
  788MOL0     H 8683   9.918   3.446   7.699  1.8457  1.2270  2.3078
  788MOL0     H 8684   9.842   3.366   7.842  1.1957  3.9070  1.5811
  788MOL0     H 8685  10.124   3.289   7.766  0.0547 -0.4985 -0.3333
  788MOL0     H 8686  10.034   3.292   7.924 -0.2476  2.7830  0.4814
  788MOL0     H 8687  10.171   3.509   7.776  0.7324 -0.9578 -0.1372
  788MOL0     H 8688  10.035   3.555   7.883 -1.0152 -0.4888  0.5053
  788MOL0     H 8689  10.292   3.534   7.974  0.2224  0.6520  1.7634
  788MOL0     H 8690  10.253   3.351   7.978 -1.0086  0.3671 -0.8380
  788MOL0     H 8691  10.093   3.555   8.119 -0.2664 -0.6754  2.5863
  788MOL0     H 8692  10.100   3.377   8.150 -0.1365  0.2686  0.4354
  788MOL0     H 8693  10.440   3.405   8.160 -1.2418 -0.2852  0.1180
  788MOL0     H 8694  10.648   3.594   8.274  1.6748  0.5871  0.6685
  788MOL0     H 8695  10.630   3.462   8.396 -0.5111  0.4800  2.1793
  788MOL0     H 8696  10.718   3.693   8.479  0.1674 -0.6773 -0.0289
  788MOL0     H 8697  10.552   3.748   8.473  0.6025  0.6258  0.6176
  788MOL0     H 8698  10.489   3.546   8.604 -1.6302  3.4595 -3.8723
  788MOL0     H 8699  10.663   3.508   8.626 -1.1383 -0.5129  1.4462
  788MOL0     H 8700  10.489   3.743   8.743  1.0723  4.6441  0.1582
  788MOL0     H 8701  10.609   3.641   8.815  2.0156  1.6455 -0.6770
  788MOL0     H 8702  10.562   3.994   8.856  1.6141  2.5721 -0.9274
  788MOL0     H 8703  10.536   4.030   9.175  1.4052 -0.1921 -0.2590
  788MOL0     H 8704  10.527   4.138   9.037 -0.2884  2.2762  2.0615
  788MOL0     H 8705  10.653   4.171   9.147 -1.0318  1.2350 -0.4342
  788MOL0     H 8706  10.991   4.239   9.388  1.3204 -1.5506 -1.5870
  788MOL0     H 8707  11.058   4.246   9.637 -0.2263  0.2669 -0.1751
  788MOL0     H 8708  11.065   4.215   9.947  1.4662  0.0021 -2.5513
  788MOL0     H 8709  10.982   4.312   9.830  0.9675  0.5605  0.4392
  788MOL0     H 8710  10.760   4.246   9.975  0.1442 -0.1375 -2.9723
  788MOL0     H 8711  10.884   4.174  10.080  1.0565 -1.6374 -1.2377
  788MOL0     H 8712  10.829   4.470   9.992 -2.6683 -0.6554 -0.7964
  788MOL0     H 8713  10.968   4.428  10.091 -0.4569 -0.1471  1.9643
  788MOL0     H 8714  10.838   4.355  10.282 -0.3859 -0.1205 -1.0692
  788MOL0     H 8715  10.689   4.385  10.194 -0.9034  0.8218  1.1557
  788MOL0     H 8716  10.769   4.557  10.358 -1.5488 -0.7449  0.2538
  788MOL0     H 8717  10.897   4.611  10.258  0.7388 -1.0971 -1.6800
  788MOL0     H 8718  10.586   4.615  10.217  1.1501 -1.2532 -1.4282
  788MOL0     H 8719  10.674   4.635  10.074  3.0334 -1.2368 -0.7647
  788MOL0     H 8720  10.770   4.849  10.147  0.6059 -0.8046  0.4605
  788MOL0     H 8721  10.722   4.807  10.313  0.8984  1.3634 -1.0959
  788MOL0     H 8722  10.530   4.898  10.288  0.5461  0.3347  0.2334
  788MOL0     H 8723  10.501   4.844  10.117 -0.6766  1.3037  0.5228
  788MOL0     H 8724  10.755   3.976   9.738 -0.5688  3.2492  1.7042
  788MOL0     H 8725  10.696   3.950   9.486  0.8390  0.8007 -0.9524
  788MOL0     H 8726  10.919   3.752   9.097 -2.0757 -2.4684  0.8661
  788MOL0     H 8727  10.888   3.707   8.856  2.4629  2.8673 -0.7508
  788MOL0     H 8728   9.707   2.823   7.767 -2.3929  0.7311  1.5303
  788MOL0     H 8729   9.547   2.639   7.755 -0.5625  0.1515  0.5484
  788MOL0     H 8730   9.128   2.454   7.332  2.2199 -0.7085  0.8977
  788MOL0     H 8731   8.945   2.303   7.400 -1.4502  0.4904 -0.1064
  788MOL0     H 8732   9.033   2.111   7.694  0.1160  0.6095 -3.4339
  788MOL0     H 8733   8.906   2.131   7.816 -6.4841  4.5199 -0.5384
  788MOL0     H 8734   8.908   1.919   7.683  0.1929  1.0043  1.1966
  788MOL0     H 8735   8.887   2.000   7.536  3.1638  1.9082  0.3966
  788MOL0     H 8736   8.664   1.963   7.747 -3.2122  0.7526 -1.3744
  788MOL0     H 8737   8.640   2.061   7.607  0.4168 -1.2658 -3.2467
  788MOL0     H 8738   8.723   1.786   7.594  2.9265  1.2041 -1.9501
  788MOL0     H 8739   8.698   1.878   7.456  1.8983 -4.6790  0.7848
  788MOL0     H 8740   8.287   1.835   7.623  0.3637 -1.1761 -0.8326
  788MOL0     H 8741   9.052   2.383   7.807 -0.1330  0.9205  0.6616
  788MOL0     H 8742   9.335   2.506   7.775 -0.3144 -1.7989  1.1375
  788MOL0     H 8743   9.241   2.659   7.775  1.1643 -0.1542 -0.8006
  788MOL0     H 8744   9.194   2.521   7.880  0.2907 -3.4067 -1.0318
  789MOL0     O 8745   9.473  10.422   4.975  0.0452 -1.1307 -0.0181
  789MOL0     C 8746   9.579  10.367   4.966 -0.1528  0.4845 -0.1742
  789MOL0     O 8747   9.623  10.279   4.866  0.4118 -0.1434 -0.1317
  789MOL0     C 8748   9.525  10.230   4.771  0.2820  0.2561 -0.8248
  789MOL0     C 8749   9.446  10.310   4.693 -0.7423  0.3432 -0.4717
  789MOL0     C 8750   9.348  10.254   4.609  0.4428 -1.1390 -0.9443
  789MOL0     C 8751   9.342  10.119   4.583  0.3011 -0.1767 -0.3060
  789MOL0     O 8752   9.239  10.073   4.517  0.4088 -0.0564  0.3278
  789MOL0     C 8753   9.279  10.030   4.387  0.2721  0.0199 -0.9476
  789MOL0     C 8754   9.147   9.957   4.325  0.2784  0.3584 -0.4721
  789MOL0     C 8755   9.129   9.812   4.353  0.8818  0.9751  0.5563
  789MOL0     C 8756   9.002   9.743   4.288  0.1838 -0.0986 -0.3823
  789MOL0     C 8757   8.962   9.599   4.333 -0.2037  0.5845 -0.5674
  789MOL0     C 8758   8.946   9.586   4.484  0.6768 -0.7405  0.0985
  789MOL0     C 8759   8.842   9.473   4.521 -0.9801 -0.1794  0.9535
  789MOL0     C 8760   8.695   9.513   4.510  0.0390 -0.0401 -0.3644
  789MOL0     N 8761   8.640   9.594   4.615 -0.0962 -0.0453 -0.2553
  789MOL0     C 8762   8.640   9.738   4.630  0.3138 -0.2056  0.7119
  789MOL0     C 8763   8.585   9.762   4.755 -0.4051 -0.8286 -0.9508
  789MOL0     C 8764   8.582   9.895   4.819  0.9865 -0.3458 -0.3368
  789MOL0     C 8765   8.435   9.947   4.802  0.5090  0.1818 -0.5035
  789MOL0     C 8766   8.416  10.091   4.853 -0.5941  0.5681  0.2052
  789MOL0     C 8767   8.292  10.164   4.797 -0.5603 -0.6581 -0.3860
  789MOL0     O 8768   8.184  10.146   4.893  0.1190 -0.0354  0.3277
  789MOL0     C 8769   8.072  10.230   4.886 -0.9770  0.0211  0.9187
  789MOL0     C 8770   7.962  10.196   4.969  0.4491 -0.2534  1.0121
  789MOL0     C 8771   7.841  10.265   4.978  0.2930 -0.4733  0.8328
  789MOL0     C 8772   7.720  10.206   5.054 -0.7753 -0.6418 -1.0706
  789MOL0     C 8773   7.830  10.381   4.884 -0.0613 -0.1530  0.0525
  789MOL0     C 8774   7.707  10.466   4.867 -0.6112  0.5116  0.6864
  789MOL0     O 8775   7.730  10.567   4.782  0.5646 -0.0455 -0.4645
  789MOL0     C 8776   7.629  10.653   4.749 -1.1201 -0.3648 -0.1205
  789MOL0     C 8777   7.578  10.630   4.622  0.1207  0.4864 -0.9087
  789MOL0     C 8778   7.492  10.719   4.567 -0.3381  0.6010 -0.3579
  789MOL0     C 8779   7.470  10.839   4.623 -0.6532  0.0979 -0.3318
  789MOL0     O 8780   7.400  10.942   4.571  0.1504 -0.1359  0.3816
  789MOL0     C 8781   7.472  11.046   4.496 -0.6131  0.7296 -0.0836
  789MOL0     C 8782   7.392  11.061   4.360  0.4851  0.2938 -0.2159
  789MOL0     C 8783   7.440  10.951   4.263  0.9696 -0.1518  0.0980
  789MOL0     C 8784   7.325  10.919   4.163  0.0118 -0.9361  0.6546
  789MOL0     C 8785   7.267  11.057   4.113 -0.4047  0.9201  0.4302
  789MOL0     C 8786   7.210  11.060   3.967 -0.2684 -0.2115  0.3700
  789MOL0     C 8787   7.329  11.032   3.873 -0.5540  0.4411 -0.3200
  789MOL0     C 8788   7.303  11.048   3.725  0.0010  0.1309  1.6101
  789MOL0    Cl 8789   7.332  11.217   3.671 -0.1979 -0.4441 -0.3094
  789MOL0     C 8790   7.520  10.863   4.755  0.9852  0.5932  0.0933
  789MOL0     C 8791   7.592  10.772   4.823  0.0123 -0.1934  0.7407
  789MOL0     O 8792   7.597  10.429   4.909 -0.7134 -0.5294  0.0614
  789MOL0     C 8793   7.944  10.413   4.807  0.6447  0.0640 -0.1372
  789MOL0     C 8794   8.060  10.343   4.818  0.7146 -0.2030  0.0766
  789MOL0     N 8795   8.552   9.637   4.813 -0.5627 -0.3095 -0.3304
  789MOL0     N 8796   8.585   9.536   4.728 -0.1607 -0.2657 -0.3334
  789MOL0     C 8797   9.443  10.042   4.648  0.3215  0.5871 -0.4449
  789MOL0     C 8798   9.537  10.096   4.734 -0.3337 -0.1905 -0.6862
  789MOL0     C 8799   9.684  10.401   5.079  0.2432 -0.3113  0.0556
  789MOL0     C 8800   9.799  10.313   5.087 -0.7154  0.3955  0.0371
  789MOL0     C 8801   9.890  10.333   5.195  0.8207  0.0604 -0.1533
  789MOL0     C 8802   9.877  10.440   5.287  0.0111  0.8491  1.4123
  789MOL0     O 8803   9.970  10.458   5.382 -0.1017  0.1235  0.0731
  789MOL0     C 8804   9.942  10.518   5.514  0.2058  0.7490 -0.3678
  789MOL0     C 8805  10.014  10.654   5.537 -0.1120  0.0861  0.2255
  789MOL0     C 8806  10.168  10.625   5.568 -0.1818  0.2836 -0.2564
  789MOL0     C 8807  10.238  10.737   5.647 -0.0297 -0.3080  0.3658
  789MOL0     C 8808  10.379  10.737   5.611  0.3111 -0.0260  1.0374
  789MOL0     C 8809  10.497  10.741   5.587  0.5381  0.2509 -0.1545
  789MOL0     C 8810   9.772  10.531   5.265  0.2401 -0.7010  0.1644
  789MOL0     C 8811   9.670  10.513   5.165 -1.4131 -0.5110 -0.4646
  789MOL0     C 8812   9.571  10.623   5.142  0.0083  0.2494  0.6004
  789MOL0     H 8813   9.440  10.417   4.709  0.4646  0.1429  1.7277
  789MOL0     H 8814   9.278  10.330   4.577 -0.5521 -2.0943 -1.0690
  789MOL0     H 8815   9.358   9.956   4.397  0.9637  0.3465 -3.4272
  789MOL0     H 8816   9.308  10.119   4.330  0.1814 -1.1014 -2.8252
  789MOL0     H 8817   9.060  10.011   4.362 -1.2088 -1.6452 -0.8347
  789MOL0     H 8818   9.147   9.965   4.216 -0.0725  1.3051 -0.4030
  789MOL0     H 8819   9.215   9.760   4.311  1.9976  1.7684  1.7734
  789MOL0     H 8820   9.136   9.789   4.460  0.9885  0.5499  0.4597
  789MOL0     H 8821   8.912   9.801   4.309  1.2732  2.3527 -1.9385
  789MOL0     H 8822   9.036   9.737   4.184  0.5076  0.3984 -0.3103
  789MOL0     H 8823   9.044   9.534   4.300  2.0594  4.4805 -3.4838
  789MOL0     H 8824   8.870   9.564   4.285 -0.8914 -1.2920  1.9388
  789MOL0     H 8825   9.045   9.566   4.525  1.3174 -2.6231 -2.1212
  789MOL0     H 8826   8.911   9.680   4.528  3.1622  0.7128 -0.8011
  789MOL0     H 8827   8.857   9.441   4.625  2.9070 -0.0402  0.5888
  789MOL0     H 8828   8.867   9.386   4.461  4.7558  0.9587  1.0328
  789MOL0     H 8829   8.689   9.575   4.420  1.3918  0.3667 -0.1981
  789MOL0     H 8830   8.627   9.427   4.504 -2.1375  1.5311  0.1762
  789MOL0     H 8831   8.679   9.809   4.558  2.1748 -2.3851 -0.5588
  789MOL0     H 8832   8.648   9.966   4.767  0.2476  2.3620  2.1606
  789MOL0     H 8833   8.614   9.893   4.923  1.4529  1.2752 -0.4101
  789MOL0     H 8834   8.402   9.955   4.698 -2.0004 -2.5683 -0.0503
  789MOL0     H 8835   8.367   9.886   4.861 -2.3488  0.2869 -3.3852
  789MOL0     H 8836   8.418  10.079   4.962 -2.0434 -1.4266  0.0727
  789MOL0     H 8837   8.508  10.141   4.822  0.6558 -0.4057  2.1025
  789MOL0     H 8838   8.324  10.268   4.805 -1.3391 -0.5524  2.0861
  789MOL0     H 8839   8.264  10.126   4.698  1.7146 -1.3747 -0.8073
  789MOL0     H 8840   7.961  10.105   5.028 -2.6791 -2.1187 -1.5998
  789MOL0     H 8841   7.757  10.108   5.086  1.0367  0.3304 -0.0030
  789MOL0     H 8842   7.629  10.172   5.003 -0.4548 -1.7334 -0.9337
  789MOL0     H 8843   7.706  10.269   5.143  3.5294 -0.2389 -0.4894
  789MOL0     H 8844   7.602  10.537   4.571 -3.3304 -0.8233 -0.4565
  789MOL0     H 8845   7.447  10.688   4.473 -1.3604 -2.1143  0.9144
  789MOL0     H 8846   7.469  11.136   4.558 -0.4533  0.6167  0.0870
  789MOL0     H 8847   7.573  11.016   4.467 -1.8236 -2.7106 -1.2141
  789MOL0     H 8848   7.286  11.040   4.376  0.9072 -2.1463 -0.1306
  789MOL0     H 8849   7.408  11.163   4.326  2.3325  0.0464 -0.1876
  789MOL0     H 8850   7.459  10.858   4.317 -1.3403  0.1762  1.5928
  789MOL0     H 8851   7.532  10.976   4.209  0.5538 -0.4906 -0.7933
  789MOL0     H 8852   7.251  10.863   4.220 -1.3702 -0.1124 -0.2582
  789MOL0     H 8853   7.357  10.851   4.084  1.1937 -0.2747  0.5272
  789MOL0     H 8854   7.195  11.087   4.190 -1.4236  0.2322 -0.2206
  789MOL0     H 8855   7.346  11.131   4.119 -0.0603  0.6480 -0.5981
  789MOL0     H 8856   7.165  11.156   3.938 -1.0159  0.0400  2.2424
  789MOL0     H 8857   7.130  10.986   3.954 -0.5802 -0.8470  4.5386
  789MOL0     H 8858   7.373  10.934   3.896  3.8761  2.7566  2.5209
  789MOL0     H 8859   7.408  11.105   3.891 -2.0495  1.6626  1.8603
  789MOL0     H 8860   7.197  11.030   3.703  0.4896  0.6659 -1.7892
  789MOL0     H 8861   7.369  10.984   3.666  2.5825  3.3678  0.6804
  789MOL0     H 8862   7.516  10.960   4.802 -2.9191  0.1058  1.1258
  789MOL0     H 8863   7.632  10.789   4.923  2.2891 -2.0180  0.2216
  789MOL0     H 8864   7.937  10.497   4.738  2.8965  0.0195 -0.5113
  789MOL0     H 8865   8.147  10.387   4.770 -0.9375  5.6938  1.6221
  789MOL0     H 8866   9.442   9.935   4.636 -1.1012  0.4087  0.9856
  789MOL0     H 8867   9.612  10.040   4.788 -1.1828 -0.2287  0.4909
  789MOL0     H 8868   9.804  10.233   5.014 -2.7217  0.6014 -0.3992
  789MOL0     H 8869   9.961  10.259   5.230  0.4179  1.4265  4.1949
  789MOL0     H 8870   9.834  10.523   5.525  0.0775 -1.5762 -0.0396
  789MOL0     H 8871   9.963  10.442   5.591 -1.1963 -0.3415 -1.0175
  789MOL0     H 8872   9.973  10.703   5.626 -0.2892  1.0992 -0.3969
  789MOL0     H 8873  10.013  10.733   5.460  0.3781  1.3719  1.4864
  789MOL0     H 8874  10.188  10.528   5.616  2.6730  1.4569  1.1508
  789MOL0     H 8875  10.213  10.611   5.469  1.4841  2.3497  0.1523
  789MOL0     H 8876  10.221  10.725   5.754  1.3040  2.0667  0.9219
  789MOL0     H 8877  10.201  10.837   5.621 -0.5615  0.0432  2.3001
  789MOL0     H 8878  10.598  10.755   5.554  0.8828 -0.7526  0.4378
  789MOL0     H 8879   9.772  10.613   5.335 -1.0469 -1.2722  0.8565
  789MOL0     H 8880   9.616  10.711   5.187 -0.3772 -0.9456  3.5106
  789MOL0     H 8881   9.553  10.645   5.036 -2.5730  2.5259  1.3904
  789MOL0     H 8882   9.479  10.595   5.194  0.3412 -2.2652 -0.0046
  790MOL0     O 8883  10.691   3.691   9.834 -0.7747 -0.0237  0.1792
  790MOL0     C 8884  10.614   3.631   9.761 -0.4676 -0.8348 -0.4670
  790MOL0     O 8885  10.488   3.679   9.728 -0.9576 -0.6922  0.0431
  790MOL0     C 8886  10.448   3.801   9.773  0.6931 -0.1031  0.7305
  790MOL0     C 8887  10.379   3.800   9.901  0.2230 -0.9107 -0.5131
  790MOL0     C 8888  10.303   3.913   9.938  1.3214 -0.2668 -0.0793
  790MOL0     C 8889  10.320   4.034   9.858  0.2242 -0.4388 -0.5605
  790MOL0     O 8890  10.247   4.139   9.910 -0.0766 -0.1326 -1.3159
  790MOL0     C 8891  10.246   4.254   9.825  0.3745 -0.2055 -0.2964
  790MOL0     C 8892  10.145   4.363   9.884 -0.8845  0.0683 -0.2329
  790MOL0     C 8893  10.003   4.345   9.829 -0.1146 -0.0762 -0.7802
  790MOL0     C 8894   9.922   4.473   9.852 -0.5631 -0.8561  0.3853
  790MOL0     C 8895   9.776   4.480   9.821  0.1781  0.0111 -0.5808
  790MOL0     C 8896   9.716   4.616   9.872  0.1427  0.9238  0.2164
  790MOL0     C 8897   9.575   4.648   9.834  0.3235  0.0388 -0.3175
  790MOL0     C 8898   9.463   4.569   9.899  0.3529  0.5881  0.8840
  790MOL0     N 8899   9.327   4.602   9.850 -0.0859  0.7538  0.1405
  790MOL0     C 8900   9.278   4.714   9.782 -0.3989  0.1003  1.0886
  790MOL0     C 8901   9.148   4.685   9.757 -0.3036 -0.1561 -0.2141
  790MOL0     C 8902   9.057   4.770   9.673  0.6505  0.0162 -0.7650
  790MOL0     C 8903   8.921   4.799   9.743  0.4264 -0.4988  0.5507
  790MOL0     C 8904   8.831   4.920   9.686 -0.9656  0.4077  0.0576
  790MOL0     C 8905   8.780   4.891   9.542 -0.0385  1.1191 -0.9412
  790MOL0     O 8906   8.722   5.011   9.488 -0.0078  0.3629 -0.0852
  790MOL0     C 8907   8.790   5.055   9.376  0.3461 -0.6184 -0.5259
  790MOL0     C 8908   8.839   4.981   9.262  0.2596  0.1014 -0.7782
  790MOL0     C 8909   8.907   5.041   9.159  0.5693 -0.0418  0.3430
  790MOL0     C 8910   8.991   4.952   9.063  0.1856 -0.0366 -0.3742
  790MOL0     C 8911   8.929   5.181   9.168  0.0596  0.2182 -0.3445
  790MOL0     C 8912   9.010   5.251   9.066  0.0634  0.0065 -0.1123
  790MOL0     O 8913   9.133   5.202   9.027 -0.7557  0.4978 -0.0442
  790MOL0     C 8914   9.216   5.279   8.955  0.1717 -0.0126  0.0663
  790MOL0     C 8915   9.290   5.218   8.841 -0.4514  0.0495 -0.1838
  790MOL0     C 8916   9.385   5.294   8.767  0.5653 -0.2729  0.0177
  790MOL0     C 8917   9.402   5.430   8.804 -0.9203 -0.4079  0.9961
  790MOL0     O 8918   9.499   5.486   8.722 -0.3155  0.1401 -0.3509
  790MOL0     C 8919   9.598   5.542   8.805 -0.5303  0.4231 -0.6508
  790MOL0     C 8920   9.721   5.585   8.722  0.5996 -0.0605 -1.1190
  790MOL0     C 8921   9.809   5.666   8.812  0.5346 -0.2206 -0.0164
  790MOL0     C 8922   9.938   5.727   8.741  0.3568  0.0253  0.1542
  790MOL0     C 8923  10.010   5.835   8.825  0.3288 -0.6195  1.0457
  790MOL0     C 8924  10.061   5.780   8.950 -0.4060 -0.4369  0.5525
  790MOL0     C 8925  10.160   5.866   9.027  0.9338 -0.0744  0.1903
  790MOL0     C 8926  10.202   5.799   9.165  0.4346 -0.4090  0.0398
  790MOL0    Cl 8927  10.057   5.762   9.272 -0.1078 -0.2280  0.1398
  790MOL0     C 8928   9.346   5.478   8.929 -0.0728  0.3129 -0.0374
  790MOL0     C 8929   9.249   5.407   8.995 -0.8223  0.0381  1.2936
  790MOL0     O 8930   8.966   5.366   9.039 -0.5404 -0.0266  0.2628
  790MOL0     C 8931   8.874   5.253   9.273  0.8022  0.0892 -0.1182
  790MOL0     C 8932   8.803   5.196   9.375 -0.3757  0.1431 -0.1969
  790MOL0     N 8933   9.123   4.559   9.804  0.7439 -0.9129 -0.4303
  790MOL0     N 8934   9.227   4.507   9.853 -0.4519  0.4090  0.0656
  790MOL0     C 8935  10.413   4.044   9.752 -0.5552 -0.1314  0.0192
  790MOL0     C 8936  10.468   3.925   9.704  0.3299 -0.2766  0.4863
  790MOL0     C 8937  10.665   3.501   9.704 -0.9975  0.3634 -0.0142
  790MOL0     C 8938  10.798   3.468   9.727  0.6619  0.7416  0.0449
  790MOL0     C 8939  10.852   3.351   9.705 -0.2257  0.0744 -0.1258
  790MOL0     C 8940  10.783   3.252   9.648  0.1316  0.9320 -0.2705
  790MOL0     O 8941  10.841   3.124   9.626 -0.0789 -0.4337  0.1708
  790MOL0     C 8942  10.776   3.033   9.527  0.0338  0.4548 -0.6143
  790MOL0     C 8943  10.840   2.893   9.542 -0.0556 -0.2473 -0.6692
  790MOL0     C 8944  10.978   2.880   9.481  0.8473  0.2801 -0.1204
  790MOL0     C 8945  10.972   2.891   9.331  0.0080  0.8182 -0.3858
  790MOL0     C 8946  11.103   2.866   9.258  0.7529  0.2149  0.3739
  790MOL0     C 8947  11.275   2.825   9.176  0.4676 -0.0699 -0.4091
  790MOL0     C 8948  10.659   3.291   9.603 -0.3435  0.8709  1.0092
  790MOL0     C 8949  10.590   3.403   9.634 -0.5855  0.0553  0.0599
  790MOL0     C 8950  10.441   3.424   9.601 -0.5508  0.7461  0.2739
  790MOL0     H 8951  10.383   3.702   9.948 -0.0954 -0.8153 -0.2768
  790MOL0     H 8952  10.237   3.906  10.024  0.1143 -1.2651 -1.0519
  790MOL0     H 8953  10.205   4.215   9.731  1.2885 -3.8751  0.6764
  790MOL0     H 8954  10.348   4.289   9.811  0.2569 -0.5188 -2.2822
  790MOL0     H 8955  10.148   4.346   9.991  1.3033  1.9746  0.0956
  790MOL0     H 8956  10.194   4.453   9.845  1.0123 -0.3336  1.1165
  790MOL0     H 8957  10.006   4.328   9.721 -4.0585  0.5826 -1.1584
  790MOL0     H 8958   9.956   4.257   9.873  1.4836  0.1605  1.5847
  790MOL0     H 8959   9.937   4.498   9.958  1.1756  1.0933 -0.2459
  790MOL0     H 8960   9.973   4.557   9.804 -3.2279 -0.3876 -1.8582
  790MOL0     H 8961   9.720   4.404   9.877  1.1308 -0.8243 -0.7283
  790MOL0     H 8962   9.766   4.471   9.713 -0.6406 -3.1907 -0.3523
  790MOL0     H 8963   9.726   4.622   9.981 -0.6543  1.1089  0.2822
  790MOL0     H 8964   9.779   4.693   9.826  1.5959  0.3774  1.2090
  790MOL0     H 8965   9.563   4.628   9.727 -1.6913 -0.8155  0.0226
  790MOL0     H 8966   9.561   4.752   9.863 -0.0317 -0.7666  2.8131
  790MOL0     H 8967   9.489   4.464   9.880  0.7536  0.9200 -0.5082
  790MOL0     H 8968   9.462   4.587  10.007  1.6046 -0.6255  1.1204
  790MOL0     H 8969   9.324   4.802   9.739  1.8363  0.0940  3.2389
  790MOL0     H 8970   9.025   4.699   9.596 -1.6842 -1.1750  1.1569
  790MOL0     H 8971   9.105   4.859   9.633 -3.1263  2.7393  0.2465
  790MOL0     H 8972   8.859   4.709   9.747  1.1363 -1.1054 -1.1726
  790MOL0     H 8973   8.948   4.840   9.841  3.2625  2.2848 -1.2005
  790MOL0     H 8974   8.742   4.924   9.749 -0.3342 -2.5731  1.3177
  790MOL0     H 8975   8.882   5.015   9.669 -2.6911  0.9404 -2.8958
  790MOL0     H 8976   8.859   4.849   9.479 -0.1363  2.4404 -1.9856
  790MOL0     H 8977   8.708   4.809   9.546  2.3959 -1.1201  1.3298
  790MOL0     H 8978   8.847   4.873   9.267  0.1739  0.0919 -0.8496
  790MOL0     H 8979   8.991   4.848   9.098 -1.4315 -1.3841 -3.8976
  790MOL0     H 8980   9.099   4.972   9.058  1.0616 -3.3107  2.1219
  790MOL0     H 8981   8.954   4.953   8.960 -3.0514 -1.6486  0.6496
  790MOL0     H 8982   9.278   5.118   8.800  1.1018 -1.1557  2.1326
  790MOL0     H 8983   9.425   5.257   8.673 -0.2730  2.4851 -1.5491
  790MOL0     H 8984   9.557   5.631   8.853 -0.8925  0.9267 -1.8383
  790MOL0     H 8985   9.641   5.464   8.868  1.0825 -1.6089 -3.9423
  790MOL0     H 8986   9.768   5.498   8.675  1.5537 -2.8342  4.2224
  790MOL0     H 8987   9.669   5.654   8.655 -2.3198 -1.5085 -0.4844
  790MOL0     H 8988   9.836   5.592   8.888 -4.9275 -2.2834  0.3665
  790MOL0     H 8989   9.754   5.751   8.853  0.5760  0.6690 -1.7409
  790MOL0     H 8990   9.899   5.774   8.649  2.1134  1.9866  0.3453
  790MOL0     H 8991  10.014   5.658   8.705  1.7404  2.4862 -2.0127
  790MOL0     H 8992  10.089   5.875   8.760 -3.8247  1.8542 -3.1276
  790MOL0     H 8993   9.946   5.922   8.842 -0.5665 -0.9871 -0.2913
  790MOL0     H 8994  10.100   5.679   8.936  0.6972 -0.0540  0.7859
  790MOL0     H 8995   9.972   5.771   9.013 -0.4064  4.4895  1.6805
  790MOL0     H 8996  10.100   5.955   9.047 -1.8511 -1.8781  0.5447
  790MOL0     H 8997  10.246   5.895   8.966  1.1035 -0.1685  0.3858
  790MOL0     H 8998  10.272   5.863   9.220  1.9936 -0.2559 -2.0267
  790MOL0     H 8999  10.257   5.707   9.145  2.3855  0.5616  0.7260
  790MOL0     H 9000   9.356   5.578   8.970 -2.0802 -0.1007  1.6511
  790MOL0     H 9001   9.211   5.461   9.082 -4.0942  1.8529 -1.0373
  790MOL0     H 9002   8.865   5.361   9.263 -3.3046 -0.2688 -2.7945
  790MOL0     H 9003   8.754   5.259   9.448 -2.2606 -2.5651  1.0732
  790MOL0     H 9004  10.439   4.137   9.702  0.0809 -0.1549  0.2966
  790MOL0     H 9005  10.531   3.924   9.616 -0.8352 -0.1023 -0.3750
  790MOL0     H 9006  10.864   3.540   9.775 -2.9735  3.5283  1.4142
  790MOL0     H 9007  10.954   3.327   9.732 -0.5560 -2.2000 -0.6541
  790MOL0     H 9008  10.672   3.036   9.560  0.1605  1.3660 -0.2646
  790MOL0     H 9009  10.790   3.066   9.424 -3.0659 -0.7660 -1.5566
  790MOL0     H 9010  10.774   2.821   9.493 -0.8984  0.3429 -0.4221
  790MOL0     H 9011  10.842   2.878   9.650  1.7249 -0.9420 -0.7582
  790MOL0     H 9012  11.052   2.958   9.501  1.5046  0.6112 -3.3065
  790MOL0     H 9013  11.012   2.787   9.527  0.8143  0.2701 -0.1155
  790MOL0     H 9014  10.934   2.991   9.308  2.5332  1.7861 -0.6916
  790MOL0     H 9015  10.899   2.818   9.296  2.3166 -0.8027 -2.0689
  790MOL0     H 9016  11.372   2.793   9.145  1.2796  1.9891 -0.1431
  790MOL0     H 9017  10.592   3.219   9.557  1.0183 -0.9528  1.7722
  790MOL0     H 9018  10.386   3.430   9.695  2.0522 -0.8133  2.0176
  790MOL0     H 9019  10.422   3.510   9.535  1.1194  0.8097 -0.1616
  790MOL0     H 9020  10.408   3.336   9.546  0.4994 -0.6304  1.7712
  791MOL0     O 9021   1.806   0.662   4.053  0.7045  0.5130 -0.2954
  791MOL0     C 9022   1.720   0.751   4.059  0.2734  1.2191  0.0341
  791MOL0     O 9023   1.589   0.733   4.011 -0.4117 -0.0019  0.0218
  791MOL0     C 9024   1.544   0.604   3.975 -0.7440  0.1391  0.8218
  791MOL0     C 9025   1.496   0.573   3.843 -0.0464 -1.2768  0.0519
  791MOL0     C 9026   1.471   0.450   3.793  0.3236  0.7446  0.0089
  791MOL0     C 9027   1.480   0.339   3.869  0.1400  0.2793 -0.6573
  791MOL0     O 9028   1.440   0.213   3.816 -0.1010  0.7109  0.1709
  791MOL0     C 9029   1.505   0.095   3.878 -0.2001 -0.5657 -0.1350
  791MOL0     C 9030   1.490  -0.022   3.777 -0.4750 -1.0429 -0.1521
  791MOL0     C 9031   1.347  -0.018   3.721 -0.3261  0.0359 -0.7537
  791MOL0     C 9032   1.330  -0.162   3.664 -0.6706 -0.2701 -0.9565
  791MOL0     C 9033   1.221  -0.178   3.570 -0.1275  0.3877 -0.3522
  791MOL0     C 9034   1.082  -0.152   3.623  0.2131 -0.2450  1.7153
  791MOL0     C 9035   1.005  -0.288   3.650 -1.1358  0.0580  0.9205
  791MOL0     C 9036   0.889  -0.265   3.747 -0.3476  0.7596  0.2862
  791MOL0     N 9037   0.829  -0.394   3.790 -0.7348 -1.4380  0.7855
  791MOL0     C 9038   0.761  -0.477   3.704 -1.0297  0.5413  0.0788
  791MOL0     C 9039   0.735  -0.587   3.772 -0.3078 -0.5632 -0.2526
  791MOL0     C 9040   0.696  -0.721   3.718  0.6823 -0.6887 -0.1443
  791MOL0     C 9041   0.816  -0.809   3.686 -0.3328 -0.0092 -0.0227
  791MOL0     C 9042   0.905  -0.859   3.803  0.1951 -0.1528 -0.7839
  791MOL0     C 9043   1.004  -0.957   3.751  0.0328 -0.1262 -0.2650
  791MOL0     O 9044   1.082  -1.010   3.865  0.6509  0.5509 -0.4900
  791MOL0     C 9045   1.198  -1.067   3.830  0.2764 -0.5327  0.4189
  791MOL0     C 9046   1.255  -1.131   3.936 -0.4213 -0.6672 -0.4053
  791MOL0     C 9047   1.372  -1.206   3.932 -0.3746  0.2320 -0.8316
  791MOL0     C 9048   1.428  -1.268   4.060 -0.6229 -0.5315 -0.5873
  791MOL0     C 9049   1.428  -1.226   3.808  0.6592 -0.3428  0.5824
  791MOL0     C 9050   1.547  -1.301   3.786  0.1714 -0.0384  0.0697
  791MOL0     O 9051   1.659  -1.237   3.840  0.5706  0.1826 -0.3226
  791MOL0     C 9052   1.785  -1.281   3.820  0.8924  0.0923  0.6132
  791MOL0     C 9053   1.878  -1.269   3.923 -0.7382  0.1268  1.4694
  791MOL0     C 9054   2.019  -1.297   3.897  0.5169 -0.2041  1.0004
  791MOL0     C 9055   2.060  -1.339   3.771  0.3538  0.5283 -0.1845
  791MOL0     O 9056   2.193  -1.370   3.742  0.0041 -0.5367  0.1841
  791MOL0     C 9057   2.275  -1.443   3.830  0.3130 -0.0296  0.6246
  791MOL0     C 9058   2.225  -1.585   3.861  0.7147 -0.5026 -0.1428
  791MOL0     C 9059   2.196  -1.664   3.729 -0.6515  1.1764 -0.2098
  791MOL0     C 9060   2.337  -1.701   3.664  0.4883 -0.6979 -0.7602
  791MOL0     C 9061   2.338  -1.813   3.566  0.5385  0.5494 -0.6140
  791MOL0     C 9062   2.256  -1.774   3.433 -0.1688  0.2743 -1.0874
  791MOL0     C 9063   2.296  -1.857   3.314 -0.5592 -0.1507 -0.3930
  791MOL0     C 9064   2.252  -1.798   3.177 -0.6378  0.1102  0.0682
  791MOL0    Cl 9065   2.069  -1.776   3.185 -0.5234 -0.1678 -0.5840
  791MOL0     C 9066   1.960  -1.341   3.673  0.4031  0.1258  0.1112
  791MOL0     C 9067   1.831  -1.317   3.689 -0.1012  0.0025  0.2680
  791MOL0     O 9068   1.546  -1.408   3.728  0.1077 -0.8939 -0.1808
  791MOL0     C 9069   1.382  -1.152   3.702 -0.0505  0.2169 -0.2850
  791MOL0     C 9070   1.259  -1.083   3.708  0.1883 -0.0235  0.1513
  791MOL0     N 9071   0.788  -0.566   3.897 -0.0525  0.3484  0.5690
  791MOL0     N 9072   0.846  -0.451   3.907 -0.0991  0.2764 -0.3845
  791MOL0     C 9073   1.527   0.362   4.003  0.8132  0.0593 -0.2356
  791MOL0     C 9074   1.550   0.488   4.056  0.3240  0.8717  0.6758
  791MOL0     C 9075   1.763   0.878   4.119  0.3531 -1.0138 -0.1131
  791MOL0     C 9076   1.904   0.907   4.142  0.5418 -1.1218 -0.0849
  791MOL0     C 9077   1.942   1.025   4.204 -0.5320  1.0683  0.3499
  791MOL0     C 9078   1.851   1.118   4.263  0.0068 -0.7732  0.7272
  791MOL0     O 9079   1.877   1.225   4.341  0.7653 -0.0193  0.4914
  791MOL0     C 9080   2.007   1.278   4.356 -0.5414  0.7905 -0.1580
  791MOL0     C 9081   2.000   1.425   4.350 -0.4306 -0.4061  0.4310
  791MOL0     C 9082   1.954   1.466   4.210  0.2165  0.0480  0.8397
  791MOL0     C 9083   1.987   1.608   4.171  0.0191 -0.0940  0.9402
  791MOL0     C 9084   1.931   1.630   4.043  0.0359  0.2084  0.0296
  791MOL0     C 9085   1.869   1.660   3.946 -0.4362  0.2864  0.3313
  791MOL0     C 9086   1.714   1.086   4.247 -0.3581 -0.6651  0.2072
  791MOL0     C 9087   1.670   0.971   4.176 -0.5700 -0.4127 -0.7709
  791MOL0     C 9088   1.520   0.941   4.188 -0.1448  0.1697  0.6936
  791MOL0     H 9089   1.498   0.654   3.770  1.5452 -1.7018 -0.4115
  791MOL0     H 9090   1.436   0.433   3.692 -0.9470 -0.8724  0.6671
  791MOL0     H 9091   1.467   0.060   3.974 -1.7656  0.3835 -0.3820
  791MOL0     H 9092   1.611   0.118   3.895 -0.0941 -0.0904 -1.3683
  791MOL0     H 9093   1.570  -0.008   3.703 -1.3329  2.8218 -0.5779
  791MOL0     H 9094   1.506  -0.116   3.831  1.1463 -1.9833 -2.1228
  791MOL0     H 9095   1.274  -0.001   3.801 -0.1776  3.0926 -1.1656
  791MOL0     H 9096   1.334   0.052   3.638 -0.8412  1.4965  0.5125
  791MOL0     H 9097   1.422  -0.187   3.610 -0.1195 -1.9125  0.6661
  791MOL0     H 9098   1.319  -0.236   3.743  2.6346  0.2747  0.1286
  791MOL0     H 9099   1.214  -0.280   3.530 -0.8192  0.4388 -0.3714
  791MOL0     H 9100   1.252  -0.116   3.486  2.6464  1.8943  1.6072
  791MOL0     H 9101   1.070  -0.082   3.706  1.7502  0.1477  1.6433
  791MOL0     H 9102   1.026  -0.105   3.541  1.5478 -1.7870 -0.1865
  791MOL0     H 9103   1.070  -0.363   3.695 -1.8014 -0.5437  0.9094
  791MOL0     H 9104   0.975  -0.328   3.552  4.3963  1.5395 -1.7460
  791MOL0     H 9105   0.926  -0.217   3.838  0.4463  0.3493  0.1906
  791MOL0     H 9106   0.811  -0.205   3.700  3.6255  2.5921 -5.0872
  791MOL0     H 9107   0.743  -0.448   3.601 -1.0365  5.6940  1.2748
  791MOL0     H 9108   0.629  -0.704   3.633  0.7540 -0.9639 -0.2561
  791MOL0     H 9109   0.636  -0.780   3.788 -2.1560 -0.5613 -2.2471
  791MOL0     H 9110   0.787  -0.898   3.629  1.7557 -1.6276  1.2701
  791MOL0     H 9111   0.880  -0.749   3.620  3.0577 -1.0496  2.0490
  791MOL0     H 9112   0.947  -0.773   3.855  0.2898 -1.2819  1.0915
  791MOL0     H 9113   0.839  -0.917   3.869 -0.9379 -2.5233 -3.7673
  791MOL0     H 9114   0.944  -1.042   3.717 -1.0435  0.3136  0.5044
  791MOL0     H 9115   1.059  -0.909   3.669  1.5536 -1.8589 -0.3309
  791MOL0     H 9116   1.209  -1.130   4.035  0.9795 -3.9652  0.3836
  791MOL0     H 9117   1.458  -1.372   4.045  0.2047 -0.1716 -1.5277
  791MOL0     H 9118   1.357  -1.277   4.143  0.8890  0.0774  0.8149
  791MOL0     H 9119   1.525  -1.226   4.085 -0.2297 -0.3649 -2.2586
  791MOL0     H 9120   1.847  -1.253   4.026 -0.9400  0.2919  1.3832
  791MOL0     H 9121   2.085  -1.300   3.983  0.6336  0.5804  0.9457
  791MOL0     H 9122   2.375  -1.445   3.787 -1.0976 -1.4309 -2.9686
  791MOL0     H 9123   2.273  -1.383   3.922 -0.1327  0.7827  0.1035
  791MOL0     H 9124   2.287  -1.645   3.928 -2.3361 -4.3490 -0.3840
  791MOL0     H 9125   2.129  -1.569   3.910 -0.1899 -0.0995 -1.9671
  791MOL0     H 9126   2.131  -1.602   3.667 -2.1326 -1.9589 -2.0669
  791MOL0     H 9127   2.145  -1.756   3.758  2.5521 -0.2862  1.3277
  791MOL0     H 9128   2.410  -1.716   3.744 -0.9753 -0.4393  0.6760
  791MOL0     H 9129   2.379  -1.610   3.620  1.4879 -0.4800  0.5693
  791MOL0     H 9130   2.438  -1.853   3.551  1.3230  1.2739  2.1235
  791MOL0     H 9131   2.282  -1.894   3.613 -0.2063  1.2172 -0.3240
  791MOL0     H 9132   2.280  -1.670   3.410  0.3830  0.6161  0.8910
  791MOL0     H 9133   2.147  -1.777   3.438 -0.3259  0.1847 -3.5308
  791MOL0     H 9134   2.247  -1.955   3.311  1.2929 -1.0978 -1.7093
  791MOL0     H 9135   2.402  -1.881   3.310 -0.8353 -1.3841 -3.9324
  791MOL0     H 9136   2.289  -1.851   3.089  1.4801 -3.5866  2.8987
  791MOL0     H 9137   2.293  -1.697   3.184 -1.7921  0.5376  1.3745
  791MOL0     H 9138   1.996  -1.373   3.576 -0.0415  2.2922 -0.8214
  791MOL0     H 9139   1.758  -1.323   3.608 -0.3828  2.4817  0.2518
  791MOL0     H 9140   1.446  -1.176   3.617  1.6404  1.4598  0.5695
  791MOL0     H 9141   1.227  -1.026   3.621  3.2995  0.6972 -0.6617
  791MOL0     H 9142   1.541   0.279   4.071  5.4846  0.6597 -0.1994
  791MOL0     H 9143   1.594   0.504   4.154  1.0928 -1.9030  0.8585
  791MOL0     H 9144   1.985   0.841   4.114 -0.8643 -2.2908 -1.6126
  791MOL0     H 9145   2.050   1.027   4.218 -0.4963  0.2629  0.2392
  791MOL0     H 9146   2.050   1.249   4.452 -0.2168  0.0472 -0.5195
  791MOL0     H 9147   2.063   1.255   4.265 -1.3507 -1.1462 -0.2212
  791MOL0     H 9148   2.096   1.471   4.373 -0.6119 -0.2288  0.8258
  791MOL0     H 9149   1.930   1.469   4.421 -2.8189  2.7088 -3.4271
  791MOL0     H 9150   2.008   1.410   4.134  2.8764  2.3597  0.8599
  791MOL0     H 9151   1.845   1.452   4.207  0.2748 -0.3310 -1.2311
  791MOL0     H 9152   2.094   1.628   4.163 -0.4929  2.5037 -0.7339
  791MOL0     H 9153   1.938   1.686   4.231 -0.3409  0.7860 -0.4548
  791MOL0     H 9154   1.822   1.680   3.852 -1.0820 -2.3415  0.0054
  791MOL0     H 9155   1.637   1.144   4.297  0.0294 -3.0705  4.0317
  791MOL0     H 9156   1.471   1.016   4.249  0.9571 -0.1203  1.9817
  791MOL0     H 9157   1.475   0.944   4.088  4.3042 -2.2711 -1.7164
  791MOL0     H 9158   1.506   0.847   4.243 -1.4147 -1.0005 -1.4830
  792MOL0     O 9159   6.513   6.566   2.486  0.3899  0.2919 -0.1005
  792MOL0     C 9160   6.457   6.588   2.590  0.1800 -0.7671 -0.1076
  792MOL0     O 9161   6.381   6.704   2.598 -0.3454  0.3219 -0.0583
  792MOL0     C 9162   6.380   6.788   2.491 -0.0124 -0.4812 -0.3936
  792MOL0     C 9163   6.459   6.901   2.491 -0.5710 -0.2221  0.3707
  792MOL0     C 9164   6.452   7.002   2.386  0.8862  0.1531  0.4795
  792MOL0     C 9165   6.373   6.973   2.274 -0.3916 -0.3498 -0.4111
  792MOL0     O 9166   6.374   7.065   2.173  0.7834  0.0397  0.0551
  792MOL0     C 9167   6.443   7.022   2.054 -0.4821 -0.7044 -0.2306
  792MOL0     C 9168   6.518   7.142   1.994  0.6581 -0.9745 -0.1835
  792MOL0     C 9169   6.437   7.252   1.934  0.1588 -0.7549  0.6876
  792MOL0     C 9170   6.360   7.216   1.798  0.0175  0.3404 -0.6140
  792MOL0     C 9171   6.291   7.340   1.739  0.4238 -0.6735 -0.5763
  792MOL0     C 9172   6.251   7.317   1.593 -0.8673  0.7535 -0.3395
  792MOL0     C 9173   6.181   7.429   1.527 -0.4012  0.1949  0.0491
  792MOL0     C 9174   6.137   7.386   1.385  0.0807 -1.0735 -0.6644
  792MOL0     N 9175   6.105   7.522   1.321  0.0582 -0.7938  0.1271
  792MOL0     C 9176   6.196   7.608   1.255 -0.5762 -0.0505  0.2901
  792MOL0     C 9177   6.132   7.721   1.228 -0.1205  0.0156  0.5246
  792MOL0     C 9178   6.198   7.840   1.170 -0.5073 -0.0660  0.3108
  792MOL0     C 9179   6.271   7.941   1.266 -0.5837  0.3733  0.8334
  792MOL0     C 9180   6.191   7.998   1.382  0.0935 -0.1090  1.2866
  792MOL0     C 9181   6.057   8.063   1.330  0.2689  0.4577 -0.3992
  792MOL0     O 9182   6.007   8.147   1.427 -0.3966 -0.3010 -0.8147
  792MOL0     C 9183   5.930   8.100   1.527 -0.2722 -0.2093  0.1645
  792MOL0     C 9184   5.909   8.182   1.635  0.3330  0.8113 -0.2396
  792MOL0     C 9185   5.838   8.139   1.751  0.4803  0.6431 -0.4911
  792MOL0     C 9186   5.819   8.231   1.865  0.1201 -0.1764  0.5425
  792MOL0     C 9187   5.772   8.011   1.754  0.0005 -0.2479  0.6869
  792MOL0     C 9188   5.700   7.960   1.864  0.3710  0.0029  0.4095
  792MOL0     O 9189   5.729   7.999   1.997 -0.1151 -0.2878 -0.3131
  792MOL0     C 9190   5.617   7.986   2.077  0.1729 -0.2715 -0.5945
  792MOL0     C 9191   5.595   7.869   2.158  0.9565 -0.2502  0.8909
  792MOL0     C 9192   5.477   7.857   2.232 -0.3231  0.6329  0.2109
  792MOL0     C 9193   5.375   7.951   2.217  0.8920 -0.1875 -0.7660
  792MOL0     O 9194   5.259   7.949   2.290  0.2396 -0.4500 -0.1730
  792MOL0     C 9195   5.254   7.894   2.423  0.2735 -0.2682  0.8529
  792MOL0     C 9196   5.116   7.908   2.485 -0.4028  0.1421  0.6171
  792MOL0     C 9197   5.107   7.870   2.635  0.3700 -1.0779 -0.6139
  792MOL0     C 9198   4.962   7.908   2.688 -0.5070 -0.1894 -0.0663
  792MOL0     C 9199   4.957   7.858   2.836  0.4925  0.1599  0.0955
  792MOL0     C 9200   4.814   7.866   2.893 -0.0744 -0.0519  0.5818
  792MOL0     C 9201   4.796   7.793   3.028 -0.6157 -0.1199 -0.1662
  792MOL0     C 9202   4.663   7.833   3.092 -0.0993 -0.6795  0.2188
  792MOL0    Cl 9203   4.532   7.773   2.985 -0.2654 -0.2117  0.2361
  792MOL0     C 9204   5.391   8.063   2.136 -0.0330  0.2183 -0.5478
  792MOL0     C 9205   5.511   8.076   2.069  0.1537  0.3994  0.8946
  792MOL0     O 9206   5.589   7.905   1.832 -0.2046  0.5105  0.0600
  792MOL0     C 9207   5.798   7.923   1.649  0.5932  0.1062  0.2540
  792MOL0     C 9208   5.872   7.964   1.534  0.6607 -0.3982 -0.4690
  792MOL0     N 9209   6.001   7.708   1.267 -0.7240 -0.0080 -0.6628
  792MOL0     N 9210   5.986   7.584   1.326  0.8548 -0.5596  0.3080
  792MOL0     C 9211   6.294   6.853   2.268  0.7662  0.7260 -0.6501
  792MOL0     C 9212   6.301   6.764   2.374 -0.1280 -0.4345 -0.3153
  792MOL0     C 9213   6.481   6.515   2.718 -0.9499 -0.5585 -0.2552
  792MOL0     C 9214   6.439   6.564   2.846  0.7583  0.7470  0.6675
  792MOL0     C 9215   6.466   6.492   2.964 -0.1146  1.3618 -0.1980
  792MOL0     C 9216   6.541   6.374   2.969  0.3528  0.5294  0.2427
  792MOL0     O 9217   6.574   6.321   3.088 -0.9434  0.4706 -0.2145
  792MOL0     C 9218   6.647   6.200   3.112  0.1989  0.2142 -0.1952
  792MOL0     C 9219   6.790   6.209   3.135 -0.3632 -0.3964  0.5809
  792MOL0     C 9220   6.837   6.341   3.219  0.6415  0.1487  0.9656
  792MOL0     C 9221   6.964   6.407   3.153  0.0645  1.4490 -0.1997
  792MOL0     C 9222   6.999   6.538   3.200 -0.1185  0.4076 -0.2458
  792MOL0     C 9223   7.043   6.644   3.229  0.0776  0.1248  0.8976
  792MOL0     C 9224   6.578   6.316   2.849 -0.1550  1.0361  0.1328
  792MOL0     C 9225   6.556   6.387   2.728 -0.0196  0.6427  0.2209
  792MOL0     C 9226   6.631   6.320   2.612  0.0795  1.3134  0.7109
  792MOL0     H 9227   6.536   6.919   2.564 -0.1833 -2.1203  0.4892
  792MOL0     H 9228   6.509   7.093   2.371 -2.4230  2.1852 -0.8329
  792MOL0     H 9229   6.385   6.960   1.986 -0.6578  0.6835 -1.3996
  792MOL0     H 9230   6.531   6.963   2.083  0.5569  0.7062 -0.3722
  792MOL0     H 9231   6.568   7.197   2.074 -0.7798  1.2944 -0.7475
  792MOL0     H 9232   6.592   7.105   1.923  0.5283  1.5552 -1.7806
  792MOL0     H 9233   6.365   7.280   2.012 -0.7842 -0.0945 -0.3917
  792MOL0     H 9234   6.496   7.341   1.911  2.1703 -2.2590 -0.3407
  792MOL0     H 9235   6.440   7.193   1.728 -0.8396  1.5421 -2.0500
  792MOL0     H 9236   6.293   7.130   1.811 -1.0357  1.3136  0.7342
  792MOL0     H 9237   6.364   7.421   1.737  0.4999 -0.6888  0.5779
  792MOL0     H 9238   6.207   7.365   1.804 -0.5648 -2.7048 -0.9627
  792MOL0     H 9239   6.347   7.291   1.548 -0.4545  3.1409 -0.9790
  792MOL0     H 9240   6.185   7.229   1.595 -2.0689  1.6010 -1.1684
  792MOL0     H 9241   6.249   7.514   1.534 -0.1246 -0.1802  3.4946
  792MOL0     H 9242   6.096   7.448   1.594 -0.7983 -1.7415  0.1519
  792MOL0     H 9243   6.229   7.350   1.339  1.8602  1.1063  0.9717
  792MOL0     H 9244   6.055   7.313   1.395 -0.3163 -0.3098  3.4294
  792MOL0     H 9245   6.303   7.595   1.252 -0.2737  1.9775  0.6924
  792MOL0     H 9246   6.117   7.886   1.113 -3.4331 -1.5914  2.9277
  792MOL0     H 9247   6.284   7.812   1.108 -0.3249  2.4058 -0.6873
  792MOL0     H 9248   6.350   7.879   1.310  1.9628  3.3300  0.7764
  792MOL0     H 9249   6.315   8.019   1.203  0.3336  1.5911  2.8682
  792MOL0     H 9250   6.160   7.925   1.457 -3.2899 -1.0777 -0.8174
  792MOL0     H 9251   6.250   8.082   1.420  0.4188  0.7611 -0.9779
  792MOL0     H 9252   6.082   8.124   1.242 -2.1456  1.7568 -0.2857
  792MOL0     H 9253   5.975   7.993   1.310 -0.7790  0.4968  3.1823
  792MOL0     H 9254   5.947   8.281   1.614  4.1880 -0.5782 -0.8330
  792MOL0     H 9255   5.858   8.197   1.961  0.7800  1.6746  0.9843
  792MOL0     H 9256   5.716   8.257   1.892  0.2177  1.8052 -0.7499
  792MOL0     H 9257   5.873   8.324   1.844  0.2929 -0.6425 -1.1999
  792MOL0     H 9258   5.665   7.787   2.165  0.3151 -0.9731 -0.6484
  792MOL0     H 9259   5.486   7.777   2.305 -1.6713 -2.6700 -2.9199
  792MOL0     H 9260   5.281   7.788   2.422  0.1971 -0.2958 -0.6278
  792MOL0     H 9261   5.318   7.949   2.493  0.5105  1.2559 -0.4937
  792MOL0     H 9262   5.089   8.014   2.477 -1.7595 -0.2747 -0.8396
  792MOL0     H 9263   5.044   7.859   2.418  0.4609  2.0634 -1.8791
  792MOL0     H 9264   5.180   7.922   2.698  0.6671 -3.8253  1.5300
  792MOL0     H 9265   5.133   7.764   2.645  0.1537 -1.3720 -2.7182
  792MOL0     H 9266   4.878   7.865   2.633 -1.8234  1.8911  0.1992
  792MOL0     H 9267   4.954   8.017   2.685  1.1105 -0.0113  0.8561
  792MOL0     H 9268   4.980   7.751   2.827 -2.0868 -0.4983  0.6335
  792MOL0     H 9269   5.034   7.909   2.894 -1.2964  2.0569  0.9069
  792MOL0     H 9270   4.738   7.827   2.825 -2.7709  2.5816  1.9101
  792MOL0     H 9271   4.786   7.970   2.908  0.7951  0.3688 -0.5411
  792MOL0     H 9272   4.867   7.831   3.103  0.1611 -1.8230  0.0224
  792MOL0     H 9273   4.812   7.686   3.009  3.9695  0.1167  1.1745
  792MOL0     H 9274   4.637   7.938   3.105 -1.3062 -0.7789 -1.1367
  792MOL0     H 9275   4.649   7.799   3.195  0.9860  1.5802  1.1820
  792MOL0     H 9276   5.306   8.127   2.116 -1.2928 -2.1092 -3.3336
  792MOL0     H 9277   5.536   8.162   2.008 -1.2629  0.7959  0.8196
  792MOL0     H 9278   5.759   7.821   1.647  0.3388  0.1946  0.5719
  792MOL0     H 9279   5.884   7.889   1.456  3.3712 -2.5730  1.8356
  792MOL0     H 9280   6.226   6.844   2.184 -2.5292  2.4914  1.6142
  792MOL0     H 9281   6.254   6.666   2.375  0.3550 -0.6688  1.1684
  792MOL0     H 9282   6.364   6.642   2.854 -2.3986 -1.6066 -2.4374
  792MOL0     H 9283   6.434   6.534   3.059 -0.1577  2.1765 -0.5623
  792MOL0     H 9284   6.619   6.160   3.210 -0.1361  1.7529  0.3730
  792MOL0     H 9285   6.628   6.130   3.031 -2.6281 -1.6589  1.8751
  792MOL0     H 9286   6.833   6.216   3.035 -0.1406  1.5322  0.7734
  792MOL0     H 9287   6.827   6.121   3.188 -2.9495 -0.7338  1.9932
  792MOL0     H 9288   6.756   6.412   3.239  2.5308  2.4583  0.8921
  792MOL0     H 9289   6.864   6.298   3.315 -1.4205  1.4637  2.2113
  792MOL0     H 9290   6.961   6.403   3.043  3.7875 -3.9311 -0.4810
  792MOL0     H 9291   7.040   6.333   3.179 -1.3572  0.8502  2.6794
  792MOL0     H 9292   7.091   6.736   3.256 -0.4086  0.4442  0.6942
  792MOL0     H 9293   6.623   6.217   2.840 -0.9212  0.4584  2.2315
  792MOL0     H 9294   6.688   6.229   2.631 -0.7194 -0.0486 -2.6791
  792MOL0     H 9295   6.563   6.282   2.535  1.2906  0.4556  0.0244
  792MOL0     H 9296   6.705   6.390   2.572  2.6998 -0.5848  1.8915
  793MOL0     O 9297   7.779   2.794   0.760 -0.8471  0.1176 -0.9455
  793MOL0     C 9298   7.665   2.745   0.766 -0.3817  0.7053  0.0146
  793MOL0     O 9299   7.557   2.818   0.785 -0.2818 -0.6064 -0.2874
  793MOL0     C 9300   7.556   2.951   0.843 -0.3680  0.3582  1.3808
  793MOL0     C 9301   7.460   2.971   0.941  0.4672 -0.7223 -0.7942
  793MOL0     C 9302   7.460   3.086   1.026 -0.4729  0.6802  1.1875
  793MOL0     C 9303   7.562   3.181   0.999  0.3146 -0.2528  0.3804
  793MOL0     O 9304   7.575   3.290   1.077  0.2305  0.3173 -0.0101
  793MOL0     C 9305   7.601   3.413   1.001  0.5618 -0.2533  0.0420
  793MOL0     C 9306   7.694   3.493   1.090  0.3807 -0.1609 -0.0353
  793MOL0     C 9307   7.832   3.503   1.022  0.0995 -0.2876  0.9238
  793MOL0     C 9308   7.928   3.623   1.081  0.6812  0.3837  0.5274
  793MOL0     C 9309   8.049   3.640   1.005 -0.1735 -0.4407 -0.0234
  793MOL0     C 9310   8.155   3.734   1.062 -0.3074  1.1333  0.1319
  793MOL0     C 9311   8.279   3.737   0.961 -0.3896  0.6400 -0.4862
  793MOL0     C 9312   8.282   3.863   0.869  0.2614  0.2027  0.1938
  793MOL0     N 9313   8.175   3.851   0.772 -0.1047  0.3500  0.6913
  793MOL0     C 9314   8.057   3.923   0.762 -0.7930 -0.1204 -0.2384
  793MOL0     C 9315   7.985   3.867   0.660  1.8481 -0.0855 -0.5459
  793MOL0     C 9316   7.843   3.919   0.621 -0.3875  0.6689  0.0541
  793MOL0     C 9317   7.747   3.910   0.746  0.1249  0.4929  0.0394
  793MOL0     C 9318   7.734   3.770   0.802  0.1009 -0.7117 -0.5831
  793MOL0     C 9319   7.715   3.658   0.699  0.4528 -0.4593 -0.7446
  793MOL0     O 9320   7.592   3.663   0.633 -0.8017 -0.6275 -0.1697
  793MOL0     C 9321   7.498   3.571   0.669 -0.3030 -0.3379  0.1017
  793MOL0     C 9322   7.398   3.601   0.752 -0.1608 -0.6948  0.6760
  793MOL0     C 9323   7.306   3.509   0.792  0.5303  0.0455 -0.7962
  793MOL0     C 9324   7.202   3.575   0.875  0.0781 -0.4151 -0.6628
  793MOL0     C 9325   7.312   3.373   0.749  0.8646 -0.4875  0.0154
  793MOL0     C 9326   7.232   3.259   0.800  0.2681 -1.1027  0.5773
  793MOL0     O 9327   7.250   3.145   0.728 -0.5717  0.0100  0.3508
  793MOL0     C 9328   7.154   3.044   0.727  0.4186 -0.2068 -0.7025
  793MOL0     C 9329   7.018   3.063   0.749  0.3767  0.4097  0.6466
  793MOL0     C 9330   6.931   2.963   0.704 -0.1219  0.2108  0.1607
  793MOL0     C 9331   6.980   2.852   0.628  0.6001 -0.4290  0.4023
  793MOL0     O 9332   6.896   2.754   0.579  0.5893 -0.5809 -0.4622
  793MOL0     C 9333   6.792   2.796   0.489  0.3522  0.7442  0.6573
  793MOL0     C 9334   6.818   2.903   0.387  0.3299 -1.2521  0.8636
  793MOL0     C 9335   6.902   2.847   0.265  0.6712  0.1685 -0.4715
  793MOL0     C 9336   6.931   2.966   0.174 -0.5819 -0.7172 -0.1248
  793MOL0     C 9337   6.984   2.922   0.037  0.0306  0.3919 -0.3320
  793MOL0     C 9338   6.969   3.019  -0.068 -0.7795  0.0716  0.7116
  793MOL0     C 9339   6.833   3.005  -0.123  0.0220 -0.0855  0.4378
  793MOL0     C 9340   6.813   3.090  -0.248  0.2232 -0.1859 -0.5022
  793MOL0    Cl 9341   6.889   3.018  -0.402  0.0691 -0.1540  0.1148
  793MOL0     C 9342   7.115   2.833   0.624  0.4676  0.0202 -0.2471
  793MOL0     C 9343   7.201   2.934   0.670  0.0318  0.5990  0.2695
  793MOL0     O 9344   7.154   3.268   0.895  0.4647 -0.3986  0.2772
  793MOL0     C 9345   7.423   3.343   0.677  0.0534  0.7977  0.2527
  793MOL0     C 9346   7.508   3.437   0.625 -1.2494 -0.7992 -0.1993
  793MOL0     N 9347   8.048   3.754   0.625  0.4005 -0.0845 -0.1398
  793MOL0     N 9348   8.156   3.739   0.694 -0.1264  0.6841  0.0741
  793MOL0     C 9349   7.647   3.163   0.890  0.2305  0.1257 -0.3084
  793MOL0     C 9350   7.643   3.049   0.810 -0.2754 -0.7895 -0.3172
  793MOL0     C 9351   7.655   2.594   0.769 -0.3855 -0.2968  0.1640
  793MOL0     C 9352   7.526   2.546   0.741 -0.3349  0.2662  0.3192
  793MOL0     C 9353   7.507   2.409   0.741  0.2415 -1.1485 -0.1661
  793MOL0     C 9354   7.602   2.323   0.784  0.1205  0.8511 -0.7572
  793MOL0     O 9355   7.560   2.192   0.794 -0.0363 -0.1894 -0.1401
  793MOL0     C 9356   7.517   2.149   0.925 -0.7986 -0.7964 -0.0319
  793MOL0     C 9357   7.640   2.113   1.008  0.3175  0.1609  0.1217
  793MOL0     C 9358   7.744   2.025   0.935 -0.2382 -0.7958  0.1141
  793MOL0     C 9359   7.870   2.005   1.011 -0.3059  0.2436  0.1857
  793MOL0     C 9360   7.951   2.126   1.047 -0.3785  0.4375 -0.0074
  793MOL0     C 9361   8.017   2.229   1.060  1.0700 -0.4365  0.8785
  793MOL0     C 9362   7.735   2.366   0.801 -0.3741  0.7336  0.5755
  793MOL0     C 9363   7.759   2.502   0.793  0.1638  0.4686  1.0313
  793MOL0     C 9364   7.889   2.550   0.839 -0.4996  0.1538  0.2554
  793MOL0     H 9365   7.378   2.903   0.959 -2.2814  2.4426 -0.4305
  793MOL0     H 9366   7.376   3.109   1.092 -2.1610 -0.5357 -0.4334
  793MOL0     H 9367   7.504   3.465   0.996 -0.6505 -1.8701  3.7003
  793MOL0     H 9368   7.632   3.421   0.896 -3.1133  3.9207 -1.0427
  793MOL0     H 9369   7.647   3.591   1.099  0.4417 -0.3150  3.5798
  793MOL0     H 9370   7.693   3.456   1.193 -0.6860 -0.1735 -0.0373
  793MOL0     H 9371   7.884   3.410   1.048  0.3357  0.7639  4.9061
  793MOL0     H 9372   7.837   3.516   0.914  1.5080  1.6394  1.1478
  793MOL0     H 9373   7.877   3.719   1.087  0.4482  0.5950 -2.7697
  793MOL0     H 9374   7.954   3.606   1.185  1.3372  2.0850  0.6613
  793MOL0     H 9375   8.025   3.688   0.909  1.6150  1.1825  0.2797
  793MOL0     H 9376   8.092   3.540   0.998  0.9114 -0.1156  1.5052
  793MOL0     H 9377   8.115   3.831   1.094  1.5214  1.1177  2.7481
  793MOL0     H 9378   8.180   3.686   1.157 -1.2640  1.6940  0.6888
  793MOL0     H 9379   8.276   3.646   0.899 -2.3867  1.6097 -1.9254
  793MOL0     H 9380   8.373   3.739   1.016  0.3122 -1.2269 -1.5083
  793MOL0     H 9381   8.273   3.957   0.925 -1.2599  0.8276 -1.0269
  793MOL0     H 9382   8.384   3.863   0.828  0.3719  3.6890  0.1722
  793MOL0     H 9383   8.030   4.000   0.834  1.7716  2.4274 -1.7989
  793MOL0     H 9384   7.813   3.854   0.539 -0.7355  1.8362 -0.7613
  793MOL0     H 9385   7.842   4.020   0.581 -0.9365  0.1943 -1.1528
  793MOL0     H 9386   7.774   3.981   0.824 -1.7324 -0.0073  1.1924
  793MOL0     H 9387   7.650   3.943   0.709 -1.5739 -3.4119  0.4950
  793MOL0     H 9388   7.823   3.743   0.858  2.0925  1.3482 -2.5742
  793MOL0     H 9389   7.646   3.760   0.867 -0.9048 -0.1370 -1.7963
  793MOL0     H 9390   7.796   3.654   0.627  1.8261 -2.0202  0.7964
  793MOL0     H 9391   7.725   3.564   0.753  0.8354 -0.7324 -1.2897
  793MOL0     H 9392   7.392   3.700   0.796 -0.4142 -0.4408  0.0897
  793MOL0     H 9393   7.252   3.641   0.946  0.2982  0.4544 -1.6119
  793MOL0     H 9394   7.150   3.502   0.939  0.4618 -3.0710 -3.1778
  793MOL0     H 9395   7.127   3.633   0.820 -2.0071 -3.0792 -0.8963
  793MOL0     H 9396   6.969   3.150   0.791 -3.2354 -1.6972  1.1886
  793MOL0     H 9397   6.826   2.983   0.727  0.0562  1.6609 -0.2478
  793MOL0     H 9398   6.752   2.704   0.446 -0.0112  1.4246 -0.5022
  793MOL0     H 9399   6.716   2.836   0.557 -0.1857 -0.0288  0.5173
  793MOL0     H 9400   6.722   2.933   0.345  1.8012  0.3916 -1.5429
  793MOL0     H 9401   6.867   2.987   0.438  0.1169  0.0685 -1.0191
  793MOL0     H 9402   6.848   2.767   0.213  3.0482  0.0891 -3.0330
  793MOL0     H 9403   6.991   2.794   0.301 -1.9123 -3.0381  1.8518
  793MOL0     H 9404   7.010   3.028   0.218 -0.7577  0.8407 -1.8939
  793MOL0     H 9405   6.839   3.025   0.169 -0.8009 -1.0847 -0.4498
  793MOL0     H 9406   7.090   2.902   0.053  0.3412  1.2445 -1.1935
  793MOL0     H 9407   6.952   2.823   0.005  0.4529 -0.1323  0.8229
  793MOL0     H 9408   7.038   2.988  -0.147  0.4609  1.8667  1.0386
  793MOL0     H 9409   6.998   3.119  -0.036 -3.6086  0.7293  1.5542
  793MOL0     H 9410   6.762   3.036  -0.047  0.3439  2.1711 -0.0987
  793MOL0     H 9411   6.817   2.899  -0.143  1.5723 -0.2296 -0.1722
  793MOL0     H 9412   6.868   3.184  -0.233  3.6454 -1.4412 -3.7833
  793MOL0     H 9413   6.708   3.110  -0.270  0.9521  3.5962 -1.4116
  793MOL0     H 9414   7.150   2.741   0.577 -0.3036 -0.1612 -0.4919
  793MOL0     H 9415   7.309   2.922   0.662 -0.4162 -3.3807 -3.4246
  793MOL0     H 9416   7.444   3.242   0.641  1.7404  1.6585 -1.3043
  793MOL0     H 9417   7.591   3.392   0.572  1.7155 -1.8763  4.7292
  793MOL0     H 9418   7.726   3.228   0.853  1.5427 -3.2759 -4.2304
  793MOL0     H 9419   7.721   3.032   0.736  3.0339  1.1354  2.3990
  793MOL0     H 9420   7.440   2.609   0.722 -1.7639 -2.1568 -1.9796
  793MOL0     H 9421   7.416   2.362   0.706 -1.2547  1.2054  0.3573
  793MOL0     H 9422   7.478   2.234   0.982  1.2533 -1.4982  2.6209
  793MOL0     H 9423   7.458   2.058   0.913  0.6720 -2.1213  2.0784
  793MOL0     H 9424   7.605   2.061   1.098  0.6615  0.3953  0.3959
  793MOL0     H 9425   7.685   2.207   1.042 -0.0813  0.2178  0.5027
  793MOL0     H 9426   7.698   1.928   0.911  0.9059 -1.2810 -0.1811
  793MOL0     H 9427   7.776   2.065   0.839  0.5047  4.0184  2.1088
  793MOL0     H 9428   7.938   1.944   0.950  0.1789  2.4298 -1.5822
  793MOL0     H 9429   7.862   1.945   1.102  1.4286 -4.1113 -2.2259
  793MOL0     H 9430   8.068   2.323   1.060 -0.7930  0.7123 -1.6602
  793MOL0     H 9431   7.801   2.289   0.839 -0.5294 -0.2074 -0.9744
  793MOL0     H 9432   7.950   2.462   0.862 -0.7308 -0.4685 -1.3711
  793MOL0     H 9433   7.946   2.608   0.766  2.7562 -1.0372  1.6576
  793MOL0     H 9434   7.884   2.614   0.927 -1.7035  2.0463 -1.0914
  794MOL0     O 9435   4.430   1.884   5.475 -0.9015 -0.1608 -0.2277
  794MOL0     C 9436   4.445   1.815   5.574 -0.5854 -0.1136 -0.3645
  794MOL0     O 9437   4.360   1.711   5.610  0.7075  0.3464 -0.8657
  794MOL0     C 9438   4.271   1.648   5.523 -0.2307  0.3854 -0.0872
  794MOL0     C 9439   4.297   1.514   5.471  0.7529 -0.0026  0.1451
  794MOL0     C 9440   4.215   1.448   5.383 -0.2344 -0.8634 -0.3730
  794MOL0     C 9441   4.091   1.517   5.349 -0.5092  0.0472 -0.1529
  794MOL0     O 9442   4.008   1.464   5.258  0.4164 -0.5769 -0.0261
  794MOL0     C 9443   3.950   1.557   5.160 -0.9591 -0.4830  0.0645
  794MOL0     C 9444   3.910   1.466   5.046 -0.0745  0.3749  0.8404
  794MOL0     C 9445   3.860   1.539   4.917 -0.6664  0.3308 -0.2130
  794MOL0     C 9446   3.718   1.591   4.946  0.4602 -0.2865 -0.1851
  794MOL0     C 9447   3.652   1.664   4.830 -1.5666  0.3747  0.2883
  794MOL0     C 9448   3.660   1.587   4.694 -0.5475 -0.1485  0.3302
  794MOL0     C 9449   3.601   1.656   4.583  0.7495 -0.5897  0.7463
  794MOL0     C 9450   3.665   1.795   4.551  0.8907  0.9221 -0.3178
  794MOL0     N 9451   3.803   1.795   4.520 -0.1832 -0.4820 -0.4984
  794MOL0     C 9452   3.887   1.694   4.484 -0.9389  0.8454  0.4264
  794MOL0     C 9453   4.015   1.735   4.472  0.3028 -0.4017 -1.1386
  794MOL0     C 9454   4.132   1.662   4.424 -0.3537 -0.6363  0.7581
  794MOL0     C 9455   4.182   1.571   4.530  0.3017 -0.2962 -0.1697
  794MOL0     C 9456   4.286   1.478   4.467 -0.6579 -0.7803  0.0381
  794MOL0     C 9457   4.372   1.410   4.574 -1.0295  0.0553  0.2862
  794MOL0     O 9458   4.463   1.511   4.627 -0.6586  0.4667 -0.0491
  794MOL0     C 9459   4.568   1.561   4.561 -0.8134  0.7470 -0.1301
  794MOL0     C 9460   4.645   1.484   4.475 -1.3706  0.2971  0.7905
  794MOL0     C 9461   4.770   1.531   4.424 -0.1208 -0.1613 -0.3277
  794MOL0     C 9462   4.868   1.440   4.355 -0.4937 -0.0424  0.3636
  794MOL0     C 9463   4.815   1.656   4.471 -0.6372  1.5076 -0.3228
  794MOL0     C 9464   4.951   1.722   4.443 -0.4382  0.4576  0.0988
  794MOL0     O 9465   5.017   1.789   4.542 -0.0217  0.2040 -0.4423
  794MOL0     C 9466   5.116   1.879   4.505  0.8610  0.5081 -0.3142
  794MOL0     C 9467   5.221   1.866   4.606  1.2443  0.1144  0.1677
  794MOL0     C 9468   5.332   1.951   4.601 -0.3000 -0.3122 -0.5621
  794MOL0     C 9469   5.340   2.050   4.510  0.0125  0.2558 -0.3261
  794MOL0     O 9470   5.445   2.131   4.523  0.8854  0.1633  1.1727
  794MOL0     C 9471   5.436   2.250   4.436  0.2089  0.6832  0.0121
  794MOL0     C 9472   5.493   2.235   4.295 -0.2647  0.2592 -0.4195
  794MOL0     C 9473   5.456   2.367   4.223 -0.4599 -0.7530 -0.1144
  794MOL0     C 9474   5.337   2.369   4.133 -0.5224 -0.2211 -0.0314
  794MOL0     C 9475   5.308   2.514   4.079 -0.2497  0.0781  0.5664
  794MOL0     C 9476   5.194   2.492   3.969  0.1391 -0.2911 -0.2768
  794MOL0     C 9477   5.140   2.628   3.917 -0.0883 -0.4719 -0.0422
  794MOL0     C 9478   5.209   2.701   3.804 -0.4448 -0.2134  0.1701
  794MOL0    Cl 9479   5.125   2.870   3.792 -0.1972  0.1332  0.0554
  794MOL0     C 9480   5.240   2.061   4.410  0.4966 -0.0490 -0.4317
  794MOL0     C 9481   5.128   1.972   4.402  0.2610  0.3048  0.9338
  794MOL0     O 9482   4.999   1.711   4.333 -0.7789  0.3517  0.4532
  794MOL0     C 9483   4.737   1.736   4.549  0.6044  0.9341 -0.6788
  794MOL0     C 9484   4.618   1.683   4.599 -0.2487  0.1991  0.0420
  794MOL0     N 9485   4.006   1.868   4.523 -0.2066  0.7158 -0.0623
  794MOL0     N 9486   3.881   1.904   4.533  0.2623  0.1370  0.0943
  794MOL0     C 9487   4.058   1.639   5.404 -0.0628 -0.1902  0.6272
  794MOL0     C 9488   4.149   1.701   5.499  0.5497  0.8276  0.4222
  794MOL0     C 9489   4.546   1.872   5.673  0.0530  0.2840  0.5397
  794MOL0     C 9490   4.621   1.997   5.635 -0.5627  0.0813  0.8990
  794MOL0     C 9491   4.691   2.076   5.733  0.4250  0.1749 -0.1352
  794MOL0     C 9492   4.724   2.017   5.855  0.3242 -1.1478 -0.3035
  794MOL0     O 9493   4.806   2.085   5.939  0.1365 -0.3815 -0.9287
  794MOL0     C 9494   4.926   2.011   5.966  0.1499  0.8014 -0.1116
  794MOL0     C 9495   5.028   2.084   6.059 -0.7011 -0.7426  0.3279
  794MOL0     C 9496   5.098   2.213   5.990 -0.3593 -0.7725 -0.1455
  794MOL0     C 9497   5.181   2.284   6.096  0.3585 -0.1461 -0.0417
  794MOL0     C 9498   5.306   2.211   6.126  0.7506 -0.1318  0.1570
  794MOL0     C 9499   5.403   2.144   6.163 -0.1453 -0.3398 -0.0096
  794MOL0     C 9500   4.649   1.907   5.889  0.2463  0.4979  0.6855
  794MOL0     C 9501   4.567   1.828   5.805  0.3494 -0.8723 -0.2165
  794MOL0     C 9502   4.493   1.708   5.867 -0.4188  0.0594 -1.4814
  794MOL0     H 9503   4.383   1.459   5.506  1.3543  0.0354 -1.2280
  794MOL0     H 9504   4.242   1.349   5.348  1.0351 -0.7626  0.2629
  794MOL0     H 9505   4.024   1.631   5.128 -2.2644  2.2981  2.9327
  794MOL0     H 9506   3.869   1.624   5.191  1.5586  2.9198 -0.1010
  794MOL0     H 9507   3.992   1.397   5.025 -0.4902  0.0072  0.4103
  794MOL0     H 9508   3.838   1.393   5.084 -0.0179 -0.4019 -0.4720
  794MOL0     H 9509   3.931   1.615   4.884  0.4261 -0.9679 -0.9726
  794MOL0     H 9510   3.864   1.453   4.849 -2.3507 -1.0988  1.3829
  794MOL0     H 9511   3.649   1.510   4.967 -1.5621  0.8763 -1.9062
  794MOL0     H 9512   3.717   1.666   5.025  2.7224  2.7641 -2.7865
  794MOL0     H 9513   3.710   1.757   4.829 -1.7838  0.5922  2.5232
  794MOL0     H 9514   3.548   1.693   4.851 -2.6003 -2.1495 -0.9495
  794MOL0     H 9515   3.765   1.569   4.671 -0.1368  1.5212  0.7957
  794MOL0     H 9516   3.602   1.495   4.711 -0.7389 -0.0703  0.1072
  794MOL0     H 9517   3.493   1.667   4.594  0.8270 -0.3087  1.2596
  794MOL0     H 9518   3.616   1.588   4.499 -0.9316 -2.5257  1.8988
  794MOL0     H 9519   3.620   1.833   4.460  2.1948 -0.5263 -1.6404
  794MOL0     H 9520   3.647   1.864   4.634  2.0256  0.4527  0.3616
  794MOL0     H 9521   3.852   1.592   4.475 -1.3007  1.0579 -0.7051
  794MOL0     H 9522   4.207   1.731   4.386  0.5774 -0.2588  3.1148
  794MOL0     H 9523   4.106   1.594   4.341  0.6989 -2.7285  2.0441
  794MOL0     H 9524   4.234   1.632   4.605  1.1047 -1.8643  0.6036
  794MOL0     H 9525   4.101   1.510   4.572  0.5904 -0.2344  0.4989
  794MOL0     H 9526   4.240   1.399   4.407  1.6863 -1.4814 -0.9327
  794MOL0     H 9527   4.347   1.532   4.395  0.0624  0.6347  1.6345
  794MOL0     H 9528   4.322   1.354   4.653  0.2941  0.6467  1.5955
  794MOL0     H 9529   4.435   1.331   4.533 -1.0116  0.3059 -0.1779
  794MOL0     H 9530   4.620   1.383   4.444 -1.3859  1.7464 -5.0634
  794MOL0     H 9531   4.894   1.469   4.253 -1.3262  1.0122  0.4354
  794MOL0     H 9532   4.837   1.335   4.356  2.6964 -1.0802  0.3382
  794MOL0     H 9533   4.965   1.456   4.403  0.5980 -0.3223 -1.6787
  794MOL0     H 9534   5.206   1.795   4.687 -0.6878  0.4933  0.1903
  794MOL0     H 9535   5.420   1.952   4.665  0.2901 -0.0067 -1.3611
  794MOL0     H 9536   5.334   2.288   4.433 -1.2261 -2.7371 -3.3934
  794MOL0     H 9537   5.493   2.329   4.485 -2.0813  1.2865  1.9016
  794MOL0     H 9538   5.601   2.240   4.312 -0.5889  1.8324  1.5685
  794MOL0     H 9539   5.471   2.144   4.238 -0.0112  0.0228 -0.1449
  794MOL0     H 9540   5.541   2.399   4.162 -0.6254 -2.1250 -1.1024
  794MOL0     H 9541   5.447   2.450   4.294  1.1992  2.1147 -2.9822
  794MOL0     H 9542   5.250   2.346   4.196 -1.0539  1.1019 -0.2553
  794MOL0     H 9543   5.343   2.294   4.054 -1.5411 -0.6289  0.2489
  794MOL0     H 9544   5.270   2.576   4.160  1.2026  2.8823 -0.7689
  794MOL0     H 9545   5.392   2.567   4.033 -0.1066  0.0550  0.8017
  794MOL0     H 9546   5.111   2.437   4.012  0.0493  0.7414  0.9334
  794MOL0     H 9547   5.236   2.432   3.888 -0.0532 -1.1601  0.2592
  794MOL0     H 9548   5.125   2.700   3.998  0.7614 -0.2160 -0.1082
  794MOL0     H 9549   5.038   2.608   3.882 -0.9773  2.2497  0.7676
  794MOL0     H 9550   5.186   2.650   3.710 -1.9079  1.2635 -0.3341
  794MOL0     H 9551   5.315   2.714   3.827 -0.6940  2.4871  0.1746
  794MOL0     H 9552   5.231   2.140   4.337  2.0021  1.2697  0.7297
  794MOL0     H 9553   5.058   1.980   4.321  0.3264 -1.6177  0.6396
  794MOL0     H 9554   4.771   1.836   4.575 -1.1170  1.8095 -1.6368
  794MOL0     H 9555   4.553   1.746   4.658  1.1801  1.6503  0.1581
  794MOL0     H 9556   3.963   1.688   5.385  1.5217  2.3527 -1.4787
  794MOL0     H 9557   4.108   1.790   5.546 -3.6886 -0.4008 -0.4655
  794MOL0     H 9558   4.640   2.032   5.534 -0.5611 -0.7905  0.5877
  794MOL0     H 9559   4.726   2.176   5.709 -1.1067  0.6170 -0.6456
  794MOL0     H 9560   4.895   1.915   6.008 -0.0263 -0.2559 -2.4969
  794MOL0     H 9561   4.973   1.985   5.870  1.8769  0.5150  0.7779
  794MOL0     H 9562   5.104   2.008   6.079  1.2035  0.6091 -1.2993
  794MOL0     H 9563   4.966   2.109   6.145  0.0476 -0.7996  0.8873
  794MOL0     H 9564   5.140   2.189   5.892 -0.5083  0.4312 -0.5149
  794MOL0     H 9565   5.028   2.294   5.969 -1.9058 -1.5621  1.6465
  794MOL0     H 9566   5.124   2.278   6.189  1.2087 -1.4664  0.4299
  794MOL0     H 9567   5.199   2.386   6.060 -1.8890  0.0828 -0.6256
  794MOL0     H 9568   5.494   2.091   6.186 -0.0985  0.2672  1.2753
  794MOL0     H 9569   4.666   1.881   5.993  0.0517 -1.5623  0.2588
  794MOL0     H 9570   4.387   1.734   5.855 -0.4959 -0.5128 -2.1328
  794MOL0     H 9571   4.529   1.624   5.806  3.2084  1.5737 -1.6912
  794MOL0     H 9572   4.524   1.687   5.969 -0.6231 -2.8832 -1.9419
  795MOL0     O 9573   8.063   4.266   9.636 -0.0815  0.1593 -0.4967
  795MOL0     C 9574   8.149   4.275   9.559  0.3528 -0.4634  0.8219
  795MOL0     O 9575   8.236   4.179   9.523 -0.1313  0.5737 -0.0554
  795MOL0     C 9576   8.201   4.050   9.540  0.4497 -0.0845  0.5823
  795MOL0     C 9577   8.118   3.987   9.447 -0.2756  0.2272  0.2329
  795MOL0     C 9578   8.063   3.864   9.478 -1.0210  0.1367 -0.2214
  795MOL0     C 9579   8.097   3.793   9.595 -0.5087 -0.2061  0.5988
  795MOL0     O 9580   8.040   3.674   9.602 -0.5279  0.0456  0.7925
  795MOL0     C 9581   8.102   3.582   9.688 -0.6007 -0.9518  0.1234
  795MOL0     C 9582   8.050   3.439   9.672 -0.5420  0.3105  0.7328
  795MOL0     C 9583   8.152   3.340   9.731  0.1938  0.0183  0.1307
  795MOL0     C 9584   8.075   3.242   9.814  0.2621  0.2812 -0.6156
  795MOL0     C 9585   8.172   3.140   9.877 -0.5494  0.0973 -0.6116
  795MOL0     C 9586   8.269   3.200   9.977  0.1408 -0.9272  0.4184
  795MOL0     C 9587   8.365   3.092  10.027 -0.4031 -1.2714 -0.9924
  795MOL0     C 9588   8.468   3.164  10.122 -0.1870 -0.1934  0.5778
  795MOL0     N 9589   8.542   3.099  10.230  0.7150  0.4751 -0.3901
  795MOL0     C 9590   8.584   2.966  10.222  0.6261  0.7018 -0.1112
  795MOL0     C 9591   8.683   2.961  10.306 -1.1254  0.4179 -1.3626
  795MOL0     C 9592   8.758   2.834  10.357  0.0974 -0.7954  0.1165
  795MOL0     C 9593   8.889   2.798  10.273 -0.2997 -0.9433  0.1494
  795MOL0     C 9594   8.864   2.746  10.129 -0.0659 -0.8084  0.3063
  795MOL0     C 9595   8.797   2.607  10.121  0.4506 -0.9141  0.5131
  795MOL0     O 9596   8.801   2.562   9.985 -0.1177  0.5993 -0.1912
  795MOL0     C 9597   8.910   2.512   9.916 -1.1006  0.1399  0.0020
  795MOL0     C 9598   8.911   2.499   9.769 -0.1629 -0.0907 -0.4676
  795MOL0     C 9599   9.027   2.465   9.702  0.0802  0.0649 -0.0352
  795MOL0     C 9600   9.013   2.458   9.549  0.6696 -0.2208  0.0898
  795MOL0     C 9601   9.143   2.445   9.781  0.7766 -0.7043  0.7694
  795MOL0     C 9602   9.272   2.400   9.726  0.0474 -0.5659 -0.4053
  795MOL0     O 9603   9.381   2.463   9.774  0.0275  0.5395  0.2404
  795MOL0     C 9604   9.491   2.464   9.702 -0.1034  0.2831  0.4412
  795MOL0     C 9605   9.544   2.586   9.667  0.4219  0.5790  0.6938
  795MOL0     C 9606   9.676   2.610   9.623 -0.4737 -0.4081 -0.2578
  795MOL0     C 9607   9.760   2.502   9.593  0.7396  0.5694  0.3778
  795MOL0     O 9608   9.888   2.508   9.547  1.5628  0.5674 -0.1283
  795MOL0     C 9609   9.956   2.635   9.564  0.7142  1.5082 -0.4780
  795MOL0     C 9610  10.102   2.630   9.516 -0.6407 -0.5202 -0.0519
  795MOL0     C 9611  10.112   2.676   9.371 -0.5165  0.6812 -0.2798
  795MOL0     C 9612  10.076   2.569   9.270 -0.0543 -0.7324 -0.1559
  795MOL0     C 9613  10.111   2.632   9.132 -0.7183 -0.3060  0.7037
  795MOL0     C 9614  10.086   2.530   9.009  0.4983 -0.8461 -0.6198
  795MOL0     C 9615  10.137   2.582   8.873 -0.4494 -0.1238 -0.1116
  795MOL0     C 9616  10.090   2.492   8.758  0.3331  1.2806 -0.9311
  795MOL0    Cl 9617  10.169   2.324   8.775  0.4000 -0.0219 -0.7835
  795MOL0     C 9618   9.700   2.370   9.616 -1.1692  0.6199 -0.2869
  795MOL0     C 9619   9.572   2.354   9.676  0.3523 -0.3322 -1.3632
  795MOL0     O 9620   9.269   2.312   9.642 -0.1483 -0.1972 -0.5457
  795MOL0     C 9621   9.141   2.453   9.919  0.2584 -0.4168  0.0146
  795MOL0     C 9622   9.027   2.485   9.983  0.9121 -0.3071 -0.2408
  795MOL0     N 9623   8.713   3.080  10.364  0.0812 -0.2722  0.0789
  795MOL0     N 9624   8.625   3.163  10.322 -0.2961 -0.2314  0.3757
  795MOL0     C 9625   8.176   3.866   9.687  0.1527 -0.2760  0.1897
  795MOL0     C 9626   8.227   3.994   9.659  0.0096 -0.9560 -0.3855
  795MOL0     C 9627   8.139   4.409   9.496  0.4487  0.9930  0.3288
  795MOL0     C 9628   8.257   4.454   9.440  1.1380  0.2411 -0.2973
  795MOL0     C 9629   8.265   4.582   9.377  0.8554 -0.2736 -0.1812
  795MOL0     C 9630   8.162   4.664   9.380 -0.0603 -0.9422 -0.5341
  795MOL0     O 9631   8.179   4.780   9.322 -0.1731 -0.8428 -0.0839
  795MOL0     C 9632   8.091   4.892   9.342 -0.1284  0.5078  0.0563
  795MOL0     C 9633   8.178   5.020   9.347 -0.4165 -0.3740 -0.1192
  795MOL0     C 9634   8.090   5.146   9.383  1.0715 -0.1498 -1.0525
  795MOL0     C 9635   7.961   5.191   9.309  0.1169  0.4037  0.5419
  795MOL0     C 9636   8.002   5.210   9.169  0.2253  0.9022 -0.6334
  795MOL0     C 9637   8.040   5.222   9.050  0.4011 -0.2135 -0.2595
  795MOL0     C 9638   8.047   4.628   9.450  0.1245 -0.8730 -0.5206
  795MOL0     C 9639   8.028   4.497   9.491 -0.5248  0.8620 -0.2692
  795MOL0     C 9640   7.890   4.462   9.542 -0.5024 -0.0135 -0.2775
  795MOL0     H 9641   8.101   4.037   9.352 -1.0741  1.9245  1.2367
  795MOL0     H 9642   7.992   3.818   9.410 -0.0326  1.3507 -2.1650
  795MOL0     H 9643   8.069   3.602   9.791  1.4906 -1.0511  0.8526
  795MOL0     H 9644   8.209   3.583   9.669 -1.0495  2.0594 -3.5618
  795MOL0     H 9645   7.948   3.424   9.707 -0.9590  0.8160 -0.2167
  795MOL0     H 9646   8.045   3.421   9.564  3.1750  0.9501  0.2994
  795MOL0     H 9647   8.200   3.287   9.649 -1.4985  1.7509 -2.1058
  795MOL0     H 9648   8.236   3.389   9.781  1.3411 -2.3895  0.7101
  795MOL0     H 9649   8.013   3.291   9.890 -2.0518 -1.8536 -0.9871
  795MOL0     H 9650   8.004   3.181   9.757  1.3354 -0.9572 -0.6650
  795MOL0     H 9651   8.227   3.099   9.791 -0.7060 -0.7992 -0.3001
  795MOL0     H 9652   8.131   3.049   9.921 -1.7434  1.1941  0.6191
  795MOL0     H 9653   8.321   3.289   9.941 -1.4304  0.2953  1.0203
  795MOL0     H 9654   8.218   3.243  10.064  2.1691  1.7874  0.3969
  795MOL0     H 9655   8.420   3.053   9.941  0.7812 -3.0114  0.4556
  795MOL0     H 9656   8.317   3.007  10.077 -3.4976  2.4332  3.0911
  795MOL0     H 9657   8.545   3.200  10.053  0.3150 -0.7023  0.8652
  795MOL0     H 9658   8.418   3.252  10.161 -1.7419 -0.6784 -0.2334
  795MOL0     H 9659   8.540   2.888  10.161  2.1992  0.2875 -0.7819
  795MOL0     H 9660   8.678   2.760  10.354 -0.3868 -0.2978 -3.3437
  795MOL0     H 9661   8.799   2.842  10.458  3.8118 -0.4996 -1.2773
  795MOL0     H 9662   8.947   2.890  10.262 -1.5281  0.0844  1.8089
  795MOL0     H 9663   8.956   2.736  10.333  1.9344  3.4648  2.6533
  795MOL0     H 9664   8.803   2.819  10.075 -1.9502 -0.2568  2.9695
  795MOL0     H 9665   8.968   2.737  10.098 -0.0876 -0.4801  0.1306
  795MOL0     H 9666   8.839   2.537  10.194 -4.0876 -2.4173  2.0219
  795MOL0     H 9667   8.691   2.619  10.146  0.8163  0.8380  1.4163
  795MOL0     H 9668   8.823   2.537   9.717 -0.7611  0.1720  0.7057
  795MOL0     H 9669   8.962   2.368   9.511  1.0184 -0.6194  0.5567
  795MOL0     H 9670   9.115   2.453   9.510  1.4023  0.0623  1.8789
  795MOL0     H 9671   8.965   2.546   9.506  1.3103  0.3456  0.5090
  795MOL0     H 9672   9.478   2.672   9.680  0.4572  0.6356  0.5016
  795MOL0     H 9673   9.713   2.710   9.604  1.8772 -1.2820 -0.5100
  795MOL0     H 9674   9.902   2.702   9.497 -0.5018 -1.7507 -3.0084
  795MOL0     H 9675   9.958   2.671   9.668 -0.2930  0.8481 -0.2140
  795MOL0     H 9676  10.167   2.695   9.575 -0.1208  1.3271 -2.5066
  795MOL0     H 9677  10.128   2.526   9.539 -1.8075 -0.6942  0.5988
  795MOL0     H 9678  10.217   2.699   9.353  0.0509 -1.4326 -0.0333
  795MOL0     H 9679  10.049   2.762   9.351  2.1461  2.2681 -2.6111
  795MOL0     H 9680   9.971   2.544   9.290 -0.2460  1.7217  2.7177
  795MOL0     H 9681  10.134   2.479   9.295  1.1747  0.2867  0.8330
  795MOL0     H 9682  10.057   2.726   9.117  0.3750  0.6168  2.3342
  795MOL0     H 9683  10.215   2.663   9.122 -1.2266  0.7572 -3.2338
  795MOL0     H 9684   9.980   2.505   9.003  0.0612  0.1201  1.7915
  795MOL0     H 9685  10.143   2.437   9.020  1.3467 -0.7322 -3.4003
  795MOL0     H 9686  10.247   2.584   8.876 -0.4557  2.0419  2.3653
  795MOL0     H 9687  10.104   2.684   8.852  0.4687  0.0875 -0.5878
  795MOL0     H 9688  10.114   2.523   8.656  1.2188 -4.0689 -2.6774
  795MOL0     H 9689   9.982   2.481   8.768  0.3041  0.4380 -1.9492
  795MOL0     H 9690   9.765   2.283   9.623 -0.9076  0.8489  0.1334
  795MOL0     H 9691   9.550   2.262   9.730  1.6419  0.9958  1.6451
  795MOL0     H 9692   9.230   2.423   9.972 -0.9783 -0.3559  2.2665
  795MOL0     H 9693   9.026   2.482  10.091  0.1206 -1.0912 -0.2563
  795MOL0     H 9694   8.203   3.822   9.783  2.6432  2.1683  0.7497
  795MOL0     H 9695   8.286   4.042   9.737  0.7993 -0.0018 -1.5368
  795MOL0     H 9696   8.350   4.399   9.434  0.2822 -1.1133 -1.5154
  795MOL0     H 9697   8.354   4.608   9.320  0.7996  0.5308  0.0920
  795MOL0     H 9698   8.038   4.905   9.247 -0.5270 -0.2704  0.1694
  795MOL0     H 9699   8.013   4.878   9.416 -2.4354 -0.6836 -2.4331
  795MOL0     H 9700   8.221   5.038   9.249  1.1514 -1.2184  0.3693
  795MOL0     H 9701   8.258   5.006   9.421  1.4021  0.4908 -1.8549
  795MOL0     H 9702   8.057   5.133   9.486 -0.9115  0.5215 -1.5451
  795MOL0     H 9703   8.167   5.223   9.387  0.7713  0.2329 -2.1682
  795MOL0     H 9704   7.918   5.267   9.374 -0.9083 -0.0521  0.4247
  795MOL0     H 9705   7.891   5.107   9.300  2.1371 -1.2129 -1.3402
  795MOL0     H 9706   8.080   5.209   8.951  1.3641 -0.9609  0.2045
  795MOL0     H 9707   7.962   4.694   9.459 -1.0212 -2.0028 -2.3689
  795MOL0     H 9708   7.887   4.471   9.651  2.0362  2.8618 -0.3040
  795MOL0     H 9709   7.815   4.535   9.507  0.9039  1.8123  0.3365
  795MOL0     H 9710   7.864   4.358   9.520  1.8738 -0.3595 -1.6840
  796MOL0     O 9711   3.337   0.324   3.589  0.0589 -0.2305 -0.4618
  796MOL0     C 9712   3.231   0.329   3.658 -0.3309 -0.0948 -0.3181
  796MOL0     O 9713   3.147   0.228   3.686 -0.0208 -0.0326 -0.0901
  796MOL0     C 9714   3.157   0.094   3.655 -0.4551  0.6450 -0.3064
  796MOL0     C 9715   3.275   0.019   3.680  0.1269 -0.4330  0.2640
  796MOL0     C 9716   3.280  -0.123   3.669  0.0363 -0.7089  0.6799
  796MOL0     C 9717   3.164  -0.193   3.619 -0.0196 -0.5976  0.6675
  796MOL0     O 9718   3.188  -0.316   3.566  0.2670  0.7775  0.6200
  796MOL0     C 9719   3.129  -0.360   3.436 -0.6654 -0.1080 -0.0054
  796MOL0     C 9720   3.003  -0.448   3.458  0.0047  1.4784  0.0926
  796MOL0     C 9721   3.023  -0.592   3.518  0.0437  0.7157 -0.0988
  796MOL0     C 9722   3.049  -0.602   3.673 -0.0051 -0.6152 -0.6128
  796MOL0     C 9723   3.109  -0.732   3.727  0.3649 -0.7003 -0.8700
  796MOL0     C 9724   3.257  -0.768   3.685 -0.3290 -0.1560  0.1524
  796MOL0     C 9725   3.361  -0.654   3.683  0.4941  0.5319  0.5751
  796MOL0     C 9726   3.388  -0.600   3.820 -0.6239  0.2243 -0.4231
  796MOL0     N 9727   3.462  -0.697   3.911  0.1284  0.3071  0.1932
  796MOL0     C 9728   3.582  -0.759   3.883 -0.3434  0.1698 -0.4698
  796MOL0     C 9729   3.595  -0.849   3.985 -0.3922 -0.8487  0.1513
  796MOL0     C 9730   3.710  -0.936   4.005  0.3656 -0.1753  0.5301
  796MOL0     C 9731   3.807  -0.855   4.093  0.3379  0.7192  0.4471
  796MOL0     C 9732   3.879  -0.745   4.005 -0.3356  0.0358 -0.2502
  796MOL0     C 9733   3.957  -0.634   4.085 -0.2884  0.2991 -0.7768
  796MOL0     O 9734   3.949  -0.506   4.018 -0.0760  0.2085 -0.1270
  796MOL0     C 9735   3.836  -0.428   4.022  0.6094 -0.1457 -0.5941
  796MOL0     C 9736   3.844  -0.307   3.956 -0.7116 -0.9557  0.3331
  796MOL0     C 9737   3.728  -0.221   3.959 -0.3640 -0.5612  0.4338
  796MOL0     C 9738   3.730  -0.099   3.870 -0.1031 -0.5356 -0.6234
  796MOL0     C 9739   3.611  -0.257   4.031  0.7892  0.2885  0.1373
  796MOL0     C 9740   3.501  -0.166   4.069  0.6139 -0.2409 -0.7594
  796MOL0     O 9741   3.519  -0.030   4.110 -0.7283 -0.3802  0.4458
  796MOL0     C 9742   3.417   0.055   4.130 -0.6646  0.2220 -0.9038
  796MOL0     C 9743   3.374   0.140   4.033  0.4854  0.3171  0.7063
  796MOL0     C 9744   3.259   0.216   4.049  1.1789  0.2680  0.2412
  796MOL0     C 9745   3.195   0.220   4.176 -0.0579  0.0539 -0.2056
  796MOL0     O 9746   3.093   0.293   4.206  0.2831 -0.0324  0.3336
  796MOL0     C 9747   3.100   0.432   4.170  0.5621  0.2787  0.1822
  796MOL0     C 9748   3.000   0.514   4.256 -0.4826 -0.5800  0.1679
  796MOL0     C 9749   2.862   0.488   4.207 -0.4136 -0.3480  0.1983
  796MOL0     C 9750   2.752   0.590   4.252 -0.1914 -0.0580 -0.2443
  796MOL0     C 9751   2.620   0.558   4.168  0.2014 -0.5043 -0.0179
  796MOL0     C 9752   2.502   0.655   4.198 -0.7981 -0.3483 -0.2636
  796MOL0     C 9753   2.459   0.652   4.348  0.7224 -0.0323 -0.5368
  796MOL0     C 9754   2.346   0.744   4.367  0.2703 -0.4336 -0.6659
  796MOL0    Cl 9755   2.200   0.694   4.272 -0.3841  0.4699  0.6648
  796MOL0     C 9756   3.243   0.125   4.274  0.1923 -0.2344 -0.0723
  796MOL0     C 9757   3.347   0.046   4.254 -0.1137  0.1707  0.3344
  796MOL0     O 9758   3.391  -0.210   4.047  0.6277  0.8501  0.0092
  796MOL0     C 9759   3.609  -0.381   4.101  0.0776 -0.3935 -0.7720
  796MOL0     C 9760   3.715  -0.469   4.085 -0.5093  1.1592 -0.2469
  796MOL0     N 9761   3.485  -0.848   4.054 -0.7856  0.9801 -1.0062
  796MOL0     N 9762   3.400  -0.766   4.011  0.7883 -0.3847 -0.6690
  796MOL0     C 9763   3.046  -0.119   3.601 -0.2467 -0.2438  0.5379
  796MOL0     C 9764   3.044   0.026   3.624  0.0010 -0.3238 -0.5008
  796MOL0     C 9765   3.187   0.452   3.733  0.0827  0.4148  0.3164
  796MOL0     C 9766   3.049   0.491   3.728  0.0254  0.9624  0.3896
  796MOL0     C 9767   2.996   0.595   3.804 -0.0552  0.2144 -1.0192
  796MOL0     C 9768   3.083   0.665   3.891  0.3282  0.4486 -0.5188
  796MOL0     O 9769   3.039   0.766   3.976  0.5202  1.0583  0.3537
  796MOL0     C 9770   3.086   0.894   3.928  0.4334 -0.0548 -0.1271
  796MOL0     C 9771   3.034   0.983   4.040 -0.3235 -0.4121  0.0083
  796MOL0     C 9772   2.885   0.978   4.055  0.0112 -0.5392 -0.0181
  796MOL0     C 9773   2.853   1.014   4.210  0.0400 -0.0340  0.0110
  796MOL0     C 9774   2.875   1.146   4.262 -0.0287  0.2038 -1.0181
  796MOL0     C 9775   2.877   1.258   4.305 -0.6351 -0.8482  0.2713
  796MOL0     C 9776   3.217   0.621   3.906  0.1463 -0.8164 -0.1383
  796MOL0     C 9777   3.273   0.527   3.827 -0.4927 -0.5006 -0.4021
  796MOL0     C 9778   3.419   0.498   3.835 -0.1949 -0.0056  0.0677
  796MOL0     H 9779   3.359   0.075   3.718 -0.2088  0.6669 -0.5605
  796MOL0     H 9780   3.376  -0.174   3.672  1.3080  1.5433  0.3996
  796MOL0     H 9781   3.204  -0.412   3.375  1.6784  1.4110  1.4134
  796MOL0     H 9782   3.104  -0.274   3.374  2.4739 -0.8753 -2.6332
  796MOL0     H 9783   2.931  -0.392   3.518 -2.9038  1.8710 -3.4037
  796MOL0     H 9784   2.953  -0.462   3.362  2.2984  1.8062 -1.2226
  796MOL0     H 9785   2.944  -0.656   3.477  0.9196  0.2011 -1.0599
  796MOL0     H 9786   3.116  -0.627   3.471 -0.0757 -1.0710  0.8987
  796MOL0     H 9787   3.111  -0.512   3.681 -2.9989  1.7523 -1.9362
  796MOL0     H 9788   2.957  -0.591   3.731  1.5767  1.0090  1.7879
  796MOL0     H 9789   3.045  -0.810   3.686  1.0980 -1.4003 -0.6933
  796MOL0     H 9790   3.091  -0.727   3.835  1.0074  0.5550 -0.8013
  796MOL0     H 9791   3.287  -0.859   3.737  1.0911 -0.6124 -1.3932
  796MOL0     H 9792   3.253  -0.792   3.578  3.9349 -1.5926  0.1279
  796MOL0     H 9793   3.313  -0.579   3.620  0.2189 -0.3136 -0.2442
  796MOL0     H 9794   3.456  -0.682   3.636 -0.6638  1.2971 -2.4932
  796MOL0     H 9795   3.459  -0.517   3.815  1.4175 -1.4085 -0.1987
  796MOL0     H 9796   3.294  -0.570   3.868 -0.3746 -1.7423  1.4524
  796MOL0     H 9797   3.647  -0.766   3.796  1.6241  0.3676  0.9196
  796MOL0     H 9798   3.756  -0.960   3.909 -0.6618  0.2558 -0.0852
  796MOL0     H 9799   3.679  -1.025   4.061  1.2837 -0.9004 -0.0968
  796MOL0     H 9800   3.762  -0.812   4.183  0.6958 -0.9568  1.4636
  796MOL0     H 9801   3.883  -0.923   4.131  0.7927  2.4996  2.9897
  796MOL0     H 9802   3.928  -0.810   3.932 -5.1781 -3.6987 -0.6765
  796MOL0     H 9803   3.815  -0.684   3.942 -1.0899  1.4804  1.7952
  796MOL0     H 9804   3.925  -0.633   4.190 -2.3809 -3.7907 -1.1740
  796MOL0     H 9805   4.064  -0.652   4.092 -0.4341 -0.2463  0.1759
  796MOL0     H 9806   3.929  -0.293   3.891 -0.6336 -3.0787 -0.0904
  796MOL0     H 9807   3.633  -0.087   3.822 -1.2501 -2.8869  0.9338
  796MOL0     H 9808   3.816  -0.100   3.803 -0.8732  0.1885 -1.6414
  796MOL0     H 9809   3.745  -0.017   3.942  2.5388 -0.0108 -1.6374
  796MOL0     H 9810   3.421   0.136   3.935 -2.1857  0.9526 -0.7016
  796MOL0     H 9811   3.224   0.284   3.971  0.3445 -0.5558 -0.1176
  796MOL0     H 9812   3.203   0.469   4.176  1.3697 -1.8446  0.1839
  796MOL0     H 9813   3.065   0.432   4.067  0.9792 -0.5646  0.0314
  796MOL0     H 9814   3.023   0.488   4.360  0.3339 -1.6401 -0.2644
  796MOL0     H 9815   3.018   0.622   4.253  1.1820 -0.8375 -0.1182
  796MOL0     H 9816   2.826   0.387   4.226 -2.6614  0.4278  0.3827
  796MOL0     H 9817   2.874   0.495   4.098 -0.5634 -1.3301  0.1138
  796MOL0     H 9818   2.778   0.695   4.232  0.8862  0.8130  4.4122
  796MOL0     H 9819   2.730   0.589   4.360  2.8540  0.3685  0.4627
  796MOL0     H 9820   2.644   0.569   4.061  3.2483  0.9531  0.6859
  796MOL0     H 9821   2.583   0.459   4.194  0.4133 -0.6771 -0.3730
  796MOL0     H 9822   2.418   0.624   4.134 -0.4791 -4.5870  1.0288
  796MOL0     H 9823   2.538   0.754   4.171  3.8363 -0.9016  2.7948
  796MOL0     H 9824   2.539   0.685   4.414 -1.6733  0.7810  2.1764
  796MOL0     H 9825   2.436   0.554   4.391 -0.1964  1.0157  1.5072
  796MOL0     H 9826   2.379   0.842   4.331 -2.2931 -0.1926 -2.6461
  796MOL0     H 9827   2.317   0.746   4.472 -1.1660 -0.9957 -1.0240
  796MOL0     H 9828   3.195   0.130   4.371 -0.1201 -0.0943 -0.2320
  796MOL0     H 9829   3.385  -0.010   4.338  0.4278 -0.2350 -0.1745
  796MOL0     H 9830   3.532  -0.393   4.177  1.5582  0.4085  0.8903
  796MOL0     H 9831   3.701  -0.561   4.141  0.4973  0.5366 -0.9987
  796MOL0     H 9832   2.948  -0.161   3.577 -1.2099  2.4896 -0.7325
  796MOL0     H 9833   2.952   0.083   3.617  0.7272  1.1337  1.0835
  796MOL0     H 9834   2.983   0.440   3.659 -1.9238  0.1521  2.6914
  796MOL0     H 9835   2.900   0.643   3.789  0.1289  2.2127  2.8043
  796MOL0     H 9836   3.194   0.903   3.922  0.3216  0.5053 -1.7223
  796MOL0     H 9837   3.047   0.918   3.829 -1.9482  0.5526  0.8854
  796MOL0     H 9838   3.062   1.086   4.018  0.0131  0.0731  2.4744
  796MOL0     H 9839   3.082   0.960   4.136 -2.2328  0.8106  1.3177
  796MOL0     H 9840   2.850   1.055   3.985  0.2172 -0.2100  0.2373
  796MOL0     H 9841   2.846   0.878   4.035  1.4653 -1.5284  1.7314
  796MOL0     H 9842   2.909   0.948   4.277 -0.1534 -0.0688  0.1398
  796MOL0     H 9843   2.746   0.993   4.219  0.0724 -0.0412  0.4045
  796MOL0     H 9844   2.869   1.356   4.348 -0.4230 -1.5256  1.9206
  796MOL0     H 9845   3.273   0.677   3.980 -0.8072 -0.3843  0.2715
  796MOL0     H 9846   3.462   0.492   3.734 -0.8123 -1.0624 -0.1557
  796MOL0     H 9847   3.466   0.572   3.901 -0.8294 -1.0475  1.7496
  796MOL0     H 9848   3.444   0.400   3.877  0.2844 -0.0291 -0.2522
  797MOL0     O 9849   8.187   7.567   6.519  0.2006  0.1213 -0.1533
  797MOL0     C 9850   8.126   7.496   6.599 -0.0293  0.3033  0.1935
  797MOL0     O 9851   8.135   7.499   6.732 -0.0166 -0.5515 -0.2705
  797MOL0     C 9852   8.220   7.600   6.783  0.7929 -0.1738  1.2130
  797MOL0     C 9853   8.339   7.569   6.857  0.0571 -0.2181 -0.1775
  797MOL0     C 9854   8.412   7.667   6.920  0.1228 -0.3385 -0.1496
  797MOL0     C 9855   8.374   7.809   6.910  0.0204  0.4933 -0.8935
  797MOL0     O 9856   8.435   7.910   6.976  0.2020 -0.3246  0.4338
  797MOL0     C 9857   8.542   7.883   7.071  0.0897  0.4440 -1.2656
  797MOL0     C 9858   8.606   8.012   7.122  0.2311  0.9278  0.9410
  797MOL0     C 9859   8.500   8.109   7.180 -1.3977 -0.2322  0.1918
  797MOL0     C 9860   8.478   8.110   7.331 -0.9267 -0.1547  0.1474
  797MOL0     C 9861   8.575   8.210   7.402  0.7283  0.5104  0.8634
  797MOL0     C 9862   8.556   8.231   7.550 -0.5476  0.4992 -0.0832
  797MOL0     C 9863   8.635   8.124   7.624  0.1565  0.5657 -0.6677
  797MOL0     C 9864   8.782   8.168   7.637 -0.4093  0.1255  0.7769
  797MOL0     N 9865   8.842   8.138   7.763  0.8320 -0.4896 -0.0789
  797MOL0     C 9866   8.815   8.198   7.880  0.3342 -0.2089 -0.7157
  797MOL0     C 9867   8.913   8.161   7.974  0.0453  0.3850 -0.2513
  797MOL0     C 9868   8.923   8.209   8.116  0.2597 -0.6874  0.4639
  797MOL0     C 9869   8.870   8.359   8.142  0.4670 -0.6203 -1.0270
  797MOL0     C 9870   8.860   8.394   8.290  0.0595  1.2439  0.7065
  797MOL0     C 9871   8.823   8.543   8.297  0.1466  0.2365  1.0080
  797MOL0     O 9872   8.697   8.569   8.237 -0.2904  1.0800 -0.0581
  797MOL0     C 9873   8.631   8.689   8.248  0.6343 -0.2868 -1.0151
  797MOL0     C 9874   8.528   8.710   8.160  0.9335 -0.3094 -0.6830
  797MOL0     C 9875   8.445   8.828   8.160  1.0605  0.2667 -0.8036
  797MOL0     C 9876   8.323   8.829   8.075 -0.3371  0.4188  0.3962
  797MOL0     C 9877   8.487   8.937   8.247  0.3230  0.7358  0.4701
  797MOL0     C 9878   8.416   9.065   8.266  0.2877  0.3921 -0.8470
  797MOL0     O 9879   8.475   9.155   8.352  0.0174 -0.0348  0.2221
  797MOL0     C 9880   8.412   9.273   8.371  0.6322 -0.0855  0.2095
  797MOL0     C 9881   8.292   9.285   8.448  0.1384  0.2794 -0.7811
  797MOL0     C 9882   8.234   9.416   8.477  0.2552  0.8149  0.8658
  797MOL0     C 9883   8.306   9.531   8.436  0.3969 -0.0169 -0.2665
  797MOL0     O 9884   8.277   9.659   8.460  0.0158 -0.4334 -0.5682
  797MOL0     C 9885   8.147   9.700   8.492 -0.3099  0.4449  0.2485
  797MOL0     C 9886   8.113   9.701   8.645  0.6617 -0.0619  0.0716
  797MOL0     C 9887   7.977   9.740   8.671 -0.2077 -0.5300  0.5455
  797MOL0     C 9888   7.938   9.745   8.821 -0.4392  0.1495  0.3164
  797MOL0     C 9889   7.827   9.837   8.842  0.8357  0.2230  0.1174
  797MOL0     C 9890   7.804   9.874   8.993  0.1166  0.3033 -0.0956
  797MOL0     C 9891   7.688   9.983   9.014 -0.4634  0.9942 -0.2293
  797MOL0     C 9892   7.672  10.000   9.163  0.4283 -0.1386  0.1188
  797MOL0    Cl 9893   7.507  10.074   9.203 -0.0628  0.2304  0.2618
  797MOL0     C 9894   8.430   9.513   8.366  1.1218  0.1193  0.1842
  797MOL0     C 9895   8.478   9.388   8.341  0.0160  0.2960 -0.2595
  797MOL0     O 9896   8.301   9.071   8.219  0.3040 -0.3572  0.2828
  797MOL0     C 9897   8.590   8.910   8.339 -0.7629  0.7580  0.2592
  797MOL0     C 9898   8.670   8.792   8.339  0.0216  0.7183  0.0111
  797MOL0     N 9899   9.003   8.079   7.899 -1.0905 -0.2917 -0.1764
  797MOL0     N 9900   8.953   8.075   7.773 -1.1299  0.1521  0.2930
  797MOL0     C 9901   8.273   7.834   6.814 -0.4281 -0.8169 -0.3105
  797MOL0     C 9902   8.190   7.738   6.761  0.5271 -0.0051  0.1899
  797MOL0     C 9903   8.035   7.398   6.528  0.1650  0.4619 -0.0889
  797MOL0     C 9904   7.936   7.341   6.600  0.2287 -0.3023  0.0261
  797MOL0     C 9905   7.840   7.253   6.559  0.5395 -0.2537  0.3315
  797MOL0     C 9906   7.830   7.232   6.422  0.2611 -0.4945 -0.2168
  797MOL0     O 9907   7.729   7.161   6.364  0.0858  0.4107  0.3666
  797MOL0     C 9908   7.627   7.090   6.448 -0.4066 -0.3486 -0.6460
  797MOL0     C 9909   7.581   6.959   6.397 -0.0698 -0.8327  0.1849
  797MOL0     C 9910   7.504   6.980   6.270 -0.8109  0.5049 -0.2900
  797MOL0     C 9911   7.356   6.937   6.281  0.2493 -0.9827  0.7342
  797MOL0     C 9912   7.286   7.009   6.383  0.7082  0.7138 -0.5664
  797MOL0     C 9913   7.241   7.069   6.488  0.2316 -0.2462  0.8209
  797MOL0     C 9914   7.923   7.293   6.337  0.1732  0.0247  0.1826
  797MOL0     C 9915   8.028   7.370   6.390  0.0346  0.9502 -0.4426
  797MOL0     C 9916   8.128   7.419   6.286 -0.4610 -0.3569  1.2199
  797MOL0     H 9917   8.381   7.469   6.852  1.1384  0.2678 -1.4188
  797MOL0     H 9918   8.490   7.632   6.987  2.2897 -0.4852 -2.5946
  797MOL0     H 9919   8.623   7.821   7.034 -2.1361 -1.9806 -2.4361
  797MOL0     H 9920   8.508   7.822   7.156 -0.5273  3.3429  0.7471
  797MOL0     H 9921   8.677   8.000   7.204 -1.5682 -1.0419  2.3097
  797MOL0     H 9922   8.668   8.047   7.039 -1.5322  1.3888 -0.2573
  797MOL0     H 9923   8.541   8.202   7.139  1.4013 -0.1687  2.7592
  797MOL0     H 9924   8.408   8.104   7.121 -0.3371  0.0611 -1.5533
  797MOL0     H 9925   8.381   8.159   7.342 -1.6634 -1.2194 -1.4093
  797MOL0     H 9926   8.488   8.011   7.377  2.5048 -1.4441 -2.8352
  797MOL0     H 9927   8.563   8.309   7.357 -0.9512 -0.8571 -2.0066
  797MOL0     H 9928   8.675   8.177   7.374  0.5625  0.5192  0.2521
  797MOL0     H 9929   8.598   8.328   7.581  1.3403 -1.1230  2.9345
  797MOL0     H 9930   8.453   8.229   7.588  0.0660 -5.0449  2.1660
  797MOL0     H 9931   8.637   8.026   7.576  0.9209 -1.8375  3.7337
  797MOL0     H 9932   8.585   8.103   7.719 -3.6940 -0.1212 -2.6386
  797MOL0     H 9933   8.826   8.106   7.558  0.6434 -0.2380  1.6223
  797MOL0     H 9934   8.799   8.270   7.603 -0.9495 -0.6232 -1.9498
  797MOL0     H 9935   8.726   8.256   7.902  2.6210  3.1066  0.7135
  797MOL0     H 9936   9.028   8.215   8.144 -0.3679  0.2073  2.9735
  797MOL0     H 9937   8.877   8.137   8.185  1.9282 -1.5630  0.7223
  797MOL0     H 9938   8.940   8.433   8.102  2.2654 -3.1142 -2.7447
  797MOL0     H 9939   8.772   8.361   8.094  0.0983 -2.9771 -0.4846
  797MOL0     H 9940   8.773   8.351   8.340  0.1275  0.7107  0.3725
  797MOL0     H 9941   8.952   8.371   8.343  0.9076 -0.5526 -1.3939
  797MOL0     H 9942   8.813   8.566   8.403 -2.1180 -0.9588  1.1209
  797MOL0     H 9943   8.901   8.595   8.241  0.3355 -0.1051  0.9529
  797MOL0     H 9944   8.502   8.620   8.105 -0.3524 -0.5274  0.2147
  797MOL0     H 9945   8.338   8.907   7.999  0.7803 -0.2872 -0.1379
  797MOL0     H 9946   8.232   8.859   8.127 -0.5752 -1.0327  0.8432
  797MOL0     H 9947   8.305   8.730   8.032  1.3842  0.0103  0.5255
  797MOL0     H 9948   8.240   9.192   8.470  0.4925  0.2334 -0.1100
  797MOL0     H 9949   8.138   9.426   8.525 -0.0852  1.6530  0.0468
  797MOL0     H 9950   8.114   9.801   8.468 -2.8265 -0.0978  1.0571
  797MOL0     H 9951   8.079   9.643   8.428  0.4895 -0.5884  0.3084
  797MOL0     H 9952   8.127   9.600   8.685  0.8277 -0.0168  0.1328
  797MOL0     H 9953   8.173   9.778   8.696 -0.1338  1.0979 -0.6876
  797MOL0     H 9954   7.911   9.687   8.601  0.7698 -0.0513 -0.7625
  797MOL0     H 9955   7.960   9.840   8.632 -0.3077 -1.0090 -0.6852
  797MOL0     H 9956   8.024   9.791   8.871  0.3878  2.5505 -2.9996
  797MOL0     H 9957   7.926   9.643   8.859  1.5502 -0.3916 -0.4087
  797MOL0     H 9958   7.831   9.930   8.783  1.0355  0.2385  0.1560
  797MOL0     H 9959   7.731   9.786   8.826  0.7010 -0.1677  1.8957
  797MOL0     H 9960   7.898   9.912   9.032  0.2196  0.7058 -0.7217
  797MOL0     H 9961   7.785   9.783   9.050  1.0267  0.6081  0.7064
  797MOL0     H 9962   7.594   9.953   8.968 -0.4951 -1.0138  1.0296
  797MOL0     H 9963   7.714  10.076   8.961 -0.1793  1.4111  0.6102
  797MOL0     H 9964   7.752  10.064   9.201  1.6399  0.3824 -3.0142
  797MOL0     H 9965   7.667   9.909   9.224  3.0650  0.9480  2.1907
  797MOL0     H 9966   8.469   9.610   8.339  0.6426  0.5830  1.1416
  797MOL0     H 9967   8.570   9.371   8.285 -2.1934 -0.7886 -3.8794
  797MOL0     H 9968   8.630   8.981   8.410  1.9017  2.2819 -2.4911
  797MOL0     H 9969   8.755   8.781   8.405  0.8453 -1.3215 -1.2850
  797MOL0     H 9970   8.255   7.941   6.814  3.0469 -0.1239 -1.3101
  797MOL0     H 9971   8.100   7.761   6.704 -2.6105 -7.7014  0.9125
  797MOL0     H 9972   7.937   7.374   6.703  0.7962 -0.7473  0.1655
  797MOL0     H 9973   7.776   7.223   6.641  0.0429 -1.6244 -0.5316
  797MOL0     H 9974   7.657   7.063   6.550  2.0537 -2.4684 -1.8060
  797MOL0     H 9975   7.547   7.163   6.466  1.8633  1.9384  0.8595
  797MOL0     H 9976   7.538   6.898   6.477  0.3545  2.3363  3.1106
  797MOL0     H 9977   7.675   6.907   6.376  1.9881  2.1593  1.1897
  797MOL0     H 9978   7.505   7.077   6.220 -0.9419 -0.6620 -2.7175
  797MOL0     H 9979   7.536   6.904   6.198 -3.2449  0.3287 -1.2968
  797MOL0     H 9980   7.366   6.831   6.305 -3.1978 -1.0876  2.3688
  797MOL0     H 9981   7.304   6.947   6.185  0.8438 -0.8568  0.4210
  797MOL0     H 9982   7.207   7.105   6.583  0.1157 -2.8419  1.8520
  797MOL0     H 9983   7.922   7.271   6.231 -1.6279  2.1281 -0.2966
  797MOL0     H 9984   8.227   7.383   6.315 -0.0403 -2.2961 -2.1043
  797MOL0     H 9985   8.115   7.374   6.188  3.6575 -1.6898  1.0798
  797MOL0     H 9986   8.134   7.529   6.282  0.4161 -0.3387 -4.1512
  798MOL0     O 9987   0.246   5.783   6.975 -1.0264  0.0528  0.1146
  798MOL0     C 9988   0.229   5.669   6.924 -0.4431 -0.2894  0.1385
  798MOL0     O 9989   0.312   5.557   6.938 -0.3624  0.3648  0.6467
  798MOL0     C 9990   0.445   5.564   6.984  0.0648  0.6896  0.7298
  798MOL0     C 9991   0.523   5.675   6.980 -0.1113  0.0860  0.1674
  798MOL0     C 9992   0.664   5.672   7.021  0.4711  0.9693  0.1950
  798MOL0     C 9993   0.720   5.548   7.059 -0.5583  0.8810  0.3578
  798MOL0     O 9994   0.860   5.530   7.098  0.4600  0.2773 -0.8206
  798MOL0     C 9995   0.916   5.632   7.180  0.2392  0.1363 -1.2540
  798MOL0     C 9996   1.069   5.654   7.156  0.4753 -0.4105 -0.5710
  798MOL0     C 9997   1.129   5.770   7.231  0.0333 -0.3662 -0.1705
  798MOL0     C 9998   1.270   5.800   7.166 -0.1022 -0.2963 -1.1875
  798MOL0     C 9999   1.352   5.904   7.245 -0.2237  0.2627  0.8117
  798MOL0     C10000   1.485   5.934   7.165  0.9421 -0.8698 -1.0158
  798MOL0     C10001   1.575   5.815   7.139  0.9436 -0.2337 -1.1248
  798MOL0     C10002   1.724   5.820   7.178  0.4582  0.4448 -1.0091
  798MOL0     N10003   1.796   5.905   7.089  0.0297  0.0704 -0.7255
  798MOL0     C10004   1.929   5.882   7.074 -0.4050  0.2970  0.0835
  798MOL0     C10005   1.970   5.963   6.972  0.7338 -0.5370 -0.5566
  798MOL0     C10006   2.110   5.965   6.906 -0.0577 -0.0633 -0.1852
  798MOL0     C10007   2.199   6.074   6.951  0.3111  0.5401 -0.4579
  798MOL0     C10008   2.130   6.209   6.971 -0.9873  1.0446 -0.5521
  798MOL0     C10009   2.219   6.308   7.045 -0.2282  0.2613  0.0267
  798MOL0     O10010   2.229   6.286   7.183  0.5103  0.0813  0.5777
  798MOL0     C10011   2.305   6.368   7.262  0.6174 -0.4438 -0.8598
  798MOL0     C10012   2.407   6.449   7.219  1.0761  0.2244 -0.2127
  798MOL0     C10013   2.487   6.521   7.299 -0.3427  0.3238  1.0881
  798MOL0     C10014   2.584   6.610   7.227 -0.2876 -0.4726  1.1862
  798MOL0     C10015   2.485   6.495   7.437  0.7709 -0.2516  0.0777
  798MOL0     C10016   2.568   6.579   7.520 -0.5635  0.8047 -0.4521
  798MOL0     O10017   2.525   6.599   7.649 -0.2478 -0.5685  0.5330
  798MOL0     C10018   2.621   6.636   7.738  0.6658  0.7258  0.4885
  798MOL0     C10019   2.582   6.732   7.831  0.0446  0.3259 -0.6438
  798MOL0     C10020   2.676   6.792   7.919 -0.5900 -0.2072 -0.7295
  798MOL0     C10021   2.799   6.742   7.934 -0.6383 -1.0707 -0.2709
  798MOL0     O10022   2.880   6.783   8.033  0.7351 -0.8281 -0.4529
  798MOL0     C10023   2.929   6.916   8.020 -0.0954 -0.0855 -0.0447
  798MOL0     C10024   3.037   6.933   7.904  0.1191  0.3422  0.0184
  798MOL0     C10025   3.154   6.832   7.913 -0.1923 -0.0307  0.0779
  798MOL0     C10026   3.266   6.862   7.804  0.5987 -0.4294  0.2734
  798MOL0     C10027   3.388   6.767   7.827 -0.9924 -0.9298 -0.4179
  798MOL0     C10028   3.519   6.793   7.737  0.7977  0.5161 -0.0036
  798MOL0     C10029   3.623   6.686   7.777 -0.5512  1.1686  0.1460
  798MOL0     C10030   3.583   6.544   7.730 -0.3035 -0.7617 -0.1625
  798MOL0    Cl10031   3.705   6.425   7.774 -0.5172  0.7555  0.9494
  798MOL0     C10032   2.836   6.633   7.856  0.7034  0.9653  0.0056
  798MOL0     C10033   2.748   6.581   7.759 -0.1797  0.5746  0.5484
  798MOL0     O10034   2.683   6.600   7.490 -0.7500 -0.2225 -0.8503
  798MOL0     C10035   2.374   6.426   7.487  0.6546 -0.9793  0.4989
  798MOL0     C10036   2.284   6.364   7.399 -0.2907  0.4298  0.9295
  798MOL0     N10037   1.867   6.045   6.944  0.7551 -0.2540  0.4065
  798MOL0     N10038   1.762   6.011   7.008 -0.7646 -0.1272 -0.6321
  798MOL0     C10039   0.639   5.439   7.045 -0.1982  0.6610  0.4252
  798MOL0     C10040   0.509   5.443   7.005  0.2298  1.0408 -0.0028
  798MOL0     C10041   0.099   5.663   6.853  0.3131 -1.1633  0.9037
  798MOL0     C10042   0.063   5.535   6.801 -1.1176  0.8478 -0.0077
  798MOL0     C10043  -0.050   5.508   6.732 -0.3856 -0.6281  0.2653
  798MOL0     C10044  -0.130   5.612   6.690 -0.6537 -0.0845  0.5149
  798MOL0     O10045  -0.249   5.587   6.634  0.1223 -0.0438  0.7804
  798MOL0     C10046  -0.355   5.551   6.735  0.2292 -0.6378 -0.4585
  798MOL0     C10047  -0.493   5.599   6.689 -0.0909 -0.4686  0.4905
  798MOL0     C10048  -0.605   5.538   6.766  0.3050 -0.1621 -0.7191
  798MOL0     C10049  -0.613   5.583   6.913  0.1321  0.2147 -0.1378
  798MOL0     C10050  -0.632   5.730   6.922  0.4345  0.2898 -0.5868
  798MOL0     C10051  -0.654   5.848   6.913  0.0112  0.3374  0.6766
  798MOL0     C10052  -0.095   5.740   6.729 -0.7693  0.2659 -0.3987
  798MOL0     C10053   0.016   5.772   6.811  0.1133  0.0367 -0.8068
  798MOL0     C10054   0.032   5.910   6.861  0.2486 -0.2120 -0.4105
  798MOL0     H10055   0.477   5.763   6.937 -0.8431 -1.2487 -1.9000
  798MOL0     H10056   0.727   5.760   7.010  0.7109  1.0404  1.8616
  798MOL0     H10057   0.903   5.593   7.281  3.6792  0.7959 -0.4311
  798MOL0     H10058   0.865   5.728   7.175 -0.1584  0.1454  1.5071
  798MOL0     H10059   1.116   5.557   7.176 -1.6602 -1.7365 -1.7007
  798MOL0     H10060   1.080   5.674   7.049 -0.8113  1.1827 -0.4566
  798MOL0     H10061   1.061   5.855   7.236  2.3367  1.4773  2.6781
  798MOL0     H10062   1.149   5.737   7.333 -1.3461  0.4796  0.4019
  798MOL0     H10063   1.319   5.703   7.160  0.2940 -0.2093  0.2654
  798MOL0     H10064   1.261   5.822   7.059 -2.2854 -2.2573 -1.4730
  798MOL0     H10065   1.375   5.866   7.345  1.9231  1.3152  0.7809
  798MOL0     H10066   1.306   6.003   7.256  0.5261  0.7259 -0.0851
  798MOL0     H10067   1.455   5.982   7.072 -0.4436 -1.0436 -0.6787
  798MOL0     H10068   1.540   6.003   7.231 -2.1010  0.4805  0.2779
  798MOL0     H10069   1.562   5.797   7.032 -3.1388 -1.5236 -0.5735
  798MOL0     H10070   1.536   5.719   7.175 -2.1827  1.1448 -0.5625
  798MOL0     H10071   1.742   5.860   7.278 -0.0114  2.1522 -1.5759
  798MOL0     H10072   1.755   5.715   7.189  1.1860  0.7904  0.4955
  798MOL0     H10073   1.983   5.801   7.122  0.6221  1.0456  0.2058
  798MOL0     H10074   2.091   5.976   6.798 -1.8364  1.3941  0.2195
  798MOL0     H10075   2.155   5.869   6.933 -4.3991 -1.8522  1.5547
  798MOL0     H10076   2.259   6.044   7.037  1.6546  3.3137 -0.3303
  798MOL0     H10077   2.256   6.096   6.861 -2.0344  0.6283 -2.0309
  798MOL0     H10078   2.114   6.259   6.875  3.0949  2.2593 -0.8104
  798MOL0     H10079   2.035   6.200   7.023  0.1562 -0.4534  1.4310
  798MOL0     H10080   2.318   6.298   7.000 -1.4417  0.9518 -3.0862
  798MOL0     H10081   2.181   6.409   7.028  0.9298  0.3190 -2.7523
  798MOL0     H10082   2.417   6.453   7.111 -2.5296  1.6443 -0.6378
  798MOL0     H10083   2.554   6.626   7.123  1.3936  0.4417  0.8012
  798MOL0     H10084   2.683   6.563   7.238  0.6404  1.0701 -0.0294
  798MOL0     H10085   2.594   6.714   7.261 -1.1150  0.7486 -1.9598
  798MOL0     H10086   2.485   6.780   7.832 -2.0060 -3.3893  1.4123
  798MOL0     H10087   2.648   6.881   7.973 -2.7068  0.4838 -2.8148
  798MOL0     H10088   2.847   6.985   7.996 -1.5279 -1.0345  1.8173
  798MOL0     H10089   2.978   6.935   8.116 -1.1213 -2.9639  1.1690
  798MOL0     H10090   2.997   6.924   7.802  1.7436  3.5947 -1.0458
  798MOL0     H10091   3.081   7.033   7.908  1.1090 -0.0619  4.6672
  798MOL0     H10092   3.117   6.731   7.894 -0.7052  0.1238  0.2400
  798MOL0     H10093   3.202   6.835   8.012  0.3791  1.0120 -0.2125
  798MOL0     H10094   3.308   6.961   7.822 -0.4178  0.2521 -0.9330
  798MOL0     H10095   3.215   6.865   7.707  0.1470  0.3268  0.5276
  798MOL0     H10096   3.427   6.783   7.928  1.7905 -3.0478 -1.0186
  798MOL0     H10097   3.365   6.660   7.838  1.0861 -1.2139  2.9032
  798MOL0     H10098   3.553   6.896   7.749  1.1180  0.4906 -0.6788
  798MOL0     H10099   3.493   6.787   7.631 -4.5578  4.6584  0.6338
  798MOL0     H10100   3.631   6.684   7.886  1.6887  1.6642  0.0482
  798MOL0     H10101   3.719   6.708   7.730 -0.0615  3.0591  1.8976
  798MOL0     H10102   3.576   6.569   7.624  1.9251  2.4502  0.3095
  798MOL0     H10103   3.489   6.505   7.772  0.2713 -1.2524  0.6992
  798MOL0     H10104   2.942   6.609   7.859  0.7302  0.7354 -1.8605
  798MOL0     H10105   2.781   6.493   7.704  1.7657  0.0593  2.4117
  798MOL0     H10106   2.356   6.426   7.594  0.6992  0.8917  0.5389
  798MOL0     H10107   2.205   6.299   7.435  0.7740 -1.2713  0.3296
  798MOL0     H10108   0.672   5.337   7.063 -3.6660 -1.4389 -3.4841
  798MOL0     H10109   0.469   5.342   6.999  2.4576  0.1043 -0.3317
  798MOL0     H10110   0.115   5.446   6.833 -1.9037  0.7367  1.0164
  798MOL0     H10111  -0.075   5.406   6.704  3.2116 -1.5647  0.0002
  798MOL0     H10112  -0.355   5.442   6.730 -1.8074 -0.6597 -0.6104
  798MOL0     H10113  -0.331   5.580   6.838  2.2222 -0.7623 -0.8388
  798MOL0     H10114  -0.511   5.573   6.585 -1.3443  1.8479  0.0493
  798MOL0     H10115  -0.500   5.708   6.697 -1.6881 -0.6738  4.5476
  798MOL0     H10116  -0.705   5.561   6.728 -0.1300 -0.5189  0.1903
  798MOL0     H10117  -0.593   5.429   6.766 -0.1658 -0.2903  2.0667
  798MOL0     H10118  -0.526   5.556   6.974  0.8031  0.8027 -0.8181
  798MOL0     H10119  -0.694   5.541   6.975  2.6243  0.2788  3.4923
  798MOL0     H10120  -0.661   5.955   6.922  0.6179  0.2720  1.9815
  798MOL0     H10121  -0.166   5.814   6.694 -2.5141 -0.5035  1.3500
  798MOL0     H10122  -0.039   5.979   6.815  0.5640  0.0802 -0.4526
  798MOL0     H10123   0.007   5.903   6.968 -1.6540  2.0707 -0.6253
  798MOL0     H10124   0.130   5.956   6.854 -0.6493  1.5078 -3.7212
  799MOL0     O10125   1.761  10.183   2.656 -0.3302 -0.1522  0.6696
  799MOL0     C10126   1.787  10.194   2.772  0.1140  0.4481  0.1463
  799MOL0     O10127   1.692  10.222   2.860  0.4574  0.4674 -0.4781
  799MOL0     C10128   1.553  10.215   2.833 -0.3075  0.6470  1.0778
  799MOL0     C10129   1.467  10.325   2.856  0.1022 -0.1429  0.0211
  799MOL0     C10130   1.326  10.305   2.832  0.5459 -0.1383 -0.1029
  799MOL0     C10131   1.279  10.180   2.784 -0.3249  0.1467  1.6571
  799MOL0     O10132   1.152  10.146   2.767 -0.0238 -0.0931 -0.5569
  799MOL0     C10133   1.053  10.245   2.757 -0.2388 -0.7244  0.6308
  799MOL0     C10134   1.061  10.302   2.615  0.9242 -0.6515 -0.2538
  799MOL0     C10135   1.113  10.223   2.499 -0.1470  0.7324 -0.1739
  799MOL0     C10136   1.042  10.090   2.468  0.3647 -0.1631  0.3658
  799MOL0     C10137   1.100  10.036   2.320  0.9125  0.0446 -0.0968
  799MOL0     C10138   1.255  10.063   2.286  0.1386  0.9211 -0.4719
  799MOL0     C10139   1.357   9.994   2.372  0.0285  0.0011  0.0147
  799MOL0     C10140   1.324   9.847   2.420 -0.2191 -0.2238  0.2865
  799MOL0     N10141   1.357   9.756   2.311  0.1792  0.2220  0.5031
  799MOL0     C10142   1.285   9.648   2.270 -0.2774  0.6660 -0.6610
  799MOL0     C10143   1.351   9.594   2.162  0.5933 -0.1614  0.2649
  799MOL0     C10144   1.311   9.473   2.088  0.0642 -1.2443  0.4312
  799MOL0     C10145   1.373   9.354   2.164 -0.1357 -0.2192 -0.9012
  799MOL0     C10146   1.426   9.255   2.061  0.2200  0.2393  0.0573
  799MOL0     C10147   1.561   9.297   2.007  0.1048  0.2989  0.6873
  799MOL0     O10148   1.661   9.290   2.111  0.6843  0.3512 -0.2655
  799MOL0     C10149   1.753   9.380   2.093 -0.9992  1.0763  0.3277
  799MOL0     C10150   1.822   9.393   1.969  0.3079 -0.2971 -0.6383
  799MOL0     C10151   1.927   9.490   1.942  0.5433  0.0844 -0.9291
  799MOL0     C10152   1.968   9.511   1.799 -0.6705  0.5036 -0.4691
  799MOL0     C10153   1.980   9.557   2.061 -0.1913  0.0373 -0.3792
  799MOL0     C10154   2.104   9.643   2.062  1.2405  1.1309  0.2767
  799MOL0     O10155   2.139   9.699   2.185 -0.2824 -0.5333 -0.2707
  799MOL0     C10156   2.225   9.803   2.189  0.2506 -0.2477 -0.6211
  799MOL0     C10157   2.290   9.810   2.313 -0.1581 -0.0398  0.5614
  799MOL0     C10158   2.374   9.920   2.343  0.8554 -0.4592  0.3907
  799MOL0     C10159   2.385  10.025   2.250  0.5935 -0.1397  0.1290
  799MOL0     O10160   2.454  10.140   2.268 -0.5596 -0.1649 -0.2010
  799MOL0     C10161   2.544  10.144   2.370 -0.2490  0.1981 -0.3968
  799MOL0     C10162   2.605  10.286   2.372 -0.4789 -0.6452 -0.8597
  799MOL0     C10163   2.721  10.303   2.277 -1.1079  0.4231 -0.4131
  799MOL0     C10164   2.865  10.262   2.334  0.6626  0.0713 -0.0734
  799MOL0     C10165   2.974  10.250   2.226  0.0199 -0.5713  1.3459
  799MOL0     C10166   3.105  10.182   2.280  0.6210 -0.2778  0.3069
  799MOL0     C10167   3.211  10.169   2.174  0.3371 -0.8568  0.0794
  799MOL0     C10168   3.314  10.279   2.201 -0.3685 -0.1207  0.0455
  799MOL0    Cl10169   3.250  10.436   2.147 -0.1051  0.3315 -0.1173
  799MOL0     C10170   2.324  10.009   2.122 -0.4414  0.1069  0.2975
  799MOL0     C10171   2.245   9.900   2.092 -0.0282  0.2108  0.0632
  799MOL0     O10172   2.172   9.662   1.954  0.7397  0.3695 -0.7155
  799MOL0     C10173   1.914   9.532   2.186  0.9845  0.0914  0.1829
  799MOL0     C10174   1.804   9.448   2.198  0.3132  0.7098  0.1389
  799MOL0     N10175   1.467   9.667   2.147 -0.8858 -0.0955  0.2014
  799MOL0     N10176   1.466   9.765   2.234  1.1305 -0.8724  0.4857
  799MOL0     C10177   1.369  10.079   2.773  0.0125 -0.2372 -0.6654
  799MOL0     C10178   1.503  10.094   2.806  0.8741 -0.6018  0.9013
  799MOL0     C10179   1.930  10.191   2.813  0.3334  0.2745  0.4598
  799MOL0     C10180   1.954  10.218   2.950  0.0889  0.0951  0.1510
  799MOL0     C10181   2.078  10.210   3.016  1.3283 -1.1475 -0.2071
  799MOL0     C10182   2.194  10.184   2.942  0.3843  0.3370 -0.8375
  799MOL0     O10183   2.320  10.168   2.997  0.6079 -0.1511  0.5651
  799MOL0     C10184   2.366  10.249   3.109  0.9260 -0.5789  0.4567
  799MOL0     C10185   2.414  10.154   3.224  0.3888 -0.1642  1.2225
  799MOL0     C10186   2.548  10.085   3.198 -0.0593 -0.4153 -0.0579
  799MOL0     C10187   2.604  10.016   3.329  0.1138  0.1127 -0.1578
  799MOL0     C10188   2.637   9.869   3.314 -0.0823 -0.8421 -0.6969
  799MOL0     C10189   2.662   9.751   3.319  0.5083  0.0091  0.3314
  799MOL0     C10190   2.179  10.152   2.807 -0.2948 -0.7881 -0.0994
  799MOL0     C10191   2.053  10.148   2.742 -0.6561 -0.1494 -0.1559
  799MOL0     C10192   2.045  10.115   2.598 -0.8422 -0.5625  0.5226
  799MOL0     H10193   1.509  10.420   2.887  2.0384 -1.4185  1.5191
  799MOL0     H10194   1.260  10.384   2.866 -1.2471 -1.1817 -0.9979
  799MOL0     H10195   1.054  10.326   2.829  0.1814 -0.1647  0.0116
  799MOL0     H10196   0.957  10.193   2.769 -3.1760  2.9402 -3.5504
  799MOL0     H10197   0.959  10.326   2.585  1.0417 -2.1888 -2.0270
  799MOL0     H10198   1.118  10.394   2.604 -0.0594 -0.1155 -1.0099
  799MOL0     H10199   1.105  10.295   2.417  2.7322  2.9749  1.3553
  799MOL0     H10200   1.220  10.208   2.518 -0.5478 -0.4412  1.3123
  799MOL0     H10201   1.055  10.020   2.552 -0.3607  1.2879  1.7505
  799MOL0     H10202   0.935  10.108   2.459 -0.1981 -1.4904  3.2651
  799MOL0     H10203   1.034  10.086   2.248 -0.8276 -0.4208  1.1042
  799MOL0     H10204   1.069   9.932   2.307  0.3853  0.1551  0.2183
  799MOL0     H10205   1.257  10.007   2.192 -0.3047 -1.7937  1.0424
  799MOL0     H10206   1.267  10.171   2.280 -1.7936  1.6659  4.6242
  799MOL0     H10207   1.365  10.054   2.463  2.2280 -0.0500 -0.0886
  799MOL0     H10208   1.455  10.005   2.325  0.2956 -2.8807 -0.2954
  799MOL0     H10209   1.388   9.825   2.507 -1.2818  1.8540  1.6609
  799MOL0     H10210   1.221   9.841   2.454 -0.7888 -1.6586 -1.5146
  799MOL0     H10211   1.195   9.601   2.309  1.1332  0.1196  2.2036
  799MOL0     H10212   1.335   9.478   1.981 -1.9930  0.3380 -0.0178
  799MOL0     H10213   1.203   9.457   2.084 -0.4590  1.9848 -1.7312
  799MOL0     H10214   1.460   9.374   2.227  1.4694  5.2098 -4.1640
  799MOL0     H10215   1.292   9.312   2.225 -1.6487  0.7629 -2.1453
  799MOL0     H10216   1.432   9.155   2.103  0.5771  0.4424  0.4994
  799MOL0     H10217   1.351   9.250   1.982 -1.6037 -2.5056  1.8242
  799MOL0     H10218   1.603   9.236   1.926 -0.8555  1.7205 -0.9781
  799MOL0     H10219   1.559   9.400   1.968  5.1011  1.1002  1.8566
  799MOL0     H10220   1.785   9.340   1.882  3.1123  0.0430 -2.1618
  799MOL0     H10221   1.974   9.621   1.801 -1.2012  0.5662  2.0349
  799MOL0     H10222   1.892   9.480   1.727  1.1024 -2.5961 -1.1871
  799MOL0     H10223   2.065   9.467   1.777 -0.9354  0.2968 -1.2479
  799MOL0     H10224   2.282   9.729   2.384 -0.4212 -0.5864 -0.0785
  799MOL0     H10225   2.430   9.925   2.436  0.0069  1.2873  0.8679
  799MOL0     H10226   2.497  10.121   2.466 -1.2187 -3.3789 -1.5660
  799MOL0     H10227   2.625  10.075   2.344 -0.3343  0.7621 -2.3217
  799MOL0     H10228   2.528  10.352   2.330 -1.6052 -2.2687 -1.4590
  799MOL0     H10229   2.637  10.302   2.476 -1.8107  0.1250 -0.5404
  799MOL0     H10230   2.740  10.409   2.254  0.7484  0.6706  1.8261
  799MOL0     H10231   2.691  10.251   2.186 -2.9963  0.2041  0.2946
  799MOL0     H10232   2.856  10.165   2.385 -1.8484 -0.9202 -2.1570
  799MOL0     H10233   2.896  10.341   2.402  2.5335  0.3462 -1.1868
  799MOL0     H10234   2.933  10.190   2.144  3.5444 -2.8464  1.0436
  799MOL0     H10235   2.992  10.355   2.203 -1.3400 -0.3721  1.0726
  799MOL0     H10236   3.085  10.078   2.308  1.4438 -0.6166 -0.3232
  799MOL0     H10237   3.135  10.229   2.374  0.9341  2.1026 -0.9034
  799MOL0     H10238   3.163  10.189   2.078 -1.2863 -1.4165  0.7284
  799MOL0     H10239   3.252  10.068   2.178  2.8438 -0.1016 -2.9345
  799MOL0     H10240   3.409  10.256   2.152 -1.7871 -0.7504 -2.6046
  799MOL0     H10241   3.340  10.299   2.306 -2.1033  0.4651  0.3928
  799MOL0     H10242   2.338  10.093   2.054 -3.7060  3.8532  3.7305
  799MOL0     H10243   2.194   9.906   1.996 -0.6556 -0.2996  0.3546
  799MOL0     H10244   1.945   9.586   2.274  2.9632  2.7316 -1.9456
  799MOL0     H10245   1.752   9.440   2.293  3.8099 -0.0005  2.1680
  799MOL0     H10246   1.352   9.978   2.737  1.2674 -0.3533 -0.9949
  799MOL0     H10247   1.560  10.001   2.812 -1.2563 -2.1955 -1.3276
  799MOL0     H10248   1.865  10.237   3.008  1.6828 -0.1083  2.8104
  799MOL0     H10249   2.088  10.222   3.123  1.7467  0.6538 -0.4161
  799MOL0     H10250   2.451  10.310   3.077  2.1288 -2.0178  0.8214
  799MOL0     H10251   2.285  10.316   3.138 -1.9359 -3.5300 -0.0730
  799MOL0     H10252   2.344  10.071   3.231 -0.4769  0.4241 -0.0219
  799MOL0     H10253   2.414  10.224   3.308  1.2455  1.4933 -0.0963
  799MOL0     H10254   2.558  10.008   3.121  1.7982  0.3344 -0.6020
  799MOL0     H10255   2.610  10.172   3.178  0.3457 -0.4478  0.9639
  799MOL0     H10256   2.543  10.026   3.418  0.5316  3.3095 -0.1227
  799MOL0     H10257   2.693  10.070   3.362 -0.8255  0.1480  2.4995
  799MOL0     H10258   2.674   9.644   3.313  0.0091 -0.2245  2.4504
  799MOL0     H10259   2.271  10.125   2.758 -1.9697 -1.0070 -3.4228
  799MOL0     H10260   2.142  10.106   2.548 -0.5290  0.0520  1.0082
  799MOL0     H10261   2.005  10.015   2.577 -0.1459 -1.0933  1.6028
  799MOL0     H10262   1.983  10.185   2.541 -0.7093  0.5491  1.7115
  800MOL0     O10263   7.960   8.602   8.181 -0.0639  0.5849 -0.5797
  800MOL0     C10264   7.863   8.618   8.111  0.0524  0.3544 -1.3089
  800MOL0     O10265   7.753   8.692   8.154 -0.1386  0.1391  1.3201
  800MOL0     C10266   7.749   8.812   8.212  0.3120  0.0478  0.2222
  800MOL0     C10267   7.839   8.905   8.160 -0.7186  0.1746 -0.1122
  800MOL0     C10268   7.864   9.028   8.217  0.4776  0.8949 -0.9434
  800MOL0     C10269   7.779   9.065   8.324 -0.0948  0.7091 -0.3022
  800MOL0     O10270   7.817   9.181   8.380  0.6846 -0.0049 -0.0425
  800MOL0     C10271   7.816   9.177   8.525 -0.5382 -0.7139  0.9036
  800MOL0     C10272   7.854   9.310   8.597 -1.1903 -0.5861 -0.3493
  800MOL0     C10273   7.767   9.351   8.710 -0.3084 -0.6027 -0.2885
  800MOL0     C10274   7.620   9.390   8.676 -0.0196  0.5509 -0.0356
  800MOL0     C10275   7.543   9.458   8.783  0.6235  0.1165  0.8184
  800MOL0     C10276   7.562   9.398   8.927  0.1644  0.1845  0.6718
  800MOL0     C10277   7.497   9.475   9.037 -0.0604  0.4971  0.1277
  800MOL0     C10278   7.559   9.615   9.059  0.2115 -0.4547 -0.1513
  800MOL0     N10279   7.512   9.671   9.188  0.2229  0.4466 -0.0171
  800MOL0     C10280   7.379   9.715   9.212  0.7875  0.1029  0.6138
  800MOL0     C10281   7.364   9.719   9.343 -0.0122  0.7146  0.4700
  800MOL0     C10282   7.230   9.756   9.396 -0.3738 -0.1707 -0.3612
  800MOL0     C10283   7.250   9.802   9.546  0.2326  0.1458 -0.3590
  800MOL0     C10284   7.351   9.911   9.562 -0.1066  0.8757  0.3095
  800MOL0     C10285   7.343   9.985   9.696 -0.4971  0.5126  0.4527
  800MOL0     O10286   7.421   9.918   9.800  0.2675  0.1100  0.0653
  800MOL0     C10287   7.359   9.823   9.875  0.1027  0.5741  1.3392
  800MOL0     C10288   7.444   9.740   9.950  0.2769  1.0372  0.4476
  800MOL0     C10289   7.403   9.637  10.034  0.7266 -0.1452  0.0860
  800MOL0     C10290   7.507   9.580  10.130 -0.4220 -0.0463 -0.2547
  800MOL0     C10291   7.262   9.608  10.026  0.8028  0.4937  0.4917
  800MOL0     C10292   7.197   9.517  10.125 -0.6656  0.6263 -0.4617
  800MOL0     O10293   7.281   9.440  10.201  0.0652  0.2077 -0.5038
  800MOL0     C10294   7.238   9.354  10.304 -0.3608  0.5762  0.2320
  800MOL0     C10295   7.308   9.363  10.426  0.5277 -0.0125  0.1938
  800MOL0     C10296   7.258   9.284  10.536 -0.6422 -0.8652  0.4015
  800MOL0     C10297   7.160   9.186  10.531 -0.6845  0.0298  0.4571
  800MOL0     O10298   7.122   9.105  10.631 -0.7151  0.0211 -0.4049
  800MOL0     C10299   7.230   9.022  10.678 -0.7379  0.3451  0.6261
  800MOL0     C10300   7.170   8.902  10.748 -0.5226 -0.4241 -0.4653
  800MOL0     C10301   7.107   8.799  10.656 -0.4172 -0.2816  1.3332
  800MOL0     C10302   6.944   8.796  10.664 -0.1118 -1.1944 -0.1774
  800MOL0     C10303   6.889   8.698  10.774  0.6505 -0.9715 -0.7522
  800MOL0     C10304   6.764   8.738  10.838 -0.9128 -0.4694  0.6987
  800MOL0     C10305   6.781   8.846  10.947 -0.0175 -0.4643  1.0963
  800MOL0     C10306   6.653   8.837  11.034  0.4793  0.4916  0.1514
  800MOL0    Cl10307   6.494   8.850  10.955 -0.2646  0.1485 -0.1332
  800MOL0     C10308   7.091   9.184  10.405 -0.4439 -0.4423  0.7400
  800MOL0     C10309   7.123   9.271  10.300  0.3405 -0.8623 -0.4762
  800MOL0     O10310   7.078   9.520  10.135 -0.0838  0.2950  0.2462
  800MOL0     C10311   7.174   9.686   9.940  0.3109  0.0611 -0.3070
  800MOL0     C10312   7.219   9.791   9.872  0.5436 -0.4362  0.3481
  800MOL0     N10313   7.488   9.676   9.401 -0.6382  0.3137 -0.4873
  800MOL0     N10314   7.575   9.655   9.305 -0.3637 -0.5302  0.3422
  800MOL0     C10315   7.683   8.974   8.375  0.7826 -0.1006 -0.4874
  800MOL0     C10316   7.654   8.851   8.308  0.0292 -0.3718 -0.1660
  800MOL0     C10317   7.846   8.514   8.007  1.5529  0.4959 -1.0207
  800MOL0     C10318   7.964   8.481   7.929  0.1759  0.5640 -0.1414
  800MOL0     C10319   7.958   8.386   7.824 -0.1841 -0.2944 -0.0863
  800MOL0     C10320   7.834   8.329   7.792  0.9842 -0.5457 -0.6834
  800MOL0     O10321   7.820   8.239   7.690 -0.5448 -0.4388  0.3306
  800MOL0     C10322   7.861   8.296   7.566 -0.9371  0.1581 -0.0851
  800MOL0     C10323   7.854   8.193   7.455 -0.9694 -0.0799  0.6192
  800MOL0     C10324   7.703   8.149   7.432 -0.5194 -0.0914 -0.1303
  800MOL0     C10325   7.688   8.100   7.292  0.0601 -0.3990  1.0694
  800MOL0     C10326   7.664   8.219   7.208 -0.8429  0.5674  0.0926
  800MOL0     C10327   7.649   8.324   7.149 -0.4127  1.0296  0.8497
  800MOL0     C10328   7.722   8.348   7.878  0.2158 -0.7133  0.5826
  800MOL0     C10329   7.733   8.435   7.986  0.7632 -0.6704  0.1448
  800MOL0     C10330   7.614   8.445   8.082 -0.0377 -0.6818 -0.3093
  800MOL0     H10331   7.906   8.880   8.078 -0.6053  0.0044  0.0302
  800MOL0     H10332   7.943   9.085   8.169 -0.2414  0.5677 -2.5778
  800MOL0     H10333   7.871   9.092   8.565 -0.3576 -2.6796 -2.9658
  800MOL0     H10334   7.713   9.152   8.555 -0.7362 -0.9441  0.0841
  800MOL0     H10335   7.957   9.305   8.635 -1.2279  0.9001  0.0199
  800MOL0     H10336   7.848   9.391   8.523 -0.8946  0.2585  0.5288
  800MOL0     H10337   7.760   9.262   8.774 -1.2770 -3.5136 -4.0877
  800MOL0     H10338   7.825   9.429   8.760 -0.9867  1.6222 -2.7715
  800MOL0     H10339   7.620   9.456   8.589  0.8982  1.0410  0.3162
  800MOL0     H10340   7.563   9.302   8.645 -0.6314  0.8038  0.3414
  800MOL0     H10341   7.439   9.456   8.750  0.7221  0.4782  0.4653
  800MOL0     H10342   7.567   9.565   8.785 -1.1333  0.5351  1.8871
  800MOL0     H10343   7.529   9.294   8.920  0.4157  0.1259  0.3441
  800MOL0     H10344   7.667   9.392   8.959 -0.7895  2.1603  4.9297
  800MOL0     H10345   7.494   9.415   9.129  0.3380  0.1429 -0.0861
  800MOL0     H10346   7.391   9.472   9.009 -0.6553 -1.0607  2.2929
  800MOL0     H10347   7.667   9.599   9.058  0.5544  1.2972  1.5000
  800MOL0     H10348   7.528   9.684   8.981  1.6791 -0.6689 -0.9548
  800MOL0     H10349   7.293   9.737   9.150 -0.0257 -1.3611  1.1819
  800MOL0     H10350   7.153   9.678   9.399  0.4083 -0.9460  1.0603
  800MOL0     H10351   7.195   9.843   9.340  2.3764  2.4025  1.5891
  800MOL0     H10352   7.150   9.834   9.578  2.0834  3.8804  2.5375
  800MOL0     H10353   7.276   9.708   9.594 -0.1193 -2.5563 -4.9051
  800MOL0     H10354   7.454   9.875   9.573 -0.7669 -1.1236  0.4497
  800MOL0     H10355   7.335   9.982   9.481 -1.5174 -1.1117 -1.2620
  800MOL0     H10356   7.386  10.085   9.682 -2.2653  1.3972  0.9575
  800MOL0     H10357   7.236  10.002   9.714 -1.6901 -3.3966 -1.7701
  800MOL0     H10358   7.549   9.768   9.946  0.4222  0.6020  1.0734
  800MOL0     H10359   7.605   9.629  10.126 -0.6801  0.4072 -1.1450
  800MOL0     H10360   7.513   9.473  10.108  0.0040  0.0107 -0.4140
  800MOL0     H10361   7.466   9.590  10.231  0.2295  1.3157 -0.1025
  800MOL0     H10362   7.398   9.419  10.448  1.8986 -2.1115  0.2612
  800MOL0     H10363   7.296   9.314  10.633  1.3925 -1.0625 -0.2944
  800MOL0     H10364   7.284   8.992  10.588  0.9295  0.2224  1.6273
  800MOL0     H10365   7.306   9.068  10.742  0.8361 -0.4607 -0.5833
  800MOL0     H10366   7.258   8.849  10.788 -2.9911 -4.1710  0.5114
  800MOL0     H10367   7.112   8.924  10.838  1.3121 -0.9502  0.9106
  800MOL0     H10368   7.151   8.703  10.685  2.4774  0.8853  1.0644
  800MOL0     H10369   7.135   8.827  10.554 -1.3798 -1.9912  0.5368
  800MOL0     H10370   6.893   8.770  10.572 -3.2742  0.7506  0.8841
  800MOL0     H10371   6.926   8.901  10.689  2.7620  0.1783 -3.1300
  800MOL0     H10372   6.875   8.609  10.712 -0.1413 -0.3875 -1.4364
  800MOL0     H10373   6.964   8.673  10.849  0.9669  2.6883  0.3610
  800MOL0     H10374   6.699   8.653  10.863  0.3881 -2.3252 -1.7900
  800MOL0     H10375   6.703   8.791  10.764  0.1924  1.1733  0.9220
  800MOL0     H10376   6.801   8.946  10.907 -1.6769 -0.7250 -0.5535
  800MOL0     H10377   6.870   8.823  11.006  0.9644 -1.0429 -0.5519
  800MOL0     H10378   6.652   8.917  11.109 -4.1541 -0.3027  1.2629
  800MOL0     H10379   6.643   8.743  11.088 -1.3488  0.0660 -0.8494
  800MOL0     H10380   7.002   9.123  10.406  0.3314 -1.9709 -3.4046
  800MOL0     H10381   7.055   9.272  10.216 -0.5341 -2.2534  0.1780
  800MOL0     H10382   7.073   9.650   9.926  1.7920 -3.8276 -2.6200
  800MOL0     H10383   7.151   9.851   9.812  2.5051 -0.4619 -2.0397
  800MOL0     H10384   7.631   9.005   8.466 -0.2364  1.1583 -1.4486
  800MOL0     H10385   7.583   8.778   8.345 -2.3323 -0.1550 -3.7307
  800MOL0     H10386   8.050   8.546   7.923  0.3005  0.3539 -0.7951
  800MOL0     H10387   8.045   8.366   7.763 -1.2282  2.2745 -2.6977
  800MOL0     H10388   7.819   8.396   7.550 -1.7027 -0.0816  0.3745
  800MOL0     H10389   7.967   8.321   7.576 -1.5216  4.3322 -2.1443
  800MOL0     H10390   7.912   8.107   7.490 -0.2135 -0.4567 -1.4036
  800MOL0     H10391   7.897   8.240   7.366 -2.3555  2.5376  1.2223
  800MOL0     H10392   7.695   8.066   7.503 -2.4695  1.5497  1.7054
  800MOL0     H10393   7.628   8.222   7.465 -0.3329  0.4851 -0.9690
  800MOL0     H10394   7.599   8.036   7.286  1.4885 -2.3261 -1.7478
  800MOL0     H10395   7.777   8.049   7.252  0.8247 -0.0347  2.2578
  800MOL0     H10396   7.625   8.420   7.108  3.0346  0.5850 -2.8018
  800MOL0     H10397   7.628   8.296   7.862 -0.0738 -0.5825  1.7787
  800MOL0     H10398   7.549   8.358   8.068  2.1993 -2.4517 -0.4127
  800MOL0     H10399   7.642   8.443   8.188 -0.1717 -1.1164 -0.2782
  800MOL0     H10400   7.561   8.539   8.067  1.2351  0.1304  0.1231
  801MOL0     O10401  10.583   8.466   2.554  0.2645 -0.4592  0.6413
  801MOL0     C10402  10.607   8.355   2.594 -0.5154  0.5375 -0.1286
  801MOL0     O10403  10.727   8.291   2.555  1.1508  0.0157 -0.1465
  801MOL0     C10404  10.835   8.381   2.533  0.6373 -0.1191 -0.5434
  801MOL0     C10405  10.921   8.336   2.438 -1.0946  0.1217  0.3664
  801MOL0     C10406  11.043   8.407   2.417  0.2230  0.5955  0.3190
  801MOL0     C10407  11.065   8.534   2.474 -0.0708  1.3723  0.0496
  801MOL0     O10408  11.175   8.603   2.448 -0.3874 -0.1584  0.2111
  801MOL0     C10409  11.250   8.562   2.332 -0.2924 -0.0978 -0.2284
  801MOL0     C10410  11.301   8.695   2.261 -0.2357  1.2291  1.8579
  801MOL0     C10411  11.199   8.801   2.228  0.1573 -1.0871 -0.1816
  801MOL0     C10412  11.254   8.940   2.272  0.0581  0.0017  0.1569
  801MOL0     C10413  11.167   9.051   2.220  1.6716 -0.6979 -0.0492
  801MOL0     C10414  11.197   9.195   2.257  0.2111  0.4955 -0.3221
  801MOL0     C10415  11.072   9.285   2.264 -0.2018 -0.0885 -0.6567
  801MOL0     C10416  11.046   9.343   2.123  0.3441 -0.2477 -0.1002
  801MOL0     N10417  10.939   9.449   2.131  0.2437 -0.2239 -0.2377
  801MOL0     C10418  10.802   9.434   2.100 -0.6255 -0.1996 -0.2136
  801MOL0     C10419  10.741   9.547   2.137  0.6575 -0.2024 -1.2416
  801MOL0     C10420  10.598   9.583   2.110 -0.3609  0.0036  0.4101
  801MOL0     C10421  10.584   9.600   1.952  0.1350  0.2016 -0.1949
  801MOL0     C10422  10.455   9.526   1.897 -0.4338 -0.9079  0.1779
  801MOL0     C10423  10.415   9.552   1.756  0.0844 -0.3170  1.1009
  801MOL0     O10424  10.525   9.542   1.660  0.1595  1.2088 -0.2030
  801MOL0     C10425  10.499   9.573   1.531 -0.5328  0.4052  0.1351
  801MOL0     C10426  10.375   9.629   1.481  0.1114  1.0142  1.0047
  801MOL0     C10427  10.360   9.655   1.341  0.7128  0.0965 -0.4790
  801MOL0     C10428  10.241   9.737   1.294  0.3354  0.7059 -0.5583
  801MOL0     C10429  10.465   9.616   1.256 -0.7543 -0.4058 -0.6437
  801MOL0     C10430  10.462   9.637   1.112 -0.7901  1.2914  0.1652
  801MOL0     O10431  10.574   9.699   1.058  0.1312 -0.3114  0.1790
  801MOL0     C10432  10.584   9.701   0.922  0.6432  1.0851  0.2275
  801MOL0     C10433  10.670   9.608   0.863 -0.5980  0.0045 -0.3838
  801MOL0     C10434  10.707   9.623   0.735  0.1913 -0.1810  0.6528
  801MOL0     C10435  10.669   9.736   0.658  0.2248  0.3826  1.3449
  801MOL0     O10436  10.708   9.751   0.529 -0.3323  0.5021 -0.1010
  801MOL0     C10437  10.637   9.655   0.445  0.4411  0.0062  0.4900
  801MOL0     C10438  10.629   9.719   0.307  0.4099  0.2327  0.3802
  801MOL0     C10439  10.542   9.849   0.320 -1.4384 -0.4252 -0.3463
  801MOL0     C10440  10.482   9.916   0.199 -0.2921  1.4960  0.7132
  801MOL0     C10441  10.398  10.046   0.219  0.4687 -0.6652  0.5760
  801MOL0     C10442  10.400  10.113   0.080 -1.0084  0.5695  0.5367
  801MOL0     C10443  10.348  10.254   0.081  0.4406 -0.0022 -0.8402
  801MOL0     C10444  10.315  10.314  -0.048 -0.1032  0.5086 -0.3275
  801MOL0    Cl10445  10.213  10.477  -0.033 -0.3306  0.1569  0.0061
  801MOL0     C10446  10.574   9.819   0.710  0.6292 -0.1399  0.1949
  801MOL0     C10447  10.530   9.806   0.844  0.5503 -0.0353  0.9763
  801MOL0     O10448  10.369   9.604   1.047 -0.7370  0.7969  0.5042
  801MOL0     C10449  10.585   9.563   1.310  0.7675  0.9148  0.4780
  801MOL0     C10450  10.602   9.546   1.446 -0.3692 -0.1709 -0.2020
  801MOL0     N10451  10.839   9.631   2.196  0.6823  0.2933  1.9329
  801MOL0     N10452  10.956   9.570   2.193  0.4813  0.7951 -0.7040
  801MOL0     C10453  10.978   8.574   2.576  0.1985 -0.7934  0.1493
  801MOL0     C10454  10.861   8.503   2.599 -1.0603  0.2518  1.0872
  801MOL0     C10455  10.508   8.264   2.650 -0.2002 -0.3649  0.1124
  801MOL0     C10456  10.537   8.129   2.672  0.1776 -0.3356  0.5378
  801MOL0     C10457  10.447   8.038   2.701  0.4351  0.1491 -0.4907
  801MOL0     C10458  10.311   8.071   2.718 -0.0308  1.0771  0.7996
  801MOL0     O10459  10.217   7.975   2.761 -0.7774  0.0506  0.1781
  801MOL0     C10460  10.084   8.000   2.723  0.6980  0.1145 -0.3520
  801MOL0     C10461  10.003   7.873   2.717  0.7446  0.0322  0.1708
  801MOL0     C10462   9.994   7.825   2.858 -0.0597 -0.2827  0.4194
  801MOL0     C10463   9.902   7.698   2.854 -0.6501  0.1056  0.5444
  801MOL0     C10464   9.976   7.574   2.863  0.7867  1.0274  0.4323
  801MOL0     C10465  10.044   7.482   2.895 -0.2352  0.2207 -0.0561
  801MOL0     C10466  10.281   8.204   2.712 -0.8704 -0.2790  0.0040
  801MOL0     C10467  10.378   8.307   2.672 -0.3366  1.4595  0.5937
  801MOL0     C10468  10.329   8.448   2.653 -0.6580 -0.0874 -0.2217
  801MOL0     H10469  10.897   8.246   2.383  1.2894 -1.1588  1.2672
  801MOL0     H10470  11.114   8.362   2.349 -0.0119  1.0830 -0.2526
  801MOL0     H10471  11.187   8.521   2.253 -0.2934 -0.6705  0.0636
  801MOL0     H10472  11.338   8.499   2.349 -1.1364 -1.9910 -2.4405
  801MOL0     H10473  11.382   8.748   2.311  0.4298  0.1928  1.9067
  801MOL0     H10474  11.339   8.672   2.161 -3.7756 -0.8987  0.8087
  801MOL0     H10475  11.172   8.806   2.122  1.7777 -0.1116 -0.5745
  801MOL0     H10476  11.106   8.760   2.271  0.9826 -0.9206  1.8821
  801MOL0     H10477  11.267   8.935   2.381  0.4868  0.3378  0.1241
  801MOL0     H10478  11.351   8.948   2.223  2.1843  0.8067  4.0872
  801MOL0     H10479  11.073   9.027   2.271  0.1984  1.7960 -1.3824
  801MOL0     H10480  11.138   9.047   2.115  0.6717 -2.4908  0.2717
  801MOL0     H10481  11.233   9.200   2.360  1.2876  0.5149 -0.6871
  801MOL0     H10482  11.271   9.238   2.189  0.1918 -1.7878 -1.9107
  801MOL0     H10483  11.111   9.362   2.333  1.0476 -1.4693  0.2382
  801MOL0     H10484  10.987   9.226   2.301  0.8933 -2.9742 -2.4448
  801MOL0     H10485  11.141   9.390   2.095  2.2449 -4.0046 -0.5972
  801MOL0     H10486  11.019   9.269   2.046  3.6991 -0.5416 -1.1372
  801MOL0     H10487  10.752   9.341   2.073 -1.1543 -0.2186  0.8160
  801MOL0     H10488  10.567   9.678   2.153  2.1109  0.8015  0.5693
  801MOL0     H10489  10.530   9.509   2.153 -2.2103  0.6013 -1.3458
  801MOL0     H10490  10.588   9.706   1.923  0.4432  1.1379  2.9050
  801MOL0     H10491  10.666   9.555   1.896 -0.3590 -0.0887 -0.6985
  801MOL0     H10492  10.465   9.419   1.917  0.6239 -0.3383  3.1846
  801MOL0     H10493  10.369   9.564   1.955 -2.1155 -0.2351 -2.5667
  801MOL0     H10494  10.344   9.476   1.725 -0.6024 -0.0812  2.0797
  801MOL0     H10495  10.372   9.652   1.745  0.4567  0.0585  2.8117
  801MOL0     H10496  10.290   9.650   1.545  0.2516 -0.9594  1.9048
  801MOL0     H10497  10.233   9.819   1.365  1.4943 -1.7971  2.7129
  801MOL0     H10498  10.147   9.681   1.300  1.2516 -1.0245 -1.6445
  801MOL0     H10499  10.257   9.779   1.194 -0.6682  0.5636 -0.7950
  801MOL0     H10500  10.727   9.535   0.920  1.8851  1.9714 -0.1817
  801MOL0     H10501  10.789   9.562   0.697  0.3651 -0.1909  1.0421
  801MOL0     H10502  10.677   9.554   0.459 -2.2923 -0.7753  4.6066
  801MOL0     H10503  10.539   9.639   0.489 -0.6284 -1.4336 -2.1767
  801MOL0     H10504  10.724   9.749   0.262  0.4008 -1.9183 -1.2157
  801MOL0     H10505  10.571   9.648   0.248  3.0959  0.5828 -2.9620
  801MOL0     H10506  10.606   9.926   0.364 -1.9108 -0.5887  0.6393
  801MOL0     H10507  10.453   9.832   0.380  0.1696 -1.9063  1.7942
  801MOL0     H10508  10.424   9.840   0.147  3.5222 -0.9018 -0.4134
  801MOL0     H10509  10.563   9.946   0.132  0.1694  0.0207  0.5874
  801MOL0     H10510  10.294  10.025   0.246 -1.1463 -0.0641 -4.2257
  801MOL0     H10511  10.444  10.112   0.293 -1.6986  1.3696  0.2388
  801MOL0     H10512  10.354  10.053   0.001 -1.2466  1.5915 -0.1156
  801MOL0     H10513  10.504  10.129   0.051 -1.5163 -0.3514 -2.1038
  801MOL0     H10514  10.427  10.318   0.121 -0.6566  0.5114  0.6318
  801MOL0     H10515  10.259  10.262   0.144 -0.7269 -2.5063 -2.0191
  801MOL0     H10516  10.239  10.253  -0.099 -0.0382 -0.0373  0.2151
  801MOL0     H10517  10.411  10.327  -0.100 -1.1622 -1.1014 -2.9046
  801MOL0     H10518  10.531   9.906   0.661  0.8239  1.8515  3.2555
  801MOL0     H10519  10.441   9.860   0.876 -0.9444 -2.5438  1.3551
  801MOL0     H10520  10.674   9.547   1.249  0.0276 -1.2748 -0.1265
  801MOL0     H10521  10.702   9.513   1.475 -0.0838 -0.2029 -1.1882
  801MOL0     H10522  10.998   8.661   2.637 -1.0188 -0.3246 -0.0752
  801MOL0     H10523  10.791   8.530   2.678  0.1891  0.3294  2.2070
  801MOL0     H10524  10.643   8.105   2.670  0.4060  0.5583  1.0428
  801MOL0     H10525  10.482   7.937   2.720 -0.7485 -0.2123 -0.1964
  801MOL0     H10526  10.037   8.068   2.794  1.4744 -0.4638  0.7473
  801MOL0     H10527  10.078   8.055   2.629  0.3416  1.9304  0.6847
  801MOL0     H10528  10.049   7.808   2.642  0.7708  1.7724 -1.3644
  801MOL0     H10529   9.901   7.890   2.680 -0.1456 -3.0154  0.9120
  801MOL0     H10530  10.097   7.809   2.891  0.9656  0.8770 -1.9831
  801MOL0     H10531   9.931   7.897   2.910  1.1668 -0.5976  2.4138
  801MOL0     H10532   9.845   7.697   2.761 -0.1931 -0.4861  0.2678
  801MOL0     H10533   9.845   7.708   2.946  2.7315  0.1162  2.8335
  801MOL0     H10534  10.102   7.400   2.934  3.4304  1.4384 -2.4226
  801MOL0     H10535  10.176   8.230   2.723 -0.9326 -1.0533  1.5859
  801MOL0     H10536  10.400   8.520   2.695  1.1611 -2.1199  0.3637
  801MOL0     H10537  10.327   8.452   2.544 -2.4524 -0.1414 -0.2119
  801MOL0     H10538  10.233   8.444   2.705  0.3513  1.2368  1.9032
  802MOL0     O10539   4.464   4.411   3.408 -0.2760 -0.8878 -0.6642
  802MOL0     C10540   4.361   4.409   3.340 -0.3129  0.2631 -1.0049
  802MOL0     O10541   4.268   4.311   3.348 -0.6000 -0.3213 -0.7094
  802MOL0     C10542   4.255   4.238   3.460  0.4533  0.4481 -0.6896
  802MOL0     C10543   4.283   4.105   3.454 -0.8450 -0.6677  0.4407
  802MOL0     C10544   4.253   4.016   3.560  0.2789  0.5816  1.4402
  802MOL0     C10545   4.201   4.065   3.677 -0.0424  0.0183  0.1592
  802MOL0     O10546   4.180   3.973   3.776 -0.0787 -0.0735  0.1546
  802MOL0     C10547   4.089   4.020   3.882  0.0183  1.0011  0.2772
  802MOL0     C10548   4.090   3.911   3.989 -0.3430  0.0782 -0.3627
  802MOL0     C10549   3.989   3.943   4.107 -0.3359 -0.4615  0.5741
  802MOL0     C10550   3.848   3.922   4.074  0.4532  0.2237 -0.0235
  802MOL0     C10551   3.756   3.947   4.198 -0.5016 -0.2659  1.3329
  802MOL0     C10552   3.612   3.914   4.154  0.4769  0.0857 -0.5465
  802MOL0     C10553   3.515   3.915   4.280  0.7399  0.4604 -0.3843
  802MOL0     C10554   3.383   3.857   4.228  0.1469 -0.8835  0.5173
  802MOL0     N10555   3.275   3.851   4.334 -0.3122 -0.1600 -0.4220
  802MOL0     C10556   3.153   3.786   4.339  0.8807  0.7806  1.1916
  802MOL0     C10557   3.110   3.792   4.468 -0.1413  0.4027 -0.8665
  802MOL0     C10558   2.983   3.734   4.528  0.0364  0.1326 -0.2778
  802MOL0     C10559   2.849   3.823   4.504  0.3032  0.8894 -0.8300
  802MOL0     C10560   2.876   3.960   4.548 -0.3342  0.6395 -0.4149
  802MOL0     C10561   2.758   4.054   4.534 -0.9124  0.3442 -0.0879
  802MOL0     O10562   2.700   4.050   4.399 -0.5230 -0.1462 -0.0928
  802MOL0     C10563   2.754   4.149   4.322  0.3131  0.9896  0.2476
  802MOL0     C10564   2.816   4.123   4.202  0.7399  1.2278  0.8490
  802MOL0     C10565   2.864   4.219   4.113  0.2509  0.3594  0.2764
  802MOL0     C10566   2.935   4.170   3.986 -0.1678 -0.7841 -0.2998
  802MOL0     C10567   2.849   4.355   4.147 -0.4972  0.1674 -0.0300
  802MOL0     C10568   2.905   4.473   4.065  0.6114  0.3399  0.0485
  802MOL0     O10569   2.930   4.587   4.134  0.0568 -0.4752  0.2684
  802MOL0     C10570   2.973   4.707   4.076  1.2652  1.2041 -0.2508
  802MOL0     C10571   2.935   4.749   3.951  0.2426 -0.5179  0.1483
  802MOL0     C10572   2.999   4.855   3.883 -0.2727 -0.8925 -0.4358
  802MOL0     C10573   3.104   4.923   3.939 -0.0147 -1.1070 -0.4620
  802MOL0     O10574   3.166   5.016   3.863 -0.2977 -0.2821 -0.1664
  802MOL0     C10575   3.307   5.056   3.880  0.5979  0.8023  0.5673
  802MOL0     C10576   3.346   5.159   3.772  0.6454  0.2356 -0.1276
  802MOL0     C10577   3.497   5.182   3.779 -0.0197  0.5765 -0.4349
  802MOL0     C10578   3.537   5.316   3.703 -0.6351 -0.0726  0.7339
  802MOL0     C10579   3.689   5.343   3.684 -0.8470 -0.6298 -0.1205
  802MOL0     C10580   3.714   5.480   3.614  0.0297 -0.1274 -0.2705
  802MOL0     C10581   3.861   5.515   3.625  0.7749 -0.3168 -0.6747
  802MOL0     C10582   3.886   5.669   3.627 -0.3400 -0.3718  0.3459
  802MOL0    Cl10583   3.841   5.755   3.783  0.1788 -0.0892 -0.6207
  802MOL0     C10584   3.129   4.895   4.076 -0.2658 -0.3916  0.2177
  802MOL0     C10585   3.064   4.785   4.137  0.0285 -0.5915  0.6057
  802MOL0     O10586   2.922   4.460   3.943 -0.4342  0.3894 -0.4843
  802MOL0     C10587   2.789   4.380   4.281 -0.6262 -0.3670  0.2256
  802MOL0     C10588   2.745   4.281   4.364  0.3029  0.5100  0.2766
  802MOL0     N10589   3.207   3.851   4.542 -1.0843  0.4680  0.6239
  802MOL0     N10590   3.302   3.884   4.461  0.6958 -1.0325 -0.8829
  802MOL0     C10591   4.171   4.200   3.682 -0.3784 -0.1304 -0.2106
  802MOL0     C10592   4.197   4.288   3.576 -0.6400 -1.0277 -1.4957
  802MOL0     C10593   4.329   4.526   3.252 -0.8753 -0.1205  0.1242
  802MOL0     C10594   4.208   4.539   3.194 -0.0983 -0.2981  0.6511
  802MOL0     C10595   4.167   4.641   3.110  0.6645 -0.5984 -0.1872
  802MOL0     C10596   4.257   4.748   3.090  0.0385  0.1029 -0.2216
  802MOL0     O10597   4.232   4.858   3.014 -0.5432 -0.0471  0.7925
  802MOL0     C10598   4.127   4.856   2.919 -0.0977  0.9135  0.0865
  802MOL0     C10599   4.146   4.962   2.801 -0.4375  0.1983  0.5544
  802MOL0     C10600   4.078   5.093   2.822  0.0692  0.2222  0.8260
  802MOL0     C10601   3.929   5.090   2.775  0.4716  0.2869 -0.2923
  802MOL0     C10602   3.850   5.198   2.841  0.3856  0.3711 -0.1293
  802MOL0     C10603   3.778   5.285   2.878  0.6537  0.7160 -1.1211
  802MOL0     C10604   4.382   4.739   3.154  0.1883  1.1091  0.6924
  802MOL0     C10605   4.421   4.631   3.227 -0.7365 -0.4448 -0.0115
  802MOL0     C10606   4.559   4.631   3.284  0.2554 -0.5646  0.9667
  802MOL0     H10607   4.327   4.079   3.359 -0.7156  1.4767 -0.1352
  802MOL0     H10608   4.286   3.912   3.557 -3.1534 -0.5993  0.3217
  802MOL0     H10609   3.989   4.029   3.837 -0.2953 -0.0287  0.7304
  802MOL0     H10610   4.116   4.107   3.943 -2.3602  2.0535 -0.0201
  802MOL0     H10611   4.060   3.813   3.951 -3.9731  1.4028 -1.2993
  802MOL0     H10612   4.193   3.906   4.026  0.6154  2.0049 -2.5784
  802MOL0     H10613   4.008   3.878   4.193 -0.5345 -0.7680  0.3855
  802MOL0     H10614   4.009   4.046   4.137 -0.7309 -0.0923 -0.4068
  802MOL0     H10615   3.806   3.986   3.995  0.3795  2.9487  2.0509
  802MOL0     H10616   3.825   3.820   4.042  0.5459  0.0544  0.4465
  802MOL0     H10617   3.776   4.047   4.238  1.1557 -0.7178  1.7207
  802MOL0     H10618   3.781   3.886   4.286 -1.9692 -1.2667  1.0932
  802MOL0     H10619   3.591   3.993   4.081 -0.4871  1.5171  1.1884
  802MOL0     H10620   3.604   3.821   4.097  1.9876 -2.1448  2.6179
  802MOL0     H10621   3.506   4.015   4.323  1.4128  0.9433 -1.3364
  802MOL0     H10622   3.543   3.845   4.359  0.2749 -0.4968 -1.0533
  802MOL0     H10623   3.337   3.915   4.147 -0.7559 -2.5207 -0.1989
  802MOL0     H10624   3.404   3.758   4.188  1.7415  0.4046 -2.1290
  802MOL0     H10625   3.106   3.728   4.260 -0.0371  0.7112  1.7819
  802MOL0     H10626   2.993   3.712   4.635 -0.9375 -0.3632 -0.2767
  802MOL0     H10627   2.957   3.636   4.485 -0.6877  0.5248 -0.7483
  802MOL0     H10628   2.812   3.826   4.402 -0.3064  1.0997 -0.6070
  802MOL0     H10629   2.769   3.789   4.571 -1.1381  0.5586 -2.6618
  802MOL0     H10630   2.923   3.963   4.647 -0.9635  0.2403 -0.1004
  802MOL0     H10631   2.934   4.004   4.466 -2.2313 -0.3804 -2.4181
  802MOL0     H10632   2.687   4.022   4.612  3.4129 -2.0415  3.3350
  802MOL0     H10633   2.781   4.154   4.571 -1.8014  1.5048 -2.4726
  802MOL0     H10634   2.817   4.018   4.176  3.3841  0.5012  3.3100
  802MOL0     H10635   2.917   4.063   3.976 -1.7320 -0.6377  0.6026
  802MOL0     H10636   3.043   4.185   3.987 -0.4350  1.5804 -0.2496
  802MOL0     H10637   2.894   4.217   3.896  0.8817  3.4730  1.2056
  802MOL0     H10638   2.859   4.693   3.897 -0.4996 -0.8997  1.5417
  802MOL0     H10639   2.977   4.884   3.781 -1.4946 -1.1596 -0.2727
  802MOL0     H10640   3.321   5.097   3.980 -0.8074  0.8128  0.7831
  802MOL0     H10641   3.359   4.960   3.874  0.3598  0.7534 -1.3905
  802MOL0     H10642   3.322   5.116   3.674 -1.1544  1.2701 -0.1781
  802MOL0     H10643   3.287   5.251   3.778  0.2401 -0.1023  1.3042
  802MOL0     H10644   3.560   5.112   3.724  4.0421  0.5160  3.6963
  802MOL0     H10645   3.521   5.191   3.885  0.0097  0.6957 -0.4517
  802MOL0     H10646   3.496   5.396   3.766  1.4838  0.2511  1.7814
  802MOL0     H10647   3.488   5.316   3.605  0.3567  5.2810 -0.0840
  802MOL0     H10648   3.725   5.348   3.788  2.1768  0.0501 -1.0843
  802MOL0     H10649   3.738   5.262   3.629 -1.5955 -0.3043 -1.2908
  802MOL0     H10650   3.655   5.555   3.667  1.0449  0.4776  0.0425
  802MOL0     H10651   3.682   5.465   3.511 -0.9064  0.3213 -0.0500
  802MOL0     H10652   3.907   5.463   3.541  0.9944 -0.7964 -0.2596
  802MOL0     H10653   3.904   5.479   3.719 -0.3345  0.7211  0.2800
  802MOL0     H10654   3.826   5.720   3.551 -0.1201 -0.1281  0.3363
  802MOL0     H10655   3.991   5.691   3.609  0.2532 -2.5416  0.8323
  802MOL0     H10656   3.195   4.946   4.145 -0.1810  0.7282 -0.6590
  802MOL0     H10657   3.115   4.763   4.231  1.4406  2.0562  0.5408
  802MOL0     H10658   2.774   4.482   4.315  0.6246 -0.0063 -0.2699
  802MOL0     H10659   2.691   4.307   4.454  0.3193 -2.4236  1.2127
  802MOL0     H10660   4.132   4.234   3.777  0.1317 -0.7982  0.2398
  802MOL0     H10661   4.160   4.389   3.588 -1.2018 -1.3205 -0.6882
  802MOL0     H10662   4.132   4.465   3.219 -0.7735  0.2375  0.2194
  802MOL0     H10663   4.073   4.625   3.059  2.1243  0.3717 -3.4600
  802MOL0     H10664   4.131   4.753   2.881 -1.1139  0.4365  1.1854
  802MOL0     H10665   4.033   4.869   2.973 -0.7839 -1.7500 -0.3341
  802MOL0     H10666   4.109   4.919   2.707 -1.2814  3.0481 -0.5289
  802MOL0     H10667   4.255   4.973   2.793 -0.6370  3.3570  0.7994
  802MOL0     H10668   4.089   5.124   2.926  0.8938  2.0043  0.2475
  802MOL0     H10669   4.125   5.164   2.753 -0.3832 -1.1912 -1.0486
  802MOL0     H10670   3.880   5.000   2.814 -0.8111  0.7254 -0.8500
  802MOL0     H10671   3.925   5.079   2.667  3.9439  0.2766 -0.5206
  802MOL0     H10672   3.701   5.348   2.918 -1.5003 -1.8485 -0.8699
  802MOL0     H10673   4.449   4.821   3.132  2.1546 -0.8218 -0.9534
  802MOL0     H10674   4.616   4.722   3.259  1.0745 -0.9937  1.2500
  802MOL0     H10675   4.561   4.619   3.392 -3.2530 -1.9397  1.0173
  802MOL0     H10676   4.616   4.553   3.234  1.9092  1.0307  0.2408
  803MOL0     O10677   7.044   6.319   7.810  0.2393  0.1530 -0.4460
  803MOL0     C10678   7.154   6.295   7.775  1.7140 -0.1026  0.4608
  803MOL0     O10679   7.210   6.160   7.759  0.6836 -0.0941 -0.1773
  803MOL0     C10680   7.129   6.048   7.787 -0.0530 -0.7965  0.3665
  803MOL0     C10681   7.201   5.936   7.804 -0.0812 -0.8949 -0.1006
  803MOL0     C10682   7.139   5.813   7.822  0.0571  0.3700 -0.4761
  803MOL0     C10683   7.002   5.800   7.834  0.4500 -0.2172  0.3814
  803MOL0     O10684   6.934   5.688   7.878  0.9600  0.3363 -0.3685
  803MOL0     C10685   6.987   5.560   7.838 -0.9732 -0.4264 -0.6751
  803MOL0     C10686   7.036   5.464   7.961  0.0370  0.0218  1.0502
  803MOL0     C10687   7.152   5.365   7.933 -0.0758 -0.1028  0.4096
  803MOL0     C10688   7.292   5.432   7.917  0.1449 -0.1637 -0.9715
  803MOL0     C10689   7.388   5.325   7.946  0.6973 -0.2104  0.2078
  803MOL0     C10690   7.396   5.276   8.086  0.5356  0.4569 -0.9490
  803MOL0     C10691   7.523   5.186   8.114  0.0174 -0.5814  0.4569
  803MOL0     C10692   7.552   5.169   8.264 -0.1723  0.3828 -0.5136
  803MOL0     N10693   7.608   5.287   8.327 -0.1320  0.6163  0.1391
  803MOL0     C10694   7.696   5.381   8.266 -0.1282 -0.0619 -0.8149
  803MOL0     C10695   7.695   5.490   8.351  0.0638 -0.0677  0.1862
  803MOL0     C10696   7.752   5.624   8.316  0.4303 -1.5436  0.0241
  803MOL0     C10697   7.902   5.613   8.294  0.3557  0.3472  0.5427
  803MOL0     C10698   7.925   5.610   8.141  0.5977 -0.4710 -0.5405
  803MOL0     C10699   8.068   5.554   8.102  0.4502  0.2355 -0.7779
  803MOL0     O10700   8.070   5.415   8.137  0.4720 -0.3880 -0.9415
  803MOL0     C10701   8.005   5.315   8.059  0.3424  0.3213  0.4131
  803MOL0     C10702   7.989   5.192   8.122  0.0256  0.2867  0.6005
  803MOL0     C10703   7.920   5.089   8.058 -0.1398 -0.8314  0.0392
  803MOL0     C10704   7.914   4.959   8.136 -0.0545  0.2905 -0.4335
  803MOL0     C10705   7.863   5.104   7.927 -0.3436 -0.7184 -0.8739
  803MOL0     C10706   7.793   4.996   7.845 -0.3970  0.0231 -0.4474
  803MOL0     O10707   7.779   4.873   7.894 -0.4750  0.4511 -0.1547
  803MOL0     C10708   7.705   4.789   7.814  0.0459 -0.3052 -0.1250
  803MOL0     C10709   7.573   4.746   7.855  0.6124 -0.3902  0.4948
  803MOL0     C10710   7.495   4.660   7.771 -0.0913 -0.5746  0.1865
  803MOL0     C10711   7.552   4.605   7.660 -0.0600  0.8555  0.9263
  803MOL0     O10712   7.480   4.504   7.613 -0.1685  0.7841  0.2638
  803MOL0     C10713   7.502   4.457   7.474  0.3998 -0.0454 -0.0854
  803MOL0     C10714   7.459   4.554   7.367 -0.5259  0.9471 -0.9654
  803MOL0     C10715   7.531   4.511   7.237  0.5296  0.3622 -0.8006
  803MOL0     C10716   7.522   4.365   7.200  0.6572 -0.0482 -0.2357
  803MOL0     C10717   7.394   4.342   7.112 -0.1682 -0.0456 -0.3101
  803MOL0     C10718   7.365   4.186   7.094 -0.3298 -0.8032 -0.1313
  803MOL0     C10719   7.437   4.129   6.983 -0.1895 -0.0846 -0.1088
  803MOL0     C10720   7.470   3.976   7.010  0.4576 -0.4886  0.5836
  803MOL0    Cl10721   7.324   3.877   7.048  0.2237 -0.2581 -0.1386
  803MOL0     C10722   7.690   4.641   7.631  0.3559  0.3131 -0.0871
  803MOL0     C10723   7.754   4.735   7.704 -0.4902  0.1976 -0.1808
  803MOL0     O10724   7.748   5.034   7.737  0.0400 -0.3464 -0.5816
  803MOL0     C10725   7.877   5.239   7.866  0.1795  0.0010  0.5454
  803MOL0     C10726   7.941   5.342   7.938  0.5854 -0.2240  0.3890
  803MOL0     N10727   7.625   5.461   8.469 -0.2947 -0.1822  0.4264
  803MOL0     N10728   7.569   5.339   8.450 -0.3706 -0.5157  0.2424
  803MOL0     C10729   6.931   5.918   7.828 -0.4984 -0.1967 -0.2506
  803MOL0     C10730   6.995   6.046   7.811  0.6083  0.1790 -0.6939
  803MOL0     C10731   7.241   6.408   7.731 -0.0658  0.1491  0.7341
  803MOL0     C10732   7.192   6.539   7.760  0.0622  0.9726 -0.2409
  803MOL0     C10733   7.268   6.647   7.747 -0.2035 -1.0007  0.4863
  803MOL0     C10734   7.392   6.642   7.688  0.3149 -1.0864  0.8381
  803MOL0     O10735   7.466   6.761   7.686 -0.0329  0.2733 -0.4105
  803MOL0     C10736   7.585   6.761   7.769  0.5667 -0.2905  0.7110
  803MOL0     C10737   7.539   6.797   7.907  0.0416 -0.2351 -0.4994
  803MOL0     C10738   7.635   6.753   8.013 -0.8709 -0.0539  1.4339
  803MOL0     C10739   7.588   6.651   8.120  0.1120  0.3903  0.5205
  803MOL0     C10740   7.641   6.697   8.247 -0.6900 -0.5049 -0.3726
  803MOL0     C10741   7.705   6.721   8.352  0.0940  0.3496 -1.4420
  803MOL0     C10742   7.445   6.523   7.646  0.2195  0.7926 -0.6151
  803MOL0     C10743   7.372   6.401   7.662  0.2528  1.1181  0.8815
  803MOL0     C10744   7.435   6.276   7.609  0.0893 -0.7236 -0.5420
  803MOL0     H10745   7.308   5.937   7.786  0.3276  0.7355  1.9706
  803MOL0     H10746   7.215   5.737   7.837 -0.9249 -0.8315 -1.2590
  803MOL0     H10747   7.082   5.568   7.784  0.5177  1.1957  1.9598
  803MOL0     H10748   6.922   5.496   7.777 -2.5620 -1.1525  1.6296
  803MOL0     H10749   7.053   5.526   8.049  0.2877  2.2975 -0.5151
  803MOL0     H10750   6.948   5.404   7.988  0.7294 -0.6350  1.8866
  803MOL0     H10751   7.149   5.287   8.010  2.3548 -2.3357 -1.5725
  803MOL0     H10752   7.130   5.309   7.842 -1.3446  1.6850 -0.4449
  803MOL0     H10753   7.300   5.478   7.817 -3.6613  3.4018  0.0513
  803MOL0     H10754   7.303   5.509   7.994  0.0416  0.2866 -1.3971
  803MOL0     H10755   7.489   5.365   7.933  0.6819 -0.5903 -1.2847
  803MOL0     H10756   7.374   5.245   7.872 -0.9947  2.6219 -2.8131
  803MOL0     H10757   7.399   5.371   8.141 -0.3316  0.3926 -0.7772
  803MOL0     H10758   7.310   5.215   8.117  0.7850  1.0912  1.1815
  803MOL0     H10759   7.613   5.229   8.068 -0.6512 -0.3973 -0.7277
  803MOL0     H10760   7.490   5.090   8.074  0.1009  0.8519 -3.4653
  803MOL0     H10761   7.463   5.143   8.322  0.2416  1.8930  0.8799
  803MOL0     H10762   7.620   5.085   8.280 -1.3515 -0.4420  0.3872
  803MOL0     H10763   7.740   5.369   8.167 -1.2150 -0.0014 -1.3179
  803MOL0     H10764   7.735   5.694   8.398 -1.9260  0.6356 -2.1599
  803MOL0     H10765   7.720   5.676   8.225  3.5564  0.5162 -0.0770
  803MOL0     H10766   7.944   5.706   8.333  0.2601  0.8867 -0.6162
  803MOL0     H10767   7.944   5.527   8.348  2.7637 -0.2376 -2.0358
  803MOL0     H10768   7.841   5.567   8.087 -0.5068  0.5194  0.3432
  803MOL0     H10769   7.928   5.715   8.109 -1.0979 -1.0444 -2.7871
  803MOL0     H10770   8.091   5.560   7.996  0.7516 -2.1267 -0.8984
  803MOL0     H10771   8.148   5.593   8.166 -0.7444 -1.3078  1.8390
  803MOL0     H10772   8.017   5.180   8.226 -2.6967  1.0576  1.5129
  803MOL0     H10773   7.999   4.892   8.121  0.2652  0.2210  1.4712
  803MOL0     H10774   7.822   4.902   8.116  0.7190 -1.2003  0.1251
  803MOL0     H10775   7.930   4.986   8.241  2.2277 -1.4411 -0.2670
  803MOL0     H10776   7.528   4.803   7.935  0.0964  1.0663 -0.7953
  803MOL0     H10777   7.392   4.651   7.806 -0.4095  1.4070 -0.0833
  803MOL0     H10778   7.611   4.445   7.474  0.4532  0.3533 -0.8993
  803MOL0     H10779   7.462   4.356   7.456  0.8548 -0.3613  0.6500
  803MOL0     H10780   7.351   4.544   7.352 -0.6105  1.5281 -0.7776
  803MOL0     H10781   7.476   4.660   7.385  3.9755 -0.0415  2.6211
  803MOL0     H10782   7.636   4.536   7.248  1.4261 -1.7771 -3.4374
  803MOL0     H10783   7.501   4.579   7.157 -0.3365 -0.2632 -1.0214
  803MOL0     H10784   7.525   4.301   7.289  0.7455  2.6457  1.8496
  803MOL0     H10785   7.609   4.337   7.140  1.6622 -1.0033  1.5740
  803MOL0     H10786   7.312   4.386   7.169 -0.2343 -0.8428  0.2231
  803MOL0     H10787   7.409   4.383   7.012  1.0605 -2.2847 -1.1065
  803MOL0     H10788   7.257   4.178   7.080 -0.6106  1.4118  0.4004
  803MOL0     H10789   7.393   4.136   7.187  1.3523  1.2636  0.5517
  803MOL0     H10790   7.531   4.185   6.971  0.1395  0.0872  2.7168
  803MOL0     H10791   7.381   4.133   6.889  2.5446  2.8513 -1.8571
  803MOL0     H10792   7.548   3.975   7.087  0.3864 -0.6837  0.6533
  803MOL0     H10793   7.519   3.927   6.925  2.4879 -0.7027  1.7878
  803MOL0     H10794   7.733   4.619   7.534 -2.1752 -2.3051 -0.7784
  803MOL0     H10795   7.854   4.769   7.679  0.7529 -1.8984  1.5624
  803MOL0     H10796   7.843   5.245   7.763 -1.5503 -1.3672  0.9916
  803MOL0     H10797   7.955   5.441   7.895 -1.2374  0.6708  1.6807
  803MOL0     H10798   6.827   5.907   7.858 -1.1169 -0.7576 -2.4660
  803MOL0     H10799   6.931   6.134   7.805 -0.2489 -0.1639  1.9719
  803MOL0     H10800   7.089   6.552   7.792 -0.3374 -1.1011 -0.5550
  803MOL0     H10801   7.207   6.736   7.762  0.3258 -0.9192  2.3032
  803MOL0     H10802   7.633   6.663   7.771  1.2713  0.0218 -0.2132
  803MOL0     H10803   7.665   6.829   7.739  1.9369 -1.3095  1.9142
  803MOL0     H10804   7.451   6.737   7.933  1.3259 -1.4237  1.3947
  803MOL0     H10805   7.519   6.903   7.923 -1.5332 -0.7637  1.5236
  803MOL0     H10806   7.728   6.719   7.967  2.5919  2.5811  5.6297
  803MOL0     H10807   7.655   6.848   8.065 -0.6077  1.5534 -1.3744
  803MOL0     H10808   7.627   6.550   8.105 -0.5087 -0.4180  3.5753
  803MOL0     H10809   7.481   6.641   8.143  0.2314 -0.1114  0.8784
  803MOL0     H10810   7.757   6.748   8.441  4.7931 -1.8277 -3.1697
  803MOL0     H10811   7.549   6.519   7.615 -0.1093 -2.8044 -1.7064
  803MOL0     H10812   7.365   6.218   7.549 -0.3799  0.8508 -1.5808
  803MOL0     H10813   7.524   6.298   7.550  1.3410  0.3900  1.6147
  803MOL0     H10814   7.466   6.212   7.692  0.1059  2.5999  2.2829
  804MOL0     O10815  11.348   2.317   0.881  0.4297 -0.3317 -0.2839
  804MOL0     C10816  11.439   2.265   0.946  0.6706 -0.3827  0.8481
  804MOL0     O10817  11.439   2.146   1.017 -0.0139  0.2240 -0.2095
  804MOL0     C10818  11.363   2.028   0.982  1.2694 -0.2456 -0.0884
  804MOL0     C10819  11.303   1.961   1.086  0.2156 -0.2267  0.9381
  804MOL0     C10820  11.224   1.852   1.053 -0.3337 -1.0272  0.2236
  804MOL0     C10821  11.195   1.812   0.913 -0.6318 -1.3690  0.5052
  804MOL0     O10822  11.118   1.709   0.871  0.8796  0.6460 -0.1832
  804MOL0     C10823  11.008   1.696   0.962 -0.4059  0.3234  0.0893
  804MOL0     C10824  10.924   1.583   0.897 -0.9152 -0.3544  0.6019
  804MOL0     C10825  10.782   1.575   0.954  0.2066  0.2191 -0.0267
  804MOL0     C10826  10.775   1.497   1.079 -0.8766 -0.3232 -0.2383
  804MOL0     C10827  10.788   1.338   1.081  0.2864 -0.4679 -0.1068
  804MOL0     C10828  10.680   1.280   0.983  0.9375  1.2502 -0.2446
  804MOL0     C10829  10.693   1.129   0.978  0.0033  0.0356 -0.5486
  804MOL0     C10830  10.587   1.071   0.880 -0.4101 -0.4734 -0.1701
  804MOL0     N10831  10.452   1.102   0.906  0.0908 -0.1554  0.4048
  804MOL0     C10832  10.374   1.035   1.002 -0.2677 -0.8441  0.4388
  804MOL0     C10833  10.249   1.095   1.001 -0.2064  0.2583  0.3022
  804MOL0     C10834  10.136   1.058   1.091  0.0926  0.4009 -0.0187
  804MOL0     C10835  10.123   1.178   1.183 -0.5570 -0.6334 -0.0353
  804MOL0     C10836  10.013   1.277   1.132  0.3460  0.4840  0.7754
  804MOL0     C10837   9.972   1.381   1.230 -0.9704 -0.9367 -0.1905
  804MOL0     O10838  10.084   1.469   1.240 -1.3460 -0.0414  0.4467
  804MOL0     C10839  10.076   1.591   1.192 -0.3941 -0.8508 -0.4568
  804MOL0     C10840  10.086   1.697   1.282  0.4230 -0.3896  0.2371
  804MOL0     C10841  10.054   1.834   1.247 -0.6348  0.4242 -0.2428
  804MOL0     C10842  10.078   1.943   1.352  0.4987  0.5391  0.7187
  804MOL0     C10843  10.019   1.860   1.110 -0.4662 -0.1980  0.5309
  804MOL0     C10844   9.998   1.992   1.049  0.3440  0.5402  0.9199
  804MOL0     O10845  10.006   1.999   0.915  0.1056  0.4350  0.4780
  804MOL0     C10846  10.010   2.117   0.849  0.7505 -0.0701 -0.1533
  804MOL0     C10847   9.894   2.147   0.774  0.3675 -0.1353  0.3481
  804MOL0     C10848   9.887   2.268   0.708 -1.1741  0.2847 -0.1545
  804MOL0     C10849   9.994   2.364   0.712  0.0830  0.2056  0.1952
  804MOL0     O10850   9.994   2.492   0.655  0.0931  0.6107  0.7548
  804MOL0     C10851   9.885   2.524   0.566 -0.7850  0.1527 -0.6721
  804MOL0     C10852   9.872   2.682   0.555 -0.0886 -0.4567  0.2781
  804MOL0     C10853   9.843   2.750   0.690  0.4293 -0.8811  0.2501
  804MOL0     C10854   9.830   2.906   0.679  0.1217  0.0030  0.1527
  804MOL0     C10855   9.800   2.973   0.820 -0.1956  0.0612  0.6984
  804MOL0     C10856   9.893   2.933   0.927  0.5221 -0.1594  0.1171
  804MOL0     C10857   9.885   3.029   1.047 -0.1839 -0.1578  0.3489
  804MOL0     C10858   9.929   2.954   1.171 -0.9377 -0.3390 -0.1461
  804MOL0    Cl10859   9.807   2.835   1.213  0.5217 -0.2683  0.3559
  804MOL0     C10860  10.110   2.334   0.787  1.2130 -0.4413 -0.9757
  804MOL0     C10861  10.109   2.208   0.854  0.4393 -1.1753  0.4861
  804MOL0     O10862   9.985   2.092   1.121  0.0598 -0.0288  0.9187
  804MOL0     C10863  10.023   1.748   1.015  1.1490 -0.3414 -0.3872
  804MOL0     C10864  10.060   1.617   1.060 -0.1518 -0.3232  0.5055
  804MOL0     N10865  10.246   1.185   0.891  0.2897  0.3655  0.1776
  804MOL0     N10866  10.369   1.192   0.840  0.8166  0.4445 -0.1622
  804MOL0     C10867  11.254   1.890   0.811  0.2418  0.3381 -0.4035
  804MOL0     C10868  11.340   1.993   0.850  0.3420  0.6430  0.8698
  804MOL0     C10869  11.567   2.344   0.946  0.2538  0.8642  0.4883
  804MOL0     C10870  11.678   2.266   0.975 -0.2274 -0.0944 -0.1777
  804MOL0     C10871  11.809   2.321   0.979 -1.4328 -0.1710  0.1192
  804MOL0     C10872  11.833   2.458   0.953  0.7688  0.7292  0.3727
  804MOL0     O10873  11.960   2.503   0.964  0.1467  0.4992  0.0766
  804MOL0     C10874  11.991   2.618   0.883  0.6312  0.3183  0.1654
  804MOL0     C10875  12.143   2.635   0.891  0.0684 -0.4941  0.1158
  804MOL0     C10876  12.211   2.503   0.847 -0.8219 -0.4305 -0.1730
  804MOL0     C10877  12.263   2.519   0.702 -0.6425 -0.5289  0.4883
  804MOL0     C10878  12.357   2.415   0.662 -0.2572 -0.8424  0.5002
  804MOL0     C10879  12.433   2.338   0.619 -0.2815 -0.7051 -0.0285
  804MOL0     C10880  11.715   2.537   0.933 -0.2501 -0.2178  0.2016
  804MOL0     C10881  11.587   2.483   0.929  0.4433  1.0772  0.0719
  804MOL0     C10882  11.482   2.582   0.894  1.3425  0.3008  0.0216
  804MOL0     H10883  11.348   1.985   1.182  3.6147  0.3493 -0.6297
  804MOL0     H10884  11.199   1.792   1.140  0.9041 -0.6158  0.8941
  804MOL0     H10885  10.958   1.792   0.960 -4.1497 -1.4706 -0.3416
  804MOL0     H10886  11.043   1.675   1.064 -2.3227 -2.8848  0.2226
  804MOL0     H10887  10.917   1.604   0.790 -1.1427  3.9877  1.3042
  804MOL0     H10888  10.983   1.491   0.900 -0.2515 -0.0290 -1.0734
  804MOL0     H10889  10.759   1.678   0.982 -1.4165 -0.4463  1.2812
  804MOL0     H10890  10.707   1.538   0.883  3.2796 -0.4319 -3.1987
  804MOL0     H10891  10.853   1.540   1.142 -2.6450  3.8050 -0.5782
  804MOL0     H10892  10.677   1.517   1.124 -3.3703 -5.7391 -2.3599
  804MOL0     H10893  10.779   1.301   1.184  0.2044 -0.8803 -0.2604
  804MOL0     H10894  10.883   1.306   1.039  0.6236  1.4726 -0.9033
  804MOL0     H10895  10.583   1.303   1.028  1.8277  0.3598  2.3193
  804MOL0     H10896  10.681   1.321   0.882  0.7834 -1.8260 -1.6004
  804MOL0     H10897  10.675   1.083   1.075 -0.7198  1.5131  0.0430
  804MOL0     H10898  10.796   1.114   0.945  0.0363 -1.3759  0.1054
  804MOL0     H10899  10.613   1.115   0.783  0.8505 -2.3507 -0.7498
  804MOL0     H10900  10.601   0.963   0.866  1.9890 -0.0413 -1.8366
  804MOL0     H10901  10.426   0.966   1.067  5.5086  2.9959  0.7319
  804MOL0     H10902  10.170   0.971   1.149  4.4319  0.1871 -2.4339
  804MOL0     H10903  10.055   1.032   1.022  0.1615  1.1285 -0.3876
  804MOL0     H10904  10.096   1.142   1.282  0.6744  0.5351  0.7604
  804MOL0     H10905  10.215   1.230   1.208 -0.7187 -0.3049 -0.1080
  804MOL0     H10906  10.038   1.325   1.038  4.1419  0.3958  1.6040
  804MOL0     H10907   9.923   1.216   1.117  1.4249 -1.6431  2.4294
  804MOL0     H10908   9.885   1.437   1.195 -2.1800 -1.3022  2.0774
  804MOL0     H10909   9.950   1.328   1.323  0.0542 -1.4880 -0.2409
  804MOL0     H10910  10.110   1.690   1.388 -0.5921  0.4749  0.5343
  804MOL0     H10911  10.163   2.006   1.324  0.2429  0.3861 -0.4700
  804MOL0     H10912  10.101   1.901   1.450  2.6164  1.7340  0.8084
  804MOL0     H10913   9.990   2.007   1.366 -1.6449 -2.6033  3.0195
  804MOL0     H10914   9.808   2.081   0.765  2.1872 -2.6423  0.2888
  804MOL0     H10915   9.793   2.267   0.654 -0.4445 -0.4191 -1.4517
  804MOL0     H10916   9.904   2.478   0.468 -1.1780 -2.6945  0.5247
  804MOL0     H10917   9.795   2.487   0.615 -1.7048  2.1049 -0.7625
  804MOL0     H10918   9.969   2.713   0.516 -1.8067  0.9419 -3.2900
  804MOL0     H10919   9.797   2.713   0.481  1.2274 -2.5486 -2.0682
  804MOL0     H10920   9.931   2.731   0.753  2.1061  2.6592 -0.7610
  804MOL0     H10921   9.750   2.719   0.738  0.6149  0.3782  1.4998
  804MOL0     H10922   9.751   2.929   0.607  0.1436 -1.6459 -0.4475
  804MOL0     H10923   9.925   2.950   0.646  0.1057 -1.2006 -1.6180
  804MOL0     H10924   9.806   3.081   0.802  0.4347 -0.3383 -1.8147
  804MOL0     H10925   9.698   2.946   0.850 -1.0827  1.1760 -1.1055
  804MOL0     H10926   9.992   2.949   0.883  0.9243 -2.2289  0.1604
  804MOL0     H10927   9.898   2.828   0.958 -1.0066 -1.1888 -2.7700
  804MOL0     H10928   9.778   3.051   1.048 -0.1191  0.6260 -2.0463
  804MOL0     H10929   9.955   3.112   1.039  0.6521 -0.7886  0.8769
  804MOL0     H10930   9.935   3.028   1.252 -3.4223 -1.2599  0.9825
  804MOL0     H10931  10.024   2.901   1.160 -2.1157 -2.8502  0.9940
  804MOL0     H10932  10.193   2.402   0.800 -0.4952  1.6554 -0.5036
  804MOL0     H10933  10.193   2.205   0.922  1.1813 -0.6502 -0.3917
  804MOL0     H10934  10.007   1.765   0.909  4.9929  0.2115 -1.0216
  804MOL0     H10935  10.047   1.543   0.981 -4.6553  0.3547  0.3212
  804MOL0     H10936  11.244   1.863   0.706  0.7125  1.4556 -0.7588
  804MOL0     H10937  11.381   2.051   0.767 -1.0070 -1.9080 -1.7604
  804MOL0     H10938  11.664   2.162   1.001 -1.5449 -0.2229 -1.3351
  804MOL0     H10939  11.898   2.262   0.998 -1.1664 -0.1596 -1.0453
  804MOL0     H10940  11.945   2.614   0.784 -0.8098 -2.4626  0.8301
  804MOL0     H10941  11.948   2.704   0.935  1.0012  0.6150 -0.0195
  804MOL0     H10942  12.168   2.665   0.993  3.4914 -2.5127  0.0609
  804MOL0     H10943  12.176   2.723   0.834  0.2772  1.0957  2.5408
  804MOL0     H10944  12.294   2.476   0.913 -0.9436 -1.5916 -0.4751
  804MOL0     H10945  12.140   2.421   0.855  0.5341 -1.5077  1.6920
  804MOL0     H10946  12.314   2.614   0.682 -0.7169 -1.0671 -2.7106
  804MOL0     H10947  12.175   2.513   0.637  0.4677 -0.1625 -1.0902
  804MOL0     H10948  12.496   2.259   0.584 -0.3159 -1.4367  1.5177
  804MOL0     H10949  11.726   2.645   0.930 -1.7614  0.2373  4.3038
  804MOL0     H10950  11.517   2.686   0.899  1.9635  0.0289  2.0209
  804MOL0     H10951  11.435   2.555   0.799  1.5810 -1.3627  0.3366
  804MOL0     H10952  11.408   2.572   0.974  1.4771 -1.6857 -0.0395
  805MOL0     O10953   3.587   4.654   5.447 -0.1846  0.2759  0.5892
  805MOL0     C10954   3.474   4.626   5.477  0.3045 -0.2423  0.0695
  805MOL0     O10955   3.442   4.500   5.514 -0.1454 -0.7168  0.2298
  805MOL0     C10956   3.543   4.402   5.516 -1.1391 -0.5215  0.6845
  805MOL0     C10957   3.660   4.424   5.599  0.8499  0.6604 -0.5444
  805MOL0     C10958   3.757   4.330   5.615 -0.4895  0.6551  1.2000
  805MOL0     C10959   3.742   4.201   5.557 -0.3962  0.2482 -0.2621
  805MOL0     O10960   3.848   4.105   5.566 -0.4503 -0.9593 -1.2846
  805MOL0     C10961   3.840   3.982   5.501  0.1283  0.2740 -0.1571
  805MOL0     C10962   3.952   3.899   5.554  0.1726 -0.0606 -0.4559
  805MOL0     C10963   3.918   3.845   5.696  0.0198  0.0223  0.4371
  805MOL0     C10964   4.040   3.779   5.765 -0.9258 -1.0760  1.1552
  805MOL0     C10965   4.107   3.880   5.863 -0.5226  0.6054  0.5782
  805MOL0     C10966   4.238   3.827   5.905 -0.2217 -0.4954 -0.7113
  805MOL0     C10967   4.250   3.689   5.967 -0.9867  0.2587  1.4277
  805MOL0     C10968   4.194   3.686   6.105  0.8146 -0.9365 -1.3027
  805MOL0     N10969   4.195   3.556   6.170 -0.3311 -0.3244 -0.3809
  805MOL0     C10970   4.301   3.509   6.237 -0.0940  0.0289  0.0953
  805MOL0     C10971   4.273   3.380   6.261  0.6484  0.4104 -1.3866
  805MOL0     C10972   4.360   3.286   6.337  0.0808  0.0617 -0.4446
  805MOL0     C10973   4.342   3.300   6.487  0.5017  0.1780  0.0261
  805MOL0     C10974   4.200   3.293   6.537  0.2438  0.1219 -0.1624
  805MOL0     C10975   4.134   3.163   6.485 -0.8881 -0.4378 -0.2216
  805MOL0     O10976   4.220   3.047   6.483  0.0059 -0.1183 -0.3408
  805MOL0     C10977   4.163   2.933   6.429 -0.4448  0.2204  0.0644
  805MOL0     C10978   4.031   2.922   6.382 -0.6312 -0.3194  0.7001
  805MOL0     C10979   3.976   2.804   6.334 -0.1250 -0.9511 -0.2939
  805MOL0     C10980   3.830   2.818   6.292 -0.4817  0.8393 -0.2130
  805MOL0     C10981   4.060   2.690   6.323  0.2716 -0.2222  0.1559
  805MOL0     C10982   4.013   2.559   6.285  1.0634  0.3935  0.4666
  805MOL0     O10983   4.103   2.459   6.311 -0.0921  0.4166 -0.7517
  805MOL0     C10984   4.045   2.335   6.341  0.4342 -0.2387  0.6066
  805MOL0     C10985   3.960   2.315   6.454 -0.5138 -0.2429 -0.2372
  805MOL0     C10986   3.891   2.197   6.478 -0.4210  0.3761  0.3336
  805MOL0     C10987   3.894   2.106   6.371  0.2923  0.0390 -0.7054
  805MOL0     O10988   3.807   2.001   6.390  0.3846  0.5413  0.5531
  805MOL0     C10989   3.873   1.875   6.382 -0.3868  0.9997 -0.3171
  805MOL0     C10990   3.788   1.749   6.389  0.6804 -0.3326 -0.5760
  805MOL0     C10991   3.866   1.613   6.410 -0.0070  0.2356 -0.3707
  805MOL0     C10992   3.976   1.579   6.307  0.5290 -0.0076  0.6716
  805MOL0     C10993   4.046   1.449   6.327  0.2837 -0.4290 -0.3237
  805MOL0     C10994   3.950   1.327   6.380 -0.1155 -0.5698 -0.7790
  805MOL0     C10995   4.021   1.195   6.373  0.4333  0.9887  1.1259
  805MOL0     C10996   3.972   1.106   6.499 -0.6705 -0.5849  0.0492
  805MOL0    Cl10997   3.789   1.040   6.469 -0.3879  0.0410 -0.4052
  805MOL0     C10998   3.980   2.119   6.259  0.2421  0.2633 -0.1178
  805MOL0     C10999   4.056   2.232   6.252  0.5556  0.5249  0.4077
  805MOL0     O11000   3.896   2.534   6.244  0.1060  0.4217 -0.1394
  805MOL0     C11001   4.194   2.711   6.358  0.1531 -0.2565 -0.8790
  805MOL0     C11002   4.244   2.824   6.422 -0.3259  0.2256  1.0312
  805MOL0     N11003   4.150   3.347   6.197  0.1877 -0.0169  0.6567
  805MOL0     N11004   4.103   3.449   6.152  0.5671 -0.9158  0.1473
  805MOL0     C11005   3.627   4.177   5.476 -0.3808  1.0462 -0.2052
  805MOL0     C11006   3.535   4.274   5.455  1.0115  0.3576 -0.7126
  805MOL0     C11007   3.373   4.740   5.478 -0.2403  0.0921 -1.0463
  805MOL0     C11008   3.406   4.874   5.418  0.2291  0.3960 -0.1783
  805MOL0     C11009   3.303   4.966   5.409  0.4152  1.0472 -0.4051
  805MOL0     C11010   3.168   4.937   5.429  0.2515  0.4763 -0.3380
  805MOL0     O11011   3.057   5.017   5.414 -0.6517 -0.0105  0.1379
  805MOL0     C11012   3.062   5.160   5.382 -0.4124  0.2856 -0.2803
  805MOL0     C11013   3.087   5.246   5.512 -0.1697  0.1418  0.2764
  805MOL0     C11014   2.997   5.188   5.630  0.4790  0.2847 -0.0602
  805MOL0     C11015   3.033   5.260   5.764  0.0985 -0.4734 -0.3451
  805MOL0     C11016   3.037   5.411   5.762 -0.3910 -0.4967 -0.4645
  805MOL0     C11017   3.059   5.527   5.798  0.9282 -0.3516  0.8313
  805MOL0     C11018   3.140   4.813   5.487 -0.3615  0.2457 -0.8614
  805MOL0     C11019   3.232   4.720   5.521 -1.4420 -0.5523 -0.6407
  805MOL0     C11020   3.197   4.580   5.589 -0.3993 -0.1249  0.3931
  805MOL0     H11021   3.662   4.516   5.655 -0.4595  0.4422 -0.1027
  805MOL0     H11022   3.845   4.344   5.677  1.8198  3.9943 -2.3462
  805MOL0     H11023   3.849   3.993   5.392  0.4851  1.6181 -0.0072
  805MOL0     H11024   3.748   3.932   5.531  0.9291  0.0934  2.1970
  805MOL0     H11025   3.991   3.818   5.491  0.1448 -0.3782 -0.0681
  805MOL0     H11026   4.039   3.965   5.561  1.3395 -1.4980 -0.7387
  805MOL0     H11027   3.860   3.911   5.761 -3.8962 -0.1424 -2.5104
  805MOL0     H11028   3.855   3.762   5.662  0.8625  0.5879 -2.9214
  805MOL0     H11029   4.007   3.698   5.831 -0.6676 -0.9456  1.4454
  805MOL0     H11030   4.103   3.743   5.684 -1.3682  2.3189 -0.8907
  805MOL0     H11031   4.040   3.893   5.948 -1.2003 -0.9023  0.3152
  805MOL0     H11032   4.133   3.969   5.805 -0.8625 -0.6248 -1.6105
  805MOL0     H11033   4.304   3.837   5.818  0.8396 -0.0818  0.1258
  805MOL0     H11034   4.279   3.904   5.971  0.4597 -2.9909  1.9398
  805MOL0     H11035   4.356   3.663   5.976 -0.8075  0.5638  0.3492
  805MOL0     H11036   4.202   3.615   5.903  0.5986 -0.4893  1.0428
  805MOL0     H11037   4.233   3.763   6.172 -0.7575  0.3978 -1.8455
  805MOL0     H11038   4.088   3.710   6.114  1.0454 -0.4753  0.8382
  805MOL0     H11039   4.404   3.543   6.247  0.0962 -0.6811  0.7360
  805MOL0     H11040   4.462   3.315   6.311 -0.3998  0.1421 -2.3516
  805MOL0     H11041   4.336   3.183   6.308 -1.1244  0.4292 -0.8099
  805MOL0     H11042   4.399   3.225   6.542  1.5913  0.0892 -1.1888
  805MOL0     H11043   4.380   3.402   6.499 -2.2914  1.3932 -0.5350
  805MOL0     H11044   4.203   3.288   6.647  0.5404  0.7485 -0.1366
  805MOL0     H11045   4.137   3.378   6.509 -1.9184 -1.0737  0.8133
  805MOL0     H11046   4.059   3.148   6.563 -1.0561  0.2106 -0.2497
  805MOL0     H11047   4.094   3.167   6.383 -0.9390 -0.4446 -0.2020
  805MOL0     H11048   3.963   3.007   6.384  1.1742  1.3097  5.2130
  805MOL0     H11049   3.780   2.897   6.349  0.1310 -0.3590  2.1032
  805MOL0     H11050   3.775   2.725   6.309  0.7428  0.4987  2.3468
  805MOL0     H11051   3.807   2.840   6.188 -2.3325  1.6723  0.3322
  805MOL0     H11052   3.957   2.386   6.536 -2.7197 -1.3703  0.7479
  805MOL0     H11053   3.827   2.175   6.562 -0.7328 -1.1600 -0.2809
  805MOL0     H11054   3.931   1.866   6.290 -1.0444 -1.7479 -0.5466
  805MOL0     H11055   3.938   1.856   6.468 -0.0845 -1.2572 -0.9663
  805MOL0     H11056   3.713   1.752   6.469  0.4844 -1.0649 -0.7271
  805MOL0     H11057   3.743   1.741   6.290 -1.7814  0.9039  0.3554
  805MOL0     H11058   3.789   1.538   6.431  1.1784 -0.8842  0.0834
  805MOL0     H11059   3.925   1.616   6.502  2.5109 -3.5666 -1.6276
  805MOL0     H11060   4.051   1.659   6.305  2.3535 -1.6269 -1.6043
  805MOL0     H11061   3.936   1.587   6.205 -0.2102  0.5891  1.0013
  805MOL0     H11062   4.095   1.406   6.239  3.9113 -1.3161  1.8761
  805MOL0     H11063   4.123   1.462   6.404  0.6921 -3.4611 -0.0999
  805MOL0     H11064   3.853   1.319   6.331 -0.3804 -2.5704 -0.0016
  805MOL0     H11065   3.939   1.352   6.486  2.8741 -0.9203 -0.2862
  805MOL0     H11066   4.130   1.204   6.377  0.3157  2.2594  1.8986
  805MOL0     H11067   3.994   1.153   6.276 -1.5656  0.7170  1.7474
  805MOL0     H11068   3.987   1.170   6.586  2.1428  1.1873 -1.5973
  805MOL0     H11069   4.032   1.015   6.511 -2.6589 -1.7924  1.5819
  805MOL0     H11070   3.964   2.046   6.180 -1.7283 -2.1570  2.2861
  805MOL0     H11071   4.110   2.254   6.160 -2.2482  1.3006 -1.1642
  805MOL0     H11072   4.268   2.632   6.349  0.9605  0.5780 -1.7649
  805MOL0     H11073   4.345   2.814   6.459 -1.2116 -0.1908  3.5233
  805MOL0     H11074   3.593   4.078   5.446  1.4085  0.8499 -1.7718
  805MOL0     H11075   3.443   4.244   5.405  1.9091 -0.5303 -1.9007
  805MOL0     H11076   3.510   4.890   5.391  0.7967 -1.4280  0.7056
  805MOL0     H11077   3.335   5.062   5.369 -0.4490  0.1554 -3.5440
  805MOL0     H11078   3.142   5.195   5.316 -0.0322 -1.7258 -0.9334
  805MOL0     H11079   2.967   5.197   5.342 -0.3446  1.1183  0.3001
  805MOL0     H11080   3.066   5.351   5.487 -3.2035 -0.3445  0.4859
  805MOL0     H11081   3.195   5.237   5.529  0.0012  0.2403 -0.6676
  805MOL0     H11082   2.895   5.212   5.600  0.0406 -1.8984 -0.4921
  805MOL0     H11083   3.004   5.080   5.641  2.3296  0.1159 -2.1193
  805MOL0     H11084   3.133   5.234   5.797  1.0526  0.1665 -2.5377
  805MOL0     H11085   2.963   5.221   5.839  2.8010 -0.6240  2.2944
  805MOL0     H11086   3.063   5.626   5.839  0.5109  0.1042 -0.2014
  805MOL0     H11087   3.041   4.785   5.523  1.0294 -0.9523  2.4502
  805MOL0     H11088   3.257   4.559   5.678 -0.1313  2.2442  0.8235
  805MOL0     H11089   3.099   4.573   5.636  0.2291 -1.4706  1.5939
  805MOL0     H11090   3.208   4.501   5.514 -2.5228 -0.3170  0.2169
  806MOL0     O11091   2.301   5.683   6.470 -0.4022  0.1654 -0.5226
  806MOL0     C11092   2.273   5.585   6.405  0.5005 -0.5190  0.4676
  806MOL0     O11093   2.170   5.498   6.425  0.4656 -0.0449 -0.1300
  806MOL0     C11094   2.079   5.523   6.528 -1.0098  0.0198  0.2912
  806MOL0     C11095   2.043   5.411   6.608 -0.1456 -0.0110 -0.3734
  806MOL0     C11096   1.961   5.430   6.720  0.8894 -0.7763 -1.2362
  806MOL0     C11097   1.914   5.561   6.755  0.2981  0.7466  0.2885
  806MOL0     O11098   1.837   5.576   6.869 -0.5225 -0.2531  0.8321
  806MOL0     C11099   1.701   5.621   6.853  0.1190 -0.5757 -0.3443
  806MOL0     C11100   1.607   5.525   6.919  0.3562 -1.8189  0.0886
  806MOL0     C11101   1.460   5.556   6.869  0.4891  1.2062 -0.0848
  806MOL0     C11102   1.341   5.476   6.922  0.3827  0.2814  0.5586
  806MOL0     C11103   1.232   5.476   6.816  0.6504  0.0431 -1.3249
  806MOL0     C11104   1.115   5.384   6.852  0.2417 -0.4308  0.4590
  806MOL0     C11105   1.000   5.380   6.753 -0.7772  0.3356  0.2740
  806MOL0     C11106   0.946   5.520   6.727 -0.4810  0.2570 -0.5048
  806MOL0     N11107   0.837   5.516   6.622 -0.8228  0.4440  0.5563
  806MOL0     C11108   0.704   5.515   6.632  0.2551  0.1207 -0.6263
  806MOL0     C11109   0.657   5.492   6.506  0.9709 -0.2397  0.4925
  806MOL0     C11110   0.505   5.483   6.475 -0.8198  0.4168  0.0205
  806MOL0     C11111   0.420   5.430   6.596  0.0956  0.5335  0.1794
  806MOL0     C11112   0.288   5.363   6.551 -0.2328  0.6044  0.8646
  806MOL0     C11113   0.197   5.455   6.473 -0.8467 -0.5060  0.5449
  806MOL0     O11114   0.060   5.399   6.464 -0.3970 -0.3554 -0.3266
  806MOL0     C11115   0.011   5.414   6.339  0.9738 -0.1522 -0.9735
  806MOL0     C11116   0.071   5.371   6.224  0.0366  1.3618 -0.2599
  806MOL0     C11117   0.016   5.391   6.103  0.3825 -0.1043  0.3779
  806MOL0     C11118   0.082   5.336   5.983  0.2065 -0.1001 -0.4272
  806MOL0     C11119  -0.120   5.454   6.098 -0.1156 -1.1884 -0.7012
  806MOL0     C11120  -0.182   5.497   5.972  0.2007  0.0134 -0.0474
  806MOL0     O11121  -0.321   5.510   5.969  0.2591 -0.1459 -0.6696
  806MOL0     C11122  -0.393   5.577   5.870 -1.2287 -0.5697  0.2111
  806MOL0     C11123  -0.435   5.500   5.763 -0.8294  0.8687 -0.0068
  806MOL0     C11124  -0.507   5.562   5.662 -0.2216 -0.4070 -0.2508
  806MOL0     C11125  -0.534   5.702   5.670  0.3517 -0.9535  0.4719
  806MOL0     O11126  -0.623   5.765   5.582 -0.6416  0.6191  0.2552
  806MOL0     C11127  -0.677   5.693   5.468  0.4959  0.3331  0.0170
  806MOL0     C11128  -0.769   5.801   5.410 -0.4162  0.7181 -0.8031
  806MOL0     C11129  -0.691   5.899   5.323 -0.4889 -0.8894 -0.1875
  806MOL0     C11130  -0.784   5.992   5.256 -0.8551  1.7755 -0.3961
  806MOL0     C11131  -0.725   6.123   5.215 -0.7930  0.0785  0.1030
  806MOL0     C11132  -0.706   6.225   5.346  0.2678  1.7279 -0.1807
  806MOL0     C11133  -0.660   6.374   5.328 -0.4184 -0.5689  0.6219
  806MOL0     C11134  -0.555   6.382   5.224 -0.0292 -0.8506  0.6636
  806MOL0    Cl11135  -0.543   6.544   5.132 -0.1412  0.3051  0.5887
  806MOL0     C11136  -0.478   5.783   5.773 -0.8504 -0.3257  0.2977
  806MOL0     C11137  -0.404   5.713   5.872  0.3796 -0.1388 -0.1411
  806MOL0     O11138  -0.122   5.513   5.876  0.0610 -0.0536 -0.0486
  806MOL0     C11139  -0.168   5.506   6.216  0.4652 -0.2012 -0.1080
  806MOL0     C11140  -0.102   5.495   6.333 -0.7034  0.6816 -0.6157
  806MOL0     N11141   0.763   5.480   6.417 -0.8120 -0.6402  0.3435
  806MOL0     N11142   0.875   5.497   6.489  0.0191  0.0504  0.1509
  806MOL0     C11143   1.938   5.668   6.665  0.4636  0.0033 -0.0611
  806MOL0     C11144   2.019   5.654   6.553  0.0276  1.4026 -0.3576
  806MOL0     C11145   2.358   5.550   6.290  0.1861 -1.0369  0.5009
  806MOL0     C11146   2.306   5.479   6.182  0.7650 -0.5558 -0.0753
  806MOL0     C11147   2.383   5.475   6.060  0.4501  0.1884  0.2062
  806MOL0     C11148   2.510   5.526   6.043 -0.9683  0.5831  0.7424
  806MOL0     O11149   2.569   5.498   5.916 -0.6234 -0.0785  0.2012
  806MOL0     C11150   2.644   5.601   5.854 -0.5125  0.4437 -0.2838
  806MOL0     C11151   2.628   5.595   5.705  0.7902 -0.0937  0.0858
  806MOL0     C11152   2.702   5.487   5.636  0.1878 -1.1594 -0.5008
  806MOL0     C11153   2.674   5.499   5.485 -0.3557  0.0308  0.4067
  806MOL0     C11154   2.768   5.586   5.419 -0.1240  0.2256 -0.7631
  806MOL0     C11155   2.846   5.671   5.380  0.4072  2.0093  0.0366
  806MOL0     C11156   2.563   5.579   6.158 -1.2334  0.3076 -0.1181
  806MOL0     C11157   2.490   5.589   6.278 -0.9637 -1.0621 -0.9126
  806MOL0     C11158   2.575   5.659   6.391  0.4065 -0.1942 -0.2760
  806MOL0     H11159   2.074   5.310   6.586  1.5141 -1.1616  5.4973
  806MOL0     H11160   1.938   5.337   6.769  2.3994  0.5494  2.3102
  806MOL0     H11161   1.669   5.628   6.748 -2.0723  2.6668  0.3750
  806MOL0     H11162   1.687   5.721   6.893 -0.3099 -0.4192 -0.8592
  806MOL0     H11163   1.626   5.420   6.894 -0.8861 -1.8712 -0.7260
  806MOL0     H11164   1.617   5.530   7.028  0.6287  0.0541  0.0064
  806MOL0     H11165   1.438   5.663   6.877 -0.6497  0.8730  1.8855
  806MOL0     H11166   1.466   5.527   6.763 -2.6057 -0.5885  0.1335
  806MOL0     H11167   1.374   5.372   6.925  1.7449  0.5826 -1.7708
  806MOL0     H11168   1.311   5.524   7.015 -0.4556  1.0013 -0.0596
  806MOL0     H11169   1.267   5.443   6.718  4.6266 -2.9502  0.7959
  806MOL0     H11170   1.203   5.580   6.797  0.2970  0.7709  2.3862
  806MOL0     H11171   1.154   5.284   6.869  0.3871 -0.7302 -1.4362
  806MOL0     H11172   1.072   5.406   6.951 -1.3810 -2.6495  0.3088
  806MOL0     H11173   0.926   5.315   6.802  0.2511  1.3539  3.4365
  806MOL0     H11174   1.032   5.330   6.661  3.1227  1.6866  0.7181
  806MOL0     H11175   0.916   5.575   6.817 -1.6412 -0.5031 -0.4105
  806MOL0     H11176   1.023   5.582   6.680  0.7685 -1.9421 -1.4746
  806MOL0     H11177   0.651   5.517   6.727  1.2007 -0.5205 -0.0583
  806MOL0     H11178   0.508   5.412   6.392  0.8495  1.9705 -1.3389
  806MOL0     H11179   0.449   5.567   6.433 -4.0360 -2.4121 -1.8083
  806MOL0     H11180   0.475   5.354   6.654  0.1486  0.8735  0.5792
  806MOL0     H11181   0.395   5.510   6.667  0.0927 -0.2475  1.0848
  806MOL0     H11182   0.320   5.276   6.492  0.0753 -0.1978  2.1708
  806MOL0     H11183   0.233   5.314   6.632  3.7770 -2.2115  2.1624
  806MOL0     H11184   0.180   5.551   6.523 -1.4446 -0.1917 -0.2259
  806MOL0     H11185   0.243   5.478   6.377  0.7138 -3.8095  0.3721
  806MOL0     H11186   0.170   5.327   6.225 -0.8035 -0.6912  1.1786
  806MOL0     H11187   0.191   5.335   6.000 -0.0408 -4.1113  2.4458
  806MOL0     H11188   0.051   5.381   5.889 -0.7346 -0.4968 -0.3145
  806MOL0     H11189   0.046   5.233   5.979  2.4568 -0.9229 -1.1116
  806MOL0     H11190  -0.407   5.395   5.759  2.7424  1.7257 -1.0761
  806MOL0     H11191  -0.553   5.501   5.585  1.7909 -2.1914 -0.1574
  806MOL0     H11192  -0.602   5.677   5.389  0.5110 -1.0368  0.2841
  806MOL0     H11193  -0.733   5.604   5.498  0.2853  1.0174  1.7332
  806MOL0     H11194  -0.839   5.742   5.350 -0.8559  1.9938 -1.6014
  806MOL0     H11195  -0.833   5.843   5.488 -0.5983  0.0999 -0.6163
  806MOL0     H11196  -0.639   5.848   5.242 -2.9383  0.3645 -2.7098
  806MOL0     H11197  -0.628   5.957   5.391 -3.0761 -1.3215  2.8278
  806MOL0     H11198  -0.865   6.001   5.329 -2.8554 -3.9775 -1.4163
  806MOL0     H11199  -0.819   5.935   5.169 -0.9845 -0.7303  1.1930
  806MOL0     H11200  -0.636   6.100   5.157 -0.6046 -1.0380  0.8003
  806MOL0     H11201  -0.794   6.171   5.145 -3.0686  0.6902  2.5596
  806MOL0     H11202  -0.647   6.175   5.423  1.0539 -0.6867 -2.2062
  806MOL0     H11203  -0.804   6.234   5.394  1.4275  2.5913  2.1583
  806MOL0     H11204  -0.636   6.416   5.425 -3.3828  1.3263  0.6461
  806MOL0     H11205  -0.749   6.424   5.288  0.7417 -0.7764 -2.5732
  806MOL0     H11206  -0.571   6.308   5.145 -0.1947 -1.4186  1.2183
  806MOL0     H11207  -0.454   6.362   5.262  0.6272  0.2658 -0.4162
  806MOL0     H11208  -0.480   5.891   5.782  1.1777 -0.2493  0.2302
  806MOL0     H11209  -0.361   5.773   5.952 -0.5538  1.1600 -0.5811
  806MOL0     H11210  -0.261   5.561   6.219 -0.4033 -1.4201 -2.2555
  806MOL0     H11211  -0.163   5.527   6.417  0.4287 -0.3579  0.6625
  806MOL0     H11212   1.882   5.757   6.688 -1.7194 -2.1183  3.9295
  806MOL0     H11213   2.033   5.740   6.490  3.4832  1.2026 -0.0493
  806MOL0     H11214   2.203   5.445   6.180 -0.6279  3.0197 -3.7020
  806MOL0     H11215   2.337   5.432   5.972  0.0013 -0.1591  0.6038
  806MOL0     H11216   2.601   5.693   5.895 -1.7775 -0.2603 -0.0021
  806MOL0     H11217   2.752   5.602   5.873 -0.5494 -0.1739 -0.0086
  806MOL0     H11218   2.682   5.686   5.678  0.9923  0.0666  1.0022
  806MOL0     H11219   2.523   5.614   5.681  0.8025  0.5217  0.4958
  806MOL0     H11220   2.809   5.493   5.654  0.0821  1.5074 -0.3949
  806MOL0     H11221   2.676   5.386   5.670 -2.4783  0.2249  2.0346
  806MOL0     H11222   2.571   5.533   5.474 -0.8872 -0.7740  2.4672
  806MOL0     H11223   2.677   5.400   5.439 -2.9302  0.4399 -0.8054
  806MOL0     H11224   2.906   5.733   5.316  0.0430  1.8712 -0.4435
  806MOL0     H11225   2.660   5.627   6.150  0.1247 -2.3441 -0.4951
  806MOL0     H11226   2.554   5.765   6.410  2.4659  0.3907 -0.8997
  806MOL0     H11227   2.565   5.606   6.486  0.3460  0.5681  0.1506
  806MOL0     H11228   2.681   5.650   6.365  0.8199  0.6494  0.9937
  807MOL0     O11229   7.863   1.240   2.194  0.0777  0.1765 -0.4058
  807MOL0     C11230   7.936   1.337   2.181 -0.2865  0.2994  0.2518
  807MOL0     O11231   7.943   1.437   2.271 -0.4774 -0.5306  0.3140
  807MOL0     C11232   7.877   1.419   2.379  0.4032 -0.7835  0.2577
  807MOL0     C11233   7.944   1.384   2.498  0.1027 -0.4306  0.0068
  807MOL0     C11234   7.867   1.355   2.618  0.3059 -0.2957  1.2704
  807MOL0     C11235   7.729   1.377   2.613 -0.4085  0.3072 -0.6204
  807MOL0     O11236   7.657   1.359   2.728  0.1073  0.5313  0.0939
  807MOL0     C11237   7.734   1.379   2.849  1.4018 -0.1054  0.7505
  807MOL0     C11238   7.634   1.413   2.960  0.0112  0.8623  0.0929
  807MOL0     C11239   7.701   1.446   3.090 -0.1887 -0.0037 -0.5191
  807MOL0     C11240   7.621   1.414   3.209  1.3811  0.1723 -0.8741
  807MOL0     C11241   7.684   1.449   3.343  0.2329 -0.7949 -0.4607
  807MOL0     C11242   7.577   1.462   3.459 -0.5238 -0.1909  0.9556
  807MOL0     C11243   7.639   1.458   3.595 -0.4078 -0.6565 -0.5053
  807MOL0     C11244   7.687   1.593   3.637  0.1091  0.6740  0.3472
  807MOL0     N11245   7.793   1.577   3.736  1.2101 -0.2884  0.4126
  807MOL0     C11246   7.772   1.591   3.872 -0.1601 -0.9181 -1.3914
  807MOL0     C11247   7.891   1.574   3.934  0.4704  0.1294  0.6642
  807MOL0     C11248   7.901   1.558   4.075  0.6762 -0.4078  0.3787
  807MOL0     C11249   7.872   1.689   4.148  0.6789  0.1692  0.6621
  807MOL0     C11250   7.972   1.705   4.273  0.0383  0.2268 -0.0474
  807MOL0     C11251   7.918   1.800   4.371  0.1204  0.5311  0.4085
  807MOL0     O11252   8.006   1.772   4.489  0.4411  0.1951  0.6717
  807MOL0     C11253   7.970   1.840   4.606 -0.1858 -0.3419  0.3349
  807MOL0     C11254   8.059   1.819   4.709  0.3073 -1.4005 -0.1637
  807MOL0     C11255   8.038   1.865   4.835 -0.7733  0.6511  0.3491
  807MOL0     C11256   8.142   1.811   4.928  0.4393 -0.5046  0.1804
  807MOL0     C11257   7.932   1.945   4.868  0.7917  0.8322  0.1019
  807MOL0     C11258   7.895   1.988   5.006 -1.0784 -0.2644  0.0606
  807MOL0     O11259   7.911   2.118   5.034 -0.6681 -0.0915 -0.6519
  807MOL0     C11260   7.886   2.161   5.165  0.7598  0.2364 -0.1742
  807MOL0     C11261   7.932   2.091   5.272 -0.1044 -0.1502 -0.6872
  807MOL0     C11262   7.909   2.126   5.402 -0.4347 -0.2377 -0.1806
  807MOL0     C11263   7.842   2.248   5.438 -0.1053 -0.1601  0.3917
  807MOL0     O11264   7.810   2.307   5.553 -0.1804 -0.5853  0.2007
  807MOL0     C11265   7.738   2.239   5.662 -0.3974 -0.1340  0.1155
  807MOL0     C11266   7.599   2.311   5.683  0.5860 -0.0682  0.9294
  807MOL0     C11267   7.603   2.468   5.700  0.4483 -0.9083 -0.4438
  807MOL0     C11268   7.692   2.513   5.813 -0.4520 -0.2714  0.5665
  807MOL0     C11269   7.695   2.667   5.825 -1.3201 -0.4123  0.4896
  807MOL0     C11270   7.786   2.712   5.949  1.0858  0.3392  0.4666
  807MOL0     C11271   7.742   2.646   6.080 -0.3176 -0.1714 -0.1782
  807MOL0     C11272   7.811   2.731   6.188 -0.9230  0.2673 -0.7518
  807MOL0    Cl11273   7.987   2.713   6.188  0.0944  0.8690 -0.2759
  807MOL0     C11274   7.798   2.323   5.327  0.3727  0.0130 -0.7146
  807MOL0     C11275   7.823   2.290   5.186  0.1484 -0.3779 -0.5822
  807MOL0     O11276   7.844   1.902   5.071  0.0403  0.0103 -0.9815
  807MOL0     C11277   7.847   1.983   4.762 -0.0698 -0.0437 -1.5023
  807MOL0     C11278   7.861   1.931   4.632 -0.9429  0.1834 -0.1370
  807MOL0     N11279   7.978   1.546   3.834 -0.4476 -0.1037  0.0678
  807MOL0     N11280   7.923   1.547   3.722  0.1328 -0.3150  0.4768
  807MOL0     C11281   7.653   1.414   2.499 -0.5044 -0.1542 -0.6521
  807MOL0     C11282   7.733   1.427   2.380  0.2818 -0.3442  0.2981
  807MOL0     C11283   8.037   1.338   2.062  0.1450  0.5119 -0.6711
  807MOL0     C11284   8.135   1.423   2.073 -0.6492 -0.6750  0.0701
  807MOL0     C11285   8.227   1.432   1.960  0.2606  0.0897 -0.1495
  807MOL0     C11286   8.206   1.372   1.843  0.2721  0.2689  0.3267
  807MOL0     O11287   8.277   1.393   1.724  0.1428  0.3898  0.4830
  807MOL0     C11288   8.414   1.438   1.740 -0.4602 -0.4441  0.1738
  807MOL0     C11289   8.518   1.338   1.789 -0.2665  0.9728 -1.4680
  807MOL0     C11290   8.652   1.413   1.819 -0.2166  0.8262 -0.8094
  807MOL0     C11291   8.746   1.341   1.917 -0.0056  0.2256 -0.4904
  807MOL0     C11292   8.773   1.210   1.879 -0.4821  0.4215  0.8153
  807MOL0     C11293   8.785   1.088   1.850  0.1780 -0.3225 -0.3997
  807MOL0     C11294   8.105   1.280   1.843  0.1059  0.4326  0.1243
  807MOL0     C11295   8.018   1.257   1.949  0.5512  0.0878  0.3082
  807MOL0     C11296   7.909   1.156   1.937  0.6457  0.6986 -0.3780
  807MOL0     H11297   8.052   1.370   2.487 -0.1065 -1.0813 -1.5245
  807MOL0     H11298   7.926   1.338   2.707  0.1679 -0.9299  1.2430
  807MOL0     H11299   7.784   1.475   2.834 -2.0831  1.4534 -2.4169
  807MOL0     H11300   7.799   1.293   2.866  1.0399 -0.7330 -0.9013
  807MOL0     H11301   7.582   1.504   2.930  0.3633  1.4335  1.1604
  807MOL0     H11302   7.559   1.335   2.973  0.2887  0.4797 -0.5768
  807MOL0     H11303   7.792   1.385   3.096  0.1423  0.5947  0.8626
  807MOL0     H11304   7.732   1.551   3.092  0.1264 -0.1053  1.2831
  807MOL0     H11305   7.518   1.451   3.207  0.4051 -2.3689 -1.6213
  807MOL0     H11306   7.601   1.307   3.211  0.5109  0.2994 -2.0850
  807MOL0     H11307   7.755   1.532   3.335 -1.9947  1.0198 -3.1085
  807MOL0     H11308   7.738   1.358   3.370 -1.4120 -1.6909 -0.0964
  807MOL0     H11309   7.524   1.555   3.436  2.0982  0.9432 -0.9529
  807MOL0     H11310   7.512   1.374   3.455  0.1599 -0.6728 -2.6161
  807MOL0     H11311   7.718   1.381   3.597  0.5272  0.2879 -0.4213
  807MOL0     H11312   7.568   1.420   3.669 -2.8333  0.8843 -1.9067
  807MOL0     H11313   7.723   1.644   3.547  0.0266 -2.5627 -1.6827
  807MOL0     H11314   7.603   1.648   3.681 -0.2013  1.1678 -0.8292
  807MOL0     H11315   7.689   1.638   3.924  1.6824  2.1946 -1.0514
  807MOL0     H11316   7.992   1.505   4.104  0.5816 -2.3726 -2.4936
  807MOL0     H11317   7.833   1.481   4.113 -1.6594  1.5283  0.3184
  807MOL0     H11318   7.883   1.774   4.081  0.1359 -0.4691 -0.2540
  807MOL0     H11319   7.770   1.689   4.186  1.8266 -2.2604  4.3966
  807MOL0     H11320   7.989   1.608   4.321  2.3220  0.7877  0.3828
  807MOL0     H11321   8.068   1.738   4.231 -1.1708  1.6888 -1.7977
  807MOL0     H11322   7.924   1.899   4.325 -0.5567  0.0925 -0.6459
  807MOL0     H11323   7.811   1.781   4.385  0.3608 -0.5654  0.8253
  807MOL0     H11324   8.146   1.758   4.691 -0.6206 -3.1689  1.0396
  807MOL0     H11325   8.207   1.884   4.978 -0.2064 -0.6506  1.2633
  807MOL0     H11326   8.212   1.741   4.880 -0.2444 -0.5746 -0.7499
  807MOL0     H11327   8.088   1.751   5.002 -1.0460  0.5927  0.0275
  807MOL0     H11328   7.989   2.002   5.248 -2.7592 -0.8524 -5.6383
  807MOL0     H11329   7.940   2.061   5.483 -0.2004  0.2826  0.1507
  807MOL0     H11330   7.728   2.133   5.637  1.1531 -1.0105  2.8379
  807MOL0     H11331   7.792   2.255   5.756 -1.2102  0.0339  0.5595
  807MOL0     H11332   7.542   2.300   5.590 -0.9318  0.2225  1.7897
  807MOL0     H11333   7.541   2.268   5.765  1.6219 -0.7593  1.3185
  807MOL0     H11334   7.503   2.507   5.723  0.5087  0.0982 -1.7272
  807MOL0     H11335   7.626   2.527   5.610 -2.6259  4.1503  1.6534
  807MOL0     H11336   7.787   2.461   5.798 -0.4462 -0.1476  0.1750
  807MOL0     H11337   7.652   2.474   5.907 -0.9743  0.6385  0.7308
  807MOL0     H11338   7.725   2.699   5.725 -3.1945 -4.5521 -1.6711
  807MOL0     H11339   7.596   2.712   5.838  0.0041  2.3789  1.5358
  807MOL0     H11340   7.779   2.821   5.954 -4.0413  0.4437 -2.2735
  807MOL0     H11341   7.892   2.690   5.934  0.9115 -0.7158  0.6625
  807MOL0     H11342   7.768   2.540   6.090 -2.7597 -0.8627 -0.2503
  807MOL0     H11343   7.633   2.639   6.093 -0.0621 -4.9039  1.2168
  807MOL0     H11344   7.776   2.678   6.277 -0.6699 -0.2665 -0.9740
  807MOL0     H11345   7.781   2.836   6.200 -0.9136  0.3849 -1.6776
  807MOL0     H11346   7.735   2.409   5.346  1.3405  0.1787  2.3266
  807MOL0     H11347   7.799   2.352   5.100  1.3208  0.2732 -0.4542
  807MOL0     H11348   7.764   2.053   4.773  1.6424  1.7441  1.0623
  807MOL0     H11349   7.795   1.967   4.554 -1.1145  2.4889  0.9630
  807MOL0     H11350   7.546   1.433   2.505 -0.0780  2.6051 -0.4278
  807MOL0     H11351   7.689   1.470   2.290  0.2107 -1.5699 -0.2727
  807MOL0     H11352   8.147   1.497   2.151 -3.7936  0.8807 -0.7843
  807MOL0     H11353   8.305   1.508   1.968 -0.2334  1.0635 -3.2365
  807MOL0     H11354   8.443   1.474   1.641  4.7717  3.3054  2.5974
  807MOL0     H11355   8.423   1.527   1.804  3.4770 -0.2661 -0.4188
  807MOL0     H11356   8.540   1.262   1.714 -2.1635  0.8074 -1.9028
  807MOL0     H11357   8.491   1.296   1.886  0.6562 -1.9760 -2.4036
  807MOL0     H11358   8.696   1.434   1.721 -0.4804  0.7754 -0.9388
  807MOL0     H11359   8.618   1.511   1.853 -0.6875  0.2217  0.5390
  807MOL0     H11360   8.709   1.354   2.019  5.6652  1.4048  1.7917
  807MOL0     H11361   8.836   1.402   1.913  0.4359 -0.4023 -0.3895
  807MOL0     H11362   8.792   0.982   1.841 -0.9286 -0.3534 -1.0487
  807MOL0     H11363   8.089   1.214   1.758 -3.9604  1.7408 -0.3455
  807MOL0     H11364   7.916   1.075   2.010 -3.5394  1.8368  1.6023
  807MOL0     H11365   7.812   1.202   1.959 -0.6239 -1.6631 -0.7699
  807MOL0     H11366   7.909   1.118   1.834  2.7494  0.4768 -0.3263
  808MOL0     O11367   8.756   5.628   6.598 -0.2181  0.3569  0.4033
  808MOL0     C11368   8.755   5.574   6.490 -0.1949 -0.3281  0.7093
  808MOL0     O11369   8.773   5.637   6.366  0.3816 -0.4600 -0.1228
  808MOL0     C11370   8.814   5.764   6.345  1.1090 -0.1764  0.2345
  808MOL0     C11371   8.812   5.863   6.442 -0.7826  0.1794 -0.3003
  808MOL0     C11372   8.827   5.995   6.395  0.5812 -0.0285  0.4146
  808MOL0     C11373   8.859   6.022   6.265 -0.0278 -0.3620 -0.1135
  808MOL0     O11374   8.881   6.150   6.217 -0.4193  0.4554 -0.3588
  808MOL0     C11375   8.897   6.260   6.312  0.3572 -0.0797  0.7290
  808MOL0     C11376   8.753   6.304   6.337  1.4469  0.7063 -0.6117
  808MOL0     C11377   8.731   6.445   6.374 -0.2337  0.2892 -0.6157
  808MOL0     C11378   8.599   6.475   6.443  0.4690  0.8417 -0.6570
  808MOL0     C11379   8.587   6.619   6.500  0.5652  0.1648  0.0385
  808MOL0     C11380   8.649   6.729   6.417 -0.3833  0.8772  0.8725
  808MOL0     C11381   8.644   6.860   6.474 -0.4817  0.5409  0.8005
  808MOL0     C11382   8.711   6.967   6.383 -0.0756 -0.5142 -0.4864
  808MOL0     N11383   8.651   6.991   6.248 -0.3154 -0.2259  0.5272
  808MOL0     C11384   8.517   7.045   6.230 -0.4615  0.1196  0.8273
  808MOL0     C11385   8.483   7.046   6.094 -0.2154  0.2536 -0.3319
  808MOL0     C11386   8.364   7.106   6.026 -0.1213 -0.2745  0.1852
  808MOL0     C11387   8.327   7.018   5.910  0.2494 -1.0441  0.0238
  808MOL0     C11388   8.246   7.095   5.814 -0.2179 -0.2207 -0.5500
  808MOL0     C11389   8.157   7.010   5.718  0.3188 -0.6688 -0.6583
  808MOL0     O11390   8.248   6.959   5.625  0.6268 -0.0680  0.2130
  808MOL0     C11391   8.190   6.925   5.505  0.1729  0.5265  0.3610
  808MOL0     C11392   8.061   6.879   5.492  0.4766  0.4277  0.1826
  808MOL0     C11393   7.992   6.867   5.367  0.2969  0.6355 -0.4197
  808MOL0     C11394   7.857   6.802   5.374 -0.5372  0.4757 -0.4767
  808MOL0     C11395   8.064   6.898   5.247  0.2036 -0.3913 -1.4047
  808MOL0     C11396   8.005   6.876   5.110 -0.4183 -0.9642  0.0579
  808MOL0     O11397   8.103   6.906   5.009  0.9558 -0.4102 -0.1191
  808MOL0     C11398   8.067   6.878   4.884 -0.4089 -0.2606 -0.5512
  808MOL0     C11399   7.990   6.964   4.800  0.0164 -0.7344 -0.5922
  808MOL0     C11400   7.960   6.932   4.670  0.5549 -0.0390 -0.9318
  808MOL0     C11401   8.005   6.814   4.620 -0.5625  1.3192  1.4840
  808MOL0     O11402   7.983   6.786   4.488 -0.0224  0.0071  0.3670
  808MOL0     C11403   8.021   6.668   4.421 -0.4410 -0.2187  0.4533
  808MOL0     C11404   8.036   6.692   4.270  0.5710  1.5541  0.9475
  808MOL0     C11405   8.061   6.552   4.199  0.5223 -0.0677 -0.0251
  808MOL0     C11406   8.116   6.577   4.053 -0.1721 -0.3549  0.2438
  808MOL0     C11407   8.162   6.453   3.989  0.3964  0.3027 -0.5510
  808MOL0     C11408   8.059   6.336   3.982 -0.2423  0.3961  0.7103
  808MOL0     C11409   7.934   6.371   3.896 -0.2341  0.3993  0.7045
  808MOL0     C11410   7.814   6.283   3.932 -0.0601  0.1180 -0.1431
  808MOL0    Cl11411   7.678   6.330   3.817 -0.0449 -0.0845 -0.3475
  808MOL0     C11412   8.058   6.716   4.709  0.1302 -0.4753  0.8442
  808MOL0     C11413   8.097   6.757   4.841  0.5830  0.0532  0.1072
  808MOL0     O11414   7.889   6.839   5.091 -0.0347  0.4608 -0.5270
  808MOL0     C11415   8.198   6.948   5.265 -0.1115  0.0363  0.0898
  808MOL0     C11416   8.262   6.946   5.390  0.2321 -0.7161  0.9416
  808MOL0     N11417   8.604   7.004   6.032  0.5861  0.0580 -0.3648
  808MOL0     N11418   8.695   6.966   6.120  0.0219  0.1409 -0.1144
  808MOL0     C11419   8.885   5.917   6.177  0.2001 -0.2759 -0.3966
  808MOL0     C11420   8.855   5.787   6.213 -0.2021 -0.1503 -0.0163
  808MOL0     C11421   8.769   5.426   6.494  1.3862 -0.0319 -0.0478
  808MOL0     C11422   8.822   5.362   6.384  0.2984 -0.2015 -0.1621
  808MOL0     C11423   8.811   5.223   6.361 -0.6331 -0.2285  0.1017
  808MOL0     C11424   8.732   5.147   6.455 -0.3423 -0.4570  0.5365
  808MOL0     O11425   8.727   5.018   6.421 -0.0351 -0.3437 -0.4179
  808MOL0     C11426   8.701   4.920   6.528  0.4213  0.0935  0.2315
  808MOL0     C11427   8.677   4.780   6.460 -0.1564  0.3748  0.0709
  808MOL0     C11428   8.810   4.755   6.381  0.0176  0.3582  0.9361
  808MOL0     C11429   8.800   4.635   6.287  0.4297  0.6081 -0.0809
  808MOL0     C11430   8.871   4.518   6.331 -0.1588 -0.7207 -0.2588
  808MOL0     C11431   8.929   4.420   6.372  0.0736  0.1087  0.4487
  808MOL0     C11432   8.689   5.207   6.569  0.0192  0.0468  0.1190
  808MOL0     C11433   8.700   5.346   6.590  0.0815  0.2819 -0.1776
  808MOL0     C11434   8.646   5.400   6.722 -0.3388  0.6760  1.2021
  808MOL0     H11435   8.781   5.839   6.543 -0.6076 -1.3508 -0.5809
  808MOL0     H11436   8.831   6.074   6.470  2.5782  0.1922  0.1428
  808MOL0     H11437   8.940   6.333   6.242 -0.5650 -2.3588 -2.4539
  808MOL0     H11438   8.951   6.251   6.407 -0.6712 -1.9416  1.1848
  808MOL0     H11439   8.689   6.264   6.258  2.0832 -2.4214  0.3292
  808MOL0     H11440   8.716   6.243   6.419 -1.5881  2.1059 -0.7940
  808MOL0     H11441   8.807   6.471   6.448 -0.4283 -0.0507 -0.2904
  808MOL0     H11442   8.740   6.509   6.285  0.2462  1.1350  0.0263
  808MOL0     H11443   8.511   6.450   6.384  0.8111 -1.4823 -0.2728
  808MOL0     H11444   8.591   6.403   6.525  1.6362 -0.2023 -1.4153
  808MOL0     H11445   8.643   6.623   6.593  4.4650 -3.7794 -1.7563
  808MOL0     H11446   8.483   6.652   6.507  0.4026 -0.4464  0.6427
  808MOL0     H11447   8.751   6.706   6.387 -0.9746 -0.0926 -0.4867
  808MOL0     H11448   8.591   6.724   6.324  1.6576  0.9032 -0.4666
  808MOL0     H11449   8.690   6.858   6.573  0.5393  0.9606  0.3495
  808MOL0     H11450   8.540   6.885   6.495 -0.7688 -1.9586  2.7160
  808MOL0     H11451   8.711   7.062   6.437 -1.1582 -1.4763  1.2904
  808MOL0     H11452   8.814   6.933   6.365 -1.3639 -4.5111 -1.3044
  808MOL0     H11453   8.452   7.064   6.315  0.5334  1.2043  1.3751
  808MOL0     H11454   8.379   7.212   6.000 -3.2178  1.6911  4.9922
  808MOL0     H11455   8.279   7.131   6.091  0.4491 -0.5304  1.0446
  808MOL0     H11456   8.416   6.971   5.869  0.4645  0.5179 -1.4236
  808MOL0     H11457   8.268   6.934   5.948  0.2596 -1.7477 -1.4505
  808MOL0     H11458   8.170   7.151   5.870 -0.2545 -2.3684  1.7295
  808MOL0     H11459   8.312   7.164   5.761  3.1322 -1.7031  1.4175
  808MOL0     H11460   8.099   6.940   5.780  0.2964  0.5563  0.7428
  808MOL0     H11461   8.076   7.065   5.668 -2.1070 -3.6768 -0.3933
  808MOL0     H11462   8.002   6.860   5.581  2.9589 -0.4251  1.7225
  808MOL0     H11463   7.869   6.695   5.355  2.5849 -0.2608  4.0073
  808MOL0     H11464   7.789   6.856   5.307 -0.4346  0.7490 -0.3640
  808MOL0     H11465   7.820   6.802   5.477  1.1518  0.4927  0.1563
  808MOL0     H11466   7.951   7.052   4.851 -2.5073 -0.7656 -2.3129
  808MOL0     H11467   7.896   6.980   4.596  2.4366 -0.5529 -3.0084
  808MOL0     H11468   8.115   6.635   4.465 -0.5571 -0.1460  0.7611
  808MOL0     H11469   7.936   6.602   4.445 -1.0849  0.8970  1.3362
  808MOL0     H11470   7.952   6.738   4.217 -1.0225 -1.8831  0.2035
  808MOL0     H11471   8.118   6.761   4.247 -0.3084  2.3010 -0.0771
  808MOL0     H11472   7.966   6.499   4.188  0.9712 -0.7640 -0.6308
  808MOL0     H11473   8.132   6.494   4.259 -1.1141 -2.7658 -0.5347
  808MOL0     H11474   8.192   6.656   4.059 -2.8858  2.4575 -0.0402
  808MOL0     H11475   8.040   6.630   3.995  1.2612  0.9070 -0.5698
  808MOL0     H11476   8.182   6.474   3.883  2.0669  1.1829 -0.0911
  808MOL0     H11477   8.250   6.413   4.040 -0.2286  1.0615  1.2038
  808MOL0     H11478   8.024   6.314   4.083 -2.9132 -1.2908 -0.4716
  808MOL0     H11479   8.094   6.238   3.947  1.8296  0.2159  3.0276
  808MOL0     H11480   7.969   6.347   3.795 -1.7412 -1.4986  0.5846
  808MOL0     H11481   7.909   6.477   3.906 -1.4960 -0.1150  4.4844
  808MOL0     H11482   7.791   6.290   4.039 -2.8625 -1.9933 -0.4863
  808MOL0     H11483   7.829   6.177   3.907  0.3094  0.2253 -0.3808
  808MOL0     H11484   8.076   6.617   4.669  3.0740  1.1152 -2.3276
  808MOL0     H11485   8.149   6.690   4.909  0.9816  1.8566  1.6574
  808MOL0     H11486   8.240   6.994   5.177 -0.7621 -0.0912 -0.2939
  808MOL0     H11487   8.364   6.983   5.401 -0.3041  0.8442  0.8160
  808MOL0     H11488   8.906   5.944   6.074  1.8776  0.2117  0.0368
  808MOL0     H11489   8.862   5.718   6.129 -1.4707  0.4981 -0.6736
  808MOL0     H11490   8.860   5.419   6.300 -1.6756 -0.0128 -0.9715
  808MOL0     H11491   8.845   5.177   6.269 -1.9672 -0.8850 -0.0833
  808MOL0     H11492   8.787   4.935   6.594  0.7032  4.1718 -0.7679
  808MOL0     H11493   8.619   4.945   6.596  1.1737 -0.9934  1.5955
  808MOL0     H11494   8.581   4.774   6.408  0.5005 -0.1535 -1.1191
  808MOL0     H11495   8.665   4.704   6.538 -2.3514  0.2459 -0.3114
  808MOL0     H11496   8.836   4.836   6.311 -1.8551 -0.2400 -0.5491
  808MOL0     H11497   8.897   4.736   6.444 -1.6874 -2.9365  2.5197
  808MOL0     H11498   8.835   4.665   6.188  0.4975  3.0027  0.5997
  808MOL0     H11499   8.694   4.608   6.280  0.7611 -0.2102 -3.2824
  808MOL0     H11500   8.967   4.326   6.408  0.0449  0.7866  2.3366
  808MOL0     H11501   8.649   5.153   6.655  2.7200 -2.7744 -0.2073
  808MOL0     H11502   8.718   5.444   6.791 -1.5802  2.2603  1.5365
  808MOL0     H11503   8.572   5.475   6.692 -0.3069  0.4973  0.6620
  808MOL0     H11504   8.576   5.332   6.772 -2.3966  1.3562 -0.6017
  809MOL0     O11505   7.588   8.991   5.051  0.5341  0.5120  1.0608
  809MOL0     C11506   7.604   8.897   4.969  0.8755 -0.8117  0.4446
  809MOL0     O11507   7.721   8.829   4.949  0.8101  0.6336 -0.2533
  809MOL0     C11508   7.832   8.886   5.003  0.2027  0.1339  0.3141
  809MOL0     C11509   7.936   8.798   5.051  0.1327 -0.0192 -0.1790
  809MOL0     C11510   8.063   8.849   5.087  0.8192  0.3149 -0.1903
  809MOL0     C11511   8.089   8.985   5.086  0.0200  0.2957  0.5826
  809MOL0     O11512   8.216   9.026   5.120  0.8029  0.0921  0.4758
  809MOL0     C11513   8.238   9.163   5.160  0.2847  0.6894  0.0397
  809MOL0     C11514   8.387   9.175   5.175 -0.7342  0.3988  0.0038
  809MOL0     C11515   8.460   9.067   5.253 -0.4822  0.6958 -0.4687
  809MOL0     C11516   8.457   9.076   5.405 -0.1719 -0.7506  0.8809
  809MOL0     C11517   8.498   8.954   5.485 -0.8182  0.1779 -0.4530
  809MOL0     C11518   8.643   8.920   5.459 -0.6125  0.6589  0.1347
  809MOL0     C11519   8.693   8.821   5.569  1.7535 -0.1131  0.6601
  809MOL0     C11520   8.693   8.676   5.515  0.0154  1.1565  0.6270
  809MOL0     N11521   8.725   8.575   5.615 -0.9114 -0.1509 -0.6029
  809MOL0     C11522   8.849   8.536   5.651  0.6565 -0.1352 -0.2528
  809MOL0     C11523   8.825   8.436   5.740 -0.7161  0.7669 -0.6599
  809MOL0     C11524   8.937   8.346   5.808  0.6964 -0.5744  0.6495
  809MOL0     C11525   8.974   8.225   5.721 -1.1128 -0.0903  0.2834
  809MOL0     C11526   8.874   8.107   5.747  0.2864 -0.0962 -0.0426
  809MOL0     C11527   8.866   8.021   5.625 -0.2752 -0.3199 -0.4701
  809MOL0     O11528   8.996   8.002   5.571  0.2682 -0.9163 -0.3622
  809MOL0     C11529   9.036   7.875   5.543  0.9575 -0.1004  0.5542
  809MOL0     C11530   8.956   7.764   5.525  0.1602  0.2876  0.0448
  809MOL0     C11531   9.003   7.637   5.488  0.4646  0.2671 -0.7175
  809MOL0     C11532   8.908   7.528   5.482 -0.6592  0.7811  0.7509
  809MOL0     C11533   9.145   7.625   5.466 -0.0882 -0.0794 -0.2555
  809MOL0     C11534   9.209   7.502   5.413  0.5232 -0.0738 -0.0386
  809MOL0     O11535   9.169   7.382   5.455 -0.2996 -0.2671  0.2537
  809MOL0     C11536   9.171   7.276   5.369 -0.4972 -0.1279 -0.2740
  809MOL0     C11537   9.178   7.283   5.229  0.2214 -0.1094 -0.6677
  809MOL0     C11538   9.170   7.169   5.151  0.0026  0.4207  0.2693
  809MOL0     C11539   9.150   7.043   5.208 -0.3289 -0.2328 -0.5157
  809MOL0     O11540   9.138   6.939   5.125  0.1906 -0.0787 -0.0377
  809MOL0     C11541   9.014   6.864   5.126  0.8073 -0.3217 -0.6292
  809MOL0     C11542   9.028   6.750   5.025  1.1139 -0.2152 -0.1066
  809MOL0     C11543   8.899   6.664   5.057 -0.3339  0.3064  0.1587
  809MOL0     C11544   8.901   6.547   4.956  0.3522  0.4486  0.1079
  809MOL0     C11545   8.784   6.454   4.975  0.2714  0.5460  0.5960
  809MOL0     C11546   8.829   6.314   4.926 -0.4103  1.2198 -0.0923
  809MOL0     C11547   8.733   6.204   4.976  0.2167  0.0030 -0.6235
  809MOL0     C11548   8.787   6.071   4.911  0.8133  0.7075  0.4760
  809MOL0    Cl11549   8.756   6.076   4.733  0.0318 -0.2900 -0.3164
  809MOL0     C11550   9.145   7.038   5.347  0.5418  1.0797  1.0016
  809MOL0     C11551   9.154   7.150   5.428 -1.0651  0.1273 -0.2602
  809MOL0     O11552   9.309   7.521   5.337 -0.2904  0.4134  0.7478
  809MOL0     C11553   9.227   7.738   5.487 -1.4097 -0.6896  0.7551
  809MOL0     C11554   9.174   7.859   5.530  0.8717 -0.2991 -0.0325
  809MOL0     N11555   8.693   8.417   5.752 -0.8696 -0.3483 -0.9056
  809MOL0     N11556   8.631   8.496   5.675 -0.3692 -0.3762  0.7572
  809MOL0     C11557   7.983   9.073   5.043 -0.0257 -0.3015  0.8159
  809MOL0     C11558   7.857   9.028   4.987  0.5508 -0.2157  0.3516
  809MOL0     C11559   7.484   8.856   4.892  0.3081 -0.4285  0.2072
  809MOL0     C11560   7.435   8.728   4.911  0.4689 -0.7631 -0.1348
  809MOL0     C11561   7.311   8.697   4.850  0.0813 -0.2253 -0.4164
  809MOL0     C11562   7.247   8.784   4.761  0.4022  0.0179 -0.1427
  809MOL0     O11563   7.131   8.749   4.692 -0.6025  0.5654 -0.5860
  809MOL0     C11564   7.112   8.794   4.558  0.0862  0.3427 -0.3808
  809MOL0     C11565   6.993   8.723   4.487  1.2516 -0.7790  0.4695
  809MOL0     C11566   7.004   8.576   4.500 -0.3158 -0.2025  0.6062
  809MOL0     C11567   6.896   8.513   4.402  0.7555 -0.6269  0.0680
  809MOL0     C11568   6.882   8.366   4.422 -0.7905  0.0931  0.3051
  809MOL0     C11569   6.869   8.241   4.431  0.6132 -0.5717  0.0723
  809MOL0     C11570   7.311   8.899   4.730 -0.1823 -0.4926 -0.6151
  809MOL0     C11571   7.426   8.943   4.795 -0.6776  0.2596 -1.1299
  809MOL0     C11572   7.483   9.070   4.748 -0.8862 -0.0604  0.3711
  809MOL0     H11573   7.932   8.689   5.049  2.4545 -0.1473 -0.7498
  809MOL0     H11574   8.154   8.791   5.100  1.3049  0.3028 -3.0662
  809MOL0     H11575   8.178   9.192   5.247 -0.8338 -2.3779  0.4494
  809MOL0     H11576   8.211   9.231   5.079 -0.5957 -1.4396 -1.5481
  809MOL0     H11577   8.433   9.177   5.076 -0.2830  2.4514  0.2186
  809MOL0     H11578   8.406   9.276   5.211  0.5704  2.3218 -5.1819
  809MOL0     H11579   8.426   8.968   5.224 -4.4593  2.2752 -1.8855
  809MOL0     H11580   8.563   9.085   5.219 -0.5087  1.6707 -0.0611
  809MOL0     H11581   8.502   9.166   5.447 -2.5844  1.6376 -1.2261
  809MOL0     H11582   8.349   9.076   5.421 -0.3780 -3.9399  0.0481
  809MOL0     H11583   8.427   8.874   5.463 -2.5527  0.7297  2.5187
  809MOL0     H11584   8.496   8.977   5.592 -0.7315 -0.1400 -0.3822
  809MOL0     H11585   8.658   8.874   5.361 -1.6922  3.0798 -1.2547
  809MOL0     H11586   8.710   9.006   5.462  0.9015 -0.4953  1.8781
  809MOL0     H11587   8.633   8.819   5.660 -0.8776 -1.9491 -0.9698
  809MOL0     H11588   8.793   8.859   5.595  2.4821 -0.1900 -1.7610
  809MOL0     H11589   8.598   8.647   5.470 -0.4969 -0.1545  2.4646
  809MOL0     H11590   8.766   8.671   5.433  0.4915 -1.0580  1.1169
  809MOL0     H11591   8.936   8.587   5.612  0.0412  0.0342 -1.4542
  809MOL0     H11592   8.916   8.304   5.907  0.7512 -1.8236  0.1437
  809MOL0     H11593   9.015   8.422   5.821  0.6357 -0.3369 -0.3135
  809MOL0     H11594   8.972   8.243   5.613  4.7844 -0.4240 -0.2106
  809MOL0     H11595   9.076   8.189   5.736 -1.1461  0.5455  2.4236
  809MOL0     H11596   8.898   8.062   5.843  0.8225  0.6019  0.1607
  809MOL0     H11597   8.776   8.153   5.759  0.9120  0.8240  1.9724
  809MOL0     H11598   8.815   7.928   5.654 -1.5557 -0.0882 -1.8837
  809MOL0     H11599   8.803   8.078   5.557  0.9791  1.4458 -0.2282
  809MOL0     H11600   8.848   7.768   5.515  0.2386 -0.1540 -1.3214
  809MOL0     H11601   8.937   7.453   5.556  1.7981  1.6476  0.7344
  809MOL0     H11602   8.907   7.496   5.377 -2.8820  4.1292 -0.4394
  809MOL0     H11603   8.808   7.558   5.516 -2.1163  1.6802 -3.5889
  809MOL0     H11604   9.183   7.377   5.176 -0.8837 -0.6231 -1.7276
  809MOL0     H11605   9.184   7.179   5.043  1.4889 -1.4223  0.2258
  809MOL0     H11606   8.996   6.815   5.223 -0.1439 -0.3057 -0.7841
  809MOL0     H11607   8.927   6.930   5.114  1.4786  1.4051  2.7923
  809MOL0     H11608   9.034   6.795   4.925  1.9637  3.6847  1.5331
  809MOL0     H11609   9.120   6.696   5.050  0.2833 -1.7516 -0.2465
  809MOL0     H11610   8.809   6.720   5.032  0.4283  1.6789  0.3943
  809MOL0     H11611   8.890   6.624   5.159  2.2633  3.0663  1.6345
  809MOL0     H11612   8.994   6.498   4.987  0.0794  2.6331  5.3596
  809MOL0     H11613   8.902   6.579   4.851  1.9967 -0.1305 -0.0856
  809MOL0     H11614   8.761   6.459   5.082  1.4875 -0.1082  0.9040
  809MOL0     H11615   8.695   6.490   4.921 -1.1268  1.1235  3.0975
  809MOL0     H11616   8.927   6.296   4.972 -1.4207  2.5056  2.7930
  809MOL0     H11617   8.851   6.317   4.818  3.1438  2.3038  0.5263
  809MOL0     H11618   8.630   6.235   4.958  0.3512  2.5812  2.2607
  809MOL0     H11619   8.737   6.194   5.085  0.2272 -1.7301 -0.7571
  809MOL0     H11620   8.739   5.984   4.956 -1.6895  0.2007 -2.7437
  809MOL0     H11621   8.893   6.074   4.934  0.6351  3.1197  1.2957
  809MOL0     H11622   9.146   6.941   5.396 -1.3977 -0.6655 -2.0806
  809MOL0     H11623   9.141   7.139   5.536 -1.9938  1.3758 -0.2179
  809MOL0     H11624   9.333   7.741   5.462 -1.5632 -0.7342  0.0805
  809MOL0     H11625   9.238   7.941   5.562  0.3969 -0.5164  1.5460
  809MOL0     H11626   7.997   9.181   5.048 -0.1131 -0.1634 -1.1959
  809MOL0     H11627   7.792   9.100   4.939  3.3012  3.4308  1.6956
  809MOL0     H11628   7.477   8.670   4.993  2.6251 -1.4431 -1.6430
  809MOL0     H11629   7.255   8.606   4.866  0.2792 -0.4309 -0.8909
  809MOL0     H11630   7.089   8.901   4.559 -2.1955  0.0247  3.3704
  809MOL0     H11631   7.199   8.765   4.498 -1.8518 -1.9442 -2.3077
  809MOL0     H11632   6.985   8.767   4.387 -0.7823  1.6128  1.5581
  809MOL0     H11633   6.897   8.744   4.535  1.3278 -3.5181  2.0327
  809MOL0     H11634   7.099   8.540   4.459 -0.2070  2.4106 -1.7193
  809MOL0     H11635   6.990   8.535   4.600  0.5570 -2.7170 -0.2178
  809MOL0     H11636   6.917   8.529   4.296  0.3804 -0.3234  0.0365
  809MOL0     H11637   6.799   8.550   4.435 -0.0635 -1.2095 -1.5687
  809MOL0     H11638   6.842   8.139   4.410 -0.9672  0.3592 -3.0335
  809MOL0     H11639   7.255   8.968   4.666 -0.8248  0.6965  1.1440
  809MOL0     H11640   7.407   9.135   4.791  0.4609 -0.5814  3.9157
  809MOL0     H11641   7.582   9.098   4.784 -1.2247  1.4458  0.1912
  809MOL0     H11642   7.481   9.082   4.639  0.0992 -0.4564  0.3004
  810MOL0     O11643   0.773   3.824   6.600  0.6989  0.2423 -0.3848
  810MOL0     C11644   0.727   3.787   6.709  0.4469 -0.5289 -0.0602
  810MOL0     O11645   0.765   3.837   6.826  0.7061 -0.1474 -0.6098
  810MOL0     C11646   0.886   3.900   6.817  0.4196  0.2023  0.0548
  810MOL0     C11647   1.004   3.818   6.796  0.1154 -0.1205 -0.6447
  810MOL0     C11648   1.126   3.886   6.804 -0.1889  0.9763  0.1810
  810MOL0     C11649   1.132   4.025   6.823 -0.3451 -0.2121 -0.4674
  810MOL0     O11650   1.255   4.085   6.798  0.0368  0.3584 -1.3322
  810MOL0     C11651   1.273   4.180   6.699 -0.2313 -0.5366  0.8398
  810MOL0     C11652   1.297   4.333   6.745 -0.5344 -0.3090  0.4524
  810MOL0     C11653   1.360   4.354   6.881 -0.2010 -0.2115 -0.4764
  810MOL0     C11654   1.506   4.306   6.877  0.4242 -0.1053  0.9472
  810MOL0     C11655   1.574   4.351   7.006  0.4269 -0.6618  0.3062
  810MOL0     C11656   1.615   4.504   7.014 -0.0117 -0.6239  0.1613
  810MOL0     C11657   1.709   4.549   6.901 -0.6236  0.2905  0.4266
  810MOL0     C11658   1.731   4.695   6.907  0.8252  0.5528 -0.0805
  810MOL0     N11659   1.863   4.739   6.902 -0.2494  0.0025  0.3907
  810MOL0     C11660   1.965   4.681   6.823  0.1011 -1.1931 -0.0813
  810MOL0     C11661   2.086   4.735   6.872  0.5296  0.3435  0.1369
  810MOL0     C11662   2.225   4.694   6.830 -0.1540  0.3613  0.1564
  810MOL0     C11663   2.346   4.780   6.864 -0.2708  0.5929 -0.1446
  810MOL0     C11664   2.377   4.793   7.015  0.9288  0.4572  0.3455
  810MOL0     C11665   2.492   4.886   7.043 -0.7022  0.4052 -0.1492
  810MOL0     O11666   2.614   4.832   6.983  0.0593 -0.4794 -0.1445
  810MOL0     C11667   2.738   4.872   7.030  0.0938 -0.2326  0.7950
  810MOL0     C11668   2.823   4.939   6.945 -0.0094 -0.3883  0.4946
  810MOL0     C11669   2.958   4.975   6.978  1.1420  0.3371  0.2411
  810MOL0     C11670   3.030   5.065   6.862 -0.1372  0.3378 -0.6975
  810MOL0     C11671   3.015   4.934   7.102 -0.1634 -0.2625  0.5264
  810MOL0     C11672   3.149   4.973   7.159  0.1977 -0.4928  0.0584
  810MOL0     O11673   3.184   4.914   7.274  0.0045  0.1753 -0.6512
  810MOL0     C11674   3.307   4.941   7.325  0.0741 -0.5285  0.4777
  810MOL0     C11675   3.367   4.846   7.403 -0.0316  0.4468 -0.2199
  810MOL0     C11676   3.494   4.851   7.456 -0.0072  0.4789  1.3045
  810MOL0     C11677   3.558   4.974   7.452 -0.6889 -0.3764  1.3492
  810MOL0     O11678   3.693   4.986   7.498 -0.4496  0.1941  0.0850
  810MOL0     C11679   3.768   5.107   7.476  0.5242 -0.2051  0.7428
  810MOL0     C11680   3.911   5.070   7.517  0.3100 -0.3986 -0.1818
  810MOL0     C11681   4.010   5.118   7.422 -0.4414 -0.4326  0.1699
  810MOL0     C11682   4.006   5.270   7.403  0.2457  0.3927  0.0667
  810MOL0     C11683   4.134   5.322   7.361  0.1793  0.6877 -0.5107
  810MOL0     C11684   4.146   5.474   7.365 -0.1635  0.4705 -0.5266
  810MOL0     C11685   4.043   5.549   7.275 -0.8021 -0.4080  1.0406
  810MOL0     C11686   3.940   5.627   7.351  0.3623  0.4983 -0.1032
  810MOL0    Cl11687   3.858   5.726   7.237  0.0718  0.4532  0.3481
  810MOL0     C11688   3.502   5.079   7.374  0.2753  0.2884 -0.6860
  810MOL0     C11689   3.373   5.059   7.319  0.0685  1.0781 -0.2606
  810MOL0     O11690   3.222   5.045   7.084  0.2914  0.6808  0.0443
  810MOL0     C11691   2.923   4.873   7.184 -0.2109 -0.1862  0.8131
  810MOL0     C11692   2.789   4.848   7.151 -0.4980  0.9247  0.5499
  810MOL0     N11693   2.048   4.827   6.968 -0.0172  0.6175 -0.2135
  810MOL0     N11694   1.920   4.849   6.974 -0.1802  0.9043  0.2794
  810MOL0     C11695   1.024   4.095   6.864 -0.6962  0.0557  0.3280
  810MOL0     C11696   0.905   4.027   6.872  0.3776  0.0400 -0.1024
  810MOL0     C11697   0.639   3.668   6.708  0.0043  0.4720  0.5138
  810MOL0     C11698   0.679   3.560   6.795 -0.5267 -0.7023  0.8938
  810MOL0     C11699   0.595   3.448   6.812 -1.1845  0.3110 -0.4091
  810MOL0     C11700   0.496   3.426   6.720 -0.1204 -0.4916  0.1205
  810MOL0     O11701   0.416   3.311   6.717 -0.0521  0.6217 -0.2213
  810MOL0     C11702   0.395   3.236   6.842 -0.1918  0.8580  0.2727
  810MOL0     C11703   0.293   3.124   6.821 -0.0507 -0.3894 -1.0285
  810MOL0     C11704   0.302   3.020   6.923 -0.1937 -0.7767 -0.8602
  810MOL0     C11705   0.408   2.920   6.888  0.8953  0.0992  0.1566
  810MOL0     C11706   0.431   2.807   6.979  0.3447  0.0318 -0.0402
  810MOL0     C11707   0.476   2.721   7.052  0.2412 -0.3466 -0.4249
  810MOL0     C11708   0.468   3.533   6.623  0.9843  1.2542 -1.1203
  810MOL0     C11709   0.531   3.658   6.620 -0.0824  1.8147 -0.6613
  810MOL0     C11710   0.478   3.776   6.535  0.1228 -0.2222  0.7593
  810MOL0     H11711   1.000   3.711   6.779  1.4688 -0.1738 -0.7460
  810MOL0     H11712   1.214   3.824   6.795 -1.6703 -1.3485  0.9111
  810MOL0     H11713   1.187   4.181   6.631 -1.7970 -0.0670  2.7529
  810MOL0     H11714   1.351   4.160   6.625 -1.8988  1.2263 -1.6012
  810MOL0     H11715   1.368   4.379   6.675  0.8402  2.2910  3.3093
  810MOL0     H11716   1.207   4.394   6.729  0.5749  0.8822 -1.7582
  810MOL0     H11717   1.348   4.459   6.908 -4.2457 -0.8944  1.1207
  810MOL0     H11718   1.302   4.302   6.957 -2.0683  0.5585 -1.3278
  810MOL0     H11719   1.486   4.198   6.876 -3.8056  0.5203  0.1065
  810MOL0     H11720   1.556   4.328   6.782 -2.7570 -0.9318 -1.0661
  810MOL0     H11721   1.664   4.291   7.022  0.7858  0.4502  3.0205
  810MOL0     H11722   1.501   4.328   7.085  0.9726 -1.2318  0.6525
  810MOL0     H11723   1.524   4.565   7.005  1.5311  1.5720 -2.0188
  810MOL0     H11724   1.656   4.535   7.111 -1.7903  0.3790  0.6432
  810MOL0     H11725   1.680   4.523   6.799 -1.2326  4.4026 -0.6284
  810MOL0     H11726   1.801   4.491   6.912 -2.2683 -3.1793 -1.9917
  810MOL0     H11727   1.676   4.745   6.827 -0.2583 -1.3927 -0.5964
  810MOL0     H11728   1.685   4.729   7.000  2.0774  2.9397 -0.2531
  810MOL0     H11729   1.961   4.597   6.753 -0.2039  0.2086 -1.8118
  810MOL0     H11730   2.232   4.681   6.722  2.5433 -0.7602  0.3866
  810MOL0     H11731   2.246   4.590   6.856  2.9619  0.8496  0.0848
  810MOL0     H11732   2.434   4.734   6.818 -0.2822  1.5999 -1.2033
  810MOL0     H11733   2.324   4.881   6.828 -1.3855  0.0556 -1.0400
  810MOL0     H11734   2.291   4.828   7.073  0.6168 -1.6279  1.2371
  810MOL0     H11735   2.396   4.691   7.049  3.4121  0.3088 -1.1795
  810MOL0     H11736   2.479   4.987   7.003 -2.5209  1.0518  1.9173
  810MOL0     H11737   2.495   4.890   7.152 -3.7108 -1.8062  0.1479
  810MOL0     H11738   2.790   4.968   6.846 -0.2927  0.9828  0.9801
  810MOL0     H11739   2.944   5.102   6.807 -1.5947 -2.2382 -0.3060
  810MOL0     H11740   3.081   4.988   6.803  0.2210 -0.0133  0.0571
  810MOL0     H11741   3.086   5.142   6.918 -2.5518  0.9508  1.0274
  810MOL0     H11742   3.305   4.757   7.413  1.8232 -0.6830  2.3083
  810MOL0     H11743   3.533   4.763   7.506  0.2807  0.0397  0.3363
  810MOL0     H11744   3.763   5.142   7.373  1.4120  0.0734  0.7904
  810MOL0     H11745   3.729   5.182   7.546 -0.4327 -1.7026  1.9008
  810MOL0     H11746   3.936   5.108   7.616  2.6633 -0.5974 -0.6358
  810MOL0     H11747   3.912   4.963   7.536  1.0807  0.1452  3.4143
  810MOL0     H11748   3.995   5.064   7.328 -2.0854  3.0359 -1.7037
  810MOL0     H11749   4.112   5.088   7.450  1.4368  5.1345  0.5544
  810MOL0     H11750   3.977   5.316   7.497  0.1855 -0.6891  0.5934
  810MOL0     H11751   3.931   5.287   7.325 -0.1209 -3.7631 -0.6933
  810MOL0     H11752   4.196   5.281   7.441  1.5633  5.5512  1.2593
  810MOL0     H11753   4.157   5.292   7.259 -3.1884 -1.8968 -0.6906
  810MOL0     H11754   4.250   5.496   7.339  0.8011  0.6363  2.9729
  810MOL0     H11755   4.149   5.504   7.471  1.4751 -1.8012  0.1479
  810MOL0     H11756   4.017   5.491   7.186  5.0669  1.5996 -2.5475
  810MOL0     H11757   4.105   5.628   7.232 -3.2719 -0.7211 -3.8412
  810MOL0     H11758   3.978   5.690   7.432 -4.5113  1.6525  1.6690
  810MOL0     H11759   3.876   5.563   7.413 -0.8414  3.8121  2.3964
  810MOL0     H11760   3.548   5.176   7.359 -3.0033  1.7543 -2.2796
  810MOL0     H11761   3.327   5.145   7.271  1.0548  0.5135 -2.3426
  810MOL0     H11762   2.954   4.841   7.283  1.6655 -2.1724 -0.3285
  810MOL0     H11763   2.723   4.798   7.222 -0.8307 -0.3773 -0.6222
  810MOL0     H11764   1.028   4.199   6.897  1.1943 -0.0687  0.5934
  810MOL0     H11765   0.812   4.071   6.908 -2.5172 -4.8663 -0.7014
  810MOL0     H11766   0.763   3.572   6.862 -1.4129  0.1036  1.9101
  810MOL0     H11767   0.627   3.371   6.881  1.3708 -0.0822 -1.9166
  810MOL0     H11768   0.490   3.193   6.875 -1.1482 -1.1941  0.4467
  810MOL0     H11769   0.355   3.305   6.918 -1.4801 -0.6105  0.9786
  810MOL0     H11770   0.297   3.090   6.717 -2.9107  0.0156 -1.3492
  810MOL0     H11771   0.197   3.174   6.835  0.2533 -0.2192  0.5841
  810MOL0     H11772   0.317   3.073   7.018 -1.4805 -1.1108 -0.4529
  810MOL0     H11773   0.203   2.974   6.933 -1.0930  1.2648  0.4523
  810MOL0     H11774   0.507   2.965   6.877  0.1123  2.8047  2.7190
  810MOL0     H11775   0.369   2.874   6.797  0.5112  1.2337 -0.2614
  810MOL0     H11776   0.517   2.644   7.114 -0.5692  0.5256  1.2471
  810MOL0     H11777   0.378   3.513   6.566  1.1745 -2.2470 -0.4005
  810MOL0     H11778   0.482   3.875   6.581 -0.5986  0.3447 -0.3751
  810MOL0     H11779   0.538   3.787   6.444 -1.5368  2.7017 -0.0908
  810MOL0     H11780   0.373   3.762   6.506  0.0644 -0.3426  1.0215
  811MOL0     O11781   0.462   7.837   6.288 -0.5247 -0.0701  0.2661
  811MOL0     C11782   0.386   7.904   6.353 -0.2785  0.3666 -0.8604
  811MOL0     O11783   0.276   7.978   6.302 -0.4946  0.1939  0.0253
  811MOL0     C11784   0.269   7.972   6.169 -0.1386  0.0371  1.1559
  811MOL0     C11785   0.202   7.859   6.102 -0.0652 -0.7814  0.2605
  811MOL0     C11786   0.166   7.872   5.972  0.1234  0.1077  0.0251
  811MOL0     C11787   0.192   7.988   5.899 -0.1249  0.5350  0.1139
  811MOL0     O11788   0.178   7.984   5.764 -0.8700  0.3581 -0.8150
  811MOL0     C11789   0.127   8.095   5.690  0.7412 -0.1594 -0.0454
  811MOL0     C11790   0.120   8.072   5.541 -0.8374 -0.2776  0.5177
  811MOL0     C11791   0.075   8.195   5.462 -0.2877 -0.1327  0.4555
  811MOL0     C11792   0.186   8.309   5.460 -0.2655  0.6191 -0.0725
  811MOL0     C11793   0.141   8.425   5.370 -0.1131  0.6445 -0.8225
  811MOL0     C11794   0.200   8.566   5.421 -0.5915  0.7198 -0.8793
  811MOL0     C11795   0.352   8.589   5.412 -0.0241 -0.5081 -0.4054
  811MOL0     C11796   0.399   8.554   5.269  1.0948 -0.2014 -0.0496
  811MOL0     N11797   0.537   8.596   5.246 -0.2688 -0.8104 -0.6344
  811MOL0     C11798   0.578   8.726   5.217 -0.3148 -0.0589 -0.6180
  811MOL0     C11799   0.713   8.711   5.207  0.5274  0.1188  0.7737
  811MOL0     C11800   0.804   8.802   5.134 -0.4669  0.5493 -1.3094
  811MOL0     C11801   0.768   8.810   4.985  0.0015 -0.0932 -0.2073
  811MOL0     C11802   0.876   8.764   4.887 -0.3574 -0.0551 -1.3123
  811MOL0     C11803   0.830   8.711   4.752 -0.3310 -0.6069  0.3181
  811MOL0     O11804   0.838   8.829   4.669  0.2051 -0.3162 -0.2586
  811MOL0     C11805   0.806   8.810   4.538 -0.4673  1.0866 -0.5792
  811MOL0     C11806   0.787   8.916   4.461 -0.2076 -0.6258  1.3147
  811MOL0     C11807   0.747   8.910   4.326 -0.2414  0.0838  0.6069
  811MOL0     C11808   0.735   9.038   4.245 -0.3523 -0.5805 -0.3201
  811MOL0     C11809   0.731   8.781   4.267  0.4960  0.0945 -0.2610
  811MOL0     C11810   0.681   8.750   4.131 -0.2324 -0.9329 -0.1946
  811MOL0     O11811   0.739   8.829   4.041 -0.0537  0.4340 -0.5441
  811MOL0     C11812   0.708   8.807   3.909  0.4936  1.1606  0.3917
  811MOL0     C11813   0.575   8.769   3.864 -0.3028 -0.7577 -0.5367
  811MOL0     C11814   0.564   8.735   3.730 -0.7971 -0.2356  1.3305
  811MOL0     C11815   0.669   8.758   3.641 -0.2889  0.3954 -0.1368
  811MOL0     O11816   0.634   8.733   3.508 -0.5787  0.6893 -0.2681
  811MOL0     C11817   0.667   8.598   3.489  0.1992  0.7737 -0.6762
  811MOL0     C11818   0.568   8.530   3.392 -0.4446 -0.4808  0.6148
  811MOL0     C11819   0.420   8.534   3.449  0.1773 -0.0421  0.2118
  811MOL0     C11820   0.331   8.435   3.367 -0.1541  0.1152 -0.2275
  811MOL0     C11821   0.320   8.496   3.223 -0.0715  0.7653 -0.4884
  811MOL0     C11822   0.213   8.615   3.214 -0.7646 -0.4919  0.0430
  811MOL0     C11823   0.175   8.657   3.065  0.7235  0.5848  0.5920
  811MOL0     C11824   0.301   8.694   2.993 -0.3327  0.1714  0.6520
  811MOL0    Cl11825   0.243   8.779   2.851 -0.1760  0.0659  0.0481
  811MOL0     C11826   0.779   8.821   3.686 -0.0865  0.1006 -0.2784
  811MOL0     C11827   0.805   8.847   3.821  0.6723  0.5484  0.0499
  811MOL0     O11828   0.636   8.644   4.102 -0.5768  0.3172 -0.4695
  811MOL0     C11829   0.742   8.667   4.360 -0.2123 -0.8095 -0.1180
  811MOL0     C11830   0.777   8.682   4.486 -1.0527 -0.6513 -0.5306
  811MOL0     N11831   0.754   8.582   5.215 -0.9916  0.2005 -1.3907
  811MOL0     N11832   0.646   8.513   5.240  0.0183  0.1835 -0.2646
  811MOL0     C11833   0.263   8.098   5.962  0.0051 -0.1188  0.2253
  811MOL0     C11834   0.297   8.096   6.103 -0.0388  0.3172 -0.1692
  811MOL0     C11835   0.433   7.936   6.485 -0.4432  0.1739 -0.1057
  811MOL0     C11836   0.428   8.071   6.533 -0.1229  0.0780  0.6430
  811MOL0     C11837   0.463   8.099   6.664  0.4279 -0.0716  0.4596
  811MOL0     C11838   0.515   8.000   6.738  0.8814  0.4174 -0.8728
  811MOL0     O11839   0.560   8.031   6.867 -0.0597  0.2828  0.4212
  811MOL0     C11840   0.456   8.031   6.963 -0.0178 -0.1822  0.6383
  811MOL0     C11841   0.493   7.920   7.071 -0.5232  0.1734  0.3002
  811MOL0     C11842   0.404   7.957   7.191  0.8713 -0.0582  0.1888
  811MOL0     C11843   0.460   7.916   7.324  0.1781 -0.1532 -0.7652
  811MOL0     C11844   0.382   7.995   7.430 -0.5995  0.0811 -0.5592
  811MOL0     C11845   0.320   8.048   7.519  1.1171 -0.1025 -0.4050
  811MOL0     C11846   0.529   7.874   6.688 -0.5286 -0.1521  0.2497
  811MOL0     C11847   0.487   7.831   6.568 -0.3186 -0.1466 -0.1466
  811MOL0     C11848   0.515   7.679   6.541 -0.5671 -0.0851 -0.3668
  811MOL0     H11849   0.188   7.768   6.160  2.9763 -0.4444  1.7219
  811MOL0     H11850   0.120   7.788   5.923 -2.1240  1.2321  0.0970
  811MOL0     H11851   0.174   8.191   5.714 -1.2966  0.7843  0.3694
  811MOL0     H11852   0.021   8.102   5.715  0.4924  1.8247 -1.3991
  811MOL0     H11853   0.214   8.035   5.500 -0.1866  1.2045  0.6138
  811MOL0     H11854   0.040   7.999   5.522 -1.6987  0.5667  0.8593
  811MOL0     H11855   0.053   8.156   5.362 -1.3105 -2.3432  1.4556
  811MOL0     H11856  -0.020   8.233   5.503 -1.8171 -0.1754 -2.7115
  811MOL0     H11857   0.195   8.352   5.560 -0.3052  1.0313 -0.2430
  811MOL0     H11858   0.289   8.278   5.437 -0.0501  1.4233 -0.2203
  811MOL0     H11859   0.032   8.428   5.377 -0.0541 -0.0301  0.9817
  811MOL0     H11860   0.169   8.410   5.266  0.4992  0.1037 -0.5898
  811MOL0     H11861   0.156   8.653   5.371 -2.4161  0.0847 -0.4645
  811MOL0     H11862   0.166   8.567   5.525 -3.2115 -1.4143 -1.6116
  811MOL0     H11863   0.411   8.522   5.475  1.8638 -0.0839 -1.6489
  811MOL0     H11864   0.371   8.692   5.444 -1.1796 -0.4089  0.0090
  811MOL0     H11865   0.406   8.448   5.246 -0.2997 -0.5008  0.7856
  811MOL0     H11866   0.320   8.591   5.203 -0.7261 -1.4270  1.3272
  811MOL0     H11867   0.517   8.811   5.188  2.8399  3.0928  1.1133
  811MOL0     H11868   0.911   8.782   5.146 -0.5466  1.8684  4.7682
  811MOL0     H11869   0.783   8.899   5.181 -0.5182 -0.8924  1.8689
  811MOL0     H11870   0.688   8.740   4.955  3.1218 -3.4280 -1.5150
  811MOL0     H11871   0.736   8.910   4.955 -0.1751 -0.6559 -2.0234
  811MOL0     H11872   0.951   8.843   4.876  1.3351 -1.5838 -1.0888
  811MOL0     H11873   0.917   8.676   4.937 -2.2597  0.1310  0.7618
  811MOL0     H11874   0.894   8.628   4.723 -0.5398 -0.6494 -0.0341
  811MOL0     H11875   0.726   8.676   4.752 -1.3943  2.2106 -1.3754
  811MOL0     H11876   0.804   9.014   4.506 -2.2196  0.7010 -0.5804
  811MOL0     H11877   0.648   9.044   4.179  1.1401  0.2369 -2.3007
  811MOL0     H11878   0.828   9.038   4.188 -0.4777  0.2437 -0.5331
  811MOL0     H11879   0.733   9.130   4.305  3.1077 -1.9429  2.2414
  811MOL0     H11880   0.482   8.774   3.921 -0.3987  1.0634 -0.8051
  811MOL0     H11881   0.471   8.709   3.679 -1.0100  1.7462  0.6195
  811MOL0     H11882   0.774   8.587   3.473  0.9574 -0.3041  3.8912
  811MOL0     H11883   0.661   8.536   3.579  1.1616  0.6255 -0.7044
  811MOL0     H11884   0.556   8.592   3.303 -0.6130 -1.5350 -0.1120
  811MOL0     H11885   0.606   8.436   3.353  1.6936  0.0433  1.3012
  811MOL0     H11886   0.371   8.632   3.443  0.5288  0.2674  1.9110
  811MOL0     H11887   0.417   8.506   3.555 -1.4936  0.1417  0.2474
  811MOL0     H11888   0.238   8.405   3.416 -0.0834 -0.1191 -0.2336
  811MOL0     H11889   0.391   8.344   3.358 -0.5047 -0.0370 -1.0841
  811MOL0     H11890   0.415   8.525   3.178  1.2338  0.4190  1.8889
  811MOL0     H11891   0.273   8.420   3.161 -1.6466  0.5851  0.8662
  811MOL0     H11892   0.258   8.699   3.269 -1.3171 -1.3239  1.8511
  811MOL0     H11893   0.125   8.576   3.266  0.1195 -0.5897  1.5360
  811MOL0     H11894   0.104   8.740   3.062  3.2375  2.8627  1.1530
  811MOL0     H11895   0.120   8.581   3.009 -0.4585  1.2775  0.7770
  811MOL0     H11896   0.355   8.602   2.968  2.1814  1.4398  1.0269
  811MOL0     H11897   0.374   8.751   3.051  0.2844 -0.9430  1.0047
  811MOL0     H11898   0.849   8.853   3.611 -1.2948 -1.6843 -2.2976
  811MOL0     H11899   0.900   8.891   3.848  2.8496 -1.4485 -3.4842
  811MOL0     H11900   0.734   8.567   4.318  3.0572 -1.6565  0.9968
  811MOL0     H11901   0.787   8.585   4.534 -0.8785  0.4395  1.7680
  811MOL0     H11902   0.285   8.187   5.904 -1.3955  0.6538  0.8405
  811MOL0     H11903   0.325   8.175   6.172 -2.4516 -1.6829  3.4099
  811MOL0     H11904   0.388   8.141   6.460  0.9752  0.6607  0.5741
  811MOL0     H11905   0.476   8.194   6.715  2.1718  0.6444 -1.1864
  811MOL0     H11906   0.445   8.128   7.013  0.8029 -0.7308  1.9260
  811MOL0     H11907   0.365   8.005   6.908 -1.0556 -0.8022  2.5500
  811MOL0     H11908   0.598   7.928   7.101 -1.1270 -0.2075  2.7820
  811MOL0     H11909   0.471   7.816   7.046  0.4825 -0.4590  1.8881
  811MOL0     H11910   0.395   8.066   7.196 -1.0349 -0.2478  2.0384
  811MOL0     H11911   0.300   7.927   7.176  0.4098  0.0785  2.7989
  811MOL0     H11912   0.569   7.924   7.323  0.2220 -0.6618 -0.3143
  811MOL0     H11913   0.439   7.809   7.333  3.4588 -0.8717 -0.4863
  811MOL0     H11914   0.277   8.105   7.599 -0.2479  1.0227 -1.8653
  811MOL0     H11915   0.571   7.806   6.762  1.7862  0.4864 -0.4086
  811MOL0     H11916   0.610   7.654   6.589 -0.6420  1.3383  0.5762
  811MOL0     H11917   0.434   7.619   6.583 -0.7918  0.6710  0.3094
  811MOL0     H11918   0.507   7.658   6.434 -1.7410 -2.9314  0.1927
  812MOL0     O11919   5.566  11.156   6.320  0.5137 -0.2661  0.2576
  812MOL0     C11920   5.570  11.273   6.281  0.3510 -0.3384  0.1036
  812MOL0     O11921   5.516  11.383   6.352 -0.7188  0.6832 -0.3576
  812MOL0     C11922   5.434  11.353   6.449 -0.3011  0.0418 -1.2521
  812MOL0     C11923   5.469  11.383   6.580  0.3713 -1.1770 -0.3601
  812MOL0     C11924   5.385  11.333   6.685 -0.4120  0.4878 -0.3931
  812MOL0     C11925   5.273  11.254   6.661  0.0474 -0.3956  0.3420
  812MOL0     O11926   5.190  11.206   6.758 -0.4665  0.3597  0.6018
  812MOL0     C11927   5.251  11.097   6.833 -0.5542 -0.2659  0.5087
  812MOL0     C11928   5.178  11.067   6.959  0.3778 -0.4740  0.3112
  812MOL0     C11929   5.220  11.146   7.079  0.1903  0.0219 -0.1468
  812MOL0     C11930   5.188  11.072   7.210  0.8219  0.4955  0.8091
  812MOL0     C11931   5.265  11.124   7.324 -0.7966 -0.1505  0.4062
  812MOL0     C11932   5.213  11.058   7.450 -0.2264  0.0268 -0.2522
  812MOL0     C11933   5.299  11.101   7.567 -0.2816 -0.2468  0.1077
  812MOL0     C11934   5.443  11.053   7.573 -1.0236 -0.1077 -0.4839
  812MOL0     N11935   5.518  11.141   7.668  0.4004 -0.6557  0.1332
  812MOL0     C11936   5.592  11.094   7.774 -0.0715 -0.5114  1.0243
  812MOL0     C11937   5.637  11.200   7.835  0.7240 -0.7360 -1.4560
  812MOL0     C11938   5.737  11.197   7.953 -1.0522  0.4632  1.1267
  812MOL0     C11939   5.663  11.234   8.081  0.9157 -0.1758 -0.5034
  812MOL0     C11940   5.559  11.125   8.107 -0.1783 -0.3069  0.0870
  812MOL0     C11941   5.502  11.146   8.246 -0.3578  0.3533 -0.3050
  812MOL0     O11942   5.597  11.133   8.346 -0.2162 -0.1291 -0.4322
  812MOL0     C11943   5.557  11.164   8.478  0.6304  0.0825  0.1649
  812MOL0     C11944   5.440  11.239   8.517 -0.0002 -0.3670 -0.0210
  812MOL0     C11945   5.390  11.236   8.650  0.4988  1.0233  0.1564
  812MOL0     C11946   5.262  11.319   8.665  1.3336  0.3929  0.1056
  812MOL0     C11947   5.453  11.163   8.748  0.1453  0.2328 -0.2386
  812MOL0     C11948   5.407  11.170   8.889 -0.0406 -0.5536  0.5401
  812MOL0     O11949   5.496  11.125   8.989 -0.3327 -0.4353 -0.7510
  812MOL0     C11950   5.474  11.158   9.118  0.6597  0.2608 -0.7328
  812MOL0     C11951   5.570  11.223   9.188  0.3012 -0.4100 -0.4326
  812MOL0     C11952   5.548  11.245   9.325 -0.6430  0.0586 -0.9138
  812MOL0     C11953   5.436  11.209   9.395 -0.3448 -0.7942 -0.0649
  812MOL0     O11954   5.421  11.227   9.528  0.3343  0.8135  0.6865
  812MOL0     C11955   5.392  11.101   9.603  0.7699 -0.4268  0.0456
  812MOL0     C11956   5.477  11.094   9.732  0.6126 -0.3313 -0.5284
  812MOL0     C11957   5.440  11.188   9.851 -0.3408 -0.1664  0.5849
  812MOL0     C11958   5.545  11.200   9.952 -0.5847 -0.2839 -0.4435
  812MOL0     C11959   5.673  11.270   9.911  0.1980  0.6097  0.3241
  812MOL0     C11960   5.650  11.418   9.855 -0.0480 -0.7475  0.6538
  812MOL0     C11961   5.746  11.446   9.733  0.2204 -0.2324 -0.4954
  812MOL0     C11962   5.668  11.487   9.608 -0.3054  1.1385  0.3671
  812MOL0    Cl11963   5.536  11.608   9.649  0.2551 -0.6279 -0.1879
  812MOL0     C11964   5.325  11.154   9.320  0.8428  0.9620  0.3880
  812MOL0     C11965   5.348  11.121   9.183 -0.8824 -0.1858  1.1123
  812MOL0     O11966   5.294  11.217   8.921 -0.5078  0.7040  0.1699
  812MOL0     C11967   5.562  11.083   8.705 -0.4192 -0.4950 -0.2029
  812MOL0     C11968   5.622  11.088   8.573  0.4568  0.1319 -0.6794
  812MOL0     N11969   5.580  11.309   7.784  0.7009  0.1449  1.2507
  812MOL0     N11970   5.510  11.277   7.682 -0.1255 -0.0106  0.5668
  812MOL0     C11971   5.226  11.242   6.530  0.5892  0.4468  0.3557
  812MOL0     C11972   5.306  11.292   6.430 -0.0087 -0.5337 -0.2075
  812MOL0     C11973   5.604  11.296   6.150 -0.9004 -0.3945  0.9274
  812MOL0     C11974   5.655  11.426   6.124  0.6390 -0.6139 -0.6974
  812MOL0     C11975   5.691  11.464   5.995  0.2693 -0.1499  0.6925
  812MOL0     C11976   5.692  11.367   5.893 -0.4264 -0.8478  0.4082
  812MOL0     O11977   5.742  11.389   5.762  0.6891  0.7458 -0.0089
  812MOL0     C11978   5.790  11.525   5.730 -0.2252 -0.5885 -0.0091
  812MOL0     C11979   5.758  11.554   5.575  0.3182 -0.3567 -1.9414
  812MOL0     C11980   5.881  11.518   5.490 -0.1785 -0.1090  1.2493
  812MOL0     C11981   5.851  11.508   5.336  0.4029  0.1574 -0.1218
  812MOL0     C11982   5.816  11.635   5.276  0.4610  0.6777 -0.7230
  812MOL0     C11983   5.792  11.747   5.236  0.1970  0.1414 -0.2006
  812MOL0     C11984   5.658  11.238   5.921  0.5004 -0.6180 -0.8083
  812MOL0     C11985   5.606  11.201   6.045 -0.2487 -0.1277  0.2960
  812MOL0     C11986   5.570  11.055   6.045 -0.3608 -1.0227 -0.7046
  812MOL0     H11987   5.559  11.439   6.602 -0.6691 -0.1081  1.3952
  812MOL0     H11988   5.412  11.357   6.787  2.5681  0.6005 -1.1203
  812MOL0     H11989   5.357  11.108   6.858 -0.6404 -1.1591  1.3246
  812MOL0     H11990   5.258  11.006   6.773  2.6413  0.0761  0.1452
  812MOL0     H11991   5.071  11.068   6.940  0.6343 -0.1689 -1.2304
  812MOL0     H11992   5.204  10.961   6.970  4.2022  0.2639 -0.0586
  812MOL0     H11993   5.328  11.162   7.075  0.0102  1.0990 -2.0704
  812MOL0     H11994   5.177  11.247   7.079  2.3938  1.1410 -2.9791
  812MOL0     H11995   5.087  11.106   7.234  0.3657 -1.2949  1.5435
  812MOL0     H11996   5.179  10.964   7.216 -1.6798  0.6327  0.4221
  812MOL0     H11997   5.272  11.233   7.330  0.2003 -0.2756  1.9997
  812MOL0     H11998   5.367  11.086   7.310 -0.6185 -1.5730  4.4240
  812MOL0     H11999   5.109  11.088   7.461 -1.7110 -3.4357 -2.9449
  812MOL0     H12000   5.228  10.951   7.434 -2.9721 -0.3116 -1.1544
  812MOL0     H12001   5.252  11.059   7.657  2.1522 -2.2465  0.5331
  812MOL0     H12002   5.288  11.210   7.568 -0.8635 -0.3011  0.6638
  812MOL0     H12003   5.448  10.948   7.605  2.2653 -0.0123 -0.2951
  812MOL0     H12004   5.491  11.062   7.476 -1.2618 -0.5928 -0.6499
  812MOL0     H12005   5.618  10.990   7.792 -0.2567 -0.7151  0.1880
  812MOL0     H12006   5.807  11.278   7.932 -0.8727  0.5062  1.8688
  812MOL0     H12007   5.801  11.108   7.956 -0.5924  0.7354  0.0921
  812MOL0     H12008   5.731  11.230   8.167 -2.2368 -0.2572  2.1569
  812MOL0     H12009   5.625  11.337   8.076  1.2282  0.0088  0.5995
  812MOL0     H12010   5.486  11.156   8.032  0.0483 -0.2113 -0.0938
  812MOL0     H12011   5.594  11.021   8.111  1.9626  0.3878  1.3545
  812MOL0     H12012   5.477  11.252   8.243  0.8720  0.6505 -0.3710
  812MOL0     H12013   5.409  11.089   8.257 -2.7013  3.7913 -0.7671
  812MOL0     H12014   5.400  11.301   8.437  1.1959 -0.7283 -0.9233
  812MOL0     H12015   5.268  11.414   8.719 -4.0573  1.7111 -1.0482
  812MOL0     H12016   5.180  11.270   8.718 -0.9592  1.6881 -2.0426
  812MOL0     H12017   5.214  11.348   8.571 -0.5702 -3.6375 -0.3845
  812MOL0     H12018   5.667  11.254   9.152  0.7327  2.3796  2.6260
  812MOL0     H12019   5.631  11.293   9.376 -1.0237 -2.6020  2.5559
  812MOL0     H12020   5.292  11.087   9.644  0.9738  0.3291  0.8319
  812MOL0     H12021   5.427  11.018   9.542  5.7284  1.5755 -0.2851
  812MOL0     H12022   5.466  10.993   9.771  1.8371 -0.4530 -0.4320
  812MOL0     H12023   5.582  11.100   9.701 -0.0735 -0.3412 -3.1064
  812MOL0     H12024   5.355  11.143   9.904 -2.1138 -0.2693 -2.1569
  812MOL0     H12025   5.408  11.286   9.813 -2.6167 -1.2486 -0.4210
  812MOL0     H12026   5.571  11.102   9.993  0.6851  0.8233  1.5734
  812MOL0     H12027   5.512  11.265  10.035 -0.5937  0.3548 -0.9401
  812MOL0     H12028   5.739  11.266   9.998 -1.0769 -2.5413  1.2955
  812MOL0     H12029   5.718  11.208   9.833  0.9977 -0.6603  1.7331
  812MOL0     H12030   5.676  11.483   9.938 -0.5339  2.3066 -1.4191
  812MOL0     H12031   5.549  11.441   9.822  1.6276  3.4811 -2.4633
  812MOL0     H12032   5.818  11.367   9.712 -0.3863 -0.9719  0.1567
  812MOL0     H12033   5.803  11.534   9.763 -0.4693  0.8420 -2.1861
  812MOL0     H12034   5.623  11.398   9.563  0.6362  1.8187 -2.0576
  812MOL0     H12035   5.747  11.525   9.543  2.5582 -2.8656  1.1211
  812MOL0     H12036   5.227  11.124   9.356  1.0296 -2.6730 -1.6575
  812MOL0     H12037   5.281  11.064   9.120  2.0793 -1.4828 -1.0727
  812MOL0     H12038   5.616  11.024   8.778  1.3947  0.7309 -0.4910
  812MOL0     H12039   5.710  11.037   8.534  3.3757  0.7686  4.1720
  812MOL0     H12040   5.139  11.177   6.524  2.0897 -2.5741  5.1856
  812MOL0     H12041   5.277  11.287   6.326  0.5557  1.4119 -0.4959
  812MOL0     H12042   5.666  11.493   6.208  1.9628 -1.8359  0.1515
  812MOL0     H12043   5.738  11.559   5.971 -0.3839 -0.9869 -5.3432
  812MOL0     H12044   5.739  11.607   5.783  1.1601 -0.2648  0.8798
  812MOL0     H12045   5.899  11.539   5.735 -0.4299  1.1315  0.4863
  812MOL0     H12046   5.706  11.647   5.550  0.6159  0.5442  0.4609
  812MOL0     H12047   5.680  11.483   5.545 -0.4876  0.2417 -1.3250
  812MOL0     H12048   5.965  11.588   5.491 -0.2156  0.0689 -1.3153
  812MOL0     H12049   5.933  11.429   5.525  3.0490  0.6688 -1.0825
  812MOL0     H12050   5.769  11.438   5.314  2.7337 -2.4740 -1.0203
  812MOL0     H12051   5.934  11.459   5.285 -0.3565 -0.7609 -0.5097
  812MOL0     H12052   5.764  11.834   5.180  1.8839  2.1999  1.9464
  812MOL0     H12053   5.678  11.165   5.842  0.7967 -1.4381 -0.0008
  812MOL0     H12054   5.610  10.999   5.961  0.2902  0.5288 -1.4751
  812MOL0     H12055   5.616  11.003   6.130  0.5221 -2.7552 -2.1763
  812MOL0     H12056   5.462  11.045   6.037 -0.8248  2.5991 -0.9722
  813MOL0     O12057   0.171   3.911   4.007 -0.4325  0.1688 -0.2632
  813MOL0     C12058   0.286   3.954   3.994  0.0837  0.5381 -0.2646
  813MOL0     O12059   0.334   4.029   3.890  0.1718  1.2428 -0.3590
  813MOL0     C12060   0.259   4.028   3.778  0.2562 -1.0671  0.6770
  813MOL0     C12061   0.194   3.916   3.710 -1.0923  0.1711 -0.0982
  813MOL0     C12062   0.122   3.937   3.589 -0.2178  0.2119 -0.6304
  813MOL0     C12063   0.093   4.067   3.539 -0.3049 -0.1174 -0.4008
  813MOL0     O12064   0.019   4.068   3.430 -0.3610  0.5276 -0.7561
  813MOL0     C12065  -0.007   4.199   3.370 -0.6256  0.3853  0.5126
  813MOL0     C12066  -0.082   4.187   3.246 -0.1229  0.2645  0.0681
  813MOL0     C12067  -0.225   4.159   3.251  0.8053  0.1430 -0.9841
  813MOL0     C12068  -0.271   4.148   3.108 -0.2092 -0.2576  0.2451
  813MOL0     C12069  -0.424   4.112   3.094 -0.1948  0.6171  0.2872
  813MOL0     C12070  -0.524   4.189   3.170  0.0810 -0.3205 -0.3554
  813MOL0     C12071  -0.513   4.342   3.146  0.4154  1.0092 -0.6874
  813MOL0     C12072  -0.646   4.407   3.189 -0.5939  0.2613  0.2799
  813MOL0     N12073  -0.738   4.430   3.077 -0.4195  0.0990  0.2971
  813MOL0     C12074  -0.764   4.557   3.017  1.5709  0.5901 -0.0645
  813MOL0     C12075  -0.879   4.545   2.955 -0.1386  0.5882  0.1458
  813MOL0     C12076  -0.976   4.648   2.907  0.2974  0.4987  0.0357
  813MOL0     C12077  -0.915   4.749   2.799  1.4855  0.3929 -0.8234
  813MOL0     C12078  -1.032   4.827   2.728 -0.0283 -0.5036  0.3394
  813MOL0     C12079  -1.102   4.931   2.820 -1.1041 -0.3796  0.3274
  813MOL0     O12080  -1.212   4.982   2.740 -0.5870  0.7783  0.6376
  813MOL0     C12081  -1.301   5.063   2.798  0.2490 -0.8001 -0.0275
  813MOL0     C12082  -1.434   5.029   2.789 -0.2545  0.2998  0.4866
  813MOL0     C12083  -1.538   5.111   2.837 -0.7526  0.6815  0.1127
  813MOL0     C12084  -1.685   5.075   2.810 -0.5029 -0.3523 -0.3429
  813MOL0     C12085  -1.502   5.226   2.914  1.4083 -0.3568 -0.6040
  813MOL0     C12086  -1.608   5.306   2.998 -0.1999  0.0032 -0.2048
  813MOL0     O12087  -1.552   5.410   3.068 -0.1520 -0.3277  0.2725
  813MOL0     C12088  -1.631   5.492   3.146  0.9157 -1.0523 -0.6425
  813MOL0     C12089  -1.755   5.537   3.109  0.5026  0.1746  0.2929
  813MOL0     C12090  -1.843   5.604   3.197  0.0268  0.3437  1.0514
  813MOL0     C12091  -1.802   5.636   3.328 -0.1975  0.4254 -0.2280
  813MOL0     O12092  -1.880   5.683   3.431 -0.0431 -0.3986  0.0283
  813MOL0     C12093  -2.013   5.741   3.395  0.0948 -0.3027 -0.8613
  813MOL0     C12094  -2.064   5.825   3.509 -0.5594 -0.3771 -0.6555
  813MOL0     C12095  -2.220   5.834   3.494  1.1216 -0.3258  0.0094
  813MOL0     C12096  -2.248   5.933   3.376 -0.8311  0.3640  0.6293
  813MOL0     C12097  -2.395   5.950   3.354  0.6238 -0.3360 -0.3444
  813MOL0     C12098  -2.423   6.058   3.240 -0.1296 -0.2892 -0.2601
  813MOL0     C12099  -2.575   6.114   3.232  0.1464  0.1948 -0.8067
  813MOL0     C12100  -2.616   6.140   3.089 -0.0945  0.0011 -0.4822
  813MOL0    Cl12101  -2.635   5.988   2.995 -0.5417 -0.0021 -0.3077
  813MOL0     C12102  -1.669   5.593   3.359 -0.2513  0.0086 -0.4789
  813MOL0     C12103  -1.595   5.517   3.273 -0.2708 -0.2305 -0.0260
  813MOL0     O12104  -1.724   5.287   2.984 -0.2843  0.9124 -0.1280
  813MOL0     C12105  -1.366   5.255   2.928 -0.3568  0.2439 -0.2161
  813MOL0     C12106  -1.268   5.176   2.871  0.1416  0.5357  0.4750
  813MOL0     N12107  -0.922   4.414   2.972  0.2501 -0.3378  0.0333
  813MOL0     N12108  -0.835   4.344   3.047 -0.4698  0.8483  0.2695
  813MOL0     C12109   0.159   4.180   3.608  0.6414  0.1254  0.4450
  813MOL0     C12110   0.236   4.155   3.717  0.3488 -0.0769  0.0988
  813MOL0     C12111   0.368   3.948   4.115 -0.2560  0.8569  0.1127
  813MOL0     C12112   0.447   4.061   4.141  0.1896 -0.9307  0.6981
  813MOL0     C12113   0.529   4.058   4.253  0.2833  0.7103  1.2630
  813MOL0     C12114   0.550   3.948   4.328 -0.2950  0.1216 -0.4650
  813MOL0     O12115   0.650   3.949   4.424  0.1748  0.9961  0.3047
  813MOL0     C12116   0.703   3.831   4.490  0.3367 -0.0734 -0.1889
  813MOL0     C12117   0.649   3.830   4.644 -0.7230 -0.3133 -1.4797
  813MOL0     C12118   0.747   3.749   4.728 -0.6999  0.2277  0.1686
  813MOL0     C12119   0.694   3.671   4.857 -0.7367 -0.5192  0.3877
  813MOL0     C12120   0.606   3.753   4.938  0.6952 -0.1694  0.1955
  813MOL0     C12121   0.540   3.796   5.023  0.5629 -0.4330 -0.2083
  813MOL0     C12122   0.473   3.834   4.294 -0.1679 -0.3117 -1.0098
  813MOL0     C12123   0.389   3.829   4.183 -0.3592 -0.4153 -0.0197
  813MOL0     C12124   0.328   3.696   4.137  0.5175  0.0854  0.2124
  813MOL0     H12125   0.220   3.821   3.755 -0.0024  0.6686  0.3823
  813MOL0     H12126   0.070   3.858   3.536  0.2625 -1.1138  0.7930
  813MOL0     H12127   0.079   4.266   3.365 -1.8900  2.1113  0.8316
  813MOL0     H12128  -0.079   4.244   3.439 -0.8943 -0.9938  1.1462
  813MOL0     H12129  -0.083   4.285   3.198 -0.7293  0.1934 -0.0615
  813MOL0     H12130  -0.028   4.117   3.181 -1.1988 -2.1696  1.6930
  813MOL0     H12131  -0.261   4.068   3.302 -0.1847  0.1769 -1.5959
  813MOL0     H12132  -0.267   4.248   3.299  0.6986  0.1375 -1.0678
  813MOL0     H12133  -0.257   4.246   3.061  2.0150  0.1200  1.5501
  813MOL0     H12134  -0.218   4.072   3.051  0.2041  0.9284 -1.0026
  813MOL0     H12135  -0.430   4.007   3.121  0.6312 -0.1574 -2.2443
  813MOL0     H12136  -0.460   4.112   2.991 -2.8156  1.3084  1.1042
  813MOL0     H12137  -0.625   4.166   3.136 -0.4752  2.2003 -0.5690
  813MOL0     H12138  -0.513   4.175   3.278  0.6273  2.0397 -0.0516
  813MOL0     H12139  -0.486   4.355   3.041  0.5565 -0.4518 -0.8544
  813MOL0     H12140  -0.432   4.400   3.191 -0.7420  2.2397 -0.0951
  813MOL0     H12141  -0.700   4.337   3.253  1.6042 -1.6851  0.1222
  813MOL0     H12142  -0.632   4.496   3.250  2.4687  1.1699 -1.5483
  813MOL0     H12143  -0.703   4.646   3.024  0.3713  1.3540  1.1967
  813MOL0     H12144  -1.010   4.701   2.996  1.7475  1.0730  0.2822
  813MOL0     H12145  -1.057   4.592   2.860 -1.4101  1.2039  1.9752
  813MOL0     H12146  -0.838   4.814   2.842  0.3839  0.7434  0.6747
  813MOL0     H12147  -0.864   4.678   2.732  0.8861 -1.9327  1.0474
  813MOL0     H12148  -0.994   4.865   2.633 -1.5645 -2.4971 -1.1636
  813MOL0     H12149  -1.114   4.759   2.702 -0.6429  0.4554 -0.3483
  813MOL0     H12150  -1.143   4.881   2.908 -0.5143 -1.0861  0.2076
  813MOL0     H12151  -1.037   5.008   2.861 -2.2418  0.5351  0.4842
  813MOL0     H12152  -1.463   4.946   2.725 -0.7705  0.5438  0.4022
  813MOL0     H12153  -1.749   5.154   2.769  0.6652 -0.2368 -2.0739
  813MOL0     H12154  -1.732   5.034   2.900  5.3460 -2.7713  2.0806
  813MOL0     H12155  -1.689   4.996   2.735  1.0432  2.7360 -4.0093
  813MOL0     H12156  -1.798   5.520   3.011 -0.5011  1.5752  0.4557
  813MOL0     H12157  -1.948   5.614   3.169 -0.1763  1.4994  2.1294
  813MOL0     H12158  -2.006   5.797   3.301  1.0269 -0.0667 -0.6567
  813MOL0     H12159  -2.084   5.662   3.369 -1.1324  0.9350 -1.3714
  813MOL0     H12160  -2.039   5.776   3.603  2.6863  1.9561 -0.1279
  813MOL0     H12161  -2.006   5.918   3.513  2.1657 -1.9929  0.6244
  813MOL0     H12162  -2.275   5.881   3.576 -1.0335  2.7981 -2.9681
  813MOL0     H12163  -2.261   5.736   3.468  2.8190 -0.9142 -0.6133
  813MOL0     H12164  -2.208   5.899   3.281 -3.4715  3.4287 -1.8157
  813MOL0     H12165  -2.197   6.024   3.408  0.1503 -0.9660  3.1558
  813MOL0     H12166  -2.431   5.848   3.339 -1.3182 -0.1656  2.4923
  813MOL0     H12167  -2.447   5.989   3.442  1.1088 -0.4181 -0.0179
  813MOL0     H12168  -2.391   6.013   3.146  1.0386 -2.6186  1.1637
  813MOL0     H12169  -2.363   6.147   3.262 -1.6218  0.0494  3.0476
  813MOL0     H12170  -2.595   6.209   3.282  2.2756  1.4001 -2.0644
  813MOL0     H12171  -2.646   6.046   3.279 -0.5357  1.2549 -0.2656
  813MOL0     H12172  -2.550   6.205   3.030 -0.0485 -0.9565 -1.5021
  813MOL0     H12173  -2.715   6.187   3.096 -0.3146 -0.6487  1.6260
  813MOL0     H12174  -1.626   5.620   3.455  0.5049  0.6919 -1.0076
  813MOL0     H12175  -1.501   5.478   3.309 -0.2071  1.8087  2.2564
  813MOL0     H12176  -1.321   5.341   2.976 -0.4820 -0.1185  0.5726
  813MOL0     H12177  -1.164   5.202   2.881 -0.1248  2.7915 -1.6952
  813MOL0     H12178   0.168   4.280   3.568  1.5000 -0.2889 -0.4294
  813MOL0     H12179   0.283   4.239   3.768  1.4033 -0.0749 -0.8558
  813MOL0     H12180   0.441   4.155   4.088 -0.5741 -0.1746  2.0715
  813MOL0     H12181   0.576   4.153   4.273  0.3760  0.7068  1.0561
  813MOL0     H12182   0.684   3.732   4.447 -3.0962  1.5176 -2.8026
  813MOL0     H12183   0.811   3.848   4.480  0.3309  2.6711  2.8758
  813MOL0     H12184   0.545   3.802   4.665 -0.4061 -0.5847 -0.1488
  813MOL0     H12185   0.661   3.928   4.691  1.4074 -1.1333 -0.1754
  813MOL0     H12186   0.804   3.679   4.665 -1.2859 -1.3093  1.2776
  813MOL0     H12187   0.829   3.807   4.771  0.0635  1.0478 -2.2525
  813MOL0     H12188   0.775   3.633   4.921 -1.5988  1.4662  2.8001
  813MOL0     H12189   0.637   3.584   4.822  1.3227 -1.4549 -0.7879
  813MOL0     H12190   0.508   3.829   5.120 -0.3773 -0.2974 -0.5582
  813MOL0     H12191   0.465   3.745   4.355 -0.9816 -0.1165 -0.8273
  813MOL0     H12192   0.350   3.609   4.200  0.3677 -1.9721 -2.3954
  813MOL0     H12193   0.219   3.701   4.145  0.6368  0.2549  2.3230
  813MOL0     H12194   0.357   3.685   4.032 -0.5239  1.9961 -0.3182
  814MOL0     O12195   7.290   5.694  10.409  0.6745  0.3063  0.0186
  814MOL0     C12196   7.327   5.616  10.501  0.5039 -0.5265  0.2185
  814MOL0     O12197   7.451   5.563  10.508  0.6634  0.4038 -0.2964
  814MOL0     C12198   7.528   5.573  10.397  0.0585 -0.4047  0.1246
  814MOL0     C12199   7.664   5.599  10.409 -0.5955 -0.1303 -0.9693
  814MOL0     C12200   7.753   5.600  10.299  0.4638 -0.1717  0.7296
  814MOL0     C12201   7.714   5.589  10.168  0.2739 -0.1547 -0.8880
  814MOL0     O12202   7.784   5.595  10.048  0.2180  0.1470 -0.3755
  814MOL0     C12203   7.908   5.525  10.044 -0.0247  0.1717 -0.1325
  814MOL0     C12204   7.964   5.520   9.902 -0.4262  0.0706  0.0568
  814MOL0     C12205   7.872   5.424   9.825 -0.2115  0.1440  0.4970
  814MOL0     C12206   7.910   5.424   9.673 -0.1199  0.3595 -0.5482
  814MOL0     C12207   7.908   5.560   9.599  0.1482  0.4043  0.6866
  814MOL0     C12208   7.941   5.539   9.450  0.0515 -0.4151  0.0726
  814MOL0     C12209   7.936   5.668   9.375  0.4269 -0.5821 -0.7240
  814MOL0     C12210   7.803   5.745   9.393  0.7552 -0.4720  0.5879
  814MOL0     N12211   7.803   5.853   9.293  0.1031 -0.3617  0.2173
  814MOL0     C12212   7.886   5.967   9.294  0.5203  0.6838 -0.2227
  814MOL0     C12213   7.866   6.026   9.173 -0.8211  0.1097 -0.8737
  814MOL0     C12214   7.946   6.156   9.142  0.1554  0.4255 -0.3019
  814MOL0     C12215   7.867   6.251   9.060 -0.1536 -0.9792  0.6335
  814MOL0     C12216   7.932   6.391   9.043  0.7758  0.1501  0.0829
  814MOL0     C12217   8.078   6.384   8.984 -0.0435 -0.1348 -0.5831
  814MOL0     O12218   8.129   6.524   8.980  0.3146 -0.2273 -0.2621
  814MOL0     C12219   8.241   6.551   8.908  0.1739 -0.7473  0.0932
  814MOL0     C12220   8.286   6.471   8.798  0.0726  0.4989  0.8993
  814MOL0     C12221   8.398   6.508   8.722 -0.6585 -0.1533  0.1475
  814MOL0     C12222   8.432   6.422   8.597 -0.0072  0.7143 -0.2928
  814MOL0     C12223   8.462   6.630   8.753 -0.1153 -0.1500 -0.2073
  814MOL0     C12224   8.577   6.675   8.674 -0.4007 -0.0685 -0.2322
  814MOL0     O12225   8.665   6.757   8.733  0.0477  0.9262 -0.4567
  814MOL0     C12226   8.795   6.761   8.685  0.3351 -0.9572  0.2354
  814MOL0     C12227   8.807   6.819   8.556 -0.6550  0.0511  0.1360
  814MOL0     C12228   8.939   6.848   8.512  0.9804 -0.6768  0.2607
  814MOL0     C12229   9.050   6.789   8.574 -0.4325  0.1632  0.0594
  814MOL0     O12230   9.178   6.791   8.522  0.2146 -0.3791  0.4546
  814MOL0     C12231   9.224   6.666   8.476  0.1279 -0.5546 -0.0550
  814MOL0     C12232   9.152   6.627   8.348 -0.0189  0.9884 -0.2425
  814MOL0     C12233   9.194   6.719   8.233  0.5587  0.5719  0.4964
  814MOL0     C12234   9.161   6.659   8.098 -0.8036  0.1616 -0.4530
  814MOL0     C12235   9.237   6.732   7.988 -0.6943 -0.5400  0.5032
  814MOL0     C12236   9.244   6.641   7.866  0.5298  0.5169  0.0575
  814MOL0     C12237   9.107   6.651   7.806 -0.5389  1.0479 -0.0771
  814MOL0     C12238   9.100   6.563   7.680 -0.4302  0.3223  0.1278
  814MOL0    Cl12239   9.075   6.400   7.723  0.0082 -0.5691  0.0874
  814MOL0     C12240   9.035   6.741   8.705  0.4431 -0.1540  0.4075
  814MOL0     C12241   8.905   6.733   8.759 -0.6895 -0.1749 -0.4087
  814MOL0     O12242   8.575   6.646   8.556 -0.0300  0.4865  0.0583
  814MOL0     C12243   8.424   6.697   8.873 -0.8235  0.1383  0.1592
  814MOL0     C12244   8.314   6.668   8.950 -0.4312 -0.2180 -0.2337
  814MOL0     N12245   7.771   5.957   9.102 -0.2834 -0.1041 -0.0665
  814MOL0     N12246   7.743   5.846   9.178  0.3332 -0.3629  0.2786
  814MOL0     C12247   7.579   5.570  10.153  0.1798  0.7289  1.2541
  814MOL0     C12248   7.494   5.554  10.259 -0.2773 -0.0291  0.7405
  814MOL0     C12249   7.232   5.594  10.619 -0.1430 -0.7237 -0.2570
  814MOL0     C12250   7.125   5.689  10.640 -0.0912 -0.4941 -0.1329
  814MOL0     C12251   7.038   5.656  10.749  0.2909 -0.1353 -0.2050
  814MOL0     C12252   7.059   5.547  10.840  0.1304  0.7668 -0.7708
  814MOL0     O12253   6.978   5.552  10.950  0.8733 -0.4705 -0.2263
  814MOL0     C12254   6.984   5.441  11.051 -0.1075 -0.0491  0.6348
  814MOL0     C12255   6.892   5.464  11.172  0.1486  0.6578 -0.3130
  814MOL0     C12256   6.749   5.498  11.142 -0.7296 -0.7156  0.2409
  814MOL0     C12257   6.682   5.395  11.057  0.0947  0.6266 -0.3737
  814MOL0     C12258   6.539   5.394  11.076 -0.4182 -0.2924  0.1325
  814MOL0     C12259   6.417   5.404  11.084  1.0810  0.8301 -0.2050
  814MOL0     C12260   7.149   5.452  10.807 -0.2891 -0.9839 -0.4115
  814MOL0     C12261   7.229   5.474  10.697 -0.0451 -0.4772 -0.2593
  814MOL0     C12262   7.306   5.355  10.639  0.2043 -0.1156 -0.2655
  814MOL0     H12263   7.708   5.614  10.507  0.3831  1.4170 -1.5960
  814MOL0     H12264   7.861   5.606  10.314  0.8899 -1.9630 -1.1183
  814MOL0     H12265   7.902   5.422  10.080 -0.7429  0.6081  1.0702
  814MOL0     H12266   7.979   5.566  10.117 -0.4426  1.1857 -0.2835
  814MOL0     H12267   7.957   5.620   9.858 -0.5456 -0.8542 -2.1357
  814MOL0     H12268   8.067   5.484   9.899 -0.1909  0.5819  1.2674
  814MOL0     H12269   7.866   5.320   9.858 -3.8935 -0.7852 -2.3678
  814MOL0     H12270   7.770   5.465   9.831  0.3263  1.3210  2.5319
  814MOL0     H12271   8.005   5.369   9.666 -0.6909 -0.6533 -0.5139
  814MOL0     H12272   7.837   5.354   9.632 -1.3861  0.7532  0.9568
  814MOL0     H12273   7.987   5.630   9.627  0.8784  1.8707 -4.0326
  814MOL0     H12274   7.810   5.604   9.618 -1.4544 -2.9398  0.8997
  814MOL0     H12275   8.039   5.491   9.446  0.5768  0.7225 -0.9161
  814MOL0     H12276   7.869   5.475   9.399 -0.8172  0.5874  0.0173
  814MOL0     H12277   7.943   5.638   9.270 -1.9582 -0.9085 -0.8272
  814MOL0     H12278   8.014   5.741   9.399 -1.3290  1.8143 -1.8769
  814MOL0     H12279   7.717   5.679   9.379 -0.1281  1.1325 -2.1392
  814MOL0     H12280   7.784   5.784   9.494  0.0445  2.9280 -0.7634
  814MOL0     H12281   7.958   6.004   9.366 -0.6717 -0.3019  1.5663
  814MOL0     H12282   8.035   6.115   9.094 -0.4029 -2.8677  1.2491
  814MOL0     H12283   7.973   6.208   9.235  1.1656 -2.3254  1.0607
  814MOL0     H12284   7.858   6.202   8.963  0.6207 -1.0848  0.6145
  814MOL0     H12285   7.778   6.255   9.124 -0.1212 -3.1093  0.8871
  814MOL0     H12286   7.864   6.458   8.989  1.3222  0.4414 -0.2503
  814MOL0     H12287   7.940   6.434   9.143  2.7670 -1.2115  0.5690
  814MOL0     H12288   8.152   6.335   9.048 -2.2278 -0.9790  1.4491
  814MOL0     H12289   8.075   6.328   8.890  1.0428 -0.8329 -0.2192
  814MOL0     H12290   8.254   6.370   8.775  3.7220 -0.8415  1.0390
  814MOL0     H12291   8.539   6.399   8.596 -0.4484 -1.6950 -0.4268
  814MOL0     H12292   8.416   6.461   8.497  2.4549  2.0815 -0.2240
  814MOL0     H12293   8.403   6.317   8.608  4.0859 -0.5090  0.8021
  814MOL0     H12294   8.727   6.845   8.487  0.7705  0.1948 -1.5387
  814MOL0     H12295   8.947   6.910   8.424  1.2756  3.0694  2.6776
  814MOL0     H12296   9.332   6.681   8.465  0.2864 -1.7236 -0.1582
  814MOL0     H12297   9.212   6.595   8.559  0.0181 -0.5882 -0.1003
  814MOL0     H12298   9.181   6.525   8.323  5.3477  1.8190  1.1963
  814MOL0     H12299   9.045   6.622   8.370 -0.1194  4.5703  0.8869
  814MOL0     H12300   9.303   6.729   8.237  0.9718 -0.2875 -3.9216
  814MOL0     H12301   9.145   6.816   8.230  2.0363  1.3637 -2.9005
  814MOL0     H12302   9.054   6.648   8.082 -0.6210 -2.6824 -0.2051
  814MOL0     H12303   9.200   6.557   8.093  1.7557  1.1434 -3.4462
  814MOL0     H12304   9.193   6.830   7.968 -0.3864 -0.4383  0.3311
  814MOL0     H12305   9.340   6.745   8.020 -0.0848 -0.4920 -1.3498
  814MOL0     H12306   9.276   6.539   7.890 -1.0270  0.5620  2.7045
  814MOL0     H12307   9.321   6.675   7.796  1.6067 -4.4294 -1.5694
  814MOL0     H12308   9.082   6.756   7.787 -2.1844  0.2324 -2.9922
  814MOL0     H12309   9.033   6.600   7.869 -1.0734  0.2644 -1.3045
  814MOL0     H12310   9.189   6.571   7.617 -1.5602 -1.4709 -1.8141
  814MOL0     H12311   9.018   6.592   7.614  1.4392 -0.7083 -2.8388
  814MOL0     H12312   9.118   6.693   8.758  1.9919  0.0680 -1.6968
  814MOL0     H12313   8.879   6.688   8.854 -0.0334 -2.9746 -1.4697
  814MOL0     H12314   8.488   6.773   8.916 -0.3321 -1.3371  2.1478
  814MOL0     H12315   8.281   6.724   9.037 -3.7167 -1.8327 -0.2727
  814MOL0     H12316   7.538   5.568  10.053  2.8622  1.5807  0.0426
  814MOL0     H12317   7.392   5.519  10.252 -0.8956  1.7472  0.3466
  814MOL0     H12318   7.125   5.778  10.577 -0.2785 -1.6131 -1.7840
  814MOL0     H12319   6.962   5.732  10.766  2.6879  2.2665  0.3680
  814MOL0     H12320   6.972   5.345  11.001  1.6008  0.7173 -1.4274
  814MOL0     H12321   7.089   5.434  11.080  0.3807  0.2357 -0.9864
  814MOL0     H12322   6.935   5.544  11.233 -0.3507  0.3637  0.4371
  814MOL0     H12323   6.895   5.372  11.231 -1.7234  0.3795 -0.5766
  814MOL0     H12324   6.690   5.507  11.234  2.3292  1.3693  2.1529
  814MOL0     H12325   6.740   5.595  11.093 -0.9236 -0.2201  1.2257
  814MOL0     H12326   6.718   5.295  11.083 -3.0419 -0.0367  2.0743
  814MOL0     H12327   6.697   5.406  10.949 -0.4449  0.7943 -0.4370
  814MOL0     H12328   6.311   5.406  11.100  0.7264 -2.1928 -1.3528
  814MOL0     H12329   7.166   5.364  10.868  0.3246  0.5535  1.7469
  814MOL0     H12330   7.262   5.264  10.679 -0.3050  0.3661  0.2845
  814MOL0     H12331   7.299   5.359  10.530  2.2756  0.7317 -0.4203
  814MOL0     H12332   7.413   5.361  10.664  0.6802 -2.4923 -1.4950
  815MOL0     O12333   0.385   0.738  11.484 -1.1148 -0.2163 -0.5270
  815MOL0     C12334   0.447   0.795  11.580 -0.8579 -0.9121 -0.1892
  815MOL0     O12335   0.580   0.784  11.604  0.9174  0.1544 -0.2989
  815MOL0     C12336   0.660   0.706  11.522  1.0923  0.6308 -0.9182
  815MOL0     C12337   0.739   0.597  11.577 -0.0274  0.4834 -0.4259
  815MOL0     C12338   0.839   0.539  11.496  0.0717  0.0298 -0.0196
  815MOL0     C12339   0.859   0.590  11.363  0.1842 -0.6814 -0.6573
  815MOL0     O12340   0.949   0.549  11.276 -0.1881 -0.1474  0.0463
  815MOL0     C12341   1.054   0.455  11.317  0.3553 -0.2136 -0.2261
  815MOL0     C12342   0.996   0.315  11.317  0.9239 -0.0040  0.4023
  815MOL0     C12343   1.069   0.215  11.223 -0.1975 -1.6888 -0.2318
  815MOL0     C12344   1.078   0.273  11.086 -0.6176 -0.4186 -0.4599
  815MOL0     C12345   0.937   0.301  11.026  0.0413 -0.0847  0.4211
  815MOL0     C12346   0.944   0.309  10.874 -0.2192  0.3601  1.1777
  815MOL0     C12347   0.799   0.331  10.826  0.1939  1.3427 -0.3302
  815MOL0     C12348   0.801   0.358  10.677 -0.5543  0.7080  0.5541
  815MOL0     N12349   0.854   0.242  10.593  0.0641 -0.2941 -0.2696
  815MOL0     C12350   0.998   0.223  10.555  0.6898 -0.4669 -0.2437
  815MOL0     C12351   0.991   0.119  10.473 -0.7712  0.2770 -0.4146
  815MOL0     C12352   1.110   0.083  10.385  0.5643  0.3278  1.0670
  815MOL0     C12353   1.088  -0.049  10.315  0.5469  0.5618  0.1364
  815MOL0     C12354   1.220  -0.108  10.254  0.0252 -0.4962 -0.5010
  815MOL0     C12355   1.194  -0.248  10.213 -0.0951  0.3463  0.3786
  815MOL0     O12356   1.302  -0.321  10.246 -0.1634  0.3144  0.6733
  815MOL0     C12357   1.424  -0.304  10.185  0.0938 -0.3852  0.4938
  815MOL0     C12358   1.448  -0.327  10.050  0.4574  0.1303  0.1939
  815MOL0     C12359   1.570  -0.306   9.989  0.3988 -0.4656  0.2310
  815MOL0     C12360   1.581  -0.322   9.841  0.0881  0.4437  0.2595
  815MOL0     C12361   1.683  -0.282  10.074  0.5216 -0.4653 -0.1116
  815MOL0     C12362   1.825  -0.263  10.031  0.0622 -1.6099  0.9384
  815MOL0     O12363   1.918  -0.323  10.109 -0.0237 -0.4993  0.4260
  815MOL0     C12364   2.044  -0.321  10.055  0.4732  0.6807 -0.4472
  815MOL0     C12365   2.108  -0.432  10.012  0.4613 -0.1406 -0.0091
  815MOL0     C12366   2.244  -0.429   9.984 -0.9140  0.5906  0.1741
  815MOL0     C12367   2.322  -0.322  10.006 -1.1935 -0.3793  0.4794
  815MOL0     O12368   2.460  -0.327   9.997 -0.0129  0.0496 -0.9383
  815MOL0     C12369   2.535  -0.444  10.044  0.3241 -0.5169 -0.4634
  815MOL0     C12370   2.685  -0.409  10.059  0.5636 -0.1026  0.4146
  815MOL0     C12371   2.747  -0.367   9.928  0.6095  0.0520  0.2617
  815MOL0     C12372   2.791  -0.483   9.848 -0.6154  1.3187  0.3621
  815MOL0     C12373   2.845  -0.438   9.713 -0.1107 -0.2281  0.1204
  815MOL0     C12374   2.884  -0.564   9.624  0.6072  0.4771 -0.3313
  815MOL0     C12375   2.955  -0.504   9.498  0.5547 -0.4044  0.4769
  815MOL0     C12376   3.008  -0.624   9.416 -0.3110  0.7107 -0.7754
  815MOL0    Cl12377   2.885  -0.732   9.371  0.2270  0.2390 -0.6655
  815MOL0     C12378   2.260  -0.206  10.046 -0.4697 -1.3026 -0.1673
  815MOL0     C12379   2.122  -0.207  10.073  0.0146 -1.9222 -0.3823
  815MOL0     O12380   1.848  -0.193   9.932  0.4656  0.5317 -0.8946
  815MOL0     C12381   1.661  -0.282  10.214  0.5564 -0.0217  0.8760
  815MOL0     C12382   1.534  -0.292  10.264 -0.1134  0.1041 -0.1510
  815MOL0     N12383   0.861   0.082  10.452  0.5321  0.3748  1.1637
  815MOL0     N12384   0.783   0.154  10.519  0.0699  0.0945 -0.6200
  815MOL0     C12385   0.774   0.690  11.312 -0.9526 -0.2386  0.2195
  815MOL0     C12386   0.680   0.744  11.394  0.0754 -0.5352  1.1044
  815MOL0     C12387   0.378   0.866  11.681  0.4429  1.0305  0.3241
  815MOL0     C12388   0.438   0.877  11.813 -0.5708 -0.0960  0.4252
  815MOL0     C12389   0.377   0.929  11.924  0.4591  0.9059  0.2899
  815MOL0     C12390   0.255   0.987  11.909  0.4010  0.9947 -0.4582
  815MOL0     O12391   0.211   1.033  12.029  0.0541  0.4021  0.6753
  815MOL0     C12392   0.099   1.120  12.019 -0.6641 -0.1679 -0.2839
  815MOL0     C12393   0.051   1.187  12.154 -0.2581  0.5035 -0.3166
  815MOL0     C12394   0.172   1.255  12.224 -0.9372 -0.3101  0.9599
  815MOL0     C12395   0.115   1.365  12.318  0.1621 -0.7468  0.3094
  815MOL0     C12396   0.218   1.400  12.414 -0.4334  1.4462  0.3062
  815MOL0     C12397   0.284   1.425  12.508 -0.9660  0.0025  0.6213
  815MOL0     C12398   0.185   0.984  11.788  0.5298  0.8344 -0.3099
  815MOL0     C12399   0.248   0.919  11.678  0.2719  1.0560  1.1545
  815MOL0     C12400   0.197   0.943  11.537 -0.2590 -0.8827 -0.1576
  815MOL0     H12401   0.731   0.571  11.682  2.8247 -3.7081 -0.9990
  815MOL0     H12402   0.899   0.452  11.522  2.8042  1.8658  0.2641
  815MOL0     H12403   1.094   0.477  11.417 -0.4013  0.8181 -0.1322
  815MOL0     H12404   1.138   0.477  11.250  0.3940  1.0296  0.1948
  815MOL0     H12405   0.979   0.271  11.416 -4.6746 -1.1367 -0.7041
  815MOL0     H12406   0.897   0.330  11.274  0.6836 -0.4344  0.7969
  815MOL0     H12407   1.170   0.205  11.265 -0.7341  2.5985  2.6866
  815MOL0     H12408   1.016   0.120  11.219 -1.9234 -0.7765  0.2392
  815MOL0     H12409   1.133   0.367  11.085 -0.9145 -0.2323  0.2526
  815MOL0     H12410   1.130   0.203  11.019 -2.5011 -3.2080  0.7760
  815MOL0     H12411   0.887   0.392  11.060 -0.7282 -0.2869 -0.1249
  815MOL0     H12412   0.874   0.221  11.068  0.4524  0.8886  3.0757
  815MOL0     H12413   1.023   0.376  10.838  0.4769 -0.7449  0.5805
  815MOL0     H12414   0.967   0.209  10.834 -0.8235  1.2284 -1.5688
  815MOL0     H12415   0.757   0.414  10.883  1.5551  2.4332 -0.8622
  815MOL0     H12416   0.744   0.237  10.838  2.8753 -0.9897 -4.0477
  815MOL0     H12417   0.698   0.388  10.656 -1.3889 -1.3353  1.4103
  815MOL0     H12418   0.854   0.451  10.658 -1.7710  1.2315 -0.4618
  815MOL0     H12419   1.087   0.275  10.589  2.5690 -1.7277 -2.8928
  815MOL0     H12420   1.205   0.075  10.440  0.9636 -2.2417  0.1472
  815MOL0     H12421   1.124   0.157  10.307 -0.5529 -1.0258 -0.4887
  815MOL0     H12422   1.042  -0.113  10.391 -1.4519  0.5361 -1.0414
  815MOL0     H12423   1.017  -0.033  10.234  1.9471  2.7980 -0.7310
  815MOL0     H12424   1.258  -0.046  10.173 -0.3266  0.2612 -0.0926
  815MOL0     H12425   1.286  -0.120  10.341  0.1086 -5.4088 -0.9146
  815MOL0     H12426   1.106  -0.296  10.257  1.0671 -1.7303  0.5792
  815MOL0     H12427   1.178  -0.253  10.105 -0.8949 -3.4144  0.5299
  815MOL0     H12428   1.366  -0.355   9.986 -0.2058 -3.0475  2.2248
  815MOL0     H12429   1.569  -0.223   9.797 -0.4431  0.0341 -0.5372
  815MOL0     H12430   1.507  -0.391   9.799  0.9220 -0.3383  0.0527
  815MOL0     H12431   1.681  -0.356   9.812  0.1079 -0.4633  1.3099
  815MOL0     H12432   2.043  -0.519  10.006 -2.2217  1.6199  1.3561
  815MOL0     H12433   2.292  -0.515   9.939 -0.2684 -0.0893  2.0677
  815MOL0     H12434   2.505  -0.465  10.147  0.9394 -1.7578 -0.5168
  815MOL0     H12435   2.527  -0.524   9.969  0.0945 -0.7532 -0.1874
  815MOL0     H12436   2.695  -0.337  10.141 -1.5148 -0.5005  1.0792
  815MOL0     H12437   2.740  -0.498  10.090 -3.6621 -2.8658  0.7355
  815MOL0     H12438   2.837  -0.307   9.946 -0.9588  3.8568 -3.1014
  815MOL0     H12439   2.667  -0.317   9.873  0.3803  0.1498  0.6790
  815MOL0     H12440   2.706  -0.549   9.828  0.1521  0.7138 -1.0664
  815MOL0     H12441   2.870  -0.531   9.906  0.4037 -2.8785 -3.8989
  815MOL0     H12442   2.762  -0.390   9.662  0.1777  2.6129  2.0843
  815MOL0     H12443   2.926  -0.365   9.725  0.4410 -0.2647 -2.7782
  815MOL0     H12444   2.792  -0.614   9.592  0.7997 -0.6884  0.8489
  815MOL0     H12445   2.934  -0.652   9.666  0.3558 -0.4478 -1.8755
  815MOL0     H12446   3.037  -0.440   9.532 -0.5248  0.5749  1.3174
  815MOL0     H12447   2.895  -0.442   9.431  0.2801  0.6842  1.6910
  815MOL0     H12448   3.067  -0.679   9.490 -2.5949 -0.1707  0.4803
  815MOL0     H12449   3.069  -0.587   9.333 -0.5518  0.9004 -0.8686
  815MOL0     H12450   2.319  -0.122  10.079  1.2922 -0.9069 -3.7915
  815MOL0     H12451   2.087  -0.115  10.120 -0.0456 -2.9705  1.6901
  815MOL0     H12452   1.747  -0.278  10.281  1.6331 -2.2168 -0.2678
  815MOL0     H12453   1.531  -0.279  10.372  0.5375  0.5712 -0.1798
  815MOL0     H12454   0.790   0.723  11.210  0.5962  0.4974  0.6761
  815MOL0     H12455   0.611   0.819  11.356 -0.7335 -1.6488  0.3254
  815MOL0     H12456   0.535   0.832  11.834 -1.7162 -2.6120  0.6117
  815MOL0     H12457   0.432   0.939  12.016 -2.0911  0.7377  1.9313
  815MOL0     H12458   0.130   1.201  11.953  2.5138  0.0076  1.2574
  815MOL0     H12459   0.017   1.067  11.970  2.2037 -1.6277 -3.9230
  815MOL0     H12460   0.017   1.106  12.219 -0.6382  1.3032  0.5084
  815MOL0     H12461  -0.046   1.239  12.158 -1.9133 -2.3636 -0.9070
  815MOL0     H12462   0.234   1.182  12.275  1.6157  1.2332  0.2378
  815MOL0     H12463   0.230   1.311  12.150 -1.3644  0.6097  1.2932
  815MOL0     H12464   0.024   1.334  12.370 -0.4676  3.6979  2.3733
  815MOL0     H12465   0.101   1.450  12.251  2.1052 -0.2465  0.4595
  815MOL0     H12466   0.339   1.434  12.600  0.2656  2.2596 -0.2715
  815MOL0     H12467   0.085   1.025  11.779  0.6599  0.7316 -3.1982
  815MOL0     H12468   0.141   0.853  11.512 -1.1610  0.0628 -1.6956
  815MOL0     H12469   0.128   1.026  11.557  3.2526  2.3976 -0.3506
  815MOL0     H12470   0.273   0.979  11.467 -2.2615  1.0515 -1.4574
  816MOL0     O12471   7.979  10.689   3.550 -0.7468  0.7735  0.1414
  816MOL0     C12472   8.059  10.619   3.488 -0.2845  0.5693 -0.3764
  816MOL0     O12473   8.023  10.528   3.393  0.0608 -0.5369 -0.3819
  816MOL0     C12474   7.895  10.542   3.337 -0.0678 -0.9465 -0.6580
  816MOL0     C12475   7.820  10.424   3.298  0.4149  0.4596 -0.5853
  816MOL0     C12476   7.689  10.441   3.241 -0.0790  0.6707 -0.2146
  816MOL0     C12477   7.640  10.569   3.205  0.7141  0.4236  0.2564
  816MOL0     O12478   7.522  10.571   3.140  0.6432  0.7278 -0.4804
  816MOL0     C12479   7.417  10.627   3.216  1.3006  0.4805  0.6028
  816MOL0     C12480   7.293  10.648   3.136  1.0276 -0.1715  0.9142
  816MOL0     C12481   7.232  10.517   3.109 -0.3055 -0.3281  0.7395
  816MOL0     C12482   7.107  10.535   3.023 -0.1070  0.8599  0.1450
  816MOL0     C12483   7.043  10.400   3.014  0.4512 -0.1275  0.1572
  816MOL0     C12484   6.909  10.397   2.939  0.4131 -0.1172 -0.1225
  816MOL0     C12485   6.794  10.422   3.028 -0.2752 -0.0087 -0.7027
  816MOL0     C12486   6.652  10.398   2.965 -0.1170 -0.5087 -0.0441
  816MOL0     N12487   6.645  10.277   2.880  0.8843 -0.4173 -1.0220
  816MOL0     C12488   6.671  10.152   2.931  0.5731 -0.6089 -0.3816
  816MOL0     C12489   6.652  10.073   2.823 -0.5025  0.7606  0.1808
  816MOL0     C12490   6.672   9.924   2.821  0.0642  0.7120 -0.8411
  816MOL0     C12491   6.533   9.853   2.781 -0.5688  0.8395 -0.1685
  816MOL0     C12492   6.553   9.705   2.761  0.3261  0.4177 -0.3976
  816MOL0     C12493   6.574   9.669   2.623 -1.1678  0.7860 -0.1443
  816MOL0     O12494   6.474   9.718   2.533 -0.3711  0.1154 -0.6431
  816MOL0     C12495   6.489   9.673   2.402 -0.3278  0.5650  0.0911
  816MOL0     C12496   6.605   9.656   2.338 -0.2682  0.5550 -0.0127
  816MOL0     C12497   6.616   9.616   2.204  0.3112  0.3493  0.1361
  816MOL0     C12498   6.750   9.579   2.149 -0.1912  0.0333  0.2259
  816MOL0     C12499   6.489   9.580   2.135  0.2125  0.1835 -0.7691
  816MOL0     C12500   6.480   9.517   1.996 -0.4827 -0.1909  0.3078
  816MOL0     O12501   6.355   9.473   1.950 -1.0790 -0.1116  0.1081
  816MOL0     C12502   6.320   9.497   1.823 -0.1642 -0.2061 -0.2257
  816MOL0     C12503   6.237   9.606   1.797 -0.5312 -0.2061  0.0554
  816MOL0     C12504   6.190   9.626   1.665 -0.4038 -0.3618  0.3250
  816MOL0     C12505   6.226   9.549   1.558 -0.2094 -0.0696  1.3330
  816MOL0     O12506   6.164   9.581   1.438  0.0911 -1.3646 -0.2500
  816MOL0     C12507   6.223   9.510   1.323 -0.3323  0.1643  0.3675
  816MOL0     C12508   6.201   9.598   1.206  0.0526 -0.2358 -0.1977
  816MOL0     C12509   6.260   9.530   1.083 -0.5762  0.1094 -0.2545
  816MOL0     C12510   6.235   9.627   0.958  0.6936  0.3756  0.4088
  816MOL0     C12511   6.222   9.556   0.822  0.5306  0.1184  0.1083
  816MOL0     C12512   6.348   9.520   0.748 -1.2021  0.3156  0.5839
  816MOL0     C12513   6.333   9.401   0.652  1.0298 -0.4255 -0.3542
  816MOL0     C12514   6.430   9.407   0.547 -0.9743 -0.3303  0.0875
  816MOL0    Cl12515   6.398   9.539   0.432 -0.3714 -0.0340  0.4649
  816MOL0     C12516   6.310   9.439   1.588 -0.2952 -0.5233  0.9537
  816MOL0     C12517   6.357   9.414   1.718 -0.6545 -0.0979  0.1094
  816MOL0     O12518   6.575   9.527   1.916  0.5018  0.6249 -0.6012
  816MOL0     C12519   6.370   9.600   2.202  0.1509  0.4517  0.1278
  816MOL0     C12520   6.368   9.643   2.333  1.0161  0.8062  0.0536
  816MOL0     N12521   6.634  10.150   2.707  0.6886  0.2914  0.5440
  816MOL0     N12522   6.631  10.273   2.743 -0.7782 -0.4404  0.1963
  816MOL0     C12523   7.716  10.680   3.240  0.1698  0.4731 -1.0382
  816MOL0     C12524   7.843  10.666   3.299  0.9978  0.9348  0.1197
  816MOL0     C12525   8.200  10.652   3.525  0.3252  0.5826  0.1838
  816MOL0     C12526   8.234  10.787   3.556 -0.6047 -0.6572 -0.2386
  816MOL0     C12527   8.362  10.829   3.589  0.7741 -0.0572  0.0854
  816MOL0     C12528   8.460  10.741   3.603 -0.0582 -0.3069  0.0342
  816MOL0     O12529   8.578  10.800   3.647  0.6554  0.9300 -0.1378
  816MOL0     C12530   8.712  10.747   3.629  0.5279 -0.4691 -0.8643
  816MOL0     C12531   8.738  10.735   3.473  0.4061 -0.8559  0.5833
  816MOL0     C12532   8.809  10.843   3.402  0.7704  0.7760 -0.5079
  816MOL0     C12533   8.734  10.977   3.398 -0.0832  0.5145 -0.3042
  816MOL0     C12534   8.629  10.962   3.296 -0.1056  0.6090  0.4426
  816MOL0     C12535   8.562  10.953   3.197  0.0486  0.0368  0.2617
  816MOL0     C12536   8.428  10.604   3.581  0.3210  0.9458 -0.5211
  816MOL0     C12537   8.301  10.558   3.534 -0.0100  0.2447 -0.2994
  816MOL0     C12538   8.276  10.410   3.537  0.0992  0.9718  0.5475
  816MOL0     H12539   7.866  10.332   3.331  0.8921  0.9684  0.2052
  816MOL0     H12540   7.616  10.363   3.224  2.3966 -1.7365 -0.3126
  816MOL0     H12541   7.449  10.721   3.262  2.3236 -0.8536  2.7849
  816MOL0     H12542   7.400  10.560   3.301  0.6339 -1.2446 -0.8354
  816MOL0     H12543   7.220  10.701   3.197 -1.1872  2.7670 -3.7553
  816MOL0     H12544   7.310  10.706   3.045 -1.8580  0.6144  0.7984
  816MOL0     H12545   7.290  10.433   3.070 -1.6701 -1.4965  1.1491
  816MOL0     H12546   7.206  10.484   3.210  0.7383  1.2185  1.5681
  816MOL0     H12547   7.037  10.607   3.066 -1.3649  0.0405 -0.4661
  816MOL0     H12548   7.122  10.572   2.921 -4.2829  2.8580  0.0627
  816MOL0     H12549   7.030  10.357   3.114 -0.3629  0.2431  0.2238
  816MOL0     H12550   7.117  10.335   2.967  2.0397  3.0767 -2.1365
  816MOL0     H12551   6.904  10.451   2.844 -1.2577  1.7532  0.9493
  816MOL0     H12552   6.892  10.292   2.912  2.3699  0.1667 -2.9669
  816MOL0     H12553   6.801  10.532   3.024 -1.8424  0.1410 -0.1334
  816MOL0     H12554   6.799  10.380   3.128  0.2492  1.5895 -0.0253
  816MOL0     H12555   6.579  10.392   3.047 -0.5422 -0.5630 -0.4260
  816MOL0     H12556   6.626  10.482   2.901  1.4101 -0.6538 -0.8766
  816MOL0     H12557   6.702  10.127   3.032  5.0100 -2.4127 -1.8835
  816MOL0     H12558   6.698   9.889   2.922  1.1769  2.2363 -0.5773
  816MOL0     H12559   6.759   9.898   2.761  0.5901  0.0637  0.1833
  816MOL0     H12560   6.459   9.875   2.858 -2.0862 -1.3347 -0.9334
  816MOL0     H12561   6.511   9.907   2.689 -0.5958  0.7881 -0.1922
  816MOL0     H12562   6.640   9.668   2.815 -0.2252  1.7089  1.4737
  816MOL0     H12563   6.456   9.665   2.793 -0.3791  2.6362  0.4698
  816MOL0     H12564   6.668   9.718   2.596 -1.0293  0.2332 -0.6909
  816MOL0     H12565   6.591   9.561   2.622  0.7505  0.9921 -3.2048
  816MOL0     H12566   6.692   9.697   2.388 -0.9367  1.5663  0.3622
  816MOL0     H12567   6.767   9.474   2.124  1.2843 -0.1391  1.7397
  816MOL0     H12568   6.829   9.611   2.218  1.6650 -1.5331 -1.0696
  816MOL0     H12569   6.775   9.630   2.056  1.4117 -0.1424  0.5295
  816MOL0     H12570   6.202   9.669   1.879  0.8854  1.3820 -0.5024
  816MOL0     H12571   6.143   9.713   1.619  0.4522 -0.1922 -0.2447
  816MOL0     H12572   6.330   9.489   1.333 -0.3684 -0.0703  0.2511
  816MOL0     H12573   6.171   9.414   1.315 -0.7259  0.3949  0.1241
  816MOL0     H12574   6.099   9.636   1.195  0.3902  1.5582  2.1847
  816MOL0     H12575   6.255   9.691   1.226  2.0410 -1.7054  1.7533
  816MOL0     H12576   6.211   9.434   1.064 -2.3402  0.8078  0.5360
  816MOL0     H12577   6.368   9.522   1.098 -0.6072 -0.2296 -0.2023
  816MOL0     H12578   6.301   9.715   0.959  3.0489 -1.1488 -2.6725
  816MOL0     H12579   6.131   9.655   0.976 -0.1950 -1.3550 -1.6397
  816MOL0     H12580   6.157   9.468   0.832  2.3552 -2.0125 -4.3728
  816MOL0     H12581   6.163   9.625   0.762 -0.5333  0.1979  1.1990
  816MOL0     H12582   6.435   9.489   0.807 -0.5045  0.7798 -0.1943
  816MOL0     H12583   6.380   9.609   0.694 -2.1664  1.1678  1.3643
  816MOL0     H12584   6.242   9.404   0.592  1.1193  1.9190 -0.4846
  816MOL0     H12585   6.331   9.302   0.698  0.4508 -1.5112 -2.5637
  816MOL0     H12586   6.434   9.321   0.480  2.7682  0.2483 -0.6465
  816MOL0     H12587   6.531   9.424   0.585 -1.8746  2.3808  1.6012
  816MOL0     H12588   6.338   9.369   1.510 -1.8658 -0.3116  0.1688
  816MOL0     H12589   6.420   9.332   1.752 -0.4803  0.3539  0.8855
  816MOL0     H12590   6.280   9.583   2.143  1.4157  2.0227 -2.4232
  816MOL0     H12591   6.279   9.673   2.387  1.4667 -0.5363  1.6080
  816MOL0     H12592   7.687  10.777   3.202  2.2910  2.5633  2.2173
  816MOL0     H12593   7.907  10.752   3.315  1.3771  0.5041  1.0316
  816MOL0     H12594   8.157  10.863   3.548 -0.9691 -1.2036 -2.6396
  816MOL0     H12595   8.372  10.932   3.622  0.7889 -0.3072  0.8923
  816MOL0     H12596   8.787  10.818   3.667  1.6010 -1.3898 -1.2043
  816MOL0     H12597   8.729  10.654   3.683 -3.5164 -2.0276 -1.9729
  816MOL0     H12598   8.646  10.711   3.420  0.6240 -1.2817  0.3888
  816MOL0     H12599   8.807  10.654   3.446  2.7043  1.9402 -2.9022
  816MOL0     H12600   8.902  10.850   3.459  0.0337 -0.4925  0.9356
  816MOL0     H12601   8.839  10.817   3.300  2.2739  0.2167  0.0398
  816MOL0     H12602   8.803  11.056   3.365  1.6355 -0.1056  1.5760
  816MOL0     H12603   8.696  11.007   3.496  1.1317  4.8085 -0.9172
  816MOL0     H12604   8.505  10.945   3.106 -0.2868 -3.0179  0.6346
  816MOL0     H12605   8.507  10.537   3.614 -2.6622 -2.5065  0.2952
  816MOL0     H12606   8.364  10.354   3.571 -0.1289  1.2244  1.5808
  816MOL0     H12607   8.192  10.376   3.597 -0.5239 -0.6984 -1.1707
  816MOL0     H12608   8.254  10.370   3.437  1.3001 -1.2746  1.1240
  817MOL0     O12609   0.452   1.324   9.193 -0.2647  0.3504  0.7207
  817MOL0     C12610   0.350   1.392   9.178  0.5440 -0.6477 -0.0160
  817MOL0     O12611   0.341   1.531   9.199 -0.1647  0.1923  0.1151
  817MOL0     C12612   0.447   1.609   9.203 -0.1519 -0.4912 -0.3504
  817MOL0     C12613   0.504   1.654   9.083  0.2416  0.3898 -0.3699
  817MOL0     C12614   0.616   1.736   9.072  0.0538 -0.2839 -0.3832
  817MOL0     C12615   0.681   1.775   9.190 -0.3091  0.0022 -0.0628
  817MOL0     O12616   0.798   1.843   9.171  0.3578 -0.4255  0.0233
  817MOL0     C12617   0.874   1.882   9.288 -0.0891 -0.1183  0.8367
  817MOL0     C12618   0.844   2.024   9.324 -0.3015  0.3562  0.0832
  817MOL0     C12619   0.850   2.062   9.463  0.5425 -0.8167  0.2019
  817MOL0     C12620   0.804   2.213   9.490 -0.4392 -0.0885  0.4759
  817MOL0     C12621   0.825   2.243   9.647  0.3781 -0.7455  1.0108
  817MOL0     C12622   0.778   2.383   9.685 -0.0639  0.4703  0.7497
  817MOL0     C12623   0.789   2.387   9.831  0.2691  0.1331  0.2278
  817MOL0     C12624   0.751   2.523   9.895  0.9280 -0.7105  0.1110
  817MOL0     N12625   0.640   2.520   9.991 -0.3210 -0.5891  0.1313
  817MOL0     C12626   0.503   2.546   9.974  0.1085  0.0712 -0.5271
  817MOL0     C12627   0.450   2.561  10.099 -0.3396  0.6031 -0.1596
  817MOL0     C12628   0.308   2.594  10.142 -0.4257  0.1286  0.0935
  817MOL0     C12629   0.240   2.498  10.249  0.0012 -1.1302  0.7221
  817MOL0     C12630   0.218   2.354  10.197 -0.3416 -0.5572  0.2422
  817MOL0     C12631   0.324   2.251  10.253  0.5453  0.4006  0.4545
  817MOL0     O12632   0.308   2.110  10.220 -0.0291 -0.0497 -0.1862
  817MOL0     C12633   0.218   2.031  10.284 -0.9891  0.3916  0.0229
  817MOL0     C12634   0.179   1.923  10.210  0.1236  0.8539  0.7532
  817MOL0     C12635   0.086   1.827  10.265  0.0023 -0.5845 -0.0267
  817MOL0     C12636   0.042   1.731  10.152  0.2973  0.6193  0.2601
  817MOL0     C12637   0.025   1.844  10.384  0.5364 -0.3125  0.2257
  817MOL0     C12638  -0.085   1.766  10.440 -0.0264  0.0390  0.2788
  817MOL0     O12639  -0.134   1.664  10.365 -0.1641  0.5035  0.6929
  817MOL0     C12640  -0.245   1.595  10.401  0.7036  0.9238  0.0755
  817MOL0     C12641  -0.247   1.494  10.498 -0.7518 -0.9209 -0.4253
  817MOL0     C12642  -0.364   1.434  10.546  0.0742 -0.3933  0.0690
  817MOL0     C12643  -0.484   1.445  10.471 -1.6067  0.7925  0.5148
  817MOL0     O12644  -0.583   1.360  10.498  0.3240  0.3136  0.6039
  817MOL0     C12645  -0.694   1.366  10.413 -0.5189 -0.0111 -0.5820
  817MOL0     C12646  -0.791   1.250  10.446  0.2027 -1.0900  0.8917
  817MOL0     C12647  -0.889   1.225  10.340 -0.0653  0.0204 -0.4230
  817MOL0     C12648  -1.012   1.156  10.407 -0.0410  0.3471  0.2950
  817MOL0     C12649  -1.124   1.112  10.304 -0.0802  0.3489 -0.1285
  817MOL0     C12650  -1.095   1.146  10.154  0.9857  0.0698  0.3462
  817MOL0     C12651  -1.217   1.116  10.059 -0.5365 -0.2209 -0.5739
  817MOL0     C12652  -1.314   1.231  10.053 -0.8840  0.8600  0.2843
  817MOL0    Cl12653  -1.459   1.166   9.969  0.1321 -0.0458  0.3046
  817MOL0     C12654  -0.472   1.533  10.359  0.1026  0.2240  0.5643
  817MOL0     C12655  -0.363   1.617  10.334  0.5651 -0.2797  1.0741
  817MOL0     O12656  -0.118   1.795  10.556 -0.8156  0.8350  0.5183
  817MOL0     C12657   0.077   1.953  10.455  0.4042  0.5014  0.7529
  817MOL0     C12658   0.166   2.052  10.411  0.5721  0.6019 -0.6605
  817MOL0     N12659   0.554   2.519  10.191  0.0683 -0.6563 -0.4420
  817MOL0     N12660   0.663   2.501  10.127 -0.2409  0.5573  0.5529
  817MOL0     C12661   0.611   1.752   9.317 -0.2601 -0.0561  0.5980
  817MOL0     C12662   0.498   1.665   9.320  0.6740  0.1006  0.1792
  817MOL0     C12663   0.222   1.322   9.176 -0.6763 -0.3626 -1.7278
  817MOL0     C12664   0.126   1.372   9.267  0.5067  0.4274 -0.1231
  817MOL0     C12665   0.008   1.296   9.285 -0.3740  0.4814 -0.0906
  817MOL0     C12666  -0.022   1.183   9.202  0.2752 -0.2351 -0.1380
  817MOL0     O12667  -0.150   1.128   9.218 -0.5122 -0.1112  0.2111
  817MOL0     C12668  -0.171   0.992   9.175  0.0565  0.6790  0.7909
  817MOL0     C12669  -0.314   0.954   9.200  0.1408  0.1294 -0.5890
  817MOL0     C12670  -0.420   1.025   9.114 -0.0534 -0.4039  0.5816
  817MOL0     C12671  -0.563   1.000   9.177  0.8205  0.2497  0.3528
  817MOL0     C12672  -0.608   0.869   9.148  0.5505  0.8083  0.1662
  817MOL0     C12673  -0.616   0.749   9.111 -0.0173 -0.2373 -0.9741
  817MOL0     C12674   0.069   1.142   9.107 -0.0215 -0.2232  0.6254
  817MOL0     C12675   0.195   1.207   9.095 -0.8763  0.9050 -0.4399
  817MOL0     C12676   0.294   1.156   8.992 -0.7211 -0.2681 -0.2578
  817MOL0     H12677   0.457   1.619   8.991  1.3012  1.6438 -1.4237
  817MOL0     H12678   0.656   1.750   8.972 -0.4972 -0.0305 -0.5679
  817MOL0     H12679   0.979   1.865   9.263 -0.1472 -0.0507  0.5327
  817MOL0     H12680   0.853   1.825   9.379 -0.3658  1.7565  2.0060
  817MOL0     H12681   0.922   2.079   9.271  0.6238 -2.2617 -1.4380
  817MOL0     H12682   0.753   2.062   9.278 -0.1381 -0.6170 -1.0826
  817MOL0     H12683   0.792   1.993   9.524 -0.6730  2.4786  3.1125
  817MOL0     H12684   0.952   2.055   9.502  0.2458 -0.6117  1.0450
  817MOL0     H12685   0.865   2.282   9.432  2.7687 -1.6742  1.7100
  817MOL0     H12686   0.698   2.215   9.464 -0.9188  0.9866  2.3059
  817MOL0     H12687   0.932   2.235   9.670  0.9751 -1.4818 -1.6503
  817MOL0     H12688   0.766   2.172   9.708 -0.8671  0.5705  1.3978
  817MOL0     H12689   0.831   2.456   9.624 -0.8495 -1.2265 -2.1427
  817MOL0     H12690   0.674   2.395   9.656 -0.4155 -2.6097  0.4017
  817MOL0     H12691   0.885   2.356   9.873  0.1237  0.1422  0.5718
  817MOL0     H12692   0.716   2.311   9.863 -0.6557 -0.2242 -2.4716
  817MOL0     H12693   0.836   2.579   9.935 -0.1103  0.3333  0.9344
  817MOL0     H12694   0.701   2.588   9.823 -0.7848  0.4128  2.1797
  817MOL0     H12695   0.459   2.576   9.880  0.6686  2.2423 -0.1468
  817MOL0     H12696   0.244   2.600  10.053  2.9112  0.8030 -2.4825
  817MOL0     H12697   0.310   2.695  10.186  0.3319 -0.7386  2.1692
  817MOL0     H12698   0.284   2.495  10.349  0.3888  1.2038  0.6632
  817MOL0     H12699   0.140   2.539  10.265 -0.6376 -2.7187  1.0480
  817MOL0     H12700   0.136   2.313  10.257  0.2035 -3.9551 -1.1306
  817MOL0     H12701   0.194   2.342  10.091  2.2181 -1.2917 -0.3261
  817MOL0     H12702   0.423   2.283  10.218  0.5867 -0.4081 -0.1964
  817MOL0     H12703   0.313   2.259  10.362 -3.2439 -2.3708  0.4648
  817MOL0     H12704   0.221   1.925  10.110 -0.7167 -0.2315  0.3452
  817MOL0     H12705   0.064   1.627  10.178 -1.1917 -0.5641 -2.6714
  817MOL0     H12706   0.088   1.752  10.056 -0.6957  0.9507 -0.1580
  817MOL0     H12707  -0.067   1.737  10.147  0.1078 -1.0348  1.5389
  817MOL0     H12708  -0.149   1.480  10.543  0.7484 -2.4855 -3.8499
  817MOL0     H12709  -0.362   1.358  10.623  1.0504 -0.7451 -0.2892
  817MOL0     H12710  -0.745   1.458  10.444  1.4717  1.4042 -1.2929
  817MOL0     H12711  -0.667   1.369  10.307 -0.6532 -0.9760 -0.6481
  817MOL0     H12712  -0.737   1.158  10.470  0.3722 -0.6183  2.4071
  817MOL0     H12713  -0.845   1.280  10.536 -1.1238  1.2774 -0.5805
  817MOL0     H12714  -0.840   1.154  10.274 -1.6394 -0.0580 -1.5826
  817MOL0     H12715  -0.914   1.315  10.283 -0.5347  0.1899  0.0297
  817MOL0     H12716  -1.046   1.210  10.496 -1.9975 -2.3009  1.2797
  817MOL0     H12717  -0.979   1.068  10.462  2.2609  0.8350 -0.1806
  817MOL0     H12718  -1.140   1.005  10.317  0.5222  0.3215  0.3977
  817MOL0     H12719  -1.220   1.160  10.325 -0.8751 -1.0755 -0.4062
  817MOL0     H12720  -0.999   1.102  10.125  0.7866 -1.2505  1.6025
  817MOL0     H12721  -1.078   1.253  10.139  2.2644 -0.1457  0.2056
  817MOL0     H12722  -1.266   1.029  10.104  1.7667 -0.1841  2.3411
  817MOL0     H12723  -1.176   1.090   9.961 -0.3254 -0.9033 -0.3119
  817MOL0     H12724  -1.274   1.323  10.010  1.8510  1.5928  3.8899
  817MOL0     H12725  -1.330   1.261  10.157 -0.5382 -0.5644  0.7707
  817MOL0     H12726  -0.542   1.557  10.281 -0.3030 -0.7627  0.6128
  817MOL0     H12727  -0.365   1.691  10.253 -0.0416  0.8415  2.0800
  817MOL0     H12728   0.039   1.966  10.556 -0.7710 -2.7957  0.8547
  817MOL0     H12729   0.198   2.139  10.468  3.1018  0.1993 -1.3454
  817MOL0     H12730   0.642   1.791   9.414 -0.8691  1.0342  0.3764
  817MOL0     H12731   0.465   1.643   9.421 -0.3529  3.2854  0.6346
  817MOL0     H12732   0.137   1.461   9.328 -0.5702 -0.8583  2.0711
  817MOL0     H12733  -0.058   1.325   9.367 -2.8008 -2.3003 -0.8718
  817MOL0     H12734  -0.175   1.000   9.066 -2.2220  1.3631  0.8845
  817MOL0     H12735  -0.093   0.923   9.210  0.1004  0.3595  0.0772
  817MOL0     H12736  -0.336   0.977   9.304  0.9051 -1.7159  0.0151
  817MOL0     H12737  -0.335   0.848   9.186  2.1058 -0.4185  0.3699
  817MOL0     H12738  -0.406   1.134   9.112 -0.1745 -0.3527  1.6679
  817MOL0     H12739  -0.411   0.992   9.010  5.3308  0.0639  0.5769
  817MOL0     H12740  -0.631   1.063   9.120 -0.2403  1.2114  2.5566
  817MOL0     H12741  -0.569   1.039   9.279 -1.0705  3.0774 -0.7103
  817MOL0     H12742  -0.596   0.647   9.083  0.8299 -1.1230  2.4224
  817MOL0     H12743   0.051   1.057   9.042  0.3353 -1.1081  1.6510
  817MOL0     H12744   0.249   1.123   8.897  2.8416 -1.9272 -1.5197
  817MOL0     H12745   0.359   1.240   8.967 -1.6794  0.1980 -1.2973
  817MOL0     H12746   0.357   1.078   9.033 -2.6862 -1.9451 -0.2487
  818MOL0     O12747   3.468   4.941   8.989  0.8953 -0.7597 -0.0829
  818MOL0     C12748   3.583   4.908   8.972 -0.2104 -0.1440  0.1236
  818MOL0     O12749   3.687   4.987   9.022 -0.9887  0.3722  0.1889
  818MOL0     C12750   3.658   5.110   9.049  0.8524  0.8009  1.3181
  818MOL0     C12751   3.725   5.219   8.996 -0.5051  1.0086 -0.3025
  818MOL0     C12752   3.709   5.347   9.054  0.0344  0.0534 -0.0806
  818MOL0     C12753   3.621   5.366   9.166 -0.8646  0.5384 -0.1962
  818MOL0     O12754   3.596   5.488   9.219 -0.0119 -0.6902  0.7625
  818MOL0     C12755   3.669   5.600   9.168  0.4297 -1.4548  0.6073
  818MOL0     C12756   3.622   5.732   9.224  0.2414  0.3054 -0.6955
  818MOL0     C12757   3.663   5.734   9.377 -0.1873  0.3168  0.9796
  818MOL0     C12758   3.625   5.871   9.437 -0.9392  0.7262  0.0843
  818MOL0     C12759   3.649   5.858   9.592  0.8304  0.2442 -0.5738
  818MOL0     C12760   3.550   5.920   9.687  0.3953  0.2052  0.3416
  818MOL0     C12761   3.407   5.884   9.655  0.7998  0.2297  0.2540
  818MOL0     C12762   3.320   5.913   9.780 -0.0818  0.8210  0.2102
  818MOL0     N12763   3.289   6.054   9.801  0.2879 -0.0995  0.2477
  818MOL0     C12764   3.201   6.103   9.897  0.0001 -0.0987 -0.2072
  818MOL0     C12765   3.208   6.238   9.882 -0.2598  0.1654  0.5616
  818MOL0     C12766   3.146   6.334   9.977  0.9307  0.6564  0.4443
  818MOL0     C12767   2.999   6.315   9.990 -0.1020 -0.0154  1.2158
  818MOL0     C12768   2.964   6.375  10.126  0.6602 -0.1140  0.3708
  818MOL0     C12769   2.816   6.358  10.152 -0.2948 -0.2860  0.8167
  818MOL0     O12770   2.769   6.477  10.084  0.2848 -0.5183  0.2118
  818MOL0     C12771   2.639   6.503  10.104 -0.2493 -0.1834 -0.9915
  818MOL0     C12772   2.585   6.616  10.039  0.7621  0.4531 -0.0513
  818MOL0     C12773   2.462   6.675  10.066  0.0371 -0.6542 -0.0386
  818MOL0     C12774   2.421   6.808   9.994 -0.7947 -0.1514 -0.8303
  818MOL0     C12775   2.378   6.611  10.158  0.8877 -0.3024 -0.5765
  818MOL0     C12776   2.248   6.658  10.215  0.3182 -0.3142  0.5043
  818MOL0     O12777   2.206   6.588  10.328 -0.6111 -0.4300 -0.2490
  818MOL0     C12778   2.085   6.615  10.382 -0.0167  0.5152  1.0731
  818MOL0     C12779   1.980   6.542  10.349  0.1384  0.5752 -0.1574
  818MOL0     C12780   1.858   6.551  10.420 -0.4506  0.0711 -1.6407
  818MOL0     C12781   1.848   6.647  10.529  0.5613 -0.1671  0.0418
  818MOL0     O12782   1.730   6.656  10.585  0.3997  0.4670 -0.4489
  818MOL0     C12783   1.711   6.756  10.679  0.3289 -0.1969  0.0485
  818MOL0     C12784   1.689   6.898  10.618 -0.3231  0.2631 -0.3185
  818MOL0     C12785   1.641   6.994  10.731  0.1387 -0.4066 -1.2941
  818MOL0     C12786   1.568   7.117  10.669  0.2948 -0.0819 -0.4741
  818MOL0     C12787   1.564   7.228  10.771 -0.1729 -0.0728 -0.1699
  818MOL0     C12788   1.492   7.191  10.902  0.3905 -0.9979  0.2121
  818MOL0     C12789   1.443   7.316  10.969 -0.6260  0.1145 -0.3766
  818MOL0     C12790   1.320   7.290  11.059 -0.2158  0.0123 -0.6047
  818MOL0    Cl12791   1.160   7.254  10.985 -0.3031 -0.1718  0.4160
  818MOL0     C12792   1.959   6.734  10.554  0.4953  0.1755 -0.0546
  818MOL0     C12793   2.082   6.721  10.479  0.8423 -0.8107  0.3140
  818MOL0     O12794   2.191   6.751  10.162 -0.4295 -0.2299 -0.1529
  818MOL0     C12795   2.429   6.496  10.215 -0.2443 -0.5803  0.0784
  818MOL0     C12796   2.557   6.443  10.188  0.2406 -0.5778  0.5943
  818MOL0     N12797   3.277   6.262   9.764 -0.3820 -0.0740 -0.2197
  818MOL0     N12798   3.331   6.155   9.719  0.0280  1.1052 -0.2876
  818MOL0     C12799   3.570   5.254   9.228  0.3865  0.3111 -0.3629
  818MOL0     C12800   3.576   5.129   9.166  0.2556  0.6413 -0.5058
  818MOL0     C12801   3.615   4.780   8.914 -0.3754  0.6037 -0.6276
  818MOL0     C12802   3.732   4.779   8.848 -0.2632  0.2460 -0.7604
  818MOL0     C12803   3.770   4.682   8.761  0.8738 -0.3071  0.1725
  818MOL0     C12804   3.698   4.570   8.745  0.4907 -0.1024 -1.3782
  818MOL0     O12805   3.742   4.481   8.651 -0.2602  0.3188 -0.4975
  818MOL0     C12806   3.651   4.378   8.613  0.0994 -0.1845  0.6038
  818MOL0     C12807   3.523   4.422   8.543 -0.9568  0.1908 -0.4040
  818MOL0     C12808   3.542   4.488   8.405  0.5699  0.2419  0.1062
  818MOL0     C12809   3.557   4.404   8.276 -0.0944 -0.2424  0.0562
  818MOL0     C12810   3.662   4.299   8.297 -1.0649 -0.6765  0.5702
  818MOL0     C12811   3.735   4.197   8.301 -0.2890 -0.8958  0.2268
  818MOL0     C12812   3.577   4.559   8.821  0.3405 -0.4821  0.0929
  818MOL0     C12813   3.529   4.668   8.898  0.6082  0.1077 -0.3028
  818MOL0     C12814   3.393   4.660   8.968 -0.0860 -0.6089 -0.5502
  818MOL0     H12815   3.794   5.199   8.914 -0.1552  1.4950 -0.1281
  818MOL0     H12816   3.772   5.427   9.018  1.6500 -1.8249 -1.6745
  818MOL0     H12817   3.646   5.606   9.061 -1.2687 -2.4928  0.8783
  818MOL0     H12818   3.778   5.593   9.180  0.3973 -0.9513  1.2555
  818MOL0     H12819   3.684   5.808   9.174 -0.5065  0.8133 -0.8680
  818MOL0     H12820   3.515   5.751   9.213  0.1916  0.9756  0.7328
  818MOL0     H12821   3.601   5.656   9.422 -1.7327 -0.4076 -2.1199
  818MOL0     H12822   3.765   5.695   9.389  0.1089  0.4157 -0.9062
  818MOL0     H12823   3.688   5.953   9.401 -1.7606  2.2906  2.0273
  818MOL0     H12824   3.524   5.908   9.414 -0.6601  0.8470 -0.9819
  818MOL0     H12825   3.744   5.908   9.608  0.1807  1.7936 -1.3377
  818MOL0     H12826   3.663   5.753   9.619  1.4511 -0.1460 -2.2720
  818MOL0     H12827   3.577   5.882   9.785 -0.0976  1.9673  1.2031
  818MOL0     H12828   3.558   6.029   9.687  2.1840  0.1244 -1.0692
  818MOL0     H12829   3.401   5.778   9.631  2.1292  0.1553  0.1627
  818MOL0     H12830   3.369   5.940   9.569  1.2342  1.5299  0.8806
  818MOL0     H12831   3.228   5.853   9.779 -0.4196  1.1180  3.3180
  818MOL0     H12832   3.380   5.878   9.864 -2.0257 -2.4192  0.4488
  818MOL0     H12833   3.144   6.049   9.972  0.2630 -0.6967 -0.4341
  818MOL0     H12834   3.163   6.438   9.945 -1.3851  0.2095 -2.6506
  818MOL0     H12835   3.194   6.316  10.074  0.9693 -1.1511  0.1238
  818MOL0     H12836   2.953   6.380   9.915  3.4758 -0.8343 -1.9899
  818MOL0     H12837   2.966   6.212   9.974  0.0179  0.3772 -2.0834
  818MOL0     H12838   3.018   6.334  10.212  2.4069  3.4951  1.1735
  818MOL0     H12839   2.986   6.482  10.115 -2.4409  0.4951 -0.9412
  818MOL0     H12840   2.778   6.261  10.118  1.6837 -0.3588 -1.4325
  818MOL0     H12841   2.805   6.359  10.261  0.8243 -2.2765  0.9916
  818MOL0     H12842   2.647   6.665   9.964 -0.7291  3.0662  0.2896
  818MOL0     H12843   2.423   6.886  10.070  3.0353 -2.4636  1.8242
  818MOL0     H12844   2.323   6.799   9.947  0.0303 -1.8806 -2.3723
  818MOL0     H12845   2.490   6.820   9.910  0.8804 -0.8721  0.3971
  818MOL0     H12846   1.992   6.482  10.259 -0.0403 -2.5109  1.7230
  818MOL0     H12847   1.765   6.510  10.383 -0.0579 -2.0617 -0.4238
  818MOL0     H12848   1.616   6.729  10.726 -0.7832  0.4164 -1.7420
  818MOL0     H12849   1.790   6.751  10.755 -1.0129  1.0535  1.6082
  818MOL0     H12850   1.787   6.914  10.572 -0.1353  0.0953  0.0175
  818MOL0     H12851   1.613   6.896  10.539  0.9125  0.6200 -1.5827
  818MOL0     H12852   1.718   7.034  10.797 -1.0437 -0.8925  0.4642
  818MOL0     H12853   1.570   6.938  10.793 -0.3505  0.2048 -1.2903
  818MOL0     H12854   1.463   7.096  10.645  0.4412 -3.8646  1.4606
  818MOL0     H12855   1.618   7.158  10.580  1.4796  0.9814  0.6389
  818MOL0     H12856   1.662   7.254  10.812 -0.5458  0.8586  0.1610
  818MOL0     H12857   1.508   7.310  10.724 -2.3963 -1.6965 -0.5216
  818MOL0     H12858   1.563   7.140  10.968  0.6114  2.1132  2.6342
  818MOL0     H12859   1.409   7.124  10.881 -1.1991  0.0070  2.8175
  818MOL0     H12860   1.410   7.396  10.902 -0.4544  1.7885  1.4440
  818MOL0     H12861   1.522   7.367  11.025 -2.1413  0.2244  1.7743
  818MOL0     H12862   1.316   7.357  11.145  1.5445 -1.1057  0.4206
  818MOL0     H12863   1.344   7.194  11.107 -0.1413  0.3286 -0.0031
  818MOL0     H12864   1.961   6.815  10.626  3.0040  0.4403 -0.3372
  818MOL0     H12865   2.162   6.790  10.502 -0.1603  0.6681 -0.4837
  818MOL0     H12866   2.369   6.451  10.293 -1.2857  2.6373  1.2604
  818MOL0     H12867   2.579   6.359  10.255 -3.2393 -2.1261  0.0121
  818MOL0     H12868   3.506   5.275   9.314 -2.8423 -0.3736 -2.4006
  818MOL0     H12869   3.523   5.042   9.201 -1.2171 -0.0489 -4.0510
  818MOL0     H12870   3.794   4.867   8.848 -1.1245  0.8820  0.4120
  818MOL0     H12871   3.855   4.702   8.697  0.9977  3.2318  1.1993
  818MOL0     H12872   3.712   4.305   8.559 -0.2654 -1.6013  2.0155
  818MOL0     H12873   3.623   4.323   8.704  2.0899 -0.3737  1.1542
  818MOL0     H12874   3.471   4.493   8.608 -1.4301  3.1566 -3.7570
  818MOL0     H12875   3.448   4.342   8.534  0.1429 -1.1175  1.3150
  818MOL0     H12876   3.453   4.551   8.398  0.9830  1.0056  1.3511
  818MOL0     H12877   3.625   4.558   8.415  1.1408 -0.4566  0.3609
  818MOL0     H12878   3.572   4.461   8.184 -1.6755 -0.0816 -0.1409
  818MOL0     H12879   3.461   4.355   8.255  0.8200 -0.6311 -3.9207
  818MOL0     H12880   3.791   4.105   8.300  2.5006  0.6546 -2.1269
  818MOL0     H12881   3.499   4.486   8.800 -0.0510 -0.1129  0.2260
  818MOL0     H12882   3.346   4.562   8.956  1.5082 -1.7345  1.7496
  818MOL0     H12883   3.409   4.674   9.075 -1.2929 -0.7283 -0.3396
  818MOL0     H12884   3.321   4.728   8.922  0.3823 -0.6456 -1.3639
  819MOL0     O12885   1.034  11.025   3.205 -0.0971 -0.3285 -0.1002
  819MOL0     C12886   1.044  11.021   3.329  0.2435 -0.8073 -0.1535
  819MOL0     O12887   0.938  11.034   3.418 -0.3596  0.4168 -0.4371
  819MOL0     C12888   0.818  11.077   3.364  0.2614 -0.6138 -0.0013
  819MOL0     C12889   0.802  11.209   3.322 -0.1564 -0.5309 -0.3614
  819MOL0     C12890   0.677  11.246   3.278  0.6291 -0.2395 -0.5913
  819MOL0     C12891   0.568  11.159   3.241 -0.1532  0.4602 -0.1607
  819MOL0     O12892   0.449  11.192   3.181 -0.2033 -0.2622 -0.7696
  819MOL0     C12893   0.427  11.330   3.146  0.3745  0.8410 -0.0559
  819MOL0     C12894   0.305  11.342   3.052 -0.8650  0.5034 -0.2325
  819MOL0     C12895   0.261  11.476   2.996  0.3037  0.9712 -0.4083
  819MOL0     C12896   0.197  11.570   3.103 -0.2065  0.2249  1.0259
  819MOL0     C12897   0.052  11.523   3.132  0.2449 -0.5083 -0.4480
  819MOL0     C12898   0.001  11.531   3.271  0.2301  0.3219 -0.1104
  819MOL0     C12899   0.078  11.433   3.366 -0.7820 -0.6388 -0.0538
  819MOL0     C12900  -0.007  11.395   3.486 -0.5483 -0.3831  0.2396
  819MOL0     N12901  -0.092  11.502   3.538  0.4815  0.4900  0.0560
  819MOL0     C12902  -0.049  11.587   3.635  0.4762  0.3066 -0.1197
  819MOL0     C12903  -0.153  11.658   3.676  0.5534 -0.7602  0.1171
  819MOL0     C12904  -0.153  11.765   3.778  0.4396  0.2278  0.3952
  819MOL0     C12905  -0.114  11.713   3.921 -0.7415  0.9538  0.3291
  819MOL0     C12906  -0.162  11.796   4.040  0.4071 -0.1224  0.6625
  819MOL0     C12907  -0.315  11.796   4.059  0.4706  0.2215  0.3657
  819MOL0     O12908  -0.360  11.662   4.099  0.0235  0.4048  0.2550
  819MOL0     C12909  -0.487  11.626   4.079  0.0284 -0.2680 -0.5633
  819MOL0     C12910  -0.506  11.493   4.108  0.5378  0.2655  0.8572
  819MOL0     C12911  -0.623  11.431   4.104 -0.5327  0.1990  0.2239
  819MOL0     C12912  -0.627  11.283   4.127 -0.4413  0.5582 -0.0431
  819MOL0     C12913  -0.737  11.513   4.084  0.5524  0.2437 -0.3717
  819MOL0     C12914  -0.873  11.459   4.094 -0.0490 -0.1886 -0.2794
  819MOL0     O12915  -0.891  11.339   4.143 -0.1180 -0.2382 -0.6944
  819MOL0     C12916  -1.012  11.298   4.179 -0.2707  0.2908 -0.8274
  819MOL0     C12917  -1.097  11.232   4.099  0.0942  0.8102  0.4087
  819MOL0     C12918  -1.228  11.202   4.148  0.3367  0.1211 -0.1087
  819MOL0     C12919  -1.277  11.251   4.272 -0.2614 -0.0898  1.4448
  819MOL0     O12920  -1.405  11.229   4.321  0.0510 -0.2560  0.2391
  819MOL0     C12921  -1.431  11.088   4.322  0.7399  0.6756  0.3523
  819MOL0     C12922  -1.572  11.045   4.393  0.1790  0.5684  0.6541
  819MOL0     C12923  -1.556  11.030   4.535 -0.4252 -0.2936 -1.0501
  819MOL0     C12924  -1.497  11.141   4.617 -0.3413  0.3551 -0.0969
  819MOL0     C12925  -1.481  11.105   4.764  0.4679 -0.3626  0.4375
  819MOL0     C12926  -1.439  11.223   4.848  0.2153  0.5963 -0.9575
  819MOL0     C12927  -1.358  11.176   4.970  0.0335 -0.1933  0.2053
  819MOL0     C12928  -1.313  11.299   5.053  0.9673  0.4841 -0.3616
  819MOL0    Cl12929  -1.206  11.410   4.968 -0.0104  0.3410  0.1481
  819MOL0     C12930  -1.185  11.321   4.348 -0.1856 -0.3947  0.5257
  819MOL0     C12931  -1.053  11.340   4.309  0.0029 -0.6061  0.7101
  819MOL0     O12932  -0.971  11.526   4.055  0.0853 -0.9095 -0.6339
  819MOL0     C12933  -0.726  11.644   4.039 -1.4100 -0.5690 -0.6010
  819MOL0     C12934  -0.596  11.701   4.035  0.0518 -0.4093 -0.0877
  819MOL0     N12935  -0.252  11.628   3.581  0.4459  0.0649  0.2790
  819MOL0     N12936  -0.220  11.531   3.500 -0.3495 -0.1247  0.0673
  819MOL0     C12937   0.596  11.028   3.261 -0.3308 -0.6225  0.3235
  819MOL0     C12938   0.712  10.985   3.323 -0.2098 -0.0116 -0.0569
  819MOL0     C12939   1.187  11.028   3.373 -1.4520  0.5716 -0.4789
  819MOL0     C12940   1.281  11.096   3.289  0.4662  0.4346  0.7434
  819MOL0     C12941   1.411  11.131   3.329  0.1764  0.1364 -0.8920
  819MOL0     C12942   1.460  11.097   3.454  0.0999  0.2443 -1.0464
  819MOL0     O12943   1.585  11.139   3.492 -0.8599  0.1433  0.8705
  819MOL0     C12944   1.631  11.101   3.623 -0.0963  0.0029 -0.8156
  819MOL0     C12945   1.731  11.198   3.669 -0.1624 -0.2595  0.3666
  819MOL0     C12946   1.798  11.156   3.799  0.2778  0.2407 -0.8538
  819MOL0     C12947   1.884  11.248   3.890  0.2434  0.0428 -0.0661
  819MOL0     C12948   2.000  11.294   3.812  0.4089  0.0461  0.0211
  819MOL0     C12949   2.098  11.335   3.759 -0.3526  0.2569  0.0653
  819MOL0     C12950   1.366  11.019   3.534 -0.8502 -0.1140 -0.1460
  819MOL0     C12951   1.238  10.982   3.498  0.6062  0.3279 -0.7374
  819MOL0     C12952   1.162  10.897   3.601  0.6311 -0.4972  1.0809
  819MOL0     H12953   0.886  11.277   3.335  0.2847 -1.4244  2.0678
  819MOL0     H12954   0.668  11.350   3.250  0.0416 -0.8844 -3.0041
  819MOL0     H12955   0.511  11.367   3.086  1.6163  0.6346  1.4830
  819MOL0     H12956   0.426  11.396   3.234 -2.2801  3.1666 -1.6454
  819MOL0     H12957   0.329  11.286   2.961 -0.3286  1.3879 -0.6530
  819MOL0     H12958   0.218  11.289   3.091 -0.4825  1.4023  1.9795
  819MOL0     H12959   0.341  11.527   2.941  0.6859 -2.2504 -3.1682
  819MOL0     H12960   0.187  11.455   2.918 -0.0709 -5.4668  1.1673
  819MOL0     H12961   0.253  11.562   3.197  0.0233  2.2531  1.0919
  819MOL0     H12962   0.212  11.674   3.075  2.6493 -0.7408 -1.6030
  819MOL0     H12963   0.024  11.422   3.101 -1.5859 -0.7170  1.6473
  819MOL0     H12964  -0.015  11.593   3.081 -0.0301  0.0369  0.6213
  819MOL0     H12965   0.023  11.636   3.291 -0.5593  0.4218  0.2443
  819MOL0     H12966  -0.107  11.517   3.275 -0.0539  2.2653 -0.1540
  819MOL0     H12967   0.173  11.458   3.413 -1.0068 -3.6289  2.2789
  819MOL0     H12968   0.090  11.343   3.304  0.4034  0.2885 -1.2332
  819MOL0     H12969  -0.061  11.313   3.438  2.3684 -4.6891  3.5743
  819MOL0     H12970   0.049  11.341   3.562 -0.6785 -1.9300 -0.7267
  819MOL0     H12971   0.052  11.576   3.673 -0.4541 -2.3206  1.9338
  819MOL0     H12972  -0.250  11.814   3.787  0.8236  1.4607 -1.4623
  819MOL0     H12973  -0.078  11.831   3.731  1.6468 -1.7537 -0.6150
  819MOL0     H12974  -0.159  11.616   3.944  0.1814  0.0650 -1.3898
  819MOL0     H12975  -0.006  11.695   3.926 -0.5259  2.1311  0.3771
  819MOL0     H12976  -0.102  11.767   4.127  1.4239 -3.3250 -0.9492
  819MOL0     H12977  -0.140  11.900   4.013 -1.2111 -0.4913 -2.4887
  819MOL0     H12978  -0.339  11.870   4.136  2.0617 -0.5469  1.6844
  819MOL0     H12979  -0.372  11.823   3.970 -1.4607  2.1929  2.0820
  819MOL0     H12980  -0.427  11.421   4.122  0.6585  0.3606  0.6655
  819MOL0     H12981  -0.672  11.234   4.040  1.2689 -0.4213 -0.4316
  819MOL0     H12982  -0.675  11.251   4.220  1.1781 -1.8741  0.0533
  819MOL0     H12983  -0.528  11.236   4.135 -0.5128 -0.5940 -3.9541
  819MOL0     H12984  -1.066  11.195   4.002  1.7683 -0.9156  1.5311
  819MOL0     H12985  -1.300  11.166   4.076  0.1991  1.7345 -0.8292
  819MOL0     H12986  -1.433  11.043   4.222  0.9412 -1.8743  1.4280
  819MOL0     H12987  -1.352  11.037   4.378  1.3350 -1.0846 -1.8953
  819MOL0     H12988  -1.647  11.119   4.363  2.9054  2.0650 -3.4956
  819MOL0     H12989  -1.625  10.953   4.369 -0.8488 -0.3239  5.4593
  819MOL0     H12990  -1.494  10.945   4.563  0.7144  0.9270  0.2928
  819MOL0     H12991  -1.652  11.002   4.579  0.4546 -0.1314  1.0589
  819MOL0     H12992  -1.554  11.235   4.612 -0.1632  0.4471 -0.4330
  819MOL0     H12993  -1.403  11.169   4.570 -1.1975  0.0672 -2.1006
  819MOL0     H12994  -1.577  11.066   4.798  1.2511 -2.6905  0.1846
  819MOL0     H12995  -1.405  11.027   4.773  1.1964 -0.5810 -4.4246
  819MOL0     H12996  -1.519  11.284   4.891 -0.8774 -0.9069 -0.8067
  819MOL0     H12997  -1.380  11.293   4.788 -0.6975  2.0834 -0.1702
  819MOL0     H12998  -1.278  11.120   4.919 -0.6301 -0.1413 -0.9223
  819MOL0     H12999  -1.401  11.093   5.028  0.7375 -1.3468 -0.8655
  819MOL0     H13000  -1.248  11.247   5.124  1.7910 -0.0540 -1.4719
  819MOL0     H13001  -1.400  11.344   5.101 -2.0375 -3.8362 -1.1906
  819MOL0     H13002  -1.215  11.356   4.446  0.3736 -0.7330  0.8237
  819MOL0     H13003  -0.990  11.390   4.383  1.9058 -1.5581 -0.2175
  819MOL0     H13004  -0.812  11.708   4.026 -1.1882  1.4624  5.0110
  819MOL0     H13005  -0.577  11.805   4.009 -2.7652  0.7894  1.9995
  819MOL0     H13006   0.518  10.958   3.230  0.0910 -0.4012 -1.2914
  819MOL0     H13007   0.726  10.879   3.345 -2.2359 -0.0831  1.1200
  819MOL0     H13008   1.256  11.118   3.186  2.9091 -0.8406 -0.2048
  819MOL0     H13009   1.471  11.200   3.270  1.7563 -0.5041 -0.0793
  819MOL0     H13010   1.557  11.106   3.703  1.2037  2.1936  0.3305
  819MOL0     H13011   1.684  11.005   3.627  3.6676  1.9369  0.3988
  819MOL0     H13012   1.696  11.301   3.677  0.2610 -0.1636  1.0661
  819MOL0     H13013   1.801  11.194   3.585  3.8095 -3.6637  3.3973
  819MOL0     H13014   1.727  11.111   3.868 -0.4451 -0.4613 -2.0319
  819MOL0     H13015   1.863  11.072   3.774  1.4412 -1.4762  5.8733
  819MOL0     H13016   1.938  11.200   3.972  3.1426  2.6716 -0.2448
  819MOL0     H13017   1.806  11.317   3.925  0.9298  1.4255 -1.1689
  819MOL0     H13018   2.195  11.353   3.718 -0.5796 -0.6808 -0.9278
  819MOL0     H13019   1.399  10.995   3.635  0.0254  0.3245 -0.3142
  819MOL0     H13020   1.127  10.807   3.548  1.9090  0.7114 -2.0224
  819MOL0     H13021   1.224  10.855   3.682  0.8261 -1.8668  0.2604
  819MOL0     H13022   1.079  10.955   3.642  0.3417 -0.4152  0.3925
  820MOL0     O13023   8.328   2.433   4.595 -0.4650  0.0874 -0.0871
  820MOL0     C13024   8.422   2.516   4.616  0.4390  0.1852  0.4639
  820MOL0     O13025   8.433   2.584   4.730 -0.0996  0.1651 -0.8744
  820MOL0     C13026   8.341   2.576   4.836  0.0588 -0.5913  0.1266
  820MOL0     C13027   8.291   2.691   4.886 -0.6575  0.6854 -0.3879
  820MOL0     C13028   8.215   2.696   5.005  0.0638  0.2371  0.5372
  820MOL0     C13029   8.180   2.576   5.063 -0.0036 -0.9327 -0.1476
  820MOL0     O13030   8.119   2.592   5.192  0.3075 -0.1036 -0.1368
  820MOL0     C13031   8.157   2.484   5.283  0.5467 -0.5177  1.9232
  820MOL0     C13032   8.102   2.500   5.418 -0.3099 -0.0764 -0.4007
  820MOL0     C13033   8.190   2.587   5.514 -0.6421 -0.5335 -0.2446
  820MOL0     C13034   8.091   2.642   5.618  0.7503  1.1425 -0.4673
  820MOL0     C13035   8.155   2.724   5.726  0.7122  0.4579  0.2692
  820MOL0     C13036   8.146   2.878   5.693 -0.0117 -0.0230 -0.0294
  820MOL0     C13037   8.246   2.967   5.759 -0.4364 -1.2298  1.2692
  820MOL0     C13038   8.244   2.985   5.908 -0.0829  0.8384 -0.2282
  820MOL0     N13039   8.122   3.053   5.954 -0.0644  0.3160  0.4323
  820MOL0     C13040   8.106   3.185   6.002 -0.4390  0.7234 -0.8503
  820MOL0     C13041   7.988   3.181   6.059  0.8172  0.1803  1.0705
  820MOL0     C13042   7.938   3.287   6.145  0.1404 -0.7689 -0.0602
  820MOL0     C13043   7.816   3.249   6.248  1.7103 -0.4309 -0.2861
  820MOL0     C13044   7.842   3.140   6.354 -0.9323  0.6737 -0.2596
  820MOL0     C13045   7.916   3.203   6.469  0.4249  0.1095  0.4414
  820MOL0     O13046   8.034   3.263   6.426  0.9392  0.0511  0.1714
  820MOL0     C13047   8.141   3.178   6.395  1.1911  0.2078  0.2932
  820MOL0     C13048   8.250   3.229   6.333 -0.7986 -0.3976  0.7169
  820MOL0     C13049   8.355   3.149   6.268  0.0327  0.9707  0.2437
  820MOL0     C13050   8.460   3.223   6.195  0.0720  0.3395 -0.5313
  820MOL0     C13051   8.339   3.006   6.276 -0.0945  0.2254 -0.4006
  820MOL0     C13052   8.426   2.910   6.207  0.2478 -0.8410  0.9738
  820MOL0     O13053   8.435   2.782   6.266 -0.1481 -0.0087 -0.1816
  820MOL0     C13054   8.518   2.693   6.209  0.0918  0.3507  1.0830
  820MOL0     C13055   8.487   2.638   6.086 -0.0444 -0.0368 -0.7458
  820MOL0     C13056   8.577   2.545   6.037 -0.2981 -0.4223  0.3344
  820MOL0     C13057   8.698   2.506   6.100  0.2938  0.4479 -0.4884
  820MOL0     O13058   8.774   2.417   6.038  0.5648  0.1871  0.3728
  820MOL0     C13059   8.923   2.430   6.038  0.3037  0.4115 -0.0966
  820MOL0     C13060   8.975   2.308   5.953 -0.0819 -0.5854  0.9216
  820MOL0     C13061   8.973   2.189   6.030  0.1727 -0.5002 -1.0286
  820MOL0     C13062   9.060   2.193   6.152 -0.2619 -0.0415  0.0248
  820MOL0     C13063   9.030   2.053   6.222  0.2203  0.1276 -0.3829
  820MOL0     C13064   8.892   2.057   6.293  1.1107 -0.2609 -0.4830
  820MOL0     C13065   8.895   1.943   6.398  0.0245 -0.3962  0.1587
  820MOL0     C13066   8.754   1.899   6.448  1.2189 -1.1684 -1.0632
  820MOL0    Cl13067   8.680   2.037   6.562  0.4286 -0.3184  0.2935
  820MOL0     C13068   8.721   2.562   6.225 -1.1345 -0.1008 -0.3656
  820MOL0     C13069   8.632   2.653   6.278 -0.2221 -0.4309  0.3386
  820MOL0     O13070   8.497   2.940   6.111  0.1680 -1.0025  0.3797
  820MOL0     C13071   8.243   2.958   6.369 -0.6647  0.1285  0.5799
  820MOL0     C13072   8.135   3.035   6.411 -0.3724  0.2686 -0.2366
  820MOL0     N13073   7.932   3.056   6.027  0.2837  0.7623  0.1427
  820MOL0     N13074   8.002   2.982   5.958 -0.1936 -0.1056 -0.0365
  820MOL0     C13075   8.210   2.457   5.008  1.3942  0.7207  0.0364
  820MOL0     C13076   8.294   2.453   4.892  0.4831 -0.0753 -0.0572
  820MOL0     C13077   8.524   2.530   4.502 -0.8676 -0.1014 -0.2143
  820MOL0     C13078   8.620   2.629   4.524  0.6500 -0.2076  0.6500
  820MOL0     C13079   8.716   2.651   4.430 -0.2234 -0.8646 -0.1689
  820MOL0     C13080   8.722   2.585   4.308  1.1261 -0.0316 -0.1927
  820MOL0     O13081   8.822   2.625   4.218  1.6205 -0.5343 -0.8697
  820MOL0     C13082   8.830   2.560   4.086 -0.0930 -0.0877  0.0407
  820MOL0     C13083   8.933   2.612   3.997 -1.0239 -0.0041  0.3223
  820MOL0     C13084   8.893   2.649   3.850 -0.4233  0.2748  1.3924
  820MOL0     C13085   9.013   2.715   3.773  0.4647  0.3452 -0.1961
  820MOL0     C13086   9.067   2.837   3.830 -0.3572 -1.1034  0.2105
  820MOL0     C13087   9.118   2.940   3.872 -0.0528 -0.2950  0.5776
  820MOL0     C13088   8.624   2.493   4.283  0.1568  0.1300 -0.0642
  820MOL0     C13089   8.525   2.448   4.382  0.0086  0.1884  0.6117
  820MOL0     C13090   8.436   2.336   4.328  0.1377 -0.2594  0.1982
  820MOL0     H13091   8.329   2.784   4.843  0.6672  0.4117  0.1513
  820MOL0     H13092   8.202   2.786   5.065  2.7746  1.1968 -0.1693
  820MOL0     H13093   8.265   2.466   5.283  0.2459 -2.6834  0.6963
  820MOL0     H13094   8.109   2.395   5.241 -1.2296 -0.0595  2.8973
  820MOL0     H13095   7.999   2.536   5.418 -1.2067 -2.4404  0.1723
  820MOL0     H13096   8.097   2.403   5.470 -2.8549  0.7356  1.0478
  820MOL0     H13097   8.269   2.522   5.552 -1.2375 -2.3658 -1.9537
  820MOL0     H13098   8.231   2.678   5.469 -2.6982  2.8632  4.0613
  820MOL0     H13099   8.004   2.693   5.575 -4.1182 -1.9519  4.3093
  820MOL0     H13100   8.052   2.548   5.660 -0.0191  1.0388 -1.3680
  820MOL0     H13101   8.261   2.701   5.732  0.5769 -0.7406 -1.2619
  820MOL0     H13102   8.104   2.702   5.820  1.5619 -0.4786  0.5196
  820MOL0     H13103   8.164   2.880   5.585 -1.7547 -1.6544 -0.3949
  820MOL0     H13104   8.046   2.916   5.713 -1.5456 -4.1505  1.2504
  820MOL0     H13105   8.254   3.066   5.712 -1.3329 -1.8762 -0.2806
  820MOL0     H13106   8.341   2.917   5.741  0.0421  0.0276  0.1494
  820MOL0     H13107   8.264   2.886   5.951  2.2148  1.0193 -0.7117
  820MOL0     H13108   8.335   3.043   5.927  0.5683 -0.7620  1.8475
  820MOL0     H13109   8.183   3.261   6.014 -0.6353  0.6625  1.2009
  820MOL0     H13110   7.890   3.362   6.082  0.8494  0.6459  1.0368
  820MOL0     H13111   8.026   3.325   6.197 -1.4287  0.5328  1.8195
  820MOL0     H13112   7.783   3.344   6.292  1.3904 -1.7981  2.6881
  820MOL0     H13113   7.726   3.215   6.196  2.2958 -1.7081 -0.4932
  820MOL0     H13114   7.748   3.103   6.396 -0.2196  1.1065  1.8626
  820MOL0     H13115   7.893   3.052   6.313  3.8068  2.3106  1.3924
  820MOL0     H13116   7.853   3.283   6.510  0.4410 -0.5164  1.7459
  820MOL0     H13117   7.931   3.136   6.555 -0.7377  1.5480  1.8320
  820MOL0     H13118   8.265   3.336   6.330  0.4622 -0.5530  0.8010
  820MOL0     H13119   8.555   3.193   6.242 -0.1664  2.1439  1.2065
  820MOL0     H13120   8.451   3.331   6.206  1.6488  0.3229  1.6621
  820MOL0     H13121   8.457   3.200   6.088  1.4973 -3.3250  0.0611
  820MOL0     H13122   8.402   2.658   6.022  2.4103 -2.7226 -5.3450
  820MOL0     H13123   8.571   2.487   5.946 -1.9655  0.9034 -0.4515
  820MOL0     H13124   8.940   2.516   5.973 -2.1405  3.6384  3.0874
  820MOL0     H13125   8.969   2.446   6.136 -0.0403  0.9657 -0.0163
  820MOL0     H13126   8.905   2.297   5.869 -0.3077  0.6575  0.9323
  820MOL0     H13127   9.072   2.326   5.904 -1.7052  1.1739 -1.9438
  820MOL0     H13128   9.008   2.109   5.965 -0.6189 -1.7635  0.0356
  820MOL0     H13129   8.868   2.174   6.057  0.4182 -0.9891 -0.3365
  820MOL0     H13130   9.044   2.267   6.231 -1.4428 -0.8445  0.5762
  820MOL0     H13131   9.165   2.198   6.124 -0.0550 -0.5105  0.7110
  820MOL0     H13132   9.038   1.971   6.150 -1.0677 -0.8829  0.5789
  820MOL0     H13133   9.105   2.030   6.298 -1.8305 -1.8626  1.1763
  820MOL0     H13134   8.811   2.049   6.221 -1.5323  0.4825  2.1921
  820MOL0     H13135   8.866   2.154   6.336 -1.0231 -0.0347 -2.1202
  820MOL0     H13136   8.962   1.963   6.482  0.7794 -3.0982  0.3043
  820MOL0     H13137   8.948   1.853   6.364  0.3028  0.0439 -0.5856
  820MOL0     H13138   8.753   1.805   6.503 -1.2715 -0.4441  0.3090
  820MOL0     H13139   8.697   1.874   6.358  1.7876 -0.9333 -1.4905
  820MOL0     H13140   8.812   2.530   6.276 -2.3159 -1.9747  0.6456
  820MOL0     H13141   8.631   2.683   6.382 -3.0607 -0.2606  0.3507
  820MOL0     H13142   8.233   2.854   6.397  1.6104 -0.6238 -1.0773
  820MOL0     H13143   8.067   2.975   6.469  1.2940 -0.9136  0.5867
  820MOL0     H13144   8.194   2.356   5.042  0.9643  0.9177  0.4199
  820MOL0     H13145   8.328   2.362   4.844  3.4212  0.5640  0.6381
  820MOL0     H13146   8.625   2.681   4.619 -0.4356  0.7448  0.2117
  820MOL0     H13147   8.790   2.729   4.447 -1.3273  0.1108  0.2822
  820MOL0     H13148   8.838   2.451   4.090  1.1885 -0.0770 -1.4441
  820MOL0     H13149   8.739   2.567   4.026 -1.3715 -0.5343  1.8117
  820MOL0     H13150   9.024   2.552   3.985  1.0079  2.9448 -0.0817
  820MOL0     H13151   8.964   2.705   4.045  0.1978 -0.9558  1.4701
  820MOL0     H13152   8.852   2.564   3.795 -1.4799  1.9764 -0.6185
  820MOL0     H13153   8.819   2.728   3.863  2.0842  3.2509 -0.6882
  820MOL0     H13154   8.964   2.738   3.677 -1.8413  1.1472  1.0870
  820MOL0     H13155   9.092   2.643   3.750 -0.3906 -0.9444  0.6998
  820MOL0     H13156   9.181   3.019   3.908  1.4125 -0.5578 -1.2286
  820MOL0     H13157   8.624   2.446   4.185 -0.7276 -1.5833  0.7261
  820MOL0     H13158   8.440   2.327   4.219  2.2198 -0.0183  0.2173
  820MOL0     H13159   8.444   2.247   4.391 -0.5007  0.8920  1.9749
  820MOL0     H13160   8.332   2.359   4.350 -0.8575 -0.6167 -3.4881
  821MOL0     O13161   5.630  10.935  11.248  0.0761 -0.1530 -0.4437
  821MOL0     C13162   5.623  11.048  11.198  0.2032 -1.2716 -0.0729
  821MOL0     O13163   5.512  11.110  11.164  0.0007 -0.3406 -0.3779
  821MOL0     C13164   5.397  11.044  11.146  0.4017 -0.6913  0.0742
  821MOL0     C13165   5.310  11.013  11.248  0.0608  0.3392 -0.0091
  821MOL0     C13166   5.198  10.932  11.240  1.7046 -0.0321  0.5323
  821MOL0     C13167   5.181  10.869  11.117 -0.5610  0.2568 -0.7215
  821MOL0     O13168   5.090  10.767  11.097  0.1970 -0.1283 -0.8099
  821MOL0     C13169   4.995  10.724  11.196 -0.0532  0.0610 -0.7832
  821MOL0     C13170   4.890  10.628  11.132  0.4615 -0.4938 -1.1949
  821MOL0     C13171   4.762  10.705  11.098  0.2612 -1.0176  1.1701
  821MOL0     C13172   4.674  10.728  11.224 -0.3893  0.4113 -1.0543
  821MOL0     C13173   4.572  10.849  11.226 -0.4030  0.1749 -0.4489
  821MOL0     C13174   4.474  10.842  11.111 -0.0779  1.0779  0.2244
  821MOL0     C13175   4.405  10.980  11.103  0.0880 -0.2654  0.1876
  821MOL0     C13176   4.289  10.982  11.005  0.9801 -0.5094 -0.5772
  821MOL0     N13177   4.206  10.863  11.025 -0.2151  0.8095  0.6859
  821MOL0     C13178   4.213  10.753  10.949  1.4382 -0.2515  0.1030
  821MOL0     C13179   4.098  10.679  10.981 -0.1581 -0.3490  0.5573
  821MOL0     C13180   4.053  10.542  10.929  0.2495 -0.5211 -0.0434
  821MOL0     C13181   4.026  10.442  11.042 -1.4110 -0.4407 -0.5635
  821MOL0     C13182   3.881  10.466  11.107  0.3623  0.7769  0.4667
  821MOL0     C13183   3.860  10.373  11.220  0.8436 -0.2680 -1.0352
  821MOL0     O13184   3.723  10.370  11.254 -0.7834  0.2131 -1.0408
  821MOL0     C13185   3.679  10.271  11.333 -0.4502  0.5077  0.3044
  821MOL0     C13186   3.754  10.159  11.373  0.3315  0.2720  0.1337
  821MOL0     C13187   3.703  10.054  11.446 -0.1102 -0.3952  0.3197
  821MOL0     C13188   3.799   9.941  11.481  0.7990  1.2409  0.0056
  821MOL0     C13189   3.572  10.058  11.486 -0.5705  0.1247 -0.2021
  821MOL0     C13190   3.511   9.954  11.559 -1.3229 -0.4654  0.1139
  821MOL0     O13191   3.535   9.827  11.520  0.3695  0.4129 -0.7497
  821MOL0     C13192   3.448   9.721  11.536 -0.3768  0.6316  0.1490
  821MOL0     C13193   3.404   9.667  11.422 -0.6760  0.7239  0.2760
  821MOL0     C13194   3.294   9.572  11.420  0.2465  0.4178  0.1797
  821MOL0     C13195   3.239   9.536  11.544  0.1557  0.1350 -0.7771
  821MOL0     O13196   3.125   9.466  11.587 -1.0261  0.4384  0.3169
  821MOL0     C13197   3.080   9.365  11.497  0.4884  0.4305  0.0480
  821MOL0     C13198   3.189   9.253  11.470 -0.5204 -0.5578  0.1431
  821MOL0     C13199   3.260   9.214  11.601  0.7245 -0.1904 -0.9983
  821MOL0     C13200   3.345   9.081  11.587  0.1367 -0.9445  1.0138
  821MOL0     C13201   3.410   9.042  11.713  0.1385 -0.6341 -0.5944
  821MOL0     C13202   3.503   8.921  11.712  0.3160  0.5302 -1.2168
  821MOL0     C13203   3.626   8.925  11.633 -0.0096  0.0849 -0.5397
  821MOL0     C13204   3.702   8.789  11.651 -0.3243  1.5962  1.4407
  821MOL0    Cl13205   3.777   8.824  11.817  0.3339  0.0162 -0.2945
  821MOL0     C13206   3.304   9.585  11.661 -0.3167  0.4724 -0.7315
  821MOL0     C13207   3.405   9.675  11.659 -0.5168 -0.3820 -0.7068
  821MOL0     O13208   3.441   9.987  11.651 -0.0555  0.4524 -0.8381
  821MOL0     C13209   3.491  10.172  11.448  0.6580 -0.1977 -0.1279
  821MOL0     C13210   3.545  10.276  11.369 -0.3539  0.4836 -0.9913
  821MOL0     N13211   4.029  10.750  11.072 -0.8148 -0.1222 -0.1602
  821MOL0     N13212   4.091  10.863  11.097  0.0210 -0.4427  0.6391
  821MOL0     C13213   5.257  10.901  11.014  0.3418 -0.5030  0.9243
  821MOL0     C13214   5.359  10.994  11.020 -0.9527  0.3328  0.5396
  821MOL0     C13215   5.737  11.138  11.208  0.0528 -0.0922  1.0457
  821MOL0     C13216   5.735  11.261  11.282  0.6434 -0.4142  0.2559
  821MOL0     C13217   5.845  11.349  11.299  0.5075 -0.5080  0.1882
  821MOL0     C13218   5.965  11.315  11.230  0.0610 -0.0703  0.0731
  821MOL0     O13219   6.090  11.385  11.232 -0.0406 -0.6074 -0.2697
  821MOL0     C13220   6.093  11.494  11.325  0.7783 -0.0210 -0.2275
  821MOL0     C13221   6.106  11.446  11.475  0.3905 -0.0729  0.4370
  821MOL0     C13222   6.097  11.555  11.582  0.8457  0.7708  0.6407
  821MOL0     C13223   5.966  11.615  11.628  0.2599  0.1173 -0.5455
  821MOL0     C13224   5.851  11.528  11.646  0.7450  0.4928  0.2607
  821MOL0     C13225   5.753  11.451  11.661 -0.4793  0.4209  0.2621
  821MOL0     C13226   5.968  11.198  11.149  0.0520  0.2818 -0.1251
  821MOL0     C13227   5.858  11.114  11.141 -0.7736 -0.5787  0.2332
  821MOL0     C13228   5.873  10.992  11.059  0.6074 -0.4290  0.7359
  821MOL0     H13229   5.329  11.047  11.349  0.8899 -0.0139 -0.0397
  821MOL0     H13230   5.134  10.925  11.327 -1.5620  0.1050 -1.6669
  821MOL0     H13231   4.950  10.809  11.248 -1.7828 -1.1146 -0.2740
  821MOL0     H13232   5.048  10.673  11.278 -0.3595  2.0444  0.7124
  821MOL0     H13233   4.933  10.579  11.044  0.1623  1.0724 -2.2671
  821MOL0     H13234   4.868  10.542  11.195  3.3238  0.5290  1.5221
  821MOL0     H13235   4.782  10.801  11.052  0.4182  0.4556  4.0551
  821MOL0     H13236   4.705  10.656  11.018  0.8169 -0.4588  0.4271
  821MOL0     H13237   4.615  10.637  11.238  0.9595 -0.5801 -1.6053
  821MOL0     H13238   4.741  10.752  11.307 -1.3997  2.1977 -0.7072
  821MOL0     H13239   4.627  10.943  11.222  0.8647 -0.2177  3.5150
  821MOL0     H13240   4.514  10.851  11.318  0.0108 -0.0088 -0.1805
  821MOL0     H13241   4.521  10.843  11.013 -0.4200  2.1516  0.0564
  821MOL0     H13242   4.402  10.761  11.108 -0.9405  1.8552 -1.1218
  821MOL0     H13243   4.481  11.055  11.080 -1.2444  1.9474  2.4978
  821MOL0     H13244   4.368  11.020  11.198 -1.0023  0.1409 -0.3837
  821MOL0     H13245   4.222  11.066  11.028 -0.8123 -1.5181 -1.8521
  821MOL0     H13246   4.333  10.988  10.905  0.7042  2.0594 -0.6041
  821MOL0     H13247   4.289  10.731  10.875 -0.1901  3.5232 -3.0357
  821MOL0     H13248   4.126  10.510  10.854 -1.8757  1.5279 -3.2009
  821MOL0     H13249   3.958  10.561  10.878 -1.6939 -0.1081  3.3761
  821MOL0     H13250   4.051  10.342  11.004  1.1785  0.5123 -1.6379
  821MOL0     H13251   4.102  10.454  11.120 -1.3558 -3.0486 -0.0966
  821MOL0     H13252   3.862  10.567  11.144  0.1149  0.7285  0.4697
  821MOL0     H13253   3.819  10.437  11.022 -1.3682  3.4515  0.6820
  821MOL0     H13254   3.887  10.272  11.186  0.3732 -0.1657 -1.7362
  821MOL0     H13255   3.914  10.401  11.311 -2.3316 -0.8516  1.1936
  821MOL0     H13256   3.861  10.151  11.355  0.0921  0.0353 -1.3021
  821MOL0     H13257   3.901   9.962  11.446  2.2539 -1.8889  1.9686
  821MOL0     H13258   3.759   9.849  11.438 -2.3064  1.1218  2.7954
  821MOL0     H13259   3.809   9.932  11.589 -1.4082  1.3555  0.2662
  821MOL0     H13260   3.453   9.700  11.331 -0.6193 -2.6881 -1.0821
  821MOL0     H13261   3.254   9.526  11.330  2.5995 -0.1202 -0.6526
  821MOL0     H13262   2.988   9.320  11.534  1.1456 -0.5110  0.5712
  821MOL0     H13263   3.050   9.411  11.403 -2.3294  0.6595  0.9746
  821MOL0     H13264   3.155   9.178  11.399  1.7413  0.9897 -2.8257
  821MOL0     H13265   3.270   9.298  11.411  3.4011 -0.9449  4.6298
  821MOL0     H13266   3.188   9.206  11.682  0.3085 -1.0892 -1.4470
  821MOL0     H13267   3.329   9.292  11.635  1.3721 -1.6085  1.1083
  821MOL0     H13268   3.421   9.098  11.510  1.0896  0.3107  2.2022
  821MOL0     H13269   3.284   8.999  11.546 -0.3066 -0.5613  0.9056
  821MOL0     H13270   3.472   9.123  11.752 -3.0813  1.0846  1.4194
  821MOL0     H13271   3.329   9.036  11.786  1.8275 -1.0624  1.3480
  821MOL0     H13272   3.447   8.828  11.696 -3.0112  1.5887  2.5809
  821MOL0     H13273   3.541   8.915  11.815  0.1916 -1.5404 -1.2537
  821MOL0     H13274   3.682   9.015  11.659 -0.8152  0.0375  1.5476
  821MOL0     H13275   3.601   8.942  11.528 -2.6071 -2.4004 -0.4495
  821MOL0     H13276   3.768   8.768  11.566 -0.3297  1.3741  1.4924
  821MOL0     H13277   3.634   8.705  11.667 -0.0821  1.0184 -0.3462
  821MOL0     H13278   3.263   9.562  11.759 -2.1027  1.5945 -1.1642
  821MOL0     H13279   3.445   9.720  11.749 -3.1270  1.8980 -0.5381
  821MOL0     H13280   3.386  10.177  11.474  0.6602  1.3484 -0.3272
  821MOL0     H13281   3.487  10.362  11.339  0.0032  1.4962  1.0242
  821MOL0     H13282   5.237  10.853  10.918  2.2853  0.5208 -0.0355
  821MOL0     H13283   5.428  11.011  10.938  1.8763  2.6699  3.1721
  821MOL0     H13284   5.645  11.295  11.332 -0.6714 -1.5330 -1.2488
  821MOL0     H13285   5.832  11.437  11.361  5.0659  0.0565  0.6635
  821MOL0     H13286   6.175  11.562  11.301 -0.8071  1.6479 -1.1784
  821MOL0     H13287   6.005  11.556  11.308  0.4187 -0.8975 -1.7873
  821MOL0     H13288   6.195  11.382  11.485  1.5755  1.3467 -0.5335
  821MOL0     H13289   6.030  11.369  11.488 -0.7448  0.2820 -3.0751
  821MOL0     H13290   6.135  11.513  11.676 -4.1860 -5.2869  0.6015
  821MOL0     H13291   6.155  11.641  11.548  1.3646 -0.1053 -0.7528
  821MOL0     H13292   5.947  11.697  11.558  2.2856 -0.3692 -1.7423
  821MOL0     H13293   5.991  11.670  11.719 -0.7636  0.3131 -0.3666
  821MOL0     H13294   5.659  11.400  11.668 -1.7714  2.6884  0.6656
  821MOL0     H13295   6.058  11.175  11.093 -1.3732 -3.6918 -1.0925
  821MOL0     H13296   5.791  10.985  10.987  0.1780  1.1429  1.0317
  821MOL0     H13297   5.966  10.999  11.002 -0.0678  0.5361 -0.2976
  821MOL0     H13298   5.882  10.900  11.118  3.0963  0.8177  2.4553
  822MOL0     O13299   0.317   5.509   9.445  0.3332 -0.0308 -0.2482
  822MOL0     C13300   0.385   5.448   9.362  0.0519  0.3107  0.3003
  822MOL0     O13301   0.330   5.386   9.252  0.2713  0.4558  0.1712
  822MOL0     C13302   0.213   5.436   9.196 -1.0702  0.4084  0.9717
  822MOL0     C13303   0.174   5.329   9.110  0.1782 -0.4519 -0.0243
  822MOL0     C13304   0.046   5.338   9.065  0.0597 -0.2697  0.2137
  822MOL0     C13305  -0.035   5.449   9.099 -0.6930 -0.4232  0.3310
  822MOL0     O13306  -0.163   5.450   9.050  0.1237  0.8629 -0.5098
  822MOL0     C13307  -0.264   5.378   9.134 -0.5612 -0.0989  0.1407
  822MOL0     C13308  -0.352   5.472   9.218 -0.2939 -0.3137 -0.0708
  822MOL0     C13309  -0.397   5.597   9.143  0.1597 -0.2538  0.2833
  822MOL0     C13310  -0.456   5.562   9.003 -0.1216 -0.6739 -0.4014
  822MOL0     C13311  -0.528   5.695   8.960 -0.3577  0.3356 -0.0855
  822MOL0     C13312  -0.666   5.698   9.028 -0.6888 -0.1266  0.4558
  822MOL0     C13313  -0.724   5.842   9.004  0.8406 -0.1961 -1.1601
  822MOL0     C13314  -0.861   5.856   9.084 -0.0755 -0.4905  0.5787
  822MOL0     N13315  -0.953   5.761   9.019 -0.4883 -0.4997 -0.5011
  822MOL0     C13316  -0.970   5.738   8.885 -0.4012  0.4412  0.0762
  822MOL0     C13317  -1.026   5.613   8.877 -0.0980 -0.0766 -0.4635
  822MOL0     C13318  -1.024   5.509   8.765 -0.2720  0.7003  0.3242
  822MOL0     C13319  -1.159   5.501   8.698 -0.2081  0.4581 -0.6797
  822MOL0     C13320  -1.148   5.483   8.546  0.5017 -0.7204 -0.8529
  822MOL0     C13321  -1.090   5.346   8.509 -0.1657 -1.3309  0.4170
  822MOL0     O13322  -1.001   5.364   8.392 -0.3948 -0.6567 -0.3712
  822MOL0     C13323  -1.036   5.374   8.262  0.7348  0.0941  0.6467
  822MOL0     C13324  -1.159   5.409   8.209 -0.2032 -0.6670  0.9554
  822MOL0     C13325  -1.178   5.443   8.070 -0.6692  1.0355  0.2145
  822MOL0     C13326  -1.315   5.486   8.031 -0.4795  0.2822 -0.4502
  822MOL0     C13327  -1.076   5.430   7.976 -0.3082 -0.2445 -0.0746
  822MOL0     C13328  -1.085   5.457   7.831 -0.0014  0.5547 -0.5751
  822MOL0     O13329  -0.967   5.479   7.768  0.5375 -0.0075  0.3056
  822MOL0     C13330  -0.928   5.420   7.645  0.8120  0.4848 -0.4709
  822MOL0     C13331  -0.989   5.307   7.591  0.0259  0.0559  0.5315
  822MOL0     C13332  -0.934   5.248   7.473 -0.2206 -0.6637 -0.2591
  822MOL0     C13333  -0.831   5.310   7.407  0.4130 -0.5786  0.4276
  822MOL0     O13334  -0.789   5.262   7.286  0.3645  0.7936 -0.2494
  822MOL0     C13335  -0.835   5.134   7.233  0.3188 -0.1767  0.2527
  822MOL0     C13336  -0.788   5.100   7.094 -0.8815  0.4857  0.5410
  822MOL0     C13337  -0.871   4.985   7.032 -0.8243  0.5599  0.5971
  822MOL0     C13338  -0.785   4.947   6.908 -0.1747  0.6732 -0.5826
  822MOL0     C13339  -0.781   5.048   6.800 -0.7924  0.0025  0.0189
  822MOL0     C13340  -0.706   4.991   6.681  0.5758 -0.6154  0.0390
  822MOL0     C13341  -0.732   5.076   6.553  0.3238 -0.4157  0.2007
  822MOL0     C13342  -0.882   5.065   6.488  0.8512 -0.2341 -0.2370
  822MOL0    Cl13343  -0.975   5.216   6.559 -0.1566  0.2654 -0.1008
  822MOL0     C13344  -0.765   5.422   7.462 -0.4178  0.2075 -0.4560
  822MOL0     C13345  -0.808   5.470   7.587 -0.3146  0.6189  0.6218
  822MOL0     O13346  -1.194   5.431   7.775 -0.0469  0.1781  0.7815
  822MOL0     C13347  -0.947   5.392   8.032 -0.2226 -0.6631 -0.3432
  822MOL0     C13348  -0.929   5.360   8.165  0.9880  0.1540 -0.1627
  822MOL0     N13349  -1.054   5.563   9.006 -0.1283 -1.0232  0.4006
  822MOL0     N13350  -1.021   5.668   9.082 -0.2984 -0.4722 -0.2296
  822MOL0     C13351   0.021   5.564   9.172  0.1157  0.3698  0.3258
  822MOL0     C13352   0.149   5.561   9.213 -0.1847 -0.1901 -0.1677
  822MOL0     C13353   0.523   5.414   9.400  0.5756  0.0595  0.1901
  822MOL0     C13354   0.586   5.324   9.312 -0.3765 -0.6531  0.6000
  822MOL0     C13355   0.723   5.296   9.329 -1.0453 -0.4309 -1.0150
  822MOL0     C13356   0.803   5.347   9.436 -0.5944 -0.3268  0.3460
  822MOL0     O13357   0.936   5.312   9.452 -0.0854 -0.0079  0.1536
  822MOL0     C13358   1.033   5.285   9.351 -0.2801 -0.7465  0.8036
  822MOL0     C13359   1.032   5.418   9.277  0.1477 -0.3596  0.2481
  822MOL0     C13360   1.140   5.414   9.179 -0.4931 -0.1633 -0.3081
  822MOL0     C13361   1.138   5.526   9.071  0.2488 -1.1437 -0.9717
  822MOL0     C13362   1.272   5.519   9.009 -0.2543  0.3285  0.2849
  822MOL0     C13363   1.377   5.518   8.946  0.4350 -0.4738 -0.3422
  822MOL0     C13364   0.737   5.432   9.521 -0.9186 -0.9328  0.5635
  822MOL0     C13365   0.601   5.459   9.506  0.3775  0.1323  0.0878
  822MOL0     C13366   0.565   5.576   9.598 -0.5269  0.3890 -0.3205
  822MOL0     H13367   0.242   5.245   9.099 -1.5614 -2.0978  1.2214
  822MOL0     H13368   0.013   5.267   8.990  1.7413  0.9676 -1.8079
  822MOL0     H13369  -0.205   5.310   9.195  0.9836  1.4748  0.4725
  822MOL0     H13370  -0.333   5.318   9.073 -0.2851 -0.0192 -0.2573
  822MOL0     H13371  -0.437   5.420   9.264 -0.9475  1.2141  0.5200
  822MOL0     H13372  -0.284   5.509   9.295  0.6023  0.5570 -1.2502
  822MOL0     H13373  -0.452   5.666   9.207  0.5746  1.9473 -1.6357
  822MOL0     H13374  -0.311   5.655   9.112  0.8650 -1.0235  0.7471
  822MOL0     H13375  -0.375   5.550   8.931  0.1397  1.6055 -0.5739
  822MOL0     H13376  -0.524   5.476   9.000  0.9754 -1.6438  1.2410
  822MOL0     H13377  -0.535   5.700   8.851 -0.4529 -0.9728 -0.1565
  822MOL0     H13378  -0.465   5.778   8.994  0.8957 -1.1576  1.3865
  822MOL0     H13379  -0.727   5.626   8.973 -0.8029 -0.0883  0.5320
  822MOL0     H13380  -0.663   5.674   9.135  0.5095  0.1617  0.4969
  822MOL0     H13381  -0.747   5.871   8.901 -4.0543 -3.1596 -1.2167
  822MOL0     H13382  -0.656   5.916   9.047  1.1910  0.4323 -2.7349
  822MOL0     H13383  -0.852   5.843   9.193  0.2533 -1.0991  0.4866
  822MOL0     H13384  -0.895   5.956   9.055  0.6482 -1.0700 -2.6686
  822MOL0     H13385  -0.925   5.794   8.804 -0.6011 -0.9074 -1.0088
  822MOL0     H13386  -0.989   5.417   8.811 -1.3933 -0.3936 -0.9376
  822MOL0     H13387  -0.946   5.533   8.692  0.1029  0.7663  0.7491
  822MOL0     H13388  -1.210   5.417   8.744 -1.5678  0.2612 -2.4260
  822MOL0     H13389  -1.225   5.587   8.717 -2.9877 -2.0419  2.1136
  822MOL0     H13390  -1.246   5.503   8.502 -0.9147  0.6549  2.5691
  822MOL0     H13391  -1.075   5.558   8.513  0.9180 -0.3948  0.7406
  822MOL0     H13392  -1.037   5.294   8.589  1.4224 -1.2554 -0.5247
  822MOL0     H13393  -1.178   5.285   8.488 -2.7312  1.2944  2.7405
  822MOL0     H13394  -1.241   5.420   8.279 -0.2225  0.9212  0.7214
  822MOL0     H13395  -1.333   5.538   7.936 -0.0648 -0.3597 -0.8895
  822MOL0     H13396  -1.356   5.549   8.110 -0.7327 -0.8804  0.3742
  822MOL0     H13397  -1.374   5.394   8.025  1.1954 -0.8468 -0.4744
  822MOL0     H13398  -1.074   5.257   7.637 -1.9677  1.7830 -1.0619
  822MOL0     H13399  -0.989   5.163   7.433 -1.1988 -0.7988  1.2688
  822MOL0     H13400  -0.816   5.046   7.295 -0.7390  0.7266  1.9066
  822MOL0     H13401  -0.943   5.146   7.229  0.6281  4.1575 -0.0781
  822MOL0     H13402  -0.813   5.189   7.036  0.5928  0.8641  0.4710
  822MOL0     H13403  -0.681   5.081   7.095 -0.6731  0.9791 -2.6227
  822MOL0     H13404  -0.972   5.003   6.994 -0.8233 -0.7485 -0.0635
  822MOL0     H13405  -0.882   4.899   7.098 -1.3367  1.1843  1.3576
  822MOL0     H13406  -0.814   4.847   6.873  1.0184 -1.0870  2.9449
  822MOL0     H13407  -0.681   4.928   6.937 -1.2164 -1.3827  2.4005
  822MOL0     H13408  -0.884   5.072   6.774 -0.1921  2.4350 -0.3759
  822MOL0     H13409  -0.723   5.136   6.827 -1.8813  1.0572 -0.9607
  822MOL0     H13410  -0.754   4.894   6.663 -5.0574  1.7566  0.1625
  822MOL0     H13411  -0.602   4.975   6.711  0.4582 -4.9257 -1.1947
  822MOL0     H13412  -0.661   5.036   6.480  2.7207  0.4661  1.9460
  822MOL0     H13413  -0.708   5.181   6.571  0.1490 -0.1352 -1.0595
  822MOL0     H13414  -0.929   4.970   6.514  0.6519 -0.6117 -1.8658
  822MOL0     H13415  -0.873   5.083   6.381  0.2770  4.5959  0.2622
  822MOL0     H13416  -0.676   5.451   7.406 -0.8800  0.9700 -0.8243
  822MOL0     H13417  -0.752   5.547   7.639 -1.7057  2.4288 -0.4634
  822MOL0     H13418  -0.856   5.372   7.976 -0.6468 -2.8756 -0.3286
  822MOL0     H13419  -0.835   5.328   8.208  1.8645 -0.1447 -2.1879
  822MOL0     H13420  -0.045   5.647   9.193 -0.6432  0.2999 -1.6485
  822MOL0     H13421   0.194   5.647   9.261 -3.4211  1.4117  0.2633
  822MOL0     H13422   0.540   5.286   9.221 -0.1667  2.7875 -1.1429
  822MOL0     H13423   0.774   5.233   9.257  1.0582  0.0610 -0.0315
  822MOL0     H13424   1.131   5.271   9.398 -0.2900  2.7160  2.1549
  822MOL0     H13425   1.013   5.198   9.289  2.7394 -0.9576 -0.0529
  822MOL0     H13426   1.049   5.503   9.343  1.9193  0.2307 -0.8795
  822MOL0     H13427   0.949   5.432   9.207  1.1922  3.1336 -0.5356
  822MOL0     H13428   1.236   5.426   9.231  0.0605 -2.5341 -0.6292
  822MOL0     H13429   1.143   5.314   9.134  1.1428 -1.4471  2.3724
  822MOL0     H13430   1.130   5.627   9.112  1.6435 -1.6677  0.7267
  822MOL0     H13431   1.064   5.505   8.993  1.4316  1.8339 -3.0709
  822MOL0     H13432   1.461   5.510   8.881  1.1661 -0.8763  0.6238
  822MOL0     H13433   0.798   5.460   9.607 -1.7529 -1.9988  1.5276
  822MOL0     H13434   0.638   5.573   9.680 -0.3979 -2.5441 -0.4565
  822MOL0     H13435   0.577   5.669   9.541 -1.0291  2.1405  2.2091
  822MOL0     H13436   0.469   5.564   9.649  1.2534 -1.6036  2.9381
  823MOL0     O13437   7.130   2.041   4.619  0.1308 -0.4653  0.0265
  823MOL0     C13438   7.247   1.993   4.629  1.2444  0.3236  0.2892
  823MOL0     O13439   7.338   2.034   4.717  0.0782 -0.0001  0.1039
  823MOL0     C13440   7.318   2.143   4.792  0.2001 -0.8849  1.0060
  823MOL0     C13441   7.395   2.149   4.908 -0.0468  0.4434  0.0412
  823MOL0     C13442   7.387   2.256   4.998 -0.4664 -0.2830 -0.4444
  823MOL0     C13443   7.311   2.368   4.970  0.2450  1.0991 -0.1049
  823MOL0     O13444   7.292   2.455   5.071 -0.5616 -0.0592 -0.1498
  823MOL0     C13445   7.240   2.583   5.042 -0.0561 -0.4750  0.3163
  823MOL0     C13446   7.258   2.670   5.168  0.3374  0.1557 -0.8691
  823MOL0     C13447   7.400   2.665   5.231 -1.2434  0.7266  0.1316
  823MOL0     C13448   7.493   2.774   5.186 -0.4628  0.3331 -0.4598
  823MOL0     C13449   7.648   2.755   5.221  0.4589 -0.7443 -0.1192
  823MOL0     C13450   7.737   2.880   5.182  0.0658  0.1012  0.4063
  823MOL0     C13451   7.881   2.835   5.184  0.1762  0.0533  0.0817
  823MOL0     C13452   7.981   2.952   5.176  0.1287  0.2432 -0.6174
  823MOL0     N13453   7.971   3.020   5.049  0.0569 -0.1437 -0.5197
  823MOL0     C13454   7.966   2.949   4.930 -0.9861  0.1698 -0.2854
  823MOL0     C13455   7.935   3.035   4.835  0.5127 -1.5187 -0.3747
  823MOL0     C13456   7.904   3.001   4.696  1.0415 -0.5463  1.1286
  823MOL0     C13457   7.931   3.105   4.587 -1.1139  0.5810 -0.2692
  823MOL0     C13458   7.896   3.074   4.447  0.3160 -0.0159 -0.3002
  823MOL0     C13459   7.959   2.936   4.395  0.2754  0.2144 -0.2257
  823MOL0     O13460   7.925   2.914   4.254 -0.0286 -0.7411  0.2197
  823MOL0     C13461   7.817   2.835   4.221  0.1709 -0.4394  0.9292
  823MOL0     C13462   7.696   2.826   4.293  0.3366 -0.7244 -0.9529
  823MOL0     C13463   7.589   2.748   4.243 -0.6679 -0.0057  0.2552
  823MOL0     C13464   7.451   2.758   4.316 -0.9802  0.1632 -0.4144
  823MOL0     C13465   7.616   2.659   4.136  0.7729  0.3962 -0.7119
  823MOL0     C13466   7.519   2.561   4.085  0.3252 -0.7377 -1.0407
  823MOL0     O13467   7.524   2.542   3.952  0.1447 -0.2633  0.0417
  823MOL0     C13468   7.418   2.491   3.885 -0.0868 -0.2902 -0.6509
  823MOL0     C13469   7.289   2.533   3.907  0.4734 -1.0782 -0.2829
  823MOL0     C13470   7.176   2.462   3.849 -0.5920  0.7691  0.2177
  823MOL0     C13471   7.192   2.351   3.769 -0.5750  0.5151  0.1575
  823MOL0     O13472   7.087   2.279   3.723  0.3785 -0.2263  0.2886
  823MOL0     C13473   7.072   2.245   3.584 -0.6429  0.4027  0.4497
  823MOL0     C13474   6.924   2.248   3.545 -0.0007  0.4602  0.6168
  823MOL0     C13475   6.844   2.121   3.605 -0.3135  0.5855  0.0711
  823MOL0     C13476   6.802   2.154   3.754 -0.8225  0.7308  0.1750
  823MOL0     C13477   6.670   2.075   3.798 -0.7272 -0.1285  1.2370
  823MOL0     C13478   6.653   2.065   3.945 -0.8295 -0.0821  0.0742
  823MOL0     C13479   6.599   2.203   4.004 -1.1780 -0.2088  0.2619
  823MOL0     C13480   6.561   2.194   4.152  0.0881 -0.3196 -0.5753
  823MOL0    Cl13481   6.435   2.333   4.167 -0.2028  0.0563 -0.1885
  823MOL0     C13482   7.326   2.314   3.744  0.4592  1.5786 -0.7260
  823MOL0     C13483   7.440   2.383   3.797  0.4006  0.7432  0.3654
  823MOL0     O13484   7.437   2.511   4.162  0.5049 -0.3517 -0.4808
  823MOL0     C13485   7.739   2.670   4.069  0.0844  0.1160  0.6908
  823MOL0     C13486   7.831   2.771   4.100  0.8306 -0.2817 -1.2135
  823MOL0     N13487   7.918   3.158   4.900 -0.3325 -0.6052  0.2221
  823MOL0     N13488   7.928   3.148   5.027 -0.5020  0.0280 -0.3371
  823MOL0     C13489   7.250   2.376   4.844 -0.5282  0.1580 -1.0037
  823MOL0     C13490   7.256   2.270   4.752  1.0569  0.9828 -0.1481
  823MOL0     C13491   7.269   1.868   4.555 -0.1674 -0.0879  0.7734
  823MOL0     C13492   7.239   1.861   4.414 -0.9112 -0.0058  0.1602
  823MOL0     C13493   7.249   1.739   4.345  0.1050  0.0036  0.3268
  823MOL0     C13494   7.303   1.629   4.408  1.0956  0.2450 -0.2302
  823MOL0     O13495   7.348   1.519   4.337 -0.4234  0.6598 -0.5704
  823MOL0     C13496   7.229   1.448   4.285 -0.2672  1.1731  0.3663
  823MOL0     C13497   7.214   1.465   4.132 -0.0850 -1.3723  1.0291
  823MOL0     C13498   7.293   1.353   4.068  0.4402 -0.1500  1.2076
  823MOL0     C13499   7.310   1.367   3.922 -1.1588 -0.7681 -0.4711
  823MOL0     C13500   7.411   1.273   3.884  0.8066  1.4895 -0.1959
  823MOL0     C13501   7.488   1.180   3.876 -0.3976 -0.3323  0.7286
  823MOL0     C13502   7.333   1.630   4.536  0.0038  0.1671 -0.1383
  823MOL0     C13503   7.307   1.743   4.611 -0.9368  0.6251 -0.2129
  823MOL0     C13504   7.347   1.734   4.757  0.2527  0.2294  0.0966
  823MOL0     H13505   7.457   2.061   4.920 -0.1883  0.2258 -0.7544
  823MOL0     H13506   7.433   2.254   5.096 -0.1485 -1.9765 -0.5918
  823MOL0     H13507   7.138   2.581   5.003  1.0021 -2.5035 -2.6810
  823MOL0     H13508   7.302   2.621   4.960 -1.5534 -0.1552 -0.7003
  823MOL0     H13509   7.248   2.776   5.142  3.3748  1.3745  2.2466
  823MOL0     H13510   7.190   2.626   5.242 -1.2528 -0.7931 -2.7993
  823MOL0     H13511   7.396   2.688   5.337  1.6839 -0.6461  0.6526
  823MOL0     H13512   7.446   2.566   5.225  1.9680  1.9908  1.6490
  823MOL0     H13513   7.476   2.798   5.080 -2.1046 -1.1069 -0.5773
  823MOL0     H13514   7.450   2.862   5.236  1.7198  1.2028  0.0067
  823MOL0     H13515   7.687   2.677   5.155 -2.1499 -0.2714 -2.3694
  823MOL0     H13516   7.660   2.724   5.325  3.4265  0.9104  0.1575
  823MOL0     H13517   7.722   2.928   5.085 -0.5182  0.8228  0.8419
  823MOL0     H13518   7.720   2.958   5.256  4.1189 -0.6330  2.3583
  823MOL0     H13519   7.900   2.775   5.095 -0.4850 -0.5010  0.3104
  823MOL0     H13520   7.913   2.778   5.272 -1.4643  4.0664  3.6593
  823MOL0     H13521   7.950   3.019   5.258  3.3238  1.0368  0.0834
  823MOL0     H13522   8.085   2.943   5.208 -0.3861 -1.7950  0.6408
  823MOL0     H13523   7.987   2.843   4.927 -0.8147  0.0714  2.1243
  823MOL0     H13524   7.796   2.989   4.703  0.9656 -0.3858  0.3305
  823MOL0     H13525   7.959   2.908   4.682  1.2449 -0.2509 -0.1722
  823MOL0     H13526   7.875   3.195   4.614 -1.2684 -0.1855  2.3349
  823MOL0     H13527   8.038   3.126   4.592 -0.8115 -0.8477 -0.2277
  823MOL0     H13528   7.787   3.079   4.437  0.4560  0.8728 -1.6483
  823MOL0     H13529   7.927   3.153   4.378  1.1136  0.4596  0.5928
  823MOL0     H13530   8.068   2.944   4.393  0.2607  0.3772 -1.8584
  823MOL0     H13531   7.936   2.852   4.461  1.0068  1.4914  1.7665
  823MOL0     H13532   7.671   2.889   4.377 -0.3904 -2.4139  0.1388
  823MOL0     H13533   7.436   2.691   4.401  2.6064 -1.2384 -0.7345
  823MOL0     H13534   7.367   2.747   4.247  1.2383 -0.3118 -3.2289
  823MOL0     H13535   7.439   2.860   4.354 -1.4027 -0.5141  1.3923
  823MOL0     H13536   7.274   2.626   3.960  2.0654 -1.7166  1.3909
  823MOL0     H13537   7.074   2.495   3.870 -0.0394  2.1118  0.9340
  823MOL0     H13538   7.113   2.324   3.521  0.1403 -1.9521 -2.2202
  823MOL0     H13539   7.116   2.149   3.555 -1.9673  0.1913 -1.0123
  823MOL0     H13540   6.863   2.338   3.561 -0.2653  0.7335 -1.6825
  823MOL0     H13541   6.917   2.241   3.436 -2.8669 -2.8914  0.8351
  823MOL0     H13542   6.895   2.024   3.606 -1.6768 -0.1925  2.4105
  823MOL0     H13543   6.758   2.105   3.539 -0.8471  1.3071  0.5724
  823MOL0     H13544   6.774   2.259   3.760 -0.1696  0.9823 -0.8749
  823MOL0     H13545   6.881   2.128   3.825  0.4916  0.6907 -1.2643
  823MOL0     H13546   6.583   2.119   3.747  0.8883  1.0515 -0.6331
  823MOL0     H13547   6.670   1.969   3.771  0.2719 -0.5948  2.9138
  823MOL0     H13548   6.748   2.036   3.991  0.6614  1.0727 -2.0800
  823MOL0     H13549   6.577   1.989   3.966 -1.6213  0.5871 -0.2700
  823MOL0     H13550   6.515   2.229   3.939  0.0830  0.6707 -1.0708
  823MOL0     H13551   6.675   2.281   3.999 -0.7760 -0.3382  2.7665
  823MOL0     H13552   6.650   2.212   4.213 -0.5273  0.3500  0.1476
  823MOL0     H13553   6.509   2.101   4.176 -1.1395  1.2277  3.5712
  823MOL0     H13554   7.354   2.242   3.668  2.3016  2.3848 -0.8594
  823MOL0     H13555   7.540   2.348   3.773 -0.5449  0.0298 -3.1423
  823MOL0     H13556   7.750   2.622   3.972  3.6242  5.2206 -1.8945
  823MOL0     H13557   7.921   2.789   4.043 -1.2650  4.3658 -3.6415
  823MOL0     H13558   7.187   2.462   4.821  0.8536  1.3702 -0.4864
  823MOL0     H13559   7.195   2.275   4.662 -1.0503  3.5743  1.2752
  823MOL0     H13560   7.224   1.954   4.360 -0.1064 -0.7419 -1.3925
  823MOL0     H13561   7.241   1.726   4.238 -2.7397 -3.4399  0.7578
  823MOL0     H13562   7.233   1.342   4.311  0.6472  0.6843 -1.6117
  823MOL0     H13563   7.136   1.476   4.336 -1.0431 -0.5106 -0.0526
  823MOL0     H13564   7.255   1.564   4.107 -1.6714 -0.3863  2.1128
  823MOL0     H13565   7.111   1.476   4.098 -1.0674 -1.2649  3.7814
  823MOL0     H13566   7.395   1.364   4.108  1.6523  2.8073 -2.1623
  823MOL0     H13567   7.254   1.257   4.102 -0.4789 -0.8001 -1.4408
  823MOL0     H13568   7.336   1.469   3.891 -1.8782 -1.2021 -2.7760
  823MOL0     H13569   7.221   1.340   3.864 -0.7059  0.9824 -2.0808
  823MOL0     H13570   7.573   1.116   3.864  0.0303  0.3404  0.0671
  823MOL0     H13571   7.386   1.542   4.572  1.3749  0.2840 -1.7855
  823MOL0     H13572   7.321   1.638   4.803 -0.8290  1.7548  2.9671
  823MOL0     H13573   7.454   1.759   4.758  0.6224 -0.6923 -3.4576
  823MOL0     H13574   7.290   1.815   4.803  1.1612  2.1334 -1.9764
  824MOL0     O13575  11.395   1.727   4.115 -0.5884 -0.0119 -0.6241
  824MOL0     C13576  11.323   1.640   4.174  0.7829 -0.7304 -0.2734
  824MOL0     O13577  11.357   1.572   4.279 -0.1353  0.0820  0.0945
  824MOL0     C13578  11.489   1.588   4.329  0.1831  0.0843 -0.0702
  824MOL0     C13579  11.597   1.576   4.244 -0.6835  0.5041  0.5947
  824MOL0     C13580  11.729   1.598   4.296  0.2510 -0.9386 -0.0095
  824MOL0     C13581  11.744   1.625   4.432  1.1360  0.4642 -0.5531
  824MOL0     O13582  11.876   1.636   4.484 -0.2774  0.1533  0.6620
  824MOL0     C13583  11.895   1.701   4.612 -0.8690 -0.6612  0.7348
  824MOL0     C13584  12.043   1.734   4.631 -0.2977  1.1764  0.5504
  824MOL0     C13585  12.105   1.803   4.519  0.0126  0.0836  0.0609
  824MOL0     C13586  12.168   1.700   4.419  0.1939 -0.2535  0.1749
  824MOL0     C13587  12.236   1.761   4.295  0.4893 -1.1165  0.8403
  824MOL0     C13588  12.321   1.659   4.225  0.9056 -0.4159  0.0295
  824MOL0     C13589  12.422   1.723   4.122 -0.0978  0.3459 -0.1582
  824MOL0     C13590  12.365   1.777   3.988  0.6975 -0.9462  0.7526
  824MOL0     N13591  12.484   1.836   3.928  1.2865  0.2431  0.0824
  824MOL0     C13592  12.550   1.949   3.975  0.1554  0.4351  0.1890
  824MOL0     C13593  12.673   1.930   3.924  0.3338  0.7481 -0.3540
  824MOL0     C13594  12.777   2.045   3.939 -0.1463  0.6336 -0.7598
  824MOL0     C13595  12.916   2.009   3.884 -0.2190 -0.0888  0.8071
  824MOL0     C13596  13.025   2.103   3.922  0.5179 -0.5369 -0.0552
  824MOL0     C13597  13.159   2.075   3.849 -0.5422 -0.3029  0.0123
  824MOL0     O13598  13.268   2.135   3.926 -0.1383 -0.2378 -0.1470
  824MOL0     C13599  13.299   2.274   3.918 -0.9202  0.7442  0.9509
  824MOL0     C13600  13.241   2.364   3.832 -0.0737 -0.4487  0.2218
  824MOL0     C13601  13.261   2.508   3.844 -0.0286 -0.2899  0.4366
  824MOL0     C13602  13.185   2.610   3.754  0.0485 -0.1329 -0.4742
  824MOL0     C13603  13.356   2.553   3.945  0.2673  0.4031 -0.1736
  824MOL0     C13604  13.399   2.693   3.976  0.3548 -0.8916 -0.7148
  824MOL0     O13605  13.492   2.711   4.079  0.3851 -0.3392  0.2398
  824MOL0     C13606  13.510   2.841   4.121 -0.7516  0.9957 -0.3045
  824MOL0     C13607  13.427   2.895   4.214 -0.1771  0.6906 -0.4587
  824MOL0     C13608  13.456   3.021   4.275  0.1062  0.2462  1.5046
  824MOL0     C13609  13.574   3.091   4.234  0.3188 -0.5838 -0.5772
  824MOL0     O13610  13.617   3.213   4.280  0.3412  0.0551  0.0713
  824MOL0     C13611  13.537   3.292   4.363  0.5946  0.0556 -0.5211
  824MOL0     C13612  13.612   3.431   4.386  0.3495  0.4457  0.9086
  824MOL0     C13613  13.520   3.527   4.459  0.0388  0.2880 -0.8830
  824MOL0     C13614  13.607   3.631   4.536  1.5121 -1.0143  1.1389
  824MOL0     C13615  13.593   3.766   4.462 -0.2101 -0.1798  0.7987
  824MOL0     C13616  13.690   3.866   4.518  0.5460 -0.5699 -0.3686
  824MOL0     C13617  13.656   3.998   4.467  0.1562  0.6771 -1.0760
  824MOL0     C13618  13.682   4.026   4.321  0.4561 -0.4318  0.2658
  824MOL0    Cl13619  13.847   4.029   4.269  0.3992  0.4213 -0.2063
  824MOL0     C13620  13.656   3.047   4.140  1.1148  1.4523  0.5528
  824MOL0     C13621  13.620   2.924   4.079  0.2771  0.3565 -0.0804
  824MOL0     O13622  13.352   2.783   3.911 -0.3821 -0.6655 -0.3049
  824MOL0     C13623  13.421   2.460   4.013  0.2526  0.1691 -0.9236
  824MOL0     C13624  13.398   2.326   4.000 -0.9888  1.2851  0.4260
  824MOL0     N13625  12.687   1.821   3.850  0.0106  0.5493 -0.0515
  824MOL0     N13626  12.570   1.766   3.845  0.5429 -0.5874 -0.6878
  824MOL0     C13627  11.629   1.641   4.512  0.0443 -0.0506 -0.3868
  824MOL0     C13628  11.501   1.625   4.462  0.8360  0.0608  0.1620
  824MOL0     C13629  11.193   1.600   4.123 -0.2813  0.4981  0.4270
  824MOL0     C13630  11.134   1.685   4.029  0.2241  0.4485  0.4734
  824MOL0     C13631  11.022   1.650   3.944 -0.8649  0.1796  0.1694
  824MOL0     C13632  10.965   1.519   3.958 -0.0461 -0.9501  0.5730
  824MOL0     O13633  10.844   1.494   3.906 -0.8229  0.4901  0.9978
  824MOL0     C13634  10.820   1.556   3.779  0.6468  0.3693  0.6340
  824MOL0     C13635  10.724   1.471   3.704  1.5412 -0.5791 -0.2025
  824MOL0     C13636  10.786   1.331   3.688  0.4702  0.3637  0.0636
  824MOL0     C13637  10.923   1.335   3.614  0.7123  0.1483  0.7695
  824MOL0     C13638  10.968   1.233   3.518 -0.8971 -0.2252 -0.4136
  824MOL0     C13639  11.002   1.149   3.440  0.4055 -0.2525  0.1490
  824MOL0     C13640  11.017   1.438   4.060  0.2608 -1.2137  0.8789
  824MOL0     C13641  11.125   1.477   4.144 -0.4878  0.5305 -0.5938
  824MOL0     C13642  11.171   1.367   4.238 -0.0834  0.4921 -0.5496
  824MOL0     H13643  11.581   1.550   4.140 -0.7526  0.1270  0.6952
  824MOL0     H13644  11.817   1.612   4.234  0.2608  3.1167  0.6607
  824MOL0     H13645  11.885   1.628   4.693 -0.3999 -0.8212  0.6489
  824MOL0     H13646  11.822   1.782   4.622 -1.1193 -0.7942  0.0458
  824MOL0     H13647  12.060   1.792   4.723  0.9186  2.6373 -0.5464
  824MOL0     H13648  12.095   1.639   4.638 -1.3756  0.3079 -2.0106
  824MOL0     H13649  12.031   1.866   4.469 -0.0794 -0.9278 -1.1222
  824MOL0     H13650  12.192   1.849   4.566 -0.7578 -0.5475  2.2483
  824MOL0     H13651  12.241   1.637   4.471 -0.2699 -0.3555  0.7120
  824MOL0     H13652  12.094   1.626   4.390  3.1315 -2.8750 -1.2541
  824MOL0     H13653  12.289   1.853   4.322  0.7013 -0.6475 -1.0686
  824MOL0     H13654  12.163   1.808   4.230  2.1080  1.1368  0.5477
  824MOL0     H13655  12.384   1.609   4.299  1.1495  2.3721  1.8395
  824MOL0     H13656  12.251   1.592   4.175 -2.2218  1.7769  1.1653
  824MOL0     H13657  12.497   1.645   4.108  0.1723  0.8742 -1.8710
  824MOL0     H13658  12.466   1.801   4.185 -3.2426  1.5344  0.7273
  824MOL0     H13659  12.314   1.694   3.937  0.0824 -0.7334  1.0050
  824MOL0     H13660  12.290   1.852   4.013  2.6758  1.0284  1.0164
  824MOL0     H13661  12.507   2.033   4.029 -2.0067 -0.1086 -0.5975
  824MOL0     H13662  12.783   2.071   4.045 -0.3195 -2.8843  0.2087
  824MOL0     H13663  12.722   2.124   3.886 -0.6236  0.0064 -1.2034
  824MOL0     H13664  12.949   1.908   3.908  1.4594  0.7659  2.3877
  824MOL0     H13665  12.913   2.011   3.775  1.0579 -1.8010  0.7106
  824MOL0     H13666  12.993   2.205   3.899  1.0767 -0.6757 -1.6235
  824MOL0     H13667  13.032   2.090   4.030 -2.7854 -1.1178  0.2003
  824MOL0     H13668  13.159   1.968   3.826 -1.9165  0.2028 -2.7717
  824MOL0     H13669  13.162   2.111   3.746 -0.0180 -0.1633  0.0724
  824MOL0     H13670  13.169   2.323   3.761  3.7201 -2.6617 -2.7302
  824MOL0     H13671  13.100   2.560   3.705  0.4030 -0.7100 -0.5110
  824MOL0     H13672  13.262   2.643   3.684 -1.1077  0.2917 -1.5898
  824MOL0     H13673  13.137   2.694   3.806 -1.3319 -1.8901  1.2431
  824MOL0     H13674  13.335   2.850   4.250 -0.6179  1.6155 -0.4054
  824MOL0     H13675  13.391   3.047   4.358 -0.6996  0.0388  0.9529
  824MOL0     H13676  13.439   3.303   4.317  1.0142  1.5343 -1.1329
  824MOL0     H13677  13.525   3.237   4.457 -1.5913 -0.4427 -1.0498
  824MOL0     H13678  13.690   3.399   4.455  1.8096 -0.7311 -1.1751
  824MOL0     H13679  13.646   3.478   4.293  0.3333  1.5956  1.4771
  824MOL0     H13680  13.456   3.473   4.529 -0.7986  1.1198 -0.9926
  824MOL0     H13681  13.458   3.578   4.385 -0.5042 -1.1418 -1.4534
  824MOL0     H13682  13.714   3.606   4.544  2.4574  1.9955 -0.3960
  824MOL0     H13683  13.566   3.654   4.634  2.5096  4.1495  0.6205
  824MOL0     H13684  13.619   3.764   4.356  0.1519 -0.2586  0.8859
  824MOL0     H13685  13.490   3.799   4.475  0.0837  1.6193 -0.9670
  824MOL0     H13686  13.793   3.862   4.483  0.0981 -0.5234 -1.7520
  824MOL0     H13687  13.675   3.866   4.626  0.5451 -0.3500 -0.3672
  824MOL0     H13688  13.715   4.069   4.526 -0.3446 -0.2691  0.6298
  824MOL0     H13689  13.553   4.025   4.493  0.9708  0.6849  2.5564
  824MOL0     H13690  13.629   4.119   4.294 -2.7038 -1.7328  1.4513
  824MOL0     H13691  13.638   3.954   4.251 -0.0626 -0.7331  0.8828
  824MOL0     H13692  13.734   3.105   4.092  1.3948  2.1568  1.8019
  824MOL0     H13693  13.696   2.890   4.009  1.5522 -0.6810  1.7286
  824MOL0     H13694  13.500   2.488   4.082  0.7065  1.3578 -1.8872
  824MOL0     H13695  13.460   2.254   4.053 -0.2539  2.1596  0.8019
  824MOL0     H13696  11.643   1.637   4.619  0.9824  2.7896 -0.3204
  824MOL0     H13697  11.414   1.640   4.526 -0.7144 -0.5342 -1.7059
  824MOL0     H13698  11.174   1.786   4.024 -1.9915  1.4751  1.9880
  824MOL0     H13699  10.985   1.729   3.880  0.4501  0.2756 -0.5055
  824MOL0     H13700  10.780   1.657   3.786  2.7249  1.3622 -0.7134
  824MOL0     H13701  10.912   1.554   3.720  0.3272 -4.3950 -0.1067
  824MOL0     H13702  10.686   1.525   3.617 -2.1602 -1.2230  0.8512
  824MOL0     H13703  10.637   1.460   3.768  0.8611  1.8936 -0.6333
  824MOL0     H13704  10.784   1.288   3.789  3.5400  2.6949  1.2717
  824MOL0     H13705  10.724   1.270   3.622 -2.1900 -1.2891  3.7308
  824MOL0     H13706  11.012   1.339   3.677  2.3660  0.6979 -1.4604
  824MOL0     H13707  10.915   1.429   3.558  1.8409  1.1928  2.2879
  824MOL0     H13708  11.032   1.070   3.374 -0.1670 -0.4585  0.1303
  824MOL0     H13709  10.970   1.341   4.073  0.9927 -1.5667  0.9299
  824MOL0     H13710  11.278   1.364   4.258  0.4079  1.4624 -2.7427
  824MOL0     H13711  11.113   1.364   4.331 -0.4275  1.0912 -0.7367
  824MOL0     H13712  11.148   1.277   4.179 -0.1598 -0.1771  0.4796
  825MOL0     O13713  10.809  10.793   0.176  0.3230 -0.6976  0.1083
  825MOL0     C13714  10.704  10.747   0.133  0.7014  0.1643  0.4286
  825MOL0     O13715  10.669  10.605   0.125 -0.1914 -0.1965 -0.7698
  825MOL0     C13716  10.748  10.505   0.154 -0.5659  0.0010 -0.1572
  825MOL0     C13717  10.737  10.384   0.074 -0.1375  0.4862 -0.1780
  825MOL0     C13718  10.812  10.264   0.088  0.6164  0.0183 -1.3285
  825MOL0     C13719  10.920  10.271   0.171 -0.1261 -0.6941 -0.7025
  825MOL0     O13720  11.007  10.164   0.189 -0.0851 -0.2464  0.5706
  825MOL0     C13721  11.149  10.194   0.185  1.0694  0.0410  0.6424
  825MOL0     C13722  11.175  10.248   0.050 -0.8628 -0.3932 -0.1690
  825MOL0     C13723  11.327  10.248   0.021  0.1075 -0.0549  0.2480
  825MOL0     C13724  11.411  10.302   0.122  0.0203 -0.7118  0.2822
  825MOL0     C13725  11.549  10.329   0.063 -0.1278  0.3176  0.3941
  825MOL0     C13726  11.650  10.354   0.174  0.1576  0.2240  0.2680
  825MOL0     C13727  11.795  10.377   0.129  0.0714 -0.5137  0.3690
  825MOL0     C13728  11.881  10.392   0.250 -0.0455  0.3273  0.3693
  825MOL0     N13729  11.918  10.537   0.274  0.6372  0.2198  0.1672
  825MOL0     C13730  12.014  10.607   0.207  0.4493 -1.0244 -0.2278
  825MOL0     C13731  12.028  10.722   0.287 -0.2916 -0.4919 -0.6609
  825MOL0     C13732  12.133  10.828   0.280 -0.3077  0.5530  0.4974
  825MOL0     C13733  12.088  10.955   0.339  0.0132 -0.5610  0.1886
  825MOL0     C13734  12.193  11.060   0.311 -0.0675 -0.0169  0.1911
  825MOL0     C13735  12.240  11.083   0.165 -0.5413 -0.4038 -0.0565
  825MOL0     O13736  12.316  11.205   0.156 -0.1475 -0.2106  0.2293
  825MOL0     C13737  12.412  11.225   0.055 -0.8880 -0.3340 -0.1881
  825MOL0     C13738  12.487  11.340   0.058  0.5360 -0.6561 -0.3623
  825MOL0     C13739  12.573  11.372  -0.048  1.0226 -0.8778 -0.0335
  825MOL0     C13740  12.652  11.496  -0.033  0.3994  0.1583 -0.3141
  825MOL0     C13741  12.578  11.275  -0.153 -0.7631 -0.7402  0.6108
  825MOL0     C13742  12.672  11.291  -0.282  0.1952 -0.5162  0.1977
  825MOL0     O13743  12.731  11.411  -0.307  0.4456 -0.0398  0.0680
  825MOL0     C13744  12.795  11.422  -0.429 -0.3397  0.3408  0.4680
  825MOL0     C13745  12.735  11.480  -0.543  0.1059 -1.1093 -0.1118
  825MOL0     C13746  12.792  11.471  -0.671 -0.6476 -0.6063  0.5154
  825MOL0     C13747  12.919  11.415  -0.686  0.4417 -0.2748  0.1303
  825MOL0     O13748  12.994  11.415  -0.802 -0.5211 -0.4443  0.6991
  825MOL0     C13749  12.961  11.508  -0.904  0.0140  0.2354  0.7471
  825MOL0     C13750  13.088  11.527  -0.991  1.0557  0.5810 -0.7662
  825MOL0     C13751  13.069  11.610  -1.111  0.1000  0.1735 -0.0151
  825MOL0     C13752  13.191  11.638  -1.195  0.2257 -0.5095  0.6927
  825MOL0     C13753  13.137  11.716  -1.316 -0.8349 -0.6821  0.3534
  825MOL0     C13754  13.263  11.748  -1.416  0.6969 -0.2168 -0.1895
  825MOL0     C13755  13.231  11.796  -1.557  0.0490 -0.0608 -0.3080
  825MOL0     C13756  13.290  11.928  -1.600  0.0643 -0.5245 -0.7098
  825MOL0    Cl13757  13.478  11.930  -1.583  0.6320 -0.0285  0.6867
  825MOL0     C13758  12.990  11.365  -0.569  1.0693 -0.8595  0.0496
  825MOL0     C13759  12.924  11.369  -0.442  0.7575 -0.2886  0.1925
  825MOL0     O13760  12.676  11.201  -0.365 -0.7079  0.1588 -0.4628
  825MOL0     C13761  12.502  11.167  -0.157  0.3741  0.4523 -0.3732
  825MOL0     C13762  12.411  11.141  -0.061 -0.1301 -0.3687  0.0770
  825MOL0     N13763  11.928  10.717   0.384 -0.4526 -0.7080  0.0885
  825MOL0     N13764  11.866  10.605   0.377 -0.3682 -0.4436  0.0498
  825MOL0     C13765  10.934  10.383   0.254  0.7119 -0.0308  0.7736
  825MOL0     C13766  10.849  10.499   0.247 -0.0693  0.6086 -0.2209
  825MOL0     C13767  10.586  10.836   0.092 -0.4303 -0.2651  1.0689
  825MOL0     C13768  10.450  10.826   0.129 -0.8236 -0.3579  0.0381
  825MOL0     C13769  10.355  10.919   0.105  0.5065  0.9481 -0.0607
  825MOL0     C13770  10.377  11.032   0.036 -0.7119  0.0682 -0.1062
  825MOL0     O13771  10.284  11.124  -0.004 -0.6308  0.3165 -0.5219
  825MOL0     C13772  10.155  11.129   0.050 -0.5329 -0.7394  0.0644
  825MOL0     C13773  10.152  11.193   0.185 -0.7117  0.4595 -0.0243
  825MOL0     C13774  10.210  11.331   0.179 -0.3274  0.2768  0.0191
  825MOL0     C13775  10.263  11.388   0.313 -0.7765  0.2339 -0.2776
  825MOL0     C13776  10.373  11.301   0.357  0.5339  0.1876 -0.5818
  825MOL0     C13777  10.431  11.209   0.410 -0.0506  0.7899 -0.0054
  825MOL0     C13778  10.504  11.050  -0.005  0.0231 -0.5581  0.7252
  825MOL0     C13779  10.604  10.959   0.019  0.8384 -0.1369  0.2299
  825MOL0     C13780  10.744  11.002  -0.014 -0.8814  0.3852  0.1493
  825MOL0     H13781  10.654  10.369   0.006  2.1818 -1.5199 -2.8532
  825MOL0     H13782  10.793  10.183   0.019  3.4441 -0.1903 -1.9737
  825MOL0     H13783  11.192  10.096   0.203 -0.9586 -0.9797  0.2423
  825MOL0     H13784  11.171  10.267   0.264 -1.0301  1.1145  0.3036
  825MOL0     H13785  11.123  10.186  -0.024 -2.7654  1.0857 -0.1507
  825MOL0     H13786  11.138  10.349   0.029  0.9960  0.3183 -0.1797
  825MOL0     H13787  11.358  10.146  -0.003 -0.4682  0.2812 -2.1881
  825MOL0     H13788  11.348  10.300  -0.073  1.3374 -0.6906  0.1492
  825MOL0     H13789  11.368  10.391   0.169  0.6170 -1.4000  2.2128
  825MOL0     H13790  11.419  10.231   0.205 -1.1484  0.2603  1.2535
  825MOL0     H13791  11.550  10.415  -0.004  0.7368  0.1423  0.1736
  825MOL0     H13792  11.587  10.245   0.004  1.3419  0.2002  1.4427
  825MOL0     H13793  11.627  10.449   0.222  2.1410  2.4768 -2.8608
  825MOL0     H13794  11.649  10.284   0.257 -1.6214  3.9552  3.7263
  825MOL0     H13795  11.797  10.472   0.074 -0.7543 -0.4202  0.4832
  825MOL0     H13796  11.835  10.302   0.060 -0.9401 -1.4689  0.7974
  825MOL0     H13797  11.849  10.342   0.342 -0.4964  3.5876  2.1262
  825MOL0     H13798  11.977  10.345   0.229 -0.0122  1.0049 -1.1399
  825MOL0     H13799  12.082  10.591   0.123  2.9013  5.3584 -0.0713
  825MOL0     H13800  12.160  10.844   0.175  0.7000 -0.5062  0.5740
  825MOL0     H13801  12.224  10.799   0.334 -0.4850 -0.4313  0.2839
  825MOL0     H13802  11.987  10.984   0.308  0.1003 -0.8643 -0.3863
  825MOL0     H13803  12.087  10.949   0.448  0.1455 -2.8903  0.1115
  825MOL0     H13804  12.149  11.154   0.348  0.9243  0.2956  0.6189
  825MOL0     H13805  12.285  11.038   0.365 -1.1527 -1.2043  1.6304
  825MOL0     H13806  12.304  10.998   0.136 -0.2513 -0.5928  1.0933
  825MOL0     H13807  12.150  11.089   0.104  0.4530 -3.8358 -2.1823
  825MOL0     H13808  12.472  11.406   0.142  1.3601 -1.7414  0.6685
  825MOL0     H13809  12.632  11.531   0.068  0.9382 -0.6574  0.0925
  825MOL0     H13810  12.605  11.572  -0.095 -2.8018 -0.1295  1.5203
  825MOL0     H13811  12.759  11.480  -0.049 -0.2587 -2.4695 -2.8849
  825MOL0     H13812  12.636  11.519  -0.520  0.3137 -1.6093  1.7916
  825MOL0     H13813  12.735  11.518  -0.750 -0.2092  4.0758  2.6854
  825MOL0     H13814  12.889  11.463  -0.974  0.5265 -1.2112  1.1109
  825MOL0     H13815  12.932  11.609  -0.877  1.1820  0.4226  1.3627
  825MOL0     H13816  13.175  11.568  -0.938  0.1742  1.0249  0.4094
  825MOL0     H13817  13.119  11.428  -1.023  1.2823  0.9188 -1.6101
  825MOL0     H13818  13.020  11.703  -1.082  1.1112  0.9311 -0.6550
  825MOL0     H13819  13.001  11.550  -1.172  0.2479  0.5681 -0.5810
  825MOL0     H13820  13.240  11.544  -1.224 -2.7165 -1.3183 -2.3044
  825MOL0     H13821  13.258  11.710  -1.147 -1.5789  1.0583  1.0019
  825MOL0     H13822  13.060  11.656  -1.365 -0.6664  0.3868 -1.3219
  825MOL0     H13823  13.088  11.811  -1.293 -0.0722  0.0752 -1.0106
  825MOL0     H13824  13.323  11.658  -1.431  2.5177  1.1735 -1.7505
  825MOL0     H13825  13.323  11.826  -1.370 -1.0729  0.5825  0.8572
  825MOL0     H13826  13.123  11.811  -1.569  0.3495  0.7622 -2.3576
  825MOL0     H13827  13.260  11.716  -1.626  2.4990 -1.7795  2.4559
  825MOL0     H13828  13.241  12.004  -1.537  2.5400  1.2793 -0.8019
  825MOL0     H13829  13.252  11.950  -1.700 -3.1974  0.5674  0.6255
  825MOL0     H13830  13.090  11.325  -0.567  0.8825 -1.6449 -2.6282
  825MOL0     H13831  12.983  11.330  -0.360  0.1010 -1.3558  0.1672
  825MOL0     H13832  12.507  11.088  -0.232 -1.8397 -0.6122  0.5262
  825MOL0     H13833  12.339  11.062  -0.074 -1.7705  1.4063 -2.3731
  825MOL0     H13834  11.013  10.386   0.328  0.7802 -1.3160  0.7750
  825MOL0     H13835  10.867  10.571   0.326 -2.2100 -0.1493  1.0335
  825MOL0     H13836  10.418  10.744   0.193  0.6799 -0.6632  0.4408
  825MOL0     H13837  10.256  10.882   0.130  0.6577  0.3933 -0.2654
  825MOL0     H13838  10.093  11.193  -0.014 -0.6554 -0.6042  0.3152
  825MOL0     H13839  10.105  11.031   0.054 -0.7170 -0.6139  1.0267
  825MOL0     H13840  10.210  11.130   0.254 -0.4587 -0.9023 -1.4124
  825MOL0     H13841  10.049  11.204   0.220 -0.9585 -0.7248 -0.3310
  825MOL0     H13842  10.293  11.339   0.108 -0.0804  2.2245  0.4492
  825MOL0     H13843  10.129  11.394   0.142  0.5677  0.7992 -1.1132
  825MOL0     H13844  10.184  11.382   0.389  0.0324 -0.6525  0.5115
  825MOL0     H13845  10.306  11.486   0.292 -2.8881  0.9442 -1.6927
  825MOL0     H13846  10.478  11.133   0.469  0.2968  1.6582  0.8443
  825MOL0     H13847  10.502  11.138  -0.068 -0.2076 -0.8538  0.3155
  825MOL0     H13848  10.790  10.914  -0.060  0.9729  1.6905 -0.6329
  825MOL0     H13849  10.750  11.088  -0.082 -1.1477  1.6609  1.6852
  825MOL0     H13850  10.794  11.038   0.076 -0.2667 -2.4620  1.0488
  826MOL0     O13851   3.931   0.462  11.397 -1.1195 -1.1371  0.2890
  826MOL0     C13852   4.044   0.418  11.374 -0.3726 -0.4322  0.9459
  826MOL0     O13853   4.156   0.496  11.384 -0.7256  0.2595  0.0458
  826MOL0     C13854   4.160   0.628  11.432 -0.7709 -0.3784 -0.6269
  826MOL0     C13855   4.098   0.677  11.545 -0.7210  0.7799 -0.4244
  826MOL0     C13856   4.102   0.804  11.597 -1.3225  0.1938  0.2635
  826MOL0     C13857   4.187   0.895  11.532 -0.3975  0.3556 -0.0590
  826MOL0     O13858   4.188   1.014  11.590 -0.4644 -0.0166 -0.3986
  826MOL0     C13859   4.307   1.094  11.572  0.7944 -0.5221  0.0179
  826MOL0     C13860   4.282   1.238  11.638  0.3594  0.0497  0.8814
  826MOL0     C13861   4.260   1.225  11.782  0.9411  0.1002  0.0923
  826MOL0     C13862   4.235   1.355  11.848 -0.2622 -0.3754 -0.8162
  826MOL0     C13863   4.364   1.434  11.860 -0.3898 -0.4583  0.6761
  826MOL0     C13864   4.490   1.372  11.923  0.5119 -0.6063 -0.0862
  826MOL0     C13865   4.594   1.477  11.971  0.1004 -0.1938  1.0962
  826MOL0     C13866   4.679   1.427  12.088 -0.3349 -0.5911 -0.6348
  826MOL0     N13867   4.793   1.516  12.101 -0.0456  0.5763 -0.2562
  826MOL0     C13868   4.808   1.624  12.184 -0.0596  0.6797  0.3107
  826MOL0     C13869   4.934   1.673  12.176  0.2609  0.3441  0.7006
  826MOL0     C13870   4.991   1.800  12.250  1.0405  0.4415  0.8088
  826MOL0     C13871   5.111   1.842  12.159 -0.7791  0.8257  0.6645
  826MOL0     C13872   5.181   1.977  12.192  0.1690 -0.6474  0.0141
  826MOL0     C13873   5.284   2.002  12.085 -0.7357  0.2188 -0.1549
  826MOL0     O13874   5.329   2.137  12.086  0.4208 -0.6587 -0.0487
  826MOL0     C13875   5.263   2.250  12.042  0.4171  0.1713  0.4516
  826MOL0     C13876   5.158   2.244  11.957  0.9825  0.4665 -0.1272
  826MOL0     C13877   5.096   2.360  11.910  0.9217 -0.0313  0.9374
  826MOL0     C13878   4.988   2.345  11.802 -0.9057  0.2538  0.5261
  826MOL0     C13879   5.147   2.484  11.942 -0.9013 -0.5392  0.1218
  826MOL0     C13880   5.099   2.610  11.873  0.6089  0.4644  0.2691
  826MOL0     O13881   5.136   2.627  11.735  0.1915  0.6057  0.0287
  826MOL0     C13882   5.112   2.756  11.685 -0.4296  0.3362  0.2948
  826MOL0     C13883   5.028   2.766  11.572 -0.4771  0.3343 -0.0666
  826MOL0     C13884   4.993   2.883  11.520 -0.3462  0.2147  0.1916
  826MOL0     C13885   5.037   2.999  11.573 -0.2456 -0.6528 -0.0485
  826MOL0     O13886   5.005   3.120  11.530 -0.9496  0.3933  0.0740
  826MOL0     C13887   5.033   3.134  11.386  0.6081  0.6897 -0.4104
  826MOL0     C13888   4.894   3.153  11.320 -0.1649 -0.4539 -1.0553
  826MOL0     C13889   4.910   3.211  11.176 -0.0682 -0.2583 -0.2419
  826MOL0     C13890   4.768   3.246  11.126 -0.2162  0.4693 -1.0024
  826MOL0     C13891   4.699   3.366  11.189 -0.0836  0.2839 -0.1520
  826MOL0     C13892   4.555   3.371  11.136 -0.3562 -0.1796  0.0653
  826MOL0     C13893   4.482   3.485  11.216 -0.4631  0.3189  0.9949
  826MOL0     C13894   4.328   3.481  11.184 -0.0667 -0.2761 -0.1303
  826MOL0    Cl13895   4.256   3.615  11.270 -0.1566  0.1803 -0.2720
  826MOL0     C13896   5.117   2.993  11.688 -0.2164  0.9472  0.2474
  826MOL0     C13897   5.162   2.872  11.750  0.5375  0.8035 -0.8197
  826MOL0     O13898   5.025   2.677  11.935 -0.1020 -0.4520  0.6347
  826MOL0     C13899   5.260   2.493  12.024 -0.6701  0.0615 -0.4170
  826MOL0     C13900   5.313   2.373  12.074  0.0562  0.3203 -0.1641
  826MOL0     N13901   5.002   1.584  12.086  0.1994  0.2364 -0.1388
  826MOL0     N13902   4.913   1.495  12.035  0.2730 -0.2403  0.0204
  826MOL0     C13903   4.260   0.851  11.422 -0.4320  0.3161  0.0282
  826MOL0     C13904   4.246   0.717  11.372 -0.4044 -0.3390 -0.9098
  826MOL0     C13905   4.070   0.287  11.311 -0.2872  0.5707  0.9248
  826MOL0     C13906   4.199   0.268  11.262  0.9952  0.5185 -0.5462
  826MOL0     C13907   4.225   0.147  11.190 -0.8877  1.3109 -0.6022
  826MOL0     C13908   4.128   0.050  11.157 -0.3118 -0.5318  1.3607
  826MOL0     O13909   4.164  -0.060  11.090 -0.5943  0.0153  0.2105
  826MOL0     C13910   4.088  -0.180  11.110 -0.1783  0.3654 -0.6228
  826MOL0     C13911   3.980  -0.208  10.997 -0.1033  0.2943  0.1769
  826MOL0     C13912   3.903  -0.345  11.016 -0.1834  0.2706  0.4837
  826MOL0     C13913   3.753  -0.337  10.967 -0.7302  0.2826  0.2905
  826MOL0     C13914   3.735  -0.319  10.820 -0.3705 -0.4657 -0.5693
  826MOL0     C13915   3.732  -0.304  10.698 -0.6589 -0.2723  0.5598
  826MOL0     C13916   3.998   0.081  11.199 -1.2318 -0.2549 -0.5977
  826MOL0     C13917   3.975   0.191  11.288 -0.2187 -0.1672  0.1079
  826MOL0     C13918   3.834   0.192  11.350 -0.0069  0.5071  0.6666
  826MOL0     H13919   4.047   0.595  11.594  4.2476 -1.7258  1.2122
  826MOL0     H13920   4.057   0.844  11.687 -0.0717  3.9180 -0.5913
  826MOL0     H13921   4.330   1.093  11.465  1.6877  1.0864  0.1470
  826MOL0     H13922   4.395   1.053  11.623  0.2990  0.0579  1.3824
  826MOL0     H13923   4.370   1.301  11.624  0.4866 -0.2184  0.4525
  826MOL0     H13924   4.189   1.280  11.597  0.4692 -1.7837 -1.5039
  826MOL0     H13925   4.176   1.162  11.812  0.3042  0.8877 -0.0000
  826MOL0     H13926   4.341   1.163  11.822 -0.0567 -2.1300 -1.2035
  826MOL0     H13927   4.147   1.399  11.800 -1.8720  0.0180  2.2307
  826MOL0     H13928   4.206   1.328  11.950  0.0107  5.5676  1.2559
  826MOL0     H13929   4.331   1.526  11.908 -0.7839 -0.9660  1.3905
  826MOL0     H13930   4.397   1.461  11.759  3.6518  1.8259  2.3699
  826MOL0     H13931   4.458   1.322  12.014 -2.2697  1.2228  0.0464
  826MOL0     H13932   4.548   1.311  11.852  1.8964 -0.6148  1.0024
  826MOL0     H13933   4.544   1.570  12.000 -1.9626 -1.6012  2.3919
  826MOL0     H13934   4.662   1.504  11.890  0.8366  0.7165  1.9863
  826MOL0     H13935   4.621   1.414  12.179  0.6890  1.4719  0.3801
  826MOL0     H13936   4.726   1.330  12.067 -0.8129 -0.8379 -0.5633
  826MOL0     H13937   4.732   1.663  12.251 -1.7573 -3.9690  1.4482
  826MOL0     H13938   5.022   1.783  12.354 -1.6340  4.5265  2.5336
  826MOL0     H13939   4.911   1.875  12.254 -0.5306 -1.1889  1.2209
  826MOL0     H13940   5.182   1.759  12.158 -0.9535  0.6554 -1.1968
  826MOL0     H13941   5.080   1.849  12.055  1.2323  1.5614  0.0777
  826MOL0     H13942   5.108   2.057  12.211  1.0010  0.1729 -0.1511
  826MOL0     H13943   5.239   1.965  12.284 -0.3602  3.3375  1.0975
  826MOL0     H13944   5.375   1.944  12.095  0.1320  1.2878 -1.4811
  826MOL0     H13945   5.247   1.970  11.987  0.3610  1.8037 -1.1247
  826MOL0     H13946   5.111   2.150  11.931 -0.0907  0.6380  1.1165
  826MOL0     H13947   4.982   2.435  11.740 -3.0211  1.0195  1.7448
  826MOL0     H13948   4.891   2.319  11.847 -1.2354  2.2163  1.0513
  826MOL0     H13949   5.022   2.263  11.739 -2.4560  1.3292 -1.8986
  826MOL0     H13950   4.976   2.680  11.530 -1.5294  0.6864  0.4954
  826MOL0     H13951   4.948   2.890  11.421  0.3999  1.3804 -0.0939
  826MOL0     H13952   5.089   3.226  11.364  2.8711 -0.0659  1.7500
  826MOL0     H13953   5.096   3.059  11.339  1.2423  1.6918 -1.2078
  826MOL0     H13954   4.846   3.055  11.319 -2.0986  0.2934  2.8738
  826MOL0     H13955   4.846   3.221  11.391  0.8921 -1.9014  1.1342
  826MOL0     H13956   4.975   3.147  11.115  0.5824  0.6002 -0.4632
  826MOL0     H13957   4.958   3.308  11.190 -0.8944  0.1202  0.0035
  826MOL0     H13958   4.712   3.154  11.145  2.9514 -2.0488 -2.5793
  826MOL0     H13959   4.782   3.265  11.019  0.0719 -0.7544 -1.2014
  826MOL0     H13960   4.689   3.345  11.296 -4.3706  2.1121  0.0183
  826MOL0     H13961   4.745   3.464  11.174 -3.0994  1.6732 -1.1474
  826MOL0     H13962   4.514   3.271  11.152  2.2401 -1.2923  0.3659
  826MOL0     H13963   4.546   3.382  11.027  3.3559 -1.8464 -0.5533
  826MOL0     H13964   4.531   3.579  11.187 -0.6421  0.3303  0.7294
  826MOL0     H13965   4.486   3.453  11.321 -0.6332 -1.0932  0.5892
  826MOL0     H13966   4.273   3.395  11.223  1.7559 -1.0427  0.8943
  826MOL0     H13967   4.314   3.502  11.078 -2.0348  2.0543  0.5122
  826MOL0     H13968   5.164   3.086  11.715  3.5406  0.5134 -3.6611
  826MOL0     H13969   5.231   2.864  11.834  0.3986  1.9170 -0.5883
  826MOL0     H13970   5.302   2.591  12.046 -0.4940 -0.3130  0.9885
  826MOL0     H13971   5.408   2.359  12.125 -1.3649 -0.7188  2.3633
  826MOL0     H13972   4.326   0.917  11.368  0.1089 -0.2340 -0.0009
  826MOL0     H13973   4.299   0.674  11.288 -1.6989  1.7252 -2.8903
  826MOL0     H13974   4.284   0.333  11.275  0.4249  0.9964  1.0357
  826MOL0     H13975   4.323   0.108  11.164 -0.3899  1.1759  1.3157
  826MOL0     H13976   4.159  -0.262  11.125  0.0616  1.1511  3.9789
  826MOL0     H13977   4.041  -0.172  11.208  0.5847  0.7738 -0.2786
  826MOL0     H13978   4.036  -0.205  10.903 -0.3374 -2.0095 -0.0875
  826MOL0     H13979   3.911  -0.123  10.997 -0.7442 -0.2067 -0.6370
  826MOL0     H13980   3.952  -0.420  10.952 -1.6380  0.4601 -0.9120
  826MOL0     H13981   3.906  -0.375  11.121 -2.2096  0.1072  0.5315
  826MOL0     H13982   3.697  -0.252  11.007  0.4260  1.2613 -0.1135
  826MOL0     H13983   3.701  -0.428  10.997 -0.3639 -0.5616 -1.4782
  826MOL0     H13984   3.728  -0.303  10.591 -0.4859  0.3307  0.5535
  826MOL0     H13985   3.922   0.005  11.180  0.1791 -1.7572 -0.5082
  826MOL0     H13986   3.840   0.243  11.447 -0.5419 -1.3617  1.7393
  826MOL0     H13987   3.773   0.239  11.272  2.4971  0.9444 -1.1331
  826MOL0     H13988   3.799   0.089  11.360 -2.4735  1.0862 -1.1000
  827MOL0     O13989   7.704   7.597   9.087  1.0211 -0.1030  0.1817
  827MOL0     C13990   7.715   7.657   9.197  0.8422  0.0555  0.2651
  827MOL0     O13991   7.727   7.602   9.322  0.3495 -0.8759  0.4678
  827MOL0     C13992   7.745   7.472   9.318 -0.1614 -0.1693 -0.3623
  827MOL0     C13993   7.633   7.390   9.328 -0.0162 -0.3102 -0.3256
  827MOL0     C13994   7.644   7.254   9.324  0.8969  0.3706 -0.8404
  827MOL0     C13995   7.769   7.192   9.329 -0.8048  0.3078 -0.3019
  827MOL0     O13996   7.771   7.054   9.331  0.1334 -0.0346  0.3688
  827MOL0     C13997   7.876   6.998   9.410  0.4759  0.1189 -0.6607
  827MOL0     C13998   7.862   6.850   9.433 -0.8249  0.0024  0.8271
  827MOL0     C13999   7.835   6.773   9.299  0.3886 -1.0269 -0.3020
  827MOL0     C14000   7.931   6.787   9.182 -0.7499 -0.4221  0.2603
  827MOL0     C14001   7.889   6.896   9.073 -0.0892 -0.0252  1.2925
  827MOL0     C14002   7.992   6.904   8.962 -0.3917 -0.5225  0.4018
  827MOL0     C14003   7.953   7.008   8.856 -0.3781 -0.2103  0.8710
  827MOL0     C14004   8.058   7.007   8.745 -0.8745 -0.4270 -0.0966
  827MOL0     N14005   8.045   6.882   8.669  0.2980  0.2583  0.3225
  827MOL0     C14006   8.145   6.845   8.590 -0.7881  0.5020  0.6306
  827MOL0     C14007   8.102   6.750   8.510 -0.1763  0.1782 -0.8655
  827MOL0     C14008   8.191   6.660   8.438  0.4464 -0.1193  0.6663
  827MOL0     C14009   8.249   6.722   8.307  0.6954  0.6969 -0.5228
  827MOL0     C14010   8.137   6.730   8.204  0.3280 -0.3435 -0.1314
  827MOL0     C14011   8.084   6.601   8.152  0.2548  0.0026 -0.2958
  827MOL0     O14012   8.197   6.517   8.119  0.3918  0.6791 -0.5917
  827MOL0     C14013   8.170   6.404   8.045 -0.3937 -0.2000 -0.7949
  827MOL0     C14014   8.243   6.362   7.929  0.3823 -1.2471 -0.0512
  827MOL0     C14015   8.211   6.239   7.859  0.4886  0.4799  0.7629
  827MOL0     C14016   8.286   6.198   7.727 -0.3403 -0.8743 -0.5989
  827MOL0     C14017   8.109   6.151   7.906 -1.5534 -1.3788  1.1693
  827MOL0     C14018   8.088   6.015   7.847  0.4984  0.6231 -0.0542
  827MOL0     O14019   7.962   5.972   7.846  0.8097 -0.1413 -0.3092
  827MOL0     C14020   7.930   5.841   7.798  0.1959 -0.1628  0.2142
  827MOL0     C14021   7.992   5.766   7.703  0.5655 -0.2886 -1.0575
  827MOL0     C14022   7.949   5.645   7.658 -0.5790 -0.5807 -0.0385
  827MOL0     C14023   7.832   5.594   7.710 -0.2457 -0.0829  0.7657
  827MOL0     O14024   7.787   5.480   7.642  0.0382 -0.1293 -0.1405
  827MOL0     C14025   7.656   5.488   7.593 -0.3830 -0.5487 -0.1896
  827MOL0     C14026   7.613   5.351   7.534 -0.0182 -0.2255 -0.5714
  827MOL0     C14027   7.496   5.378   7.441  0.3282 -0.9353  0.7053
  827MOL0     C14028   7.552   5.398   7.299 -0.9184 -0.0095  0.5646
  827MOL0     C14029   7.450   5.441   7.195 -0.0343  0.1220  0.7478
  827MOL0     C14030   7.483   5.397   7.048 -0.3913  0.2280 -0.2535
  827MOL0     C14031   7.385   5.459   6.946 -0.5421 -0.0259  0.2475
  827MOL0     C14032   7.382   5.393   6.812 -0.8105  0.1751 -0.0181
  827MOL0    Cl14033   7.268   5.472   6.702  0.0700 -0.4863 -0.0428
  827MOL0     C14034   7.771   5.651   7.824 -0.1667 -0.1407 -0.0459
  827MOL0     C14035   7.820   5.783   7.864 -0.4954  0.2141 -0.8167
  827MOL0     O14036   8.183   5.948   7.807 -0.0750  0.8706  0.4416
  827MOL0     C14037   8.032   6.198   8.008 -0.7925 -0.5778  0.0352
  827MOL0     C14038   8.075   6.309   8.087 -0.4885 -0.4500 -0.2754
  827MOL0     N14039   7.971   6.717   8.548  1.3875 -0.5327 -0.9350
  827MOL0     N14040   7.938   6.798   8.644  0.4644 -0.6274  0.1112
  827MOL0     C14041   7.882   7.276   9.321  0.5591 -0.0305  0.2704
  827MOL0     C14042   7.869   7.416   9.306 -0.3907 -0.6016 -0.1539
  827MOL0     C14043   7.695   7.809   9.188 -1.4049 -0.8266 -1.3502
  827MOL0     C14044   7.667   7.877   9.314  0.9080 -0.6662 -1.1596
  827MOL0     C14045   7.657   8.019   9.332 -0.0242  0.1755 -0.5971
  827MOL0     C14046   7.680   8.098   9.223 -1.1763 -0.4422 -0.4533
  827MOL0     O14047   7.654   8.235   9.229  0.4475 -0.4929  0.3360
  827MOL0     C14048   7.537   8.281   9.309  0.4384  0.3273 -0.0496
  827MOL0     C14049   7.471   8.382   9.228  0.3600 -0.3995  0.4383
  827MOL0     C14050   7.405   8.334   9.090 -0.6676 -1.4842 -0.1675
  827MOL0     C14051   7.408   8.453   8.996 -0.4612  0.6388  0.3417
  827MOL0     C14052   7.350   8.414   8.865 -0.3084 -0.1827 -0.5292
  827MOL0     C14053   7.325   8.390   8.744 -0.0194 -0.3812 -0.3714
  827MOL0     C14054   7.715   8.041   9.101  0.4976 -0.6192  0.0989
  827MOL0     C14055   7.730   7.897   9.081 -1.4395  0.1259 -0.8292
  827MOL0     C14056   7.763   7.850   8.946  0.1544 -1.4048  0.2852
  827MOL0     H14057   7.539   7.445   9.331 -0.7620 -1.2891 -2.7049
  827MOL0     H14058   7.560   7.185   9.324 -1.6505  3.1647  1.8073
  827MOL0     H14059   7.868   7.058   9.502 -0.4237 -0.2639 -0.4748
  827MOL0     H14060   7.974   6.999   9.362  1.5776 -0.2834  1.4331
  827MOL0     H14061   7.956   6.817   9.478  0.5136  1.9310 -0.3714
  827MOL0     H14062   7.776   6.826   9.496  0.8139 -2.9068  2.1432
  827MOL0     H14063   7.823   6.669   9.330 -2.2263 -2.0373 -3.9744
  827MOL0     H14064   7.739   6.809   9.262  0.8008 -0.1657 -0.5691
  827MOL0     H14065   8.031   6.812   9.218 -0.9399  1.8140 -0.5822
  827MOL0     H14066   7.933   6.690   9.132  1.6143 -0.0224 -0.5456
  827MOL0     H14067   7.868   7.000   9.100  1.0529  0.8596 -0.9487
  827MOL0     H14068   7.795   6.867   9.025  0.5693  0.0667 -0.1151
  827MOL0     H14069   8.090   6.924   9.007 -0.3699  0.7897 -0.1807
  827MOL0     H14070   7.994   6.806   8.916 -1.3273 -1.7233  2.7338
  827MOL0     H14071   7.936   7.107   8.900 -2.3712 -0.1031 -0.0276
  827MOL0     H14072   7.853   6.987   8.816 -0.0866 -0.4846  0.2777
  827MOL0     H14073   8.039   7.089   8.675 -1.1087  0.0702  0.5488
  827MOL0     H14074   8.158   7.002   8.789 -0.4011  0.0762 -1.0941
  827MOL0     H14075   8.236   6.901   8.571  0.0094 -1.5509 -2.3986
  827MOL0     H14076   8.137   6.567   8.419 -0.7611  0.1539  2.5254
  827MOL0     H14077   8.270   6.623   8.502  1.6181 -3.4271 -2.3681
  827MOL0     H14078   8.280   6.822   8.336 -0.4876  1.1742 -0.8430
  827MOL0     H14079   8.326   6.664   8.255 -0.6144 -0.7305 -0.9634
  827MOL0     H14080   8.051   6.791   8.232  0.2494 -0.0498 -0.9775
  827MOL0     H14081   8.186   6.782   8.121 -2.7593  1.8961 -0.7191
  827MOL0     H14082   8.005   6.558   8.213 -0.6184  0.7996 -0.8392
  827MOL0     H14083   8.034   6.618   8.056 -0.9230  0.0400  0.3092
  827MOL0     H14084   8.327   6.416   7.886 -0.6797 -1.3637 -2.4039
  827MOL0     H14085   8.350   6.284   7.704 -0.3314 -0.5603  0.5105
  827MOL0     H14086   8.221   6.179   7.641 -0.3094  0.1315 -0.8533
  827MOL0     H14087   8.343   6.105   7.735 -0.2909 -0.6868  2.2233
  827MOL0     H14088   8.089   5.794   7.663  2.1003 -1.3808  1.6282
  827MOL0     H14089   7.984   5.598   7.567 -3.3628  1.5841 -2.4337
  827MOL0     H14090   7.585   5.524   7.669  0.4884  2.5460 -0.7120
  827MOL0     H14091   7.665   5.558   7.510 -1.0178 -1.7043 -1.2627
  827MOL0     H14092   7.690   5.295   7.480 -0.4639  0.9667 -2.5517
  827MOL0     H14093   7.592   5.284   7.618 -0.5670  0.6899  0.0377
  827MOL0     H14094   7.447   5.474   7.459 -0.1339 -0.7339 -1.3758
  827MOL0     H14095   7.418   5.302   7.440  0.1171 -0.7190  0.6295
  827MOL0     H14096   7.585   5.303   7.257 -1.0544  0.6089 -1.0180
  827MOL0     H14097   7.640   5.462   7.288 -0.0505 -0.9108  1.9922
  827MOL0     H14098   7.349   5.413   7.228  0.5481  0.5024  3.0119
  827MOL0     H14099   7.432   5.548   7.201 -1.9863 -0.1261 -0.0413
  827MOL0     H14100   7.478   5.291   7.024  2.8520 -0.2754  0.8517
  827MOL0     H14101   7.586   5.428   7.028 -0.4111  0.8798  0.5929
  827MOL0     H14102   7.392   5.568   6.948 -1.8369  0.1046 -0.8401
  827MOL0     H14103   7.290   5.416   6.979 -0.8070 -1.5428 -2.2104
  827MOL0     H14104   7.359   5.287   6.826  1.1186 -0.0176  2.3181
  827MOL0     H14105   7.481   5.401   6.768 -0.8259  1.3990  0.1309
  827MOL0     H14106   7.685   5.601   7.867  1.1893 -1.0351  1.7554
  827MOL0     H14107   7.758   5.835   7.936 -0.4546 -3.1177  1.8679
  827MOL0     H14108   7.964   6.131   8.059 -1.1483 -0.2491 -0.0023
  827MOL0     H14109   8.036   6.341   8.183  1.6499  1.3419  0.0678
  827MOL0     H14110   7.984   7.239   9.323  1.4493  2.1774 -0.7553
  827MOL0     H14111   7.954   7.483   9.312 -0.7495 -0.1795  0.3314
  827MOL0     H14112   7.647   7.823   9.406 -2.7018 -0.9804 -1.9860
  827MOL0     H14113   7.624   8.057   9.428 -0.4910 -1.3135 -0.1481
  827MOL0     H14114   7.463   8.207   9.342 -0.6740  0.0724 -2.8466
  827MOL0     H14115   7.564   8.328   9.404 -1.4446  4.5248 -1.3532
  827MOL0     H14116   7.545   8.461   9.214  2.1494 -2.1614 -0.7394
  827MOL0     H14117   7.395   8.429   9.291  0.3625 -2.1870  1.8723
  827MOL0     H14118   7.460   8.250   9.048  1.2351  0.5609 -2.0624
  827MOL0     H14119   7.300   8.311   9.108 -0.4585 -2.8575 -0.6255
  827MOL0     H14120   7.507   8.499   8.983  2.3692 -4.5315  0.7639
  827MOL0     H14121   7.345   8.521   9.054 -0.8934 -2.5044  3.9672
  827MOL0     H14122   7.281   8.369   8.649 -2.0015 -0.8706  0.6063
  827MOL0     H14123   7.736   8.101   9.013  0.2394  1.1939  1.2149
  827MOL0     H14124   7.672   7.805   8.905 -1.0333  2.1388 -1.4086
  827MOL0     H14125   7.787   7.927   8.872 -3.3295 -1.5321 -1.1763
  827MOL0     H14126   7.844   7.779   8.961  1.1355 -0.9087 -2.1717
  828MOL0     O14127   1.484   4.261   3.083 -0.0387  0.4988  0.2518
  828MOL0     C14128   1.496   4.353   3.164 -0.5294 -0.2003 -0.6300
  828MOL0     O14129   1.432   4.470   3.160 -0.0729  0.0166  0.2991
  828MOL0     C14130   1.351   4.481   3.048  0.4027 -0.2943  0.1473
  828MOL0     C14131   1.209   4.458   3.047  0.2966 -0.2288 -0.5655
  828MOL0     C14132   1.123   4.474   2.940  0.3221 -0.7781 -0.5094
  828MOL0     C14133   1.182   4.535   2.826  0.7308  0.1952  0.4880
  828MOL0     O14134   1.107   4.558   2.709  0.0534  0.2365  0.1527
  828MOL0     C14135   0.991   4.639   2.716  0.2271 -0.0505 -0.1630
  828MOL0     C14136   0.998   4.747   2.607  0.2320  0.1455 -0.6079
  828MOL0     C14137   0.860   4.811   2.582  0.3919  0.1552 -0.2919
  828MOL0     C14138   0.864   4.907   2.461  0.4806 -0.0535  0.7425
  828MOL0     C14139   0.720   4.912   2.397  0.0192 -0.2950 -0.0260
  828MOL0     C14140   0.623   4.997   2.473  0.6414  0.1693  0.3688
  828MOL0     C14141   0.473   4.967   2.482 -0.1873 -0.1822 -0.0784
  828MOL0     C14142   0.400   5.062   2.577  0.7233 -0.8133  0.3005
  828MOL0     N14143   0.354   5.196   2.517 -0.3513  0.5355 -1.1441
  828MOL0     C14144   0.293   5.201   2.398  0.6037  0.1974 -0.0518
  828MOL0     C14145   0.257   5.328   2.375  0.6998 -0.4557  0.2425
  828MOL0     C14146   0.202   5.384   2.247 -0.0988  0.7170  0.7414
  828MOL0     C14147   0.154   5.525   2.279  0.0273 -0.5052 -0.0291
  828MOL0     C14148   0.097   5.598   2.170  0.6824  0.1027 -0.1614
  828MOL0     C14149   0.084   5.743   2.202 -0.2553 -0.5952 -0.1759
  828MOL0     O14150   0.024   5.822   2.098 -0.6053 -0.1984  0.8906
  828MOL0     C14151   0.093   5.873   1.991  0.7658  0.6986 -0.1875
  828MOL0     C14152   0.015   5.914   1.883  0.1756 -0.8876  0.3495
  828MOL0     C14153   0.070   5.989   1.784  0.0610  0.1340 -0.0581
  828MOL0     C14154  -0.030   6.029   1.675  0.1966  0.3083 -0.2344
  828MOL0     C14155   0.215   6.000   1.775  0.1330  0.3197  0.0943
  828MOL0     C14156   0.283   6.059   1.659  0.6190  0.2982  0.0952
  828MOL0     O14157   0.408   6.124   1.677 -0.3186  0.5266  0.0105
  828MOL0     C14158   0.447   6.210   1.582 -0.0302 -0.5853 -0.1563
  828MOL0     C14159   0.538   6.175   1.480  0.5279 -0.1469 -0.0972
  828MOL0     C14160   0.567   6.270   1.369  0.1652  0.0189 -1.1039
  828MOL0     C14161   0.528   6.405   1.386 -0.6289  0.5104  0.7874
  828MOL0     O14162   0.572   6.509   1.298  0.4964  0.2510 -0.7846
  828MOL0     C14163   0.628   6.478   1.165  0.1462  0.0200  0.1305
  828MOL0     C14164   0.641   6.606   1.076  0.6379  0.4714  0.3497
  828MOL0     C14165   0.739   6.712   1.135 -0.2209  0.0351  0.0184
  828MOL0     C14166   0.734   6.839   1.059 -0.6595 -0.0583 -0.0131
  828MOL0     C14167   0.839   6.949   1.103  0.6439 -0.5834  0.3003
  828MOL0     C14168   0.981   6.912   1.072 -0.1745 -0.0448 -0.5242
  828MOL0     C14169   1.068   7.048   1.072 -0.0166 -0.3366  0.5519
  828MOL0     C14170   1.094   7.088   1.223  0.0531 -0.6168 -0.3028
  828MOL0    Cl14171   1.200   6.997   1.326 -0.0552  0.2945 -0.4409
  828MOL0     C14172   0.433   6.437   1.486  0.8154  0.4412 -0.3719
  828MOL0     C14173   0.400   6.338   1.587  0.4245  0.8873 -0.3831
  828MOL0     O14174   0.228   6.038   1.554  1.0092  0.1140 -0.0749
  828MOL0     C14175   0.288   5.973   1.889  0.4936 -1.4643  0.5022
  828MOL0     C14176   0.234   5.902   1.991 -1.0328 -0.4380 -0.6265
  828MOL0     N14177   0.294   5.396   2.491 -0.3868 -0.5900  0.8613
  828MOL0     N14178   0.357   5.320   2.565  0.1983 -0.1146  0.7123
  828MOL0     C14179   1.320   4.570   2.833 -1.0372 -0.6948  0.0022
  828MOL0     C14180   1.404   4.549   2.943 -0.4379  0.0362  0.8570
  828MOL0     C14181   1.591   4.319   3.275 -0.3655 -0.0156  0.3711
  828MOL0     C14182   1.583   4.405   3.391  0.5657  0.4857 -0.1774
  828MOL0     C14183   1.674   4.398   3.496 -0.6118  0.1204  0.3239
  828MOL0     C14184   1.779   4.308   3.497  0.3883  0.1894 -1.2140
  828MOL0     O14185   1.878   4.290   3.588 -0.3210 -0.0212 -0.5771
  828MOL0     C14186   1.901   4.409   3.665 -0.8297 -0.5329 -0.4644
  828MOL0     C14187   2.028   4.378   3.745 -0.3219  0.0624  0.3355
  828MOL0     C14188   2.052   4.480   3.852  0.6159  0.2694 -0.5612
  828MOL0     C14189   2.185   4.476   3.936  0.9524 -0.2062  0.1362
  828MOL0     C14190   2.169   4.578   4.036  0.0500  0.0475  0.7792
  828MOL0     C14191   2.163   4.672   4.117 -0.2860  0.7546 -0.1390
  828MOL0     C14192   1.781   4.217   3.392 -0.2214  0.3248 -0.5232
  828MOL0     C14193   1.679   4.205   3.294 -0.7685 -0.5049 -0.0278
  828MOL0     C14194   1.699   4.107   3.193 -0.2075 -0.2319  0.5888
  828MOL0     H14195   1.162   4.423   3.138  0.6083 -0.0859 -0.3454
  828MOL0     H14196   1.018   4.446   2.940 -0.0489  0.5838  0.0635
  828MOL0     H14197   0.971   4.679   2.815  1.4685 -2.3939  1.1213
  828MOL0     H14198   0.911   4.566   2.702 -1.5550  1.7799  0.0096
  828MOL0     H14199   1.062   4.830   2.641  0.2696 -0.4627  0.8851
  828MOL0     H14200   1.031   4.714   2.508  1.5051 -0.4406 -0.0070
  828MOL0     H14201   0.787   4.730   2.571  0.8979 -0.4184  0.4763
  828MOL0     H14202   0.827   4.860   2.674 -0.9564 -1.4986  0.1716
  828MOL0     H14203   0.893   5.012   2.472 -2.2220  0.7740  0.7508
  828MOL0     H14204   0.923   4.858   2.382  0.0299 -0.7427  0.8233
  828MOL0     H14205   0.677   4.812   2.394  0.0969 -0.3150 -2.2342
  828MOL0     H14206   0.734   4.945   2.294 -0.9614 -0.5003 -0.2360
  828MOL0     H14207   0.659   4.994   2.576 -2.1298  0.7418  1.4503
  828MOL0     H14208   0.640   5.102   2.446 -2.3266  0.6889  0.1608
  828MOL0     H14209   0.467   4.862   2.512  2.6118 -0.8651 -1.5354
  828MOL0     H14210   0.430   4.964   2.381  1.0246  1.9980 -0.7237
  828MOL0     H14211   0.305   5.019   2.612  0.2530 -0.6453 -0.7382
  828MOL0     H14212   0.468   5.085   2.660  3.2628 -1.0564 -1.6079
  828MOL0     H14213   0.271   5.113   2.338 -1.0063 -1.4382  2.7512
  828MOL0     H14214   0.112   5.334   2.211  1.5112 -0.5554 -1.7793
  828MOL0     H14215   0.276   5.370   2.168 -2.1095  0.1710 -1.1333
  828MOL0     H14216   0.069   5.508   2.346  0.3010  0.1522  0.5017
  828MOL0     H14217   0.219   5.594   2.334 -1.0400 -0.5037  1.3163
  828MOL0     H14218   0.165   5.583   2.085  0.1380  0.7006 -0.7123
  828MOL0     H14219  -0.005   5.560   2.157 -0.0177  2.0555 -0.8434
  828MOL0     H14220   0.023   5.759   2.291  1.2215  0.6681  0.6533
  828MOL0     H14221   0.182   5.787   2.218  1.3426 -3.3629 -1.5656
  828MOL0     H14222  -0.090   5.887   1.891 -0.3169 -0.0600 -2.3797
  828MOL0     H14223  -0.128   6.044   1.723 -0.6906  1.6703 -2.3469
  828MOL0     H14224  -0.038   5.951   1.598 -2.7746 -2.8835  2.9376
  828MOL0     H14225   0.008   6.114   1.618  2.7899 -1.4863 -1.3800
  828MOL0     H14226   0.582   6.076   1.473  1.3963  0.2920 -1.2505
  828MOL0     H14227   0.643   6.250   1.295  0.9997 -1.3206  0.0621
  828MOL0     H14228   0.725   6.428   1.178  1.1665  1.3205 -1.9902
  828MOL0     H14229   0.561   6.410   1.112  0.0387  1.8492 -2.2346
  828MOL0     H14230   0.678   6.576   0.977  0.4057  0.4400  0.2705
  828MOL0     H14231   0.544   6.654   1.061  0.3204  0.3781  1.8827
  828MOL0     H14232   0.837   6.664   1.138 -0.1683  0.1709  0.5109
  828MOL0     H14233   0.725   6.735   1.241  2.2945  0.4280  0.3287
  828MOL0     H14234   0.632   6.875   1.075 -1.9199 -2.8455 -1.3112
  828MOL0     H14235   0.740   6.822   0.951 -1.2295  0.4240 -0.1309
  828MOL0     H14236   0.809   7.035   1.041 -0.1209 -1.6564 -0.8834
  828MOL0     H14237   0.826   6.980   1.207 -0.6147  2.7731 -0.6966
  828MOL0     H14238   0.996   6.862   0.976 -2.2267 -1.7329 -0.0470
  828MOL0     H14239   1.024   6.851   1.152 -2.8092 -0.5265  0.6400
  828MOL0     H14240   1.014   7.135   1.035 -1.8294 -1.6432  0.0008
  828MOL0     H14241   1.160   7.044   1.014 -0.5607 -1.7387 -0.2609
  828MOL0     H14242   0.998   7.097   1.275  0.1209  2.0990 -0.5033
  828MOL0     H14243   1.128   7.192   1.226 -1.1054 -0.2396  1.8285
  828MOL0     H14244   0.393   6.538   1.495 -1.0246 -0.0758 -1.9144
  828MOL0     H14245   0.331   6.368   1.666  0.0602  1.9495 -1.0940
  828MOL0     H14246   0.388   6.017   1.890  0.0641 -0.2374 -1.8515
  828MOL0     H14247   0.298   5.859   2.067  0.4152  1.7716 -0.5056
  828MOL0     H14248   1.370   4.605   2.743  0.3739 -0.2644  0.9107
  828MOL0     H14249   1.511   4.565   2.950 -0.7129  1.5184  2.6225
  828MOL0     H14250   1.517   4.490   3.376  2.5328  2.2387  0.5049
  828MOL0     H14251   1.669   4.480   3.567  0.9937 -0.1320  0.7579
  828MOL0     H14252   1.903   4.499   3.603 -5.4676  1.7512  2.1312
  828MOL0     H14253   1.818   4.429   3.733  0.5862  0.4112  1.0585
  828MOL0     H14254   2.111   4.382   3.675  2.7647  1.5871  3.7315
  828MOL0     H14255   2.013   4.279   3.789  2.4038 -1.6818 -2.2541
  828MOL0     H14256   2.034   4.577   3.805 -3.5039  1.2258  2.4131
  828MOL0     H14257   1.973   4.480   3.928  0.5834  0.7480 -0.5906
  828MOL0     H14258   2.274   4.504   3.879  0.2836  1.9604  0.0812
  828MOL0     H14259   2.205   4.382   3.987  1.3300  1.8334  4.1241
  828MOL0     H14260   2.186   4.754   4.182 -3.0172  0.6738  1.1028
  828MOL0     H14261   1.860   4.143   3.401 -0.1259  0.1986 -2.0508
  828MOL0     H14262   1.762   4.027   3.233  0.6531  0.7726  1.2935
  828MOL0     H14263   1.600   4.065   3.171  0.0078 -0.0833 -0.7315
  828MOL0     H14264   1.738   4.142   3.097 -0.5382 -1.9520 -0.2156
  829MOL0     O14265  10.733   3.391   2.702  0.2490  0.9701  0.8639
  829MOL0     C14266  10.698   3.389   2.821  0.0189 -0.1573 -0.2512
  829MOL0     O14267  10.587   3.445   2.866  0.1982 -0.0767 -0.4372
  829MOL0     C14268  10.484   3.465   2.777 -0.3414 -0.7038  0.1727
  829MOL0     C14269  10.439   3.363   2.684 -0.7864  0.5395 -0.1357
  829MOL0     C14270  10.332   3.388   2.607  0.4126 -0.0278  1.0032
  829MOL0     C14271  10.256   3.505   2.618  0.7162  0.2630  0.0062
  829MOL0     O14272  10.135   3.516   2.544 -0.0976 -0.6301 -0.2042
  829MOL0     C14273  10.014   3.482   2.614  0.4077 -0.0224 -0.6699
  829MOL0     C14274   9.953   3.345   2.582 -0.4367 -0.0286  0.3046
  829MOL0     C14275   9.816   3.350   2.642  0.9115  0.0256  0.8967
  829MOL0     C14276   9.717   3.224   2.616 -1.0521  0.2322  0.0906
  829MOL0     C14277   9.723   3.163   2.472  0.0414  1.0603  0.9275
  829MOL0     C14278   9.596   3.090   2.434  0.1719  0.2254 -0.2097
  829MOL0     C14279   9.598   2.976   2.326 -0.3756 -0.2526 -0.9790
  829MOL0     C14280   9.458   2.920   2.272 -1.0189 -1.0207 -0.0921
  829MOL0     N14281   9.492   2.793   2.201  0.9229 -0.0804  0.0548
  829MOL0     C14282   9.503   2.662   2.259 -0.7495  0.1846  1.0946
  829MOL0     C14283   9.512   2.578   2.151 -0.5599  1.1021 -0.2836
  829MOL0     C14284   9.507   2.423   2.151 -0.2119  0.3898 -0.0751
  829MOL0     C14285   9.628   2.351   2.204  0.5147  0.1427 -0.8961
  829MOL0     C14286   9.756   2.376   2.128 -0.4526 -0.1295 -0.0572
  829MOL0     C14287   9.873   2.287   2.174 -0.9932  0.4094  0.5590
  829MOL0     O14288   9.994   2.332   2.107  0.7117  0.6340 -0.8491
  829MOL0     C14289  10.109   2.275   2.145 -0.0760 -0.3619 -0.8415
  829MOL0     C14290  10.130   2.193   2.258 -0.1949  0.4334  0.1519
  829MOL0     C14291  10.258   2.133   2.275 -0.7875  0.3264 -0.3441
  829MOL0     C14292  10.272   2.057   2.401 -0.3176  0.5790 -0.0048
  829MOL0     C14293  10.367   2.157   2.184 -0.7279  0.0019  0.4693
  829MOL0     C14294  10.512   2.129   2.213  0.1291  0.5361 -0.2806
  829MOL0     O14295  10.541   2.090   2.337 -0.4778  0.3295  0.3017
  829MOL0     C14296  10.664   2.034   2.376  0.1665 -0.4717 -0.1572
  829MOL0     C14297  10.719   2.063   2.507  0.3270  1.1563 -0.5455
  829MOL0     C14298  10.842   2.018   2.551  0.4969  0.1108 -0.5731
  829MOL0     C14299  10.924   1.939   2.466  0.0168  0.1449 -0.1557
  829MOL0     O14300  11.043   1.892   2.509 -0.2693  0.4251  0.7996
  829MOL0     C14301  11.159   1.949   2.454  0.2387  0.3691 -0.2160
  829MOL0     C14302  11.263   1.836   2.448 -0.8343 -0.1290  0.4656
  829MOL0     C14303  11.394   1.892   2.371 -0.3869 -0.4512  0.0593
  829MOL0     C14304  11.492   1.782   2.374 -0.0142  0.7495 -0.4345
  829MOL0     C14305  11.612   1.804   2.275  0.2964 -0.0410 -0.4466
  829MOL0     C14306  11.688   1.677   2.253  1.0329  0.8450  0.3585
  829MOL0     C14307  11.828   1.701   2.213 -0.7665 -0.3167  0.5414
  829MOL0     C14308  11.904   1.575   2.161  0.2989  0.4373 -0.1545
  829MOL0    Cl14309  11.944   1.462   2.296 -0.2015 -0.4550  0.1460
  829MOL0     C14310  10.877   1.916   2.327  0.6111 -0.1203  0.0030
  829MOL0     C14311  10.743   1.959   2.288 -0.1727 -0.1208  0.3934
  829MOL0     O14312  10.593   2.141   2.119 -0.1695 -0.1344 -0.5899
  829MOL0     C14313  10.345   2.235   2.071  0.7671 -0.7163  0.5082
  829MOL0     C14314  10.211   2.291   2.044 -0.0482 -0.0230 -0.1083
  829MOL0     N14315   9.538   2.653   2.039  0.4069  0.3986  0.5666
  829MOL0     N14316   9.515   2.779   2.066 -1.0321 -0.0422 -0.2539
  829MOL0     C14317  10.297   3.603   2.707 -0.3841 -0.5194 -0.0447
  829MOL0     C14318  10.403   3.589   2.783 -0.2820 -0.2098  0.1976
  829MOL0     C14319  10.815   3.359   2.915 -0.0932  0.6459  0.0555
  829MOL0     C14320  10.844   3.456   3.019  1.1057  0.6947  0.5352
  829MOL0     C14321  10.936   3.444   3.120 -0.0987  0.1828  0.3132
  829MOL0     C14322  11.030   3.338   3.115  0.1150  0.4262 -0.2333
  829MOL0     O14323  11.131   3.318   3.208 -0.2263 -0.2466  0.2079
  829MOL0     C14324  11.173   3.428   3.291 -0.3917 -0.3268  0.2798
  829MOL0     C14325  11.308   3.413   3.351 -0.2415 -0.8588 -0.4128
  829MOL0     C14326  11.326   3.279   3.437 -0.3302 -0.5088  0.5210
  829MOL0     C14327  11.475   3.285   3.483  0.1781 -0.1533  1.7557
  829MOL0     C14328  11.508   3.151   3.542 -0.8958  0.2905  1.2239
  829MOL0     C14329  11.537   3.045   3.598  0.1505 -0.0971 -0.1187
  829MOL0     C14330  11.000   3.237   3.022 -0.6318 -0.9034  0.0316
  829MOL0     C14331  10.906   3.242   2.917  0.6997 -0.6394  0.9286
  829MOL0     C14332  10.888   3.129   2.821  0.1900  0.2264  0.4388
  829MOL0     H14333  10.505   3.281   2.658 -0.8731  0.9107 -1.6458
  829MOL0     H14334  10.301   3.311   2.537  3.5581 -0.1423 -0.4394
  829MOL0     H14335   9.946   3.555   2.569  0.9239  1.4668  0.8674
  829MOL0     H14336  10.005   3.502   2.721 -0.2841 -0.3286 -0.6648
  829MOL0     H14337   9.953   3.344   2.473  2.2800 -0.5424  0.2392
  829MOL0     H14338  10.002   3.258   2.627  1.0741  0.8818  0.4812
  829MOL0     H14339   9.817   3.371   2.749 -0.7508 -0.8147  1.1109
  829MOL0     H14340   9.757   3.429   2.596  0.4816 -1.9527 -2.2395
  829MOL0     H14341   9.757   3.155   2.692  1.2450  0.5210 -0.7685
  829MOL0     H14342   9.615   3.251   2.643 -1.4707 -0.3004 -0.9090
  829MOL0     H14343   9.810   3.101   2.448 -1.3989  0.0234 -2.1493
  829MOL0     H14344   9.724   3.253   2.410  3.6728 -0.0322 -0.8812
  829MOL0     H14345   9.561   3.042   2.526  0.0106  0.6377 -0.0527
  829MOL0     H14346   9.524   3.170   2.414  0.9591  0.4656 -2.2603
  829MOL0     H14347   9.665   2.906   2.377  2.6589  2.5727 -0.6748
  829MOL0     H14348   9.650   3.015   2.238  2.5251  1.1513  1.1820
  829MOL0     H14349   9.388   2.906   2.355  1.0513  0.6422  2.1012
  829MOL0     H14350   9.413   2.988   2.200  1.0421 -1.1343 -1.5790
  829MOL0     H14351   9.500   2.624   2.361 -0.7782 -0.9383  0.6936
  829MOL0     H14352   9.480   2.394   2.049 -0.7857 -1.4844  0.5874
  829MOL0     H14353   9.417   2.401   2.209 -1.7945  0.0792 -2.5009
  829MOL0     H14354   9.651   2.384   2.306  2.3903 -2.1357 -0.4914
  829MOL0     H14355   9.599   2.246   2.206  0.6152  0.0125 -3.5817
  829MOL0     H14356   9.731   2.355   2.024 -2.9106 -0.4445  0.5446
  829MOL0     H14357   9.776   2.483   2.130 -1.4666  0.2122 -3.1058
  829MOL0     H14358   9.884   2.306   2.281  1.4717  3.8331 -0.1441
  829MOL0     H14359   9.858   2.180   2.155  2.5778  0.2759 -2.6457
  829MOL0     H14360  10.056   2.199   2.337  0.7396 -0.5396  1.1373
  829MOL0     H14361  10.178   2.034   2.452  1.7024  0.1423  3.9049
  829MOL0     H14362  10.328   2.113   2.476 -1.2931  0.1760  1.0593
  829MOL0     H14363  10.329   1.971   2.365  2.7065  3.4487 -2.6367
  829MOL0     H14364  10.653   2.118   2.574  1.1910  1.6756 -0.1029
  829MOL0     H14365  10.876   2.029   2.653  2.4239  4.1463 -1.4067
  829MOL0     H14366  11.144   1.998   2.357  1.9350  1.2524 -0.0769
  829MOL0     H14367  11.198   2.036   2.509  0.4242 -0.9903  1.8949
  829MOL0     H14368  11.293   1.809   2.550 -1.4252 -0.9050  0.4469
  829MOL0     H14369  11.228   1.744   2.400  1.8847  0.3770 -2.8736
  829MOL0     H14370  11.428   1.979   2.428 -0.9380 -1.1194  1.4505
  829MOL0     H14371  11.352   1.916   2.274 -0.8658 -3.5131 -0.5978
  829MOL0     H14372  11.443   1.688   2.346 -1.3182  1.7567 -1.7490
  829MOL0     H14373  11.536   1.775   2.473 -0.2231 -2.8977 -0.4470
  829MOL0     H14374  11.579   1.830   2.174 -1.5050 -0.5904 -0.0218
  829MOL0     H14375  11.663   1.890   2.320 -0.0443  0.5125 -1.0974
  829MOL0     H14376  11.634   1.621   2.176  1.1616  0.1044  0.7921
  829MOL0     H14377  11.684   1.617   2.345 -1.9874  1.4085  0.6814
  829MOL0     H14378  11.886   1.734   2.299 -4.0387  0.3006  2.6876
  829MOL0     H14379  11.837   1.788   2.146  2.4474  0.7991  2.1969
  829MOL0     H14380  11.999   1.605   2.118  1.3612 -3.2410 -0.6612
  829MOL0     H14381  11.857   1.521   2.079 -0.6583  0.4644  0.3543
  829MOL0     H14382  10.944   1.867   2.257  0.0123 -0.9050 -0.0299
  829MOL0     H14383  10.703   1.945   2.188 -0.9974  1.1430  0.5154
  829MOL0     H14384  10.416   2.270   1.996 -1.3581  2.7958 -0.1132
  829MOL0     H14385  10.197   2.369   1.970 -1.8703  1.4133  1.6524
  829MOL0     H14386  10.236   3.692   2.716 -2.7731 -1.9236 -1.1454
  829MOL0     H14387  10.441   3.671   2.843 -0.3953 -0.0232  0.0177
  829MOL0     H14388  10.793   3.551   3.011  0.8217  0.5848  1.0391
  829MOL0     H14389  10.937   3.532   3.184 -0.2141 -0.5450  1.3496
  829MOL0     H14390  11.162   3.518   3.230  1.2273 -0.7786 -0.7343
  829MOL0     H14391  11.098   3.437   3.371  1.9129 -2.5510  2.9091
  829MOL0     H14392  11.324   3.504   3.410 -3.3139  0.1931 -1.0068
  829MOL0     H14393  11.384   3.424   3.274 -0.9444  0.7089 -0.9287
  829MOL0     H14394  11.265   3.278   3.528 -1.8437  0.1976 -0.4493
  829MOL0     H14395  11.303   3.189   3.380  0.9467  0.9937 -2.6171
  829MOL0     H14396  11.490   3.366   3.554 -1.2469  1.3397  0.4453
  829MOL0     H14397  11.545   3.298   3.400 -1.1067 -0.2093  0.6128
  829MOL0     H14398  11.573   2.951   3.635 -4.3206 -2.2527 -0.5821
  829MOL0     H14399  11.055   3.143   3.021 -0.8601 -1.0788  1.6515
  829MOL0     H14400  10.913   3.152   2.717 -0.6590  2.0656  0.5936
  829MOL0     H14401  10.948   3.042   2.847  0.0793 -0.7460 -2.2497
  829MOL0     H14402  10.784   3.096   2.816  0.6974 -1.2712 -0.8377
  830MOL0     O14403   9.533   3.967  10.715  0.4364 -0.4458  0.3854
  830MOL0     C14404   9.549   3.995  10.833  0.2881  0.2381  0.1433
  830MOL0     O14405   9.638   4.077  10.887  0.0205  0.5274  0.0697
  830MOL0     C14406   9.774   4.094  10.851 -0.3366  0.6464  1.0122
  830MOL0     C14407   9.859   4.132  10.953 -0.1260 -1.0242 -0.6913
  830MOL0     C14408   9.987   4.187  10.933 -0.4149  0.9652  0.3257
  830MOL0     C14409  10.039   4.175  10.803  0.2956  0.3371  0.3729
  830MOL0     O14410  10.167   4.207  10.770 -0.1247  0.1456 -0.0376
  830MOL0     C14411  10.275   4.214  10.868  0.8546 -0.0035 -0.0087
  830MOL0     C14412  10.308   4.068  10.916 -0.2088  0.9336 -0.6362
  830MOL0     C14413  10.413   4.059  11.026 -0.5671  0.1629  0.1637
  830MOL0     C14414  10.377   4.117  11.166  0.7768 -0.7090  0.0760
  830MOL0     C14415  10.238   4.081  11.208 -0.6246 -0.3124 -1.0974
  830MOL0     C14416  10.208   4.111  11.353  0.5105  0.3738 -0.6558
  830MOL0     C14417  10.222   4.263  11.390  0.7800 -0.5059  0.5601
  830MOL0     C14418  10.092   4.347  11.349  0.4630 -0.3187  0.7385
  830MOL0     N14419   9.963   4.279  11.385 -0.4303 -0.7708 -0.0174
  830MOL0     C14420   9.904   4.281  11.504  1.0283 -0.1392  0.3204
  830MOL0     C14421   9.780   4.238  11.473  0.8072 -0.2851  0.3601
  830MOL0     C14422   9.671   4.209  11.578 -0.9380  0.7963 -1.2233
  830MOL0     C14423   9.578   4.322  11.630 -0.2255  0.6534  0.0726
  830MOL0     C14424   9.648   4.445  11.695  0.0702 -0.6480 -0.6752
  830MOL0     C14425   9.538   4.551  11.733  0.5175 -0.6046 -0.4965
  830MOL0     O14426   9.599   4.680  11.772 -0.4657  0.4057 -0.1987
  830MOL0     C14427   9.536   4.798  11.742  1.1383  0.6899  0.7713
  830MOL0     C14428   9.401   4.803  11.709  0.7412  0.3742  1.0963
  830MOL0     C14429   9.334   4.925  11.687  0.7270 -0.1633  0.1793
  830MOL0     C14430   9.196   4.920  11.652  0.9504 -0.0642 -0.3748
  830MOL0     C14431   9.410   5.046  11.694 -0.4410 -0.4629 -0.2618
  830MOL0     C14432   9.356   5.185  11.649 -1.2422  0.0928 -0.4475
  830MOL0     O14433   9.269   5.192  11.542  0.2265 -0.0133 -0.0396
  830MOL0     C14434   9.245   5.314  11.485 -0.9594 -0.0620  0.7083
  830MOL0     C14435   9.114   5.362  11.467 -0.8298  0.7294  0.2542
  830MOL0     C14436   9.099   5.480  11.389  0.6986 -0.0954  0.8278
  830MOL0     C14437   9.205   5.559  11.343 -0.2083  0.7788  0.0858
  830MOL0     O14438   9.177   5.676  11.278  0.0394  0.6289 -0.3922
  830MOL0     C14439   9.243   5.794  11.321 -0.3445  0.4833 -0.4731
  830MOL0     C14440   9.194   5.878  11.434 -0.8250 -0.1067 -0.2327
  830MOL0     C14441   9.265   6.014  11.431 -0.0561  0.0256 -0.3727
  830MOL0     C14442   9.189   6.111  11.523 -0.6439 -0.7473 -0.4633
  830MOL0     C14443   9.242   6.256  11.526  0.2499 -0.6352 -0.2278
  830MOL0     C14444   9.157   6.334  11.632  0.3299 -0.1304  0.8602
  830MOL0     C14445   9.044   6.414  11.574 -0.4907 -0.5172  0.4001
  830MOL0     C14446   8.934   6.323  11.508  0.2970  0.0600 -0.0507
  830MOL0    Cl14447   8.807   6.409  11.420  0.3024 -0.5423 -0.3101
  830MOL0     C14448   9.333   5.513  11.373 -0.4180  0.7954 -0.1128
  830MOL0     C14449   9.365   5.393  11.441 -0.3558  0.8642  0.8844
  830MOL0     O14450   9.393   5.289  11.716  0.1575 -0.0017 -0.4027
  830MOL0     C14451   9.545   5.035  11.735  0.3830 -0.4241  0.2160
  830MOL0     C14452   9.612   4.915  11.742 -0.9019  0.7322  0.1742
  830MOL0     N14453   9.764   4.222  11.340 -0.5452 -0.2684 -0.6587
  830MOL0     N14454   9.876   4.250  11.288 -0.5578 -0.1005  0.3666
  830MOL0     C14455   9.962   4.117  10.698  0.6686 -0.9306 -0.1991
  830MOL0     C14456   9.829   4.088  10.719 -0.5267 -0.2761  0.2966
  830MOL0     C14457   9.443   3.940  10.924  0.5703 -1.1651  0.1446
  830MOL0     C14458   9.300   3.973  10.899 -0.0822  0.3983 -0.1945
  830MOL0     C14459   9.209   3.959  10.995  0.6534 -0.2548 -0.3780
  830MOL0     C14460   9.237   3.906  11.113  0.0474  0.5821  0.2548
  830MOL0     O14461   9.149   3.874  11.219  0.3391  0.1056  0.1713
  830MOL0     C14462   9.006   3.909  11.200 -0.0103  0.4950 -0.0972
  830MOL0     C14463   8.922   3.818  11.283  0.7840  0.7296 -0.4846
  830MOL0     C14464   8.777   3.863  11.283 -0.7174  0.9948  0.4891
  830MOL0     C14465   8.696   3.771  11.375  0.0912  0.5797  0.2068
  830MOL0     C14466   8.686   3.635  11.322 -0.2293 -0.9345  1.0515
  830MOL0     C14467   8.687   3.529  11.261  0.1881 -0.5530 -0.3829
  830MOL0     C14468   9.362   3.869  11.135 -0.9169 -0.2641 -0.8903
  830MOL0     C14469   9.472   3.887  11.051  0.2154  0.0085 -0.7627
  830MOL0     C14470   9.610   3.860  11.098  0.4714  1.2048  1.0959
  830MOL0     H14471   9.811   4.128  11.051 -0.6854  1.9878 -0.7416
  830MOL0     H14472  10.047   4.222  11.016  1.1034 -0.6599 -0.0220
  830MOL0     H14473  10.249   4.258  10.964  2.4260 -2.0519  1.4426
  830MOL0     H14474  10.358   4.261  10.815  0.1273 -0.5988 -1.7615
  830MOL0     H14475  10.213   4.019  10.941 -0.4167  2.3200  1.6075
  830MOL0     H14476  10.359   4.012  10.837 -2.7962  0.0229 -1.7784
  830MOL0     H14477  10.443   3.954  11.028 -0.7130  0.1156 -0.0511
  830MOL0     H14478  10.501   4.111  10.987 -0.3030  0.1215  0.7033
  830MOL0     H14479  10.449   4.083  11.242  4.3027  0.5424 -2.4437
  830MOL0     H14480  10.379   4.226  11.162  0.1298 -0.6561  0.8916
  830MOL0     H14481  10.215   3.974  11.199 -1.7474  0.0490 -3.3382
  830MOL0     H14482  10.162   4.131  11.146 -0.5023  0.9799 -0.2329
  830MOL0     H14483  10.106   4.076  11.375  0.3161  0.1008 -1.9316
  830MOL0     H14484  10.271   4.050  11.418 -0.4679  2.0864  2.0856
  830MOL0     H14485  10.311   4.318  11.358 -0.1324  0.4327 -0.4754
  830MOL0     H14486  10.221   4.270  11.499  0.3310 -1.5232  0.6241
  830MOL0     H14487  10.107   4.447  11.390  4.2700  0.9373 -2.9891
  830MOL0     H14488  10.092   4.345  11.239 -3.0108  1.1240  0.5838
  830MOL0     H14489   9.948   4.306  11.600  0.1828  1.3705  0.3402
  830MOL0     H14490   9.715   4.157  11.663 -2.3417 -1.3988 -1.7503
  830MOL0     H14491   9.608   4.124  11.549  1.4287 -2.2796  1.8685
  830MOL0     H14492   9.534   4.366  11.541 -0.0369  1.1219  0.2084
  830MOL0     H14493   9.501   4.276  11.693 -2.3090  1.6061 -1.6662
  830MOL0     H14494   9.707   4.417  11.783 -1.6728  1.4879  1.3201
  830MOL0     H14495   9.708   4.497  11.620  0.2958 -0.1701 -0.1748
  830MOL0     H14496   9.484   4.556  11.638  2.7957 -0.4238 -1.8471
  830MOL0     H14497   9.478   4.504  11.812  0.1806  0.0715 -0.3402
  830MOL0     H14498   9.339   4.714  11.717 -0.9725  1.3193 -0.7446
  830MOL0     H14499   9.142   4.828  11.675 -0.5215  0.7871 -0.3228
  830MOL0     H14500   9.173   4.958  11.552 -0.0096  0.0445 -0.1191
  830MOL0     H14501   9.157   4.996  11.720  1.7248 -0.2773  0.3231
  830MOL0     H14502   9.033   5.307  11.514 -0.6347  0.0341 -0.2042
  830MOL0     H14503   9.004   5.518  11.352  1.3738 -0.5322 -1.4915
  830MOL0     H14504   9.348   5.772  11.341 -0.9008 -1.2899  0.6718
  830MOL0     H14505   9.251   5.857  11.232  1.0322 -0.4141 -1.0069
  830MOL0     H14506   9.084   5.882  11.432 -0.8941 -1.5810 -0.1269
  830MOL0     H14507   9.234   5.836  11.526  1.4757  2.2932 -0.0262
  830MOL0     H14508   9.262   6.052  11.329  2.6785  1.4850 -0.0260
  830MOL0     H14509   9.370   6.005  11.463 -0.9987 -1.6406  2.7412
  830MOL0     H14510   9.177   6.062  11.619  1.1201 -0.3030  0.0170
  830MOL0     H14511   9.086   6.116  11.486 -0.5293  2.2144 -0.6314
  830MOL0     H14512   9.346   6.258  11.560 -0.1416  0.4340  0.9692
  830MOL0     H14513   9.238   6.303  11.428  1.3420 -2.1256 -1.0376
  830MOL0     H14514   9.228   6.404  11.676  3.1711 -2.2136 -0.0941
  830MOL0     H14515   9.127   6.265  11.712 -0.6524  1.4416  1.9102
  830MOL0     H14516   9.079   6.477  11.492  0.5540  0.5545  1.6288
  830MOL0     H14517   9.002   6.484  11.647  1.2988  1.0373  0.0118
  830MOL0     H14518   8.882   6.255  11.576  1.1198  1.4389  2.0662
  830MOL0     H14519   8.984   6.261  11.434 -2.2125 -0.0234 -1.8057
  830MOL0     H14520   9.421   5.561  11.330  0.9893 -1.8521 -0.4447
  830MOL0     H14521   9.464   5.351  11.454  0.7777  3.0658 -0.0461
  830MOL0     H14522   9.610   5.120  11.750  2.6138 -2.2783  1.7293
  830MOL0     H14523   9.719   4.924  11.760  0.0443 -0.4686 -3.7961
  830MOL0     H14524  10.004   4.105  10.599 -1.3348 -1.0369 -1.0731
  830MOL0     H14525   9.786   4.032  10.636  1.3067  0.2865 -1.0975
  830MOL0     H14526   9.260   4.024  10.812  0.5232  0.7759 -0.2621
  830MOL0     H14527   9.114   3.996  10.958  0.9608  1.4726  0.4464
  830MOL0     H14528   8.989   4.010  11.236 -0.6384  0.9250 -1.5484
  830MOL0     H14529   8.977   3.907  11.094  0.5005  5.8828 -0.6010
  830MOL0     H14530   8.954   3.808  11.387 -0.2656 -0.3747 -0.2477
  830MOL0     H14531   8.919   3.715  11.246  0.4225  1.9313 -4.1881
  830MOL0     H14532   8.773   3.965  11.324  0.1252  1.6525 -0.9588
  830MOL0     H14533   8.726   3.864  11.186  2.9640 -1.1290 -1.6978
  830MOL0     H14534   8.596   3.817  11.382 -1.5535 -2.9312  2.7375
  830MOL0     H14535   8.739   3.767  11.475 -0.0915 -3.5556  0.2684
  830MOL0     H14536   8.708   3.433  11.219 -1.6838 -0.2377 -2.2404
  830MOL0     H14537   9.375   3.816  11.229  1.3784 -0.0368 -1.0470
  830MOL0     H14538   9.673   3.834  11.012  2.1554  1.3052  2.2445
  830MOL0     H14539   9.650   3.950  11.147  1.9435  2.7879 -2.6001
  830MOL0     H14540   9.613   3.772  11.163  0.1529  0.1338 -0.2894
  831MOL0     O14541   1.827   6.878   1.260 -0.4263 -0.1876  0.1083
  831MOL0     C14542   1.929   6.835   1.325 -0.2255  0.6649  0.2384
  831MOL0     O14543   2.028   6.910   1.369  0.3589 -0.0473 -0.4558
  831MOL0     C14544   2.032   7.041   1.328  0.4023 -0.1103  0.4619
  831MOL0     C14545   2.053   7.079   1.188  0.4962  0.2180 -0.5354
  831MOL0     C14546   2.064   7.213   1.145 -0.2253 -0.5148  0.6719
  831MOL0     C14547   2.066   7.313   1.238 -0.4791 -0.7657 -0.1642
  831MOL0     O14548   2.058   7.445   1.193 -0.1625 -0.0914  0.0382
  831MOL0     C14549   2.178   7.514   1.153 -0.2960  0.4517  0.7774
  831MOL0     C14550   2.219   7.633   1.232 -0.3287 -0.1916  0.3532
  831MOL0     C14551   2.374   7.663   1.218  0.5898  0.5132 -0.0329
  831MOL0     C14552   2.447   7.753   1.322 -0.0105 -0.9810  0.0399
  831MOL0     C14553   2.608   7.764   1.302  1.6371  1.5390 -0.5760
  831MOL0     C14554   2.646   7.860   1.192  1.0360 -1.0085 -0.2946
  831MOL0     C14555   2.789   7.909   1.209  0.7979  0.1944 -0.0063
  831MOL0     C14556   2.792   8.016   1.322 -0.6956  0.1507  0.2362
  831MOL0     N14557   2.763   8.153   1.284 -0.4386  0.1963  0.3846
  831MOL0     C14558   2.634   8.207   1.275 -0.4984 -0.6147  0.9098
  831MOL0     C14559   2.654   8.339   1.241 -0.6367  0.4158 -0.0109
  831MOL0     C14560   2.551   8.444   1.206 -0.4188 -0.0383  0.4151
  831MOL0     C14561   2.434   8.479   1.302 -0.1577  0.9202 -0.7862
  831MOL0     C14562   2.325   8.565   1.233  0.2695  0.0053 -0.3529
  831MOL0     C14563   2.380   8.696   1.178 -0.2521 -0.5303  0.1155
  831MOL0     O14564   2.281   8.798   1.160  0.1500 -0.7684  0.0789
  831MOL0     C14565   2.224   8.803   1.032  0.1008 -0.1897 -0.1793
  831MOL0     C14566   2.113   8.893   1.019 -0.2400 -0.3023 -0.7459
  831MOL0     C14567   2.048   8.911   0.903  0.1502  0.1660  0.5587
  831MOL0     C14568   1.930   9.013   0.915  0.2791 -0.4001 -0.0896
  831MOL0     C14569   2.084   8.844   0.783  0.3964  0.2755  0.5943
  831MOL0     C14570   2.024   8.863   0.646 -0.0496  0.7278 -0.4138
  831MOL0     O14571   1.973   8.984   0.625 -0.6938 -0.5721  0.4820
  831MOL0     C14572   1.944   9.002   0.490 -0.1038 -0.4431  0.6853
  831MOL0     C14573   1.817   9.010   0.433 -0.0053  0.1318 -0.1187
  831MOL0     C14574   1.804   9.045   0.300  0.5111 -1.1558 -0.5126
  831MOL0     C14575   1.906   9.085   0.221 -0.3379 -0.5959  0.4038
  831MOL0     O14576   1.879   9.134   0.098 -0.1111 -0.4459 -0.5827
  831MOL0     C14577   1.955   9.081  -0.008 -0.5100 -0.2548  0.8222
  831MOL0     C14578   1.860   9.088  -0.131 -0.6478 -0.3715  0.2833
  831MOL0     C14579   1.881   9.229  -0.200 -0.6086 -0.3698  0.2049
  831MOL0     C14580   1.759   9.321  -0.156 -0.5361 -0.4216  0.0398
  831MOL0     C14581   1.773   9.450  -0.244  0.3860 -0.1713 -0.1176
  831MOL0     C14582   1.705   9.572  -0.165 -0.5987  0.8652 -0.4729
  831MOL0     C14583   1.695   9.697  -0.264  0.5468 -0.6487 -0.7855
  831MOL0     C14584   1.820   9.747  -0.336  0.1348  0.8342  0.6164
  831MOL0    Cl14585   1.786   9.881  -0.440 -0.3308 -0.8778 -0.1909
  831MOL0     C14586   2.038   9.075   0.277 -0.5152 -0.0020 -0.5875
  831MOL0     C14587   2.054   9.037   0.412 -0.5231 -0.5726 -0.2994
  831MOL0     O14588   2.024   8.764   0.573  0.0344 -0.1688  1.0274
  831MOL0     C14589   2.179   8.738   0.799  0.0545 -0.4862 -0.1229
  831MOL0     C14590   2.247   8.720   0.919  0.2716 -0.3345 -0.3805
  831MOL0     N14591   2.791   8.358   1.235 -0.6557 -0.0540  0.0994
  831MOL0     N14592   2.856   8.248   1.251 -0.6724  0.3800  0.2836
  831MOL0     C14593   2.052   7.282   1.368 -0.5720 -0.2862 -0.2968
  831MOL0     C14594   2.035   7.145   1.417  0.5008 -0.8589 -0.3060
  831MOL0     C14595   1.934   6.693   1.344  0.0851 -0.5865  1.1241
  831MOL0     C14596   1.841   6.614   1.263 -0.6918  0.6596 -0.0889
  831MOL0     C14597   1.832   6.476   1.279  0.5228  0.0537 -0.5802
  831MOL0     C14598   1.919   6.408   1.372  2.1052 -0.0406  0.7718
  831MOL0     O14599   1.919   6.269   1.385 -0.5402 -0.5380  0.0048
  831MOL0     C14600   1.873   6.175   1.291 -0.5067 -0.0092 -0.3501
  831MOL0     C14601   1.736   6.113   1.326 -1.3261  0.3875  0.2591
  831MOL0     C14602   1.731   6.031   1.456 -1.0883 -0.2940  1.1220
  831MOL0     C14603   1.808   5.901   1.440 -0.5923 -0.2188  0.2690
  831MOL0     C14604   1.808   5.831   1.308 -0.1246 -0.1963 -0.1679
  831MOL0     C14605   1.771   5.762   1.213  0.1402 -0.3130  0.7644
  831MOL0     C14606   2.014   6.485   1.441  0.1158  0.9406  0.4865
  831MOL0     C14607   2.018   6.621   1.429  0.7443  0.2266 -0.6450
  831MOL0     C14608   2.116   6.676   1.524  0.2828 -1.2594  0.0019
  831MOL0     H14609   2.058   7.004   1.110  1.1194 -1.9033  1.4674
  831MOL0     H14610   2.074   7.233   1.039  0.2510 -2.0075  0.4134
  831MOL0     H14611   2.176   7.545   1.048  2.7830 -0.9603  0.1865
  831MOL0     H14612   2.256   7.437   1.160 -1.8170 -1.1351  0.9491
  831MOL0     H14613   2.157   7.714   1.193 -0.8330 -0.8278 -0.1863
  831MOL0     H14614   2.192   7.624   1.338 -1.6328  2.7116  0.3886
  831MOL0     H14615   2.429   7.569   1.219  0.7870  0.6050 -1.4669
  831MOL0     H14616   2.386   7.709   1.120 -0.4578  0.5069 -0.1728
  831MOL0     H14617   2.407   7.854   1.327 -2.0592 -1.6775 -1.2784
  831MOL0     H14618   2.429   7.714   1.423 -0.8612 -2.4673 -0.6444
  831MOL0     H14619   2.636   7.667   1.259 -0.6136  0.8034 -0.5156
  831MOL0     H14620   2.659   7.776   1.398  1.1777 -1.4170  0.1652
  831MOL0     H14621   2.646   7.804   1.099  4.3412  0.0880 -1.0839
  831MOL0     H14622   2.581   7.948   1.184  0.7887 -0.6468  3.5875
  831MOL0     H14623   2.827   7.941   1.111 -0.7949  1.0462 -0.3876
  831MOL0     H14624   2.843   7.827   1.257 -1.6149 -0.6066  1.5582
  831MOL0     H14625   2.719   7.981   1.396  0.9898  0.8945  2.3978
  831MOL0     H14626   2.886   8.023   1.379 -0.6890  2.7138  0.0281
  831MOL0     H14627   2.542   8.149   1.274  0.7333 -2.7060 -1.1043
  831MOL0     H14628   2.516   8.416   1.106 -0.0578 -1.1872  0.5981
  831MOL0     H14629   2.612   8.534   1.190 -0.0405 -0.2161  0.8694
  831MOL0     H14630   2.377   8.391   1.334 -1.7658  2.0529 -0.4272
  831MOL0     H14631   2.482   8.528   1.387  2.0105 -1.2464 -0.6295
  831MOL0     H14632   2.277   8.515   1.148  0.5342 -0.2072 -0.3765
  831MOL0     H14633   2.239   8.588   1.297 -0.3252  0.4370 -1.2815
  831MOL0     H14634   2.441   8.749   1.252  1.2342 -2.9932  0.7383
  831MOL0     H14635   2.444   8.674   1.093  0.1629 -2.4441  0.8904
  831MOL0     H14636   2.089   8.961   1.100  0.7283 -0.7970 -0.0230
  831MOL0     H14637   1.851   8.995   0.841  0.1157 -1.6201  0.3666
  831MOL0     H14638   1.972   9.113   0.904  0.3009 -0.5236 -1.1700
  831MOL0     H14639   1.885   9.013   1.015 -1.5749  1.1580 -0.8577
  831MOL0     H14640   1.726   8.989   0.489 -0.4301  1.9131 -0.0612
  831MOL0     H14641   1.700   9.056   0.270  0.6692  1.3473 -0.3265
  831MOL0     H14642   2.041   9.147  -0.025 -2.9389  2.5453 -2.1056
  831MOL0     H14643   1.977   8.978   0.018 -1.8333 -0.5949  0.6756
  831MOL0     H14644   1.887   9.014  -0.207 -0.0875  0.0541  0.0593
  831MOL0     H14645   1.757   9.087  -0.096 -0.8198 -0.9248 -0.2129
  831MOL0     H14646   1.878   9.206  -0.306 -0.8267 -1.8553  0.5042
  831MOL0     H14647   1.978   9.278  -0.185 -1.0073 -0.3639  3.5137
  831MOL0     H14648   1.772   9.333  -0.048 -1.3323 -4.0292  0.6523
  831MOL0     H14649   1.659   9.281  -0.176 -0.9971  1.0120 -0.6749
  831MOL0     H14650   1.881   9.465  -0.258  1.3434 -4.0701  1.6290
  831MOL0     H14651   1.730   9.458  -0.344  2.3231  0.9628 -0.9229
  831MOL0     H14652   1.762   9.604  -0.078 -0.2203  0.8494 -0.7096
  831MOL0     H14653   1.614   9.531  -0.120  0.4412 -1.8744 -0.6324
  831MOL0     H14654   1.672   9.773  -0.189  0.0042 -2.0047  0.4874
  831MOL0     H14655   1.598   9.686  -0.313  0.6198 -0.7659 -0.9043
  831MOL0     H14656   1.871   9.666  -0.390  0.2886 -0.6405  2.8635
  831MOL0     H14657   1.887   9.779  -0.256  1.4435 -0.8170  0.2636
  831MOL0     H14658   2.128   9.112   0.228  1.2482  1.5310  3.3556
  831MOL0     H14659   2.149   9.040   0.465 -0.6806 -2.2207  0.1412
  831MOL0     H14660   2.214   8.682   0.713 -1.7522  0.9297 -1.8720
  831MOL0     H14661   2.321   8.641   0.924  0.3969 -0.2303 -0.6351
  831MOL0     H14662   2.062   7.369   1.432  0.1170  2.1587 -3.4890
  831MOL0     H14663   2.036   7.124   1.523 -1.1935  0.6009  0.0326
  831MOL0     H14664   1.775   6.669   1.197 -0.0022 -1.0919 -2.3632
  831MOL0     H14665   1.752   6.433   1.219  2.0364 -0.3812 -2.3628
  831MOL0     H14666   1.874   6.225   1.194 -0.2796  3.2414  1.1955
  831MOL0     H14667   1.952   6.101   1.276 -1.2843 -0.4915 -2.5209
  831MOL0     H14668   1.710   6.055   1.237  0.5153 -1.7578  1.0059
  831MOL0     H14669   1.664   6.195   1.327 -1.5399  0.2917 -1.8358
  831MOL0     H14670   1.758   6.097   1.539 -0.7092  0.0378  0.7343
  831MOL0     H14671   1.625   6.008   1.473 -1.6875  3.0491  2.7312
  831MOL0     H14672   1.781   5.839   1.526 -0.4898 -3.2094 -1.7070
  831MOL0     H14673   1.914   5.927   1.450  0.5314 -3.2045 -2.0378
  831MOL0     H14674   1.737   5.688   1.144 -3.1325  0.7208  1.1114
  831MOL0     H14675   2.079   6.424   1.502  1.2531  0.3230 -1.2638
  831MOL0     H14676   2.080   6.690   1.626  1.8479  2.0996  0.2373
  831MOL0     H14677   2.208   6.617   1.517  3.3698  3.1204 -0.4176
  831MOL0     H14678   2.145   6.778   1.498  0.4950 -0.8228  1.8353
  832MOL0     O14679   6.943  10.196   4.226  0.6686 -0.3671 -0.7094
  832MOL0     C14680   7.070  10.186   4.233 -0.0355 -1.1340 -0.0200
  832MOL0     O14681   7.156  10.255   4.152  0.5215 -0.2909  0.5455
  832MOL0     C14682   7.079  10.344   4.074  0.4230  0.2566 -0.7910
  832MOL0     C14683   7.009  10.310   3.955 -0.0064 -0.0272 -0.2302
  832MOL0     C14684   6.964  10.402   3.867  0.6544  0.2918  0.1737
  832MOL0     C14685   6.972  10.544   3.899 -0.5360 -0.0835 -0.4019
  832MOL0     O14686   6.918  10.630   3.805  0.2778 -0.4887 -0.3606
  832MOL0     C14687   6.907  10.766   3.847  0.0382 -0.4002  0.5591
  832MOL0     C14688   6.860  10.849   3.726  0.3983 -0.1461  0.5017
  832MOL0     C14689   6.872  10.992   3.738  1.2276 -0.2899  0.4127
  832MOL0     C14690   6.890  11.059   3.600  0.7958  0.0522  0.0757
  832MOL0     C14691   6.880  11.224   3.610  0.1819  0.8962  0.7736
  832MOL0     C14692   6.970  11.287   3.504  0.6771  0.0723 -0.9521
  832MOL0     C14693   6.972  11.443   3.525  0.5625 -0.0358  0.1075
  832MOL0     C14694   6.834  11.504   3.520 -0.3199 -0.9496  0.2186
  832MOL0     N14695   6.838  11.647   3.551  0.2025  0.5665 -0.6322
  832MOL0     C14696   6.895  11.698   3.663  0.2726 -0.4565  0.1577
  832MOL0     C14697   6.860  11.821   3.679  0.4452 -0.2922 -0.0373
  832MOL0     C14698   6.889  11.913   3.797 -0.4100 -0.0820  0.0437
  832MOL0     C14699   6.863  11.847   3.935 -0.9790 -0.6449  0.6970
  832MOL0     C14700   6.730  11.773   3.947 -0.4937  0.4818  0.4108
  832MOL0     C14701   6.729  11.660   4.062  0.3358  0.3353  0.2486
  832MOL0     O14702   6.813  11.547   4.026  0.6523 -0.6339 -0.5874
  832MOL0     C14703   6.827  11.446   4.118 -0.9722 -1.0783  0.6801
  832MOL0     C14704   6.800  11.464   4.263  0.3312 -0.1038  0.8016
  832MOL0     C14705   6.836  11.359   4.353  0.2362 -0.0678  0.1682
  832MOL0     C14706   6.795  11.392   4.494  0.9340 -0.2120  0.5797
  832MOL0     C14707   6.890  11.237   4.302  0.0628 -1.0666 -0.5672
  832MOL0     C14708   6.909  11.112   4.388  0.4682  0.1815  0.3720
  832MOL0     O14709   6.963  10.994   4.330 -0.0550  0.2566  0.4121
  832MOL0     C14710   6.983  10.882   4.406  0.2169 -0.5391 -0.6210
  832MOL0     C14711   6.917  10.766   4.367 -0.0687  0.4035  0.2138
  832MOL0     C14712   6.958  10.636   4.404 -0.3436 -0.2571  0.2266
  832MOL0     C14713   7.074  10.611   4.483  0.0464 -0.0728 -0.2015
  832MOL0     O14714   7.107  10.480   4.505 -0.4760 -0.5862 -0.7779
  832MOL0     C14715   7.237  10.445   4.565  0.4390 -0.1308  0.6504
  832MOL0     C14716   7.277  10.305   4.549 -0.1538  0.6298 -0.7441
  832MOL0     C14717   7.424  10.284   4.606  0.5139  0.4247  0.7853
  832MOL0     C14718   7.468  10.132   4.584  0.0662  0.6260 -0.0813
  832MOL0     C14719   7.613  10.103   4.636  0.3908  1.1545 -0.4272
  832MOL0     C14720   7.731  10.175   4.573 -0.7529 -0.8422 -0.3920
  832MOL0     C14721   7.858  10.104   4.568  0.4574  0.0824 -0.0212
  832MOL0     C14722   7.959  10.190   4.499 -0.7583 -0.3945  0.2194
  832MOL0    Cl14723   7.928  10.219   4.322  0.0212  0.0793  0.1130
  832MOL0     C14724   7.129  10.725   4.532 -0.6503  0.9579 -0.0264
  832MOL0     C14725   7.090  10.863   4.499 -0.2005  0.3737  0.5087
  832MOL0     O14726   6.867  11.117   4.505  0.9441  0.7160  0.7987
  832MOL0     C14727   6.924  11.231   4.162  0.4180  0.0563 -0.6238
  832MOL0     C14728   6.898  11.333   4.069  1.4031  0.1482 -0.6046
  832MOL0     N14729   6.783  11.861   3.570  0.8421 -0.3077  0.1702
  832MOL0     N14730   6.771  11.752   3.490 -0.4944 -0.6233  1.0339
  832MOL0     C14731   7.050  10.584   4.011  0.8429  0.2922 -0.3341
  832MOL0     C14732   7.097  10.487   4.107 -0.9173  0.3113 -0.5298
  832MOL0     C14733   7.122  10.073   4.319  0.4776  0.7325 -0.0033
  832MOL0     C14734   7.244  10.017   4.262  0.1761  1.5192  0.0121
  832MOL0     C14735   7.306   9.911   4.336 -0.1890  0.1359  0.8462
  832MOL0     C14736   7.264   9.868   4.454  0.0478  0.0915 -0.7193
  832MOL0     O14737   7.338   9.763   4.509 -0.4793  0.0491  0.6746
  832MOL0     C14738   7.298   9.681   4.623  0.5184 -0.1543  0.5847
  832MOL0     C14739   7.415   9.691   4.727 -0.5044 -0.3371  0.5957
  832MOL0     C14740   7.559   9.655   4.679  0.5260 -0.4914  0.0156
  832MOL0     C14741   7.564   9.510   4.625 -0.3570 -0.6947 -0.1837
  832MOL0     C14742   7.704   9.467   4.620 -0.9337  0.1770 -0.2328
  832MOL0     C14743   7.809   9.410   4.633  0.2126  0.2917 -0.5938
  832MOL0     C14744   7.147   9.923   4.507 -0.5904  0.6295  0.4732
  832MOL0     C14745   7.066  10.022   4.443 -0.3686 -0.1744  0.1558
  832MOL0     C14746   6.954  10.092   4.525  0.5335  0.0027  0.3140
  832MOL0     H14747   6.994  10.216   3.904 -0.6741  0.5795 -1.1860
  832MOL0     H14748   6.917  10.372   3.774 -0.4492  2.0761  0.1032
  832MOL0     H14749   7.002  10.807   3.879  0.7468 -2.2397  0.9526
  832MOL0     H14750   6.824  10.772   3.918 -3.2090  2.1359 -3.0270
  832MOL0     H14751   6.920  10.807   3.644  1.4916 -0.3185  1.3823
  832MOL0     H14752   6.752  10.835   3.718  0.3290  0.6986 -0.1515
  832MOL0     H14753   6.783  11.026   3.790  0.8241 -0.6302 -0.0436
  832MOL0     H14754   6.953  11.016   3.808 -1.0889 -1.3335  3.6981
  832MOL0     H14755   6.984  11.023   3.559 -0.0874  0.7314 -2.8069
  832MOL0     H14756   6.818  11.023   3.527  2.2872 -1.0800 -0.8769
  832MOL0     H14757   6.916  11.256   3.708  3.7099 -0.6149  0.1100
  832MOL0     H14758   6.777  11.259   3.595  1.5765  6.0378  1.1210
  832MOL0     H14759   7.075  11.264   3.522  0.4240  0.5686  1.4455
  832MOL0     H14760   6.948  11.249   3.404  2.0220  1.0937 -1.6713
  832MOL0     H14761   7.030  11.494   3.448 -0.1833  1.9593  0.8031
  832MOL0     H14762   7.006  11.457   3.628  1.9564 -0.7809 -0.2408
  832MOL0     H14763   6.807  11.474   3.418  0.4267 -5.2600  1.0846
  832MOL0     H14764   6.755  11.458   3.580 -0.6549 -0.6507  0.0127
  832MOL0     H14765   6.949  11.642   3.738  0.1296 -0.1965  0.4572
  832MOL0     H14766   6.813  11.991   3.794 -0.5952 -0.2610  0.0136
  832MOL0     H14767   6.986  11.962   3.788  0.9276 -2.7876 -1.6079
  832MOL0     H14768   6.948  11.778   3.946 -1.0442 -1.1638 -1.5377
  832MOL0     H14769   6.867  11.917   4.019  1.5592 -0.7911  0.7852
  832MOL0     H14770   6.647  11.844   3.949 -1.4880 -0.4246 -2.7372
  832MOL0     H14771   6.714  11.712   3.857 -2.4808  0.2076  0.9198
  832MOL0     H14772   6.763  11.710   4.153 -0.0974  0.2463  0.4592
  832MOL0     H14773   6.623  11.636   4.075 -0.3072  2.1627 -1.1667
  832MOL0     H14774   6.742  11.548   4.299 -3.7394 -0.8590 -3.1191
  832MOL0     H14775   6.761  11.496   4.494  4.0934  0.9550  1.6789
  832MOL0     H14776   6.888  11.384   4.552  2.9597 -1.0210 -2.5091
  832MOL0     H14777   6.714  11.327   4.530  1.0475 -1.3518 -1.1064
  832MOL0     H14778   6.840  10.771   4.290  0.1278  1.5667  0.0796
  832MOL0     H14779   6.910  10.551   4.355  2.5420 -1.6039 -0.4928
  832MOL0     H14780   7.317  10.500   4.514  2.8352 -0.6766  3.5238
  832MOL0     H14781   7.249  10.479   4.668 -0.4318  1.4925  0.2541
  832MOL0     H14782   7.208  10.249   4.613  1.0779  1.1714  1.1536
  832MOL0     H14783   7.272  10.273   4.445  1.4089 -0.2952 -0.5582
  832MOL0     H14784   7.422  10.303   4.714 -0.4363 -1.4743  1.1510
  832MOL0     H14785   7.488  10.354   4.552 -3.5748 -0.4143 -6.5378
  832MOL0     H14786   7.463  10.113   4.477 -2.4661  2.7672 -0.4339
  832MOL0     H14787   7.401  10.069   4.645 -0.9858  2.5121  0.7834
  832MOL0     H14788   7.625  10.129   4.741  2.9316 -0.5406 -0.2309
  832MOL0     H14789   7.627   9.994   4.627 -1.6898  0.9558 -2.2923
  832MOL0     H14790   7.737  10.273   4.622 -1.9275 -1.5101  1.1761
  832MOL0     H14791   7.698  10.186   4.469  0.5689  0.5111 -0.7122
  832MOL0     H14792   7.848  10.015   4.505  1.2040 -0.6016  0.8091
  832MOL0     H14793   7.887  10.080   4.671 -1.1068  0.8452  0.6246
  832MOL0     H14794   8.059  10.147   4.508 -1.1248 -1.4868 -0.6403
  832MOL0     H14795   7.958  10.287   4.550  1.7559 -1.7029  3.0830
  832MOL0     H14796   7.213  10.707   4.599 -1.4812 -0.1027  0.7809
  832MOL0     H14797   7.142  10.946   4.545  2.5561 -2.0096  2.0578
  832MOL0     H14798   6.960  11.136   4.123  0.2443  0.5208 -1.9756
  832MOL0     H14799   6.924  11.318   3.965  0.3334 -1.0908 -0.7145
  832MOL0     H14800   7.083  10.686   4.032 -2.4632  0.9623  2.7129
  832MOL0     H14801   7.147  10.523   4.197  2.4819 -2.1901 -1.2265
  832MOL0     H14802   7.289  10.040   4.166 -0.1111 -1.3460 -0.9044
  832MOL0     H14803   7.386   9.852   4.293 -1.5579 -1.3026  0.1531
  832MOL0     H14804   7.200   9.708   4.663 -0.3123 -3.8879  1.5533
  832MOL0     H14805   7.286   9.577   4.591  0.2564 -1.1588  3.5913
  832MOL0     H14806   7.389   9.621   4.808 -0.6453  1.7772  2.4770
  832MOL0     H14807   7.415   9.790   4.773  2.4183 -0.5365  1.2291
  832MOL0     H14808   7.595   9.726   4.603 -0.9446  1.3335  0.9346
  832MOL0     H14809   7.618   9.670   4.770 -0.3201 -0.7367  0.6158
  832MOL0     H14810   7.522   9.509   4.524  1.9214 -0.3982 -1.1862
  832MOL0     H14811   7.513   9.431   4.681 -2.8493 -0.1731 -1.5685
  832MOL0     H14812   7.897   9.351   4.645  0.4649  0.4996 -1.3402
  832MOL0     H14813   7.120   9.882   4.604  1.3496 -3.6478 -0.5568
  832MOL0     H14814   6.864  10.043   4.487  3.3765 -5.1430 -0.8312
  832MOL0     H14815   6.959  10.081   4.634 -1.8401  1.3165  0.6126
  832MOL0     H14816   6.962  10.196   4.491 -0.5155  0.6229  1.8669
  833MOL0     O14817   8.746   4.076   5.978  0.5888  0.0631  0.0435
  833MOL0     C14818   8.692   4.183   6.002 -0.7405  0.6370 -0.1475
  833MOL0     O14819   8.626   4.225   6.118  0.0594  0.0595  0.6840
  833MOL0     C14820   8.610   4.134   6.224 -0.5155  0.9669  0.5376
  833MOL0     C14821   8.643   4.191   6.350 -0.3506 -0.1822 -0.5561
  833MOL0     C14822   8.647   4.104   6.474 -0.2459 -0.1829 -0.4381
  833MOL0     C14823   8.621   3.968   6.466  1.4736 -0.6900  0.8727
  833MOL0     O14824   8.590   3.881   6.568 -0.1631  0.0758  0.0954
  833MOL0     C14825   8.543   3.948   6.689  0.4775  0.9440  0.0402
  833MOL0     C14826   8.645   3.941   6.791 -0.0948 -0.7358 -0.3616
  833MOL0     C14827   8.680   3.802   6.822  0.5633 -0.4751  0.2131
  833MOL0     C14828   8.827   3.808   6.870 -0.1895 -0.0725 -0.8164
  833MOL0     C14829   8.874   3.664   6.900  0.6475 -0.2869  0.3629
  833MOL0     C14830   8.948   3.666   7.041 -0.2208 -0.7902  0.1722
  833MOL0     C14831   9.081   3.735   7.014 -0.2163 -1.4017  0.6642
  833MOL0     C14832   9.188   3.643   6.964 -0.8269 -0.6090  0.0010
  833MOL0     N14833   9.316   3.682   7.013  0.6107 -0.5180  0.2841
  833MOL0     C14834   9.367   3.675   7.140 -0.1965  0.3160  0.4309
  833MOL0     C14835   9.498   3.708   7.137  0.3835 -0.5440  0.0213
  833MOL0     C14836   9.602   3.710   7.244  0.9830 -0.3957 -0.1726
  833MOL0     C14837   9.736   3.787   7.207 -0.0885 -0.2861 -0.0219
  833MOL0     C14838   9.779   3.887   7.323 -0.6634  0.1155  0.0987
  833MOL0     C14839   9.888   3.986   7.282 -0.6584  0.1260  0.2656
  833MOL0     O14840   9.834   4.084   7.198 -0.5154 -0.3431  0.1457
  833MOL0     C14841   9.927   4.183   7.156 -0.0756  0.1337  0.4717
  833MOL0     C14842  10.059   4.192   7.189  0.6681  1.0078  0.5354
  833MOL0     C14843  10.147   4.299   7.150  1.3353  0.4970  0.2983
  833MOL0     C14844  10.281   4.313   7.215  0.4709 -0.0096 -0.1786
  833MOL0     C14845  10.097   4.398   7.067  1.2506 -0.0118 -0.5212
  833MOL0     C14846  10.162   4.525   7.027 -0.3311 -0.4074  0.4709
  833MOL0     O14847  10.146   4.570   6.899  0.5350 -0.3050 -0.4468
  833MOL0     C14848  10.192   4.689   6.843 -1.1237  0.0101  0.5124
  833MOL0     C14849  10.253   4.791   6.905  0.3207 -0.4598  0.7091
  833MOL0     C14850  10.287   4.913   6.833  0.7448  0.4237  0.1227
  833MOL0     C14851  10.262   4.917   6.699  0.0921  0.9388  0.6008
  833MOL0     O14852  10.290   5.026   6.629 -0.9845  0.5329 -0.1386
  833MOL0     C14853  10.240   5.154   6.671  0.2033  0.1865  0.8194
  833MOL0     C14854  10.105   5.188   6.606  0.0928 -0.2789 -1.0100
  833MOL0     C14855  10.114   5.232   6.460 -0.6127 -0.6852 -0.5293
  833MOL0     C14856  10.143   5.384   6.437  0.1342  0.0382 -0.9083
  833MOL0     C14857  10.141   5.421   6.293  0.3601 -0.0460  0.1257
  833MOL0     C14858  10.096   5.561   6.264 -0.6409  0.8557  0.0254
  833MOL0     C14859  10.196   5.660   6.333 -0.9054 -0.1080  0.4484
  833MOL0     C14860  10.294   5.712   6.228 -1.3180  0.4506 -0.2585
  833MOL0    Cl14861  10.408   5.831   6.301 -0.3721  0.0175 -0.4991
  833MOL0     C14862  10.226   4.808   6.630 -0.0036  0.2149  0.4386
  833MOL0     C14863  10.185   4.693   6.706 -0.2411 -0.5965  0.4691
  833MOL0     O14864  10.237   4.580   7.114  0.9666 -0.2421  0.2438
  833MOL0     C14865   9.960   4.389   7.035  0.0238 -0.3100 -0.7912
  833MOL0     C14866   9.882   4.286   7.072 -0.2400 -0.9241  0.7805
  833MOL0     N14867   9.526   3.731   7.003  0.1878  0.2836  0.6822
  833MOL0     N14868   9.413   3.723   6.931 -0.6161 -0.5254  0.1714
  833MOL0     C14869   8.590   3.917   6.333  0.2625 -0.0657  0.2066
  833MOL0     C14870   8.585   3.996   6.222  0.0353 -0.3843  0.2088
  833MOL0     C14871   8.682   4.287   5.896 -0.2893  0.2635  0.6518
  833MOL0     C14872   8.639   4.410   5.931 -0.3052  1.0600 -0.4780
  833MOL0     C14873   8.639   4.515   5.843 -0.0307  0.4059 -0.4649
  833MOL0     C14874   8.682   4.508   5.719  0.0585 -0.0749  0.8449
  833MOL0     O14875   8.707   4.618   5.631 -0.7727  0.0132 -0.3542
  833MOL0     C14876   8.725   4.746   5.683 -0.0513  0.0824 -0.7623
  833MOL0     C14877   8.760   4.827   5.556  0.6961 -0.0026 -0.2716
  833MOL0     C14878   8.795   4.966   5.595 -0.2682  0.4487  0.8322
  833MOL0     C14879   8.836   5.053   5.475 -0.7522 -0.7572  0.5347
  833MOL0     C14880   8.860   5.185   5.528  0.3229  0.9241 -0.0168
  833MOL0     C14881   8.864   5.301   5.556  0.4028  0.2405 -0.3477
  833MOL0     C14882   8.705   4.379   5.673 -0.7340  0.0111 -0.3431
  833MOL0     C14883   8.704   4.263   5.759 -0.0988  0.4332 -0.3795
  833MOL0     C14884   8.744   4.133   5.698  0.1424 -0.0293 -1.0671
  833MOL0     H14885   8.680   4.293   6.358 -0.2250 -0.1480 -1.4671
  833MOL0     H14886   8.671   4.145   6.571 -1.4770 -1.4551  0.4520
  833MOL0     H14887   8.452   3.901   6.729 -0.2403  1.7800 -0.5836
  833MOL0     H14888   8.518   4.050   6.659  2.2614  0.0224 -5.8055
  833MOL0     H14889   8.733   3.995   6.753  0.3373  0.4726  2.1167
  833MOL0     H14890   8.607   3.989   6.882 -0.1438 -2.6398  0.6661
  833MOL0     H14891   8.619   3.756   6.900  1.0806 -3.6191 -1.0967
  833MOL0     H14892   8.650   3.743   6.735 -4.6491  1.6069  0.2108
  833MOL0     H14893   8.897   3.856   6.801  1.1208 -1.1334 -0.2712
  833MOL0     H14894   8.832   3.872   6.959  2.2409  0.8231 -1.4974
  833MOL0     H14895   8.937   3.621   6.821  0.4520  1.1352 -0.6168
  833MOL0     H14896   8.785   3.601   6.905  0.5668 -0.2990 -0.8938
  833MOL0     H14897   8.880   3.716   7.110 -1.5601 -1.5986 -0.5289
  833MOL0     H14898   8.971   3.568   7.083  3.3181 -0.4092 -0.5268
  833MOL0     H14899   9.115   3.784   7.106  0.8705  0.8184 -0.8118
  833MOL0     H14900   9.073   3.817   6.942 -2.4718 -0.2869  2.0426
  833MOL0     H14901   9.166   3.544   7.006 -3.1367  2.0159  6.1751
  833MOL0     H14902   9.189   3.644   6.855 -0.7730 -4.1310 -0.1608
  833MOL0     H14903   9.315   3.635   7.227  0.6283  1.9372  1.7223
  833MOL0     H14904   9.627   3.607   7.272  2.1385  0.4394  2.1044
  833MOL0     H14905   9.557   3.768   7.325  1.0319  3.8374 -2.8726
  833MOL0     H14906   9.827   3.731   7.186 -0.4353 -0.1085 -2.2655
  833MOL0     H14907   9.715   3.845   7.116  1.8538 -0.9923 -0.9825
  833MOL0     H14908   9.692   3.939   7.365 -0.4827  0.0239  0.5894
  833MOL0     H14909   9.828   3.823   7.397  3.6799  0.6099 -2.0380
  833MOL0     H14910   9.916   4.024   7.381 -1.8413  0.3639  0.5208
  833MOL0     H14911   9.975   3.933   7.240 -0.7227  1.0061 -1.0286
  833MOL0     H14912  10.102   4.111   7.248 -2.5989 -0.0244  1.7171
  833MOL0     H14913  10.312   4.218   7.260 -1.1328 -0.4505  0.0533
  833MOL0     H14914  10.258   4.391   7.288 -2.9252  1.2074 -2.3213
  833MOL0     H14915  10.355   4.343   7.139  0.8004  0.5256  0.3484
  833MOL0     H14916  10.272   4.790   7.012  0.2024  4.0623  0.9676
  833MOL0     H14917  10.332   4.994   6.891 -1.5315  0.6216  1.7424
  833MOL0     H14918  10.227   5.165   6.779 -2.6475 -0.5451  0.6095
  833MOL0     H14919  10.311   5.236   6.652 -1.6302  2.2307  2.2404
  833MOL0     H14920  10.037   5.104   6.617  0.2897 -0.8932 -3.8262
  833MOL0     H14921  10.063   5.267   6.670  2.7961  1.8874 -1.7103
  833MOL0     H14922  10.015   5.207   6.419 -1.4418  3.3021 -1.4784
  833MOL0     H14923  10.198   5.174   6.423 -0.9969  0.5397 -3.7177
  833MOL0     H14924  10.244   5.407   6.472  0.9128 -1.7421 -1.8336
  833MOL0     H14925  10.081   5.443   6.505 -0.3448 -0.2471 -1.0875
  833MOL0     H14926  10.237   5.403   6.244  0.7731 -1.9510  1.5304
  833MOL0     H14927  10.058   5.369   6.244  1.6645 -1.0083 -1.1562
  833MOL0     H14928   9.999   5.573   6.314  0.7665  2.1176  2.6540
  833MOL0     H14929  10.067   5.576   6.160  0.4020  2.3419 -0.0886
  833MOL0     H14930  10.255   5.615   6.413  1.9953 -2.2604 -2.6372
  833MOL0     H14931  10.135   5.736   6.382 -1.0054 -0.4713  0.8991
  833MOL0     H14932  10.244   5.762   6.145  4.5960  3.1708 -2.7966
  833MOL0     H14933  10.355   5.627   6.195 -1.7110 -0.1963  0.6398
  833MOL0     H14934  10.216   4.815   6.522  0.4518  2.4535  0.4928
  833MOL0     H14935  10.137   4.616   6.646 -1.8945  1.0734 -0.4597
  833MOL0     H14936   9.925   4.463   6.963 -2.6907 -0.8809 -0.1726
  833MOL0     H14937   9.776   4.299   7.051 -0.4046 -0.4092  1.8564
  833MOL0     H14938   8.555   3.814   6.331 -4.2253  1.2341 -2.3631
  833MOL0     H14939   8.578   3.948   6.125  0.4557 -1.3318  0.6361
  833MOL0     H14940   8.625   4.440   6.035  0.3110 -1.7059  0.4664
  833MOL0     H14941   8.610   4.613   5.879  0.8076  0.2574  0.6746
  833MOL0     H14942   8.640   4.778   5.744 -0.1824 -2.3937  0.4864
  833MOL0     H14943   8.810   4.748   5.752  0.5512  2.7125 -1.4502
  833MOL0     H14944   8.676   4.842   5.489 -0.5610  2.8351  1.7065
  833MOL0     H14945   8.848   4.789   5.502 -0.4217 -0.1146 -2.0958
  833MOL0     H14946   8.702   4.998   5.642 -1.0408 -0.5920  0.0410
  833MOL0     H14947   8.873   4.968   5.672 -1.8774  0.8008  2.4973
  833MOL0     H14948   8.758   5.049   5.399  2.4289 -0.6428 -2.9839
  833MOL0     H14949   8.926   5.007   5.432 -1.2969 -1.4202  0.0845
  833MOL0     H14950   8.870   5.404   5.585  0.3240  0.2358 -0.3145
  833MOL0     H14951   8.729   4.366   5.568 -0.4002 -2.7179 -0.0129
  833MOL0     H14952   8.725   4.136   5.591  1.1194 -0.2883 -1.2595
  833MOL0     H14953   8.848   4.114   5.726  0.3631  1.0074 -1.1431
  833MOL0     H14954   8.679   4.064   5.752 -0.1508 -0.7690 -2.3338
  834MOL0     O14955   3.864   2.585  11.495 -0.1947 -0.2010 -0.7788
  834MOL0     C14956   3.781   2.627  11.577  0.3076 -0.2662 -0.8003
  834MOL0     O14957   3.801   2.656  11.712 -0.6434  0.0620  0.1508
  834MOL0     C14958   3.928   2.627  11.756 -0.8456 -0.2503 -0.0494
  834MOL0     C14959   3.958   2.497  11.790 -0.7690  0.8578 -0.2339
  834MOL0     C14960   4.092   2.453  11.830  0.8813 -0.5355  0.2700
  834MOL0     C14961   4.179   2.561  11.851 -0.4094 -0.1011 -0.3863
  834MOL0     O14962   4.308   2.543  11.873 -0.4862 -0.4239  0.4536
  834MOL0     C14963   4.361   2.408  11.857  0.0811  0.1160 -0.4415
  834MOL0     C14964   4.511   2.445  11.850 -0.1510 -0.3388 -0.1311
  834MOL0     C14965   4.591   2.316  11.850 -0.9252  0.5037 -0.3003
  834MOL0     C14966   4.654   2.266  11.980  0.2380 -0.5040  0.3969
  834MOL0     C14967   4.726   2.134  11.976 -0.1730  0.2798  0.6805
  834MOL0     C14968   4.678   2.028  12.078 -1.1505 -0.6908  0.4735
  834MOL0     C14969   4.547   1.964  12.052  1.5057 -1.2123 -0.4673
  834MOL0     C14970   4.551   1.886  11.922  0.3044 -0.3550  1.4461
  834MOL0     N14971   4.505   1.959  11.799 -0.4562 -0.1664  0.4474
  834MOL0     C14972   4.375   2.015  11.786 -0.9963 -0.1431 -0.5352
  834MOL0     C14973   4.355   2.033  11.654 -0.0979  0.2987 -0.3558
  834MOL0     C14974   4.233   2.106  11.601 -0.6308  0.1206 -0.1138
  834MOL0     C14975   4.251   2.149  11.458  1.6780 -0.5666 -0.1782
  834MOL0     C14976   4.134   2.240  11.397  0.3072  0.5685 -0.6104
  834MOL0     C14977   4.165   2.293  11.253  0.9242 -0.4747  0.0872
  834MOL0     O14978   4.209   2.194  11.160 -1.0797  0.6282  0.0238
  834MOL0     C14979   4.238   2.239  11.037 -0.2169  0.1079 -0.8299
  834MOL0     C14980   4.273   2.139  10.948  0.8332 -0.2436 -0.3120
  834MOL0     C14981   4.324   2.164  10.827  0.1278  0.0769  0.4619
  834MOL0     C14982   4.340   2.046  10.739 -0.2646  0.8822 -0.5088
  834MOL0     C14983   4.343   2.299  10.785 -1.0654 -0.5542  0.5225
  834MOL0     C14984   4.401   2.350  10.654  1.4375  0.5846  0.7570
  834MOL0     O14985   4.425   2.259  10.548 -0.9302 -0.0305  0.8237
  834MOL0     C14986   4.465   2.297  10.424  0.5216 -1.0072 -0.2259
  834MOL0     C14987   4.371   2.341  10.325  0.1435 -0.1451 -0.0906
  834MOL0     C14988   4.408   2.387  10.193 -0.7587  0.6971  0.1446
  834MOL0     C14989   4.545   2.364  10.158  0.2200 -0.2731 -0.8097
  834MOL0     O14990   4.597   2.386  10.031  0.4376 -0.0704 -0.0615
  834MOL0     C14991   4.504   2.380   9.924  0.0833  0.2303  0.7783
  834MOL0     C14992   4.595   2.398   9.795 -0.9142  0.9387 -0.4853
  834MOL0     C14993   4.710   2.293   9.786  0.4637  0.5624 -0.0757
  834MOL0     C14994   4.790   2.309   9.656  0.5941 -0.3589 -0.0615
  834MOL0     C14995   4.908   2.201   9.633  0.3379  0.1727  0.4473
  834MOL0     C14996   5.002   2.241   9.516 -1.1391 -0.1123 -0.1552
  834MOL0     C14997   5.122   2.148   9.501  0.4635 -0.0119 -0.1050
  834MOL0     C14998   5.202   2.185   9.377 -0.0729 -0.1397  0.0514
  834MOL0    Cl14999   5.314   2.039   9.354  0.3901  0.1115  0.2323
  834MOL0     C15000   4.634   2.319  10.257  0.1795  0.5639 -0.2447
  834MOL0     C15001   4.598   2.295  10.391 -0.5861  0.2214  1.0498
  834MOL0     O15002   4.414   2.471  10.650 -0.8058  0.0101  0.3039
  834MOL0     C15003   4.297   2.403  10.870  0.0153 -0.0199 -0.0301
  834MOL0     C15004   4.248   2.368  10.998  0.0996 -0.1327  0.1064
  834MOL0     N15005   4.479   2.013  11.600 -1.4487 -0.5124 -0.1625
  834MOL0     N15006   4.572   1.959  11.683  0.5503  0.1128  1.0545
  834MOL0     C15007   4.135   2.695  11.848 -0.8005  1.0174  0.3267
  834MOL0     C15008   4.010   2.730  11.799 -0.2575 -0.3128  0.0725
  834MOL0     C15009   3.641   2.667  11.531  0.7879  0.9168 -0.7809
  834MOL0     C15010   3.537   2.678  11.621  0.2252 -0.1934 -0.5542
  834MOL0     C15011   3.402   2.689  11.583 -0.0685  0.1195  1.1340
  834MOL0     C15012   3.370   2.715  11.446  0.2040 -0.0376  0.3485
  834MOL0     O15013   3.252   2.744  11.395 -0.2706 -0.5352  0.9400
  834MOL0     C15014   3.137   2.717  11.483  0.1606  0.5353 -0.4589
  834MOL0     C15015   3.097   2.570  11.489  0.1293 -0.3930  0.4526
  834MOL0     C15016   3.071   2.521  11.335 -0.8440 -1.0655  0.0636
  834MOL0     C15017   2.994   2.383  11.328 -0.3227 -0.3603 -0.1109
  834MOL0     C15018   2.963   2.344  11.188  0.1663  0.2074 -0.2040
  834MOL0     C15019   2.963   2.298  11.079 -0.1855 -0.3711 -0.3378
  834MOL0     C15020   3.477   2.712  11.351 -0.7934  0.5802 -0.3439
  834MOL0     C15021   3.616   2.696  11.390 -0.1620 -1.2021 -0.1794
  834MOL0     C15022   3.720   2.719  11.281  0.8432 -0.4370 -0.3599
  834MOL0     H15023   3.897   2.411  11.765  0.8814 -0.7191  0.8450
  834MOL0     H15024   4.120   2.349  11.843 -3.4911 -2.4289 -2.9740
  834MOL0     H15025   4.335   2.365  11.760  0.7495  1.4717 -1.2646
  834MOL0     H15026   4.334   2.349  11.945 -0.5841 -0.0219 -0.7345
  834MOL0     H15027   4.527   2.494  11.753  2.7448  1.7357  1.2593
  834MOL0     H15028   4.535   2.521  11.925 -1.0978 -0.2797  0.1294
  834MOL0     H15029   4.526   2.239  11.808 -2.9031  0.9036  1.8138
  834MOL0     H15030   4.677   2.342  11.787 -0.5817  2.3886  0.8716
  834MOL0     H15031   4.719   2.347  12.015  0.2883 -0.5126  0.3235
  834MOL0     H15032   4.566   2.251  12.044 -2.1776  0.6957 -2.3945
  834MOL0     H15033   4.830   2.150  12.005 -0.0224 -1.4434  1.1949
  834MOL0     H15034   4.733   2.101  11.872 -1.8598  0.1172  0.5927
  834MOL0     H15035   4.755   1.950  12.084 -1.0664 -0.9149 -2.1613
  834MOL0     H15036   4.674   2.074  12.177  0.8161  1.5863 -0.4036
  834MOL0     H15037   4.465   2.036  12.058  0.1304 -2.7133 -0.2919
  834MOL0     H15038   4.531   1.896  12.136 -1.2365 -0.8136 -0.5866
  834MOL0     H15039   4.655   1.864  11.896  0.3089  3.1172 -2.4362
  834MOL0     H15040   4.493   1.794  11.935  0.0643 -1.0029 -2.6679
  834MOL0     H15041   4.305   2.034  11.866 -0.3142  0.0087  0.0322
  834MOL0     H15042   4.209   2.195  11.660  0.6090  0.0701  0.4811
  834MOL0     H15043   4.147   2.038  11.597 -1.5602  1.2881 -0.6722
  834MOL0     H15044   4.336   2.219  11.450  0.2897  1.3509  0.9616
  834MOL0     H15045   4.271   2.069  11.386  3.0541  1.0496 -1.7225
  834MOL0     H15046   4.054   2.166  11.388  1.2202 -0.6204  0.6119
  834MOL0     H15047   4.100   2.325  11.457  1.1739  1.4868 -1.3795
  834MOL0     H15048   4.078   2.334  11.200 -0.3161  0.2225  2.4885
  834MOL0     H15049   4.236   2.376  11.260 -0.0579  0.7206 -2.6426
  834MOL0     H15050   4.259   2.035  10.977 -1.1343 -0.4882 -1.9161
  834MOL0     H15051   4.279   2.053  10.649 -1.7222 -1.0100  0.2595
  834MOL0     H15052   4.307   1.958  10.795 -0.5250  0.5105 -1.2430
  834MOL0     H15053   4.448   2.037  10.722  0.2518  0.2080  2.5245
  834MOL0     H15054   4.265   2.346  10.346  0.6946  1.1080  2.8376
  834MOL0     H15055   4.347   2.443  10.123 -1.1138 -0.7083 -0.6927
  834MOL0     H15056   4.459   2.282   9.913 -0.5692  0.3144  2.3887
  834MOL0     H15057   4.419   2.449   9.923  0.4282  0.6945 -1.3010
  834MOL0     H15058   4.531   2.388   9.707 -0.1956 -0.3696 -0.8896
  834MOL0     H15059   4.638   2.498   9.780 -0.0447  0.3759 -2.0682
  834MOL0     H15060   4.667   2.192   9.780 -1.3312  1.3793 -2.9053
  834MOL0     H15061   4.778   2.299   9.871 -0.2657 -1.6924  0.7426
  834MOL0     H15062   4.836   2.408   9.664 -1.3605  1.1937 -4.5806
  834MOL0     H15063   4.720   2.303   9.572  0.5577  3.4820 -0.4763
  834MOL0     H15064   4.960   2.208   9.729  2.0668 -0.2118 -0.4386
  834MOL0     H15065   4.862   2.102   9.624 -1.6354  1.1631 -1.4377
  834MOL0     H15066   5.030   2.343   9.543  0.4879 -1.0946  2.2261
  834MOL0     H15067   4.950   2.243   9.420 -2.3355  1.4557  0.4814
  834MOL0     H15068   5.099   2.041   9.500  0.0846  0.0526  0.6335
  834MOL0     H15069   5.182   2.152   9.592  0.5057 -2.7816  0.0827
  834MOL0     H15070   5.258   2.270   9.416 -0.7204 -0.9452  2.9664
  834MOL0     H15071   5.144   2.214   9.289  1.3158  3.5736  0.1653
  834MOL0     H15072   4.739   2.307  10.232  0.6217 -2.2990  2.4773
  834MOL0     H15073   4.674   2.269  10.464  0.0728 -1.7285 -0.2677
  834MOL0     H15074   4.312   2.510  10.859  2.8896 -0.2654  0.8505
  834MOL0     H15075   4.227   2.459  11.054 -0.6971 -0.3469  0.1721
  834MOL0     H15076   4.198   2.775  11.887 -1.6395  2.2599 -0.7674
  834MOL0     H15077   3.982   2.835  11.794  3.0136  0.6520 -3.9051
  834MOL0     H15078   3.550   2.655  11.726 -3.4905  2.7637  0.7981
  834MOL0     H15079   3.332   2.710  11.663 -1.9834  2.1468 -0.8840
  834MOL0     H15080   3.149   2.749  11.587  0.5866 -2.8494  0.6777
  834MOL0     H15081   3.055   2.778  11.444  1.5880  2.4786 -0.5904
  834MOL0     H15082   3.003   2.563  11.545  0.0307 -1.6650  0.1499
  834MOL0     H15083   3.175   2.517  11.544 -0.5013 -0.0799  1.7003
  834MOL0     H15084   3.019   2.600  11.280 -0.4010  0.6804  2.0160
  834MOL0     H15085   3.159   2.507  11.271 -0.8628 -3.4605  0.4804
  834MOL0     H15086   2.907   2.374  11.393 -0.6956 -2.6051 -0.8569
  834MOL0     H15087   3.075   2.321  11.368  2.2494  3.0977  0.5458
  834MOL0     H15088   2.966   2.281  10.973 -0.7566  1.4580 -0.6917
  834MOL0     H15089   3.457   2.737  11.247  0.7945  1.5423 -0.4439
  834MOL0     H15090   3.694   2.795  11.206  2.9306  1.9752  1.1947
  834MOL0     H15091   3.814   2.755  11.323  0.5364  0.2490 -0.2438
  834MOL0     H15092   3.738   2.625  11.229  0.2812 -2.0991  2.2709
  835MOL0     O15093   1.013   9.997  10.497 -0.1949  0.1587  0.9241
  835MOL0     C15094   1.140   9.973  10.493  0.6463  1.1230 -1.0654
  835MOL0     O15095   1.221  10.016  10.390  0.0215 -0.0404 -0.1565
  835MOL0     C15096   1.208  10.148  10.352  0.6173  0.9771  0.8311
  835MOL0     C15097   1.301  10.244  10.391  0.3250 -0.0988 -0.2769
  835MOL0     C15098   1.314  10.360  10.322  0.1770 -0.4337 -0.5377
  835MOL0     C15099   1.217  10.401  10.219 -0.6768  0.5731 -0.2530
  835MOL0     O15100   1.216  10.531  10.177 -0.6012  0.3782 -0.5063
  835MOL0     C15101   1.108  10.566  10.099  0.4173 -0.5200 -0.7028
  835MOL0     C15102   1.094  10.720  10.068 -0.5275  0.3198 -0.2189
  835MOL0     C15103   1.228  10.801  10.054  0.0031  0.0980  0.7638
  835MOL0     C15104   1.305  10.763   9.936  0.6966  0.8044 -1.3479
  835MOL0     C15105   1.301  10.844   9.809  0.2767 -0.8863 -0.5705
  835MOL0     C15106   1.157  10.882   9.765  0.5250  0.3140 -0.3301
  835MOL0     C15107   1.162  11.000   9.671  1.3149 -0.1880 -0.0072
  835MOL0     C15108   1.221  10.964   9.539 -0.0381 -0.1970  0.4565
  835MOL0     N15109   1.172  11.054   9.444  0.2272 -0.9305 -0.9346
  835MOL0     C15110   1.220  11.185   9.406 -0.2267 -0.0887 -0.0340
  835MOL0     C15111   1.166  11.211   9.287  0.7198 -0.2338 -0.3420
  835MOL0     C15112   1.193  11.335   9.200  0.0967 -0.0765 -0.3637
  835MOL0     C15113   1.067  11.425   9.184 -0.4757 -0.6981 -0.2876
  835MOL0     C15114   1.094  11.530   9.076  0.1281  0.3370 -1.2528
  835MOL0     C15115   1.128  11.663   9.132 -0.3131  0.3926 -0.0730
  835MOL0     O15116   1.152  11.746   9.027 -0.2691  0.2523  0.7490
  835MOL0     C15117   1.277  11.758   8.964  1.2416 -0.5961  0.8575
  835MOL0     C15118   1.290  11.873   8.877  0.0978  0.4471 -0.0376
  835MOL0     C15119   1.418  11.897   8.807  0.5958 -1.0423 -0.8472
  835MOL0     C15120   1.421  12.013   8.708 -0.2881 -0.1524  0.6359
  835MOL0     C15121   1.536  11.811   8.835  0.5006 -1.0074  0.7653
  835MOL0     C15122   1.673  11.833   8.793  1.1663  0.3007  1.0855
  835MOL0     O15123   1.762  11.762   8.865 -0.3959 -0.5614 -0.7984
  835MOL0     C15124   1.891  11.808   8.857 -1.2870  0.8965  0.0999
  835MOL0     C15125   1.919  11.935   8.903 -0.2828 -0.3156 -0.5209
  835MOL0     C15126   2.052  11.987   8.905  0.2531 -0.0634 -0.2244
  835MOL0     C15127   2.157  11.898   8.883  1.0392  0.4334  0.9860
  835MOL0     O15128   2.281  11.939   8.919 -0.7831  0.2496 -0.7705
  835MOL0     C15129   2.378  11.920   8.811  0.9854  0.8785 -0.0332
  835MOL0     C15130   2.514  11.991   8.812 -0.4164  0.9228 -0.4080
  835MOL0     C15131   2.522  12.130   8.859 -0.4586 -0.0083  0.3776
  835MOL0     C15132   2.659  12.194   8.837 -0.0728 -0.2262  0.7454
  835MOL0     C15133   2.701  12.238   8.694  0.4363 -0.4298  0.3804
  835MOL0     C15134   2.626  12.366   8.641 -0.3376  0.0576  0.0715
  835MOL0     C15135   2.695  12.496   8.677  0.0297  0.4222  0.3661
  835MOL0     C15136   2.622  12.616   8.614  0.1358 -0.1090 -0.3117
  835MOL0    Cl15137   2.459  12.647   8.689  0.0077 -0.5421  0.1702
  835MOL0     C15138   2.126  11.764   8.841  0.3931  0.9065 -0.2307
  835MOL0     C15139   2.002  11.723   8.825  0.7554 -0.4919 -0.0001
  835MOL0     O15140   1.693  11.902   8.694  0.1296 -0.1814 -0.0018
  835MOL0     C15141   1.506  11.705   8.919  0.4058  0.1010  0.2272
  835MOL0     C15142   1.387  11.686   8.991  0.2245 -0.3340  0.3380
  835MOL0     N15143   1.072  11.111   9.259  0.2608 -1.2195  0.7502
  835MOL0     N15144   1.074  11.030   9.354  0.3683  0.0532 -0.6102
  835MOL0     C15145   1.135  10.297  10.176  0.3408 -1.1005 -0.1743
  835MOL0     C15146   1.132  10.172  10.240 -0.0283  0.3483  0.5512
  835MOL0     C15147   1.184   9.875  10.604  0.0730 -0.1752 -0.5962
  835MOL0     C15148   1.298   9.790  10.589  0.1817  1.0206  0.7417
  835MOL0     C15149   1.359   9.714  10.688 -0.2114 -0.0551 -0.1537
  835MOL0     C15150   1.295   9.720  10.808  0.6909 -0.3294 -0.5359
  835MOL0     O15151   1.349   9.655  10.914  0.6247  0.1243 -0.6386
  835MOL0     C15152   1.277   9.596  11.024 -0.1588 -1.0430  0.3172
  835MOL0     C15153   1.340   9.455  11.040  0.3413 -0.6386 -0.4079
  835MOL0     C15154   1.336   9.411  11.187 -0.0083 -0.1211 -0.4448
  835MOL0     C15155   1.384   9.265  11.195 -0.6255 -0.5042  0.9718
  835MOL0     C15156   1.397   9.217  11.332 -0.8656 -0.0160 -0.6921
  835MOL0     C15157   1.393   9.185  11.452 -0.3045 -1.2197  0.0023
  835MOL0     C15158   1.187   9.811  10.840  0.9854 -0.3256 -0.8166
  835MOL0     C15159   1.141   9.897  10.735  0.5798 -0.2141 -0.4731
  835MOL0     C15160   1.039  10.007  10.779 -0.1941 -0.1854 -0.2604
  835MOL0     H15161   1.367  10.231  10.477  0.0526  2.0063  0.3135
  835MOL0     H15162   1.385  10.434  10.356 -0.4327 -0.4547  0.8163
  835MOL0     H15163   1.014  10.532  10.143  0.8210  0.6248  1.1720
  835MOL0     H15164   1.115  10.505  10.008 -2.9564 -4.2752  1.2455
  835MOL0     H15165   1.026  10.736   9.983 -0.0605  0.8193 -0.5018
  835MOL0     H15166   1.043  10.756  10.158 -1.2422  0.4109 -0.6545
  835MOL0     H15167   1.181  10.899  10.047 -0.9482 -0.4946 -2.5151
  835MOL0     H15168   1.291  10.791  10.143  0.9955 -1.1954 -0.0515
  835MOL0     H15169   1.409  10.778   9.966 -0.0593  2.3745  0.7370
  835MOL0     H15170   1.279  10.664   9.896  1.6804  1.3319 -3.3943
  835MOL0     H15171   1.342  10.778   9.732  1.5109 -2.9311  1.7231
  835MOL0     H15172   1.368  10.931   9.811 -2.2093  1.3290 -3.2863
  835MOL0     H15173   1.109  10.798   9.714  1.0227 -1.9914  2.6861
  835MOL0     H15174   1.093  10.914   9.848  0.8278  3.4414 -1.1868
  835MOL0     H15175   1.220  11.085   9.707  0.2578  1.1499 -1.3388
  835MOL0     H15176   1.056  11.023   9.655  0.5237 -2.3084  1.7356
  835MOL0     H15177   1.330  10.952   9.545 -0.1233 -1.3285  0.0739
  835MOL0     H15178   1.193  10.863   9.509 -0.0979  0.4439 -1.8407
  835MOL0     H15179   1.295  11.243   9.459 -1.0067 -1.0349  2.2520
  835MOL0     H15180   1.237  11.308   9.104  0.2289  0.2861 -0.4074
  835MOL0     H15181   1.256  11.413   9.244  1.2418  0.3527 -2.6018
  835MOL0     H15182   0.979  11.365   9.159 -2.5426  0.5020  3.4142
  835MOL0     H15183   1.038  11.468   9.280  1.5424  4.4695 -1.6278
  835MOL0     H15184   1.170  11.498   9.003  2.3321 -3.3731  2.2269
  835MOL0     H15185   0.999  11.542   9.023 -1.2168 -0.9561  0.6983
  835MOL0     H15186   1.049  11.717   9.186 -0.2376 -0.2326  0.6853
  835MOL0     H15187   1.213  11.645   9.199 -0.1454  2.0406  0.1954
  835MOL0     H15188   1.198  11.930   8.861 -0.1492  0.3239  0.9177
  835MOL0     H15189   1.319  12.052   8.701 -0.0066  0.2912 -2.4423
  835MOL0     H15190   1.444  11.973   8.608  0.3520  3.9050 -1.0513
  835MOL0     H15191   1.481  12.102   8.730 -1.4556  1.1790 -1.2364
  835MOL0     H15192   1.837  12.002   8.925  0.1211 -0.1223  0.4415
  835MOL0     H15193   2.075  12.090   8.928  1.2713  0.2022 -2.2052
  835MOL0     H15194   2.404  11.814   8.804  0.6722  0.6685  1.5497
  835MOL0     H15195   2.335  11.939   8.713 -0.8287 -0.9036  0.3550
  835MOL0     H15196   2.572  11.926   8.878 -3.6442 -1.6011  0.2219
  835MOL0     H15197   2.557  11.989   8.712 -0.3567  0.8866 -0.3813
  835MOL0     H15198   2.517  12.119   8.968 -0.2568  1.0157  0.5059
  835MOL0     H15199   2.443  12.199   8.829  2.4537  2.9944 -1.0170
  835MOL0     H15200   2.720  12.111   8.873 -2.0217 -1.8986  0.4170
  835MOL0     H15201   2.661  12.283   8.901 -0.7754 -0.1082  0.6160
  835MOL0     H15202   2.808  12.257   8.684  0.4403 -0.1339  0.9101
  835MOL0     H15203   2.685  12.150   8.631  0.2288 -0.7892  0.9234
  835MOL0     H15204   2.523  12.361   8.677 -0.5936 -3.7100 -0.8248
  835MOL0     H15205   2.641  12.365   8.532 -1.0060  0.2168 -0.0296
  835MOL0     H15206   2.798  12.491   8.639 -0.1250 -1.6523  0.0766
  835MOL0     H15207   2.699  12.510   8.786 -0.1006  4.4325  0.0023
  835MOL0     H15208   2.611  12.584   8.510 -1.3640 -0.5455 -0.0547
  835MOL0     H15209   2.687  12.703   8.626 -0.5060  0.2111  1.0482
  835MOL0     H15210   2.208  11.694   8.829  0.2749  0.7057  0.0965
  835MOL0     H15211   1.984  11.622   8.789  3.2499 -0.1403 -2.5930
  835MOL0     H15212   1.583  11.634   8.948  0.2038  0.4079  1.6170
  835MOL0     H15213   1.368  11.600   9.054 -2.7533 -1.0465 -1.3672
  835MOL0     H15214   1.069  10.314  10.091  0.2433 -1.3325 -0.1445
  835MOL0     H15215   1.091  10.082  10.196 -1.3337 -0.4622  3.2177
  835MOL0     H15216   1.340   9.780  10.490 -1.0833 -1.8605  0.4001
  835MOL0     H15217   1.453   9.662  10.673 -0.0471 -0.0980  0.9538
  835MOL0     H15218   1.305   9.657  11.111 -1.8786 -2.1584  1.7216
  835MOL0     H15219   1.169   9.588  11.010 -0.4427  0.5608  1.2869
  835MOL0     H15220   1.443   9.467  11.005  0.0463  1.2300 -0.7309
  835MOL0     H15221   1.287   9.376  10.987 -0.9446 -0.7625  0.9856
  835MOL0     H15222   1.397   9.484  11.242 -2.0409  0.6922  0.8648
  835MOL0     H15223   1.232   9.418  11.223  0.2963 -0.8245  0.5976
  835MOL0     H15224   1.480   9.241  11.148 -2.6007 -1.0135 -3.3197
  835MOL0     H15225   1.319   9.205  11.130  0.6580 -0.0090 -0.8577
  835MOL0     H15226   1.411   9.181  11.558 -1.1056  1.2197  0.3044
  835MOL0     H15227   1.154   9.823  10.943 -2.8165  0.9714 -2.0087
  835MOL0     H15228   1.015   9.988  10.884 -0.8744  1.2171 -0.1418
  835MOL0     H15229   1.087  10.101  10.751  1.8438 -0.3757  2.1845
  835MOL0     H15230   0.948   9.987  10.721 -0.6029  1.2376 -0.1372
  836MOL0     O15231   8.094   0.013   5.944  0.8205  0.4920  0.6769
  836MOL0     C15232   7.986   0.078   5.926 -0.3320 -0.7660 -0.4407
  836MOL0     O15233   7.928   0.158   6.015  0.4116  0.1555  0.8913
  836MOL0     C15234   7.967   0.153   6.142  0.2474 -0.4210 -0.0290
  836MOL0     C15235   8.006   0.041   6.210  0.2110 -0.4454  0.1273
  836MOL0     C15236   8.051   0.061   6.341 -0.6973  0.1096  0.4003
  836MOL0     C15237   8.054   0.185   6.405  0.4810  0.0822 -0.7654
  836MOL0     O15238   8.100   0.220   6.531 -0.0509 -0.1685  0.3378
  836MOL0     C15239   8.047   0.142   6.638 -0.0628  0.0303 -0.3045
  836MOL0     C15240   8.046   0.228   6.764  0.1496 -0.9965 -0.1643
  836MOL0     C15241   8.166   0.312   6.794 -0.6884 -0.1638 -0.2865
  836MOL0     C15242   8.149   0.379   6.931  0.7750  0.3319 -0.4495
  836MOL0     C15243   8.274   0.463   6.980 -0.2327  0.0601  0.1865
  836MOL0     C15244   8.318   0.590   6.898 -0.2994  0.3276  0.9363
  836MOL0     C15245   8.413   0.558   6.779  0.8124 -0.0591 -0.2268
  836MOL0     C15246   8.545   0.495   6.807  0.2681  0.1811  0.1482
  836MOL0     N15247   8.622   0.550   6.922  0.7079  0.2670  0.5974
  836MOL0     C15248   8.653   0.685   6.924 -0.8182  0.2514 -0.0560
  836MOL0     C15249   8.738   0.701   7.024 -0.7600  0.5886 -0.3478
  836MOL0     C15250   8.816   0.822   7.066  0.8771 -0.3168 -0.1448
  836MOL0     C15251   8.940   0.804   7.152 -0.3491 -0.6833 -0.0154
  836MOL0     C15252   8.909   0.733   7.282 -0.0978  0.6576 -0.8867
  836MOL0     C15253   9.011   0.760   7.396  0.5450 -0.9414  0.2673
  836MOL0     O15254   8.979   0.900   7.422 -0.6929  1.1150 -0.1314
  836MOL0     C15255   9.065   1.009   7.451  0.2982  0.1653 -0.7343
  836MOL0     C15256   9.200   1.008   7.456  1.2304  0.1842  0.7093
  836MOL0     C15257   9.288   1.115   7.468 -0.4574 -0.6346  0.4778
  836MOL0     C15258   9.437   1.082   7.439  1.9716  0.5138  0.5902
  836MOL0     C15259   9.226   1.243   7.502  0.6772  0.4585  0.9304
  836MOL0     C15260   9.284   1.370   7.512  0.2209 -0.3092  0.1684
  836MOL0     O15261   9.206   1.475   7.458  0.8609 -0.2953 -0.3797
  836MOL0     C15262   9.250   1.601   7.441  0.1073  1.1147  0.7568
  836MOL0     C15263   9.159   1.704   7.450  0.0407 -0.1023 -0.1342
  836MOL0     C15264   9.189   1.842   7.446 -0.2209 -0.7403 -0.3440
  836MOL0     C15265   9.322   1.868   7.427  0.5789  0.1374  0.2781
  836MOL0     O15266   9.364   2.005   7.448 -0.0737  0.3089 -0.1364
  836MOL0     C15267   9.471   2.032   7.545 -1.1323  0.6863  0.1445
  836MOL0     C15268   9.424   2.123   7.654  0.7206  1.5056 -0.5727
  836MOL0     C15269   9.306   2.053   7.740 -0.5857  0.5102  0.5704
  836MOL0     C15270   9.357   1.917   7.813 -1.2066  0.4955  0.0439
  836MOL0     C15271   9.262   1.830   7.901  0.0437  0.4570  0.5172
  836MOL0     C15272   9.177   1.734   7.803 -0.6883 -0.5623  0.3793
  836MOL0     C15273   9.120   1.616   7.876 -0.0475 -0.1937  0.0933
  836MOL0     C15274   8.984   1.656   7.935 -0.3085  0.6646 -0.2847
  836MOL0    Cl15275   8.872   1.685   7.800 -0.1463 -0.3604 -0.1109
  836MOL0     C15276   9.426   1.772   7.403  0.3763 -0.2118  0.5876
  836MOL0     C15277   9.383   1.635   7.403  0.3717  0.2671 -0.0524
  836MOL0     O15278   9.403   1.378   7.550 -0.5248  0.2982 -0.3637
  836MOL0     C15279   9.088   1.251   7.499 -0.7451 -0.3239 -0.9186
  836MOL0     C15280   9.011   1.135   7.475  0.3541 -0.7834 -0.4926
  836MOL0     N15281   8.765   0.568   7.071  1.1667 -0.3380  0.0916
  836MOL0     N15282   8.690   0.477   7.015 -0.6351 -0.9292 -0.8069
  836MOL0     C15283   8.002   0.293   6.331 -0.1676  0.4829 -0.2478
  836MOL0     C15284   7.960   0.277   6.201 -0.0046  0.3928 -0.0695
  836MOL0     C15285   7.918   0.077   5.796 -0.3795  1.1097  0.5608
  836MOL0     C15286   7.779   0.085   5.798  0.6267 -0.5811  0.1700
  836MOL0     C15287   7.708   0.089   5.678 -0.5909 -0.3870  1.3300
  836MOL0     C15288   7.771   0.087   5.559 -0.3738 -0.0174 -0.5048
  836MOL0     O15289   7.702   0.071   5.436  0.4058 -0.4414 -0.0839
  836MOL0     C15290   7.568   0.132   5.423 -0.7324  0.5115 -0.4029
  836MOL0     C15291   7.577   0.265   5.353  0.7708 -0.0962  0.4647
  836MOL0     C15292   7.648   0.273   5.220  0.3681 -0.8207  0.0360
  836MOL0     C15293   7.679   0.413   5.175 -0.6767  1.0370 -0.2314
  836MOL0     C15294   7.698   0.427   5.033  1.2891  0.3313 -0.6379
  836MOL0     C15295   7.714   0.419   4.908  0.2598 -0.1669  0.3248
  836MOL0     C15296   7.914   0.080   5.552  0.2332  0.4364 -0.0262
  836MOL0     C15297   7.991   0.069   5.673  0.8635 -0.7567  0.6983
  836MOL0     C15298   8.140   0.081   5.664  0.6273 -0.1230  0.0590
  836MOL0     H15299   8.003  -0.062   6.175  1.3466 -0.5671  0.3406
  836MOL0     H15300   8.078  -0.029   6.396 -0.2082 -0.3694 -0.5906
  836MOL0     H15301   8.105   0.054   6.668 -0.9974  0.6940  4.2232
  836MOL0     H15302   7.941   0.117   6.634  0.3364 -1.6904 -1.5332
  836MOL0     H15303   7.960   0.295   6.752  0.3900 -0.6930 -0.2143
  836MOL0     H15304   8.025   0.167   6.852  6.7120 -1.6607  1.4834
  836MOL0     H15305   8.250   0.243   6.807  0.6886  1.8228  2.5806
  836MOL0     H15306   8.179   0.391   6.720 -1.2742  0.1582 -0.0480
  836MOL0     H15307   8.062   0.445   6.925 -0.0901 -0.6636  0.5523
  836MOL0     H15308   8.143   0.299   7.006  2.1508 -0.4498 -1.1245
  836MOL0     H15309   8.360   0.397   6.995  0.5241  1.0381  0.1900
  836MOL0     H15310   8.247   0.506   7.077 -1.7584 -0.0443 -0.1665
  836MOL0     H15311   8.236   0.636   6.842 -0.8853 -0.8838  0.7625
  836MOL0     H15312   8.367   0.664   6.962  1.2514  2.4256 -2.4121
  836MOL0     H15313   8.430   0.653   6.728 -0.5315 -0.8352 -2.2509
  836MOL0     H15314   8.365   0.493   6.705 -0.0017 -0.4520  0.6232
  836MOL0     H15315   8.526   0.389   6.825 -0.8221 -0.0868 -2.2569
  836MOL0     H15316   8.603   0.502   6.715 -0.6079  3.6628 -0.2913
  836MOL0     H15317   8.624   0.766   6.859  0.9592  1.5388  0.6555
  836MOL0     H15318   8.750   0.890   7.120 -0.8034 -1.4583 -0.6925
  836MOL0     H15319   8.856   0.883   6.984  1.5418  1.0765  1.1639
  836MOL0     H15320   9.001   0.740   7.087 -3.1203 -0.2832 -3.2768
  836MOL0     H15321   8.987   0.901   7.168 -0.4946 -0.6256  0.0641
  836MOL0     H15322   8.811   0.762   7.319  0.8460  1.9686  0.7156
  836MOL0     H15323   8.923   0.626   7.263  2.1222  0.5134  1.0690
  836MOL0     H15324   8.983   0.703   7.484  1.1229  0.5686  1.4683
  836MOL0     H15325   9.114   0.742   7.364  0.7233  0.1755  0.1715
  836MOL0     H15326   9.242   0.910   7.436 -0.5809 -0.7786  1.3122
  836MOL0     H15327   9.510   1.159   7.465  2.1154  0.8362 -0.7146
  836MOL0     H15328   9.447   1.054   7.334  1.8303 -1.6472  1.1091
  836MOL0     H15329   9.459   0.997   7.504 -2.1928 -0.0095  1.6464
  836MOL0     H15330   9.057   1.679   7.479  0.9917 -4.0455  0.3142
  836MOL0     H15331   9.118   1.924   7.446  1.3359  0.6579 -0.7431
  836MOL0     H15332   9.532   1.951   7.585  0.5103  1.7945  0.0174
  836MOL0     H15333   9.544   2.092   7.488  0.7959  0.6567  2.4355
  836MOL0     H15334   9.505   2.149   7.723 -0.2763  0.5820  0.9958
  836MOL0     H15335   9.381   2.212   7.606 -1.1718  0.8475 -0.1951
  836MOL0     H15336   9.221   2.028   7.675  1.1691 -0.5991 -1.4408
  836MOL0     H15337   9.287   2.130   7.815 -0.5085  0.6023  0.4953
  836MOL0     H15338   9.424   1.953   7.892 -1.8943  0.2739  0.7246
  836MOL0     H15339   9.403   1.852   7.738  0.5132  0.9956  0.5936
  836MOL0     H15340   9.333   1.764   7.953 -0.6169  0.0512  0.9315
  836MOL0     H15341   9.197   1.890   7.966  1.7116  0.8678  1.9031
  836MOL0     H15342   9.243   1.693   7.726  0.4618  0.5080  0.7435
  836MOL0     H15343   9.103   1.803   7.760  1.4233  3.2926  2.3538
  836MOL0     H15344   9.185   1.594   7.961 -1.4397  0.8236  1.4859
  836MOL0     H15345   9.093   1.527   7.819 -3.5641  0.6112  0.2403
  836MOL0     H15346   9.000   1.743   7.999 -2.4536  0.2601  0.9047
  836MOL0     H15347   8.932   1.577   7.990 -2.0345 -0.5485 -3.3593
  836MOL0     H15348   9.528   1.802   7.384 -0.1689  3.1049  1.9781
  836MOL0     H15349   9.444   1.557   7.358 -2.1309 -0.3220 -2.7551
  836MOL0     H15350   9.042   1.344   7.528 -1.0086 -1.5547  3.2135
  836MOL0     H15351   8.903   1.129   7.483  0.4636 -1.2590  0.7957
  836MOL0     H15352   7.994   0.385   6.388  2.6501  0.1942  0.7695
  836MOL0     H15353   7.926   0.357   6.137 -0.7228 -2.3924 -3.4752
  836MOL0     H15354   7.728   0.079   5.893  1.0042 -4.1149  0.2555
  836MOL0     H15355   7.600   0.088   5.690 -0.7971  3.6043  1.2345
  836MOL0     H15356   7.496   0.067   5.374 -2.3525  0.7838  1.5124
  836MOL0     H15357   7.521   0.153   5.519 -1.9282 -0.3650 -0.7780
  836MOL0     H15358   7.590   0.341   5.431  0.6867 -1.5231  1.9267
  836MOL0     H15359   7.475   0.297   5.330  0.3143 -2.6051 -1.3245
  836MOL0     H15360   7.733   0.204   5.219  0.6251 -0.5877  1.8666
  836MOL0     H15361   7.574   0.239   5.148  0.0243  2.7128 -1.4634
  836MOL0     H15362   7.768   0.454   5.222 -2.2162  1.7248  2.2707
  836MOL0     H15363   7.598   0.480   5.205 -1.6974 -0.5910  0.8719
  836MOL0     H15364   7.703   0.412   4.802 -1.8569 -1.5911  0.5866
  836MOL0     H15365   7.966   0.082   5.456  2.3600 -2.6385  0.8932
  836MOL0     H15366   8.171   0.159   5.734 -0.6137  0.4397  0.0079
  836MOL0     H15367   8.181  -0.014   5.700  0.6300  0.3251  1.2676
  836MOL0     H15368   8.184   0.096   5.565  1.0146  0.2501  0.2831
  837MOL0     O15369   7.460  10.320   6.183 -0.0491 -0.8127  0.2836
  837MOL0     C15370   7.544  10.235   6.221 -0.6446  0.9134 -0.1152
  837MOL0     O15371   7.529  10.100   6.196  0.0086 -0.4536 -0.5119
  837MOL0     C15372   7.414  10.034   6.165  0.2445  0.1946 -1.1294
  837MOL0     C15373   7.435   9.896   6.140 -0.4432  0.1613 -0.1021
  837MOL0     C15374   7.331   9.809   6.112 -0.3141 -0.7040  0.1847
  837MOL0     C15375   7.198   9.854   6.123  0.2712  0.1626  0.3981
  837MOL0     O15376   7.106   9.750   6.106  0.5989  0.2423  1.3889
  837MOL0     C15377   6.996   9.791   6.020 -0.6705 -0.3593  0.5422
  837MOL0     C15378   6.924   9.667   5.972  0.0259  0.2346  1.0974
  837MOL0     C15379   7.000   9.559   5.888 -0.4707  0.1549 -0.7360
  837MOL0     C15380   6.981   9.574   5.735  1.0198  0.2563 -0.3456
  837MOL0     C15381   7.041   9.699   5.670 -0.5794  0.4405 -0.0476
  837MOL0     C15382   7.012   9.700   5.517  0.1624  0.3927  0.7224
  837MOL0     C15383   7.043   9.829   5.448  0.0505  0.1016  0.3246
  837MOL0     C15384   7.202   9.849   5.433 -0.1337  0.2083  0.1195
  837MOL0     N15385   7.225   9.983   5.378 -0.5109 -1.4414 -0.4374
  837MOL0     C15386   7.293  10.024   5.257 -0.3595  0.4991 -0.1332
  837MOL0     C15387   7.294  10.158   5.254  0.9319 -0.3232 -0.1537
  837MOL0     C15388   7.343  10.248   5.152 -0.6828 -0.3409  0.5231
  837MOL0     C15389   7.295  10.198   5.010  0.2964  0.1090 -0.4506
  837MOL0     C15390   7.156  10.240   4.959 -0.0325 -0.0196  0.6639
  837MOL0     C15391   7.041  10.175   5.029 -0.6513  0.1178  0.8220
  837MOL0     O15392   7.020  10.038   4.981 -0.0082 -0.5921 -0.1672
  837MOL0     C15393   6.909   9.975   5.022  0.4282  0.6266 -0.1091
  837MOL0     C15394   6.839   9.996   5.139 -0.2244  0.1278 -1.5803
  837MOL0     C15395   6.712   9.932   5.162 -0.1206 -1.0089  0.5321
  837MOL0     C15396   6.650   9.950   5.293 -1.2767  0.1792 -0.7124
  837MOL0     C15397   6.664   9.845   5.062  0.0096  0.9651  0.3034
  837MOL0     C15398   6.527   9.788   5.069  0.0464  0.6164 -1.5908
  837MOL0     O15399   6.503   9.675   4.994 -0.6144  0.1461  0.3210
  837MOL0     C15400   6.378   9.616   4.983 -0.1741 -0.0724 -0.2125
  837MOL0     C15401   6.284   9.661   4.891 -0.6399  0.8473  0.1372
  837MOL0     C15402   6.164   9.598   4.868 -0.1134 -0.5093  0.3933
  837MOL0     C15403   6.136   9.484   4.945 -0.0696 -0.3524 -1.5157
  837MOL0     O15404   6.018   9.417   4.951  0.7395  0.0940  0.2444
  837MOL0     C15405   5.916   9.447   4.847 -0.4566 -0.4711 -0.3900
  837MOL0     C15406   5.799   9.343   4.889 -0.4137 -0.9779  0.0625
  837MOL0     C15407   5.672   9.391   4.824 -0.1944 -0.2933  0.3774
  837MOL0     C15408   5.567   9.275   4.857  0.0183 -0.1406  1.1798
  837MOL0     C15409   5.488   9.215   4.740 -0.2837  0.0128 -0.3537
  837MOL0     C15410   5.572   9.114   4.666 -0.1184 -0.3695 -0.1775
  837MOL0     C15411   5.502   9.053   4.547 -0.4060 -0.3320  0.5373
  837MOL0     C15412   5.380   8.985   4.594  0.4540 -0.2926 -0.0305
  837MOL0    Cl15413   5.320   8.889   4.450  0.2703 -0.2744  0.4960
  837MOL0     C15414   6.224   9.431   5.034 -0.9483 -0.3637  0.6864
  837MOL0     C15415   6.345   9.501   5.055  0.0150  0.6944  0.8309
  837MOL0     O15416   6.437   9.838   5.137 -0.5443  0.2593  0.0713
  837MOL0     C15417   6.744   9.816   4.942 -0.0333 -0.8706 -0.4338
  837MOL0     C15418   6.862   9.882   4.929 -0.3301 -0.5535 -0.3750
  837MOL0     N15419   7.227  10.201   5.366  0.4558 -0.9396 -0.9795
  837MOL0     N15420   7.184  10.099   5.438  0.7221 -0.1707 -0.2360
  837MOL0     C15421   7.173   9.990   6.134  0.8914  0.0692 -0.6963
  837MOL0     C15422   7.281  10.078   6.155  0.4330 -1.3548  0.6857
  837MOL0     C15423   7.679  10.286   6.267 -0.5946 -0.4635 -0.2026
  837MOL0     C15424   7.779  10.178   6.285  0.9229  0.0641 -0.1732
  837MOL0     C15425   7.911  10.212   6.333  1.4291 -0.1749 -0.6486
  837MOL0     C15426   7.943  10.343   6.360  0.7982 -0.6141  0.3404
  837MOL0     O15427   8.057  10.385   6.412 -0.5617 -0.6420 -0.6612
  837MOL0     C15428   8.182  10.323   6.359 -0.2042 -0.6940  0.5128
  837MOL0     C15429   8.300  10.421   6.381 -0.6524 -0.3284 -0.2973
  837MOL0     C15430   8.306  10.550   6.305 -0.2012 -1.0491  1.0023
  837MOL0     C15431   8.438  10.643   6.318  0.2261  0.0688 -0.6849
  837MOL0     C15432   8.558  10.570   6.355 -0.0689  0.3698 -0.1053
  837MOL0     C15433   8.657  10.502   6.386  0.4986  0.2715 -0.2713
  837MOL0     C15434   7.846  10.438   6.343 -0.6020 -1.0079 -0.3548
  837MOL0     C15435   7.718  10.411   6.295 -0.9526 -0.5367  0.1220
  837MOL0     C15436   7.622  10.532   6.289  0.4824  0.0296  1.1425
  837MOL0     H15437   7.538   9.860   6.142 -1.6436 -3.6829  2.3783
  837MOL0     H15438   7.362   9.709   6.084  0.6530 -1.2943  3.0382
  837MOL0     H15439   7.020   9.852   5.933 -0.7298  2.1932  2.1988
  837MOL0     H15440   6.938   9.867   6.073  1.8399  1.9993  0.1249
  837MOL0     H15441   6.878   9.611   6.054 -0.4432  0.0610  0.7204
  837MOL0     H15442   6.841   9.703   5.910  1.0664 -2.1565 -1.9170
  837MOL0     H15443   7.102   9.551   5.928 -0.9184 -0.9803  0.2156
  837MOL0     H15444   6.952   9.463   5.906 -0.4786  0.6653  2.6288
  837MOL0     H15445   7.016   9.492   5.672 -0.0291 -0.4076 -0.0778
  837MOL0     H15446   6.873   9.577   5.719  0.8023  1.9762  1.1205
  837MOL0     H15447   7.151   9.700   5.673 -0.2638 -2.2716 -3.4370
  837MOL0     H15448   7.000   9.791   5.711 -1.0611  0.4243 -0.4790
  837MOL0     H15449   7.063   9.619   5.464 -1.4885  0.1565 -0.6021
  837MOL0     H15450   6.904   9.683   5.512  0.0909  0.8374  0.6864
  837MOL0     H15451   6.987   9.908   5.500 -0.9754  0.6325 -1.5159
  837MOL0     H15452   7.013   9.820   5.344  1.0716 -2.9454  0.1976
  837MOL0     H15453   7.256   9.843   5.528 -2.7366 -0.6011  1.6292
  837MOL0     H15454   7.244   9.771   5.368 -6.0150 -0.8835 -3.0729
  837MOL0     H15455   7.324   9.970   5.168  1.6999  2.8736 -0.9802
  837MOL0     H15456   7.452  10.245   5.159 -0.7770 -0.8813  2.3770
  837MOL0     H15457   7.321  10.355   5.157 -1.0043 -0.1606 -2.7275
  837MOL0     H15458   7.361  10.233   4.930  0.8214  1.0025  0.3462
  837MOL0     H15459   7.300  10.089   5.002  0.7789 -0.0296  1.4208
  837MOL0     H15460   7.142  10.347   4.973 -2.3180 -0.3441  1.2415
  837MOL0     H15461   7.164  10.220   4.852  0.6948  1.5610  0.4045
  837MOL0     H15462   7.056  10.177   5.137  1.4103 -0.0655  0.5776
  837MOL0     H15463   6.955  10.242   5.014 -0.0719  0.2728 -2.6128
  837MOL0     H15464   6.890  10.054   5.215  1.5776 -1.7154 -1.2693
  837MOL0     H15465   6.702  10.026   5.351 -1.4291  0.6868 -1.2344
  837MOL0     H15466   6.637   9.853   5.342  1.2374  0.0261 -0.2040
  837MOL0     H15467   6.551   9.994   5.277 -0.4805  1.8936 -1.0480
  837MOL0     H15468   6.302   9.750   4.831  1.0214 -0.5620 -1.5372
  837MOL0     H15469   6.090   9.634   4.797  1.6596 -1.2598 -1.9507
  837MOL0     H15470   5.885   9.551   4.843  1.1761  0.0297 -0.6570
  837MOL0     H15471   5.950   9.432   4.744 -2.5749 -0.3133 -1.1568
  837MOL0     H15472   5.829   9.239   4.872 -0.9802 -1.4197  1.6329
  837MOL0     H15473   5.784   9.361   4.996  2.6987  1.0617  0.3087
  837MOL0     H15474   5.686   9.399   4.715 -1.0919 -0.7128  0.2159
  837MOL0     H15475   5.631   9.483   4.865  0.2648  0.0822  0.0041
  837MOL0     H15476   5.487   9.316   4.919 -0.1035 -0.3413  1.1534
  837MOL0     H15477   5.626   9.196   4.903  2.9618  1.9472  1.2921
  837MOL0     H15478   5.399   9.158   4.768 -2.1080  1.3888 -2.9551
  837MOL0     H15479   5.449   9.289   4.669  0.6753 -0.6705 -1.6427
  837MOL0     H15480   5.614   9.039   4.733 -0.7713 -1.4769 -0.9815
  837MOL0     H15481   5.652   9.167   4.613 -1.7733 -0.4636 -2.9253
  837MOL0     H15482   5.570   8.989   4.491 -0.7256  1.7249 -2.4345
  837MOL0     H15483   5.475   9.136   4.481 -1.1085  1.2876  2.7323
  837MOL0     H15484   5.301   9.057   4.617 -0.9771 -1.2179 -1.8375
  837MOL0     H15485   5.387   8.914   4.678  0.8406  0.1259  0.2976
  837MOL0     H15486   6.202   9.349   5.101  2.2054 -2.8293 -1.0016
  837MOL0     H15487   6.423   9.470   5.123  0.6909 -0.5931 -0.4750
  837MOL0     H15488   6.723   9.748   4.860  4.8425 -2.8631 -0.3311
  837MOL0     H15489   6.923   9.872   4.840 -1.4494  1.0412 -1.3741
  837MOL0     H15490   7.075  10.037   6.140  1.6870  1.9386 -1.6025
  837MOL0     H15491   7.261  10.185   6.151  2.6926 -0.7004  3.4643
  837MOL0     H15492   7.761  10.073   6.268 -2.2981  0.4521  0.3138
  837MOL0     H15493   7.971  10.125   6.359 -0.2264 -1.4441 -0.9269
  837MOL0     H15494   8.208  10.229   6.409  1.6953 -0.4062  0.1681
  837MOL0     H15495   8.167  10.305   6.252 -2.5741  3.6324 -0.1433
  837MOL0     H15496   8.392  10.365   6.361 -1.5379 -2.1491  0.5168
  837MOL0     H15497   8.296  10.434   6.489  1.0889  2.4128 -0.4584
  837MOL0     H15498   8.289  10.527   6.199  1.6156 -2.1814  0.9127
  837MOL0     H15499   8.218  10.607   6.336 -0.8335 -2.0278  1.0870
  837MOL0     H15500   8.417  10.704   6.406 -1.1130  0.2813 -1.1248
  837MOL0     H15501   8.442  10.715   6.235 -2.7678  2.3678  0.9516
  837MOL0     H15502   8.732  10.435   6.421 -0.2716  0.4650  1.9266
  837MOL0     H15503   7.881  10.536   6.371 -1.3508 -1.0898  0.9785
  837MOL0     H15504   7.668  10.616   6.340  0.9447 -0.3633  1.3809
  837MOL0     H15505   7.596  10.553   6.185 -1.7998 -2.3258  1.1296
  837MOL0     H15506   7.528  10.490   6.326 -0.0911 -0.5195 -0.7676
  838MOL0     O15507   7.650   5.183   6.550 -0.0601 -0.1148  0.0984
  838MOL0     C15508   7.531   5.177   6.553  0.9300 -0.3414  0.0260
  838MOL0     O15509   7.453   5.123   6.647 -0.0442  0.4139 -0.3116
  838MOL0     C15510   7.501   5.080   6.770 -0.0435 -0.3644 -0.5478
  838MOL0     C15511   7.624   5.102   6.818 -0.0854 -0.8188 -0.0043
  838MOL0     C15512   7.653   5.068   6.951 -0.0978 -0.1956  0.5846
  838MOL0     C15513   7.561   5.012   7.034 -0.8324  0.8324  0.3286
  838MOL0     O15514   7.596   4.977   7.160 -0.7386  0.5521 -0.4321
  838MOL0     C15515   7.498   4.950   7.258  0.0731 -1.0629 -0.6423
  838MOL0     C15516   7.566   4.985   7.398  0.6606  0.3309  0.2350
  838MOL0     C15517   7.482   4.944   7.524 -0.1380 -0.2647 -0.7071
  838MOL0     C15518   7.325   4.981   7.512  0.1395  0.6221  0.3399
  838MOL0     C15519   7.272   5.044   7.640 -0.1868  0.3905 -0.5012
  838MOL0     C15520   7.121   5.054   7.622  0.3646 -0.0274 -0.1497
  838MOL0     C15521   7.072   5.173   7.535  0.0255  0.6823  0.2049
  838MOL0     C15522   7.003   5.121   7.398 -0.3990 -0.2312  0.0193
  838MOL0     N15523   7.005   5.236   7.303  0.9528  0.0810  0.0019
  838MOL0     C15524   6.892   5.263   7.237  0.3509 -1.5179  1.2898
  838MOL0     C15525   6.945   5.350   7.146 -0.4154 -0.0594 -0.5219
  838MOL0     C15526   6.863   5.418   7.038  0.4721  0.3531  0.0442
  838MOL0     C15527   6.935   5.539   6.974  1.0804 -0.3959  0.0668
  838MOL0     C15528   6.848   5.638   6.895  0.1899 -0.6165 -0.4245
  838MOL0     C15529   6.771   5.558   6.780 -0.1460 -0.3393  1.1279
  838MOL0     O15530   6.658   5.481   6.834  0.5496  0.5381  0.3151
  838MOL0     C15531   6.607   5.395   6.739  0.1063 -0.4247 -0.8298
  838MOL0     C15532   6.496   5.431   6.666  0.5184 -0.3704  0.8982
  838MOL0     C15533   6.448   5.353   6.558 -1.1663 -0.3937  0.0994
  838MOL0     C15534   6.341   5.408   6.459 -0.4126 -0.3595  0.0863
  838MOL0     C15535   6.491   5.219   6.548 -0.0641 -0.2041  0.1964
  838MOL0     C15536   6.434   5.119   6.448 -0.3180 -0.9158 -0.6182
  838MOL0     O15537   6.516   5.017   6.416  0.6619 -0.2283 -0.8723
  838MOL0     C15538   6.450   4.915   6.348 -0.4101 -0.2321  0.6473
  838MOL0     C15539   6.493   4.887   6.215  0.2234 -0.6430 -0.6977
  838MOL0     C15540   6.444   4.782   6.139 -0.6667 -0.2939  0.4180
  838MOL0     C15541   6.342   4.706   6.194  0.3814 -0.7563 -0.2424
  838MOL0     O15542   6.298   4.593   6.131  0.2576  0.2817  0.0650
  838MOL0     C15543   6.384   4.477   6.143 -0.2898 -0.8946 -0.7848
  838MOL0     C15544   6.380   4.405   6.015 -0.1845 -0.8401  0.7828
  838MOL0     C15545   6.502   4.435   5.914  0.5474  0.4196 -0.2119
  838MOL0     C15546   6.514   4.310   5.817  0.7853 -0.3104 -0.8889
  838MOL0     C15547   6.385   4.253   5.754  0.7225 -0.0588 -0.9108
  838MOL0     C15548   6.396   4.176   5.628 -0.2926  0.5080  0.5895
  838MOL0     C15549   6.258   4.125   5.581  0.7522 -0.2173  0.8812
  838MOL0     C15550   6.260   4.112   5.428  0.1795  0.0067 -0.0262
  838MOL0    Cl15551   6.100   4.049   5.364 -0.7099  0.2796  0.4686
  838MOL0     C15552   6.290   4.731   6.323 -0.0261  0.1759  0.3072
  838MOL0     C15553   6.346   4.835   6.410 -0.4051  0.7646  0.0968
  838MOL0     O15554   6.323   5.137   6.393 -0.5240  0.7111  0.1154
  838MOL0     C15555   6.604   5.183   6.619  0.5374 -0.5024 -0.1495
  838MOL0     C15556   6.662   5.273   6.720  0.4239 -0.5615  0.3753
  838MOL0     N15557   7.074   5.378   7.177  0.7576 -0.6001 -0.4139
  838MOL0     N15558   7.109   5.303   7.267 -0.0083 -0.6594 -0.5848
  838MOL0     C15559   7.431   4.982   6.978 -0.8537 -1.5764  1.5660
  838MOL0     C15560   7.408   5.009   6.846 -1.0648  0.1515 -0.5970
  838MOL0     C15561   7.454   5.219   6.433 -0.3162 -0.5286  0.7604
  838MOL0     C15562   7.343   5.138   6.384 -0.2897  0.5764  1.2857
  838MOL0     C15563   7.258   5.193   6.290  0.2485 -0.7208  0.5701
  838MOL0     C15564   7.290   5.314   6.222  0.7731 -0.2773  0.7295
  838MOL0     O15565   7.202   5.356   6.128 -0.1469  0.3252 -0.4416
  838MOL0     C15566   7.250   5.445   6.020  0.2047  0.5531 -1.1839
  838MOL0     C15567   7.183   5.407   5.895  0.0327 -0.2001 -0.6910
  838MOL0     C15568   7.196   5.517   5.784  0.0142 -0.2284 -0.0604
  838MOL0     C15569   7.065   5.580   5.735  0.3874 -0.1877  0.3803
  838MOL0     C15570   6.995   5.638   5.853 -0.2467 -0.5135  0.6150
  838MOL0     C15571   6.924   5.673   5.945 -0.3267  0.1183  0.2117
  838MOL0     C15572   7.399   5.391   6.265  0.8051 -0.2438 -0.0621
  838MOL0     C15573   7.476   5.354   6.374 -1.0358  1.4733 -0.6835
  838MOL0     C15574   7.582   5.450   6.432  0.5134  0.6938 -0.0578
  838MOL0     H15575   7.710   5.146   6.770 -1.9615  0.8504 -2.0232
  838MOL0     H15576   7.757   5.080   6.981  0.6987 -1.0669 -1.5551
  838MOL0     H15577   7.467   4.846   7.254  2.4241 -1.9385  1.3145
  838MOL0     H15578   7.409   5.011   7.237  1.2714  0.5017 -1.3526
  838MOL0     H15579   7.659   4.930   7.411  0.4754  0.4614  2.6951
  838MOL0     H15580   7.589   5.091   7.415 -0.9642  1.1043 -1.9727
  838MOL0     H15581   7.489   4.839   7.552  0.0497  0.2989  1.5593
  838MOL0     H15582   7.528   5.000   7.606 -1.7173 -0.1669  0.1367
  838MOL0     H15583   7.310   5.051   7.429 -1.2174  0.2604  0.2589
  838MOL0     H15584   7.267   4.891   7.490 -0.2720 -0.5998  5.2067
  838MOL0     H15585   7.322   5.140   7.652  2.0264 -0.9582  2.3695
  838MOL0     H15586   7.298   4.981   7.726 -2.9221 -3.0183 -1.8961
  838MOL0     H15587   7.079   4.969   7.569  1.2522 -0.4341 -0.2179
  838MOL0     H15588   7.090   5.059   7.727 -2.4395 -0.3092 -0.8789
  838MOL0     H15589   7.164   5.232   7.525  1.3782 -1.3614 -0.1298
  838MOL0     H15590   7.005   5.237   7.591 -1.1794  0.2236 -0.6677
  838MOL0     H15591   7.060   5.044   7.344  0.2428 -1.4012  2.2393
  838MOL0     H15592   6.907   5.074   7.422  0.8167 -2.2033  1.3521
  838MOL0     H15593   6.794   5.217   7.233  0.4952 -1.7676 -0.1423
  838MOL0     H15594   6.771   5.463   7.077  1.2848  1.3901  0.8471
  838MOL0     H15595   6.844   5.334   6.970 -2.8275 -1.1758  2.5760
  838MOL0     H15596   6.985   5.600   7.050  0.0961 -1.3533  1.5542
  838MOL0     H15597   7.010   5.509   6.901 -1.3517 -0.7122 -2.4697
  838MOL0     H15598   6.767   5.683   6.953  0.0258 -2.6230  1.0255
  838MOL0     H15599   6.920   5.711   6.856  0.0535 -0.4282 -0.3270
  838MOL0     H15600   6.718   5.619   6.707  0.0705 -1.6885 -0.2093
  838MOL0     H15601   6.843   5.494   6.728 -0.3258 -2.6135  3.4546
  838MOL0     H15602   6.466   5.534   6.682  0.9432  0.0369 -0.7181
  838MOL0     H15603   6.317   5.514   6.473 -0.4939 -0.4784  0.8931
  838MOL0     H15604   6.247   5.358   6.482 -0.6390  0.8174  1.9280
  838MOL0     H15605   6.362   5.388   6.354 -1.4030  1.2908 -0.4641
  838MOL0     H15606   6.569   4.955   6.181 -0.3252 -0.2225 -1.1022
  838MOL0     H15607   6.488   4.756   6.043 -0.4331 -2.2794  1.0168
  838MOL0     H15608   6.484   4.498   6.181 -0.3261  0.5327 -1.4385
  838MOL0     H15609   6.331   4.419   6.219 -5.4691 -0.5548 -3.7079
  838MOL0     H15610   6.391   4.300   6.045  1.1142 -0.8579  0.3083
  838MOL0     H15611   6.281   4.418   5.971 -0.2095  1.3814  1.3977
  838MOL0     H15612   6.591   4.446   5.977  0.1892  0.8230  0.2252
  838MOL0     H15613   6.489   4.536   5.872  1.6455  1.9508  2.8351
  838MOL0     H15614   6.566   4.229   5.869 -0.5413 -2.4470 -2.7389
  838MOL0     H15615   6.574   4.344   5.732  2.1290  1.7564  0.7696
  838MOL0     H15616   6.325   4.213   5.837 -0.5284 -0.6808 -2.0677
  838MOL0     H15617   6.336   4.345   5.720  0.5709 -0.2913 -1.3289
  838MOL0     H15618   6.463   4.098   5.664 -1.3653 -0.1211  1.3103
  838MOL0     H15619   6.456   4.230   5.555 -1.7809 -1.2477 -2.0755
  838MOL0     H15620   6.174   4.189   5.610 -0.9125 -1.8976  0.0154
  838MOL0     H15621   6.248   4.028   5.630  1.9754 -2.2157 -2.5207
  838MOL0     H15622   6.348   4.053   5.399  1.5679  1.5020  0.9863
  838MOL0     H15623   6.272   4.211   5.383  0.2783 -0.3603 -0.8223
  838MOL0     H15624   6.208   4.673   6.364  0.2200  0.3029  0.9859
  838MOL0     H15625   6.308   4.847   6.511 -0.3607 -1.1744  0.3876
  838MOL0     H15626   6.650   5.086   6.607 -0.1749 -0.5735 -2.9087
  838MOL0     H15627   6.749   5.240   6.775  1.2708  1.0487  0.0536
  838MOL0     H15628   7.348   4.930   7.024 -2.7621 -0.8061 -0.8369
  838MOL0     H15629   7.326   4.970   6.786 -0.2933 -1.0866 -0.8851
  838MOL0     H15630   7.325   5.037   6.418 -0.2722 -0.7339 -2.1860
  838MOL0     H15631   7.170   5.140   6.253 -1.1152  1.8916 -0.1440
  838MOL0     H15632   7.238   5.552   6.042 -0.9146  0.5870 -1.8970
  838MOL0     H15633   7.357   5.433   6.002  0.9542  0.6590  2.4229
  838MOL0     H15634   7.076   5.404   5.916 -0.2060  0.3124 -1.7366
  838MOL0     H15635   7.219   5.307   5.869  1.9756 -0.8786  3.6540
  838MOL0     H15636   7.253   5.601   5.825  0.5826 -0.1431 -0.9831
  838MOL0     H15637   7.262   5.477   5.706 -0.0928 -1.1843  0.3221
  838MOL0     H15638   7.001   5.506   5.686 -2.8850 -1.5548  5.8329
  838MOL0     H15639   7.104   5.664   5.676 -0.4859  1.9529  2.6834
  838MOL0     H15640   6.867   5.690   6.034 -2.9142  1.1857 -1.5303
  838MOL0     H15641   7.428   5.482   6.214  0.2476 -0.1831 -0.2807
  838MOL0     H15642   7.682   5.421   6.395  0.0910 -4.2048  1.8895
  838MOL0     H15643   7.547   5.548   6.397 -1.3110 -0.4893 -1.7337
  838MOL0     H15644   7.596   5.443   6.540  3.5004  0.8767 -0.3509
  839MOL0     O15645   1.849   0.734  10.143 -0.4685 -0.0598  0.1509
  839MOL0     C15646   1.863   0.830  10.067 -0.4910 -0.2819  0.3340
  839MOL0     O15647   1.779   0.869   9.971  0.8494  0.0570 -0.3530
  839MOL0     C15648   1.664   0.791   9.941 -0.1724 -0.1518 -0.3736
  839MOL0     C15649   1.540   0.836   9.997 -0.7550 -0.3917  0.9408
  839MOL0     C15650   1.416   0.783   9.947  0.0127 -0.2546  0.0478
  839MOL0     C15651   1.418   0.693   9.839  0.0318 -0.1394  0.9688
  839MOL0     O15652   1.311   0.656   9.770  0.2477 -0.4735  0.5888
  839MOL0     C15653   1.247   0.764   9.693 -0.5744  1.0384  0.0793
  839MOL0     C15654   1.343   0.821   9.578  0.0724  0.1049 -0.6965
  839MOL0     C15655   1.257   0.894   9.481  0.4573  0.4744  1.6430
  839MOL0     C15656   1.346   0.994   9.407 -0.1156  0.5719  1.7669
  839MOL0     C15657   1.299   1.064   9.280  0.1123  0.7417 -0.1251
  839MOL0     C15658   1.308   0.974   9.149  0.0222 -0.7192 -0.2150
  839MOL0     C15659   1.255   1.065   9.032 -0.8061  0.7442  0.2022
  839MOL0     C15660   1.289   0.998   8.895 -0.9463 -0.0499 -0.0902
  839MOL0     N15661   1.223   0.868   8.879  0.5325  0.8709 -0.0731
  839MOL0     C15662   1.089   0.847   8.871 -0.0152  0.3894 -0.5234
  839MOL0     C15663   1.071   0.711   8.862 -0.8290 -0.4394  0.0248
  839MOL0     C15664   0.942   0.634   8.877 -0.6282 -0.2499  0.2166
  839MOL0     C15665   0.875   0.644   9.013  0.3944  0.4885 -0.0100
  839MOL0     C15666   0.974   0.595   9.125 -0.1507 -0.0187 -0.2483
  839MOL0     C15667   1.025   0.454   9.123 -0.2354  0.5734 -0.4247
  839MOL0     O15668   1.099   0.428   9.244 -0.1584  0.3959  0.8976
  839MOL0     C15669   1.234   0.445   9.256  0.6635 -0.3253  0.0166
  839MOL0     C15670   1.321   0.508   9.160 -0.0897  0.6435  0.2387
  839MOL0     C15671   1.463   0.510   9.158 -0.4515  0.2232  0.1044
  839MOL0     C15672   1.531   0.565   9.034  0.3870 -0.6220  0.8889
  839MOL0     C15673   1.525   0.448   9.269  0.2248 -0.9465 -0.5914
  839MOL0     C15674   1.674   0.452   9.305 -0.8803 -0.0938 -0.0464
  839MOL0     O15675   1.714   0.397   9.419 -0.0238 -0.6444 -0.0321
  839MOL0     C15676   1.840   0.412   9.477  0.1095 -1.2776  0.3352
  839MOL0     C15677   1.857   0.349   9.595  0.2195 -0.0381  0.5617
  839MOL0     C15678   1.980   0.330   9.650  0.8215  0.5353  1.3086
  839MOL0     C15679   2.092   0.389   9.593  0.4455 -0.1430  0.6306
  839MOL0     O15680   2.223   0.375   9.643  0.0819  0.4515  0.1726
  839MOL0     C15681   2.239   0.328   9.772 -0.9986  0.4793  0.1635
  839MOL0     C15682   2.247   0.181   9.782  0.3543 -0.9365 -1.0697
  839MOL0     C15683   2.345   0.114   9.692  0.3098  0.1592  0.1314
  839MOL0     C15684   2.338  -0.036   9.707  0.8126 -0.4572  0.1489
  839MOL0     C15685   2.407  -0.096   9.589  0.7440  0.0840  0.6096
  839MOL0     C15686   2.414  -0.252   9.602  0.6574  0.2118 -0.0917
  839MOL0     C15687   2.489  -0.317   9.478  0.1766 -0.9659 -0.6188
  839MOL0     C15688   2.505  -0.479   9.480  0.1575  0.0861  0.2852
  839MOL0    Cl15689   2.520  -0.557   9.639 -0.0391  0.0851  0.1843
  839MOL0     C15690   2.080   0.465   9.476  0.8543  0.1793 -0.5940
  839MOL0     C15691   1.955   0.472   9.418  0.4773  0.5391  0.4325
  839MOL0     O15692   1.749   0.490   9.213 -0.6009  0.3568 -0.0771
  839MOL0     C15693   1.442   0.378   9.358 -0.3299 -0.1553 -0.5912
  839MOL0     C15694   1.305   0.376   9.349  0.8531  0.6479  0.1220
  839MOL0     N15695   1.194   0.650   8.869 -0.0879 -0.5331 -0.2684
  839MOL0     N15696   1.285   0.746   8.882  0.4638 -0.6890 -0.4434
  839MOL0     C15697   1.534   0.640   9.799  0.4578  1.4617 -0.7014
  839MOL0     C15698   1.659   0.685   9.852  0.8445 -0.1494 -0.1254
  839MOL0     C15699   1.988   0.896  10.058 -0.3006 -0.3333  0.2332
  839MOL0     C15700   2.000   1.035  10.074  0.0177  1.0990 -0.3792
  839MOL0     C15701   2.122   1.103  10.070  0.2437 -0.2779 -0.6191
  839MOL0     C15702   2.241   1.025  10.060  0.2699  0.1490  0.4998
  839MOL0     O15703   2.359   1.096  10.046  0.1752 -0.3437  0.4668
  839MOL0     C15704   2.473   1.021  10.017  0.1052 -0.7887  0.3194
  839MOL0     C15705   2.591   1.109  10.011  0.8296  0.6826 -0.1509
  839MOL0     C15706   2.629   1.154  10.148 -0.5839 -0.4271  0.6680
  839MOL0     C15707   2.776   1.195  10.136 -1.0460 -1.1085  0.4062
  839MOL0     C15708   2.811   1.233  10.274 -0.4747  0.2884  0.5325
  839MOL0     C15709   2.843   1.258  10.387 -0.5776 -1.0509 -0.2624
  839MOL0     C15710   2.233   0.889  10.068 -0.3958  0.4835 -0.5378
  839MOL0     C15711   2.109   0.820  10.062  0.7995 -0.9447  0.1300
  839MOL0     C15712   2.113   0.670  10.038  0.2516  0.5790 -0.3065
  839MOL0     H15713   1.514   0.918  10.064  0.6145  1.7957 -1.0436
  839MOL0     H15714   1.330   0.818  10.003 -0.1039 -0.2146 -0.1526
  839MOL0     H15715   1.206   0.845   9.755 -1.2051  0.3023  0.6450
  839MOL0     H15716   1.161   0.726   9.637 -2.2777  0.2988  2.9573
  839MOL0     H15717   1.418   0.878   9.634  3.0002 -2.7964 -1.3456
  839MOL0     H15718   1.405   0.749   9.526 -0.6027  0.6805 -2.3595
  839MOL0     H15719   1.191   0.831   9.420 -0.6064  1.5702  1.6140
  839MOL0     H15720   1.179   0.948   9.536  1.0436  0.1058  2.8843
  839MOL0     H15721   1.367   1.076   9.477  0.6084  1.7763  0.1938
  839MOL0     H15722   1.443   0.944   9.399 -1.8079 -2.8051 -0.1412
  839MOL0     H15723   1.371   1.146   9.269  0.4492  0.5872  0.9020
  839MOL0     H15724   1.197   1.102   9.296  0.9644  2.5338  1.3950
  839MOL0     H15725   1.413   0.950   9.129 -0.1487  0.1932 -2.5800
  839MOL0     H15726   1.250   0.881   9.145 -1.7876  0.3938 -2.6289
  839MOL0     H15727   1.304   1.163   9.036  3.0286 -0.9967  0.9766
  839MOL0     H15728   1.146   1.073   9.041 -0.8247  0.6541  0.0556
  839MOL0     H15729   1.260   1.076   8.825 -2.0698  0.7026  1.1696
  839MOL0     H15730   1.397   0.984   8.897 -1.0021 -0.6633  2.5316
  839MOL0     H15731   1.013   0.924   8.879  1.4469  2.0311 -1.6593
  839MOL0     H15732   0.965   0.532   8.847 -0.8239 -0.2086 -0.0809
  839MOL0     H15733   0.873   0.671   8.801  0.5447 -1.3309 -1.4244
  839MOL0     H15734   0.855   0.750   9.031  1.7318  0.5531  1.3057
  839MOL0     H15735   0.794   0.570   9.016  2.9961 -2.8915 -3.1549
  839MOL0     H15736   1.065   0.656   9.131 -1.3452  1.8109  0.2773
  839MOL0     H15737   0.920   0.611   9.219  2.6633  1.1403  1.3248
  839MOL0     H15738   0.940   0.385   9.114 -1.7395  2.5295 -2.6365
  839MOL0     H15739   1.092   0.444   9.037 -0.1890 -0.5576 -0.2708
  839MOL0     H15740   1.264   0.553   9.079 -0.7155  0.9660  0.8512
  839MOL0     H15741   1.576   0.663   9.054 -1.1059  0.4018 -0.4970
  839MOL0     H15742   1.459   0.584   8.954  0.0236 -1.9802  0.8686
  839MOL0     H15743   1.592   0.501   8.970  0.4166 -0.8330  1.1259
  839MOL0     H15744   1.769   0.306   9.641 -0.4034 -1.0798 -1.4770
  839MOL0     H15745   1.977   0.266   9.738 -0.5127 -3.3035 -1.2637
  839MOL0     H15746   2.330   0.369   9.819  0.0536 -3.5290  2.0825
  839MOL0     H15747   2.154   0.364   9.830 -2.2358 -1.4293 -0.3870
  839MOL0     H15748   2.276   0.164   9.886  2.0936  3.1276 -0.7332
  839MOL0     H15749   2.147   0.140   9.766 -2.1907  2.7993  3.0814
  839MOL0     H15750   2.448   0.146   9.710  0.9540 -2.2972  1.2734
  839MOL0     H15751   2.320   0.141   9.589 -0.1639 -2.0267 -0.3904
  839MOL0     H15752   2.234  -0.070   9.713  0.9026 -0.7359  0.1459
  839MOL0     H15753   2.397  -0.058   9.796  1.3392  2.0354  0.4774
  839MOL0     H15754   2.366  -0.075   9.489  1.4692  0.6367  0.4214
  839MOL0     H15755   2.508  -0.055   9.578  0.6581 -0.1252 -1.4103
  839MOL0     H15756   2.309  -0.283   9.611  0.1674  1.1900 -1.8368
  839MOL0     H15757   2.464  -0.281   9.694  0.7979 -0.1363 -0.2769
  839MOL0     H15758   2.588  -0.269   9.484 -0.6655  0.9298 -1.2259
  839MOL0     H15759   2.439  -0.276   9.390 -0.1724  0.6446  0.3023
  839MOL0     H15760   2.596  -0.493   9.421  0.8475  3.5583  0.2966
  839MOL0     H15761   2.421  -0.527   9.428  1.4498  0.4922 -2.2839
  839MOL0     H15762   2.166   0.516   9.433  0.4470 -0.8251 -2.7403
  839MOL0     H15763   1.948   0.515   9.319  1.6376  0.3104  0.2342
  839MOL0     H15764   1.492   0.325   9.438 -1.0050  1.5310  1.0338
  839MOL0     H15765   1.256   0.316   9.425 -0.4128  0.3960 -0.8715
  839MOL0     H15766   1.530   0.567   9.719 -0.6787  2.6400 -1.7823
  839MOL0     H15767   1.748   0.648   9.804  0.7052 -0.3449 -0.2330
  839MOL0     H15768   1.915   1.094  10.105  0.3728  0.7233  1.3960
  839MOL0     H15769   2.126   1.211  10.083  0.4549 -0.1710 -1.4753
  839MOL0     H15770   2.492   0.942  10.090 -0.9496 -0.2155  1.2612
  839MOL0     H15771   2.448   0.971   9.923  1.9393  0.6697 -1.0142
  839MOL0     H15772   2.573   1.200   9.953  0.1675 -0.8808 -2.5130
  839MOL0     H15773   2.674   1.053   9.967 -0.8324 -0.9721 -1.2870
  839MOL0     H15774   2.573   1.243  10.180  1.9747  1.9649 -0.9613
  839MOL0     H15775   2.617   1.077  10.224 -1.4976  0.6444  1.6454
  839MOL0     H15776   2.799   1.279  10.070  2.3852 -2.4290 -0.3166
  839MOL0     H15777   2.845   1.120  10.095  1.7883  3.0020 -3.3807
  839MOL0     H15778   2.873   1.305  10.479 -1.4253 -0.3007 -0.3505
  839MOL0     H15779   2.323   0.830  10.082 -0.5806  0.6644  1.6931
  839MOL0     H15780   2.217   0.647  10.012  0.1142 -2.4770  1.4252
  839MOL0     H15781   2.092   0.612  10.128  0.9815  2.9810  1.5015
  839MOL0     H15782   2.059   0.637   9.948  2.9263 -0.2222 -1.7334
  840MOL0     O15783   2.866   3.276   5.582  0.8843  0.6814  0.2732
  840MOL0     C15784   2.797   3.232   5.489  0.2543  0.3016  0.2086
  840MOL0     O15785   2.837   3.216   5.361 -0.6247  0.1759 -0.6218
  840MOL0     C15786   2.967   3.236   5.318  0.0194  0.2127  0.5479
  840MOL0     C15787   3.016   3.156   5.215 -0.1889  0.3728  0.0769
  840MOL0     C15788   3.151   3.167   5.172  0.2352  0.0597 -0.3879
  840MOL0     C15789   3.233   3.263   5.218 -0.7189  0.6550 -0.7571
  840MOL0     O15790   3.360   3.267   5.164  0.3209 -0.3047  0.4814
  840MOL0     C15791   3.423   3.396   5.147  0.4919  1.4170 -0.3765
  840MOL0     C15792   3.550   3.380   5.060  0.0721 -0.0133 -0.3260
  840MOL0     C15793   3.500   3.336   4.924  0.4245  0.0614 -0.1592
  840MOL0     C15794   3.619   3.352   4.820 -0.6289  0.8093 -0.0694
  840MOL0     C15795   3.567   3.336   4.680  0.0099  0.8172  0.0959
  840MOL0     C15796   3.460   3.428   4.625 -0.8724  0.3056  0.5009
  840MOL0     C15797   3.398   3.363   4.496  0.3376 -0.1753 -0.1304
  840MOL0     C15798   3.288   3.465   4.439 -1.4887 -0.0836 -0.3001
  840MOL0     N15799   3.231   3.410   4.316  0.5154  0.2554  0.5218
  840MOL0     C15800   3.146   3.296   4.307  0.6077  0.4123  0.0068
  840MOL0     C15801   3.140   3.272   4.173  0.8815 -0.5904  0.1067
  840MOL0     C15802   3.075   3.157   4.097 -0.2824 -0.2725  0.4703
  840MOL0     C15803   3.153   3.023   4.113 -0.6340  0.8272 -0.5894
  840MOL0     C15804   3.099   2.929   4.235 -0.8689  0.4789  0.6077
  840MOL0     C15805   2.982   2.840   4.179 -0.4329 -0.1284  0.7280
  840MOL0     O15806   2.870   2.917   4.148  0.1814  0.1761  0.2598
  840MOL0     C15807   2.788   2.966   4.253  0.2014 -0.6827  0.2167
  840MOL0     C15808   2.677   3.044   4.216  1.1130  0.1322  0.5016
  840MOL0     C15809   2.579   3.080   4.315  0.3220  0.3136  0.7267
  840MOL0     C15810   2.453   3.147   4.263  0.6122 -0.4824  0.5729
  840MOL0     C15811   2.598   3.042   4.452 -0.9103 -0.5690 -0.3322
  840MOL0     C15812   2.495   3.054   4.562 -1.4484  0.2278  0.8999
  840MOL0     O15813   2.551   3.088   4.686  0.6528 -0.0777 -0.0431
  840MOL0     C15814   2.461   3.135   4.784  0.0933 -0.9293  0.0747
  840MOL0     C15815   2.413   3.262   4.780  0.1102 -0.0703  0.1116
  840MOL0     C15816   2.326   3.306   4.872  0.4044  0.2060  0.9858
  840MOL0     C15817   2.291   3.222   4.974 -0.3389  0.1530 -0.6651
  840MOL0     O15818   2.202   3.287   5.062 -0.5606  0.0544  0.0099
  840MOL0     C15819   2.112   3.203   5.136 -0.0760 -0.2129  0.3976
  840MOL0     C15820   2.018   3.283   5.233  0.7788  0.6038  0.7479
  840MOL0     C15821   1.914   3.178   5.274  0.4139  0.5756 -0.0458
  840MOL0     C15822   1.810   3.159   5.163  0.8043  0.7415 -0.4146
  840MOL0     C15823   1.708   3.057   5.213  0.3094  0.2676 -0.1859
  840MOL0     C15824   1.598   3.052   5.122 -0.7167  0.0231  0.0235
  840MOL0     C15825   1.503   2.943   5.153  0.1929  0.7620 -0.9010
  840MOL0     C15826   1.396   2.947   5.045  0.4260 -0.4049 -0.0637
  840MOL0    Cl15827   1.234   2.906   5.109  0.0092 -0.0716 -0.1561
  840MOL0     C15828   2.342   3.098   4.988  0.3672  0.6999  1.1253
  840MOL0     C15829   2.425   3.052   4.886 -0.0040  0.5153 -0.3879
  840MOL0     O15830   2.379   3.028   4.544 -0.0259 -0.1074 -0.8575
  840MOL0     C15831   2.722   2.980   4.486 -0.6441 -0.5986 -0.1155
  840MOL0     C15832   2.809   2.943   4.387 -0.2434 -0.0206  0.3525
  840MOL0     N15833   3.230   3.356   4.108 -0.2655  0.1173 -0.3473
  840MOL0     N15834   3.255   3.446   4.193  0.1739  0.4154  0.3246
  840MOL0     C15835   3.186   3.350   5.322 -0.6505  0.0408  0.3139
  840MOL0     C15836   3.055   3.332   5.372  0.4249  0.5757 -0.3275
  840MOL0     C15837   2.648   3.224   5.506 -0.0997  0.3723 -0.7655
  840MOL0     C15838   2.563   3.220   5.393 -0.0695  0.2734 -0.3404
  840MOL0     C15839   2.427   3.226   5.409 -0.1778  0.3596 -0.4853
  840MOL0     C15840   2.365   3.215   5.532  0.1168 -0.5511  0.2303
  840MOL0     O15841   2.226   3.225   5.551 -0.3137  0.4013 -0.5388
  840MOL0     C15842   2.156   3.241   5.674 -0.2018  0.0813 -0.4250
  840MOL0     C15843   2.157   3.105   5.748  1.0194 -0.4288  0.6541
  840MOL0     C15844   2.037   3.064   5.833  0.7358 -0.4381 -0.1085
  840MOL0     C15845   1.927   2.997   5.750 -0.9117  0.3631  0.9165
  840MOL0     C15846   1.954   2.861   5.703  0.6643  0.0970 -0.3907
  840MOL0     C15847   1.977   2.758   5.647 -0.0634  0.5504 -0.6021
  840MOL0     C15848   2.454   3.218   5.644  0.2319 -0.3034 -0.0225
  840MOL0     C15849   2.591   3.204   5.636 -0.1622 -1.0247  0.3836
  840MOL0     C15850   2.663   3.171   5.756 -0.8101 -0.3177 -0.1730
  840MOL0     H15851   2.942   3.087   5.177 -0.1211 -1.3607  2.8414
  840MOL0     H15852   3.179   3.093   5.098 -1.5301 -2.0059  0.8661
  840MOL0     H15853   3.450   3.433   5.246  3.8285  0.2180 -0.7135
  840MOL0     H15854   3.363   3.474   5.101  1.5642  1.8412 -1.0857
  840MOL0     H15855   3.608   3.472   5.052 -2.7843  1.9987  0.3955
  840MOL0     H15856   3.622   3.307   5.098 -0.9172 -0.9105 -0.1089
  840MOL0     H15857   3.472   3.230   4.924 -1.8239  0.5443  2.0630
  840MOL0     H15858   3.416   3.398   4.890  0.4603  1.8582  2.7249
  840MOL0     H15859   3.672   3.446   4.837  4.4346 -2.2401  4.3519
  840MOL0     H15860   3.689   3.273   4.849 -2.7835 -1.2745 -0.1047
  840MOL0     H15861   3.533   3.232   4.683 -0.5299  1.0042  0.8245
  840MOL0     H15862   3.655   3.339   4.615 -0.3235  1.3804 -0.3351
  840MOL0     H15863   3.383   3.451   4.699  1.1945  0.6304  2.6957
  840MOL0     H15864   3.511   3.518   4.587  0.6529 -1.8198 -2.9859
  840MOL0     H15865   3.349   3.271   4.529 -0.9800  0.7489  0.5645
  840MOL0     H15866   3.480   3.339   4.427  1.6810 -0.8817  1.6195
  840MOL0     H15867   3.207   3.481   4.511  0.0286  3.2794  0.8989
  840MOL0     H15868   3.338   3.559   4.413 -0.1014 -0.9665 -0.9453
  840MOL0     H15869   3.094   3.252   4.392 -0.1132 -1.7583 -1.4800
  840MOL0     H15870   3.079   3.193   3.994 -1.1884 -2.1513 -0.2676
  840MOL0     H15871   2.969   3.151   4.125 -0.7481  6.4931  1.7333
  840MOL0     H15872   3.161   2.971   4.017 -2.6828 -3.7180  1.3960
  840MOL0     H15873   3.260   3.037   4.129 -0.3716  3.2847 -3.5398
  840MOL0     H15874   3.178   2.870   4.282 -2.4263 -2.0325  0.2707
  840MOL0     H15875   3.061   2.990   4.317  2.9134  2.4815  1.0940
  840MOL0     H15876   3.019   2.788   4.091 -1.4689 -1.4640  1.0576
  840MOL0     H15877   2.951   2.765   4.253 -0.6425 -2.6799 -1.7829
  840MOL0     H15878   2.660   3.078   4.114 -2.7560 -0.9570  0.6331
  840MOL0     H15879   2.417   3.220   4.336  2.1925  2.2896 -1.2162
  840MOL0     H15880   2.368   3.080   4.245 -1.5978  1.7545  2.1568
  840MOL0     H15881   2.467   3.204   4.171 -2.1421  1.7504  1.4093
  840MOL0     H15882   2.474   3.320   4.712  0.7699 -1.3703 -0.4379
  840MOL0     H15883   2.274   3.400   4.859 -1.1404 -0.9413 -2.2171
  840MOL0     H15884   2.052   3.143   5.067 -0.1654  1.5354 -1.1173
  840MOL0     H15885   2.176   3.145   5.203  1.0995 -0.5128 -0.9258
  840MOL0     H15886   2.076   3.316   5.320  0.1609 -2.9319  2.6872
  840MOL0     H15887   1.975   3.364   5.174 -0.6349  0.2998  1.3109
  840MOL0     H15888   1.872   3.224   5.364 -0.1823  0.7591 -0.4120
  840MOL0     H15889   1.955   3.078   5.294 -2.1929 -1.3815 -3.4342
  840MOL0     H15890   1.845   3.138   5.061 -1.1491  0.0806 -0.9898
  840MOL0     H15891   1.752   3.251   5.153  3.3179  2.6084  1.1533
  840MOL0     H15892   1.754   2.958   5.213  1.3635  0.7476 -0.6948
  840MOL0     H15893   1.669   3.085   5.311  2.0038 -3.0167  1.5908
  840MOL0     H15894   1.646   3.026   5.028  0.9313  2.4904  0.0958
  840MOL0     H15895   1.543   3.146   5.129  2.2821  1.8549  0.9077
  840MOL0     H15896   1.452   2.961   5.248  1.7857 -1.3039  0.4308
  840MOL0     H15897   1.548   2.843   5.156 -1.2063  0.1307 -0.0592
  840MOL0     H15898   1.420   2.870   4.972 -0.6666  0.1642 -1.0595
  840MOL0     H15899   1.395   3.042   4.990  1.9349 -1.2439 -1.6117
  840MOL0     H15900   2.308   3.032   5.067 -0.8118 -1.1572 -0.8284
  840MOL0     H15901   2.473   2.955   4.885  1.4028  1.1415 -2.6373
  840MOL0     H15902   2.744   2.959   4.590  0.8733  1.2422 -0.0120
  840MOL0     H15903   2.892   2.885   4.427  0.1747  0.9392  0.9327
  840MOL0     H15904   3.247   3.431   5.360  3.1800 -2.2800 -0.4284
  840MOL0     H15905   3.018   3.408   5.441 -3.3291 -0.1989 -1.2281
  840MOL0     H15906   2.604   3.196   5.296 -1.5567 -3.9883 -0.1455
  840MOL0     H15907   2.367   3.219   5.319 -1.1110  1.0680  0.0582
  840MOL0     H15908   2.208   3.317   5.733  1.3304  0.3709 -2.0376
  840MOL0     H15909   2.059   3.287   5.653 -0.2645  1.4421  2.4472
  840MOL0     H15910   2.230   3.127   5.826  0.4672 -2.0401  1.6560
  840MOL0     H15911   2.197   3.019   5.694  1.3724  0.6857 -0.9497
  840MOL0     H15912   2.077   2.997   5.910 -2.9233  0.8825  3.2957
  840MOL0     H15913   1.994   3.146   5.890 -1.6682 -1.6287 -0.0889
  840MOL0     H15914   1.907   3.056   5.660 -2.0950 -0.0057  0.9252
  840MOL0     H15915   1.834   3.006   5.806  0.1786  1.1232  2.6588
  840MOL0     H15916   1.989   2.670   5.587 -0.8801  1.6815 -2.5179
  840MOL0     H15917   2.427   3.214   5.750  3.7704  0.2670  1.0228
  840MOL0     H15918   2.607   3.119   5.834  1.8496  0.9318  2.7850
  840MOL0     H15919   2.747   3.108   5.724 -0.6311  1.4307 -3.5929
  840MOL0     H15920   2.712   3.257   5.801  0.2635 -2.3951  3.0178
  841MOL0     O15921   6.048   9.201   2.432  0.3148  0.1206 -0.5570
  841MOL0     C15922   6.145   9.264   2.469 -0.2066 -0.7967  0.5115
  841MOL0     O15923   6.179   9.383   2.411  0.4908  1.2447  0.2183
  841MOL0     C15924   6.112   9.414   2.296 -0.2997  0.0792  0.0624
  841MOL0     C15925   6.002   9.495   2.301 -0.4969  0.4991  0.5952
  841MOL0     C15926   5.934   9.529   2.186 -0.4904  0.0841  0.3414
  841MOL0     C15927   5.971   9.484   2.055 -0.2333 -0.8117  0.7595
  841MOL0     O15928   5.889   9.514   1.939  0.1195  0.1585 -0.9664
  841MOL0     C15929   5.877   9.648   1.911 -0.3442 -0.7034  0.0286
  841MOL0     C15930   5.847   9.678   1.762 -0.6325  0.1013  0.0977
  841MOL0     C15931   5.809   9.828   1.733  0.0417  0.8670 -0.3444
  841MOL0     C15932   5.829   9.865   1.590  0.1360  0.7272 -0.0181
  841MOL0     C15933   5.786  10.003   1.551  0.4945  0.2483 -0.3950
  841MOL0     C15934   5.891  10.096   1.597 -0.3982  0.1720  0.0737
  841MOL0     C15935   5.897  10.227   1.522  0.6903 -0.0678  0.4113
  841MOL0     C15936   5.950  10.340   1.622 -0.4514 -0.0060  0.6017
  841MOL0     N15937   6.094  10.339   1.649  0.6145 -0.3369 -0.0961
  841MOL0     C15938   6.154  10.320   1.767  0.1664  0.3009  0.2076
  841MOL0     C15939   6.280  10.358   1.745 -0.4102  1.0483  0.2443
  841MOL0     C15940   6.391  10.367   1.847  0.0495 -0.5836  0.7526
  841MOL0     C15941   6.502  10.265   1.816 -0.8220 -0.1085  0.0957
  841MOL0     C15942   6.619  10.328   1.738 -0.0419  0.1804 -0.2893
  841MOL0     C15943   6.729  10.245   1.679  0.5631  0.0600 -0.0592
  841MOL0     O15944   6.782  10.161   1.779  0.1393 -0.5205  0.7918
  841MOL0     C15945   6.882  10.214   1.863  0.8709  0.7112  0.3101
  841MOL0     C15946   7.005  10.247   1.801  0.3585  0.2486 -0.2070
  841MOL0     C15947   7.106  10.288   1.877  0.4703 -0.2966  0.0939
  841MOL0     C15948   7.228  10.328   1.802 -0.4865 -0.2114 -0.4475
  841MOL0     C15949   7.092  10.289   2.016  0.2177  0.1888 -0.1676
  841MOL0     C15950   7.200  10.314   2.116 -1.4850  0.1156 -0.3005
  841MOL0     O15951   7.330  10.348   2.063 -0.3880  0.1247 -0.5931
  841MOL0     C15952   7.441  10.343   2.145 -0.3195 -0.3163  0.3356
  841MOL0     C15953   7.536  10.429   2.088 -0.2200  0.7596  0.1945
  841MOL0     C15954   7.658  10.446   2.153 -0.6516 -1.6018  0.2575
  841MOL0     C15955   7.699  10.385   2.270  1.3439  0.4708 -1.0157
  841MOL0     O15956   7.823  10.396   2.333 -1.0059 -0.5568  0.5321
  841MOL0     C15957   7.921  10.312   2.268 -0.7597  1.1680 -0.4727
  841MOL0     C15958   7.963  10.192   2.353 -0.1335 -0.1677  0.7238
  841MOL0     C15959   8.055  10.249   2.461  0.7372  0.5507 -1.0010
  841MOL0     C15960   8.084  10.148   2.579 -0.1325 -0.2439 -0.0673
  841MOL0     C15961   8.169  10.224   2.689 -0.1301  0.3408  1.2903
  841MOL0     C15962   8.093  10.249   2.813  0.4317 -0.1965 -0.8649
  841MOL0     C15963   8.193  10.306   2.925 -0.0696 -0.2395  0.3327
  841MOL0     C15964   8.127  10.338   3.055  0.2025 -0.5327 -0.7501
  841MOL0    Cl15965   8.041  10.191   3.121 -0.2168 -0.1330  0.0889
  841MOL0     C15966   7.596  10.295   2.326 -0.5702  0.1430 -0.5658
  841MOL0     C15967   7.469  10.277   2.267 -0.4182 -0.1291  0.6111
  841MOL0     O15968   7.175  10.299   2.236  0.9795 -0.0600 -0.3130
  841MOL0     C15969   6.963  10.279   2.069 -0.0537  0.5668 -1.2336
  841MOL0     C15970   6.858  10.238   1.995  0.1829 -0.4759  0.3832
  841MOL0     N15971   6.298  10.399   1.609 -0.4544 -0.1961 -0.4731
  841MOL0     N15972   6.180  10.383   1.560  0.6094 -1.0066  0.0138
  841MOL0     C15973   6.074   9.393   2.053 -0.0227  0.1001 -0.4191
  841MOL0     C15974   6.145   9.358   2.169  0.1025 -1.0186  0.6506
  841MOL0     C15975   6.239   9.218   2.577 -0.5636 -0.0281  0.2898
  841MOL0     C15976   6.248   9.080   2.606  0.0236 -0.7619 -0.7517
  841MOL0     C15977   6.343   9.034   2.706 -0.4109  0.4199 -0.6561
  841MOL0     C15978   6.435   9.129   2.756 -0.6018  1.7065 -0.7317
  841MOL0     O15979   6.526   9.104   2.860  0.3657  0.2640 -0.2393
  841MOL0     C15980   6.581   8.972   2.831 -0.2685 -0.0676 -0.2464
  841MOL0     C15981   6.710   8.954   2.908  0.2337  0.2955  0.4325
  841MOL0     C15982   6.786   8.826   2.864 -0.0866 -0.7068  0.3025
  841MOL0     C15983   6.937   8.822   2.919 -0.2176 -0.0576  0.3748
  841MOL0     C15984   7.038   8.897   2.841  0.2032 -0.8172  1.0101
  841MOL0     C15985   7.122   8.960   2.783 -1.0539 -0.5969 -0.0760
  841MOL0     C15986   6.431   9.263   2.722  0.2075  0.1474  0.5247
  841MOL0     C15987   6.326   9.308   2.650  0.7927 -0.4014  0.0062
  841MOL0     C15988   6.289   9.460   2.679 -0.5506 -0.7146 -0.5706
  841MOL0     H15989   5.954   9.526   2.393 -2.1889 -0.8977  0.2337
  841MOL0     H15990   5.835   9.572   2.191 -1.7810 -1.7619 -4.3850
  841MOL0     H15991   5.967   9.698   1.948 -1.9447  3.3432 -1.0109
  841MOL0     H15992   5.789   9.687   1.962 -2.7097 -1.6556 -3.0546
  841MOL0     H15993   5.929   9.640   1.701 -0.1004 -1.3178  1.6117
  841MOL0     H15994   5.759   9.616   1.743 -3.7302  4.5814 -1.7574
  841MOL0     H15995   5.701   9.832   1.755  0.5699  3.6017  2.4870
  841MOL0     H15996   5.862   9.889   1.807  2.4466 -1.0234 -0.4000
  841MOL0     H15997   5.934   9.850   1.564  0.7290  1.1288  2.0306
  841MOL0     H15998   5.779   9.792   1.525  1.1208 -1.3484  1.4517
  841MOL0     H15999   5.692  10.034   1.596 -0.0715 -0.0822 -1.3155
  841MOL0     H16000   5.774  10.012   1.442  1.1798 -1.2501 -0.6207
  841MOL0     H16001   5.869  10.112   1.703 -2.9798 -1.6447 -0.0844
  841MOL0     H16002   5.991  10.053   1.599 -0.6312 -0.3593  1.3961
  841MOL0     H16003   5.803  10.250   1.472  2.6855  0.8274 -3.3443
  841MOL0     H16004   5.963  10.229   1.435 -1.0663  2.0962 -0.9782
  841MOL0     H16005   5.926  10.438   1.581 -1.9267 -0.2503  0.8098
  841MOL0     H16006   5.903  10.329   1.720 -1.0266  0.1108  0.3456
  841MOL0     H16007   6.116  10.295   1.866  1.5882  2.3225  1.3352
  841MOL0     H16008   6.348  10.359   1.947  0.8436  1.2268  1.2785
  841MOL0     H16009   6.433  10.468   1.839 -0.5485 -0.2090  1.9897
  841MOL0     H16010   6.538  10.232   1.914  1.9784  0.8311 -0.5202
  841MOL0     H16011   6.462  10.181   1.758  0.7085 -2.0663  1.6783
  841MOL0     H16012   6.575  10.380   1.652 -0.5240  0.8313  0.3419
  841MOL0     H16013   6.661  10.402   1.807  1.7029 -1.2824  0.3149
  841MOL0     H16014   6.707  10.185   1.590 -0.2034 -1.9380  1.4347
  841MOL0     H16015   6.806  10.320   1.658  0.5606  0.8136  2.3730
  841MOL0     H16016   7.018  10.231   1.694 -1.7582  0.9307 -0.6008
  841MOL0     H16017   7.279  10.410   1.853  0.9906 -2.3823  1.8426
  841MOL0     H16018   7.196  10.365   1.705 -1.5691  0.5504  0.1780
  841MOL0     H16019   7.304  10.249   1.812 -2.1050 -1.6575  1.3875
  841MOL0     H16020   7.513  10.466   1.988 -1.6390 -2.2461 -0.7352
  841MOL0     H16021   7.723  10.504   2.089 -3.9610  1.3486 -0.7562
  841MOL0     H16022   7.886  10.282   2.169 -0.4974 -1.5852  0.2062
  841MOL0     H16023   8.010  10.370   2.240  0.1810 -0.7811 -1.7554
  841MOL0     H16024   7.880  10.126   2.380  0.7781 -0.9541  1.6658
  841MOL0     H16025   8.030  10.139   2.284 -0.8013  1.0168 -0.9063
  841MOL0     H16026   8.010  10.337   2.508 -0.4771 -0.3999 -0.3437
  841MOL0     H16027   8.143  10.286   2.408  1.5274  0.8206  0.4382
  841MOL0     H16028   8.161  10.083   2.536 -1.4370 -2.4375  0.7777
  841MOL0     H16029   7.993  10.095   2.610 -0.7400  0.5869 -0.3750
  841MOL0     H16030   8.248  10.152   2.712 -0.4158 -1.6287 -2.9107
  841MOL0     H16031   8.210  10.313   2.642 -0.6978 -1.6365 -3.6671
  841MOL0     H16032   8.055  10.156   2.857  1.9435 -0.6398 -0.4362
  841MOL0     H16033   8.008  10.316   2.800 -1.7879 -2.2282  1.7569
  841MOL0     H16034   8.225  10.400   2.880 -0.3527 -0.2150  0.1797
  841MOL0     H16035   8.279  10.240   2.939  3.1075  3.1461 -1.6432
  841MOL0     H16036   8.049  10.415   3.053  1.5102  1.0045  1.4588
  841MOL0     H16037   8.200  10.380   3.125 -0.3512 -1.1700  0.2314
  841MOL0     H16038   7.622  10.263   2.426  2.0400  0.1902 -1.1562
  841MOL0     H16039   7.399  10.223   2.329  2.7426 -0.8153  3.9103
  841MOL0     H16040   6.952  10.275   2.177  4.3651 -1.7599 -0.6171
  841MOL0     H16041   6.766  10.213   2.046  0.9564 -1.7717  1.2034
  841MOL0     H16042   6.098   9.346   1.959 -0.8985 -0.5175 -0.3528
  841MOL0     H16043   6.234   9.299   2.156 -0.0195 -0.8572 -1.1976
  841MOL0     H16044   6.165   9.015   2.578  1.1342 -2.6073  0.0195
  841MOL0     H16045   6.339   8.932   2.743 -1.5355  0.1446 -1.4768
  841MOL0     H16046   6.512   8.896   2.869 -1.1422  1.6772  1.8213
  841MOL0     H16047   6.596   8.966   2.723 -1.8468  3.4825 -0.7913
  841MOL0     H16048   6.679   8.956   3.013 -0.4086  2.4104  0.2542
  841MOL0     H16049   6.776   9.040   2.896  1.0390 -0.5895 -2.4093
  841MOL0     H16050   6.725   8.744   2.903 -2.4459  2.0057  2.8055
  841MOL0     H16051   6.800   8.823   2.756 -0.8316  0.1028  0.1716
  841MOL0     H16052   6.974   8.719   2.916 -0.1565 -0.0530  0.8687
  841MOL0     H16053   6.944   8.849   3.024 -1.3851  3.0772 -0.2600
  841MOL0     H16054   7.201   9.008   2.729 -1.7200  0.4860 -0.1048
  841MOL0     H16055   6.492   9.342   2.764 -0.9142  1.2727  0.1027
  841MOL0     H16056   6.316   9.536   2.606 -1.6920  1.0099  0.7303
  841MOL0     H16057   6.182   9.481   2.675 -0.5750 -0.9089 -0.9604
  841MOL0     H16058   6.325   9.467   2.782 -1.2643 -0.6806 -0.3193
  842MOL0     O16059   8.280   4.706   1.167 -1.5251  0.0198  0.1168
  842MOL0     C16060   8.404   4.711   1.183  0.6658 -0.0659  0.6556
  842MOL0     O16061   8.469   4.677   1.304 -0.2582 -0.1036  0.6213
  842MOL0     C16062   8.405   4.593   1.392  1.3442  0.5124 -0.3335
  842MOL0     C16063   8.455   4.583   1.523  0.5157  0.0304  1.4674
  842MOL0     C16064   8.404   4.487   1.614  0.3091  1.6948  0.6979
  842MOL0     C16065   8.310   4.394   1.571 -0.2966  0.1559 -0.1494
  842MOL0     O16066   8.276   4.287   1.658 -0.2941  0.0264  0.3378
  842MOL0     C16067   8.174   4.188   1.619  0.2804 -0.6494 -0.8798
  842MOL0     C16068   8.031   4.230   1.632  0.7800  0.0813 -1.4702
  842MOL0     C16069   7.976   4.257   1.767 -0.5371  0.0381  0.0307
  842MOL0     C16070   7.940   4.124   1.851 -0.1931 -0.1744 -0.4549
  842MOL0     C16071   7.920   4.140   2.003 -0.3057 -0.2520  0.4744
  842MOL0     C16072   7.821   4.245   2.052  0.7253  0.8725 -1.7907
  842MOL0     C16073   7.681   4.220   1.985 -0.2300 -0.2930  0.1007
  842MOL0     C16074   7.574   4.322   2.028  0.1851 -0.1860 -0.4143
  842MOL0     N16075   7.444   4.249   2.021 -0.2827  0.2904  0.4050
  842MOL0     C16076   7.401   4.142   2.114 -0.5772 -0.9042  0.2722
  842MOL0     C16077   7.284   4.106   2.062 -0.5933  0.9571  0.0502
  842MOL0     C16078   7.174   4.017   2.122 -0.5348 -0.6713  0.4754
  842MOL0     C16079   7.026   4.062   2.113 -0.4557 -0.5193 -0.9553
  842MOL0     C16080   7.002   4.191   2.193  0.1031  0.6416  0.2206
  842MOL0     C16081   6.857   4.245   2.183  0.4214  0.2273 -0.5182
  842MOL0     O16082   6.760   4.147   2.226  0.1592 -0.6155  0.9780
  842MOL0     C16083   6.630   4.201   2.231 -1.0360 -0.3268 -0.2558
  842MOL0     C16084   6.587   4.294   2.147  0.6635  0.2417 -0.5376
  842MOL0     C16085   6.458   4.344   2.167  0.5653 -0.5160 -0.1956
  842MOL0     C16086   6.408   4.440   2.069 -0.4253 -0.2300  0.1724
  842MOL0     C16087   6.373   4.288   2.268 -0.4520 -0.5081  0.3683
  842MOL0     C16088   6.241   4.336   2.295  0.4350  1.1358 -0.9509
  842MOL0     O16089   6.225   4.467   2.303  0.1047 -0.3586 -0.1450
  842MOL0     C16090   6.092   4.487   2.316 -0.4416  0.1358  0.1630
  842MOL0     C16091   6.000   4.490   2.208  0.2222 -0.0153  0.2745
  842MOL0     C16092   5.867   4.528   2.213 -0.5372  0.3207  0.5548
  842MOL0     C16093   5.820   4.578   2.339 -0.0499  0.2802  0.6993
  842MOL0     O16094   5.689   4.615   2.357  0.1255  0.7142  0.6519
  842MOL0     C16095   5.633   4.703   2.262  0.1972 -0.3296  0.3150
  842MOL0     C16096   5.488   4.670   2.231 -0.5824 -0.4850 -0.4784
  842MOL0     C16097   5.472   4.558   2.132 -0.3564  0.3726  0.3061
  842MOL0     C16098   5.328   4.536   2.093  0.5408  0.2429 -0.5916
  842MOL0     C16099   5.295   4.596   1.954 -0.1763 -0.1243 -0.0474
  842MOL0     C16100   5.337   4.494   1.836  0.1362  0.1768 -1.2836
  842MOL0     C16101   5.303   4.536   1.694  0.1125 -0.2140 -0.2268
  842MOL0     C16102   5.159   4.592   1.685  0.0454  0.6186 -1.1602
  842MOL0    Cl16103   5.151   4.682   1.524 -0.2448  0.0839  0.4752
  842MOL0     C16104   5.904   4.566   2.446 -0.3143 -0.1880 -0.0626
  842MOL0     C16105   6.037   4.514   2.442  0.0799 -0.6961 -0.8278
  842MOL0     O16106   6.155   4.244   2.287  0.2123  0.2570 -0.0744
  842MOL0     C16107   6.418   4.185   2.348 -0.4948 -0.3616  0.3673
  842MOL0     C16108   6.554   4.148   2.337 -0.1869 -0.6932  0.1164
  842MOL0     N16109   7.249   4.191   1.957 -0.3782  0.8189 -0.8570
  842MOL0     N16110   7.348   4.274   1.933  0.5104  0.7125  0.2247
  842MOL0     C16111   8.270   4.399   1.437  0.5205  0.1721 -0.7451
  842MOL0     C16112   8.315   4.496   1.349 -0.0191  0.5414 -1.0012
  842MOL0     C16113   8.486   4.765   1.080 -0.0870 -0.1059  0.3981
  842MOL0     C16114   8.623   4.798   1.120  0.2969  0.1956  0.1620
  842MOL0     C16115   8.720   4.836   1.020  0.0873 -0.8722  0.6076
  842MOL0     C16116   8.682   4.831   0.889  0.1009 -0.0974  0.0171
  842MOL0     O16117   8.766   4.852   0.785 -0.3021 -0.3897  0.3050
  842MOL0     C16118   8.914   4.851   0.794  0.5345 -0.2774  0.1191
  842MOL0     C16119   8.962   4.711   0.806  0.5115  0.4668 -0.9108
  842MOL0     C16120   8.930   4.624   0.678 -0.6624 -0.2064  0.6904
  842MOL0     C16121   9.051   4.611   0.577  0.6412  0.4444  0.7728
  842MOL0     C16122   9.094   4.734   0.533 -0.7894 -1.1075 -0.4829
  842MOL0     C16123   9.126   4.838   0.476  0.0277 -0.4986 -0.4243
  842MOL0     C16124   8.547   4.831   0.860  1.3996 -0.3854 -0.9013
  842MOL0     C16125   8.444   4.785   0.951 -0.2817 -0.2099 -0.2035
  842MOL0     C16126   8.303   4.760   0.892  0.3570 -0.3774  0.2029
  842MOL0     H16127   8.532   4.649   1.560 -0.0740  0.6786  1.5650
  842MOL0     H16128   8.443   4.468   1.714  3.4338 -1.4402 -0.9158
  842MOL0     H16129   8.196   4.120   1.702  0.2417 -0.6516 -0.8713
  842MOL0     H16130   8.189   4.124   1.532  1.1786 -1.6030 -0.0521
  842MOL0     H16131   8.003   4.320   1.577 -1.9188 -0.1255 -0.6088
  842MOL0     H16132   7.966   4.153   1.588 -0.1219  0.2394 -0.4764
  842MOL0     H16133   8.060   4.301   1.821  1.8133 -0.8766 -2.6050
  842MOL0     H16134   7.889   4.323   1.768 -0.6852 -0.1577  0.0639
  842MOL0     H16135   7.856   4.073   1.804  0.5411 -0.3777 -1.5797
  842MOL0     H16136   8.024   4.054   1.854  0.5156  0.5950  3.4616
  842MOL0     H16137   8.017   4.171   2.043  1.1986 -0.1391 -2.9193
  842MOL0     H16138   7.883   4.049   2.051 -3.2190  0.8137  0.4101
  842MOL0     H16139   7.808   4.238   2.161  0.4622  2.5495 -1.6831
  842MOL0     H16140   7.866   4.343   2.030  1.7468  0.3844 -1.9121
  842MOL0     H16141   7.665   4.119   2.025  2.1878 -0.4690  0.7779
  842MOL0     H16142   7.695   4.226   1.877 -3.6668  0.2320 -0.4411
  842MOL0     H16143   7.604   4.366   2.123  0.7298 -1.6477  0.1147
  842MOL0     H16144   7.567   4.410   1.964  1.7689 -0.4727 -1.0310
  842MOL0     H16145   7.439   4.107   2.209  2.6165 -1.1079 -0.9655
  842MOL0     H16146   7.194   4.022   2.229  1.7864  1.8070  0.0395
  842MOL0     H16147   7.182   3.915   2.082  1.2249 -1.7048  3.1223
  842MOL0     H16148   6.996   4.071   2.008 -1.6765 -2.3914 -0.8214
  842MOL0     H16149   6.967   3.979   2.152 -0.4010 -1.1460 -2.1529
  842MOL0     H16150   7.027   4.188   2.300  0.3435 -0.7020  0.1478
  842MOL0     H16151   7.050   4.273   2.138 -1.7711  0.3150 -2.0329
  842MOL0     H16152   6.843   4.335   2.243 -1.3631 -0.4888  0.2247
  842MOL0     H16153   6.836   4.261   2.076  0.5545 -1.5847 -0.8468
  842MOL0     H16154   6.660   4.333   2.075  3.8762 -1.1145  1.7467
  842MOL0     H16155   6.489   4.496   2.022 -1.3569  1.4075  0.4457
  842MOL0     H16156   6.323   4.503   2.095  1.3121  2.4998 -0.3796
  842MOL0     H16157   6.360   4.376   1.995  0.1244 -1.6325  0.9786
  842MOL0     H16158   6.034   4.462   2.108  2.7434  2.5805  0.2544
  842MOL0     H16159   5.799   4.530   2.129 -0.7131  5.0624  0.5810
  842MOL0     H16160   5.638   4.798   2.316  1.6961 -0.1947 -0.0236
  842MOL0     H16161   5.694   4.710   2.172 -0.2076 -0.9419 -0.0069
  842MOL0     H16162   5.440   4.663   2.329 -0.5857  1.0535 -0.3507
  842MOL0     H16163   5.453   4.766   2.192  1.0401  0.4986  0.3804
  842MOL0     H16164   5.527   4.466   2.152 -1.7313 -0.3217  1.0308
  842MOL0     H16165   5.522   4.596   2.043  1.4659  1.3250  1.6490
  842MOL0     H16166   5.251   4.577   2.159 -0.5516  1.1750 -2.3662
  842MOL0     H16167   5.314   4.427   2.098  2.5767 -0.0390 -0.4666
  842MOL0     H16168   5.188   4.620   1.945 -0.1309  0.5366  1.0502
  842MOL0     H16169   5.343   4.693   1.940 -4.4080  2.2265 -0.0903
  842MOL0     H16170   5.290   4.397   1.853  0.3981 -0.3894 -3.4373
  842MOL0     H16171   5.442   4.469   1.849  0.7753  3.7701  2.5316
  842MOL0     H16172   5.306   4.444   1.636  0.5446  0.2627 -0.9812
  842MOL0     H16173   5.378   4.593   1.638 -0.4984 -1.1256 -2.0501
  842MOL0     H16174   5.138   4.660   1.769  2.2895 -2.9445  2.6968
  842MOL0     H16175   5.097   4.502   1.686  0.8827  0.0336 -0.6968
  842MOL0     H16176   5.863   4.585   2.545 -1.3110 -3.5407  0.3178
  842MOL0     H16177   6.084   4.520   2.540 -1.3695  1.9215 -0.2134
  842MOL0     H16178   6.347   4.162   2.427 -2.7762  1.9816 -0.8467
  842MOL0     H16179   6.596   4.081   2.411 -1.0285 -0.3607  0.9084
  842MOL0     H16180   8.195   4.327   1.404 -0.0052 -0.0322  0.7875
  842MOL0     H16181   8.277   4.486   1.248 -1.9710 -0.4330 -0.2208
  842MOL0     H16182   8.660   4.790   1.222  4.3396 -0.5889 -1.1551
  842MOL0     H16183   8.826   4.853   1.034  0.2324 -1.2914  0.0480
  842MOL0     H16184   8.964   4.897   0.708 -0.4198 -0.4325 -0.5266
  842MOL0     H16185   8.953   4.914   0.875  2.3105  0.1933 -1.0214
  842MOL0     H16186   8.923   4.654   0.891 -1.8301 -0.0261 -2.2563
  842MOL0     H16187   9.071   4.723   0.815  0.7001  1.7418 -3.8175
  842MOL0     H16188   8.894   4.524   0.705 -0.6583 -0.0368  1.3249
  842MOL0     H16189   8.843   4.665   0.627 -1.2567  0.0955  1.9186
  842MOL0     H16190   9.012   4.564   0.486 -1.8398  4.8932 -0.7709
  842MOL0     H16191   9.128   4.543   0.614  0.8546 -1.9987 -3.5408
  842MOL0     H16192   9.148   4.929   0.425 -2.1999 -0.4686 -1.4335
  842MOL0     H16193   8.516   4.849   0.758  1.2877  0.1422 -0.7785
  842MOL0     H16194   8.233   4.827   0.943  0.3097  0.0177 -0.3741
  842MOL0     H16195   8.295   4.776   0.784 -0.7034 -0.3482  0.2727
  842MOL0     H16196   8.284   4.652   0.896 -2.9246  0.0309 -1.1510
  843MOL0     O16197   6.080   6.333   8.284  0.3967 -0.3443 -0.0398
  843MOL0     C16198   6.197   6.328   8.280 -0.3707 -0.4724  0.2826
  843MOL0     O16199   6.267   6.228   8.221  0.4476 -1.0401  0.1482
  843MOL0     C16200   6.194   6.114   8.197 -0.3517 -0.1341 -0.3753
  843MOL0     C16201   6.129   6.047   8.294 -0.2303 -0.5461 -0.4634
  843MOL0     C16202   6.075   5.921   8.273 -0.6953  0.2959 -0.3375
  843MOL0     C16203   6.099   5.854   8.152  1.1345 -0.8116  0.6096
  843MOL0     O16204   6.055   5.721   8.148 -0.1720 -0.1960  0.0348
  843MOL0     C16205   6.137   5.640   8.226 -0.3240 -0.4610  0.0557
  843MOL0     C16206   6.081   5.499   8.261  0.4492  0.0760  0.3171
  843MOL0     C16207   6.200   5.419   8.319  0.5397  0.0103 -0.2423
  843MOL0     C16208   6.166   5.269   8.329 -0.2662 -0.2350 -0.0972
  843MOL0     C16209   6.280   5.175   8.375 -0.7634 -0.0421 -0.2093
  843MOL0     C16210   6.286   5.156   8.533 -0.1197  0.2811  0.1674
  843MOL0     C16211   6.377   5.039   8.570 -0.3496  0.1815  0.3053
  843MOL0     C16212   6.519   5.066   8.523 -0.4877  0.0451  0.7166
  843MOL0     N16213   6.623   4.990   8.590  0.2080  1.0113 -0.4322
  843MOL0     C16214   6.752   4.972   8.560 -0.4366 -0.2362 -0.2260
  843MOL0     C16215   6.824   4.918   8.665  0.0996  0.1336  0.7798
  843MOL0     C16216   6.972   4.902   8.661  0.0128  0.5593  0.0521
  843MOL0     C16217   7.033   5.011   8.743  0.3193 -0.0668  1.0400
  843MOL0     C16218   7.025   4.976   8.893 -0.7344  0.0784  0.6308
  843MOL0     C16219   7.127   4.880   8.951 -0.1752 -1.1721 -0.7872
  843MOL0     O16220   7.264   4.924   8.920  0.0415 -0.9083 -0.7488
  843MOL0     C16221   7.362   4.919   9.015  0.4787 -0.0396  0.3259
  843MOL0     C16222   7.485   4.970   8.976 -0.1247 -0.1458 -0.9298
  843MOL0     C16223   7.598   4.960   9.068  0.7256 -0.8897  0.2085
  843MOL0     C16224   7.707   5.043   9.029  0.0561  0.1834  0.4118
  843MOL0     C16225   7.582   4.885   9.189  0.1244  0.2190  0.2432
  843MOL0     C16226   7.675   4.888   9.292  0.4076  0.8619  0.9196
  843MOL0     O16227   7.631   4.952   9.398  0.5769  0.3706 -0.0092
  843MOL0     C16228   7.707   4.956   9.510  1.2624  0.1460  0.3112
  843MOL0     C16229   7.764   5.069   9.557 -0.1790 -0.2290  0.0800
  843MOL0     C16230   7.835   5.067   9.676  0.8699  0.5530  0.1392
  843MOL0     C16231   7.860   4.940   9.737  0.2862 -0.1891 -0.5285
  843MOL0     O16232   7.940   4.920   9.850  0.0665 -0.6961  0.4514
  843MOL0     C16233   7.978   5.032   9.927 -0.4894  0.4656 -0.2847
  843MOL0     C16234   8.004   4.982  10.076 -0.5958 -0.6932 -0.3950
  843MOL0     C16235   8.038   5.105  10.165 -0.4702 -0.1022 -0.4363
  843MOL0     C16236   8.167   5.177  10.104  0.0279 -0.6523 -0.8281
  843MOL0     C16237   8.218   5.280  10.206 -0.4203  0.1627 -0.1720
  843MOL0     C16238   8.373   5.332  10.181  0.8484  0.1825 -0.1871
  843MOL0     C16239   8.377   5.413  10.055  1.0558  0.0646 -0.4749
  843MOL0     C16240   8.333   5.563  10.073  0.0208 -0.2002  0.2164
  843MOL0    Cl16241   8.423   5.640  10.211  0.3604 -0.3620  0.6057
  843MOL0     C16242   7.795   4.826   9.688 -0.1816 -0.2465  0.3108
  843MOL0     C16243   7.713   4.831   9.576  0.0964 -0.2971 -0.4415
  843MOL0     O16244   7.790   4.843   9.279  0.1251 -0.0817 -0.7914
  843MOL0     C16245   7.469   4.810   9.212  0.3669 -0.2847  0.6927
  843MOL0     C16246   7.354   4.837   9.138 -0.1985  0.0081 -0.3728
  843MOL0     N16247   6.735   4.896   8.754  1.0116  0.2605  0.2044
  843MOL0     N16248   6.616   4.941   8.720 -0.1271 -0.1672  0.2228
  843MOL0     C16249   6.160   5.924   8.042  0.6188  0.7487  0.4208
  843MOL0     C16250   6.210   6.051   8.072  0.1857  0.7471 -0.6035
  843MOL0     C16251   6.269   6.447   8.324 -0.6075 -0.5444 -0.2618
  843MOL0     C16252   6.411   6.443   8.325 -0.4097  0.3265  1.3502
  843MOL0     C16253   6.490   6.553   8.371 -0.5524 -0.2559  1.1411
  843MOL0     C16254   6.431   6.666   8.426 -0.4200  0.4964 -0.6645
  843MOL0     O16255   6.519   6.764   8.465  0.6937 -0.2649 -0.4330
  843MOL0     C16256   6.463   6.851   8.563 -0.5589 -0.0223  1.3870
  843MOL0     C16257   6.589   6.909   8.623  0.6438  0.6716 -0.5892
  843MOL0     C16258   6.556   7.007   8.738 -0.2021  1.0192 -0.0209
  843MOL0     C16259   6.674   7.023   8.839 -1.4594 -0.4388  0.9050
  843MOL0     C16260   6.804   7.039   8.760 -0.3568  0.1771 -0.2935
  843MOL0     C16261   6.903   7.052   8.689  0.2939  0.2127  0.3162
  843MOL0     C16262   6.293   6.673   8.421 -0.7330 -1.6609 -0.5855
  843MOL0     C16263   6.209   6.572   8.372 -0.3626 -0.1666 -0.5084
  843MOL0     C16264   6.060   6.602   8.382  0.3540  0.8552  0.1361
  843MOL0     H16265   6.119   6.097   8.390  0.2555 -2.1204  0.4455
  843MOL0     H16266   6.032   5.854   8.347  0.5707 -2.9011 -2.2962
  843MOL0     H16267   6.145   5.683   8.327 -0.2966  1.1433 -0.5983
  843MOL0     H16268   6.229   5.631   8.168 -0.1431  1.8245 -0.0956
  843MOL0     H16269   5.994   5.511   8.327  0.2201  2.3668 -0.3333
  843MOL0     H16270   6.044   5.448   8.172  0.7704  1.7376 -0.7989
  843MOL0     H16271   6.290   5.441   8.262  0.0268  1.6047 -0.4895
  843MOL0     H16272   6.207   5.462   8.420 -1.3184  0.4707 -0.2816
  843MOL0     H16273   6.072   5.258   8.384 -0.5766 -0.2665 -0.6287
  843MOL0     H16274   6.146   5.232   8.228 -0.5152  0.7586 -0.4312
  843MOL0     H16275   6.371   5.219   8.332 -0.2500 -1.6738 -0.8731
  843MOL0     H16276   6.266   5.078   8.327 -0.4518 -0.1491 -0.0891
  843MOL0     H16277   6.329   5.247   8.577  1.6637  0.1559 -1.1707
  843MOL0     H16278   6.184   5.146   8.570  0.0085  1.9351  1.0357
  843MOL0     H16279   6.329   4.948   8.533 -2.5700  1.6790 -0.7259
  843MOL0     H16280   6.361   5.036   8.679 -2.4747 -2.3206  0.0494
  843MOL0     H16281   6.518   5.049   8.416  0.1182 -1.9198  0.9938
  843MOL0     H16282   6.535   5.173   8.543  0.8907 -0.0645  0.3377
  843MOL0     H16283   6.796   5.022   8.474  2.0545 -2.0597 -0.1189
  843MOL0     H16284   7.001   4.911   8.556 -0.7159  0.5721 -0.1583
  843MOL0     H16285   7.021   4.810   8.694 -0.7502 -0.0758 -0.5382
  843MOL0     H16286   7.136   5.013   8.706 -0.3549 -1.6028 -1.2034
  843MOL0     H16287   6.979   5.105   8.726  1.2247  0.3290  0.2164
  843MOL0     H16288   7.037   5.078   8.931 -2.2517  1.7723 -2.9226
  843MOL0     H16289   6.921   4.954   8.919 -1.1635  0.8357 -0.3765
  843MOL0     H16290   7.107   4.878   9.059 -0.2773 -3.4796 -0.8097
  843MOL0     H16291   7.117   4.779   8.912  0.5380 -0.4465 -3.0183
  843MOL0     H16292   7.487   5.024   8.882  0.6422  0.4122 -0.6048
  843MOL0     H16293   7.705   5.076   8.925  2.2170 -0.2653  0.1734
  843MOL0     H16294   7.796   4.979   9.033  0.0546  0.1750  0.2969
  843MOL0     H16295   7.713   5.126   9.100 -2.7959  0.1230  0.8363
  843MOL0     H16296   7.752   5.164   9.505  0.1191  2.8038  4.9597
  843MOL0     H16297   7.878   5.151   9.729  2.1414 -1.4100  2.4322
  843MOL0     H16298   8.074   5.076   9.897  0.1288  0.6604  1.8299
  843MOL0     H16299   7.909   5.115   9.942 -2.7590 -1.4265  0.2979
  843MOL0     H16300   7.914   4.928  10.106  1.8179 -3.6258  2.3524
  843MOL0     H16301   8.081   4.906  10.095 -2.3768 -2.3075  0.7510
  843MOL0     H16302   8.064   5.076  10.267 -0.2268 -1.3903 -0.8557
  843MOL0     H16303   7.954   5.175  10.177  1.5831  2.4551 -0.1362
  843MOL0     H16304   8.159   5.228  10.008  1.9420 -0.7118 -1.0637
  843MOL0     H16305   8.249   5.104  10.094  3.4361  2.2270  2.5827
  843MOL0     H16306   8.150   5.366  10.201 -2.9903 -1.7829 -0.8828
  843MOL0     H16307   8.220   5.234  10.305  2.6835 -1.5953 -0.9361
  843MOL0     H16308   8.419   5.235  10.158 -1.7642 -0.7900 -1.7162
  843MOL0     H16309   8.408   5.382  10.272 -1.2121 -0.5528  1.0770
  843MOL0     H16310   8.318   5.362   9.979 -2.5893  0.2893  1.9366
  843MOL0     H16311   8.480   5.411  10.021  1.1748 -0.0092 -0.1149
  843MOL0     H16312   8.225   5.579  10.074 -0.0927 -0.8289  2.0577
  843MOL0     H16313   8.373   5.602   9.979  0.8991 -0.4962  0.4513
  843MOL0     H16314   7.795   4.732   9.742 -2.0647 -1.1851 -1.2232
  843MOL0     H16315   7.672   4.737   9.541 -0.5028  0.1191 -0.8881
  843MOL0     H16316   7.456   4.764   9.310  0.0695  0.8318  1.1906
  843MOL0     H16317   7.263   4.789   9.172 -0.2858  1.1374  1.1136
  843MOL0     H16318   6.168   5.861   7.955 -0.1051 -1.5788  1.9394
  843MOL0     H16319   6.278   6.103   8.004 -0.0065 -0.1714 -1.5128
  843MOL0     H16320   6.469   6.363   8.281 -0.0674  1.3593 -0.1594
  843MOL0     H16321   6.598   6.549   8.363 -0.5921  0.4367  0.1946
  843MOL0     H16322   6.414   6.938   8.518  3.9044  1.5769 -1.0219
  843MOL0     H16323   6.399   6.790   8.627 -0.0695 -2.8807 -0.6413
  843MOL0     H16324   6.642   6.959   8.542  1.5813  0.4311 -0.1370
  843MOL0     H16325   6.643   6.830   8.677 -3.5838 -1.4068  1.0378
  843MOL0     H16326   6.525   7.106   8.702 -1.0722  1.2652  1.3303
  843MOL0     H16327   6.466   6.968   8.785 -0.8748  1.0462 -1.2579
  843MOL0     H16328   6.677   6.940   8.910 -0.6547 -1.8488 -0.6987
  843MOL0     H16329   6.654   7.115   8.894  0.7733 -1.5361  3.8454
  843MOL0     H16330   6.995   7.053   8.635 -0.2815 -0.5739 -0.7123
  843MOL0     H16331   6.244   6.760   8.463  1.4293 -1.7448  2.4132
  843MOL0     H16332   6.001   6.545   8.309 -0.2857 -1.1177  2.0970
  843MOL0     H16333   6.010   6.601   8.479  2.1183 -0.1655  1.0844
  843MOL0     H16334   6.049   6.703   8.340 -0.3666  0.1032 -1.6060
  844MOL0     O16335   2.834   5.652   8.055 -0.1578  0.3562  0.2743
  844MOL0     C16336   2.834   5.527   8.085  0.0116 -0.2089  0.5569
  844MOL0     O16337   2.945   5.453   8.110  0.1048  0.2292  0.2392
  844MOL0     C16338   3.067   5.525   8.110  0.1327  0.0058  0.2734
  844MOL0     C16339   3.174   5.483   8.036 -1.2947  0.3193 -0.8313
  844MOL0     C16340   3.299   5.544   8.049 -0.5644 -0.9846  0.5851
  844MOL0     C16341   3.315   5.651   8.135  0.2571  0.0412  0.6710
  844MOL0     O16342   3.444   5.702   8.127 -1.1185 -0.4098  0.5488
  844MOL0     C16343   3.483   5.799   8.226  0.6003 -0.2635 -0.6254
  844MOL0     C16344   3.630   5.829   8.204  0.6736 -0.6246  0.1491
  844MOL0     C16345   3.669   5.929   8.099 -0.3962  0.1423  0.0340
  844MOL0     C16346   3.825   5.934   8.064 -0.7332  0.5028 -0.5215
  844MOL0     C16347   3.837   6.008   7.933 -0.1456  0.1116  0.7255
  844MOL0     C16348   3.982   6.049   7.911  0.1381  0.7186  0.4420
  844MOL0     C16349   4.016   6.081   7.773 -0.6755  0.3122  0.0669
  844MOL0     C16350   4.164   6.102   7.750  0.5384  0.2278 -0.2475
  844MOL0     N16351   4.176   6.148   7.613 -0.2811 -0.8151 -0.5397
  844MOL0     C16352   4.194   6.081   7.495 -0.5665  0.2324  0.0253
  844MOL0     C16353   4.214   6.182   7.398 -0.4630  0.1640 -0.0391
  844MOL0     C16354   4.276   6.163   7.260 -0.9773  0.2706  0.5236
  844MOL0     C16355   4.404   6.243   7.222 -0.0148  0.5564  0.1287
  844MOL0     C16356   4.511   6.230   7.330  0.6702  0.1631 -0.8351
  844MOL0     C16357   4.637   6.315   7.300  0.5100 -0.2083 -0.3810
  844MOL0     O16358   4.711   6.305   7.416 -0.2260 -0.3498  0.6116
  844MOL0     C16359   4.755   6.425   7.480 -0.5345 -0.7105  0.1323
  844MOL0     C16360   4.895   6.431   7.511  0.1387  0.0721  0.0318
  844MOL0     C16361   4.951   6.543   7.584 -1.0331 -0.0832 -0.5763
  844MOL0     C16362   5.098   6.536   7.615 -0.4312  0.7156 -0.7329
  844MOL0     C16363   4.869   6.659   7.609 -0.4856 -0.1794 -0.0568
  844MOL0     C16364   4.912   6.776   7.695 -0.1818  0.9472 -0.1154
  844MOL0     O16365   4.841   6.894   7.691 -0.6326  1.3297  0.1472
  844MOL0     C16366   4.924   6.994   7.721  1.1426  0.1627  0.5554
  844MOL0     C16367   5.024   7.029   7.628  0.1092 -0.5806 -0.7867
  844MOL0     C16368   5.117   7.130   7.669  0.0570 -0.5525 -0.7217
  844MOL0     C16369   5.102   7.199   7.791  1.4623 -0.5387  0.2871
  844MOL0     O16370   5.204   7.291   7.812  0.2669 -0.9834  0.2734
  844MOL0     C16371   5.185   7.390   7.923  0.0895 -0.8053  0.0395
  844MOL0     C16372   5.303   7.484   7.922 -0.5467  0.0207  0.4952
  844MOL0     C16373   5.323   7.562   7.792 -0.0037  0.3642  0.3242
  844MOL0     C16374   5.452   7.643   7.785  0.1308 -0.5865  0.6224
  844MOL0     C16375   5.452   7.763   7.690  0.9311 -0.3394  0.0087
  844MOL0     C16376   5.601   7.810   7.675  1.2971 -0.4671 -0.5060
  844MOL0     C16377   5.609   7.935   7.580  0.3675  0.8640 -0.4470
  844MOL0     C16378   5.753   7.984   7.589  0.1977  0.7484 -0.0773
  844MOL0    Cl16379   5.761   8.150   7.537  0.3284 -0.1507 -0.3910
  844MOL0     C16380   5.000   7.155   7.877  0.1930  0.6991 -0.3209
  844MOL0     C16381   4.906   7.059   7.840 -0.4681 -0.4514 -0.1991
  844MOL0     O16382   5.005   6.750   7.769 -0.3975 -0.5068  0.1327
  844MOL0     C16383   4.735   6.651   7.563 -0.8606  0.0282  0.4150
  844MOL0     C16384   4.683   6.536   7.504 -1.2746 -0.3716 -0.3024
  844MOL0     N16385   4.183   6.304   7.451  1.0895 -0.2508 -0.5059
  844MOL0     N16386   4.174   6.283   7.584 -0.5138  1.3969  0.3704
  844MOL0     C16387   3.209   5.703   8.217  0.9419  0.0999 -0.2939
  844MOL0     C16388   3.086   5.638   8.197  0.3504 -0.2417 -0.4221
  844MOL0     C16389   2.703   5.457   8.101 -0.7469  0.0121 -0.0775
  844MOL0     C16390   2.603   5.510   8.180 -0.7164  0.7205  0.4796
  844MOL0     C16391   2.487   5.445   8.188  0.1722 -0.2420 -0.8432
  844MOL0     C16392   2.446   5.340   8.110  0.9626  0.7344  0.0405
  844MOL0     O16393   2.319   5.287   8.131  0.1301 -0.1402  0.1314
  844MOL0     C16394   2.249   5.221   8.025  0.1285  0.8072 -0.7372
  844MOL0     C16395   2.231   5.312   7.906 -0.3587 -0.3016 -0.6949
  844MOL0     C16396   2.113   5.277   7.812 -0.5659  0.1072 -0.4743
  844MOL0     C16397   2.103   5.133   7.763 -0.6778 -0.7380  0.5114
  844MOL0     C16398   2.227   5.095   7.692  0.7030  0.8670 -0.7146
  844MOL0     C16399   2.315   5.056   7.626 -0.2823  0.4992  0.5262
  844MOL0     C16400   2.541   5.293   8.018  0.1005  0.9276 -0.4809
  844MOL0     C16401   2.676   5.346   8.016  0.7167  0.3906  0.1869
  844MOL0     C16402   2.768   5.279   7.914  0.0729 -0.9198 -0.4116
  844MOL0     H16403   3.167   5.390   7.980  1.7311  0.4542 -1.6365
  844MOL0     H16404   3.377   5.513   7.981  0.0715  0.3899  0.6521
  844MOL0     H16405   3.470   5.761   8.328 -1.5078  4.5149  1.1748
  844MOL0     H16406   3.419   5.887   8.230 -1.1778 -1.5029 -0.5342
  844MOL0     H16407   3.674   5.870   8.295  5.0299  1.2172 -2.4554
  844MOL0     H16408   3.697   5.748   8.174  1.4143  0.7939 -2.3123
  844MOL0     H16409   3.632   5.892   8.003 -0.4374  0.7071 -0.1734
  844MOL0     H16410   3.622   6.027   8.117 -0.7566 -0.1925  0.9727
  844MOL0     H16411   3.871   5.993   8.143 -1.6487 -2.0684  2.0905
  844MOL0     H16412   3.877   5.838   8.054  2.5476  2.1761 -0.9666
  844MOL0     H16413   3.776   6.098   7.925 -0.5316 -0.3014 -1.3870
  844MOL0     H16414   3.812   5.944   7.848 -3.2340  0.8672  0.9640
  844MOL0     H16415   3.992   6.130   7.984 -1.5380  1.6414 -0.3111
  844MOL0     H16416   4.052   5.971   7.945 -0.2025 -1.1828 -2.8315
  844MOL0     H16417   3.956   6.168   7.748 -0.8862  0.4673  1.0589
  844MOL0     H16418   3.978   6.004   7.706 -1.0931  0.6212 -0.0498
  844MOL0     H16419   4.197   6.171   7.828  1.1385  0.0947 -0.3825
  844MOL0     H16420   4.220   6.010   7.766 -2.3976 -2.7715 -4.6887
  844MOL0     H16421   4.198   5.975   7.475 -0.2914  0.5331 -1.6055
  844MOL0     H16422   4.196   6.190   7.191 -1.0011 -0.5055  0.2351
  844MOL0     H16423   4.302   6.059   7.240  2.8741  1.5994 -2.9764
  844MOL0     H16424   4.433   6.196   7.127  0.3006  2.3863 -0.7113
  844MOL0     H16425   4.386   6.345   7.188  0.0759  1.9025  3.7520
  844MOL0     H16426   4.464   6.270   7.420  2.0907  1.3473 -0.5731
  844MOL0     H16427   4.537   6.125   7.346  1.2812  0.4201 -0.0677
  844MOL0     H16428   4.697   6.262   7.225  1.9754 -0.1916  0.7348
  844MOL0     H16429   4.600   6.415   7.276 -0.7813 -0.6993 -0.5481
  844MOL0     H16430   4.957   6.342   7.499  0.6783  0.6543 -1.8237
  844MOL0     H16431   5.097   6.506   7.720 -1.9316 -1.6861 -1.3645
  844MOL0     H16432   5.158   6.627   7.602  0.7716 -0.2231 -2.1344
  844MOL0     H16433   5.139   6.446   7.569 -0.7110 -0.2438  0.8213
  844MOL0     H16434   5.034   6.976   7.534  3.0709 -3.5802  0.9853
  844MOL0     H16435   5.202   7.163   7.610 -2.2744  1.9963 -2.9760
  844MOL0     H16436   5.096   7.448   7.897  0.7065 -1.6473 -5.0568
  844MOL0     H16437   5.160   7.340   8.016 -0.8553 -0.6175 -0.1010
  844MOL0     H16438   5.279   7.553   8.003  1.7104 -0.9215  2.0829
  844MOL0     H16439   5.395   7.427   7.942 -0.5872 -0.6168 -1.0388
  844MOL0     H16440   5.238   7.630   7.783 -0.8418 -0.8428 -1.5605
  844MOL0     H16441   5.318   7.498   7.703 -0.0949 -0.9541  1.2550
  844MOL0     H16442   5.536   7.582   7.750 -0.5454 -1.0365 -0.2366
  844MOL0     H16443   5.477   7.680   7.885  2.9263  0.5816 -0.4014
  844MOL0     H16444   5.423   7.745   7.586 -0.6074  0.0069  0.3487
  844MOL0     H16445   5.405   7.848   7.740  1.4766  0.1568 -0.3133
  844MOL0     H16446   5.649   7.732   7.615 -0.1716  1.1789 -4.1187
  844MOL0     H16447   5.632   7.834   7.777 -2.5339 -0.8359  0.9161
  844MOL0     H16448   5.553   8.013   7.632  3.0521  1.7031  1.3370
  844MOL0     H16449   5.574   7.916   7.478  2.1975 -0.0477 -0.9461
  844MOL0     H16450   5.821   7.927   7.526 -0.4417 -2.0282  1.6049
  844MOL0     H16451   5.790   7.971   7.691  1.4697 -1.4224 -0.7671
  844MOL0     H16452   4.997   7.197   7.978  1.8225  2.5880 -0.9788
  844MOL0     H16453   4.820   7.046   7.905 -0.4170 -3.7910 -0.6515
  844MOL0     H16454   4.665   6.731   7.584 -2.3126 -1.1667  0.2859
  844MOL0     H16455   4.576   6.537   7.484 -1.0965 -2.3598 -1.5962
  844MOL0     H16456   3.224   5.781   8.291 -0.8125 -1.2020  1.5596
  844MOL0     H16457   3.010   5.667   8.268  0.5072 -2.3194  0.6495
  844MOL0     H16458   2.643   5.586   8.248  1.5464 -0.5567  0.6874
  844MOL0     H16459   2.422   5.473   8.271 -0.7325 -2.5769 -0.7113
  844MOL0     H16460   2.302   5.128   8.004 -0.5880  0.3906 -0.7130
  844MOL0     H16461   2.148   5.192   8.056 -0.3648  0.4592 -2.5808
  844MOL0     H16462   2.325   5.307   7.849  0.6162  1.2483  0.6746
  844MOL0     H16463   2.240   5.414   7.943 -1.6325 -0.1547 -0.7737
  844MOL0     H16464   2.015   5.299   7.856  0.4386  0.7273  1.5753
  844MOL0     H16465   2.109   5.345   7.727  1.5944 -1.8193 -2.2490
  844MOL0     H16466   2.015   5.126   7.698 -1.8647  4.7828  0.9900
  844MOL0     H16467   2.094   5.063   7.846  0.3969  0.3104  1.5407
  844MOL0     H16468   2.400   5.011   7.580 -2.4117  0.6445 -4.1760
  844MOL0     H16469   2.515   5.208   7.956  2.0431 -0.7174  0.8377
  844MOL0     H16470   2.773   5.335   7.820  1.7116 -1.9118 -0.9604
  844MOL0     H16471   2.866   5.259   7.958  0.5827  0.4714 -0.8539
  844MOL0     H16472   2.726   5.184   7.881 -0.5757 -0.4213 -1.0578
  845MOL0     O16473   0.152   5.046   0.189 -0.9736  0.1248  0.4580
  845MOL0     C16474   0.082   4.952   0.218 -0.5285  0.0119  0.5394
  845MOL0     O16475   0.099   4.827   0.169  0.1673  0.3462  0.1244
  845MOL0     C16476   0.212   4.798   0.092 -0.3964  0.7189 -0.0259
  845MOL0     C16477   0.333   4.819   0.145 -0.4995 -1.0493 -0.6795
  845MOL0     C16478   0.455   4.767   0.088  0.6413 -0.1171 -0.3549
  845MOL0     C16479   0.450   4.694  -0.032 -0.1164  0.4560 -0.1016
  845MOL0     O16480   0.565   4.637  -0.078  0.0634 -0.4493 -0.8624
  845MOL0     C16481   0.572   4.574  -0.210 -0.6921  0.0891  0.5383
  845MOL0     C16482   0.695   4.486  -0.223 -0.2030  0.6418 -0.6061
  845MOL0     C16483   0.707   4.428  -0.364 -0.7211  0.5064  0.0656
  845MOL0     C16484   0.695   4.531  -0.470 -1.0831 -0.8375 -0.4747
  845MOL0     C16485   0.759   4.490  -0.606  0.2369 -0.0124 -1.1799
  845MOL0     C16486   0.725   4.351  -0.649  0.2052 -0.1945 -0.5586
  845MOL0     C16487   0.747   4.330  -0.799  0.8135  0.6781  0.4625
  845MOL0     C16488   0.877   4.386  -0.855  0.5953 -0.3041  0.2944
  845MOL0     N16489   0.861   4.363  -0.999 -0.5021  0.0730  0.3863
  845MOL0     C16490   0.889   4.446  -1.100 -1.3075  0.0694 -0.1970
  845MOL0     C16491   0.873   4.374  -1.215 -0.3626  0.3856 -1.2077
  845MOL0     C16492   0.896   4.430  -1.349 -0.7304 -0.5224  0.0546
  845MOL0     C16493   1.046   4.481  -1.366  0.6965 -0.0599  0.7788
  845MOL0     C16494   1.087   4.499  -1.516 -0.2180 -0.1455 -0.1191
  845MOL0     C16495   1.231   4.566  -1.522  0.3786 -0.4326  0.7590
  845MOL0     O16496   1.205   4.712  -1.519  0.0752  0.0569  0.7595
  845MOL0     C16497   1.223   4.772  -1.639 -0.7650 -0.4688  0.7974
  845MOL0     C16498   1.359   4.780  -1.676  0.5336  0.7034 -0.6741
  845MOL0     C16499   1.404   4.844  -1.801  0.1966  0.5320 -0.8159
  845MOL0     C16500   1.550   4.867  -1.827  0.0441  0.1825 -0.2423
  845MOL0     C16501   1.309   4.887  -1.889  0.7225 -0.5320  0.4723
  845MOL0     C16502   1.342   4.933  -2.031 -1.1422 -0.1546 -0.6245
  845MOL0     O16503   1.230   4.962  -2.107  0.4317 -1.0762  0.4812
  845MOL0     C16504   1.256   4.949  -2.238 -0.5399  0.1480 -0.1199
  845MOL0     C16505   1.310   5.049  -2.326 -0.1112  0.7277 -1.0890
  845MOL0     C16506   1.312   5.019  -2.461  0.3305 -0.4590  0.1918
  845MOL0     C16507   1.289   4.892  -2.513 -1.1622 -0.5690  0.0017
  845MOL0     O16508   1.305   4.868  -2.646  0.0750 -0.1469 -0.5406
  845MOL0     C16509   1.437   4.906  -2.693 -0.8324 -0.2086  0.4551
  845MOL0     C16510   1.538   4.791  -2.664 -0.3355  0.1856 -0.0013
  845MOL0     C16511   1.684   4.809  -2.712 -0.7608 -0.3711 -0.5468
  845MOL0     C16512   1.781   4.695  -2.716 -0.3291 -0.2989 -0.2595
  845MOL0     C16513   1.917   4.756  -2.738 -0.6359  0.0877  0.3972
  845MOL0     C16514   2.033   4.659  -2.749 -0.9272 -0.3573  0.1602
  845MOL0     C16515   2.166   4.745  -2.737 -0.3850  0.4376  0.0535
  845MOL0     C16516   2.291   4.667  -2.772  0.5488  0.1867  0.3942
  845MOL0    Cl16517   2.278   4.539  -2.642 -0.3441 -0.0877  0.6782
  845MOL0     C16518   1.245   4.788  -2.418  0.2385  0.2088  0.0907
  845MOL0     C16519   1.228   4.818  -2.282 -0.2821 -0.5715 -0.1717
  845MOL0     O16520   1.458   4.939  -2.078  0.1957 -0.1647  0.0351
  845MOL0     C16521   1.170   4.887  -1.851 -0.1130  0.2353 -0.3501
  845MOL0     C16522   1.136   4.833  -1.729 -0.2944  0.1453  0.0176
  845MOL0     N16523   0.860   4.243  -1.179 -1.1490 -0.8665 -0.8531
  845MOL0     N16524   0.847   4.235  -1.053  0.7526 -0.2454 -0.0231
  845MOL0     C16525   0.321   4.670  -0.093  0.8550 -0.7457 -0.5346
  845MOL0     C16526   0.207   4.724  -0.026  0.0740  1.0624 -0.7202
  845MOL0     C16527  -0.036   4.971   0.293 -0.0727  0.9808  0.1208
  845MOL0     C16528  -0.145   4.887   0.275  0.0595  0.4099 -0.9055
  845MOL0     C16529  -0.253   4.886   0.365 -0.2369 -0.2922 -0.7362
  845MOL0     C16530  -0.244   4.965   0.478  0.7667 -0.1282 -0.3731
  845MOL0     O16531  -0.359   4.964   0.562 -0.3790 -0.9966 -0.5967
  845MOL0     C16532  -0.482   5.006   0.497 -0.3047 -0.6996  0.4831
  845MOL0     C16533  -0.523   5.148   0.545  0.4233 -0.3086  0.6058
  845MOL0     C16534  -0.660   5.185   0.477  0.0450  0.8501 -0.0770
  845MOL0     C16535  -0.699   5.332   0.487 -0.6275 -0.3236 -0.3118
  845MOL0     C16536  -0.764   5.385   0.372  1.0425 -0.2302 -0.2915
  845MOL0     C16537  -0.825   5.422   0.271  0.2197 -0.5084 -0.4141
  845MOL0     C16538  -0.144   5.061   0.489 -0.3284  1.0643 -0.4986
  845MOL0     C16539  -0.038   5.069   0.397  0.5093  0.3999 -0.5399
  845MOL0     C16540   0.057   5.176   0.429 -0.2455  0.8615  0.2701
  845MOL0     H16541   0.343   4.858   0.246 -1.0641  0.6671 -1.2509
  845MOL0     H16542   0.539   4.791   0.151 -0.5658  4.1981 -0.0521
  845MOL0     H16543   0.575   4.653  -0.286  3.0169 -0.3081  0.0750
  845MOL0     H16544   0.493   4.502  -0.231  0.6031 -1.7662  1.6914
  845MOL0     H16545   0.773   4.557  -0.193 -3.5779  3.3841  2.6925
  845MOL0     H16546   0.690   4.409  -0.146 -5.0669  0.9346 -0.3484
  845MOL0     H16547   0.811   4.395  -0.365 -1.3955 -1.8057 -0.3165
  845MOL0     H16548   0.649   4.337  -0.382  2.4710 -1.7351  0.2412
  845MOL0     H16549   0.588   4.545  -0.485 -1.1192 -0.9452 -0.3176
  845MOL0     H16550   0.730   4.631  -0.444  1.4243 -1.9380  0.7039
  845MOL0     H16551   0.868   4.488  -0.597  0.2196 -1.7508 -0.8407
  845MOL0     H16552   0.733   4.569  -0.677  1.0651  0.6131 -0.7939
  845MOL0     H16553   0.795   4.275  -0.614  0.3148 -0.0171 -0.3965
  845MOL0     H16554   0.627   4.329  -0.605  1.2942  1.4428  3.0554
  845MOL0     H16555   0.670   4.382  -0.857 -0.0840 -2.9944 -1.9549
  845MOL0     H16556   0.736   4.222  -0.814  0.6819  0.5654  1.3504
  845MOL0     H16557   0.892   4.493  -0.843 -4.8855  1.1967 -2.8042
  845MOL0     H16558   0.960   4.330  -0.812 -0.1456 -1.7754 -0.1016
  845MOL0     H16559   0.928   4.547  -1.090 -0.0203 -0.2646 -1.4092
  845MOL0     H16560   0.827   4.504  -1.390 -1.1579 -1.2543 -0.5817
  845MOL0     H16561   0.888   4.345  -1.418  1.5190 -0.3693 -0.4796
  845MOL0     H16562   1.049   4.578  -1.316  3.8777  0.6605 -0.5259
  845MOL0     H16563   1.114   4.422  -1.305  0.9740  0.8210  1.3448
  845MOL0     H16564   1.090   4.406  -1.573  0.8850 -0.4485  0.3965
  845MOL0     H16565   1.004   4.547  -1.568 -2.6793 -3.7088  0.1879
  845MOL0     H16566   1.301   4.549  -1.440  0.5388  0.4559  0.8115
  845MOL0     H16567   1.260   4.529  -1.621 -0.1353  0.8656  0.0947
  845MOL0     H16568   1.428   4.744  -1.600 -0.7257  2.3161  1.3105
  845MOL0     H16569   1.592   4.819  -1.915  0.6837  0.8620 -0.3110
  845MOL0     H16570   1.608   4.834  -1.740 -1.2719  2.2013  1.4925
  845MOL0     H16571   1.566   4.973  -1.845 -2.5580  0.7745  0.4792
  845MOL0     H16572   1.344   5.150  -2.303  3.6575 -0.8420  1.0869
  845MOL0     H16573   1.339   5.104  -2.524  0.3189  0.8094  1.8426
  845MOL0     H16574   1.439   4.918  -2.801 -0.9459 -0.3047  0.4429
  845MOL0     H16575   1.482   4.996  -2.650  1.6049 -1.2828  0.3311
  845MOL0     H16576   1.539   4.768  -2.557  1.8988 -2.4682 -0.4803
  845MOL0     H16577   1.498   4.697  -2.704 -1.5744  1.6559 -2.4826
  845MOL0     H16578   1.726   4.885  -2.646 -1.2495 -0.3319 -0.2843
  845MOL0     H16579   1.685   4.853  -2.812 -1.1757  0.5045 -0.1665
  845MOL0     H16580   1.758   4.621  -2.794 -1.1316 -1.1407  0.7435
  845MOL0     H16581   1.775   4.641  -2.621  1.4371 -2.7583 -1.4243
  845MOL0     H16582   1.922   4.808  -2.835  5.0093 -0.2301  0.2198
  845MOL0     H16583   1.940   4.822  -2.654 -1.6994 -0.6592  1.3125
  845MOL0     H16584   2.038   4.612  -2.848  0.6578 -0.7612  0.4050
  845MOL0     H16585   2.033   4.590  -2.665 -3.0629  2.0370  2.3020
  845MOL0     H16586   2.183   4.787  -2.638 -1.0661  2.6181 -0.6914
  845MOL0     H16587   2.159   4.835  -2.800 -3.3885 -1.9618 -3.4942
  845MOL0     H16588   2.378   4.734  -2.771  0.5631  0.3691 -2.7137
  845MOL0     H16589   2.283   4.627  -2.873  2.6038  3.7093 -1.3588
  845MOL0     H16590   1.227   4.688  -2.457  3.4517 -0.8456  0.9883
  845MOL0     H16591   1.187   4.752  -2.206 -0.7497  0.9415  0.9347
  845MOL0     H16592   1.097   4.924  -1.922  0.9546  1.5591 -0.8259
  845MOL0     H16593   1.029   4.830  -1.714 -0.6485 -1.2363 -2.3148
  845MOL0     H16594   0.306   4.605  -0.179 -0.9231 -1.3963  0.2061
  845MOL0     H16595   0.106   4.709  -0.062  0.0883 -1.1774  0.0354
  845MOL0     H16596  -0.133   4.808   0.201  2.1166 -1.8670  1.6301
  845MOL0     H16597  -0.335   4.819   0.341 -0.9330  1.4733 -3.9236
  845MOL0     H16598  -0.473   4.999   0.388 -1.0738 -2.4652  0.4971
  845MOL0     H16599  -0.558   4.932   0.524 -1.4857 -0.5258 -2.0695
  845MOL0     H16600  -0.444   5.218   0.519  1.3660 -0.3281  3.1098
  845MOL0     H16601  -0.531   5.159   0.654  0.4295 -0.0878  0.5839
  845MOL0     H16602  -0.659   5.152   0.373  0.6359 -0.1800  0.2376
  845MOL0     H16603  -0.727   5.117   0.531  1.8405 -0.8918  0.0737
  845MOL0     H16604  -0.606   5.385   0.510 -1.7311  0.6188  2.3497
  845MOL0     H16605  -0.763   5.353   0.573  0.8904  1.0985  0.5342
  845MOL0     H16606  -0.871   5.450   0.178  0.1964  2.0742  0.2914
  845MOL0     H16607  -0.129   5.113   0.584 -0.1060 -0.8289  0.5610
  845MOL0     H16608   0.061   5.256   0.355 -1.8555  0.1713 -0.6309
  845MOL0     H16609   0.028   5.221   0.525 -1.7677 -0.5328  0.5217
  845MOL0     H16610   0.160   5.143   0.447 -0.5562 -0.5567 -0.3657
  846MOL0     O16611   6.351   7.794   3.669  0.1691 -0.4398 -0.4999
  846MOL0     C16612   6.236   7.837   3.687  0.1058 -0.1848  0.1070
  846MOL0     O16613   6.183   7.881   3.805  0.4181  0.0294  0.0764
  846MOL0     C16614   6.268   7.889   3.913 -0.1407  0.8289 -0.0599
  846MOL0     C16615   6.232   7.818   4.034 -0.0778 -0.8045  0.6634
  846MOL0     C16616   6.311   7.821   4.145  0.4013  1.0372  0.7404
  846MOL0     C16617   6.417   7.918   4.150 -0.0316  0.1901 -0.2686
  846MOL0     O16618   6.482   7.928   4.270 -0.3270  0.6299  0.5931
  846MOL0     C16619   6.516   8.068   4.316 -0.2466 -1.2475  0.4584
  846MOL0     C16620   6.393   8.157   4.322  0.3011 -1.3399 -1.1800
  846MOL0     C16621   6.439   8.303   4.337 -0.3057 -0.0191  1.2417
  846MOL0     C16622   6.484   8.367   4.201 -0.4128  0.1849  1.0988
  846MOL0     C16623   6.551   8.497   4.216 -0.2943 -0.7269 -0.1343
  846MOL0     C16624   6.645   8.537   4.106  0.0929  1.0895  0.6861
  846MOL0     C16625   6.558   8.611   4.001  0.1858  0.0945 -0.3800
  846MOL0     C16626   6.628   8.655   3.868 -1.2507 -0.0165  0.0227
  846MOL0     N16627   6.539   8.747   3.803  0.2157  1.1708  0.1381
  846MOL0     C16628   6.504   8.875   3.831 -0.4731  0.1743 -0.9931
  846MOL0     C16629   6.458   8.928   3.716 -0.5761  0.1309 -0.6187
  846MOL0     C16630   6.411   9.071   3.712 -0.6329  0.1001  0.0889
  846MOL0     C16631   6.270   9.100   3.672 -0.5401  0.0313  0.7238
  846MOL0     C16632   6.257   9.246   3.644  0.1055 -0.6250  0.3532
  846MOL0     C16633   6.113   9.275   3.610 -0.2149 -0.7064 -0.3201
  846MOL0     O16634   6.103   9.247   3.473  0.4800  0.4805 -0.2255
  846MOL0     C16635   5.983   9.247   3.413 -0.1278 -0.4472 -0.5310
  846MOL0     C16636   5.904   9.362   3.404  1.0342  0.6360  0.5551
  846MOL0     C16637   5.773   9.365   3.354  0.0473 -0.9064  0.3986
  846MOL0     C16638   5.720   9.514   3.331  0.0095  0.6350 -0.2434
  846MOL0     C16639   5.718   9.243   3.308  0.4890  0.9514 -1.2735
  846MOL0     C16640   5.596   9.234   3.232 -0.4205  0.2135 -0.7872
  846MOL0     O16641   5.591   9.136   3.144  0.2319  0.2983 -0.4426
  846MOL0     C16642   5.469   9.073   3.097  0.0141 -0.9169 -0.0937
  846MOL0     C16643   5.347   9.084   3.158 -0.4355 -1.6538  0.1102
  846MOL0     C16644   5.246   9.003   3.098  0.6551  0.2494 -0.5165
  846MOL0     C16645   5.264   8.924   2.987 -0.2830  0.3192  0.5435
  846MOL0     O16646   5.169   8.833   2.937  0.8093  0.4683 -0.4753
  846MOL0     C16647   5.054   8.881   2.870 -0.2943 -0.4416 -0.0719
  846MOL0     C16648   4.954   8.765   2.847  0.7425 -0.8099  0.4019
  846MOL0     C16649   4.856   8.802   2.730 -0.3753 -0.2700 -0.8628
  846MOL0     C16650   4.805   8.948   2.739 -0.0202  0.7803 -0.1334
  846MOL0     C16651   4.750   8.986   2.603 -0.1121 -0.3153  1.0663
  846MOL0     C16652   4.625   8.902   2.574 -0.1106  0.2653 -0.2833
  846MOL0     C16653   4.562   8.961   2.448 -0.5672 -0.8767  0.7429
  846MOL0     C16654   4.429   8.890   2.413  0.2463  0.2638 -0.3213
  846MOL0    Cl16655   4.299   8.905   2.540 -0.1894 -0.0318  0.5309
  846MOL0     C16656   5.392   8.922   2.930  0.9598  0.0685 -0.8498
  846MOL0     C16657   5.492   8.997   2.976  0.4428  0.1320  0.4814
  846MOL0     O16658   5.513   9.315   3.245  0.1362 -0.3698 -0.9660
  846MOL0     C16659   5.790   9.123   3.314  0.8204 -0.3748  0.3051
  846MOL0     C16660   5.914   9.128   3.368 -0.4778  0.0540 -0.8802
  846MOL0     N16661   6.488   8.841   3.613  0.8779 -0.2627  0.0655
  846MOL0     N16662   6.538   8.737   3.665 -0.3072 -0.6332 -0.0287
  846MOL0     C16663   6.446   8.002   4.038 -0.1060  0.2311  0.5565
  846MOL0     C16664   6.367   7.987   3.916 -1.2624  0.4087  0.2881
  846MOL0     C16665   6.147   7.824   3.565  0.2120 -0.7934 -0.7891
  846MOL0     C16666   6.024   7.774   3.582 -0.3947 -0.6866  0.3827
  846MOL0     C16667   5.926   7.761   3.482 -0.2685  0.1450  1.3224
  846MOL0     C16668   5.963   7.808   3.351  0.5806  0.0753 -0.6242
  846MOL0     O16669   5.855   7.798   3.265 -0.0094 -1.2268  0.6413
  846MOL0     C16670   5.877   7.834   3.132  0.1969  0.0663  1.0444
  846MOL0     C16671   5.783   7.743   3.053 -0.1646  0.1821  0.3592
  846MOL0     C16672   5.634   7.767   3.079  0.5289  0.5469 -0.1887
  846MOL0     C16673   5.585   7.898   3.039  0.8385 -0.4477  0.0838
  846MOL0     C16674   5.440   7.896   3.061  0.1969  0.6033 -0.0202
  846MOL0     C16675   5.325   7.883   3.102  0.1612  0.0178  0.0399
  846MOL0     C16676   6.090   7.859   3.326 -0.4602  0.1226  0.2796
  846MOL0     C16677   6.190   7.852   3.431  0.1940 -0.0331 -0.6459
  846MOL0     C16678   6.319   7.924   3.402  0.7079  1.1349 -0.3697
  846MOL0     H16679   6.142   7.758   4.039 -2.6827  2.7398  0.1339
  846MOL0     H16680   6.290   7.756   4.229 -1.4993 -0.3008 -0.6870
  846MOL0     H16681   6.602   8.102   4.257 -0.2517 -0.0750  1.0907
  846MOL0     H16682   6.543   8.052   4.421  0.6346 -1.6412  0.1818
  846MOL0     H16683   6.323   8.157   4.238 -0.9101  1.0785 -0.2836
  846MOL0     H16684   6.336   8.135   4.412  0.2949 -1.5591 -1.2374
  846MOL0     H16685   6.350   8.365   4.352  1.7160  3.1452  1.0877
  846MOL0     H16686   6.520   8.329   4.405  1.6716  0.9032 -1.2877
  846MOL0     H16687   6.556   8.304   4.148 -2.3016 -2.1054  1.0528
  846MOL0     H16688   6.397   8.370   4.134  1.0591  2.0688 -0.8361
  846MOL0     H16689   6.606   8.500   4.311 -3.9704  2.9874  2.2204
  846MOL0     H16690   6.470   8.570   4.221 -0.9960 -1.4280 -0.8991
  846MOL0     H16691   6.718   8.605   4.151 -2.7399  2.4811  3.5994
  846MOL0     H16692   6.696   8.451   4.061 -0.1428 -0.3800  3.0468
  846MOL0     H16693   6.526   8.702   4.052  0.3735  0.6206 -1.1775
  846MOL0     H16694   6.462   8.560   3.991 -0.6838  1.4208  0.8116
  846MOL0     H16695   6.721   8.707   3.890 -1.5437  1.5758 -2.1203
  846MOL0     H16696   6.651   8.564   3.811 -1.2080 -1.3953  2.1520
  846MOL0     H16697   6.499   8.919   3.931 -3.1135  0.5929 -1.2358
  846MOL0     H16698   6.469   9.115   3.631 -1.3589 -0.7639 -0.9358
  846MOL0     H16699   6.425   9.130   3.802 -4.2091  2.1762 -0.5120
  846MOL0     H16700   6.250   9.033   3.588 -0.4298  1.1959 -0.2633
  846MOL0     H16701   6.196   9.074   3.748 -1.7990 -0.9745 -0.7928
  846MOL0     H16702   6.297   9.305   3.728  1.7168  1.1019 -1.5288
  846MOL0     H16703   6.317   9.271   3.556  0.6725 -0.9227  0.6481
  846MOL0     H16704   6.043   9.209   3.663  2.6517 -4.9313 -1.3046
  846MOL0     H16705   6.096   9.382   3.627  1.8465 -0.3260 -0.3783
  846MOL0     H16706   5.950   9.454   3.439  1.6644  0.4130  0.3285
  846MOL0     H16707   5.618   9.516   3.371  0.2645 -1.0788  0.5578
  846MOL0     H16708   5.721   9.539   3.224  1.3720 -0.0985 -0.4190
  846MOL0     H16709   5.783   9.596   3.365 -3.5625  3.7865 -0.4339
  846MOL0     H16710   5.329   9.149   3.243  0.1876 -0.3971 -0.7093
  846MOL0     H16711   5.146   9.020   3.137 -0.6678 -3.2989 -1.9180
  846MOL0     H16712   5.027   8.964   2.935  4.2453 -0.7290  2.6693
  846MOL0     H16713   5.084   8.920   2.772  2.1064 -3.2720 -0.6383
  846MOL0     H16714   5.000   8.666   2.832  2.0194 -0.4373  1.6308
  846MOL0     H16715   4.895   8.759   2.939  1.6737 -1.7616  0.9628
  846MOL0     H16716   4.776   8.728   2.736  1.3448 -2.1240  0.9026
  846MOL0     H16717   4.907   8.789   2.634  1.9882 -2.3820  0.5343
  846MOL0     H16718   4.882   9.022   2.762 -1.0162  1.2457  1.9371
  846MOL0     H16719   4.728   8.952   2.816  0.2932 -0.4146  0.2628
  846MOL0     H16720   4.726   9.092   2.614  0.7654  0.0639 -0.3529
  846MOL0     H16721   4.821   8.975   2.519 -1.5505  0.2570 -0.2749
  846MOL0     H16722   4.559   8.918   2.661 -1.3967  2.4067 -1.5612
  846MOL0     H16723   4.652   8.796   2.565  0.4266  0.3510  0.2883
  846MOL0     H16724   4.631   8.934   2.367 -3.2529 -1.8585 -1.3772
  846MOL0     H16725   4.549   9.070   2.452 -0.2942 -0.5797 -3.0181
  846MOL0     H16726   4.449   8.788   2.382  1.0557  0.9856 -2.3339
  846MOL0     H16727   4.394   8.937   2.321 -0.8214  0.2019  0.0393
  846MOL0     H16728   5.417   8.857   2.847  1.1298 -1.3362  0.2756
  846MOL0     H16729   5.589   9.011   2.931  0.0577  2.3137  0.2191
  846MOL0     H16730   5.750   9.031   3.272  1.9707  0.0472 -1.8797
  846MOL0     H16731   5.972   9.037   3.379  3.0599  2.3694  2.4777
  846MOL0     H16732   6.522   8.078   4.050  1.6419 -1.3446  0.0235
  846MOL0     H16733   6.384   8.060   3.838  4.0761  1.2499  1.8440
  846MOL0     H16734   5.985   7.753   3.681 -1.1974  2.2561  0.7804
  846MOL0     H16735   5.827   7.721   3.499 -0.8106  0.2649 -1.1731
  846MOL0     H16736   5.860   7.941   3.115 -1.7362 -0.2931  0.4912
  846MOL0     H16737   5.978   7.800   3.106  1.5713  1.5319  3.9782
  846MOL0     H16738   5.811   7.641   3.078  1.2040  0.2389 -0.7908
  846MOL0     H16739   5.792   7.756   2.944 -3.5817 -1.8444 -0.3227
  846MOL0     H16740   5.577   7.692   3.023 -2.6110 -0.2075  3.6291
  846MOL0     H16741   5.617   7.756   3.186 -0.9302 -2.5452 -0.6283
  846MOL0     H16742   5.613   7.911   2.934 -1.1971 -0.9521 -0.5632
  846MOL0     H16743   5.635   7.974   3.099 -0.1096 -1.4968  2.3031
  846MOL0     H16744   5.224   7.878   3.138 -0.3766  2.9749 -0.7989
  846MOL0     H16745   6.115   7.910   3.234 -1.1912  0.1667  0.0985
  846MOL0     H16746   6.399   7.849   3.405  1.2459  1.5370 -2.9654
  846MOL0     H16747   6.317   7.976   3.306 -3.7535 -1.0813 -1.7398
  846MOL0     H16748   6.338   7.991   3.486 -2.2132  1.2445  0.2932
  847MOL0     O16749   5.892   3.092   2.885  0.9346 -0.0273  0.6809
  847MOL0     C16750   6.010   3.066   2.852 -0.6127 -0.4114 -0.3991
  847MOL0     O16751   6.047   2.956   2.792 -0.2046  1.0020 -0.2255
  847MOL0     C16752   5.964   2.851   2.772  0.1799 -0.1157  0.7622
  847MOL0     C16753   5.871   2.857   2.680  0.0202  0.2309  0.4465
  847MOL0     C16754   5.800   2.735   2.648  0.3516 -0.1702 -0.8701
  847MOL0     C16755   5.820   2.617   2.718 -0.2263  0.2544 -0.4174
  847MOL0     O16756   5.742   2.513   2.681  0.2396  0.0051 -0.5107
  847MOL0     C16757   5.753   2.383   2.753  0.3474 -0.0092  0.3790
  847MOL0     C16758   5.652   2.347   2.848 -0.2750 -0.0876  0.6401
  847MOL0     C16759   5.654   2.220   2.935 -0.1253  0.1533 -0.7686
  847MOL0     C16760   5.789   2.195   3.018 -0.6192 -0.4151 -0.2629
  847MOL0     C16761   5.762   2.082   3.120 -0.6910  0.2134 -0.4064
  847MOL0     C16762   5.885   2.037   3.197 -0.3689  1.0493 -0.4295
  847MOL0     C16763   5.992   1.967   3.111  0.0782 -0.3625 -0.2462
  847MOL0     C16764   6.089   1.877   3.193  0.2739 -0.3193 -0.3808
  847MOL0     N16765   6.041   1.748   3.232  0.3041  0.0997  0.7394
  847MOL0     C16766   6.071   1.681   3.348 -1.0298  0.0406  1.3061
  847MOL0     C16767   6.041   1.549   3.327  1.0750 -0.5966 -1.1981
  847MOL0     C16768   6.074   1.424   3.402  0.4979  0.5049  0.9867
  847MOL0     C16769   5.955   1.354   3.459  0.4704  0.5782 -0.2523
  847MOL0     C16770   5.847   1.448   3.530 -1.0749 -0.3542  0.2451
  847MOL0     C16771   5.768   1.372   3.643 -0.3852 -0.0811  0.3505
  847MOL0     O16772   5.666   1.465   3.700  0.2053  0.0042  0.0795
  847MOL0     C16773   5.551   1.502   3.627 -1.2239  1.0527  1.4273
  847MOL0     C16774   5.494   1.622   3.671  0.3730 -0.8172 -0.5232
  847MOL0     C16775   5.378   1.669   3.616 -0.2200 -0.0356  0.4722
  847MOL0     C16776   5.320   1.803   3.677 -0.3162  0.0843  0.5008
  847MOL0     C16777   5.317   1.595   3.510  0.3217 -1.0376  1.0515
  847MOL0     C16778   5.200   1.651   3.438  0.5154 -1.3464 -0.0712
  847MOL0     O16779   5.143   1.559   3.357 -0.3641  0.2613  0.4294
  847MOL0     C16780   5.063   1.586   3.246 -1.0461 -0.5395 -0.0301
  847MOL0     C16781   4.987   1.480   3.184 -0.5287 -0.2144 -0.3332
  847MOL0     C16782   4.904   1.505   3.073  1.8467 -0.4633  0.1107
  847MOL0     C16783   4.897   1.643   3.018  0.3212  0.5878  0.9789
  847MOL0     O16784   4.822   1.678   2.914  1.0262  0.1960 -0.1624
  847MOL0     C16785   4.763   1.582   2.828  0.1461  0.8816 -0.0182
  847MOL0     C16786   4.692   1.663   2.722  0.0242 -0.2355 -1.0069
  847MOL0     C16787   4.775   1.658   2.596 -0.4242 -0.7278  1.1424
  847MOL0     C16788   4.696   1.696   2.472 -0.0273  0.1436 -0.8484
  847MOL0     C16789   4.781   1.696   2.347 -0.7906  0.0121 -0.3728
  847MOL0     C16790   4.696   1.741   2.227  0.0048 -0.1936  0.5114
  847MOL0     C16791   4.798   1.747   2.115  1.7418  0.2812 -0.3800
  847MOL0     C16792   4.728   1.800   1.993  0.4234  0.0719 -1.2328
  847MOL0    Cl16793   4.857   1.813   1.864 -0.3978  0.1855  0.2120
  847MOL0     C16794   4.980   1.739   3.074  0.0575 -0.2024 -0.0919
  847MOL0     C16795   5.053   1.714   3.185  0.0733  0.5678 -0.3354
  847MOL0     O16796   5.171   1.769   3.442 -0.0611 -1.1557 -0.2631
  847MOL0     C16797   5.375   1.472   3.470  0.1420  0.4257 -0.1882
  847MOL0     C16798   5.492   1.424   3.525  0.7912 -0.0723  0.6125
  847MOL0     N16799   5.991   1.544   3.206 -0.2956 -0.3516 -0.0662
  847MOL0     N16800   5.980   1.656   3.154 -0.3007  0.0928  0.3011
  847MOL0     C16801   5.923   2.616   2.814  0.6688  1.1897 -0.0649
  847MOL0     C16802   5.975   2.732   2.849 -1.0124  0.8433  0.7252
  847MOL0     C16803   6.115   3.179   2.865  0.4228  0.5929 -0.1802
  847MOL0     C16804   6.242   3.167   2.801  0.9867  0.4269 -0.5203
  847MOL0     C16805   6.338   3.268   2.801 -1.3248 -1.3581 -0.3420
  847MOL0     C16806   6.305   3.380   2.872  0.0299  0.4087  0.2063
  847MOL0     O16807   6.401   3.470   2.889 -0.2387 -0.7660 -0.1182
  847MOL0     C16808   6.384   3.603   2.952 -0.1878 -1.0058 -0.5937
  847MOL0     C16809   6.484   3.704   2.900 -0.0365 -0.2437  0.2140
  847MOL0     C16810   6.444   3.851   2.916  0.3485 -0.4224  0.0693
  847MOL0     C16811   6.514   3.934   2.799  0.1855  0.4035 -0.6595
  847MOL0     C16812   6.418   3.937   2.681  0.0227 -0.0497  0.9527
  847MOL0     C16813   6.332   3.928   2.585 -1.3099 -0.5005  0.5628
  847MOL0     C16814   6.189   3.392   2.944 -0.0907 -0.4382  0.0493
  847MOL0     C16815   6.086   3.298   2.938 -0.2751 -0.5254 -0.4137
  847MOL0     C16816   5.952   3.329   3.006  0.7734 -0.5684  0.5099
  847MOL0     H16817   5.844   2.947   2.627 -1.7071 -0.1206  0.6789
  847MOL0     H16818   5.723   2.739   2.571 -0.4367 -2.2081 -0.2385
  847MOL0     H16819   5.853   2.358   2.790  0.1072 -1.8615 -0.1193
  847MOL0     H16820   5.739   2.316   2.667 -1.0863  2.7894 -1.7241
  847MOL0     H16821   5.654   2.435   2.913  2.8023  0.7314 -0.3979
  847MOL0     H16822   5.568   2.337   2.779  1.9041  4.7762 -3.3166
  847MOL0     H16823   5.574   2.220   3.010  1.9398  0.0265  1.5785
  847MOL0     H16824   5.639   2.138   2.863  2.3231 -1.3178  0.2714
  847MOL0     H16825   5.856   2.162   2.939  1.2764  0.6433  0.8369
  847MOL0     H16826   5.832   2.285   3.062 -0.3038 -1.2117  1.1218
  847MOL0     H16827   5.717   1.991   3.079  1.3232 -0.2909 -1.6361
  847MOL0     H16828   5.697   2.119   3.199  1.2678  1.8979  0.5171
  847MOL0     H16829   5.928   2.117   3.257  2.4600 -1.3885  1.0554
  847MOL0     H16830   5.854   1.953   3.261  0.7700  0.5342 -0.5307
  847MOL0     H16831   6.056   2.047   3.072 -2.3347  2.5297  1.2956
  847MOL0     H16832   5.953   1.903   3.031  0.8478 -0.3569 -0.6324
  847MOL0     H16833   6.175   1.847   3.132  1.1259  2.1058 -0.5125
  847MOL0     H16834   6.124   1.921   3.287 -1.3431  0.1912  0.0037
  847MOL0     H16835   6.133   1.718   3.429 -1.8406  2.0841  1.0605
  847MOL0     H16836   6.131   1.467   3.485  0.8254 -0.5975  1.3552
  847MOL0     H16837   6.130   1.358   3.335 -2.1529 -0.7030 -0.1563
  847MOL0     H16838   5.895   1.296   3.388  1.6424  1.7882 -2.3205
  847MOL0     H16839   5.989   1.290   3.541 -0.4503 -0.1247 -0.3941
  847MOL0     H16840   5.889   1.531   3.588  1.6285 -0.4782 -1.3969
  847MOL0     H16841   5.776   1.492   3.459  1.6261  2.2224 -1.0440
  847MOL0     H16842   5.716   1.290   3.593  1.3471 -0.5698 -0.7401
  847MOL0     H16843   5.835   1.331   3.719  2.2548  1.8849 -0.7270
  847MOL0     H16844   5.533   1.679   3.755  0.7197 -3.1971  1.0281
  847MOL0     H16845   5.215   1.781   3.701  0.0463 -4.0243 -0.8843
  847MOL0     H16846   5.326   1.886   3.606 -2.7755  0.0885  0.2083
  847MOL0     H16847   5.369   1.831   3.770 -0.0308 -2.0827  1.0466
  847MOL0     H16848   4.996   1.380   3.227  0.6734  0.8127  1.9606
  847MOL0     H16849   4.845   1.432   3.019 -2.3758  2.1620  0.7221
  847MOL0     H16850   4.828   1.502   2.791  0.9912  1.4651  0.1893
  847MOL0     H16851   4.695   1.528   2.896  1.1498 -0.2977  0.0821
  847MOL0     H16852   4.592   1.622   2.706 -1.5131  3.3595 -1.3696
  847MOL0     H16853   4.667   1.762   2.760  0.1914 -0.5337 -0.0995
  847MOL0     H16854   4.806   1.555   2.581  1.0097 -0.3213  1.2085
  847MOL0     H16855   4.855   1.730   2.615 -0.2974 -1.0411  1.8083
  847MOL0     H16856   4.648   1.794   2.480  0.4046  0.2099  3.9622
  847MOL0     H16857   4.618   1.622   2.451 -0.5449  0.7612 -1.1246
  847MOL0     H16858   4.879   1.743   2.363  0.3961 -2.3621 -0.1949
  847MOL0     H16859   4.813   1.592   2.340  1.0945  0.3752  1.6452
  847MOL0     H16860   4.660   1.840   2.256  0.8765  0.0909  0.6544
  847MOL0     H16861   4.617   1.670   2.201  0.3086 -0.2062 -0.4148
  847MOL0     H16862   4.832   1.645   2.092  1.7314  0.2048 -0.0654
  847MOL0     H16863   4.890   1.804   2.134  0.2533  3.1963 -1.3808
  847MOL0     H16864   4.683   1.893   2.028 -0.1601 -0.8290  0.5340
  847MOL0     H16865   4.655   1.722   1.971 -1.9410  1.9612 -0.4654
  847MOL0     H16866   4.962   1.839   3.036 -3.1199  0.8000  3.4584
  847MOL0     H16867   5.109   1.795   3.230 -2.2509  0.7434  2.5700
  847MOL0     H16868   5.319   1.410   3.401  0.0170  0.4523 -0.1111
  847MOL0     H16869   5.528   1.327   3.494 -0.9189 -0.1252 -1.4695
  847MOL0     H16870   5.954   2.523   2.860 -1.0932 -0.1802 -1.4910
  847MOL0     H16871   6.047   2.721   2.929 -0.6878 -2.1491  0.1372
  847MOL0     H16872   6.272   3.071   2.757  0.0810 -0.6879  1.2010
  847MOL0     H16873   6.435   3.256   2.754  2.5338  1.4510  5.6152
  847MOL0     H16874   6.288   3.636   2.911 -0.2182 -0.7088 -0.2823
  847MOL0     H16875   6.378   3.599   3.061  0.2826  0.2363 -0.5102
  847MOL0     H16876   6.489   3.682   2.793 -2.5387  1.7085 -0.3933
  847MOL0     H16877   6.582   3.686   2.945 -1.0873 -0.3566  2.6146
  847MOL0     H16878   6.335   3.853   2.916  0.3056 -1.3932  1.9019
  847MOL0     H16879   6.462   3.887   3.018  0.5481 -1.5010  0.4237
  847MOL0     H16880   6.615   3.892   2.787  0.4046  0.8389 -0.3843
  847MOL0     H16881   6.522   4.041   2.821  1.8646  0.6239 -2.1282
  847MOL0     H16882   6.267   3.924   2.500 -2.0439 -1.7671  1.1541
  847MOL0     H16883   6.170   3.483   3.000 -1.1804  0.3633 -1.5498
  847MOL0     H16884   5.873   3.347   2.933 -1.1722  1.0137  2.8786
  847MOL0     H16885   5.916   3.246   3.068  0.5266  0.5729  1.9459
  847MOL0     H16886   5.963   3.417   3.070 -0.8019 -2.0430  2.9954
  848MOL0     O16887   3.485   1.354   6.986 -0.3020 -0.8906 -0.0005
  848MOL0     C16888   3.459   1.469   6.959  0.3799 -0.6653  1.3648
  848MOL0     O16889   3.420   1.503   6.830 -0.2860 -1.0506 -0.5717
  848MOL0     C16890   3.440   1.397   6.738 -1.0408 -0.2769  0.3313
  848MOL0     C16891   3.345   1.300   6.694  0.6591 -0.5398  0.4374
  848MOL0     C16892   3.378   1.218   6.589 -0.6401  0.6287  0.2859
  848MOL0     C16893   3.494   1.238   6.507 -1.1174  0.2546 -1.4038
  848MOL0     O16894   3.513   1.190   6.383  0.6485 -0.5161  0.7210
  848MOL0     C16895   3.443   1.081   6.334  1.8968  0.6692  0.8476
  848MOL0     C16896   3.518   0.988   6.227  0.5968 -0.1127 -0.3930
  848MOL0     C16897   3.413   0.899   6.152 -0.0509  1.4143  0.2049
  848MOL0     C16898   3.479   0.814   6.050 -0.3583  0.5857 -0.4896
  848MOL0     C16899   3.394   0.704   5.996  0.4838 -0.0597 -0.6482
  848MOL0     C16900   3.284   0.750   5.903 -0.8336  0.2281  0.1346
  848MOL0     C16901   3.338   0.819   5.771  0.9061  0.2639  0.2731
  848MOL0     C16902   3.202   0.825   5.683 -0.0934  0.0262  0.0385
  848MOL0     N16903   3.209   0.915   5.562 -0.1737 -0.3032 -0.6993
  848MOL0     C16904   3.222   1.049   5.564  0.8587 -0.6568 -0.0195
  848MOL0     C16905   3.240   1.073   5.432  0.4612 -0.5996  0.2605
  848MOL0     C16906   3.259   1.212   5.380  1.0110  0.1728 -0.7134
  848MOL0     C16907   3.165   1.262   5.272 -0.4715  0.4470 -0.4002
  848MOL0     C16908   3.177   1.412   5.240  0.3017 -0.2888  1.2736
  848MOL0     C16909   3.065   1.450   5.140 -0.3717 -0.0497 -0.1352
  848MOL0     O16910   3.021   1.584   5.130  0.0893 -0.1955  0.0553
  848MOL0     C16911   2.922   1.618   5.049  0.5400  0.0831  0.6451
  848MOL0     C16912   2.872   1.534   4.935  0.7005  0.9157 -0.1862
  848MOL0     C16913   2.769   1.570   4.848 -0.1582  0.1516 -1.0308
  848MOL0     C16914   2.756   1.480   4.727  0.1907 -0.4220 -0.5505
  848MOL0     C16915   2.713   1.695   4.863  1.2735  0.2206  0.2421
  848MOL0     C16916   2.613   1.752   4.770  0.3897 -0.3621 -0.0341
  848MOL0     O16917   2.485   1.778   4.813 -0.2087  0.0089  0.0590
  848MOL0     C16918   2.431   1.697   4.905  0.2239 -0.6016 -0.3190
  848MOL0     C16919   2.422   1.557   4.886 -0.1812 -0.9383 -0.4640
  848MOL0     C16920   2.371   1.475   4.987 -0.2465  0.3866  0.4582
  848MOL0     C16921   2.316   1.528   5.102 -0.0416 -0.0865 -1.1102
  848MOL0     O16922   2.265   1.430   5.188  0.2810 -0.3343  0.8332
  848MOL0     C16923   2.205   1.484   5.311 -1.5258  0.4256 -0.0143
  848MOL0     C16924   2.312   1.526   5.421  0.1857  0.1524  0.0047
  848MOL0     C16925   2.443   1.453   5.415 -0.4236 -0.0704 -0.4388
  848MOL0     C16926   2.565   1.536   5.368 -1.2879 -0.0642 -0.6320
  848MOL0     C16927   2.625   1.615   5.499  0.5345 -0.3475 -0.5219
  848MOL0     C16928   2.734   1.704   5.439  0.5376 -1.2367 -0.8416
  848MOL0     C16929   2.802   1.782   5.555 -0.4775  0.2629  1.1687
  848MOL0     C16930   2.910   1.873   5.511 -0.4932 -0.6258 -0.6197
  848MOL0    Cl16931   3.044   1.799   5.437 -0.5053  0.3554  0.1334
  848MOL0     C16932   2.298   1.670   5.113  0.4563  1.0763  0.1054
  848MOL0     C16933   2.365   1.749   5.014 -0.6554  0.2384  0.0804
  848MOL0     O16934   2.655   1.804   4.663 -0.6013  0.2825 -0.1090
  848MOL0     C16935   2.754   1.775   4.968 -1.2700 -0.1546 -0.5287
  848MOL0     C16936   2.860   1.735   5.058  0.2901  0.4953 -0.4874
  848MOL0     N16937   3.241   0.957   5.353 -0.0986  0.2163 -0.5184
  848MOL0     N16938   3.214   0.860   5.435  0.1064 -0.6711  0.4524
  848MOL0     C16939   3.593   1.322   6.562 -0.4377 -0.1323  1.0239
  848MOL0     C16940   3.566   1.406   6.670  0.0871 -0.5656 -0.1745
  848MOL0     C16941   3.443   1.579   7.068  0.6397  0.7139 -0.4830
  848MOL0     C16942   3.488   1.542   7.197  0.3616 -0.2003  0.2153
  848MOL0     C16943   3.499   1.641   7.298  0.1645  1.0468 -0.3068
  848MOL0     C16944   3.453   1.770   7.285  0.1177 -0.4601 -0.2152
  848MOL0     O16945   3.465   1.869   7.372 -0.3928  0.2342  0.0195
  848MOL0     C16946   3.545   1.851   7.489 -0.2452 -0.0911 -0.3312
  848MOL0     C16947   3.536   1.979   7.588 -0.0479  0.3230  0.5029
  848MOL0     C16948   3.580   2.109   7.518 -1.0099 -0.5686  1.0248
  848MOL0     C16949   3.734   2.101   7.482  1.0435 -0.1405  0.3906
  848MOL0     C16950   3.815   2.068   7.602  0.7545 -0.2955 -0.0353
  848MOL0     C16951   3.897   2.058   7.687  0.5695  0.8858 -0.2535
  848MOL0     C16952   3.382   1.799   7.170 -0.4969 -0.3360  0.0758
  848MOL0     C16953   3.382   1.709   7.051 -0.6631  0.5997 -0.2383
  848MOL0     C16954   3.324   1.755   6.918 -0.6679  0.1024  0.3378
  848MOL0     H16955   3.248   1.311   6.741 -2.4759  0.2891 -5.2775
  848MOL0     H16956   3.302   1.157   6.540 -0.6063  0.3507  0.5698
  848MOL0     H16957   3.358   1.129   6.284 -1.7009 -2.8444  3.0468
  848MOL0     H16958   3.397   1.024   6.415 -0.8849 -0.0963 -1.0878
  848MOL0     H16959   3.575   1.060   6.168 -1.2381  1.1572 -0.6821
  848MOL0     H16960   3.583   0.923   6.286  0.6695 -2.4967 -2.8946
  848MOL0     H16961   3.366   0.827   6.219 -0.1713 -1.0685 -2.3335
  848MOL0     H16962   3.331   0.959   6.110 -0.9471 -1.9362 -3.4255
  848MOL0     H16963   3.533   0.871   5.974 -0.4464 -1.1418 -1.9156
  848MOL0     H16964   3.555   0.765   6.111  0.5660  3.0012  0.4212
  848MOL0     H16965   3.341   0.648   6.073 -3.7101 -0.2069 -3.3158
  848MOL0     H16966   3.463   0.631   5.951  1.7426  0.4778  0.3505
  848MOL0     H16967   3.225   0.663   5.872 -0.9287  0.2476  0.2594
  848MOL0     H16968   3.216   0.815   5.959 -0.3734  0.0038  0.9680
  848MOL0     H16969   3.409   0.766   5.706 -1.8116 -0.3197 -2.4582
  848MOL0     H16970   3.382   0.918   5.783  3.7662 -1.0613  1.8113
  848MOL0     H16971   3.175   0.726   5.646  0.4723  0.8014 -2.7307
  848MOL0     H16972   3.123   0.879   5.737 -0.1778 -0.9755  0.9400
  848MOL0     H16973   3.227   1.120   5.645 -0.4644  1.8008 -1.9486
  848MOL0     H16974   3.364   1.223   5.351  0.7762 -0.1695 -1.7178
  848MOL0     H16975   3.247   1.277   5.467 -1.2593  2.8882 -2.8793
  848MOL0     H16976   3.198   1.206   5.184  1.8686 -2.0590  1.9070
  848MOL0     H16977   3.064   1.236   5.305  1.0837 -1.3243  3.5690
  848MOL0     H16978   3.154   1.476   5.325 -0.1538 -0.0503  0.9748
  848MOL0     H16979   3.275   1.446   5.206 -0.2492 -1.4911 -1.8800
  848MOL0     H16980   3.108   1.414   5.046 -2.7493 -0.3140 -1.2035
  848MOL0     H16981   2.982   1.389   5.179  0.5305 -1.1754  0.0710
  848MOL0     H16982   2.918   1.436   4.927  2.6617  1.9310 -3.5568
  848MOL0     H16983   2.698   1.536   4.653 -0.6793 -0.9301 -0.2617
  848MOL0     H16984   2.692   1.392   4.734  2.8702 -2.4518 -0.0550
  848MOL0     H16985   2.859   1.455   4.700 -0.1896 -1.6719 -0.9005
  848MOL0     H16986   2.467   1.505   4.803 -2.9665 -0.8624 -2.1635
  848MOL0     H16987   2.370   1.369   4.967 -1.7224  0.7373 -1.6943
  848MOL0     H16988   2.137   1.564   5.281 -3.5291 -1.4984 -0.8360
  848MOL0     H16989   2.145   1.409   5.362 -0.5255 -0.3556  0.0409
  848MOL0     H16990   2.325   1.633   5.400 -0.0681 -0.0862 -1.5543
  848MOL0     H16991   2.269   1.513   5.521 -0.1221  2.2465  0.1995
  848MOL0     H16992   2.426   1.361   5.359  0.9754 -0.8981  0.4364
  848MOL0     H16993   2.469   1.435   5.520 -0.5043 -0.7707 -0.5364
  848MOL0     H16994   2.550   1.596   5.277 -0.8974 -0.1421 -0.7502
  848MOL0     H16995   2.641   1.464   5.336  1.2919  2.4629 -0.6452
  848MOL0     H16996   2.554   1.679   5.551  1.5358 -1.4188  2.4033
  848MOL0     H16997   2.674   1.548   5.570  1.8765 -0.5193 -1.5533
  848MOL0     H16998   2.692   1.778   5.369 -2.1749 -0.8014  1.1010
  848MOL0     H16999   2.814   1.641   5.398  2.6239 -1.1474  2.6913
  848MOL0     H17000   2.836   1.726   5.643  1.0303  2.8012  2.3086
  848MOL0     H17001   2.732   1.848   5.608  0.5822 -0.7802  4.0978
  848MOL0     H17002   2.940   1.947   5.586  3.0566 -1.7897 -0.6841
  848MOL0     H17003   2.864   1.923   5.425 -2.4028 -2.8987 -1.0297
  848MOL0     H17004   2.264   1.730   5.197  1.0769 -1.2248  2.0949
  848MOL0     H17005   2.387   1.854   5.023  0.3994  0.6556 -4.8491
  848MOL0     H17006   2.728   1.880   4.980 -0.6227  0.1209 -1.4237
  848MOL0     H17007   2.897   1.806   5.132 -0.0866  1.1426 -0.9176
  848MOL0     H17008   3.682   1.326   6.500 -1.8959  0.4069 -1.1395
  848MOL0     H17009   3.638   1.479   6.705 -1.1251 -0.0054  1.2882
  848MOL0     H17010   3.519   1.442   7.224 -1.1593 -0.4651  1.1176
  848MOL0     H17011   3.532   1.610   7.397  0.6325 -0.8366 -0.9958
  848MOL0     H17012   3.499   1.768   7.542  3.2749 -1.9238  0.1583
  848MOL0     H17013   3.648   1.824   7.463 -0.0550  0.7556 -0.4922
  848MOL0     H17014   3.591   1.952   7.679  0.3674  0.5349  0.3181
  848MOL0     H17015   3.432   1.988   7.622 -0.8529 -1.4355 -1.3034
  848MOL0     H17016   3.518   2.115   7.428 -0.0627 -1.6917  0.2663
  848MOL0     H17017   3.550   2.199   7.571 -3.3427 -1.2766  1.0019
  848MOL0     H17018   3.776   2.195   7.447  0.3792 -0.3086 -0.9080
  848MOL0     H17019   3.759   2.024   7.409 -0.8973  1.8420 -2.5834
  848MOL0     H17020   3.972   2.038   7.761 -0.0250 -0.7172 -0.0418
  848MOL0     H17021   3.328   1.892   7.164  0.1625 -0.0555 -2.3054
  848MOL0     H17022   3.401   1.759   6.841 -0.5046 -0.3880  0.4680
  848MOL0     H17023   3.238   1.690   6.897 -0.3066 -0.3504  0.2472
  848MOL0     H17024   3.286   1.857   6.926  0.5361  0.7146 -1.2306
  849MOL0     O17025   3.841   6.241   1.243  1.3838  0.3481  0.2127
  849MOL0     C17026   3.752   6.184   1.303  0.7308 -0.0683 -0.6794
  849MOL0     O17027   3.725   6.050   1.285  0.3524 -0.3694 -0.1124
  849MOL0     C17028   3.755   6.004   1.161  0.6212 -0.0337 -0.0110
  849MOL0     C17029   3.676   6.028   1.047 -0.2221 -0.9273  0.5767
  849MOL0     C17030   3.703   5.978   0.927 -0.0918  0.0459  0.4047
  849MOL0     C17031   3.815   5.903   0.909 -0.5663  0.6682 -0.3268
  849MOL0     O17032   3.836   5.854   0.787 -0.9145  0.8945 -0.6345
  849MOL0     C17033   3.926   5.729   0.767 -0.0587 -1.6764  0.0040
  849MOL0     C17034   3.929   5.690   0.624 -0.7559 -0.2898 -1.1555
  849MOL0     C17035   4.011   5.569   0.594 -1.0812 -0.0072  0.3007
  849MOL0     C17036   4.148   5.595   0.521  0.4494  0.3679 -0.1052
  849MOL0     C17037   4.201   5.463   0.462  0.1585 -0.8526 -0.0815
  849MOL0     C17038   4.343   5.477   0.396 -0.2281  0.0772 -1.0458
  849MOL0     C17039   4.351   5.574   0.279 -0.5137  0.4768  0.5051
  849MOL0     C17040   4.496   5.601   0.238 -0.9243 -0.4255  0.2238
  849MOL0     N17041   4.525   5.725   0.163 -0.7559 -0.8317 -0.3271
  849MOL0     C17042   4.479   5.755   0.031 -0.3883  0.7354 -0.9175
  849MOL0     C17043   4.544   5.874  -0.001  1.4157  0.5606  0.2089
  849MOL0     C17044   4.543   5.938  -0.145  0.1406  0.0146 -0.9438
  849MOL0     C17045   4.625   6.069  -0.148  0.5841 -0.2290  0.0673
  849MOL0     C17046   4.527   6.189  -0.129 -0.2193  0.6034  0.0220
  849MOL0     C17047   4.578   6.298  -0.207  0.5835 -0.1626  0.2144
  849MOL0     O17048   4.480   6.403  -0.186  0.1696 -0.1177 -0.5801
  849MOL0     C17049   4.529   6.529  -0.178  0.7543 -0.4026  0.2056
  849MOL0     C17050   4.539   6.588  -0.056 -0.2872  0.1048 -0.4284
  849MOL0     C17051   4.578   6.718  -0.039 -1.4057  0.6872 -0.7127
  849MOL0     C17052   4.574   6.761   0.105 -0.4718  0.5479  0.3457
  849MOL0     C17053   4.610   6.798  -0.151  0.0958  0.5621  0.3437
  849MOL0     C17054   4.652   6.943  -0.124  0.3731  1.3276 -0.0951
  849MOL0     O17055   4.631   7.031  -0.231  0.0895 -0.5305  0.9965
  849MOL0     C17056   4.669   7.165  -0.231 -1.1943 -0.3653  0.1244
  849MOL0     C17057   4.779   7.223  -0.163  0.1223 -0.4242  0.2447
  849MOL0     C17058   4.809   7.357  -0.181 -0.4765  0.5590 -0.4756
  849MOL0     C17059   4.734   7.438  -0.273  0.5111  0.4692 -0.5750
  849MOL0     O17060   4.763   7.571  -0.288 -0.7265 -0.4660 -0.4093
  849MOL0     C17061   4.896   7.607  -0.324  0.1269  0.7754  0.5376
  849MOL0     C17062   4.904   7.719  -0.426  0.1609  1.1291 -0.2546
  849MOL0     C17063   4.919   7.661  -0.565 -0.8174  0.3755  1.2194
  849MOL0     C17064   4.895   7.762  -0.688 -0.2325  0.6697 -0.4865
  849MOL0     C17065   5.012   7.863  -0.690  0.3019 -0.4611 -0.3385
  849MOL0     C17066   5.029   7.915  -0.835  0.4676 -0.2801 -0.0915
  849MOL0     C17067   5.144   8.008  -0.829 -0.8885 -0.5198  0.2272
  849MOL0     C17068   5.166   8.091  -0.956  0.3862  0.1345  0.4204
  849MOL0    Cl17069   5.327   8.162  -0.951  0.0053 -0.1116 -0.0213
  849MOL0     C17070   4.627   7.381  -0.344  0.1265  0.8305  0.0454
  849MOL0     C17071   4.594   7.244  -0.320 -0.7807  0.0724 -0.2419
  849MOL0     O17072   4.710   6.979  -0.026  0.5463  0.4474 -0.9808
  849MOL0     C17073   4.601   6.746  -0.281 -0.0927  1.0878  0.0902
  849MOL0     C17074   4.551   6.611  -0.300  0.5744 -1.0778  0.6101
  849MOL0     N17075   4.604   5.917   0.113  0.0281  0.2048 -0.8873
  849MOL0     N17076   4.605   5.829   0.205  0.3267  0.2543 -1.0752
  849MOL0     C17077   3.899   5.882   1.015  0.3113 -0.2041 -0.2668
  849MOL0     C17078   3.866   5.933   1.139  0.1067 -0.2971 -0.5686
  849MOL0     C17079   3.661   6.267   1.383 -0.7264 -0.6118  0.3412
  849MOL0     C17080   3.537   6.209   1.413 -0.2337 -0.0981  0.5092
  849MOL0     C17081   3.444   6.286   1.486  0.1237 -0.3747  0.7217
  849MOL0     C17082   3.467   6.415   1.531 -0.8757  0.4014  0.1742
  849MOL0     O17083   3.360   6.482   1.580  0.8924 -0.9346 -0.4238
  849MOL0     C17084   3.387   6.625   1.598  0.7798  0.3532  1.1306
  849MOL0     C17085   3.258   6.709   1.630 -0.1011 -0.6352  0.2273
  849MOL0     C17086   3.163   6.730   1.499 -0.4872 -0.3576 -0.7099
  849MOL0     C17087   3.014   6.760   1.553 -0.4130 -0.6969  0.6455
  849MOL0     C17088   2.923   6.822   1.450 -0.4427 -0.6925 -1.0337
  849MOL0     C17089   2.858   6.857   1.353 -0.0647  0.4650 -0.1758
  849MOL0     C17090   3.595   6.463   1.508  0.3713  0.0012 -0.0649
  849MOL0     C17091   3.691   6.396   1.436  0.0249  0.6594  0.4046
  849MOL0     C17092   3.835   6.455   1.437 -0.7957  0.3660  0.0414
  849MOL0     H17093   3.581   6.078   1.064  0.9181  1.6153 -0.0134
  849MOL0     H17094   3.642   5.991   0.839  1.5366 -0.6001 -0.8893
  849MOL0     H17095   3.886   5.645   0.824 -1.9863 -1.0716 -0.3656
  849MOL0     H17096   4.027   5.760   0.796 -0.4426 -0.8094  0.4672
  849MOL0     H17097   3.822   5.678   0.602 -0.8880 -0.4013 -0.4727
  849MOL0     H17098   3.962   5.776   0.565 -1.3305  0.2497 -0.7068
  849MOL0     H17099   4.029   5.510   0.684 -0.5114 -0.6393 -0.2217
  849MOL0     H17100   3.958   5.508   0.521  0.2251 -0.7640 -0.0439
  849MOL0     H17101   4.136   5.659   0.433  2.1772 -0.3054 -0.8803
  849MOL0     H17102   4.219   5.634   0.595  2.0171  0.6320 -1.6706
  849MOL0     H17103   4.121   5.420   0.400 -1.1489  0.5702  0.5467
  849MOL0     H17104   4.216   5.402   0.551  0.5638 -0.9256 -0.2016
  849MOL0     H17105   4.410   5.512   0.475 -2.2741  3.0313 -0.4395
  849MOL0     H17106   4.391   5.384   0.366  1.0641 -0.0102  1.0716
  849MOL0     H17107   4.301   5.670   0.294 -0.0826  1.7911 -4.5114
  849MOL0     H17108   4.300   5.526   0.195  2.0774 -2.0754  0.2406
  849MOL0     H17109   4.557   5.617   0.328 -1.3727  1.3118  0.2704
  849MOL0     H17110   4.528   5.516   0.177 -1.1013 -0.1790 -0.2173
  849MOL0     H17111   4.399   5.694  -0.009 -4.0647  1.0060  4.8320
  849MOL0     H17112   4.438   5.944  -0.173 -2.0028  0.8287  5.5419
  849MOL0     H17113   4.595   5.875  -0.218 -0.0855 -0.5355 -0.6355
  849MOL0     H17114   4.712   6.078  -0.082  0.0089 -1.4760  1.0342
  849MOL0     H17115   4.668   6.070  -0.249  0.1300  1.2142 -0.1333
  849MOL0     H17116   4.427   6.164  -0.166 -0.7594  2.0430  0.4538
  849MOL0     H17117   4.526   6.210  -0.021  0.0406  1.2032 -0.0906
  849MOL0     H17118   4.676   6.327  -0.168  0.4206 -1.1199  1.4143
  849MOL0     H17119   4.575   6.275  -0.314  1.0009 -2.4050  0.6370
  849MOL0     H17120   4.499   6.534   0.030 -1.6211  0.6384 -0.6913
  849MOL0     H17121   4.496   6.695   0.145  2.8429 -2.7024  2.0899
  849MOL0     H17122   4.551   6.865   0.125  1.6039  0.7732  1.8864
  849MOL0     H17123   4.674   6.735   0.140 -0.5549  0.7429  0.7266
  849MOL0     H17124   4.841   7.158  -0.102 -1.8868 -0.4178  2.4457
  849MOL0     H17125   4.876   7.403  -0.109 -0.2953  0.6814 -0.7205
  849MOL0     H17126   4.954   7.633  -0.234 -0.3730 -1.9827  1.7689
  849MOL0     H17127   4.933   7.513  -0.366  0.4217 -1.0687  4.4259
  849MOL0     H17128   4.813   7.779  -0.414  0.6823  1.3967  3.5936
  849MOL0     H17129   4.991   7.778  -0.399 -0.0697  2.6115 -2.5263
  849MOL0     H17130   4.854   7.574  -0.574  0.5688 -0.9172  3.0332
  849MOL0     H17131   5.015   7.612  -0.576 -1.3606 -0.6563  0.9500
  849MOL0     H17132   4.800   7.813  -0.667  0.1463  0.9411  0.6468
  849MOL0     H17133   4.896   7.711  -0.784 -0.6404  0.1910 -0.2417
  849MOL0     H17134   4.984   7.929  -0.608 -3.1486  3.2468 -3.9955
  849MOL0     H17135   5.109   7.820  -0.665  0.5522  1.4042  2.2363
  849MOL0     H17136   4.943   7.966  -0.879 -0.0081 -1.7599 -0.9258
  849MOL0     H17137   5.064   7.834  -0.900  2.3192  1.4590 -1.3870
  849MOL0     H17138   5.231   7.949  -0.800 -1.4203 -1.2327  0.4039
  849MOL0     H17139   5.127   8.085  -0.753  0.5671  1.3855 -1.2674
  849MOL0     H17140   5.089   8.167  -0.976  0.6428  0.6289  1.2663
  849MOL0     H17141   5.155   8.022  -1.041 -6.9185 -0.5001  1.2516
  849MOL0     H17142   4.571   7.434  -0.420 -2.2669  0.8178  1.6845
  849MOL0     H17143   4.509   7.198  -0.368  1.1510 -2.5543 -1.3599
  849MOL0     H17144   4.633   6.803  -0.368  2.8616  0.0918  0.4365
  849MOL0     H17145   4.540   6.574  -0.401  0.0419  1.3717 -0.2933
  849MOL0     H17146   3.986   5.818   1.009  1.9698  1.6523  2.0316
  849MOL0     H17147   3.931   5.913   1.224  1.2190  1.9508 -0.8294
  849MOL0     H17148   3.501   6.112   1.380  0.6986 -0.0211 -0.7915
  849MOL0     H17149   3.345   6.242   1.497  0.4985 -2.1165 -1.9639
  849MOL0     H17150   3.455   6.628   1.684 -1.5135 -0.2182  3.0730
  849MOL0     H17151   3.428   6.663   1.504 -0.2902 -0.1275  0.4557
  849MOL0     H17152   3.299   6.808   1.650 -2.8875  0.7102 -0.2515
  849MOL0     H17153   3.209   6.656   1.711  2.2814 -1.8176  1.0024
  849MOL0     H17154   3.206   6.798   1.424  2.4430  0.1565  1.2562
  849MOL0     H17155   3.153   6.634   1.447 -0.0158 -0.7304 -0.1203
  849MOL0     H17156   3.027   6.834   1.632 -2.2181  1.8091 -1.2426
  849MOL0     H17157   2.959   6.678   1.601 -3.5288  0.6312 -0.3758
  849MOL0     H17158   2.806   6.890   1.266 -2.6770 -1.1198  0.6873
  849MOL0     H17159   3.625   6.557   1.554 -0.6121  0.2053  0.1807
  849MOL0     H17160   3.888   6.476   1.343 -0.6228  3.1094  0.6713
  849MOL0     H17161   3.833   6.551   1.489  1.7818  1.8647 -2.3299
  849MOL0     H17162   3.897   6.387   1.495 -0.7001  3.5301  4.1209
  850MOL0     O17163   1.445   3.403   0.550  0.1894  0.6151  0.6330
  850MOL0     C17164   1.428   3.340   0.443 -0.4813  0.1490  1.3570
  850MOL0     O17165   1.318   3.348   0.356  0.4558 -0.0097  0.4603
  850MOL0     C17166   1.212   3.421   0.408 -0.0100 -0.9394 -0.7332
  850MOL0     C17167   1.112   3.357   0.483 -1.0110 -0.1583 -0.4429
  850MOL0     C17168   1.022   3.443   0.545  0.3064 -0.2554 -0.0247
  850MOL0     C17169   1.026   3.581   0.530 -0.9161 -0.9290 -0.1683
  850MOL0     O17170   0.935   3.665   0.589  0.0656 -0.0630 -0.2831
  850MOL0     C17171   0.946   3.719   0.720  0.0556  0.5051  0.2475
  850MOL0     C17172   0.878   3.621   0.823 -0.1556  0.1284  1.0788
  850MOL0     C17173   0.733   3.588   0.784  0.4550  0.5123 -0.5729
  850MOL0     C17174   0.649   3.572   0.915 -0.8954 -0.3182 -0.3440
  850MOL0     C17175   0.502   3.536   0.900 -0.2747 -0.4214  0.1420
  850MOL0     C17176   0.444   3.501   1.041 -0.5215 -0.3550 -0.8133
  850MOL0     C17177   0.299   3.464   1.016  0.5455 -0.1858  0.2378
  850MOL0     C17178   0.236   3.423   1.150  0.1732 -0.3440 -0.2507
  850MOL0     N17179   0.293   3.492   1.274  0.3997  0.1884  0.3525
  850MOL0     C17180   0.271   3.624   1.302 -0.2017 -0.0425 -0.4636
  850MOL0     C17181   0.347   3.646   1.415  0.7507 -0.5200 -0.5971
  850MOL0     C17182   0.338   3.782   1.485  0.3097  0.6627 -0.3694
  850MOL0     C17183   0.442   3.881   1.445  1.4889  0.2604 -0.2247
  850MOL0     C17184   0.417   3.945   1.310  0.9255 -0.4887  0.2373
  850MOL0     C17185   0.537   4.015   1.257 -0.3082  0.6732 -0.0047
  850MOL0     O17186   0.500   4.130   1.174  0.2920  0.3193 -0.0475
  850MOL0     C17187   0.511   4.108   1.032  0.5962 -0.0173 -1.5048
  850MOL0     C17188   0.432   4.020   0.959 -0.8834  0.4934  0.1413
  850MOL0     C17189   0.452   4.000   0.825  0.5694 -0.0557  0.2893
  850MOL0     C17190   0.372   3.898   0.758 -0.6148  0.6987  0.6480
  850MOL0     C17191   0.540   4.075   0.758  0.5048 -0.0558  1.3383
  850MOL0     C17192   0.551   4.062   0.608 -0.2296 -0.1450  0.2453
  850MOL0     O17193   0.681   4.045   0.571 -0.2803 -0.2375  0.6361
  850MOL0     C17194   0.724   4.060   0.438  0.1869 -0.0336  0.0692
  850MOL0     C17195   0.826   3.985   0.370 -0.0918 -0.0719  0.1823
  850MOL0     C17196   0.877   4.016   0.244  0.3954 -0.3550 -0.4686
  850MOL0     C17197   0.830   4.128   0.173 -1.2471 -0.0233 -0.1631
  850MOL0     O17198   0.865   4.171   0.050 -0.1107 -0.1216  0.7349
  850MOL0     C17199   0.902   4.072  -0.044 -0.8720 -0.0041 -0.0101
  850MOL0     C17200   0.928   4.147  -0.174 -0.7779  0.1772  0.6310
  850MOL0     C17201   1.010   4.072  -0.273  0.3609  0.7210 -0.5496
  850MOL0     C17202   1.056   4.137  -0.402 -0.1763 -0.2105  0.5293
  850MOL0     C17203   1.113   4.032  -0.498  0.0410  0.0053 -0.0728
  850MOL0     C17204   1.019   3.922  -0.557 -0.7636 -0.4526 -0.0242
  850MOL0     C17205   1.088   3.851  -0.681 -0.5336  0.3322  0.7444
  850MOL0     C17206   1.085   3.931  -0.813 -0.0250 -0.5479 -0.0944
  850MOL0    Cl17207   1.121   3.818  -0.945 -0.0578  0.0879 -0.4631
  850MOL0     C17208   0.733   4.204   0.236 -0.0324  0.3213 -0.0039
  850MOL0     C17209   0.687   4.179   0.370 -0.0706  0.1215  0.1928
  850MOL0     O17210   0.451   4.084   0.540 -0.1009 -0.4332 -0.8022
  850MOL0     C17211   0.607   4.177   0.819  0.3289  1.0307  1.4038
  850MOL0     C17212   0.601   4.186   0.959  1.6439  1.5339 -0.3454
  850MOL0     N17213   0.400   3.528   1.457  0.7587  0.0836 -0.5693
  850MOL0     N17214   0.371   3.435   1.372 -0.7490 -0.1359 -0.8420
  850MOL0     C17215   1.131   3.644   0.456 -0.0314  1.4184 -0.2306
  850MOL0     C17216   1.224   3.563   0.398  0.0312  0.4617 -0.3036
  850MOL0     C17217   1.534   3.243   0.392 -0.2142 -0.1659 -0.1863
  850MOL0     C17218   1.648   3.296   0.324  0.6825  0.1800 -0.2656
  850MOL0     C17219   1.749   3.206   0.289  0.8321  0.1314 -0.3615
  850MOL0     C17220   1.752   3.074   0.338 -0.4785  0.1778 -0.3874
  850MOL0     O17221   1.863   2.986   0.334 -0.9972 -0.3346  0.7607
  850MOL0     C17222   1.994   3.035   0.304 -0.0640  0.4022  0.1159
  850MOL0     C17223   2.013   3.050   0.153 -0.4943 -0.2767 -0.8363
  850MOL0     C17224   2.048   2.909   0.107 -0.5911 -1.1067 -0.2998
  850MOL0     C17225   2.072   2.891  -0.039  0.4207 -0.9505  0.6926
  850MOL0     C17226   1.961   2.942  -0.117  0.2694 -0.4421 -0.5933
  850MOL0     C17227   1.863   2.996  -0.161 -0.2001  0.2522  0.2877
  850MOL0     C17228   1.653   3.026   0.423 -1.1023 -0.0828  1.3627
  850MOL0     C17229   1.539   3.110   0.439 -0.4554 -0.3864 -0.6393
  850MOL0     C17230   1.416   3.059   0.513  0.7583 -0.2935  0.4245
  850MOL0     H17231   1.115   3.251   0.505  0.9468 -0.0184  0.1556
  850MOL0     H17232   0.953   3.395   0.613  0.6115 -1.7314 -0.7136
  850MOL0     H17233   0.886   3.810   0.713 -1.2046 -0.4275 -2.0183
  850MOL0     H17234   1.051   3.741   0.740 -0.4218  1.8061  1.4714
  850MOL0     H17235   0.936   3.529   0.824  1.0118  0.7501 -1.3080
  850MOL0     H17236   0.882   3.664   0.923  2.2850  0.8951  0.7034
  850MOL0     H17237   0.692   3.673   0.729 -2.9895  0.6575  1.8785
  850MOL0     H17238   0.716   3.490   0.738  1.1039  1.4616 -3.0279
  850MOL0     H17239   0.691   3.483   0.962 -0.1262 -0.2308 -0.8538
  850MOL0     H17240   0.641   3.660   0.979 -3.1957  0.4678 -1.5872
  850MOL0     H17241   0.496   3.454   0.829  0.0976  0.9951 -1.6074
  850MOL0     H17242   0.448   3.622   0.860  1.5064  1.0154  0.6887
  850MOL0     H17243   0.512   3.431   1.091 -1.0886 -0.8859 -0.7760
  850MOL0     H17244   0.452   3.587   1.108 -1.6421  1.0705 -2.4151
  850MOL0     H17245   0.294   3.386   0.940 -0.8810  0.4946 -0.4085
  850MOL0     H17246   0.239   3.548   0.980 -4.0035 -2.7075  1.1647
  850MOL0     H17247   0.131   3.453   1.155  0.4923  1.0297 -1.1189
  850MOL0     H17248   0.245   3.314   1.160  1.5670 -0.2523 -0.3041
  850MOL0     H17249   0.194   3.687   1.258 -2.8148  0.1101  3.7713
  850MOL0     H17250   0.364   3.763   1.589  1.8060  2.7378 -0.3014
  850MOL0     H17251   0.236   3.823   1.481  0.3937  1.0478  0.9212
  850MOL0     H17252   0.454   3.962   1.518  4.0238  0.4957 -0.8018
  850MOL0     H17253   0.537   3.826   1.441  1.9595  0.9725  0.6742
  850MOL0     H17254   0.413   3.866   1.234 -2.0146  0.1657 -0.3977
  850MOL0     H17255   0.326   4.005   1.307  1.9197  1.0398 -0.7580
  850MOL0     H17256   0.596   4.066   1.334  2.6771  0.1381 -1.7756
  850MOL0     H17257   0.609   3.951   1.206 -0.7361  0.4932 -0.3890
  850MOL0     H17258   0.357   3.958   1.006 -3.2021  2.4737 -0.7232
  850MOL0     H17259   0.304   3.951   0.691  0.8091 -0.2728 -1.6822
  850MOL0     H17260   0.327   3.824   0.825  2.6902 -1.5812  0.5952
  850MOL0     H17261   0.436   3.833   0.697 -0.6974  0.1748  1.1120
  850MOL0     H17262   0.870   3.900   0.421  0.5991  0.1073 -0.1036
  850MOL0     H17263   0.948   3.951   0.193 -1.0622  0.3458 -3.6880
  850MOL0     H17264   0.990   4.023  -0.001  0.0051 -0.3249 -2.0288
  850MOL0     H17265   0.834   3.992  -0.076  0.3665 -0.6479 -1.1759
  850MOL0     H17266   0.832   4.173  -0.219 -0.8972  2.4984  2.0785
  850MOL0     H17267   0.991   4.236  -0.169 -1.1670  0.6222 -1.6184
  850MOL0     H17268   0.944   3.990  -0.302 -0.6411  0.8772  1.2046
  850MOL0     H17269   1.085   4.019  -0.213  1.6470  2.9263 -0.0788
  850MOL0     H17270   1.130   4.211  -0.371 -1.5030  0.5411  2.0502
  850MOL0     H17271   0.982   4.190  -0.463  1.7962 -0.5266 -2.3401
  850MOL0     H17272   1.168   4.080  -0.579 -2.8463  2.8318 -0.5635
  850MOL0     H17273   1.191   3.992  -0.432 -0.7049  1.6147  1.9053
  850MOL0     H17274   0.927   3.958  -0.605 -0.7583 -2.6384 -1.8471
  850MOL0     H17275   0.995   3.844  -0.486  0.8901 -1.6373 -0.7051
  850MOL0     H17276   1.031   3.758  -0.693  0.0765  0.0041  0.3652
  850MOL0     H17277   1.190   3.821  -0.658 -1.2344 -3.4911 -0.3819
  850MOL0     H17278   1.157   4.013  -0.809  0.9849 -1.4071 -0.1156
  850MOL0     H17279   0.983   3.968  -0.821  0.2640  0.2638 -0.1078
  850MOL0     H17280   0.707   4.294   0.181  0.8313  0.1708 -0.6947
  850MOL0     H17281   0.620   4.246   0.422  0.1519  0.6100 -0.1487
  850MOL0     H17282   0.685   4.235   0.770 -0.6544  2.0075  0.9769
  850MOL0     H17283   0.665   4.246   1.022  0.1936 -0.4712  3.3466
  850MOL0     H17284   1.148   3.751   0.447  2.3819  1.0616 -0.7617
  850MOL0     H17285   1.301   3.596   0.329 -0.1966 -0.5650 -1.0952
  850MOL0     H17286   1.631   3.398   0.293 -0.8314  0.0447  0.0450
  850MOL0     H17287   1.836   3.243   0.235  1.0624  0.6009  0.3213
  850MOL0     H17288   2.009   3.127   0.361  0.7485  1.8807 -2.3301
  850MOL0     H17289   2.066   2.971   0.354  0.2915 -1.0360 -2.0859
  850MOL0     H17290   2.097   3.113   0.121  0.7499 -1.3099  0.3203
  850MOL0     H17291   1.931   3.105   0.105 -0.5891 -1.8667 -2.5684
  850MOL0     H17292   2.131   2.872   0.168 -1.9064 -2.2266  0.9059
  850MOL0     H17293   1.961   2.844   0.121 -0.6149 -1.4348 -1.8377
  850MOL0     H17294   2.058   2.786  -0.067 -1.5406  0.0994 -2.9407
  850MOL0     H17295   2.175   2.916  -0.069  0.6213 -0.3509  1.8470
  850MOL0     H17296   1.775   3.037  -0.207  0.3718  0.7831 -0.3558
  850MOL0     H17297   1.663   2.927   0.466  1.3736 -0.7517 -0.4712
  850MOL0     H17298   1.381   2.962   0.476 -2.0518  0.8514 -0.1291
  850MOL0     H17299   1.437   3.050   0.620 -0.0063  1.4177  0.7428
  850MOL0     H17300   1.339   3.136   0.511 -1.0461 -1.8112  3.5464
  851MOL0     O17301   6.711   2.024   0.200  0.3614 -0.1718  0.2651
  851MOL0     C17302   6.672   2.117   0.131 -0.7222  0.8199  0.6382
  851MOL0     O17303   6.630   2.102   0.009 -0.0154  0.2991  0.3104
  851MOL0     C17304   6.615   1.975  -0.045  0.3451  0.3144 -0.1657
  851MOL0     C17305   6.489   1.910  -0.035 -0.7501  0.2016  0.2271
  851MOL0     C17306   6.471   1.796  -0.111  0.7946 -0.7271  0.3661
  851MOL0     C17307   6.568   1.748  -0.198 -0.0128  0.1435 -0.5512
  851MOL0     O17308   6.569   1.619  -0.244 -0.6626  0.1761 -0.3913
  851MOL0     C17309   6.553   1.608  -0.381 -0.5609  0.7723 -0.0169
  851MOL0     C17310   6.516   1.468  -0.433 -0.4978 -0.1714 -0.2086
  851MOL0     C17311   6.625   1.354  -0.428 -0.1491  0.9286 -0.3408
  851MOL0     C17312   6.570   1.232  -0.498 -0.5242  0.1004  0.9417
  851MOL0     C17313   6.662   1.112  -0.493 -0.3257  0.5985  0.3607
  851MOL0     C17314   6.599   0.983  -0.551 -0.5348 -0.1288 -0.5007
  851MOL0     C17315   6.697   0.871  -0.547 -0.7131 -1.1646  0.1701
  851MOL0     C17316   6.632   0.739  -0.567  0.2118 -1.2541  0.7968
  851MOL0     N17317   6.732   0.636  -0.576  0.3683 -0.4243  1.0080
  851MOL0     C17318   6.774   0.547  -0.481  0.5308  0.1829 -0.2315
  851MOL0     C17319   6.861   0.465  -0.544  0.4108  0.3859  0.5078
  851MOL0     C17320   6.936   0.358  -0.478 -0.1107 -0.0417 -0.7213
  851MOL0     C17321   6.841   0.253  -0.415 -0.5596  0.4325  0.7105
  851MOL0     C17322   6.920   0.130  -0.363 -0.2662 -0.7231 -0.2615
  851MOL0     C17323   6.844  -0.004  -0.343  0.5768  0.6593 -0.1886
  851MOL0     O17324   6.738   0.011  -0.251  0.4932 -0.1557  0.1821
  851MOL0     C17325   6.758  -0.019  -0.116 -0.6760  0.6169 -0.1013
  851MOL0     C17326   6.805  -0.139  -0.065 -0.8753 -0.8818 -0.5077
  851MOL0     C17327   6.848  -0.147   0.068 -0.4473  0.4006 -0.1900
  851MOL0     C17328   6.895  -0.278   0.106  1.1279  1.0462  0.4893
  851MOL0     C17329   6.824  -0.039   0.161  0.0029 -1.0918 -0.5127
  851MOL0     C17330   6.844  -0.044   0.302  0.1022 -0.6141 -2.0995
  851MOL0     O17331   6.821   0.075   0.368  0.1538  0.2771  0.0538
  851MOL0     C17332   6.863   0.092   0.499  0.3089  0.6169 -0.6871
  851MOL0     C17333   6.938   0.197   0.524 -0.2216  0.5598 -1.0201
  851MOL0     C17334   6.995   0.226   0.650 -0.1899 -0.8429  0.4118
  851MOL0     C17335   6.953   0.154   0.762 -0.4473  0.0980 -0.1516
  851MOL0     O17336   6.986   0.179   0.899 -0.2366  0.3369  0.1738
  851MOL0     C17337   7.076   0.288   0.932 -0.9510  0.5145  0.1045
  851MOL0     C17338   7.071   0.311   1.086  0.0819 -0.5118 -0.0354
  851MOL0     C17339   7.192   0.397   1.122  0.6429  0.1578  0.2895
  851MOL0     C17340   7.194   0.425   1.268  0.2591 -0.4515  0.2875
  851MOL0     C17341   7.322   0.510   1.309  0.0440 -0.2639 -0.1308
  851MOL0     C17342   7.339   0.638   1.241  0.2380  0.5509 -0.1198
  851MOL0     C17343   7.459   0.716   1.295 -0.6424 -0.2566  0.1667
  851MOL0     C17344   7.436   0.819   1.403  0.1744 -0.0098 -0.7565
  851MOL0    Cl17345   7.577   0.932   1.422  0.0674 -0.2848 -0.2636
  851MOL0     C17346   6.870   0.037   0.732 -0.0200  0.2930  0.5150
  851MOL0     C17347   6.832   0.004   0.600  0.9373 -0.8376 -0.5262
  851MOL0     O17348   6.898  -0.146   0.347  0.8090  0.0387 -0.0966
  851MOL0     C17349   6.758   0.076   0.101 -0.3609  0.5275  0.1906
  851MOL0     C17350   6.739   0.087  -0.038  0.5957 -0.8095 -1.0046
  851MOL0     N17351   6.864   0.499  -0.676 -0.4211  0.3387  0.0454
  851MOL0     N17352   6.783   0.602  -0.697  0.7006 -0.0579 -0.6403
  851MOL0     C17353   6.691   1.818  -0.215  0.5908 -0.4514  0.7487
  851MOL0     C17354   6.717   1.925  -0.126  0.0168 -0.3585  0.5765
  851MOL0     C17355   6.663   2.253   0.182 -0.1419  0.1945 -0.4652
  851MOL0     C17356   6.746   2.349   0.135 -0.1125  0.0416 -0.1600
  851MOL0     C17357   6.723   2.486   0.160 -0.4697 -0.4642 -0.2635
  851MOL0     C17358   6.614   2.524   0.246 -0.2580 -0.4296  0.9220
  851MOL0     O17359   6.590   2.655   0.273  0.1553 -0.6510 -0.9297
  851MOL0     C17360   6.452   2.690   0.286  0.4393  0.8820 -0.2264
  851MOL0     C17361   6.430   2.845   0.280  1.3378 -0.4409 -0.2673
  851MOL0     C17362   6.495   2.898   0.158 -0.3331  1.0426  0.0607
  851MOL0     C17363   6.503   3.048   0.165 -0.2675  0.4668  0.3668
  851MOL0     C17364   6.371   3.114   0.153  0.2034  0.6782  0.0419
  851MOL0     C17365   6.273   3.181   0.132  0.7220 -0.7663  0.4698
  851MOL0     C17366   6.547   2.419   0.306  0.1320 -0.3637 -0.2334
  851MOL0     C17367   6.559   2.287   0.270  0.0955  0.8265  0.4930
  851MOL0     C17368   6.452   2.193   0.326  0.3797 -0.2906  0.0471
  851MOL0     H17369   6.416   1.941   0.039 -0.0463  1.7910  0.3004
  851MOL0     H17370   6.375   1.746  -0.105  0.8259 -0.6443  2.6825
  851MOL0     H17371   6.651   1.622  -0.426  0.5128 -2.5572  1.0457
  851MOL0     H17372   6.485   1.681  -0.427 -0.4804  0.1606 -1.1439
  851MOL0     H17373   6.434   1.437  -0.366  3.0138  0.0811  4.8102
  851MOL0     H17374   6.472   1.482  -0.532 -2.6436 -1.5536  0.4650
  851MOL0     H17375   6.718   1.386  -0.476  0.8098 -2.2062 -0.8314
  851MOL0     H17376   6.662   1.329  -0.328  0.7407  0.4764 -0.7662
  851MOL0     H17377   6.491   1.199  -0.430 -0.1435  2.1663  2.4888
  851MOL0     H17378   6.529   1.256  -0.597  1.7161 -0.7787 -0.2701
  851MOL0     H17379   6.698   1.103  -0.390  0.6533 -2.1632 -0.1442
  851MOL0     H17380   6.749   1.140  -0.552  0.1341 -3.4313 -1.1565
  851MOL0     H17381   6.518   0.952  -0.485 -1.0988 -1.4140 -1.7391
  851MOL0     H17382   6.553   0.986  -0.650 -2.2496  0.3216  0.2695
  851MOL0     H17383   6.748   0.868  -0.451  2.1804 -1.6210 -1.2604
  851MOL0     H17384   6.773   0.888  -0.624 -3.2660 -1.2626 -2.5619
  851MOL0     H17385   6.547   0.725  -0.499 -3.1070 -0.0547 -2.7199
  851MOL0     H17386   6.583   0.741  -0.665  1.2315 -3.4035  0.1863
  851MOL0     H17387   6.765   0.554  -0.373  0.7600 -0.6806 -0.1486
  851MOL0     H17388   6.978   0.404  -0.388 -0.3909 -1.4073  0.1374
  851MOL0     H17389   7.017   0.323  -0.542  1.5944  3.8775 -0.9877
  851MOL0     H17390   6.786   0.302  -0.334 -2.4532 -0.9702  0.3626
  851MOL0     H17391   6.772   0.209  -0.488  3.4346 -2.4343 -1.6917
  851MOL0     H17392   6.995   0.105  -0.437 -0.3699  2.3022 -1.5403
  851MOL0     H17393   6.968   0.155  -0.268 -1.3729 -0.7728  0.3326
  851MOL0     H17394   6.801  -0.038  -0.438  0.6040 -1.6841  0.5534
  851MOL0     H17395   6.913  -0.082  -0.311 -2.5718 -0.6932  4.2461
  851MOL0     H17396   6.813  -0.221  -0.136  2.6599 -1.3852  0.2809
  851MOL0     H17397   6.995  -0.263   0.150  0.7398  2.0768  1.0550
  851MOL0     H17398   6.901  -0.347   0.021  1.4841  1.9338 -0.2344
  851MOL0     H17399   6.826  -0.328   0.174 -2.6332  0.3650 -3.4105
  851MOL0     H17400   6.970   0.264   0.445  1.4872  1.7246  0.5584
  851MOL0     H17401   7.063   0.309   0.663 -1.4424  0.6894 -2.1442
  851MOL0     H17402   7.175   0.257   0.897 -1.1652 -2.5984  1.8893
  851MOL0     H17403   7.029   0.373   0.882  1.0279  3.3054  2.6934
  851MOL0     H17404   6.977   0.361   1.109  0.2537  1.1178 -2.5546
  851MOL0     H17405   7.080   0.212   1.133  0.3802 -0.8576 -0.8074
  851MOL0     H17406   7.194   0.488   1.061  0.0368 -0.0112  0.0118
  851MOL0     H17407   7.281   0.337   1.099 -0.9024 -1.7841 -0.9627
  851MOL0     H17408   7.182   0.329   1.318 -1.7554  0.1035  0.9891
  851MOL0     H17409   7.106   0.475   1.309 -2.4904 -2.0895 -3.1366
  851MOL0     H17410   7.325   0.519   1.418 -3.0810 -1.0888  0.1179
  851MOL0     H17411   7.408   0.446   1.285 -0.6880 -2.4765  2.5719
  851MOL0     H17412   7.251   0.702   1.253 -0.1453  0.5524 -2.4650
  851MOL0     H17413   7.356   0.621   1.134  3.7571 -2.2616  0.6941
  851MOL0     H17414   7.511   0.772   1.217  2.1393  0.2235  2.2014
  851MOL0     H17415   7.534   0.644   1.327 -2.0057 -2.3439 -1.0636
  851MOL0     H17416   7.401   0.771   1.495  1.3166  1.3700  0.4408
  851MOL0     H17417   7.361   0.888   1.362  1.2048  0.7190 -1.4444
  851MOL0     H17418   6.846  -0.024   0.819 -0.9152  2.0640  1.5616
  851MOL0     H17419   6.773  -0.086   0.584 -0.6925 -0.5415  3.0151
  851MOL0     H17420   6.731   0.161   0.163 -0.5689  1.1767 -0.7668
  851MOL0     H17421   6.699   0.180  -0.077  2.2491 -0.0739 -0.9961
  851MOL0     H17422   6.770   1.787  -0.282 -0.1904  3.6858 -2.5266
  851MOL0     H17423   6.808   1.981  -0.147  0.9378 -1.3471  1.7385
  851MOL0     H17424   6.830   2.328   0.070  0.0359 -0.3866  0.1594
  851MOL0     H17425   6.779   2.572   0.125 -2.7909  1.1611 -0.1995
  851MOL0     H17426   6.399   2.646   0.201 -0.5300  1.2419  0.1854
  851MOL0     H17427   6.426   2.644   0.381  2.2026 -3.4568 -1.5943
  851MOL0     H17428   6.441   2.905   0.371 -3.2650  1.4719 -0.6945
  851MOL0     H17429   6.322   2.848   0.263  1.4579 -3.4688 -2.3117
  851MOL0     H17430   6.598   2.861   0.161 -1.1129 -1.2516  2.1783
  851MOL0     H17431   6.452   2.853   0.068 -2.1205 -2.2695  2.3261
  851MOL0     H17432   6.567   3.083   0.084  0.6100 -1.8604 -0.0232
  851MOL0     H17433   6.548   3.081   0.259  0.2189 -0.8048  0.5938
  851MOL0     H17434   6.181   3.234   0.121  1.1547  0.0747  0.8643
  851MOL0     H17435   6.467   2.436   0.376 -0.0902 -1.0172 -0.3202
  851MOL0     H17436   6.488   2.147   0.418 -3.1022  1.0436  2.2909
  851MOL0     H17437   6.358   2.237   0.361  0.2485 -2.1434  2.2784
  851MOL0     H17438   6.423   2.116   0.254  2.5280 -0.0738 -1.1122
  852MOL0     O17439   4.114   3.578   5.163 -0.4287  0.9050 -0.2327
  852MOL0     C17440   4.093   3.558   5.286  0.0165 -0.1884 -0.4675
  852MOL0     O17441   4.177   3.605   5.385 -0.6474  0.5820 -0.0381
  852MOL0     C17442   4.296   3.651   5.356 -0.0411 -0.2208 -0.1336
  852MOL0     C17443   4.336   3.781   5.381  0.1787  0.7719 -0.9783
  852MOL0     C17444   4.461   3.830   5.363 -0.0794  0.1670  0.2016
  852MOL0     C17445   4.552   3.745   5.295  0.4576 -0.9740  0.6376
  852MOL0     O17446   4.685   3.795   5.264 -0.1860  0.4014 -0.0037
  852MOL0     C17447   4.713   3.801   5.123  0.3109  0.0392 -0.0815
  852MOL0     C17448   4.632   3.922   5.068  0.7942  0.2729 -0.7437
  852MOL0     C17449   4.690   4.048   5.139  0.6080 -0.7322  0.3368
  852MOL0     C17450   4.617   4.184   5.108  0.7270  0.5683 -0.9455
  852MOL0     C17451   4.683   4.304   5.167 -0.0264 -0.1029  0.5551
  852MOL0     C17452   4.681   4.312   5.317  0.6455 -0.8675 -1.2417
  852MOL0     C17453   4.706   4.460   5.377 -0.6125  0.6001  0.1568
  852MOL0     C17454   4.577   4.550   5.356  0.8675  0.6107  0.7748
  852MOL0     N17455   4.604   4.687   5.349  0.7385 -1.7925  0.3486
  852MOL0     C17456   4.666   4.763   5.452  0.6168 -0.1224  0.1154
  852MOL0     C17457   4.739   4.865   5.391  0.3500  0.7152 -0.0441
  852MOL0     C17458   4.831   4.958   5.450  0.6137  0.1751 -0.6008
  852MOL0     C17459   4.982   4.930   5.424 -0.1485  0.9572 -0.0824
  852MOL0     C17460   5.064   5.032   5.497 -0.1046 -0.0283 -1.0310
  852MOL0     C17461   5.214   5.039   5.458 -0.1083 -0.3071 -0.1121
  852MOL0     O17462   5.266   4.906   5.428  0.6412 -0.5179 -0.5200
  852MOL0     C17463   5.396   4.898   5.403 -0.1651  0.4531 -0.3817
  852MOL0     C17464   5.471   5.011   5.374  1.4277 -0.1366  0.1342
  852MOL0     C17465   5.609   5.012   5.346 -0.8290 -0.7418  0.0706
  852MOL0     C17466   5.682   5.139   5.340 -0.4539  0.2399  0.8171
  852MOL0     C17467   5.671   4.881   5.345 -0.7575  0.1044  0.4316
  852MOL0     C17468   5.816   4.860   5.322 -0.8521 -1.1159  0.8113
  852MOL0     O17469   5.911   4.950   5.357 -0.1468 -0.0299 -0.2279
  852MOL0     C17470   6.037   4.934   5.298 -0.4187  0.7003 -0.4722
  852MOL0     C17471   6.073   5.007   5.190  0.2788 -0.2935  0.8186
  852MOL0     C17472   6.209   4.997   5.140 -0.3705  0.1347  0.3344
  852MOL0     C17473   6.305   4.908   5.199  0.8699 -0.0826 -1.2690
  852MOL0     O17474   6.432   4.888   5.151  0.6610  0.7077 -0.9657
  852MOL0     C17475   6.461   4.953   5.037  0.1747 -0.5600 -0.2367
  852MOL0     C17476   6.602   4.916   5.008 -0.1515 -0.3347  0.1256
  852MOL0     C17477   6.603   4.833   4.881  1.3378  0.1765  0.1728
  852MOL0     C17478   6.552   4.699   4.893 -0.8660 -0.1589 -0.6796
  852MOL0     C17479   6.579   4.608   4.768 -0.4110  0.1715 -0.3094
  852MOL0     C17480   6.725   4.567   4.771  1.5207 -0.2712  0.3317
  852MOL0     C17481   6.758   4.433   4.839 -0.4314 -0.0536  0.4092
  852MOL0     C17482   6.912   4.411   4.849  0.2485 -0.5441 -0.2304
  852MOL0    Cl17483   6.948   4.537   4.979 -0.1488 -0.2627 -0.7625
  852MOL0     C17484   6.262   4.830   5.309  0.1673 -0.5310  0.8198
  852MOL0     C17485   6.137   4.859   5.353  0.2300 -0.1051  0.3228
  852MOL0     O17486   5.848   4.754   5.270  0.2966  0.8618  0.2155
  852MOL0     C17487   5.592   4.767   5.355 -0.5343 -0.4136  0.6762
  852MOL0     C17488   5.464   4.779   5.389  0.8045  0.1975  0.0977
  852MOL0     N17489   4.716   4.850   5.255  0.5649  0.2924 -0.4526
  852MOL0     N17490   4.646   4.741   5.234 -0.3058 -0.5427 -1.0590
  852MOL0     C17491   4.510   3.612   5.272 -0.6363 -0.9028  1.2998
  852MOL0     C17492   4.388   3.562   5.307 -0.5751  0.1129 -0.1751
  852MOL0     C17493   3.983   3.474   5.324 -1.0575  1.1881 -0.2072
  852MOL0     C17494   3.929   3.502   5.455  0.1359 -0.2582 -0.7353
  852MOL0     C17495   3.831   3.420   5.513  1.0212 -0.2133 -0.8653
  852MOL0     C17496   3.792   3.311   5.438  0.4980 -1.1124 -0.2419
  852MOL0     O17497   3.704   3.240   5.516  0.6976 -0.5648 -1.0847
  852MOL0     C17498   3.584   3.193   5.436 -0.0892  0.1106 -0.3002
  852MOL0     C17499   3.453   3.169   5.518  0.3790  0.4847  0.8169
  852MOL0     C17500   3.424   3.294   5.599  0.4569  0.5607 -0.1358
  852MOL0     C17501   3.316   3.251   5.699  0.4903 -0.0609 -0.5074
  852MOL0     C17502   3.369   3.173   5.822  0.9757 -0.2246  1.0077
  852MOL0     C17503   3.417   3.115   5.920 -1.0065 -0.1389  0.8385
  852MOL0     C17504   3.839   3.293   5.309 -0.0040 -0.3836 -1.1770
  852MOL0     C17505   3.939   3.367   5.252 -0.6059 -0.7374 -0.0801
  852MOL0     C17506   3.982   3.326   5.119  0.4489 -0.7793  0.5126
  852MOL0     H17507   4.270   3.860   5.418  0.4876  0.8749 -0.6424
  852MOL0     H17508   4.494   3.932   5.383 -1.5021 -0.0385  4.4787
  852MOL0     H17509   4.689   3.706   5.075  1.6017 -0.4763  0.2512
  852MOL0     H17510   4.820   3.821   5.107  1.3495 -0.4808  4.8390
  852MOL0     H17511   4.637   3.923   4.958  1.3705  2.3940 -0.7239
  852MOL0     H17512   4.528   3.899   5.094  1.5545 -0.7992  1.5379
  852MOL0     H17513   4.690   4.039   5.248 -0.0353 -3.4429  0.1791
  852MOL0     H17514   4.793   4.051   5.102  0.1327 -0.8316 -1.0558
  852MOL0     H17515   4.617   4.205   5.000  1.1257 -3.3187 -1.8697
  852MOL0     H17516   4.512   4.187   5.137  0.3621 -0.2289 -2.0941
  852MOL0     H17517   4.638   4.391   5.118 -1.0999  0.2240  2.0797
  852MOL0     H17518   4.788   4.312   5.136  0.1091 -1.7364  0.5275
  852MOL0     H17519   4.580   4.281   5.344  0.5747  0.7989  0.6169
  852MOL0     H17520   4.753   4.244   5.364 -0.1949 -0.4849  0.6912
  852MOL0     H17521   4.793   4.512   5.335 -0.5496  1.2966  1.1202
  852MOL0     H17522   4.735   4.436   5.479  1.8499  0.2283 -0.5640
  852MOL0     H17523   4.540   4.515   5.259  1.8576  0.5239  0.4128
  852MOL0     H17524   4.495   4.526   5.424  0.7563  0.7232  0.6800
  852MOL0     H17525   4.668   4.740   5.558 -0.2927  0.0284  0.1720
  852MOL0     H17526   4.810   4.991   5.552  2.0036  2.9845 -1.1308
  852MOL0     H17527   4.804   5.052   5.399 -0.0418  1.5095  2.0204
  852MOL0     H17528   4.993   4.826   5.456 -1.1440  0.2052 -1.9954
  852MOL0     H17529   5.017   4.926   5.321  2.3275  3.2006  0.5608
  852MOL0     H17530   5.019   5.132   5.493 -0.6849  0.2355  4.4130
  852MOL0     H17531   5.061   5.002   5.603  0.1082  0.5900 -0.8452
  852MOL0     H17532   5.234   5.101   5.370  5.9347 -0.3171  0.8444
  852MOL0     H17533   5.270   5.097   5.531 -1.4451  2.0514 -0.8457
  852MOL0     H17534   5.427   5.110   5.369 -1.6314 -1.3023  1.6131
  852MOL0     H17535   5.720   5.147   5.442  0.4982 -4.4107  1.0181
  852MOL0     H17536   5.615   5.225   5.328 -1.8320 -0.7040  1.5478
  852MOL0     H17537   5.763   5.141   5.266 -1.2950  5.0502 -0.3467
  852MOL0     H17538   5.998   5.069   5.142 -2.5384 -3.0837  1.2602
  852MOL0     H17539   6.241   5.051   5.051 -1.6081 -1.3747 -1.0862
  852MOL0     H17540   6.395   4.926   4.954 -0.9143 -0.2261  0.5052
  852MOL0     H17541   6.450   5.059   5.062 -3.1130 -0.9610  0.4628
  852MOL0     H17542   6.661   5.008   5.003 -0.2775 -0.3199 -2.3789
  852MOL0     H17543   6.648   4.857   5.088  0.9199  0.0201 -0.2035
  852MOL0     H17544   6.705   4.842   4.843  1.5963  3.3722  1.3203
  852MOL0     H17545   6.548   4.891   4.807  2.5388 -0.5109 -1.3221
  852MOL0     H17546   6.444   4.698   4.912 -0.3297 -2.0018  3.2423
  852MOL0     H17547   6.576   4.652   4.989 -3.5758  0.5609  0.4487
  852MOL0     H17548   6.513   4.521   4.762 -0.4155  0.2294 -1.1404
  852MOL0     H17549   6.548   4.676   4.688 -2.0383  2.5794  2.1894
  852MOL0     H17550   6.784   4.652   4.807 -1.6540  3.1228 -1.7911
  852MOL0     H17551   6.760   4.558   4.668 -3.0351 -1.4160 -1.3221
  852MOL0     H17552   6.727   4.353   4.771  1.5469 -0.4300 -0.1234
  852MOL0     H17553   6.719   4.423   4.941 -1.0861  2.8621  0.5233
  852MOL0     H17554   6.963   4.431   4.754 -0.3678 -0.5191 -0.5627
  852MOL0     H17555   6.927   4.307   4.878  0.7989 -0.4718 -0.2535
  852MOL0     H17556   6.330   4.776   5.373 -1.1215 -2.9412  0.2496
  852MOL0     H17557   6.121   4.810   5.449 -0.7795  1.2055  0.8496
  852MOL0     H17558   5.645   4.672   5.352 -0.5694 -0.4214  0.2674
  852MOL0     H17559   5.404   4.689   5.399 -4.1351  2.7763 -2.5668
  852MOL0     H17560   4.576   3.538   5.228  0.4386  0.8406 -0.1241
  852MOL0     H17561   4.349   3.466   5.273  0.0081 -0.8502  1.7152
  852MOL0     H17562   3.972   3.572   5.525 -0.0870 -2.2632  1.5489
  852MOL0     H17563   3.800   3.443   5.614  0.4046  2.6946 -1.6161
  852MOL0     H17564   3.567   3.276   5.366  0.9864  0.9776  0.4369
  852MOL0     H17565   3.610   3.099   5.386  0.7531 -1.2283  2.4687
  852MOL0     H17566   3.465   3.074   5.571  2.1291 -0.1493 -0.6019
  852MOL0     H17567   3.371   3.155   5.448 -1.0359  3.8134  1.6375
  852MOL0     H17568   3.516   3.332   5.645 -0.1506 -1.2755  2.8608
  852MOL0     H17569   3.378   3.371   5.536  1.2521  0.6865 -0.5727
  852MOL0     H17570   3.230   3.203   5.652 -0.2768 -0.5185  1.2827
  852MOL0     H17571   3.278   3.347   5.735  0.0357 -1.1425  2.1647
  852MOL0     H17572   3.449   3.066   6.010 -0.0676 -0.4619  0.3455
  852MOL0     H17573   3.797   3.206   5.261 -0.4899 -0.9526  0.2246
  852MOL0     H17574   3.927   3.357   5.029  0.4499  0.2737  0.8658
  852MOL0     H17575   4.087   3.353   5.108  0.2062 -0.0242 -0.0360
  852MOL0     H17576   3.988   3.218   5.102  0.8035 -0.4800 -1.6472
  853MOL0     O17577   6.141  10.274   6.622  0.3885 -0.2164 -0.3925
  853MOL0     C17578   6.227  10.302   6.711  0.9287  0.8310 -0.1461
  853MOL0     O17579   6.310  10.212   6.772  0.6878  0.2728 -0.2728
  853MOL0     C17580   6.296  10.085   6.717  0.4236 -0.8832 -0.1470
  853MOL0     C17581   6.335  10.058   6.579  0.1900  0.1448 -0.5321
  853MOL0     C17582   6.317   9.930   6.529  0.6861  1.1668 -0.1502
  853MOL0     C17583   6.277   9.816   6.613 -0.2919  0.8806  0.5591
  853MOL0     O17584   6.258   9.685   6.583  0.1106 -0.9532  0.2602
  853MOL0     C17585   6.282   9.648   6.442  0.1052  0.1527 -0.3583
  853MOL0     C17586   6.235   9.511   6.396 -0.1002 -0.8959  0.1554
  853MOL0     C17587   6.109   9.459   6.468  0.5126  1.0585 -0.7125
  853MOL0     C17588   6.062   9.345   6.388 -0.1178  0.1517 -0.0548
  853MOL0     C17589   5.952   9.391   6.292  0.4972 -0.7069 -0.2540
  853MOL0     C17590   5.982   9.489   6.180  0.1391 -0.4613 -1.4356
  853MOL0     C17591   5.870   9.510   6.087 -0.1929 -0.6373  0.1588
  853MOL0     C17592   5.850   9.383   6.001 -0.1878  0.4993  0.6731
  853MOL0     N17593   5.741   9.412   5.900 -0.6526 -0.2698 -0.2262
  853MOL0     C17594   5.604   9.413   5.916  0.0466  0.0212 -0.7877
  853MOL0     C17595   5.549   9.406   5.794 -0.2210 -0.4717 -0.2871
  853MOL0     C17596   5.404   9.404   5.752  1.0629  0.2454  0.4880
  853MOL0     C17597   5.323   9.516   5.827 -0.7169 -0.2812  0.6314
  853MOL0     C17598   5.176   9.533   5.778  1.1559  0.1977 -0.2478
  853MOL0     C17599   5.089   9.589   5.883 -0.8777  0.4512 -0.2234
  853MOL0     O17600   5.139   9.723   5.888  0.1275  0.5218 -0.3749
  853MOL0     C17601   5.087   9.788   5.991 -0.4974 -0.7850 -0.2332
  853MOL0     C17602   4.973   9.754   6.073  0.4840  0.1228 -0.4040
  853MOL0     C17603   4.931   9.836   6.183 -0.0376  0.2775 -0.3449
  853MOL0     C17604   4.809   9.777   6.268 -0.8075 -0.9426  1.0853
  853MOL0     C17605   5.006   9.950   6.220 -0.9297  0.1809  0.4190
  853MOL0     C17606   4.998  10.027   6.348  0.3692  0.8137  0.5133
  853MOL0     O17607   5.084  10.127   6.383  1.1313 -0.1941 -0.0234
  853MOL0     C17608   5.080  10.153   6.521 -0.4709 -2.4158  0.2145
  853MOL0     C17609   5.141  10.067   6.621 -0.3893  0.5124 -0.0037
  853MOL0     C17610   5.119  10.091   6.759  0.1168 -0.0456  0.3508
  853MOL0     C17611   5.045  10.199   6.813 -0.1580  0.0227 -0.0613
  853MOL0     O17612   5.019  10.193   6.946  0.0775 -0.3441 -0.4137
  853MOL0     C17613   4.982  10.311   7.011 -0.9786  0.0292  0.3580
  853MOL0     C17614   4.950  10.309   7.157  0.6095  0.3710 -0.0716
  853MOL0     C17615   5.050  10.235   7.242  0.6375 -0.6490 -0.2345
  853MOL0     C17616   5.009  10.241   7.397 -0.1723 -1.1945  0.1072
  853MOL0     C17617   5.097  10.148   7.481 -0.2626  0.3338  1.1327
  853MOL0     C17618   5.024  10.103   7.605 -0.3829 -0.8799 -0.4375
  853MOL0     C17619   5.121  10.003   7.687 -0.3536 -0.1579  1.1785
  853MOL0     C17620   5.073  10.006   7.835  0.6265  0.2498  0.5266
  853MOL0    Cl17621   4.889   9.987   7.874 -0.5200 -0.2591  0.3191
  853MOL0     C17622   4.986  10.286   6.715 -0.2886  1.1773 -0.6267
  853MOL0     C17623   5.000  10.257   6.572 -0.6948 -0.0956 -0.7426
  853MOL0     O17624   4.899   9.996   6.407  0.0070  0.3037 -0.7564
  853MOL0     C17625   5.120   9.977   6.148  0.1876 -0.7120  0.0372
  853MOL0     C17626   5.152   9.906   6.032  1.0389  0.6012  0.0593
  853MOL0     N17627   5.651   9.416   5.693 -0.4805  0.1214 -0.4579
  853MOL0     N17628   5.769   9.408   5.763  0.1736  0.0913 -0.5389
  853MOL0     C17629   6.253   9.847   6.749  0.6118  0.1422  1.1035
  853MOL0     C17630   6.266   9.979   6.806  0.7040 -0.6574  0.2964
  853MOL0     C17631   6.242  10.445   6.755  0.2717 -0.0373  0.1956
  853MOL0     C17632   6.299  10.465   6.890  0.8386 -0.1317 -0.2853
  853MOL0     C17633   6.293  10.594   6.941 -0.0041 -0.7706  0.1336
  853MOL0     C17634   6.240  10.706   6.868  0.0708 -0.4153 -0.0685
  853MOL0     O17635   6.259  10.820   6.935  0.4084 -0.4608 -0.2192
  853MOL0     C17636   6.241  10.958   6.879 -0.0452  0.6136  0.2366
  853MOL0     C17637   6.216  11.067   6.992  0.0253 -0.7364  1.3968
  853MOL0     C17638   6.177  11.192   6.928 -0.4125  0.2201  0.3695
  853MOL0     C17639   6.123  11.297   7.021  0.0240  0.4091 -0.2019
  853MOL0     C17640   6.101  11.428   6.958  0.4922  0.3502  0.3800
  853MOL0     C17641   6.074  11.538   6.913 -0.1267  0.1054  0.2140
  853MOL0     C17642   6.195  10.689   6.740  0.0633 -0.3859 -0.6490
  853MOL0     C17643   6.195  10.562   6.687 -0.4924 -0.2970  0.1003
  853MOL0     C17644   6.103  10.553   6.564 -0.0200 -0.4301 -0.5767
  853MOL0     H17645   6.386  10.140   6.530  4.4120 -2.5013 -1.0508
  853MOL0     H17646   6.334   9.919   6.422 -2.5705  0.3816 -0.7020
  853MOL0     H17647   6.391   9.658   6.431  0.5878 -2.4581  1.1110
  853MOL0     H17648   6.234   9.719   6.375  0.1585 -0.5485 -1.1460
  853MOL0     H17649   6.221   9.512   6.288  1.7592 -2.7071 -0.1605
  853MOL0     H17650   6.302   9.433   6.434  1.8429  1.1985  1.3208
  853MOL0     H17651   6.129   9.424   6.570 -0.3006  2.6745  0.0401
  853MOL0     H17652   6.030   9.533   6.468 -1.7138 -1.1768  0.3423
  853MOL0     H17653   6.142   9.300   6.329  0.5618  0.7612  0.3866
  853MOL0     H17654   6.022   9.265   6.451 -0.2879 -2.0406 -2.7441
  853MOL0     H17655   5.865   9.436   6.340  2.1456  1.6304  0.7887
  853MOL0     H17656   5.923   9.297   6.244  1.8752 -1.8893  1.1000
  853MOL0     H17657   5.997   9.585   6.230 -2.3762 -0.3426 -0.7778
  853MOL0     H17658   6.068   9.462   6.117  0.8741  2.8562 -2.0450
  853MOL0     H17659   5.887   9.601   6.028  1.9861  0.2495  1.9999
  853MOL0     H17660   5.781   9.530   6.147  0.9739  0.6705  1.5540
  853MOL0     H17661   5.934   9.360   5.935 -1.6544 -2.9168 -0.2395
  853MOL0     H17662   5.829   9.298   6.066 -1.6759  1.2375  1.2044
  853MOL0     H17663   5.561   9.417   6.015  0.0051 -0.8056 -0.7687
  853MOL0     H17664   5.350   9.310   5.768  0.2029  0.8147  0.9952
  853MOL0     H17665   5.401   9.414   5.643  0.3211 -1.2180  0.3445
  853MOL0     H17666   5.339   9.497   5.934 -1.7489 -0.1964  0.8091
  853MOL0     H17667   5.382   9.607   5.813 -1.2398  0.4142  2.5361
  853MOL0     H17668   5.168   9.600   5.692  0.5844  3.7168  2.3251
  853MOL0     H17669   5.139   9.435   5.747 -0.2548 -0.2263  2.4082
  853MOL0     H17670   4.982   9.589   5.861 -0.8287 -0.7697 -0.5601
  853MOL0     H17671   5.100   9.528   5.973 -2.2175 -1.4898 -1.2834
  853MOL0     H17672   4.913   9.665   6.054 -1.2258  1.2498 -0.5577
  853MOL0     H17673   4.741   9.862   6.277  0.0898  0.2063 -1.7571
  853MOL0     H17674   4.849   9.748   6.366  0.2812  0.3549  1.0568
  853MOL0     H17675   4.765   9.694   6.212  4.2801 -1.0815 -3.5024
  853MOL0     H17676   5.204   9.981   6.600  1.8813  2.3038 -0.8810
  853MOL0     H17677   5.152  10.027   6.839  1.6193  1.2551  0.8281
  853MOL0     H17678   5.067  10.379   7.000  0.4331 -0.8338  4.3625
  853MOL0     H17679   4.898  10.359   6.959 -0.3469 -1.7125 -2.5077
  853MOL0     H17680   4.936  10.417   7.169 -0.9020  0.5141 -2.4824
  853MOL0     H17681   4.850  10.265   7.163 -0.8687  3.3812 -0.6944
  853MOL0     H17682   5.147  10.281   7.222 -1.2513  3.8895 -0.2032
  853MOL0     H17683   5.064  10.132   7.209  2.8020 -0.5040  0.0853
  853MOL0     H17684   4.904  10.215   7.415 -0.0250  0.6256  5.2034
  853MOL0     H17685   5.032  10.338   7.440  1.7440 -1.3514 -0.4772
  853MOL0     H17686   5.130  10.065   7.419  1.0914  1.6426  0.0225
  853MOL0     H17687   5.182  10.208   7.516 -0.9901  1.1222  1.5858
  853MOL0     H17688   4.932  10.050   7.578 -1.3798 -1.0559  2.8406
  853MOL0     H17689   4.989  10.191   7.660  2.7014  3.3502 -4.4909
  853MOL0     H17690   5.221  10.043   7.704 -2.5090  5.6066  2.8249
  853MOL0     H17691   5.121   9.901   7.648 -1.0259  0.0838  0.5130
  853MOL0     H17692   5.112  10.098   7.880  2.3295  0.2215 -0.8030
  853MOL0     H17693   5.119   9.917   7.879  0.2393 -1.1481 -1.7259
  853MOL0     H17694   4.905  10.355   6.739 -3.4336 -1.4872 -2.7219
  853MOL0     H17695   4.938  10.307   6.498  1.9510  0.2130 -2.9070
  853MOL0     H17696   5.195  10.042   6.191  1.5317 -0.3273 -2.7084
  853MOL0     H17697   5.246   9.943   5.991  2.2938 -0.4487  1.8229
  853MOL0     H17698   6.216   9.767   6.812 -1.4049 -1.2410 -1.5977
  853MOL0     H17699   6.233   9.980   6.909 -0.8456 -1.2407 -0.1623
  853MOL0     H17700   6.343  10.383   6.945 -1.2655  0.7821  3.0741
  853MOL0     H17701   6.338  10.610   7.038 -0.2510  5.1720 -0.3848
  853MOL0     H17702   6.327  11.001   6.828  0.0423  1.6687  1.2202
  853MOL0     H17703   6.158  10.956   6.807 -0.1000  1.5390  0.2602
  853MOL0     H17704   6.309  11.079   7.048 -0.1554 -2.4651  2.1490
  853MOL0     H17705   6.138  11.034   7.061 -1.2205  0.9557  0.8591
  853MOL0     H17706   6.282  11.219   6.909  0.2219  0.4525  3.6242
  853MOL0     H17707   6.116  11.170   6.840 -0.2293  1.7162 -0.1651
  853MOL0     H17708   6.195  11.309   7.102  0.9901  2.3136 -1.2811
  853MOL0     H17709   6.027  11.264   7.063 -1.4036  1.1336 -2.6507
  853MOL0     H17710   6.049  11.637   6.881 -1.0343 -1.4391 -4.5613
  853MOL0     H17711   6.166  10.776   6.682 -0.3399  0.1007  0.2737
  853MOL0     H17712   6.019  10.485   6.574 -0.8298  0.3339 -1.8941
  853MOL0     H17713   6.078  10.654   6.531  3.3674  0.4195 -0.9282
  853MOL0     H17714   6.162  10.513   6.480  1.2270 -0.3768  0.2510
  854MOL0     O17715   5.359   1.756   3.179 -0.5541 -0.0419  0.2487
  854MOL0     C17716   5.422   1.862   3.193 -0.2840 -0.3678 -0.4029
  854MOL0     O17717   5.394   1.979   3.126 -0.0785  0.2409 -0.4064
  854MOL0     C17718   5.308   1.963   3.014  0.5963 -1.1135 -0.5903
  854MOL0     C17719   5.197   2.053   3.011  0.1973  0.0991  0.3899
  854MOL0     C17720   5.107   2.040   2.904 -0.4288  0.5762 -0.1997
  854MOL0     C17721   5.134   1.949   2.793  0.6837 -0.4156 -1.8539
  854MOL0     O17722   5.051   1.947   2.693  0.2671  0.0258  0.4860
  854MOL0     C17723   5.100   1.989   2.571 -1.3294 -0.8802 -0.3147
  854MOL0     C17724   4.979   2.012   2.483 -0.8655 -0.8597  0.1893
  854MOL0     C17725   5.015   2.050   2.343 -0.1212  0.5072 -0.3336
  854MOL0     C17726   4.885   2.074   2.259  0.9866  0.7895  0.1892
  854MOL0     C17727   4.909   2.121   2.116 -0.0875  0.0070 -0.1571
  854MOL0     C17728   4.948   2.274   2.104 -0.5673  0.7734  0.2611
  854MOL0     C17729   4.965   2.323   1.964 -0.2684 -1.0208  0.4550
  854MOL0     C17730   4.833   2.384   1.897  0.8264  0.3784  0.9903
  854MOL0     N17731   4.746   2.272   1.844  0.0143  0.2154 -0.7026
  854MOL0     C17732   4.766   2.220   1.726  0.6920  0.4039  0.2390
  854MOL0     C17733   4.684   2.119   1.730  0.0670  0.6060  0.4574
  854MOL0     C17734   4.655   2.024   1.619 -0.7228 -0.3188  0.1853
  854MOL0     C17735   4.569   1.894   1.648 -0.1585 -0.5740 -1.1659
  854MOL0     C17736   4.524   1.823   1.530  0.0210  0.6763  0.2569
  854MOL0     C17737   4.528   1.674   1.564 -0.6882  0.6022 -0.0074
  854MOL0     O17738   4.429   1.606   1.495 -0.9315 -0.0321  0.0163
  854MOL0     C17739   4.465   1.538   1.390  0.1918 -0.0334  0.3821
  854MOL0     C17740   4.383   1.424   1.356 -0.3035  0.3282 -0.0074
  854MOL0     C17741   4.411   1.347   1.232 -0.4508  0.3594 -0.1060
  854MOL0     C17742   4.320   1.229   1.205  0.1462  0.4931  0.3137
  854MOL0     C17743   4.520   1.387   1.148  0.1747 -0.3152 -0.2203
  854MOL0     C17744   4.551   1.316   1.015 -1.1768  1.2150 -0.4555
  854MOL0     O17745   4.533   1.184   1.009  0.1016 -0.2318  0.8172
  854MOL0     C17746   4.552   1.136   0.878 -0.3480  0.0319 -1.7043
  854MOL0     C17747   4.680   1.127   0.823 -1.0525 -0.6286 -1.4976
  854MOL0     C17748   4.698   1.082   0.693 -0.0713 -0.9822 -0.5948
  854MOL0     C17749   4.596   1.033   0.611 -0.4305  0.1750  0.5639
  854MOL0     O17750   4.632   0.992   0.484  0.1474  0.2502  0.6238
  854MOL0     C17751   4.532   0.957   0.382  0.1376 -0.0720 -0.4734
  854MOL0     C17752   4.503   0.807   0.408 -0.5519 -0.0996  1.1645
  854MOL0     C17753   4.412   0.753   0.305 -0.2849 -0.4491  0.4742
  854MOL0     C17754   4.401   0.599   0.281 -0.0262 -0.7027 -0.1541
  854MOL0     C17755   4.491   0.559   0.173 -0.4772  0.8629  0.4687
  854MOL0     C17756   4.429   0.432   0.110 -0.8777  0.3245  0.1109
  854MOL0     C17757   4.531   0.340   0.022  0.4343  0.2990 -0.9643
  854MOL0     C17758   4.614   0.412  -0.087  0.0541  0.1056  0.9325
  854MOL0    Cl17759   4.497   0.518  -0.188 -0.3376  0.6197 -0.0549
  854MOL0     C17760   4.462   1.038   0.670 -0.7680 -0.0563 -0.6888
  854MOL0     C17761   4.448   1.088   0.808  0.4278  0.0921  0.0884
  854MOL0     O17762   4.584   1.391   0.917 -0.8543 -0.1832  0.5038
  854MOL0     C17763   4.584   1.507   1.177  1.1515 -0.3429 -0.2828
  854MOL0     C17764   4.557   1.578   1.294 -0.4981  0.5194  0.2686
  854MOL0     N17765   4.613   2.115   1.847 -0.6390  0.3597 -0.4244
  854MOL0     N17766   4.646   2.216   1.920  0.4951  0.8526  0.0320
  854MOL0     C17767   5.243   1.870   2.797  0.2978 -1.0025  0.3570
  854MOL0     C17768   5.333   1.874   2.904  0.6790 -0.5990 -1.2682
  854MOL0     C17769   5.533   1.865   3.293  1.0011 -0.4525  0.1029
  854MOL0     C17770   5.629   1.766   3.286 -1.2108 -0.6218 -0.6056
  854MOL0     C17771   5.728   1.770   3.386 -0.3713 -0.1713  0.3228
  854MOL0     C17772   5.735   1.860   3.486  0.4076  0.1612 -1.3861
  854MOL0     O17773   5.848   1.846   3.570  0.6763 -0.5250 -0.1543
  854MOL0     C17774   5.870   1.936   3.676  0.3201 -0.1632  0.1429
  854MOL0     C17775   5.955   2.054   3.650  0.7164 -0.2232  0.7406
  854MOL0     C17776   6.084   2.028   3.576 -0.7134 -0.6445  0.5318
  854MOL0     C17777   6.176   1.936   3.656  0.4298  0.3161 -0.7341
  854MOL0     C17778   6.310   1.932   3.598 -0.0173 -0.0860 -1.0958
  854MOL0     C17779   6.410   1.907   3.547  0.2564  0.0083  0.7383
  854MOL0     C17780   5.644   1.968   3.487 -0.2110 -0.8191  0.7332
  854MOL0     C17781   5.539   1.973   3.389  0.0412  0.6461  0.6681
  854MOL0     C17782   5.445   2.095   3.394 -0.8047  0.6445  0.6858
  854MOL0     H17783   5.180   2.135   3.081  3.4994  3.2322 -2.1021
  854MOL0     H17784   5.040   2.122   2.880 -0.3895  1.1377  1.4610
  854MOL0     H17785   5.157   1.912   2.519 -0.5455  0.8111 -2.0836
  854MOL0     H17786   5.162   2.077   2.590 -0.5102 -1.1478 -1.6278
  854MOL0     H17787   4.922   1.919   2.467 -1.8624  0.1567 -2.9492
  854MOL0     H17788   4.917   2.093   2.522 -0.0893  0.5472 -1.3644
  854MOL0     H17789   5.066   2.147   2.348 -1.1034  0.9986  0.6250
  854MOL0     H17790   5.075   1.978   2.288  1.0508  0.8287  0.4703
  854MOL0     H17791   4.833   1.977   2.262 -0.2343  1.3669 -1.1597
  854MOL0     H17792   4.813   2.139   2.310  0.0816 -0.8380  1.1009
  854MOL0     H17793   4.814   2.102   2.065  1.5183 -2.3294 -2.5003
  854MOL0     H17794   4.990   2.062   2.072  0.8093  1.1804 -0.1265
  854MOL0     H17795   4.879   2.344   2.151 -0.6775  1.9607 -1.5691
  854MOL0     H17796   5.049   2.291   2.142  0.1849  3.5289 -2.5613
  854MOL0     H17797   4.989   2.247   1.890  1.6853  0.3350 -0.3882
  854MOL0     H17798   5.040   2.402   1.972  1.0667 -2.2158  0.1180
  854MOL0     H17799   4.777   2.443   1.971 -0.5806 -1.3660  1.3833
  854MOL0     H17800   4.860   2.455   1.819 -3.4462  2.1170  0.8086
  854MOL0     H17801   4.832   2.254   1.647  0.2890  3.5142  1.1120
  854MOL0     H17802   4.746   2.008   1.561 -1.6502  2.6143 -2.3948
  854MOL0     H17803   4.588   2.077   1.550 -1.7006 -1.0805  0.5346
  854MOL0     H17804   4.629   1.833   1.716 -0.9803 -1.0538 -0.8562
  854MOL0     H17805   4.483   1.925   1.708 -0.9842 -1.8206 -1.6710
  854MOL0     H17806   4.422   1.856   1.510 -0.9483 -0.8569  2.3391
  854MOL0     H17807   4.596   1.833   1.448  0.8271 -0.0286  0.8549
  854MOL0     H17808   4.631   1.642   1.549  0.4365  2.5100  2.7565
  854MOL0     H17809   4.512   1.650   1.669 -1.1147 -0.0995 -0.2265
  854MOL0     H17810   4.310   1.377   1.423  0.0365  1.7891  1.4486
  854MOL0     H17811   4.303   1.218   1.097 -1.5655  1.8635  0.3893
  854MOL0     H17812   4.217   1.253   1.234 -0.0156 -0.1529  0.3041
  854MOL0     H17813   4.358   1.137   1.249 -0.1662  0.9867  1.6560
  854MOL0     H17814   4.765   1.163   0.881 -0.0547 -0.5719 -2.9379
  854MOL0     H17815   4.796   1.091   0.646 -0.8604 -0.2203 -2.1459
  854MOL0     H17816   4.439   1.013   0.392 -0.3187 -1.0556  1.1342
  854MOL0     H17817   4.564   0.976   0.279  0.1858  2.5658 -0.0407
  854MOL0     H17818   4.598   0.755   0.396 -0.3223 -0.1608  3.0523
  854MOL0     H17819   4.470   0.780   0.508 -0.7278  2.7745  1.9827
  854MOL0     H17820   4.440   0.805   0.213  0.6185  1.8501  1.9410
  854MOL0     H17821   4.311   0.793   0.319  0.7358  2.8619 -0.7469
  854MOL0     H17822   4.297   0.574   0.258 -0.3292  0.3338  0.0339
  854MOL0     H17823   4.422   0.549   0.376 -0.5656 -1.1406 -0.2635
  854MOL0     H17824   4.495   0.621   0.082  0.8663 -2.0655 -1.6353
  854MOL0     H17825   4.595   0.557   0.209  0.7761 -3.0420 -2.6867
  854MOL0     H17826   4.348   0.456   0.040 -2.2026  0.0435  1.4748
  854MOL0     H17827   4.394   0.363   0.189  0.7096 -0.1330  0.4490
  854MOL0     H17828   4.462   0.272  -0.027  0.1423  0.2525 -0.4981
  854MOL0     H17829   4.594   0.275   0.084 -2.8710 -2.7440 -0.4743
  854MOL0     H17830   4.670   0.340  -0.147  1.3094  2.8965 -1.4932
  854MOL0     H17831   4.688   0.478  -0.041  3.0652 -2.2987 -0.1870
  854MOL0     H17832   4.370   1.012   0.620 -1.6220  0.7207  0.4337
  854MOL0     H17833   4.358   1.067   0.865  0.4614 -1.1340 -0.2940
  854MOL0     H17834   4.659   1.546   1.109 -0.5883 -0.0632 -2.1192
  854MOL0     H17835   4.624   1.662   1.314  1.2445 -1.2045  2.2999
  854MOL0     H17836   5.247   1.799   2.715  0.0400  3.4515 -4.0675
  854MOL0     H17837   5.412   1.800   2.917  1.1573  0.0523 -0.3366
  854MOL0     H17838   5.629   1.707   3.194 -1.3463 -1.4292 -0.0936
  854MOL0     H17839   5.808   1.698   3.378 -2.2657 -2.2267 -2.1420
  854MOL0     H17840   5.782   1.977   3.725  0.9662  0.6586  0.6494
  854MOL0     H17841   5.916   1.882   3.759  0.6780 -1.8794 -1.1016
  854MOL0     H17842   5.967   2.106   3.746 -0.8297 -0.9018  1.3283
  854MOL0     H17843   5.899   2.109   3.573  0.9956 -1.4200 -0.3582
  854MOL0     H17844   6.049   1.980   3.484 -2.9131  1.3274  0.2495
  854MOL0     H17845   6.131   2.123   3.551 -1.5170  0.3949  2.6926
  854MOL0     H17846   6.130   1.838   3.637 -0.3572 -0.0115  2.4035
  854MOL0     H17847   6.190   1.969   3.759  2.8507  2.8149 -1.7350
  854MOL0     H17848   6.508   1.888   3.509  0.1504  1.4625 -0.3087
  854MOL0     H17849   5.656   2.048   3.558  1.7244 -2.3234  2.2140
  854MOL0     H17850   5.468   2.172   3.319 -0.7836 -0.5379 -0.5633
  854MOL0     H17851   5.344   2.058   3.379  0.1711 -1.9085 -0.1591
  854MOL0     H17852   5.445   2.136   3.495  1.8479  1.1482  0.5653
  855MOL0     O17853   7.946   8.095   3.585 -0.6581 -1.0041  0.2809
  855MOL0     C17854   7.965   8.007   3.504 -0.2793 -0.0258  0.2407
  855MOL0     O17855   7.881   7.894   3.516  0.1853  0.4524 -0.2738
  855MOL0     C17856   7.746   7.898   3.548 -0.3020 -0.4042  0.7007
  855MOL0     C17857   7.716   7.787   3.623 -0.5651 -0.1266  0.6983
  855MOL0     C17858   7.583   7.760   3.663  0.0282  0.0031 -0.4294
  855MOL0     C17859   7.481   7.854   3.632 -0.8309  1.0754 -0.1212
  855MOL0     O17860   7.359   7.812   3.682  0.1209 -0.4160  0.1948
  855MOL0     C17861   7.321   7.688   3.636 -0.1396  0.4083  0.4407
  855MOL0     C17862   7.173   7.670   3.640 -0.9292 -1.1989 -0.9278
  855MOL0     C17863   7.100   7.792   3.567 -0.3766 -0.2803  0.3815
  855MOL0     C17864   7.122   7.784   3.422  0.3717  0.9082  0.4716
  855MOL0     C17865   7.042   7.894   3.353 -1.0041 -0.4000 -0.2795
  855MOL0     C17866   7.093   7.926   3.221 -0.1620  0.6190 -0.5112
  855MOL0     C17867   7.015   8.025   3.144 -0.3485 -0.0706  0.1016
  855MOL0     C17868   6.902   7.961   3.057 -0.4317 -0.6828 -0.3774
  855MOL0     N17869   6.824   8.046   2.974 -0.4161 -0.1333  0.1988
  855MOL0     C17870   6.689   8.071   2.995  0.0781 -0.8969 -0.0922
  855MOL0     C17871   6.661   8.175   2.919  0.0520 -0.0412  0.1954
  855MOL0     C17872   6.525   8.219   2.887 -0.0754 -0.3402  0.0178
  855MOL0     C17873   6.540   8.381   2.865  0.1094  0.3960 -0.3356
  855MOL0     C17874   6.577   8.464   2.989 -0.2950  0.0529 -0.8418
  855MOL0     C17875   6.449   8.468   3.079 -0.7825  0.2336 -0.8068
  855MOL0     O17876   6.479   8.529   3.204  0.4048 -0.0722  0.2320
  855MOL0     C17877   6.538   8.458   3.306  0.2094 -0.4688  0.3568
  855MOL0     C17878   6.595   8.335   3.292 -0.1437  0.5256  1.1056
  855MOL0     C17879   6.643   8.262   3.408 -0.4843 -0.1088  0.7379
  855MOL0     C17880   6.718   8.139   3.388 -0.5051  1.6026 -0.5697
  855MOL0     C17881   6.623   8.311   3.543  0.6497 -0.7848  0.3554
  855MOL0     C17882   6.673   8.242   3.657 -0.6807 -0.2457  1.0852
  855MOL0     O17883   6.808   8.224   3.652  0.1605 -0.0355  0.0780
  855MOL0     C17884   6.883   8.194   3.764  0.0213 -0.8102  0.5083
  855MOL0     C17885   7.005   8.126   3.748 -0.3639  0.1462  0.9773
  855MOL0     C17886   7.097   8.111   3.849  0.3412  0.3939 -0.5006
  855MOL0     C17887   7.067   8.165   3.976  0.7688  0.9082 -0.5168
  855MOL0     O17888   7.160   8.135   4.074  0.6922 -0.9776 -0.6416
  855MOL0     C17889   7.193   8.237   4.173  0.0833 -0.2497  1.1661
  855MOL0     C17890   7.319   8.191   4.248  0.3172 -0.1054 -1.0182
  855MOL0     C17891   7.349   8.283   4.363 -0.8637  0.2831 -0.1106
  855MOL0     C17892   7.483   8.225   4.422  0.4039 -0.1308  0.5870
  855MOL0     C17893   7.527   8.304   4.547 -0.2337  0.5659  0.1600
  855MOL0     C17894   7.673   8.262   4.589 -0.4696  0.1714  0.2201
  855MOL0     C17895   7.741   8.350   4.686  0.0896  0.3795 -0.0885
  855MOL0     C17896   7.688   8.343   4.829 -0.5520 -1.1160 -0.3945
  855MOL0    Cl17897   7.724   8.479   4.931  0.3804 -0.3962  0.0158
  855MOL0     C17898   6.959   8.230   3.996  0.1596 -0.0971  0.0167
  855MOL0     C17899   6.863   8.249   3.893 -0.0572  0.3755 -0.1635
  855MOL0     O17900   6.601   8.210   3.752 -0.1107 -0.2414 -0.7334
  855MOL0     C17901   6.563   8.439   3.547 -0.3808 -0.2149  0.4713
  855MOL0     C17902   6.519   8.517   3.435  0.9067  0.7649 -0.5059
  855MOL0     N17903   6.782   8.225   2.876  0.5023 -0.2441  0.6790
  855MOL0     N17904   6.874   8.146   2.908 -0.5287 -0.5421  1.0122
  855MOL0     C17905   7.509   7.966   3.552 -0.3605 -0.7165 -0.0283
  855MOL0     C17906   7.644   7.994   3.515  0.7498 -0.1935  0.5444
  855MOL0     C17907   8.084   8.018   3.425 -0.2272  0.8197 -0.4185
  855MOL0     C17908   8.151   7.897   3.402  0.6623  1.2367  0.6092
  855MOL0     C17909   8.272   7.892   3.317  0.2478  0.5450 -0.9747
  855MOL0     C17910   8.312   8.005   3.245 -0.3230  1.0837  0.4754
  855MOL0     O17911   8.409   7.994   3.153 -0.4422 -1.1291 -0.1953
  855MOL0     C17912   8.360   8.025   3.019  0.1043  0.4726 -0.5272
  855MOL0     C17913   8.433   7.946   2.907  0.1609 -0.4839  0.0658
  855MOL0     C17914   8.558   7.870   2.954  0.0272 -0.1742  0.3851
  855MOL0     C17915   8.674   7.956   3.003  0.0857 -1.1140  0.5056
  855MOL0     C17916   8.717   8.042   2.886  0.4581 -0.2375  0.3051
  855MOL0     C17917   8.746   8.122   2.794 -0.5073  0.7021  0.4942
  855MOL0     C17918   8.243   8.123   3.274  0.4094 -0.0702  0.2410
  855MOL0     C17919   8.143   8.132   3.372  0.4680  0.6756 -1.8279
  855MOL0     C17920   8.086   8.264   3.382 -0.0642 -0.2536  0.1425
  855MOL0     H17921   7.785   7.713   3.662  0.1584 -0.8061 -1.6835
  855MOL0     H17922   7.568   7.691   3.745  1.5635 -0.5275 -0.5582
  855MOL0     H17923   7.365   7.605   3.692 -1.8624 -0.9186 -0.0873
  855MOL0     H17924   7.349   7.682   3.530  0.4818 -1.4457  0.6679
  855MOL0     H17925   7.141   7.578   3.591 -1.1799 -1.0514 -1.0460
  855MOL0     H17926   7.140   7.670   3.745  1.6556  2.1894  0.0917
  855MOL0     H17927   6.996   7.769   3.592 -0.5031  1.3495  1.5022
  855MOL0     H17928   7.143   7.883   3.608  0.7379 -0.8883  0.6278
  855MOL0     H17929   7.225   7.784   3.387  0.2646 -2.2974 -0.2202
  855MOL0     H17930   7.082   7.683   3.405 -3.6054  2.1420  1.2774
  855MOL0     H17931   7.057   7.988   3.406 -2.0548 -0.2787 -0.1888
  855MOL0     H17932   6.940   7.854   3.359 -1.5302  0.7554 -1.2427
  855MOL0     H17933   7.197   7.956   3.235  0.5229 -2.6482  3.0688
  855MOL0     H17934   7.083   7.829   3.171 -1.8522  0.5559 -0.1039
  855MOL0     H17935   7.078   8.084   3.077  0.7071 -0.7030  0.5097
  855MOL0     H17936   6.974   8.099   3.214  0.9778  2.9180 -2.0542
  855MOL0     H17937   6.942   7.890   2.985 -4.6716 -1.1805 -2.5717
  855MOL0     H17938   6.842   7.891   3.116  0.1005  0.2076  1.2896
  855MOL0     H17939   6.618   8.021   3.061  0.5826 -4.4035 -1.9838
  855MOL0     H17940   6.459   8.185   2.968  2.4738 -0.8218  2.0283
  855MOL0     H17941   6.487   8.172   2.796 -0.5781 -0.5753  0.3460
  855MOL0     H17942   6.604   8.405   2.779 -0.8170  2.0277 -0.6134
  855MOL0     H17943   6.446   8.418   2.822 -0.2621  0.4019  0.4688
  855MOL0     H17944   6.659   8.422   3.049 -2.5917 -1.2319  1.6262
  855MOL0     H17945   6.603   8.566   2.959 -1.6420  0.8638  0.5983
  855MOL0     H17946   6.364   8.522   3.037 -0.0938  0.0557 -2.4832
  855MOL0     H17947   6.407   8.368   3.090 -0.9152  0.3776  0.1360
  855MOL0     H17948   6.597   8.292   3.192 -3.6047 -1.2952  1.6279
  855MOL0     H17949   6.821   8.155   3.423 -0.1140 -2.2095  0.3873
  855MOL0     H17950   6.715   8.109   3.283 -0.6489 -1.1910  0.1701
  855MOL0     H17951   6.672   8.062   3.450 -0.2185  0.8764 -1.2441
  855MOL0     H17952   7.038   8.087   3.652  0.7143  0.1806  1.3232
  855MOL0     H17953   7.189   8.056   3.831  0.2468 -0.5663  1.6766
  855MOL0     H17954   7.225   8.333   4.131 -1.6292  0.0228  0.4362
  855MOL0     H17955   7.113   8.249   4.247 -1.2170 -0.5130 -0.1629
  855MOL0     H17956   7.301   8.093   4.294 -3.4313  0.7369 -0.3525
  855MOL0     H17957   7.397   8.175   4.173  0.6402 -2.0788 -0.3257
  855MOL0     H17958   7.276   8.277   4.444 -1.9361 -0.9670 -1.1171
  855MOL0     H17959   7.367   8.389   4.341 -2.0025  2.2080  6.2473
  855MOL0     H17960   7.557   8.235   4.341  0.0140 -1.4481  0.0475
  855MOL0     H17961   7.486   8.117   4.435 -1.5179 -0.1209  1.4276
  855MOL0     H17962   7.517   8.412   4.533  0.4766  0.7858  1.2316
  855MOL0     H17963   7.462   8.300   4.635 -0.0727  1.9433  0.3663
  855MOL0     H17964   7.751   8.258   4.512  2.1029 -0.2133  2.6803
  855MOL0     H17965   7.673   8.160   4.629 -2.9869 -0.6010 -1.5091
  855MOL0     H17966   7.745   8.454   4.653 -0.2801  0.2361 -0.6042
  855MOL0     H17967   7.846   8.319   4.692 -0.4416 -1.6272 -0.4742
  855MOL0     H17968   7.710   8.249   4.880  1.9955  0.2949  1.3413
  855MOL0     H17969   7.579   8.343   4.821 -0.8382  1.9004  1.7396
  855MOL0     H17970   6.937   8.261   4.098 -3.1003 -0.7845 -0.3544
  855MOL0     H17971   6.782   8.319   3.909 -0.8608 -0.5372 -0.1423
  855MOL0     H17972   6.577   8.480   3.646  4.2149  0.4144 -0.2056
  855MOL0     H17973   6.467   8.612   3.437 -1.0603 -0.2558 -0.9775
  855MOL0     H17974   7.430   8.039   3.539  1.0425  0.6604 -1.1489
  855MOL0     H17975   7.659   8.091   3.470  1.0495  1.1339  3.3114
  855MOL0     H17976   8.128   7.820   3.475 -0.4394  0.4054 -0.5663
  855MOL0     H17977   8.326   7.800   3.302  0.7307  1.0734 -2.7082
  855MOL0     H17978   8.258   7.986   3.008  0.4018 -1.6153  2.6239
  855MOL0     H17979   8.364   8.132   2.995 -0.7153  0.9104  1.1104
  855MOL0     H17980   8.470   8.013   2.828  3.4381 -1.8127  0.2941
  855MOL0     H17981   8.369   7.875   2.854  0.3634 -2.2291  2.0366
  855MOL0     H17982   8.517   7.802   3.030  0.4186 -2.4731 -1.3599
  855MOL0     H17983   8.595   7.795   2.884 -1.4073  0.1343 -0.7411
  855MOL0     H17984   8.756   7.899   3.046  1.1632 -2.3252 -2.8595
  855MOL0     H17985   8.640   8.028   3.078 -0.1536  2.9700 -3.0808
  855MOL0     H17986   8.765   8.188   2.712 -0.9758 -2.1611 -2.1243
  855MOL0     H17987   8.280   8.217   3.233 -1.0501  0.5931  0.3550
  855MOL0     H17988   7.978   8.267   3.401 -0.2475 -0.8724 -0.7533
  855MOL0     H17989   8.145   8.321   3.455  2.1137 -1.4698 -0.6031
  855MOL0     H17990   8.107   8.315   3.288  3.4734 -0.5348  0.6732
  856MOL0     O17991   4.725   2.919   2.328  0.4788  0.2888  0.4594
  856MOL0     C17992   4.603   2.919   2.328  0.1194 -0.3348  0.1963
  856MOL0     O17993   4.531   2.991   2.424  0.8393 -0.5748 -1.5449
  856MOL0     C17994   4.593   3.048   2.537  0.5197 -0.0719 -0.5268
  856MOL0     C17995   4.717   3.103   2.548 -0.4356  0.1886  1.5865
  856MOL0     C17996   4.763   3.164   2.670  0.3768 -0.3996 -0.3018
  856MOL0     C17997   4.679   3.168   2.786 -0.0940  0.3306 -0.1672
  856MOL0     O17998   4.707   3.233   2.904 -0.4608 -0.1320  0.1349
  856MOL0     C17999   4.819   3.313   2.901  0.5868  0.9608 -0.6396
  856MOL0     C18000   4.830   3.349   3.047 -0.4648 -0.8390  0.5587
  856MOL0     C18001   4.970   3.398   3.082  0.8711  0.3399 -0.9092
  856MOL0     C18002   5.011   3.534   3.025  0.7029 -0.1017  0.6150
  856MOL0     C18003   5.166   3.561   3.053 -0.3092  0.1991 -0.2506
  856MOL0     C18004   5.207   3.563   3.193  0.3584  0.3049  1.2629
  856MOL0     C18005   5.333   3.653   3.236 -0.5822  0.9720 -0.0651
  856MOL0     C18006   5.295   3.787   3.292 -0.1293 -0.0201 -0.3066
  856MOL0     N18007   5.419   3.863   3.310 -0.7818  0.1884  0.0192
  856MOL0     C18008   5.463   3.964   3.230  0.3169  0.7457 -0.2283
  856MOL0     C18009   5.580   3.993   3.269  0.1823 -0.0704  0.6675
  856MOL0     C18010   5.662   4.101   3.206  0.1447  0.2585  0.2026
  856MOL0     C18011   5.774   4.043   3.107 -0.1142  0.4482 -0.6408
  856MOL0     C18012   5.738   3.927   3.011  0.4199 -0.0172 -0.3659
  856MOL0     C18013   5.745   3.789   3.069 -0.9269  0.0179  0.0973
  856MOL0     O18014   5.700   3.700   2.968  0.5301  0.1521 -0.9988
  856MOL0     C18015   5.653   3.567   2.999 -0.7332 -0.1482  0.0626
  856MOL0     C18016   5.626   3.518   3.127 -1.0518 -0.2516  0.3007
  856MOL0     C18017   5.573   3.395   3.153  0.6452  0.7904 -0.3789
  856MOL0     C18018   5.543   3.337   3.287 -0.6857 -0.7464  0.3559
  856MOL0     C18019   5.546   3.317   3.039 -0.3765  0.0059  0.0565
  856MOL0     C18020   5.494   3.178   3.040  0.2300  0.2825 -0.7568
  856MOL0     O18021   5.572   3.078   3.066 -0.4063 -0.5070 -0.2175
  856MOL0     C18022   5.527   2.952   3.045  0.2775 -0.2221 -0.0680
  856MOL0     C18023   5.572   2.876   2.934 -0.2848  0.4351  0.1431
  856MOL0     C18024   5.544   2.732   2.934 -0.2936  0.4562  0.7842
  856MOL0     C18025   5.458   2.673   3.021  0.7331 -0.1598  0.2748
  856MOL0     O18026   5.427   2.539   3.006  0.1681 -0.1556 -1.1520
  856MOL0     C18027   5.299   2.487   3.040  0.3400 -0.2930  0.1803
  856MOL0     C18028   5.248   2.392   2.933  0.2275 -0.0476 -0.4197
  856MOL0     C18029   5.221   2.457   2.794 -0.1147  0.1807 -0.4698
  856MOL0     C18030   5.245   2.350   2.687  0.3899  0.3479  0.0367
  856MOL0     C18031   5.214   2.396   2.543  0.5411 -0.3045 -0.2176
  856MOL0     C18032   5.261   2.534   2.503 -0.6014 -0.4541 -0.8611
  856MOL0     C18033   5.234   2.584   2.358 -0.2021  0.6983 -0.1104
  856MOL0     C18034   5.099   2.639   2.341  0.8408 -0.0321 -0.2144
  856MOL0    Cl18035   5.027   2.580   2.185  0.1327  0.2966 -0.1802
  856MOL0     C18036   5.408   2.754   3.132 -0.7520  0.3362 -0.2096
  856MOL0     C18037   5.450   2.889   3.140 -0.5469  0.2407  0.5688
  856MOL0     O18038   5.375   3.171   2.997  0.0853  0.2307  0.7011
  856MOL0     C18039   5.578   3.363   2.912 -0.2246 -0.3440 -0.2606
  856MOL0     C18040   5.627   3.489   2.893  0.0788  0.4099  0.1017
  856MOL0     N18041   5.609   3.910   3.370 -0.8165 -0.7104  0.2645
  856MOL0     N18042   5.509   3.843   3.407  0.5191  0.2561  1.2890
  856MOL0     C18043   4.558   3.102   2.773 -1.2726 -0.0530 -0.5577
  856MOL0     C18044   4.513   3.040   2.659  0.8398 -0.1250  0.2840
  856MOL0     C18045   4.526   2.831   2.240  0.2982  0.2272  0.2427
  856MOL0     C18046   4.386   2.863   2.232 -0.2445  0.2639  0.2010
  856MOL0     C18047   4.297   2.797   2.159 -0.1775 -0.3066 -0.0435
  856MOL0     C18048   4.343   2.683   2.087  0.1017  0.5978  0.0381
  856MOL0     O18049   4.261   2.586   2.029 -0.2788  0.6579  0.1251
  856MOL0     C18050   4.118   2.572   2.068  0.2511  0.0262 -0.7389
  856MOL0     C18051   4.104   2.460   2.172  0.4402 -0.9260 -0.7050
  856MOL0     C18052   4.186   2.335   2.128  0.7420  0.5406 -0.3546
  856MOL0     C18053   4.164   2.276   1.991  0.0530  0.7471 -0.1735
  856MOL0     C18054   4.022   2.285   1.950  0.1117  0.6107 -0.6644
  856MOL0     C18055   3.905   2.310   1.915  0.3747 -0.4721  0.8432
  856MOL0     C18056   4.479   2.649   2.077 -1.0851 -1.0335  1.0991
  856MOL0     C18057   4.571   2.725   2.157 -0.5155 -0.6021 -0.0560
  856MOL0     C18058   4.715   2.692   2.159 -0.4179 -0.7771 -0.2906
  856MOL0     H18059   4.783   3.118   2.464 -0.7536  4.1126  1.8362
  856MOL0     H18060   4.865   3.200   2.671  0.8103 -1.4056 -2.4367
  856MOL0     H18061   4.811   3.402   2.838 -1.8206  1.8030  0.7644
  856MOL0     H18062   4.912   3.262   2.870  0.2731 -1.1538  1.5620
  856MOL0     H18063   4.758   3.428   3.072 -0.3564 -0.2992 -0.7891
  856MOL0     H18064   4.817   3.265   3.115  1.1220  2.1802  5.0885
  856MOL0     H18065   4.978   3.397   3.191 -3.2357  1.6485 -0.4257
  856MOL0     H18066   5.039   3.321   3.046  1.7286 -0.7350  2.6361
  856MOL0     H18067   5.013   3.536   2.916 -1.1853 -0.0920  0.5479
  856MOL0     H18068   4.948   3.615   3.064  1.3643  0.3631  0.7307
  856MOL0     H18069   5.191   3.660   3.014 -0.7984  0.9111  1.1713
  856MOL0     H18070   5.232   3.492   3.000 -3.3353 -3.0854 -0.1554
  856MOL0     H18071   5.119   3.597   3.249  1.0049  1.3799  1.6603
  856MOL0     H18072   5.231   3.461   3.225 -2.8378 -1.0716 -0.3443
  856MOL0     H18073   5.398   3.664   3.149  1.3519  1.6481  1.4105
  856MOL0     H18074   5.376   3.588   3.312  1.5366  2.1303 -0.1899
  856MOL0     H18075   5.243   3.844   3.214  0.9578 -0.1962 -1.1970
  856MOL0     H18076   5.237   3.785   3.384  1.4861  3.4919  0.9587
  856MOL0     H18077   5.415   4.016   3.148  1.5643  3.7702  0.8323
  856MOL0     H18078   5.690   4.156   3.297  0.4071 -2.0145  1.5823
  856MOL0     H18079   5.612   4.173   3.141  0.1513 -2.5422 -3.2168
  856MOL0     H18080   5.788   4.131   3.044 -1.9713  0.7331 -0.7056
  856MOL0     H18081   5.862   4.022   3.169 -1.3106 -1.3101  0.5500
  856MOL0     H18082   5.636   3.946   2.975  0.0600 -3.0914 -1.2682
  856MOL0     H18083   5.799   3.926   2.921 -1.0074  0.4437 -1.3846
  856MOL0     H18084   5.846   3.749   3.085 -1.4326 -1.6491 -0.6037
  856MOL0     H18085   5.688   3.792   3.162 -0.6102  1.8524  0.2631
  856MOL0     H18086   5.647   3.589   3.206 -0.6419  1.4157 -1.2323
  856MOL0     H18087   5.633   3.280   3.310 -1.0235 -1.1749  0.6286
  856MOL0     H18088   5.451   3.279   3.285 -1.4794  0.2897  2.8622
  856MOL0     H18089   5.538   3.417   3.362 -0.8975 -0.2251 -0.2016
  856MOL0     H18090   5.619   2.928   2.852  0.4253  4.1328  2.6441
  856MOL0     H18091   5.579   2.679   2.846  1.2429  2.8739 -0.1740
  856MOL0     H18092   5.293   2.430   3.133 -1.8307 -0.2816  0.1001
  856MOL0     H18093   5.224   2.565   3.060  0.4226  0.0425 -0.7655
  856MOL0     H18094   5.320   2.313   2.911 -0.0502 -0.7214  0.9692
  856MOL0     H18095   5.154   2.348   2.968  0.7447 -1.8949 -1.2284
  856MOL0     H18096   5.292   2.537   2.771 -0.4989  0.2696 -1.4370
  856MOL0     H18097   5.121   2.498   2.775  0.8785  1.7186 -2.9629
  856MOL0     H18098   5.194   2.260   2.721  3.7792 -2.1683 -0.9604
  856MOL0     H18099   5.349   2.316   2.691 -0.2935 -1.8097  0.3670
  856MOL0     H18100   5.248   2.319   2.474 -3.0637 -0.2239 -2.3461
  856MOL0     H18101   5.106   2.402   2.527  0.5114  2.8554  0.3868
  856MOL0     H18102   5.369   2.539   2.517 -0.7275  0.4292 -0.0163
  856MOL0     H18103   5.211   2.614   2.559 -1.8438 -1.8642  0.1521
  856MOL0     H18104   5.259   2.493   2.304 -1.4017  0.1698  0.1849
  856MOL0     H18105   5.310   2.662   2.345  0.1094  0.7589  1.7607
  856MOL0     H18106   5.101   2.748   2.353 -3.8264  0.1543  0.7118
  856MOL0     H18107   5.044   2.598   2.426  2.5863  1.4372  1.7258
  856MOL0     H18108   5.357   2.711   3.217 -1.9677 -0.8360 -1.4868
  856MOL0     H18109   5.426   2.942   3.231  0.4783  0.3863  0.7690
  856MOL0     H18110   5.554   3.302   2.826  1.7604  0.3982 -1.4159
  856MOL0     H18111   5.637   3.530   2.793  3.6728 -0.2414  0.0684
  856MOL0     H18112   4.497   3.105   2.863  0.0946  3.3261  0.4098
  856MOL0     H18113   4.414   2.996   2.660 -0.3706  2.1374 -3.2387
  856MOL0     H18114   4.372   2.964   2.271 -1.4747 -0.5098  1.9276
  856MOL0     H18115   4.193   2.826   2.163 -0.4186 -1.2555  0.9247
  856MOL0     H18116   4.072   2.661   2.114 -0.3625  0.5087 -2.2461
  856MOL0     H18117   4.059   2.541   1.982 -2.7721  0.8604  0.8757
  856MOL0     H18118   4.000   2.436   2.194  0.1469  1.0598  0.3735
  856MOL0     H18119   4.146   2.480   2.271 -1.2222 -3.5048  0.6341
  856MOL0     H18120   4.293   2.354   2.144  0.2016  1.1013  3.6513
  856MOL0     H18121   4.159   2.260   2.203 -1.0148  1.1755 -0.3141
  856MOL0     H18122   4.193   2.170   1.995 -4.6170 -0.8436 -1.5654
  856MOL0     H18123   4.222   2.333   1.918 -1.3655  0.0501 -1.9237
  856MOL0     H18124   3.800   2.326   1.903  0.2759 -0.5666  1.5720
  856MOL0     H18125   4.507   2.578   2.000 -0.4241  1.1925 -0.8386
  856MOL0     H18126   4.728   2.678   2.266 -3.3228 -1.5663  0.0353
  856MOL0     H18127   4.743   2.597   2.113  4.6497 -0.0376  0.6789
  856MOL0     H18128   4.781   2.768   2.115 -0.6949  0.5695  1.5048
  857MOL0     O18129   3.891   3.328   6.858  0.1864 -0.7360  0.2218
  857MOL0     C18130   3.941   3.403   6.775  0.2550  0.5641 -0.3896
  857MOL0     O18131   4.033   3.499   6.803  0.1389 -0.3858  0.4096
  857MOL0     C18132   4.081   3.514   6.929  0.3824  0.7165  0.7819
  857MOL0     C18133   4.071   3.642   6.977 -0.6249  0.1398  0.0516
  857MOL0     C18134   4.104   3.674   7.114 -0.0455  0.6002  0.2787
  857MOL0     C18135   4.132   3.563   7.200 -0.5173 -0.7618  0.6047
  857MOL0     O18136   4.158   3.576   7.331 -0.4921 -0.2124  0.0177
  857MOL0     C18137   4.162   3.711   7.398 -0.2552 -0.5764  0.6975
  857MOL0     C18138   4.198   3.707   7.544  0.2036  0.2118  0.3738
  857MOL0     C18139   4.092   3.645   7.636  1.0766  1.0447  0.9647
  857MOL0     C18140   3.986   3.743   7.695  0.0572  0.6626  0.0335
  857MOL0     C18141   4.039   3.839   7.807 -0.3841 -0.0736 -0.8882
  857MOL0     C18142   4.063   3.773   7.945  0.0835  0.1444 -0.6980
  857MOL0     C18143   4.138   3.870   8.036 -0.4709 -0.3693  1.5232
  857MOL0     C18144   4.165   3.818   8.175  0.0733 -0.1052 -1.1917
  857MOL0     N18145   4.038   3.787   8.251 -0.0462  0.5838  0.7701
  857MOL0     C18146   3.985   3.656   8.262 -0.1879 -0.9589  0.8048
  857MOL0     C18147   3.868   3.674   8.313 -0.1765  1.0310 -1.1680
  857MOL0     C18148   3.776   3.565   8.331 -0.3689 -0.6001  0.7162
  857MOL0     C18149   3.629   3.586   8.301 -1.0150 -0.3492  0.5985
  857MOL0     C18150   3.582   3.571   8.154  0.1132 -0.2119  0.1613
  857MOL0     C18151   3.594   3.418   8.091  0.2424  0.3432 -0.2281
  857MOL0     O18152   3.544   3.318   8.177  0.1229  0.3405  0.0521
  857MOL0     C18153   3.406   3.303   8.173  0.1569  0.6038  0.0962
  857MOL0     C18154   3.331   3.337   8.291 -0.4834  0.0722 -0.1200
  857MOL0     C18155   3.190   3.330   8.290 -0.2956 -0.4405  0.0871
  857MOL0     C18156   3.127   3.375   8.419 -0.5561  0.9002 -0.4768
  857MOL0     C18157   3.126   3.288   8.179  0.2543 -0.2449  0.2548
  857MOL0     C18158   2.980   3.273   8.170  0.4540  0.6903 -1.0928
  857MOL0     O18159   2.943   3.162   8.095  0.2736  0.2688 -0.2467
  857MOL0     C18160   2.811   3.114   8.090  0.7007 -0.0206 -0.1774
  857MOL0     C18161   2.702   3.201   8.062 -0.4642  0.3436 -0.5114
  857MOL0     C18162   2.575   3.149   8.039 -0.0315  0.9709 -0.6662
  857MOL0     C18163   2.544   3.005   8.041 -0.6652  0.2138  0.3010
  857MOL0     O18164   2.421   2.952   8.030 -0.1098  0.4524 -0.0191
  857MOL0     C18165   2.313   3.008   8.101 -0.1509 -0.3971  0.3492
  857MOL0     C18166   2.181   2.991   8.030 -0.5972 -0.3410 -0.2917
  857MOL0     C18167   2.172   3.068   7.897 -0.2196 -0.4672 -0.5160
  857MOL0     C18168   2.038   3.049   7.830  0.5790  0.3401  0.5974
  857MOL0     C18169   2.012   3.158   7.726 -0.0607 -0.1896 -0.2644
  857MOL0     C18170   1.871   3.172   7.676 -0.2011  0.4429 -0.3706
  857MOL0     C18171   1.767   3.170   7.793  0.1142  1.1859  1.2106
  857MOL0     C18172   1.622   3.185   7.748 -0.6617  0.1824 -0.3228
  857MOL0    Cl18173   1.593   3.350   7.691  0.1328  0.1496  0.3831
  857MOL0     C18174   2.656   2.927   8.062  0.4268  0.0412  1.0940
  857MOL0     C18175   2.782   2.979   8.090 -0.6149 -0.7504  0.9705
  857MOL0     O18176   2.901   3.346   8.234  0.1962  0.4141 -0.7524
  857MOL0     C18177   3.204   3.242   8.063 -0.4720 -0.1009 -0.2405
  857MOL0     C18178   3.344   3.253   8.065  1.1856 -0.0683 -0.6234
  857MOL0     N18179   3.841   3.806   8.336 -0.5777  0.0998 -0.0949
  857MOL0     N18180   3.938   3.872   8.299 -0.3269  0.6576  0.8680
  857MOL0     C18181   4.152   3.440   7.139 -0.2489 -0.6864  0.0299
  857MOL0     C18182   4.129   3.412   7.001 -0.5818 -0.5323  0.3376
  857MOL0     C18183   3.896   3.380   6.634  0.9526  0.4611  0.7561
  857MOL0     C18184   3.913   3.487   6.536  0.4816  0.8133 -0.2362
  857MOL0     C18185   3.854   3.480   6.410 -1.0264 -0.9827 -0.1168
  857MOL0     C18186   3.808   3.361   6.362 -0.1560 -0.3108 -0.6688
  857MOL0     O18187   3.759   3.362   6.235 -0.8578  0.1011 -1.0400
  857MOL0     C18188   3.676   3.262   6.173 -0.0287 -0.2753 -0.2192
  857MOL0     C18189   3.768   3.181   6.088  0.0143 -0.5521  0.4775
  857MOL0     C18190   3.803   3.250   5.953  0.1033 -0.3329  0.4357
  857MOL0     C18191   3.871   3.178   5.841  0.0844  0.3827 -0.0418
  857MOL0     C18192   3.799   3.072   5.776 -0.2780 -0.6008 -0.9169
  857MOL0     C18193   3.729   2.982   5.746 -0.1228  0.2274 -0.1188
  857MOL0     C18194   3.805   3.249   6.452  0.2369  0.1940 -0.4422
  857MOL0     C18195   3.845   3.250   6.581  0.4195  0.0302 -0.2939
  857MOL0     C18196   3.805   3.127   6.658 -0.1857 -0.3578  0.3688
  857MOL0     H18197   4.034   3.711   6.901 -1.0740 -0.1552 -0.0006
  857MOL0     H18198   4.086   3.773   7.154 -1.6583  0.1734  0.6514
  857MOL0     H18199   4.062   3.754   7.388  0.3436  0.3150 -5.0031
  857MOL0     H18200   4.226   3.777   7.338 -3.3239  1.1061 -0.9874
  857MOL0     H18201   4.285   3.642   7.557 -0.0361 -0.0237  0.8690
  857MOL0     H18202   4.213   3.811   7.572  1.8515  0.4590 -1.2387
  857MOL0     H18203   4.039   3.573   7.573  3.5001  0.0484 -0.0556
  857MOL0     H18204   4.133   3.584   7.717 -3.7229 -2.8243  0.9283
  857MOL0     H18205   3.942   3.799   7.612  2.7697  4.2753  0.7631
  857MOL0     H18206   3.912   3.686   7.751 -0.8706 -0.0007 -1.7893
  857MOL0     H18207   3.960   3.912   7.826  1.1463  1.3894  0.1136
  857MOL0     H18208   4.133   3.891   7.783  0.5826  0.3009  3.0526
  857MOL0     H18209   3.976   3.718   7.984  0.1335  0.8010  0.3528
  857MOL0     H18210   4.134   3.690   7.934 -0.7795 -0.4650 -2.0106
  857MOL0     H18211   4.084   3.965   8.036  0.9550  0.7813 -3.7646
  857MOL0     H18212   4.238   3.889   7.995 -0.8697  1.9966  1.5220
  857MOL0     H18213   4.231   3.731   8.172  1.9745  1.2059  0.3572
  857MOL0     H18214   4.209   3.898   8.234 -2.9075  0.5468  0.3274
  857MOL0     H18215   4.034   3.563   8.236 -2.4941 -2.1628  0.5486
  857MOL0     H18216   3.791   3.536   8.435  1.3944 -0.1763  0.6089
  857MOL0     H18217   3.799   3.477   8.270  1.8785  0.5853 -0.2925
  857MOL0     H18218   3.579   3.519   8.372  0.2816 -0.7520  1.1653
  857MOL0     H18219   3.600   3.686   8.333 -1.2299  0.3610 -1.6102
  857MOL0     H18220   3.481   3.613   8.150 -0.1743 -0.9706 -2.6642
  857MOL0     H18221   3.639   3.625   8.078  1.4036  0.0499  1.2760
  857MOL0     H18222   3.541   3.421   7.995 -1.5615  0.4877  0.7272
  857MOL0     H18223   3.698   3.397   8.064  0.5903  2.8577 -1.0821
  857MOL0     H18224   3.373   3.385   8.379  0.1234 -0.1822 -0.2668
  857MOL0     H18225   3.044   3.307   8.442 -1.1402 -0.3514 -5.2319
  857MOL0     H18226   3.082   3.474   8.413 -0.9075  1.1195  3.1756
  857MOL0     H18227   3.205   3.369   8.496 -1.7194  1.3186  0.7909
  857MOL0     H18228   2.722   3.307   8.057  2.6255 -0.2077 -2.7698
  857MOL0     H18229   2.499   3.216   7.999 -4.1314 -1.9715  1.5048
  857MOL0     H18230   2.293   2.963   8.199 -2.8749  3.4213  1.7839
  857MOL0     H18231   2.338   3.111   8.128 -2.3347  0.0419  0.8710
  857MOL0     H18232   2.162   2.887   8.001  2.6010 -1.2803  0.6024
  857MOL0     H18233   2.102   3.015   8.102  0.8378 -0.4419  1.3807
  857MOL0     H18234   2.252   3.030   7.832 -0.9231 -1.9670 -0.5538
  857MOL0     H18235   2.181   3.173   7.924  0.9158 -0.3739 -1.1754
  857MOL0     H18236   1.956   3.054   7.901  0.6480  3.5323  0.5871
  857MOL0     H18237   2.028   2.952   7.779  1.1013  0.5393  0.0945
  857MOL0     H18238   2.041   3.245   7.786  0.5650 -0.7330  0.2403
  857MOL0     H18239   2.065   3.149   7.631  0.0169 -0.0878 -0.2304
  857MOL0     H18240   1.860   3.100   7.594 -1.1227  0.7298 -0.5203
  857MOL0     H18241   1.860   3.272   7.632  1.8279  0.7632 -0.2180
  857MOL0     H18242   1.773   3.241   7.876 -4.5097  1.8814  1.2199
  857MOL0     H18243   1.767   3.075   7.846 -0.1331 -0.6329 -1.7974
  857MOL0     H18244   1.557   3.154   7.830  0.6883 -2.1396 -0.0649
  857MOL0     H18245   1.604   3.109   7.671  1.3304  0.5572 -1.2338
  857MOL0     H18246   2.624   2.823   8.062 -2.1750  0.7645  0.5033
  857MOL0     H18247   2.869   2.918   8.113 -1.3850 -2.2421  0.0643
  857MOL0     H18248   3.158   3.186   7.982 -0.9287  0.3317 -0.2821
  857MOL0     H18249   3.392   3.215   7.976 -1.5507 -2.8580 -1.0976
  857MOL0     H18250   4.211   3.372   7.200  4.3842  1.9331 -1.0531
  857MOL0     H18251   4.145   3.314   6.959  0.1712 -1.5662  2.8235
  857MOL0     H18252   3.959   3.582   6.559  2.8590 -0.6408  1.4438
  857MOL0     H18253   3.849   3.575   6.357  1.8034  0.8069  2.5011
  857MOL0     H18254   3.634   3.194   6.247  1.5660  0.7792  1.7447
  857MOL0     H18255   3.601   3.312   6.110  0.3848  0.9592  0.2400
  857MOL0     H18256   3.723   3.083   6.070 -0.6120 -0.5074  1.7345
  857MOL0     H18257   3.861   3.156   6.138 -0.5175 -3.1612  0.3136
  857MOL0     H18258   3.707   3.282   5.912 -1.3778 -0.7649  3.3187
  857MOL0     H18259   3.853   3.346   5.969 -1.5442  1.1650 -2.5379
  857MOL0     H18260   3.957   3.125   5.883  0.3753  1.8608  1.3282
  857MOL0     H18261   3.904   3.250   5.765 -0.3369 -1.5249 -2.1313
  857MOL0     H18262   3.672   2.896   5.716  0.5389  0.5202 -2.4001
  857MOL0     H18263   3.771   3.156   6.406  0.9317  1.3881 -3.6819
  857MOL0     H18264   3.697   3.138   6.671 -0.1972  0.0417 -0.0311
  857MOL0     H18265   3.818   3.040   6.594 -0.2311  1.4237 -2.2114
  857MOL0     H18266   3.858   3.114   6.753  2.0732 -2.2483 -1.0513
  858MOL0     O18267   3.764   7.798   2.011 -0.2030 -0.5054 -0.8478
  858MOL0     C18268   3.816   7.792   2.119 -1.1854 -0.0105  0.6804
  858MOL0     O18269   3.785   7.875   2.227  0.4805 -0.0966 -0.6384
  858MOL0     C18270   3.690   7.971   2.209  0.1901  0.4727 -0.7614
  858MOL0     C18271   3.725   8.094   2.169 -0.3784 -1.1640  0.1863
  858MOL0     C18272   3.625   8.189   2.156  0.2041  0.7746 -0.0240
  858MOL0     C18273   3.493   8.160   2.181  0.7730  0.4195  1.0070
  858MOL0     O18274   3.387   8.245   2.178 -0.2953 -0.0899  0.2655
  858MOL0     C18275   3.409   8.365   2.098  0.2534  0.4786  0.6087
  858MOL0     C18276   3.289   8.457   2.119 -0.1456  0.4031  0.4732
  858MOL0     C18277   3.314   8.590   2.045  0.1675 -1.4062 -0.5198
  858MOL0     C18278   3.198   8.682   2.043  0.8659  0.0051 -0.2304
  858MOL0     C18279   3.246   8.822   2.004  0.9728  0.0172 -0.4448
  858MOL0     C18280   3.126   8.905   1.988  0.5842  1.1224 -0.6292
  858MOL0     C18281   3.050   8.916   2.117  0.6286  0.1762  0.8777
  858MOL0     C18282   2.953   9.040   2.096  0.3611  0.6743 -0.4011
  858MOL0     N18283   2.821   9.011   2.034 -1.2892  0.2524 -0.4855
  858MOL0     C18284   2.702   8.955   2.096 -0.9747 -0.5540  0.8204
  858MOL0     C18285   2.618   8.938   1.990 -0.6876  0.1738 -0.2900
  858MOL0     C18286   2.477   8.895   1.992  0.4640 -0.4193 -0.1923
  858MOL0     C18287   2.393   9.007   2.065 -0.3977 -0.1214 -0.3365
  858MOL0     C18288   2.409   9.150   2.014 -0.3480 -0.5253  0.1776
  858MOL0     C18289   2.303   9.245   2.078  0.1100  0.5686 -0.2038
  858MOL0     O18290   2.335   9.234   2.221 -0.1077 -0.0398 -0.4381
  858MOL0     C18291   2.227   9.246   2.300  0.2890  0.4843 -0.6615
  858MOL0     C18292   2.132   9.139   2.300 -0.4017  0.5120  0.2369
  858MOL0     C18293   2.010   9.145   2.371  0.4132 -0.5610 -0.2095
  858MOL0     C18294   1.905   9.039   2.347  0.3856  0.0468 -0.5424
  858MOL0     C18295   1.985   9.257   2.452 -0.5361 -0.1103 -0.4936
  858MOL0     C18296   1.862   9.297   2.514  0.1599  0.9523  0.3508
  858MOL0     O18297   1.750   9.229   2.480 -0.0964 -0.2251  0.1134
  858MOL0     C18298   1.629   9.284   2.500 -0.1445 -0.4903 -0.3195
  858MOL0     C18299   1.595   9.420   2.517  0.2448  1.0534  0.1419
  858MOL0     C18300   1.469   9.456   2.560  0.3969 -0.2186  0.5032
  858MOL0     C18301   1.361   9.365   2.587 -0.0985 -0.3697  0.6490
  858MOL0     O18302   1.236   9.400   2.628 -0.0802 -0.5385  0.2269
  858MOL0     C18303   1.221   9.542   2.674 -0.2333 -0.9249 -0.9566
  858MOL0     C18304   1.300   9.580   2.796  0.5579 -0.5543  0.4284
  858MOL0     C18305   1.247   9.703   2.862  0.7557  0.2233  0.2380
  858MOL0     C18306   1.334   9.752   2.981 -0.5536 -0.1608 -0.2232
  858MOL0     C18307   1.275   9.860   3.084 -0.0321  0.8728  0.7791
  858MOL0     C18308   1.160   9.798   3.164  0.9231 -0.1641 -0.0269
  858MOL0     C18309   1.215   9.755   3.305  0.8284  0.5011 -0.6695
  858MOL0     C18310   1.097   9.693   3.390  0.4443  0.1051 -0.1716
  858MOL0    Cl18311   1.173   9.629   3.539 -0.7343  0.3596 -0.0853
  858MOL0     C18312   1.395   9.229   2.577 -0.5002 -0.3562  0.2018
  858MOL0     C18313   1.531   9.195   2.536 -0.6940  0.9129  0.5172
  858MOL0     O18314   1.858   9.389   2.591 -0.5630 -0.0133  0.4373
  858MOL0     C18315   2.094   9.346   2.469  0.7320 -0.7013 -0.9036
  858MOL0     C18316   2.208   9.343   2.383 -0.2639  0.0220 -0.7788
  858MOL0     N18317   2.684   8.966   1.875  1.3242  0.8778  0.1546
  858MOL0     N18318   2.809   9.002   1.898 -0.0051  1.2281  0.0873
  858MOL0     C18319   3.450   8.034   2.207  0.2328 -0.0757 -0.0337
  858MOL0     C18320   3.556   7.942   2.231 -0.1143 -0.2659  0.5034
  858MOL0     C18321   3.940   7.717   2.128 -0.4503  0.2213 -0.0097
  858MOL0     C18322   4.022   7.734   2.235  0.0482  0.3008 -0.5110
  858MOL0     C18323   4.145   7.666   2.247  0.1077 -0.2474 -0.4013
  858MOL0     C18324   4.195   7.575   2.141 -0.4319  0.5425 -0.6881
  858MOL0     O18325   4.321   7.515   2.159 -0.1124 -0.1670  0.2416
  858MOL0     C18326   4.334   7.374   2.120  0.2467 -0.2383  0.5729
  858MOL0     C18327   4.393   7.285   2.231 -0.0253  0.1561 -1.0706
  858MOL0     C18328   4.315   7.301   2.364 -0.3159  0.4601  0.9218
  858MOL0     C18329   4.190   7.224   2.362  0.7585  0.5726  0.6459
  858MOL0     C18330   4.199   7.081   2.359 -0.1565 -0.0799  0.2699
  858MOL0     C18331   4.205   6.962   2.368  0.3245  1.0028  0.0868
  858MOL0     C18332   4.104   7.550   2.038 -0.1674 -1.3362 -0.0901
  858MOL0     C18333   3.978   7.621   2.030  0.0651 -0.0311  1.1352
  858MOL0     C18334   3.903   7.599   1.896  0.2057  0.5891 -0.3084
  858MOL0     H18335   3.832   8.102   2.154 -0.4826 -2.9203 -1.8413
  858MOL0     H18336   3.657   8.287   2.123  2.1596 -0.4563 -2.0195
  858MOL0     H18337   3.415   8.325   1.997 -1.4756 -1.5694  1.2312
  858MOL0     H18338   3.499   8.425   2.111  2.0225 -1.7867 -0.5710
  858MOL0     H18339   3.198   8.422   2.068 -1.3149  0.7836  2.2184
  858MOL0     H18340   3.272   8.473   2.225  0.5343  1.4634  0.4313
  858MOL0     H18341   3.393   8.647   2.094 -0.4655 -1.5177  0.6719
  858MOL0     H18342   3.363   8.575   1.948  1.4502 -0.6819  0.0015
  858MOL0     H18343   3.117   8.639   1.983 -0.7525 -0.5423  2.1771
  858MOL0     H18344   3.171   8.691   2.149 -2.0873  2.1778 -1.0343
  858MOL0     H18345   3.299   8.803   1.910 -3.3957 -1.3777 -2.8843
  858MOL0     H18346   3.316   8.861   2.079  0.4520 -0.8614  0.5346
  858MOL0     H18347   3.154   9.006   1.955  0.3384  2.2436  2.3211
  858MOL0     H18348   3.056   8.873   1.910 -1.9033  2.4107  0.9070
  858MOL0     H18349   3.125   8.940   2.193  3.3772 -3.2249 -0.5030
  858MOL0     H18350   2.990   8.826   2.133  3.8523 -2.4193 -0.5006
  858MOL0     H18351   2.946   9.082   2.196  0.3878 -0.9006  0.2829
  858MOL0     H18352   3.005   9.113   2.033  0.3608  0.2522 -0.9056
  858MOL0     H18353   2.681   8.920   2.197  2.3362 -3.7420  0.6144
  858MOL0     H18354   2.471   8.804   2.052  1.6069 -0.3730  0.0046
  858MOL0     H18355   2.435   8.882   1.892 -0.8589 -0.7063  0.3760
  858MOL0     H18356   2.287   8.988   2.046 -0.2964 -1.0858 -0.0204
  858MOL0     H18357   2.420   8.992   2.170 -2.9266 -1.6055  0.1813
  858MOL0     H18358   2.506   9.190   2.046 -0.7118 -0.1369  0.8101
  858MOL0     H18359   2.401   9.150   1.905  0.8073 -2.0801  0.0661
  858MOL0     H18360   2.314   9.349   2.046 -0.5808  1.0847  1.1419
  858MOL0     H18361   2.201   9.210   2.058 -0.4351 -0.8564  4.0087
  858MOL0     H18362   2.151   9.054   2.235  0.6946 -0.5675  1.8851
  858MOL0     H18363   1.947   8.953   2.294  0.5902  0.1473 -0.5469
  858MOL0     H18364   1.828   9.080   2.281 -1.4252 -1.3928  0.6018
  858MOL0     H18365   1.866   9.021   2.447  1.0383  0.5747 -0.1796
  858MOL0     H18366   1.662   9.500   2.488  3.0989 -0.8895  0.9883
  858MOL0     H18367   1.443   9.561   2.555  2.4873  0.3395  0.2723
  858MOL0     H18368   1.252   9.608   2.593 -1.6716 -3.6165 -3.9198
  858MOL0     H18369   1.113   9.559   2.680 -0.2176 -1.0869  0.0075
  858MOL0     H18370   1.281   9.501   2.870 -1.9443  0.5580  1.0870
  858MOL0     H18371   1.409   9.585   2.786  0.4643  2.0883 -0.0140
  858MOL0     H18372   1.147   9.683   2.900 -0.5042 -0.1300 -2.9444
  858MOL0     H18373   1.242   9.788   2.793 -0.2632 -0.3175 -0.3717
  858MOL0     H18374   1.426   9.799   2.945 -0.6929 -0.0675 -0.4597
  858MOL0     H18375   1.367   9.663   3.035  1.8307  1.3247  0.9045
  858MOL0     H18376   1.357   9.897   3.146  0.9979  0.1671 -0.1158
  858MOL0     H18377   1.247   9.955   3.039 -0.0317 -0.3022 -1.9027
  858MOL0     H18378   1.126   9.705   3.118 -1.2771  0.4806  0.2181
  858MOL0     H18379   1.075   9.866   3.175  0.1104 -1.0742 -0.5288
  858MOL0     H18380   1.258   9.839   3.360  2.7556 -0.2557 -0.9432
  858MOL0     H18381   1.292   9.678   3.293  0.3176 -0.1582  0.1344
  858MOL0     H18382   1.038   9.617   3.337 -1.7381 -0.1773  2.4847
  858MOL0     H18383   1.023   9.767   3.419  0.9679  1.2741 -1.6659
  858MOL0     H18384   1.339   9.138   2.599  3.0779 -2.9816 -0.5132
  858MOL0     H18385   1.573   9.095   2.542  0.0816  1.3196  2.3884
  858MOL0     H18386   2.093   9.439   2.525  0.0855 -0.6531 -0.9867
  858MOL0     H18387   2.279   9.425   2.387  2.4579 -2.0445  4.6827
  858MOL0     H18388   3.343   8.018   2.212 -0.0245 -1.3198 -4.6712
  858MOL0     H18389   3.533   7.842   2.266  2.6686 -1.1025  0.2382
  858MOL0     H18390   3.991   7.808   2.309  0.1440  2.0421 -2.1362
  858MOL0     H18391   4.221   7.684   2.322  0.0305  2.5593 -0.8798
  858MOL0     H18392   4.241   7.331   2.081  0.1956  2.6563 -3.0101
  858MOL0     H18393   4.402   7.372   2.035 -1.1524 -0.0711 -0.5911
  858MOL0     H18394   4.496   7.312   2.255 -0.7346  1.5070  0.6306
  858MOL0     H18395   4.389   7.180   2.201 -3.5702 -0.0688 -0.2561
  858MOL0     H18396   4.375   7.254   2.442  0.0562  0.1915  0.4810
  858MOL0     H18397   4.303   7.407   2.386  1.4938  1.2280 -1.3259
  858MOL0     H18398   4.141   7.255   2.269  2.9669  1.8919 -0.1436
  858MOL0     H18399   4.124   7.249   2.445  0.1693 -1.0866  0.7215
  858MOL0     H18400   4.199   6.855   2.360  0.0301  1.1519 -3.0512
  858MOL0     H18401   4.119   7.482   1.955 -2.2659 -1.3237 -0.5375
  858MOL0     H18402   3.886   7.698   1.854 -2.2733  0.0153 -0.8298
  858MOL0     H18403   3.956   7.535   1.825 -0.7846 -0.2300 -0.3358
  858MOL0     H18404   3.809   7.551   1.926  0.8690  0.0962  1.0842
  859MOL0     O18405   1.079   0.753  10.401 -0.1390 -0.0863 -0.1650
  859MOL0     C18406   1.034   0.638  10.381 -0.3982 -0.3233  0.3667
  859MOL0     O18407   1.117   0.529  10.352 -0.2941  0.1310 -0.5803
  859MOL0     C18408   1.249   0.552  10.381  0.1007  0.4100  0.0092
  859MOL0     C18409   1.286   0.534  10.517  0.3124 -0.0979  0.5004
  859MOL0     C18410   1.420   0.540  10.545  0.1828  0.6254  0.1591
  859MOL0     C18411   1.513   0.564  10.446 -0.6471 -0.0514  0.3395
  859MOL0     O18412   1.641   0.559  10.500 -0.3985 -0.1575 -0.4357
  859MOL0     C18413   1.754   0.570  10.412 -0.1822  0.8560  0.2070
  859MOL0     C18414   1.881   0.549  10.490 -0.3514 -1.0393 -0.5338
  859MOL0     C18415   2.009   0.575  10.395  0.3529  0.7625  0.2337
  859MOL0     C18416   2.130   0.621  10.465 -0.4588 -0.4057  0.5630
  859MOL0     C18417   2.257   0.633  10.359  0.1210  0.3991 -0.3965
  859MOL0     C18418   2.389   0.679  10.416 -0.3487 -1.0369  0.0695
  859MOL0     C18419   2.494   0.682  10.316  0.3124 -0.7247  0.0155
  859MOL0     C18420   2.618   0.736  10.376 -1.1378  0.1288 -0.2083
  859MOL0     N18421   2.735   0.744  10.286 -0.6465 -0.5541 -0.5693
  859MOL0     C18422   2.830   0.644  10.256  0.3854  0.0021  0.6168
  859MOL0     C18423   2.922   0.715  10.192  0.1014 -0.3878 -0.4901
  859MOL0     C18424   3.041   0.655  10.138  0.7393  0.6031 -0.4651
  859MOL0     C18425   3.119   0.599  10.256 -0.2735 -0.5860  0.3131
  859MOL0     C18426   3.277   0.599  10.232 -1.0852 -0.0720 -1.0620
  859MOL0     C18427   3.359   0.541  10.353 -0.1025  0.0677  0.2127
  859MOL0     O18428   3.348   0.400  10.348 -1.0118 -0.3310  0.3777
  859MOL0     C18429   3.439   0.313  10.287  0.5996 -0.5649 -0.9017
  859MOL0     C18430   3.555   0.338  10.216 -0.0817 -0.1697 -0.4409
  859MOL0     C18431   3.622   0.246  10.133 -0.2399 -0.3208  0.3718
  859MOL0     C18432   3.745   0.292  10.050  0.1136  0.7449 -0.2211
  859MOL0     C18433   3.568   0.119  10.121 -0.2591  0.2731 -0.1659
  859MOL0     C18434   3.622   0.028  10.021  0.4924 -0.3234 -0.2270
  859MOL0     O18435   3.529  -0.009   9.932 -0.3770  0.0785  0.3304
  859MOL0     C18436   3.564  -0.076   9.819 -0.3467 -0.9479  0.7824
  859MOL0     C18437   3.632  -0.200   9.817 -0.1765 -0.2887 -0.1952
  859MOL0     C18438   3.651  -0.274   9.693  0.2934  0.1458  1.2360
  859MOL0     C18439   3.601  -0.227   9.573  0.3857  0.2240  0.6776
  859MOL0     O18440   3.598  -0.307   9.456 -0.5577 -0.7704  0.4339
  859MOL0     C18441   3.599  -0.458   9.471 -0.5833  0.2491  1.0106
  859MOL0     C18442   3.581  -0.536   9.344 -0.0958  0.3316  0.3708
  859MOL0     C18443   3.701  -0.529   9.243  0.8408  0.1230 -0.1168
  859MOL0     C18444   3.668  -0.602   9.117  0.3655 -0.5921 -0.1330
  859MOL0     C18445   3.778  -0.619   9.012  0.3479 -0.6724  0.9506
  859MOL0     C18446   3.740  -0.703   8.883 -0.5517  0.7636 -0.1943
  859MOL0     C18447   3.641  -0.628   8.791 -0.8859 -0.5396  0.7387
  859MOL0     C18448   3.561  -0.726   8.707  1.1233 -0.2812 -0.4161
  859MOL0    Cl18449   3.680  -0.818   8.625 -0.3948  0.2944 -0.0217
  859MOL0     C18450   3.549  -0.099   9.575 -0.8258  0.4695  1.1150
  859MOL0     C18451   3.524  -0.024   9.696 -0.0295 -0.0302  0.0413
  859MOL0     O18452   3.747   0.010  10.013  0.1141 -1.0860  0.3095
  859MOL0     C18453   3.449   0.084  10.198 -0.4108 -0.1145 -0.2288
  859MOL0     C18454   3.388   0.182  10.279 -0.3983  0.7311 -0.0382
  859MOL0     N18455   2.889   0.847  10.175 -0.2716  1.0488 -0.5573
  859MOL0     N18456   2.773   0.863  10.232  0.1868  0.4451 -0.6289
  859MOL0     C18457   1.474   0.573  10.310 -0.0825 -0.2921  0.5189
  859MOL0     C18458   1.338   0.570  10.281 -1.1260  0.0672 -0.6861
  859MOL0     C18459   0.884   0.627  10.375  0.3341 -0.2041 -0.8191
  859MOL0     C18460   0.845   0.493  10.359  0.0847  0.2337 -0.5849
  859MOL0     C18461   0.709   0.457  10.349  0.1219 -0.0370  0.2554
  859MOL0     C18462   0.607   0.564  10.377 -0.1326  0.0874  0.8278
  859MOL0     O18463   0.470   0.544  10.392 -0.6759  0.1419 -0.0011
  859MOL0     C18464   0.423   0.407  10.381 -0.7998  0.2482 -0.7464
  859MOL0     C18465   0.278   0.410  10.412  0.1672  0.9573  0.5438
  859MOL0     C18466   0.223   0.274  10.447 -0.1054  0.7920  0.3980
  859MOL0     C18467   0.072   0.288  10.488 -0.2036  0.0256 -0.5906
  859MOL0     C18468  -0.023   0.268  10.369  0.8212  0.1851 -0.6083
  859MOL0     C18469  -0.108   0.247  10.286  0.0770  0.4621 -0.1162
  859MOL0     C18470   0.648   0.698  10.389 -0.6744 -0.2055  0.6513
  859MOL0     C18471   0.784   0.725  10.391 -0.4871 -0.9819 -0.8718
  859MOL0     C18472   0.821   0.874  10.404 -0.4623  0.5157  0.4082
  859MOL0     H18473   1.207   0.529  10.592 -0.5765  0.2289 -0.4016
  859MOL0     H18474   1.434   0.535  10.653 -2.1157  0.1883  0.4892
  859MOL0     H18475   1.751   0.662  10.352 -2.0341  0.4962 -0.3367
  859MOL0     H18476   1.761   0.480  10.350 -1.7718  0.0481  1.1397
  859MOL0     H18477   1.885   0.623  10.571  1.8952 -0.4018 -1.1557
  859MOL0     H18478   1.890   0.455  10.545  1.0651 -0.4886  0.2156
  859MOL0     H18479   2.040   0.481  10.350 -1.8543  0.3756 -0.6394
  859MOL0     H18480   1.983   0.655  10.325  2.5109  2.2750  1.0597
  859MOL0     H18481   2.110   0.713  10.521 -0.9092  0.6861 -1.2941
  859MOL0     H18482   2.172   0.553  10.539  3.2221 -0.5337 -1.4310
  859MOL0     H18483   2.219   0.705  10.286  0.6192  1.9058  0.7898
  859MOL0     H18484   2.266   0.536  10.309 -0.1156 -0.4717  1.1906
  859MOL0     H18485   2.370   0.780  10.454  1.9999 -0.2315 -0.7342
  859MOL0     H18486   2.419   0.613  10.498 -3.3971 -1.9243  0.5839
  859MOL0     H18487   2.467   0.751  10.235  2.2504  1.2546  0.9334
  859MOL0     H18488   2.494   0.577  10.286 -4.4226 -1.4684  1.7422
  859MOL0     H18489   2.601   0.829  10.430  0.8289  1.0275 -1.0289
  859MOL0     H18490   2.639   0.667  10.458 -0.0399  1.2406  0.4856
  859MOL0     H18491   2.817   0.543  10.295 -4.4273  0.7315  1.4781
  859MOL0     H18492   3.098   0.739  10.097  0.5259 -0.2888 -2.7607
  859MOL0     H18493   3.020   0.579  10.062 -2.2224  1.7190 -0.9106
  859MOL0     H18494   3.096   0.648  10.351 -0.5270 -1.4841  0.7259
  859MOL0     H18495   3.088   0.495  10.267 -1.9877  0.0080  1.4708
  859MOL0     H18496   3.295   0.548  10.137 -0.0390  1.7948 -1.9219
  859MOL0     H18497   3.315   0.700  10.212 -1.5107  0.1347 -0.8447
  859MOL0     H18498   3.460   0.582  10.363 -0.2941  0.3082  1.2859
  859MOL0     H18499   3.325   0.564  10.454  0.8330  1.2070  0.2968
  859MOL0     H18500   3.613   0.429  10.207  1.8154 -1.2675  0.0240
  859MOL0     H18501   3.727   0.272   9.944 -0.0168  0.4329 -0.1410
  859MOL0     H18502   3.831   0.235  10.085  1.0610  2.2084 -0.0496
  859MOL0     H18503   3.768   0.398  10.067 -0.1335  0.9060 -0.8548
  859MOL0     H18504   3.665  -0.246   9.910  1.2811  4.2860  1.8712
  859MOL0     H18505   3.691  -0.375   9.696 -0.8714 -0.3255  1.2795
  859MOL0     H18506   3.699  -0.477   9.510 -0.2174  1.1680  0.5522
  859MOL0     H18507   3.528  -0.505   9.541 -0.8976 -0.4114  0.2539
  859MOL0     H18508   3.570  -0.644   9.361  1.1187 -0.3026 -2.2932
  859MOL0     H18509   3.494  -0.511   9.283 -0.4775 -1.7475 -0.0175
  859MOL0     H18510   3.783  -0.580   9.295 -1.8481 -1.1304  3.3436
  859MOL0     H18511   3.722  -0.424   9.222  2.4909 -0.1712 -0.0761
  859MOL0     H18512   3.586  -0.547   9.068 -2.3479 -1.6653  2.8627
  859MOL0     H18513   3.626  -0.699   9.145 -2.1275  0.2404 -0.7044
  859MOL0     H18514   3.807  -0.523   8.967  2.3824 -0.8644  1.7214
  859MOL0     H18515   3.865  -0.671   9.054  3.7780  2.4260 -1.6189
  859MOL0     H18516   3.699  -0.798   8.916  2.8970 -0.9938 -0.4709
  859MOL0     H18517   3.833  -0.715   8.827 -1.2740 -0.7421 -1.1383
  859MOL0     H18518   3.703  -0.563   8.728 -0.1206 -0.6852  1.3138
  859MOL0     H18519   3.567  -0.575   8.852  0.0501  0.9150  0.6626
  859MOL0     H18520   3.498  -0.674   8.634 -1.3971  1.7913  2.9329
  859MOL0     H18521   3.492  -0.781   8.771 -1.0281  1.7665 -0.8096
  859MOL0     H18522   3.521  -0.054   9.480 -1.9307  1.5108  1.9097
  859MOL0     H18523   3.502   0.082   9.684  1.7657  0.2955 -0.6068
  859MOL0     H18524   3.408  -0.016  10.190 -1.4595  0.3707 -1.2512
  859MOL0     H18525   3.296   0.159  10.331 -1.4638  2.5958 -0.9780
  859MOL0     H18526   1.543   0.573  10.227 -1.3348 -4.7276 -0.8041
  859MOL0     H18527   1.296   0.577  10.182 -1.3149  0.3692 -0.5854
  859MOL0     H18528   0.920   0.415  10.355  0.6962  0.6596  1.3715
  859MOL0     H18529   0.690   0.351  10.329  1.6658  0.1171 -2.5322
  859MOL0     H18530   0.441   0.350  10.289 -0.8666 -1.4924  0.2764
  859MOL0     H18531   0.479   0.352  10.457 -0.2831 -3.0207 -3.2698
  859MOL0     H18532   0.222   0.468  10.337 -3.4228  0.1501  2.3591
  859MOL0     H18533   0.266   0.474  10.499 -0.4797  0.5445  0.7703
  859MOL0     H18534   0.222   0.197  10.369 -0.4577  0.0974  1.0748
  859MOL0     H18535   0.278   0.238  10.534  1.2358  1.6939 -0.0550
  859MOL0     H18536   0.054   0.386  10.533  0.9201 -0.0574  0.0646
  859MOL0     H18537   0.067   0.203  10.556 -0.3386 -0.6098 -1.3784
  859MOL0     H18538  -0.184   0.229  10.212  0.0227  3.3974 -0.9047
  859MOL0     H18539   0.576   0.778  10.391 -2.2398 -1.5647  0.5483
  859MOL0     H18540   0.728   0.931  10.410 -2.3839 -1.7629 -3.4902
  859MOL0     H18541   0.872   0.909  10.494 -0.6752  3.2462 -0.4222
  859MOL0     H18542   0.873   0.909  10.314 -2.0922 -0.1146 -0.8361
  860MOL0     O18543   0.156   8.021   2.304 -0.6531 -0.0427  0.1811
  860MOL0     C18544   0.202   7.965   2.205  0.0746 -0.2617  0.1418
  860MOL0     O18545   0.190   7.833   2.171 -0.1579  0.1455 -0.8946
  860MOL0     C18546   0.135   7.738   2.251  0.9682  0.7470 -0.4339
  860MOL0     C18547   0.179   7.605   2.234  0.7118 -0.6811 -0.7363
  860MOL0     C18548   0.128   7.498   2.309  0.1028  0.6666 -0.9405
  860MOL0     C18549   0.015   7.520   2.388 -0.6192  0.4758 -0.3547
  860MOL0     O18550  -0.028   7.422   2.470 -0.4280  0.8283  0.2166
  860MOL0     C18551  -0.148   7.361   2.420  0.2854  0.1551 -0.2419
  860MOL0     C18552  -0.222   7.279   2.528 -0.8879 -0.2552  0.1391
  860MOL0     C18553  -0.344   7.204   2.474  0.4248 -0.0970 -0.7579
  860MOL0     C18554  -0.399   7.120   2.587  0.1618 -0.8503  0.8186
  860MOL0     C18555  -0.513   7.035   2.536  0.2643 -0.4917 -0.1316
  860MOL0     C18556  -0.550   6.917   2.627  0.4082 -0.4255 -0.0342
  860MOL0     C18557  -0.609   6.962   2.761 -0.0141  0.3584  0.0190
  860MOL0     C18558  -0.749   7.023   2.740 -0.3828 -0.1370 -0.0117
  860MOL0     N18559  -0.852   6.917   2.729  0.2730 -0.0945 -0.5531
  860MOL0     C18560  -0.929   6.898   2.621 -0.4028  0.1205  0.4168
  860MOL0     C18561  -0.980   6.768   2.638 -0.5885 -0.2797  0.7949
  860MOL0     C18562  -1.071   6.682   2.544  0.7924  1.0028 -0.5613
  860MOL0     C18563  -1.230   6.689   2.573 -0.9116 -0.0151  0.0604
  860MOL0     C18564  -1.294   6.581   2.659  0.5228  0.8670  0.0576
  860MOL0     C18565  -1.243   6.441   2.645  0.5528 -0.9480 -0.1564
  860MOL0     O18566  -1.124   6.430   2.714  0.1263 -0.4122  0.0556
  860MOL0     C18567  -1.074   6.303   2.731 -0.7144  0.0023 -0.3737
  860MOL0     C18568  -1.110   6.195   2.660  0.0626  0.0210 -0.8634
  860MOL0     C18569  -1.047   6.068   2.675 -0.0319  0.5763 -0.4615
  860MOL0     C18570  -1.103   5.952   2.598 -0.0589  0.5128 -0.0929
  860MOL0     C18571  -0.938   6.055   2.760 -0.1368  0.7496 -0.2181
  860MOL0     C18572  -0.859   5.936   2.801 -0.0003 -0.2031 -0.8561
  860MOL0     O18573  -0.731   5.954   2.832 -1.3465  0.2417 -0.2807
  860MOL0     C18574  -0.646   5.845   2.841  1.1260 -0.0493 -0.4749
  860MOL0     C18575  -0.587   5.804   2.961 -0.4833 -0.4182 -0.8158
  860MOL0     C18576  -0.511   5.694   2.970  0.0555  0.7473 -0.2781
  860MOL0     C18577  -0.478   5.615   2.850 -0.5642  0.0862 -0.0016
  860MOL0     O18578  -0.399   5.502   2.849 -0.0769 -0.6848  0.0142
  860MOL0     C18579  -0.376   5.437   2.975 -0.5861  0.1309  0.4515
  860MOL0     C18580  -0.400   5.287   2.949  0.1448  0.1791 -0.6288
  860MOL0     C18581  -0.546   5.241   2.930 -0.5656  0.8330  0.6052
  860MOL0     C18582  -0.576   5.232   2.780  0.1062 -0.7236 -0.2872
  860MOL0     C18583  -0.714   5.167   2.756  0.1024 -0.3984 -0.2628
  860MOL0     C18584  -0.826   5.252   2.817 -0.0281  0.1254  0.0645
  860MOL0     C18585  -0.854   5.384   2.750 -0.3533 -0.5300 -0.3104
  860MOL0     C18586  -1.008   5.401   2.728  0.2656  0.2942 -1.0987
  860MOL0    Cl18587  -1.073   5.286   2.612 -0.4341 -0.2114  0.2787
  860MOL0     C18588  -0.538   5.658   2.727 -0.3177  0.4233  0.4622
  860MOL0     C18589  -0.616   5.773   2.722  0.2906  0.0530 -0.7632
  860MOL0     O18590  -0.912   5.830   2.806  0.5411  0.4262 -0.3006
  860MOL0     C18591  -0.898   6.162   2.837  0.9891 -0.1647 -1.0707
  860MOL0     C18592  -0.964   6.292   2.823 -0.2352  0.3057  0.0899
  860MOL0     N18593  -0.945   6.720   2.765  0.1790 -0.6322  1.2600
  860MOL0     N18594  -0.869   6.813   2.819 -0.2046  0.4394 -0.0170
  860MOL0     C18595  -0.037   7.651   2.408  0.0622 -0.4162 -0.1714
  860MOL0     C18596   0.025   7.763   2.342  1.0463 -0.3044 -1.4216
  860MOL0     C18597   0.270   8.035   2.099  0.3063  0.3465 -0.2553
  860MOL0     C18598   0.297   7.968   1.971 -0.2752 -0.2355 -0.4074
  860MOL0     C18599   0.371   8.025   1.872 -0.0327  0.2709 -0.6141
  860MOL0     C18600   0.426   8.149   1.885 -0.0692 -0.2940 -1.1894
  860MOL0     O18601   0.486   8.199   1.772 -0.7213  0.0551 -0.3667
  860MOL0     C18602   0.456   8.340   1.741 -0.3576 -0.3223  1.0129
  860MOL0     C18603   0.306   8.374   1.728 -0.2697 -0.1767  0.3727
  860MOL0     C18604   0.299   8.515   1.669  0.5678  0.0803  0.0568
  860MOL0     C18605   0.155   8.547   1.629  0.3824  0.0164 -0.5159
  860MOL0     C18606   0.146   8.688   1.585  0.0601 -1.0542  0.2024
  860MOL0     C18607   0.156   8.812   1.552  0.0276 -0.0700 -0.8890
  860MOL0     C18608   0.405   8.213   2.018 -0.6239 -0.0238  0.3142
  860MOL0     C18609   0.320   8.165   2.115  0.6145  0.1253  0.0499
  860MOL0     C18610   0.310   8.250   2.241  0.8017  0.0168 -0.4930
  860MOL0     H18611   0.260   7.594   2.163 -0.6161  2.2483 -2.9213
  860MOL0     H18612   0.165   7.396   2.309 -0.8759  0.2938 -1.1314
  860MOL0     H18613  -0.126   7.298   2.333 -1.3784 -1.1603  0.2486
  860MOL0     H18614  -0.221   7.433   2.382  1.9393  2.2478  0.2889
  860MOL0     H18615  -0.152   7.211   2.578  3.0288  2.3088 -1.3966
  860MOL0     H18616  -0.259   7.353   2.599 -1.3743 -0.2180 -0.1497
  860MOL0     H18617  -0.418   7.281   2.448  1.0806  0.8753  0.1880
  860MOL0     H18618  -0.324   7.134   2.393  3.2723 -1.1293  0.6963
  860MOL0     H18619  -0.321   7.054   2.626 -1.6458 -3.0454  0.8504
  860MOL0     H18620  -0.426   7.186   2.670 -3.0197 -2.6643  1.3967
  860MOL0     H18621  -0.493   6.983   2.442 -0.9074 -1.9827  0.4063
  860MOL0     H18622  -0.598   7.101   2.514  1.2051  1.4908  1.8089
  860MOL0     H18623  -0.623   6.858   2.571 -1.5085  1.8632 -0.1174
  860MOL0     H18624  -0.462   6.856   2.653 -0.5060  0.0156  5.1561
  860MOL0     H18625  -0.541   7.039   2.798  1.6381 -0.4739 -1.1315
  860MOL0     H18626  -0.595   6.891   2.843  0.5658  0.0582 -0.3335
  860MOL0     H18627  -0.769   7.099   2.817 -0.1268  3.1404 -2.8884
  860MOL0     H18628  -0.747   7.080   2.646  0.7473 -0.3068 -0.0963
  860MOL0     H18629  -0.931   6.967   2.538 -2.1788 -1.3460 -0.8476
  860MOL0     H18630  -1.035   6.579   2.542 -0.7374  0.4212 -2.6564
  860MOL0     H18631  -1.052   6.720   2.443  1.4003  1.2550 -0.3559
  860MOL0     H18632  -1.264   6.788   2.605 -0.7417 -0.0274  0.2801
  860MOL0     H18633  -1.269   6.698   2.471 -1.9598  0.8195  0.5061
  860MOL0     H18634  -1.297   6.616   2.763 -3.1807  2.6158 -0.4664
  860MOL0     H18635  -1.400   6.571   2.634  0.5165  1.6351 -0.2458
  860MOL0     H18636  -1.317   6.370   2.683 -0.8210 -0.9895 -2.6806
  860MOL0     H18637  -1.236   6.430   2.536  0.3939 -0.9499 -0.1657
  860MOL0     H18638  -1.194   6.194   2.591 -0.5414 -0.7667 -0.1456
  860MOL0     H18639  -1.030   5.880   2.559  0.6554 -0.0339  2.1033
  860MOL0     H18640  -1.162   5.981   2.511 -1.9721  0.6199  1.1488
  860MOL0     H18641  -1.171   5.888   2.656  2.9000 -2.0117  0.8731
  860MOL0     H18642  -0.590   5.874   3.044  0.0702 -0.7395 -0.5165
  860MOL0     H18643  -0.454   5.675   3.060  0.8157 -0.1106 -0.9306
  860MOL0     H18644  -0.271   5.446   3.004 -0.7347  0.0817  1.0249
  860MOL0     H18645  -0.428   5.476   3.064 -0.0738  1.1874  0.3092
  860MOL0     H18646  -0.351   5.257   2.856  2.1233 -0.2231  0.4751
  860MOL0     H18647  -0.350   5.227   3.026 -0.8821 -0.9277 -0.7873
  860MOL0     H18648  -0.604   5.320   2.979  0.6423  1.5818  0.8694
  860MOL0     H18649  -0.559   5.146   2.982  0.1105 -0.4340 -1.4325
  860MOL0     H18650  -0.506   5.169   2.724 -0.1688  0.0639 -1.5434
  860MOL0     H18651  -0.568   5.327   2.727  1.7995  1.2842  3.2016
  860MOL0     H18652  -0.724   5.142   2.650  3.3628 -1.8513 -0.3314
  860MOL0     H18653  -0.709   5.066   2.798  1.0543  0.8796  2.9705
  860MOL0     H18654  -0.807   5.264   2.924  1.3969 -1.5481  0.0472
  860MOL0     H18655  -0.917   5.192   2.812 -0.8783  1.4043 -0.1186
  860MOL0     H18656  -0.805   5.403   2.654  0.5982  2.4927  0.6644
  860MOL0     H18657  -0.826   5.470   2.811  0.9758  1.3891 -3.3875
  860MOL0     H18658  -1.041   5.498   2.690 -2.2157  0.2723  0.7315
  860MOL0     H18659  -1.053   5.379   2.826 -0.0327  1.7715 -0.8860
  860MOL0     H18660  -0.530   5.592   2.641  0.2548  1.0369  0.0359
  860MOL0     H18661  -0.654   5.810   2.628  0.5241  1.9834 -0.1490
  860MOL0     H18662  -0.813   6.162   2.904 -0.6704  1.5336  1.2255
  860MOL0     H18663  -0.920   6.377   2.874 -2.9150  1.8486  0.0304
  860MOL0     H18664  -0.125   7.663   2.471 -1.1567 -0.0862 -1.8632
  860MOL0     H18665  -0.001   7.866   2.366  3.8799  0.1028  0.3037
  860MOL0     H18666   0.247   7.873   1.954  0.7024 -0.4015 -2.7137
  860MOL0     H18667   0.381   7.966   1.781 -1.8969  2.6909 -2.5332
  860MOL0     H18668   0.500   8.396   1.824  0.6087 -0.0772  0.3516
  860MOL0     H18669   0.502   8.362   1.645  1.1200 -2.0007  1.2785
  860MOL0     H18670   0.256   8.362   1.825 -1.2581 -0.0633 -0.1095
  860MOL0     H18671   0.263   8.300   1.660  0.2224  2.5275 -3.2074
  860MOL0     H18672   0.333   8.582   1.749  3.1474  3.0610 -3.2235
  860MOL0     H18673   0.364   8.542   1.586  2.0479  0.7623  1.3848
  860MOL0     H18674   0.088   8.529   1.714  2.4311  1.4293  1.5333
  860MOL0     H18675   0.125   8.489   1.542 -0.9193  2.2585 -1.6633
  860MOL0     H18676   0.133   8.916   1.548 -1.8346 -0.1202  3.1356
  860MOL0     H18677   0.460   8.306   2.033  0.0667  0.1366 -2.5882
  860MOL0     H18678   0.221   8.315   2.239  2.2771  2.1414 -1.3448
  860MOL0     H18679   0.313   8.191   2.333 -1.5483 -0.0284 -0.3735
  860MOL0     H18680   0.393   8.321   2.236  1.0794 -0.3182 -0.5748
  861MOL0     O18681   7.357   7.759   1.461 -0.3031 -0.5140  0.1803
  861MOL0     C18682   7.249   7.743   1.400 -0.1874 -0.5368  0.2939
  861MOL0     O18683   7.131   7.723   1.458  0.2549 -0.5736 -0.9120
  861MOL0     C18684   7.126   7.737   1.594 -0.8214 -0.3115 -0.5935
  861MOL0     C18685   7.179   7.831   1.682 -0.0578 -0.2935  1.0189
  861MOL0     C18686   7.148   7.841   1.812 -0.0081 -0.2637 -0.0746
  861MOL0     C18687   7.053   7.758   1.869 -0.9222  0.0594  0.8908
  861MOL0     O18688   7.026   7.761   2.005  0.2984 -0.0143 -0.7700
  861MOL0     C18689   6.888   7.741   2.035  0.4079  0.3174  0.8352
  861MOL0     C18690   6.860   7.775   2.179 -0.1898  0.4100 -0.8675
  861MOL0     C18691   6.952   7.702   2.274 -0.1894  0.0236 -0.1445
  861MOL0     C18692   6.911   7.750   2.417  1.2784 -0.8543  0.5562
  861MOL0     C18693   7.001   7.706   2.539 -0.7098 -0.4370  0.4344
  861MOL0     C18694   6.973   7.565   2.577  0.1571  0.1499  0.2801
  861MOL0     C18695   7.068   7.556   2.703  0.2607 -0.6647 -0.3520
  861MOL0     C18696   7.061   7.420   2.791 -1.0831 -0.3857 -0.0415
  861MOL0     N18697   7.153   7.444   2.908  1.2374 -0.2848 -0.7878
  861MOL0     C18698   7.288   7.416   2.915  0.7921 -0.4173 -0.2664
  861MOL0     C18699   7.334   7.501   3.011 -0.3064 -0.8023  0.4789
  861MOL0     C18700   7.476   7.480   3.064  0.1568 -0.2872  0.0943
  861MOL0     C18701   7.490   7.507   3.217  0.6309  1.0267 -0.0212
  861MOL0     C18702   7.638   7.480   3.261  0.4778  0.0991  0.2416
  861MOL0     C18703   7.655   7.493   3.401  0.4370  0.0254  0.2849
  861MOL0     O18704   7.617   7.370   3.458  0.3428  0.3592 -0.4004
  861MOL0     C18705   7.567   7.364   3.593 -0.1784 -0.9007 -0.4881
  861MOL0     C18706   7.433   7.315   3.603  0.2006 -0.2141 -0.3170
  861MOL0     C18707   7.371   7.309   3.727 -0.0888 -0.6813  0.4151
  861MOL0     C18708   7.231   7.255   3.738  0.1407 -0.1233  0.8271
  861MOL0     C18709   7.439   7.366   3.837  0.0793 -0.3850 -0.0271
  861MOL0     C18710   7.381   7.377   3.975 -0.2177 -0.4201  0.1362
  861MOL0     O18711   7.321   7.493   4.012  0.0706 -0.1903 -0.5567
  861MOL0     C18712   7.251   7.489   4.129 -0.0303 -0.0648  0.0680
  861MOL0     C18713   7.111   7.498   4.134  0.5915 -0.5123  0.3636
  861MOL0     C18714   7.051   7.500   4.257 -1.2405 -0.3730 -0.8248
  861MOL0     C18715   7.120   7.490   4.380 -0.8671  0.1584  0.3830
  861MOL0     O18716   7.037   7.486   4.495  0.9196  0.5766  0.3239
  861MOL0     C18717   7.098   7.555   4.608  0.0721 -0.8355 -0.3046
  861MOL0     C18718   6.988   7.581   4.709 -0.8768 -0.5672 -1.3702
  861MOL0     C18719   7.050   7.626   4.850 -0.2595 -0.5069 -0.2113
  861MOL0     C18720   6.954   7.637   4.966 -0.5027 -0.4483 -0.6148
  861MOL0     C18721   6.898   7.772   4.978  0.2601  0.3730  0.5738
  861MOL0     C18722   6.802   7.780   5.090  0.0022 -0.9202  0.2564
  861MOL0     C18723   6.740   7.919   5.087 -0.1494  0.0584  0.1106
  861MOL0     C18724   6.633   7.927   5.194 -0.2529 -0.9347  0.6861
  861MOL0    Cl18725   6.709   7.921   5.358  0.2634  0.0608  0.4056
  861MOL0     C18726   7.256   7.471   4.375 -1.0123  0.1110  0.4712
  861MOL0     C18727   7.320   7.468   4.249  0.7784  1.6303  0.9035
  861MOL0     O18728   7.390   7.270   4.043 -0.2785 -0.4564  0.0571
  861MOL0     C18729   7.564   7.431   3.832 -0.1314  0.1072 -0.7735
  861MOL0     C18730   7.631   7.423   3.708  0.2402  0.4716 -0.5101
  861MOL0     N18731   7.237   7.583   3.057  0.7225 -0.6257  0.1339
  861MOL0     N18732   7.127   7.544   3.005  0.3679  0.0881 -0.3445
  861MOL0     C18733   7.011   7.649   1.785  0.0893  0.7665  0.4741
  861MOL0     C18734   7.040   7.644   1.650  0.3306 -0.4978 -0.7249
  861MOL0     C18735   7.248   7.742   1.259 -0.3109  0.0656  0.5281
  861MOL0     C18736   7.350   7.817   1.190 -0.2073  0.2543  0.8601
  861MOL0     C18737   7.352   7.826   1.048  0.1568  0.4059  0.1600
  861MOL0     C18738   7.241   7.762   0.978 -0.4101 -0.6035 -0.9892
  861MOL0     O18739   7.251   7.748   0.840 -0.3954 -0.5216 -0.3000
  861MOL0     C18740   7.196   7.868   0.767 -0.4120  0.7280  0.6191
  861MOL0     C18741   7.236   7.831   0.622  0.3035  0.9953  1.2902
  861MOL0     C18742   7.387   7.835   0.587 -0.2400  1.2459 -0.8558
  861MOL0     C18743   7.426   7.745   0.476  0.2724  0.8906  0.3548
  861MOL0     C18744   7.378   7.784   0.343  0.3135  0.8916  0.0098
  861MOL0     C18745   7.339   7.817   0.234 -0.3960 -0.6668 -0.3090
  861MOL0     C18746   7.141   7.699   1.046  0.6450 -0.3171 -0.2812
  861MOL0     C18747   7.147   7.683   1.184  0.5198 -0.2890 -0.4068
  861MOL0     C18748   7.037   7.581   1.241  0.5308  0.4843 -0.5620
  861MOL0     H18749   7.248   7.902   1.637 -0.1217 -1.3236 -0.8264
  861MOL0     H18750   7.201   7.914   1.874  0.0124  0.3326 -0.7847
  861MOL0     H18751   6.870   7.634   2.019  1.6548  0.5366 -2.9673
  861MOL0     H18752   6.821   7.788   1.963 -0.5153 -2.0393  0.0442
  861MOL0     H18753   6.883   7.881   2.196 -1.3460  0.3859  1.1149
  861MOL0     H18754   6.756   7.755   2.208 -0.8004 -1.5365 -3.9562
  861MOL0     H18755   6.946   7.596   2.250 -0.4844  0.6828 -3.4406
  861MOL0     H18756   7.052   7.740   2.255 -0.2808  0.4678  0.2378
  861MOL0     H18757   6.903   7.859   2.423 -1.4481 -1.0093  1.4852
  861MOL0     H18758   6.812   7.708   2.436 -0.1235  1.1996 -1.7049
  861MOL0     H18759   6.967   7.767   2.623  2.8307  3.4801 -0.6757
  861MOL0     H18760   7.106   7.728   2.519 -1.6927  1.3163 -3.8425
  861MOL0     H18761   6.867   7.550   2.598  0.5632  0.2572  2.7076
  861MOL0     H18762   7.007   7.501   2.495 -1.5683  0.9058 -1.0978
  861MOL0     H18763   7.036   7.639   2.767 -0.6499 -0.2829 -1.2694
  861MOL0     H18764   7.170   7.577   2.670  0.1045  0.5142 -0.1080
  861MOL0     H18765   6.960   7.408   2.833 -0.3333  2.8624  3.1785
  861MOL0     H18766   7.094   7.330   2.739  1.1608  0.8297 -0.8205
  861MOL0     H18767   7.338   7.329   2.873 -1.7978 -2.7854  1.2534
  861MOL0     H18768   7.542   7.549   3.012 -0.8393  0.2931 -0.4291
  861MOL0     H18769   7.494   7.372   3.053 -1.5840 -0.8248  1.8700
  861MOL0     H18770   7.446   7.607   3.213 -0.4044  0.5489 -1.8730
  861MOL0     H18771   7.427   7.441   3.277 -0.2958  1.0951 -0.8839
  861MOL0     H18772   7.681   7.385   3.226  0.9248  1.2419 -2.6296
  861MOL0     H18773   7.698   7.553   3.206 -2.0431  1.7555 -0.4960
  861MOL0     H18774   7.757   7.515   3.435  0.8042  1.4365 -1.5490
  861MOL0     H18775   7.587   7.571   3.436 -0.8148  0.0937 -2.1204
  861MOL0     H18776   7.377   7.263   3.526  0.6643 -0.4466 -0.5034
  861MOL0     H18777   7.167   7.272   3.650 -0.4557 -3.5445  0.4803
  861MOL0     H18778   7.175   7.292   3.824 -1.9525 -0.0743 -0.4950
  861MOL0     H18779   7.242   7.147   3.746  2.8207  0.0510  0.5889
  861MOL0     H18780   7.067   7.515   4.037  3.4476 -2.7457 -1.5050
  861MOL0     H18781   6.945   7.521   4.269 -1.4322  0.5651 -3.4911
  861MOL0     H18782   7.180   7.493   4.645  0.2731 -0.3952 -0.0049
  861MOL0     H18783   7.144   7.650   4.579 -1.2692 -0.9623 -3.2082
  861MOL0     H18784   6.927   7.665   4.674 -0.7987  0.6209  1.0790
  861MOL0     H18785   6.926   7.493   4.728 -0.2802 -1.0970 -1.8460
  861MOL0     H18786   7.101   7.722   4.834 -2.6444  0.9185  0.2090
  861MOL0     H18787   7.114   7.551   4.897  1.9221  1.5333  0.2875
  861MOL0     H18788   7.008   7.629   5.061 -0.5423  1.1558 -0.4244
  861MOL0     H18789   6.872   7.564   4.966 -0.2310 -0.7596 -1.5532
  861MOL0     H18790   6.975   7.849   4.990 -0.9364  1.4431  1.7213
  861MOL0     H18791   6.838   7.786   4.888 -0.2411 -2.2205  0.4387
  861MOL0     H18792   6.856   7.774   5.184  4.0269  2.5205 -1.5069
  861MOL0     H18793   6.730   7.699   5.075 -1.0936  0.2210 -1.0158
  861MOL0     H18794   6.697   7.934   4.987 -0.7609  0.6588  0.4554
  861MOL0     H18795   6.818   7.996   5.085  1.9730 -1.7176 -5.4202
  861MOL0     H18796   6.562   7.844   5.194 -0.8201 -0.4594  0.7840
  861MOL0     H18797   6.580   8.023   5.192 -3.0769 -2.3948  0.9796
  861MOL0     H18798   7.316   7.457   4.464  0.0823 -1.0915 -0.4110
  861MOL0     H18799   7.427   7.459   4.233  0.3337 -0.5287 -1.4733
  861MOL0     H18800   7.609   7.462   3.925  1.6163 -4.7439  0.3147
  861MOL0     H18801   7.724   7.478   3.700  1.6019 -0.6946  4.0753
  861MOL0     H18802   6.965   7.564   1.835  2.6172 -0.3834  1.0432
  861MOL0     H18803   7.005   7.554   1.600  0.3648  0.1718 -1.9764
  861MOL0     H18804   7.429   7.860   1.250  0.0331  2.0768 -0.6558
  861MOL0     H18805   7.435   7.863   0.989  0.7660 -0.6018  0.3588
  861MOL0     H18806   7.089   7.878   0.787 -0.3300  0.2458  1.3518
  861MOL0     H18807   7.236   7.965   0.798 -0.3767  0.3591  1.7633
  861MOL0     H18808   7.182   7.880   0.541 -1.9823 -3.1913  0.0086
  861MOL0     H18809   7.199   7.730   0.601  3.7430 -0.2716  0.6763
  861MOL0     H18810   7.438   7.930   0.570  3.1035  0.5180  3.5674
  861MOL0     H18811   7.441   7.795   0.673 -0.2209 -0.2259 -1.5202
  861MOL0     H18812   7.395   7.640   0.484  1.2616 -0.0762 -4.7235
  861MOL0     H18813   7.534   7.756   0.462  0.0241  4.8903  0.5422
  861MOL0     H18814   7.319   7.878   0.149  1.6094  0.7968  0.1733
  861MOL0     H18815   7.084   7.627   0.988  2.3228 -0.2225 -2.1555
  861MOL0     H18816   7.066   7.515   1.323  1.2908  2.9239  1.2409
  861MOL0     H18817   6.940   7.624   1.269  0.3803  1.0389 -1.8444
  861MOL0     H18818   7.007   7.516   1.158 -0.1105 -0.3649  0.3029
  862MOL0     O18819   8.142   5.286   6.648 -0.1042 -0.3978 -0.3036
  862MOL0     C18820   8.044   5.223   6.617 -0.3577 -0.2267 -0.1530
  862MOL0     O18821   7.927   5.275   6.591 -0.0012 -0.1632 -0.7552
  862MOL0     C18822   7.919   5.413   6.562  0.6454 -0.5186 -0.2242
  862MOL0     C18823   7.935   5.455   6.427 -0.1362 -0.5779  0.4199
  862MOL0     C18824   7.941   5.591   6.399  0.4964 -0.9692 -0.1386
  862MOL0     C18825   7.929   5.689   6.500  0.2196 -0.6824  0.6648
  862MOL0     O18826   7.973   5.823   6.483  0.3524 -0.3654  0.0862
  862MOL0     C18827   7.921   5.889   6.363 -0.4070 -1.0889  0.6836
  862MOL0     C18828   7.987   6.030   6.355  0.4042 -0.7690  0.0821
  862MOL0     C18829   8.130   6.038   6.308  0.4370 -0.2273  1.1954
  862MOL0     C18830   8.165   6.184   6.274 -0.2219 -0.9272  0.1495
  862MOL0     C18831   8.316   6.204   6.244  0.0006  1.2082 -0.1443
  862MOL0     C18832   8.337   6.149   6.100  0.5628 -0.4416 -0.2835
  862MOL0     C18833   8.491   6.159   6.057 -0.0968 -0.1792  0.0534
  862MOL0     C18834   8.534   6.126   5.913 -0.2300  0.0018  1.0758
  862MOL0     N18835   8.510   5.980   5.902 -0.2910  0.5782  0.0435
  862MOL0     C18836   8.598   5.886   5.949 -0.0073  0.2082 -0.0471
  862MOL0     C18837   8.521   5.777   5.950  1.0227  0.4115 -0.3259
  862MOL0     C18838   8.558   5.649   6.017  0.1918 -0.4725 -0.6863
  862MOL0     C18839   8.627   5.538   5.935  0.1376 -0.8848  0.7444
  862MOL0     C18840   8.613   5.399   5.999 -0.0085 -0.0644  0.5825
  862MOL0     C18841   8.719   5.315   5.927  0.6943  0.1537  0.0938
  862MOL0     O18842   8.843   5.339   6.004  0.0578 -0.0657 -0.4869
  862MOL0     C18843   8.960   5.300   5.945 -0.2742  0.2433  1.5764
  862MOL0     C18844   9.079   5.361   5.993 -0.6331  0.8033 -0.1517
  862MOL0     C18845   9.207   5.318   5.952  0.3854 -0.9919 -0.4933
  862MOL0     C18846   9.317   5.397   6.019  0.5156 -0.4819  1.2715
  862MOL0     C18847   9.214   5.218   5.849 -1.0225  0.0852  0.3589
  862MOL0     C18848   9.342   5.154   5.792  0.4079 -0.4919 -0.4257
  862MOL0     O18849   9.336   5.081   5.671 -0.6729  0.0076 -0.2970
  862MOL0     C18850   9.465   5.037   5.626  0.4228  0.9374  1.2192
  862MOL0     C18851   9.484   4.895   5.595 -0.5505 -0.8782 -0.6505
  862MOL0     C18852   9.613   4.851   5.551  0.3903 -0.4332  0.7394
  862MOL0     C18853   9.717   4.936   5.517  0.2214  0.2809  0.6257
  862MOL0     O18854   9.846   4.909   5.480 -0.9410 -0.5348 -0.1628
  862MOL0     C18855   9.890   4.774   5.501  0.4726 -0.5078  0.1589
  862MOL0     C18856  10.033   4.776   5.464 -0.4468 -0.1110  0.6165
  862MOL0     C18857  10.059   4.737   5.320  0.3634 -1.0595 -0.5291
  862MOL0     C18858  10.175   4.807   5.258  0.6087 -0.2236 -0.1959
  862MOL0     C18859  10.241   4.723   5.150  0.4375  0.3235  0.4639
  862MOL0     C18860  10.358   4.804   5.086 -0.4305 -0.6086  0.2443
  862MOL0     C18861  10.296   4.904   4.987  0.5079  0.0774  0.8168
  862MOL0     C18862  10.284   4.867   4.838  0.4343 -0.2484  0.1781
  862MOL0    Cl18863  10.432   4.803   4.765 -0.2769 -0.0582 -0.0934
  862MOL0     C18864   9.691   5.074   5.540  0.4329  0.0337  0.6749
  862MOL0     C18865   9.565   5.125   5.583 -0.9523  0.8317 -0.3640
  862MOL0     O18866   9.445   5.182   5.856  0.4072 -0.5874 -0.2483
  862MOL0     C18867   9.098   5.168   5.788  0.2245 -0.2394 -1.1494
  862MOL0     C18868   8.972   5.204   5.840  0.2448  0.1009 -0.4577
  862MOL0     N18869   8.398   5.815   5.900  1.7158  0.0969 -0.6666
  862MOL0     N18870   8.395   5.932   5.871 -0.5163  0.4024  0.2738
  862MOL0     C18871   7.903   5.635   6.635  0.4192 -0.5812  0.2791
  862MOL0     C18872   7.890   5.508   6.665 -0.8713  0.1860 -0.1774
  862MOL0     C18873   8.057   5.072   6.616 -0.4045  0.4546 -1.0753
  862MOL0     C18874   7.936   5.005   6.628 -0.6331  1.6189  0.4903
  862MOL0     C18875   7.933   4.863   6.644 -0.3625 -0.2396  0.1879
  862MOL0     C18876   8.050   4.778   6.650 -0.1744 -0.2568 -0.3319
  862MOL0     O18877   8.040   4.640   6.663 -0.7289 -0.7077  0.3051
  862MOL0     C18878   8.134   4.579   6.748  0.3692  0.0309  0.3608
  862MOL0     C18879   8.243   4.498   6.685 -0.0549  0.8662 -0.0894
  862MOL0     C18880   8.313   4.417   6.793  0.2695 -0.1484 -1.1596
  862MOL0     C18881   8.419   4.319   6.759 -0.0895  0.5725  0.3290
  862MOL0     C18882   8.523   4.373   6.661  0.1381 -0.7032 -0.3384
  862MOL0     C18883   8.606   4.429   6.590  0.6178 -0.4364 -0.7970
  862MOL0     C18884   8.169   4.849   6.645 -0.3846 -1.3087  0.9444
  862MOL0     C18885   8.172   4.991   6.619  0.3187 -0.6944 -0.6839
  862MOL0     C18886   8.311   5.044   6.573 -0.1780 -0.1849  0.5796
  862MOL0     H18887   7.933   5.379   6.350 -4.2502 -1.5275  1.2458
  862MOL0     H18888   7.966   5.627   6.299 -1.3032 -1.4773 -0.8072
  862MOL0     H18889   7.814   5.901   6.382  0.0729  1.6964  2.1358
  862MOL0     H18890   7.929   5.829   6.272  1.3249  0.2168 -0.0935
  862MOL0     H18891   7.930   6.097   6.290  2.0111  2.2244  1.5841
  862MOL0     H18892   7.969   6.070   6.455 -2.9203 -2.0982  0.1712
  862MOL0     H18893   8.195   6.003   6.389 -1.5040 -1.0808  2.4704
  862MOL0     H18894   8.135   5.967   6.224  0.3503  1.4036 -0.2543
  862MOL0     H18895   8.101   6.217   6.191 -0.2267 -0.5416  0.3049
  862MOL0     H18896   8.140   6.252   6.356  1.8948  1.9854 -1.4447
  862MOL0     H18897   8.381   6.161   6.321  2.5505  6.0130  0.8082
  862MOL0     H18898   8.341   6.310   6.251 -0.8859  1.3542  1.1946
  862MOL0     H18899   8.309   6.043   6.093  1.3585 -0.7669  1.1933
  862MOL0     H18900   8.267   6.192   6.028  0.4616 -0.3011 -0.1017
  862MOL0     H18901   8.552   6.096   6.124  0.5052  1.2429  0.8812
  862MOL0     H18902   8.513   6.265   6.073  0.5584 -0.4959  1.3977
  862MOL0     H18903   8.468   6.190   5.853 -0.6498 -2.1239 -0.8728
  862MOL0     H18904   8.641   6.150   5.906  0.0807 -1.0514  1.9621
  862MOL0     H18905   8.699   5.906   5.985 -1.0522  2.4192  1.9596
  862MOL0     H18906   8.467   5.599   6.051  1.5282 -2.6372 -0.0886
  862MOL0     H18907   8.621   5.668   6.105  0.8281 -0.7019 -1.0867
  862MOL0     H18908   8.570   5.543   5.842 -0.4882  1.0639  1.1938
  862MOL0     H18909   8.734   5.560   5.928 -0.2178  0.3793 -1.5896
  862MOL0     H18910   8.630   5.400   6.107  1.4279 -3.0182  0.4894
  862MOL0     H18911   8.521   5.345   5.972 -0.9693  1.7426  0.0938
  862MOL0     H18912   8.684   5.211   5.932  2.0345 -0.4681 -2.1523
  862MOL0     H18913   8.725   5.331   5.819 -0.1545  1.2828  0.1944
  862MOL0     H18914   9.065   5.437   6.069  2.4618  0.7116  0.6464
  862MOL0     H18915   9.371   5.337   6.092 -1.8567  0.0725  3.6484
  862MOL0     H18916   9.289   5.484   6.080  1.1160  0.2233  0.5592
  862MOL0     H18917   9.379   5.441   5.940 -0.8369 -1.3262 -0.3218
  862MOL0     H18918   9.402   4.828   5.622 -2.2876  1.4680  0.2223
  862MOL0     H18919   9.624   4.744   5.540 -0.7051 -0.3562 -2.4055
  862MOL0     H18920   9.884   4.748   5.606  0.4314  1.1520  0.6051
  862MOL0     H18921   9.841   4.700   5.437  1.5037 -3.1425  2.2656
  862MOL0     H18922  10.071   4.873   5.499 -0.2438  2.0895 -4.7390
  862MOL0     H18923  10.083   4.699   5.523 -2.1366 -0.9291  1.0571
  862MOL0     H18924   9.970   4.763   5.263  0.4953  4.1671  1.1511
  862MOL0     H18925  10.069   4.628   5.319  1.1729 -0.9917 -0.4418
  862MOL0     H18926  10.249   4.816   5.338  3.4161 -0.8781 -2.5349
  862MOL0     H18927  10.154   4.911   5.233  0.8124 -0.6420 -2.3082
  862MOL0     H18928  10.273   4.623   5.181  0.9568 -0.6100 -2.7645
  862MOL0     H18929  10.184   4.695   5.061 -1.3109  1.0294  1.3018
  862MOL0     H18930  10.435   4.744   5.038  2.4853  2.2995  0.9457
  862MOL0     H18931  10.416   4.854   5.164 -0.3485  0.3955 -0.4346
  862MOL0     H18932  10.374   4.981   4.980  0.2728  0.2322 -0.2282
  862MOL0     H18933  10.207   4.952   5.027  1.1256  2.3342 -0.3032
  862MOL0     H18934  10.237   4.948   4.781  1.1302 -1.3862 -2.1607
  862MOL0     H18935  10.216   4.782   4.824  0.3560 -0.3994  1.4163
  862MOL0     H18936   9.768   5.142   5.506 -0.8597  0.7021 -1.0894
  862MOL0     H18937   9.550   5.232   5.582  0.1981  1.0490 -2.8323
  862MOL0     H18938   9.101   5.091   5.712  1.4825  1.7437 -3.2489
  862MOL0     H18939   8.877   5.154   5.825 -0.1378 -0.8894  3.8972
  862MOL0     H18940   7.897   5.719   6.702 -0.5810  0.5843 -1.2024
  862MOL0     H18941   7.864   5.475   6.765 -0.8528 -2.1783 -0.8988
  862MOL0     H18942   7.839   5.052   6.625 -2.6118 -1.9797  2.3171
  862MOL0     H18943   7.835   4.816   6.635 -0.4566 -0.0884  0.4186
  862MOL0     H18944   8.176   4.646   6.823  0.3867  0.5027 -0.0567
  862MOL0     H18945   8.075   4.502   6.799  4.4854 -2.7580  1.3627
  862MOL0     H18946   8.317   4.565   6.641 -1.1977  1.0281 -1.8607
  862MOL0     H18947   8.202   4.431   6.610 -0.3134  2.2552 -1.2416
  862MOL0     H18948   8.354   4.492   6.861 -2.1640 -0.7262  1.1045
  862MOL0     H18949   8.231   4.361   6.839 -0.6134  0.9028 -1.4181
  862MOL0     H18950   8.376   4.234   6.704 -0.9599  0.4740  1.1391
  862MOL0     H18951   8.463   4.283   6.852  0.1795  0.3405  0.1139
  862MOL0     H18952   8.672   4.496   6.540  3.4279 -1.8543  0.7321
  862MOL0     H18953   8.261   4.796   6.667 -1.5520 -2.4810  3.3185
  862MOL0     H18954   8.326   5.145   6.613 -3.2003  0.3565  0.5725
  862MOL0     H18955   8.392   4.983   6.612 -0.3580 -0.7414  0.0935
  862MOL0     H18956   8.325   5.059   6.465  0.0571  0.3443  0.6753
  863MOL0     O18957   4.189   3.457   2.312 -0.2409 -0.4933  0.5378
  863MOL0     C18958   4.281   3.549   2.332  0.9520  0.2341  0.2949
  863MOL0     O18959   4.304   3.654   2.247  0.7138 -0.3323  0.4486
  863MOL0     C18960   4.191   3.704   2.180 -0.5335 -0.3462 -1.2436
  863MOL0     C18961   4.213   3.780   2.069 -0.3132  0.6312  0.2630
  863MOL0     C18962   4.106   3.849   2.013 -0.2945  0.8844 -0.1071
  863MOL0     C18963   3.978   3.846   2.062 -1.0663  0.0348  0.2873
  863MOL0     O18964   3.885   3.932   2.017  0.1453  0.3857 -0.3924
  863MOL0     C18965   3.904   4.007   1.902 -0.3519  1.4858 -0.8764
  863MOL0     C18966   3.904   4.147   1.960 -0.1056 -0.7329 -0.3959
  863MOL0     C18967   3.857   4.257   1.861  0.2531 -0.9436  0.0167
  863MOL0     C18968   3.897   4.395   1.902  0.3484  0.7742 -0.7284
  863MOL0     C18969   3.939   4.484   1.782  1.3010  0.0494  0.4490
  863MOL0     C18970   3.964   4.626   1.842  0.2528  0.1895 -0.1887
  863MOL0     C18971   4.049   4.721   1.762 -1.0253  0.0799 -0.1593
  863MOL0     C18972   4.030   4.864   1.808 -0.3139 -0.1718  0.3246
  863MOL0     N18973   4.098   4.893   1.928  0.3675 -0.8829 -0.3055
  863MOL0     C18974   4.057   4.863   2.052  0.6120  0.2517  0.0797
  863MOL0     C18975   4.172   4.871   2.131  0.3770 -0.0688 -0.2262
  863MOL0     C18976   4.154   4.828   2.274  0.4679 -0.2366 -0.7328
  863MOL0     C18977   4.132   4.677   2.293  0.1406 -0.1023  1.5934
  863MOL0     C18978   4.103   4.617   2.432 -0.0255  0.4809  0.3616
  863MOL0     C18979   4.187   4.674   2.553 -0.1475  0.3246 -0.2196
  863MOL0     O18980   4.329   4.652   2.506  0.2645 -0.3313 -0.2912
  863MOL0     C18981   4.433   4.707   2.593 -0.2268 -0.2033 -0.2291
  863MOL0     C18982   4.554   4.733   2.537 -0.3855  0.2153 -0.3447
  863MOL0     C18983   4.666   4.786   2.612 -0.0620 -0.0249  1.4604
  863MOL0     C18984   4.793   4.816   2.526 -0.2067 -0.2010 -0.0287
  863MOL0     C18985   4.653   4.794   2.752  0.3174 -1.1714  0.1097
  863MOL0     C18986   4.751   4.854   2.836  0.3986 -0.5441  0.0184
  863MOL0     O18987   4.734   4.837   2.967  0.1750 -0.6788  1.0446
  863MOL0     C18988   4.794   4.917   3.057  0.4357 -0.6918  0.4051
  863MOL0     C18989   4.714   4.973   3.162  0.2493 -0.4881  0.5371
  863MOL0     C18990   4.772   5.051   3.264  1.2592 -0.3749  0.4926
  863MOL0     C18991   4.910   5.079   3.270 -0.6625 -0.4260 -0.8519
  863MOL0     O18992   4.951   5.139   3.387  0.5193 -0.1711 -0.0143
  863MOL0     C18993   5.053   5.233   3.387 -0.8055 -0.6093  0.6591
  863MOL0     C18994   5.089   5.283   3.524 -0.4519 -0.4569  0.5169
  863MOL0     C18995   5.092   5.175   3.630  0.3795  0.3266  0.0889
  863MOL0     C18996   5.149   5.223   3.764  0.5175  0.3201  0.1169
  863MOL0     C18997   5.132   5.120   3.885  0.0033 -0.8046  0.2111
  863MOL0     C18998   5.247   5.124   3.995 -0.3536 -0.2290 -0.0679
  863MOL0     C18999   5.247   5.000   4.078  0.2798 -0.6595  0.4665
  863MOL0     C19000   5.341   4.996   4.179  0.5353  0.1375  0.5066
  863MOL0    Cl19001   5.505   5.058   4.130 -0.2391 -0.9463  0.0116
  863MOL0     C19002   4.985   5.031   3.165  0.1776  0.8001 -0.3156
  863MOL0     C19003   4.931   4.949   3.063 -0.7293  0.5193  0.0493
  863MOL0     O19004   4.835   4.929   2.792 -0.3116 -0.0848  0.0819
  863MOL0     C19005   4.532   4.743   2.809  0.1979  0.2701  0.0906
  863MOL0     C19006   4.426   4.704   2.733  0.4714  0.4543  0.4283
  863MOL0     N19007   4.284   4.912   2.057 -0.0153 -1.2359  0.2734
  863MOL0     N19008   4.233   4.931   1.933  0.0903  0.4585 -0.8937
  863MOL0     C19009   3.952   3.763   2.169  0.2706 -0.2726 -1.0810
  863MOL0     C19010   4.055   3.701   2.241 -0.0864 -0.9409  0.7044
  863MOL0     C19011   4.347   3.560   2.470  1.5106 -0.3322  0.3128
  863MOL0     C19012   4.406   3.453   2.523 -0.0429 -0.7245 -0.1984
  863MOL0     C19013   4.482   3.461   2.644 -0.7245 -0.3676 -0.4002
  863MOL0     C19014   4.514   3.582   2.704  0.4388  0.0793 -0.7670
  863MOL0     O19015   4.581   3.576   2.820 -0.2648 -0.6703 -0.3592
  863MOL0     C19016   4.513   3.633   2.935  0.4239  0.7195 -0.1998
  863MOL0     C19017   4.402   3.542   2.983 -0.5367 -0.0805  0.4448
  863MOL0     C19018   4.435   3.413   3.054  0.9595  0.6354 -0.3465
  863MOL0     C19019   4.325   3.298   3.033 -1.0052  1.6273 -0.1814
  863MOL0     C19020   4.198   3.326   3.110 -0.3671 -0.2501  0.5965
  863MOL0     C19021   4.085   3.332   3.151 -0.9076 -1.2035  0.6949
  863MOL0     C19022   4.443   3.694   2.649  1.5175 -0.2458  0.0419
  863MOL0     C19023   4.356   3.686   2.534  0.0681 -0.7625  0.2222
  863MOL0     C19024   4.274   3.816   2.499  0.3598 -0.4069  0.5040
  863MOL0     H19025   4.312   3.798   2.027  0.6855  1.4293  2.8265
  863MOL0     H19026   4.143   3.903   1.927  0.1467 -0.8500 -1.0587
  863MOL0     H19027   3.816   4.002   1.837 -0.5655 -0.5103 -0.4815
  863MOL0     H19028   3.993   3.983   1.843 -0.5970  1.5659 -1.2835
  863MOL0     H19029   3.845   4.151   2.052 -2.8404 -0.1571 -2.0479
  863MOL0     H19030   4.003   4.177   1.995 -1.2208  3.6744 -0.4647
  863MOL0     H19031   3.919   4.243   1.771  1.3577  0.0121  0.6014
  863MOL0     H19032   3.750   4.262   1.839  0.5348  0.6789 -1.2387
  863MOL0     H19033   3.816   4.441   1.959  2.0060  2.2438  0.5546
  863MOL0     H19034   3.984   4.392   1.968  0.0429 -2.5738 -0.3128
  863MOL0     H19035   3.863   4.480   1.703 -0.8909  0.9559  2.3894
  863MOL0     H19036   4.027   4.438   1.736 -0.4239 -0.0141 -3.2223
  863MOL0     H19037   3.872   4.682   1.861  0.7096  1.5929 -1.8590
  863MOL0     H19038   4.005   4.609   1.942  2.1859  1.2800 -0.7485
  863MOL0     H19039   4.031   4.720   1.654  4.0267  0.6042 -1.2684
  863MOL0     H19040   4.152   4.687   1.780 -1.4869 -0.3952  1.7962
  863MOL0     H19041   4.069   4.931   1.730 -3.1474  0.7223 -0.4531
  863MOL0     H19042   3.926   4.893   1.820  0.0101  0.7919  0.9633
  863MOL0     H19043   3.963   4.817   2.081  2.4493 -2.3291  2.4965
  863MOL0     H19044   4.072   4.886   2.316 -0.4225 -2.2593  0.4640
  863MOL0     H19045   4.238   4.849   2.341 -0.5313  0.4963  0.3408
  863MOL0     H19046   4.056   4.653   2.218 -3.4564  2.6617  4.0311
  863MOL0     H19047   4.228   4.635   2.262  1.0787  2.0535  1.4332
  863MOL0     H19048   3.995   4.634   2.439  0.0239  1.1654 -0.3917
  863MOL0     H19049   4.104   4.509   2.451 -1.5461  0.1113 -1.3757
  863MOL0     H19050   4.186   4.780   2.581  3.0706 -0.1240  2.1596
  863MOL0     H19051   4.148   4.621   2.640  0.6689  0.1872  0.0659
  863MOL0     H19052   4.564   4.714   2.431  0.4221 -1.2940 -0.0241
  863MOL0     H19053   4.786   4.764   2.429 -0.2979 -4.2318  1.9302
  863MOL0     H19054   4.875   4.771   2.583 -0.4236  0.5518  0.8903
  863MOL0     H19055   4.818   4.921   2.514 -0.3279  0.1334  2.2334
  863MOL0     H19056   4.607   4.961   3.166  0.0082 -0.1955 -2.5383
  863MOL0     H19057   4.703   5.081   3.343 -2.3199 -0.9477 -2.1408
  863MOL0     H19058   5.153   5.209   3.348  0.4492  3.7956  0.6452
  863MOL0     H19059   5.021   5.315   3.323 -2.0394 -1.7779 -0.2668
  863MOL0     H19060   5.190   5.324   3.517  0.7447 -3.2851 -0.1056
  863MOL0     H19061   5.021   5.361   3.558 -0.0075 -0.4220  1.3482
  863MOL0     H19062   5.145   5.088   3.592 -0.5996 -0.4916  0.5578
  863MOL0     H19063   4.985   5.153   3.632  0.3098  0.6982  0.8677
  863MOL0     H19064   5.111   5.320   3.800  2.3202  0.0217  3.2813
  863MOL0     H19065   5.255   5.247   3.746  0.2197  2.3144  0.7603
  863MOL0     H19066   5.037   5.139   3.935  1.1239  0.3585  1.9978
  863MOL0     H19067   5.136   5.022   3.837 -2.0817  0.6975 -3.5283
  863MOL0     H19068   5.226   5.205   4.065 -1.8223 -0.1004 -0.6321
  863MOL0     H19069   5.336   5.144   3.935 -0.1502  4.5514  1.4467
  863MOL0     H19070   5.268   4.913   4.015 -1.0350  0.5808 -1.8462
  863MOL0     H19071   5.146   4.984   4.116  0.6136  0.0866  1.7139
  863MOL0     H19072   5.362   4.896   4.218  5.2879  0.1294 -1.4134
  863MOL0     H19073   5.308   5.072   4.251  1.1682  1.6904 -0.7731
  863MOL0     H19074   5.092   5.037   3.180  0.4014 -0.6082 -1.1984
  863MOL0     H19075   5.000   4.899   2.995 -1.2873  0.4709 -0.4932
  863MOL0     H19076   4.523   4.757   2.916 -0.0379  0.7333  0.0127
  863MOL0     H19077   4.335   4.679   2.786 -0.1023 -2.0700 -1.5821
  863MOL0     H19078   3.849   3.748   2.197 -0.4731  2.3689 -2.0450
  863MOL0     H19079   4.023   3.656   2.334 -0.2464 -3.3757 -0.4453
  863MOL0     H19080   4.402   3.355   2.475 -0.8974 -0.5022 -0.5928
  863MOL0     H19081   4.523   3.376   2.697 -1.5110 -0.0275  0.7991
  863MOL0     H19082   4.587   3.639   3.015  0.0758  0.6246  0.1288
  863MOL0     H19083   4.468   3.729   2.907 -1.0466 -0.0423 -0.5262
  863MOL0     H19084   4.337   3.537   2.895  0.0783  2.6377 -0.2544
  863MOL0     H19085   4.341   3.599   3.054 -0.2192 -0.7299  1.2482
  863MOL0     H19086   4.540   3.390   3.033  0.3129 -2.8496 -0.3969
  863MOL0     H19087   4.438   3.433   3.162 -0.0452  0.8001 -0.3438
  863MOL0     H19088   4.367   3.201   3.060 -0.3883  1.4548 -1.6502
  863MOL0     H19089   4.310   3.282   2.926 -2.8842  0.1205  0.2458
  863MOL0     H19090   3.988   3.352   3.193  0.0527  3.9974  1.1423
  863MOL0     H19091   4.448   3.791   2.698  0.2397  1.0382 -2.2138
  863MOL0     H19092   4.172   3.785   2.471  0.7367  1.7594 -4.3283
  863MOL0     H19093   4.280   3.878   2.588  0.1117  1.4247 -0.6837
  863MOL0     H19094   4.305   3.864   2.405 -3.7789 -0.5118 -1.1436
  864MOL0     O19095   0.356   5.101   6.204  0.0592  0.6212  1.2117
  864MOL0     C19096   0.394   5.064   6.096 -0.5118  0.6449  0.1014
  864MOL0     O19097   0.398   4.935   6.050 -0.0528  1.0249 -0.3682
  864MOL0     C19098   0.318   4.842   6.111 -0.2633  0.0645 -0.1839
  864MOL0     C19099   0.173   4.853   6.109 -0.3494 -0.1026  0.5117
  864MOL0     C19100   0.095   4.755   6.177 -0.3428  0.9033  0.2229
  864MOL0     C19101   0.167   4.650   6.252  0.1324 -0.4665  0.5560
  864MOL0     O19102   0.090   4.548   6.312  0.0670 -0.6864  1.1096
  864MOL0     C19103   0.076   4.425   6.240 -0.3156  0.3524 -1.4780
  864MOL0     C19104  -0.021   4.335   6.321  0.4070 -0.5768  0.6581
  864MOL0     C19105  -0.157   4.409   6.361 -0.1077 -0.1785  0.4214
  864MOL0     C19106  -0.259   4.433   6.241 -0.2328  0.5436 -0.5839
  864MOL0     C19107  -0.410   4.454   6.270 -0.4416 -0.2954 -0.1082
  864MOL0     C19108  -0.480   4.320   6.315  0.3707 -0.0161 -0.3805
  864MOL0     C19109  -0.619   4.307   6.252 -0.7041  0.3650 -0.1525
  864MOL0     C19110  -0.665   4.167   6.213 -0.2667 -0.5103  1.2289
  864MOL0     N19111  -0.588   4.115   6.093 -0.9144 -0.4546  0.1890
  864MOL0     C19112  -0.605   4.173   5.967  0.1314 -0.2596 -0.4839
  864MOL0     C19113  -0.533   4.099   5.885 -0.2898  0.4667  0.3001
  864MOL0     C19114  -0.529   4.129   5.734  0.5677 -0.0222  0.4910
  864MOL0     C19115  -0.661   4.116   5.669  0.6912 -0.1169  0.0681
  864MOL0     C19116  -0.674   4.169   5.525 -0.2220  0.2555  0.1121
  864MOL0     C19117  -0.594   4.283   5.481 -0.4287 -1.3221  1.1797
  864MOL0     O19118  -0.657   4.312   5.350  0.5492 -0.0169  0.5667
  864MOL0     C19119  -0.633   4.434   5.281 -0.3888 -0.4670 -0.5495
  864MOL0     C19120  -0.573   4.547   5.344 -1.4152  0.1908  0.1860
  864MOL0     C19121  -0.569   4.675   5.292 -0.4405  0.3559  0.2109
  864MOL0     C19122  -0.489   4.782   5.369 -0.4353 -0.4096 -0.4058
  864MOL0     C19123  -0.628   4.699   5.169  0.7812 -0.9611  0.0561
  864MOL0     C19124  -0.644   4.832   5.105 -0.5040  1.0346  0.9726
  864MOL0     O19125  -0.632   4.830   4.969  1.0435 -0.3777  1.3480
  864MOL0     C19126  -0.654   4.947   4.906  0.2823  0.2634 -0.6669
  864MOL0     C19127  -0.735   4.944   4.789  0.3233 -0.1136 -1.0987
  864MOL0     C19128  -0.761   5.062   4.724  0.1017 -0.2024 -0.4621
  864MOL0     C19129  -0.709   5.188   4.769 -0.9939 -0.5491  0.3689
  864MOL0     O19130  -0.732   5.304   4.697 -0.2855 -0.2980 -0.3036
  864MOL0     C19131  -0.765   5.427   4.767  0.3329 -0.0532  0.1460
  864MOL0     C19132  -0.740   5.535   4.655 -1.0067 -0.5241  0.0395
  864MOL0     C19133  -0.849   5.531   4.553  0.4083 -1.2751 -0.0773
  864MOL0     C19134  -0.834   5.649   4.454 -0.0007  0.1128 -0.5386
  864MOL0     C19135  -0.889   5.623   4.313 -0.1856  0.7336  0.0964
  864MOL0     C19136  -0.825   5.509   4.244 -0.7811 -0.3590  0.4627
  864MOL0     C19137  -0.869   5.506   4.097 -0.0693 -0.7878 -0.2756
  864MOL0     C19138  -0.826   5.633   4.027  0.3378 -0.2452  0.6018
  864MOL0    Cl19139  -0.822   5.589   3.856 -0.3792  0.4023 -0.3608
  864MOL0     C19140  -0.624   5.186   4.881  0.2145  0.7024  1.6470
  864MOL0     C19141  -0.593   5.065   4.945 -0.2481 -0.1613 -0.0933
  864MOL0     O19142  -0.684   4.928   5.173 -0.1097  0.1722 -0.0115
  864MOL0     C19143  -0.695   4.595   5.105  1.2213 -0.1671  0.0553
  864MOL0     C19144  -0.688   4.459   5.156  0.5853  0.7198 -0.2377
  864MOL0     N19145  -0.474   3.993   5.954 -0.1137 -0.3111  0.3239
  864MOL0     N19146  -0.497   4.016   6.076 -0.2736 -0.3478  0.0629
  864MOL0     C19147   0.307   4.658   6.262 -0.3257 -0.4918 -0.6169
  864MOL0     C19148   0.381   4.746   6.184 -0.1208  1.4831  0.1685
  864MOL0     C19149   0.450   5.159   6.003 -0.5362 -0.4209 -0.2104
  864MOL0     C19150   0.389   5.179   5.879 -0.6777 -0.3074 -0.8234
  864MOL0     C19151   0.439   5.268   5.782 -0.4719  0.0369  0.1115
  864MOL0     C19152   0.537   5.358   5.825  0.2727  0.1906 -0.0360
  864MOL0     O19153   0.556   5.456   5.732  0.8791 -0.3566 -0.6721
  864MOL0     C19154   0.669   5.550   5.748 -0.5940 -0.3000 -0.1582
  864MOL0     C19155   0.741   5.554   5.621  1.2949 -0.9506  0.1807
  864MOL0     C19156   0.864   5.647   5.620 -0.2237  0.8440 -0.3624
  864MOL0     C19157   0.923   5.633   5.472  0.3436 -0.1039 -0.8560
  864MOL0     C19158   1.038   5.726   5.465 -0.2860 -0.1627  0.2694
  864MOL0     C19159   1.139   5.801   5.443 -0.9475  0.9449  0.0607
  864MOL0     C19160   0.597   5.345   5.949 -0.0006  0.1234  0.3146
  864MOL0     C19161   0.559   5.247   6.032 -0.3711  0.5033 -0.8288
  864MOL0     C19162   0.645   5.221   6.144 -0.8792 -0.0646  0.5259
  864MOL0     H19163   0.130   4.929   6.045  0.7387 -1.0970 -1.4986
  864MOL0     H19164  -0.013   4.749   6.167 -0.3119 -2.9633  0.6757
  864MOL0     H19165   0.170   4.369   6.236  0.3143  0.8382  2.5317
  864MOL0     H19166   0.046   4.453   6.139  2.6474  3.1548 -1.7587
  864MOL0     H19167  -0.038   4.246   6.259  3.7294  0.2909 -1.7372
  864MOL0     H19168   0.036   4.286   6.400 -0.3067  0.1066  1.6192
  864MOL0     H19169  -0.205   4.333   6.422 -1.0368 -0.8955 -1.1301
  864MOL0     H19170  -0.149   4.502   6.417 -3.4503  1.5355 -1.5941
  864MOL0     H19171  -0.226   4.526   6.196  0.5132 -0.2765 -1.7872
  864MOL0     H19172  -0.249   4.361   6.159  1.6620  2.2867 -1.9946
  864MOL0     H19173  -0.454   4.499   6.180  0.7874 -0.0172 -0.6007
  864MOL0     H19174  -0.423   4.527   6.350  0.9294 -3.0282  2.7832
  864MOL0     H19175  -0.421   4.238   6.272  3.8669  1.5367  1.1095
  864MOL0     H19176  -0.480   4.311   6.424  0.0845 -1.4463 -0.4723
  864MOL0     H19177  -0.631   4.357   6.156  1.2950  3.2476  0.9466
  864MOL0     H19178  -0.693   4.344   6.323  2.2543  2.2700  2.1973
  864MOL0     H19179  -0.647   4.094   6.292 -0.8840 -0.6686  1.2227
  864MOL0     H19180  -0.770   4.161   6.186  0.5127 -2.2534 -1.9601
  864MOL0     H19181  -0.657   4.265   5.938  3.6298  1.3266 -2.3830
  864MOL0     H19182  -0.459   4.056   5.693  1.4188  0.2828  1.3673
  864MOL0     H19183  -0.499   4.233   5.717  1.1139 -0.0153  1.4029
  864MOL0     H19184  -0.709   4.020   5.691 -0.7501  0.8157  1.2139
  864MOL0     H19185  -0.735   4.178   5.721 -1.3150 -1.3403 -1.1777
  864MOL0     H19186  -0.650   4.086   5.458  1.2926 -0.1770  1.1135
  864MOL0     H19187  -0.777   4.201   5.507  0.5129  1.4350 -2.5069
  864MOL0     H19188  -0.610   4.369   5.548 -0.7688  0.0484 -0.5949
  864MOL0     H19189  -0.489   4.259   5.466 -0.0990 -0.3129  1.7384
  864MOL0     H19190  -0.534   4.523   5.442  0.8318 -0.1722 -0.7514
  864MOL0     H19191  -0.396   4.810   5.319 -0.7129  0.9463 -0.2022
  864MOL0     H19192  -0.456   4.756   5.470 -0.4920  2.7700  0.5260
  864MOL0     H19193  -0.548   4.868   5.400 -1.0113 -1.3131  1.1286
  864MOL0     H19194  -0.778   4.849   4.761  1.2255 -2.3096  3.9690
  864MOL0     H19195  -0.836   5.057   4.646  0.3675 -2.2434 -0.6441
  864MOL0     H19196  -0.870   5.432   4.795 -0.0502 -3.5858 -0.1878
  864MOL0     H19197  -0.705   5.446   4.856  2.0809  1.4609 -1.2716
  864MOL0     H19198  -0.724   5.634   4.699 -1.0757 -0.6059  0.2462
  864MOL0     H19199  -0.648   5.494   4.611 -0.3715 -2.5968  3.0122
  864MOL0     H19200  -0.944   5.539   4.607 -0.0761  0.0510 -1.0599
  864MOL0     H19201  -0.849   5.435   4.500 -4.9322 -1.1921 -0.7913
  864MOL0     H19202  -0.726   5.668   4.444  0.4926  1.4651  4.6576
  864MOL0     H19203  -0.864   5.747   4.489  1.9322  0.2839  0.8131
  864MOL0     H19204  -0.996   5.605   4.320 -0.5867  2.1628 -1.6885
  864MOL0     H19205  -0.865   5.715   4.259 -0.4937  1.5657  1.3283
  864MOL0     H19206  -0.862   5.413   4.283 -0.3568  0.2600  2.5217
  864MOL0     H19207  -0.718   5.504   4.266 -0.3956 -2.3018 -1.5433
  864MOL0     H19208  -0.978   5.500   4.083  0.2327 -2.1871 -2.5442
  864MOL0     H19209  -0.835   5.412   4.053 -1.7392 -0.0502 -3.3708
  864MOL0     H19210  -0.733   5.673   4.069  0.0804 -1.3106  2.2969
  864MOL0     H19211  -0.902   5.712   4.034  2.4842  1.9079  0.9551
  864MOL0     H19212  -0.566   5.275   4.904  3.6232 -1.4034  2.0067
  864MOL0     H19213  -0.531   5.063   5.035 -0.9942 -1.1712  0.4138
  864MOL0     H19214  -0.742   4.622   5.011  2.5197 -0.4643 -0.7145
  864MOL0     H19215  -0.746   4.379   5.110  0.3615  1.2441 -0.8747
  864MOL0     H19216   0.356   4.578   6.316 -0.4499 -0.0190  0.2008
  864MOL0     H19217   0.490   4.747   6.193 -0.0639 -0.0041 -0.1149
  864MOL0     H19218   0.293   5.139   5.847 -0.7995 -0.5244 -0.1988
  864MOL0     H19219   0.393   5.294   5.687  1.9501 -0.2709 -1.2043
  864MOL0     H19220   0.626   5.646   5.777 -0.7134 -0.4053  0.0159
  864MOL0     H19221   0.741   5.515   5.822 -0.2851 -2.2618 -1.3157
  864MOL0     H19222   0.673   5.597   5.547  3.1450  1.7280 -0.1380
  864MOL0     H19223   0.776   5.456   5.589 -0.2979 -1.4345 -0.1479
  864MOL0     H19224   0.836   5.749   5.647  1.1637  1.2698 -0.4581
  864MOL0     H19225   0.942   5.608   5.686  0.4623 -1.8439 -2.5929
  864MOL0     H19226   0.851   5.657   5.393  1.5660 -0.2330 -2.0427
  864MOL0     H19227   0.957   5.532   5.450 -0.9811 -0.3647 -1.8249
  864MOL0     H19228   1.228   5.860   5.443 -0.9524  0.9578 -0.6831
  864MOL0     H19229   0.666   5.423   5.978 -2.3650  2.4919 -0.0594
  864MOL0     H19230   0.597   5.240   6.241  1.6049  0.7282  1.6850
  864MOL0     H19231   0.678   5.117   6.141 -1.3820 -0.2134  0.1501
  864MOL0     H19232   0.727   5.293   6.135 -0.6481 -0.4585 -0.6056
  865MOL0     O19233   6.080   6.586   8.034 -0.3633 -0.2713  0.4998
  865MOL0     C19234   6.029   6.637   7.944  0.8749 -0.4713  0.4763
  865MOL0     O19235   5.931   6.577   7.865 -0.7308 -0.6385 -0.3044
  865MOL0     C19236   5.882   6.451   7.897  0.1351  0.4837  0.1531
  865MOL0     C19237   5.960   6.335   7.907 -0.5961 -0.9591  0.6295
  865MOL0     C19238   5.916   6.208   7.924 -0.1451 -0.3317 -0.7137
  865MOL0     C19239   5.778   6.190   7.958  0.1460  0.3954  0.7237
  865MOL0     O19240   5.717   6.073   7.999 -0.5407  0.9985 -0.2205
  865MOL0     C19241   5.799   5.975   8.062  0.4136  0.0110 -0.5713
  865MOL0     C19242   5.723   5.864   8.131 -0.4591  0.9427 -0.8053
  865MOL0     C19243   5.630   5.771   8.053  0.1438 -0.1426  0.0910
  865MOL0     C19244   5.697   5.664   7.967  0.8617  0.6404 -0.4239
  865MOL0     C19245   5.604   5.606   7.856  0.0760 -0.6091  0.2839
  865MOL0     C19246   5.671   5.525   7.752 -0.8087 -0.4782  0.5983
  865MOL0     C19247   5.568   5.444   7.677  0.0893  0.2848 -0.2818
  865MOL0     C19248   5.604   5.455   7.532  0.2508 -0.1786  0.0546
  865MOL0     N19249   5.569   5.334   7.467 -0.2620  0.5024 -0.7870
  865MOL0     C19250   5.440   5.296   7.433 -0.1840 -0.0054 -0.7331
  865MOL0     C19251   5.457   5.190   7.347  0.6519 -0.2342 -0.4219
  865MOL0     C19252   5.353   5.108   7.285  1.2863  0.4332  0.6447
  865MOL0     C19253   5.367   4.966   7.357  0.6976 -0.6752  0.5337
  865MOL0     C19254   5.293   4.962   7.488 -0.0810  0.0498  0.3597
  865MOL0     C19255   5.137   4.964   7.478 -0.6664  0.1254  0.1534
  865MOL0     O19256   5.066   4.993   7.602  0.1597  0.0710 -0.4718
  865MOL0     C19257   5.090   5.112   7.668  0.3249  0.5556  0.0918
  865MOL0     C19258   5.091   5.127   7.803 -0.2085 -0.0976 -0.2272
  865MOL0     C19259   5.149   5.234   7.869 -0.1397  0.6177 -0.4668
  865MOL0     C19260   5.139   5.223   8.018 -0.5975 -0.1869 -0.0873
  865MOL0     C19261   5.190   5.345   7.793 -0.0085 -0.3983 -0.0854
  865MOL0     C19262   5.249   5.461   7.859  0.0849  0.3349  0.5308
  865MOL0     O19263   5.240   5.588   7.818  0.0435 -1.2536  1.1388
  865MOL0     C19264   5.249   5.694   7.916  1.1888 -0.6623  0.5562
  865MOL0     C19265   5.233   5.686   8.058  0.0501 -0.3243 -0.0442
  865MOL0     C19266   5.273   5.796   8.139 -0.1863  0.0626  0.0275
  865MOL0     C19267   5.309   5.915   8.088  0.0608  0.6105 -0.2874
  865MOL0     O19268   5.320   6.019   8.182 -1.0237 -0.1138  0.0484
  865MOL0     C19269   5.382   6.142   8.135  0.1507 -0.3619 -0.2913
  865MOL0     C19270   5.413   6.231   8.255  0.2732  1.0719 -0.0191
  865MOL0     C19271   5.522   6.172   8.356  0.0426 -0.3242 -0.1294
  865MOL0     C19272   5.665   6.207   8.316 -0.0760 -0.3905 -0.7468
  865MOL0     C19273   5.769   6.175   8.423 -0.5153 -0.0772 -0.1233
  865MOL0     C19274   5.770   6.291   8.518 -0.1686  0.9153  0.0300
  865MOL0     C19275   5.848   6.255   8.641 -0.0272 -0.2732  0.4230
  865MOL0     C19276   5.993   6.236   8.610 -0.6337 -0.4260  0.1249
  865MOL0    Cl19277   6.078   6.276   8.767  0.0678 -0.0996 -0.0630
  865MOL0     C19278   5.330   5.928   7.947 -0.2994  0.0613  0.6693
  865MOL0     C19279   5.295   5.815   7.864 -0.4301 -1.2984  0.9033
  865MOL0     O19280   5.324   5.434   7.946  0.6120  0.2994  0.9487
  865MOL0     C19281   5.161   5.352   7.661 -0.3057 -0.2792 -0.0311
  865MOL0     C19282   5.123   5.229   7.600  1.0419 -0.6092  0.8979
  865MOL0     N19283   5.592   5.161   7.339  0.1442 -0.6945 -0.1476
  865MOL0     N19284   5.661   5.248   7.416 -0.5979  0.9254 -1.0322
  865MOL0     C19285   5.694   6.302   7.962 -0.3494 -0.4647 -0.8451
  865MOL0     C19286   5.744   6.432   7.927 -0.6488  0.3962  0.5237
  865MOL0     C19287   6.063   6.776   7.901 -0.2080  0.6661 -0.1194
  865MOL0     C19288   5.984   6.823   7.798 -0.2450 -0.2668  0.4811
  865MOL0     C19289   6.001   6.948   7.739 -0.1409 -0.3715  0.4758
  865MOL0     C19290   6.107   7.031   7.780 -0.4817  1.1947  0.2948
  865MOL0     O19291   6.131   7.140   7.708  0.6781  0.6642  0.4196
  865MOL0     C19292   6.185   7.247   7.768 -0.2348  0.2933 -0.1939
  865MOL0     C19293   6.175   7.359   7.660 -0.4450  0.2162 -0.0059
  865MOL0     C19294   6.202   7.493   7.718 -0.4501 -0.2886  0.0343
  865MOL0     C19295   6.228   7.596   7.608 -0.5917  0.0288  0.9852
  865MOL0     C19296   6.107   7.636   7.533 -0.5193  0.2752  0.1765
  865MOL0     C19297   6.001   7.633   7.475 -0.3613 -0.4822  0.5697
  865MOL0     C19298   6.192   6.985   7.879  1.2536 -0.1389 -0.7294
  865MOL0     C19299   6.169   6.863   7.944  0.4300 -0.6790  0.6175
  865MOL0     C19300   6.267   6.826   8.052 -0.7463 -0.0778 -0.8817
  865MOL0     H19301   6.065   6.351   7.883 -0.9884 -0.8403 -1.2123
  865MOL0     H19302   5.977   6.120   7.908 -0.0025 -0.2155 -0.8115
  865MOL0     H19303   5.870   6.028   8.126  2.1438 -1.0668 -1.5511
  865MOL0     H19304   5.845   5.921   7.979  0.5118 -1.0398  0.1448
  865MOL0     H19305   5.794   5.791   8.172 -1.3089  0.6947  0.2613
  865MOL0     H19306   5.666   5.910   8.211 -0.0478 -0.5958  0.4305
  865MOL0     H19307   5.552   5.723   8.112 -1.9003  1.1924 -1.4016
  865MOL0     H19308   5.576   5.836   7.983  0.1854  2.0392  1.9753
  865MOL0     H19309   5.775   5.719   7.915  0.2937  3.4027  1.4065
  865MOL0     H19310   5.747   5.586   8.024  0.8625  2.3009  1.9928
  865MOL0     H19311   5.539   5.677   7.804  0.2084  0.5908  1.6861
  865MOL0     H19312   5.523   5.556   7.910  1.2780 -2.9679  0.0167
  865MOL0     H19313   5.726   5.598   7.692  1.9756  0.6003  4.1088
  865MOL0     H19314   5.749   5.457   7.786 -1.7393 -1.5503  0.6498
  865MOL0     H19315   5.472   5.495   7.682 -1.1704 -1.9894  0.0182
  865MOL0     H19316   5.566   5.343   7.720 -0.9077  0.6399  0.5315
  865MOL0     H19317   5.551   5.537   7.482 -0.4204 -1.8969 -2.2742
  865MOL0     H19318   5.712   5.463   7.520  0.2823  1.0620  1.0311
  865MOL0     H19319   5.354   5.349   7.474  1.1145  2.3063 -0.8250
  865MOL0     H19320   5.361   5.103   7.176  0.8582  0.0295  0.6275
  865MOL0     H19321   5.254   5.151   7.305  0.7885 -1.1471  1.8279
  865MOL0     H19322   5.329   4.894   7.284  0.6144  2.6380 -3.0041
  865MOL0     H19323   5.470   4.937   7.381  2.0315  2.8159 -0.3497
  865MOL0     H19324   5.315   4.863   7.530 -0.9504 -0.4025 -0.2104
  865MOL0     H19325   5.325   5.050   7.545  0.5469  1.2438 -1.7207
  865MOL0     H19326   5.114   5.051   7.416  0.6099  0.2263 -0.2049
  865MOL0     H19327   5.101   4.874   7.426  1.8109 -0.0451 -1.4485
  865MOL0     H19328   5.058   5.048   7.871 -0.1127  1.0538  1.2182
  865MOL0     H19329   5.167   5.313   8.073  0.0206  0.0716 -0.8079
  865MOL0     H19330   5.216   5.148   8.040  1.7158  1.9594 -0.4386
  865MOL0     H19331   5.041   5.208   8.064 -1.3394  3.8331 -0.0009
  865MOL0     H19332   5.197   5.594   8.104  1.1057  0.0520  1.6218
  865MOL0     H19333   5.266   5.777   8.245  3.2823  1.9972  0.7526
  865MOL0     H19334   5.482   6.122   8.095 -0.4181  0.6779 -2.3552
  865MOL0     H19335   5.323   6.198   8.062 -1.3107 -0.2355  0.9469
  865MOL0     H19336   5.447   6.329   8.220 -0.0989  1.2264  0.0461
  865MOL0     H19337   5.321   6.252   8.310 -0.9309 -1.2477 -1.0493
  865MOL0     H19338   5.506   6.064   8.366  1.2932 -0.3051  2.9396
  865MOL0     H19339   5.505   6.204   8.459  2.5563 -1.5181  0.7320
  865MOL0     H19340   5.667   6.308   8.273  0.6362 -0.6024 -1.2450
  865MOL0     H19341   5.695   6.150   8.227 -2.0563 -1.0107 -1.0604
  865MOL0     H19342   5.756   6.086   8.485 -0.4441 -0.6878 -0.9721
  865MOL0     H19343   5.868   6.181   8.376  0.4444  0.3312  1.8589
  865MOL0     H19344   5.672   6.312   8.562 -2.2732 -3.0608 -2.2190
  865MOL0     H19345   5.811   6.380   8.470 -1.3213  2.5828  1.9573
  865MOL0     H19346   5.804   6.173   8.699 -0.2860 -0.5386 -0.1403
  865MOL0     H19347   5.832   6.345   8.700 -0.5323  0.9929 -1.5629
  865MOL0     H19348   6.017   6.319   8.543  0.0779 -2.4901 -2.3797
  865MOL0     H19349   6.022   6.142   8.561  0.7046  0.0409 -0.0335
  865MOL0     H19350   5.363   6.023   7.905 -0.8903  0.5164  1.2040
  865MOL0     H19351   5.312   5.829   7.758 -1.0886 -1.1419  0.8142
  865MOL0     H19352   5.184   5.434   7.594 -0.3754  0.4133  0.7769
  865MOL0     H19353   5.114   5.232   7.492  0.8981  1.1502  0.9231
  865MOL0     H19354   5.590   6.290   7.991  0.5194  0.6336  3.5841
  865MOL0     H19355   5.671   6.512   7.911 -0.4689  0.6195  0.8111
  865MOL0     H19356   5.892   6.779   7.761  0.9252 -1.6381 -0.9009
  865MOL0     H19357   5.946   6.983   7.652 -0.6043  3.2244  2.0227
  865MOL0     H19358   6.131   7.283   7.856 -2.8589  2.2657 -2.3881
  865MOL0     H19359   6.289   7.228   7.795 -0.4493  0.5005  0.8064
  865MOL0     H19360   6.074   7.358   7.620 -0.4003 -1.9665 -0.2030
  865MOL0     H19361   6.248   7.331   7.582  0.0356  0.0954  0.4814
  865MOL0     H19362   6.126   7.517   7.793  1.0068 -2.3392  2.3136
  865MOL0     H19363   6.295   7.491   7.776 -0.1179 -1.7054 -0.5206
  865MOL0     H19364   6.294   7.556   7.531  0.0216  1.2835  0.8345
  865MOL0     H19365   6.283   7.682   7.648  2.3408 -0.6901 -1.2094
  865MOL0     H19366   5.913   7.617   7.416  0.0781 -1.6844  0.2150
  865MOL0     H19367   6.279   7.048   7.894 -0.7317  2.2810  1.9270
  865MOL0     H19368   6.246   6.732   8.103 -0.7216 -1.1134 -2.7054
  865MOL0     H19369   6.364   6.818   8.002 -0.2008  1.2736 -0.1065
  865MOL0     H19370   6.279   6.911   8.121  1.5678 -1.9303  1.1653
  866MOL0     O19371   0.929   3.209   1.723  0.3534  0.7954 -0.5416
  866MOL0     C19372   0.815   3.254   1.749  0.8103 -0.3331 -0.1830
  866MOL0     O19373   0.764   3.373   1.705 -0.3496  0.4106 -0.6128
  866MOL0     C19374   0.843   3.452   1.629  0.1336 -0.9222  0.1056
  866MOL0     C19375   0.982   3.481   1.642  0.1964  0.2635  0.4851
  866MOL0     C19376   1.050   3.578   1.566  0.2316  1.0023 -0.5533
  866MOL0     C19377   0.984   3.634   1.462  0.0672  0.1676 -0.1904
  866MOL0     O19378   1.036   3.735   1.392  0.2709  0.3808 -0.3861
  866MOL0     C19379   1.179   3.756   1.386  0.3092 -0.7406  0.8102
  866MOL0     C19380   1.223   3.878   1.469 -0.4415  0.2878 -0.2908
  866MOL0     C19381   1.357   3.943   1.422  1.5563  0.5843  0.1205
  866MOL0     C19382   1.375   4.080   1.492  0.2548  0.2936  0.5022
  866MOL0     C19383   1.526   4.132   1.510  0.2967 -0.9762  0.8029
  866MOL0     C19384   1.555   4.231   1.622  0.3128  0.8578  0.5861
  866MOL0     C19385   1.447   4.342   1.623 -0.6279 -0.5737 -0.3865
  866MOL0     C19386   1.513   4.482   1.572  0.2013  1.0136 -0.5905
  866MOL0     N19387   1.437   4.596   1.614 -0.1209 -0.4597  0.1395
  866MOL0     C19388   1.492   4.727   1.627  0.3660 -0.5719 -0.0380
  866MOL0     C19389   1.381   4.805   1.629 -0.3439 -0.0605 -0.6835
  866MOL0     C19390   1.380   4.951   1.661  0.3988  0.5441 -0.3062
  866MOL0     C19391   1.338   4.991   1.806  1.4142 -0.1429 -0.0113
  866MOL0     C19392   1.292   5.133   1.823 -0.2562  0.1562  0.0189
  866MOL0     C19393   1.362   5.231   1.732  0.5617 -0.6517  0.6386
  866MOL0     O19394   1.503   5.219   1.747 -1.1426 -0.1643 -0.2450
  866MOL0     C19395   1.585   5.268   1.649  0.4515  0.1004 -0.7240
  866MOL0     C19396   1.562   5.259   1.514  1.0201 -0.2739 -0.2011
  866MOL0     C19397   1.653   5.302   1.413 -0.6404 -0.1035 -0.1068
  866MOL0     C19398   1.623   5.276   1.267  0.3598  0.1835  0.3474
  866MOL0     C19399   1.783   5.353   1.452 -0.0736 -0.2922  0.3237
  866MOL0     C19400   1.899   5.388   1.363 -0.2818 -0.5502  0.2020
  866MOL0     O19401   2.013   5.405   1.426  0.0816 -0.1907 -0.2798
  866MOL0     C19402   2.109   5.453   1.346 -0.8835 -0.8359  0.2594
  866MOL0     C19403   2.119   5.593   1.330 -0.6376 -0.0798 -0.1513
  866MOL0     C19404   2.227   5.656   1.263 -0.2318  0.3773  0.5899
  866MOL0     C19405   2.340   5.583   1.220 -0.9530  0.4847 -0.4833
  866MOL0     O19406   2.443   5.655   1.176  0.2990 -0.7113 -0.7872
  866MOL0     C19407   2.563   5.585   1.133 -0.0394 -1.0465 -1.1082
  866MOL0     C19408   2.678   5.685   1.098 -0.1319  0.2675  0.6299
  866MOL0     C19409   2.778   5.616   1.011 -0.5329 -0.8412 -1.0104
  866MOL0     C19410   2.874   5.535   1.097  0.5015  0.5274 -0.0896
  866MOL0     C19411   2.975   5.459   1.017  0.9596  1.3374 -0.6436
  866MOL0     C19412   2.940   5.415   0.874  0.0264  0.6007  0.3794
  866MOL0     C19413   3.072   5.345   0.810 -0.2054 -0.4128 -0.0413
  866MOL0     C19414   3.122   5.205   0.870  0.4100 -0.0241  1.2409
  866MOL0    Cl19415   3.190   5.095   0.751 -0.1048  0.4417 -0.2702
  866MOL0     C19416   2.327   5.441   1.246 -0.3984 -0.3658 -0.1709
  866MOL0     C19417   2.217   5.371   1.294 -0.1646 -0.8568 -0.9845
  866MOL0     O19418   1.883   5.396   1.242  0.4881  0.0746 -0.5329
  866MOL0     C19419   1.809   5.356   1.593 -0.0014 -0.2949 -0.9170
  866MOL0     C19420   1.716   5.313   1.689 -0.7590  0.6422 -0.1280
  866MOL0     N19421   1.270   4.722   1.602 -0.3474  0.1536  0.0742
  866MOL0     N19422   1.305   4.605   1.596 -0.6008  0.0007 -0.5480
  866MOL0     C19423   0.842   3.607   1.443  0.9466  0.2112 -0.1513
  866MOL0     C19424   0.777   3.514   1.529  0.0979  0.0488 -0.7022
  866MOL0     C19425   0.715   3.164   1.806  0.0638  0.2172  1.2879
  866MOL0     C19426   0.580   3.156   1.761  0.4982 -0.5466  0.0418
  866MOL0     C19427   0.491   3.067   1.817  0.0929 -0.8799 -0.6489
  866MOL0     C19428   0.525   2.984   1.920  0.2453  0.3744 -0.2326
  866MOL0     O19429   0.441   2.892   1.968 -0.0719  0.1248  0.4366
  866MOL0     C19430   0.331   2.942   2.040 -0.0984  0.3450  0.4538
  866MOL0     C19431   0.258   2.821   2.106  0.6658  0.8368 -0.2076
  866MOL0     C19432   0.342   2.702   2.106 -0.1016  0.0919  0.6963
  866MOL0     C19433   0.267   2.580   2.162  0.0130  0.0091  0.7602
  866MOL0     C19434   0.216   2.598   2.303  0.1216 -0.0689 -0.2529
  866MOL0     C19435   0.196   2.621   2.422 -0.0900  0.3457 -0.1562
  866MOL0     C19436   0.654   2.999   1.974 -0.7583  1.0726  0.2729
  866MOL0     C19437   0.747   3.081   1.914  0.1598 -0.3422 -0.3146
  866MOL0     C19438   0.890   3.073   1.970 -0.4269 -0.1784  0.6640
  866MOL0     H19439   1.037   3.444   1.728  1.6651  1.7922  0.2604
  866MOL0     H19440   1.150   3.612   1.586  0.9267 -1.6861  1.1154
  866MOL0     H19441   1.206   3.782   1.283  0.2718 -2.1216  0.4289
  866MOL0     H19442   1.237   3.667   1.413  1.0466 -1.1463 -1.8024
  866MOL0     H19443   1.140   3.950   1.477 -1.5926 -1.1305  1.5226
  866MOL0     H19444   1.245   3.835   1.568  1.3832 -0.4706 -0.9912
  866MOL0     H19445   1.439   3.871   1.432 -0.0326 -1.5786 -1.2620
  866MOL0     H19446   1.350   3.967   1.316  0.1748 -2.7190 -0.6688
  866MOL0     H19447   1.320   4.157   1.437  0.6059  0.0579 -0.1889
  866MOL0     H19448   1.329   4.073   1.591  3.1306 -1.4866  1.8448
  866MOL0     H19449   1.559   4.187   1.421 -0.9180 -1.3194  0.1185
  866MOL0     H19450   1.584   4.041   1.521  1.0821 -0.7569 -1.1799
  866MOL0     H19451   1.533   4.182   1.717 -1.6985 -1.4839 -0.9640
  866MOL0     H19452   1.654   4.277   1.613 -0.7416  3.4528  1.2450
  866MOL0     H19453   1.422   4.370   1.725 -0.7512  1.4434 -0.9171
  866MOL0     H19454   1.352   4.320   1.572 -0.1098 -0.5201 -1.4140
  866MOL0     H19455   1.617   4.501   1.602 -0.2956  0.4593  1.6193
  866MOL0     H19456   1.513   4.483   1.462  1.8696 -0.0539 -0.6326
  866MOL0     H19457   1.595   4.758   1.640  0.0492  0.4554  0.1466
  866MOL0     H19458   1.312   4.998   1.589  1.9152 -0.4181 -2.4602
  866MOL0     H19459   1.478   4.992   1.633 -0.1779  1.6388 -0.7569
  866MOL0     H19460   1.259   4.919   1.830  3.3202 -2.6067 -0.7707
  866MOL0     H19461   1.418   4.958   1.873  0.7134 -1.0107  0.4152
  866MOL0     H19462   1.189   5.141   1.787 -1.5248  1.3512  3.5548
  866MOL0     H19463   1.301   5.170   1.925  0.4784  2.2269 -0.7465
  866MOL0     H19464   1.328   5.216   1.629  3.4894 -0.7273 -0.3949
  866MOL0     H19465   1.336   5.334   1.758  5.0519  0.9620 -0.4945
  866MOL0     H19466   1.468   5.215   1.482  1.0113 -1.8979  1.8186
  866MOL0     H19467   1.533   5.215   1.257  2.2407 -2.8303  0.5386
  866MOL0     H19468   1.707   5.232   1.213  1.7130  2.1936  0.7109
  866MOL0     H19469   1.596   5.371   1.220  3.8181  0.3004 -1.7411
  866MOL0     H19470   2.044   5.648   1.386 -0.3582 -0.2261  0.3821
  866MOL0     H19471   2.239   5.764   1.267  2.3099  0.1421  0.8800
  866MOL0     H19472   2.597   5.515   1.210  0.2495 -0.3961 -0.6349
  866MOL0     H19473   2.557   5.528   1.040  5.3003  1.9201 -3.7471
  866MOL0     H19474   2.636   5.760   1.030 -0.3218  0.3619  0.8501
  866MOL0     H19475   2.727   5.739   1.179  1.6048  1.7354 -1.2985
  866MOL0     H19476   2.843   5.687   0.960  1.0032  1.4412  3.5697
  866MOL0     H19477   2.719   5.559   0.938 -2.0690 -1.4987  0.6711
  866MOL0     H19478   2.808   5.467   1.153  1.3945 -0.4470 -0.1792
  866MOL0     H19479   2.925   5.597   1.171 -1.5836 -2.7234  4.5989
  866MOL0     H19480   3.067   5.517   1.004  0.5322  1.2698 -6.5219
  866MOL0     H19481   2.992   5.362   1.064 -2.2825  0.1376 -1.6404
  866MOL0     H19482   2.916   5.494   0.803  1.6071  0.0409 -0.8243
  866MOL0     H19483   2.862   5.338   0.867  0.1584  0.6601 -3.6553
  866MOL0     H19484   3.155   5.413   0.789 -2.1183  1.3166 -2.6980
  866MOL0     H19485   3.041   5.325   0.707  2.2226  4.0573 -1.9070
  866MOL0     H19486   3.033   5.146   0.894 -0.8052  1.8099  1.4963
  866MOL0     H19487   3.181   5.215   0.961 -0.3420  0.2133  1.7149
  866MOL0     H19488   2.421   5.390   1.226 -0.2060  0.5079 -1.5909
  866MOL0     H19489   2.223   5.267   1.326  1.2042  0.1787  2.5740
  866MOL0     H19490   1.908   5.379   1.630  1.4142 -4.1787 -1.8935
  866MOL0     H19491   1.730   5.308   1.797 -0.7559  3.1966  0.0630
  866MOL0     H19492   0.791   3.642   1.355 -1.5126 -2.7311 -0.0693
  866MOL0     H19493   0.677   3.489   1.496  0.1255  0.8059 -1.4013
  866MOL0     H19494   0.563   3.225   1.679  0.8100  0.6493  0.9435
  866MOL0     H19495   0.388   3.052   1.785 -0.9262  2.5765  0.5666
  866MOL0     H19496   0.349   3.017   2.117 -2.6007  0.9029  0.5782
  866MOL0     H19497   0.260   2.989   1.971 -1.8530 -1.5218  0.8857
  866MOL0     H19498   0.158   2.800   2.068 -0.7185  1.5588  2.7241
  866MOL0     H19499   0.233   2.861   2.205  1.4498 -0.9887  0.7840
  866MOL0     H19500   0.373   2.660   2.010  1.8586  3.1556 -0.1413
  866MOL0     H19501   0.433   2.727   2.162  1.7558  0.3324 -2.2368
  866MOL0     H19502   0.330   2.491   2.165 -2.9765 -2.2567  1.5043
  866MOL0     H19503   0.185   2.541   2.099  0.7648 -1.9389  0.9194
  866MOL0     H19504   0.180   2.647   2.525  0.0238 -0.7999  0.1702
  866MOL0     H19505   0.690   2.935   2.054  1.7098  1.6768 -0.2646
  866MOL0     H19506   0.916   3.176   1.996  0.5683 -0.3005  0.2269
  866MOL0     H19507   0.900   3.014   2.062 -1.9963 -0.8072  0.4555
  866MOL0     H19508   0.956   3.027   1.896 -0.5336  1.3132 -0.3930
  867MOL0     O19509   0.844   4.450   6.664  0.0805 -0.6220  0.7418
  867MOL0     C19510   0.796   4.345   6.613 -0.4217 -0.2205 -0.7934
  867MOL0     O19511   0.669   4.295   6.636 -0.2141  0.0304 -0.1039
  867MOL0     C19512   0.575   4.374   6.692 -0.3716 -0.4096 -1.0270
  867MOL0     C19513   0.538   4.356   6.824 -0.3251 -1.3198 -0.5413
  867MOL0     C19514   0.425   4.424   6.870 -0.2187  0.0287  0.6762
  867MOL0     C19515   0.362   4.531   6.801 -0.4659  0.2723 -0.0029
  867MOL0     O19516   0.260   4.593   6.853 -0.6740 -0.4386  0.1885
  867MOL0     C19517   0.139   4.587   6.773 -1.4895  0.7434  0.8458
  867MOL0     C19518   0.032   4.676   6.840  0.1225 -0.4221 -0.2905
  867MOL0     C19519  -0.109   4.652   6.787  0.3572 -0.2022 -0.5863
  867MOL0     C19520  -0.191   4.569   6.894  0.3073  0.5507  0.5903
  867MOL0     C19521  -0.321   4.532   6.827  0.3953 -0.2855  0.7166
  867MOL0     C19522  -0.425   4.648   6.843 -0.2296 -0.1481 -0.0955
  867MOL0     C19523  -0.559   4.611   6.787 -0.1825  0.2792 -0.3847
  867MOL0     C19524  -0.548   4.600   6.632  0.3235 -0.4366  0.3501
  867MOL0     N19525  -0.687   4.618   6.585  0.1658 -0.5612  0.4056
  867MOL0     C19526  -0.797   4.544   6.611  1.2249 -0.7257 -0.2714
  867MOL0     C19527  -0.894   4.581   6.520  0.1738  0.0276  0.2523
  867MOL0     C19528  -1.028   4.526   6.517  0.7355 -1.2862 -0.0980
  867MOL0     C19529  -1.062   4.453   6.389  0.1959  0.6502  0.2375
  867MOL0     C19530  -1.205   4.394   6.403  0.5895  0.2072  0.2939
  867MOL0     C19531  -1.233   4.278   6.302 -0.6874 -0.3725  0.7480
  867MOL0     O19532  -1.373   4.265   6.307 -0.1018 -0.4658  0.4334
  867MOL0     C19533  -1.425   4.204   6.193  0.8339 -0.5634  1.2240
  867MOL0     C19534  -1.408   4.077   6.160  0.1739  0.0198  0.8550
  867MOL0     C19535  -1.464   4.027   6.036 -1.0266  0.1198 -1.2951
  867MOL0     C19536  -1.452   3.885   5.994 -1.3646 -0.0259 -0.2867
  867MOL0     C19537  -1.543   4.109   5.957 -0.7074  0.1833 -1.1361
  867MOL0     C19538  -1.607   4.071   5.826 -0.1682  0.2810 -0.4662
  867MOL0     O19539  -1.723   4.118   5.792  0.7948 -0.3641 -0.2188
  867MOL0     C19540  -1.788   4.054   5.687 -0.4224  0.0840  0.8896
  867MOL0     C19541  -1.914   3.997   5.706  0.4424  0.0839  0.0826
  867MOL0     C19542  -1.971   3.934   5.597 -0.1928 -0.0122 -0.2240
  867MOL0     C19543  -1.913   3.942   5.469  0.4308 -0.5139 -0.3824
  867MOL0     O19544  -1.966   3.907   5.354 -0.2024 -0.1128  1.7547
  867MOL0     C19545  -2.092   3.843   5.350 -0.3050 -0.9633 -0.5252
  867MOL0     C19546  -2.121   3.787   5.205 -0.3216 -1.0214 -0.0975
  867MOL0     C19547  -2.091   3.886   5.089 -0.1812  0.6047  0.4854
  867MOL0     C19548  -2.087   3.832   4.955 -0.6063  0.3167  0.3651
  867MOL0     C19549  -2.226   3.769   4.918 -0.3454 -0.4327  0.5342
  867MOL0     C19550  -2.331   3.868   4.902  0.9996 -0.3747 -0.8410
  867MOL0     C19551  -2.464   3.801   4.865 -0.6295 -0.0121 -0.5068
  867MOL0     C19552  -2.563   3.770   4.976 -1.0800  0.2032  0.0058
  867MOL0    Cl19553  -2.594   3.909   5.082  0.0400  0.0741 -0.0606
  867MOL0     C19554  -1.789   4.001   5.457  0.6270 -0.4166  1.2268
  867MOL0     C19555  -1.721   4.050   5.558 -0.7676  0.1693 -1.1151
  867MOL0     O19556  -1.541   3.993   5.760  0.5111 -0.5876  0.1809
  867MOL0     C19557  -1.576   4.237   6.008  0.8197  0.2174 -0.5217
  867MOL0     C19558  -1.520   4.283   6.125 -0.0088  0.6415 -0.2463
  867MOL0     N19559  -0.843   4.682   6.437  0.5958  0.8966 -1.0045
  867MOL0     N19560  -0.733   4.706   6.485 -0.2976 -0.5727 -0.6902
  867MOL0     C19561   0.418   4.565   6.674 -0.0410  0.3325 -0.5159
  867MOL0     C19562   0.516   4.475   6.615 -0.3543  0.3966  0.5430
  867MOL0     C19563   0.888   4.266   6.539  0.2534 -0.3489 -0.3475
  867MOL0     C19564   0.886   4.129   6.533 -0.5027  0.6269  0.4807
  867MOL0     C19565   0.972   4.056   6.453 -0.9781  0.1384  0.0255
  867MOL0     C19566   1.070   4.124   6.371  0.3052  0.7302  0.2367
  867MOL0     O19567   1.164   4.043   6.312  0.7093 -0.3380 -0.9111
  867MOL0     C19568   1.175   4.039   6.167 -0.8177 -0.2396 -1.2002
  867MOL0     C19569   1.318   3.997   6.137 -0.8006  0.3139  0.1150
  867MOL0     C19570   1.429   4.104   6.156  0.5538 -0.7840 -0.6236
  867MOL0     C19571   1.564   4.057   6.102 -0.0596 -0.2235  0.4110
  867MOL0     C19572   1.677   4.130   6.155 -0.1664 -0.1973  0.0441
  867MOL0     C19573   1.765   4.192   6.215 -0.7788  0.2249  1.0144
  867MOL0     C19574   1.074   4.258   6.382  0.3488  0.4555  0.2340
  867MOL0     C19575   0.983   4.332   6.451  0.0693  0.7721  0.1190
  867MOL0     C19576   0.986   4.478   6.422 -0.6515  0.3255 -0.4893
  867MOL0     H19577   0.567   4.273   6.888  0.0011  1.5945  3.4486
  867MOL0     H19578   0.400   4.407   6.974  1.6190  1.4745  1.4089
  867MOL0     H19579   0.103   4.485   6.755  3.3146 -1.1521  0.4500
  867MOL0     H19580   0.154   4.631   6.674 -3.2782 -0.0913  0.1656
  867MOL0     H19581   0.021   4.662   6.948 -1.1850  0.2050 -0.3252
  867MOL0     H19582   0.060   4.780   6.823  1.6156 -1.1646 -2.7250
  867MOL0     H19583  -0.156   4.746   6.758 -1.6804 -0.6151  1.0830
  867MOL0     H19584  -0.118   4.595   6.694 -2.8630  0.6609 -0.9359
  867MOL0     H19585  -0.130   4.486   6.932  1.7068  1.7671  1.0578
  867MOL0     H19586  -0.205   4.631   6.983 -1.0356  0.0196  0.7881
  867MOL0     H19587  -0.359   4.438   6.868 -0.4979  1.0085  3.0307
  867MOL0     H19588  -0.302   4.512   6.721  0.3982 -3.7349  1.2585
  867MOL0     H19589  -0.430   4.669   6.951  0.5549  0.3270 -0.1455
  867MOL0     H19590  -0.396   4.744   6.799  0.1746 -0.8636 -1.4529
  867MOL0     H19591  -0.621   4.697   6.814  1.4579  1.2573  0.3757
  867MOL0     H19592  -0.575   4.517   6.842 -1.1037  0.7816  0.2310
  867MOL0     H19593  -0.474   4.670   6.591 -0.1225 -0.6137 -0.7783
  867MOL0     H19594  -0.518   4.496   6.614  0.7815 -0.4520  1.1586
  867MOL0     H19595  -0.803   4.470   6.690 -0.9571  0.4940  0.8003
  867MOL0     H19596  -1.099   4.606   6.541  1.8686 -0.5525  0.9240
  867MOL0     H19597  -1.042   4.453   6.597 -4.0943  0.1191  0.6368
  867MOL0     H19598  -1.043   4.528   6.311  1.3534 -0.0697 -0.2093
  867MOL0     H19599  -0.997   4.367   6.370 -2.3991 -1.9881  2.3556
  867MOL0     H19600  -1.195   4.336   6.495  1.3807 -2.8130 -1.5745
  867MOL0     H19601  -1.269   4.483   6.392  2.6437  1.7838  0.4945
  867MOL0     H19602  -1.203   4.321   6.206 -0.7448  0.9269  1.2956
  867MOL0     H19603  -1.170   4.190   6.318 -0.1926  0.4589  4.1170
  867MOL0     H19604  -1.341   4.016   6.219  1.9545  1.7925  0.7842
  867MOL0     H19605  -1.386   3.884   5.907 -1.0133 -1.2777 -0.0273
  867MOL0     H19606  -1.548   3.836   5.980 -1.7682 -0.0152  2.0510
  867MOL0     H19607  -1.412   3.818   6.071 -0.9741 -0.1465 -0.5911
  867MOL0     H19608  -1.963   4.008   5.803  1.5398 -0.2239  0.6923
  867MOL0     H19609  -2.061   3.877   5.619  0.1889 -0.0370  1.4301
  867MOL0     H19610  -2.102   3.759   5.419  2.2494  1.0316  2.4958
  867MOL0     H19611  -2.162   3.925   5.369  2.9652  2.4934 -2.1055
  867MOL0     H19612  -2.067   3.693   5.191 -1.4449 -1.7582  0.3486
  867MOL0     H19613  -2.227   3.760   5.201 -1.5063  3.1104 -1.2201
  867MOL0     H19614  -1.990   3.927   5.098 -0.0818  0.5642 -0.3772
  867MOL0     H19615  -2.151   3.977   5.101 -0.6000  1.1413 -3.9349
  867MOL0     H19616  -2.011   3.753   4.945 -0.2706  0.8945 -2.2261
  867MOL0     H19617  -2.065   3.915   4.887 -1.2652  0.1153 -0.0961
  867MOL0     H19618  -2.206   3.719   4.823  0.2537 -0.6879  0.7894
  867MOL0     H19619  -2.257   3.692   4.989  1.7587 -1.9135 -0.0534
  867MOL0     H19620  -2.310   3.938   4.821 -2.9694  1.1426 -0.8277
  867MOL0     H19621  -2.344   3.931   4.991  0.8952 -1.7958  0.1830
  867MOL0     H19622  -2.440   3.714   4.803 -0.0297  0.5690 -1.1120
  867MOL0     H19623  -2.519   3.881   4.813 -1.4622 -1.2080 -1.5304
  867MOL0     H19624  -2.541   3.676   5.026 -0.0471 -0.1119 -1.0027
  867MOL0     H19625  -2.645   3.754   4.905  0.3552 -0.8853 -1.4889
  867MOL0     H19626  -1.755   4.009   5.354  1.1316  0.3760  1.4431
  867MOL0     H19627  -1.624   4.096   5.542 -0.2305  0.2419  1.7667
  867MOL0     H19628  -1.653   4.296   5.960  0.8602 -0.4534 -1.4252
  867MOL0     H19629  -1.547   4.376   6.175 -0.8164  0.8794 -1.0976
  867MOL0     H19630   0.365   4.639   6.615 -0.7732  0.6006  0.4447
  867MOL0     H19631   0.539   4.468   6.509 -0.5643 -1.8138  0.5980
  867MOL0     H19632   0.812   4.068   6.584  0.7984 -0.6989  0.8523
  867MOL0     H19633   0.964   3.948   6.456  1.9896 -0.3104  5.8003
  867MOL0     H19634   1.103   3.968   6.124 -1.8250  1.7617 -2.9992
  867MOL0     H19635   1.143   4.134   6.122 -3.6854  1.3188  3.3787
  867MOL0     H19636   1.330   3.965   6.033  3.6895 -1.6062  0.9836
  867MOL0     H19637   1.346   3.910   6.197  0.0124 -2.3730 -3.7971
  867MOL0     H19638   1.398   4.200   6.114 -0.3854 -0.5817  0.4638
  867MOL0     H19639   1.445   4.131   6.261  1.5107  0.0292 -0.9572
  867MOL0     H19640   1.563   4.083   5.996 -2.0845  1.4112  0.7747
  867MOL0     H19641   1.567   3.949   6.120 -2.4220 -0.2335  1.0591
  867MOL0     H19642   1.844   4.231   6.276 -0.3505  1.4301 -0.2371
  867MOL0     H19643   1.154   4.308   6.329  0.0499  0.4523 -0.2255
  867MOL0     H19644   1.037   4.497   6.327 -0.7809  1.2747 -0.3761
  867MOL0     H19645   0.882   4.513   6.416 -0.8185 -0.1560 -0.4828
  867MOL0     H19646   1.036   4.527   6.506  0.0900 -4.5810  2.2839
  868MOL0     O19647   5.317   3.652   8.714 -0.4181 -0.6764 -0.4249
  868MOL0     C19648   5.380   3.667   8.819  0.5098 -0.2021 -0.6230
  868MOL0     O19649   5.512   3.683   8.837 -0.5612 -0.4509  0.5794
  868MOL0     C19650   5.600   3.682   8.732 -0.2477 -0.2362 -1.2794
  868MOL0     C19651   5.584   3.625   8.607 -0.1134  0.3054 -0.1043
  868MOL0     C19652   5.687   3.619   8.520 -0.2529  0.4100 -0.2657
  868MOL0     C19653   5.813   3.661   8.546 -0.8514  0.0812 -0.8200
  868MOL0     O19654   5.927   3.641   8.466  0.0577 -0.3344 -0.1031
  868MOL0     C19655   5.906   3.629   8.321  0.7617 -0.5907 -0.4881
  868MOL0     C19656   5.981   3.508   8.272 -0.4497  0.1313  0.2353
  868MOL0     C19657   6.126   3.541   8.243  0.6090  0.0493 -0.3096
  868MOL0     C19658   6.223   3.429   8.260  0.0346 -0.0991  0.0221
  868MOL0     C19659   6.370   3.476   8.227  1.1173 -0.3600 -0.2303
  868MOL0     C19660   6.477   3.380   8.286 -0.0462  0.1934  0.1616
  868MOL0     C19661   6.466   3.218   8.255 -0.1490 -0.2967  1.0072
  868MOL0     C19662   6.442   3.180   8.101 -0.6201  0.5352  0.6827
  868MOL0     N19663   6.398   3.036   8.083 -0.7621  0.1499 -0.6110
  868MOL0     C19664   6.272   3.004   8.115  0.4909  0.5532  0.8487
  868MOL0     C19665   6.267   2.874   8.114  0.0199  0.4432  0.6621
  868MOL0     C19666   6.141   2.800   8.146  0.4769  0.4161  0.5170
  868MOL0     C19667   6.127   2.667   8.062  0.1961  0.7512  0.8368
  868MOL0     C19668   6.041   2.550   8.111 -0.3714 -0.1200  0.0634
  868MOL0     C19669   5.903   2.598   8.138  0.0542  0.2732 -0.2409
  868MOL0     O19670   5.853   2.665   8.025  0.3550 -0.8040 -0.0862
  868MOL0     C19671   5.733   2.730   8.041  0.5381 -0.1255  0.2225
  868MOL0     C19672   5.695   2.825   7.945 -0.1704  0.1261  0.7588
  868MOL0     C19673   5.589   2.908   7.955  0.0631 -0.9448 -0.5988
  868MOL0     C19674   5.557   3.009   7.840  0.3589 -0.0865  0.3943
  868MOL0     C19675   5.495   2.894   8.067  0.0858  0.0888  1.3028
  868MOL0     C19676   5.361   2.970   8.071  0.0148 -0.1235  0.0997
  868MOL0     O19677   5.277   2.912   8.167 -0.3997 -0.4278 -0.8491
  868MOL0     C19678   5.166   2.990   8.186 -0.1598  0.1641  0.2822
  868MOL0     C19679   5.161   3.121   8.230 -0.4217  0.8955 -1.2252
  868MOL0     C19680   5.032   3.182   8.239  0.1191  1.4465 -0.6478
  868MOL0     C19681   4.915   3.122   8.197 -0.7164 -1.3547  0.0622
  868MOL0     O19682   4.795   3.185   8.216  0.4271  0.6956 -0.5857
  868MOL0     C19683   4.760   3.295   8.133 -0.3476  1.0532 -0.3570
  868MOL0     C19684   4.615   3.274   8.085  0.5687  0.1559 -0.3143
  868MOL0     C19685   4.546   3.379   8.000 -0.0778  0.0950  0.1853
  868MOL0     C19686   4.645   3.430   7.892  1.7424  0.6302 -0.3853
  868MOL0     C19687   4.547   3.483   7.771 -1.3730  0.5321 -0.2800
  868MOL0     C19688   4.490   3.365   7.683  0.2068 -0.1276  0.2522
  868MOL0     C19689   4.485   3.415   7.529 -1.1067  1.0610 -0.0690
  868MOL0     C19690   4.362   3.367   7.453  0.2616 -1.1043 -0.3994
  868MOL0    Cl19691   4.367   3.191   7.413 -0.5282  0.3430 -0.1209
  868MOL0     C19692   4.918   2.989   8.165  0.7469 -0.0633  0.5427
  868MOL0     C19693   5.048   2.924   8.157  1.1947  0.0836 -0.6528
  868MOL0     O19694   5.329   3.065   7.994  0.4816 -0.2946  0.2558
  868MOL0     C19695   5.533   2.803   8.166  0.7174  0.0990 -0.0899
  868MOL0     C19696   5.649   2.726   8.157 -0.5153 -0.0489  0.5902
  868MOL0     N19697   6.393   2.826   8.074 -0.1039  0.3251 -0.8524
  868MOL0     N19698   6.469   2.928   8.071  0.0725 -0.4010 -0.0912
  868MOL0     C19699   5.837   3.717   8.675 -0.6153 -0.5229 -0.0631
  868MOL0     C19700   5.728   3.726   8.770  0.1259 -0.0538 -0.0791
  868MOL0     C19701   5.293   3.658   8.948  0.4872  0.2617 -0.6320
  868MOL0     C19702   5.150   3.645   8.929 -0.4518  0.0270 -0.1943
  868MOL0     C19703   5.065   3.657   9.037 -0.0448 -0.1945 -0.8571
  868MOL0     C19704   5.108   3.675   9.164  0.1773  0.2323 -0.3351
  868MOL0     O19705   5.041   3.678   9.288 -1.0133  0.5125  0.2929
  868MOL0     C19706   4.900   3.697   9.274  0.5897  0.0901  0.2659
  868MOL0     C19707   4.830   3.574   9.297  0.3005  0.5715  1.3499
  868MOL0     C19708   4.674   3.591   9.287 -0.2553 -0.1346  0.5591
  868MOL0     C19709   4.603   3.469   9.348  0.0982  0.0065 -0.1834
  868MOL0     C19710   4.600   3.345   9.268  0.0848  0.6952 -0.0532
  868MOL0     C19711   4.593   3.241   9.206 -0.1851  0.0782  0.4755
  868MOL0     C19712   5.245   3.690   9.187 -0.3859  0.2800  0.4116
  868MOL0     C19713   5.338   3.677   9.082  0.6823  0.9579  0.4456
  868MOL0     C19714   5.491   3.685   9.119  0.4306 -0.5657 -0.9187
  868MOL0     H19715   5.500   3.566   8.570  1.4995 -2.2458  0.0767
  868MOL0     H19716   5.656   3.571   8.428  2.1918  1.8387 -1.9394
  868MOL0     H19717   5.943   3.717   8.268  2.4989 -0.1620  1.2925
  868MOL0     H19718   5.798   3.627   8.303  0.4342  2.1822  0.6376
  868MOL0     H19719   5.978   3.426   8.345  1.3195 -0.1305  0.0732
  868MOL0     H19720   5.924   3.473   8.185 -2.6925  3.7986  0.0260
  868MOL0     H19721   6.134   3.575   8.140 -1.8595 -0.2071 -0.6424
  868MOL0     H19722   6.165   3.619   8.309 -2.3938 -0.1221  1.8534
  868MOL0     H19723   6.219   3.392   8.363 -0.5030 -0.6181 -0.1769
  868MOL0     H19724   6.182   3.352   8.194 -3.3235 -0.4556  2.2665
  868MOL0     H19725   6.398   3.574   8.268  0.9903  0.1365 -1.2884
  868MOL0     H19726   6.379   3.477   8.118  1.1785 -2.4501 -0.2739
  868MOL0     H19727   6.577   3.418   8.262  0.1139 -0.6584 -0.5849
  868MOL0     H19728   6.482   3.397   8.394 -0.3441 -0.6079  0.3080
  868MOL0     H19729   6.384   3.169   8.308 -1.2022  1.4669  1.0961
  868MOL0     H19730   6.557   3.166   8.285 -1.1968 -2.5813  0.4312
  868MOL0     H19731   6.377   3.250   8.048  0.4173  0.0450 -1.3480
  868MOL0     H19732   6.533   3.204   8.044  0.6645 -2.5609  1.2229
  868MOL0     H19733   6.193   3.075   8.139  0.5013  1.8157 -2.3423
  868MOL0     H19734   6.054   2.864   8.132  0.1810  0.1934  1.2950
  868MOL0     H19735   6.158   2.769   8.249 -0.4811 -3.4306 -0.2957
  868MOL0     H19736   6.088   2.695   7.964  0.0984  1.5379  1.0867
  868MOL0     H19737   6.224   2.618   8.063  0.1988  0.7550  1.1672
  868MOL0     H19738   6.033   2.467   8.040 -0.9340  1.2825 -1.5579
  868MOL0     H19739   6.085   2.500   8.199  1.8450 -1.0745 -1.5077
  868MOL0     H19740   5.834   2.516   8.160 -1.1604  1.3555  0.1031
  868MOL0     H19741   5.896   2.665   8.224 -2.7504 -0.3194  0.1129
  868MOL0     H19742   5.778   2.834   7.875  2.5815 -2.4330  3.3998
  868MOL0     H19743   5.459   2.995   7.791 -1.3940 -0.2235  3.6492
  868MOL0     H19744   5.631   3.008   7.759  0.7784 -0.8233  0.7801
  868MOL0     H19745   5.555   3.110   7.881  1.8784 -0.4578  1.4559
  868MOL0     H19746   5.255   3.169   8.252 -0.1915  0.7282 -1.8376
  868MOL0     H19747   5.039   3.286   8.271  0.6897  0.7543  1.6605
  868MOL0     H19748   4.796   3.389   8.177 -0.3380  1.7148 -1.7348
  868MOL0     H19749   4.825   3.289   8.045  1.4842  2.4108  0.8284
  868MOL0     H19750   4.608   3.181   8.027  1.3103  0.0502 -0.2507
  868MOL0     H19751   4.550   3.255   8.171  1.5693 -0.0705  0.4042
  868MOL0     H19752   4.492   3.462   8.047 -1.4072  0.4280 -1.8292
  868MOL0     H19753   4.457   3.329   7.962 -3.1618  4.1672  1.3137
  868MOL0     H19754   4.707   3.348   7.855  0.4918  0.2712 -1.8164
  868MOL0     H19755   4.712   3.510   7.924  2.9741  0.5514 -2.5598
  868MOL0     H19756   4.469   3.553   7.802  0.0788  2.1085 -0.0766
  868MOL0     H19757   4.609   3.547   7.709 -0.3555  1.8237  1.9276
  868MOL0     H19758   4.394   3.322   7.714  1.3977 -2.2235  1.3232
  868MOL0     H19759   4.559   3.280   7.691  2.0693  1.2759 -0.2951
  868MOL0     H19760   4.574   3.395   7.467 -1.2139  3.8178 -1.2366
  868MOL0     H19761   4.488   3.524   7.527  1.5226  1.0443 -0.9980
  868MOL0     H19762   4.356   3.424   7.360 -2.9340  0.4002  0.5745
  868MOL0     H19763   4.272   3.405   7.502  0.1838  1.8303 -2.5402
  868MOL0     H19764   4.830   2.929   8.142  1.4410 -0.9237  0.0618
  868MOL0     H19765   5.043   2.817   8.138  2.7404 -1.1372  4.3481
  868MOL0     H19766   5.476   2.790   8.257  1.8387  0.6128  0.7141
  868MOL0     H19767   5.662   2.645   8.227  2.6849 -1.4859 -1.4284
  868MOL0     H19768   5.934   3.747   8.714 -0.8534 -0.1452  0.2461
  868MOL0     H19769   5.746   3.773   8.866  0.0624 -0.0437 -0.0723
  868MOL0     H19770   5.100   3.621   8.836 -0.3550  2.3424 -0.9225
  868MOL0     H19771   4.958   3.647   9.026  0.1326 -0.8230 -2.2844
  868MOL0     H19772   4.867   3.755   9.361  0.6321  2.6628 -1.3638
  868MOL0     H19773   4.866   3.754   9.188  1.7067 -0.3588 -0.5004
  868MOL0     H19774   4.848   3.546   9.402  0.3713 -1.6994  0.7823
  868MOL0     H19775   4.866   3.490   9.239 -0.7475 -1.5558  3.5738
  868MOL0     H19776   4.632   3.672   9.346 -2.9057 -1.5387  0.7570
  868MOL0     H19777   4.646   3.595   9.181 -0.5136 -0.9195  0.5914
  868MOL0     H19778   4.499   3.496   9.365  0.2583  1.2156 -0.9799
  868MOL0     H19779   4.652   3.448   9.443  1.8454 -0.2222 -1.0834
  868MOL0     H19780   4.568   3.150   9.155  2.5098 -1.1827  1.1864
  868MOL0     H19781   5.292   3.707   9.283  1.5547 -0.8555 -0.2639
  868MOL0     H19782   5.521   3.787   9.094 -0.0127 -0.8034 -2.5762
  868MOL0     H19783   5.497   3.667   9.226 -0.9664 -0.7209 -0.8399
  868MOL0     H19784   5.549   3.613   9.061  1.3266 -3.0705  2.8177
  869MOL0     O19785   9.102   6.443   2.884 -0.5841 -0.2828  0.2903
  869MOL0     C19786   9.218   6.473   2.878  0.1323  0.2021  0.4807
  869MOL0     O19787   9.322   6.393   2.854 -0.2217  1.4312 -0.0599
  869MOL0     C19788   9.315   6.259   2.881 -0.0579 -0.4827 -0.5089
  869MOL0     C19789   9.256   6.174   2.794 -0.1062 -0.2039  1.0644
  869MOL0     C19790   9.253   6.033   2.813 -0.0174  0.2987 -0.3885
  869MOL0     C19791   9.324   5.974   2.927 -0.2716 -0.0139  1.0953
  869MOL0     O19792   9.319   5.844   2.962  0.1341  0.4322  0.4629
  869MOL0     C19793   9.196   5.776   2.947 -0.3274  1.3600 -0.4284
  869MOL0     C19794   9.224   5.632   2.925  0.7981 -0.6570 -1.3726
  869MOL0     C19795   9.293   5.607   2.788  0.3554 -0.6942 -0.0783
  869MOL0     C19796   9.419   5.525   2.811  0.9888 -0.2951  0.2530
  869MOL0     C19797   9.481   5.497   2.670  0.3337  1.1067  0.1867
  869MOL0     C19798   9.624   5.440   2.670  0.1528  0.1537  0.5380
  869MOL0     C19799   9.643   5.360   2.542 -0.2750 -0.1405 -0.2725
  869MOL0     C19800   9.770   5.280   2.505  0.4493  0.2702 -1.0246
  869MOL0     N19801   9.896   5.356   2.518 -0.0461  0.0448  1.2641
  869MOL0     C19802   9.944   5.420   2.626  0.7895 -0.0028  0.1891
  869MOL0     C19803  10.040   5.493   2.571  0.2449 -0.0343 -0.0210
  869MOL0     C19804  10.145   5.583   2.637  0.2870  0.2140  1.4427
  869MOL0     C19805  10.116   5.596   2.788 -0.2607 -0.6010  0.2174
  869MOL0     C19806  10.200   5.712   2.836 -0.3139 -0.2782  0.3713
  869MOL0     C19807  10.349   5.679   2.858  0.7187 -0.4953 -0.0335
  869MOL0     O19808  10.363   5.574   2.952 -0.8723  0.2918  0.0756
  869MOL0     C19809  10.360   5.609   3.087 -0.1039  1.3254  0.1336
  869MOL0     C19810  10.486   5.606   3.146  0.1460  0.8289 -0.0246
  869MOL0     C19811  10.501   5.642   3.278 -0.6794 -0.0971 -0.0627
  869MOL0     C19812  10.634   5.620   3.339  0.5781  0.2509  0.6050
  869MOL0     C19813  10.390   5.700   3.344  0.8440 -0.7079  0.1649
  869MOL0     C19814  10.408   5.763   3.487 -0.5281 -0.7297 -0.2432
  869MOL0     O19815  10.521   5.842   3.518 -0.6026  0.4754  0.3486
  869MOL0     C19816  10.510   5.932   3.622  0.0285  0.3624 -0.1022
  869MOL0     C19817  10.466   6.070   3.608  0.1211  0.0288 -0.6500
  869MOL0     C19818  10.459   6.147   3.724 -0.4068 -0.6641  0.0929
  869MOL0     C19819  10.470   6.102   3.857 -0.0014  0.2940 -0.4153
  869MOL0     O19820  10.436   6.183   3.963 -0.3411  0.2846 -0.1901
  869MOL0     C19821  10.445   6.145   4.103 -0.7945  0.4124 -0.5032
  869MOL0     C19822  10.528   6.225   4.202 -0.0092  0.5084 -1.1834
  869MOL0     C19823  10.669   6.170   4.218  0.5801  0.3624  0.1572
  869MOL0     C19824  10.674   6.064   4.325 -0.2763 -0.6109 -1.1448
  869MOL0     C19825  10.811   5.994   4.353  0.0078  0.4572  0.6146
  869MOL0     C19826  10.891   5.951   4.225 -0.3474  1.1434 -0.6675
  869MOL0     C19827  11.010   5.863   4.271  0.1845 -0.2509  0.1539
  869MOL0     C19828  11.130   5.874   4.192  0.1687 -0.5565 -0.7864
  869MOL0    Cl19829  11.074   5.832   4.028  0.2412 -0.3763  0.1673
  869MOL0     C19830  10.518   5.968   3.869 -0.4786 -0.5605 -0.7372
  869MOL0     C19831  10.536   5.895   3.752 -0.5959  0.8702  0.4291
  869MOL0     O19832  10.307   5.756   3.558 -0.0637  0.4721  0.7952
  869MOL0     C19833  10.267   5.709   3.279  0.1402  0.4343  1.0141
  869MOL0     C19834  10.250   5.666   3.150 -0.0882  0.6113 -0.0104
  869MOL0     N19835  10.053   5.468   2.438 -0.0876 -0.3751 -0.4617
  869MOL0     N19836   9.968   5.378   2.405 -0.0171  0.7258  0.0540
  869MOL0     C19837   9.400   6.068   3.009 -0.3252  0.3317  0.3372
  869MOL0     C19838   9.388   6.206   2.988  0.4265 -0.6647  0.5288
  869MOL0     C19839   9.261   6.618   2.896 -0.4187  0.0379 -0.0788
  869MOL0     C19840   9.384   6.669   2.955  0.9166  0.1485  0.2282
  869MOL0     C19841   9.412   6.806   2.967  0.2232 -1.3403  0.4118
  869MOL0     C19842   9.329   6.907   2.937  0.2586 -0.0096 -0.1170
  869MOL0     O19843   9.341   7.037   2.994 -0.3047 -0.1020  0.0092
  869MOL0     C19844   9.226   7.124   2.984  0.6889  0.4274 -0.1835
  869MOL0     C19845   9.232   7.225   3.091  0.3684  0.9922  0.0877
  869MOL0     C19846   9.108   7.314   3.087  0.7742  0.1271 -0.6556
  869MOL0     C19847   9.111   7.411   3.197 -0.3397 -0.6392 -0.0472
  869MOL0     C19848   9.011   7.517   3.215  0.7744 -0.3602 -0.0080
  869MOL0     C19849   8.926   7.600   3.208  0.4090  0.3928 -0.0714
  869MOL0     C19850   9.210   6.863   2.875 -1.0286  0.3687 -0.1557
  869MOL0     C19851   9.172   6.727   2.850 -0.6776 -0.1555 -0.7132
  869MOL0     C19852   9.050   6.705   2.770 -0.5477 -0.2286  0.9127
  869MOL0     H19853   9.203   6.217   2.709 -1.1198  0.7060  2.1134
  869MOL0     H19854   9.198   5.964   2.749  0.5234 -0.8478  0.3433
  869MOL0     H19855   9.119   5.817   2.881 -1.3323  2.8329  1.5350
  869MOL0     H19856   9.148   5.779   3.045 -2.6928  2.0055 -1.5196
  869MOL0     H19857   9.294   5.595   3.000  1.1903 -1.7878 -2.2636
  869MOL0     H19858   9.127   5.584   2.941 -0.0510  1.2164 -0.6201
  869MOL0     H19859   9.215   5.553   2.734 -1.9185  1.3312  0.9459
  869MOL0     H19860   9.318   5.705   2.747  5.0127 -0.2623  2.9437
  869MOL0     H19861   9.489   5.573   2.880  3.2282 -2.8483 -0.0793
  869MOL0     H19862   9.406   5.431   2.865  1.7613  1.2013  3.3066
  869MOL0     H19863   9.477   5.585   2.605  0.6913 -0.3695 -1.9486
  869MOL0     H19864   9.423   5.424   2.613 -0.3195  1.1729  0.7485
  869MOL0     H19865   9.699   5.520   2.669 -1.0687  1.3825 -1.9255
  869MOL0     H19866   9.634   5.371   2.755  2.1148 -1.9262 -1.2252
  869MOL0     H19867   9.624   5.436   2.465 -1.6275 -0.5596 -0.3914
  869MOL0     H19868   9.555   5.298   2.520 -1.2344  1.1801 -0.3187
  869MOL0     H19869   9.775   5.186   2.560 -0.8152  1.2971  0.9647
  869MOL0     H19870   9.763   5.260   2.398  0.4917 -2.9851 -0.5189
  869MOL0     H19871   9.911   5.411   2.729  1.9268 -0.1155  0.5568
  869MOL0     H19872  10.154   5.678   2.584  2.3011  0.0514  1.4400
  869MOL0     H19873  10.238   5.527   2.625  1.0694  1.9616 -1.4108
  869MOL0     H19874  10.010   5.621   2.804 -0.2690  0.4120 -1.2324
  869MOL0     H19875  10.145   5.510   2.849  3.4663  1.3284  1.4816
  869MOL0     H19876  10.208   5.797   2.767 -0.8300  0.5376  1.2980
  869MOL0     H19877  10.164   5.754   2.930  1.0577 -1.4361  1.4535
  869MOL0     H19878  10.401   5.657   2.764  3.6564 -3.3207  2.0537
  869MOL0     H19879  10.392   5.770   2.900  0.0258  0.1322 -0.6507
  869MOL0     H19880  10.576   5.572   3.095  0.5718  2.8805 -0.7382
  869MOL0     H19881  10.684   5.717   3.342  1.1818 -0.0162 -0.4524
  869MOL0     H19882  10.693   5.556   3.273  1.9866  0.7117  1.3804
  869MOL0     H19883  10.621   5.573   3.437 -2.3264  0.3142  0.3493
  869MOL0     H19884  10.421   6.117   3.521  4.3057  2.7192 -1.6444
  869MOL0     H19885  10.415   6.246   3.711  1.1746  0.2740  1.4428
  869MOL0     H19886  10.340   6.145   4.131 -1.2743  0.4808 -2.1746
  869MOL0     H19887  10.471   6.040   4.120 -1.4840  0.2138 -0.6372
  869MOL0     H19888  10.535   6.327   4.162 -0.1684  0.8465 -0.3641
  869MOL0     H19889  10.481   6.228   4.301  0.3637  1.6259 -1.0232
  869MOL0     H19890  10.737   6.250   4.249  3.0461 -0.4565 -2.6078
  869MOL0     H19891  10.708   6.126   4.125  0.5535 -0.3963  0.4941
  869MOL0     H19892  10.600   5.987   4.300  1.0958 -2.5662  0.5022
  869MOL0     H19893  10.643   6.108   4.420 -1.4972  1.4332 -2.4022
  869MOL0     H19894  10.874   6.076   4.389  1.8491 -0.6831  0.1042
  869MOL0     H19895  10.809   5.904   4.414  0.0662  0.2499  0.3139
  869MOL0     H19896  10.925   6.032   4.160 -0.2625  0.9628 -0.8490
  869MOL0     H19897  10.819   5.885   4.175  0.5473  0.6150 -1.2748
  869MOL0     H19898  10.989   5.756   4.280  1.3353 -0.3556  2.0713
  869MOL0     H19899  11.048   5.887   4.371 -1.7848 -2.6178  1.5934
  869MOL0     H19900  11.204   5.798   4.217  0.7110  0.2776  0.1942
  869MOL0     H19901  11.166   5.975   4.214 -4.5145  1.3924 -0.8263
  869MOL0     H19902  10.535   5.925   3.967 -0.3731  1.1289  0.0324
  869MOL0     H19903  10.549   5.789   3.773  1.0951  0.5707 -1.7607
  869MOL0     H19904  10.181   5.754   3.329  0.2883  3.8504 -1.4920
  869MOL0     H19905  10.153   5.680   3.105 -0.8028 -4.8669 -0.8113
  869MOL0     H19906   9.444   6.025   3.099 -0.7932 -1.2283 -0.1521
  869MOL0     H19907   9.439   6.265   3.064 -2.1992 -0.3726  2.2019
  869MOL0     H19908   9.464   6.602   2.986  0.8179  1.3867  3.5888
  869MOL0     H19909   9.504   6.843   3.013 -0.3011 -1.2567  1.4335
  869MOL0     H19910   9.203   7.156   2.882 -0.4318 -3.6785 -1.3968
  869MOL0     H19911   9.136   7.071   3.019  1.1396 -0.6039 -0.5556
  869MOL0     H19912   9.325   7.284   3.085  1.2855 -0.0007  2.9463
  869MOL0     H19913   9.230   7.165   3.182 -0.7886 -0.3922 -0.7960
  869MOL0     H19914   9.107   7.358   2.987 -0.1685  1.1959 -0.2060
  869MOL0     H19915   9.020   7.250   3.098  1.5244 -1.3069 -2.4575
  869MOL0     H19916   9.206   7.465   3.196 -1.4309  1.3864  0.7751
  869MOL0     H19917   9.096   7.362   3.294 -2.4154  0.5554  0.2838
  869MOL0     H19918   8.841   7.665   3.210  0.9077  1.1209 -1.4924
  869MOL0     H19919   9.143   6.936   2.831  0.1074  0.6020 -1.5710
  869MOL0     H19920   9.051   6.784   2.694  3.3246 -0.0959  0.8921
  869MOL0     H19921   9.053   6.608   2.720 -1.9163  0.2306 -0.1337
  869MOL0     H19922   8.958   6.716   2.828 -2.3613 -1.5946 -1.4860
  870MOL0     O19923   2.082   4.453   9.718 -0.1513  0.2120 -0.4997
  870MOL0     C19924   2.052   4.345   9.770 -0.2500  0.1969 -1.3448
  870MOL0     O19925   2.012   4.332   9.908  0.4474 -0.3695 -0.3077
  870MOL0     C19926   1.969   4.439   9.987  0.6901 -0.5101 -0.4160
  870MOL0     C19927   1.924   4.566   9.946  0.5217 -0.3933 -0.2669
  870MOL0     C19928   1.907   4.671  10.040  0.4829 -0.0259 -0.3894
  870MOL0     C19929   1.915   4.647  10.172 -0.3927  0.8837 -0.1522
  870MOL0     O19930   1.882   4.741  10.267  0.0035 -0.0471  0.6887
  870MOL0     C19931   1.966   4.755  10.393 -0.4909  0.2095 -0.4738
  870MOL0     C19932   2.099   4.821  10.353  0.5032 -0.1390  0.3985
  870MOL0     C19933   2.075   4.945  10.267 -0.2723 -0.0720 -0.5740
  870MOL0     C19934   2.203   5.029  10.258  0.1800 -1.0043 -0.0433
  870MOL0     C19935   2.226   5.100  10.124 -0.6928 -0.5231  0.3843
  870MOL0     C19936   2.354   5.179  10.141 -0.4036 -0.7851 -0.2468
  870MOL0     C19937   2.323   5.326  10.190 -0.2000  0.0233 -0.0773
  870MOL0     C19938   2.457   5.398  10.234  0.7675  0.2930  0.0100
  870MOL0     N19939   2.442   5.545  10.233  0.0998 -0.4531 -0.4693
  870MOL0     C19940   2.554   5.629  10.188 -0.1066  0.4131 -0.4194
  870MOL0     C19941   2.503   5.751  10.212  0.3214 -0.1778 -0.3608
  870MOL0     C19942   2.579   5.882  10.190 -0.1706 -0.2155 -0.1092
  870MOL0     C19943   2.682   5.899  10.309 -0.6030 -1.2811 -0.4020
  870MOL0     C19944   2.800   5.998  10.268 -0.3082 -0.4985  0.2066
  870MOL0     C19945   2.923   5.931  10.217  0.5167  0.0251 -0.1621
  870MOL0     O19946   2.892   5.850  10.095  0.1831  0.1163  0.1352
  870MOL0     C19947   2.982   5.755  10.065  1.0989 -0.1807 -0.6117
  870MOL0     C19948   3.118   5.749  10.086  0.9913  1.4151 -0.2867
  870MOL0     C19949   3.202   5.645  10.040 -0.0235 -0.8946 -0.0008
  870MOL0     C19950   3.347   5.641  10.094 -0.1129  0.2672  0.1682
  870MOL0     C19951   3.150   5.542   9.963 -0.3574  0.4133  0.2697
  870MOL0     C19952   3.231   5.440   9.890 -0.4905  0.9833  0.2075
  870MOL0     O19953   3.364   5.452   9.870 -0.5943 -0.3623 -0.0668
  870MOL0     C19954   3.453   5.356   9.829  0.2757 -0.0111  0.1696
  870MOL0     C19955   3.478   5.251   9.919  0.1233  0.1366  0.0991
  870MOL0     C19956   3.580   5.158   9.889 -0.2172  0.3941  0.4147
  870MOL0     C19957   3.656   5.178   9.777  0.0724  0.1967 -0.1067
  870MOL0     O19958   3.736   5.082   9.735 -0.7994  0.4796  1.2399
  870MOL0     C19959   3.878   5.099   9.743 -0.5186  0.0557 -0.3056
  870MOL0     C19960   3.944   4.995   9.655  1.1171 -0.8844 -0.4657
  870MOL0     C19961   3.896   4.853   9.694  0.0575  0.9787  0.1432
  870MOL0     C19962   3.964   4.745   9.616 -0.1064 -0.3878 -0.3866
  870MOL0     C19963   3.914   4.606   9.649 -0.7350 -0.0020  0.1596
  870MOL0     C19964   3.889   4.569   9.800 -0.0906 -0.8846 -0.3214
  870MOL0     C19965   3.884   4.421   9.832 -0.8909 -0.4621 -0.1815
  870MOL0     C19966   3.858   4.405   9.979  0.2668  0.0842 -0.0369
  870MOL0    Cl19967   4.003   4.446  10.074  0.7070 -0.3645 -0.0976
  870MOL0     C19968   3.635   5.285   9.696  0.1845 -0.8677  1.1499
  870MOL0     C19969   3.534   5.372   9.719 -0.2317  0.0745  0.4454
  870MOL0     O19970   3.169   5.343   9.840  0.3922 -0.4615  0.2148
  870MOL0     C19971   3.005   5.537   9.957 -0.2570  0.5840  1.5556
  870MOL0     C19972   2.926   5.645  10.000 -0.2233  0.7469 -0.3765
  870MOL0     N19973   2.384   5.732  10.287  0.3463  0.2957 -0.2074
  870MOL0     N19974   2.342   5.612  10.289 -0.4428  0.7314  0.3273
  870MOL0     C19975   1.943   4.516  10.217 -0.2100 -0.0550  0.0612
  870MOL0     C19976   1.976   4.416  10.117 -1.1351  0.0893  0.0008
  870MOL0     C19977   2.066   4.216   9.696  0.2020 -0.9701  0.3048
  870MOL0     C19978   2.026   4.221   9.561 -1.3975  0.1105 -0.2609
  870MOL0     C19979   2.046   4.104   9.482 -0.1621  0.4831 -1.4943
  870MOL0     C19980   2.104   3.995   9.536  0.1393  0.1070 -0.3425
  870MOL0     O19981   2.107   3.881   9.458  1.2212  0.3093  0.3478
  870MOL0     C19982   2.098   3.755   9.518 -0.3926 -0.5918 -0.1303
  870MOL0     C19983   2.034   3.650   9.426 -0.9660  0.1749 -0.0956
  870MOL0     C19984   1.951   3.542   9.500  0.1961 -0.4067  1.0968
  870MOL0     C19985   1.853   3.467   9.403 -0.6144 -0.0683  0.2886
  870MOL0     C19986   1.776   3.373   9.489 -0.0152  0.0408 -0.0451
  870MOL0     C19987   1.712   3.294   9.554 -0.1859 -0.5355 -0.3947
  870MOL0     C19988   2.138   3.995   9.675 -0.7616 -0.0816  0.1643
  870MOL0     C19989   2.120   4.105   9.751 -0.6448 -0.3380 -0.0580
  870MOL0     C19990   2.174   4.115   9.886 -0.8834  0.0285  0.5556
  870MOL0     H19991   1.910   4.591   9.842  1.8755 -1.4101 -0.7079
  870MOL0     H19992   1.864   4.767  10.015 -0.4804  0.2050  1.8586
  870MOL0     H19993   1.992   4.668  10.455  1.4925  1.5668  0.7188
  870MOL0     H19994   1.913   4.819  10.465  0.6476 -0.0551  0.6416
  870MOL0     H19995   2.169   4.844  10.433  1.3327 -1.5118  0.1008
  870MOL0     H19996   2.145   4.747  10.287 -1.9514 -0.4390 -1.1331
  870MOL0     H19997   2.051   4.914  10.165  1.5633 -0.4047 -0.9488
  870MOL0     H19998   1.992   5.005  10.307  3.7668  3.6143  3.4856
  870MOL0     H19999   2.197   5.107  10.334 -0.6288 -0.7464 -0.3577
  870MOL0     H20000   2.288   4.960  10.269  0.9580 -0.4165 -1.9204
  870MOL0     H20001   2.147   5.171  10.097  0.8559  1.3838  0.6604
  870MOL0     H20002   2.242   5.031  10.041 -0.3797 -0.2439  0.2119
  870MOL0     H20003   2.418   5.135  10.217 -2.2133 -1.7800  0.7771
  870MOL0     H20004   2.411   5.176  10.048 -0.3151 -0.1304 -0.2203
  870MOL0     H20005   2.270   5.318  10.285  0.4220 -2.1234  0.1380
  870MOL0     H20006   2.270   5.386  10.115 -0.7655 -1.3161 -0.7788
  870MOL0     H20007   2.481   5.364  10.335  0.2654 -2.3423 -0.6743
  870MOL0     H20008   2.543   5.367  10.174  2.7769 -0.7866  3.2043
  870MOL0     H20009   2.646   5.602  10.136 -0.1927 -3.0934  1.0095
  870MOL0     H20010   2.505   5.962  10.199 -1.6007 -1.3097 -1.5725
  870MOL0     H20011   2.630   5.878  10.093  0.2567  0.7162  0.0706
  870MOL0     H20012   2.635   5.946  10.396  1.7426  2.2997 -0.8497
  870MOL0     H20013   2.720   5.803  10.345  2.2885 -0.2342 -0.4254
  870MOL0     H20014   2.771   6.067  10.188  0.4065  0.0573  0.4187
  870MOL0     H20015   2.832   6.059  10.353 -3.6816  0.8909  0.6250
  870MOL0     H20016   2.998   6.007  10.196 -1.6505  2.1211 -0.7066
  870MOL0     H20017   2.957   5.858  10.292  1.9265  0.4803 -0.3329
  870MOL0     H20018   3.168   5.823  10.147  2.4040  0.1660  0.1239
  870MOL0     H20019   3.359   5.565  10.171 -1.8502  1.8026  2.0777
  870MOL0     H20020   3.366   5.736  10.145 -1.7003  0.0846  1.1579
  870MOL0     H20021   3.421   5.629  10.014 -1.9004  0.3631 -1.5628
  870MOL0     H20022   3.427   5.252  10.015  0.0126  3.5549  0.1267
  870MOL0     H20023   3.597   5.065   9.942 -0.2411 -1.2720 -2.3314
  870MOL0     H20024   3.911   5.191   9.694 -1.1762  0.5949  0.2443
  870MOL0     H20025   3.901   5.081   9.848 -0.9610  1.4783  0.0678
  870MOL0     H20026   3.919   5.027   9.553 -0.3367  0.6826  0.3248
  870MOL0     H20027   4.053   4.999   9.663  1.1512 -0.1007 -1.1375
  870MOL0     H20028   3.788   4.843   9.678  0.1430 -0.4896  0.3167
  870MOL0     H20029   3.915   4.844   9.801  0.2879  1.8865  0.1869
  870MOL0     H20030   4.072   4.750   9.634 -0.4758  0.1650  1.9317
  870MOL0     H20031   3.940   4.762   9.510 -1.7628  1.8434  0.2718
  870MOL0     H20032   3.820   4.578   9.601 -0.6942 -0.8506  0.5569
  870MOL0     H20033   3.988   4.539   9.606 -1.2502 -0.5446  0.1102
  870MOL0     H20034   3.794   4.615   9.831  0.2704  0.0336 -0.5497
  870MOL0     H20035   3.969   4.614   9.858  0.6008 -2.7749  0.2583
  870MOL0     H20036   3.975   4.371   9.800 -1.1482 -0.2833 -1.2135
  870MOL0     H20037   3.794   4.393   9.777 -1.4256  3.3916 -1.5628
  870MOL0     H20038   3.846   4.297   9.992 -1.1511  0.2897  0.6689
  870MOL0     H20039   3.770   4.456  10.020 -1.6176 -1.2849 -2.1227
  870MOL0     H20040   3.685   5.305   9.603  0.0319  1.1359  1.4587
  870MOL0     H20041   3.506   5.462   9.666 -2.2422  0.0760  1.4237
  870MOL0     H20042   2.956   5.446   9.924  1.3567  1.3801 -4.4328
  870MOL0     H20043   2.818   5.636   9.998 -0.2916  1.4034 -2.5209
  870MOL0     H20044   1.942   4.485  10.322 -3.6577  0.2364  0.2194
  870MOL0     H20045   2.012   4.317  10.145  2.5796  0.4449 -2.8079
  870MOL0     H20046   1.976   4.307   9.517 -0.9424  0.9658  0.8349
  870MOL0     H20047   2.013   4.104   9.379 -1.6495  1.8746 -1.0460
  870MOL0     H20048   2.199   3.715   9.532 -0.5399 -0.8591  0.1918
  870MOL0     H20049   2.048   3.765   9.615 -2.8901 -0.3751 -1.3655
  870MOL0     H20050   2.116   3.601   9.373  0.3196 -0.7776  2.5712
  870MOL0     H20051   1.969   3.698   9.352 -3.0821 -1.3970  0.6589
  870MOL0     H20052   2.022   3.479   9.554  0.7221 -1.4748 -0.7267
  870MOL0     H20053   1.884   3.595   9.568  0.4073 -1.1065  1.8620
  870MOL0     H20054   1.914   3.421   9.325 -0.3044 -0.7579  0.9255
  870MOL0     H20055   1.780   3.533   9.355 -0.7711  2.4807  3.6801
  870MOL0     H20056   1.667   3.215   9.611  1.0051 -2.4276 -1.9328
  870MOL0     H20057   2.180   3.908   9.724  0.1985  1.0305  1.4116
  870MOL0     H20058   2.205   4.214   9.923 -1.6146  0.3271  0.3777
  870MOL0     H20059   2.088   4.085   9.946 -0.9953  0.9729  0.8954
  870MOL0     H20060   2.254   4.041   9.894 -0.2436  0.1489 -3.0291
  871MOL0     O20061   4.520   1.585  10.829 -0.0689 -0.1693 -0.1282
  871MOL0     C20062   4.638   1.593  10.881  0.5581  0.2378 -0.0255
  871MOL0     O20063   4.751   1.537  10.822 -0.0290 -0.0101  0.4557
  871MOL0     C20064   4.738   1.462  10.704  0.6297  0.1936 -0.2942
  871MOL0     C20065   4.682   1.520  10.589 -0.4364 -0.5083 -0.3193
  871MOL0     C20066   4.707   1.455  10.469 -0.1354  0.2785 -0.0245
  871MOL0     C20067   4.770   1.325  10.457  0.3108 -0.3342 -0.1591
  871MOL0     O20068   4.783   1.270  10.333 -0.5011 -0.1873  0.4079
  871MOL0     C20069   4.888   1.169  10.324 -0.2876  0.4995  0.6567
  871MOL0     C20070   4.872   1.109  10.190 -0.4389  0.3207 -0.3500
  871MOL0     C20071   5.008   1.068  10.136  0.5659  0.6216  0.9077
  871MOL0     C20072   5.059   0.946  10.203 -0.1108  1.1735 -0.0663
  871MOL0     C20073   5.191   0.902  10.152 -0.0225 -0.3473 -0.2943
  871MOL0     C20074   5.236   0.777  10.226  0.2642 -0.4132  0.0690
  871MOL0     C20075   5.372   0.716  10.190  0.6827 -0.2757 -0.5193
  871MOL0     C20076   5.496   0.806  10.182 -0.0295 -0.2639 -0.1370
  871MOL0     N20077   5.540   0.841  10.315  0.7182  0.3782 -0.2214
  871MOL0     C20078   5.530   0.964  10.370 -0.2826 -0.2205  0.4431
  871MOL0     C20079   5.586   0.965  10.499  0.1180  0.3584  0.2191
  871MOL0     C20080   5.591   1.067  10.614 -0.4322  0.3939 -0.4899
  871MOL0     C20081   5.717   1.079  10.698  0.1322  0.4402  0.2461
  871MOL0     C20082   5.847   1.125  10.620 -0.7658 -0.3791  0.1657
  871MOL0     C20083   5.876   1.275  10.617 -0.9587  0.1696  0.4089
  871MOL0     O20084   5.858   1.344  10.747 -0.3094 -0.3982  0.4222
  871MOL0     C20085   5.771   1.445  10.738  0.0293  0.2791  0.0427
  871MOL0     C20086   5.827   1.564  10.768  0.1442 -0.0430  0.8477
  871MOL0     C20087   5.756   1.683  10.744 -0.1678  0.9704  0.1149
  871MOL0     C20088   5.830   1.808  10.787  0.3764 -0.8094  0.2081
  871MOL0     C20089   5.631   1.682  10.685  0.0622 -0.4611  0.2095
  871MOL0     C20090   5.547   1.800  10.662 -0.2899  0.4734  0.5736
  871MOL0     O20091   5.429   1.766  10.600  0.1698 -0.2197  0.4816
  871MOL0     C20092   5.347   1.868  10.547 -0.5340  0.0502  1.1021
  871MOL0     C20093   5.324   1.865  10.412  0.2494  1.0259 -1.1739
  871MOL0     C20094   5.264   1.981  10.359 -0.0188  0.6668  0.6199
  871MOL0     C20095   5.230   2.103  10.424 -0.3787  0.6735 -0.0085
  871MOL0     O20096   5.171   2.210  10.360 -0.0349  0.0003 -0.7024
  871MOL0     C20097   5.097   2.313  10.433 -0.4202 -0.1785 -0.0578
  871MOL0     C20098   4.973   2.345  10.373  0.0831  0.4573  0.2619
  871MOL0     C20099   4.989   2.417  10.235  0.4071 -0.7655 -0.0044
  871MOL0     C20100   4.903   2.548  10.241  1.1837 -0.2833  1.2011
  871MOL0     C20101   4.928   2.628  10.103  0.8998  0.7913  0.3136
  871MOL0     C20102   4.825   2.745  10.099 -0.6577 -0.4578 -1.3093
  871MOL0     C20103   4.703   2.691  10.024 -0.2776 -0.5188  0.0786
  871MOL0     C20104   4.661   2.787   9.912 -0.3048 -0.0365  1.6397
  871MOL0    Cl20105   4.508   2.725   9.830 -0.2622 -0.1291 -0.0840
  871MOL0     C20106   5.263   2.096  10.560 -0.2653  0.2253 -0.0682
  871MOL0     C20107   5.312   1.979  10.625  0.0360 -0.1912  1.0109
  871MOL0     O20108   5.582   1.909  10.682  0.4188 -0.3334  0.3405
  871MOL0     C20109   5.566   1.552  10.669  0.6906  0.2453 -0.6479
  871MOL0     C20110   5.639   1.431  10.697 -0.4756 -0.5962 -0.3981
  871MOL0     N20111   5.606   0.834  10.520 -0.2358  0.2839  0.6034
  871MOL0     N20112   5.581   0.754  10.413 -0.0642  0.5746  0.6581
  871MOL0     C20113   4.801   1.261  10.580  0.7238  1.0700  0.6152
  871MOL0     C20114   4.792   1.337  10.696 -0.3782  0.4417 -0.2261
  871MOL0     C20115   4.677   1.674  11.003  0.3386 -0.4774 -0.2764
  871MOL0     C20116   4.812   1.672  11.044  0.6928 -0.2302 -0.0769
  871MOL0     C20117   4.852   1.754  11.152 -0.0918  0.5000 -0.1157
  871MOL0     C20118   4.772   1.815  11.234  0.7873 -0.2906  1.2393
  871MOL0     O20119   4.828   1.903  11.323 -0.6735  0.1030  0.1343
  871MOL0     C20120   4.793   1.872  11.456 -0.1769 -0.1615 -0.1771
  871MOL0     C20121   4.889   1.953  11.555 -0.1192 -0.8581 -0.8271
  871MOL0     C20122   4.985   1.853  11.612 -0.0911  0.2051  0.3975
  871MOL0     C20123   5.068   1.900  11.735 -0.6869  0.3961  0.7321
  871MOL0     C20124   5.179   1.987  11.693 -0.5484  0.3456 -0.0357
  871MOL0     C20125   5.275   2.057  11.684 -0.8127  0.7178 -0.4668
  871MOL0     C20126   4.640   1.828  11.194  0.1651 -0.3222 -0.2432
  871MOL0     C20127   4.590   1.760  11.077 -0.2538  0.9399  0.9183
  871MOL0     C20128   4.446   1.798  11.034  0.9552  1.0223  0.6547
  871MOL0     H20129   4.621   1.610  10.591 -1.6822 -1.3045 -0.9872
  871MOL0     H20130   4.678   1.495  10.372  1.1393  0.2946 -0.4170
  871MOL0     H20131   4.883   1.088  10.398 -1.7701  1.4964  1.7120
  871MOL0     H20132   4.983   1.222  10.324  0.4824 -0.7890 -0.7654
  871MOL0     H20133   4.802   1.024  10.192 -1.6747  1.3057  1.6435
  871MOL0     H20134   4.824   1.189  10.134 -0.9312  0.3459  0.0888
  871MOL0     H20135   5.002   1.042  10.029 -2.0961  1.1300  0.8678
  871MOL0     H20136   5.076   1.154  10.139  1.3768  0.2330 -2.1788
  871MOL0     H20137   5.080   0.961  10.309  0.7401 -0.4044  0.0130
  871MOL0     H20138   4.975   0.878  10.190 -0.2143  0.4467  3.3634
  871MOL0     H20139   5.269   0.973  10.180  0.4628 -1.4512  1.3225
  871MOL0     H20140   5.197   0.889  10.044 -1.3083 -0.2077 -0.3983
  871MOL0     H20141   5.243   0.800  10.333 -1.5625 -0.5913  0.2511
  871MOL0     H20142   5.157   0.702  10.215 -0.7737  0.6656  0.0468
  871MOL0     H20143   5.350   0.677  10.091 -2.3617 -0.0914  0.0052
  871MOL0     H20144   5.378   0.634  10.262 -3.1717 -1.0065 -0.8488
  871MOL0     H20145   5.575   0.761  10.122  0.4265  0.6897 -0.2782
  871MOL0     H20146   5.459   0.890  10.122 -1.3530 -0.9869 -0.3778
  871MOL0     H20147   5.467   1.044  10.332 -1.0142  0.4983  2.9539
  871MOL0     H20148   5.503   1.060  10.679 -0.0712 -1.5636 -0.1594
  871MOL0     H20149   5.592   1.159  10.554 -1.9348 -0.1567 -1.4179
  871MOL0     H20150   5.705   1.146  10.783  2.8281  0.0681  1.0383
  871MOL0     H20151   5.734   0.984  10.750  1.2548  0.3076 -0.3106
  871MOL0     H20152   5.935   1.085  10.671  1.3255  1.4057 -1.8038
  871MOL0     H20153   5.847   1.084  10.518  0.5530  1.7143 -0.7484
  871MOL0     H20154   5.982   1.287  10.591  0.5181 -4.3347  3.0558
  871MOL0     H20155   5.810   1.313  10.539  0.2410 -1.0146 -1.2889
  871MOL0     H20156   5.920   1.575  10.822  0.4006 -0.9617  0.6072
  871MOL0     H20157   5.855   1.865  10.697  0.5543 -2.4554 -0.8350
  871MOL0     H20158   5.924   1.788  10.839  0.6920  1.4904  0.5931
  871MOL0     H20159   5.773   1.876  10.851  2.6298 -0.3159  1.8109
  871MOL0     H20160   5.356   1.783  10.348 -1.0485 -1.5356  1.2353
  871MOL0     H20161   5.243   1.973  10.253  1.2416  0.1402  0.3986
  871MOL0     H20162   5.080   2.284  10.537  0.5403 -0.1396  0.1209
  871MOL0     H20163   5.149   2.409  10.444 -0.4483 -0.1504 -0.1719
  871MOL0     H20164   4.923   2.253  10.341 -1.8966  0.3107  3.4473
  871MOL0     H20165   4.905   2.396  10.442 -1.8046 -0.6173 -0.7266
  871MOL0     H20166   4.962   2.354  10.151 -1.5035  0.9510 -0.7545
  871MOL0     H20167   5.097   2.439  10.228  0.8806 -2.0621  2.3021
  871MOL0     H20168   4.936   2.614  10.322  1.9360  0.5395  0.2532
  871MOL0     H20169   4.799   2.517  10.256  1.2969 -1.6985 -0.5995
  871MOL0     H20170   5.026   2.673  10.121  1.8139 -0.8046 -0.4755
  871MOL0     H20171   4.920   2.565  10.014  0.7141 -0.1440  0.9787
  871MOL0     H20172   4.862   2.827  10.036  1.8593 -1.8563 -1.8008
  871MOL0     H20173   4.804   2.781  10.200  1.2729 -1.2398 -0.5669
  871MOL0     H20174   4.617   2.672  10.089 -0.9607  0.4593 -0.5023
  871MOL0     H20175   4.728   2.599   9.971  1.0948  0.9475 -1.9985
  871MOL0     H20176   4.738   2.803   9.836 -4.1753  0.6747 -2.5101
  871MOL0     H20177   4.642   2.890   9.944  1.5129  0.3286  1.6554
  871MOL0     H20178   5.247   2.186  10.618  0.0607 -0.0799  0.5063
  871MOL0     H20179   5.340   1.971  10.730  1.4442  2.9401  0.9650
  871MOL0     H20180   5.470   1.536  10.622  0.0158  1.3532  0.2887
  871MOL0     H20181   5.590   1.336  10.680 -0.9872 -0.3760 -0.1871
  871MOL0     H20182   4.837   1.159  10.583  0.7846  0.7805 -3.4893
  871MOL0     H20183   4.827   1.283  10.783 -1.6392 -0.4276 -0.2350
  871MOL0     H20184   4.881   1.609  10.989 -0.0338 -1.6951  0.6404
  871MOL0     H20185   4.959   1.766  11.158 -0.1178  2.7200 -2.3847
  871MOL0     H20186   4.690   1.904  11.476  0.4439  0.6680  1.9954
  871MOL0     H20187   4.806   1.764  11.464 -0.4186 -0.0857  1.8685
  871MOL0     H20188   4.817   1.989  11.628  1.3339 -0.0707  0.2775
  871MOL0     H20189   4.942   2.038  11.512  1.0209 -0.0854  1.8859
  871MOL0     H20190   4.928   1.768  11.651 -1.4056  1.1914  0.7053
  871MOL0     H20191   5.041   1.830  11.521 -2.7752 -0.6658 -1.1470
  871MOL0     H20192   5.111   1.811  11.781  0.6936 -0.5867 -2.2258
  871MOL0     H20193   4.992   1.959  11.788 -0.1471 -0.4185  2.5076
  871MOL0     H20194   5.368   2.108  11.674 -0.0185 -0.7118 -0.7038
  871MOL0     H20195   4.579   1.895  11.253  2.3000  0.4252  1.2632
  871MOL0     H20196   4.390   1.706  11.054  1.9334  0.1802 -0.3886
  871MOL0     H20197   4.407   1.881  11.094  1.0576  1.5872 -0.0571
  871MOL0     H20198   4.438   1.817  10.927 -0.7442 -2.5145 -0.0056
  872MOL0     O20199   5.118   7.180   5.834  0.1784  0.4874 -0.5068
  872MOL0     C20200   5.220   7.167   5.900  0.3231 -1.1832  0.0986
  872MOL0     O20201   5.265   7.058   5.950  0.3983  0.1164 -0.1494
  872MOL0     C20202   5.194   6.945   5.936  0.2554 -0.2372 -0.7418
  872MOL0     C20203   5.244   6.833   5.861  0.0869 -0.6488 -0.0538
  872MOL0     C20204   5.173   6.717   5.852 -0.4103  0.0748  0.1916
  872MOL0     C20205   5.049   6.710   5.907  0.0309 -0.9745  0.6475
  872MOL0     O20206   4.955   6.605   5.883 -0.5836  0.1144  1.0425
  872MOL0     C20207   4.973   6.521   5.766  0.2676 -0.1670  0.0924
  872MOL0     C20208   4.858   6.420   5.768  0.0098 -0.0005  0.6393
  872MOL0     C20209   4.897   6.291   5.837 -0.3820 -1.1171  0.4759
  872MOL0     C20210   4.765   6.215   5.867 -0.0047 -0.0885 -0.1190
  872MOL0     C20211   4.779   6.101   5.962 -0.6740  0.2501  0.7492
  872MOL0     C20212   4.899   6.014   5.920 -0.6533  1.1761 -0.7318
  872MOL0     C20213   4.903   5.896   6.017  0.1884  0.1458 -0.7327
  872MOL0     C20214   5.032   5.805   6.005  0.1862 -0.7355 -0.3470
  872MOL0     N20215   5.035   5.693   6.099  0.2634 -0.4353  0.7656
  872MOL0     C20216   5.146   5.634   6.146  0.0855  0.0203 -0.8088
  872MOL0     C20217   5.107   5.511   6.193 -0.1136  0.5877  0.0101
  872MOL0     C20218   5.213   5.406   6.230  0.2505  0.5890 -0.1412
  872MOL0     C20219   5.304   5.460   6.337 -0.2044  0.0693 -0.7765
  872MOL0     C20220   5.224   5.493   6.469  0.3840  0.2480 -0.5591
  872MOL0     C20221   5.310   5.504   6.597  0.3428  0.0146  0.8959
  872MOL0     O20222   5.398   5.615   6.591  0.0020  0.0674  0.4453
  872MOL0     C20223   5.363   5.744   6.626 -0.3139  0.3703 -0.1336
  872MOL0     C20224   5.469   5.835   6.622 -0.1622  0.8624  0.6566
  872MOL0     C20225   5.459   5.971   6.671  0.0254  1.0828 -0.6499
  872MOL0     C20226   5.571   6.065   6.658  0.1359 -0.0578 -0.3645
  872MOL0     C20227   5.332   6.005   6.720  0.4157  0.1228  0.3438
  872MOL0     C20228   5.309   6.135   6.784 -0.7276  0.0382  0.3148
  872MOL0     O20229   5.183   6.192   6.766  0.1078 -0.2108 -0.2547
  872MOL0     C20230   5.181   6.329   6.767 -0.2609 -0.0414  0.5181
  872MOL0     C20231   5.191   6.400   6.884 -0.5643  0.1827 -0.1972
  872MOL0     C20232   5.162   6.536   6.886 -0.2165 -0.2224  0.0172
  872MOL0     C20233   5.103   6.603   6.774  0.6925 -0.0855 -0.2093
  872MOL0     O20234   5.110   6.740   6.781  0.5968  0.6976 -0.4735
  872MOL0     C20235   5.009   6.787   6.882 -0.4166  0.0399  0.8763
  872MOL0     C20236   4.975   6.940   6.881  1.0433  0.3713  0.2411
  872MOL0     C20237   5.092   7.008   6.950  0.3676  0.1945  0.5592
  872MOL0     C20238   5.115   7.154   6.916  0.8504  0.8489 -0.2478
  872MOL0     C20239   5.215   7.224   7.002 -0.8655  0.1798  0.5554
  872MOL0     C20240   5.220   7.371   6.985  0.3779 -0.0401 -1.1502
  872MOL0     C20241   5.355   7.428   7.045 -0.1982 -0.2155 -0.3274
  872MOL0     C20242   5.343   7.439   7.198  0.1255 -0.4273 -0.1094
  872MOL0    Cl20243   5.468   7.539   7.269 -0.6458  0.0559  0.2211
  872MOL0     C20244   5.105   6.537   6.651  0.2922  0.2590  1.1031
  872MOL0     C20245   5.136   6.403   6.652 -0.8199 -0.5309  0.4264
  872MOL0     O20246   5.401   6.180   6.848 -0.7548 -0.1285  0.6701
  872MOL0     C20247   5.219   5.917   6.713 -0.6444 -0.6554  0.4227
  872MOL0     C20248   5.241   5.785   6.671  0.0185 -0.2615 -0.2899
  872MOL0     N20249   4.971   5.498   6.176 -1.0200 -0.2440 -0.5437
  872MOL0     N20250   4.926   5.606   6.121 -0.4839 -0.2400  0.3893
  872MOL0     C20251   4.997   6.820   5.976  0.2692  0.0600 -0.0930
  872MOL0     C20252   5.077   6.930   6.001  0.9213  0.3330  0.5878
  872MOL0     C20253   5.293   7.291   5.939 -0.7832  1.7294 -0.4254
  872MOL0     C20254   5.251   7.408   5.879  0.6917  0.7986 -0.3873
  872MOL0     C20255   5.291   7.528   5.910 -0.2975 -0.5342 -0.2883
  872MOL0     C20256   5.375   7.546   6.023 -0.3530 -0.5462  0.0186
  872MOL0     O20257   5.433   7.664   6.057 -0.4713  0.6862 -0.0363
  872MOL0     C20258   5.355   7.769   6.013 -0.3159 -0.3179 -0.4137
  872MOL0     C20259   5.412   7.898   6.082  0.0772  0.3587 -0.0787
  872MOL0     C20260   5.355   7.903   6.224  0.2198 -0.5016 -1.3227
  872MOL0     C20261   5.390   8.035   6.292  0.1484  0.6289  0.6673
  872MOL0     C20262   5.423   8.019   6.435  0.0408  0.1207 -0.1105
  872MOL0     C20263   5.465   7.997   6.549 -0.1744  0.2511  0.3535
  872MOL0     C20264   5.425   7.426   6.075  0.2714 -0.1343 -1.4067
  872MOL0     C20265   5.384   7.296   6.036  0.1893  0.2598 -0.2583
  872MOL0     C20266   5.469   7.173   6.084  0.2971 -0.3757 -1.2448
  872MOL0     H20267   5.339   6.835   5.809  0.1184 -3.5840 -0.2366
  872MOL0     H20268   5.205   6.627   5.800 -5.6180 -2.0837  0.1133
  872MOL0     H20269   5.071   6.472   5.761  0.5881  0.5263 -3.5431
  872MOL0     H20270   4.962   6.587   5.680 -5.3707  0.1407  0.6725
  872MOL0     H20271   4.783   6.472   5.828  0.5487  0.0367  1.2890
  872MOL0     H20272   4.832   6.408   5.663  1.6899  1.1181  0.0592
  872MOL0     H20273   4.967   6.243   5.767 -0.5457 -1.0396  0.2589
  872MOL0     H20274   4.949   6.289   5.933 -2.3475 -2.0428  1.5712
  872MOL0     H20275   4.704   6.293   5.915 -0.4109  0.8461 -2.0723
  872MOL0     H20276   4.718   6.179   5.776 -0.2937 -1.3466  0.5120
  872MOL0     H20277   4.686   6.042   5.963 -0.3431 -0.3018 -0.0191
  872MOL0     H20278   4.795   6.123   6.068  1.0638 -1.1452  0.8163
  872MOL0     H20279   4.902   5.970   5.820  0.1814  0.8300 -0.5647
  872MOL0     H20280   4.994   6.065   5.937 -1.2906  2.1835 -0.0894
  872MOL0     H20281   4.809   5.840   6.010 -0.4787  1.0709  0.3866
  872MOL0     H20282   4.898   5.948   6.113  4.3411  2.4770 -1.5602
  872MOL0     H20283   5.024   5.749   5.912 -3.0330 -0.4998 -0.3116
  872MOL0     H20284   5.124   5.864   6.017  0.5153 -1.3587  0.2862
  872MOL0     H20285   5.238   5.691   6.142  0.0007  0.1742 -0.6099
  872MOL0     H20286   5.264   5.371   6.140 -1.4044  1.9486 -1.6775
  872MOL0     H20287   5.153   5.324   6.271  2.7732 -0.5405  1.5574
  872MOL0     H20288   5.375   5.383   6.372  0.2994  1.6758  2.0068
  872MOL0     H20289   5.359   5.551   6.315 -1.7593  0.8675 -1.4964
  872MOL0     H20290   5.165   5.582   6.446 -0.2275  0.4228  1.4957
  872MOL0     H20291   5.147   5.416   6.483 -0.1112  1.1195  2.1065
  872MOL0     H20292   5.246   5.505   6.685 -3.4154  1.1330 -1.6134
  872MOL0     H20293   5.362   5.408   6.603 -0.1971 -0.5118 -1.5555
  872MOL0     H20294   5.561   5.794   6.580  0.5453  1.0093  1.9978
  872MOL0     H20295   5.630   6.039   6.570 -0.9563  0.0638 -1.1507
  872MOL0     H20296   5.633   6.049   6.746  3.8258  0.0017 -2.7578
  872MOL0     H20297   5.546   6.171   6.648 -3.1819 -0.4079  2.3016
  872MOL0     H20298   5.213   6.348   6.977 -2.5099  0.0468  0.2184
  872MOL0     H20299   5.188   6.590   6.976  0.6271  0.7018 -0.7434
  872MOL0     H20300   4.918   6.726   6.882  0.6294 -1.5822  1.0220
  872MOL0     H20301   5.052   6.766   6.981  0.7504  0.2582  0.4292
  872MOL0     H20302   4.966   6.974   6.777  4.8319 -0.4969 -0.5398
  872MOL0     H20303   4.885   6.957   6.940 -0.1334 -1.0668 -1.0751
  872MOL0     H20304   5.184   6.960   6.914  0.0951 -2.2476  2.8481
  872MOL0     H20305   5.089   6.991   7.058  3.7163  1.3504  0.9483
  872MOL0     H20306   5.021   7.207   6.936  1.3452  0.9951  2.0111
  872MOL0     H20307   5.147   7.163   6.812  1.5918  1.4911  0.0255
  872MOL0     H20308   5.206   7.220   7.111 -3.6135  3.3205  0.6048
  872MOL0     H20309   5.308   7.174   6.977 -1.4365 -0.0467 -1.2593
  872MOL0     H20310   5.133   7.424   7.024  1.4728  0.1750  1.1523
  872MOL0     H20311   5.216   7.395   6.879  3.8313  0.6200 -1.2682
  872MOL0     H20312   5.378   7.523   6.997 -1.3530  0.8554  1.1281
  872MOL0     H20313   5.437   7.356   7.034  0.5904  0.4026  1.1900
  872MOL0     H20314   5.359   7.338   7.239 -1.3889 -0.9873 -0.8278
  872MOL0     H20315   5.246   7.485   7.215 -1.1763 -2.7940 -0.6351
  872MOL0     H20316   5.076   6.602   6.569 -0.5638  0.7313  1.7681
  872MOL0     H20317   5.131   6.348   6.559  3.5662  1.7848 -1.5022
  872MOL0     H20318   5.127   5.955   6.758 -0.6936 -1.8797  1.4264
  872MOL0     H20319   5.148   5.729   6.660 -0.4429  0.3304  0.4671
  872MOL0     H20320   4.910   6.806   6.039  1.3142 -2.7162  0.8967
  872MOL0     H20321   5.036   7.003   6.070 -0.2933 -0.4893  0.7603
  872MOL0     H20322   5.173   7.409   5.803 -0.9288 -0.8266  1.1590
  872MOL0     H20323   5.259   7.608   5.845 -0.1224  1.0176  1.4422
  872MOL0     H20324   5.376   7.786   5.907  1.3267  2.2170  0.2282
  872MOL0     H20325   5.248   7.758   6.031  0.0283  0.6218  2.8802
  872MOL0     H20326   5.369   7.974   6.016 -2.7335 -0.3921  0.7482
  872MOL0     H20327   5.522   7.895   6.083  0.1158  0.1225  2.4866
  872MOL0     H20328   5.246   7.913   6.216  0.1702 -2.0551 -3.7417
  872MOL0     H20329   5.386   7.821   6.290 -0.7912  0.7208  0.7652
  872MOL0     H20330   5.304   8.101   6.283  1.2119  2.0262  0.4046
  872MOL0     H20331   5.481   8.083   6.253  0.9837  0.2671  2.1004
  872MOL0     H20332   5.493   7.978   6.651  0.4737 -1.7877 -0.1717
  872MOL0     H20333   5.496   7.439   6.157 -3.4831 -0.3584  2.1847
  872MOL0     H20334   5.555   7.209   6.141 -2.3143  3.0304  0.9419
  872MOL0     H20335   5.398   7.115   6.144 -0.5926 -0.0882 -1.9887
  872MOL0     H20336   5.496   7.106   6.002  2.2341 -0.5898 -0.4723
  873MOL0     O20337  10.161   1.813   7.129  0.1655  0.0563  0.3642
  873MOL0     C20338  10.140   1.705   7.182  0.2906 -1.1438 -0.2322
  873MOL0     O20339  10.069   1.693   7.300  0.9445 -0.2141  0.4750
  873MOL0     C20340  10.012   1.803   7.357 -0.0263  0.4150 -1.1971
  873MOL0     C20341   9.869   1.819   7.328 -0.5100  1.0284  0.9772
  873MOL0     C20342   9.807   1.933   7.377 -0.4930 -0.0423  0.4900
  873MOL0     C20343   9.879   2.034   7.443  0.7704 -0.4456  0.6048
  873MOL0     O20344   9.806   2.149   7.454  0.1278 -0.4754 -0.0689
  873MOL0     C20345   9.814   2.225   7.575  0.2391 -0.7299 -0.1669
  873MOL0     C20346   9.731   2.361   7.554 -0.7823  0.9666 -0.0736
  873MOL0     C20347   9.789   2.463   7.455 -0.5829  0.3883 -0.1532
  873MOL0     C20348   9.947   2.467   7.461  0.4256  0.4077  0.4764
  873MOL0     C20349  10.013   2.563   7.357 -1.4426 -0.1617  0.2761
  873MOL0     C20350  10.162   2.593   7.400 -0.4077 -1.0299  0.3450
  873MOL0     C20351  10.219   2.716   7.307 -0.4796  0.5201 -0.0748
  873MOL0     C20352  10.359   2.755   7.357  0.1309 -0.1442 -0.3665
  873MOL0     N20353  10.435   2.837   7.265 -0.4659  0.2429  0.8056
  873MOL0     C20354  10.402   2.956   7.204  0.5979 -0.1356 -0.4837
  873MOL0     C20355  10.520   3.013   7.169  0.6973 -0.2243 -1.2093
  873MOL0     C20356  10.520   3.130   7.076 -0.4328 -0.0118  0.8514
  873MOL0     C20357  10.601   3.093   6.941  0.2728  0.1482 -0.7620
  873MOL0     C20358  10.732   3.183   6.930 -0.3160  0.4688  1.5085
  873MOL0     C20359  10.827   3.185   7.047 -0.1205  0.1850 -0.5741
  873MOL0     O20360  10.954   3.241   7.006  0.7041 -0.5426  0.8400
  873MOL0     C20361  10.994   3.329   7.104 -0.0760  1.0359 -0.2879
  873MOL0     C20362  10.965   3.460   7.082  0.4494  0.4058  0.1518
  873MOL0     C20363  10.987   3.557   7.184  0.9914  0.0436 -0.4534
  873MOL0     C20364  10.939   3.700   7.158 -0.1756 -0.2132  0.0215
  873MOL0     C20365  11.040   3.510   7.310  0.7131 -1.0025 -0.2359
  873MOL0     C20366  11.055   3.595   7.429 -0.6753 -0.2813  0.3611
  873MOL0     O20367  11.164   3.570   7.508 -0.8375 -0.0344  0.2118
  873MOL0     C20368  11.197   3.673   7.589 -0.3214  0.5872 -1.3359
  873MOL0     C20369  11.225   3.642   7.724  0.0449 -0.0210  0.5638
  873MOL0     C20370  11.274   3.731   7.817 -0.4087 -0.4730  1.0713
  873MOL0     C20371  11.282   3.858   7.778  0.3867 -1.0147  0.5885
  873MOL0     O20372  11.330   3.948   7.872 -0.6148  0.2383 -0.3417
  873MOL0     C20373  11.457   4.009   7.862  0.0018  0.7033  0.0228
  873MOL0     C20374  11.565   3.900   7.900 -0.1541  0.7794 -0.1442
  873MOL0     C20375  11.699   3.976   7.905 -0.2291  1.0605  0.2738
  873MOL0     C20376  11.801   3.872   7.936  1.0376 -0.1953  0.3854
  873MOL0     C20377  11.919   3.942   8.013 -0.5215  0.3555 -0.0563
  873MOL0     C20378  11.995   4.048   7.931  0.1009  0.1868 -0.3095
  873MOL0     C20379  12.124   4.073   7.995  0.3294  0.3577  0.4811
  873MOL0     C20380  12.203   4.194   7.933  1.1172  0.3486 -0.7021
  873MOL0    Cl20381  12.266   4.161   7.771 -0.1262 -0.3433  0.0441
  873MOL0     C20382  11.264   3.904   7.646 -0.3290  0.4934  0.3507
  873MOL0     C20383  11.226   3.810   7.553  0.1384 -0.8050 -0.2430
  873MOL0     O20384  10.953   3.652   7.465 -0.7222 -0.6563  0.2125
  873MOL0     C20385  11.077   3.378   7.334 -0.1633 -0.5910 -0.2888
  873MOL0     C20386  11.051   3.290   7.223 -0.0101  0.6283  0.7404
  873MOL0     N20387  10.627   2.941   7.218 -1.4000  0.2125 -0.3139
  873MOL0     N20388  10.579   2.834   7.266  0.0134  0.5778 -0.5287
  873MOL0     C20389  10.016   2.015   7.465 -0.1768  0.4283 -0.0624
  873MOL0     C20390  10.082   1.901   7.423  0.3371  0.5804  0.3059
  873MOL0     C20391  10.201   1.588   7.118 -0.3146 -0.0082 -0.1582
  873MOL0     C20392  10.340   1.581   7.095  0.2622  0.3576 -0.7785
  873MOL0     C20393  10.393   1.474   7.025 -0.2053  0.3483  1.1002
  873MOL0     C20394  10.318   1.365   6.982  0.9022 -0.2408  0.5880
  873MOL0     O20395  10.381   1.257   6.920 -0.3681  0.0127 -0.3566
  873MOL0     C20396  10.311   1.133   6.908 -0.5334  0.6313  0.6536
  873MOL0     C20397  10.247   1.140   6.765  0.4362  0.6053  0.5737
  873MOL0     C20398  10.356   1.159   6.664  0.8352  1.0851  0.2606
  873MOL0     C20399  10.309   1.169   6.519  0.3722 -0.2232  0.2691
  873MOL0     C20400  10.286   1.309   6.481  0.2296  0.4663  1.0132
  873MOL0     C20401  10.268   1.416   6.427  0.5445 -0.6355  0.2277
  873MOL0     C20402  10.178   1.371   7.010 -0.5016  0.8043  0.5560
  873MOL0     C20403  10.122   1.483   7.070 -0.5830  0.8275  0.5801
  873MOL0     C20404   9.980   1.489   7.073  0.3352  0.2220 -0.2659
  873MOL0     H20405   9.799   1.750   7.283 -2.9725  4.2933 -0.6391
  873MOL0     H20406   9.699   1.937   7.364 -0.4286  0.0302 -0.0513
  873MOL0     H20407   9.909   2.246   7.625 -2.0046 -0.5052  4.6479
  873MOL0     H20408   9.752   2.176   7.650  2.4640 -2.5363  0.6191
  873MOL0     H20409   9.631   2.330   7.523 -0.1931 -0.5627 -0.5389
  873MOL0     H20410   9.726   2.416   7.649 -3.5856  1.6829 -0.5660
  873MOL0     H20411   9.767   2.443   7.349 -1.6172  2.2349 -0.3149
  873MOL0     H20412   9.748   2.558   7.487 -1.2292 -0.2111  0.8393
  873MOL0     H20413   9.982   2.510   7.555  3.1908  1.0617 -0.7733
  873MOL0     H20414   9.985   2.365   7.449  0.3118  0.4905 -0.6379
  873MOL0     H20415   9.957   2.658   7.352  1.6392  1.9159  1.7781
  873MOL0     H20416  10.023   2.507   7.264  0.3827 -2.8790  1.9939
  873MOL0     H20417  10.172   2.617   7.506  2.1751 -1.4654  0.2671
  873MOL0     H20418  10.222   2.503   7.385 -1.2281 -1.4301 -0.6683
  873MOL0     H20419  10.162   2.810   7.309  0.7063  1.2611  1.4290
  873MOL0     H20420  10.214   2.694   7.200 -5.4804  1.9000 -0.3997
  873MOL0     H20421  10.343   2.813   7.448  0.5821 -1.5081  0.6134
  873MOL0     H20422  10.412   2.661   7.373  0.2005 -0.4538 -2.2236
  873MOL0     H20423  10.297   2.976   7.184  0.8963  1.7846 -0.3126
  873MOL0     H20424  10.562   3.218   7.126  2.4808 -0.9243  0.2470
  873MOL0     H20425  10.418   3.144   7.041  0.4793 -1.9069 -3.1313
  873MOL0     H20426  10.633   2.989   6.951 -3.9093 -1.1412  1.1731
  873MOL0     H20427  10.539   3.107   6.852  2.0251  0.1969 -2.0487
  873MOL0     H20428  10.800   3.141   6.855 -0.0096  1.4142  1.2504
  873MOL0     H20429  10.704   3.284   6.900  0.3187  0.4083  0.6586
  873MOL0     H20430  10.777   3.247   7.123 -1.3312  0.3568 -1.4813
  873MOL0     H20431  10.846   3.088   7.094  0.5172  0.9429  0.8180
  873MOL0     H20432  10.915   3.493   6.992 -0.2300  0.0964  0.4047
  873MOL0     H20433  10.839   3.714   7.116  0.6860 -0.7346 -2.3495
  873MOL0     H20434  11.013   3.742   7.089 -0.3946 -1.5153 -1.0480
  873MOL0     H20435  10.947   3.757   7.251 -0.7625  1.2790 -0.8138
  873MOL0     H20436  11.208   3.541   7.760  1.5724 -0.4995  0.0452
  873MOL0     H20437  11.288   3.701   7.921 -1.6236 -0.6654  1.1862
  873MOL0     H20438  11.460   4.064   7.768 -0.7085 -1.5950 -1.4142
  873MOL0     H20439  11.471   4.093   7.931  4.0995  1.4526 -1.4910
  873MOL0     H20440  11.540   3.863   8.000 -1.7481  1.7564 -0.1447
  873MOL0     H20441  11.573   3.809   7.840  0.5256  0.4788  0.3796
  873MOL0     H20442  11.688   4.057   7.978  1.0883  0.7620  0.8369
  873MOL0     H20443  11.724   4.016   7.806  2.2233 -3.9844 -1.4744
  873MOL0     H20444  11.852   3.835   7.847 -0.1087 -1.7705  0.3541
  873MOL0     H20445  11.749   3.790   7.987 -1.6028  0.3517 -1.2413
  873MOL0     H20446  11.893   3.974   8.114  0.7138 -1.3576  0.8616
  873MOL0     H20447  11.983   3.855   8.034 -2.8422 -1.3536  0.3914
  873MOL0     H20448  11.941   4.144   7.931 -1.6566 -0.7056  1.5489
  873MOL0     H20449  12.014   4.007   7.832  2.4770 -1.6767  0.8081
  873MOL0     H20450  12.189   3.985   8.004 -0.0525  0.2030  2.3154
  873MOL0     H20451  12.095   4.101   8.097 -2.1675 -2.1650  0.5900
  873MOL0     H20452  12.285   4.225   7.999  2.1523  0.0793 -1.8234
  873MOL0     H20453  12.144   4.285   7.916 -1.1721 -1.0568 -0.7539
  873MOL0     H20454  11.288   4.009   7.631 -0.2192  0.7413  2.0524
  873MOL0     H20455  11.207   3.831   7.448 -0.4775 -1.1332 -0.2034
  873MOL0     H20456  11.106   3.342   7.432 -1.4792 -0.8539  0.0190
  873MOL0     H20457  11.073   3.184   7.235 -0.8305  0.6749  3.2408
  873MOL0     H20458  10.076   2.097   7.504  1.3384 -1.7915  2.6765
  873MOL0     H20459  10.188   1.881   7.435  0.1136 -1.4782 -0.5273
  873MOL0     H20460  10.393   1.673   7.119  0.4673 -0.0426  0.4077
  873MOL0     H20461  10.500   1.470   7.004  0.1111  2.0235  2.1724
  873MOL0     H20462  10.382   1.049   6.912 -2.0101 -0.6201  2.3444
  873MOL0     H20463  10.233   1.121   6.984  0.6985  1.8645  2.1876
  873MOL0     H20464  10.180   1.226   6.752  0.4480  0.3361 -1.5378
  873MOL0     H20465  10.181   1.054   6.754  2.1311 -1.3310  3.8992
  873MOL0     H20466  10.414   1.249   6.687  0.1156  1.6828 -0.2104
  873MOL0     H20467  10.410   1.064   6.672 -0.5477  0.3862  1.9905
  873MOL0     H20468  10.216   1.115   6.501  0.9375 -1.7350  1.6458
  873MOL0     H20469  10.391   1.136   6.455  1.8371 -1.1982  2.5085
  873MOL0     H20470  10.256   1.516   6.390 -2.6217 -1.2340 -0.7045
  873MOL0     H20471  10.117   1.294   6.964 -0.8380  0.8084  0.9861
  873MOL0     H20472   9.939   1.483   7.175 -1.0537  1.4447 -0.7216
  873MOL0     H20473   9.948   1.573   7.012 -1.7865  1.5684  2.4679
  873MOL0     H20474   9.946   1.392   7.034  0.8437  0.1897 -0.6354
  874MOL0     O20475   1.657   6.003   4.023 -0.0566  0.4615  0.2786
  874MOL0     C20476   1.682   6.074   4.122  0.2098 -0.3777  0.3447
  874MOL0     O20477   1.605   6.075   4.243  0.0265 -0.5587  0.6471
  874MOL0     C20478   1.482   6.012   4.244 -0.5353  0.0852 -0.5459
  874MOL0     C20479   1.467   5.910   4.330 -0.4318 -0.5975 -0.7726
  874MOL0     C20480   1.336   5.850   4.338 -0.7212  0.2181  0.0269
  874MOL0     C20481   1.228   5.912   4.271 -0.2394  0.2004  0.6643
  874MOL0     O20482   1.099   5.875   4.281  0.2655 -0.2298 -0.4271
  874MOL0     C20483   1.078   5.766   4.376 -0.1745 -0.5173 -0.3033
  874MOL0     C20484   0.925   5.731   4.393  0.5069  1.0534 -0.4570
  874MOL0     C20485   0.837   5.746   4.267 -0.2739  0.0339 -0.2038
  874MOL0     C20486   0.684   5.728   4.295  0.3569  0.3915 -0.6631
  874MOL0     C20487   0.657   5.586   4.327  0.3612  0.1720  0.3308
  874MOL0     C20488   0.687   5.490   4.211  0.3127 -0.1730 -0.1637
  874MOL0     C20489   0.607   5.365   4.218  0.1374  0.2971  0.3981
  874MOL0     C20490   0.661   5.252   4.135  0.3525 -0.2776  0.6747
  874MOL0     N20491   0.581   5.130   4.140  0.4530  0.5410  0.0878
  874MOL0     C20492   0.455   5.110   4.090  0.6165 -0.5259 -0.4870
  874MOL0     C20493   0.425   4.987   4.135 -0.2765  0.1242  0.0397
  874MOL0     C20494   0.280   4.943   4.132  0.2078  1.0467  0.6549
  874MOL0     C20495   0.227   4.914   3.989  0.3535 -0.5013  0.3010
  874MOL0     C20496   0.194   5.045   3.909  0.3494 -1.1580  0.3129
  874MOL0     C20497   0.115   5.007   3.783  0.8156 -0.7345 -0.9810
  874MOL0     O20498   0.183   4.905   3.714  0.6350  0.1468 -0.2078
  874MOL0     C20499   0.142   4.866   3.589 -0.4359  0.7030 -0.1001
  874MOL0     C20500   0.208   4.762   3.523  0.1416  0.0273  0.4141
  874MOL0     C20501   0.152   4.705   3.401 -0.0977  0.3115  0.0118
  874MOL0     C20502   0.242   4.598   3.333 -0.4952  1.1416  0.6636
  874MOL0     C20503   0.030   4.759   3.347 -0.1038  0.8334  0.2526
  874MOL0     C20504  -0.022   4.716   3.212  1.6516 -0.6134  0.0437
  874MOL0     O20505  -0.013   4.586   3.168 -0.1434 -0.0079 -0.1908
  874MOL0     C20506  -0.073   4.558   3.042  0.1623  0.0883 -0.0563
  874MOL0     C20507   0.008   4.530   2.927 -0.4974  0.6568 -0.1787
  874MOL0     C20508  -0.052   4.469   2.813 -0.4651  0.1402  0.2460
  874MOL0     C20509  -0.195   4.464   2.806  0.9003  0.1316  0.1739
  874MOL0     O20510  -0.254   4.402   2.699 -0.4683  0.0640  0.4582
  874MOL0     C20511  -0.238   4.459   2.567  0.0344 -0.2727 -0.4340
  874MOL0     C20512  -0.278   4.365   2.463  0.7240  0.0912 -0.1437
  874MOL0     C20513  -0.421   4.296   2.484 -0.1931  0.0979 -0.4151
  874MOL0     C20514  -0.529   4.395   2.446  0.1015  0.9453 -0.5197
  874MOL0     C20515  -0.668   4.363   2.498  0.1734  0.2386  0.1068
  874MOL0     C20516  -0.786   4.456   2.467  0.8363 -0.0922  0.0696
  874MOL0     C20517  -0.794   4.500   2.312  0.2304  0.4664  0.1716
  874MOL0     C20518  -0.917   4.591   2.287 -0.4124 -0.2622  0.2699
  874MOL0    Cl20519  -1.067   4.513   2.323  0.3233  0.0547 -0.3172
  874MOL0     C20520  -0.280   4.496   2.911  0.1642 -0.6533  0.0486
  874MOL0     C20521  -0.213   4.528   3.031 -0.5701 -0.6857 -1.0358
  874MOL0     O20522  -0.101   4.799   3.165 -0.6286 -0.6477  0.2506
  874MOL0     C20523  -0.038   4.863   3.411  0.4046 -0.4769  0.4942
  874MOL0     C20524   0.021   4.915   3.525 -0.1112 -0.4132 -0.2096
  874MOL0     N20525   0.537   4.927   4.176 -0.3211  0.1804  0.0835
  874MOL0     N20526   0.632   5.010   4.192  0.7333  0.2425  0.2819
  874MOL0     C20527   1.244   6.011   4.184 -1.0140  0.4350 -0.3794
  874MOL0     C20528   1.373   6.058   4.163 -0.4246  0.6177 -1.2778
  874MOL0     C20529   1.810   6.163   4.131  0.4843  0.2496  0.5865
  874MOL0     C20530   1.859   6.206   4.253 -0.2268  0.5364 -0.4012
  874MOL0     C20531   1.979   6.291   4.263  0.4225  0.5388 -0.4601
  874MOL0     C20532   2.056   6.326   4.153 -0.7469 -0.0197 -0.7768
  874MOL0     O20533   2.162   6.414   4.176 -0.0623  0.4696  0.5464
  874MOL0     C20534   2.248   6.445   4.067 -0.1322 -0.7342 -0.3637
  874MOL0     C20535   2.329   6.567   4.113  0.4164 -0.4713 -0.1432
  874MOL0     C20536   2.467   6.583   4.035 -0.1087  0.1216  0.2628
  874MOL0     C20537   2.451   6.631   3.894  0.0665 -0.2037 -0.3049
  874MOL0     C20538   2.425   6.522   3.791 -0.1038  0.1929  0.5187
  874MOL0     C20539   2.403   6.432   3.712 -0.6835 -1.3460  0.1488
  874MOL0     C20540   2.010   6.282   4.028 -0.9454  0.4636 -0.6531
  874MOL0     C20541   1.886   6.214   4.016  0.0942  0.1476  0.0164
  874MOL0     C20542   1.833   6.186   3.869  0.0207  0.3011 -0.3155
  874MOL0     H20543   1.552   5.876   4.389 -1.5870 -0.4519  1.0415
  874MOL0     H20544   1.325   5.777   4.418  0.8845 -0.1415 -0.0488
  874MOL0     H20545   1.110   5.793   4.477 -1.1449  1.4660 -0.4683
  874MOL0     H20546   1.122   5.672   4.340  1.8952  1.2933 -2.8799
  874MOL0     H20547   0.924   5.631   4.436 -3.3344  1.5646  1.0292
  874MOL0     H20548   0.879   5.796   4.468  3.8224  2.8098  0.2422
  874MOL0     H20549   0.839   5.850   4.231  0.2653 -0.8374 -2.9168
  874MOL0     H20550   0.857   5.675   4.187 -2.3179  0.0134 -0.7587
  874MOL0     H20551   0.667   5.800   4.376  0.1191  0.7343 -1.0155
  874MOL0     H20552   0.624   5.750   4.206  1.0131 -2.1603 -1.8094
  874MOL0     H20553   0.561   5.571   4.377  0.7672 -1.1042  0.7774
  874MOL0     H20554   0.738   5.566   4.398  1.6234  0.0966 -1.0826
  874MOL0     H20555   0.663   5.535   4.114 -1.2683 -0.3276  0.1261
  874MOL0     H20556   0.793   5.464   4.214  1.0713  2.5140 -0.4953
  874MOL0     H20557   0.512   5.391   4.172  1.1416  0.0414 -1.9922
  874MOL0     H20558   0.599   5.334   4.323 -0.3761  1.0005  0.5734
  874MOL0     H20559   0.689   5.291   4.037  2.6660 -2.7807  0.2397
  874MOL0     H20560   0.754   5.218   4.181 -1.6880 -1.7693  4.1004
  874MOL0     H20561   0.392   5.194   4.062 -2.0480 -1.3085  2.5875
  874MOL0     H20562   0.225   5.025   4.181 -1.0459  1.5311 -1.4341
  874MOL0     H20563   0.256   4.862   4.202 -1.6873  2.4555  1.7364
  874MOL0     H20564   0.309   4.859   3.943  0.2432 -1.1669  0.8830
  874MOL0     H20565   0.135   4.855   3.992 -0.5814  0.9396  1.5073
  874MOL0     H20566   0.144   5.121   3.970  3.6603  2.1748 -0.7119
  874MOL0     H20567   0.283   5.093   3.867 -2.0961  3.4467 -0.2664
  874MOL0     H20568   0.012   4.982   3.811 -0.2785  1.6919 -2.4648
  874MOL0     H20569   0.106   5.094   3.717 -0.7811  0.1065  0.2719
  874MOL0     H20570   0.299   4.719   3.563  1.1301  2.1082  0.5328
  874MOL0     H20571   0.339   4.597   3.385 -0.5469 -0.4804  0.7653
  874MOL0     H20572   0.263   4.612   3.227 -0.4645 -0.8926  0.3601
  874MOL0     H20573   0.206   4.497   3.352  0.4628 -0.1461 -3.4395
  874MOL0     H20574   0.115   4.551   2.936 -0.0540  0.1338 -3.1941
  874MOL0     H20575   0.005   4.428   2.731 -1.4875  1.7048 -1.3328
  874MOL0     H20576  -0.300   4.549   2.578 -0.2740 -0.6001  0.6215
  874MOL0     H20577  -0.142   4.501   2.538  0.4109 -1.2828 -0.6731
  874MOL0     H20578  -0.271   4.417   2.367  4.1920  0.1681  0.0279
  874MOL0     H20579  -0.193   4.297   2.462  0.3013 -0.5111 -2.6993
  874MOL0     H20580  -0.438   4.277   2.590 -2.0447  2.6431 -0.1792
  874MOL0     H20581  -0.434   4.209   2.418  0.0142  1.0792 -1.7763
  874MOL0     H20582  -0.539   4.394   2.337  0.9188  1.0490 -0.6042
  874MOL0     H20583  -0.503   4.498   2.472 -0.4902  1.2202 -0.9976
  874MOL0     H20584  -0.692   4.260   2.470  2.1101 -0.5199  1.0161
  874MOL0     H20585  -0.663   4.370   2.608 -1.6557  2.8199  0.1131
  874MOL0     H20586  -0.777   4.546   2.530 -1.3873  0.0521  0.2525
  874MOL0     H20587  -0.880   4.405   2.489  0.8868  0.7559  2.5267
  874MOL0     H20588  -0.789   4.405   2.258 -2.2226 -0.6550  1.7299
  874MOL0     H20589  -0.697   4.543   2.284 -0.0286  2.0705  1.5604
  874MOL0     H20590  -0.918   4.623   2.182 -0.6117  0.4810  0.4914
  874MOL0     H20591  -0.904   4.678   2.352  0.3927  0.3773 -0.7022
  874MOL0     H20592  -0.389   4.499   2.913  0.1783  0.2897  0.1819
  874MOL0     H20593  -0.274   4.547   3.119  0.0309  0.5161 -0.8506
  874MOL0     H20594  -0.124   4.919   3.376  0.1974 -1.2152 -0.2141
  874MOL0     H20595  -0.040   4.994   3.567 -2.3815 -0.9201 -2.3184
  874MOL0     H20596   1.165   6.052   4.121  0.0606  1.5485 -1.0327
  874MOL0     H20597   1.380   6.141   4.094  0.6342  3.1385  1.6489
  874MOL0     H20598   1.815   6.177   4.348  2.6953 -0.5739  0.7373
  874MOL0     H20599   2.008   6.325   4.362 -2.4874  3.6369 -0.4936
  874MOL0     H20600   2.316   6.361   4.047  0.0266 -0.2224 -2.0633
  874MOL0     H20601   2.199   6.458   3.970 -0.0738 -1.4239 -0.4967
  874MOL0     H20602   2.353   6.549   4.218  1.5504 -2.7789 -0.7339
  874MOL0     H20603   2.266   6.656   4.113  1.3682  0.4200  4.0503
  874MOL0     H20604   2.541   6.650   4.081  1.7682 -1.0206 -0.9447
  874MOL0     H20605   2.509   6.482   4.042 -1.6122 -0.3942  3.7943
  874MOL0     H20606   2.544   6.681   3.865 -0.5221 -0.7718 -3.6442
  874MOL0     H20607   2.382   6.715   3.878  1.4818  0.6394 -2.5411
  874MOL0     H20608   2.374   6.355   3.643 -1.7020 -1.6083  0.8499
  874MOL0     H20609   2.071   6.293   3.939 -2.9126  0.2689 -2.0863
  874MOL0     H20610   1.811   6.079   3.865  1.3310 -0.0374  0.6817
  874MOL0     H20611   1.740   6.231   3.835  0.3730 -0.4192 -2.3399
  874MOL0     H20612   1.913   6.218   3.802 -0.8459  0.0900 -1.4692
  875MOL0     O20613   2.650   8.206   3.550 -0.1319 -0.1021  0.1251
  875MOL0     C20614   2.558   8.251   3.622  0.0593 -0.7550  0.4489
  875MOL0     O20615   2.444   8.306   3.565  0.0133  0.6765  0.7419
  875MOL0     C20616   2.411   8.268   3.438  0.6387  0.0520  1.1804
  875MOL0     C20617   2.334   8.359   3.366 -0.7994  0.8425  0.2781
  875MOL0     C20618   2.277   8.322   3.245 -0.4753  0.0204  0.9043
  875MOL0     C20619   2.298   8.192   3.194 -0.3462  0.2166 -0.4295
  875MOL0     O20620   2.247   8.144   3.076 -0.1944 -0.0112 -0.7200
  875MOL0     C20621   2.190   8.242   2.986 -1.0939  0.4981  0.3808
  875MOL0     C20622   2.147   8.151   2.867  1.0330 -0.2134  0.4502
  875MOL0     C20623   2.068   8.226   2.758 -0.7153 -0.1595  0.2967
  875MOL0     C20624   1.922   8.227   2.776 -0.3538  0.7157 -0.2458
  875MOL0     C20625   1.840   8.278   2.655  0.4046  1.0362  0.5257
  875MOL0     C20626   1.842   8.427   2.663  1.1838  0.7280 -0.8772
  875MOL0     C20627   1.795   8.493   2.536  0.3612  0.9199  0.5161
  875MOL0     C20628   1.791   8.649   2.539  0.5320 -0.1710 -0.4128
  875MOL0     N20629   1.751   8.686   2.399 -0.7459 -0.2622 -0.6822
  875MOL0     C20630   1.825   8.727   2.292 -0.3381 -0.1478 -0.9721
  875MOL0     C20631   1.735   8.773   2.200 -0.0800  0.2802 -0.4500
  875MOL0     C20632   1.797   8.837   2.068 -0.1594  0.0977  0.1601
  875MOL0     C20633   1.709   8.930   1.987  0.3305  0.0949  0.1831
  875MOL0     C20634   1.768   8.965   1.851 -0.0894 -0.2906 -0.0955
  875MOL0     C20635   1.910   9.025   1.850 -0.6807 -0.1362  0.6382
  875MOL0     O20636   1.961   9.027   1.720 -0.9772  0.4085 -0.1581
  875MOL0     C20637   2.083   9.076   1.694 -0.5011  0.3148  0.3854
  875MOL0     C20638   2.155   9.036   1.580  0.4455  0.2457 -0.2778
  875MOL0     C20639   2.288   9.081   1.548  1.0194  0.1248  0.5646
  875MOL0     C20640   2.353   9.012   1.422  0.0770 -0.2089 -0.5418
  875MOL0     C20641   2.338   9.192   1.626 -0.1770 -0.2010  0.9943
  875MOL0     C20642   2.474   9.264   1.612 -0.2663  0.3030  0.5403
  875MOL0     O20643   2.525   9.297   1.731 -0.2524 -0.1754 -0.1010
  875MOL0     C20644   2.641   9.375   1.743 -0.6993  0.2171  0.0194
  875MOL0     C20645   2.703   9.461   1.646 -0.3526 -0.1102 -0.5150
  875MOL0     C20646   2.836   9.502   1.666  0.3695  0.2957  0.3798
  875MOL0     C20647   2.909   9.451   1.772 -0.3170 -0.1444 -0.4231
  875MOL0     O20648   3.039   9.507   1.797  0.9812  0.6518  0.6499
  875MOL0     C20649   3.104   9.475   1.924  0.2081  0.1382  0.2267
  875MOL0     C20650   3.241   9.527   1.917  0.7085  0.0293 -0.1675
  875MOL0     C20651   3.295   9.550   2.052 -0.6230 -0.1125 -0.3446
  875MOL0     C20652   3.430   9.610   2.041 -0.2457 -0.3670  0.6579
  875MOL0     C20653   3.549   9.514   2.024  0.6725 -0.6277  0.3233
  875MOL0     C20654   3.668   9.594   2.047  0.7431 -0.0331  0.0903
  875MOL0     C20655   3.774   9.567   1.943 -0.1840 -0.1248  0.3612
  875MOL0     C20656   3.912   9.602   1.999 -0.2599 -0.0247  0.0845
  875MOL0    Cl20657   4.040   9.511   1.907  0.0855  0.3348  0.1485
  875MOL0     C20658   2.845   9.359   1.866  0.2015  0.9342 -0.1956
  875MOL0     C20659   2.711   9.330   1.848 -0.0116 -0.5896  0.6764
  875MOL0     O20660   2.519   9.293   1.501  0.4647  0.4223  0.0877
  875MOL0     C20661   2.261   9.240   1.733 -0.1689  0.2139 -0.2363
  875MOL0     C20662   2.142   9.179   1.775  0.5825 -0.1105  0.8273
  875MOL0     N20663   1.615   8.757   2.253  0.0692 -0.5112 -0.4127
  875MOL0     N20664   1.624   8.721   2.378  0.5963  0.2709 -0.5343
  875MOL0     C20665   2.366   8.102   3.268 -0.6116  0.0291  0.2333
  875MOL0     C20666   2.416   8.137   3.394 -0.3704 -0.1996  0.2988
  875MOL0     C20667   2.579   8.268   3.769  0.4426  0.8331 -0.0687
  875MOL0     C20668   2.491   8.337   3.845  0.0364  1.0385  0.2320
  875MOL0     C20669   2.492   8.343   3.987  0.6079  0.4092 -0.2206
  875MOL0     C20670   2.575   8.268   4.066 -0.8163 -0.1560  0.8014
  875MOL0     O20671   2.576   8.269   4.203  0.2594  0.3406  0.1491
  875MOL0     C20672   2.461   8.326   4.277  1.3347 -0.7394 -1.0941
  875MOL0     C20673   2.472   8.475   4.290  0.0574 -0.0185 -0.0273
  875MOL0     C20674   2.473   8.532   4.432 -0.2920 -0.7060 -0.6754
  875MOL0     C20675   2.584   8.648   4.439 -0.6319  0.4064 -0.4111
  875MOL0     C20676   2.574   8.715   4.567  0.3360 -0.4963  0.8118
  875MOL0     C20677   2.566   8.740   4.682  0.2421 -0.2747 -0.0975
  875MOL0     C20678   2.669   8.190   3.991  0.5198 -0.3310 -0.1666
  875MOL0     C20679   2.680   8.190   3.846  0.4535 -0.5587 -0.1784
  875MOL0     C20680   2.796   8.107   3.788 -0.2895 -0.1458  0.1544
  875MOL0     H20681   2.325   8.454   3.417 -0.3206  1.4733 -0.7693
  875MOL0     H20682   2.222   8.400   3.194  1.5477  1.3384  0.6352
  875MOL0     H20683   2.280   8.296   2.958 -0.2701  0.4801  2.7690
  875MOL0     H20684   2.108   8.300   3.030 -0.1340  1.3257  1.1142
  875MOL0     H20685   2.243   8.115   2.829  1.8263 -0.9423  2.9602
  875MOL0     H20686   2.083   8.065   2.892  0.0207  0.3474 -0.1226
  875MOL0     H20687   2.101   8.330   2.760  2.1392 -0.9764  1.1842
  875MOL0     H20688   2.095   8.203   2.655  3.1694  2.4533  0.5034
  875MOL0     H20689   1.898   8.124   2.805  1.7242  1.2473  4.3690
  875MOL0     H20690   1.891   8.282   2.866 -1.3409 -1.8410  1.0930
  875MOL0     H20691   1.737   8.240   2.655  0.3669  0.9898  3.0226
  875MOL0     H20692   1.884   8.257   2.556 -0.4287  0.2327  0.3101
  875MOL0     H20693   1.787   8.468   2.749 -1.1975 -2.9556 -0.3898
  875MOL0     H20694   1.945   8.463   2.661  0.4922  2.8420 -1.9026
  875MOL0     H20695   1.693   8.475   2.502  0.5220  0.8118  0.0771
  875MOL0     H20696   1.855   8.454   2.453 -1.2443 -2.1747  0.6409
  875MOL0     H20697   1.717   8.691   2.607  2.0344  2.3073 -0.1617
  875MOL0     H20698   1.883   8.690   2.581 -0.4490 -1.4230  3.3206
  875MOL0     H20699   1.933   8.737   2.283 -0.2779  0.8727  0.4532
  875MOL0     H20700   1.833   8.764   1.995 -2.1436  0.7180 -1.5194
  875MOL0     H20701   1.893   8.883   2.091 -0.8944  1.2540  0.9845
  875MOL0     H20702   1.610   8.889   1.966  0.2875 -0.4316  1.3139
  875MOL0     H20703   1.683   9.021   2.042  3.7335  0.9747  0.5608
  875MOL0     H20704   1.762   8.876   1.787  2.0281 -1.0178  0.6421
  875MOL0     H20705   1.704   9.040   1.803 -0.4020  0.4827  1.4831
  875MOL0     H20706   1.899   9.118   1.907  1.0102  0.0737  0.6753
  875MOL0     H20707   1.978   8.968   1.913 -0.0790  1.7202  1.7702
  875MOL0     H20708   2.117   8.951   1.524  3.4897 -0.5627 -1.3159
  875MOL0     H20709   2.321   8.908   1.418 -3.5740  0.5510  2.6348
  875MOL0     H20710   2.461   9.033   1.430 -0.1463  2.3301 -2.7869
  875MOL0     H20711   2.323   9.069   1.334 -0.9998 -0.0682 -0.1025
  875MOL0     H20712   2.648   9.508   1.564  0.1784  1.6427  0.0922
  875MOL0     H20713   2.890   9.572   1.602 -0.0753 -1.2577 -1.8092
  875MOL0     H20714   3.054   9.522   2.010  0.6278 -0.5004  0.8329
  875MOL0     H20715   3.114   9.368   1.940  1.6781  0.1191 -0.6166
  875MOL0     H20716   3.306   9.450   1.874  1.7138 -0.1505  1.5811
  875MOL0     H20717   3.246   9.613   1.849 -0.0796 -0.8897 -1.4132
  875MOL0     H20718   3.288   9.465   2.121 -1.0778  0.4529  0.3087
  875MOL0     H20719   3.230   9.619   2.105  0.3356  1.1787 -0.8109
  875MOL0     H20720   3.447   9.657   2.138  0.6945 -1.9243  1.2800
  875MOL0     H20721   3.443   9.680   1.957  1.2507 -3.1714 -1.6509
  875MOL0     H20722   3.531   9.440   2.103 -1.6946  0.2166  0.6524
  875MOL0     H20723   3.558   9.460   1.929  2.1984 -0.0955  0.1389
  875MOL0     H20724   3.707   9.565   2.145 -0.7353  2.7490  1.6369
  875MOL0     H20725   3.643   9.700   2.037 -0.6956 -0.1790  1.7634
  875MOL0     H20726   3.763   9.628   1.853 -0.3538 -1.0775 -0.2826
  875MOL0     H20727   3.778   9.461   1.914  2.0831 -0.4336  1.5532
  875MOL0     H20728   3.924   9.586   2.106  0.6489 -0.4632 -0.0806
  875MOL0     H20729   3.933   9.709   1.990  0.1836 -0.1820 -0.9320
  875MOL0     H20730   2.907   9.317   1.945  2.1264  0.6408 -1.7782
  875MOL0     H20731   2.668   9.249   1.906 -0.7127  1.0084  2.4767
  875MOL0     H20732   2.308   9.321   1.788  2.9572 -0.4941 -1.6391
  875MOL0     H20733   2.100   9.220   1.866 -0.1624 -2.2198  1.4804
  875MOL0     H20734   2.381   8.005   3.222  4.0588  0.5286  0.2231
  875MOL0     H20735   2.472   8.062   3.448  1.4116 -0.7552 -2.1290
  875MOL0     H20736   2.410   8.389   3.794  1.0519  0.6189 -1.9406
  875MOL0     H20737   2.418   8.417   4.016 -3.0538 -2.1582 -2.1486
  875MOL0     H20738   2.370   8.294   4.225  0.3779 -1.7361  1.0574
  875MOL0     H20739   2.453   8.284   4.378 -2.7267 -1.0930 -1.3606
  875MOL0     H20740   2.387   8.518   4.238 -1.6569  1.0191  3.3492
  875MOL0     H20741   2.564   8.502   4.236  0.8768 -2.5064 -0.0199
  875MOL0     H20742   2.373   8.559   4.466 -0.2728 -1.8661  0.3845
  875MOL0     H20743   2.508   8.457   4.503  1.4109  0.9556  0.3320
  875MOL0     H20744   2.561   8.715   4.355 -1.1948 -0.1419 -0.7064
  875MOL0     H20745   2.689   8.619   4.429 -0.4097 -0.5401  3.1379
  875MOL0     H20746   2.572   8.758   4.788  4.1788 -1.3095  0.0132
  875MOL0     H20747   2.723   8.123   4.056 -2.5465 -0.5911  2.4059
  875MOL0     H20748   2.873   8.078   3.860  0.2477 -2.6925 -1.3300
  875MOL0     H20749   2.758   8.020   3.732  0.4624 -0.6472  0.4100
  875MOL0     H20750   2.843   8.168   3.710  0.8183 -1.4608 -0.2386
  876MOL0     O20751   9.758   5.690   5.572  0.2442  0.0193 -0.3033
  876MOL0     C20752   9.707   5.602   5.643  0.1156  0.3536  0.1513
  876MOL0     O20753   9.638   5.486   5.593  0.3885  0.2665 -0.2650
  876MOL0     C20754   9.600   5.490   5.462  0.0427  0.5348  0.0316
  876MOL0     C20755   9.651   5.396   5.372 -0.5940  0.4325  0.2931
  876MOL0     C20756   9.607   5.411   5.236 -0.4186 -0.8694 -0.1538
  876MOL0     C20757   9.527   5.514   5.195  0.1751 -0.2314  0.7460
  876MOL0     O20758   9.479   5.519   5.071 -0.0019  0.3952  0.1097
  876MOL0     C20759   9.389   5.419   5.030  1.1596  0.6463 -1.2184
  876MOL0     C20760   9.446   5.309   4.943  0.2218  0.7325  0.2647
  876MOL0     C20761   9.516   5.374   4.829  0.8930 -0.5790  0.0935
  876MOL0     C20762   9.559   5.271   4.720 -0.9217 -0.2336  0.8858
  876MOL0     C20763   9.650   5.155   4.772  0.1393  0.0191 -0.0333
  876MOL0     C20764   9.685   5.046   4.679  0.3398  0.0545 -0.0958
  876MOL0     C20765   9.711   4.920   4.758  0.7982 -0.2150 -0.6070
  876MOL0     C20766   9.846   4.930   4.840 -0.9314 -0.6104  0.1099
  876MOL0     N20767   9.893   4.798   4.885 -0.0407 -0.6973  0.6403
  876MOL0     C20768   9.829   4.717   4.983 -0.6223 -0.4026  0.2522
  876MOL0     C20769   9.873   4.598   4.957 -0.2810 -0.2917 -0.8851
  876MOL0     C20770   9.847   4.488   5.054  0.1737 -0.2227  0.1669
  876MOL0     C20771   9.710   4.418   5.034 -1.0131  0.6792  0.1713
  876MOL0     C20772   9.668   4.304   5.127  0.0034  0.4081  0.2095
  876MOL0     C20773   9.632   4.371   5.258 -0.8437 -0.0634 -0.5045
  876MOL0     O20774   9.753   4.384   5.330 -0.4454  0.2286 -0.0325
  876MOL0     C20775   9.740   4.419   5.462 -0.8775  0.0394  0.1733
  876MOL0     C20776   9.619   4.455   5.526 -0.8368  0.3221 -0.5351
  876MOL0     C20777   9.626   4.486   5.665  1.4517  0.5341 -0.0740
  876MOL0     C20778   9.501   4.524   5.733 -0.5676 -0.0800  0.2749
  876MOL0     C20779   9.743   4.473   5.739 -0.1301 -0.1115  0.0347
  876MOL0     C20780   9.758   4.509   5.884 -1.5160 -1.1778  0.1520
  876MOL0     O20781   9.661   4.503   5.974  0.5138 -0.0692  0.6342
  876MOL0     C20782   9.669   4.560   6.096 -1.1454 -1.2291 -0.6869
  876MOL0     C20783   9.552   4.616   6.150 -0.9561  0.4782 -0.0567
  876MOL0     C20784   9.555   4.677   6.276  0.4922  1.1945 -0.6556
  876MOL0     C20785   9.664   4.694   6.354 -0.6145 -0.6996 -0.0832
  876MOL0     O20786   9.655   4.741   6.475  0.6488  0.2643  0.5177
  876MOL0     C20787   9.764   4.825   6.524 -0.6145  0.9835 -0.2818
  876MOL0     C20788   9.706   4.911   6.652 -0.3277  1.1682 -0.3349
  876MOL0     C20789   9.798   5.003   6.718 -0.6648  0.8115 -1.4270
  876MOL0     C20790   9.736   5.096   6.829 -0.5351 -0.1440  0.2154
  876MOL0     C20791   9.858   5.156   6.914  0.5867  0.0160 -0.2459
  876MOL0     C20792   9.806   5.234   7.045 -0.5655 -0.4241  0.7598
  876MOL0     C20793   9.736   5.148   7.143  0.1765 -0.8568 -0.5279
  876MOL0     C20794   9.677   5.230   7.266  0.3639 -0.5165 -0.1444
  876MOL0    Cl20795   9.781   5.342   7.329  0.4554 -0.1695 -0.0450
  876MOL0     C20796   9.787   4.650   6.294  0.4790  0.0181 -0.4585
  876MOL0     C20797   9.791   4.580   6.179 -0.1285 -0.6011  0.0189
  876MOL0     O20798   9.879   4.539   5.921  0.1219  0.0315  0.2160
  876MOL0     C20799   9.864   4.450   5.670  0.1139 -0.2650  0.1366
  876MOL0     C20800   9.860   4.431   5.533 -0.2392  1.2023 -0.7317
  876MOL0     N20801   9.961   4.598   4.851  0.0835 -0.3217 -0.4361
  876MOL0     N20802   9.962   4.714   4.798  0.2009  0.7035 -0.6331
  876MOL0     C20803   9.473   5.600   5.293  0.1807  0.1247  0.2881
  876MOL0     C20804   9.516   5.597   5.431 -0.4567  0.8090  0.6655
  876MOL0     C20805   9.726   5.608   5.783 -0.7269  0.3035  0.3822
  876MOL0     C20806   9.648   5.712   5.843 -1.1223 -0.0788 -0.2161
  876MOL0     C20807   9.664   5.739   5.985 -0.6116 -0.0712  0.1622
  876MOL0     C20808   9.764   5.672   6.058 -0.1114 -0.0815 -0.7851
  876MOL0     O20809   9.789   5.692   6.187  0.0859  0.2844 -0.3114
  876MOL0     C20810   9.731   5.796   6.259 -0.2940 -0.0127  0.3245
  876MOL0     C20811   9.783   5.822   6.400  0.2178 -0.8901  0.2483
  876MOL0     C20812   9.738   5.960   6.448  0.5449  0.0726 -0.6926
  876MOL0     C20813   9.811   5.996   6.589 -0.5295  0.8684  0.0769
  876MOL0     C20814   9.962   6.014   6.574 -0.0895 -0.5074  0.1483
  876MOL0     C20815  10.084   6.026   6.562 -1.8589 -0.1012  0.7835
  876MOL0     C20816   9.824   5.557   6.000  0.8457 -0.7037 -0.5729
  876MOL0     C20817   9.804   5.526   5.865  0.4355 -0.4880 -0.2807
  876MOL0     C20818   9.872   5.399   5.812  0.8811 -1.0700  1.2575
  876MOL0     H20819   9.724   5.323   5.406  0.3173  0.8098 -0.8215
  876MOL0     H20820   9.632   5.332   5.165  0.6387 -1.1642  0.5168
  876MOL0     H20821   9.312   5.472   4.973 -0.9056  1.9569  2.4824
  876MOL0     H20822   9.330   5.369   5.108 -1.6298  2.2332 -2.1768
  876MOL0     H20823   9.518   5.247   4.996 -2.3105 -2.6108  0.0708
  876MOL0     H20824   9.369   5.237   4.917 -0.0646 -0.6509  4.2178
  876MOL0     H20825   9.450   5.446   4.780  0.8718 -0.8532 -0.2864
  876MOL0     H20826   9.599   5.422   4.882  2.4501 -4.0338  1.0835
  876MOL0     H20827   9.465   5.239   4.674 -1.6340  2.4484  0.2781
  876MOL0     H20828   9.610   5.326   4.641 -1.7061  0.9419  1.1735
  876MOL0     H20829   9.596   5.106   4.853  2.5419 -0.4643  1.3548
  876MOL0     H20830   9.737   5.200   4.821 -1.1850  1.6191  0.9424
  876MOL0     H20831   9.602   5.034   4.609 -1.2925 -0.2342  1.7970
  876MOL0     H20832   9.770   5.074   4.615 -0.4381  1.1138 -0.7180
  876MOL0     H20833   9.716   4.841   4.682  2.2149 -0.0242 -0.7408
  876MOL0     H20834   9.629   4.901   4.828  1.8228 -0.0195  0.6871
  876MOL0     H20835   9.924   4.968   4.772 -1.1986 -2.5669 -1.3499
  876MOL0     H20836   9.839   4.995   4.928 -0.3458  0.2862 -0.4835
  876MOL0     H20837   9.767   4.747   5.067  1.7621 -0.0108  1.9773
  876MOL0     H20838   9.856   4.524   5.157 -1.8433  3.1479 -0.6618
  876MOL0     H20839   9.923   4.413   5.030 -0.4593 -0.8521  0.0891
  876MOL0     H20840   9.633   4.495   5.027 -1.8140 -0.2038 -0.8712
  876MOL0     H20841   9.719   4.374   4.934  3.7454  2.0289 -0.2705
  876MOL0     H20842   9.584   4.248   5.085  2.6740 -0.6557 -4.4055
  876MOL0     H20843   9.756   4.240   5.132  0.2885  0.3189 -3.2490
  876MOL0     H20844   9.580   4.467   5.251  1.9369  1.6539  0.7095
  876MOL0     H20845   9.565   4.298   5.305 -1.5781  1.4541  0.9144
  876MOL0     H20846   9.532   4.472   5.464 -0.7419  1.1812 -0.4344
  876MOL0     H20847   9.536   4.593   5.811  0.5439 -1.0922  0.7171
  876MOL0     H20848   9.462   4.444   5.797  0.5848 -0.4193  0.5930
  876MOL0     H20849   9.428   4.564   5.663 -0.2230  1.1825  0.6033
  876MOL0     H20850   9.465   4.605   6.086  2.2843  1.6367 -5.2821
  876MOL0     H20851   9.455   4.693   6.314  0.0512 -1.0751 -0.6900
  876MOL0     H20852   9.847   4.758   6.548 -1.4594 -0.6407 -1.6588
  876MOL0     H20853   9.797   4.887   6.440  0.2130  0.7862 -0.1118
  876MOL0     H20854   9.613   4.963   6.629 -0.0261  0.6608 -3.0453
  876MOL0     H20855   9.685   4.832   6.725  0.2699  0.7673 -0.5872
  876MOL0     H20856   9.834   5.056   6.629 -2.8307  1.7334 -1.8147
  876MOL0     H20857   9.877   4.938   6.758 -1.7132 -0.7139 -1.7496
  876MOL0     H20858   9.662   5.042   6.890  0.3154  1.8092  3.1884
  876MOL0     H20859   9.680   5.169   6.771  1.0659 -0.6463 -2.0905
  876MOL0     H20860   9.916   5.066   6.938 -2.7392 -2.4014 -0.5579
  876MOL0     H20861   9.923   5.231   6.868  4.0364  0.1323  4.1227
  876MOL0     H20862   9.751   5.317   7.000  0.8617 -0.4507 -1.1454
  876MOL0     H20863   9.886   5.270   7.109  1.6719 -0.0595 -2.0307
  876MOL0     H20864   9.809   5.075   7.179  0.5030 -0.5902 -0.6528
  876MOL0     H20865   9.659   5.086   7.096 -0.3750 -1.7296  1.4104
  876MOL0     H20866   9.663   5.163   7.351  1.6974  1.0313  1.3541
  876MOL0     H20867   9.580   5.272   7.239  0.4530 -0.9469 -1.2184
  876MOL0     H20868   9.883   4.668   6.342 -0.2008 -3.5472  2.7977
  876MOL0     H20869   9.890   4.545   6.150  0.2413  0.9241 -0.6915
  876MOL0     H20870   9.956   4.456   5.729 -0.1028 -2.1731  0.7181
  876MOL0     H20871   9.949   4.403   5.478  0.3023  0.2738  0.5550
  876MOL0     H20872   9.401   5.677   5.267  0.6983  0.1704 -1.0634
  876MOL0     H20873   9.482   5.678   5.494  0.3648  1.8517 -0.2057
  876MOL0     H20874   9.597   5.789   5.786 -1.7560 -2.4109 -3.0131
  876MOL0     H20875   9.603   5.817   6.030 -1.2318 -1.4141  1.7524
  876MOL0     H20876   9.733   5.892   6.205 -1.9721  1.1836  2.2588
  876MOL0     H20877   9.624   5.775   6.262  0.0369 -1.7272  1.3041
  876MOL0     H20878   9.892   5.821   6.388  0.2659 -1.5756  0.7477
  876MOL0     H20879   9.743   5.756   6.477  0.2653 -0.1742  0.9019
  876MOL0     H20880   9.761   6.038   6.375 -2.0549 -0.3099 -2.0412
  876MOL0     H20881   9.629   5.959   6.452  0.4407  3.3907  0.4708
  876MOL0     H20882   9.791   5.919   6.664  0.1056  2.0860  1.5674
  876MOL0     H20883   9.776   6.091   6.631 -0.7447 -1.0549  4.8050
  876MOL0     H20884  10.189   6.044   6.549 -2.0862  1.5265  0.9530
  876MOL0     H20885   9.899   5.499   6.053  0.3257  0.8394  2.0555
  876MOL0     H20886   9.800   5.346   5.749  0.2529  0.9866  0.1441
  876MOL0     H20887   9.956   5.426   5.747 -1.3715 -4.0770 -3.3754
  876MOL0     H20888   9.904   5.336   5.896  1.4525 -0.1428  1.7550
  877MOL0     O20889   3.459   3.070  10.776 -0.2538 -0.0173  0.3239
  877MOL0     C20890   3.417   3.182  10.812 -1.3464  0.0750  0.4666
  877MOL0     O20891   3.385   3.280  10.719 -0.7271 -0.4057  0.4416
  877MOL0     C20892   3.395   3.257  10.579 -0.3779 -0.6716 -0.2750
  877MOL0     C20893   3.281   3.296  10.517  0.2250 -0.2272  0.1810
  877MOL0     C20894   3.281   3.297  10.373 -0.2071 -0.0601  0.5745
  877MOL0     C20895   3.387   3.243  10.302 -0.2093 -0.4369 -0.2795
  877MOL0     O20896   3.378   3.222  10.173 -0.2369 -0.7862  0.1808
  877MOL0     C20897   3.457   3.121  10.106 -0.7910 -0.3824  0.3258
  877MOL0     C20898   3.365   3.064   9.990 -0.2122  0.5889 -0.9891
  877MOL0     C20899   3.339   3.167   9.877 -0.3694 -0.3187 -0.4842
  877MOL0     C20900   3.245   3.129   9.773 -0.0614 -0.7864 -0.1863
  877MOL0     C20901   3.242   3.246   9.667  0.5570 -0.4693 -0.3369
  877MOL0     C20902   3.331   3.215   9.551 -0.0827 -0.8246  0.3837
  877MOL0     C20903   3.312   3.298   9.419  0.4714 -0.7543  0.0995
  877MOL0     C20904   3.192   3.248   9.343  0.2004  0.1160 -0.4243
  877MOL0     N20905   3.177   3.299   9.204  0.4994  0.0967  0.1887
  877MOL0     C20906   3.140   3.243   9.084  0.3042  0.2538  0.4886
  877MOL0     C20907   3.140   3.340   8.983 -0.5751 -0.5798  0.2323
  877MOL0     C20908   3.092   3.332   8.845 -0.0747 -0.3220  0.2013
  877MOL0     C20909   2.947   3.383   8.828  0.1394 -0.0384 -0.7422
  877MOL0     C20910   2.841   3.279   8.891  0.1765 -0.1085  0.9437
  877MOL0     C20911   2.844   3.140   8.839  0.2865 -0.3096 -0.0769
  877MOL0     O20912   2.846   3.137   8.689 -0.1637 -0.0538 -0.8627
  877MOL0     C20913   2.725   3.173   8.626  0.2798  0.4115 -0.0700
  877MOL0     C20914   2.595   3.163   8.690 -0.2779  0.2728  0.0751
  877MOL0     C20915   2.471   3.186   8.622  0.4072 -0.3900 -0.1250
  877MOL0     C20916   2.340   3.159   8.699 -0.0709 -0.4886 -0.6868
  877MOL0     C20917   2.481   3.234   8.490  1.3153 -0.0547 -0.3286
  877MOL0     C20918   2.361   3.275   8.407 -0.0258 -0.2676  0.4917
  877MOL0     O20919   2.377   3.341   8.279 -1.4198  0.0168  0.5510
  877MOL0     C20920   2.274   3.367   8.192  0.1186  0.3045  0.2309
  877MOL0     C20921   2.297   3.463   8.098  0.7157 -0.7994  0.8840
  877MOL0     C20922   2.212   3.494   7.997 -0.0574  0.4957  0.2911
  877MOL0     C20923   2.084   3.453   7.989 -0.0022  0.4848 -0.7901
  877MOL0     O20924   1.997   3.496   7.894 -0.3856  0.2463  0.3811
  877MOL0     C20925   1.975   3.635   7.855 -0.0276  0.5302 -0.7914
  877MOL0     C20926   1.956   3.723   7.972 -0.4707 -0.2581  0.0289
  877MOL0     C20927   1.881   3.856   7.945  0.9419  0.2150  0.1224
  877MOL0     C20928   1.980   3.956   7.886  0.1644 -0.8665 -0.0964
  877MOL0     C20929   1.914   4.087   7.849 -1.0119 -0.1728 -0.9381
  877MOL0     C20930   2.024   4.197   7.826  0.9292 -0.6894  0.3699
  877MOL0     C20931   2.017   4.257   7.683 -0.4240  0.0119 -0.8997
  877MOL0     C20932   2.158   4.297   7.640  0.3543 -0.9215 -0.0154
  877MOL0    Cl20933   2.296   4.168   7.641 -0.1382 -0.0485  0.4014
  877MOL0     C20934   2.053   3.351   8.089 -0.1062  0.3550 -0.3771
  877MOL0     C20935   2.151   3.313   8.184 -0.1814  0.6165  0.5331
  877MOL0     O20936   2.249   3.251   8.459 -1.0038  0.0861 -0.2324
  877MOL0     C20937   2.604   3.260   8.425 -0.2718  0.5848 -0.0279
  877MOL0     C20938   2.727   3.226   8.496  0.3038  0.5060 -0.4268
  877MOL0     N20939   3.180   3.461   9.040 -0.6658 -0.2617  0.4722
  877MOL0     N20940   3.215   3.423   9.163  0.0101 -0.2697  0.7449
  877MOL0     C20941   3.508   3.213  10.370 -0.4764 -0.0766  0.2601
  877MOL0     C20942   3.516   3.228  10.506  0.5277  0.5848  0.7907
  877MOL0     C20943   3.399   3.214  10.956 -0.2255 -0.3676 -0.0611
  877MOL0     C20944   3.323   3.334  10.979 -0.1587  0.0953 -0.2108
  877MOL0     C20945   3.309   3.380  11.115 -0.1219 -0.2148  0.2459
  877MOL0     C20946   3.352   3.306  11.224 -0.2071  1.0961  0.9413
  877MOL0     O20947   3.324   3.343  11.347  0.2490  0.5154 -0.4434
  877MOL0     C20948   3.417   3.412  11.422 -0.0026 -0.5370  0.7714
  877MOL0     C20949   3.329   3.506  11.513 -0.6373 -0.2878  0.0620
  877MOL0     C20950   3.421   3.604  11.589 -0.3757  0.4165  0.0572
  877MOL0     C20951   3.508   3.534  11.689 -0.6057 -0.0163 -0.3575
  877MOL0     C20952   3.555   3.644  11.782 -0.5335  0.3406  0.0807
  877MOL0     C20953   3.589   3.728  11.862  0.0512  0.2882 -0.3562
  877MOL0     C20954   3.423   3.189  11.196  0.3731 -0.3710 -0.8172
  877MOL0     C20955   3.448   3.139  11.068 -0.2193 -0.4444  0.6624
  877MOL0     C20956   3.517   3.012  11.052 -0.4213  0.6248  0.3978
  877MOL0     H20957   3.208   3.345  10.581  0.1821 -0.5271  0.3636
  877MOL0     H20958   3.193   3.333  10.321  0.7759  2.3972  0.5047
  877MOL0     H20959   3.471   3.040  10.179  1.3417 -0.8429 -0.5213
  877MOL0     H20960   3.545   3.178  10.076 -0.0389 -1.7656 -0.1900
  877MOL0     H20961   3.395   2.966   9.952 -0.8781 -1.8066  3.9113
  877MOL0     H20962   3.265   3.064  10.035  0.6978  0.9706  1.1582
  877MOL0     H20963   3.301   3.253   9.932  0.0010 -0.1998 -0.4116
  877MOL0     H20964   3.431   3.183   9.820  0.9518 -1.7349  1.1549
  877MOL0     H20965   3.267   3.033   9.726  0.7219 -0.3425 -0.7738
  877MOL0     H20966   3.154   3.119   9.832 -0.6641 -0.9420 -1.1211
  877MOL0     H20967   3.274   3.346   9.699  1.7871 -0.4895 -1.4178
  877MOL0     H20968   3.141   3.242   9.624  0.7777  2.0549 -1.2980
  877MOL0     H20969   3.431   3.223   9.595 -0.5216  1.2168  1.1279
  877MOL0     H20970   3.319   3.111   9.521 -2.3764 -0.0694 -1.6592
  877MOL0     H20971   3.408   3.284   9.368  0.4845 -1.4600  0.3075
  877MOL0     H20972   3.309   3.406   9.435  2.7695  0.1356 -4.1783
  877MOL0     H20973   3.197   3.139   9.329  1.7531  0.3475 -2.0232
  877MOL0     H20974   3.098   3.268   9.394 -0.6074  0.2834 -1.9243
  877MOL0     H20975   3.116   3.138   9.068 -1.3362  0.5114  1.0562
  877MOL0     H20976   3.098   3.226   8.817  2.0663 -0.4844  1.0814
  877MOL0     H20977   3.163   3.392   8.788  1.1259 -3.5735 -2.0601
  877MOL0     H20978   2.928   3.479   8.878 -0.9713 -0.2697 -0.7082
  877MOL0     H20979   2.938   3.394   8.720  0.3190  0.6194 -0.6976
  877MOL0     H20980   2.850   3.275   9.000  0.5730 -1.1771  0.8800
  877MOL0     H20981   2.751   3.336   8.867  0.8936  0.2553 -1.0904
  877MOL0     H20982   2.939   3.094   8.866  1.6383 -0.3633 -4.2334
  877MOL0     H20983   2.763   3.079   8.880 -0.1241  1.0488  1.2006
  877MOL0     H20984   2.605   3.122   8.790  1.7558  4.1332  1.6573
  877MOL0     H20985   2.366   3.125   8.800 -0.5535  0.4583 -0.2352
  877MOL0     H20986   2.290   3.076   8.648  1.7419 -1.1675 -1.4191
  877MOL0     H20987   2.284   3.253   8.705  2.6307  1.2353 -1.0598
  877MOL0     H20988   2.390   3.519   8.104  0.0123  0.5387 -0.3351
  877MOL0     H20989   2.258   3.561   7.924 -3.1733  1.9663 -0.4839
  877MOL0     H20990   2.069   3.672   7.813  1.9739 -1.7413  1.3420
  877MOL0     H20991   1.899   3.638   7.777  0.3832  3.7841 -1.2224
  877MOL0     H20992   1.897   3.671   8.048 -2.1815  0.1935 -0.9143
  877MOL0     H20993   2.048   3.748   8.025 -1.4324  4.3052 -0.0529
  877MOL0     H20994   1.836   3.906   8.031 -0.9919  1.6350 -1.6134
  877MOL0     H20995   1.797   3.830   7.880 -0.2648 -2.2965  2.5043
  877MOL0     H20996   2.027   3.921   7.794  2.3599  1.0310  0.2088
  877MOL0     H20997   2.064   3.965   7.956 -0.7206 -2.4981  1.2629
  877MOL0     H20998   1.853   4.085   7.758  0.5551  0.4302 -2.0367
  877MOL0     H20999   1.850   4.116   7.932 -2.9883 -1.1786 -2.0284
  877MOL0     H21000   2.121   4.155   7.851  1.6815  1.1814  0.7143
  877MOL0     H21001   1.996   4.276   7.896  2.0185  1.1185 -1.1372
  877MOL0     H21002   1.959   4.350   7.685  2.9529  2.2510  0.1182
  877MOL0     H21003   1.976   4.186   7.610  0.8310 -0.7126 -0.9218
  877MOL0     H21004   2.186   4.377   7.710 -0.8000 -0.1733 -0.3842
  877MOL0     H21005   2.157   4.348   7.543 -2.0826 -1.5102 -0.3725
  877MOL0     H21006   1.956   3.303   8.079 -0.8116  2.1182 -4.4037
  877MOL0     H21007   2.139   3.231   8.254  5.3328  0.2507  1.5083
  877MOL0     H21008   2.611   3.307   8.327 -0.5406 -3.5691 -2.2661
  877MOL0     H21009   2.817   3.244   8.438  2.0576 -2.1448  1.2339
  877MOL0     H21010   3.595   3.185  10.310 -1.3160 -2.8414  0.1946
  877MOL0     H21011   3.618   3.213  10.540 -0.2523 -3.4257  1.9016
  877MOL0     H21012   3.271   3.393  10.905 -0.3607  0.4082  0.1765
  877MOL0     H21013   3.249   3.467  11.142  1.8762  1.1106  0.6125
  877MOL0     H21014   3.480   3.340  11.476  0.6060 -1.7007 -1.3511
  877MOL0     H21015   3.485   3.476  11.366  1.0341 -0.4763  2.0619
  877MOL0     H21016   3.274   3.452  11.590 -0.2687  3.5467  3.3121
  877MOL0     H21017   3.265   3.571  11.452  1.1850  0.6181 -0.9724
  877MOL0     H21018   3.484   3.669  11.529  2.2353 -0.4158  1.7134
  877MOL0     H21019   3.350   3.676  11.631 -3.3176 -1.9282 -0.4821
  877MOL0     H21020   3.589   3.472  11.648 -3.3485 -1.1018 -4.8833
  877MOL0     H21021   3.445   3.464  11.745 -0.9844  0.3007 -0.3835
  877MOL0     H21022   3.636   3.808  11.916 -0.3849  0.3076  0.0026
  877MOL0     H21023   3.455   3.133  11.283  0.3799 -0.1616 -0.6856
  877MOL0     H21024   3.439   2.938  11.032  0.1528  0.3061 -0.7343
  877MOL0     H21025   3.595   3.028  10.977 -1.1921  1.9306 -0.1355
  877MOL0     H21026   3.572   2.985  11.143 -2.2920  0.8746  1.6548
  878MOL0     O21027   1.519   2.837   2.284  1.2147  0.2140  0.3253
  878MOL0     C21028   1.579   2.911   2.371 -0.6254  1.0519  0.1106
  878MOL0     O21029   1.574   2.894   2.505 -0.6194  0.2863  0.7035
  878MOL0     C21030   1.470   2.822   2.555  0.3206 -0.1851  0.4276
  878MOL0     C21031   1.495   2.691   2.592 -0.4551  1.1415  0.1135
  878MOL0     C21032   1.397   2.617   2.663  0.3966  0.1475  0.1252
  878MOL0     C21033   1.269   2.673   2.675 -0.9944  0.5613  0.2762
  878MOL0     O21034   1.154   2.621   2.726 -0.0837  0.4503  0.7648
  878MOL0     C21035   1.168   2.483   2.770 -0.4785  0.5440 -1.1428
  878MOL0     C21036   1.039   2.426   2.829  0.9035  0.2931 -0.0121
  878MOL0     C21037   1.028   2.484   2.966 -0.1717 -0.0745 -0.6668
  878MOL0     C21038   0.952   2.395   3.068  0.2344  0.2768 -0.7954
  878MOL0     C21039   0.804   2.427   3.075  0.2684 -0.1141 -0.2843
  878MOL0     C21040   0.729   2.344   3.171  0.8000 -0.3797 -1.5811
  878MOL0     C21041   0.576   2.381   3.179 -0.0461 -0.9917  0.4759
  878MOL0     C21042   0.550   2.512   3.251 -0.5369 -0.2752  0.8256
  878MOL0     N21043   0.404   2.535   3.253 -0.3801 -0.0256  0.3864
  878MOL0     C21044   0.309   2.450   3.313 -0.0367 -0.3762  0.4616
  878MOL0     C21045   0.187   2.504   3.284 -1.2631 -0.4719  0.3640
  878MOL0     C21046   0.051   2.457   3.315  0.0474  0.5526 -0.4089
  878MOL0     C21047  -0.014   2.363   3.214 -0.4647  0.5019  0.6284
  878MOL0     C21048  -0.162   2.336   3.261 -0.1983 -0.3283  0.1894
  878MOL0     C21049  -0.231   2.223   3.185  0.0690 -0.9301  0.7308
  878MOL0     O21050  -0.315   2.144   3.271  0.7764 -0.8976  0.0761
  878MOL0     C21051  -0.449   2.164   3.287 -0.1910 -1.0970  0.4626
  878MOL0     C21052  -0.514   2.249   3.199 -0.1704 -0.0947 -0.1652
  878MOL0     C21053  -0.650   2.276   3.222  0.8705 -0.0545 -0.0105
  878MOL0     C21054  -0.713   2.386   3.131 -0.1585 -0.5028  0.3947
  878MOL0     C21055  -0.713   2.227   3.347 -0.7848  0.1345 -1.1059
  878MOL0     C21056  -0.848   2.271   3.391  0.6048  0.0704 -0.2859
  878MOL0     O21057  -0.891   2.220   3.514  0.3002  1.0419 -0.2650
  878MOL0     C21058  -1.025   2.234   3.542 -0.7925 -0.0111  0.9190
  878MOL0     C21059  -1.065   2.333   3.636  0.9652 -0.3596  0.3462
  878MOL0     C21060  -1.200   2.346   3.664 -0.0472 -0.0268  0.4632
  878MOL0     C21061  -1.298   2.254   3.623  0.5213 -0.6033  0.6160
  878MOL0     O21062  -1.425   2.266   3.664  0.4839 -0.8987 -0.2128
  878MOL0     C21063  -1.507   2.146   3.653  0.2056 -0.3044 -0.9705
  878MOL0     C21064  -1.654   2.149   3.715 -0.2174 -0.4756 -0.1233
  878MOL0     C21065  -1.751   2.077   3.622  0.2741  0.6057 -0.0639
  878MOL0     C21066  -1.710   1.940   3.554  0.4596  0.2760  0.6160
  878MOL0     C21067  -1.827   1.857   3.500  0.5553 -0.0123  0.0510
  878MOL0     C21068  -1.903   1.927   3.374  0.5323  0.0889 -0.1643
  878MOL0     C21069  -1.953   1.815   3.283  0.0539 -0.4453  0.8150
  878MOL0     C21070  -1.962   1.882   3.149  0.2284 -0.2186  0.0499
  878MOL0    Cl21071  -1.810   1.884   3.073 -0.2429 -0.4047  0.1405
  878MOL0     C21072  -1.248   2.143   3.555  1.0388  0.2936  0.1671
  878MOL0     C21073  -1.111   2.135   3.513  0.0933  0.7805 -0.1423
  878MOL0     O21074  -0.927   2.336   3.317 -0.0429  1.3394 -0.7516
  878MOL0     C21075  -0.640   2.138   3.429 -0.0817  0.8866 -0.7920
  878MOL0     C21076  -0.504   2.111   3.404 -0.1545  0.5622 -0.0198
  878MOL0     N21077   0.209   2.611   3.199  0.3296 -0.2827  0.9224
  878MOL0     N21078   0.341   2.629   3.182  0.2578  0.0907  0.0579
  878MOL0     C21079   1.233   2.790   2.602 -0.7057 -0.1231  0.1450
  878MOL0     C21080   1.333   2.873   2.546  0.1059 -0.5100  0.2859
  878MOL0     C21081   1.678   3.013   2.322  0.1460 -0.6800 -0.4324
  878MOL0     C21082   1.789   3.042   2.400 -0.7573  0.1551 -0.9657
  878MOL0     C21083   1.893   3.125   2.361  0.3260 -0.3504  0.1187
  878MOL0     C21084   1.880   3.209   2.248 -0.7819  0.4933 -0.3850
  878MOL0     O21085   1.998   3.278   2.213  0.0853  0.3506 -0.3621
  878MOL0     C21086   1.998   3.370   2.104  0.1713 -0.8372 -0.3969
  878MOL0     C21087   1.958   3.515   2.141  0.5012  0.3476 -0.2652
  878MOL0     C21088   2.072   3.591   2.210  0.7661  0.7806  0.1004
  878MOL0     C21089   2.206   3.613   2.135  0.2824 -0.2785  1.0789
  878MOL0     C21090   2.182   3.719   2.032  0.9533 -0.1484  0.8080
  878MOL0     C21091   2.151   3.815   1.961  0.3065  0.4308  0.0338
  878MOL0     C21092   1.763   3.194   2.169  0.2554 -0.0618 -0.1654
  878MOL0     C21093   1.666   3.090   2.200 -0.2247 -0.6809  0.2758
  878MOL0     C21094   1.559   3.044   2.094 -0.8402 -0.3879  0.3251
  878MOL0     H21095   1.592   2.642   2.589 -0.6862  0.7032 -0.2528
  878MOL0     H21096   1.411   2.513   2.690 -1.5938 -0.0602  0.5141
  878MOL0     H21097   1.249   2.464   2.841 -0.2564 -1.9050 -1.9347
  878MOL0     H21098   1.190   2.417   2.685  0.8734  0.2441 -0.5879
  878MOL0     H21099   0.941   2.439   2.783  0.7625 -3.5247 -1.1668
  878MOL0     H21100   1.051   2.317   2.829 -0.2098  0.1604 -0.0554
  878MOL0     H21101   1.119   2.520   3.014 -2.7455  6.5675  0.2671
  878MOL0     H21102   0.966   2.572   2.949 -2.0115 -1.3920 -1.1265
  878MOL0     H21103   0.958   2.292   3.031 -0.1569  0.2844 -0.8778
  878MOL0     H21104   0.994   2.397   3.169  1.6065 -3.6284 -1.1115
  878MOL0     H21105   0.756   2.426   2.977 -2.7169 -3.8665  0.9760
  878MOL0     H21106   0.788   2.524   3.123 -1.1933 -0.1141 -0.7166
  878MOL0     H21107   0.740   2.239   3.142  3.0927 -0.3669 -0.8968
  878MOL0     H21108   0.767   2.358   3.273  0.0714  1.3422 -1.5124
  878MOL0     H21109   0.520   2.297   3.219  1.1639 -3.2049 -2.1488
  878MOL0     H21110   0.539   2.394   3.076  0.1409  3.0625  0.7597
  878MOL0     H21111   0.595   2.521   3.350  1.7887  0.2802 -0.2128
  878MOL0     H21112   0.597   2.597   3.200 -1.6282  0.7349  1.4506
  878MOL0     H21113   0.336   2.356   3.361  1.7403  0.3125  0.8715
  878MOL0     H21114  -0.015   2.541   3.338  1.0886  0.5209  3.4645
  878MOL0     H21115   0.059   2.399   3.408  1.7831  0.9198 -0.3096
  878MOL0     H21116  -0.010   2.421   3.121 -0.1660 -1.4576 -0.6385
  878MOL0     H21117   0.038   2.270   3.191 -0.9910 -0.1374  1.9014
  878MOL0     H21118  -0.158   2.295   3.362  0.6784 -4.1362 -1.2154
  878MOL0     H21119  -0.222   2.426   3.270 -0.2781 -0.3934  0.3168
  878MOL0     H21120  -0.269   2.245   3.085  0.7733 -0.9320  0.4550
  878MOL0     H21121  -0.143   2.158   3.172  0.6060 -0.3985  1.5660
  878MOL0     H21122  -0.471   2.303   3.115 -0.2952  0.0580 -0.1308
  878MOL0     H21123  -0.653   2.423   3.048  1.8244 -3.1939  0.5139
  878MOL0     H21124  -0.729   2.470   3.198 -0.0207  0.5923 -0.9087
  878MOL0     H21125  -0.814   2.364   3.094 -0.8293  5.2041 -2.1204
  878MOL0     H21126  -0.989   2.402   3.671 -1.2374  2.3652  0.0453
  878MOL0     H21127  -1.239   2.423   3.730 -1.0578  0.0707 -0.2299
  878MOL0     H21128  -1.528   2.116   3.549 -1.9817 -1.8512 -0.1652
  878MOL0     H21129  -1.453   2.064   3.701 -0.2652 -0.7789 -1.2323
  878MOL0     H21130  -1.656   2.091   3.807  3.7619 -3.2359 -1.5228
  878MOL0     H21131  -1.683   2.253   3.737  1.6203 -0.2457  1.5087
  878MOL0     H21132  -1.797   2.144   3.548 -1.5129  0.7644  1.1238
  878MOL0     H21133  -1.831   2.048   3.691  0.2289  2.0721  0.5302
  878MOL0     H21134  -1.664   1.881   3.633 -1.4023 -1.3359  0.5787
  878MOL0     H21135  -1.640   1.956   3.472 -1.1515 -1.3344 -1.1908
  878MOL0     H21136  -1.795   1.756   3.473 -2.9180 -0.6911 -2.1239
  878MOL0     H21137  -1.905   1.842   3.575  0.9754 -0.3658  0.4247
  878MOL0     H21138  -1.832   1.976   3.307 -0.1076 -2.0630 -2.5680
  878MOL0     H21139  -1.986   1.984   3.417  0.4405  0.3466 -0.6849
  878MOL0     H21140  -2.048   1.772   3.317 -1.3828  0.5526 -1.6530
  878MOL0     H21141  -1.878   1.736   3.280  0.4496 -0.2127  2.8408
  878MOL0     H21142  -1.999   1.984   3.147 -1.1050 -0.6933 -0.1156
  878MOL0     H21143  -2.027   1.810   3.100  2.6747 -2.7411  0.2310
  878MOL0     H21144  -1.311   2.060   3.526  2.9145 -1.3047  0.4142
  878MOL0     H21145  -1.081   2.049   3.454 -1.3650  0.6444 -0.7221
  878MOL0     H21146  -0.670   2.113   3.530  2.2059 -1.2946 -0.5443
  878MOL0     H21147  -0.440   2.058   3.474 -0.3670  1.8350  1.1900
  878MOL0     H21148   1.129   2.822   2.607 -1.0945 -1.0137 -1.5960
  878MOL0     H21149   1.333   2.968   2.494  3.2681  1.7861  3.8950
  878MOL0     H21150   1.810   2.983   2.488  4.5011 -0.9051 -2.5948
  878MOL0     H21151   1.973   3.138   2.433  0.9027  0.8521 -0.7012
  878MOL0     H21152   2.099   3.387   2.065 -0.9033 -1.6953 -3.8786
  878MOL0     H21153   1.936   3.335   2.021 -1.7446 -2.5346  1.6053
  878MOL0     H21154   1.864   3.514   2.196  0.8763  2.0848  0.4903
  878MOL0     H21155   1.943   3.572   2.049 -0.5559  0.3597 -0.0889
  878MOL0     H21156   2.023   3.688   2.225 -1.3609 -0.3763  1.0204
  878MOL0     H21157   2.092   3.533   2.300 -1.5422  0.8789  0.7389
  878MOL0     H21158   2.245   3.520   2.095 -0.9915  0.5478 -2.4708
  878MOL0     H21159   2.277   3.649   2.210  1.7446 -1.1224  0.1480
  878MOL0     H21160   2.126   3.896   1.894 -3.3694  0.8820  1.7009
  878MOL0     H21161   1.745   3.244   2.075  1.4711  0.6563 -0.0331
  878MOL0     H21162   1.454   3.063   2.117 -0.6325 -0.4231  1.3349
  878MOL0     H21163   1.566   3.106   2.004 -0.3657 -0.8762  0.0169
  878MOL0     H21164   1.592   2.946   2.057  2.0986  0.6805 -0.1125
  879MOL0     O21165   4.778   6.924   1.394  0.2891  0.3833 -0.5042
  879MOL0     C21166   4.749   6.952   1.280  0.4403 -0.0508 -0.6634
  879MOL0     O21167   4.831   6.930   1.176 -0.3276  0.4791  0.8086
  879MOL0     C21168   4.946   6.870   1.195 -0.4532  0.7365 -0.8049
  879MOL0     C21169   4.973   6.729   1.209  0.1934  0.2591  0.2056
  879MOL0     C21170   5.099   6.683   1.242 -0.1883 -0.1189 -0.6166
  879MOL0     C21171   5.205   6.769   1.259 -0.4589 -0.5277  0.8957
  879MOL0     O21172   5.332   6.711   1.288  0.4126 -0.5082  0.1680
  879MOL0     C21173   5.443   6.801   1.296  0.4327 -0.2963  0.3026
  879MOL0     C21174   5.565   6.725   1.345  0.5166  0.1654 -0.0418
  879MOL0     C21175   5.541   6.660   1.483 -1.3998  0.3000  0.1144
  879MOL0     C21176   5.673   6.613   1.550 -0.5717 -0.6880 -0.6769
  879MOL0     C21177   5.626   6.532   1.668  0.1619 -0.0175  0.3873
  879MOL0     C21178   5.753   6.480   1.736 -0.1685 -0.1633 -0.0936
  879MOL0     C21179   5.725   6.392   1.846  0.0229  0.6142 -0.3181
  879MOL0     C21180   5.860   6.341   1.912 -1.3562 -0.1962 -0.0078
  879MOL0     N21181   5.827   6.266   2.039 -1.4980  0.3561 -0.5644
  879MOL0     C21182   5.891   6.156   2.091 -0.4325 -0.5488  0.2884
  879MOL0     C21183   5.841   6.136   2.219  0.7898  0.2010  0.2782
  879MOL0     C21184   5.884   6.026   2.310  0.0138  0.1192  0.5022
  879MOL0     C21185   5.790   5.908   2.308 -0.3508 -0.3754  0.3881
  879MOL0     C21186   5.648   5.937   2.376  0.6552 -1.4230 -0.2323
  879MOL0     C21187   5.639   6.010   2.509  1.0182  0.0798  0.3476
  879MOL0     O21188   5.678   5.931   2.621  0.0143  0.6506 -0.0320
  879MOL0     C21189   5.660   5.989   2.737  0.5062 -0.3546  0.0966
  879MOL0     C21190   5.603   6.116   2.760 -0.8068  0.1836  1.4418
  879MOL0     C21191   5.598   6.177   2.880 -0.4582  0.6872 -0.4353
  879MOL0     C21192   5.545   6.315   2.884 -0.0302 -0.1168 -0.1352
  879MOL0     C21193   5.643   6.098   2.996 -0.8666 -0.7131  0.1487
  879MOL0     C21194   5.636   6.153   3.133  0.0773  0.0518 -0.1018
  879MOL0     O21195   5.674   6.059   3.226 -0.0560 -0.3979  0.8570
  879MOL0     C21196   5.687   6.097   3.361  0.5096 -0.4474  0.5269
  879MOL0     C21197   5.636   6.005   3.450 -0.0313 -0.4229 -0.7505
  879MOL0     C21198   5.637   6.050   3.584 -0.5128 -0.1130  0.3276
  879MOL0     C21199   5.686   6.184   3.626 -0.2063 -0.8495 -0.2294
  879MOL0     O21200   5.700   6.236   3.752 -1.0750 -0.0254 -0.1742
  879MOL0     C21201   5.703   6.148   3.862  0.7405  0.0097  0.5718
  879MOL0     C21202   5.789   6.222   3.965  0.0583  0.5997 -0.1821
  879MOL0     C21203   5.734   6.200   4.106  0.6653 -0.4628 -0.7097
  879MOL0     C21204   5.731   6.051   4.142 -0.6515 -0.5617  0.1944
  879MOL0     C21205   5.750   6.027   4.286 -0.0525  0.4825 -0.9147
  879MOL0     C21206   5.627   6.078   4.366  0.7634 -0.6549 -1.1235
  879MOL0     C21207   5.650   6.081   4.522 -0.0276  0.2077  0.6073
  879MOL0     C21208   5.575   6.200   4.574  0.2818 -0.0130  0.2627
  879MOL0    Cl21209   5.597   6.181   4.752  0.5679  0.1953  0.5411
  879MOL0     C21210   5.745   6.260   3.526  0.7737  0.0002  0.1020
  879MOL0     C21211   5.749   6.221   3.400 -0.0436  0.7704  0.4930
  879MOL0     O21212   5.606   6.270   3.157 -0.1225 -0.3595 -0.4575
  879MOL0     C21213   5.702   5.972   2.974 -0.5179 -0.6309 -0.1875
  879MOL0     C21214   5.713   5.915   2.842 -0.1403 -0.7056 -0.7347
  879MOL0     N21215   5.753   6.243   2.242 -1.1525 -0.9317 -0.9940
  879MOL0     N21216   5.750   6.320   2.134 -0.3254  0.0755  0.6958
  879MOL0     C21217   5.188   6.908   1.230 -1.2000 -0.0763  0.5438
  879MOL0     C21218   5.058   6.952   1.204 -0.8007  0.3392 -0.5911
  879MOL0     C21219   4.613   7.002   1.253  1.0877  0.4444  0.0728
  879MOL0     C21220   4.581   7.039   1.115 -0.3514  0.0039 -0.6629
  879MOL0     C21221   4.451   7.069   1.081  0.2020 -0.6711 -0.2157
  879MOL0     C21222   4.347   7.073   1.172  0.2029  0.1714 -0.2746
  879MOL0     O21223   4.217   7.081   1.132 -0.4361 -0.4827  0.3706
  879MOL0     C21224   4.132   7.146   1.223  0.5013 -0.2638 -0.9561
  879MOL0     C21225   4.011   7.212   1.147 -0.0364  0.1336  0.4386
  879MOL0     C21226   3.941   7.111   1.063 -0.5190 -1.2032 -0.2951
  879MOL0     C21227   3.821   7.161   0.999  0.0928  0.0476 -0.3723
  879MOL0     C21228   3.855   7.242   0.886 -0.8631 -0.3369  0.5422
  879MOL0     C21229   3.886   7.270   0.770  0.2496 -0.9861 -0.5639
  879MOL0     C21230   4.378   7.034   1.306  0.5175  0.1720 -0.5582
  879MOL0     C21231   4.508   7.006   1.347 -0.4545  0.3499  0.0603
  879MOL0     C21232   4.525   6.966   1.500 -0.4642  0.5597  0.0414
  879MOL0     H21233   4.889   6.662   1.190  0.5902 -0.7072  1.6776
  879MOL0     H21234   5.109   6.581   1.279  0.5432  0.7088  1.6507
  879MOL0     H21235   5.428   6.876   1.375 -1.0831 -1.0046  0.7104
  879MOL0     H21236   5.467   6.868   1.213 -1.0880  0.3431  0.3413
  879MOL0     H21237   5.565   6.647   1.268  1.6077  0.4742 -0.3728
  879MOL0     H21238   5.656   6.786   1.342 -0.7733  2.2380  0.9763
  879MOL0     H21239   5.495   6.733   1.551  0.1498  2.2014 -0.7891
  879MOL0     H21240   5.480   6.570   1.473 -0.1122 -0.7624  1.3968
  879MOL0     H21241   5.742   6.567   1.479  2.6364  0.4876  1.4521
  879MOL0     H21242   5.732   6.695   1.592 -1.0801  0.3892 -1.9950
  879MOL0     H21243   5.570   6.443   1.638 -0.7107  0.0956  1.5956
  879MOL0     H21244   5.565   6.592   1.737 -0.6507  1.4658 -1.5032
  879MOL0     H21245   5.817   6.436   1.659  0.4896  0.4792  0.0783
  879MOL0     H21246   5.820   6.558   1.774  1.7990 -1.0034 -1.6681
  879MOL0     H21247   5.664   6.311   1.805  0.0934  2.2244 -3.9885
  879MOL0     H21248   5.670   6.444   1.924  2.1946 -0.3767  2.0283
  879MOL0     H21249   5.924   6.283   1.845 -0.7779  2.0357 -1.4936
  879MOL0     H21250   5.924   6.423   1.948 -1.8268  0.6847 -1.1249
  879MOL0     H21251   5.975   6.101   2.050  2.2214  0.9470  3.2940
  879MOL0     H21252   5.897   6.058   2.413  1.2354 -3.2385  1.5301
  879MOL0     H21253   5.988   5.997   2.291  0.7646  1.1099  2.8042
  879MOL0     H21254   5.776   5.885   2.202 -0.2785 -2.9277  0.8784
  879MOL0     H21255   5.834   5.828   2.367  0.0920  0.6456  1.4906
  879MOL0     H21256   5.602   5.996   2.296  1.0686  1.5381  1.5397
  879MOL0     H21257   5.592   5.843   2.379 -1.3287 -0.4847 -3.2287
  879MOL0     H21258   5.679   6.111   2.503  0.9167  0.0500 -1.1756
  879MOL0     H21259   5.533   6.014   2.535  1.2050 -0.6876  1.3165
  879MOL0     H21260   5.575   6.179   2.677  0.5923  0.2747  1.0092
  879MOL0     H21261   5.454   6.330   2.943 -0.5489  0.5075 -1.0711
  879MOL0     H21262   5.521   6.349   2.783 -3.9446 -0.3190  0.5843
  879MOL0     H21263   5.619   6.389   2.916  2.6823 -2.6512 -0.1919
  879MOL0     H21264   5.579   5.915   3.428 -4.0014  0.5778  3.9122
  879MOL0     H21265   5.594   5.990   3.664  0.6941 -1.5156 -0.0335
  879MOL0     H21266   5.599   6.135   3.894  0.6052 -1.2136 -0.2763
  879MOL0     H21267   5.739   6.045   3.849  0.5402  0.0822 -0.6724
  879MOL0     H21268   5.894   6.195   3.948 -0.4288 -0.0525 -2.5808
  879MOL0     H21269   5.795   6.329   3.944  4.5562  0.4109 -0.7503
  879MOL0     H21270   5.630   6.233   4.109  1.0547  0.8298 -0.7711
  879MOL0     H21271   5.793   6.252   4.182 -1.8977 -0.5123  1.4851
  879MOL0     H21272   5.825   6.009   4.105 -0.8130 -1.0522  0.3407
  879MOL0     H21273   5.646   5.995   4.101 -1.2253  0.1069  0.4463
  879MOL0     H21274   5.766   5.921   4.307  1.5939  0.5983 -1.4463
  879MOL0     H21275   5.844   6.075   4.316  0.6955 -0.2350 -2.0477
  879MOL0     H21276   5.535   6.022   4.344  0.4442 -1.2119  1.3366
  879MOL0     H21277   5.603   6.181   4.337 -1.2809  0.3885  3.3996
  879MOL0     H21278   5.755   6.100   4.546  0.3098  1.7702 -1.7495
  879MOL0     H21279   5.611   5.991   4.570 -2.4359  1.5986  1.4070
  879MOL0     H21280   5.468   6.181   4.561 -0.4849  2.5852  1.9732
  879MOL0     H21281   5.602   6.299   4.536  0.6584  0.2887  1.2780
  879MOL0     H21282   5.764   6.364   3.553 -1.0187  0.5080 -0.4306
  879MOL0     H21283   5.788   6.298   3.334 -1.6343  2.1876  1.1290
  879MOL0     H21284   5.735   5.910   3.057  0.9746  2.2366  1.4805
  879MOL0     H21285   5.754   5.814   2.838  2.4562  0.2803 -1.3744
  879MOL0     H21286   5.268   6.978   1.249 -0.1489 -1.7967  3.0769
  879MOL0     H21287   5.033   7.055   1.183 -3.0492  0.2085  1.0180
  879MOL0     H21288   4.649   7.051   1.031  0.6165  2.9147  0.4072
  879MOL0     H21289   4.423   7.105   0.982  1.6105  0.5385 -0.2109
  879MOL0     H21290   4.091   7.076   1.295  0.5097 -0.5356 -1.2111
  879MOL0     H21291   4.188   7.224   1.275  1.5992  0.7033 -3.3962
  879MOL0     H21292   4.048   7.299   1.092  2.4654 -1.6881 -0.9408
  879MOL0     H21293   3.948   7.259   1.224 -1.5762 -0.3855 -0.4529
  879MOL0     H21294   4.003   7.066   0.985  0.6193 -0.9781  0.4536
  879MOL0     H21295   3.918   7.014   1.110  0.9743 -1.0529  0.8319
  879MOL0     H21296   3.770   7.243   1.050  1.1439  2.1871 -2.5280
  879MOL0     H21297   3.759   7.081   0.959 -2.4918  2.0175 -0.5783
  879MOL0     H21298   3.892   7.302   0.668 -3.8050 -0.6711 -0.8418
  879MOL0     H21299   4.298   7.032   1.379  1.0176  0.7573  0.0234
  879MOL0     H21300   4.549   6.859   1.493 -0.4593  0.7020 -3.6792
  879MOL0     H21301   4.614   7.015   1.541  2.1702 -2.3077 -1.7134
  879MOL0     H21302   4.435   6.976   1.562 -0.3441 -0.0094  0.3152
  880MOL0     O21303   8.572  10.202   9.461  0.1580  0.4512 -0.7075
  880MOL0     C21304   8.550  10.125   9.365 -0.5411  0.4096 -0.9438
  880MOL0     O21305   8.432  10.046   9.354  0.2525 -1.0832 -1.2073
  880MOL0     C21306   8.357  10.011   9.466  0.0958  0.5087  0.2672
  880MOL0     C21307   8.318   9.881   9.475 -0.2386  0.1881 -0.5028
  880MOL0     C21308   8.246   9.834   9.586  0.5914 -0.3963 -0.2409
  880MOL0     C21309   8.196   9.931   9.677 -0.7324 -0.3327  0.2576
  880MOL0     O21310   8.110   9.908   9.783 -0.2401 -0.2977 -0.0212
  880MOL0     C21311   8.111   9.792   9.861  0.4513  0.3791  0.4965
  880MOL0     C21312   8.218   9.804   9.973 -0.4123 -0.3982 -0.2684
  880MOL0     C21313   8.229   9.693  10.080 -0.0711 -0.2904  0.8593
  880MOL0     C21314   8.099   9.672  10.151  1.0906 -0.1614 -0.3627
  880MOL0     C21315   8.119   9.597  10.283 -0.0579 -0.6286  0.0209
  880MOL0     C21316   7.986   9.557  10.331  0.7760 -0.1281  0.4087
  880MOL0     C21317   8.000   9.430  10.421  0.5546  0.2174 -0.6103
  880MOL0     C21318   7.869   9.358  10.410  0.7076  0.3124  0.6377
  880MOL0     N21319   7.828   9.327  10.270 -0.4568  0.8024 -0.0266
  880MOL0     C21320   7.902   9.271  10.179 -0.5982  0.9081  0.1638
  880MOL0     C21321   7.816   9.241  10.074 -0.6655  0.5588  0.2130
  880MOL0     C21322   7.866   9.153   9.968  0.0951  0.6839  0.0263
  880MOL0     C21323   7.952   9.228   9.863  0.1427  0.6366 -0.3784
  880MOL0     C21324   7.900   9.363   9.831  0.3097  0.2449 -0.2004
  880MOL0     C21325   7.972   9.425   9.715  0.3835 -0.6919 -1.1220
  880MOL0     O21326   8.117   9.426   9.717  0.1775  0.1595 -0.1196
  880MOL0     C21327   8.189   9.469   9.605  0.8657 -0.4112 -0.4256
  880MOL0     C21328   8.129   9.499   9.483 -0.4803 -0.0777  0.0937
  880MOL0     C21329   8.200   9.514   9.362 -0.4879 -0.4148 -0.1546
  880MOL0     C21330   8.120   9.506   9.235  0.8000 -0.2704 -0.9053
  880MOL0     C21331   8.340   9.530   9.378 -0.3453 -0.4820  0.3891
  880MOL0     C21332   8.430   9.552   9.259  0.3464  0.0300 -0.3445
  880MOL0     O21333   8.378   9.607   9.145  0.3031  0.4169  0.1386
  880MOL0     C21334   8.441   9.671   9.050 -0.5636 -0.5819 -0.0593
  880MOL0     C21335   8.411   9.642   8.924 -0.0204  0.7547  0.5858
  880MOL0     C21336   8.442   9.729   8.819  0.3287  0.3124 -0.4721
  880MOL0     C21337   8.503   9.850   8.845  0.4692 -0.2880 -0.2132
  880MOL0     O21338   8.542   9.923   8.743  0.9906  1.1651 -0.2311
  880MOL0     C21339   8.526  10.066   8.752 -0.5160 -0.2224  0.7830
  880MOL0     C21340   8.667  10.136   8.742  0.3876  0.0256 -1.2043
  880MOL0     C21341   8.715  10.129   8.597  0.3100 -0.1980 -0.1150
  880MOL0     C21342   8.864  10.186   8.573  1.1574  0.7356  0.2430
  880MOL0     C21343   8.919  10.174   8.436 -0.5411 -0.7682 -0.1527
  880MOL0     C21344   9.066  10.219   8.416 -1.1126 -0.3456 -0.7191
  880MOL0     C21345   9.101  10.359   8.479  0.8718  0.2942 -0.3900
  880MOL0     C21346   9.227  10.421   8.415  0.4930 -0.2420  0.2537
  880MOL0    Cl21347   9.351  10.315   8.478 -0.5777  0.2264 -0.4744
  880MOL0     C21348   8.541   9.882   8.976 -0.1514 -0.7518  0.3426
  880MOL0     C21349   8.510   9.791   9.075 -0.2459 -0.1600 -0.3091
  880MOL0     O21350   8.545   9.508   9.267  0.2264 -0.3645  0.5246
  880MOL0     C21351   8.399   9.520   9.504  0.4470 -0.0672 -0.0042
  880MOL0     C21352   8.327   9.493   9.620  1.0318 -0.8004 -0.2148
  880MOL0     N21353   7.699   9.296  10.094 -0.0088  0.0157 -0.4694
  880MOL0     N21354   7.701   9.347  10.218 -0.3127 -0.0532 -0.5075
  880MOL0     C21355   8.226  10.063   9.662  0.5660  0.2180 -0.1025
  880MOL0     C21356   8.319  10.102   9.563  0.2983 -0.6100 -0.4843
  880MOL0     C21357   8.638  10.132   9.247 -0.5705  0.6721 -0.8169
  880MOL0     C21358   8.624  10.240   9.166  0.1020  0.3120  0.3969
  880MOL0     C21359   8.725  10.287   9.077  0.5166 -0.5572  0.1028
  880MOL0     C21360   8.848  10.218   9.068  0.4875 -0.9181  0.9517
  880MOL0     O21361   8.951  10.267   8.984 -0.2450  0.4763  0.1348
  880MOL0     C21362   9.079  10.193   8.980 -0.6698  0.4220 -0.0786
  880MOL0     C21363   9.186  10.262   8.891  0.0490 -0.1441  0.2747
  880MOL0     C21364   9.273  10.162   8.807  0.1277 -0.2104  0.1574
  880MOL0     C21365   9.348  10.064   8.893  0.1098 -0.4532 -0.2241
  880MOL0     C21366   9.465  10.134   8.943 -0.0753 -0.3296  0.0956
  880MOL0     C21367   9.551  10.198   8.998  0.3664  0.4117 -0.3286
  880MOL0     C21368   8.854  10.106   9.152  0.4269 -0.6189  0.5417
  880MOL0     C21369   8.754  10.069   9.239  0.1388  1.0053 -0.8498
  880MOL0     C21370   8.781   9.959   9.347 -0.1025  0.2469  0.3563
  880MOL0     H21371   8.341   9.809   9.397  1.3526  0.1630 -0.0468
  880MOL0     H21372   8.211   9.731   9.585 -0.3563 -0.1646 -3.3189
  880MOL0     H21373   8.131   9.711   9.791  1.2112 -0.4472  1.6319
  880MOL0     H21374   8.011   9.783   9.904  0.7900 -0.5119  1.1323
  880MOL0     H21375   8.318   9.811   9.929  0.9695 -0.0657  2.7015
  880MOL0     H21376   8.215   9.894  10.035  2.6726 -0.3228 -0.0918
  880MOL0     H21377   8.254   9.594  10.041  0.8684 -0.8666  2.7650
  880MOL0     H21378   8.307   9.726  10.149  2.0479 -1.5789 -0.7816
  880MOL0     H21379   8.058   9.772  10.166  0.6702 -0.4986  0.7977
  880MOL0     H21380   8.027   9.623  10.084 -2.3846  2.3404  1.2378
  880MOL0     H21381   8.169   9.665  10.353 -0.7763  1.1170 -1.0873
  880MOL0     H21382   8.192   9.517  10.265 -2.6014 -2.5228 -2.9766
  880MOL0     H21383   7.943   9.629  10.401 -1.5328 -0.8774 -0.1795
  880MOL0     H21384   7.909   9.551  10.254  0.9713  4.5334 -0.4383
  880MOL0     H21385   8.039   9.448  10.521  2.0907 -0.9859 -0.9527
  880MOL0     H21386   8.080   9.368  10.379  2.3671  1.0037  1.4707
  880MOL0     H21387   7.886   9.262  10.460 -2.3090  0.8066  2.8866
  880MOL0     H21388   7.797   9.412  10.472  3.1591  3.6121  0.9001
  880MOL0     H21389   8.006   9.241  10.191  0.3186  2.9375 -1.8576
  880MOL0     H21390   7.785   9.102   9.916  1.3044 -0.0427 -1.2353
  880MOL0     H21391   7.925   9.072  10.012  3.7748  3.4639  0.7253
  880MOL0     H21392   8.053   9.220   9.903  1.2004 -0.3323 -3.0481
  880MOL0     H21393   7.944   9.159   9.778 -0.0410  0.1229  0.0442
  880MOL0     H21394   7.791   9.369   9.826  0.3586  0.8138 -0.8319
  880MOL0     H21395   7.920   9.423   9.920  0.6336 -0.4509  0.2073
  880MOL0     H21396   7.944   9.364   9.628  2.5068 -0.4974 -2.0028
  880MOL0     H21397   7.955   9.533   9.711  1.9887 -0.2708  1.2494
  880MOL0     H21398   8.020   9.503   9.483 -0.6122 -2.1996  0.7195
  880MOL0     H21399   8.019   9.477   9.265  0.3213  0.4576 -1.7656
  880MOL0     H21400   8.139   9.446   9.145  1.1948 -1.3139 -0.1533
  880MOL0     H21401   8.115   9.607   9.194  0.8734 -0.2624 -0.8949
  880MOL0     H21402   8.376   9.542   8.903  1.1053  0.6856 -1.1476
  880MOL0     H21403   8.437   9.697   8.716  1.1917  0.6429 -0.6178
  880MOL0     H21404   8.459  10.102   8.673 -0.4715 -1.2162  0.2728
  880MOL0     H21405   8.481  10.106   8.843 -1.3249  4.4644 -1.3801
  880MOL0     H21406   8.661  10.243   8.768 -0.2049 -0.2447 -0.1675
  880MOL0     H21407   8.738  10.092   8.813 -1.6945 -1.5486  0.0185
  880MOL0     H21408   8.639  10.178   8.536  0.5572 -1.5745 -1.5829
  880MOL0     H21409   8.722  10.028   8.556 -1.7428  0.6540 -2.8531
  880MOL0     H21410   8.930  10.136   8.644 -1.3075 -5.2207 -1.0700
  880MOL0     H21411   8.866  10.290   8.606  0.1586  0.9276 -0.2621
  880MOL0     H21412   8.929  10.066   8.427 -0.6978 -1.1628  3.1015
  880MOL0     H21413   8.854  10.201   8.353  1.3859 -0.2246 -1.5452
  880MOL0     H21414   9.087  10.219   8.309  1.5523 -0.1770 -0.2577
  880MOL0     H21415   9.130  10.144   8.465 -1.0521 -1.0382 -1.8135
  880MOL0     H21416   9.106  10.356   8.588 -0.3315  0.8232 -0.3067
  880MOL0     H21417   9.011  10.420   8.469  0.1945 -0.8284 -1.4099
  880MOL0     H21418   9.242  10.519   8.462  0.3857 -0.9216  1.7662
  880MOL0     H21419   9.234  10.426   8.306  0.0029 -2.7153  0.0443
  880MOL0     H21420   8.605   9.967   8.996  2.1430 -1.8651 -1.6632
  880MOL0     H21421   8.523   9.824   9.178 -0.5944 -3.4710  0.9151
  880MOL0     H21422   8.506   9.518   9.522  0.3775  0.3646  0.4726
  880MOL0     H21423   8.367   9.472   9.718 -0.2523  0.7625  0.7006
  880MOL0     H21424   8.191  10.144   9.725 -4.0571 -0.0862 -1.9353
  880MOL0     H21425   8.347  10.206   9.552  0.3760 -0.3485  1.6794
  880MOL0     H21426   8.534  10.300   9.172  2.3888  3.9350  1.5119
  880MOL0     H21427   8.717  10.366   9.002  1.2792 -0.0724  0.5086
  880MOL0     H21428   9.108  10.198   9.086  0.0589  0.6358 -0.2813
  880MOL0     H21429   9.067  10.086   8.962 -0.5866  0.2365  0.9075
  880MOL0     H21430   9.242  10.337   8.948 -0.4574  1.3679 -1.1379
  880MOL0     H21431   9.120  10.325   8.831  0.4577  3.7102  3.4803
  880MOL0     H21432   9.203  10.113   8.739  1.2559 -0.3591 -0.9356
  880MOL0     H21433   9.341  10.215   8.738  0.2670 -1.0076 -0.3243
  880MOL0     H21434   9.379   9.976   8.836  0.4276 -0.7640  0.4130
  880MOL0     H21435   9.288  10.042   8.982  0.6645 -1.9729 -0.1893
  880MOL0     H21436   9.622  10.263   9.044  0.4062  0.0843  0.0723
  880MOL0     H21437   8.942  10.043   9.151 -0.6728 -2.3445  2.9432
  880MOL0     H21438   8.889   9.943   9.348  0.1676  1.8737 -0.4247
  880MOL0     H21439   8.735   9.978   9.444 -0.3158  0.3139  0.2439
  880MOL0     H21440   8.733   9.863   9.326  2.5134 -1.7144  2.6463
  881MOL0     O21441   0.806   0.069   3.831  0.2541 -0.3346  0.0986
  881MOL0     C21442   0.705   0.078   3.895  0.0951  0.3173 -0.6321
  881MOL0     O21443   0.643   0.186   3.933  0.0429 -0.1678  1.1435
  881MOL0     C21444   0.637   0.293   3.849 -0.5673  0.4928 -0.2609
  881MOL0     C21445   0.713   0.326   3.734  0.4449  0.4824  0.0384
  881MOL0     C21446   0.681   0.445   3.665  0.8358  0.2462 -0.1728
  881MOL0     C21447   0.602   0.544   3.715  0.6374  0.6095  0.1337
  881MOL0     O21448   0.595   0.660   3.649 -0.6958 -0.1745  1.2536
  881MOL0     C21449   0.558   0.776   3.735 -0.7420  0.0453  0.1774
  881MOL0     C21450   0.598   0.904   3.673  0.4907 -0.3384 -0.0700
  881MOL0     C21451   0.529   1.018   3.747  0.0287  0.2634  0.0806
  881MOL0     C21452   0.557   1.161   3.692 -0.4039  0.6273  0.3440
  881MOL0     C21453   0.542   1.282   3.792 -0.0163  1.0191 -0.1528
  881MOL0     C21454   0.387   1.298   3.818 -1.0786  0.3607 -0.2957
  881MOL0     C21455   0.356   1.430   3.885  0.2922  0.0043  0.0527
  881MOL0     C21456   0.370   1.545   3.793 -0.0007 -0.1324 -1.4999
  881MOL0     N21457   0.357   1.670   3.873 -0.4253 -0.1093  0.1198
  881MOL0     C21458   0.241   1.716   3.934 -0.1556  0.6727  1.0456
  881MOL0     C21459   0.279   1.813   4.028 -0.3103  0.1869  0.5872
  881MOL0     C21460   0.195   1.899   4.120 -0.6837  0.9152 -0.3030
  881MOL0     C21461   0.271   1.925   4.252  0.0060 -0.7021 -0.3578
  881MOL0     C21462   0.182   1.972   4.366 -1.0918 -0.1128  0.0273
  881MOL0     C21463   0.096   2.099   4.322  0.1872  0.4086  0.0359
  881MOL0     O21464   0.174   2.211   4.260  0.5731  0.6156 -0.1276
  881MOL0     C21465   0.086   2.315   4.221 -0.8133 -0.9842 -0.2929
  881MOL0     C21466   0.162   2.428   4.189  0.0865 -0.3164  0.2858
  881MOL0     C21467   0.092   2.552   4.167 -1.6312 -0.4274 -0.6584
  881MOL0     C21468   0.178   2.674   4.147  0.0634 -0.2746  0.0886
  881MOL0     C21469  -0.051   2.560   4.160 -0.0061  0.0685 -0.2706
  881MOL0     C21470  -0.124   2.682   4.123  0.4011  0.7065 -0.3176
  881MOL0     O21471  -0.082   2.814   4.147  0.7711  0.3969 -0.2929
  881MOL0     C21472  -0.168   2.905   4.095  0.9363 -0.4611 -0.1728
  881MOL0     C21473  -0.271   2.947   4.169 -0.1133  0.4507  0.7923
  881MOL0     C21474  -0.363   3.046   4.120 -0.1188  0.1586  0.1767
  881MOL0     C21475  -0.338   3.106   3.997  0.5687  0.7462 -0.4023
  881MOL0     O21476  -0.434   3.199   3.958 -0.1786 -0.3638  0.0076
  881MOL0     C21477  -0.405   3.285   3.850 -0.2658  0.3869 -0.6906
  881MOL0     C21478  -0.519   3.387   3.818 -1.5008  0.4672 -0.7859
  881MOL0     C21479  -0.537   3.487   3.930 -0.9410 -0.1408  1.0435
  881MOL0     C21480  -0.622   3.603   3.896 -0.1997  0.7900 -0.0075
  881MOL0     C21481  -0.575   3.733   3.957  0.5477 -0.0580  0.3694
  881MOL0     C21482  -0.666   3.848   3.923  1.0617  0.2687  0.3144
  881MOL0     C21483  -0.640   3.978   3.999 -0.1447  0.2346  0.1618
  881MOL0     C21484  -0.730   4.098   3.944 -0.7154  0.5522 -0.4505
  881MOL0    Cl21485  -0.669   4.126   3.779  0.4014  0.0521  0.4363
  881MOL0     C21486  -0.228   3.058   3.919  0.9591 -0.4957  0.1008
  881MOL0     C21487  -0.151   2.958   3.968  0.3990 -0.3551  0.9805
  881MOL0     O21488  -0.233   2.652   4.074  0.3173 -0.8926  0.3949
  881MOL0     C21489  -0.130   2.444   4.197 -0.2794 -0.2334 -0.4083
  881MOL0     C21490  -0.059   2.327   4.229  0.5776 -0.4491 -0.4491
  881MOL0     N21491   0.417   1.829   4.013  0.6566  0.2575 -0.7909
  881MOL0     N21492   0.453   1.739   3.935 -0.6039  0.4887  0.9784
  881MOL0     C21493   0.533   0.512   3.833  0.0393  0.2709  0.4009
  881MOL0     C21494   0.554   0.391   3.903 -0.7295 -0.5251  0.4944
  881MOL0     C21495   0.681  -0.049   3.968  0.6116 -0.2346 -0.5238
  881MOL0     C21496   0.744  -0.060   4.087  0.5734  0.4239 -0.8827
  881MOL0     C21497   0.728  -0.176   4.164  0.5947  0.1876 -0.0398
  881MOL0     C21498   0.632  -0.270   4.126 -0.0603  0.3166 -0.7243
  881MOL0     O21499   0.628  -0.385   4.208 -0.1749  0.0063  0.4387
  881MOL0     C21500   0.542  -0.491   4.168 -0.7550  0.6979 -0.5129
  881MOL0     C21501   0.566  -0.628   4.231  0.0941  0.5196  0.5898
  881MOL0     C21502   0.703  -0.692   4.213 -0.9288 -0.3254  0.4864
  881MOL0     C21503   0.805  -0.627   4.306  0.3650 -0.2919  0.9103
  881MOL0     C21504   0.939  -0.690   4.290  0.3033  0.7740 -0.5801
  881MOL0     C21505   1.043  -0.750   4.282  0.1375  0.3748  0.1383
  881MOL0     C21506   0.560  -0.255   4.005 -0.7367 -0.1540 -0.8877
  881MOL0     C21507   0.585  -0.151   3.916 -1.9527 -0.8266 -0.5447
  881MOL0     C21508   0.530  -0.148   3.780  0.4787 -0.0118 -1.5118
  881MOL0     H21509   0.779   0.260   3.679 -0.7728  0.3512 -1.3308
  881MOL0     H21510   0.729   0.456   3.569 -0.1498 -1.7561 -0.9680
  881MOL0     H21511   0.595   0.764   3.837 -1.6690  1.1500  0.6594
  881MOL0     H21512   0.449   0.773   3.748 -0.4977 -2.2940  2.7252
  881MOL0     H21513   0.706   0.918   3.675  0.5827 -0.6996 -1.5097
  881MOL0     H21514   0.566   0.904   3.569  0.1733 -0.6988  0.0259
  881MOL0     H21515   0.422   1.001   3.734  0.0166  1.5146 -1.8018
  881MOL0     H21516   0.549   1.008   3.854 -0.9262  1.3718  0.3832
  881MOL0     H21517   0.666   1.167   3.685 -0.4022  0.5993  0.3475
  881MOL0     H21518   0.504   1.174   3.597  0.9178  1.0327 -0.3582
  881MOL0     H21519   0.582   1.375   3.750 -0.8958  1.6544  0.3917
  881MOL0     H21520   0.596   1.276   3.887 -0.0405  2.2795 -0.0338
  881MOL0     H21521   0.348   1.302   3.716  1.8779 -0.7912 -1.5857
  881MOL0     H21522   0.352   1.212   3.877  0.8725  0.8245  1.6797
  881MOL0     H21523   0.428   1.444   3.966  0.2507 -2.9182  0.6973
  881MOL0     H21524   0.252   1.417   3.914  0.2614 -1.7319 -0.7033
  881MOL0     H21525   0.468   1.543   3.744  2.5562  0.6698  3.0092
  881MOL0     H21526   0.289   1.557   3.721 -3.9204  0.8636  2.6186
  881MOL0     H21527   0.136   1.698   3.914 -0.0658  3.3066 -2.6927
  881MOL0     H21528   0.098   1.852   4.142  1.8991 -3.6282  3.3922
  881MOL0     H21529   0.176   1.995   4.071 -0.7595 -0.1560 -2.4903
  881MOL0     H21530   0.317   1.832   4.286 -0.5927 -1.9729 -2.8289
  881MOL0     H21531   0.357   1.988   4.229 -0.6289  0.6445  0.7769
  881MOL0     H21532   0.134   1.884   4.410  0.0837 -1.3564 -1.0609
  881MOL0     H21533   0.242   2.006   4.450  0.1765 -2.4985  0.1651
  881MOL0     H21534   0.007   2.076   4.263  0.5285 -0.9050  0.0153
  881MOL0     H21535   0.065   2.140   4.419  2.2957 -0.3353  1.0994
  881MOL0     H21536   0.269   2.429   4.212  0.2822  0.7670 -0.6089
  881MOL0     H21537   0.145   2.752   4.216  1.2543  0.8604 -0.5875
  881MOL0     H21538   0.180   2.704   4.042  0.6414  0.9088  0.4148
  881MOL0     H21539   0.279   2.651   4.182  0.1601 -1.1432 -0.7187
  881MOL0     H21540  -0.295   2.896   4.261  4.4567  0.7411  2.3735
  881MOL0     H21541  -0.441   3.098   4.174 -0.6930 -0.9211  0.4017
  881MOL0     H21542  -0.322   3.347   3.884 -1.6301  1.6991  0.4133
  881MOL0     H21543  -0.375   3.220   3.767  0.3679 -0.1779 -0.0243
  881MOL0     H21544  -0.481   3.439   3.729 -1.9998  0.3452 -1.0703
  881MOL0     H21545  -0.617   3.349   3.792 -2.3097  1.4657  0.6468
  881MOL0     H21546  -0.439   3.531   3.948 -0.4543 -0.5401 -0.4677
  881MOL0     H21547  -0.579   3.440   4.020 -0.9315 -0.7030  0.7623
  881MOL0     H21548  -0.720   3.573   3.934  1.3967 -2.7532  1.7565
  881MOL0     H21549  -0.622   3.616   3.788 -0.4372  2.6708  0.1845
  881MOL0     H21550  -0.575   3.736   4.067  1.3684 -0.5079  0.3884
  881MOL0     H21551  -0.474   3.762   3.930  0.6356  0.5573  1.2926
  881MOL0     H21552  -0.770   3.818   3.932  1.2635 -0.7671 -0.5903
  881MOL0     H21553  -0.651   3.874   3.818 -0.6933 -0.2403 -0.0893
  881MOL0     H21554  -0.535   4.007   3.993 -0.6000  2.3766  1.3916
  881MOL0     H21555  -0.669   3.969   4.104 -1.7022 -0.1555 -0.2761
  881MOL0     H21556  -0.719   4.190   4.002  1.8422  0.6380 -0.9269
  881MOL0     H21557  -0.832   4.061   3.933  0.1868 -1.8786 -1.2241
  881MOL0     H21558  -0.212   3.110   3.826  2.6932  0.1442  0.7202
  881MOL0     H21559  -0.079   2.910   3.903 -0.3383 -1.2428  0.7924
  881MOL0     H21560  -0.238   2.453   4.192 -0.1167  1.4231 -2.8679
  881MOL0     H21561  -0.114   2.235   4.248 -0.9179  0.5956  0.5328
  881MOL0     H21562   0.473   0.586   3.886 -1.0308 -0.3934  0.1463
  881MOL0     H21563   0.520   0.392   4.006 -0.6011  1.8118  0.5784
  881MOL0     H21564   0.824   0.012   4.104 -2.5754  3.8255  1.0764
  881MOL0     H21565   0.798  -0.184   4.247 -0.7748 -0.2582  1.1346
  881MOL0     H21566   0.437  -0.466   4.183 -1.5626 -2.1925 -0.7948
  881MOL0     H21567   0.557  -0.515   4.062  1.4777 -1.6904  0.2423
  881MOL0     H21568   0.491  -0.702   4.202 -0.8186  0.7823  2.1664
  881MOL0     H21569   0.556  -0.614   4.339  0.4107  1.2764  0.5327
  881MOL0     H21570   0.703  -0.800   4.234  0.9809 -0.2196  1.2185
  881MOL0     H21571   0.733  -0.689   4.108 -1.2831  1.8072  0.3996
  881MOL0     H21572   0.782  -0.622   4.413 -0.4010  0.0212  0.7373
  881MOL0     H21573   0.809  -0.523   4.272 -0.3934 -0.7102 -0.5718
  881MOL0     H21574   1.127  -0.814   4.262 -0.9241 -1.4959  1.3596
  881MOL0     H21575   0.488  -0.325   3.964 -0.2852 -0.5394 -1.0392
  881MOL0     H21576   0.458  -0.229   3.764 -1.4196  1.2674  0.0871
  881MOL0     H21577   0.480  -0.052   3.766 -0.8791 -0.0594  2.0873
  881MOL0     H21578   0.606  -0.156   3.701  0.8886 -0.2678 -1.0921
  882MOL0     O21579  10.378   0.643  10.116  0.0322 -0.4970  0.7428
  882MOL0     C21580  10.297   0.652  10.036  0.8854  0.1862  0.4010
  882MOL0     O21581  10.167   0.616  10.051  0.1162  0.0693 -0.0754
  882MOL0     C21582  10.136   0.524  10.144 -0.4488  0.4371  0.2312
  882MOL0     C21583  10.213   0.409  10.175  0.2261 -0.0492  0.3717
  882MOL0     C21584  10.173   0.320  10.275 -0.1098 -0.5266 -0.7846
  882MOL0     C21585  10.064   0.356  10.358 -0.3540 -0.0447  0.8356
  882MOL0     O21586  10.021   0.279  10.463  0.4694 -1.2036 -0.2066
  882MOL0     C21587  10.109   0.200  10.544  0.4103  0.2398  0.8066
  882MOL0     C21588  10.047   0.158  10.678  0.7055 -0.2259  0.4148
  882MOL0     C21589   9.956   0.041  10.635  0.6209 -0.1739 -0.5794
  882MOL0     C21590   9.864  -0.012  10.742 -0.3720 -0.6323 -1.1020
  882MOL0     C21591   9.781  -0.133  10.706  0.3285  0.7575  0.2895
  882MOL0     C21592   9.671  -0.099  10.612  0.3186 -0.6006  0.9126
  882MOL0     C21593   9.571  -0.212  10.599 -0.1635  0.3768 -0.1884
  882MOL0     C21594   9.621  -0.336  10.523 -0.0484  0.7809  0.2845
  882MOL0     N21595   9.634  -0.306  10.376 -0.6148  0.9798  0.5738
  882MOL0     C21596   9.566  -0.218  10.297 -0.4378 -0.2768 -0.3407
  882MOL0     C21597   9.638  -0.214  10.182  0.2690  1.2016  1.0351
  882MOL0     C21598   9.620  -0.114  10.066  0.3612  0.1875  0.2046
  882MOL0     C21599   9.484  -0.116  10.003  0.3004  0.5290 -0.1924
  882MOL0     C21600   9.466  -0.248   9.916  0.4510  0.1943  0.4948
  882MOL0     C21601   9.311  -0.275   9.904 -0.9366  0.6325  0.4732
  882MOL0     O21602   9.229  -0.264  10.021  0.3075  0.6792  0.0016
  882MOL0     C21603   9.237  -0.335  10.135  0.3029  0.0679 -0.0479
  882MOL0     C21604   9.179  -0.275  10.255  0.5960 -0.4569  0.9736
  882MOL0     C21605   9.175  -0.350  10.374  0.6668 -0.5372 -0.6909
  882MOL0     C21606   9.103  -0.277  10.484  0.1763  0.3861  0.1575
  882MOL0     C21607   9.246  -0.471  10.385  0.0621  0.0349 -1.1561
  882MOL0     C21608   9.263  -0.545  10.518 -0.2179  0.1775 -0.1242
  882MOL0     O21609   9.183  -0.505  10.624 -0.1855  0.1157  1.3375
  882MOL0     C21610   9.199  -0.532  10.757 -1.0819 -0.4490 -0.3174
  882MOL0     C21611   9.321  -0.592  10.812  0.1249 -0.0180  0.4350
  882MOL0     C21612   9.330  -0.618  10.951  0.4603  0.5730 -1.0289
  882MOL0     C21613   9.216  -0.585  11.031 -0.0354  0.2738 -0.1739
  882MOL0     O21614   9.221  -0.625  11.162 -0.0154 -0.3808  0.2143
  882MOL0     C21615   9.105  -0.620  11.247 -0.2163  0.4134 -0.0085
  882MOL0     C21616   9.129  -0.686  11.387  0.0099 -0.8381 -0.3427
  882MOL0     C21617   9.260  -0.648  11.460  0.1863 -0.2754  0.0247
  882MOL0     C21618   9.285  -0.739  11.579 -0.2043  0.6751  0.5810
  882MOL0     C21619   9.408  -0.682  11.674  0.4307  0.4787 -0.2346
  882MOL0     C21620   9.423  -0.776  11.794 -0.4728 -0.7356 -0.3336
  882MOL0     C21621   9.536  -0.738  11.901  0.0913 -0.6571 -0.0204
  882MOL0     C21622   9.503  -0.787  12.042 -0.1443 -0.3476  1.0569
  882MOL0    Cl21623   9.393  -0.656  12.109  0.1214 -0.0594  0.2998
  882MOL0     C21624   9.105  -0.518  10.978 -0.1445  0.4839 -0.1239
  882MOL0     C21625   9.100  -0.501  10.840  0.4547  0.4895 -0.0043
  882MOL0     O21626   9.331  -0.649  10.522 -0.1559  0.1394  0.6442
  882MOL0     C21627   9.310  -0.516  10.270 -0.4656 -0.6929  0.3050
  882MOL0     C21628   9.305  -0.455  10.147 -0.0610  1.0634  0.4500
  882MOL0     N21629   9.744  -0.298  10.184  0.9620 -0.7530 -0.4566
  882MOL0     N21630   9.748  -0.346  10.301  0.3656 -0.4951 -0.2243
  882MOL0     C21631  10.002   0.473  10.332 -0.7014  0.6801  0.2420
  882MOL0     C21632  10.030   0.553  10.224  0.6257  0.1964 -0.2344
  882MOL0     C21633  10.307   0.735   9.914 -0.4012 -0.9805  0.7960
  882MOL0     C21634  10.195   0.816   9.884  0.3125  0.2932 -0.0254
  882MOL0     C21635  10.196   0.911   9.779  0.0428 -0.7119  0.3250
  882MOL0     C21636  10.315   0.941   9.717 -0.5915  0.0479  1.0543
  882MOL0     O21637  10.306   1.041   9.623  0.5423 -0.5087  0.2283
  882MOL0     C21638  10.403   1.063   9.517  0.2090 -0.1581 -0.3670
  882MOL0     C21639  10.478   1.194   9.540  0.0111  0.1348  0.6664
  882MOL0     C21640  10.600   1.186   9.630  0.4631 -0.1387 -0.5941
  882MOL0     C21641  10.741   1.168   9.550 -0.3042 -0.3875  0.6116
  882MOL0     C21642  10.746   1.040   9.481  0.6578  0.2146 -0.2952
  882MOL0     C21643  10.724   0.930   9.428 -0.7102  0.1774 -0.1862
  882MOL0     C21644  10.437   0.871   9.752  0.6793 -0.8500  0.8727
  882MOL0     C21645  10.429   0.768   9.849 -0.0802 -0.1021  0.7837
  882MOL0     C21646  10.558   0.689   9.886  0.2649 -0.4536 -0.1285
  882MOL0     H21647  10.296   0.372  10.115 -2.2603  0.0538 -3.4723
  882MOL0     H21648  10.229   0.228  10.288 -0.3269 -0.6389 -0.6325
  882MOL0     H21649  10.200   0.253  10.577 -0.4265  0.6061  2.6713
  882MOL0     H21650  10.144   0.117  10.482 -0.6836  0.3692 -0.0199
  882MOL0     H21651  10.127   0.123  10.744  2.5312 -0.7493 -1.9299
  882MOL0     H21652  10.001   0.245  10.728  0.4843 -0.1182  0.0254
  882MOL0     H21653   9.881   0.075  10.562 -2.2454 -0.5355  1.9716
  882MOL0     H21654  10.023  -0.039  10.604  2.4682  0.6549  1.0735
  882MOL0     H21655   9.939  -0.027  10.820  0.6444  1.2784 -1.6446
  882MOL0     H21656   9.814   0.072  10.791  3.7735  1.4552 -0.0029
  882MOL0     H21657   9.757  -0.178  10.803 -0.7675 -1.1120 -0.7981
  882MOL0     H21658   9.851  -0.209  10.669 -3.2806 -2.5443 -0.4673
  882MOL0     H21659   9.619  -0.006  10.636 -0.7765 -1.0853  0.5283
  882MOL0     H21660   9.708  -0.083  10.510  0.9921  2.7522  1.5707
  882MOL0     H21661   9.476  -0.174  10.559 -1.4313  2.2209  4.0242
  882MOL0     H21662   9.545  -0.249  10.699  0.2252  0.4300 -0.0659
  882MOL0     H21663   9.718  -0.374  10.555 -0.4390 -0.5441 -0.0334
  882MOL0     H21664   9.548  -0.417  10.531  3.5588 -2.5978  1.4031
  882MOL0     H21665   9.474  -0.164  10.319 -1.0660 -1.6915  0.5962
  882MOL0     H21666   9.700  -0.124   9.991  1.0332  2.1964  0.5922
  882MOL0     H21667   9.628  -0.011  10.100 -1.3450  0.2845  0.3938
  882MOL0     H21668   9.404  -0.089  10.072 -0.6224  1.3127 -1.5027
  882MOL0     H21669   9.480  -0.034   9.930  1.3497  0.6216 -0.1582
  882MOL0     H21670   9.506  -0.239   9.815 -0.4188  0.6125  0.1725
  882MOL0     H21671   9.519  -0.328   9.968  0.3434  0.4378  0.9972
  882MOL0     H21672   9.279  -0.205   9.825  3.0138 -1.7892 -3.7680
  882MOL0     H21673   9.296  -0.375   9.862 -2.3301 -0.5470  3.5030
  882MOL0     H21674   9.131  -0.178  10.262  0.9829 -0.2026  0.2613
  882MOL0     H21675   9.097  -0.170  10.462 -0.0193  0.2457 -0.4886
  882MOL0     H21676   9.154  -0.278  10.581  1.6543 -0.0605 -0.5919
  882MOL0     H21677   9.001  -0.308  10.507  0.8288 -0.0646  2.7241
  882MOL0     H21678   9.409  -0.626  10.758 -0.6629  1.1296 -1.6796
  882MOL0     H21679   9.410  -0.676  10.996 -0.1576 -1.3023 -2.1999
  882MOL0     H21680   9.068  -0.517  11.251 -2.4337 -0.2509 -1.7934
  882MOL0     H21681   9.033  -0.688  11.201 -0.6618 -0.6542  2.1098
  882MOL0     H21682   9.044  -0.661  11.450 -0.4975  3.8157 -2.4387
  882MOL0     H21683   9.137  -0.795  11.384 -1.1947 -0.9328 -0.4657
  882MOL0     H21684   9.248  -0.543  11.490 -1.1459 -1.0034  2.2397
  882MOL0     H21685   9.344  -0.670  11.394 -0.4804 -1.2062 -0.5297
  882MOL0     H21686   9.311  -0.840  11.547 -2.7834 -1.0782  3.4333
  882MOL0     H21687   9.195  -0.751  11.641 -0.1569  1.5216  0.8204
  882MOL0     H21688   9.502  -0.666  11.620  1.2242  3.5345  1.7860
  882MOL0     H21689   9.378  -0.582  11.707 -0.5693  0.3143 -0.5947
  882MOL0     H21690   9.447  -0.872  11.747 -0.7710 -0.0007 -2.0956
  882MOL0     H21691   9.329  -0.796  11.846 -0.5643  1.6645  0.5268
  882MOL0     H21692   9.552  -0.631  11.893  0.1098 -0.6533  0.0700
  882MOL0     H21693   9.629  -0.788  11.871  1.6402  2.0211  0.0823
  882MOL0     H21694   9.593  -0.792  12.103  1.9860  2.6019 -1.5402
  882MOL0     H21695   9.446  -0.880  12.040 -0.9819  0.1666  0.2557
  882MOL0     H21696   9.024  -0.487  11.043  0.2500  0.5019  0.3662
  882MOL0     H21697   9.005  -0.462  10.804 -0.7834 -1.4269  1.0368
  882MOL0     H21698   9.374  -0.601  10.294  0.6673  0.2245  0.6248
  882MOL0     H21699   9.360  -0.498  10.063 -1.1605 -1.0740  0.7645
  882MOL0     H21700   9.923   0.488  10.405 -0.9818  0.4782 -0.0225
  882MOL0     H21701   9.970   0.641  10.204 -1.5434 -1.4174 -1.3424
  882MOL0     H21702  10.103   0.796   9.937  1.4475 -2.3453  1.1637
  882MOL0     H21703  10.098   0.955   9.762 -0.1274 -0.6825  1.3428
  882MOL0     H21704  10.474   0.982   9.502  0.2676 -1.0994  3.7389
  882MOL0     H21705  10.341   1.073   9.427 -0.5371 -2.2660 -0.1424
  882MOL0     H21706  10.406   1.266   9.580  1.5096  0.8946  2.1255
  882MOL0     H21707  10.509   1.235   9.444  0.0567  1.2987  1.1676
  882MOL0     H21708  10.608   1.283   9.680  0.3637 -0.1236 -0.6068
  882MOL0     H21709  10.604   1.106   9.704 -0.3220  1.1837  0.9451
  882MOL0     H21710  10.831   1.184   9.611  2.3574  2.6119 -3.5857
  882MOL0     H21711  10.754   1.254   9.485  0.8596  0.0895  1.4332
  882MOL0     H21712  10.722   0.831   9.389  1.3156  0.3669 -0.8864
  882MOL0     H21713  10.535   0.884   9.707 -0.1024  2.6430 -0.1125
  882MOL0     H21714  10.637   0.706   9.811 -1.2974 -0.4172 -1.8414
  882MOL0     H21715  10.599   0.725   9.981  2.7718  3.5753 -2.4300
  882MOL0     H21716  10.542   0.582   9.870 -2.9711 -0.3800  1.7180
  883MOL0     O21717   0.037   1.159   5.993 -0.8162 -0.6598 -0.2219
  883MOL0     C21718  -0.084   1.164   6.009 -0.4541 -0.1877  0.6650
  883MOL0     O21719  -0.132   1.159   6.140  0.1275  0.2986  1.2023
  883MOL0     C21720  -0.059   1.117   6.249 -1.1556  0.7194 -0.0496
  883MOL0     C21721   0.078   1.141   6.279  1.2285 -0.4112 -0.4709
  883MOL0     C21722   0.125   1.104   6.407 -0.4487  0.3788 -0.8917
  883MOL0     C21723   0.037   1.042   6.504  0.3796  0.1673 -0.0068
  883MOL0     O21724   0.096   0.999   6.620  0.7769 -0.5650 -0.6150
  883MOL0     C21725   0.036   1.060   6.736  1.0934 -0.7939 -1.2450
  883MOL0     C21726   0.095   1.198   6.775 -0.0031  0.2427  0.2874
  883MOL0     C21727   0.251   1.204   6.779 -0.3661 -0.9233  0.6602
  883MOL0     C21728   0.314   1.083   6.835  0.0421  0.1100  0.2682
  883MOL0     C21729   0.464   1.112   6.838  0.6366 -0.0180  0.0524
  883MOL0     C21730   0.549   1.021   6.930  0.3820  0.8156  0.4845
  883MOL0     C21731   0.693   1.081   6.933 -0.1847  0.4473 -0.3035
  883MOL0     C21732   0.795   0.996   7.011 -0.0194 -0.1715  0.4143
  883MOL0     N21733   0.769   1.018   7.150 -1.2217  0.5594 -0.3418
  883MOL0     C21734   0.677   0.935   7.225 -0.5437  0.3368 -0.3001
  883MOL0     C21735   0.674   1.002   7.339  0.6829 -0.1844  0.8970
  883MOL0     C21736   0.587   0.964   7.455  0.1760 -0.4512  0.1996
  883MOL0     C21737   0.443   1.024   7.452  0.5033  0.2993 -0.6850
  883MOL0     C21738   0.364   0.920   7.367 -0.3196 -0.2123 -0.9150
  883MOL0     C21739   0.222   0.975   7.328 -0.7233 -0.0759 -0.4652
  883MOL0     O21740   0.162   0.870   7.256  0.2920  0.1779 -0.2766
  883MOL0     C21741   0.052   0.894   7.176 -0.4097 -0.3554 -0.0798
  883MOL0     C21742   0.001   1.023   7.142 -0.2249 -1.4160  1.0644
  883MOL0     C21743  -0.122   1.049   7.086  0.2923 -0.9635  0.2959
  883MOL0     C21744  -0.167   1.195   7.078  0.7637 -0.9747  1.2242
  883MOL0     C21745  -0.201   0.935   7.047 -0.5411  0.3963  0.2437
  883MOL0     C21746  -0.323   0.941   6.964 -0.4328 -0.6319 -0.4034
  883MOL0     O21747  -0.333   1.052   6.880  0.1500  0.3123 -0.4720
  883MOL0     C21748  -0.442   1.074   6.813  0.3926 -0.1608  0.2314
  883MOL0     C21749  -0.549   1.148   6.865  0.4833 -0.9712 -0.0661
  883MOL0     C21750  -0.660   1.193   6.779  0.0718 -0.9604 -0.4730
  883MOL0     C21751  -0.670   1.153   6.649 -0.1775  0.3052 -0.0373
  883MOL0     O21752  -0.772   1.183   6.561 -0.5521 -0.0826 -0.6861
  883MOL0     C21753  -0.829   1.315   6.565 -0.5534  0.7567  0.1952
  883MOL0     C21754  -0.827   1.359   6.423 -0.2975 -0.2310 -0.2227
  883MOL0     C21755  -0.908   1.269   6.333  0.4097  0.4863  0.3785
  883MOL0     C21756  -0.929   1.342   6.191 -0.2822 -0.1293  0.3326
  883MOL0     C21757  -1.074   1.327   6.145  0.1574 -0.7600 -0.4737
  883MOL0     C21758  -1.111   1.407   6.016  0.3378 -0.2619 -0.4534
  883MOL0     C21759  -1.026   1.353   5.900 -0.3272  0.5120 -0.2471
  883MOL0     C21760  -1.044   1.201   5.863  0.6006 -0.1208  0.6874
  883MOL0    Cl21761  -1.049   1.183   5.687  0.4073 -0.2315 -0.0388
  883MOL0     C21762  -0.569   1.057   6.609 -1.0719 -0.0796 -0.5758
  883MOL0     C21763  -0.448   1.040   6.684  0.2985 -0.0694 -0.3047
  883MOL0     O21764  -0.408   0.854   6.984  0.5135 -0.3342 -0.1984
  883MOL0     C21765  -0.142   0.816   7.068  0.1571  0.6525 -0.8079
  883MOL0     C21766  -0.018   0.790   7.131  0.0147 -0.2507  0.0892
  883MOL0     N21767   0.774   1.093   7.349  0.1804  0.6586  0.6568
  883MOL0     N21768   0.833   1.105   7.234 -0.2575  0.0672  0.5603
  883MOL0     C21769  -0.092   1.016   6.469  0.7665 -0.2562  0.3127
  883MOL0     C21770  -0.137   1.054   6.342  0.0903  0.5177  0.5967
  883MOL0     C21771  -0.176   1.188   5.893  0.4851  0.1220  0.3966
  883MOL0     C21772  -0.316   1.178   5.912 -0.4291 -0.2331  0.1762
  883MOL0     C21773  -0.402   1.192   5.799 -0.7684  0.1236 -0.9477
  883MOL0     C21774  -0.355   1.225   5.672  0.6349 -0.8302 -1.0294
  883MOL0     O21775  -0.448   1.247   5.573 -0.1352  0.6080 -0.6891
  883MOL0     C21776  -0.409   1.283   5.442  0.0431  0.7750  0.8969
  883MOL0     C21777  -0.355   1.157   5.378 -0.7596 -0.3197 -0.5332
  883MOL0     C21778  -0.339   1.156   5.224 -0.0429 -0.2016  0.1232
  883MOL0     C21779  -0.246   1.275   5.178  0.2710  0.5533 -0.3891
  883MOL0     C21780  -0.108   1.242   5.224  0.3988 -0.3756  0.6206
  883MOL0     C21781   0.001   1.217   5.253 -0.8969  0.9513 -0.6860
  883MOL0     C21782  -0.214   1.247   5.657 -0.6197  0.3071 -0.0468
  883MOL0     C21783  -0.126   1.227   5.763  0.5519  0.4896  0.4708
  883MOL0     C21784   0.011   1.259   5.735 -0.5257 -0.4513 -0.7098
  883MOL0     H21785   0.145   1.185   6.206  1.5766  1.0206  0.6588
  883MOL0     H21786   0.226   1.126   6.438 -0.1976 -2.0345  0.1735
  883MOL0     H21787   0.055   0.994   6.821  0.5996 -0.2441 -0.6954
  883MOL0     H21788  -0.072   1.074   6.729  0.4808 -1.2650  3.5849
  883MOL0     H21789   0.075   1.267   6.692  2.1463  0.7914  0.1590
  883MOL0     H21790   0.043   1.236   6.863 -0.4438 -2.4862  1.2853
  883MOL0     H21791   0.286   1.218   6.677 -1.5049  3.8563  0.6718
  883MOL0     H21792   0.277   1.300   6.825 -1.1434 -1.0432  1.3819
  883MOL0     H21793   0.279   1.072   6.938  1.4053  0.6573  0.8120
  883MOL0     H21794   0.299   0.995   6.772 -0.2315  0.8696 -0.7642
  883MOL0     H21795   0.481   1.216   6.867 -3.2345  0.1433  2.3329
  883MOL0     H21796   0.488   1.098   6.732 -3.5052 -2.5007 -0.7759
  883MOL0     H21797   0.511   1.020   7.033 -1.5584 -1.8238 -0.1386
  883MOL0     H21798   0.542   0.922   6.885  4.3542 -0.7693  2.8061
  883MOL0     H21799   0.681   1.179   6.980 -0.3928  1.4974 -2.4492
  883MOL0     H21800   0.724   1.104   6.831  1.5085  1.5532  0.4124
  883MOL0     H21801   0.784   0.892   6.978  3.7237  0.0127 -2.0278
  883MOL0     H21802   0.899   1.020   6.988  0.8427 -2.1753  1.9606
  883MOL0     H21803   0.619   0.848   7.197  2.0083 -0.4006 -4.2215
  883MOL0     H21804   0.631   1.016   7.541 -1.7161  1.5988  0.0067
  883MOL0     H21805   0.602   0.857   7.473  3.1738 -0.4709 -1.7405
  883MOL0     H21806   0.402   1.056   7.549 -5.1650 -1.2401 -2.1776
  883MOL0     H21807   0.452   1.122   7.404  5.0133  1.2332  1.4803
  883MOL0     H21808   0.425   0.890   7.281  2.0850  0.0063  0.6553
  883MOL0     H21809   0.340   0.831   7.426 -2.3979 -0.0504 -1.4031
  883MOL0     H21810   0.158   0.987   7.416  0.3875 -1.6307  0.6081
  883MOL0     H21811   0.231   1.067   7.269  0.6151  0.5978  0.7231
  883MOL0     H21812   0.045   1.107   7.195  1.2660 -2.6788  1.9209
  883MOL0     H21813  -0.124   1.254   6.996 -0.4528 -1.6992  0.0047
  883MOL0     H21814  -0.145   1.243   7.173 -2.1379 -1.9527  2.4915
  883MOL0     H21815  -0.275   1.191   7.065  0.9603 -1.8395 -0.4645
  883MOL0     H21816  -0.544   1.172   6.971 -1.0489 -0.7442 -0.0215
  883MOL0     H21817  -0.731   1.264   6.821  1.7212  2.2186 -2.5810
  883MOL0     H21818  -0.931   1.327   6.604 -1.5206 -3.2721 -0.7097
  883MOL0     H21819  -0.759   1.381   6.617  2.0262  0.3752 -2.5572
  883MOL0     H21820  -0.881   1.454   6.424 -1.6679 -0.9707 -0.8725
  883MOL0     H21821  -0.725   1.362   6.385  0.2172 -0.5642  1.0531
  883MOL0     H21822  -1.006   1.257   6.381 -1.5901 -1.2144 -3.6511
  883MOL0     H21823  -0.863   1.173   6.307 -0.2622 -0.3818  2.2466
  883MOL0     H21824  -0.858   1.299   6.120  1.9184 -0.9474  2.9095
  883MOL0     H21825  -0.904   1.448   6.201 -0.7964  0.4359 -2.9637
  883MOL0     H21826  -1.100   1.222   6.131 -2.6000  0.0787 -2.4543
  883MOL0     H21827  -1.139   1.358   6.228  0.5472 -3.4590  0.9412
  883MOL0     H21828  -1.111   1.515   6.032  1.9588 -0.1014 -1.2755
  883MOL0     H21829  -1.216   1.379   6.000 -0.2652  0.8642  1.2830
  883MOL0     H21830  -0.923   1.387   5.911 -1.2559  3.0642  1.4305
  883MOL0     H21831  -1.066   1.416   5.819 -2.6553  2.5513  2.2932
  883MOL0     H21832  -1.136   1.160   5.905  0.9424 -1.1753  0.4205
  883MOL0     H21833  -0.963   1.142   5.905 -0.4165 -0.6931  1.9339
  883MOL0     H21834  -0.583   1.025   6.507  2.9104  1.9939 -1.9892
  883MOL0     H21835  -0.368   0.969   6.666 -1.5372 -1.8483 -2.0001
  883MOL0     H21836  -0.191   0.730   7.022  1.5528 -1.7544  1.8599
  883MOL0     H21837   0.013   0.687   7.138  0.2693 -0.3889 -2.3424
  883MOL0     H21838  -0.168   0.967   6.529  0.5056 -2.6844 -1.8191
  883MOL0     H21839  -0.240   1.045   6.309 -0.5933 -0.1911  2.7606
  883MOL0     H21840  -0.355   1.173   6.013 -0.4932  2.3378  0.3431
  883MOL0     H21841  -0.509   1.183   5.820 -0.7981  1.4749 -0.4026
  883MOL0     H21842  -0.495   1.321   5.386 -0.2251  1.6270  1.8577
  883MOL0     H21843  -0.344   1.372   5.440  0.2119  0.6846 -2.0511
  883MOL0     H21844  -0.422   1.074   5.403 -1.6045 -0.4849 -3.0470
  883MOL0     H21845  -0.260   1.127   5.422 -0.1361  1.0271 -0.9133
  883MOL0     H21846  -0.299   1.065   5.177  1.8455  0.9706 -0.6424
  883MOL0     H21847  -0.444   1.161   5.191 -0.7160  5.2434  2.1072
  883MOL0     H21848  -0.267   1.372   5.226  0.2839 -0.5107  1.8918
  883MOL0     H21849  -0.246   1.288   5.070 -1.2894  2.5783 -0.2083
  883MOL0     H21850   0.106   1.195   5.256 -0.8962  0.9866 -0.4210
  883MOL0     H21851  -0.180   1.281   5.560  1.4982 -3.3596 -0.7679
  883MOL0     H21852   0.044   1.321   5.820 -2.0650 -1.6148  0.8117
  883MOL0     H21853   0.061   1.162   5.730 -0.2395 -0.2883 -1.0651
  883MOL0     H21854   0.028   1.309   5.639  0.4404  3.4536  1.2698
  884MOL0     O21855   5.086  11.467   0.787 -0.0069 -0.3306 -0.1306
  884MOL0     C21856   5.179  11.416   0.720  0.8930  0.7215 -0.3543
  884MOL0     O21857   5.259  11.480   0.635 -0.0424  0.3032 -0.4361
  884MOL0     C21858   5.260  11.624   0.638 -0.6549  0.1149  0.7752
  884MOL0     C21859   5.306  11.684   0.521 -0.0794 -0.3689  0.5027
  884MOL0     C21860   5.319  11.825   0.522 -0.0127  0.2846  0.1390
  884MOL0     C21861   5.287  11.905   0.632 -1.2247 -0.7809  0.8631
  884MOL0     O21862   5.298  12.043   0.602 -0.8457 -0.7827 -0.8426
  884MOL0     C21863   5.226  12.146   0.680  0.6237  0.6458 -0.5341
  884MOL0     C21864   5.222  12.280   0.602 -0.0307 -0.4367 -0.1205
  884MOL0     C21865   5.364  12.319   0.552 -0.0238 -0.3587  0.5167
  884MOL0     C21866   5.442  12.391   0.664  0.1779  0.5540 -0.7387
  884MOL0     C21867   5.583  12.421   0.606 -0.2978  0.0265  0.8880
  884MOL0     C21868   5.670  12.483   0.713 -0.1212 -0.6309  0.1805
  884MOL0     C21869   5.617  12.621   0.760  0.3130 -0.2056 -0.4024
  884MOL0     C21870   5.705  12.657   0.882 -0.0571 -1.0371 -0.6144
  884MOL0     N21871   5.705  12.805   0.903  0.2272 -0.2570  0.4089
  884MOL0     C21872   5.819  12.855   0.955  0.7904  1.1649 -0.5193
  884MOL0     C21873   5.804  12.989   0.948  0.4241 -0.0601 -0.5055
  884MOL0     C21874   5.904  13.083   1.003  0.1721  0.1590 -0.1085
  884MOL0     C21875   5.923  13.063   1.159  0.4812 -0.0770  1.0220
  884MOL0     C21876   5.802  13.110   1.234  0.0413 -0.8911 -0.2916
  884MOL0     C21877   5.822  13.095   1.383 -0.1132  0.3352 -0.2681
  884MOL0     O21878   5.692  13.114   1.435  0.4039  0.2674 -0.3406
  884MOL0     C21879   5.686  13.064   1.568  0.6632 -0.0944 -0.2881
  884MOL0     C21880   5.598  12.952   1.587  0.5380  0.3311  0.5031
  884MOL0     C21881   5.572  12.903   1.720 -0.4111  0.7735 -0.1383
  884MOL0     C21882   5.472  12.783   1.737  0.5027  0.1630  0.2717
  884MOL0     C21883   5.649  12.957   1.833 -0.4659 -0.4865  0.0337
  884MOL0     C21884   5.636  12.920   1.974  0.1615  0.2903 -0.7639
  884MOL0     O21885   5.575  12.801   1.996 -0.3538 -0.5774 -0.3219
  884MOL0     C21886   5.589  12.741   2.121  0.0857  0.6530 -0.1025
  884MOL0     C21887   5.677  12.627   2.138 -0.1189  0.8681  0.3726
  884MOL0     C21888   5.690  12.564   2.258 -0.3495 -0.1904  0.6716
  884MOL0     C21889   5.629  12.607   2.377 -0.2310 -0.5721  0.9957
  884MOL0     O21890   5.634  12.535   2.496  0.3391  0.5609 -0.3202
  884MOL0     C21891   5.746  12.444   2.517  0.4921  0.1695  0.3314
  884MOL0     C21892   5.737  12.408   2.663  0.4618 -0.4855  0.6130
  884MOL0     C21893   5.835  12.297   2.705  0.0419 -0.0587  1.2064
  884MOL0     C21894   5.965  12.360   2.765  0.0909 -0.2401 -0.0422
  884MOL0     C21895   6.060  12.252   2.811 -1.0741 -0.4221 -0.8448
  884MOL0     C21896   6.192  12.314   2.849  0.5093  0.0219  0.1224
  884MOL0     C21897   6.272  12.214   2.928  0.0980 -0.3681 -0.3499
  884MOL0     C21898   6.417  12.254   2.958 -0.0198 -0.3322 -0.2122
  884MOL0    Cl21899   6.508  12.109   2.979 -0.3052  0.5650  0.1826
  884MOL0     C21900   5.551  12.728   2.363  0.5886  0.7896 -0.0622
  884MOL0     C21901   5.525  12.789   2.241  0.4960 -0.7037 -0.4031
  884MOL0     O21902   5.680  12.991   2.065  0.2441 -0.1443  0.0653
  884MOL0     C21903   5.747  13.055   1.810  0.2658  0.1000  0.8304
  884MOL0     C21904   5.760  13.116   1.683 -0.5079 -0.6545 -0.8904
  884MOL0     N21905   5.675  13.018   0.903 -0.4224 -0.3693 -0.0488
  884MOL0     N21906   5.612  12.904   0.874 -0.4181 -0.7184  0.0261
  884MOL0     C21907   5.253  11.838   0.749 -0.4600 -1.2859 -0.7884
  884MOL0     C21908   5.246  11.704   0.753 -0.7660  1.0722  0.5307
  884MOL0     C21909   5.185  11.275   0.751 -0.7499  0.8091 -0.5641
  884MOL0     C21910   5.127  11.219   0.872  0.5374 -0.1765  0.0174
  884MOL0     C21911   5.143  11.085   0.907 -0.4090 -0.5055  0.0655
  884MOL0     C21912   5.213  11.000   0.819  0.1986  0.3919 -0.9216
  884MOL0     O21913   5.226  10.863   0.857  0.3206  0.1798 -0.7671
  884MOL0     C21914   5.314  10.775   0.789  0.4669  0.7579  0.0061
  884MOL0     C21915   5.309  10.635   0.866  0.1453 -0.3073  1.1041
  884MOL0     C21916   5.166  10.568   0.842 -0.2600 -0.3663  0.3951
  884MOL0     C21917   5.149  10.516   0.695 -0.3120  0.0892  1.1045
  884MOL0     C21918   5.035  10.426   0.676  0.5344  0.8011  0.7842
  884MOL0     C21919   4.924  10.368   0.684 -0.2979  0.7897  0.0801
  884MOL0     C21920   5.267  11.048   0.700 -0.5367 -0.2225  0.2623
  884MOL0     C21921   5.251  11.187   0.661 -0.2086  0.1786 -0.3360
  884MOL0     C21922   5.317  11.221   0.535  0.2052  0.1211 -0.2103
  884MOL0     H21923   5.331  11.629   0.431 -0.3746  2.0916 -1.1832
  884MOL0     H21924   5.341  11.880   0.431  1.3856  0.2699  0.4493
  884MOL0     H21925   5.274  12.144   0.778 -1.4606  2.6747  0.6429
  884MOL0     H21926   5.123  12.111   0.695  0.0099  1.1839 -3.0105
  884MOL0     H21927   5.163  12.271   0.510  0.0681  1.4855 -0.4153
  884MOL0     H21928   5.166  12.352   0.662 -1.1342 -1.6740  0.3735
  884MOL0     H21929   5.418  12.229   0.522  0.4004  0.1073 -0.1418
  884MOL0     H21930   5.361  12.384   0.464  0.2700 -2.4325 -1.0892
  884MOL0     H21931   5.381  12.478   0.689 -2.1416 -1.4919  1.3472
  884MOL0     H21932   5.435  12.325   0.751  1.5530  0.9576 -0.3119
  884MOL0     H21933   5.578  12.476   0.512  1.8717  0.5617  1.0520
  884MOL0     H21934   5.630  12.328   0.574  1.3595  0.9285  0.5743
  884MOL0     H21935   5.691  12.413   0.794  1.3046  0.9083  1.2015
  884MOL0     H21936   5.767  12.507   0.667 -1.2338 -0.3509 -2.1755
  884MOL0     H21937   5.512  12.622   0.791 -0.5000  2.2534 -2.8546
  884MOL0     H21938   5.631  12.696   0.682 -2.2333 -0.5833 -1.3084
  884MOL0     H21939   5.659  12.616   0.972 -0.3013  5.0070  2.4750
  884MOL0     H21940   5.806  12.617   0.887  0.3386  0.0919  3.3406
  884MOL0     H21941   5.900  12.793   0.994  1.8847  0.6765 -3.3099
  884MOL0     H21942   5.873  13.183   0.973  0.4072  0.8639  1.8781
  884MOL0     H21943   6.004  13.076   0.958 -0.5062 -3.2960 -1.4078
  884MOL0     H21944   5.931  12.955   1.176 -2.6490 -0.2496  2.1672
  884MOL0     H21945   6.018  13.105   1.191  2.3594 -1.3763 -2.3942
  884MOL0     H21946   5.791  13.216   1.211  1.5195 -0.3575  1.2419
  884MOL0     H21947   5.721  13.051   1.190  0.8005 -1.3288 -1.1369
  884MOL0     H21948   5.876  13.001   1.399  1.1568  1.2058  0.8087
  884MOL0     H21949   5.889  13.169   1.427  1.2261 -0.2242 -1.2901
  884MOL0     H21950   5.542  12.915   1.502 -0.8481  1.2200  0.9928
  884MOL0     H21951   5.389  12.805   1.804 -0.2254 -1.6952  0.0509
  884MOL0     H21952   5.524  12.694   1.774 -1.2774  0.2549  3.2628
  884MOL0     H21953   5.422  12.750   1.645  0.7012 -1.2031  0.6301
  884MOL0     H21954   5.714  12.578   2.049 -0.7726 -0.7277  0.9444
  884MOL0     H21955   5.733  12.465   2.255  1.3927  0.5171 -2.4650
  884MOL0     H21956   5.729  12.356   2.454  0.6282  0.2344  0.2017
  884MOL0     H21957   5.838  12.499   2.495  1.2884 -1.1689  0.1887
  884MOL0     H21958   5.764  12.501   2.713  2.9348 -0.7054 -0.1709
  884MOL0     H21959   5.632  12.392   2.687 -0.8762  1.4621 -3.1279
  884MOL0     H21960   5.863  12.245   2.613  1.6689 -0.0879  1.6955
  884MOL0     H21961   5.782  12.229   2.772 -0.5677  0.1661  0.9643
  884MOL0     H21962   5.930  12.417   2.851 -2.1948 -3.1259  1.1040
  884MOL0     H21963   6.018  12.438   2.709 -4.5387  2.6360 -0.8976
  884MOL0     H21964   6.010  12.211   2.899  0.2990  3.7159  2.1950
  884MOL0     H21965   6.078  12.179   2.732  1.0158 -1.7307  0.6894
  884MOL0     H21966   6.162  12.399   2.911 -1.5062  0.2625 -1.1159
  884MOL0     H21967   6.247  12.351   2.762 -1.9959 -1.7552 -2.3538
  884MOL0     H21968   6.257  12.131   2.858 -2.3637  0.9578 -1.5413
  884MOL0     H21969   6.224  12.195   3.024 -3.6629  3.9416 -1.0552
  884MOL0     H21970   6.426  12.323   3.042  0.2499 -1.2638  0.5398
  884MOL0     H21971   6.458  12.302   2.869  0.9238 -1.7724 -0.5860
  884MOL0     H21972   5.501  12.748   2.457 -0.8222 -1.7831 -0.1833
  884MOL0     H21973   5.474  12.885   2.237  2.2406  0.2308 -3.1805
  884MOL0     H21974   5.796  13.110   1.888 -2.8927  0.3451  2.8326
  884MOL0     H21975   5.830  13.198   1.679 -2.0633  0.8780  1.0108
  884MOL0     H21976   5.228  11.894   0.838 -1.2184 -2.9980  0.1176
  884MOL0     H21977   5.209  11.656   0.843  0.6252  1.8642  1.5557
  884MOL0     H21978   5.094  11.290   0.947 -0.0045 -3.0722  2.7413
  884MOL0     H21979   5.124  11.041   1.005  3.1414 -4.9938 -0.9170
  884MOL0     H21980   5.270  10.745   0.693 -2.3307 -1.2875  1.7752
  884MOL0     H21981   5.417  10.801   0.762  1.6671 -2.9223  0.4764
  884MOL0     H21982   5.308  10.649   0.975 -2.3109 -2.9225  1.5378
  884MOL0     H21983   5.386  10.567   0.830  2.1242  2.4804 -0.2863
  884MOL0     H21984   5.173  10.476   0.901  1.3069  0.0866  0.9475
  884MOL0     H21985   5.076  10.621   0.874 -0.6317 -2.1770  2.5631
  884MOL0     H21986   5.236  10.456   0.665 -1.4400 -0.3766 -1.4048
  884MOL0     H21987   5.146  10.591   0.616 -0.1552 -2.6416 -1.6990
  884MOL0     H21988   4.830  10.319   0.702  0.1562 -0.2448 -0.3129
  884MOL0     H21989   5.313  10.978   0.632  3.1365  2.6579 -0.5262
  884MOL0     H21990   5.368  11.139   0.484  2.4605 -1.1256  3.6676
  884MOL0     H21991   5.244  11.273   0.471  1.3929  1.2937 -0.6601
  884MOL0     H21992   5.405  11.282   0.554  0.9198 -1.2019  0.8415
  885MOL0     O21993  10.815   8.555   0.277 -0.7290  0.0157 -0.1679
  885MOL0     C21994  10.750   8.529   0.378  0.0109  0.5866 -0.4748
  885MOL0     O21995  10.658   8.606   0.435 -0.4358 -0.7735  0.2577
  885MOL0     C21996  10.704   8.737   0.478  0.0965  0.7093  1.5080
  885MOL0     C21997  10.836   8.780   0.481 -0.6782  0.1056  0.9835
  885MOL0     C21998  10.869   8.903   0.538  0.2257  0.5605 -0.2682
  885MOL0     C21999  10.772   8.995   0.579 -0.9151 -0.1616  0.8571
  885MOL0     O22000  10.811   9.118   0.632 -0.5040 -0.4799  0.1695
  885MOL0     C22001  10.838   9.109   0.775  0.2331 -0.5425 -0.4648
  885MOL0     C22002  10.934   9.212   0.829 -0.0763  0.9581  0.3572
  885MOL0     C22003  10.985   9.173   0.973  0.3249  0.0513 -0.2176
  885MOL0     C22004  11.087   9.061   0.957 -0.9033 -0.1252  0.9387
  885MOL0     C22005  11.192   9.059   1.065  0.0964  0.1913 -0.7850
  885MOL0     C22006  11.314   8.981   1.046 -0.8021 -0.4589  0.0506
  885MOL0     C22007  11.426   9.013   1.147  0.1124  0.2189  0.2477
  885MOL0     C22008  11.391   8.980   1.299  1.4570 -0.1051 -0.9327
  885MOL0     N22009  11.363   8.835   1.320 -0.5433 -0.5000  0.1671
  885MOL0     C22010  11.400   8.723   1.238  0.8961 -0.2923 -0.2722
  885MOL0     C22011  11.381   8.619   1.317  0.5849 -0.5452  0.5359
  885MOL0     C22012  11.422   8.478   1.268 -0.1442  0.0282 -0.6923
  885MOL0     C22013  11.336   8.428   1.149 -0.2067  0.0923 -0.3766
  885MOL0     C22014  11.367   8.284   1.103 -0.3376  0.0403  0.5772
  885MOL0     C22015  11.281   8.250   0.977  0.4548  0.7956 -0.4229
  885MOL0     O22016  11.307   8.111   0.951 -0.3885  0.2763  0.1038
  885MOL0     C22017  11.290   8.067   0.825  0.0430 -0.7705  0.4306
  885MOL0     C22018  11.352   8.113   0.713 -0.8509  0.8803  0.5875
  885MOL0     C22019  11.319   8.074   0.572 -0.5341 -0.3783 -0.2627
  885MOL0     C22020  11.387   8.144   0.462 -0.2687  0.1368 -0.0679
  885MOL0     C22021  11.223   7.969   0.554 -0.1286 -1.0119 -0.0549
  885MOL0     C22022  11.201   7.903   0.420 -0.2229  0.5522  0.2425
  885MOL0     O22023  11.224   7.986   0.316  0.8316  0.0654 -0.4157
  885MOL0     C22024  11.193   7.947   0.188  0.2736 -0.3904 -0.5844
  885MOL0     C22025  11.289   7.931   0.096  0.2570  0.3253  0.6450
  885MOL0     C22026  11.254   7.906  -0.040 -0.1961  0.3212  0.9742
  885MOL0     C22027  11.120   7.901  -0.080  0.1089  0.4248  0.4346
  885MOL0     O22028  11.099   7.892  -0.216  1.0504 -0.5121 -0.0638
  885MOL0     C22029  10.988   7.809  -0.254 -0.2156 -0.1851  0.5231
  885MOL0     C22030  10.968   7.798  -0.400 -0.5056  1.0742 -0.0636
  885MOL0     C22031  10.939   7.647  -0.450 -0.2219 -0.1374 -0.4727
  885MOL0     C22032  10.935   7.636  -0.596  0.3500  0.6232 -0.1738
  885MOL0     C22033  10.958   7.493  -0.644  0.6431  0.7275 -0.3152
  885MOL0     C22034  10.994   7.499  -0.787  0.3595 -0.2268  0.3507
  885MOL0     C22035  10.880   7.555  -0.882 -1.1573  0.0702 -0.3566
  885MOL0     C22036  10.924   7.564  -1.031  0.2982 -0.1149 -0.5022
  885MOL0    Cl22037  10.784   7.643  -1.128  0.0671  0.3195  0.2117
  885MOL0     C22038  11.018   7.904   0.015  0.0296 -0.6209 -0.8266
  885MOL0     C22039  11.055   7.920   0.153  0.6908 -0.3696 -0.3322
  885MOL0     O22040  11.167   7.786   0.419 -0.2344  0.1369 -0.8268
  885MOL0     C22041  11.178   7.911   0.677 -0.0644  0.4160  0.7955
  885MOL0     C22042  11.195   7.961   0.802 -0.2569 -0.1733  0.3655
  885MOL0     N22043  11.352   8.663   1.449 -0.3219 -0.1176  0.2767
  885MOL0     N22044  11.335   8.790   1.447  0.0186 -0.0282  0.3383
  885MOL0     C22045  10.635   8.959   0.565 -0.1648 -0.5075 -0.2531
  885MOL0     C22046  10.600   8.831   0.514 -0.7474 -0.0267  0.8588
  885MOL0     C22047  10.755   8.388   0.436  0.1446 -0.1195  0.6037
  885MOL0     C22048  10.668   8.352   0.542  0.0686  0.3537  0.2510
  885MOL0     C22049  10.656   8.223   0.596  0.0321 -0.3752 -0.0243
  885MOL0     C22050  10.738   8.121   0.540  0.3455  0.2110  0.4158
  885MOL0     O22051  10.741   7.994   0.580  0.0990  0.3282 -1.2441
  885MOL0     C22052  10.615   7.939   0.615  0.8568  0.6823 -0.1764
  885MOL0     C22053  10.632   7.798   0.671 -0.3636 -0.2117  0.4511
  885MOL0     C22054  10.647   7.696   0.556  0.2367  0.1669 -0.1690
  885MOL0     C22055  10.664   7.559   0.621 -0.3829 -0.3639  0.2217
  885MOL0     C22056  10.674   7.452   0.518  0.6634  0.4960  0.1552
  885MOL0     C22057  10.671   7.369   0.431 -0.3268 -0.1298  0.9995
  885MOL0     C22058  10.831   8.155   0.441  0.3698 -0.3070  0.8699
  885MOL0     C22059  10.849   8.289   0.397 -0.3433 -0.0784 -0.2432
  885MOL0     C22060  10.961   8.304   0.295 -0.3189  0.5812 -0.6869
  885MOL0     H22061  10.919   8.712   0.462 -0.9052 -0.4426  1.8614
  885MOL0     H22062  10.977   8.917   0.547  0.2519 -0.1122  0.6215
  885MOL0     H22063  10.889   9.013   0.787 -0.9391 -1.4611 -2.2542
  885MOL0     H22064  10.742   9.116   0.827  0.8961  3.0880  0.5444
  885MOL0     H22065  11.020   9.219   0.761 -0.1928  1.7230  0.2818
  885MOL0     H22066  10.887   9.311   0.834 -2.2428  0.4271 -4.1404
  885MOL0     H22067  11.017   9.266   1.021 -0.0830  0.9482 -1.6266
  885MOL0     H22068  10.890   9.151   1.023 -1.3975  3.9778 -1.3276
  885MOL0     H22069  11.036   8.965   0.954  0.5295 -0.9163  0.7508
  885MOL0     H22070  11.151   9.059   0.869 -0.2043  0.2898  1.4218
  885MOL0     H22071  11.146   9.024   1.158  1.0407  0.7630 -0.0814
  885MOL0     H22072  11.234   9.159   1.083  2.6930 -1.2143  1.9269
  885MOL0     H22073  11.289   8.875   1.043  1.0723 -0.9321  0.1472
  885MOL0     H22074  11.346   9.000   0.944 -1.2213 -1.8082 -0.3460
  885MOL0     H22075  11.461   9.116   1.139 -1.4728  0.8738  1.1549
  885MOL0     H22076  11.507   8.944   1.122  1.9528  1.8176  1.5333
  885MOL0     H22077  11.470   9.004   1.372  0.7202 -1.0953  0.2424
  885MOL0     H22078  11.315   9.044   1.345 -0.3069 -2.4648 -0.3751
  885MOL0     H22079  11.413   8.716   1.130  0.9710 -2.6196 -0.1589
  885MOL0     H22080  11.408   8.403   1.347  0.4124 -3.0759 -3.3325
  885MOL0     H22081  11.529   8.475   1.245  0.5253 -2.4629  2.1475
  885MOL0     H22082  11.232   8.426   1.181  0.3079 -1.4306  1.4005
  885MOL0     H22083  11.346   8.494   1.062  4.5804  0.2848  0.0334
  885MOL0     H22084  11.475   8.282   1.081  0.6907  1.4210  4.6285
  885MOL0     H22085  11.362   8.212   1.184  1.7626 -0.5749  0.2415
  885MOL0     H22086  11.174   8.270   0.989  0.5234  1.9659 -1.5083
  885MOL0     H22087  11.294   8.315   0.890 -4.1668  1.5128 -0.8313
  885MOL0     H22088  11.442   8.172   0.722  1.6970 -2.7694  1.0188
  885MOL0     H22089  11.440   8.066   0.405 -1.3519 -0.8521  0.2310
  885MOL0     H22090  11.470   8.203   0.502  0.5548 -0.1138 -1.3464
  885MOL0     H22091  11.323   8.212   0.405 -1.0698 -0.8056 -0.3237
  885MOL0     H22092  11.387   7.956   0.133 -0.2626  0.7727  1.7611
  885MOL0     H22093  11.335   7.905  -0.112  0.8164  2.5414  1.9975
  885MOL0     H22094  11.005   7.713  -0.204  1.1516  0.5965  1.6325
  885MOL0     H22095  10.895   7.835  -0.202  0.4050 -2.0024  2.7283
  885MOL0     H22096  10.891   7.867  -0.436 -1.3475  0.8510  1.2318
  885MOL0     H22097  11.058   7.832  -0.451 -0.9222 -0.5767 -2.0202
  885MOL0     H22098  10.844   7.617  -0.405 -0.2867  2.8553  1.6778
  885MOL0     H22099  11.015   7.580  -0.408 -2.6068 -3.8375 -1.5641
  885MOL0     H22100  11.014   7.698  -0.639  0.1595 -0.4680 -2.2234
  885MOL0     H22101  10.846   7.685  -0.636  1.3410  0.8375 -2.1819
  885MOL0     H22102  11.049   7.449  -0.600  0.0588 -0.2130 -0.0158
  885MOL0     H22103  10.869   7.433  -0.625  1.8726 -0.3974  2.5492
  885MOL0     H22104  11.026   7.405  -0.832 -0.8036 -0.0396 -0.9369
  885MOL0     H22105  11.080   7.565  -0.804  0.8862 -1.2504 -1.1389
  885MOL0     H22106  10.848   7.652  -0.841 -2.1570 -1.1168  1.8380
  885MOL0     H22107  10.793   7.489  -0.877 -0.6478 -0.4903  3.0384
  885MOL0     H22108  10.959   7.468  -1.071  2.3184 -0.1663  1.1807
  885MOL0     H22109  11.009   7.631  -1.044 -0.5192  0.9603 -0.3770
  885MOL0     H22110  10.916   7.888  -0.020  0.0671 -1.4087 -0.5909
  885MOL0     H22111  10.973   7.930   0.223 -1.3041 -1.5413 -2.3430
  885MOL0     H22112  11.127   7.816   0.672  0.3921 -0.0819  3.7677
  885MOL0     H22113  11.143   7.909   0.882 -1.4443 -0.0721 -0.3070
  885MOL0     H22114  10.553   9.028   0.580 -1.9716 -1.9559 -2.7206
  885MOL0     H22115  10.496   8.802   0.506 -0.2681 -1.8876  0.7128
  885MOL0     H22116  10.609   8.429   0.592 -1.5336  2.0618 -3.7794
  885MOL0     H22117  10.577   8.204   0.668  0.1374 -1.3674 -0.1551
  885MOL0     H22118  10.566   7.994   0.696  0.7993 -0.1367  0.3579
  885MOL0     H22119  10.549   7.942   0.528 -0.8643 -1.5470  0.9380
  885MOL0     H22120  10.540   7.773   0.725 -0.5775  1.2174  0.7710
  885MOL0     H22121  10.718   7.800   0.738  0.7850  0.4410 -0.9684
  885MOL0     H22122  10.557   7.685   0.494 -0.1018  0.4160  0.2731
  885MOL0     H22123  10.733   7.728   0.497  2.4612  0.6380  3.0947
  885MOL0     H22124  10.589   7.548   0.700  0.0964  3.7035  1.4532
  885MOL0     H22125  10.759   7.571   0.674 -1.2221  3.0126  1.1879
  885MOL0     H22126  10.680   7.299   0.351  1.7007 -2.1173  2.8656
  885MOL0     H22127  10.900   8.076   0.413 -1.4396 -2.2186  1.5992
  885MOL0     H22128  11.032   8.222   0.289  1.7683  2.0325  1.8973
  885MOL0     H22129  10.914   8.331   0.200 -0.6739 -0.7783 -0.9105
  885MOL0     H22130  11.022   8.385   0.336  0.2818 -1.9437  4.0149
  886MOL0     O22131   4.878  11.352   1.936 -0.0271 -0.0425 -0.2910
  886MOL0     C22132   4.823  11.349   2.041 -0.4682 -0.0495  0.0426
  886MOL0     O22133   4.841  11.247   2.128 -0.3341  0.6540  0.1294
  886MOL0     C22134   4.936  11.153   2.084 -1.1513  0.1754  0.2795
  886MOL0     C22135   4.887  11.033   2.022 -0.3743 -0.6618  0.4882
  886MOL0     C22136   4.982  10.966   1.947 -0.7527 -0.3081 -0.3643
  886MOL0     C22137   5.116  10.991   1.947 -0.7822 -0.3151 -0.8217
  886MOL0     O22138   5.204  10.937   1.864 -0.3723 -0.2725  0.5622
  886MOL0     C22139   5.174  10.959   1.723 -0.0703 -0.7067 -0.1238
  886MOL0     C22140   5.297  10.957   1.631 -1.1307 -1.2312 -0.0745
  886MOL0     C22141   5.259  10.914   1.493 -0.1262  1.2470  0.1792
  886MOL0     C22142   5.383  10.891   1.411 -0.9643  0.3198  0.4988
  886MOL0     C22143   5.343  10.876   1.261 -0.8812 -0.7420 -1.4594
  886MOL0     C22144   5.237  10.773   1.233 -0.3788  0.3000  0.5747
  886MOL0     C22145   5.296  10.631   1.260 -0.5091  0.4525 -0.1620
  886MOL0     C22146   5.202  10.511   1.203  0.3695  0.2619  0.2238
  886MOL0     N22147   5.057  10.551   1.217  0.0525  0.7235 -0.7531
  886MOL0     C22148   4.982  10.516   1.323 -0.3422  0.2687 -1.0993
  886MOL0     C22149   4.870  10.586   1.326 -0.5189  0.0657  0.0676
  886MOL0     C22150   4.775  10.586   1.425  0.4991  0.1146 -0.7864
  886MOL0     C22151   4.778  10.711   1.510 -0.8700  0.1425 -0.1789
  886MOL0     C22152   4.895  10.704   1.597 -0.6418  0.5562 -0.6086
  886MOL0     C22153   4.893  10.597   1.714 -0.6654 -0.5323  0.8148
  886MOL0     O22154   4.975  10.489   1.673  0.1448  0.4448 -0.0581
  886MOL0     C22155   5.110  10.488   1.694  0.0492 -0.0440 -0.6075
  886MOL0     C22156   5.182  10.382   1.646  0.0121  0.4817  0.0979
  886MOL0     C22157   5.320  10.367   1.648 -0.3533  0.2022  0.2424
  886MOL0     C22158   5.379  10.250   1.569  0.2964 -0.5131  0.3332
  886MOL0     C22159   5.399  10.479   1.705  0.7448  0.0282  0.3751
  886MOL0     C22160   5.548  10.483   1.725  0.6672 -0.5680 -0.3114
  886MOL0     O22161   5.596  10.575   1.812  0.6870 -0.3733 -0.1255
  886MOL0     C22162   5.716  10.552   1.875  0.4558 -0.1241  0.7283
  886MOL0     C22163   5.842  10.582   1.819  1.0791  0.5344 -0.4667
  886MOL0     C22164   5.969  10.565   1.875 -0.5928 -0.9833 -1.0905
  886MOL0     C22165   5.972  10.516   2.002 -0.2159 -0.9459 -0.4873
  886MOL0     O22166   6.095  10.488   2.054 -0.3915 -0.7283  0.0391
  886MOL0     C22167   6.166  10.607   2.084 -0.9834  0.1761  0.0718
  886MOL0     C22168   6.288  10.577   2.186 -0.5203  0.2841  0.6838
  886MOL0     C22169   6.230  10.552   2.323 -0.3282 -0.6451 -0.1088
  886MOL0     C22170   6.152  10.420   2.342 -0.3448 -0.1756 -0.6171
  886MOL0     C22171   6.132  10.387   2.492  0.2225  0.4765  0.5967
  886MOL0     C22172   6.041  10.491   2.563 -0.2095  0.2976  0.3978
  886MOL0     C22173   5.989  10.434   2.703 -0.0990 -0.3065 -0.0449
  886MOL0     C22174   5.838  10.463   2.731 -0.5584  0.0161 -0.2814
  886MOL0    Cl22175   5.801  10.630   2.738  0.1704 -0.1001 -0.0682
  886MOL0     C22176   5.851  10.469   2.057 -0.4787 -0.6477  0.2676
  886MOL0     C22177   5.725  10.495   2.002  0.4436 -0.2946 -0.1020
  886MOL0     O22178   5.616  10.402   1.659 -0.9262 -1.3104 -0.3215
  886MOL0     C22179   5.320  10.583   1.758 -1.0077 -0.2949 -0.1495
  886MOL0     C22180   5.184  10.587   1.758 -0.2656  0.2330 -0.2084
  886MOL0     N22181   4.877  10.665   1.213  1.3543  0.0886  0.0177
  886MOL0     N22182   4.991  10.644   1.146  0.4514 -0.2382  0.3589
  886MOL0     C22183   5.173  11.098   2.020 -0.3925  0.1859  0.8149
  886MOL0     C22184   5.083  11.183   2.085  0.0890  0.5253 -0.7284
  886MOL0     C22185   4.736  11.463   2.088  0.3808  0.1346 -0.0732
  886MOL0     C22186   4.651  11.447   2.206  0.1990 -0.1801 -0.7891
  886MOL0     C22187   4.561  11.552   2.250  0.4550  2.0392 -0.9332
  886MOL0     C22188   4.559  11.673   2.185  0.1673  0.2406 -0.2634
  886MOL0     O22189   4.475  11.777   2.209 -0.0919 -0.0914 -0.1248
  886MOL0     C22190   4.351  11.762   2.278  0.1666 -0.3227  0.3690
  886MOL0     C22191   4.279  11.894   2.291 -0.9051  0.4745  0.9993
  886MOL0     C22192   4.185  11.918   2.169 -0.0695  0.6849 -1.3547
  886MOL0     C22193   4.134  12.073   2.181  0.5745  1.1410  0.1682
  886MOL0     C22194   4.033  12.097   2.074 -1.2142  0.1513  0.4658
  886MOL0     C22195   3.951  12.078   1.987 -0.7050  0.6786  1.1532
  886MOL0     C22196   4.652  11.686   2.080 -0.4651  0.5927  0.6099
  886MOL0     C22197   4.734  11.588   2.018 -0.0706  0.1697 -0.7646
  886MOL0     C22198   4.831  11.627   1.907  0.1210 -0.3219  0.3579
  886MOL0     H22199   4.784  10.998   2.021 -1.0702  0.9870  3.4884
  886MOL0     H22200   4.958  10.890   1.874  0.2398 -2.0282  1.0166
  886MOL0     H22201   5.132  11.060   1.715 -0.1012 -0.7509 -0.5021
  886MOL0     H22202   5.090  10.898   1.689  0.1899 -0.1421 -1.8864
  886MOL0     H22203   5.340  11.058   1.628 -3.6668  0.0009  1.2667
  886MOL0     H22204   5.373  10.887   1.667 -0.4862 -0.5625 -0.1063
  886MOL0     H22205   5.198  10.823   1.499 -2.7932  2.9388 -0.0777
  886MOL0     H22206   5.189  10.985   1.448 -1.5167 -1.3354 -2.0158
  886MOL0     H22207   5.463  10.965   1.411  1.7036 -2.2510 -2.2745
  886MOL0     H22208   5.438  10.800   1.437  3.5062  1.7833 -2.7574
  886MOL0     H22209   5.429  10.855   1.197 -0.0357 -1.0335 -0.2542
  886MOL0     H22210   5.299  10.971   1.228  1.5084 -0.5014 -4.4765
  886MOL0     H22211   5.142  10.797   1.282 -0.9056 -0.2781 -0.1539
  886MOL0     H22212   5.228  10.775   1.124  2.8206 -1.9653  0.1453
  886MOL0     H22213   5.271  10.618   1.366 -2.9353 -3.3077 -1.0185
  886MOL0     H22214   5.398  10.620   1.223 -0.3384 -2.3652  0.9203
  886MOL0     H22215   5.227  10.485   1.099  0.1940 -2.0599  0.7117
  886MOL0     H22216   5.232  10.420   1.256  1.4216  0.3040 -0.2769
  886MOL0     H22217   5.008  10.442   1.398  0.4364  1.4350 -0.1793
  886MOL0     H22218   4.801  10.493   1.476  1.6957  0.5369 -0.6031
  886MOL0     H22219   4.675  10.566   1.385 -0.4196 -1.4467  2.0036
  886MOL0     H22220   4.787  10.798   1.445  0.6320 -1.1562 -1.8210
  886MOL0     H22221   4.685  10.725   1.566 -1.9183  2.9278 -2.3989
  886MOL0     H22222   4.984  10.690   1.534 -0.5153 -3.2789  0.1534
  886MOL0     H22223   4.906  10.802   1.644  1.7682  0.0132  0.1389
  886MOL0     H22224   4.939  10.640   1.804  4.1243 -0.2734 -1.4572
  886MOL0     H22225   4.789  10.565   1.726 -0.9121 -0.0716 -0.0054
  886MOL0     H22226   5.110  10.308   1.614  0.2714 -1.2935  3.2044
  886MOL0     H22227   5.296  10.186   1.538  1.8662 -1.0060 -3.3496
  886MOL0     H22228   5.459  10.198   1.622  2.5005  0.6664 -1.6425
  886MOL0     H22229   5.421  10.298   1.480 -2.3274 -0.1468 -0.8098
  886MOL0     H22230   5.845  10.633   1.724 -0.5052 -1.8118 -1.8872
  886MOL0     H22231   6.053  10.600   1.816 -1.4254 -1.7702 -2.8301
  886MOL0     H22232   6.197  10.666   1.997  0.1167  1.0295  1.0041
  886MOL0     H22233   6.092  10.662   2.142 -0.8211  0.5534 -0.0760
  886MOL0     H22234   6.351  10.491   2.161  2.0487  1.8241  1.5701
  886MOL0     H22235   6.355  10.663   2.196 -0.2062  0.3527 -1.4616
  886MOL0     H22236   6.169  10.640   2.342 -2.3195 -2.0262  0.2693
  886MOL0     H22237   6.317  10.549   2.390  0.6771 -1.9780 -1.4121
  886MOL0     H22238   6.187  10.332   2.288 -1.0728 -0.5934 -0.4182
  886MOL0     H22239   6.060  10.447   2.289  0.6976 -1.1186 -3.0559
  886MOL0     H22240   6.088  10.287   2.501 -0.7245  0.6922 -1.1996
  886MOL0     H22241   6.234  10.388   2.532  0.6084 -0.7246 -0.2902
  886MOL0     H22242   5.950  10.509   2.505 -0.8122 -2.3166  0.3852
  886MOL0     H22243   6.096  10.585   2.569 -1.5764  1.1386  0.1840
  886MOL0     H22244   6.052  10.478   2.781 -3.0208  0.2859  2.1642
  886MOL0     H22245   6.014  10.328   2.716  1.0622  0.2702  3.6176
  886MOL0     H22246   5.820  10.405   2.822  3.2136 -2.9386 -1.1685
  886MOL0     H22247   5.766  10.425   2.658  0.2193  0.7444 -1.4712
  886MOL0     H22248   5.863  10.416   2.151  2.4474  0.3745  0.5740
  886MOL0     H22249   5.640  10.470   2.065 -0.6752  2.3385 -0.4416
  886MOL0     H22250   5.353  10.660   1.828 -3.1564  1.1335 -0.6027
  886MOL0     H22251   5.140  10.664   1.821  1.1452  1.4772 -0.6822
  886MOL0     H22252   5.280  11.114   2.007  0.0148 -1.0533  2.4532
  886MOL0     H22253   5.121  11.272   2.133  1.2469  0.0260 -0.6824
  886MOL0     H22254   4.665  11.354   2.261 -0.1150  0.1385 -0.1647
  886MOL0     H22255   4.502  11.511   2.332  3.7172 -1.3725  0.0145
  886MOL0     H22256   4.289  11.684   2.233  1.4349 -0.9827 -0.3146
  886MOL0     H22257   4.372  11.735   2.382  0.4667  0.8970  0.6433
  886MOL0     H22258   4.357  11.970   2.301  0.3851 -0.5067 -1.0834
  886MOL0     H22259   4.223  11.880   2.384 -0.1260 -4.4681  0.9690
  886MOL0     H22260   4.241  11.904   2.075 -1.9089  1.6087 -2.6459
  886MOL0     H22261   4.115  11.836   2.182  0.8356 -0.0918 -1.2492
  886MOL0     H22262   4.219  12.141   2.172  1.8256  0.1433  2.9349
  886MOL0     H22263   4.076  12.089   2.273 -2.0995 -2.2753 -0.6905
  886MOL0     H22264   3.880  12.065   1.908 -0.3370  0.6845  0.8195
  886MOL0     H22265   4.665  11.783   2.033 -0.1146 -0.3173 -1.2250
  886MOL0     H22266   4.937  11.607   1.926  0.1330  0.6515  1.4147
  886MOL0     H22267   4.787  11.580   1.818 -3.3835 -0.5022  2.0415
  886MOL0     H22268   4.811  11.731   1.880 -1.4494 -0.6970 -0.0217
  887MOL0     O22269   0.509   2.895   5.787 -0.2419  0.6481  0.1338
  887MOL0     C22270   0.542   2.967   5.883 -0.4871 -0.1439 -0.1521
  887MOL0     O22271   0.511   2.941   6.016 -0.1189  0.7334 -0.0497
  887MOL0     C22272   0.451   2.818   6.049  0.3091  0.0201 -0.0074
  887MOL0     C22273   0.509   2.738   6.139  0.7507  0.8889 -0.1267
  887MOL0     C22274   0.447   2.611   6.167  0.2544  0.5570 -0.7526
  887MOL0     C22275   0.327   2.571   6.108  1.2666 -0.4887  0.0851
  887MOL0     O22276   0.262   2.451   6.118  0.2134  0.0512  0.4633
  887MOL0     C22277   0.339   2.334   6.107  0.4592 -0.3932 -0.3345
  887MOL0     C22278   0.292   2.215   6.193  0.4479  0.7156 -0.1660
  887MOL0     C22279   0.379   2.195   6.313 -0.0797  0.4565  0.3248
  887MOL0     C22280   0.415   2.310   6.406  0.0629  0.8175 -0.2819
  887MOL0     C22281   0.442   2.254   6.551  1.0574  0.1861  1.1325
  887MOL0     C22282   0.457   2.354   6.660  0.0064 -0.1430 -0.5672
  887MOL0     C22283   0.333   2.429   6.695  0.0320 -0.3572 -0.0816
  887MOL0     C22284   0.335   2.459   6.846  0.1528 -0.4213 -0.0400
  887MOL0     N22285   0.303   2.340   6.929  0.8436 -0.3326 -0.5896
  887MOL0     C22286   0.230   2.346   7.041  0.3319  0.0950 -0.1381
  887MOL0     C22287   0.265   2.240   7.113 -0.6678 -0.2623 -0.5800
  887MOL0     C22288   0.200   2.199   7.243 -0.2297 -0.3987  0.4794
  887MOL0     C22289   0.056   2.146   7.231 -1.1502 -0.1265  1.3222
  887MOL0     C22290   0.024   2.083   7.366 -0.3461 -0.3623 -0.8865
  887MOL0     C22291  -0.112   2.129   7.418 -0.4053 -0.2573  0.0414
  887MOL0     O22292  -0.133   2.057   7.543 -0.5390  0.5167  0.4803
  887MOL0     C22293  -0.256   2.094   7.591 -0.2695 -0.5269 -0.3689
  887MOL0     C22294  -0.374   2.068   7.520 -0.0020  0.2727 -0.5545
  887MOL0     C22295  -0.502   2.126   7.565 -0.2151 -0.7103 -1.1503
  887MOL0     C22296  -0.632   2.069   7.498 -0.0795 -0.7004 -0.1442
  887MOL0     C22297  -0.511   2.190   7.694  0.0126 -0.6550 -1.1639
  887MOL0     C22298  -0.634   2.236   7.762  0.0076  0.2361  0.3630
  887MOL0     O22299  -0.653   2.202   7.893 -0.1535  0.4113 -0.5041
  887MOL0     C22300  -0.755   2.259   7.963 -0.5642  0.1084  0.3127
  887MOL0     C22301  -0.746   2.368   8.033  0.2422  0.8141  0.2122
  887MOL0     C22302  -0.853   2.438   8.096 -0.1744 -0.7354 -0.8622
  887MOL0     C22303  -0.977   2.394   8.081  0.2358  0.6829 -0.1790
  887MOL0     O22304  -1.085   2.466   8.140  0.0648 -0.2931  0.9413
  887MOL0     C22305  -1.218   2.410   8.135  0.6761  0.2864  0.0937
  887MOL0     C22306  -1.250   2.355   8.276 -0.5532  0.4943  0.3262
  887MOL0     C22307  -1.392   2.289   8.275  0.4673  0.8158  0.4598
  887MOL0     C22308  -1.508   2.401   8.306  0.1088 -0.0980  0.0909
  887MOL0     C22309  -1.644   2.339   8.289  0.0770 -0.6209 -0.1477
  887MOL0     C22310  -1.678   2.218   8.372 -0.0415  0.6966  0.2629
  887MOL0     C22311  -1.832   2.181   8.358 -0.8986  1.0698 -0.2438
  887MOL0     C22312  -1.903   2.169   8.484  0.1082 -0.0013  0.3945
  887MOL0    Cl22313  -2.055   2.077   8.452 -0.0199  0.3523  0.1911
  887MOL0     C22314  -0.995   2.286   8.004 -0.2460  0.4686  1.0128
  887MOL0     C22315  -0.889   2.218   7.950  0.2240 -1.3319  0.7333
  887MOL0     O22316  -0.702   2.312   7.695  0.6353 -0.1118 -0.5535
  887MOL0     C22317  -0.389   2.215   7.763 -0.2639 -0.4438  0.9004
  887MOL0     C22318  -0.265   2.163   7.714 -0.3716  0.7197  0.5627
  887MOL0     N22319   0.368   2.170   7.050  0.1266  0.4523 -0.3999
  887MOL0     N22320   0.390   2.233   6.939  0.4244 -0.3527 -0.0926
  887MOL0     C22321   0.273   2.661   6.021  0.3511 -0.6980 -0.4315
  887MOL0     C22322   0.335   2.782   5.987  0.4759 -0.5084 -0.5814
  887MOL0     C22323   0.621   3.080   5.841 -0.3075 -0.3700 -0.7059
  887MOL0     C22324   0.737   3.105   5.924 -0.5328  0.9450 -0.2405
  887MOL0     C22325   0.820   3.211   5.896 -0.4775  1.2327 -0.5983
  887MOL0     C22326   0.784   3.306   5.795  0.3181  0.2978  1.0977
  887MOL0     O22327   0.861   3.420   5.773  0.0328  0.3416  0.2129
  887MOL0     C22328   0.901   3.489   5.882  0.3312 -0.4629  0.0632
  887MOL0     C22329   0.971   3.618   5.843 -0.7689 -0.3043  0.5312
  887MOL0     C22330   0.890   3.725   5.795  0.8055 -0.0377 -0.5862
  887MOL0     C22331   0.817   3.698   5.660  1.0297 -0.3513  0.5364
  887MOL0     C22332   0.798   3.820   5.579 -0.5385 -0.1959 -0.5246
  887MOL0     C22333   0.769   3.912   5.514 -0.7859  0.3891  0.2248
  887MOL0     C22334   0.676   3.276   5.714 -0.2109 -0.5456 -0.2205
  887MOL0     C22335   0.593   3.166   5.737 -0.9611 -0.3620  0.4165
  887MOL0     C22336   0.473   3.151   5.651 -0.1238 -0.3632  0.4781
  887MOL0     H22337   0.600   2.769   6.190  0.4172 -0.1148  1.1532
  887MOL0     H22338   0.486   2.549   6.247 -1.1960 -0.9037 -1.1381
  887MOL0     H22339   0.446   2.354   6.118  0.5901  0.9678 -3.0692
  887MOL0     H22340   0.326   2.299   6.004  1.2554 -1.2022 -0.1686
  887MOL0     H22341   0.189   2.229   6.228  0.6632  1.4276  0.1957
  887MOL0     H22342   0.296   2.126   6.129 -0.5229 -0.4997  1.3873
  887MOL0     H22343   0.336   2.112   6.370 -1.5925 -1.1181 -2.8559
  887MOL0     H22344   0.480   2.165   6.282  0.1090  1.6824 -0.2949
  887MOL0     H22345   0.503   2.366   6.372  1.2070 -1.1407 -0.6603
  887MOL0     H22346   0.326   2.374   6.410  0.0881  0.8244  0.1690
  887MOL0     H22347   0.539   2.206   6.535  1.5649  2.0965 -2.5455
  887MOL0     H22348   0.365   2.186   6.589 -0.3686  0.7520 -0.6177
  887MOL0     H22349   0.503   2.310   6.749 -1.1831 -3.3256 -1.4113
  887MOL0     H22350   0.528   2.430   6.626 -1.2194 -0.0918 -3.3221
  887MOL0     H22351   0.246   2.368   6.668 -1.2362  1.6120 -0.6784
  887MOL0     H22352   0.317   2.527   6.649 -0.0302 -0.6795 -0.7646
  887MOL0     H22353   0.433   2.502   6.869 -0.5958  2.1011 -1.1691
  887MOL0     H22354   0.263   2.540   6.859  0.4336 -0.2388  0.3918
  887MOL0     H22355   0.150   2.418   7.058  0.4225  0.4707 -1.2335
  887MOL0     H22356   0.205   2.289   7.304  1.1633 -0.2607  0.1916
  887MOL0     H22357   0.263   2.129   7.300  0.6260 -0.0309 -0.0023
  887MOL0     H22358  -0.007   2.230   7.200  1.3500  0.6225 -2.2321
  887MOL0     H22359   0.033   2.068   7.158 -3.5195  1.5378  0.1827
  887MOL0     H22360   0.014   1.977   7.341  0.5111 -0.0109 -2.9605
  887MOL0     H22361   0.100   2.096   7.443  0.2714 -1.5949 -1.2603
  887MOL0     H22362  -0.125   2.236   7.435  0.9492 -0.4472  2.8614
  887MOL0     H22363  -0.187   2.089   7.349 -1.1464 -1.6913  1.6059
  887MOL0     H22364  -0.377   2.022   7.422 -0.2087  2.3638 -1.5884
  887MOL0     H22365  -0.662   1.986   7.562  0.7044 -2.4759 -1.9549
  887MOL0     H22366  -0.603   2.026   7.401  3.3297  2.0663 -0.5439
  887MOL0     H22367  -0.704   2.149   7.482 -2.6158 -3.2221 -2.3706
  887MOL0     H22368  -0.645   2.406   8.050  1.0641 -1.1428 -0.0711
  887MOL0     H22369  -0.831   2.528   8.153 -0.0362  0.0493 -2.1025
  887MOL0     H22370  -1.280   2.499   8.126  2.3139  1.4134 -0.3807
  887MOL0     H22371  -1.251   2.342   8.055  1.1917 -0.1859  0.2817
  887MOL0     H22372  -1.178   2.275   8.295 -1.5748 -0.8827 -1.2828
  887MOL0     H22373  -1.246   2.428   8.357  0.9330  1.0357 -0.2075
  887MOL0     H22374  -1.399   2.212   8.352 -0.4287 -0.0567 -0.4515
  887MOL0     H22375  -1.408   2.245   8.176  0.2619  1.0606  0.3835
  887MOL0     H22376  -1.486   2.486   8.241 -4.5501 -0.3548 -2.1897
  887MOL0     H22377  -1.499   2.441   8.407  1.9345 -0.7746  0.2403
  887MOL0     H22378  -1.728   2.409   8.295 -1.9073 -2.5261 -3.1221
  887MOL0     H22379  -1.656   2.299   8.188  1.1625  0.1722 -0.6079
  887MOL0     H22380  -1.651   2.224   8.478  1.0445 -1.7966  0.2201
  887MOL0     H22381  -1.622   2.130   8.338 -0.0970  1.2378 -1.3164
  887MOL0     H22382  -1.836   2.080   8.316 -3.9465 -0.7927  3.8143
  887MOL0     H22383  -1.877   2.251   8.287  0.9863  0.4684 -2.1216
  887MOL0     H22384  -1.919   2.264   8.536  1.2398  0.4770 -0.1001
  887MOL0     H22385  -1.836   2.105   8.543  0.0073 -0.8547 -0.3942
  887MOL0     H22386  -1.097   2.256   7.978 -0.5190  0.8615  1.6209
  887MOL0     H22387  -0.918   2.142   7.879 -2.9348  0.1010  0.2904
  887MOL0     H22388  -0.389   2.276   7.852  0.2107  0.8588  0.0380
  887MOL0     H22389  -0.173   2.180   7.769 -0.1757 -2.3586  1.3449
  887MOL0     H22390   0.187   2.644   5.956  1.1817  1.5749 -2.2512
  887MOL0     H22391   0.288   2.848   5.914  2.8549  1.0691 -0.7834
  887MOL0     H22392   0.755   3.025   5.994 -0.0520  0.8527 -0.4661
  887MOL0     H22393   0.906   3.220   5.962  0.3250 -0.0267 -1.4204
  887MOL0     H22394   0.809   3.506   5.938 -1.0558 -0.5455 -2.1120
  887MOL0     H22395   0.975   3.448   5.952  1.0607  2.0652  0.8951
  887MOL0     H22396   1.046   3.593   5.766  1.7258 -1.3759  3.1358
  887MOL0     H22397   1.032   3.646   5.929 -0.3739 -0.5864  0.3498
  887MOL0     H22398   0.815   3.757   5.868  1.3861  1.2526 -0.5218
  887MOL0     H22399   0.964   3.805   5.793  0.7026  0.1356  1.2581
  887MOL0     H22400   0.728   3.640   5.688 -0.2933  1.6074  0.5929
  887MOL0     H22401   0.869   3.643   5.582  2.2747 -0.5372  1.4670
  887MOL0     H22402   0.738   3.975   5.433  3.3419  1.0638 -1.0546
  887MOL0     H22403   0.662   3.344   5.630  1.1944 -2.1909 -1.8977
  887MOL0     H22404   0.394   3.100   5.708  0.9088 -2.9518 -0.2389
  887MOL0     H22405   0.448   3.255   5.628 -1.4531 -0.0966  2.8028
  887MOL0     H22406   0.489   3.094   5.559 -1.4464 -0.3113  0.1975
  888MOL0     O22407   8.517   4.286   2.143 -0.4689  0.4619  0.3337
  888MOL0     C22408   8.630   4.244   2.133 -0.0371 -0.0335  0.3938
  888MOL0     O22409   8.708   4.172   2.225 -0.5768 -0.5836  0.2460
  888MOL0     C22410   8.641   4.146   2.340 -0.3967 -0.9186  0.0857
  888MOL0     C22411   8.681   4.212   2.455 -0.1112  0.5289  0.0540
  888MOL0     C22412   8.602   4.194   2.568 -0.3899  0.2161  0.2850
  888MOL0     C22413   8.504   4.098   2.573  0.0119  0.2637  0.3249
  888MOL0     O22414   8.423   4.075   2.680 -1.4679  0.2236 -0.0606
  888MOL0     C22415   8.498   4.041   2.800  0.0021  0.2081  0.2652
  888MOL0     C22416   8.416   3.995   2.913  0.4733  0.3593 -0.6381
  888MOL0     C22417   8.333   4.105   2.966  0.8449  0.2695  0.0576
  888MOL0     C22418   8.239   4.065   3.070  0.3600  0.6215 -0.0898
  888MOL0     C22419   8.188   4.191   3.130  0.0249  0.7149 -1.4787
  888MOL0     C22420   8.052   4.166   3.206  1.2288 -0.5584  0.6947
  888MOL0     C22421   8.057   4.061   3.308  0.2526  0.4295  0.0608
  888MOL0     C22422   7.961   4.068   3.419  0.5257  0.1548 -1.0356
  888MOL0     N22423   7.989   3.995   3.540  0.5290 -0.4304 -0.1748
  888MOL0     C22424   7.883   3.951   3.620 -0.2463 -0.3943 -0.7913
  888MOL0     C22425   7.941   3.873   3.712  0.3114  0.3782 -0.1175
  888MOL0     C22426   7.868   3.800   3.823 -0.0132 -0.7011  0.5478
  888MOL0     C22427   7.751   3.709   3.775  0.0688  0.2071 -0.0949
  888MOL0     C22428   7.784   3.571   3.714 -0.0737  0.1438 -0.3951
  888MOL0     C22429   7.868   3.579   3.588 -0.3649  0.1098  0.6227
  888MOL0     O22430   7.816   3.683   3.501  0.5615 -0.7066  0.7335
  888MOL0     C22431   7.882   3.693   3.376  1.3309 -0.8091 -0.1516
  888MOL0     C22432   7.983   3.604   3.319 -0.8137 -0.9182 -0.3614
  888MOL0     C22433   8.017   3.601   3.176 -0.0360  1.0717 -0.3409
  888MOL0     C22434   8.131   3.509   3.141 -0.3514 -0.2087 -0.5724
  888MOL0     C22435   7.942   3.672   3.089 -0.4884  0.7389  1.2789
  888MOL0     C22436   7.965   3.658   2.943  0.1579  0.3855  0.7663
  888MOL0     O22437   7.942   3.533   2.890  0.1558 -0.1757  0.7326
  888MOL0     C22438   7.924   3.504   2.750  0.0877 -0.3497 -0.7381
  888MOL0     C22439   7.977   3.385   2.695  0.3627 -0.0661  0.0455
  888MOL0     C22440   7.969   3.355   2.559 -1.0730 -0.9442 -0.2176
  888MOL0     C22441   7.893   3.438   2.469 -0.6745  0.2929  0.0048
  888MOL0     O22442   7.878   3.386   2.337  0.3552  0.3484 -0.4564
  888MOL0     C22443   7.768   3.436   2.258  0.3726 -0.2402  0.1408
  888MOL0     C22444   7.804   3.563   2.179 -1.2144 -0.4018  0.7055
  888MOL0     C22445   7.677   3.604   2.095 -0.1840 -0.1037  0.2532
  888MOL0     C22446   7.700   3.735   2.019 -0.1547 -0.3944  0.5422
  888MOL0     C22447   7.600   3.746   1.896 -0.5567  0.0708  0.1407
  888MOL0     C22448   7.533   3.877   1.873 -0.5454 -0.0673 -0.5485
  888MOL0     C22449   7.484   3.907   1.728 -0.0085 -0.0351 -0.3834
  888MOL0     C22450   7.513   4.048   1.662 -1.1494  0.8287 -0.8259
  888MOL0    Cl22451   7.684   4.071   1.632  0.2265  0.3637 -0.0722
  888MOL0     C22452   7.846   3.558   2.515 -0.4210 -0.0534  0.4461
  888MOL0     C22453   7.857   3.592   2.656 -0.3530  0.0647  0.0591
  888MOL0     O22454   7.988   3.761   2.880 -0.0983 -0.5684  0.7621
  888MOL0     C22455   7.836   3.748   3.146  0.5266  0.3655  0.4431
  888MOL0     C22456   7.808   3.763   3.282  0.4144  0.0151 -0.0451
  888MOL0     N22457   8.082   3.887   3.700  0.7140  0.2816  0.9221
  888MOL0     N22458   8.105   3.955   3.598  0.0319  0.0863 -0.2451
  888MOL0     C22459   8.480   4.023   2.462  0.1872 -0.2576  0.4352
  888MOL0     C22460   8.545   4.048   2.341 -0.4509  1.2845 -0.4995
  888MOL0     C22461   8.692   4.258   1.997 -0.2969  0.5501 -0.5176
  888MOL0     C22462   8.612   4.285   1.881  0.7518 -0.4854  0.2972
  888MOL0     C22463   8.664   4.274   1.754  0.2150  0.9207 -0.2718
  888MOL0     C22464   8.798   4.235   1.735  1.3799  0.8883 -0.6664
  888MOL0     O22465   8.858   4.228   1.619  0.8877 -0.7796  0.1938
  888MOL0     C22466   8.785   4.244   1.493  0.6377  0.2632  0.5124
  888MOL0     C22467   8.808   4.383   1.444  0.3209  0.1079 -0.7104
  888MOL0     C22468   8.740   4.429   1.319 -0.5060  0.4964  0.8326
  888MOL0     C22469   8.811   4.370   1.194  0.1884  0.0025 -0.4778
  888MOL0     C22470   8.754   4.433   1.081 -0.0761 -0.2545  0.3593
  888MOL0     C22471   8.711   4.486   0.984 -0.0761 -0.0596 -0.3603
  888MOL0     C22472   8.879   4.222   1.846 -0.4002  0.0448 -1.4443
  888MOL0     C22473   8.829   4.235   1.980 -0.5514 -0.3405  0.9064
  888MOL0     C22474   8.939   4.244   2.086 -0.4264 -0.3316  0.2580
  888MOL0     H22475   8.760   4.287   2.459  1.5320 -1.1132 -0.4497
  888MOL0     H22476   8.609   4.258   2.656 -1.5534  2.4178 -1.1322
  888MOL0     H22477   8.557   4.121   2.846  1.1177 -1.0321  1.0739
  888MOL0     H22478   8.560   3.957   2.768  0.8462  1.1210 -0.5194
  888MOL0     H22479   8.351   3.908   2.894  1.3057 -0.8869  1.7967
  888MOL0     H22480   8.473   3.959   2.999 -1.1143  1.9048  1.1574
  888MOL0     H22481   8.401   4.175   3.015 -0.5314  0.2619  2.1059
  888MOL0     H22482   8.284   4.149   2.878  0.7000  0.1927  0.0998
  888MOL0     H22483   8.159   4.002   3.032 -1.0444  0.2190  3.1953
  888MOL0     H22484   8.289   4.012   3.153 -2.1231 -1.8414 -0.0302
  888MOL0     H22485   8.158   4.269   3.059 -0.9141  1.5480 -0.2221
  888MOL0     H22486   8.262   4.234   3.198 -0.5310 -1.0532  0.3316
  888MOL0     H22487   8.033   4.261   3.257 -1.0235 -0.4907 -0.1767
  888MOL0     H22488   7.963   4.158   3.143 -0.2793  2.8584  2.1210
  888MOL0     H22489   8.154   4.064   3.358 -0.1192 -1.1075  0.9372
  888MOL0     H22490   8.063   3.966   3.254  2.8596 -0.5333  1.8565
  888MOL0     H22491   7.930   4.166   3.457  0.0477 -0.7614  1.0967
  888MOL0     H22492   7.878   4.015   3.371  2.1349 -0.6423 -3.0730
  888MOL0     H22493   7.776   3.957   3.606 -0.4945 -3.4596 -0.8860
  888MOL0     H22494   7.829   3.882   3.884  1.8107  1.3141 -0.8462
  888MOL0     H22495   7.937   3.741   3.884 -1.3185  0.0645  2.8781
  888MOL0     H22496   7.690   3.689   3.864  0.4574 -0.6774 -0.0210
  888MOL0     H22497   7.690   3.771   3.709 -2.8365 -3.7201 -1.4539
  888MOL0     H22498   7.818   3.493   3.782  2.7517  0.9697 -0.7497
  888MOL0     H22499   7.683   3.535   3.691 -0.8843  1.1601  1.3636
  888MOL0     H22500   7.976   3.588   3.604 -0.0864 -0.4795 -0.7451
  888MOL0     H22501   7.864   3.480   3.541  0.2694  0.6392 -0.6070
  888MOL0     H22502   8.036   3.531   3.379 -0.6383 -0.7540 -0.3120
  888MOL0     H22503   8.165   3.448   3.225  0.6134  0.2209 -0.6413
  888MOL0     H22504   8.221   3.564   3.110  0.4887  1.2509  3.7754
  888MOL0     H22505   8.089   3.444   3.063 -0.5559  0.1137 -0.7350
  888MOL0     H22506   8.032   3.315   2.757  1.0171  0.5491  0.1709
  888MOL0     H22507   8.011   3.265   2.517  2.5843 -1.2853  3.5236
  888MOL0     H22508   7.743   3.348   2.198 -0.7012 -0.4999  0.9410
  888MOL0     H22509   7.679   3.462   2.316 -0.2148  0.6113 -1.1092
  888MOL0     H22510   7.832   3.639   2.253 -1.6903  0.1957  0.2907
  888MOL0     H22511   7.893   3.552   2.118  0.7606  0.5588  3.2258
  888MOL0     H22512   7.586   3.602   2.155  0.7594  0.0762  1.7359
  888MOL0     H22513   7.665   3.531   2.014  1.1626 -2.0554  1.7191
  888MOL0     H22514   7.806   3.746   1.995  0.3432 -1.3028  2.1145
  888MOL0     H22515   7.674   3.812   2.092 -1.7899 -0.2211 -0.1858
  888MOL0     H22516   7.654   3.702   1.811  1.8940  1.8169  0.6840
  888MOL0     H22517   7.519   3.675   1.919 -0.4217  0.0762  0.6503
  888MOL0     H22518   7.619   3.944   1.875  1.0387 -1.9249 -2.1526
  888MOL0     H22519   7.462   3.896   1.955  0.4594 -3.4415  1.2879
  888MOL0     H22520   7.377   3.885   1.723  0.1677 -0.9787 -0.1496
  888MOL0     H22521   7.535   3.840   1.657  2.0448  0.5451  0.4566
  888MOL0     H22522   7.490   4.134   1.726 -0.1643 -0.4552  1.3724
  888MOL0     H22523   7.468   4.045   1.562 -0.7791  0.1877 -0.9808
  888MOL0     H22524   7.788   3.631   2.459  1.3615  0.1279 -1.3056
  888MOL0     H22525   7.817   3.689   2.684 -1.1664 -0.5414  1.0884
  888MOL0     H22526   7.775   3.805   3.076  1.4223 -0.7282 -1.3164
  888MOL0     H22527   7.714   3.804   3.318 -0.4904 -0.7310 -1.4529
  888MOL0     H22528   8.419   3.934   2.476  1.8584 -1.5696 -0.3264
  888MOL0     H22529   8.520   3.986   2.255  3.5074 -3.2096  1.1557
  888MOL0     H22530   8.507   4.303   1.903  0.4743 -0.6724 -0.8287
  888MOL0     H22531   8.602   4.303   1.671 -0.5654 -0.3651 -0.1685
  888MOL0     H22532   8.821   4.173   1.418 -2.3266 -0.2300 -0.5924
  888MOL0     H22533   8.678   4.218   1.499  1.0299 -1.2866  1.1816
  888MOL0     H22534   8.914   4.409   1.441 -0.2226  4.4678  3.9874
  888MOL0     H22535   8.780   4.447   1.529  1.9553 -0.8297  0.6074
  888MOL0     H22536   8.638   4.389   1.318 -0.0673 -0.7647 -1.5594
  888MOL0     H22537   8.752   4.536   1.305  0.6848  0.6894  2.9526
  888MOL0     H22538   8.792   4.262   1.194  1.2017 -0.1934  0.5974
  888MOL0     H22539   8.920   4.379   1.200  0.3994 -1.6621 -1.0402
  888MOL0     H22540   8.670   4.526   0.894 -2.0671  2.1264  1.3799
  888MOL0     H22541   8.985   4.203   1.833 -0.4121  0.2530 -1.8621
  888MOL0     H22542   8.932   4.319   2.166 -1.9686 -1.8510  1.6326
  888MOL0     H22543   8.949   4.147   2.135 -0.5183  0.1676  1.3034
  888MOL0     H22544   9.040   4.239   2.044  0.0110 -3.1146  1.3908
  889MOL0     O22545  10.406   4.694   9.760  0.2919 -0.0430  0.5534
  889MOL0     C22546  10.507   4.639   9.725  0.0766  0.2032 -0.0407
  889MOL0     O22547  10.620   4.656   9.790  0.8182 -0.2288 -0.3053
  889MOL0     C22548  10.680   4.778   9.803 -0.2578  0.4983  0.5764
  889MOL0     C22549  10.640   4.894   9.737  0.0008  1.0631  0.7560
  889MOL0     C22550  10.712   5.006   9.744 -0.5516  0.0067 -0.3131
  889MOL0     C22551  10.835   5.014   9.814 -0.0505  0.7423 -0.3176
  889MOL0     O22552  10.902   5.127   9.846  0.5580  0.2280  0.3914
  889MOL0     C22553  10.912   5.232   9.746  0.1538  0.0691  0.0297
  889MOL0     C22554  10.846   5.364   9.790  0.3352  0.6637 -0.0257
  889MOL0     C22555  10.689   5.359   9.768 -0.8874  0.0848 -0.7083
  889MOL0     C22556  10.623   5.493   9.814 -0.3941  0.7535 -0.5814
  889MOL0     C22557  10.468   5.495   9.776  0.4790  0.7376 -0.1257
  889MOL0     C22558  10.378   5.505   9.896  1.2126  1.0920 -0.9423
  889MOL0     C22559  10.369   5.370   9.986 -0.1499  0.1531 -0.1817
  889MOL0     C22560  10.355   5.386  10.140 -0.4642 -0.7413  0.4826
  889MOL0     N22561  10.411   5.512  10.198 -0.3358 -0.1585 -1.1422
  889MOL0     C22562  10.541   5.548  10.210  0.0607 -0.4942  0.4989
  889MOL0     C22563  10.542   5.679  10.233 -0.8646  0.3100 -0.2258
  889MOL0     C22564  10.658   5.769  10.248  0.0790  0.2636 -0.4295
  889MOL0     C22565  10.743   5.773  10.125 -0.6905  0.4890 -0.5251
  889MOL0     C22566  10.868   5.872  10.147 -0.2066  0.3192  0.1374
  889MOL0     C22567  11.008   5.819  10.090 -0.0032  0.3521  0.0192
  889MOL0     O22568  10.991   5.801   9.948 -0.0874  0.6754 -0.6223
  889MOL0     C22569  11.073   5.719   9.871 -0.1942  0.1389 -0.6888
  889MOL0     C22570  11.188   5.659   9.914 -0.5838 -0.0728  0.8330
  889MOL0     C22571  11.260   5.569   9.828 -0.6528 -0.8255  0.1685
  889MOL0     C22572  11.395   5.517   9.876  0.5137  0.0693  0.9856
  889MOL0     C22573  11.205   5.537   9.701  0.1621  0.2549 -1.2402
  889MOL0     C22574  11.266   5.437   9.614 -0.0749 -0.0095  0.3187
  889MOL0     O22575  11.404   5.422   9.608 -0.4960  0.0895 -1.0146
  889MOL0     C22576  11.476   5.327   9.540 -0.3124 -0.6319 -0.5657
  889MOL0     C22577  11.613   5.346   9.568  1.2430 -0.8300 -0.5518
  889MOL0     C22578  11.704   5.253   9.536  0.2221  0.7028  0.1651
  889MOL0     C22579  11.675   5.150   9.442  0.6861 -0.2189  0.1305
  889MOL0     O22580  11.764   5.054   9.399 -0.8158  0.3340  0.0160
  889MOL0     C22581  11.904   5.081   9.403 -0.3589 -1.8495 -0.1326
  889MOL0     C22582  11.966   4.941   9.365  0.7753  0.3844  0.5574
  889MOL0     C22583  12.116   4.944   9.329 -0.2084 -0.3162  0.5010
  889MOL0     C22584  12.193   4.943   9.457 -0.8096 -0.4327 -0.2871
  889MOL0     C22585  12.338   4.920   9.430 -0.0663  0.3503  0.4783
  889MOL0     C22586  12.375   4.801   9.329  0.4850 -0.4841  0.5654
  889MOL0     C22587  12.305   4.670   9.375  0.1108  0.6513 -0.6223
  889MOL0     C22588  12.351   4.612   9.515 -0.2300 -0.4472 -0.5533
  889MOL0    Cl22589  12.522   4.597   9.523 -0.3423 -0.3091  0.3159
  889MOL0     C22590  11.540   5.140   9.402  0.3544 -0.1325  0.0230
  889MOL0     C22591  11.436   5.230   9.455 -0.3703  0.2140 -0.0697
  889MOL0     O22592  11.182   5.373   9.552 -0.9397  0.3285 -0.3165
  889MOL0     C22593  11.091   5.604   9.662  0.3134  0.0319  0.6909
  889MOL0     C22594  11.029   5.698   9.740 -0.0356  0.5701 -0.2485
  889MOL0     N22595  10.411   5.730  10.235  0.6061 -0.2362 -0.6177
  889MOL0     N22596  10.333   5.629  10.218 -0.7256 -0.0968  0.3528
  889MOL0     C22597  10.880   4.895   9.877 -0.2497 -0.6323  0.8241
  889MOL0     C22598  10.800   4.780   9.874 -0.3056  0.3564 -0.0545
  889MOL0     C22599  10.487   4.522   9.638  0.4618 -0.8028  0.5906
  889MOL0     C22600  10.353   4.479   9.605  0.4520  0.1744  0.7931
  889MOL0     C22601  10.335   4.363   9.533  0.3719 -0.6059  0.0846
  889MOL0     C22602  10.432   4.299   9.468 -0.2633  0.2880 -0.0017
  889MOL0     O22603  10.425   4.176   9.394 -0.6771  0.0161  0.1588
  889MOL0     C22604  10.304   4.120   9.360  0.0074 -0.1772  0.1173
  889MOL0     C22605  10.221   4.204   9.260 -0.1082  0.4796  0.1828
  889MOL0     C22606  10.107   4.117   9.207  0.4987  1.2895 -0.9212
  889MOL0     C22607  10.005   4.227   9.166  0.2240  1.0104 -0.0466
  889MOL0     C22608   9.898   4.179   9.072  0.7398 -0.3326 -0.0440
  889MOL0     C22609   9.817   4.132   8.997 -0.6442  0.1986 -0.7398
  889MOL0     C22610  10.567   4.349   9.495  0.4129 -0.0085  0.3258
  889MOL0     C22611  10.595   4.455   9.581  0.1980 -0.4795  0.4150
  889MOL0     C22612  10.738   4.488   9.604 -0.0766 -0.2995  0.0309
  889MOL0     H22613  10.555   4.899   9.671  0.0014 -1.7383  0.4218
  889MOL0     H22614  10.684   5.096   9.691 -1.9263  0.8572  1.7491
  889MOL0     H22615  10.863   5.215   9.650  1.2636  1.9832 -0.9191
  889MOL0     H22616  11.019   5.248   9.728 -0.3147  1.8104 -1.4700
  889MOL0     H22617  10.868   5.381   9.896  2.7116  1.9230 -0.6522
  889MOL0     H22618  10.899   5.441   9.733 -0.5146  2.2433  1.2313
  889MOL0     H22619  10.663   5.341   9.664 -1.2364  3.1735 -1.2593
  889MOL0     H22620  10.659   5.277   9.834 -0.8954  0.9084  0.3484
  889MOL0     H22621  10.638   5.512   9.920  2.7871  0.8203 -0.9594
  889MOL0     H22622  10.678   5.571   9.761 -0.5956  2.8257  2.0622
  889MOL0     H22623  10.444   5.410   9.711 -1.1087 -2.2178  3.8992
  889MOL0     H22624  10.455   5.589   9.721 -0.8168  1.0233  0.6493
  889MOL0     H22625  10.391   5.590   9.964 -0.6616 -1.1715  2.6127
  889MOL0     H22626  10.274   5.515   9.864 -0.2541 -1.6449  2.2400
  889MOL0     H22627  10.471   5.330   9.989  0.7942  2.2086 -2.1207
  889MOL0     H22628  10.299   5.295   9.949 -0.0087  0.5632 -1.3253
  889MOL0     H22629  10.253   5.386  10.181 -0.2455  0.5393  1.0844
  889MOL0     H22630  10.387   5.290  10.180  1.0785  0.1411  1.4636
  889MOL0     H22631  10.619   5.475  10.194 -2.2126 -3.0251  0.2141
  889MOL0     H22632  10.719   5.736  10.333 -0.4737  2.8991  1.0811
  889MOL0     H22633  10.619   5.868  10.270 -0.4640 -0.2727  1.1855
  889MOL0     H22634  10.778   5.671  10.103  2.4343  1.4659 -0.5763
  889MOL0     H22635  10.688   5.792  10.033  0.9973  0.7203 -1.5401
  889MOL0     H22636  10.851   5.968  10.098  1.6011  0.0254 -1.1901
  889MOL0     H22637  10.882   5.885  10.255 -0.1794  1.3887  0.0153
  889MOL0     H22638  11.091   5.886  10.116  1.1694 -1.1817  0.3666
  889MOL0     H22639  11.037   5.728  10.143 -0.5426  2.2504  3.9750
  889MOL0     H22640  11.237   5.690  10.006  1.0740  3.9770 -1.1391
  889MOL0     H22641  11.396   5.409   9.892  2.0320  0.0087  0.6745
  889MOL0     H22642  11.435   5.564   9.967  2.9927  0.7055 -0.3317
  889MOL0     H22643  11.473   5.532   9.800  0.6298 -2.4718  0.5152
  889MOL0     H22644  11.634   5.416   9.648  0.4519  0.3420 -1.3336
  889MOL0     H22645  11.810   5.262   9.560 -0.0663  1.2942  1.2491
  889MOL0     H22646  11.934   5.157   9.330 -0.6144 -0.2138  1.3891
  889MOL0     H22647  11.935   5.114   9.502 -1.5513 -0.5489 -0.1611
  889MOL0     H22648  11.953   4.868   9.446  2.0006  0.2761  0.6876
  889MOL0     H22649  11.915   4.908   9.274  0.5791 -1.5893  1.3404
  889MOL0     H22650  12.139   5.033   9.270 -2.1198 -0.4869 -0.5813
  889MOL0     H22651  12.126   4.854   9.268 -1.5647  1.5417 -2.6842
  889MOL0     H22652  12.161   4.860   9.521  2.5292 -0.4541  1.5699
  889MOL0     H22653  12.184   5.035   9.514 -0.3937 -0.3582 -0.3359
  889MOL0     H22654  12.375   5.008   9.377 -0.2068 -0.6461 -1.3670
  889MOL0     H22655  12.382   4.900   9.528  2.0657  1.2720 -0.2452
  889MOL0     H22656  12.482   4.780   9.343  0.1799  0.2226  5.6355
  889MOL0     H22657  12.352   4.835   9.227 -1.9552  6.4422  2.8657
  889MOL0     H22658  12.342   4.594   9.305  1.4217  2.4876 -2.0210
  889MOL0     H22659  12.196   4.669   9.383  0.2342 -1.4685  4.4951
  889MOL0     H22660  12.310   4.511   9.522 -0.0569 -0.3932  1.7943
  889MOL0     H22661  12.304   4.674   9.591 -1.2747 -1.7682 -0.0863
  889MOL0     H22662  11.515   5.059   9.334  0.8296 -1.3716  1.2856
  889MOL0     H22663  11.330   5.226   9.435 -0.0442  0.3867 -2.1519
  889MOL0     H22664  11.050   5.572   9.567  2.3945 -3.3290  0.7822
  889MOL0     H22665  10.937   5.749   9.710 -0.3647  0.4811  0.5734
  889MOL0     H22666  10.972   4.889   9.935  1.2235 -2.4233 -1.5231
  889MOL0     H22667  10.837   4.701   9.939 -2.4232  0.5023  1.4164
  889MOL0     H22668  10.265   4.528   9.646  0.3301 -0.3379  1.1559
  889MOL0     H22669  10.234   4.324   9.530 -0.8266  2.2946 -0.6217
  889MOL0     H22670  10.322   4.025   9.309 -2.2033 -0.5784 -0.0079
  889MOL0     H22671  10.243   4.093   9.447 -3.9036 -1.0210 -2.6076
  889MOL0     H22672  10.286   4.241   9.181 -0.0054  2.6333  1.2000
  889MOL0     H22673  10.180   4.294   9.306  0.1781  0.4772  0.4471
  889MOL0     H22674  10.136   4.052   9.124  0.4255 -1.3325  0.9861
  889MOL0     H22675  10.073   4.053   9.290 -4.4478 -0.6705 -3.9791
  889MOL0     H22676  10.058   4.309   9.116  2.5233  1.4267  2.7526
  889MOL0     H22677   9.969   4.272   9.259  0.2027  0.4891  0.2025
  889MOL0     H22678   9.737   4.111   8.929 -1.7739 -0.4507  0.7427
  889MOL0     H22679  10.656   4.305   9.450  1.1508  0.8483  0.9235
  889MOL0     H22680  10.768   4.593   9.598  0.0635 -0.2152  1.6768
  889MOL0     H22681  10.759   4.445   9.703  0.6271 -0.3071 -0.1184
  889MOL0     H22682  10.798   4.436   9.529 -0.4007  2.8415 -2.6154
  890MOL0     O22683   3.927   1.510   0.406  0.2093  0.5426  0.3283
  890MOL0     C22684   3.883   1.494   0.523  0.0741  0.2541 -1.1920
  890MOL0     O22685   3.882   1.378   0.590  0.3612  0.2099 -1.1389
  890MOL0     C22686   3.923   1.261   0.541  0.6175  0.1445 -0.1740
  890MOL0     C22687   4.018   1.188   0.605  0.1587 -0.4854 -0.2048
  890MOL0     C22688   4.052   1.062   0.553  0.6777 -0.9806 -0.4511
  890MOL0     C22689   3.976   0.997   0.458  0.6791  0.1129 -0.0574
  890MOL0     O22690   4.016   0.869   0.413  0.4769  0.3301  0.1790
  890MOL0     C22691   3.927   0.763   0.456  0.3345  0.5850  0.4725
  890MOL0     C22692   3.992   0.629   0.430 -0.4559  1.5390 -0.8255
  890MOL0     C22693   4.120   0.600   0.517 -0.7930  0.5985  0.5884
  890MOL0     C22694   4.114   0.612   0.671  0.3797  0.9116  0.3780
  890MOL0     C22695   4.246   0.586   0.746 -0.3488 -0.3133 -0.6068
  890MOL0     C22696   4.296   0.434   0.755  0.5464 -0.6596  0.4995
  890MOL0     C22697   4.198   0.343   0.831  0.6701  0.1850 -0.4480
  890MOL0     C22698   4.114   0.244   0.744 -0.4994 -0.5059  0.4289
  890MOL0     N22699   4.215   0.149   0.692  0.7329 -0.4780  0.7158
  890MOL0     C22700   4.271   0.157   0.564 -1.1034 -0.0117  0.2924
  890MOL0     C22701   4.352   0.047   0.557 -0.4854  0.3125 -0.0016
  890MOL0     C22702   4.436  -0.002   0.435  0.3680  1.0835 -0.2630
  890MOL0     C22703   4.355  -0.123   0.388 -0.2452 -0.1667 -0.4494
  890MOL0     C22704   4.202  -0.086   0.355 -0.6705 -0.0371 -0.4682
  890MOL0     C22705   4.125  -0.201   0.291 -0.1089  0.1126 -1.4994
  890MOL0     O22706   4.158  -0.319   0.370  0.2540  0.4974 -0.4862
  890MOL0     C22707   4.087  -0.435   0.349  0.4397  0.1910 -0.6663
  890MOL0     C22708   3.947  -0.442   0.326  0.7646 -0.8988 -0.2556
  890MOL0     C22709   3.880  -0.561   0.328  0.8181  0.5659  0.0998
  890MOL0     C22710   3.736  -0.545   0.299 -0.0320 -0.0610 -0.5746
  890MOL0     C22711   3.949  -0.686   0.359 -0.3211  0.9255 -0.5941
  890MOL0     C22712   3.879  -0.819   0.362  0.2266  0.1915  0.0423
  890MOL0     O22713   3.964  -0.925   0.390  0.2931 -0.2185 -0.7424
  890MOL0     C22714   3.956  -1.051   0.335 -0.8337 -0.1741 -0.1554
  890MOL0     C22715   3.880  -1.100   0.224  0.0342 -1.0059  0.3523
  890MOL0     C22716   3.896  -1.228   0.176 -0.1115 -0.1074 -0.1535
  890MOL0     C22717   3.977  -1.320   0.236  1.3801  0.4393  0.2677
  890MOL0     O22718   3.975  -1.458   0.197  0.5984 -0.7736 -0.3413
  890MOL0     C22719   4.049  -1.561   0.272 -0.0360 -0.1799  0.1005
  890MOL0     C22720   4.066  -1.678   0.182  0.1876  0.0279  0.6819
  890MOL0     C22721   3.960  -1.772   0.221  0.5255  0.5678 -0.8493
  890MOL0     C22722   3.962  -1.906   0.135 -0.6862 -0.0305  0.4304
  890MOL0     C22723   3.878  -2.006   0.205  0.1030 -0.3861 -0.3750
  890MOL0     C22724   3.727  -1.984   0.199  0.0714 -0.5460 -0.1299
  890MOL0     C22725   3.637  -2.105   0.234  0.7366 -0.3751  0.5632
  890MOL0     C22726   3.676  -2.158   0.372 -0.4176 -0.2214 -0.1002
  890MOL0    Cl22727   3.797  -2.290   0.358 -0.0849 -0.1182 -0.4864
  890MOL0     C22728   4.055  -1.277   0.350  0.4211 -0.5245  1.0097
  890MOL0     C22729   4.036  -1.144   0.400 -0.1776  0.1729  0.4394
  890MOL0     O22730   3.761  -0.826   0.353  0.5618 -0.4033  0.1236
  890MOL0     C22731   4.089  -0.681   0.379  0.0751 -0.2469  0.4175
  890MOL0     C22732   4.161  -0.553   0.377  0.9503  0.7022  0.6176
  890MOL0     N22733   4.325  -0.032   0.669 -0.1427 -0.7613 -0.1636
  890MOL0     N22734   4.247   0.032   0.752 -0.2690  0.2235 -0.1905
  890MOL0     C22735   3.880   1.073   0.393  0.3802  0.3760 -0.1414
  890MOL0     C22736   3.855   1.198   0.432 -0.8000 -0.4710  0.2770
  890MOL0     C22737   3.841   1.614   0.603  0.3750  0.4052 -0.5287
  890MOL0     C22738   3.849   1.627   0.749 -0.8691  0.0359 -0.4854
  890MOL0     C22739   3.840   1.756   0.801 -0.1727  0.3099 -0.7928
  890MOL0     C22740   3.807   1.864   0.724 -0.4732 -0.4621 -0.7571
  890MOL0     O22741   3.783   1.983   0.782 -0.2859 -0.3901  0.4796
  890MOL0     C22742   3.853   2.008   0.908 -0.2562 -0.0756 -0.3040
  890MOL0     C22743   3.877   2.157   0.928  0.0134  0.1556  0.6270
  890MOL0     C22744   3.752   2.247   0.965 -0.3009  0.4680  0.7290
  890MOL0     C22745   3.794   2.389   1.000 -0.2185  1.6705  0.5177
  890MOL0     C22746   3.889   2.401   1.108 -0.3386 -0.7049  0.3314
  890MOL0     C22747   3.968   2.423   1.195  0.6879 -0.2939 -0.1232
  890MOL0     C22748   3.767   1.849   0.589  0.8106  0.9846  0.1341
  890MOL0     C22749   3.786   1.722   0.533  0.1746 -0.6624 -0.3157
  890MOL0     C22750   3.708   1.704   0.403 -0.1691  0.7772 -0.0218
  890MOL0     H22751   4.058   1.235   0.694 -1.2910 -0.4259  0.4449
  890MOL0     H22752   4.133   1.004   0.596 -0.2727 -1.8067  0.2711
  890MOL0     H22753   3.831   0.762   0.403  1.0825 -1.5304 -0.9851
  890MOL0     H22754   3.905   0.779   0.561  1.1711  0.6679  0.6468
  890MOL0     H22755   3.919   0.549   0.444  2.1845 -0.8428  0.4864
  890MOL0     H22756   4.028   0.630   0.327 -0.5474  2.1540 -0.8541
  890MOL0     H22757   4.158   0.498   0.502 -2.6589 -0.0029 -0.3781
  890MOL0     H22758   4.189   0.679   0.488  1.9747 -1.0710  2.2009
  890MOL0     H22759   4.076   0.713   0.686 -1.6906  0.0381  1.4251
  890MOL0     H22760   4.038   0.554   0.723  0.3295  0.1674 -0.4958
  890MOL0     H22761   4.249   0.623   0.849  1.7759 -0.0995 -0.6880
  890MOL0     H22762   4.334   0.631   0.698  0.2737 -0.4854  0.3376
  890MOL0     H22763   4.308   0.399   0.652 -2.0830  0.5419 -0.3096
  890MOL0     H22764   4.393   0.446   0.805 -1.2900  1.4124  3.9542
  890MOL0     H22765   4.125   0.391   0.897  0.2921 -0.9769  0.0111
  890MOL0     H22766   4.250   0.281   0.904  0.7067  0.8117  0.0725
  890MOL0     H22767   4.047   0.201   0.819  1.0363 -0.8528  1.6699
  890MOL0     H22768   4.052   0.287   0.665 -0.0668  0.4845  0.6123
  890MOL0     H22769   4.266   0.232   0.486  0.5745  1.9119  1.9110
  890MOL0     H22770   4.539  -0.028   0.462  1.1923 -0.3453 -4.1856
  890MOL0     H22771   4.453   0.071   0.355  2.6428 -1.9944 -2.8287
  890MOL0     H22772   4.400  -0.164   0.297 -1.5567  1.9388 -2.1316
  890MOL0     H22773   4.363  -0.203   0.463  0.8821 -1.6907 -2.1115
  890MOL0     H22774   4.149  -0.058   0.446 -0.2707  2.5484 -0.9564
  890MOL0     H22775   4.200  -0.005   0.282  2.2090 -1.0840 -1.8852
  890MOL0     H22776   4.020  -0.172   0.286 -0.5919 -1.6089 -2.0943
  890MOL0     H22777   4.156  -0.212   0.187 -1.0554  1.9999 -2.0303
  890MOL0     H22778   3.891  -0.351   0.304 -1.1302 -0.7170  4.2315
  890MOL0     H22779   3.709  -0.617   0.221  1.2561 -1.5812  0.3302
  890MOL0     H22780   3.701  -0.448   0.263  1.1898  0.1222 -1.3022
  890MOL0     H22781   3.680  -0.560   0.393  2.3722  2.1835  1.3632
  890MOL0     H22782   3.823  -1.024   0.172 -1.0113  1.1140  4.2317
  890MOL0     H22783   3.830  -1.270   0.101  1.3777 -0.2825 -1.4228
  890MOL0     H22784   4.153  -1.526   0.280 -0.0053  0.0313 -1.0011
  890MOL0     H22785   4.013  -1.578   0.374 -1.8335  0.3882 -0.4010
  890MOL0     H22786   4.063  -1.654   0.076 -0.5272 -1.0457  0.4399
  890MOL0     H22787   4.158  -1.737   0.193  1.0808  1.0120 -1.1870
  890MOL0     H22788   3.860  -1.727   0.223  0.1962 -0.0660  2.0074
  890MOL0     H22789   3.981  -1.786   0.328  0.1553 -1.2259 -0.9878
  890MOL0     H22790   4.062  -1.950   0.137  0.0095  1.4321 -0.3352
  890MOL0     H22791   3.922  -1.882   0.036  0.2913  1.6639  0.4116
  890MOL0     H22792   3.902  -2.090   0.139 -1.4766 -0.7977 -0.4675
  890MOL0     H22793   3.919  -2.034   0.302  1.3864  0.1291 -0.7581
  890MOL0     H22794   3.707  -1.968   0.092  1.4126  1.4317 -0.1350
  890MOL0     H22795   3.705  -1.892   0.252 -0.4297 -1.1281  0.6997
  890MOL0     H22796   3.631  -2.190   0.166 -2.5406  2.8730 -3.7625
  890MOL0     H22797   3.535  -2.065   0.238  1.1034  0.5288  1.1328
  890MOL0     H22798   3.585  -2.186   0.425  0.5967  0.8239  2.3253
  890MOL0     H22799   3.720  -2.084   0.439  0.1497  0.0114 -0.7143
  890MOL0     H22800   4.112  -1.351   0.405 -2.6586 -1.4155  3.2768
  890MOL0     H22801   4.094  -1.112   0.485  1.1446 -4.7525  1.6957
  890MOL0     H22802   4.145  -0.774   0.385 -0.0502 -0.5468 -1.9053
  890MOL0     H22803   4.266  -0.556   0.406  0.3915  0.7652  2.7439
  890MOL0     H22804   3.821   1.018   0.321 -1.9975  3.6833 -0.9856
  890MOL0     H22805   3.771   1.247   0.382  1.5358 -0.2321 -3.8322
  890MOL0     H22806   3.878   1.543   0.810  0.6303  1.8291  1.4224
  890MOL0     H22807   3.847   1.754   0.909 -2.9509  0.9832 -0.5079
  890MOL0     H22808   3.788   1.964   0.985  0.2051 -1.7597 -0.8499
  890MOL0     H22809   3.954   1.967   0.907 -0.6041 -0.9595  0.1793
  890MOL0     H22810   3.929   2.199   0.841  0.6652 -0.2446  0.8167
  890MOL0     H22811   3.941   2.162   1.016 -1.6370  1.0162  1.8435
  890MOL0     H22812   3.697   2.262   0.872 -1.2118 -1.8213  0.8441
  890MOL0     H22813   3.683   2.197   1.034 -2.6500 -0.5416 -2.1650
  890MOL0     H22814   3.698   2.432   1.031 -1.2012 -1.0812  1.6073
  890MOL0     H22815   3.839   2.423   0.906  0.4805 -0.1907  0.1395
  890MOL0     H22816   4.040   2.419   1.274  3.7075  1.9522 -2.5135
  890MOL0     H22817   3.715   1.928   0.536 -0.8529  0.1951  0.5137
  890MOL0     H22818   3.620   1.770   0.403 -0.0269  0.9644  0.3291
  890MOL0     H22819   3.782   1.714   0.322  1.5952  0.5175  1.4959
  890MOL0     H22820   3.672   1.601   0.391  0.6877  0.7126 -2.8999
  891MOL0     O22821   9.204  10.266   4.131 -0.3859  0.4556  0.3689
  891MOL0     C22822   9.130  10.335   4.198 -0.2934 -0.0060 -0.8719
  891MOL0     O22823   9.152  10.463   4.236  0.3782  0.2463 -0.5789
  891MOL0     C22824   9.274  10.512   4.208  0.0138  0.3340 -1.1232
  891MOL0     C22825   9.375  10.494   4.307  0.8407 -0.1494  0.6535
  891MOL0     C22826   9.505  10.543   4.278  0.2938  1.0445 -0.0976
  891MOL0     C22827   9.531  10.626   4.166 -0.2213  0.7609 -0.9193
  891MOL0     O22828   9.647  10.691   4.135  0.0109 -0.9300 -0.0420
  891MOL0     C22829   9.770  10.642   4.200 -0.2942 -0.0607  0.2756
  891MOL0     C22830   9.885  10.734   4.157  0.5779 -0.6092 -0.8738
  891MOL0     C22831   9.953  10.701   4.026  0.0527 -0.9294  0.0572
  891MOL0     C22832  10.039  10.813   3.969  0.4740  0.5087 -0.0903
  891MOL0     C22833  10.102  10.751   3.841 -0.1893 -0.0080  0.5610
  891MOL0     C22834  10.185  10.862   3.768 -0.5828 -0.8818  0.1190
  891MOL0     C22835  10.219  10.808   3.626 -0.1584 -0.0042  0.4600
  891MOL0     C22836  10.249  10.922   3.533 -0.4199  0.7630  0.1263
  891MOL0     N22837  10.374  10.994   3.571 -1.2435 -0.0657 -0.1325
  891MOL0     C22838  10.422  11.117   3.522  0.7271 -0.5025 -0.0666
  891MOL0     C22839  10.551  11.129   3.570  0.1434 -0.3708  0.2976
  891MOL0     C22840  10.636  11.250   3.560  0.0897  0.2774 -0.3812
  891MOL0     C22841  10.610  11.361   3.664 -0.3907 -0.4090  0.3329
  891MOL0     C22842  10.544  11.481   3.598  0.5561  1.2070  0.2055
  891MOL0     C22843  10.637  11.550   3.494  0.2089  0.9476  0.1789
  891MOL0     O22844  10.731  11.620   3.571  0.0175 -0.2233  0.0371
  891MOL0     C22845  10.789  11.730   3.529 -0.6068  0.0259  0.2526
  891MOL0     C22846  10.767  11.793   3.407 -0.5929  0.6028 -0.1857
  891MOL0     C22847  10.850  11.893   3.358 -0.4151  1.0117  0.5619
  891MOL0     C22848  10.802  11.952   3.228  0.6142  0.5449 -0.8779
  891MOL0     C22849  10.948  11.949   3.436 -1.2713 -0.1988 -1.0171
  891MOL0     C22850  11.018  12.077   3.405  0.0993  0.0243 -0.1015
  891MOL0     O22851  11.042  12.113   3.270 -0.4233 -0.3525 -0.0044
  891MOL0     C22852  11.094  12.238   3.226 -0.7345 -0.5454 -0.7417
  891MOL0     C22853  11.085  12.288   3.101  0.3197 -0.7746 -0.1405
  891MOL0     C22854  11.166  12.395   3.050  0.0339  0.2086  0.5638
  891MOL0     C22855  11.237  12.472   3.134 -0.0720  0.8491 -0.6371
  891MOL0     O22856  11.307  12.580   3.091  0.0798 -0.0046  0.2408
  891MOL0     C22857  11.425  12.556   3.004 -0.1313 -0.8163 -0.1789
  891MOL0     C22858  11.548  12.529   3.089 -0.5268 -0.1300 -1.1478
  891MOL0     C22859  11.683  12.524   3.013  0.2621 -0.1424 -0.6264
  891MOL0     C22860  11.708  12.394   2.936 -0.0331  0.1127  0.0897
  891MOL0     C22861  11.856  12.366   2.906 -0.0554  0.7445 -0.2134
  891MOL0     C22862  11.943  12.314   3.015  0.4605 -0.1019 -0.4489
  891MOL0     C22863  12.078  12.270   2.944 -0.1205  0.4591 -0.6978
  891MOL0     C22864  12.072  12.139   2.884  0.8255 -0.2636  0.1967
  891MOL0    Cl22865  12.032  12.010   3.009  0.0314 -0.7717 -0.3305
  891MOL0     C22866  11.238  12.436   3.268  0.4419  0.2278 -0.3787
  891MOL0     C22867  11.171  12.325   3.308  0.0120  0.2300 -0.4518
  891MOL0     O22868  11.041  12.148   3.503  0.3395 -0.1227 -0.5213
  891MOL0     C22869  10.963  11.889   3.562 -0.4356  1.0160 -0.2732
  891MOL0     C22870  10.885  11.781   3.599 -0.4459 -0.0081  0.1623
  891MOL0     N22871  10.584  11.010   3.637  0.0942  0.6733 -0.5149
  891MOL0     N22872  10.480  10.925   3.632 -0.2429  0.8119  0.0371
  891MOL0     C22873   9.426  10.649   4.081  0.2925  0.3860 -0.0423
  891MOL0     C22874   9.304  10.588   4.092 -0.6964 -0.8548 -1.1248
  891MOL0     C22875   9.003  10.296   4.249 -0.3829 -0.1629  1.3337
  891MOL0     C22876   8.988  10.314   4.389  1.0201  0.4838 -0.1838
  891MOL0     C22877   8.875  10.271   4.463  0.2801 -1.1628 -0.1627
  891MOL0     C22878   8.778  10.199   4.390  0.3970  1.0370 -1.0571
  891MOL0     O22879   8.671  10.149   4.463 -0.4613  0.4204 -0.6076
  891MOL0     C22880   8.537  10.138   4.424  0.1643 -0.8664  1.0454
  891MOL0     C22881   8.488  10.278   4.455 -0.8062  0.3594 -0.3296
  891MOL0     C22882   8.338  10.311   4.426  0.9082 -0.5871  0.9894
  891MOL0     C22883   8.308  10.413   4.321  0.5013  0.3486  0.6521
  891MOL0     C22884   8.357  10.365   4.190 -0.1261 -0.1216  0.0142
  891MOL0     C22885   8.393  10.323   4.077  0.3127  0.3743  0.4316
  891MOL0     C22886   8.793  10.178   4.249  0.0430  0.3890 -0.1267
  891MOL0     C22887   8.901  10.224   4.177 -0.2573  0.2933  0.7967
  891MOL0     C22888   8.904  10.179   4.028 -0.6117 -0.6835  0.1089
  891MOL0     H22889   9.356  10.442   4.401 -0.8766 -2.7273 -1.0103
  891MOL0     H22890   9.588  10.527   4.346  1.4701 -0.6877 -1.8024
  891MOL0     H22891   9.787  10.538   4.172 -1.6815 -0.1540 -0.3043
  891MOL0     H22892   9.755  10.653   4.307  0.0924 -0.3607  0.3614
  891MOL0     H22893   9.846  10.832   4.128 -4.1330 -2.3765 -1.3432
  891MOL0     H22894   9.957  10.752   4.238  0.8516 -0.4511 -1.1480
  891MOL0     H22895  10.021  10.620   4.052  0.6006 -0.6660 -0.5207
  891MOL0     H22896   9.893  10.668   3.941  0.3323  2.8253 -1.8153
  891MOL0     H22897   9.981  10.906   3.967 -1.9479 -0.8779  0.9629
  891MOL0     H22898  10.122  10.842   4.034  0.5040  2.4026 -0.9229
  891MOL0     H22899  10.020  10.720   3.775 -1.0719  2.0286  0.6269
  891MOL0     H22900  10.164  10.663   3.860 -3.3480 -2.7451 -0.7132
  891MOL0     H22901  10.114  10.945   3.764  2.1379  1.7282  1.9979
  891MOL0     H22902  10.275  10.886   3.825  0.1777 -2.1730 -0.4876
  891MOL0     H22903  10.137  10.751   3.581  1.8461 -1.1337 -1.9911
  891MOL0     H22904  10.310  10.748   3.629  1.8361  2.6264 -1.9581
  891MOL0     H22905  10.254  10.890   3.428  3.5072  0.9262  0.1023
  891MOL0     H22906  10.159  10.984   3.529 -0.7643  0.2133 -1.6914
  891MOL0     H22907  10.362  11.195   3.479 -0.0449 -0.8430  0.3686
  891MOL0     H22908  10.645  11.277   3.454  2.1936 -3.1475 -1.2158
  891MOL0     H22909  10.738  11.215   3.575 -0.7438 -1.6134  1.4723
  891MOL0     H22910  10.538  11.322   3.736 -1.4693 -1.1237 -1.0804
  891MOL0     H22911  10.701  11.394   3.715  0.1215 -3.1637  1.3460
  891MOL0     H22912  10.456  11.448   3.541  1.3529 -0.6441 -0.0409
  891MOL0     H22913  10.512  11.549   3.678 -0.9674 -2.8278  3.4396
  891MOL0     H22914  10.684  11.470   3.436 -3.4904 -1.6376  0.3847
  891MOL0     H22915  10.564  11.609   3.439 -2.4864 -1.2066  1.2046
  891MOL0     H22916  10.684  11.757   3.347  0.9624 -3.4357 -0.2189
  891MOL0     H22917  10.743  12.041   3.253  0.3428 -0.2636  1.7153
  891MOL0     H22918  10.727  11.887   3.181  1.1280  0.9474 -2.2999
  891MOL0     H22919  10.880  11.976   3.156  0.5123  3.0216 -0.2615
  891MOL0     H22920  11.020  12.238   3.030 -0.3346 -1.9893  1.2459
  891MOL0     H22921  11.167  12.428   2.947 -2.8619  3.0956  1.2599
  891MOL0     H22922  11.409  12.477   2.930  0.9777  0.4597 -1.8563
  891MOL0     H22923  11.443  12.649   2.949  0.6156 -0.5761  0.4527
  891MOL0     H22924  11.548  12.598   3.174  2.7959 -0.3097 -0.8830
  891MOL0     H22925  11.531  12.432   3.137 -2.7250  1.4098  1.4930
  891MOL0     H22926  11.758  12.535   3.091  0.6200  4.5287 -1.3551
  891MOL0     H22927  11.682  12.615   2.951  1.0467 -1.0276 -1.9944
  891MOL0     H22928  11.656  12.393   2.840  1.4423  0.5250 -0.7532
  891MOL0     H22929  11.675  12.307   2.993 -1.1284  0.6844  0.3501
  891MOL0     H22930  11.850  12.287   2.830  4.3026 -0.2798  0.2544
  891MOL0     H22931  11.901  12.455   2.863  0.0856  0.8301  0.1077
  891MOL0     H22932  11.900  12.221   3.053  4.1129 -0.9592  2.2005
  891MOL0     H22933  11.966  12.373   3.105 -1.4986 -2.0117  1.4268
  891MOL0     H22934  12.158  12.272   3.018  2.0052  2.4358 -2.8796
  891MOL0     H22935  12.105  12.343   2.867 -0.8497  0.5387 -0.8910
  891MOL0     H22936  12.155  12.121   2.816 -0.0760  1.2755 -1.4092
  891MOL0     H22937  11.993  12.145   2.808 -1.2802  1.4266  2.3637
  891MOL0     H22938  11.292  12.501   3.336  0.2486  2.6103 -2.3602
  891MOL0     H22939  11.172  12.310   3.416  1.0587  0.3053 -0.4481
  891MOL0     H22940  11.041  11.926   3.628  0.7113  1.4401 -1.8019
  891MOL0     H22941  10.916  11.738   3.694  1.0741  4.5130  2.0058
  891MOL0     H22942   9.442  10.708   3.991  2.4768 -3.9548 -2.8730
  891MOL0     H22943   9.228  10.602   4.016 -0.4920  0.1291 -1.1602
  891MOL0     H22944   9.071  10.360   4.442 -0.1381 -0.7782  3.0073
  891MOL0     H22945   8.855  10.274   4.570  1.3025 -2.5185  0.0959
  891MOL0     H22946   8.539  10.116   4.317  0.3828 -3.9429  1.5733
  891MOL0     H22947   8.482  10.064   4.484 -0.4890 -0.2194  1.2578
  891MOL0     H22948   8.553  10.343   4.395 -0.7631 -1.3500 -2.2456
  891MOL0     H22949   8.525  10.294   4.557 -2.1390 -3.2770  0.9059
  891MOL0     H22950   8.294  10.216   4.397  0.9364 -0.1932 -0.3822
  891MOL0     H22951   8.303  10.349   4.523 -1.0326 -0.0595  0.1299
  891MOL0     H22952   8.373  10.499   4.337 -0.8316  1.4590  0.2370
  891MOL0     H22953   8.202  10.439   4.320 -0.9662 -4.5440 -0.4545
  891MOL0     H22954   8.415  10.290   3.978  0.8245 -0.4112  0.8002
  891MOL0     H22955   8.705  10.130   4.206  1.0305 -1.9399  0.3347
  891MOL0     H22956   8.967  10.090   4.030 -1.7211 -1.7412 -3.7039
  891MOL0     H22957   8.807  10.151   3.986 -0.5935  0.4160 -0.7175
  891MOL0     H22958   8.945  10.257   3.963 -1.5439  0.1028  0.4408
  892MOL0     O22959   4.525   9.364   7.962 -0.4797  0.9668 -0.0218
  892MOL0     C22960   4.610   9.450   7.967 -0.4603  0.0713  0.5282
  892MOL0     O22961   4.741   9.438   7.998  0.5105  0.4148  0.6931
  892MOL0     C22962   4.793   9.310   8.016 -1.0658 -0.2644  1.0668
  892MOL0     C22963   4.893   9.295   8.112 -0.3415 -0.4988  0.8162
  892MOL0     C22964   4.956   9.180   8.144 -0.0829  0.4669 -0.7289
  892MOL0     C22965   4.930   9.059   8.067  0.2642 -0.2706 -0.1026
  892MOL0     O22966   5.009   8.952   8.089 -0.5838 -0.5028  0.5563
  892MOL0     C22967   4.984   8.821   8.036  0.4185 -0.9237  0.7236
  892MOL0     C22968   5.084   8.796   7.925 -0.2024  0.1263 -0.6947
  892MOL0     C22969   5.123   8.644   7.920 -0.2576  1.2043  0.1085
  892MOL0     C22970   5.220   8.602   8.023 -0.3144 -0.7309 -0.1758
  892MOL0     C22971   5.259   8.463   8.004 -0.9449  1.0276 -1.0319
  892MOL0     C22972   5.383   8.408   8.099 -0.0128  0.1555  1.1596
  892MOL0     C22973   5.517   8.395   8.018  0.5922  0.4156 -0.1271
  892MOL0     C22974   5.515   8.279   7.912 -0.6747  0.5602 -0.4174
  892MOL0     N22975   5.517   8.141   7.964  0.4566 -0.1534 -0.3185
  892MOL0     C22976   5.618   8.100   8.041 -0.3940  0.6723  0.1854
  892MOL0     C22977   5.574   7.969   8.062  0.3702 -0.8478 -0.8133
  892MOL0     C22978   5.643   7.877   8.162  0.6208  0.2262  0.1114
  892MOL0     C22979   5.584   7.738   8.142 -0.9871 -0.1616 -0.0586
  892MOL0     C22980   5.642   7.638   8.238  0.4475 -0.4315 -0.1061
  892MOL0     C22981   5.585   7.498   8.203  0.1541 -0.4037  0.2255
  892MOL0     O22982   5.625   7.402   8.302  0.3608 -0.3592  0.3500
  892MOL0     C22983   5.534   7.305   8.324 -0.0137  0.7055 -0.0957
  892MOL0     C22984   5.482   7.232   8.213  0.9438 -0.6530 -0.5199
  892MOL0     C22985   5.394   7.125   8.221  0.1478 -0.4372  0.4035
  892MOL0     C22986   5.341   7.060   8.097 -0.1097  0.1695 -0.0048
  892MOL0     C22987   5.343   7.089   8.349 -0.1484  0.1002 -0.2248
  892MOL0     C22988   5.247   6.980   8.377  0.0741 -0.0708 -0.3380
  892MOL0     O22989   5.191   6.984   8.504  0.0264 -0.4145 -0.0044
  892MOL0     C22990   5.117   6.876   8.552  0.5967  0.0406  0.5944
  892MOL0     C22991   5.162   6.743   8.553 -0.0865  0.3081  0.2512
  892MOL0     C22992   5.076   6.634   8.596  0.4469  0.1021  0.5290
  892MOL0     C22993   4.940   6.668   8.624  0.8509 -0.8019 -0.6177
  892MOL0     O22994   4.852   6.573   8.662  0.6077  1.1889 -0.5241
  892MOL0     C22995   4.722   6.559   8.601 -0.5841  0.2044  0.1596
  892MOL0     C22996   4.759   6.528   8.456 -0.3119  0.0070  1.0770
  892MOL0     C22997   4.649   6.450   8.381 -0.3425  0.0012 -0.5279
  892MOL0     C22998   4.527   6.529   8.366  0.1592  0.0482  0.4701
  892MOL0     C22999   4.405   6.472   8.290 -0.8139 -0.7170  0.4839
  892MOL0     C23000   4.349   6.352   8.376 -0.7437  0.1337 -0.6316
  892MOL0     C23001   4.206   6.315   8.328  0.9626  0.3284 -0.1034
  892MOL0     C23002   4.137   6.219   8.426  1.3494  0.6271 -0.1794
  892MOL0    Cl23003   4.122   6.273   8.595  0.6471 -0.5621  0.0644
  892MOL0     C23004   4.894   6.808   8.620  0.2841 -0.1091  0.2412
  892MOL0     C23005   4.980   6.906   8.578  0.1750  0.2415  0.0408
  892MOL0     O23006   5.216   6.896   8.292 -0.7500  0.3791  0.1704
  892MOL0     C23007   5.403   7.160   8.461 -0.8702 -0.1308 -0.0777
  892MOL0     C23008   5.498   7.267   8.444  0.2264  0.3261  0.2059
  892MOL0     N23009   5.456   7.941   7.987 -0.0154  0.5445  0.4734
  892MOL0     N23010   5.415   8.052   7.938 -0.2944  0.3153 -0.0343
  892MOL0     C23011   4.843   9.067   7.967 -0.3991 -0.6989  0.3507
  892MOL0     C23012   4.764   9.187   7.946  0.4088 -0.5804 -0.0853
  892MOL0     C23013   4.570   9.582   7.916  0.6602 -0.2964  1.1889
  892MOL0     C23014   4.471   9.596   7.821  0.2933  0.3269  0.3215
  892MOL0     C23015   4.440   9.725   7.771  0.2097  0.3700 -0.6672
  892MOL0     C23016   4.512   9.838   7.813 -1.3956 -0.6726  0.2473
  892MOL0     O23017   4.476   9.959   7.764  0.0354  0.1836 -0.2252
  892MOL0     C23018   4.563  10.078   7.769  0.4536 -0.0861  0.1369
  892MOL0     C23019   4.529  10.168   7.652  0.1683 -0.5979 -0.7684
  892MOL0     C23020   4.623  10.285   7.617 -0.0396  0.5578 -0.0136
  892MOL0     C23021   4.563  10.385   7.514  0.2725 -0.1979 -0.2230
  892MOL0     C23022   4.505  10.324   7.395  0.6639 -0.6909 -0.0366
  892MOL0     C23023   4.461  10.289   7.289  0.6329 -0.2681  0.1664
  892MOL0     C23024   4.606   9.820   7.914  0.5054 -0.3220  0.1104
  892MOL0     C23025   4.624   9.698   7.973 -0.5039 -0.2511 -1.3326
  892MOL0     C23026   4.715   9.703   8.093 -0.3392 -0.3341  0.1027
  892MOL0     H23027   4.912   9.377   8.181 -3.0508  0.2573  0.8006
  892MOL0     H23028   5.017   9.174   8.234 -3.0572 -3.8016  1.3690
  892MOL0     H23029   4.882   8.816   7.997  0.2651 -1.6068  1.1997
  892MOL0     H23030   5.005   8.743   8.110  1.4383 -0.5049  0.8830
  892MOL0     H23031   5.048   8.838   7.830 -1.5538 -1.7059 -1.0675
  892MOL0     H23032   5.175   8.854   7.938  0.0672 -0.5864  0.7571
  892MOL0     H23033   5.037   8.577   7.920 -0.5478  1.4971 -2.3311
  892MOL0     H23034   5.175   8.629   7.825  0.4893  2.4332  0.2979
  892MOL0     H23035   5.309   8.666   8.018 -0.1559 -0.8878  0.4854
  892MOL0     H23036   5.188   8.619   8.126 -0.8663  1.2847 -0.6369
  892MOL0     H23037   5.300   8.443   7.905  1.6117 -3.7255  0.6542
  892MOL0     H23038   5.173   8.397   8.013  1.6146 -2.3909  0.8689
  892MOL0     H23039   5.388   8.470   8.189  3.5020  1.0059  0.5272
  892MOL0     H23040   5.357   8.305   8.123 -0.8705 -0.3237 -1.5244
  892MOL0     H23041   5.593   8.382   8.097 -1.5376  0.9970  2.1561
  892MOL0     H23042   5.553   8.488   7.973  2.3209  0.3330  0.9820
  892MOL0     H23043   5.427   8.282   7.847 -0.7317 -0.4055 -0.4051
  892MOL0     H23044   5.601   8.288   7.846  2.2910  0.0617  3.0437
  892MOL0     H23045   5.696   8.156   8.091 -2.0184  1.3846  2.0484
  892MOL0     H23046   5.648   7.913   8.265  3.3576  1.5970 -0.4084
  892MOL0     H23047   5.747   7.864   8.130 -0.4185 -2.0698 -2.7544
  892MOL0     H23048   5.475   7.734   8.147 -1.2310  3.5688  0.5263
  892MOL0     H23049   5.617   7.707   8.042 -4.2114  0.6406 -1.4879
  892MOL0     H23050   5.750   7.634   8.253  0.1410 -0.1628  2.6884
  892MOL0     H23051   5.602   7.661   8.337  0.9059 -1.3272  0.2966
  892MOL0     H23052   5.477   7.509   8.190  0.1634 -0.4573  0.1005
  892MOL0     H23053   5.621   7.466   8.104  0.9006  2.4947 -0.5495
  892MOL0     H23054   5.503   7.266   8.112  2.8986 -1.9205 -0.5909
  892MOL0     H23055   5.360   6.953   8.082  1.0091  0.2438  0.7307
  892MOL0     H23056   5.379   7.119   8.014 -0.6672 -0.7289 -0.9158
  892MOL0     H23057   5.233   7.078   8.100  0.2480  2.6373 -0.2969
  892MOL0     H23058   5.265   6.738   8.520  0.0951 -0.8137  0.9316
  892MOL0     H23059   5.105   6.529   8.600  0.4242  0.0114 -1.0514
  892MOL0     H23060   4.668   6.471   8.639 -1.3922  0.6680  0.1001
  892MOL0     H23061   4.661   6.649   8.613 -2.1888 -0.7480 -0.5106
  892MOL0     H23062   4.793   6.610   8.391  0.8092 -1.4884 -0.3112
  892MOL0     H23063   4.843   6.459   8.467  0.7516  1.2586  1.1327
  892MOL0     H23064   4.625   6.353   8.427  2.2398 -1.1252 -1.3729
  892MOL0     H23065   4.698   6.417   8.289  0.2566 -1.4604  0.2835
  892MOL0     H23066   4.555   6.628   8.329 -4.9209  1.1615 -1.1484
  892MOL0     H23067   4.493   6.546   8.469 -0.4482 -2.0036  0.6438
  892MOL0     H23068   4.338   6.554   8.264  1.0004 -0.1771 -3.0368
  892MOL0     H23069   4.438   6.433   8.193 -0.4348  0.2825  0.2062
  892MOL0     H23070   4.354   6.364   8.484  5.0215  0.7648 -0.6707
  892MOL0     H23071   4.403   6.258   8.358  1.0504  1.4203 -2.3905
  892MOL0     H23072   4.222   6.259   8.236  3.3856  0.6111  0.0692
  892MOL0     H23073   4.140   6.400   8.308 -0.2016 -0.5947 -0.2884
  892MOL0     H23074   4.190   6.123   8.432  0.5740 -0.1383 -3.5107
  892MOL0     H23075   4.035   6.192   8.398  0.2366  0.3629  3.6711
  892MOL0     H23076   4.796   6.840   8.656 -0.5206 -0.8390 -1.2056
  892MOL0     H23077   4.953   7.011   8.591  0.5277  0.2657  0.6078
  892MOL0     H23078   5.378   7.138   8.564  0.0640 -0.4219  0.0972
  892MOL0     H23079   5.543   7.306   8.535  2.1427 -2.2541  0.4850
  892MOL0     H23080   4.832   8.988   7.893  5.1771  0.1505 -1.8513
  892MOL0     H23081   4.683   9.188   7.874 -0.1635  2.2110  0.4742
  892MOL0     H23082   4.412   9.514   7.782 -0.8205  1.0592  0.4371
  892MOL0     H23083   4.360   9.741   7.700  0.2120  2.7234 -0.2241
  892MOL0     H23084   4.535  10.140   7.854 -1.5441  1.2672 -1.4358
  892MOL0     H23085   4.669  10.050   7.767  0.4596 -0.0601  0.1040
  892MOL0     H23086   4.435  10.215   7.682  0.7667 -0.5766  1.1971
  892MOL0     H23087   4.512  10.103   7.566 -2.9255 -1.6524  0.5055
  892MOL0     H23088   4.659  10.332   7.709 -0.0877 -2.6139  1.7777
  892MOL0     H23089   4.714  10.243   7.575 -0.9355 -0.6866 -0.7989
  892MOL0     H23090   4.639  10.455   7.477 -2.2066  1.6288 -2.3153
  892MOL0     H23091   4.496  10.449   7.573 -0.7818 -2.2106  0.8535
  892MOL0     H23092   4.439  10.235   7.199  2.1592 -1.3714  0.4229
  892MOL0     H23093   4.651   9.910   7.953  1.0057 -2.5370  5.5165
  892MOL0     H23094   4.720   9.799   8.144 -1.4275 -1.3940  2.3256
  892MOL0     H23095   4.678   9.635   8.171 -1.5801  1.6629  1.3240
  892MOL0     H23096   4.817   9.673   8.067  0.1095 -0.5714  1.9831
  893MOL0     O23097  10.331   7.998   9.326 -0.1182 -0.1584 -0.2161
  893MOL0     C23098  10.402   7.930   9.254  0.2260 -0.5137  0.5180
  893MOL0     O23099  10.490   7.843   9.304  0.2873  0.1494  0.6951
  893MOL0     C23100  10.468   7.816   9.441  0.2842 -0.1448 -0.2538
  893MOL0     C23101  10.499   7.901   9.549  0.3484  0.0650  0.6399
  893MOL0     C23102  10.480   7.857   9.681 -0.1451  0.1652  1.4829
  893MOL0     C23103  10.446   7.730   9.711  0.3908  0.9511 -0.6073
  893MOL0     O23104  10.454   7.674   9.838 -0.1576  0.3271 -0.5057
  893MOL0     C23105  10.468   7.764   9.944  0.1701  0.3931  0.1801
  893MOL0     C23106  10.422   7.689  10.072  1.4277  0.2654  0.1210
  893MOL0     C23107  10.463   7.542  10.083  0.0572  0.4779  0.1053
  893MOL0     C23108  10.596   7.527  10.154  0.8842 -1.1521 -0.0355
  893MOL0     C23109  10.634   7.380  10.150 -0.9817  0.2315 -0.3122
  893MOL0     C23110  10.769   7.353  10.226 -0.0298  0.5895  0.2734
  893MOL0     C23111  10.784   7.201  10.254 -0.0222  0.2675  0.2665
  893MOL0     C23112  10.933   7.157  10.278 -0.2370 -0.1053 -0.4875
  893MOL0     N23113  10.948   7.019  10.251 -0.3084  0.5939 -0.7227
  893MOL0     C23114  10.922   6.918  10.335  0.5778 -0.1352  0.2453
  893MOL0     C23115  10.984   6.811  10.275 -1.0889 -0.7000  0.8240
  893MOL0     C23116  10.974   6.682  10.333 -0.2218  0.6990 -0.2622
  893MOL0     C23117  11.089   6.655  10.429  0.1385 -0.0620  0.3320
  893MOL0     C23118  11.048   6.520  10.504  1.5089  0.9281 -0.3192
  893MOL0     C23119  11.156   6.483  10.602  0.1469 -0.2022  0.1171
  893MOL0     O23120  11.114   6.362  10.668 -0.2936  0.2783  0.8308
  893MOL0     C23121  11.184   6.281  10.755 -0.5037  0.1588 -0.1135
  893MOL0     C23122  11.104   6.172  10.803 -0.2842 -0.8779  0.5034
  893MOL0     C23123  11.144   6.084  10.901  0.3743 -0.5929 -0.3512
  893MOL0     C23124  11.047   5.978  10.941  0.1810  0.0924 -0.1690
  893MOL0     C23125  11.274   6.098  10.953  1.6987  0.4942  0.7005
  893MOL0     C23126  11.329   6.006  11.058 -0.1941  0.8792 -0.4553
  893MOL0     O23127  11.443   6.046  11.125  1.4955 -0.6700  0.0476
  893MOL0     C23128  11.466   6.015  11.256  0.6728  0.0685 -0.1717
  893MOL0     C23129  11.481   5.879  11.304  0.1045 -0.4519  0.0795
  893MOL0     C23130  11.505   5.851  11.437 -0.3696  0.1280 -0.3694
  893MOL0     C23131  11.522   5.950  11.525  0.0296  0.2206 -0.5469
  893MOL0     O23132  11.552   5.903  11.644  0.1128  0.6727 -1.0551
  893MOL0     C23133  11.435   5.912  11.728 -0.0857 -0.4856  0.7139
  893MOL0     C23134  11.425   5.803  11.837  0.0198 -0.5023  0.3281
  893MOL0     C23135  11.367   5.670  11.782  0.6938  0.5502 -0.4449
  893MOL0     C23136  11.404   5.554  11.880 -0.5852  0.1346  0.3263
  893MOL0     C23137  11.308   5.431  11.883  0.4998 -0.2210  0.0438
  893MOL0     C23138  11.333   5.341  11.765 -0.0699  0.6719 -0.4230
  893MOL0     C23139  11.239   5.222  11.733  0.7559  0.6391  0.2792
  893MOL0     C23140  11.087   5.246  11.732  0.5263  0.0661  0.1397
  893MOL0    Cl23141  11.008   5.121  11.626 -0.4636  0.2518  0.1873
  893MOL0     C23142  11.531   6.081  11.481  0.4056 -0.3218 -0.2877
  893MOL0     C23143  11.485   6.123  11.349 -0.2930  0.8781 -0.0772
  893MOL0     O23144  11.272   5.901  11.088 -0.0676 -0.1071 -0.0045
  893MOL0     C23145  11.349   6.204  10.909 -0.2885 -0.7457  0.7951
  893MOL0     C23146  11.313   6.286  10.801 -0.2223 -1.7836 -0.0232
  893MOL0     N23147  11.047   6.848  10.156 -0.9275 -0.7522 -0.1014
  893MOL0     N23148  11.022   6.979  10.147  0.4073 -0.2465  0.0893
  893MOL0     C23149  10.409   7.646   9.614  0.1869  0.7836  0.5902
  893MOL0     C23150  10.422   7.687   9.481  0.3737 -0.0834  0.9364
  893MOL0     C23151  10.355   7.912   9.116  0.0543  0.5207 -1.3494
  893MOL0     C23152  10.366   7.776   9.063  0.4639  0.4737  0.3401
  893MOL0     C23153  10.320   7.748   8.937 -0.4357  0.0851 -0.3332
  893MOL0     C23154  10.260   7.855   8.863  0.3481  0.3567 -0.6251
  893MOL0     O23155  10.215   7.820   8.740  0.0764 -0.6171 -0.1409
  893MOL0     C23156  10.324   7.837   8.646  0.2918  0.6981  0.5406
  893MOL0     C23157  10.326   7.971   8.568  0.1714  0.1650  0.8351
  893MOL0     C23158  10.188   8.010   8.508 -0.6348  1.1466 -0.3809
  893MOL0     C23159  10.198   8.146   8.446  0.2341 -0.2768  1.4682
  893MOL0     C23160  10.273   8.156   8.317  0.1925  0.2254 -1.0827
  893MOL0     C23161  10.339   8.153   8.217 -0.8456 -0.4835 -1.4263
  893MOL0     C23162  10.245   7.988   8.916  0.0652 -0.0451  0.0780
  893MOL0     C23163  10.290   8.012   9.040  1.7119  0.0201  0.7508
  893MOL0     C23164  10.248   8.153   9.083 -0.8397  1.3816  0.6043
  893MOL0     H23165  10.515   8.008   9.540 -0.1998 -0.0317 -2.5620
  893MOL0     H23166  10.498   7.936   9.753 -2.2977  0.4320  1.7801
  893MOL0     H23167  10.418   7.857   9.918 -2.4718 -1.2579 -1.1613
  893MOL0     H23168  10.571   7.792   9.964  0.1728  1.0803 -0.7850
  893MOL0     H23169  10.458   7.757  10.151 -2.0867  0.7091  1.5462
  893MOL0     H23170  10.313   7.697  10.081  1.0877 -1.4986 -1.7533
  893MOL0     H23171  10.391   7.469  10.122  0.2810 -0.7968 -1.7432
  893MOL0     H23172  10.480   7.490   9.989  1.2054 -1.0522  1.1174
  893MOL0     H23173  10.661   7.601  10.106 -4.1653  1.3234 -4.0414
  893MOL0     H23174  10.571   7.549  10.259 -5.4420 -2.5464 -0.8132
  893MOL0     H23175  10.643   7.341  10.048 -0.0079 -0.3455 -0.0165
  893MOL0     H23176  10.557   7.327  10.207 -2.1130  1.2337 -0.8798
  893MOL0     H23177  10.847   7.396  10.162 -1.6369  1.7833 -0.9591
  893MOL0     H23178  10.768   7.405  10.322 -1.1596  0.4026  0.3806
  893MOL0     H23179  10.757   7.151  10.160  2.4377  1.9393 -1.4689
  893MOL0     H23180  10.724   7.174  10.341  0.1495  2.5472  1.1637
  893MOL0     H23181  11.002   7.218  10.219  0.2657 -0.2557 -0.0742
  893MOL0     H23182  10.965   7.167  10.383  2.3062  1.4187 -1.3074
  893MOL0     H23183  10.862   6.931  10.424 -1.6916 -3.9598 -0.4954
  893MOL0     H23184  10.992   6.623  10.243  0.5332  0.4688  0.0314
  893MOL0     H23185  10.876   6.671  10.379 -0.2080  0.5895 -0.2579
  893MOL0     H23186  11.186   6.655  10.379  0.4575  0.7261  0.9367
  893MOL0     H23187  11.086   6.733  10.506 -0.4322  0.9098 -0.6554
  893MOL0     H23188  10.956   6.522  10.563  1.5747 -2.4021  0.1001
  893MOL0     H23189  11.034   6.429  10.445  0.2887  0.4739  0.6494
  893MOL0     H23190  11.245   6.458  10.545 -1.6672 -4.9241 -1.1601
  893MOL0     H23191  11.172   6.561  10.677 -0.7496 -1.0707  1.2698
  893MOL0     H23192  11.005   6.165  10.760  1.5282 -2.0786 -3.9704
  893MOL0     H23193  11.030   5.983  11.049 -1.0354  1.2384 -0.3958
  893MOL0     H23194  11.087   5.878  10.921 -2.3469 -1.0862  0.2482
  893MOL0     H23195  10.947   5.989  10.899  0.5678  0.8691 -0.9263
  893MOL0     H23196  11.470   5.806  11.224  3.9777 -2.6899  1.3289
  893MOL0     H23197  11.513   5.747  11.468  4.2519  1.2179  3.3689
  893MOL0     H23198  11.436   6.013  11.768  0.4510 -1.5906  3.7618
  893MOL0     H23199  11.342   5.897  11.672  0.5129  0.5989 -0.6185
  893MOL0     H23200  11.527   5.780  11.870  0.0179  0.0700  0.7528
  893MOL0     H23201  11.367   5.833  11.924 -0.6371 -0.6860 -0.0377
  893MOL0     H23202  11.401   5.651  11.680 -2.9609  0.8387 -1.8545
  893MOL0     H23203  11.262   5.672  11.753 -0.2981 -0.7526  2.6296
  893MOL0     H23204  11.396   5.592  11.982 -2.5117 -1.1014  0.7068
  893MOL0     H23205  11.505   5.524  11.851  0.1712  0.2116  2.6684
  893MOL0     H23206  11.303   5.368  11.973  0.7116 -1.3999 -0.7484
  893MOL0     H23207  11.209   5.474  11.868 -0.3806 -2.3475 -0.6980
  893MOL0     H23208  11.433   5.300  11.784 -0.6784 -0.6160  0.0857
  893MOL0     H23209  11.342   5.398  11.671 -0.9246  0.9021 -0.3717
  893MOL0     H23210  11.248   5.139  11.804 -0.7313 -2.9260 -3.2955
  893MOL0     H23211  11.264   5.187  11.632 -0.3745 -1.3347  0.6218
  893MOL0     H23212  11.060   5.346  11.696  0.8582 -0.3351 -1.2728
  893MOL0     H23213  11.056   5.241  11.837 -0.0670 -2.2632 -0.1013
  893MOL0     H23214  11.570   6.150  11.556  0.0167 -0.3224 -0.0822
  893MOL0     H23215  11.498   6.228  11.327 -2.0856  1.2623  0.5565
  893MOL0     H23216  11.444   6.230  10.955 -0.1774 -1.6583  1.1039
  893MOL0     H23217  11.373   6.370  10.766 -3.3648  0.5990 -0.1740
  893MOL0     H23218  10.379   7.547   9.646 -2.4975  2.2135  2.9424
  893MOL0     H23219  10.382   7.616   9.410 -3.1625  2.4469  0.1787
  893MOL0     H23220  10.420   7.694   9.109 -0.4561  0.1641  0.8695
  893MOL0     H23221  10.316   7.645   8.904 -1.8714  0.3220 -0.9955
  893MOL0     H23222  10.422   7.834   8.694 -0.1731  0.6624  1.5083
  893MOL0     H23223  10.312   7.757   8.572  1.6857 -2.3400  3.3389
  893MOL0     H23224  10.407   7.964   8.494 -1.5991  1.5617 -1.3530
  893MOL0     H23225  10.354   8.049   8.639 -1.2265  0.9158  0.5902
  893MOL0     H23226  10.173   7.925   8.441  2.6328 -0.9439  1.2733
  893MOL0     H23227  10.125   8.008   8.598  2.1958 -1.6480  1.7870
  893MOL0     H23228  10.259   8.212   8.508  2.0754  1.2743 -1.7435
  893MOL0     H23229  10.102   8.193   8.421  0.6303  0.1062  0.6340
  893MOL0     H23230  10.401   8.181   8.135  1.2987  1.8456  0.8232
  893MOL0     H23231  10.198   8.062   8.854 -1.6337 -0.3153  0.9874
  893MOL0     H23232  10.285   8.170   9.185  1.5040  1.4258 -0.1819
  893MOL0     H23233  10.291   8.231   9.019 -1.3681  0.8777 -0.3887
  893MOL0     H23234  10.139   8.147   9.094 -0.5498 -4.1360  4.3257
  894MOL0     O23235   0.206   6.537  11.044 -0.6930  0.3192 -0.2136
  894MOL0     C23236   0.331   6.521  11.063 -0.5251  0.7932  0.1635
  894MOL0     O23237   0.399   6.408  11.034  0.5580 -0.0227 -0.7878
  894MOL0     C23238   0.323   6.300  11.002 -0.3994  0.2497  0.3502
  894MOL0     C23239   0.246   6.231  11.089  1.8590  0.3230  0.6471
  894MOL0     C23240   0.178   6.123  11.040 -0.1430 -0.4471 -0.0633
  894MOL0     C23241   0.188   6.075  10.905  1.1738 -0.2963 -0.2256
  894MOL0     O23242   0.131   5.957  10.860  0.4305  0.5961  0.0405
  894MOL0     C23243   0.139   5.849  10.951 -0.3916  0.8585 -0.5418
  894MOL0     C23244   0.146   5.723  10.870 -0.1633 -0.1400  0.5052
  894MOL0     C23245   0.295   5.691  10.846 -0.7815  0.6728  1.0751
  894MOL0     C23246   0.298   5.551  10.802 -0.2072  0.5577  0.3114
  894MOL0     C23247   0.318   5.449  10.925 -0.0681  0.3924 -0.4737
  894MOL0     C23248   0.319   5.302  10.868  0.3355  0.4448  0.4651
  894MOL0     C23249   0.368   5.208  10.973 -0.2859  0.2731 -1.0003
  894MOL0     C23250   0.369   5.070  10.900  0.6702 -0.5643  0.2724
  894MOL0     N23251   0.370   4.961  10.993 -0.0947  0.0862 -0.5181
  894MOL0     C23252   0.264   4.865  11.004 -0.6685 -0.1765 -0.2417
  894MOL0     C23253   0.327   4.759  11.060 -0.0707  0.6034 -0.6265
  894MOL0     C23254   0.265   4.630  11.106  1.1330  0.2380 -0.1604
  894MOL0     C23255   0.181   4.567  10.995  1.3775 -0.2821  0.1233
  894MOL0     C23256   0.126   4.420  11.029 -1.2961  0.7812 -0.2513
  894MOL0     C23257  -0.012   4.421  11.111 -0.5833  0.0753 -0.6863
  894MOL0     O23258   0.018   4.460  11.241 -0.0943  0.0184  0.7825
  894MOL0     C23259  -0.081   4.485  11.332 -0.0270 -0.5361 -0.4907
  894MOL0     C23260  -0.216   4.496  11.317 -0.2943  0.3442 -0.0438
  894MOL0     C23261  -0.310   4.513  11.414 -0.6067 -0.3054 -0.1171
  894MOL0     C23262  -0.452   4.517  11.369 -0.6698 -0.4933  0.5436
  894MOL0     C23263  -0.266   4.539  11.544 -1.0212  0.9436 -0.0173
  894MOL0     C23264  -0.339   4.563  11.669 -0.0245 -0.0756 -0.4926
  894MOL0     O23265  -0.275   4.538  11.789 -0.2782 -0.6052  0.0980
  894MOL0     C23266  -0.337   4.565  11.905 -0.0847  0.1119  0.0873
  894MOL0     C23267  -0.475   4.558  11.930 -0.0570  0.3201  0.7627
  894MOL0     C23268  -0.524   4.580  12.056 -0.3772 -0.4226 -0.0162
  894MOL0     C23269  -0.440   4.621  12.158  0.1512 -0.4006 -0.2816
  894MOL0     O23270  -0.480   4.641  12.290  0.0670 -0.7324  0.9353
  894MOL0     C23271  -0.590   4.574  12.351 -0.1517 -1.5911  0.0702
  894MOL0     C23272  -0.600   4.419  12.341  0.0707  0.5007 -0.2135
  894MOL0     C23273  -0.479   4.338  12.394 -0.4595 -0.5147  0.1858
  894MOL0     C23274  -0.491   4.306  12.541 -0.0467 -0.2642  0.3050
  894MOL0     C23275  -0.363   4.229  12.590 -0.6325 -0.3091  0.1297
  894MOL0     C23276  -0.372   4.078  12.556  0.4553 -0.6053  0.7701
  894MOL0     C23277  -0.244   3.997  12.585 -0.6183 -0.1281  0.5790
  894MOL0     C23278  -0.121   4.025  12.493  0.1319 -0.2148  0.2459
  894MOL0    Cl23279  -0.155   3.942  12.337 -0.0370 -0.2500 -0.2757
  894MOL0     C23280  -0.300   4.636  12.137  0.4356  0.7502  0.1734
  894MOL0     C23281  -0.250   4.598  12.013 -0.9033  0.1284  0.3722
  894MOL0     O23282  -0.440   4.625  11.655  0.4160 -0.4005  0.0287
  894MOL0     C23283  -0.125   4.517  11.570  0.1904 -0.3277 -0.1712
  894MOL0     C23284  -0.032   4.491  11.465  0.1295  0.2373  0.7163
  894MOL0     N23285   0.464   4.780  11.066  0.3693 -0.0954 -0.5614
  894MOL0     N23286   0.487   4.902  11.029  0.9774  0.4588 -0.7254
  894MOL0     C23287   0.263   6.144  10.818  0.9614 -1.1641 -1.0468
  894MOL0     C23288   0.330   6.257  10.866  0.0755 -0.7269 -0.0364
  894MOL0     C23289   0.421   6.634  11.093 -0.6051  0.6612  0.3229
  894MOL0     C23290   0.543   6.593  11.162 -0.5058  0.0112  0.4475
  894MOL0     C23291   0.643   6.686  11.187  0.2905  0.1496 -0.1591
  894MOL0     C23292   0.622   6.816  11.154 -0.1758 -0.8681  0.1198
  894MOL0     O23293   0.728   6.902  11.180 -0.1044  0.1972  0.1649
  894MOL0     C23294   0.779   6.983  11.072  0.1723  0.0943  0.4257
  894MOL0     C23295   0.927   7.036  11.089 -0.1252  0.0292  1.1464
  894MOL0     C23296   0.954   7.101  11.221 -0.4835  0.0678  0.2250
  894MOL0     C23297   1.014   6.985  11.311 -0.1636 -0.4627  0.3407
  894MOL0     C23298   1.156   6.988  11.307 -1.0242 -0.2144 -0.6559
  894MOL0     C23299   1.283   6.973  11.287  0.1956  0.9723 -0.2144
  894MOL0     C23300   0.500   6.862  11.096 -0.0956  0.4913  0.0531
  894MOL0     C23301   0.399   6.767  11.062 -0.1245 -0.1547  0.1536
  894MOL0     C23302   0.269   6.818  10.997 -0.2303  0.8919 -0.3904
  894MOL0     H23303   0.237   6.266  11.192  1.1032 -1.0814  1.0886
  894MOL0     H23304   0.123   6.068  11.116 -1.3358 -1.2351 -1.4350
  894MOL0     H23305   0.044   5.835  11.005  1.1535  1.2473  2.5042
  894MOL0     H23306   0.223   5.859  11.021 -1.9277  1.8055  1.2638
  894MOL0     H23307   0.093   5.649  10.931 -1.8697 -0.0885 -0.8149
  894MOL0     H23308   0.089   5.730  10.777  0.3960  1.1285  0.2459
  894MOL0     H23309   0.339   5.761  10.774 -2.0139  1.7385  1.3123
  894MOL0     H23310   0.349   5.708  10.940  0.8386 -1.6849  0.6468
  894MOL0     H23311   0.201   5.521  10.762 -0.6057 -0.2330  1.7962
  894MOL0     H23312   0.385   5.534  10.738 -1.2612 -0.3214 -0.9356
  894MOL0     H23313   0.241   5.459  11.003  0.5501  0.8708  0.0886
  894MOL0     H23314   0.409   5.462  10.984 -1.6017 -0.1168  2.1973
  894MOL0     H23315   0.214   5.279  10.845  0.4734 -0.1710  0.4462
  894MOL0     H23316   0.387   5.298  10.783 -0.1657 -1.6495  0.1091
  894MOL0     H23317   0.297   5.192  11.055 -0.4356 -0.4052 -1.2586
  894MOL0     H23318   0.460   5.235  11.027 -2.9077 -0.1916  4.3162
  894MOL0     H23319   0.280   5.070  10.836  0.2422  0.2049  0.8482
  894MOL0     H23320   0.467   5.072  10.850  0.1172  2.7574 -0.9855
  894MOL0     H23321   0.160   4.867  10.974 -0.8691 -1.5278  0.3091
  894MOL0     H23322   0.212   4.645  11.200  2.9449  0.2649  0.9132
  894MOL0     H23323   0.343   4.561  11.141  3.0299  2.8873  1.1657
  894MOL0     H23324   0.102   4.638  10.970 -1.4858 -2.5705  2.0486
  894MOL0     H23325   0.252   4.551  10.913  1.7246  1.4189  0.0513
  894MOL0     H23326   0.093   4.360  10.943 -2.3156  0.1713  0.5485
  894MOL0     H23327   0.191   4.362  11.094  0.2689  2.2631 -0.4072
  894MOL0     H23328  -0.071   4.505  11.073 -1.9336  0.2560  1.6284
  894MOL0     H23329  -0.051   4.319  11.104 -2.0053  0.3478  2.0896
  894MOL0     H23330  -0.248   4.473  11.216  1.2478  0.6638 -0.6416
  894MOL0     H23331  -0.521   4.464  11.435 -2.3126  0.5634 -0.2699
  894MOL0     H23332  -0.466   4.477  11.269  1.9806 -0.6566  0.1730
  894MOL0     H23333  -0.487   4.621  11.372  0.1786 -0.1340 -0.9443
  894MOL0     H23334  -0.537   4.532  11.844 -2.0785  2.3998  1.4971
  894MOL0     H23335  -0.630   4.566  12.079 -0.4513  1.8458  1.3178
  894MOL0     H23336  -0.566   4.601  12.454  5.8010  2.0303 -1.7523
  894MOL0     H23337  -0.686   4.621  12.328  0.6571  1.6608  2.5734
  894MOL0     H23338  -0.694   4.380  12.382  0.5208 -1.8383 -1.2436
  894MOL0     H23339  -0.607   4.390  12.236  2.9849  0.2543 -0.4134
  894MOL0     H23340  -0.392   4.400  12.369 -1.6269  2.2479  2.3877
  894MOL0     H23341  -0.469   4.244  12.340 -1.0743 -0.9934  0.8822
  894MOL0     H23342  -0.578   4.240  12.554 -1.1473  0.5921 -2.1032
  894MOL0     H23343  -0.505   4.402  12.592 -1.5188 -1.6224  2.6773
  894MOL0     H23344  -0.267   4.274  12.561  0.1851 -0.0411  3.0081
  894MOL0     H23345  -0.360   4.244  12.698 -3.0136  1.3764  0.0428
  894MOL0     H23346  -0.385   4.062  12.449 -1.7953  0.7033  0.7829
  894MOL0     H23347  -0.444   4.030  12.623 -0.3972 -2.2244 -1.2340
  894MOL0     H23348  -0.264   3.889  12.590  1.4049 -0.5680 -0.1592
  894MOL0     H23349  -0.206   4.027  12.683 -0.4431 -1.6100  0.9941
  894MOL0     H23350  -0.033   3.987  12.546 -1.4013 -2.8373  1.0843
  894MOL0     H23351  -0.117   4.133  12.479  0.0504 -0.0340  1.4807
  894MOL0     H23352  -0.222   4.663  12.207  2.7867  4.0288 -3.3007
  894MOL0     H23353  -0.143   4.589  12.001 -1.2265 -1.8429 -1.5594
  894MOL0     H23354  -0.082   4.534  11.668  0.0085 -3.9274  0.6878
  894MOL0     H23355   0.075   4.474  11.473 -0.1493 -1.9047  0.4927
  894MOL0     H23356   0.266   6.128  10.710  1.2207  0.8953 -1.3998
  894MOL0     H23357   0.392   6.314  10.797  1.9320 -0.6223  1.6241
  894MOL0     H23358   0.554   6.495  11.207 -0.9385  0.3275  1.2753
  894MOL0     H23359   0.736   6.660  11.236 -0.3906 -0.1813  0.9843
  894MOL0     H23360   0.792   6.919  10.985 -0.9303  1.1266 -0.5310
  894MOL0     H23361   0.708   7.062  11.047 -2.8609 -2.3738  0.6041
  894MOL0     H23362   0.949   7.115  11.016  0.7520 -1.6097 -0.4481
  894MOL0     H23363   0.996   6.953  11.069 -2.8163 -2.0163 -0.3138
  894MOL0     H23364   1.020   7.186  11.203  1.3325 -1.6701 -1.9990
  894MOL0     H23365   0.861   7.146  11.256 -0.6702  1.4832 -1.9234
  894MOL0     H23366   0.975   6.887  11.282  0.9502 -0.3826 -1.5905
  894MOL0     H23367   0.977   7.000  11.412  0.7660  0.0060  0.6240
  894MOL0     H23368   1.382   6.941  11.260  0.9373  2.9914 -0.0458
  894MOL0     H23369   0.483   6.967  11.076  1.4753  1.3119  2.5883
  894MOL0     H23370   0.174   6.786  11.040  0.5905 -2.1841 -0.6578
  894MOL0     H23371   0.267   6.928  10.999  0.3814  0.9094 -0.4757
  894MOL0     H23372   0.279   6.780  10.894 -1.0285  2.0987 -0.9364
  895MOL0     O23373   8.579   7.978   5.149 -0.3530 -0.8232 -0.3474
  895MOL0     C23374   8.625   8.068   5.214  0.2160 -0.6661  0.1197
  895MOL0     O23375   8.673   8.188   5.159  0.5206 -0.4246  0.0029
  895MOL0     C23376   8.730   8.189   5.038  0.9514 -0.6255 -1.0110
  895MOL0     C23377   8.862   8.149   5.027  0.3956 -0.3285  0.3341
  895MOL0     C23378   8.918   8.159   4.908  0.0425  0.0982  0.5919
  895MOL0     C23379   8.856   8.224   4.794 -0.2441 -0.6004  0.2335
  895MOL0     O23380   8.927   8.213   4.670  0.0199  1.0722 -0.0100
  895MOL0     C23381   8.910   8.298   4.563 -0.4296 -0.1312 -0.7195
  895MOL0     C23382   9.011   8.282   4.443  0.0518 -0.3587  0.4319
  895MOL0     C23383   8.971   8.371   4.320  0.1749  0.1511 -0.5224
  895MOL0     C23384   9.064   8.362   4.190 -0.1688  0.0285 -0.2634
  895MOL0     C23385   9.034   8.465   4.076 -0.4679 -0.5009 -0.5416
  895MOL0     C23386   8.913   8.417   4.001 -0.0818  0.0193  0.0961
  895MOL0     C23387   8.878   8.512   3.885  0.0288 -0.2289 -0.3241
  895MOL0     C23388   8.727   8.524   3.858  0.5467  0.6812  1.0427
  895MOL0     N23389   8.696   8.633   3.773  0.3141 -0.9739  0.5119
  895MOL0     C23390   8.644   8.630   3.640 -0.3465 -0.4350  1.0212
  895MOL0     C23391   8.609   8.754   3.605 -0.2554  0.0232  0.2263
  895MOL0     C23392   8.543   8.792   3.472  0.5038  1.0945 -0.4252
  895MOL0     C23393   8.402   8.717   3.463 -0.8844  0.1341  0.0144
  895MOL0     C23394   8.348   8.782   3.333 -0.3759  0.7328 -0.0423
  895MOL0     C23395   8.197   8.767   3.307 -0.3370 -0.1756  0.0959
  895MOL0     O23396   8.169   8.633   3.313 -0.6702 -0.1508  0.1031
  895MOL0     C23397   8.095   8.587   3.211 -0.7730 -0.3249  0.0856
  895MOL0     C23398   7.956   8.576   3.221  0.1142 -0.0928 -0.3565
  895MOL0     C23399   7.883   8.530   3.113  0.1932 -0.1594 -0.5025
  895MOL0     C23400   7.729   8.528   3.128 -0.1841  0.9701  0.0100
  895MOL0     C23401   7.956   8.478   2.999  0.2226 -1.2133  0.6355
  895MOL0     C23402   7.891   8.405   2.883  0.7570 -0.1236 -0.5724
  895MOL0     O23403   7.979   8.349   2.791  0.8205 -0.2939 -0.3789
  895MOL0     C23404   7.949   8.263   2.685  0.0450 -0.0172 -0.9642
  895MOL0     C23405   7.832   8.187   2.664 -0.2843  0.2892 -0.4406
  895MOL0     C23406   7.818   8.107   2.557 -0.6974  0.0757  0.3694
  895MOL0     C23407   7.920   8.089   2.464 -0.1151 -0.4052  0.8280
  895MOL0     O23408   7.884   7.997   2.367  0.1710 -0.1104  0.0524
  895MOL0     C23409   7.965   7.984   2.250 -0.0818 -0.8807 -1.0479
  895MOL0     C23410   7.907   7.901   2.133  0.2103 -0.9913 -0.3667
  895MOL0     C23411   7.858   7.767   2.182  0.9159 -0.3545  0.1272
  895MOL0     C23412   7.793   7.695   2.063  0.0613 -0.0009  0.6463
  895MOL0     C23413   7.873   7.555   2.050  0.6474 -0.1206  0.4019
  895MOL0     C23414   7.840   7.452   2.158 -0.5513 -0.6856  0.5091
  895MOL0     C23415   7.695   7.418   2.188  0.5010 -0.1779  0.2281
  895MOL0     C23416   7.661   7.290   2.276 -0.6563 -0.9314 -0.7626
  895MOL0    Cl23417   7.768   7.157   2.206  0.2238 -0.0218 -0.0085
  895MOL0     C23418   8.035   8.150   2.490 -0.5028  0.2155  0.2681
  895MOL0     C23419   8.046   8.251   2.589  0.4666  0.6954 -0.5325
  895MOL0     O23420   7.765   8.394   2.875  0.3208 -0.6534  0.2389
  895MOL0     C23421   8.098   8.498   2.991  0.0671 -0.0456  0.3848
  895MOL0     C23422   8.161   8.564   3.092 -0.3154  0.0260  0.0287
  895MOL0     N23423   8.636   8.837   3.714  0.3368 -0.5184 -0.1690
  895MOL0     N23424   8.683   8.760   3.812  0.2738  0.0812  0.4286
  895MOL0     C23425   8.726   8.279   4.811  0.0170  0.9034  0.3696
  895MOL0     C23426   8.671   8.264   4.935  0.4867 -0.2678  0.2635
  895MOL0     C23427   8.573   8.058   5.362 -0.4135  0.6481  0.9654
  895MOL0     C23428   8.553   8.182   5.428 -1.0464  0.0773  1.4298
  895MOL0     C23429   8.500   8.191   5.559  0.4364 -0.6230 -0.1713
  895MOL0     C23430   8.458   8.081   5.625  0.2313  0.2629 -0.5121
  895MOL0     O23431   8.405   8.082   5.755  0.1948 -0.0444 -0.0422
  895MOL0     C23432   8.363   8.208   5.820  0.0054  0.5876 -0.1419
  895MOL0     C23433   8.272   8.161   5.932  0.6095 -0.2964 -0.7966
  895MOL0     C23434   8.338   8.077   6.033 -0.5028 -0.3733 -0.3927
  895MOL0     C23435   8.236   7.984   6.108  0.0948 -0.1051 -0.0819
  895MOL0     C23436   8.297   7.951   6.238 -0.3134  0.1177 -0.0055
  895MOL0     C23437   8.339   7.922   6.345 -0.3039 -0.5657  0.0498
  895MOL0     C23438   8.485   7.954   5.567  0.3080  0.6759 -0.3551
  895MOL0     C23439   8.545   7.940   5.438 -0.6795  0.0730 -0.6475
  895MOL0     C23440   8.578   7.795   5.392 -0.3195  0.0851 -0.0421
  895MOL0     H23441   8.913   8.108   5.113  0.4635  0.1828  0.5423
  895MOL0     H23442   9.015   8.113   4.894 -0.7670 -0.9603 -2.1920
  895MOL0     H23443   8.926   8.404   4.588  0.7219 -0.0111 -1.8357
  895MOL0     H23444   8.812   8.270   4.523 -0.8391 -0.1106  0.2412
  895MOL0     H23445   9.113   8.305   4.475 -0.3523  1.6407  0.4271
  895MOL0     H23446   9.006   8.176   4.419  1.1406 -0.7425  1.7488
  895MOL0     H23447   8.869   8.349   4.285 -0.3345  2.0557 -0.3451
  895MOL0     H23448   8.986   8.475   4.351  0.3359  0.2500 -0.9260
  895MOL0     H23449   9.168   8.379   4.222 -0.3926  0.8255  0.0775
  895MOL0     H23450   9.061   8.261   4.149 -1.4472  0.7816 -2.1235
  895MOL0     H23451   9.121   8.477   4.011 -0.0430 -0.3001  0.0488
  895MOL0     H23452   9.012   8.568   4.108  2.4921  0.7911 -2.1772
  895MOL0     H23453   8.940   8.320   3.957  4.8293  1.7858 -1.4265
  895MOL0     H23454   8.834   8.401   4.075  0.0575 -1.8328 -0.1025
  895MOL0     H23455   8.933   8.476   3.797  0.2245 -1.2983  0.2182
  895MOL0     H23456   8.909   8.613   3.914  3.1993 -1.0685 -0.4097
  895MOL0     H23457   8.690   8.433   3.811  0.0332  2.1962 -1.7358
  895MOL0     H23458   8.665   8.531   3.948 -2.5910 -2.6192 -0.6039
  895MOL0     H23459   8.611   8.545   3.582 -0.4649 -1.2193  2.2163
  895MOL0     H23460   8.609   8.759   3.390  0.8792 -2.5650  1.1618
  895MOL0     H23461   8.535   8.901   3.470 -0.6037  1.0154 -0.5071
  895MOL0     H23462   8.411   8.609   3.451 -2.5951  0.0487 -0.8085
  895MOL0     H23463   8.325   8.729   3.540 -0.5052  2.0901  0.1384
  895MOL0     H23464   8.353   8.892   3.328 -1.4982  0.8198  0.4065
  895MOL0     H23465   8.399   8.737   3.248 -4.5063 -1.2251 -1.7602
  895MOL0     H23466   8.139   8.803   3.392  3.3000  0.6409  2.4859
  895MOL0     H23467   8.170   8.815   3.212 -0.3433 -1.4656 -0.5829
  895MOL0     H23468   7.911   8.602   3.316 -0.4585 -2.0325 -0.0583
  895MOL0     H23469   7.686   8.576   3.217  0.8275  2.7712 -0.4369
  895MOL0     H23470   7.693   8.425   3.139  2.9295  0.0456  3.8163
  895MOL0     H23471   7.692   8.576   3.038  3.8654  1.0358 -1.8269
  895MOL0     H23472   7.744   8.188   2.728  1.1135  1.4724  1.5693
  895MOL0     H23473   7.734   8.039   2.555 -0.0058 -0.8609  1.6490
  895MOL0     H23474   7.986   8.085   2.214  0.9512 -1.1900 -1.3521
  895MOL0     H23475   8.062   7.940   2.274 -0.4940 -0.9472  0.6878
  895MOL0     H23476   7.830   7.962   2.085 -0.0823  0.1645  1.4901
  895MOL0     H23477   7.994   7.874   2.072  0.7144 -2.4171  0.9121
  895MOL0     H23478   7.791   7.780   2.268  0.0887 -0.1050 -0.5371
  895MOL0     H23479   7.933   7.704   2.231 -0.8266 -2.8674 -0.2151
  895MOL0     H23480   7.813   7.750   1.971  0.6478  1.3582  1.5639
  895MOL0     H23481   7.687   7.672   2.075  0.3918 -3.1844 -1.2908
  895MOL0     H23482   7.853   7.505   1.955  0.3159 -1.5790  1.2131
  895MOL0     H23483   7.980   7.580   2.051  1.2433 -2.3487 -1.2271
  895MOL0     H23484   7.878   7.483   2.255 -2.2334  1.3994  0.5581
  895MOL0     H23485   7.898   7.361   2.137  0.8061 -0.0854  1.4917
  895MOL0     H23486   7.642   7.416   2.092  0.2978  0.2689  0.3304
  895MOL0     H23487   7.650   7.501   2.244 -0.1713 -0.3353 -0.0626
  895MOL0     H23488   7.557   7.258   2.279 -0.3114 -2.1650  2.3359
  895MOL0     H23489   7.695   7.305   2.379 -0.5552 -1.8000 -0.6597
  895MOL0     H23490   8.116   8.125   2.422 -1.1200 -0.1607 -0.3394
  895MOL0     H23491   8.136   8.312   2.592 -0.3129  1.8597  1.0979
  895MOL0     H23492   8.138   8.465   2.896 -2.3668 -1.9609 -0.0811
  895MOL0     H23493   8.268   8.585   3.094 -0.6591  1.9731 -0.7486
  895MOL0     H23494   8.673   8.341   4.739  1.0503  0.0495 -1.1792
  895MOL0     H23495   8.570   8.303   4.949  0.8594  1.3725 -1.1846
  895MOL0     H23496   8.591   8.269   5.376  2.5798 -0.7831  2.3487
  895MOL0     H23497   8.492   8.285   5.613  0.1624 -0.6785 -0.1150
  895MOL0     H23498   8.448   8.263   5.862 -0.8950  1.4758  0.5614
  895MOL0     H23499   8.320   8.275   5.745  3.6559 -0.4663 -3.5428
  895MOL0     H23500   8.184   8.112   5.890 -0.9794 -0.0428  2.0018
  895MOL0     H23501   8.230   8.250   5.980  0.7864 -0.8408  0.3934
  895MOL0     H23502   8.420   8.021   5.987 -1.0251  1.4096 -3.7821
  895MOL0     H23503   8.385   8.135   6.113 -1.0395  1.8681 -1.6267
  895MOL0     H23504   8.228   7.896   6.043 -0.5229  3.1609 -4.9667
  895MOL0     H23505   8.137   8.029   6.117 -1.5512 -3.5342  0.5737
  895MOL0     H23506   8.361   7.911   6.449  0.1935 -3.2349 -0.2757
  895MOL0     H23507   8.459   7.866   5.625 -2.1414  0.0736 -2.2232
  895MOL0     H23508   8.645   7.742   5.459  2.4946  0.2545 -2.5160
  895MOL0     H23509   8.485   7.738   5.401 -2.5160  2.0913 -5.4407
  895MOL0     H23510   8.611   7.778   5.289  1.6855 -0.3089  0.6346
  896MOL0     O23511   7.288  10.848   5.252  0.6233  0.2609 -0.0822
  896MOL0     C23512   7.360  10.752   5.228 -0.6363 -0.6974  0.4646
  896MOL0     O23513   7.320  10.640   5.149 -0.1495 -0.8302  0.6554
  896MOL0     C23514   7.202  10.634   5.091  0.3364 -1.6256  1.5527
  896MOL0     C23515   7.082  10.654   5.167  0.1617  0.6290  0.3997
  896MOL0     C23516   6.961  10.661   5.103 -1.6588  0.1907 -0.8565
  896MOL0     C23517   6.956  10.661   4.962  0.0722 -0.4837 -0.0739
  896MOL0     O23518   6.837  10.682   4.907  0.2948  0.6150  0.2806
  896MOL0     C23519   6.801  10.616   4.780 -0.9580  1.0084 -1.0928
  896MOL0     C23520   6.810  10.466   4.786 -0.2595  0.4911 -0.7087
  896MOL0     C23521   6.671  10.401   4.797 -0.5626  0.1903  0.7016
  896MOL0     C23522   6.679  10.252   4.852 -0.9697 -0.4203 -0.1692
  896MOL0     C23523   6.544  10.194   4.854 -0.9621  0.3928  0.4195
  896MOL0     C23524   6.472  10.217   4.987  0.4186  0.5247 -0.2683
  896MOL0     C23525   6.357  10.120   5.005 -0.2385  1.0137 -0.5836
  896MOL0     C23526   6.283  10.109   5.136 -0.8407 -0.4985 -0.0558
  896MOL0     N23527   6.233  10.245   5.164 -0.0316 -0.8567  0.2846
  896MOL0     C23528   6.233  10.290   5.295 -0.1636 -0.3963  0.1520
  896MOL0     C23529   6.163  10.415   5.277 -0.5014  0.3861 -0.0950
  896MOL0     C23530   6.130  10.512   5.387  0.9302 -0.1620  0.5740
  896MOL0     C23531   6.041  10.456   5.494  0.2662  0.0745 -0.5840
  896MOL0     C23532   5.921  10.399   5.431 -0.2941 -1.2081  0.1711
  896MOL0     C23533   5.823  10.327   5.510  0.6746  0.0205 -0.0254
  896MOL0     O23534   5.886  10.275   5.629  0.2607  0.2224  0.4010
  896MOL0     C23535   5.811  10.250   5.740 -1.1652  0.2436  0.3964
  896MOL0     C23536   5.686  10.204   5.739  0.2625  0.1151  0.3882
  896MOL0     C23537   5.610  10.195   5.858  0.8378 -0.7740  1.1448
  896MOL0     C23538   5.464  10.149   5.847  0.0570  0.5549  0.0549
  896MOL0     C23539   5.673  10.220   5.985  0.0193 -0.1679 -0.0797
  896MOL0     C23540   5.617  10.191   6.122 -0.2382  0.2791 -0.6248
  896MOL0     O23541   5.688  10.242   6.230 -0.6231  0.1001  0.2459
  896MOL0     C23542   5.680  10.205   6.363  0.3042 -0.4918  0.4124
  896MOL0     C23543   5.587  10.132   6.423 -0.0156 -0.4877 -1.2912
  896MOL0     C23544   5.610  10.091   6.557  0.7440 -0.5857  0.3358
  896MOL0     C23545   5.726  10.125   6.620  0.1883  0.8947 -1.0095
  896MOL0     O23546   5.747  10.063   6.739  0.5819  0.0058 -0.2023
  896MOL0     C23547   5.880  10.060   6.799 -0.3267 -1.1065 -0.1440
  896MOL0     C23548   5.895   9.930   6.882  0.5803  0.2755 -0.4967
  896MOL0     C23549   5.893   9.805   6.793 -0.2275 -0.2536 -0.6585
  896MOL0     C23550   5.895   9.679   6.881  0.6499 -0.0213  0.4856
  896MOL0     C23551   5.908   9.554   6.794 -0.6052 -0.9295  0.9003
  896MOL0     C23552   5.888   9.441   6.884 -1.0359  0.3571  0.3540
  896MOL0     C23553   5.900   9.299   6.805 -0.3775  0.1850  0.0021
  896MOL0     C23554   5.867   9.190   6.905 -0.4076 -0.3148 -0.0048
  896MOL0    Cl23555   5.873   9.038   6.813  0.0233 -0.4741 -0.1608
  896MOL0     C23556   5.821  10.211   6.558 -0.3080 -0.1815  0.0512
  896MOL0     C23557   5.786  10.257   6.434 -0.5255  0.1498  0.2041
  896MOL0     O23558   5.515  10.122   6.139 -1.0182  0.3639  0.0464
  896MOL0     C23559   5.799  10.268   5.987 -0.0899 -0.3703  0.3345
  896MOL0     C23560   5.869  10.277   5.865 -0.3299 -0.1477  0.4467
  896MOL0     N23561   6.109  10.421   5.149 -0.4102 -0.2636  0.4673
  896MOL0     N23562   6.146  10.318   5.079 -0.8121 -0.4051  0.6517
  896MOL0     C23563   7.074  10.660   4.891  0.6253 -0.0150  0.2875
  896MOL0     C23564   7.190  10.648   4.949 -0.6905  0.7332 -0.3376
  896MOL0     C23565   7.504  10.755   5.257 -1.7981 -0.1817  0.8703
  896MOL0     C23566   7.574  10.874   5.210  0.4307 -0.2602 -1.0417
  896MOL0     C23567   7.700  10.906   5.255 -0.5470  0.4251  0.5790
  896MOL0     C23568   7.761  10.819   5.346  0.0929  0.0411  0.2934
  896MOL0     O23569   7.872  10.864   5.411 -0.2499 -0.5081  0.2821
  896MOL0     C23570   7.855  10.907   5.550  0.0453 -0.7771 -0.2049
  896MOL0     C23571   7.996  10.894   5.610  0.2283 -0.2642 -0.4770
  896MOL0     C23572   8.113  10.985   5.547  0.2160  0.4054 -0.7874
  896MOL0     C23573   8.071  11.131   5.525 -0.7251 -0.8544 -0.8985
  896MOL0     C23574   8.017  11.194   5.647 -0.3636 -0.0697  0.5196
  896MOL0     C23575   7.975  11.232   5.755  0.1068 -1.0837 -0.1801
  896MOL0     C23576   7.692  10.708   5.399  0.3808 -0.3685  0.2656
  896MOL0     C23577   7.567  10.677   5.347 -0.9252  0.3167 -0.7410
  896MOL0     C23578   7.486  10.572   5.417 -0.9387 -0.4084 -0.8598
  896MOL0     H23579   7.077  10.670   5.274 -1.6851  3.7543 -0.0378
  896MOL0     H23580   6.867  10.659   5.157 -1.3074  3.0561  0.0235
  896MOL0     H23581   6.852  10.662   4.695 -3.0556 -0.4728 -3.3059
  896MOL0     H23582   6.695  10.636   4.760 -0.3214  2.9966 -2.9450
  896MOL0     H23583   6.854  10.430   4.693  0.3895 -1.0713  0.1597
  896MOL0     H23584   6.880  10.429   4.862 -0.4911 -0.8708 -1.1214
  896MOL0     H23585   6.616  10.470   4.862 -0.0493 -0.9954  2.4963
  896MOL0     H23586   6.636  10.395   4.694  0.8737 -3.8490  0.2601
  896MOL0     H23587   6.751  10.192   4.796  1.9186  3.5478 -1.1307
  896MOL0     H23588   6.717  10.244   4.954 -1.2164  1.4232  0.1008
  896MOL0     H23589   6.575  10.091   4.834  0.0243  0.9780 -1.2487
  896MOL0     H23590   6.491  10.223   4.763 -0.2537 -1.5897 -0.7005
  896MOL0     H23591   6.532  10.192   5.075 -1.9249 -1.2543  0.9379
  896MOL0     H23592   6.445  10.323   4.983 -0.3853  0.4771  2.2522
  896MOL0     H23593   6.378  10.017   4.975 -1.2808  0.4913  0.4068
  896MOL0     H23594   6.288  10.157   4.928  0.2806 -1.5320 -2.3935
  896MOL0     H23595   6.194  10.048   5.120  0.1341 -1.2574 -3.3485
  896MOL0     H23596   6.350  10.076   5.216  0.1955 -4.0295 -2.1690
  896MOL0     H23597   6.278  10.251   5.386 -0.4555 -0.0927  0.4306
  896MOL0     H23598   6.085  10.607   5.359  1.5211  0.5459  1.9451
  896MOL0     H23599   6.228  10.534   5.430  2.5036 -0.8185 -2.4285
  896MOL0     H23600   6.096  10.376   5.545 -1.6937 -1.0883 -0.2008
  896MOL0     H23601   6.005  10.534   5.562 -1.7608 -2.6952  1.8034
  896MOL0     H23602   5.870  10.485   5.386 -1.8801 -1.3870  1.5168
  896MOL0     H23603   5.944  10.331   5.349 -3.1662  0.2599 -2.0771
  896MOL0     H23604   5.744  10.392   5.547 -0.8486 -2.9571  2.4941
  896MOL0     H23605   5.786  10.246   5.446 -1.8314 -0.1713  1.5133
  896MOL0     H23606   5.638  10.168   5.649 -3.8002  1.0606  1.9695
  896MOL0     H23607   5.424  10.160   5.745  0.9468  1.4244 -0.2132
  896MOL0     H23608   5.395  10.212   5.904 -2.1999 -0.5754 -1.2679
  896MOL0     H23609   5.468  10.046   5.883  1.6493  0.5628 -0.0438
  896MOL0     H23610   5.492  10.100   6.381  0.3931 -1.5534 -1.4393
  896MOL0     H23611   5.531  10.031   6.600  0.2158 -1.4239 -1.6659
  896MOL0     H23612   5.955  10.061   6.719  1.2825 -3.8470  1.1622
  896MOL0     H23613   5.892  10.145   6.866  1.1540 -0.4021 -1.2280
  896MOL0     H23614   5.988   9.937   6.940 -0.2873  1.0570  0.8296
  896MOL0     H23615   5.810   9.920   6.949  1.9005 -3.2990  0.8976
  896MOL0     H23616   5.989   9.807   6.740  1.1403  4.6743  1.4679
  896MOL0     H23617   5.810   9.802   6.722  2.2031  0.2112 -3.7262
  896MOL0     H23618   5.798   9.679   6.932 -1.2883  2.9434 -2.7652
  896MOL0     H23619   5.970   9.698   6.958  0.3830  2.1190  0.2854
  896MOL0     H23620   5.832   9.557   6.715 -0.0306 -1.1227  0.3433
  896MOL0     H23621   6.008   9.552   6.751 -1.5965  0.0386 -1.6495
  896MOL0     H23622   5.787   9.444   6.927 -2.8176  1.0569 -3.4364
  896MOL0     H23623   5.958   9.444   6.968 -0.9814  0.8972  0.2957
  896MOL0     H23624   6.007   9.294   6.784  0.8389  2.3973  4.5321
  896MOL0     H23625   5.828   9.293   6.722  0.5093  0.7915 -0.8344
  896MOL0     H23626   5.780   9.229   6.958 -0.6350 -0.7174 -0.0818
  896MOL0     H23627   5.948   9.185   6.979  1.6950  1.0979 -2.0527
  896MOL0     H23628   5.903  10.248   6.618 -0.8416  1.0006  0.0587
  896MOL0     H23629   5.852  10.334   6.397  0.0850  0.2384  1.4210
  896MOL0     H23630   5.855  10.296   6.075 -2.1162  0.4047  1.4411
  896MOL0     H23631   5.974  10.304   5.868 -0.0918 -0.5817 -1.7866
  896MOL0     H23632   7.077  10.656   4.783 -1.5032 -1.2835  0.2232
  896MOL0     H23633   7.280  10.645   4.888 -2.1314 -0.9397 -2.5647
  896MOL0     H23634   7.523  10.939   5.140  1.4733  2.9708  0.9600
  896MOL0     H23635   7.732  11.007   5.228  0.5827 -0.0016  0.2609
  896MOL0     H23636   7.820  11.010   5.557  4.7343  1.1570 -1.2370
  896MOL0     H23637   7.783  10.843   5.602 -0.4497 -0.8784 -0.9961
  896MOL0     H23638   8.031  10.791   5.617  1.7174  0.2600  0.1284
  896MOL0     H23639   7.971  10.932   5.710 -0.4573  1.5721 -1.2934
  896MOL0     H23640   8.197  10.997   5.616 -1.7758  3.0339  1.4201
  896MOL0     H23641   8.137  10.941   5.450 -1.7446  1.1184 -1.6576
  896MOL0     H23642   7.991  11.136   5.450 -1.4036 -1.3692 -0.2199
  896MOL0     H23643   8.157  11.184   5.483 -1.2862 -1.0194 -2.3163
  896MOL0     H23644   7.920  11.267   5.840  0.2298  1.0917 -0.9365
  896MOL0     H23645   7.739  10.646   5.475  0.3217  0.9552  1.4317
  896MOL0     H23646   7.398  10.619   5.462  0.8926 -0.3923  3.0668
  896MOL0     H23647   7.460  10.500   5.339  2.2440  0.9117 -3.3453
  896MOL0     H23648   7.542  10.514   5.492 -0.7373 -1.2979 -1.6726
  897MOL0     O23649  10.060   8.872   4.755 -0.1593  0.4551 -0.1169
  897MOL0     C23650  10.028   8.876   4.634 -0.0077 -0.3495  0.5062
  897MOL0     O23651  10.075   8.793   4.537 -0.2471 -0.0430  0.4677
  897MOL0     C23652  10.169   8.699   4.580  0.3371 -0.3910 -0.6156
  897MOL0     C23653  10.112   8.598   4.665  0.5672 -0.0293  0.6784
  897MOL0     C23654  10.186   8.498   4.725 -1.0548  0.1346  0.8860
  897MOL0     C23655  10.324   8.491   4.696 -0.1412  0.0546 -0.5371
  897MOL0     O23656  10.403   8.387   4.718  0.6520  0.3439 -0.7990
  897MOL0     C23657  10.363   8.271   4.800  0.3616  0.3513  0.1259
  897MOL0     C23658  10.310   8.301   4.944 -0.2756 -0.4715 -0.2275
  897MOL0     C23659  10.245   8.187   5.012  0.2194  1.2666  0.0104
  897MOL0     C23660  10.088   8.171   5.029  0.0927  0.9225  1.3152
  897MOL0     C23661  10.031   8.300   5.093 -0.8973  0.4416 -0.1781
  897MOL0     C23662   9.888   8.295   5.157  0.1813  0.1877  0.4476
  897MOL0     C23663   9.763   8.298   5.065  0.2098 -0.0312  0.5057
  897MOL0     C23664   9.754   8.199   4.952  1.1006  0.1396 -0.0767
  897MOL0     N23665   9.610   8.194   4.916 -0.3480 -0.4966 -0.1111
  897MOL0     C23666   9.564   8.282   4.823  0.5201  0.4692  0.3521
  897MOL0     C23667   9.429   8.257   4.821  0.6528 -0.4768  0.0840
  897MOL0     C23668   9.316   8.345   4.759 -0.8743  0.0834  0.1602
  897MOL0     C23669   9.240   8.441   4.851  0.3084 -0.0870  0.3967
  897MOL0     C23670   9.339   8.531   4.923 -0.6648 -0.4092 -0.3777
  897MOL0     C23671   9.282   8.661   4.978  1.1857 -0.9344 -0.5010
  897MOL0     O23672   9.259   8.737   4.859 -0.3406 -0.1898  0.5263
  897MOL0     C23673   9.232   8.871   4.858  0.1606 -0.2943  0.6545
  897MOL0     C23674   9.168   8.912   4.743 -0.3306  0.0732 -0.0145
  897MOL0     C23675   9.137   9.048   4.723 -0.9677  0.8902  0.0447
  897MOL0     C23676   9.085   9.087   4.591  0.5022 -0.6690 -0.1830
  897MOL0     C23677   9.151   9.138   4.834 -0.6890  0.1499 -0.5679
  897MOL0     C23678   9.099   9.275   4.828 -0.0769  0.4535 -0.3262
  897MOL0     O23679   9.170   9.364   4.898 -0.3212 -0.1264  0.0952
  897MOL0     C23680   9.140   9.497   4.895 -0.0773  0.8869 -0.0941
  897MOL0     C23681   9.014   9.547   4.939  0.0605 -0.5413  0.1727
  897MOL0     C23682   8.993   9.689   4.946 -0.1218 -0.5897  0.3375
  897MOL0     C23683   9.099   9.775   4.903 -0.5584  0.8430 -0.0089
  897MOL0     O23684   9.087   9.908   4.907  0.0152 -0.1337  0.5057
  897MOL0     C23685   8.961   9.962   4.928  0.2052 -0.6636 -0.6852
  897MOL0     C23686   8.980  10.109   4.918 -0.0128 -0.2932  0.0156
  897MOL0     C23687   8.877  10.190   4.846  0.1984  0.1018  0.3593
  897MOL0     C23688   8.760  10.226   4.933  0.1237  0.0785  0.0141
  897MOL0     C23689   8.781  10.352   5.011 -0.4796  0.2939  0.6665
  897MOL0     C23690   8.650  10.399   5.061  0.5845 -1.3471  0.3187
  897MOL0     C23691   8.577  10.316   5.170 -0.3279 -0.3546 -0.4708
  897MOL0     C23692   8.597  10.370   5.315 -0.5384 -0.4380 -0.0868
  897MOL0    Cl23693   8.503  10.508   5.344  0.4994 -0.3308  0.1176
  897MOL0     C23694   9.225   9.716   4.872  0.2255 -0.2373  0.2792
  897MOL0     C23695   9.247   9.580   4.872 -0.6618  0.5000  0.3020
  897MOL0     O23696   9.003   9.300   4.762 -0.0226 -0.5680  0.1981
  897MOL0     C23697   9.217   9.096   4.949 -0.0699  0.4438 -0.5723
  897MOL0     C23698   9.250   8.957   4.962  0.3356  0.5081 -0.0362
  897MOL0     N23699   9.407   8.138   4.891 -0.1832  0.3931  0.1096
  897MOL0     N23700   9.519   8.106   4.945 -0.6901  0.2637 -0.6970
  897MOL0     C23701  10.376   8.586   4.614  0.7938  0.6233 -0.2220
  897MOL0     C23702  10.299   8.691   4.555 -0.0319  0.6591  0.5279
  897MOL0     C23703   9.918   8.968   4.592 -0.4520  0.1179 -0.0387
  897MOL0     C23704   9.858   8.944   4.460  0.0773  1.3799 -0.3459
  897MOL0     C23705   9.747   9.023   4.419 -0.1512  0.1342 -0.6926
  897MOL0     C23706   9.714   9.133   4.490 -0.0289 -0.3026  0.1240
  897MOL0     O23707   9.625   9.219   4.442  0.8242 -0.4272  0.2515
  897MOL0     C23708   9.510   9.244   4.519  0.4931  0.3648 -0.2033
  897MOL0     C23709   9.492   9.388   4.575  0.2780  0.7682 -0.7549
  897MOL0     C23710   9.473   9.501   4.466 -0.0882 -0.4785 -0.0881
  897MOL0     C23711   9.397   9.621   4.525 -0.1799 -0.0955 -0.2507
  897MOL0     C23712   9.484   9.681   4.624 -0.2904  0.1678  1.1314
  897MOL0     C23713   9.570   9.689   4.710 -0.2024 -0.2961 -0.4894
  897MOL0     C23714   9.779   9.163   4.613 -0.1991  0.2261  0.2340
  897MOL0     C23715   9.861   9.073   4.667 -0.1579 -0.7734 -0.0660
  897MOL0     C23716   9.895   9.090   4.811 -0.0273  0.0728  0.3866
  897MOL0     H23717  10.008   8.605   4.695  0.8316  2.1441  1.2782
  897MOL0     H23718  10.135   8.422   4.783 -4.3403 -0.4428 -2.4107
  897MOL0     H23719  10.452   8.208   4.793 -0.1513 -0.4390  0.5263
  897MOL0     H23720  10.283   8.223   4.743 -0.0438  1.7508 -0.5316
  897MOL0     H23721  10.395   8.327   5.008  0.9904 -5.6653  0.6892
  897MOL0     H23722  10.246   8.389   4.953 -0.1989 -0.5623  1.4872
  897MOL0     H23723  10.290   8.104   4.957  1.1067  3.2763 -2.4980
  897MOL0     H23724  10.282   8.163   5.112 -2.6503 -2.8655  0.2887
  897MOL0     H23725  10.045   8.144   4.932  0.1075  0.5536  1.4093
  897MOL0     H23726  10.067   8.083   5.091 -1.4141  0.5833  0.4043
  897MOL0     H23727  10.032   8.385   5.025 -0.4205  1.2935  0.8646
  897MOL0     H23728  10.103   8.328   5.170 -2.5199 -1.0456  2.0122
  897MOL0     H23729   9.882   8.213   5.229  1.7218  1.7133  2.4270
  897MOL0     H23730   9.882   8.388   5.215  0.8413 -0.1956  1.1283
  897MOL0     H23731   9.758   8.398   5.021  1.0391 -0.1181  0.1814
  897MOL0     H23732   9.672   8.271   5.119 -0.2217 -0.8954 -0.6057
  897MOL0     H23733   9.809   8.224   4.861 -2.3912  3.7132 -1.4989
  897MOL0     H23734   9.791   8.107   4.997 -1.2690  0.5730  3.0876
  897MOL0     H23735   9.617   8.361   4.772  0.0367 -1.3210 -3.2564
  897MOL0     H23736   9.239   8.275   4.726 -0.0349 -1.6226  1.6555
  897MOL0     H23737   9.361   8.403   4.678 -1.1661 -2.1716 -1.7472
  897MOL0     H23738   9.180   8.510   4.791  1.3252  0.3330 -0.1721
  897MOL0     H23739   9.179   8.377   4.916 -1.4236 -1.4466 -2.3627
  897MOL0     H23740   9.382   8.470   5.002  0.8952  1.0467 -0.0544
  897MOL0     H23741   9.410   8.564   4.847 -0.5914  1.3994  0.4422
  897MOL0     H23742   9.188   8.646   5.032  1.7355 -1.7969  0.2454
  897MOL0     H23743   9.363   8.698   5.041 -1.5877  0.9507  2.2221
  897MOL0     H23744   9.156   8.850   4.655  1.3477 -1.2686  0.6277
  897MOL0     H23745   9.123   9.184   4.558 -0.9710  1.1724  3.0184
  897MOL0     H23746   8.977   9.104   4.604  1.1648  2.2141  2.5797
  897MOL0     H23747   9.099   9.002   4.524 -1.7696 -0.5730 -0.8887
  897MOL0     H23748   8.930   9.482   4.957 -0.8220  0.1552 -1.2722
  897MOL0     H23749   8.904   9.733   4.992 -0.2614  1.6047 -1.8670
  897MOL0     H23750   8.892   9.940   4.846  0.5881 -0.8990 -0.9411
  897MOL0     H23751   8.911   9.934   5.022 -0.3036  1.1963 -0.3395
  897MOL0     H23752   9.000  10.153   5.016  1.1662  0.6970 -0.6447
  897MOL0     H23753   9.070  10.127   4.859  0.5547  3.6315  1.7638
  897MOL0     H23754   8.833  10.123   4.772  0.9500 -0.7521  0.6590
  897MOL0     H23755   8.934  10.273   4.804 -0.1532  0.4275  0.5197
  897MOL0     H23756   8.742  10.136   4.993 -2.2987 -1.2864 -2.4545
  897MOL0     H23757   8.677  10.236   4.862 -1.2593 -0.0874  1.5451
  897MOL0     H23758   8.843  10.328   5.098  0.0489  3.3699  1.2566
  897MOL0     H23759   8.838  10.431   4.961  2.3016  0.6746  4.0506
  897MOL0     H23760   8.587  10.401   4.972 -1.7645  0.5232  1.9040
  897MOL0     H23761   8.666  10.503   5.091  2.1865 -0.9538 -1.7114
  897MOL0     H23762   8.602  10.209   5.167 -0.0015 -0.4614  2.4323
  897MOL0     H23763   8.472  10.335   5.149  0.2406  2.0536 -1.4253
  897MOL0     H23764   8.703  10.396   5.320 -0.6624  0.1779 -0.5321
  897MOL0     H23765   8.568  10.304   5.397 -0.1784 -0.0491  0.3696
  897MOL0     H23766   9.297   9.793   4.847 -0.1562  0.3445  0.9321
  897MOL0     H23767   9.353   9.557   4.872 -0.6130  0.7206 -0.4063
  897MOL0     H23768   9.215   9.150   5.043 -0.2239  1.5565 -1.1909
  897MOL0     H23769   9.280   8.926   5.061 -1.8335  1.0248  0.8491
  897MOL0     H23770  10.481   8.582   4.588  1.2667  2.1170  1.2627
  897MOL0     H23771  10.343   8.761   4.484 -0.9881  0.3990 -0.3399
  897MOL0     H23772   9.891   8.868   4.389 -0.4378 -0.3493  1.1948
  897MOL0     H23773   9.682   8.993   4.337 -0.3464 -0.8736 -0.1743
  897MOL0     H23774   9.427   9.225   4.449 -0.7823 -0.3237  1.4353
  897MOL0     H23775   9.500   9.176   4.604  2.7798  0.4897  0.2323
  897MOL0     H23776   9.581   9.394   4.637  1.6999 -0.5158 -2.5322
  897MOL0     H23777   9.399   9.393   4.633  1.2093  1.8395  0.7014
  897MOL0     H23778   9.569   9.533   4.424 -0.8176 -0.0802 -1.4951
  897MOL0     H23779   9.426   9.457   4.378  1.2166  0.5211 -1.3207
  897MOL0     H23780   9.301   9.590   4.567 -1.6128  0.1208 -3.1667
  897MOL0     H23781   9.381   9.690   4.442  1.3226 -0.6181 -1.0290
  897MOL0     H23782   9.646   9.711   4.782  1.5621  0.0267 -2.3745
  897MOL0     H23783   9.757   9.250   4.674  1.4094 -0.8846  2.5415
  897MOL0     H23784   9.869   8.994   4.857  1.2685  0.9757  3.2183
  897MOL0     H23785  10.002   9.102   4.829  0.3093 -1.0777 -0.6758
  897MOL0     H23786   9.840   9.175   4.851  2.4762  1.9460  0.1069
  898MOL0     O23787   6.386   7.715   9.155 -0.4570 -0.2666  0.0023
  898MOL0     C23788   6.403   7.646   9.052  0.9773 -0.2316  0.1196
  898MOL0     O23789   6.522   7.603   9.008 -0.9375  0.4147  0.4844
  898MOL0     C23790   6.617   7.697   8.986  0.1470 -0.5835  0.5875
  898MOL0     C23791   6.748   7.651   8.975 -0.4206 -0.0814 -0.7604
  898MOL0     C23792   6.856   7.731   8.938  0.4786 -0.0086 -0.4289
  898MOL0     C23793   6.827   7.859   8.891 -0.1375  0.0883  0.2108
  898MOL0     O23794   6.919   7.939   8.828  0.3147 -0.4558 -1.4465
  898MOL0     C23795   6.897   8.030   8.719 -0.9174  0.3270 -0.5756
  898MOL0     C23796   7.030   8.062   8.662 -0.1372 -0.1740 -0.0598
  898MOL0     C23797   7.015   8.175   8.556  0.3124  0.7603  0.3563
  898MOL0     C23798   6.901   8.154   8.448 -0.4423  0.7296 -0.4828
  898MOL0     C23799   6.886   8.263   8.334 -1.1575 -0.0190  0.5355
  898MOL0     C23800   6.762   8.237   8.253 -1.2877 -0.4915  0.0935
  898MOL0     C23801   6.763   8.330   8.138  0.2442  0.3323 -0.5581
  898MOL0     C23802   6.866   8.309   8.028 -0.6141 -0.2687 -0.4320
  898MOL0     N23803   6.855   8.178   7.962 -0.1415 -0.7665 -0.6794
  898MOL0     C23804   6.884   8.052   8.013 -0.4551 -0.3688 -0.4179
  898MOL0     C23805   6.856   7.963   7.913  0.3202  0.4361 -0.1673
  898MOL0     C23806   6.898   7.819   7.900  0.5444  0.8527 -0.1582
  898MOL0     C23807   6.947   7.783   7.756 -0.0681  1.0780 -0.2529
  898MOL0     C23808   7.001   7.637   7.748  0.9296 -0.2731 -0.2114
  898MOL0     C23809   7.012   7.597   7.603  0.5957  0.4135  0.5800
  898MOL0     O23810   7.112   7.684   7.544  0.5020  0.4521  0.0036
  898MOL0     C23811   7.147   7.656   7.415 -0.2479 -1.0094  0.3378
  898MOL0     C23812   7.276   7.665   7.380  0.5538  0.3707  0.2232
  898MOL0     C23813   7.321   7.630   7.256 -0.3845  0.3413  0.7276
  898MOL0     C23814   7.467   7.609   7.236  0.9111 -0.4995  0.4772
  898MOL0     C23815   7.228   7.609   7.145  0.3623  0.6033 -0.5931
  898MOL0     C23816   7.262   7.571   7.001 -0.0614  0.0291  0.6148
  898MOL0     O23817   7.152   7.525   6.925 -0.9997 -0.3796  0.7505
  898MOL0     C23818   7.160   7.511   6.787 -0.3027  0.4925  0.3402
  898MOL0     C23819   7.279   7.494   6.712 -0.0985 -0.2262 -0.0973
  898MOL0     C23820   7.261   7.458   6.571 -0.0213  0.6109  0.0229
  898MOL0     C23821   7.131   7.450   6.517 -0.4934  0.1499 -0.4902
  898MOL0     O23822   7.111   7.415   6.387  0.4392 -0.4654  0.4403
  898MOL0     C23823   7.225   7.390   6.291 -0.2493 -0.4470  0.0549
  898MOL0     C23824   7.294   7.524   6.262  0.5033 -0.2418  0.1834
  898MOL0     C23825   7.402   7.499   6.159  0.1806  0.1855  0.2580
  898MOL0     C23826   7.511   7.403   6.205 -0.4273  0.5431 -0.2167
  898MOL0     C23827   7.639   7.390   6.126 -0.3998 -0.6355  0.0218
  898MOL0     C23828   7.626   7.329   5.977  0.1916  1.1961 -0.6060
  898MOL0     C23829   7.763   7.269   5.931  0.4562  0.5605  0.9264
  898MOL0     C23830   7.794   7.124   5.983  0.0825 -1.0047  0.1073
  898MOL0    Cl23831   7.695   7.000   5.884  0.2429 -0.7186 -0.0961
  898MOL0     C23832   7.019   7.482   6.599 -0.1893  0.2560  0.1175
  898MOL0     C23833   7.032   7.510   6.731  0.3735  0.2706 -0.1230
  898MOL0     O23834   7.373   7.600   6.951  0.2752  0.4174 -0.2568
  898MOL0     C23835   7.089   7.606   7.181 -0.1048 -0.3769 -0.7022
  898MOL0     C23836   7.054   7.639   7.316 -0.9432 -0.6437  0.0143
  898MOL0     N23837   6.813   8.041   7.804 -0.2895 -0.8144  1.1205
  898MOL0     N23838   6.814   8.165   7.832 -0.0834  0.9520 -0.3191
  898MOL0     C23839   6.696   7.909   8.903 -0.1983 -0.1332  0.2245
  898MOL0     C23840   6.595   7.833   8.948  0.8315  1.1045  0.2831
  898MOL0     C23841   6.276   7.619   8.987  0.3369  0.1660  0.4547
  898MOL0     C23842   6.167   7.694   9.014 -0.0105  0.5084 -1.0092
  898MOL0     C23843   6.041   7.651   8.982 -0.6811 -0.3526  0.3234
  898MOL0     C23844   6.020   7.535   8.904  0.0211 -0.4606  0.6977
  898MOL0     O23845   5.898   7.502   8.844 -0.4810  0.4120  0.5967
  898MOL0     C23846   5.828   7.607   8.767 -0.6946 -0.2444  0.0342
  898MOL0     C23847   5.699   7.635   8.843 -0.0890 -0.2150  0.5295
  898MOL0     C23848   5.588   7.543   8.799 -0.0231  1.5423  0.1305
  898MOL0     C23849   5.542   7.562   8.653 -0.6329 -0.2842  0.3638
  898MOL0     C23850   5.531   7.702   8.616 -0.7250 -0.0973  1.0093
  898MOL0     C23851   5.516   7.817   8.581  0.0004  0.3170  0.4820
  898MOL0     C23852   6.132   7.464   8.866  0.4223 -0.2322 -0.5071
  898MOL0     C23853   6.261   7.500   8.903 -1.5595  0.7365 -0.0737
  898MOL0     C23854   6.368   7.394   8.885  0.6975 -0.5004  0.4385
  898MOL0     H23855   6.772   7.551   9.010 -0.6278  0.0569 -0.2163
  898MOL0     H23856   6.961   7.706   8.932  0.7218  1.3003 -3.1274
  898MOL0     H23857   6.835   8.108   8.763 -2.4511 -1.0289 -0.2137
  898MOL0     H23858   6.843   7.980   8.637 -2.5268 -0.4819  0.9079
  898MOL0     H23859   7.096   8.083   8.747 -1.6965 -2.2193  1.8123
  898MOL0     H23860   7.069   7.973   8.612  0.9663 -0.7613  1.7229
  898MOL0     H23861   6.971   8.264   8.602 -2.7272 -0.7192  0.5904
  898MOL0     H23862   7.109   8.191   8.501 -1.7157 -2.0676 -4.6642
  898MOL0     H23863   6.915   8.059   8.396  3.1110  1.2164 -0.7165
  898MOL0     H23864   6.802   8.147   8.494 -0.0027  0.5133  0.4434
  898MOL0     H23865   6.986   8.261   8.288 -1.1080 -1.9892  0.6615
  898MOL0     H23866   6.878   8.358   8.387 -3.0146 -1.2012  2.4851
  898MOL0     H23867   6.758   8.128   8.241  2.2633 -1.1561  2.9979
  898MOL0     H23868   6.686   8.268   8.325  0.8212 -0.0665  2.2746
  898MOL0     H23869   6.780   8.435   8.160  0.3251  1.0148 -3.4693
  898MOL0     H23870   6.662   8.330   8.097  0.7267 -2.3693 -1.9839
  898MOL0     H23871   6.860   8.394   7.959 -1.0884  2.1242  2.3721
  898MOL0     H23872   6.961   8.317   8.081 -2.0666 -0.0583  2.2932
  898MOL0     H23873   6.926   8.022   8.108 -0.6748  0.0345 -0.1877
  898MOL0     H23874   6.816   7.751   7.926 -0.8596 -0.0506 -5.7852
  898MOL0     H23875   6.982   7.801   7.968 -1.1552 -0.4114  1.7473
  898MOL0     H23876   6.856   7.770   7.697 -0.8478 -1.7522  1.3553
  898MOL0     H23877   7.019   7.853   7.712  0.4370 -0.0720 -1.3485
  898MOL0     H23878   7.094   7.627   7.805 -0.3750 -1.5659  1.8253
  898MOL0     H23879   6.929   7.573   7.800 -1.4856  0.4144 -2.5230
  898MOL0     H23880   7.034   7.491   7.588 -0.9986  0.5472 -4.8506
  898MOL0     H23881   6.916   7.601   7.551 -0.2785 -0.2775  2.0671
  898MOL0     H23882   7.353   7.696   7.450  1.2437  0.8435 -0.7069
  898MOL0     H23883   7.490   7.513   7.189 -1.8194 -1.7276  1.4057
  898MOL0     H23884   7.530   7.623   7.325 -2.6381  0.4172  3.0777
  898MOL0     H23885   7.500   7.687   7.168 -2.6030  0.6969 -0.0653
  898MOL0     H23886   7.378   7.472   6.751 -0.4823 -1.8902  0.0245
  898MOL0     H23887   7.354   7.443   6.517  1.9835 -0.7560  3.5554
  898MOL0     H23888   7.286   7.308   6.330  0.0042 -0.5929 -0.6274
  898MOL0     H23889   7.181   7.350   6.199  1.3496 -0.8858 -0.5552
  898MOL0     H23890   7.218   7.598   6.238 -1.4567 -1.0077  3.4163
  898MOL0     H23891   7.346   7.555   6.353  1.2571 -2.2962  0.5189
  898MOL0     H23892   7.435   7.599   6.128 -0.2571 -0.2671 -1.8235
  898MOL0     H23893   7.350   7.446   6.078  1.8689 -0.1677 -0.6435
  898MOL0     H23894   7.467   7.304   6.213  1.0543 -0.1540 -0.3555
  898MOL0     H23895   7.531   7.451   6.302 -2.6506  1.2170 -0.0301
  898MOL0     H23896   7.688   7.489   6.126  1.8051 -1.5325  3.6806
  898MOL0     H23897   7.709   7.334   6.189 -1.1072 -1.0640  0.4353
  898MOL0     H23898   7.607   7.406   5.902  2.2096  1.3429 -1.0114
  898MOL0     H23899   7.554   7.248   5.963  1.6257  0.2417 -3.1279
  898MOL0     H23900   7.835   7.342   5.968 -3.0124  4.3249  0.9654
  898MOL0     H23901   7.759   7.267   5.821 -3.4591 -0.8578  0.9377
  898MOL0     H23902   7.761   7.118   6.087 -1.7684  0.3406 -0.3560
  898MOL0     H23903   7.901   7.102   5.978  0.4842  0.8892 -0.3155
  898MOL0     H23904   6.924   7.482   6.547 -0.7559 -2.0033  1.0415
  898MOL0     H23905   6.948   7.537   6.794 -0.1880  2.0823 -1.5719
  898MOL0     H23906   7.013   7.584   7.106  0.4137 -5.0050 -0.2126
  898MOL0     H23907   6.946   7.625   7.327 -0.8950 -2.1011 -1.0744
  898MOL0     H23908   6.673   8.010   8.871  0.6122 -0.6358 -2.1162
  898MOL0     H23909   6.495   7.874   8.962 -0.2898 -1.2227 -0.4923
  898MOL0     H23910   6.179   7.784   9.073  3.0667  0.4849 -1.4530
  898MOL0     H23911   5.954   7.704   9.019  0.0098  0.1885  1.2110
  898MOL0     H23912   5.881   7.702   8.765 -2.0005  0.4955 -0.6762
  898MOL0     H23913   5.811   7.571   8.665 -0.9128 -2.6871  0.8705
  898MOL0     H23914   5.670   7.737   8.820  2.8982  0.2250 -1.8129
  898MOL0     H23915   5.705   7.635   8.952 -0.2367  1.5636  0.5544
  898MOL0     H23916   5.616   7.440   8.822 -1.3557  1.3604  1.0403
  898MOL0     H23917   5.498   7.561   8.858 -1.7713 -1.7275 -1.3059
  898MOL0     H23918   5.445   7.514   8.641 -1.4655  1.4374 -0.2826
  898MOL0     H23919   5.617   7.502   8.600 -0.1716 -0.3817  1.1053
  898MOL0     H23920   5.488   7.920   8.570  2.1098  0.9697  0.6592
  898MOL0     H23921   6.110   7.377   8.805 -1.0604 -0.0744 -0.2266
  898MOL0     H23922   6.390   7.369   8.989 -2.0280  0.9659  1.4660
  898MOL0     H23923   6.343   7.300   8.835 -1.8888  0.6852 -0.7322
  898MOL0     H23924   6.455   7.437   8.835  1.6402 -0.5225  2.0099
  899MOL0     O23925   6.260   9.854   2.036  0.1846 -0.2332 -0.3735
  899MOL0     C23926   6.286   9.914   2.145  0.6220 -0.5072  0.3194
  899MOL0     O23927   6.196   9.971   2.234 -0.1014 -0.0755  0.0275
  899MOL0     C23928   6.063   9.991   2.192 -0.1849  0.0657 -0.8509
  899MOL0     C23929   5.966   9.906   2.251 -0.8913 -0.1472 -0.0828
  899MOL0     C23930   5.838   9.921   2.205  0.1009  0.4300 -0.0159
  899MOL0     C23931   5.804  10.024   2.117 -0.2647  0.1752 -0.4261
  899MOL0     O23932   5.671  10.021   2.077  0.4977 -0.2926  0.2501
  899MOL0     C23933   5.620  10.113   1.978 -0.6463 -0.8430 -0.4176
  899MOL0     C23934   5.475  10.175   2.010  0.1164 -0.9664  0.0683
  899MOL0     C23935   5.361  10.086   1.957  0.5811  0.2044 -0.4720
  899MOL0     C23936   5.227  10.156   1.987 -0.0309 -0.1278  0.2015
  899MOL0     C23937   5.105  10.068   1.940  0.0140 -0.9473  0.2577
  899MOL0     C23938   5.070   9.946   2.029 -0.3755 -0.5305  0.2622
  899MOL0     C23939   4.956   9.874   1.965 -0.2848  0.2160  0.0254
  899MOL0     C23940   4.918   9.763   2.065  0.2960 -0.3802 -0.4530
  899MOL0     N23941   4.825   9.823   2.165  0.3368 -0.5319  0.4420
  899MOL0     C23942   4.838   9.869   2.296 -1.1616 -0.3716  0.6926
  899MOL0     C23943   4.713   9.915   2.334  0.1126  0.0461  0.5408
  899MOL0     C23944   4.647   9.934   2.473 -0.1791  0.0187 -0.7011
  899MOL0     C23945   4.546   9.828   2.513  0.2981  0.8069 -0.0783
  899MOL0     C23946   4.500   9.845   2.661 -0.0249  0.2830 -0.7025
  899MOL0     C23947   4.373   9.778   2.705 -0.8362 -0.5701 -0.0216
  899MOL0     O23948   4.381   9.641   2.651 -0.4519 -1.2609 -0.6434
  899MOL0     C23949   4.354   9.532   2.734  0.1143  0.1126  0.2031
  899MOL0     C23950   4.436   9.420   2.717  0.1039 -0.4466 -0.4636
  899MOL0     C23951   4.433   9.302   2.800 -0.0382  0.1124 -0.0643
  899MOL0     C23952   4.527   9.193   2.768 -0.5744 -0.1148 -0.6062
  899MOL0     C23953   4.341   9.304   2.913  0.4807 -1.1168 -0.4580
  899MOL0     C23954   4.336   9.209   3.017 -0.5032  0.2808  0.6961
  899MOL0     O23955   4.339   9.250   3.148  0.0064 -0.5099  0.2097
  899MOL0     C23956   4.351   9.159   3.238 -0.1106  1.1110 -0.7059
  899MOL0     C23957   4.477   9.137   3.302  0.5011 -0.8863  0.7904
  899MOL0     C23958   4.486   9.061   3.417 -0.6119  0.0134 -0.6333
  899MOL0     C23959   4.374   8.989   3.466  0.8974 -1.0524 -0.8613
  899MOL0     O23960   4.388   8.921   3.585 -0.7458  0.3346 -0.1126
  899MOL0     C23961   4.290   8.819   3.604 -0.7016 -0.2988 -0.3637
  899MOL0     C23962   4.317   8.729   3.725 -0.1871 -0.3431  0.1554
  899MOL0     C23963   4.265   8.798   3.850  0.0601 -0.0160  0.3306
  899MOL0     C23964   4.374   8.780   3.959 -0.0587 -0.2157 -0.2531
  899MOL0     C23965   4.303   8.808   4.094  0.2218 -0.0703 -0.6210
  899MOL0     C23966   4.406   8.790   4.208  0.6734  0.5817  0.2731
  899MOL0     C23967   4.353   8.855   4.340  0.1204  0.4797 -0.5224
  899MOL0     C23968   4.420   8.981   4.351  0.0140 -0.5690 -0.3227
  899MOL0    Cl23969   4.600   8.954   4.391 -0.1515 -0.1585  0.1150
  899MOL0     C23970   4.249   8.998   3.389 -0.1227  0.1734  0.0080
  899MOL0     C23971   4.243   9.085   3.282  0.6639  0.6929  0.2415
  899MOL0     O23972   4.337   9.087   2.982  0.3682 -0.7752 -0.2526
  899MOL0     C23973   4.251   9.410   2.926 -0.6007 -1.0083  0.7425
  899MOL0     C23974   4.261   9.526   2.835  0.7856 -0.2439  0.2935
  899MOL0     N23975   4.628   9.898   2.221  0.3278  0.4688 -0.2292
  899MOL0     N23976   4.694   9.844   2.126 -0.3772  0.1237  0.2865
  899MOL0     C23977   5.912  10.103   2.054 -0.1207  0.1539  0.4724
  899MOL0     C23978   6.040  10.090   2.101 -0.4308 -0.4626 -0.2290
  899MOL0     C23979   6.423   9.957   2.183 -0.2997  0.0223  0.4877
  899MOL0     C23980   6.452   9.980   2.326 -0.3378  0.9460 -0.2453
  899MOL0     C23981   6.583  10.001   2.381 -0.0094  0.5142 -0.2355
  899MOL0     C23982   6.699   9.992   2.292  1.3074  0.4320  0.0929
  899MOL0     O23983   6.826  10.018   2.323 -0.2323 -0.3503  0.0503
  899MOL0     C23984   6.853  10.053   2.457 -0.7932  1.0181  0.0255
  899MOL0     C23985   7.002  10.086   2.475  0.7785  0.1336  0.0111
  899MOL0     C23986   7.038  10.103   2.620 -1.1112  0.1372 -0.4796
  899MOL0     C23987   7.181  10.163   2.624  0.6431  0.4153 -0.4678
  899MOL0     C23988   7.285  10.065   2.585  0.2270  0.4390  0.3981
  899MOL0     C23989   7.375   9.986   2.543  1.2725  0.0198  0.1826
  899MOL0     C23990   6.670   9.979   2.154  0.3396  0.6735  0.2375
  899MOL0     C23991   6.545   9.956   2.099  0.1083 -0.0075  0.1273
  899MOL0     C23992   6.540   9.947   1.943 -0.4028  0.8208  0.2445
  899MOL0     H23993   6.011   9.832   2.316  3.7114  2.4197  0.1054
  899MOL0     H23994   5.764   9.860   2.256  1.7836 -0.8575  1.0177
  899MOL0     H23995   5.614  10.053   1.887  1.5861 -0.5613 -0.8056
  899MOL0     H23996   5.691  10.196   1.967 -2.3379  1.2442  2.9284
  899MOL0     H23997   5.484  10.193   2.117  1.4101  1.4128 -0.3670
  899MOL0     H23998   5.473  10.266   1.948 -1.1731 -0.1628  1.2369
  899MOL0     H23999   5.374  10.084   1.849 -1.7006  2.3408 -0.8813
  899MOL0     H24000   5.359   9.988   2.007 -0.2010  0.7646  0.6406
  899MOL0     H24001   5.208  10.188   2.090 -3.7500  1.8426 -0.9054
  899MOL0     H24002   5.216  10.254   1.941  0.8972  0.1096  0.4733
  899MOL0     H24003   5.131  10.027   1.842  1.9985 -1.3833  0.9194
  899MOL0     H24004   5.013  10.128   1.941 -0.0461 -1.0305 -0.2487
  899MOL0     H24005   5.153   9.874   2.027  0.6452  0.5143  2.3433
  899MOL0     H24006   5.060   9.973   2.134  0.5651  1.7622 -0.1782
  899MOL0     H24007   4.984   9.839   1.865 -1.0044 -1.6247  0.4269
  899MOL0     H24008   4.875   9.946   1.948 -0.3996 -0.2698 -1.7326
  899MOL0     H24009   4.868   9.681   2.013 -2.6234 -0.4062  2.1165
  899MOL0     H24010   4.998   9.719   2.126  0.7467 -0.3777 -1.0333
  899MOL0     H24011   4.916   9.861   2.372 -1.5056  0.2266  1.1121
  899MOL0     H24012   4.601  10.034   2.477 -2.5799 -1.0572  2.1244
  899MOL0     H24013   4.726   9.913   2.545  2.3430  1.0574 -3.0062
  899MOL0     H24014   4.458   9.852   2.453  0.8540  3.3492  0.0264
  899MOL0     H24015   4.576   9.723   2.499  0.2172  0.7973 -0.1855
  899MOL0     H24016   4.576   9.807   2.729 -2.5749 -3.7240  0.2543
  899MOL0     H24017   4.481   9.952   2.673  0.1257  0.2366 -0.0094
  899MOL0     H24018   4.370   9.770   2.814  1.0192 -2.1395 -0.0242
  899MOL0     H24019   4.290   9.830   2.657  0.6898  0.4711 -1.6383
  899MOL0     H24020   4.508   9.413   2.637 -2.3540  2.0310 -3.1179
  899MOL0     H24021   4.628   9.221   2.800 -0.7534 -2.2524  2.1941
  899MOL0     H24022   4.510   9.175   2.662  0.1830 -2.4729 -0.3906
  899MOL0     H24023   4.506   9.100   2.822  0.2398  0.8204  1.4089
  899MOL0     H24024   4.562   9.199   3.276  1.3699 -1.5811  1.8849
  899MOL0     H24025   4.579   9.074   3.470 -1.5531  0.1787  1.0510
  899MOL0     H24026   4.184   8.847   3.608 -1.3307 -2.5324  0.7216
  899MOL0     H24027   4.296   8.749   3.521 -0.0802 -2.2943  1.2650
  899MOL0     H24028   4.257   8.638   3.721  0.8950 -1.1884  1.8864
  899MOL0     H24029   4.422   8.696   3.726 -0.2166 -0.5125  2.3609
  899MOL0     H24030   4.171   8.751   3.881 -0.0716 -1.6393 -2.2472
  899MOL0     H24031   4.268   8.906   3.836  0.3607 -0.3389 -2.7108
  899MOL0     H24032   4.449   8.857   3.941  3.3964 -3.1261  0.5913
  899MOL0     H24033   4.416   8.679   3.963  0.6824  0.0586 -0.9455
  899MOL0     H24034   4.272   8.913   4.098 -1.2000 -0.5001  0.2748
  899MOL0     H24035   4.214   8.749   4.113 -1.5312  2.3430 -0.8327
  899MOL0     H24036   4.493   8.841   4.165 -0.5018 -0.0669 -3.2619
  899MOL0     H24037   4.431   8.685   4.227 -0.6756  0.2259  0.2272
  899MOL0     H24038   4.372   8.799   4.432 -1.7518 -2.3607 -1.7296
  899MOL0     H24039   4.246   8.878   4.335  0.1071  0.8411  0.9465
  899MOL0     H24040   4.384   9.054   4.425  2.2339  2.6282 -2.1330
  899MOL0     H24041   4.431   9.034   4.256  1.7597 -3.3360 -1.7911
  899MOL0     H24042   4.152   8.955   3.409  0.1465 -0.0221  0.9351
  899MOL0     H24043   4.149   9.095   3.228 -0.1143 -1.5728  1.0765
  899MOL0     H24044   4.178   9.409   3.006 -1.8840  0.5558 -0.3398
  899MOL0     H24045   4.194   9.612   2.838  0.4323 -0.1003 -4.3058
  899MOL0     H24046   5.907  10.189   1.987 -0.2653 -0.4375 -0.3017
  899MOL0     H24047   6.120  10.138   2.046 -0.5746  0.0955  0.0418
  899MOL0     H24048   6.364   9.991   2.388 -0.9093  0.8188 -1.0168
  899MOL0     H24049   6.603  10.032   2.484  4.3402  3.5067 -1.6688
  899MOL0     H24050   6.801  10.148   2.471  0.6057  1.9993 -1.1125
  899MOL0     H24051   6.828   9.969   2.522  2.3098  0.9189  1.2556
  899MOL0     H24052   7.020  10.177   2.417 -1.6249  1.2568  0.8876
  899MOL0     H24053   7.056   9.996   2.443 -0.4682  0.2681 -2.6720
  899MOL0     H24054   6.971  10.165   2.680 -0.6510 -0.1822  0.3939
  899MOL0     H24055   7.039  10.002   2.663  1.2698  0.5606  0.6191
  899MOL0     H24056   7.200  10.207   2.722  3.2196 -4.2358  1.4776
  899MOL0     H24057   7.192  10.237   2.544 -0.0453  0.2029 -0.7617
  899MOL0     H24058   7.435   9.911   2.495 -1.5749 -3.8159  1.9833
  899MOL0     H24059   6.756   9.988   2.088 -2.2172  0.6531 -3.3763
  899MOL0     H24060   6.627   9.998   1.900 -1.7577  0.5772 -3.0795
  899MOL0     H24061   6.542   9.840   1.922  3.0959  0.9080 -0.5144
  899MOL0     H24062   6.444   9.984   1.907 -2.0237 -0.5512  2.8028
  900MOL0     O24063   4.450   2.663   6.640  0.0779  0.5162  0.4752
  900MOL0     C24064   4.540   2.614   6.571  0.7422  0.0986 -0.2410
  900MOL0     O24065   4.663   2.667   6.558 -0.0007 -0.3683  0.0111
  900MOL0     C24066   4.698   2.799   6.594 -0.2177 -0.1901 -0.1256
  900MOL0     C24067   4.657   2.899   6.512 -0.8743 -0.4254 -0.1666
  900MOL0     C24068   4.724   3.029   6.512 -0.2028  0.8863  0.8121
  900MOL0     C24069   4.824   3.065   6.604 -0.3816  1.2488  0.1704
  900MOL0     O24070   4.886   3.186   6.604  0.1750 -0.2847  1.1353
  900MOL0     C24071   4.868   3.292   6.502 -0.3987  0.2356  0.8204
  900MOL0     C24072   4.745   3.376   6.536 -0.5555  0.0533 -0.0271
  900MOL0     C24073   4.772   3.529   6.522 -1.1424  1.0061  0.8889
  900MOL0     C24074   4.648   3.614   6.558  0.8734  0.0466 -1.0367
  900MOL0     C24075   4.665   3.700   6.689  0.1611  1.2777 -0.2259
  900MOL0     C24076   4.749   3.823   6.662 -0.7120 -0.2094 -0.1503
  900MOL0     C24077   4.770   3.920   6.778 -0.1707 -0.4694 -1.1074
  900MOL0     C24078   4.878   3.890   6.882 -0.2469  0.0312  0.0202
  900MOL0     N24079   4.897   3.989   6.988  0.2542 -0.4906 -1.0897
  900MOL0     C24080   4.806   4.087   7.027 -0.2253  0.3845  0.0608
  900MOL0     C24081   4.877   4.158   7.114  0.3149  0.4407 -0.6055
  900MOL0     C24082   4.823   4.278   7.191 -0.0629 -0.3395  0.3695
  900MOL0     C24083   4.922   4.387   7.221 -0.8408  0.2779  0.4556
  900MOL0     C24084   4.953   4.373   7.371  0.0523  0.1702 -0.1347
  900MOL0     C24085   5.041   4.484   7.428  0.3436  0.4314  0.3241
  900MOL0     O24086   5.038   4.604   7.350  0.3157 -0.5247 -0.4675
  900MOL0     C24087   5.143   4.628   7.266  0.5538  0.1638  0.1564
  900MOL0     C24088   5.118   4.648   7.132  0.2431  0.1056  0.4623
  900MOL0     C24089   5.220   4.660   7.039 -0.2602 -1.0588  0.6871
  900MOL0     C24090   5.179   4.691   6.902  0.7510  0.0466 -0.1971
  900MOL0     C24091   5.353   4.658   7.081  0.3860  0.8729  0.6823
  900MOL0     C24092   5.468   4.682   6.976  0.4652 -0.9150  0.0592
  900MOL0     O24093   5.456   4.654   6.850  0.4004 -0.2568  0.0300
  900MOL0     C24094   5.569   4.624   6.772 -0.0638  0.5888 -0.6000
  900MOL0     C24095   5.596   4.689   6.652  0.3435  0.7786  0.4130
  900MOL0     C24096   5.719   4.646   6.580  0.1513 -0.3465  0.2892
  900MOL0     C24097   5.795   4.539   6.609  0.0837  0.0733 -0.6998
  900MOL0     O24098   5.902   4.489   6.548 -0.6233  0.5811 -0.2611
  900MOL0     C24099   5.969   4.568   6.447 -0.4005  0.2936  0.1261
  900MOL0     C24100   5.929   4.521   6.306 -0.3626  0.3988  0.7991
  900MOL0     C24101   5.960   4.374   6.272  0.2920  0.2692  0.2155
  900MOL0     C24102   5.901   4.328   6.140  0.0246 -0.1447 -0.7120
  900MOL0     C24103   5.867   4.184   6.140  0.1860 -0.3510  0.2300
  900MOL0     C24104   5.815   4.119   6.012 -0.3433 -0.5745 -0.4566
  900MOL0     C24105   5.927   4.109   5.895  1.0780  0.0493 -0.1350
  900MOL0     C24106   5.878   4.055   5.762 -0.4623 -0.3680 -0.2659
  900MOL0    Cl24107   5.993   3.918   5.726  0.1574  0.0251 -0.4674
  900MOL0     C24108   5.754   4.463   6.722  0.1808 -0.4054 -0.9034
  900MOL0     C24109   5.647   4.499   6.805  1.0123 -0.0612  0.6991
  900MOL0     O24110   5.574   4.723   7.031 -0.2008  0.5623  0.3802
  900MOL0     C24111   5.378   4.647   7.218  0.6921  0.1584 -0.4324
  900MOL0     C24112   5.273   4.624   7.306  0.4642  0.0428 -0.7770
  900MOL0     N24113   5.008   4.107   7.127  0.0043 -0.5635 -0.2904
  900MOL0     N24114   5.016   4.003   7.058  0.9434 -0.1213 -0.3095
  900MOL0     C24115   4.857   2.964   6.690  0.4544 -0.6864  0.3637
  900MOL0     C24116   4.809   2.830   6.676 -0.1725 -0.2206  0.4310
  900MOL0     C24117   4.496   2.482   6.514 -0.4497  0.0439 -0.0032
  900MOL0     C24118   4.394   2.412   6.583 -0.3629 -0.2494 -0.5132
  900MOL0     C24119   4.342   2.293   6.547 -0.1626 -0.2390 -0.1329
  900MOL0     C24120   4.402   2.230   6.436 -0.2346  0.5118 -0.4736
  900MOL0     O24121   4.354   2.111   6.382  0.5226  0.7372 -0.2880
  900MOL0     C24122   4.263   2.029   6.454  0.5701 -1.1847 -1.1038
  900MOL0     C24123   4.235   1.906   6.369 -0.4544 -0.4366 -0.1436
  900MOL0     C24124   4.369   1.833   6.324 -0.5739 -0.6925  0.0442
  900MOL0     C24125   4.350   1.696   6.274 -0.4587 -0.1066 -0.3344
  900MOL0     C24126   4.468   1.607   6.296  0.6570 -0.4560  0.4745
  900MOL0     C24127   4.540   1.514   6.305 -0.0878 -0.7099 -0.0331
  900MOL0     C24128   4.505   2.284   6.366  0.2752 -0.9203 -0.1486
  900MOL0     C24129   4.552   2.417   6.403  0.1161 -0.6024 -0.7577
  900MOL0     C24130   4.660   2.488   6.329 -0.9452  0.0809  0.7844
  900MOL0     H24131   4.587   2.869   6.435 -0.4233 -2.6626  0.2198
  900MOL0     H24132   4.680   3.107   6.450  0.0189 -0.4581 -1.1344
  900MOL0     H24133   4.859   3.248   6.403 -3.3345  1.7316  0.3192
  900MOL0     H24134   4.962   3.348   6.491 -0.1323 -0.1444  1.1250
  900MOL0     H24135   4.668   3.363   6.460 -0.2725  4.5348 -1.3903
  900MOL0     H24136   4.708   3.358   6.637 -1.0242 -0.2573 -0.2511
  900MOL0     H24137   4.859   3.565   6.578  2.2734  4.1698 -5.4203
  900MOL0     H24138   4.797   3.553   6.418 -1.3346  4.0250  1.4565
  900MOL0     H24139   4.621   3.678   6.473 -3.0897 -0.6343 -0.5173
  900MOL0     H24140   4.558   3.551   6.570 -1.8077  3.3959 -1.9188
  900MOL0     H24141   4.722   3.651   6.769 -0.1540  1.6170  0.2042
  900MOL0     H24142   4.568   3.741   6.716 -0.1840  0.9929 -0.9864
  900MOL0     H24143   4.842   3.790   6.615  0.0034  0.4833  0.7237
  900MOL0     H24144   4.702   3.887   6.587  2.1476  2.1386 -0.1603
  900MOL0     H24145   4.674   3.936   6.828  1.8773  0.9334  2.7631
  900MOL0     H24146   4.802   4.015   6.737 -2.1613  0.4147 -0.7399
  900MOL0     H24147   4.852   3.789   6.916  0.4772 -0.2193 -0.1451
  900MOL0     H24148   4.975   3.877   6.832 -0.3194 -1.8270  0.2881
  900MOL0     H24149   4.699   4.102   7.017 -0.1084  1.0222 -0.2457
  900MOL0     H24150   4.765   4.245   7.277 -0.4919  1.6936  0.9280
  900MOL0     H24151   4.747   4.314   7.121 -2.8821 -1.2435  2.7542
  900MOL0     H24152   5.011   4.375   7.158  0.2207 -0.6597  2.0731
  900MOL0     H24153   4.896   4.487   7.185  0.3138  0.0486 -1.1379
  900MOL0     H24154   4.858   4.374   7.425  1.2903  1.2568  2.2305
  900MOL0     H24155   5.013   4.282   7.381 -1.8259 -1.1582 -0.3531
  900MOL0     H24156   4.999   4.496   7.528  1.8533 -1.8116  1.3243
  900MOL0     H24157   5.144   4.450   7.443  0.0233 -0.9464 -0.3834
  900MOL0     H24158   5.016   4.647   7.096  0.5064 -2.1654 -0.3940
  900MOL0     H24159   5.252   4.756   6.853  1.7632 -0.7361  0.2390
  900MOL0     H24160   5.073   4.720   6.893 -0.0727 -2.2334  1.1698
  900MOL0     H24161   5.168   4.596   6.849 -1.9642  0.1468  0.0119
  900MOL0     H24162   5.532   4.773   6.629 -1.2943 -1.1336 -2.6015
  900MOL0     H24163   5.727   4.703   6.488 -2.1929  0.9167  0.7850
  900MOL0     H24164   5.947   4.675   6.461  2.4193  1.0026 -0.2975
  900MOL0     H24165   6.077   4.554   6.458  0.2387  3.4584 -0.9814
  900MOL0     H24166   5.823   4.548   6.296  0.7370  4.9090 -1.5213
  900MOL0     H24167   5.978   4.590   6.236 -1.3230  2.5295  2.1265
  900MOL0     H24168   5.920   4.319   6.357 -2.2366  4.2515  1.8614
  900MOL0     H24169   6.067   4.350   6.266  1.0022  2.4228  2.4749
  900MOL0     H24170   5.968   4.358   6.058  2.2524  0.6228  1.2868
  900MOL0     H24171   5.811   4.387   6.121  0.1909 -0.1038 -1.4331
  900MOL0     H24172   5.958   4.124   6.158  0.5730 -1.0280 -3.2725
  900MOL0     H24173   5.798   4.157   6.220 -0.5363 -3.2342 -1.2355
  900MOL0     H24174   5.720   4.161   5.977 -0.4604 -0.4344  0.0212
  900MOL0     H24175   5.788   4.019   6.047  4.3655 -1.4386  1.3840
  900MOL0     H24176   6.013   4.054   5.935  0.0029 -1.6223 -0.0403
  900MOL0     H24177   5.962   4.209   5.867  0.5326 -0.4386 -2.7946
  900MOL0     H24178   5.885   4.142   5.696  0.1636 -0.3878 -0.2268
  900MOL0     H24179   5.773   4.024   5.750 -1.1315  1.0154  1.5895
  900MOL0     H24180   5.814   4.373   6.737 -0.9272 -0.9071  0.6945
  900MOL0     H24181   5.623   4.434   6.888  1.8929 -1.0346  0.2138
  900MOL0     H24182   5.480   4.656   7.253 -0.2011  1.8376  1.9596
  900MOL0     H24183   5.300   4.613   7.410  4.1508  2.8118 -1.2096
  900MOL0     H24184   4.933   2.983   6.765 -1.3489  0.7989  1.9260
  900MOL0     H24185   4.860   2.754   6.734  1.1571 -1.4103 -2.1453
  900MOL0     H24186   4.347   2.447   6.674  1.1790 -1.9594  1.0321
  900MOL0     H24187   4.263   2.249   6.607 -0.3501  1.1223  0.6696
  900MOL0     H24188   4.311   2.011   6.551 -2.1088 -0.2950  0.4835
  900MOL0     H24189   4.172   2.089   6.462  1.3881 -0.0695  0.2756
  900MOL0     H24190   4.187   1.930   6.274 -0.7987  0.1371  0.1662
  900MOL0     H24191   4.173   1.836   6.426  0.3642 -1.1282 -0.0993
  900MOL0     H24192   4.420   1.890   6.247 -0.3843 -1.3955 -0.3627
  900MOL0     H24193   4.431   1.824   6.414 -0.3029 -2.2134 -0.2713
  900MOL0     H24194   4.327   1.700   6.167  2.3086 -0.2380 -0.9914
  900MOL0     H24195   4.269   1.642   6.325 -0.2676  0.5514  0.6890
  900MOL0     H24196   4.592   1.423   6.326  0.6180 -0.5135 -0.8915
  900MOL0     H24197   4.558   2.234   6.286 -0.2150  0.5101 -1.4127
  900MOL0     H24198   4.688   2.441   6.234 -1.5078 -2.0067  1.5883
  900MOL0     H24199   4.618   2.585   6.301 -1.6284 -0.3995  0.0694
  900MOL0     H24200   4.747   2.499   6.393 -0.2626 -2.1557  0.3525
  901MOL0     O24201   0.635   7.779   1.727  0.8872  0.1327  0.4865
  901MOL0     C24202   0.758   7.792   1.722 -0.1698  0.6181  0.0402
  901MOL0     O24203   0.822   7.846   1.615  0.0248  0.2940  0.2141
  901MOL0     C24204   0.757   7.924   1.519  0.9455 -0.3702 -0.5022
  901MOL0     C24205   0.795   7.924   1.383 -0.3953 -0.1330 -0.8323
  901MOL0     C24206   0.724   7.994   1.289 -1.2084 -0.4997 -0.6207
  901MOL0     C24207   0.621   8.081   1.329 -0.3239  0.4415 -0.0165
  901MOL0     O24208   0.561   8.159   1.230  0.6630 -0.2416 -0.5420
  901MOL0     C24209   0.524   8.099   1.105 -0.1940  0.9649  0.7902
  901MOL0     C24210   0.580   8.185   0.990  0.3027 -0.1017 -0.2328
  901MOL0     C24211   0.720   8.238   1.006  0.2849  0.6997 -0.2195
  901MOL0     C24212   0.782   8.326   0.895  0.2896  0.1013  0.0475
  901MOL0     C24213   0.791   8.259   0.754  0.1483 -0.2596 -0.4008
  901MOL0     C24214   0.910   8.164   0.740 -0.3321 -0.7986  0.2249
  901MOL0     C24215   0.941   8.111   0.587 -0.3389 -0.3608  0.2594
  901MOL0     C24216   1.078   8.037   0.604  0.3461  0.4020  0.7467
  901MOL0     N24217   1.090   7.955   0.477 -0.5573 -0.5065 -0.3348
  901MOL0     C24218   1.107   8.009   0.352  0.2072 -0.9831 -0.1843
  901MOL0     C24219   1.131   7.903   0.280 -0.4071  0.9107 -0.5574
  901MOL0     C24220   1.143   7.893   0.128  0.4304  0.1783 -0.2331
  901MOL0     C24221   1.296   7.894   0.090 -0.0365  1.6263  0.9759
  901MOL0     C24222   1.327   7.871  -0.061 -0.5878  0.2022 -0.7226
  901MOL0     C24223   1.481   7.887  -0.085 -0.4663  0.7424  0.2191
  901MOL0     O24224   1.538   7.787  -0.000 -0.4268 -0.5269 -0.5074
  901MOL0     C24225   1.669   7.742  -0.006 -0.5375 -0.4654  0.0743
  901MOL0     C24226   1.761   7.786  -0.105 -0.3996  0.1975 -0.2045
  901MOL0     C24227   1.890   7.733  -0.112 -0.0758 -1.1869 -0.5876
  901MOL0     C24228   1.981   7.791  -0.217 -0.2260  0.2202 -0.3141
  901MOL0     C24229   1.930   7.629  -0.020  0.5097 -0.1139 -0.2946
  901MOL0     C24230   2.072   7.581  -0.005  0.0812  0.1629 -0.1489
  901MOL0     O24231   2.094   7.481   0.089  0.2607 -0.3670 -0.1013
  901MOL0     C24232   2.225   7.437   0.094  0.7636 -0.5634 -0.0684
  901MOL0     C24233   2.305   7.472   0.195 -0.8618 -0.4801 -0.1662
  901MOL0     C24234   2.435   7.431   0.208 -0.5655  0.3760 -0.1632
  901MOL0     C24235   2.482   7.344   0.111  0.1184  0.1218 -0.0204
  901MOL0     O24236   2.618   7.308   0.128 -0.1835 -0.0710 -0.2267
  901MOL0     C24237   2.698   7.254   0.019  0.1161  1.1572  0.0284
  901MOL0     C24238   2.818   7.186   0.086  0.0867 -0.0436  0.3811
  901MOL0     C24239   2.923   7.168  -0.021 -0.6959 -0.1775  0.7579
  901MOL0     C24240   2.989   7.300  -0.057  0.4600  0.5113  0.0199
  901MOL0     C24241   2.954   7.359  -0.188 -0.6936 -0.3159  0.5211
  901MOL0     C24242   3.049   7.322  -0.305 -0.1645  0.1724  0.0990
  901MOL0     C24243   3.025   7.404  -0.441  0.1180 -0.8066 -0.6393
  901MOL0     C24244   3.140   7.393  -0.537  0.7010 -0.6851  0.3184
  901MOL0    Cl24245   3.296   7.460  -0.471  0.3252 -0.1654  0.1745
  901MOL0     C24246   2.405   7.321  -0.006  0.5967 -0.2978 -0.3353
  901MOL0     C24247   2.275   7.359  -0.010 -0.9853 -0.1535  0.2587
  901MOL0     O24248   2.165   7.647  -0.053  0.3939  1.0191 -0.2314
  901MOL0     C24249   1.838   7.589   0.074  0.0995 -0.9539 -0.1635
  901MOL0     C24250   1.711   7.638   0.080  0.2601  0.0133  0.2583
  901MOL0     N24251   1.123   7.786   0.350 -0.2244  0.1324  0.0066
  901MOL0     N24252   1.098   7.822   0.469  0.6194  0.0471 -0.4128
  901MOL0     C24253   0.585   8.096   1.459 -0.1202  0.6990  0.5767
  901MOL0     C24254   0.646   8.017   1.553 -0.1602 -0.3476 -0.1607
  901MOL0     C24255   0.843   7.769   1.837 -0.5327  0.3339 -0.1069
  901MOL0     C24256   0.981   7.784   1.823  0.0919  0.7483 -1.0576
  901MOL0     C24257   1.062   7.759   1.930 -0.1103 -0.4662 -1.1432
  901MOL0     C24258   1.021   7.723   2.056 -0.0475  0.3713  0.5787
  901MOL0     O24259   1.133   7.708   2.139  0.7205 -0.0993  0.2125
  901MOL0     C24260   1.125   7.780   2.267 -0.2771 -0.3113  1.3782
  901MOL0     C24261   1.122   7.930   2.252  0.1616 -0.2804  0.2658
  901MOL0     C24262   1.130   8.010   2.389  0.1930 -0.4443  0.4776
  901MOL0     C24263   1.036   7.951   2.503 -0.2314  0.4538 -0.9422
  901MOL0     C24264   1.067   8.012   2.628  0.7039  0.3028 -0.0695
  901MOL0     C24265   1.087   8.046   2.742 -0.5142  0.3269  0.1186
  901MOL0     C24266   0.887   7.712   2.075 -0.8809 -0.7608 -0.7473
  901MOL0     C24267   0.792   7.735   1.973 -0.3098  0.1389 -0.0684
  901MOL0     C24268   0.639   7.714   2.002 -0.3242  0.4675  0.3882
  901MOL0     H24269   0.881   7.872   1.340 -0.6900  0.4752 -2.2152
  901MOL0     H24270   0.763   8.010   1.188 -0.4581  1.0685 -0.1112
  901MOL0     H24271   0.416   8.089   1.091 -0.0684  1.1304 -0.4417
  901MOL0     H24272   0.565   7.997   1.100 -1.7709  0.3360 -0.0519
  901MOL0     H24273   0.576   8.118   0.903 -0.2316 -0.0158 -0.2775
  901MOL0     H24274   0.507   8.265   0.976  0.6785  0.5214  1.2715
  901MOL0     H24275   0.728   8.299   1.097  2.7035  0.8552 -0.4762
  901MOL0     H24276   0.790   8.154   1.010 -0.5873 -0.0343 -0.1769
  901MOL0     H24277   0.714   8.410   0.887 -1.3058 -1.2938 -1.8404
  901MOL0     H24278   0.876   8.368   0.932 -0.5608  0.1211  2.3349
  901MOL0     H24279   0.794   8.333   0.674 -1.0323  1.2426  0.8808
  901MOL0     H24280   0.702   8.196   0.743  1.3308 -1.8082 -1.6403
  901MOL0     H24281   1.006   8.207   0.769  0.0301 -2.3775  1.5482
  901MOL0     H24282   0.891   8.076   0.802 -1.0082 -0.0328  1.1287
  901MOL0     H24283   0.933   8.193   0.515 -2.6321  0.7268  1.6516
  901MOL0     H24284   0.867   8.033   0.568 -0.7041  0.0321  0.0572
  901MOL0     H24285   1.172   8.090   0.620  1.0252 -0.6478  0.3163
  901MOL0     H24286   1.058   7.968   0.687 -1.2386 -1.3672 -0.9873
  901MOL0     H24287   1.105   8.115   0.327  1.6862 -0.2874  2.2942
  901MOL0     H24288   1.086   7.974   0.081 -1.6312 -1.5064 -0.7623
  901MOL0     H24289   1.095   7.800   0.097  1.0615 -0.2731  0.1205
  901MOL0     H24290   1.343   7.992   0.104  0.4672  1.3102  1.5206
  901MOL0     H24291   1.355   7.822   0.146  0.9178  1.5078 -0.1419
  901MOL0     H24292   1.289   7.770  -0.083 -1.0004 -0.2498  1.7522
  901MOL0     H24293   1.273   7.942  -0.124 -0.5995  2.3196  1.5180
  901MOL0     H24294   1.498   7.857  -0.189 -2.2076 -0.2454  0.1733
  901MOL0     H24295   1.518   7.987  -0.062  2.3818  0.4726 -2.6131
  901MOL0     H24296   1.732   7.864  -0.175 -2.4927  0.0244  0.3921
  901MOL0     H24297   2.013   7.716  -0.290 -1.2950  1.0096 -1.6483
  901MOL0     H24298   2.060   7.845  -0.164  0.1388 -0.0742 -0.5537
  901MOL0     H24299   1.936   7.875  -0.271  4.1126  1.8750 -1.8068
  901MOL0     H24300   2.260   7.534   0.272 -0.0563  0.4436 -0.4245
  901MOL0     H24301   2.494   7.468   0.292 -0.8067 -1.3303  0.8212
  901MOL0     H24302   2.644   7.187  -0.048  1.3622  0.3458 -0.2037
  901MOL0     H24303   2.744   7.332  -0.041  4.2296 -1.2556 -0.3886
  901MOL0     H24304   2.859   7.241   0.171 -0.2185  1.6707 -0.5172
  901MOL0     H24305   2.779   7.089   0.118 -1.1267 -0.4794 -2.1191
  901MOL0     H24306   2.881   7.123  -0.112 -3.2359  1.8628  0.7939
  901MOL0     H24307   3.008   7.112   0.018  2.9088  3.0526 -1.7673
  901MOL0     H24308   3.096   7.276  -0.048  0.1047 -1.0515  0.3825
  901MOL0     H24309   2.973   7.381   0.014  1.1772  1.0184 -0.3770
  901MOL0     H24310   2.853   7.328  -0.214 -0.2560 -1.9179  0.6482
  901MOL0     H24311   2.946   7.468  -0.184  0.3418 -0.2368  0.8603
  901MOL0     H24312   3.032   7.217  -0.329 -1.3954  1.0360 -3.6036
  901MOL0     H24313   3.151   7.348  -0.273  0.1703  1.8939 -2.1004
  901MOL0     H24314   3.007   7.507  -0.407  1.6592 -1.3846  2.2268
  901MOL0     H24315   2.933   7.368  -0.488  1.3234 -0.3753 -3.4979
  901MOL0     H24316   3.111   7.446  -0.629 -4.4521 -2.1249  0.8339
  901MOL0     H24317   3.148   7.286  -0.559  0.3911 -0.4740 -0.9459
  901MOL0     H24318   2.446   7.256  -0.084 -0.0259 -1.1593  0.0373
  901MOL0     H24319   2.202   7.350  -0.090 -4.6071  2.5904  2.9234
  901MOL0     H24320   1.855   7.509   0.146 -0.7571  1.9384  3.5987
  901MOL0     H24321   1.646   7.593   0.154  2.0204  0.8713  2.4312
  901MOL0     H24322   0.493   8.148   1.484  0.8100  2.0223  1.3402
  901MOL0     H24323   0.608   8.023   1.654  2.2527  1.4309  0.7232
  901MOL0     H24324   1.034   7.822   1.736  1.2461 -1.0236 -1.1701
  901MOL0     H24325   1.168   7.780   1.920 -0.0560  0.6203  1.0588
  901MOL0     H24326   1.042   7.736   2.324 -1.2614 -1.0181 -0.5298
  901MOL0     H24327   1.202   7.748   2.339 -0.2514  2.8727  2.9290
  901MOL0     H24328   1.032   7.951   2.193  0.0997 -1.0337  0.0785
  901MOL0     H24329   1.213   7.955   2.196 -0.3551  1.1526  0.0322
  901MOL0     H24330   1.231   8.002   2.429 -0.0326 -2.8605  0.7000
  901MOL0     H24331   1.105   8.114   2.366  0.3346 -0.0350  2.0889
  901MOL0     H24332   1.040   7.842   2.512  1.2195  0.6218  1.0757
  901MOL0     H24333   0.933   7.969   2.469 -0.0916  0.3932 -1.4001
  901MOL0     H24334   1.114   8.089   2.837  1.8711  1.9769 -1.1932
  901MOL0     H24335   0.864   7.684   2.177  1.3649 -1.1461 -0.2865
  901MOL0     H24336   0.619   7.674   2.102 -0.1982 -0.6654 -0.0302
  901MOL0     H24337   0.600   7.817   2.000 -0.8872  0.3460  2.5127
  901MOL0     H24338   0.606   7.648   1.922  0.0687  1.2711 -0.4649
  902MOL0     O24339   7.849   5.099   5.815 -0.6248  0.6982  0.8906
  902MOL0     C24340   7.772   5.068   5.906 -0.4453  0.0446 -0.1431
  902MOL0     O24341   7.671   5.142   5.952 -0.8111  0.7142 -0.4791
  902MOL0     C24342   7.638   5.259   5.890 -0.0395 -0.2991 -0.7110
  902MOL0     C24343   7.660   5.383   5.945 -0.5600  0.5227  0.2130
  902MOL0     C24344   7.630   5.506   5.882  0.3277  1.1420  0.7020
  902MOL0     C24345   7.566   5.495   5.757  0.8989  0.0233  0.5380
  902MOL0     O24346   7.535   5.624   5.716  0.4337  0.4074 -0.6697
  902MOL0     C24347   7.517   5.646   5.575  0.4223 -1.3005  0.4234
  902MOL0     C24348   7.381   5.706   5.537 -0.5747  0.4349 -0.2458
  902MOL0     C24349   7.362   5.762   5.391 -0.9986  0.6312 -0.0237
  902MOL0     C24350   7.317   5.651   5.296  0.1838 -0.7345  0.7497
  902MOL0     C24351   7.350   5.673   5.151  0.1027  0.7394  0.9271
  902MOL0     C24352   7.281   5.789   5.081 -0.2092  0.4626  1.0266
  902MOL0     C24353   7.131   5.749   5.073  0.2509  0.4224  0.4479
  902MOL0     C24354   7.053   5.833   4.961 -0.4362 -0.5483  0.3887
  902MOL0     N24355   6.913   5.802   4.960  0.3163 -0.0998 -0.0126
  902MOL0     C24356   6.828   5.805   4.858 -0.4118 -0.8452  0.5212
  902MOL0     C24357   6.711   5.773   4.912 -0.1661  0.0800  0.1315
  902MOL0     C24358   6.574   5.744   4.844  0.6526  0.4429 -0.0551
  902MOL0     C24359   6.574   5.628   4.746 -0.2296 -0.8554  0.0075
  902MOL0     C24360   6.578   5.682   4.603 -0.6559  0.2984  0.1726
  902MOL0     C24361   6.579   5.576   4.497 -0.2612  0.1545  0.2447
  902MOL0     O24362   6.488   5.465   4.513 -0.0711  0.2149 -0.7412
  902MOL0     C24363   6.513   5.353   4.436  0.9901 -0.1020  0.7606
  902MOL0     C24364   6.431   5.243   4.445 -0.2370 -0.2589 -0.7182
  902MOL0     C24365   6.441   5.128   4.371  0.5511  1.1100 -0.5156
  902MOL0     C24366   6.349   5.022   4.390  0.8821  0.1295  0.5818
  902MOL0     C24367   6.545   5.113   4.280 -0.6353 -0.4340 -0.7152
  902MOL0     C24368   6.582   4.998   4.208 -0.0651  0.2083  0.0800
  902MOL0     O24369   6.583   4.881   4.276  0.5169  0.2162  0.6567
  902MOL0     C24370   6.611   4.753   4.226 -0.4298 -0.5760 -0.0356
  902MOL0     C24371   6.650   4.654   4.310 -0.2158 -0.6611 -0.2663
  902MOL0     C24372   6.708   4.535   4.258  0.3375 -0.4723  0.3854
  902MOL0     C24373   6.729   4.519   4.118 -0.2192  0.4654 -0.4568
  902MOL0     O24374   6.786   4.416   4.059 -0.0815 -1.1574  0.0202
  902MOL0     C24375   6.815   4.301   4.138 -0.6273 -0.0920  0.1644
  902MOL0     C24376   6.867   4.203   4.041 -0.4124  0.3281  0.2233
  902MOL0     C24377   6.781   4.187   3.912 -0.5366  0.9122  0.3462
  902MOL0     C24378   6.842   4.079   3.822  0.0906 -0.4642 -0.0681
  902MOL0     C24379   6.767   4.066   3.693  0.3239  0.2367  0.4305
  902MOL0     C24380   6.836   3.967   3.597 -0.1112 -0.4432  0.6580
  902MOL0     C24381   6.964   4.014   3.529 -0.3690  0.9038  0.3683
  902MOL0     C24382   7.051   3.930   3.444 -0.3331 -0.3268 -0.0410
  902MOL0    Cl24383   6.945   3.831   3.334  0.4423  0.7536 -0.0595
  902MOL0     C24384   6.679   4.616   4.038  0.6426 -0.3054 -0.8663
  902MOL0     C24385   6.620   4.733   4.088 -0.4053 -0.1786  1.0505
  902MOL0     O24386   6.645   5.019   4.107 -0.5993 -0.2095 -0.0502
  902MOL0     C24387   6.632   5.223   4.267  0.2913  0.5710 -0.4288
  902MOL0     C24388   6.614   5.341   4.337  0.4357  0.0125 -0.2404
  902MOL0     N24389   6.724   5.751   5.044  0.4382 -0.5260 -0.0616
  902MOL0     N24390   6.847   5.764   5.072  0.9191 -0.3703 -0.2301
  902MOL0     C24391   7.524   5.372   5.706  0.1853  0.2411 -0.0096
  902MOL0     C24392   7.555   5.252   5.775 -0.5979 -0.1950  0.0637
  902MOL0     C24393   7.814   4.957   5.993 -0.1682 -0.3658 -0.1185
  902MOL0     C24394   7.837   4.835   5.935  0.1163 -0.2795 -0.5794
  902MOL0     C24395   7.877   4.721   6.011  0.3326  0.5802 -0.1628
  902MOL0     C24396   7.907   4.748   6.148  0.2258  0.2306 -0.1343
  902MOL0     O24397   7.979   4.646   6.211  0.5449  0.0956 -0.4005
  902MOL0     C24398   8.089   4.667   6.293 -0.1036 -0.0953 -0.0410
  902MOL0     C24399   8.162   4.538   6.334 -0.0101 -0.5102 -0.0471
  902MOL0     C24400   8.217   4.463   6.214  0.6152 -0.1530 -0.5311
  902MOL0     C24401   8.305   4.357   6.268  0.4617 -0.1498 -0.1314
  902MOL0     C24402   8.247   4.261   6.364 -0.6670 -0.7112  0.7290
  902MOL0     C24403   8.188   4.190   6.444  0.0790 -0.0165  0.6145
  902MOL0     C24404   7.881   4.865   6.209  0.2470 -0.1908 -0.0847
  902MOL0     C24405   7.828   4.966   6.135  0.5541 -0.5499 -0.5034
  902MOL0     C24406   7.814   5.096   6.215 -0.4591 -0.5116  0.5778
  902MOL0     H24407   7.689   5.393   6.049 -2.5192 -0.0081  0.8643
  902MOL0     H24408   7.665   5.598   5.927  1.1334  1.8424 -1.2665
  902MOL0     H24409   7.530   5.552   5.519 -0.7046 -1.3541  0.2254
  902MOL0     H24410   7.597   5.719   5.556  1.6989 -2.3647  1.5179
  902MOL0     H24411   7.319   5.618   5.553  0.4396  0.0883  2.1864
  902MOL0     H24412   7.362   5.783   5.612  0.7971  2.0808 -1.4759
  902MOL0     H24413   7.285   5.839   5.405 -0.9673  0.9519 -1.4589
  902MOL0     H24414   7.453   5.804   5.347  0.5832  1.4453  3.6611
  902MOL0     H24415   7.362   5.557   5.330 -0.5849 -1.3246  0.1995
  902MOL0     H24416   7.209   5.652   5.316  0.0847 -0.7385  0.2366
  902MOL0     H24417   7.318   5.588   5.090 -5.1034  2.2472  1.0409
  902MOL0     H24418   7.459   5.677   5.141  0.2989 -2.8586  0.5384
  902MOL0     H24419   7.290   5.887   5.129 -0.1648  0.9711  0.0154
  902MOL0     H24420   7.325   5.787   4.981 -2.1257  0.5031  0.1453
  902MOL0     H24421   7.093   5.762   5.175  0.1064 -0.1109  0.4665
  902MOL0     H24422   7.129   5.642   5.053 -0.7894  0.3658  0.7650
  902MOL0     H24423   7.066   5.941   4.970  0.3458 -0.6811  0.9287
  902MOL0     H24424   7.088   5.806   4.861 -0.5485 -3.4790  1.0335
  902MOL0     H24425   6.862   5.850   4.766 -2.3497 -1.9111 -0.7765
  902MOL0     H24426   6.546   5.839   4.798 -2.4506  0.7707  2.2079
  902MOL0     H24427   6.485   5.739   4.908  0.6044 -1.2823 -0.2307
  902MOL0     H24428   6.660   5.564   4.769 -0.3146  0.2271  4.1857
  902MOL0     H24429   6.483   5.571   4.763  0.1733 -1.2297  1.0074
  902MOL0     H24430   6.485   5.736   4.579  0.5627  1.9262 -1.0762
  902MOL0     H24431   6.659   5.753   4.588  1.9770 -2.0093  2.4916
  902MOL0     H24432   6.545   5.613   4.400  0.5916  0.2022 -0.0479
  902MOL0     H24433   6.680   5.534   4.499 -2.1099 -4.9292  1.3649
  902MOL0     H24434   6.360   5.246   4.527 -0.8927 -0.5760 -1.2575
  902MOL0     H24435   6.260   5.060   4.442 -0.7558 -2.1413 -0.3592
  902MOL0     H24436   6.396   4.935   4.436 -1.3559 -1.2711  0.4112
  902MOL0     H24437   6.305   4.992   4.294  0.8660  1.3921  0.1761
  902MOL0     H24438   6.645   4.675   4.416 -2.2634  1.9449 -0.7505
  902MOL0     H24439   6.756   4.469   4.330  0.9285  1.4890  1.8708
  902MOL0     H24440   6.891   4.327   4.212 -1.4745  0.6637  0.7943
  902MOL0     H24441   6.723   4.263   4.182 -2.8601  1.8800 -2.4444
  902MOL0     H24442   6.962   4.248   4.008 -1.2969 -0.5602 -4.1075
  902MOL0     H24443   6.880   4.102   4.081 -1.5643  0.0534 -0.0789
  902MOL0     H24444   6.769   4.283   3.861 -0.4772  0.0234 -1.4142
  902MOL0     H24445   6.679   4.150   3.918 -1.1627  2.2467 -1.2254
  902MOL0     H24446   6.835   3.983   3.874  1.0562 -1.8451 -2.3514
  902MOL0     H24447   6.947   4.106   3.808 -0.6322  1.2745 -3.0123
  902MOL0     H24448   6.672   4.024   3.728 -0.2948 -1.5133 -2.9354
  902MOL0     H24449   6.751   4.166   3.651 -0.5252 -0.4254 -0.8962
  902MOL0     H24450   6.778   3.936   3.510  1.2576  1.2637 -0.9348
  902MOL0     H24451   6.865   3.880   3.657  1.5215  0.3075  1.0265
  902MOL0     H24452   7.035   4.042   3.608 -0.8200  3.1207  0.0640
  902MOL0     H24453   6.930   4.100   3.471 -3.4008  0.6705  1.6381
  902MOL0     H24454   7.104   3.863   3.513  0.5530 -1.1007 -1.4165
  902MOL0     H24455   7.127   3.989   3.392  1.5619 -0.3660  2.4754
  902MOL0     H24456   6.688   4.609   3.930  2.7574  0.2636 -0.7676
  902MOL0     H24457   6.582   4.808   4.018 -0.0176  0.2704  1.3223
  902MOL0     H24458   6.718   5.211   4.202  0.8604  0.7251  0.2851
  902MOL0     H24459   6.666   5.431   4.304 -1.0307  1.0429  0.1759
  902MOL0     H24460   7.467   5.374   5.613 -1.8443  3.1942  1.1583
  902MOL0     H24461   7.518   5.153   5.751  0.7322 -0.9876  1.2007
  902MOL0     H24462   7.828   4.829   5.827  0.2667  0.8098 -0.6657
  902MOL0     H24463   7.902   4.629   5.959 -1.0159  0.6194 -0.9270
  902MOL0     H24464   8.166   4.730   6.247 -0.6594  0.3575 -0.3679
  902MOL0     H24465   8.065   4.731   6.379  2.5018  0.5778  0.2697
  902MOL0     H24466   8.092   4.479   6.393  1.4330  1.4939  4.0240
  902MOL0     H24467   8.245   4.562   6.401 -1.4876 -0.8995  2.0134
  902MOL0     H24468   8.135   4.438   6.145 -1.2726  2.9078  0.4248
  902MOL0     H24469   8.268   4.539   6.155  1.2036  0.0662  0.2483
  902MOL0     H24470   8.396   4.405   6.306  1.7850 -0.5181 -2.5970
  902MOL0     H24471   8.327   4.310   6.172 -1.9327  1.4321 -1.5629
  902MOL0     H24472   8.133   4.153   6.529  0.1242  0.6864  0.9511
  902MOL0     H24473   7.908   4.886   6.312 -1.3662  0.2420  0.2816
  902MOL0     H24474   7.861   5.107   6.312 -1.1862  0.6164  0.8140
  902MOL0     H24475   7.849   5.177   6.150  0.2947 -2.6950 -1.9651
  902MOL0     H24476   7.706   5.098   6.231 -0.4130 -2.5361  1.4956
  903MOL0     O24477   7.555  11.401   0.881 -0.4258  0.7237 -0.9814
  903MOL0     C24478   7.477  11.345   0.809 -0.2147  0.4204  0.9717
  903MOL0     O24479   7.409  11.233   0.833 -0.4045  0.3353 -0.1737
  903MOL0     C24480   7.460  11.149   0.930 -0.7527  0.3621 -0.1494
  903MOL0     C24481   7.571  11.071   0.907  0.4556 -0.0166 -0.5414
  903MOL0     C24482   7.603  10.969   0.997  0.6395 -0.2862 -0.7153
  903MOL0     C24483   7.535  10.963   1.125 -0.2817 -0.2524  0.9339
  903MOL0     O24484   7.575  10.854   1.196  0.3661 -0.3415 -0.3445
  903MOL0     C24485   7.528  10.851   1.334 -0.3051 -0.5746  0.4517
  903MOL0     C24486   7.634  10.781   1.408 -0.6051  0.3363 -0.1819
  903MOL0     C24487   7.776  10.842   1.395 -0.0532 -0.1179  0.2053
  903MOL0     C24488   7.855  10.759   1.297  0.8065  0.8324  0.0533
  903MOL0     C24489   8.005  10.801   1.301  0.1304 -0.0965  0.0933
  903MOL0     C24490   8.076  10.762   1.428 -0.2236 -0.9235 -0.3374
  903MOL0     C24491   8.218  10.822   1.428  0.0368  0.3856  1.1266
  903MOL0     C24492   8.321  10.758   1.344 -0.2282 -0.3670 -0.1047
  903MOL0     N24493   8.335  10.615   1.374 -0.0098 -0.1666  0.6303
  903MOL0     C24494   8.275  10.515   1.303  0.3235  0.1748  0.1690
  903MOL0     C24495   8.271  10.415   1.390 -1.0613  0.9406 -0.1928
  903MOL0     C24496   8.212  10.278   1.383 -0.4308  0.5189  0.4560
  903MOL0     C24497   8.059  10.277   1.413  0.1959 -0.9693 -0.5917
  903MOL0     C24498   7.982  10.343   1.292 -0.5616 -0.4082 -0.5257
  903MOL0     C24499   7.882  10.255   1.209  0.1441 -0.2068  0.3166
  903MOL0     O24500   7.850  10.334   1.101  1.0061  0.1802  0.2116
  903MOL0     C24501   7.719  10.375   1.089 -0.1550 -0.1045 -1.1554
  903MOL0     C24502   7.609  10.308   1.137 -0.1790 -0.5045 -0.6530
  903MOL0     C24503   7.476  10.372   1.128 -0.5564  0.6575 -0.4077
  903MOL0     C24504   7.356  10.297   1.175  0.0998  0.5301 -1.0087
  903MOL0     C24505   7.469  10.507   1.086  0.2774  0.4293 -0.5853
  903MOL0     C24506   7.348  10.585   1.112  0.2306 -0.4452  0.8196
  903MOL0     O24507   7.312  10.670   1.017 -0.4139 -0.8984 -0.3044
  903MOL0     C24508   7.187  10.726   1.015  0.3967 -1.0231 -1.2077
  903MOL0     C24509   7.065  10.677   1.080  0.5296  0.4496 -0.1368
  903MOL0     C24510   6.949  10.751   1.071 -0.5519 -0.6795 -0.4651
  903MOL0     C24511   6.943  10.871   0.998  0.5297  0.3647 -0.6323
  903MOL0     O24512   6.819  10.930   0.999 -0.1238 -0.1823 -0.4110
  903MOL0     C24513   6.808  11.052   0.929 -0.5983  0.4945 -0.1783
  903MOL0     C24514   6.682  11.134   0.967 -0.3871  0.1081 -0.9331
  903MOL0     C24515   6.659  11.256   0.869  0.5822 -0.2847 -0.1663
  903MOL0     C24516   6.560  11.357   0.935 -0.1792 -0.0488  0.4023
  903MOL0     C24517   6.429  11.315   0.995  0.2596  0.1883 -0.0380
  903MOL0     C24518   6.317  11.317   0.885 -1.3041 -0.0750  0.3136
  903MOL0     C24519   6.192  11.259   0.934  0.0939 -0.0784 -0.2123
  903MOL0     C24520   6.084  11.252   0.833  0.1115  0.5425  0.1266
  903MOL0    Cl24521   5.925  11.161   0.883 -0.0124  0.8069 -0.0595
  903MOL0     C24522   7.057  10.920   0.927  1.7304  0.3332 -0.0584
  903MOL0     C24523   7.170  10.845   0.941 -0.9569 -0.0258 -0.7282
  903MOL0     O24524   7.302  10.589   1.229  0.3718  0.1019  0.1808
  903MOL0     C24525   7.580  10.566   1.033  0.1886 -0.9769 -0.6056
  903MOL0     C24526   7.703  10.504   1.033 -0.5576  0.3786  0.3388
  903MOL0     N24527   8.328  10.453   1.505 -0.5451  0.9882  0.2389
  903MOL0     N24528   8.373  10.567   1.498  0.0086  0.6480  0.5292
  903MOL0     C24529   7.431  11.050   1.149  0.0240 -0.2836 -0.1407
  903MOL0     C24530   7.390  11.132   1.041  0.9843  0.2462 -0.1145
  903MOL0     C24531   7.430  11.417   0.692  0.6617 -0.2775 -0.0866
  903MOL0     C24532   7.332  11.518   0.700  0.1770 -0.0313 -0.0739
  903MOL0     C24533   7.278  11.576   0.589 -0.4302  0.1574  0.4446
  903MOL0     C24534   7.311  11.525   0.464 -0.3126  0.2075 -0.0842
  903MOL0     O24535   7.239  11.575   0.358  0.3257  0.3024 -0.0892
  903MOL0     C24536   7.271  11.546   0.221 -0.0054 -0.0328 -0.5577
  903MOL0     C24537   7.252  11.669   0.142  0.4825  0.7741  0.0907
  903MOL0     C24538   7.120  11.744   0.119  0.0377  0.5700  0.0471
  903MOL0     C24539   7.126  11.880   0.047  0.0841  1.4690 -0.0005
  903MOL0     C24540   7.222  11.974   0.105 -0.1600  0.3610  0.2905
  903MOL0     C24541   7.289  12.064   0.155  1.3643  1.2807 -0.1287
  903MOL0     C24542   7.411  11.428   0.447 -0.2755  0.4499  0.4656
  903MOL0     C24543   7.471  11.369   0.564  0.4638  0.0461  0.0222
  903MOL0     C24544   7.580  11.269   0.551 -0.7410  0.3924 -0.8861
  903MOL0     H24545   7.629  11.080   0.816 -0.4407 -0.1162 -1.1281
  903MOL0     H24546   7.675  10.894   0.966 -1.0842 -2.0267 -0.6976
  903MOL0     H24547   7.429  10.807   1.342 -0.0428 -1.0501  1.1230
  903MOL0     H24548   7.522  10.953   1.375  0.3547  0.1153 -1.0683
  903MOL0     H24549   7.603  10.782   1.512  0.3917 -2.5099  0.2238
  903MOL0     H24550   7.638  10.675   1.382 -0.4610  0.1543  0.5839
  903MOL0     H24551   7.766  10.941   1.349  1.4138 -0.2250 -0.4205
  903MOL0     H24552   7.811  10.854   1.498 -3.3748  0.6613  1.3672
  903MOL0     H24553   7.844  10.654   1.324 -1.7891  1.3048  1.1941
  903MOL0     H24554   7.810  10.763   1.198  0.3074  0.5385  0.2649
  903MOL0     H24555   8.009  10.908   1.281 -0.3004 -0.0719  0.1254
  903MOL0     H24556   8.058  10.757   1.216 -0.1962 -1.2271  0.4429
  903MOL0     H24557   8.026  10.790   1.521  0.6887 -2.0620  0.5293
  903MOL0     H24558   8.072  10.652   1.430  1.5213 -0.9997  0.9362
  903MOL0     H24559   8.244  10.826   1.534 -3.0359 -0.1549  1.9978
  903MOL0     H24560   8.217  10.930   1.409 -1.4103  0.2036 -0.0156
  903MOL0     H24561   8.315  10.776   1.236  2.5381 -0.0523 -0.2799
  903MOL0     H24562   8.413  10.808   1.374 -2.5786  3.0257  2.1442
  903MOL0     H24563   8.232  10.512   1.203 -2.3742  5.0305  0.8946
  903MOL0     H24564   8.273  10.213   1.447  0.2240 -0.4763 -1.1254
  903MOL0     H24565   8.237  10.236   1.285  2.8206  2.3377  0.3488
  903MOL0     H24566   8.020  10.176   1.425 -1.7044 -0.6453 -3.1029
  903MOL0     H24567   8.041  10.334   1.504 -0.8183 -0.2596 -1.2105
  903MOL0     H24568   7.932  10.432   1.330  1.8675  0.0671  1.8919
  903MOL0     H24569   8.048  10.389   1.218 -2.7085  1.9549 -1.1159
  903MOL0     H24570   7.946  10.170   1.186  0.6904  0.5921 -1.2804
  903MOL0     H24571   7.800  10.225   1.274  1.4822  1.9978  3.3198
  903MOL0     H24572   7.613  10.211   1.185 -3.7028 -0.7823 -0.6540
  903MOL0     H24573   7.355  10.197   1.129  3.5571 -1.0086  1.7608
  903MOL0     H24574   7.264  10.355   1.168 -0.4359 -0.4618 -2.6898
  903MOL0     H24575   7.367  10.280   1.282 -2.9819 -0.3147 -0.7260
  903MOL0     H24576   7.066  10.597   1.153  2.0646  1.0027  0.4972
  903MOL0     H24577   6.863  10.714   1.127  1.8002 -1.8679  2.6300
  903MOL0     H24578   6.891  11.119   0.954 -1.1509  1.6392 -1.3302
  903MOL0     H24579   6.798  11.039   0.821 -1.7908  2.4340 -0.3484
  903MOL0     H24580   6.595  11.068   0.968  2.2184 -3.5881 -0.0980
  903MOL0     H24581   6.688  11.164   1.073 -0.8667 -1.4905 -0.4310
  903MOL0     H24582   6.630  11.213   0.773  0.0913 -0.7974  0.2006
  903MOL0     H24583   6.757  11.303   0.859  0.7990 -0.7225 -0.1237
  903MOL0     H24584   6.563  11.451   0.878  1.6355  0.9096  1.9392
  903MOL0     H24585   6.623  11.391   1.019  4.0104 -1.2363 -1.9498
  903MOL0     H24586   6.428  11.215   1.038 -3.4960  0.5700  1.1085
  903MOL0     H24587   6.411  11.384   1.078  1.7484 -0.7853  1.1520
  903MOL0     H24588   6.361  11.265   0.799 -0.9230  0.0748  0.4176
  903MOL0     H24589   6.296  11.417   0.847  0.3961 -0.3161 -1.4091
  903MOL0     H24590   6.157  11.316   1.020 -0.3292  0.2332 -0.5859
  903MOL0     H24591   6.214  11.155   0.959  1.0283  0.9520  3.8729
  903MOL0     H24592   6.129  11.200   0.749 -1.5396 -2.9811  1.2406
  903MOL0     H24593   6.054  11.351   0.797 -0.2428 -0.2946 -1.9935
  903MOL0     H24594   7.066  11.009   0.866  0.0296  1.2044  0.8772
  903MOL0     H24595   7.259  10.888   0.896  0.9473 -1.2091  1.6701
  903MOL0     H24596   7.548  10.662   0.994  2.9438 -0.2692 -1.2923
  903MOL0     H24597   7.797  10.538   0.990  0.8823 -1.2421  2.0036
  903MOL0     H24598   7.362  11.031   1.230 -0.6286 -1.6024 -0.9838
  903MOL0     H24599   7.293  11.177   1.064  2.0436  2.4598  0.2767
  903MOL0     H24600   7.309  11.556   0.799 -0.3321  2.5178 -1.1001
  903MOL0     H24601   7.203  11.654   0.594  2.8468  3.7865 -1.5540
  903MOL0     H24602   7.378  11.525   0.215  0.8526  2.4701  2.8535
  903MOL0     H24603   7.211  11.461   0.189 -2.1163  0.7646  1.0371
  903MOL0     H24604   7.286  11.644   0.041  0.0474  1.6969 -0.2905
  903MOL0     H24605   7.331  11.734   0.181  1.4388 -0.1457 -0.2571
  903MOL0     H24606   7.050  11.678   0.068 -0.5125  2.3705 -1.6584
  903MOL0     H24607   7.076  11.764   0.217 -0.5513 -2.1391  0.3911
  903MOL0     H24608   7.025  11.920   0.035 -0.5950  0.0743  0.8238
  903MOL0     H24609   7.146  11.854  -0.057 -1.6655 -2.1302  0.4103
  903MOL0     H24610   7.346  12.149   0.186 -1.1820  3.7777 -1.7079
  903MOL0     H24611   7.440  11.380   0.354 -0.4783  1.3571 -0.0733
  903MOL0     H24612   7.554  11.174   0.598 -0.3510  2.8293  5.2530
  903MOL0     H24613   7.613  11.262   0.448 -2.3721 -0.4726 -1.3861
  903MOL0     H24614   7.670  11.292   0.609 -1.7170 -1.1315  1.3930
  904MOL0     O24615   7.548   6.225   1.048  0.2889  0.0091  0.0771
  904MOL0     C24616   7.557   6.135   1.131 -0.4524  0.1020  0.0908
  904MOL0     O24617   7.598   6.155   1.266  0.5501 -0.2338 -0.2580
  904MOL0     C24618   7.708   6.232   1.293 -0.9697  0.3258 -0.7005
  904MOL0     C24619   7.698   6.314   1.400  0.5216  0.5276 -0.6469
  904MOL0     C24620   7.806   6.392   1.433  0.1210 -0.2360 -0.3287
  904MOL0     C24621   7.930   6.382   1.370 -0.0247 -0.6303 -0.0998
  904MOL0     O24622   8.051   6.432   1.427  0.2986 -0.1660 -0.1610
  904MOL0     C24623   8.152   6.496   1.344  0.2257 -0.4065 -0.9701
  904MOL0     C24624   8.263   6.539   1.432  0.2952  0.6785 -0.1017
  904MOL0     C24625   8.386   6.570   1.342 -0.2917 -0.3946  0.6224
  904MOL0     C24626   8.473   6.690   1.397 -0.7065  0.0098 -1.0724
  904MOL0     C24627   8.569   6.756   1.290 -0.0128  0.0314 -0.0188
  904MOL0     C24628   8.666   6.664   1.230  0.0656  0.7015  0.1429
  904MOL0     C24629   8.800   6.716   1.174  0.5400  0.1000  0.1064
  904MOL0     C24630   8.873   6.612   1.100 -0.5258 -0.2581 -0.4780
  904MOL0     N24631   8.997   6.643   1.026  0.2760 -0.4048 -0.1239
  904MOL0     C24632   9.104   6.711   1.070  0.2466 -0.0997 -0.0056
  904MOL0     C24633   9.192   6.732   0.968  0.0479  0.4099 -0.6955
  904MOL0     C24634   9.329   6.806   0.984 -0.0843  0.6803 -0.1960
  904MOL0     C24635   9.454   6.742   0.935 -0.7061  0.1238  0.5076
  904MOL0     C24636   9.476   6.598   0.984 -0.0427  0.2943  0.7989
  904MOL0     C24637   9.561   6.597   1.107  0.7407  0.5040  0.0132
  904MOL0     O24638   9.576   6.461   1.163  0.7263  1.0617  0.5968
  904MOL0     C24639   9.693   6.421   1.215  0.1719  0.3023 -0.1004
  904MOL0     C24640   9.814   6.490   1.224 -0.6149 -0.2768  0.7871
  904MOL0     C24641   9.908   6.440   1.313 -0.5901 -0.2770 -0.3602
  904MOL0     C24642  10.045   6.520   1.343  0.1904  0.5754  0.1612
  904MOL0     C24643   9.882   6.328   1.392  0.0525  0.3120  0.8028
  904MOL0     C24644   9.964   6.285   1.506 -0.2126 -0.1586 -0.4476
  904MOL0     O24645  10.011   6.379   1.596 -0.0317 -0.9060 -0.0278
  904MOL0     C24646  10.070   6.331   1.712 -1.0526 -1.0368  1.0041
  904MOL0     C24647  10.158   6.224   1.718  0.0381  0.0620 -0.5773
  904MOL0     C24648  10.208   6.191   1.843  0.3370 -0.6397  0.1796
  904MOL0     C24649  10.180   6.278   1.952 -0.8546  0.4379 -0.0423
  904MOL0     O24650  10.252   6.236   2.064  0.4322 -0.0584 -0.5395
  904MOL0     C24651  10.177   6.218   2.188 -0.4318  0.1815  0.7709
  904MOL0     C24652  10.188   6.075   2.242 -0.3527 -0.2720 -0.3540
  904MOL0     C24653  10.077   5.979   2.209  1.1933  0.8881  0.1464
  904MOL0     C24654  10.112   5.832   2.204 -0.9943 -0.7151  0.1141
  904MOL0     C24655  10.001   5.730   2.220 -0.3726 -0.6707  0.1340
  904MOL0     C24656   9.907   5.731   2.095 -1.0286  0.9377 -0.3964
  904MOL0     C24657   9.798   5.628   2.126  1.3888  0.1320  0.0646
  904MOL0     C24658   9.719   5.646   2.260 -0.7296  0.3834  0.4692
  904MOL0    Cl24659   9.561   5.585   2.240 -0.2431 -0.0856 -0.3673
  904MOL0     C24660  10.090   6.388   1.948 -0.7696  0.2755 -0.0130
  904MOL0     C24661  10.037   6.409   1.824  0.2507 -0.1816 -0.4065
  904MOL0     O24662   9.984   6.165   1.504 -0.1794 -0.0537 -0.4357
  904MOL0     C24663   9.766   6.255   1.377 -0.4306 -0.2471 -0.0684
  904MOL0     C24664   9.668   6.300   1.292 -0.0965  0.6155 -0.1007
  904MOL0     N24665   9.128   6.680   0.857 -0.2439 -0.1389  0.2099
  904MOL0     N24666   9.014   6.636   0.891  0.2212  0.0674  0.1015
  904MOL0     C24667   7.949   6.290   1.265  0.5456  0.6229  0.2029
  904MOL0     C24668   7.836   6.221   1.222  0.7417  0.1126  0.3397
  904MOL0     C24669   7.531   5.999   1.076  0.2598  0.5229  0.2918
  904MOL0     C24670   7.499   5.985   0.934 -0.1610  1.1508 -0.0916
  904MOL0     C24671   7.472   5.858   0.883 -0.1609 -0.8839 -0.3152
  904MOL0     C24672   7.487   5.742   0.955 -0.2984  0.4851  1.0762
  904MOL0     O24673   7.455   5.631   0.883 -0.0521  0.1212 -0.3129
  904MOL0     C24674   7.407   5.510   0.957  0.0950  0.4227  0.7501
  904MOL0     C24675   7.344   5.398   0.861 -0.2918 -0.4540 -0.1394
  904MOL0     C24676   7.238   5.452   0.781 -0.4332 -0.9446  0.0275
  904MOL0     C24677   7.274   5.499   0.638  0.3243 -1.6403 -0.5282
  904MOL0     C24678   7.324   5.403   0.541  0.2574  0.2644  0.2912
  904MOL0     C24679   7.371   5.325   0.465  0.5572 -0.3517 -0.5624
  904MOL0     C24680   7.523   5.744   1.088 -1.2755  0.4160 -1.3047
  904MOL0     C24681   7.537   5.877   1.153 -0.0572  0.3432  0.1913
  904MOL0     C24682   7.541   5.888   1.306  0.4888 -0.0175  0.1901
  904MOL0     H24683   7.604   6.333   1.450  1.4975  2.2541  0.6527
  904MOL0     H24684   7.803   6.458   1.519  1.2576 -0.7759  0.1465
  904MOL0     H24685   8.105   6.582   1.295  1.0335  2.1105  2.3003
  904MOL0     H24686   8.188   6.423   1.271 -0.8399 -0.6630 -1.2618
  904MOL0     H24687   8.227   6.627   1.486 -2.1873 -1.0054  1.2451
  904MOL0     H24688   8.290   6.457   1.499 -3.9439 -2.0445 -1.2663
  904MOL0     H24689   8.454   6.485   1.334  0.8425  0.5969 -0.8666
  904MOL0     H24690   8.347   6.594   1.243 -1.2286 -1.8447  0.6137
  904MOL0     H24691   8.406   6.769   1.430 -2.0329 -0.3217 -2.8132
  904MOL0     H24692   8.532   6.662   1.485 -0.2380 -0.4469 -1.5264
  904MOL0     H24693   8.621   6.843   1.332  2.0472 -0.7245 -0.8944
  904MOL0     H24694   8.499   6.794   1.215  1.2990 -1.7976 -2.2606
  904MOL0     H24695   8.693   6.587   1.303 -0.1348 -1.1772 -1.6896
  904MOL0     H24696   8.613   6.607   1.154 -0.8065 -0.6198  1.6814
  904MOL0     H24697   8.864   6.748   1.257  0.5677 -2.7710  1.2902
  904MOL0     H24698   8.769   6.805   1.119 -0.2624 -0.0127  0.3595
  904MOL0     H24699   8.910   6.539   1.172  3.7278  4.0538  2.3738
  904MOL0     H24700   8.805   6.562   1.031 -3.7652  0.1339  2.1949
  904MOL0     H24701   9.116   6.742   1.174  2.0365  0.8557 -0.4608
  904MOL0     H24702   9.344   6.827   1.091  0.9413 -2.1858  0.3094
  904MOL0     H24703   9.313   6.907   0.944 -4.6541  0.4025  0.4696
  904MOL0     H24704   9.446   6.717   0.829 -2.6833  0.7486  0.4664
  904MOL0     H24705   9.544   6.802   0.948  0.4024 -0.3204 -3.6365
  904MOL0     H24706   9.388   6.546   1.024  0.1171  1.1496  2.3226
  904MOL0     H24707   9.523   6.534   0.909  0.5268  1.8293 -0.1971
  904MOL0     H24708   9.655   6.641   1.073  1.4392 -1.1768 -0.3385
  904MOL0     H24709   9.503   6.653   1.181 -0.8125  1.2906 -1.7222
  904MOL0     H24710   9.826   6.583   1.169 -2.4688  0.8179  2.1341
  904MOL0     H24711  10.130   6.456   1.318 -1.2405 -1.3899  0.0753
  904MOL0     H24712  10.049   6.560   1.444  1.2777 -0.8019  0.6949
  904MOL0     H24713  10.041   6.610   1.280  1.2311  1.9237  1.9219
  904MOL0     H24714  10.201   6.162   1.640 -1.3484 -4.1250  1.6720
  904MOL0     H24715  10.280   6.110   1.853  0.6894 -0.5502 -1.3911
  904MOL0     H24716  10.212   6.289   2.264  0.7484  1.9051 -1.2748
  904MOL0     H24717  10.075   6.252   2.164  0.1766  1.7988  0.3273
  904MOL0     H24718  10.284   6.028   2.220 -0.2522 -0.8542  1.2048
  904MOL0     H24719  10.198   6.096   2.349  1.7537  1.9032 -0.8925
  904MOL0     H24720  10.037   5.994   2.108 -2.6378 -2.6445  0.8524
  904MOL0     H24721   9.996   6.000   2.279  0.8356  0.5118 -0.1512
  904MOL0     H24722  10.178   5.813   2.289 -1.5021  2.1323  1.2512
  904MOL0     H24723  10.160   5.816   2.106 -1.1742 -0.6058  0.0079
  904MOL0     H24724  10.040   5.628   2.224 -1.0134 -0.9506 -0.4756
  904MOL0     H24725   9.944   5.757   2.309  1.9827  1.1243  1.2103
  904MOL0     H24726   9.965   5.694   2.010  0.8994  2.4188  0.1899
  904MOL0     H24727   9.871   5.831   2.069 -3.4125  0.7700  1.8493
  904MOL0     H24728   9.837   5.526   2.134 -0.5213 -0.5579  1.1863
  904MOL0     H24729   9.724   5.635   2.045  1.6685  0.0548 -0.1984
  904MOL0     H24730   9.717   5.753   2.284 -2.7123  0.4254  0.3022
  904MOL0     H24731   9.769   5.582   2.333 -0.3883  2.5039  2.1939
  904MOL0     H24732  10.071   6.445   2.038 -1.7285 -3.0623  2.0753
  904MOL0     H24733   9.955   6.478   1.807  1.1530  0.9666 -0.1932
  904MOL0     H24734   9.750   6.166   1.437 -0.0279  0.8805  1.7726
  904MOL0     H24735   9.570   6.254   1.298 -0.2346  1.0899  1.8474
  904MOL0     H24736   8.045   6.281   1.214  0.7771 -1.5942  0.9101
  904MOL0     H24737   7.853   6.159   1.135  1.5524 -0.7843  1.1081
  904MOL0     H24738   7.496   6.079   0.881 -3.7332  3.1048  3.0388
  904MOL0     H24739   7.442   5.837   0.780  0.3076 -1.1219 -0.4059
  904MOL0     H24740   7.488   5.469   1.018 -1.5022  0.7763  3.2386
  904MOL0     H24741   7.324   5.546   1.018 -0.0298 -0.8089  1.3243
  904MOL0     H24742   7.301   5.327   0.933  0.6219 -0.9273 -0.0509
  904MOL0     H24743   7.420   5.359   0.793 -1.3000 -1.1455 -0.8978
  904MOL0     H24744   7.160   5.375   0.773 -0.9230 -0.2906 -2.2065
  904MOL0     H24745   7.203   5.542   0.832 -0.2580 -1.2391  0.6791
  904MOL0     H24746   7.342   5.585   0.643  1.5706 -2.6515  3.5018
  904MOL0     H24747   7.182   5.542   0.596 -0.3503 -2.1356  0.4256
  904MOL0     H24748   7.406   5.241   0.409 -0.2311 -1.2929  0.3188
  904MOL0     H24749   7.515   5.648   1.139 -1.7436  1.5232  0.8347
  904MOL0     H24750   7.459   5.946   1.349 -2.0010 -2.0801 -1.4628
  904MOL0     H24751   7.531   5.786   1.343  0.9541 -0.9901 -2.1583
  904MOL0     H24752   7.637   5.912   1.353 -1.0642  1.7161  2.7281
  905MOL0     O24753   8.778   4.523   4.288  0.8778  0.5441  0.5529
  905MOL0     C24754   8.856   4.441   4.319 -0.4335 -0.3123 -0.2752
  905MOL0     O24755   8.927   4.448   4.436  0.7085  0.1371  0.2488
  905MOL0     C24756   8.879   4.545   4.525 -0.0491  0.6743 -0.0300
  905MOL0     C24757   8.858   4.497   4.652 -0.4961 -0.0219 -0.2004
  905MOL0     C24758   8.837   4.583   4.759  0.0338 -0.4177 -0.8033
  905MOL0     C24759   8.813   4.718   4.733  0.6865 -0.0594 -0.0396
  905MOL0     O24760   8.784   4.809   4.828  1.2177  0.7400 -0.3988
  905MOL0     C24761   8.717   4.779   4.952 -0.3995 -0.0590  0.3054
  905MOL0     C24762   8.605   4.887   4.962 -0.2453  0.4624  0.4504
  905MOL0     C24763   8.683   5.021   4.988 -0.2117 -0.2776 -0.0025
  905MOL0     C24764   8.581   5.131   5.032 -0.1341 -0.0660 -0.6463
  905MOL0     C24765   8.659   5.257   5.079 -0.5493  0.7544 -0.9296
  905MOL0     C24766   8.563   5.367   5.137 -0.4587  0.4278  0.7878
  905MOL0     C24767   8.636   5.495   5.171 -0.1994  0.3154  0.7001
  905MOL0     C24768   8.742   5.478   5.284 -0.2416  0.0660 -0.1942
  905MOL0     N24769   8.742   5.591   5.382  0.2570 -0.2089  0.2684
  905MOL0     C24770   8.627   5.649   5.430 -0.6230 -0.0738  0.3880
  905MOL0     C24771   8.659   5.742   5.526 -0.1496 -0.2939  0.8287
  905MOL0     C24772   8.563   5.833   5.600 -0.1214 -0.0557 -0.7784
  905MOL0     C24773   8.472   5.915   5.513 -0.3515  0.5894 -1.1103
  905MOL0     C24774   8.532   6.026   5.439  0.0840 -0.2387  1.7009
  905MOL0     C24775   8.610   6.128   5.527 -0.4017 -0.0548 -0.6796
  905MOL0     O24776   8.658   6.230   5.440  0.0576 -0.3909  0.5800
  905MOL0     C24777   8.782   6.283   5.484 -0.6033  0.3586  0.7940
  905MOL0     C24778   8.863   6.317   5.375  0.2208  0.1696 -0.4729
  905MOL0     C24779   8.988   6.379   5.390 -0.4006 -0.7173 -0.5246
  905MOL0     C24780   9.093   6.404   5.281  0.9516  0.4047 -0.5826
  905MOL0     C24781   9.031   6.406   5.526 -0.2145 -0.4038 -0.6023
  905MOL0     C24782   9.152   6.487   5.570 -1.4449 -0.1198 -0.4674
  905MOL0     O24783   9.207   6.561   5.472 -0.1772 -0.2232 -0.1881
  905MOL0     C24784   9.346   6.580   5.466 -0.1688 -0.4251  0.2462
  905MOL0     C24785   9.417   6.576   5.341 -0.3309 -0.6465  0.0731
  905MOL0     C24786   9.559   6.595   5.343  0.4796 -0.8675  0.1739
  905MOL0     C24787   9.635   6.631   5.453 -0.3130  0.5827  0.5758
  905MOL0     O24788   9.765   6.658   5.429  0.0311  0.4123 -0.5275
  905MOL0     C24789   9.839   6.747   5.514  0.2006  0.3203 -0.6233
  905MOL0     C24790   9.979   6.764   5.448 -0.3744 -0.9747 -0.6314
  905MOL0     C24791  10.065   6.876   5.517 -0.1875  0.7200  0.7318
  905MOL0     C24792  10.015   7.028   5.493 -0.7722 -0.0496  0.1443
  905MOL0     C24793  10.123   7.129   5.547 -0.1865 -0.7481 -0.3643
  905MOL0     C24794  10.278   7.100   5.511  0.3457 -0.2424 -0.6753
  905MOL0     C24795  10.299   7.135   5.365 -0.1672  0.3807 -0.7350
  905MOL0     C24796  10.444   7.087   5.323 -0.3540 -0.8515  0.1802
  905MOL0    Cl24797  10.453   6.912   5.315 -0.1067  0.2321  0.1087
  905MOL0     C24798   9.567   6.634   5.576 -0.1050  1.5025  0.9430
  905MOL0     C24799   9.424   6.613   5.579 -0.2872  0.0685  0.5166
  905MOL0     O24800   9.193   6.469   5.687  0.0314 -0.1447  0.0037
  905MOL0     C24801   8.947   6.369   5.635  0.7688  0.2847  0.7979
  905MOL0     C24802   8.829   6.304   5.612 -0.6413  0.4713 -0.1893
  905MOL0     N24803   8.794   5.744   5.521 -0.6498 -0.7746 -0.2444
  905MOL0     N24804   8.847   5.657   5.439 -0.3753 -0.6777  0.3967
  905MOL0     C24805   8.835   4.765   4.598 -0.2279  0.0653  0.4824
  905MOL0     C24806   8.867   4.675   4.497  0.0164 -0.9658 -0.1897
  905MOL0     C24807   8.892   4.332   4.230  0.4278  1.5224 -0.3499
  905MOL0     C24808   9.016   4.334   4.176 -0.2168  0.4908  0.6198
  905MOL0     C24809   9.058   4.229   4.095  0.3443  0.1392  0.9127
  905MOL0     C24810   8.973   4.127   4.042  0.1338  0.2646  0.2972
  905MOL0     O24811   9.021   4.034   3.947  0.4783 -0.5165  0.0989
  905MOL0     C24812   9.150   4.045   3.884 -0.3166 -0.1977  0.3716
  905MOL0     C24813   9.190   3.915   3.833 -0.9329 -0.2750  0.4054
  905MOL0     C24814   9.329   3.913   3.760  0.0918 -0.1026 -0.7804
  905MOL0     C24815   9.380   3.776   3.735 -0.8446  0.1928 -0.4795
  905MOL0     C24816   9.524   3.753   3.703  0.0566 -1.2534  0.3485
  905MOL0     C24817   9.634   3.723   3.663 -0.5661 -0.4887 -0.5247
  905MOL0     C24818   8.845   4.128   4.102  0.4557 -0.5570  0.8020
  905MOL0     C24819   8.802   4.229   4.197 -0.6893 -1.0315  0.0273
  905MOL0     C24820   8.659   4.227   4.235  0.1735 -0.5918  0.3603
  905MOL0     H24821   8.888   4.395   4.672 -1.0160  0.2237  2.0454
  905MOL0     H24822   8.827   4.539   4.858 -3.0307  2.9782  0.6636
  905MOL0     H24823   8.790   4.786   5.033  1.0619 -2.6679 -0.6733
  905MOL0     H24824   8.682   4.675   4.949 -1.9694  0.4278 -2.9515
  905MOL0     H24825   8.534   4.884   4.880 -0.0905  0.4826  0.3154
  905MOL0     H24826   8.539   4.870   5.048  1.3694  1.8630  2.0760
  905MOL0     H24827   8.758   4.996   5.063  0.0518  0.3046 -0.0692
  905MOL0     H24828   8.747   5.052   4.905 -0.1720 -2.3208 -0.7920
  905MOL0     H24829   8.527   5.155   4.940  1.1132  2.9119 -0.7076
  905MOL0     H24830   8.513   5.093   5.108  1.1820  2.2412  1.8340
  905MOL0     H24831   8.718   5.305   5.000 -0.3135  3.2084  0.6161
  905MOL0     H24832   8.722   5.231   5.165 -1.6915  1.4506  0.1520
  905MOL0     H24833   8.490   5.385   5.058  2.0278  0.2958 -1.6953
  905MOL0     H24834   8.504   5.317   5.214 -0.9436 -1.4986 -0.7388
  905MOL0     H24835   8.564   5.572   5.200 -1.8012 -0.7442 -0.3327
  905MOL0     H24836   8.682   5.537   5.080  1.6745 -1.9322  0.5078
  905MOL0     H24837   8.707   5.393   5.343  1.1390  0.4473  1.2354
  905MOL0     H24838   8.845   5.461   5.251 -0.6064  1.3706 -2.2320
  905MOL0     H24839   8.526   5.625   5.397  0.4791  1.1968 -4.9476
  905MOL0     H24840   8.615   5.892   5.676  3.1706 -4.0093  0.3779
  905MOL0     H24841   8.489   5.778   5.659 -0.7075  0.6391 -0.8416
  905MOL0     H24842   8.445   5.846   5.432  2.4942 -0.4692 -1.2394
  905MOL0     H24843   8.389   5.950   5.575 -1.2589 -3.0589  0.0299
  905MOL0     H24844   8.597   5.984   5.362 -0.1849  0.7593  0.9092
  905MOL0     H24845   8.453   6.076   5.382  1.5681  1.3413  0.9682
  905MOL0     H24846   8.558   6.172   5.612  0.9953 -0.4135  0.4131
  905MOL0     H24847   8.698   6.076   5.567  0.0086  0.0947 -1.3798
  905MOL0     H24848   8.813   6.283   5.285 -3.3416 -0.8519  1.6909
  905MOL0     H24849   9.080   6.510   5.259  0.5854  0.4336 -0.2336
  905MOL0     H24850   9.067   6.350   5.190 -1.5717  0.4527  0.0323
  905MOL0     H24851   9.198   6.387   5.308  1.0585  1.7733 -0.0804
  905MOL0     H24852   9.375   6.570   5.241  0.1536 -1.7757 -0.0747
  905MOL0     H24853   9.616   6.607   5.251 -0.5080  0.2433 -0.3171
  905MOL0     H24854   9.780   6.839   5.514 -1.7995 -0.9155 -1.0695
  905MOL0     H24855   9.851   6.696   5.610  1.8071  0.9374 -0.4580
  905MOL0     H24856  10.034   6.670   5.440 -0.0917 -0.9470  0.6574
  905MOL0     H24857   9.968   6.803   5.347  0.5964  0.4238 -0.2305
  905MOL0     H24858  10.163   6.876   5.468  0.0052  0.0358  1.1141
  905MOL0     H24859  10.081   6.852   5.622  1.5800 -2.9385 -0.2254
  905MOL0     H24860   9.916   7.045   5.536 -1.5932  0.0212 -1.6737
  905MOL0     H24861  10.008   7.046   5.385  3.4055  0.4654 -0.2325
  905MOL0     H24862  10.091   7.228   5.513  1.8461  0.0283 -0.1476
  905MOL0     H24863  10.120   7.128   5.656  2.3224  4.5510  0.0596
  905MOL0     H24864  10.302   6.998   5.542 -1.9366 -0.6347  0.0424
  905MOL0     H24865  10.348   7.165   5.564 -2.3018  2.0001  0.3096
  905MOL0     H24866  10.282   7.243   5.362  0.2327  0.4531 -0.4650
  905MOL0     H24867  10.216   7.087   5.313 -2.2414  2.7231  0.2309
  905MOL0     H24868  10.519   7.127   5.391  2.0390  0.3116 -2.8966
  905MOL0     H24869  10.480   7.127   5.228  0.1268 -0.0391  0.6955
  905MOL0     H24870   9.618   6.659   5.669 -0.0877  3.8716  0.3738
  905MOL0     H24871   9.386   6.607   5.680 -0.5108 -3.0484  0.3415
  905MOL0     H24872   8.966   6.385   5.740 -1.3694 -0.0304  1.2875
  905MOL0     H24873   8.768   6.255   5.688  0.4104 -1.9809 -0.8193
  905MOL0     H24874   8.813   4.871   4.585 -2.0411 -0.4932 -1.4532
  905MOL0     H24875   8.889   4.730   4.406 -0.5326  1.4986  1.0756
  905MOL0     H24876   9.076   4.417   4.212  1.2921 -0.8543  1.3730
  905MOL0     H24877   9.160   4.240   4.060  0.5324 -2.3985  0.4621
  905MOL0     H24878   9.151   4.110   3.796 -3.7330  1.4135  1.3069
  905MOL0     H24879   9.217   4.075   3.965 -1.5485  0.1951  1.2827
  905MOL0     H24880   9.110   3.869   3.775  2.0726 -1.2213 -3.4307
  905MOL0     H24881   9.208   3.851   3.920 -0.5879  0.3106  0.7756
  905MOL0     H24882   9.321   3.979   3.673  1.8016  1.2205  0.0110
  905MOL0     H24883   9.397   3.961   3.832 -1.1306 -2.3966  2.1139
  905MOL0     H24884   9.335   3.730   3.647 -0.5479  1.5993 -1.3963
  905MOL0     H24885   9.360   3.710   3.820 -1.2192  0.8574 -0.0438
  905MOL0     H24886   9.730   3.686   3.632 -0.0442  0.5543 -0.1658
  905MOL0     H24887   8.774   4.055   4.065 -0.6184 -0.4193  2.5284
  905MOL0     H24888   8.613   4.276   4.149  2.7254 -2.2900 -2.1477
  905MOL0     H24889   8.615   4.132   4.265  0.4326 -1.0543 -0.6836
  905MOL0     H24890   8.642   4.298   4.317  1.1086  1.4429 -1.1325
  906MOL0     O24891   5.753   4.406   7.780 -0.4599  0.4450  0.2302
  906MOL0     C24892   5.803   4.327   7.704  0.5346  0.7831  0.4599
  906MOL0     O24893   5.935   4.290   7.710 -0.3195  0.2748  0.4196
  906MOL0     C24894   6.015   4.346   7.805  1.0862  0.2161  1.3031
  906MOL0     C24895   6.100   4.445   7.767  0.5841 -0.2429 -0.1440
  906MOL0     C24896   6.169   4.526   7.850 -0.1880 -0.3965 -0.4049
  906MOL0     C24897   6.160   4.500   7.989  0.5252  0.2936  0.3936
  906MOL0     O24898   6.202   4.563   8.092  0.8911 -0.0072  0.4675
  906MOL0     C24899   6.318   4.643   8.083  0.7698 -0.6510 -0.3520
  906MOL0     C24900   6.353   4.691   8.232  0.2529  0.7259 -0.3091
  906MOL0     C24901   6.486   4.773   8.245  0.6761  0.3608 -1.2627
  906MOL0     C24902   6.591   4.673   8.213 -0.5926  1.0037 -0.7500
  906MOL0     C24903   6.729   4.718   8.245 -0.0263  0.3977  0.2063
  906MOL0     C24904   6.784   4.836   8.164  0.3855 -0.2393 -0.0818
  906MOL0     C24905   6.924   4.867   8.208  0.5546 -0.7275  0.8342
  906MOL0     C24906   6.984   4.983   8.131  0.1262  0.4820  0.0992
  906MOL0     N24907   6.925   5.102   8.192  0.7637 -0.0661  0.3810
  906MOL0     C24908   6.823   5.179   8.143 -0.1842  1.0677  0.4885
  906MOL0     C24909   6.785   5.257   8.238 -0.3774 -0.2350  0.1396
  906MOL0     C24910   6.673   5.364   8.232  0.7299 -0.1899 -0.6272
  906MOL0     C24911   6.720   5.504   8.230  0.1239 -0.3693  0.2791
  906MOL0     C24912   6.785   5.536   8.367  0.8865 -0.1146 -0.0324
  906MOL0     C24913   6.797   5.692   8.393 -0.7630  0.0576  0.0265
  906MOL0     O24914   6.843   5.782   8.293  0.4416 -0.0403 -0.0398
  906MOL0     C24915   6.975   5.781   8.253  0.6022  0.4043  0.4062
  906MOL0     C24916   7.091   5.696   8.288  0.4077 -0.0745  0.7409
  906MOL0     C24917   7.221   5.735   8.259 -0.8535  0.3860 -0.4307
  906MOL0     C24918   7.337   5.666   8.335 -0.0450  0.4003  0.2807
  906MOL0     C24919   7.237   5.844   8.173  0.6040  0.2133  0.6583
  906MOL0     C24920   7.370   5.888   8.134  0.5154  0.2055  0.0790
  906MOL0     O24921   7.397   6.024   8.138 -0.4063 -0.7437  0.7195
  906MOL0     C24922   7.503   6.076   8.079  0.5678 -0.2460  0.5814
  906MOL0     C24923   7.562   6.185   8.145  0.2812  0.2431  0.5347
  906MOL0     C24924   7.653   6.272   8.079 -0.5389  0.1111  0.1869
  906MOL0     C24925   7.693   6.249   7.945  0.0787 -0.1369  0.2223
  906MOL0     O24926   7.757   6.354   7.884 -0.7121  0.2661  0.3923
  906MOL0     C24927   7.792   6.333   7.740 -0.1822  0.2674  0.5714
  906MOL0     C24928   7.845   6.465   7.686 -0.0869 -0.0986 -0.1525
  906MOL0     C24929   7.996   6.510   7.712  0.2832  0.4941  0.5067
  906MOL0     C24930   8.024   6.657   7.700 -0.0018 -0.3078  0.1407
  906MOL0     C24931   8.181   6.670   7.683  0.2568 -0.0510 -0.1612
  906MOL0     C24932   8.220   6.816   7.653  0.0607  0.1350  0.5444
  906MOL0     C24933   8.222   6.914   7.763  0.2624  0.7386 -1.7693
  906MOL0     C24934   8.309   6.875   7.879 -0.2424  0.3072  0.1653
  906MOL0    Cl24935   8.363   7.008   7.983  0.0565 -0.0428  0.1806
  906MOL0     C24936   7.641   6.136   7.880 -0.4164  0.8336 -0.8570
  906MOL0     C24937   7.545   6.049   7.945 -0.1584 -0.2133 -0.4530
  906MOL0     O24938   7.447   5.801   8.097  0.3661 -0.3847  0.7325
  906MOL0     C24939   7.135   5.927   8.140  0.0839  0.4468 -0.1844
  906MOL0     C24940   7.012   5.893   8.180  0.5806  0.1913  0.1366
  906MOL0     N24941   6.863   5.231   8.352  0.2829  0.3895 -0.4119
  906MOL0     N24942   6.953   5.141   8.319  0.0145 -0.5397  0.5316
  906MOL0     C24943   6.080   4.395   8.023  0.1764  0.6166 -0.3857
  906MOL0     C24944   6.004   4.323   7.941 -0.5837  1.1899 -0.6153
  906MOL0     C24945   5.717   4.297   7.593 -0.2494 -0.1266  0.3934
  906MOL0     C24946   5.774   4.280   7.466 -0.6610  0.2816 -0.2880
  906MOL0     C24947   5.688   4.229   7.360  0.1479  0.0916 -0.0058
  906MOL0     C24948   5.552   4.212   7.367 -0.8915  0.8583 -0.1354
  906MOL0     O24949   5.490   4.178   7.257  0.6224  0.0747  0.3317
  906MOL0     C24950   5.400   4.285   7.218  0.9169 -0.6697  0.5372
  906MOL0     C24951   5.366   4.292   7.067 -0.5669 -0.2357 -0.1114
  906MOL0     C24952   5.320   4.171   6.999 -0.3015 -0.5834 -0.7241
  906MOL0     C24953   5.271   4.194   6.858 -1.1274 -0.6893  0.5645
  906MOL0     C24954   5.247   4.073   6.783 -0.4330  0.2658 -0.9168
  906MOL0     C24955   5.212   3.978   6.722  0.5492 -0.0622 -0.5096
  906MOL0     C24956   5.494   4.241   7.490 -0.0807  0.3665 -0.3626
  906MOL0     C24957   5.571   4.270   7.605  0.2103 -0.3510 -0.0124
  906MOL0     C24958   5.505   4.272   7.739  0.2687  0.3671 -0.7188
  906MOL0     H24959   6.120   4.479   7.665 -0.9282 -0.3555 -0.5144
  906MOL0     H24960   6.209   4.612   7.796 -0.1742 -1.7786 -2.7464
  906MOL0     H24961   6.275   4.726   8.027  0.6132 -1.8093 -2.0089
  906MOL0     H24962   6.395   4.591   8.026 -0.3910 -2.7010 -0.1402
  906MOL0     H24963   6.275   4.746   8.285  3.2614 -0.0815  5.8299
  906MOL0     H24964   6.364   4.599   8.292 -0.7968  0.3158 -0.7224
  906MOL0     H24965   6.498   4.863   8.184  1.2677  0.2757 -1.2792
  906MOL0     H24966   6.505   4.794   8.351 -1.8612 -3.1063  0.0543
  906MOL0     H24967   6.569   4.583   8.273 -0.1972 -0.1378 -2.2638
  906MOL0     H24968   6.583   4.639   8.110 -0.4321 -1.7901  0.0745
  906MOL0     H24969   6.786   4.630   8.213  1.0959  0.5191  1.7335
  906MOL0     H24970   6.733   4.736   8.353  1.8725  3.2950 -0.2339
  906MOL0     H24971   6.776   4.806   8.059 -1.2206  0.3491 -0.1688
  906MOL0     H24972   6.727   4.926   8.191  0.4432 -0.1653 -0.2046
  906MOL0     H24973   6.988   4.781   8.188 -0.9866 -2.7729  3.8501
  906MOL0     H24974   6.937   4.890   8.314  4.5964 -1.2693  0.6146
  906MOL0     H24975   7.092   4.973   8.142 -0.0120 -0.4141  0.8265
  906MOL0     H24976   6.974   4.983   8.022 -2.2314  1.2818  0.2560
  906MOL0     H24977   6.782   5.180   8.043  1.4607  1.4284 -0.2092
  906MOL0     H24978   6.600   5.350   8.312  2.7302 -0.1378  1.3031
  906MOL0     H24979   6.614   5.348   8.141 -0.1751  3.3007 -0.8218
  906MOL0     H24980   6.787   5.521   8.145 -1.5633 -0.3350 -1.1096
  906MOL0     H24981   6.637   5.574   8.215  3.5941  3.9761 -0.6106
  906MOL0     H24982   6.724   5.493   8.446  0.2315  0.9128  0.0278
  906MOL0     H24983   6.890   5.502   8.363  0.9360  0.1248 -1.4914
  906MOL0     H24984   6.700   5.734   8.419 -1.5567 -1.1145 -0.9097
  906MOL0     H24985   6.860   5.712   8.480  2.8841  1.5201 -2.6873
  906MOL0     H24986   7.077   5.607   8.349 -0.2232 -2.3125 -2.4193
  906MOL0     H24987   7.376   5.597   8.259 -2.5114  0.6274 -1.3045
  906MOL0     H24988   7.299   5.612   8.423  2.1123 -1.8613 -0.0677
  906MOL0     H24989   7.398   5.753   8.357  3.8636 -0.9924 -3.6607
  906MOL0     H24990   7.520   6.199   8.244 -0.9652 -0.0245  0.0623
  906MOL0     H24991   7.698   6.357   8.129  1.4736 -0.7999 -0.0028
  906MOL0     H24992   7.879   6.267   7.733  1.3289  2.0520  1.5136
  906MOL0     H24993   7.717   6.291   7.673  5.5593 -1.7403 -5.6373
  906MOL0     H24994   7.825   6.451   7.579  0.7838 -0.0415 -0.3309
  906MOL0     H24995   7.779   6.544   7.721  1.6583  1.9891 -1.3524
  906MOL0     H24996   8.062   6.448   7.650 -0.8964 -0.5268  0.2291
  906MOL0     H24997   8.012   6.477   7.815  0.9694  0.4478  0.3917
  906MOL0     H24998   8.000   6.714   7.790  0.4065  2.1222 -1.2112
  906MOL0     H24999   7.970   6.698   7.614 -0.4179 -0.4119  0.3482
  906MOL0     H25000   8.233   6.636   7.773  0.7950  2.3626  0.5235
  906MOL0     H25001   8.201   6.599   7.602 -4.3371 -0.3818 -1.2663
  906MOL0     H25002   8.146   6.847   7.578 -0.2469 -2.8111 -0.4998
  906MOL0     H25003   8.319   6.815   7.605 -0.3266  0.4458 -0.2846
  906MOL0     H25004   8.120   6.930   7.798  0.8339 -1.2460  1.1294
  906MOL0     H25005   8.255   7.012   7.727  0.1662  0.3897 -2.8456
  906MOL0     H25006   8.396   6.834   7.826  0.0731  1.8294 -0.5527
  906MOL0     H25007   8.267   6.791   7.934  2.2917 -2.2682 -1.5226
  906MOL0     H25008   7.655   6.115   7.775 -2.1113 -1.5933 -0.6628
  906MOL0     H25009   7.504   5.959   7.899 -3.1187 -0.1734  1.7740
  906MOL0     H25010   7.144   6.021   8.085 -1.9766  1.5248  1.1954
  906MOL0     H25011   6.940   5.965   8.143  0.9476 -0.6567 -2.3862
  906MOL0     H25012   6.090   4.369   8.128  1.8527 -0.9001 -0.8554
  906MOL0     H25013   5.947   4.238   7.977  0.2308 -0.3790 -2.7978
  906MOL0     H25014   5.879   4.298   7.445 -0.5218 -0.5711 -0.3665
  906MOL0     H25015   5.747   4.213   7.269 -0.9507 -0.4794 -0.6368
  906MOL0     H25016   5.299   4.260   7.252  0.0163  2.3074  0.3020
  906MOL0     H25017   5.430   4.377   7.269  0.4531 -0.1848 -0.0406
  906MOL0     H25018   5.459   4.329   7.021  0.0337  1.0160  1.9789
  906MOL0     H25019   5.285   4.364   7.054  0.0755  0.4375 -0.5203
  906MOL0     H25020   5.398   4.095   7.008  0.9724  0.9556  3.2820
  906MOL0     H25021   5.232   4.137   7.055  0.8258  0.9908  2.2245
  906MOL0     H25022   5.334   4.257   6.795  0.5626 -0.4219  2.4016
  906MOL0     H25023   5.177   4.249   6.857  0.0745  1.6037  2.0698
  906MOL0     H25024   5.180   3.896   6.661  0.2602  0.3076 -0.8491
  906MOL0     H25025   5.387   4.227   7.499  0.0819  0.2683  1.8073
  906MOL0     H25026   5.436   4.189   7.752 -0.3051  0.8716 -0.4555
  906MOL0     H25027   5.561   4.289   7.832 -0.6258 -4.2916  0.9449
  906MOL0     H25028   5.438   4.359   7.736  0.5145  0.5382 -1.7440
  907MOL0     O25029   6.387  10.093  10.191 -0.2337 -0.1513  0.1162
  907MOL0     C25030   6.325   9.993  10.193  0.4713  0.7474  0.3045
  907MOL0     O25031   6.190   9.982  10.223 -0.2580  0.0453  0.7908
  907MOL0     C25032   6.101  10.084  10.229 -0.4156 -0.3001 -0.5595
  907MOL0     C25033   6.124  10.226  10.250 -1.0010  0.0796  0.6569
  907MOL0     C25034   6.014  10.322  10.248 -0.6393  0.8219 -0.4556
  907MOL0     C25035   5.890  10.268  10.226 -0.3519 -1.1457  0.1957
  907MOL0     O25036   5.786  10.363  10.205 -0.0316 -0.7453  0.1653
  907MOL0     C25037   5.706  10.323  10.090  0.7409  0.3240 -0.3388
  907MOL0     C25038   5.567  10.277  10.146  0.0900  0.6894 -0.3496
  907MOL0     C25039   5.498  10.406  10.202  0.7889  0.4059 -0.0396
  907MOL0     C25040   5.352  10.394  10.237 -0.0725 -0.3091 -0.5854
  907MOL0     C25041   5.298  10.537  10.277 -0.1563  0.1782 -0.6501
  907MOL0     C25042   5.174  10.544  10.366  0.7581  0.4722 -0.4410
  907MOL0     C25043   5.038  10.522  10.290  0.0071  0.6576 -1.0064
  907MOL0     C25044   4.909  10.573  10.367 -0.8554  0.4482  0.4814
  907MOL0     N25045   4.792  10.575  10.288 -0.1310 -0.0662  0.7774
  907MOL0     C25046   4.679  10.507  10.315  0.0474 -0.4293 -0.4217
  907MOL0     C25047   4.584  10.559  10.228  0.3111 -0.0257  0.8055
  907MOL0     C25048   4.430  10.537  10.222  0.6403 -0.8661 -0.5053
  907MOL0     C25049   4.360  10.652  10.292  0.3016 -0.0604 -0.4284
  907MOL0     C25050   4.375  10.791  10.227 -0.1730  0.6647 -0.2773
  907MOL0     C25051   4.312  10.804  10.080  0.5240 -0.4845  0.5183
  907MOL0     O25052   4.265  10.929  10.054  0.3745 -0.5093 -0.1288
  907MOL0     C25053   4.152  10.980  10.125 -0.4985  0.2736  0.6359
  907MOL0     C25054   4.121  11.107  10.089  0.4478  0.2891  0.3199
  907MOL0     C25055   3.995  11.164  10.121 -0.1399 -0.9614 -0.3613
  907MOL0     C25056   3.961  11.291  10.048 -0.1982 -0.0064  1.0273
  907MOL0     C25057   3.919  11.107  10.232 -0.0328  0.0857 -0.0300
  907MOL0     C25058   3.801  11.155  10.299 -0.3769 -0.1089 -0.1736
  907MOL0     O25059   3.753  11.273  10.270 -0.0080 -1.3258  0.0967
  907MOL0     C25060   3.622  11.293  10.301  0.2821 -0.5861 -0.5425
  907MOL0     C25061   3.586  11.397  10.391 -0.4616  0.2262 -1.1645
  907MOL0     C25062   3.453  11.425  10.422  0.2171  0.2714  0.2339
  907MOL0     C25063   3.355  11.342  10.369  0.9605 -0.4577  0.7386
  907MOL0     O25064   3.222  11.359  10.403  0.0066 -0.2814 -0.0291
  907MOL0     C25065   3.123  11.357  10.291 -0.0525  0.3578 -0.7242
  907MOL0     C25066   2.998  11.431  10.345 -1.3969 -0.2802 -0.4973
  907MOL0     C25067   2.901  11.497  10.250 -0.8529 -0.4488 -0.3224
  907MOL0     C25068   2.756  11.502  10.290  0.0658  0.7833 -0.5408
  907MOL0     C25069   2.670  11.573  10.177  0.5779  0.6561 -0.9273
  907MOL0     C25070   2.521  11.592  10.216 -0.0352 -0.0082 -0.6604
  907MOL0     C25071   2.510  11.688  10.329  0.2578  0.5162  0.1158
  907MOL0     C25072   2.383  11.770  10.332  0.0843  0.9729  0.5584
  907MOL0    Cl25073   2.243  11.661  10.378 -0.0336 -0.5024 -0.0381
  907MOL0     C25074   3.388  11.241  10.273 -0.1699  0.1251 -0.5029
  907MOL0     C25075   3.519  11.225  10.239 -0.4540 -0.5147 -0.3926
  907MOL0     O25076   3.764  11.083  10.391  0.6637 -0.1383 -0.0828
  907MOL0     C25077   3.957  10.979  10.267 -0.2761  0.0492  0.6395
  907MOL0     C25078   4.069  10.912  10.214  0.3372 -0.0946 -0.3431
  907MOL0     N25079   4.654  10.618  10.120 -0.0035 -0.7944  0.4211
  907MOL0     N25080   4.776  10.636  10.165  0.6591  0.3019  0.1719
  907MOL0     C25081   5.861  10.129  10.232 -0.3038  0.5564 -0.2869
  907MOL0     C25082   5.968  10.040  10.231 -0.1703 -0.8180  0.9976
  907MOL0     C25083   6.400   9.862  10.197 -0.0684 -0.2027  0.0084
  907MOL0     C25084   6.322   9.749  10.228 -0.3285 -0.1096  0.2772
  907MOL0     C25085   6.382   9.628  10.250  0.2381  0.6490  0.0964
  907MOL0     C25086   6.517   9.598  10.227  0.2627  0.3880 -0.3342
  907MOL0     O25087   6.565   9.478  10.254 -0.8893  0.7170 -0.6249
  907MOL0     C25088   6.697   9.438  10.215  0.7409 -0.4378 -0.0877
  907MOL0     C25089   6.737   9.336  10.317  0.3311 -1.2317 -0.5064
  907MOL0     C25090   6.669   9.199  10.284 -0.3886 -0.1230 -0.0602
  907MOL0     C25091   6.711   9.071  10.364  0.3495 -0.4758  0.7551
  907MOL0     C25092   6.734   9.106  10.505 -0.7901  0.6899 -0.1525
  907MOL0     C25093   6.757   9.114  10.625  0.0437 -0.5646  0.1588
  907MOL0     C25094   6.592   9.706  10.185 -0.1472  0.3842  0.1999
  907MOL0     C25095   6.538   9.835  10.174  0.2903 -0.3357 -0.0101
  907MOL0     C25096   6.641   9.942  10.126  0.2982 -0.6142 -0.2431
  907MOL0     H25097   6.222  10.270  10.261 -0.7231 -0.4797  0.4569
  907MOL0     H25098   6.037  10.428  10.259  0.5881  0.4424  0.9460
  907MOL0     H25099   5.760  10.253  10.026  0.9730 -0.0064  0.2061
  907MOL0     H25100   5.691  10.405  10.020 -1.0030 -0.0009 -0.3819
  907MOL0     H25101   5.491  10.244  10.075 -2.6677 -0.1161  2.7150
  907MOL0     H25102   5.581  10.199  10.222  1.9794  0.2321 -1.1003
  907MOL0     H25103   5.546  10.449  10.290 -0.6428  1.9038  0.0605
  907MOL0     H25104   5.507  10.484  10.126 -1.6023 -0.0547 -0.8706
  907MOL0     H25105   5.288  10.350  10.160 -2.9964 -1.3181  2.1866
  907MOL0     H25106   5.339  10.324  10.320  1.2490 -1.4765 -1.3190
  907MOL0     H25107   5.278  10.590  10.184  0.0945 -0.1509 -0.8910
  907MOL0     H25108   5.382  10.589  10.324  0.8006 -1.7858 -0.0917
  907MOL0     H25109   5.184  10.462  10.438  2.2348 -0.1656 -1.3275
  907MOL0     H25110   5.167  10.639  10.419  0.6913  3.0506 -4.6325
  907MOL0     H25111   5.033  10.414  10.272 -0.2837  0.3025  0.9772
  907MOL0     H25112   5.040  10.588  10.202 -0.1876  0.4845 -1.1434
  907MOL0     H25113   4.878  10.505  10.446 -2.2365  0.7215  0.2077
  907MOL0     H25114   4.933  10.674  10.402  1.2369  0.4789 -0.8631
  907MOL0     H25115   4.653  10.453  10.406 -1.8060  0.1056 -0.5845
  907MOL0     H25116   4.395  10.444  10.269  0.4996 -0.4199  0.2825
  907MOL0     H25117   4.403  10.552  10.117 -0.2691  5.9797  0.2539
  907MOL0     H25118   4.253  10.629  10.298  0.0924  0.5944 -1.3136
  907MOL0     H25119   4.396  10.662  10.394  0.4976 -1.2103 -0.3734
  907MOL0     H25120   4.329  10.856  10.302 -0.2010  1.1316 -0.6966
  907MOL0     H25121   4.481  10.816  10.222  0.4548 -1.8262 -2.8730
  907MOL0     H25122   4.386  10.766  10.009  0.0495  1.5185 -1.1423
  907MOL0     H25123   4.223  10.740  10.075 -2.8558  3.8823 -1.1122
  907MOL0     H25124   4.180  11.160  10.015  0.7334  0.0708  0.3923
  907MOL0     H25125   4.013  11.290   9.952 -0.4299 -1.0189  0.8989
  907MOL0     H25126   3.989  11.375  10.113 -0.3616  0.9333 -0.0815
  907MOL0     H25127   3.853  11.296  10.031 -0.2545 -3.1152 -0.1315
  907MOL0     H25128   3.667  11.453  10.437 -0.3580 -0.9782  0.1939
  907MOL0     H25129   3.437  11.515  10.479  1.4296  1.7530 -1.6496
  907MOL0     H25130   3.149  11.403  10.195 -0.2765  0.4106 -0.7603
  907MOL0     H25131   3.098  11.252  10.275  1.4003 -0.0625 -0.3565
  907MOL0     H25132   2.942  11.365  10.412 -0.1706  0.4079  1.2536
  907MOL0     H25133   3.028  11.524  10.392 -2.6057  1.2735 -2.6262
  907MOL0     H25134   2.898  11.447  10.153  3.0123  0.7487 -1.2385
  907MOL0     H25135   2.941  11.597  10.233 -2.2540  0.2917  0.5543
  907MOL0     H25136   2.746  11.541  10.391  2.9925 -0.6485  0.4182
  907MOL0     H25137   2.710  11.402  10.285  0.9842  0.3941 -1.7240
  907MOL0     H25138   2.709  11.675  10.167 -0.7032  1.2758  0.0339
  907MOL0     H25139   2.673  11.519  10.082 -0.1024 -1.6910  0.3088
  907MOL0     H25140   2.477  11.494  10.236 -1.4206  0.6962 -0.1081
  907MOL0     H25141   2.474  11.630  10.125  0.6542  2.3069 -0.0957
  907MOL0     H25142   2.598  11.753  10.325  0.0259  0.8170 -0.1932
  907MOL0     H25143   2.526  11.631  10.421  1.4930  0.2465 -0.2445
  907MOL0     H25144   2.360  11.829  10.243 -1.6731 -2.1280 -1.2364
  907MOL0     H25145   2.391  11.834  10.420  1.2095 -0.0251  1.2152
  907MOL0     H25146   3.314  11.171  10.235 -0.8956  0.1431  0.8109
  907MOL0     H25147   3.546  11.156  10.159 -0.7399 -2.5384  1.1733
  907MOL0     H25148   3.906  10.928  10.349 -1.5235  0.6837  0.2841
  907MOL0     H25149   4.094  10.811  10.245  0.0137 -0.3575 -0.9397
  907MOL0     H25150   5.761  10.087  10.221 -0.0974 -0.1058  0.3076
  907MOL0     H25151   5.956   9.932  10.235  0.2949 -0.8677  1.1677
  907MOL0     H25152   6.216   9.748  10.255 -0.0518 -1.3270  1.4225
  907MOL0     H25153   6.313   9.548  10.273 -0.9293  1.9875  1.3794
  907MOL0     H25154   6.708   9.403  10.112  1.4800 -1.5624  0.3527
  907MOL0     H25155   6.772   9.516  10.234 -0.8862  1.2292 -0.1959
  907MOL0     H25156   6.704   9.363  10.418 -0.3986 -0.8150 -0.8483
  907MOL0     H25157   6.846   9.321  10.318  0.2590 -1.9804  1.8850
  907MOL0     H25158   6.563   9.222  10.293 -0.2844 -0.0724  1.1581
  907MOL0     H25159   6.679   9.172  10.178 -0.4153 -1.9736  0.3683
  907MOL0     H25160   6.798   9.035  10.308  0.8178 -0.8168  1.6974
  907MOL0     H25161   6.631   8.997  10.352  1.3410 -1.4333 -0.2671
  907MOL0     H25162   6.766   9.120  10.731 -0.7686  0.1660  0.1965
  907MOL0     H25163   6.694   9.691  10.153 -0.8198 -0.3541 -1.7589
  907MOL0     H25164   6.634  10.026  10.195  2.6936  0.7516 -1.5459
  907MOL0     H25165   6.739   9.893  10.122 -0.8358 -3.4567  2.1481
  907MOL0     H25166   6.627   9.985  10.027  0.9265  1.3508  0.4752
  908MOL0     O25167   7.820  10.126   8.632 -0.4541 -0.0501 -0.0418
  908MOL0     C25168   7.929  10.172   8.639 -0.0128 -0.5415 -0.4530
  908MOL0     O25169   8.009  10.166   8.745 -0.2102 -0.6900 -0.4422
  908MOL0     C25170   7.952  10.187   8.865 -0.5076  0.0567 -0.4524
  908MOL0     C25171   8.025  10.144   8.977 -0.8419  0.6354  0.0589
  908MOL0     C25172   8.003  10.194   9.106  0.0966 -0.1086 -1.0135
  908MOL0     C25173   7.892  10.285   9.120  0.2930 -0.9078 -0.1942
  908MOL0     O25174   7.841  10.331   9.240  0.0487 -0.4413 -0.1083
  908MOL0     C25175   7.923  10.314   9.354  0.5697  0.0617 -0.1064
  908MOL0     C25176   7.842  10.337   9.484  1.0975 -0.5181  0.6757
  908MOL0     C25177   7.878  10.486   9.522 -0.3710  1.1166  0.0234
  908MOL0     C25178   7.748  10.555   9.555 -0.1716 -0.3317 -1.0366
  908MOL0     C25179   7.762  10.703   9.600  0.7383 -0.6388  0.0349
  908MOL0     C25180   7.799  10.785   9.474  0.4517 -0.1126  0.0308
  908MOL0     C25181   7.743  10.936   9.477 -0.1903 -0.4566 -0.2284
  908MOL0     C25182   7.802  11.026   9.587  0.3333 -0.2380 -0.6093
  908MOL0     N25183   7.761  11.164   9.584 -0.7990 -0.0958  0.6009
  908MOL0     C25184   7.767  11.257   9.683  0.0779 -1.1974  0.4894
  908MOL0     C25185   7.731  11.372   9.622 -0.1399  0.3568  0.1740
  908MOL0     C25186   7.701  11.503   9.692 -0.5012  0.8436  0.1980
  908MOL0     C25187   7.685  11.615   9.579 -0.1445 -0.4066 -1.0096
  908MOL0     C25188   7.648  11.745   9.639 -0.5209 -0.5091  0.7146
  908MOL0     C25189   7.590  11.847   9.543  0.4324  0.1671 -0.5129
  908MOL0     O25190   7.461  11.796   9.505 -0.5840  0.1075  0.3648
  908MOL0     C25191   7.402  11.864   9.406 -0.8089 -0.2363  0.3643
  908MOL0     C25192   7.273  11.913   9.429  0.1700 -0.1501 -0.2091
  908MOL0     C25193   7.208  11.990   9.334  0.9425  0.5676 -0.3923
  908MOL0     C25194   7.085  12.048   9.382  0.6515 -0.7368  0.1963
  908MOL0     C25195   7.263  12.011   9.203 -0.4723 -0.4487 -0.7914
  908MOL0     C25196   7.203  12.103   9.103  1.0973  0.6776 -0.4662
  908MOL0     O25197   7.290  12.142   9.011 -0.1612  0.1181 -0.5577
  908MOL0     C25198   7.258  12.194   8.885  0.3713  0.8325 -0.6613
  908MOL0     C25199   7.155  12.147   8.807  0.1082 -1.3584 -1.4590
  908MOL0     C25200   7.126  12.201   8.684 -0.3118  1.3303  0.4370
  908MOL0     C25201   7.222  12.280   8.622 -0.1674  0.2239 -0.4255
  908MOL0     O25202   7.184  12.329   8.500  0.1279  0.5393 -0.5118
  908MOL0     C25203   7.281  12.346   8.397  0.1605 -0.1668 -0.5025
  908MOL0     C25204   7.328  12.212   8.339  0.3342  0.8725  0.4854
  908MOL0     C25205   7.213  12.151   8.247 -0.7217  0.1579 -0.0573
  908MOL0     C25206   7.256  12.028   8.157 -0.5360 -0.8336  0.2248
  908MOL0     C25207   7.153  12.004   8.042  0.7797 -0.3485  0.2705
  908MOL0     C25208   7.190  11.896   7.940 -0.3102 -0.0159 -1.3106
  908MOL0     C25209   7.099  11.890   7.823  0.4646 -0.1381  0.8438
  908MOL0     C25210   7.111  12.018   7.728  0.6952  0.4917  1.5325
  908MOL0    Cl25211   7.258  11.999   7.629 -0.2966  0.2392 -0.2028
  908MOL0     C25212   7.331  12.325   8.703 -0.5687  0.7856 -0.1263
  908MOL0     C25213   7.349  12.287   8.831  0.5319 -0.0590  0.0233
  908MOL0     O25214   7.085  12.130   9.108 -0.2266 -0.9577  0.5390
  908MOL0     C25215   7.394  11.958   9.179 -0.0564 -0.4008 -0.2395
  908MOL0     C25216   7.466  11.898   9.282 -0.0006 -0.0728  0.6514
  908MOL0     N25217   7.710  11.348   9.487 -0.3686 -0.1388 -0.6910
  908MOL0     N25218   7.740  11.229   9.463  0.6119  0.0735 -0.4581
  908MOL0     C25219   7.810  10.315   9.013  0.3236 -0.2115  0.3369
  908MOL0     C25220   7.843  10.274   8.882  0.8160  0.6666  0.3258
  908MOL0     C25221   7.984  10.240   8.526 -0.2115 -0.8494 -0.4055
  908MOL0     C25222   8.030  10.370   8.536  0.1267  0.1499 -0.4953
  908MOL0     C25223   8.081  10.445   8.432  0.9365 -0.5217  0.5862
  908MOL0     C25224   8.098  10.389   8.306  1.1751  0.1223 -0.1463
  908MOL0     O25225   8.154  10.472   8.218  0.1868 -0.4076  0.5050
  908MOL0     C25226   8.176  10.412   8.088 -0.3176  0.4076  0.6383
  908MOL0     C25227   8.207  10.521   7.981  0.2181  0.6602 -0.8319
  908MOL0     C25228   8.256  10.442   7.869  0.8821 -0.3156  0.6300
  908MOL0     C25229   8.303  10.537   7.759  0.2554  0.0457 -0.5822
  908MOL0     C25230   8.285  10.486   7.623  0.1250 -0.2291 -0.0357
  908MOL0     C25231   8.285  10.436   7.515  0.1199  0.2276  0.0704
  908MOL0     C25232   8.060  10.250   8.285  0.1978  0.0821 -0.6261
  908MOL0     C25233   8.001  10.181   8.391 -0.6831 -0.7139 -1.4394
  908MOL0     C25234   7.935  10.043   8.372 -0.7359  0.0386  0.2749
  908MOL0     H25235   8.118  10.089   8.963 -1.6375 -0.6756 -0.2106
  908MOL0     H25236   8.060  10.164   9.193  0.0750 -1.4036 -1.4246
  908MOL0     H25237   8.007  10.383   9.345  0.4693  0.0687 -1.0449
  908MOL0     H25238   7.971  10.216   9.358  0.6478 -0.0032 -1.8781
  908MOL0     H25239   7.737  10.334   9.454  1.1083 -0.4280  0.6278
  908MOL0     H25240   7.864  10.262   9.560 -0.8979  0.7153  2.5897
  908MOL0     H25241   7.946  10.472   9.607 -1.8946  0.5424  1.2026
  908MOL0     H25242   7.919  10.541   9.437 -0.4101  1.1721  0.0407
  908MOL0     H25243   7.665  10.547   9.484  0.5515 -0.9339 -1.8388
  908MOL0     H25244   7.717  10.518   9.653 -0.8699  3.1153  0.1839
  908MOL0     H25245   7.835  10.723   9.680  1.1250 -0.0043 -0.4682
  908MOL0     H25246   7.667  10.738   9.640  0.4494 -0.5947 -0.6732
  908MOL0     H25247   7.908  10.792   9.474  0.3932  1.4742  1.5655
  908MOL0     H25248   7.770  10.736   9.381  0.7258  0.3775 -0.3192
  908MOL0     H25249   7.635  10.932   9.495 -0.6800  2.2088 -2.0209
  908MOL0     H25250   7.744  10.982   9.378 -2.1078  2.1719  0.8492
  908MOL0     H25251   7.772  10.973   9.677 -2.3816 -1.5868 -2.1765
  908MOL0     H25252   7.912  11.025   9.583  0.3962  0.8381  0.4483
  908MOL0     H25253   7.767  11.242   9.790 -1.7127  1.5454  0.9707
  908MOL0     H25254   7.789  11.524   9.753  3.0336 -1.7007 -3.4374
  908MOL0     H25255   7.610  11.491   9.752 -1.3588 -0.8466 -1.3374
  908MOL0     H25256   7.786  11.634   9.542  1.1511 -0.2896  2.2352
  908MOL0     H25257   7.609  11.593   9.503  0.5586  1.4528 -2.3329
  908MOL0     H25258   7.582  11.715   9.721 -1.5344  0.4830  0.2932
  908MOL0     H25259   7.738  11.787   9.684  0.4052  0.2350 -1.6755
  908MOL0     H25260   7.582  11.936   9.606  1.1461 -2.4963  3.7324
  908MOL0     H25261   7.657  11.867   9.459  0.6503 -0.4904 -0.5013
  908MOL0     H25262   7.219  11.896   9.521 -1.4871  2.8788 -0.4744
  908MOL0     H25263   7.069  12.029   9.489 -0.8929  1.8544  0.5183
  908MOL0     H25264   6.996  12.013   9.329  1.9365 -2.2684 -1.0893
  908MOL0     H25265   7.090  12.157   9.383  3.0668 -0.7504 -1.7145
  908MOL0     H25266   7.089  12.076   8.856 -1.2733  2.1161  2.2692
  908MOL0     H25267   7.044  12.173   8.619 -1.1234 -1.8936  2.6031
  908MOL0     H25268   7.249  12.411   8.315 -3.9356 -1.8835 -0.5264
  908MOL0     H25269   7.378  12.391   8.420  0.3514 -0.3174 -1.0046
  908MOL0     H25270   7.420  12.219   8.280  0.3250 -1.1388  0.1718
  908MOL0     H25271   7.358  12.147   8.421  2.3622  1.0805 -0.0503
  908MOL0     H25272   7.185  12.221   8.167 -2.2295 -2.1369 -1.6721
  908MOL0     H25273   7.122  12.125   8.302 -1.8179  1.8343 -0.9763
  908MOL0     H25274   7.273  11.941   8.221 -0.1233  0.1513  1.4965
  908MOL0     H25275   7.353  12.054   8.112 -0.0824  2.2032  2.6273
  908MOL0     H25276   7.055  11.993   8.090  0.3224  0.9072 -0.3426
  908MOL0     H25277   7.149  12.097   7.985  1.0325 -0.5776 -0.1184
  908MOL0     H25278   7.169  11.801   7.988 -0.7129  0.0654 -1.3252
  908MOL0     H25279   7.294  11.896   7.905  0.3492 -1.7772  0.4721
  908MOL0     H25280   6.995  11.886   7.857 -0.3522 -0.1121 -1.4894
  908MOL0     H25281   7.120  11.796   7.771 -0.9194 -1.1805  2.0743
  908MOL0     H25282   7.122  12.114   7.779 -1.5826  3.4572 -2.9184
  908MOL0     H25283   7.029  12.016   7.657 -0.6218 -0.3522  3.0143
  908MOL0     H25284   7.400  12.390   8.650  0.7445 -0.7224 -0.3463
  908MOL0     H25285   7.414  12.339   8.900 -3.4111  3.2838  1.6621
  908MOL0     H25286   7.431  11.962   9.077 -0.0948  0.8449 -0.2230
  908MOL0     H25287   7.565  11.865   9.251 -0.0031  1.0424 -0.6233
  908MOL0     H25288   7.715  10.364   9.029 -1.3714 -2.2666 -2.5098
  908MOL0     H25289   7.788  10.316   8.798  0.4073  2.4179  1.3988
  908MOL0     H25290   8.023  10.415   8.634  4.1250  2.1240 -0.9296
  908MOL0     H25291   8.113  10.547   8.451  3.0893 -1.0187 -0.0463
  908MOL0     H25292   8.260  10.342   8.098 -0.0323  0.0228 -3.0866
  908MOL0     H25293   8.090  10.358   8.047  2.2011 -0.5698 -4.1277
  908MOL0     H25294   8.292  10.583   8.011  1.1278  0.5686 -2.9921
  908MOL0     H25295   8.126  10.589   7.953 -1.4980 -1.5099 -1.4649
  908MOL0     H25296   8.345  10.382   7.891  2.9007  1.9177 -0.8685
  908MOL0     H25297   8.180  10.377   7.825  1.3038  0.1582 -0.8719
  908MOL0     H25298   8.409  10.561   7.768  0.3088 -0.8745  2.7614
  908MOL0     H25299   8.252  10.633   7.769 -1.5512 -0.8365 -0.8555
  908MOL0     H25300   8.287  10.414   7.410 -1.6886  1.0891 -0.1771
  908MOL0     H25301   8.065  10.204   8.187  1.0335 -0.8499 -0.1727
  908MOL0     H25302   7.913  10.034   8.265  2.3706 -2.1128 -0.3368
  908MOL0     H25303   7.988   9.952   8.401  0.2395 -0.2256 -2.1109
  908MOL0     H25304   7.843  10.034   8.430 -1.2597  2.0036 -0.1567
  909MOL0     O25305  10.630   3.847   3.656  0.1721  0.6607  0.3340
  909MOL0     C25306  10.577   3.789   3.566  0.7950  0.3498  0.2635
  909MOL0     O25307  10.481   3.696   3.590  0.2695 -0.5870 -0.1073
  909MOL0     C25308  10.452   3.633   3.713 -0.5375 -0.0996  1.3714
  909MOL0     C25309  10.550   3.618   3.815 -0.0034  0.1891 -0.0143
  909MOL0     C25310  10.510   3.551   3.935 -0.1227 -0.2999 -0.4685
  909MOL0     C25311  10.395   3.472   3.937  0.2610  0.4144 -0.1725
  909MOL0     O25312  10.376   3.388   4.041  0.2855 -0.4114 -0.4482
  909MOL0     C25313  10.430   3.260   4.014  0.1794 -0.1969 -0.0927
  909MOL0     C25314  10.400   3.189   3.886 -0.0222 -0.2142 -0.2585
  909MOL0     C25315  10.443   3.043   3.896  0.1997 -0.0965 -0.1571
  909MOL0     C25316  10.481   2.992   3.758  0.6091  1.3400 -0.1754
  909MOL0     C25317  10.475   2.839   3.755 -0.2579 -0.0940  0.2237
  909MOL0     C25318  10.570   2.784   3.866 -0.0748 -0.3838 -0.9804
  909MOL0     C25319  10.607   2.636   3.830  0.0921 -0.0562 -0.0590
  909MOL0     C25320  10.704   2.573   3.932  0.2006  0.2713 -1.1235
  909MOL0     N25321  10.747   2.440   3.877  0.5529 -0.2865 -0.5016
  909MOL0     C25322  10.683   2.319   3.892  0.2503 -0.3838 -1.1549
  909MOL0     C25323  10.777   2.220   3.863  0.0399  0.1262  0.4360
  909MOL0     C25324  10.767   2.065   3.869 -0.6871  0.1260  0.3404
  909MOL0     C25325  10.651   2.026   3.970 -0.4687  0.2262  0.4772
  909MOL0     C25326  10.657   1.875   3.993 -0.5579  0.0958  0.4378
  909MOL0     C25327  10.750   1.839   4.117  0.6882 -0.2339 -0.3189
  909MOL0     O25328  10.743   1.701   4.168  1.0377 -0.2623  0.0091
  909MOL0     C25329  10.808   1.660   4.282  0.2271 -0.6094 -0.5891
  909MOL0     C25330  10.797   1.523   4.311 -0.3868  0.5219  0.0948
  909MOL0     C25331  10.857   1.462   4.413 -0.3408  0.5740  0.3842
  909MOL0     C25332  10.840   1.320   4.423 -0.6196  0.9679  0.5133
  909MOL0     C25333  10.936   1.541   4.499  0.1005  0.4065  0.4816
  909MOL0     C25334  11.024   1.482   4.602  0.5411 -0.0067  0.6423
  909MOL0     O25335  11.131   1.562   4.633 -0.8046  1.4314 -0.9620
  909MOL0     C25336  11.238   1.497   4.707  0.0715  0.8290  0.7501
  909MOL0     C25337  11.261   1.357   4.721 -0.2436 -0.1673  0.6852
  909MOL0     C25338  11.374   1.307   4.782  1.0379  0.6951  0.1423
  909MOL0     C25339  11.477   1.382   4.830 -0.4022  0.9030  0.5610
  909MOL0     O25340  11.590   1.333   4.891 -0.2288 -1.0638 -0.0997
  909MOL0     C25341  11.681   1.259   4.817  0.1207 -0.0039 -0.2440
  909MOL0     C25342  11.816   1.301   4.872 -0.1611 -0.5059 -0.5480
  909MOL0     C25343  11.925   1.220   4.806  0.4863 -0.3530 -0.5005
  909MOL0     C25344  12.060   1.253   4.869 -0.0184 -0.5208 -0.9234
  909MOL0     C25345  12.167   1.154   4.842  0.6355 -0.0148  0.1553
  909MOL0     C25346  12.282   1.186   4.928 -0.3332  0.2977 -0.2538
  909MOL0     C25347  12.389   1.079   4.920 -1.1115 -0.1469 -0.4357
  909MOL0     C25348  12.475   1.059   4.802  0.4026  0.3770 -0.4281
  909MOL0    Cl25349  12.582   1.195   4.792 -0.0743  0.1281 -0.0514
  909MOL0     C25350  11.457   1.515   4.827 -0.4791 -0.2981 -0.3836
  909MOL0     C25351  11.343   1.574   4.769  0.2608 -0.2685  0.2435
  909MOL0     O25352  10.990   1.377   4.651  0.1443 -0.0400 -0.1582
  909MOL0     C25353  10.942   1.682   4.480 -0.0113  0.0244  0.0913
  909MOL0     C25354  10.876   1.739   4.378 -0.3478  0.0281  0.0245
  909MOL0     N25355  10.882   2.296   3.796 -0.1466 -0.2124  0.5191
  909MOL0     N25356  10.855   2.423   3.799  0.7276  0.0272  0.9193
  909MOL0     C25357  10.299   3.494   3.836 -0.5104 -0.9155 -0.5794
  909MOL0     C25358  10.330   3.571   3.729 -0.5078  0.8580 -0.2027
  909MOL0     C25359  10.614   3.827   3.426 -0.5739 -0.5730 -0.6214
  909MOL0     C25360  10.595   3.728   3.331 -0.1882 -0.3183 -0.0643
  909MOL0     C25361  10.629   3.745   3.200  0.2552  0.2748  0.7173
  909MOL0     C25362  10.673   3.870   3.147  0.6185 -0.8107  0.1241
  909MOL0     O25363  10.694   3.864   3.010 -0.8914  0.6448 -0.5937
  909MOL0     C25364  10.755   3.984   2.955  0.7106 -0.0501  0.1869
  909MOL0     C25365  10.752   3.982   2.803 -0.4415 -0.1902 -0.1554
  909MOL0     C25366  10.636   4.054   2.724  0.4588  0.1224 -1.0232
  909MOL0     C25367  10.502   3.977   2.744 -0.7776  0.5616  0.2212
  909MOL0     C25368  10.399   4.004   2.647 -0.9490  0.1519 -0.0848
  909MOL0     C25369  10.307   4.049   2.577 -0.5454  0.3445  0.1188
  909MOL0     C25370  10.699   3.972   3.242  0.6067  0.0712  0.3871
  909MOL0     C25371  10.660   3.955   3.378  1.2405 -0.3228 -0.1074
  909MOL0     C25372  10.661   4.075   3.461  0.2031 -0.6681  0.7635
  909MOL0     H25373  10.644   3.672   3.813 -1.3574  2.7863  1.4099
  909MOL0     H25374  10.578   3.545   4.020  0.3737  0.5735 -0.7875
  909MOL0     H25375  10.399   3.195   4.096  0.8873  1.6042  1.6987
  909MOL0     H25376  10.539   3.263   4.015  0.1836 -0.2760  0.7432
  909MOL0     H25377  10.293   3.192   3.866 -0.0189 -1.2820 -0.5200
  909MOL0     H25378  10.466   3.235   3.811  0.0225 -1.9744 -1.3498
  909MOL0     H25379  10.535   3.034   3.954 -1.2834 -1.2905  2.1372
  909MOL0     H25380  10.360   2.989   3.941  0.3874  0.1045  0.4533
  909MOL0     H25381  10.419   3.043   3.683 -0.9456  3.5688  2.4463
  909MOL0     H25382  10.584   3.020   3.738  0.1003  3.2961 -0.2555
  909MOL0     H25383  10.519   2.797   3.664  1.1046 -3.1013  2.0993
  909MOL0     H25384  10.373   2.803   3.765  0.0620 -1.0573  0.0982
  909MOL0     H25385  10.657   2.850   3.871 -0.0098 -0.5729  0.6501
  909MOL0     H25386  10.511   2.791   3.957 -0.7800 -0.1845 -1.4469
  909MOL0     H25387  10.656   2.627   3.733  3.0067  1.9394  1.0864
  909MOL0     H25388  10.511   2.584   3.831 -1.1038  2.0219  1.6615
  909MOL0     H25389  10.795   2.633   3.942 -0.0532  0.3949  0.8104
  909MOL0     H25390  10.659   2.555   4.030  2.3739 -1.4869 -0.3763
  909MOL0     H25391  10.582   2.318   3.933 -0.0783  1.9851 -1.7317
  909MOL0     H25392  10.860   2.014   3.897 -0.8602  0.5148  1.6829
  909MOL0     H25393  10.748   2.014   3.775  0.5766  0.1056  0.0799
  909MOL0     H25394  10.649   2.076   4.068 -3.9836 -0.3189  0.8352
  909MOL0     H25395  10.561   2.057   3.915  0.0437 -1.0807 -1.1330
  909MOL0     H25396  10.551   1.861   4.013 -0.4771 -1.2759 -0.0328
  909MOL0     H25397  10.668   1.808   3.908 -0.5222  1.1408 -0.4054
  909MOL0     H25398  10.852   1.848   4.079  0.6892 -2.2201 -0.9312
  909MOL0     H25399  10.728   1.905   4.201  5.5856 -1.4260  2.2676
  909MOL0     H25400  10.733   1.481   4.234  0.0664  0.7596 -0.4258
  909MOL0     H25401  10.808   1.292   4.524  3.0201 -2.2056  1.0259
  909MOL0     H25402  10.936   1.269   4.409 -0.9144  0.8907 -1.5012
  909MOL0     H25403  10.772   1.292   4.342  0.6425  0.7763 -0.5215
  909MOL0     H25404  11.200   1.289   4.661 -2.2098  2.0718 -0.0187
  909MOL0     H25405  11.400   1.203   4.799  4.7033  1.3599 -0.5806
  909MOL0     H25406  11.675   1.150   4.826  1.9229  0.0012  1.7603
  909MOL0     H25407  11.691   1.288   4.712  0.4699  2.0332  0.3079
  909MOL0     H25408  11.843   1.407   4.862  3.6203 -0.9025  2.8880
  909MOL0     H25409  11.809   1.282   4.979  0.2527  0.3705 -0.3550
  909MOL0     H25410  11.941   1.257   4.704  3.9536 -0.9918 -0.3382
  909MOL0     H25411  11.904   1.113   4.809  0.9898 -0.4337  1.2209
  909MOL0     H25412  12.043   1.277   4.975 -2.1173 -1.7263 -0.9355
  909MOL0     H25413  12.084   1.350   4.823 -4.0961 -0.8749 -4.4187
  909MOL0     H25414  12.126   1.056   4.866 -1.9094  0.2450 -2.5292
  909MOL0     H25415  12.198   1.150   4.737  2.7585  0.6862  0.7130
  909MOL0     H25416  12.238   1.181   5.027  1.8921 -1.3164  0.7279
  909MOL0     H25417  12.329   1.279   4.894 -2.9023  1.0189 -2.1769
  909MOL0     H25418  12.348   0.983   4.952 -0.5273 -0.3479 -0.2839
  909MOL0     H25419  12.463   1.107   4.995 -1.7512  1.0784 -0.2410
  909MOL0     H25420  12.418   1.044   4.710 -2.2103  2.5241  0.6961
  909MOL0     H25421  12.540   0.974   4.825 -1.4460 -1.2151 -0.9474
  909MOL0     H25422  11.539   1.574   4.866 -1.8169  1.7633 -0.5087
  909MOL0     H25423  11.325   1.680   4.782  2.4765  0.2165 -0.3533
  909MOL0     H25424  11.014   1.737   4.540  1.4274 -0.9676 -0.6518
  909MOL0     H25425  10.888   1.845   4.358  1.3208 -0.1224  0.0927
  909MOL0     H25426  10.211   3.431   3.848  1.2015 -3.2937  0.4297
  909MOL0     H25427  10.257   3.576   3.649  1.0681 -0.5478 -1.7893
  909MOL0     H25428  10.551   3.633   3.359 -1.7491  0.2073 -0.6081
  909MOL0     H25429  10.602   3.667   3.129 -0.2679 -0.2189  1.4591
  909MOL0     H25430  10.713   4.080   2.985 -0.3957 -0.4389 -0.0772
  909MOL0     H25431  10.858   3.986   2.992  1.6703  1.2829 -2.3264
  909MOL0     H25432  10.774   3.883   2.762 -0.3732 -0.5020  0.6117
  909MOL0     H25433  10.835   4.049   2.779 -1.1810  1.6328  2.0442
  909MOL0     H25434  10.634   4.155   2.765  1.8228 -0.4412  0.5326
  909MOL0     H25435  10.655   4.055   2.616  2.8729 -0.5329 -0.6675
  909MOL0     H25436  10.466   3.992   2.847  1.2659  1.5532  0.8484
  909MOL0     H25437  10.528   3.871   2.736  1.0550  0.9337  0.5515
  909MOL0     H25438  10.227   4.087   2.517 -0.9963 -1.5798 -0.5922
  909MOL0     H25439  10.738   4.069   3.210 -2.4727  0.5270 -2.5196
  909MOL0     H25440  10.676   4.163   3.397 -0.4198 -0.6101  0.6964
  909MOL0     H25441  10.570   4.089   3.519 -0.8665  1.3536 -1.2378
  909MOL0     H25442  10.751   4.065   3.523  0.5502  1.0693  0.6055
  910MOL0     O25443   6.772   1.756   4.871 -0.7105 -0.6732  0.5904
  910MOL0     C25444   6.692   1.698   4.798 -0.4654 -1.3110 -0.2898
  910MOL0     O25445   6.559   1.710   4.800  0.1270  0.3020 -0.2737
  910MOL0     C25446   6.493   1.806   4.873  0.6480 -0.5788  0.0381
  910MOL0     C25447   6.476   1.787   5.012  0.5006  0.5191  1.3799
  910MOL0     C25448   6.407   1.871   5.091 -0.3037 -0.1141  0.4350
  910MOL0     C25449   6.358   1.985   5.041 -0.0803  0.2708 -0.3532
  910MOL0     O25450   6.286   2.066   5.126 -0.5018  0.2372  0.4970
  910MOL0     C25451   6.164   2.131   5.082  0.3968 -0.5121  0.4032
  910MOL0     C25452   6.036   2.055   5.107 -0.6365 -0.5508 -0.7600
  910MOL0     C25453   5.991   2.065   5.254  0.3538  0.3739  0.2960
  910MOL0     C25454   6.086   1.981   5.338  0.6475 -0.2964 -0.2240
  910MOL0     C25455   6.029   1.971   5.481  0.8872  0.6173  1.4547
  910MOL0     C25456   6.144   1.913   5.559 -0.2222 -0.9146  0.2248
  910MOL0     C25457   6.215   1.792   5.504 -0.0127  0.6941  0.0306
  910MOL0     C25458   6.113   1.673   5.480  0.5826  0.5385  0.1226
  910MOL0     N25459   6.189   1.559   5.438  1.0219  0.6151 -0.3821
  910MOL0     C25460   6.201   1.512   5.311  0.4407  0.0878 -0.0084
  910MOL0     C25461   6.258   1.388   5.323 -0.5191  0.4168 -0.6630
  910MOL0     C25462   6.286   1.306   5.200 -0.4649  0.8470  0.9429
  910MOL0     C25463   6.432   1.306   5.149  0.0525  0.3297 -0.4147
  910MOL0     C25464   6.459   1.404   5.029  0.0573  0.1192 -0.5824
  910MOL0     C25465   6.611   1.411   5.007 -0.1301  0.2900 -0.9825
  910MOL0     O25466   6.664   1.276   4.991  0.0728  0.1039  0.8134
  910MOL0     C25467   6.793   1.253   4.964  0.1354  0.2214  0.7372
  910MOL0     C25468   6.899   1.348   4.953 -0.1773  0.0793 -0.2711
  910MOL0     C25469   7.033   1.317   4.908 -0.4153  0.0320 -0.4956
  910MOL0     C25470   7.128   1.437   4.901  0.4116  0.0985  0.5697
  910MOL0     C25471   7.061   1.187   4.871  0.5110 -0.8179  0.6518
  910MOL0     C25472   7.192   1.141   4.822 -0.6556 -0.1112  0.4115
  910MOL0     O25473   7.217   1.004   4.834 -1.1348  0.3678  0.1375
  910MOL0     C25474   7.351   0.967   4.787 -0.8095 -0.3911  0.9007
  910MOL0     C25475   7.363   0.869   4.691 -0.3804 -0.1513  0.9280
  910MOL0     C25476   7.500   0.825   4.667  0.5560  0.2164 -0.1328
  910MOL0     C25477   7.607   0.896   4.722 -0.5245 -0.3994 -0.0410
  910MOL0     O25478   7.731   0.865   4.675 -0.2241  1.0436  0.9736
  910MOL0     C25479   7.844   0.946   4.683 -0.6248 -0.7060  0.5650
  910MOL0     C25480   7.952   0.876   4.764 -0.0579 -0.2815 -0.7238
  910MOL0     C25481   7.952   0.726   4.728 -0.0667 -0.1863 -0.2672
  910MOL0     C25482   8.075   0.666   4.793 -1.6351  0.3555  1.1796
  910MOL0     C25483   8.087   0.520   4.756  0.1335 -0.3645 -0.1370
  910MOL0     C25484   8.099   0.488   4.608  0.2326 -0.0386 -0.8733
  910MOL0     C25485   8.148   0.351   4.583 -0.1647 -0.2615  0.2932
  910MOL0     C25486   8.182   0.353   4.439 -0.2542 -0.9077  0.6412
  910MOL0    Cl25487   8.029   0.337   4.338 -0.1987  0.0790 -0.3417
  910MOL0     C25488   7.587   0.998   4.813  0.3358  0.0399 -0.6272
  910MOL0     C25489   7.456   1.033   4.844 -0.2106  0.6967  0.7182
  910MOL0     O25490   7.266   1.225   4.765  0.0699 -0.1111  0.0295
  910MOL0     C25491   6.947   1.090   4.885 -1.1812 -0.0858  0.3119
  910MOL0     C25492   6.815   1.122   4.926  0.2286  0.2338 -0.9408
  910MOL0     N25493   6.269   1.359   5.459  0.3596  0.0280  0.5815
  910MOL0     N25494   6.221   1.462   5.527  0.3101  0.1923 -0.4556
  910MOL0     C25495   6.373   2.007   4.899 -0.3729 -0.2060  0.3629
  910MOL0     C25496   6.444   1.920   4.813  0.0734 -0.0057  0.6416
  910MOL0     C25497   6.744   1.595   4.706  0.0731 -0.0937  1.0118
  910MOL0     C25498   6.654   1.495   4.662 -0.5099  0.6462 -0.1488
  910MOL0     C25499   6.697   1.385   4.580 -0.0479  0.6770  0.4377
  910MOL0     C25500   6.829   1.383   4.544  0.4872 -0.0850 -0.4331
  910MOL0     O25501   6.867   1.275   4.462 -0.1069 -0.0206 -0.5960
  910MOL0     C25502   7.003   1.215   4.480 -0.0665 -1.0258 -0.1542
  910MOL0     C25503   6.989   1.086   4.414  0.5989 -0.0729  0.0564
  910MOL0     C25504   7.126   1.011   4.423  0.1621  0.2327 -0.2071
  910MOL0     C25505   7.114   0.864   4.389  0.0552  0.5366  0.2128
  910MOL0     C25506   7.104   0.856   4.245  0.0623  0.1078  0.3031
  910MOL0     C25507   7.091   0.839   4.128 -0.3246  0.1157  1.2815
  910MOL0     C25508   6.915   1.478   4.578 -0.6363 -1.0828  1.0598
  910MOL0     C25509   6.879   1.581   4.669 -0.2198 -0.2798 -0.6632
  910MOL0     C25510   6.981   1.688   4.694 -0.5389  0.2753  0.5159
  910MOL0     H25511   6.523   1.704   5.064 -2.7505 -1.5000  1.3166
  910MOL0     H25512   6.403   1.857   5.199 -2.3256  0.4228  0.4745
  910MOL0     H25513   6.157   2.159   4.977  0.7463  1.0558  0.7750
  910MOL0     H25514   6.165   2.229   5.131 -1.0056 -1.3880  2.3221
  910MOL0     H25515   5.965   2.101   5.038 -0.8153  1.0881  0.4486
  910MOL0     H25516   6.053   1.948   5.090 -2.2467 -1.0313  0.4097
  910MOL0     H25517   5.986   2.169   5.290  1.0104  0.5740 -0.1705
  910MOL0     H25518   5.890   2.023   5.266 -0.0089  0.5344 -1.8148
  910MOL0     H25519   6.099   1.882   5.294 -1.4883 -1.0756  0.7085
  910MOL0     H25520   6.181   2.035   5.340  1.3455 -1.4517 -1.3472
  910MOL0     H25521   5.941   1.905   5.485 -0.3581  1.8545 -2.0290
  910MOL0     H25522   6.001   2.066   5.526 -0.6032  1.4049 -0.9691
  910MOL0     H25523   6.216   1.992   5.581 -0.0044 -0.9679 -0.2848
  910MOL0     H25524   6.104   1.890   5.658 -1.1586 -0.0357  0.0745
  910MOL0     H25525   6.297   1.760   5.570  0.3920  1.7269  0.0488
  910MOL0     H25526   6.261   1.818   5.409  1.1007 -1.7201 -0.1724
  910MOL0     H25527   6.067   1.654   5.578 -0.9214  3.2492  0.0395
  910MOL0     H25528   6.044   1.707   5.402  2.6817  1.1547 -1.5371
  910MOL0     H25529   6.178   1.569   5.221  0.6969 -1.1015 -0.8449
  910MOL0     H25530   6.214   1.330   5.121  1.6026  2.8780 -0.4504
  910MOL0     H25531   6.265   1.203   5.229 -1.8107  0.2670 -1.8015
  910MOL0     H25532   6.497   1.339   5.231  0.1228 -0.5593 -0.1041
  910MOL0     H25533   6.460   1.202   5.129 -0.3005 -1.0828  4.9435
  910MOL0     H25534   6.398   1.379   4.941 -0.1223  1.9168 -1.0261
  910MOL0     H25535   6.412   1.501   5.049  0.1768 -0.3584  2.4016
  910MOL0     H25536   6.630   1.473   4.919  0.4099 -1.0803 -1.8798
  910MOL0     H25537   6.654   1.456   5.097  0.6870 -1.3837 -0.4918
  910MOL0     H25538   6.875   1.452   4.974 -3.6199 -0.8786  1.2208
  910MOL0     H25539   7.147   1.462   4.796 -2.8596  2.0228  0.3119
  910MOL0     H25540   7.221   1.411   4.952 -0.7306  0.6618  3.0938
  910MOL0     H25541   7.097   1.538   4.930  2.2330  2.0015 -3.2346
  910MOL0     H25542   7.276   0.820   4.648 -0.9902  0.0952  1.8494
  910MOL0     H25543   7.516   0.736   4.607  0.6572 -0.3702  0.7392
  910MOL0     H25544   7.874   0.959   4.579 -2.5676  0.5221  0.1038
  910MOL0     H25545   7.824   1.048   4.717 -2.3351 -0.7864 -0.1307
  910MOL0     H25546   8.043   0.930   4.737 -0.1069 -0.0928 -0.5134
  910MOL0     H25547   7.933   0.897   4.870 -0.8575  0.7190 -1.0508
  910MOL0     H25548   7.958   0.706   4.620  0.3243 -1.5609 -0.0061
  910MOL0     H25549   7.861   0.697   4.782  0.3455  2.5388  2.1166
  910MOL0     H25550   8.066   0.674   4.902 -1.4188  1.4258  1.1363
  910MOL0     H25551   8.167   0.720   4.767  0.0004 -1.8355  2.0424
  910MOL0     H25552   8.181   0.481   4.797  1.1272  2.4591  0.4372
  910MOL0     H25553   8.001   0.466   4.797 -2.2447  1.8901 -1.8257
  910MOL0     H25554   8.173   0.565   4.585  1.4983 -0.1692  2.3078
  910MOL0     H25555   7.998   0.505   4.568 -0.4259 -0.9428  0.3586
  910MOL0     H25556   8.072   0.275   4.603  0.6313 -1.2294 -0.2971
  910MOL0     H25557   8.243   0.324   4.628 -1.0742  0.2470  2.6567
  910MOL0     H25558   8.238   0.261   4.417 -0.5249 -1.3145  1.5916
  910MOL0     H25559   8.242   0.441   4.415  0.8169 -0.9949  2.8003
  910MOL0     H25560   7.668   1.050   4.862 -1.6987  2.7045  0.1792
  910MOL0     H25561   7.440   1.100   4.928  1.7860  0.4125  1.3836
  910MOL0     H25562   6.967   0.990   4.850 -2.5345  0.1275 -1.1806
  910MOL0     H25563   6.731   1.056   4.940 -2.3453  3.7580  2.6412
  910MOL0     H25564   6.342   2.102   4.856  1.7848 -0.3290 -1.6362
  910MOL0     H25565   6.472   1.952   4.713  2.7479  1.8809  1.8826
  910MOL0     H25566   6.548   1.508   4.684 -0.3526  1.5559  0.1090
  910MOL0     H25567   6.632   1.300   4.562 -0.2439  0.6609  1.1929
  910MOL0     H25568   7.085   1.273   4.437 -1.1063  1.3998  0.8960
  910MOL0     H25569   7.007   1.200   4.589 -2.7332 -1.6527 -0.0695
  910MOL0     H25570   6.960   1.096   4.309 -0.0349 -2.9962 -0.1224
  910MOL0     H25571   6.908   1.036   4.469 -2.9017  0.9746 -3.6483
  910MOL0     H25572   7.198   1.041   4.347 -0.5779 -3.3625 -2.5955
  910MOL0     H25573   7.187   1.028   4.512  0.7292  1.5702 -0.8281
  910MOL0     H25574   7.032   0.818   4.445  0.7367 -1.4306 -0.2919
  910MOL0     H25575   7.211   0.819   4.412 -0.3379 -0.2900  0.3014
  910MOL0     H25576   7.088   0.818   4.023 -1.7276 -1.4263  1.5893
  910MOL0     H25577   7.021   1.478   4.556  0.3486  1.9010  4.7373
  910MOL0     H25578   7.006   1.706   4.799  2.0022  0.8792 -0.1155
  910MOL0     H25579   7.077   1.652   4.653 -0.8809 -2.9963  2.2360
  910MOL0     H25580   6.953   1.787   4.658  4.2022  2.5068  2.0723
  911MOL0     O25581   9.687   2.167  10.694 -0.1511  0.2505  1.0659
  911MOL0     C25582   9.606   2.098  10.634 -0.6294  0.1419 -0.1257
  911MOL0     O25583   9.479   2.122  10.641 -0.0806 -0.4871 -0.5055
  911MOL0     C25584   9.436   2.168  10.763  0.8186  0.1098 -1.4427
  911MOL0     C25585   9.371   2.291  10.776  0.1643 -0.3776  0.1666
  911MOL0     C25586   9.339   2.344  10.899  0.0480 -0.2413  0.8392
  911MOL0     C25587   9.349   2.268  11.021  0.1083 -0.7463 -0.3214
  911MOL0     O25588   9.310   2.325  11.147  0.0111  0.0555  0.8451
  911MOL0     C25589   9.296   2.251  11.264 -0.5984 -0.7755 -0.3638
  911MOL0     C25590   9.216   2.343  11.359  0.2597  0.1903 -0.5975
  911MOL0     C25591   9.229   2.282  11.499 -0.4067 -0.2178  0.2450
  911MOL0     C25592   9.118   2.184  11.544 -0.3645  0.2341  0.0030
  911MOL0     C25593   9.156   2.072  11.646  0.3341  0.3453  0.5476
  911MOL0     C25594   9.032   1.999  11.704  1.8190 -0.2004  0.7985
  911MOL0     C25595   9.073   1.862  11.762  0.4745 -0.2096 -0.2033
  911MOL0     C25596   8.954   1.779  11.814 -0.0625 -0.4331  0.2736
  911MOL0     N25597   8.886   1.729  11.700  0.0476  0.3376  0.7144
  911MOL0     C25598   8.930   1.639  11.600  0.0283  0.0213 -0.3117
  911MOL0     C25599   8.824   1.600  11.528 -0.2371  0.1610  0.4879
  911MOL0     C25600   8.828   1.507  11.418 -0.3588  0.8415  0.2662
  911MOL0     C25601   8.870   1.366  11.456  0.1491 -1.3629  0.3232
  911MOL0     C25602   8.749   1.278  11.483 -1.2025  0.2226  0.1307
  911MOL0     C25603   8.792   1.160  11.567  0.0936 -0.8804 -0.0277
  911MOL0     O25604   8.911   1.093  11.503 -0.2531  0.5883 -0.2618
  911MOL0     C25605   8.886   1.030  11.380 -0.4056 -0.2157 -0.6651
  911MOL0     C25606   9.001   1.029  11.293 -0.0720  0.1355  0.2176
  911MOL0     C25607   9.000   0.958  11.180  0.1693 -1.0744  0.3163
  911MOL0     C25608   9.119   0.960  11.092 -0.3299  0.4485 -0.8020
  911MOL0     C25609   8.873   0.893  11.136 -0.7859  0.0819 -0.9539
  911MOL0     C25610   8.856   0.839  10.996 -0.0884 -1.2396  0.5464
  911MOL0     O25611   8.892   0.906  10.879 -0.2853  0.0620 -0.7473
  911MOL0     C25612   8.887   1.042  10.889 -0.2128  0.3787 -0.4124
  911MOL0     C25613   8.981   1.112  10.809 -0.1003 -1.2765  0.3073
  911MOL0     C25614   8.979   1.257  10.795  0.4137 -0.1668 -0.4312
  911MOL0     C25615   8.896   1.336  10.878  0.7761  0.2209  0.2707
  911MOL0     O25616   8.919   1.469  10.875 -0.2934  0.0905  0.4013
  911MOL0     C25617   9.052   1.506  10.922 -0.6232 -0.3475 -1.8351
  911MOL0     C25618   9.022   1.652  10.963 -0.1511 -0.9899 -0.2052
  911MOL0     C25619   8.939   1.667  11.093  0.3117  0.2491  0.1856
  911MOL0     C25620   8.840   1.782  11.105  0.9219 -0.5038  0.5416
  911MOL0     C25621   8.800   1.826  11.249 -0.2614 -0.3698  0.1830
  911MOL0     C25622   8.787   1.972  11.263 -0.3024 -0.2660 -0.6122
  911MOL0     C25623   8.730   2.000  11.407 -0.7847 -0.0181  0.1762
  911MOL0     C25624   8.647   2.134  11.403 -0.4310  0.0650 -0.3237
  911MOL0    Cl25625   8.508   2.109  11.296 -0.4132 -0.0486  0.0499
  911MOL0     C25626   8.808   1.269  10.962  0.3403 -0.5184  0.7038
  911MOL0     C25627   8.803   1.124  10.971  0.6501 -0.0504  0.3192
  911MOL0     O25628   8.806   0.725  10.998  0.3443  0.2939 -0.6637
  911MOL0     C25629   8.766   0.887  11.223  0.6764  0.6113 -0.9404
  911MOL0     C25630   8.782   0.938  11.354  0.3218 -0.3974  0.7341
  911MOL0     N25631   8.717   1.656  11.590  1.0924 -0.8069 -0.0298
  911MOL0     N25632   8.749   1.740  11.681  0.0168 -1.0218  0.2040
  911MOL0     C25633   9.411   2.148  11.002  0.1210 -0.3872 -0.9080
  911MOL0     C25634   9.459   2.098  10.884  0.2600 -0.2488  0.5511
  911MOL0     C25635   9.658   1.998  10.536 -1.0561 -0.0825  0.1877
  911MOL0     C25636   9.570   1.926  10.460 -1.4311 -0.0688  0.0318
  911MOL0     C25637   9.604   1.828  10.367 -0.0281  0.3579  0.6533
  911MOL0     C25638   9.738   1.803  10.347 -0.3038  1.0972  0.2679
  911MOL0     O25639   9.769   1.702  10.254 -0.0568 -0.0709  0.1781
  911MOL0     C25640   9.903   1.689  10.206 -0.1583 -0.0040 -0.4857
  911MOL0     C25641   9.930   1.789  10.090 -0.5169  1.1462 -0.0478
  911MOL0     C25642   9.900   1.742   9.951  0.0911  0.2332 -0.2621
  911MOL0     C25643   9.991   1.629   9.903  0.8500 -0.2419 -0.8064
  911MOL0     C25644   9.980   1.610   9.759 -0.3645 -1.2937  0.2694
  911MOL0     C25645   9.954   1.594   9.641 -0.8933 -0.1311 -0.7700
  911MOL0     C25646   9.835   1.879  10.413 -0.2617  0.5203  0.5878
  911MOL0     C25647   9.799   1.978  10.503 -0.3829 -0.7992 -0.0587
  911MOL0     C25648   9.915   2.044  10.573 -0.6575 -0.0826  0.4715
  911MOL0     H25649   9.347   2.347  10.687 -0.8518 -1.9212 -0.5725
  911MOL0     H25650   9.295   2.443  10.903  1.5489  0.5468 -0.8202
  911MOL0     H25651   9.401   2.241  11.295  0.2422  1.2369 -2.2346
  911MOL0     H25652   9.256   2.151  11.246 -0.9519 -0.5014 -1.1679
  911MOL0     H25653   9.252   2.446  11.363 -1.4389  0.7979  1.3560
  911MOL0     H25654   9.109   2.349  11.337  0.4706  4.1533 -1.3105
  911MOL0     H25655   9.321   2.225  11.514 -2.1880 -3.0489  1.1701
  911MOL0     H25656   9.245   2.362  11.571 -0.4393 -1.3821  1.5715
  911MOL0     H25657   9.033   2.228  11.597 -0.0925 -1.4041  1.9206
  911MOL0     H25658   9.079   2.130  11.457 -1.3775  3.0776 -1.4390
  911MOL0     H25659   9.209   2.113  11.732 -1.2578  0.4255  1.5391
  911MOL0     H25660   9.217   2.004  11.586  1.2243  0.3904  1.3890
  911MOL0     H25661   8.982   2.066  11.773  0.9846  0.0656 -0.0473
  911MOL0     H25662   8.966   1.983  11.618  2.0177  5.7628 -0.8925
  911MOL0     H25663   9.148   1.892  11.835 -1.0643  0.2100  1.2775
  911MOL0     H25664   9.141   1.819  11.688 -0.0689 -0.8645 -0.3324
  911MOL0     H25665   8.991   1.689  11.864 -2.9545 -1.9362 -0.1277
  911MOL0     H25666   8.891   1.829  11.887  1.0641 -1.0530  1.7251
  911MOL0     H25667   9.030   1.600  11.587 -0.3267 -1.0338 -0.0679
  911MOL0     H25668   8.893   1.545  11.338 -1.6169  0.4175 -1.0133
  911MOL0     H25669   8.727   1.509  11.374 -0.1731  1.2375 -0.1525
  911MOL0     H25670   8.929   1.319  11.377  0.2103  0.8479 -1.0158
  911MOL0     H25671   8.937   1.370  11.542  4.0176  4.4152 -2.3088
  911MOL0     H25672   8.675   1.338  11.537 -1.2632 -0.0137  0.3132
  911MOL0     H25673   8.703   1.240  11.391 -2.9005  0.4814  0.8265
  911MOL0     H25674   8.813   1.205  11.664 -2.0265  2.2327 -0.8954
  911MOL0     H25675   8.716   1.083  11.581  1.6789 -2.3071  1.2695
  911MOL0     H25676   9.085   1.087  11.330 -0.3017 -0.2706  1.4416
  911MOL0     H25677   9.129   1.063  11.058 -3.0544  0.8685 -0.5388
  911MOL0     H25678   9.110   0.878  11.020 -0.5648 -1.5643  1.4051
  911MOL0     H25679   9.209   0.942  11.152 -0.7686 -1.9061 -0.7657
  911MOL0     H25680   9.043   1.053  10.742  0.8206 -0.6450  0.5842
  911MOL0     H25681   9.048   1.303  10.725  3.3520  1.4556  3.1862
  911MOL0     H25682   9.078   1.443  11.007  0.7650  3.1215  0.5411
  911MOL0     H25683   9.134   1.499  10.849  2.7671 -2.0439  1.7878
  911MOL0     H25684   9.120   1.696  10.981 -1.1916  1.8482 -0.9578
  911MOL0     H25685   8.976   1.697  10.875  2.0123  0.4503 -0.6540
  911MOL0     H25686   9.020   1.685  11.165 -0.0463  0.9358  0.4220
  911MOL0     H25687   8.886   1.572  11.109 -2.0745  0.8123 -3.3060
  911MOL0     H25688   8.748   1.755  11.053  1.2089 -0.1916 -0.1344
  911MOL0     H25689   8.889   1.857  11.042  1.2311 -2.3263 -1.4978
  911MOL0     H25690   8.711   1.763  11.261  1.1011 -2.4755 -0.3614
  911MOL0     H25691   8.865   1.784  11.326 -0.5619 -5.5664 -2.0371
  911MOL0     H25692   8.725   2.009  11.181 -0.8803 -0.3930 -0.2357
  911MOL0     H25693   8.885   2.020  11.250  1.0852 -1.5811  3.4140
  911MOL0     H25694   8.819   2.012  11.469 -2.4625  0.6305  2.5897
  911MOL0     H25695   8.671   1.917  11.446  0.4423 -1.8269 -1.6039
  911MOL0     H25696   8.708   2.217  11.366  2.6630 -2.8767 -2.4433
  911MOL0     H25697   8.610   2.155  11.504 -1.4471 -2.9236  0.0252
  911MOL0     H25698   8.745   1.339  11.017 -1.4568  0.8249 -2.7190
  911MOL0     H25699   8.723   1.098  11.039  0.6800  1.8225  1.1323
  911MOL0     H25700   8.673   0.851  11.183  1.2176  0.5561 -2.1833
  911MOL0     H25701   8.698   0.926  11.422 -2.7228 -0.3393 -2.7459
  911MOL0     H25702   9.434   2.079  11.083 -4.1602 -2.4438 -1.1882
  911MOL0     H25703   9.515   2.006  10.872 -2.1201 -1.5447 -1.9266
  911MOL0     H25704   9.466   1.952  10.480 -1.1604  0.0661  1.3838
  911MOL0     H25705   9.525   1.776  10.314 -1.9707  2.8594  0.9202
  911MOL0     H25706   9.974   1.690  10.289 -0.5265 -2.5273 -0.0579
  911MOL0     H25707   9.917   1.586  10.171 -0.8630  0.7364 -3.2298
  911MOL0     H25708  10.038   1.808  10.093  0.1341 -1.9196 -0.4157
  911MOL0     H25709   9.867   1.877  10.101 -1.1570  1.4229 -4.3601
  911MOL0     H25710   9.796   1.708   9.942 -0.2147  1.2621 -0.7436
  911MOL0     H25711   9.905   1.822   9.877  0.0421 -0.7262 -1.3344
  911MOL0     H25712   9.957   1.538   9.952 -1.5098  0.5647 -0.8086
  911MOL0     H25713  10.097   1.647   9.921  0.4695 -0.0016  1.4026
  911MOL0     H25714   9.946   1.578   9.535  1.4517 -2.6112 -0.6943
  911MOL0     H25715   9.941   1.864  10.400 -0.2584  1.7521 -1.1967
  911MOL0     H25716  10.009   2.011  10.527 -1.4973  1.3897 -2.5229
  911MOL0     H25717   9.913   2.154  10.579 -0.7111 -0.0870  0.5315
  911MOL0     H25718   9.922   1.996  10.671 -2.0660 -1.5154 -0.0962
  912MOL0     O25719   0.835   7.440   5.501 -0.0994  0.0864  0.5382
  912MOL0     C25720   0.873   7.505   5.403 -0.1593  0.6812 -0.0961
  912MOL0     O25721   0.964   7.462   5.305  0.1060 -0.5348  0.0831
  912MOL0     C25722   1.057   7.384   5.353 -0.2963 -0.4613 -1.0715
  912MOL0     C25723   1.018   7.256   5.383 -0.2224  0.6418  0.1517
  912MOL0     C25724   1.119   7.160   5.401  0.4202 -0.3000 -0.3896
  912MOL0     C25725   1.256   7.192   5.405 -0.6920 -0.6307 -1.3218
  912MOL0     O25726   1.357   7.099   5.421  0.2337  0.3180 -0.0669
  912MOL0     C25727   1.346   6.971   5.362 -0.9124 -0.1921 -0.2495
  912MOL0     C25728   1.475   6.925   5.329 -0.6882 -0.1345 -0.2814
  912MOL0     C25729   1.460   6.799   5.244 -0.2394  0.8478 -0.1451
  912MOL0     C25730   1.585   6.802   5.141  0.9595  0.1727 -0.4338
  912MOL0     C25731   1.569   6.684   5.048 -0.3325 -0.3513 -1.1694
  912MOL0     C25732   1.686   6.684   4.944 -0.8652 -0.3784 -1.3367
  912MOL0     C25733   1.707   6.549   4.880 -0.1341  0.7883 -0.8675
  912MOL0     C25734   1.593   6.543   4.776  1.0259 -0.1011  0.1445
  912MOL0     N25735   1.585   6.417   4.696 -0.1790  0.1124  0.0990
  912MOL0     C25736   1.548   6.289   4.741  0.1017 -0.3244  0.5087
  912MOL0     C25737   1.613   6.209   4.652  0.5344  0.8208 -0.2872
  912MOL0     C25738   1.630   6.071   4.675 -0.6316  0.1518  0.3206
  912MOL0     C25739   1.759   6.048   4.754  0.2737  0.3525  0.1978
  912MOL0     C25740   1.798   5.900   4.771 -0.1751  0.6704 -0.1421
  912MOL0     C25741   1.857   5.842   4.639  0.6009  0.1962 -0.4843
  912MOL0     O25742   1.761   5.796   4.540 -0.4228 -0.7440 -1.0703
  912MOL0     C25743   1.818   5.702   4.459 -0.5984  1.0682  0.7672
  912MOL0     C25744   1.946   5.714   4.384 -0.1035 -0.0636 -0.0148
  912MOL0     C25745   1.994   5.606   4.307  0.5914 -0.8814 -0.3242
  912MOL0     C25746   2.126   5.631   4.233  0.3873  0.4198  0.5015
  912MOL0     C25747   1.926   5.482   4.300 -0.3295 -0.2634  0.5383
  912MOL0     C25748   1.971   5.356   4.244  0.0712  1.3206  1.0069
  912MOL0     O25749   1.874   5.287   4.172  0.3881  0.3965  0.7396
  912MOL0     C25750   1.896   5.174   4.096  0.6844  0.5238  0.6797
  912MOL0     C25751   2.010   5.092   4.112 -0.1873  0.2310  0.6149
  912MOL0     C25752   2.033   4.991   4.015  0.3182  0.6225 -0.2490
  912MOL0     C25753   1.934   4.946   3.921  0.5328  0.0789 -0.3625
  912MOL0     O25754   1.962   4.852   3.833 -0.2311  0.5247 -0.0865
  912MOL0     C25755   1.903   4.853   3.700  0.1462 -0.3340  0.7707
  912MOL0     C25756   1.996   4.797   3.593 -1.0064  0.1385  0.2057
  912MOL0     C25757   1.966   4.853   3.453 -0.0903  0.0711 -0.1372
  912MOL0     C25758   2.048   4.772   3.352  0.8182 -0.0844 -0.5032
  912MOL0     C25759   2.053   4.836   3.221  0.3086 -0.2499  0.2467
  912MOL0     C25760   2.099   4.744   3.101 -0.3460 -0.5705 -0.1548
  912MOL0     C25761   2.250   4.734   3.092 -0.0925 -0.2663  0.7479
  912MOL0     C25762   2.305   4.825   2.980 -0.6081 -0.0773  0.3412
  912MOL0    Cl25763   2.485   4.814   2.961  0.1461 -0.0775  0.0840
  912MOL0     C25764   1.804   5.017   3.926 -0.4473 -0.5318  0.3418
  912MOL0     C25765   1.799   5.135   4.011 -0.3064  0.0644  0.2138
  912MOL0     O25766   2.096   5.335   4.238  0.4480  0.2059  0.6637
  912MOL0     C25767   1.799   5.486   4.353  1.1003  0.4298  0.1476
  912MOL0     C25768   1.743   5.591   4.424  0.2685  0.1821 -0.0877
  912MOL0     N25769   1.646   6.273   4.537  0.1851 -0.2201 -0.2400
  912MOL0     N25770   1.633   6.401   4.567 -0.4574 -0.3651 -0.3303
  912MOL0     C25771   1.295   7.320   5.381  1.3708  0.6691 -0.2148
  912MOL0     C25772   1.192   7.419   5.353 -0.4548  0.4873  0.7606
  912MOL0     C25773   0.801   7.630   5.377  0.3307 -0.6005 -0.3171
  912MOL0     C25774   0.761   7.702   5.485 -0.2524  1.1060  1.0486
  912MOL0     C25775   0.683   7.820   5.471  0.1941  0.7142  0.5593
  912MOL0     C25776   0.665   7.872   5.340  0.5203 -0.4922  0.3786
  912MOL0     O25777   0.582   7.978   5.312  0.2675  0.8183  0.1542
  912MOL0     C25778   0.522   8.049   5.415 -0.4480 -0.3780  0.4111
  912MOL0     C25779   0.608   8.156   5.489  0.3373  0.7070 -0.5344
  912MOL0     C25780   0.539   8.207   5.618 -0.1825  0.2204  0.0478
  912MOL0     C25781   0.608   8.326   5.679 -0.1877 -0.6757 -0.1385
  912MOL0     C25782   0.561   8.335   5.819 -0.4157  0.7386  0.2191
  912MOL0     C25783   0.549   8.358   5.938  0.6237 -0.6320  0.3287
  912MOL0     C25784   0.717   7.804   5.225 -1.1428 -0.0288  0.0658
  912MOL0     C25785   0.782   7.682   5.242  0.3342  0.4797 -0.4611
  912MOL0     C25786   0.840   7.633   5.113  0.0229  0.7283  0.8753
  912MOL0     H25787   0.917   7.220   5.397 -0.8088  1.8192 -0.8095
  912MOL0     H25788   1.077   7.061   5.417 -1.7264  0.7362  0.7668
  912MOL0     H25789   1.285   6.969   5.272  0.2922 -0.3364 -1.0945
  912MOL0     H25790   1.312   6.902   5.440 -0.8514  1.3454  1.1904
  912MOL0     H25791   1.517   7.008   5.271 -0.0138 -1.9496 -2.5305
  912MOL0     H25792   1.540   6.912   5.416  1.3719  1.2632 -1.5191
  912MOL0     H25793   1.468   6.711   5.307  1.9414  1.3521  0.3496
  912MOL0     H25794   1.366   6.811   5.188 -1.2310 -1.1304  1.0021
  912MOL0     H25795   1.587   6.894   5.083  1.3689  0.0887 -0.5555
  912MOL0     H25796   1.670   6.793   5.210  0.1106 -2.8526  0.3679
  912MOL0     H25797   1.470   6.691   5.003 -2.1351 -1.6703  2.1765
  912MOL0     H25798   1.572   6.593   5.108  0.9177  0.0137 -0.6456
  912MOL0     H25799   1.668   6.766   4.874 -0.1557  0.3650 -0.6664
  912MOL0     H25800   1.785   6.704   4.986 -0.2723 -2.6700 -1.5226
  912MOL0     H25801   1.702   6.468   4.953 -1.1240  1.0958 -0.5832
  912MOL0     H25802   1.804   6.542   4.828 -0.0728  2.4271 -1.0212
  912MOL0     H25803   1.489   6.547   4.809  0.5026  0.8021 -1.5041
  912MOL0     H25804   1.599   6.628   4.707  0.2961 -1.8244 -2.1687
  912MOL0     H25805   1.498   6.254   4.830 -1.9290 -1.2896 -0.9375
  912MOL0     H25806   1.636   6.010   4.584 -3.2592  0.4424 -0.1089
  912MOL0     H25807   1.538   6.036   4.721 -1.0941 -0.4080 -0.9813
  912MOL0     H25808   1.840   6.111   4.716  0.6257 -1.5317 -2.4332
  912MOL0     H25809   1.742   6.078   4.858  4.7582 -0.2646  1.2868
  912MOL0     H25810   1.862   5.886   4.859 -0.2516  0.8284 -0.0599
  912MOL0     H25811   1.709   5.846   4.807 -1.0883  2.6333  0.7498
  912MOL0     H25812   1.915   5.923   4.593  2.5587 -0.4112  0.7754
  912MOL0     H25813   1.917   5.757   4.672 -1.8584 -2.4304 -2.3846
  912MOL0     H25814   2.012   5.799   4.395  1.3866 -0.3179 -4.7045
  912MOL0     H25815   2.207   5.582   4.288 -0.3645 -1.8549 -0.2814
  912MOL0     H25816   2.152   5.737   4.229 -0.0224  0.4848 -1.6974
  912MOL0     H25817   2.109   5.587   4.134 -1.2564 -1.9158  1.7159
  912MOL0     H25818   2.076   5.100   4.198  1.8513  0.0483 -0.8370
  912MOL0     H25819   2.123   4.930   4.011 -1.2279 -1.8441  0.4363
  912MOL0     H25820   1.819   4.783   3.696 -0.1407  0.0667 -1.6290
  912MOL0     H25821   1.873   4.956   3.678  0.1904 -0.8530 -1.9659
  912MOL0     H25822   2.101   4.814   3.617 -0.3116 -0.0626 -2.3682
  912MOL0     H25823   1.975   4.690   3.600 -0.1695 -0.0779 -0.3635
  912MOL0     H25824   2.013   4.952   3.446  2.7195 -0.6938  4.2880
  912MOL0     H25825   1.859   4.852   3.432 -0.0333  1.5565 -0.6373
  912MOL0     H25826   2.005   4.674   3.331  2.3597 -0.8972 -0.0257
  912MOL0     H25827   2.151   4.766   3.388  1.3547 -1.8888 -2.1221
  912MOL0     H25828   1.950   4.869   3.204  0.2355 -1.5381 -2.2751
  912MOL0     H25829   2.119   4.922   3.229 -0.3829  0.2615  0.5161
  912MOL0     H25830   2.065   4.794   3.010 -1.3288 -1.8446 -0.5168
  912MOL0     H25831   2.053   4.645   3.094 -1.8263  0.2149 -3.1614
  912MOL0     H25832   2.262   4.627   3.073 -2.7955 -0.4918 -0.0747
  912MOL0     H25833   2.296   4.770   3.185  0.3603  1.4075 -0.0937
  912MOL0     H25834   2.278   4.928   3.005  0.3144 -0.1194  1.6017
  912MOL0     H25835   2.244   4.807   2.891 -0.8466  1.1935  0.2287
  912MOL0     H25836   1.728   5.001   3.850 -0.7064 -0.6886  0.6324
  912MOL0     H25837   1.717   5.206   4.009 -1.6610 -1.4586 -0.7839
  912MOL0     H25838   1.746   5.391   4.355  0.9399  0.5225  0.2658
  912MOL0     H25839   1.647   5.575   4.473  0.9911 -0.8232  1.0555
  912MOL0     H25840   1.397   7.357   5.379  1.6511 -0.1112 -0.5709
  912MOL0     H25841   1.226   7.519   5.329  1.9953 -0.2665  0.7856
  912MOL0     H25842   0.790   7.661   5.581 -1.1529 -1.5149  0.2730
  912MOL0     H25843   0.655   7.883   5.555 -4.5257  0.1759 -0.3413
  912MOL0     H25844   0.432   8.086   5.364 -0.3822 -2.0012 -0.9761
  912MOL0     H25845   0.484   7.983   5.493  3.0407 -2.5676  0.4484
  912MOL0     H25846   0.628   8.240   5.421  0.6888  1.1191  0.0655
  912MOL0     H25847   0.699   8.108   5.525 -0.7678 -0.6737  0.5236
  912MOL0     H25848   0.431   8.220   5.616 -0.4241 -0.3183  3.5308
  912MOL0     H25849   0.545   8.127   5.692 -0.6735  0.2559  0.1257
  912MOL0     H25850   0.586   8.417   5.622  0.7472  0.2589  0.9464
  912MOL0     H25851   0.717   8.322   5.684 -0.0072  2.0602 -0.2440
  912MOL0     H25852   0.536   8.394   6.039 -0.0328 -0.8940  0.3414
  912MOL0     H25853   0.694   7.855   5.133 -2.1671  0.3475  0.5163
  912MOL0     H25854   0.783   7.675   5.029  1.0584  0.4760  0.0184
  912MOL0     H25855   0.946   7.662   5.116  0.3439 -0.4818  3.4539
  912MOL0     H25856   0.838   7.524   5.104 -4.1384  0.7655 -0.7540
  913MOL0     O25857   9.323   9.411   7.158 -0.1677  0.3030 -0.9591
  913MOL0     C25858   9.252   9.408   7.257 -0.5096  0.0436 -0.1826
  913MOL0     O25859   9.292   9.342   7.373  0.1277 -0.5047 -0.3414
  913MOL0     C25860   9.409   9.272   7.396  0.2665 -0.0413 -0.2170
  913MOL0     C25861   9.407   9.242   7.535  0.3179 -0.0956  0.3885
  913MOL0     C25862   9.516   9.169   7.587  0.1066  0.5276 -0.2814
  913MOL0     C25863   9.612   9.109   7.499  0.6140 -0.6405 -0.1004
  913MOL0     O25864   9.711   9.034   7.557  0.8878 -0.1630  0.5554
  913MOL0     C25865   9.687   8.902   7.592  0.1072 -0.3764  0.1262
  913MOL0     C25866   9.623   8.821   7.485 -0.0507 -0.4825 -0.5675
  913MOL0     C25867   9.727   8.761   7.383  0.0703 -0.8270 -0.3480
  913MOL0     C25868   9.667   8.717   7.252  0.3618 -0.0140 -0.9780
  913MOL0     C25869   9.765   8.639   7.171 -0.4588 -0.0676  0.8933
  913MOL0     C25870   9.884   8.721   7.115  0.3911  0.0356 -0.5021
  913MOL0     C25871   9.981   8.646   7.034  0.2717  0.0558  1.3046
  913MOL0     C25872   9.927   8.617   6.895  0.1077  0.0544  0.1152
  913MOL0     N25873  10.022   8.528   6.816  0.5509 -0.2279 -0.3848
  913MOL0     C25874  10.157   8.556   6.794  0.1780  0.5049  0.6234
  913MOL0     C25875  10.194   8.451   6.718  0.2296  0.1605  0.6110
  913MOL0     C25876  10.345   8.420   6.677  1.0857  0.6907 -0.1136
  913MOL0     C25877  10.353   8.278   6.617  0.3460 -0.0668 -0.0333
  913MOL0     C25878  10.485   8.215   6.595  0.4374  0.6270 -0.1785
  913MOL0     C25879  10.574   8.282   6.485 -0.3589  0.3036  0.3953
  913MOL0     O25880  10.502   8.290   6.366  0.5970 -0.9998 -0.3263
  913MOL0     C25881  10.545   8.388   6.285 -0.0706 -0.0109 -0.7463
  913MOL0     C25882  10.473   8.394   6.169  0.2019  0.6288  1.0748
  913MOL0     C25883  10.500   8.484   6.065  0.1677  1.1563  0.0184
  913MOL0     C25884  10.397   8.477   5.952  0.6421 -0.0138 -1.3840
  913MOL0     C25885  10.601   8.584   6.073 -0.4905  0.6896  0.2874
  913MOL0     C25886  10.626   8.687   5.973 -0.0189 -0.3215 -0.4118
  913MOL0     O25887  10.562   8.802   6.016  0.2325  0.4787 -1.0610
  913MOL0     C25888  10.574   8.912   5.937  0.1944  0.2955 -0.1608
  913MOL0     C25889  10.512   8.924   5.810  0.3797  0.9247 -0.5211
  913MOL0     C25890  10.514   9.044   5.730 -0.4445 -0.1583 -0.3123
  913MOL0     C25891  10.590   9.147   5.777 -0.6501 -0.0243 -0.8686
  913MOL0     O25892  10.601   9.267   5.715 -0.0408 -0.3488  0.5880
  913MOL0     C25893  10.527   9.380   5.765  0.2476 -0.0113 -0.2036
  913MOL0     C25894  10.465   9.476   5.661  0.3522  0.0903 -0.0302
  913MOL0     C25895  10.361   9.565   5.721  0.2646 -0.0680 -0.6337
  913MOL0     C25896  10.284   9.637   5.613 -0.6218 -0.3621  0.1666
  913MOL0     C25897  10.172   9.728   5.666 -0.1379  0.4422  0.3805
  913MOL0     C25898  10.050   9.649   5.706  0.4026  0.1741 -0.4985
  913MOL0     C25899   9.926   9.734   5.721  0.2475  0.4432 -0.1098
  913MOL0     C25900   9.799   9.640   5.720  0.3295 -0.2522  0.1672
  913MOL0    Cl25901   9.810   9.491   5.811 -0.0599 -0.0168  0.0643
  913MOL0     C25902  10.662   9.136   5.898  0.3784 -0.0638  0.4312
  913MOL0     C25903  10.662   9.018   5.976  0.5544  0.1128  0.2005
  913MOL0     O25904  10.716   8.675   5.888 -0.8994 -0.9001 -0.2160
  913MOL0     C25905  10.689   8.567   6.182  0.1432 -0.1584  0.0407
  913MOL0     C25906  10.656   8.482   6.290  0.2322  0.5183 -0.1876
  913MOL0     N25907  10.091   8.370   6.694  0.5471  0.5551 -0.0492
  913MOL0     N25908   9.987   8.418   6.749 -0.1822  0.2036 -0.0617
  913MOL0     C25909   9.599   9.134   7.359 -0.1764 -0.1599  0.1076
  913MOL0     C25910   9.507   9.226   7.307  0.2486 -0.1832 -0.3006
  913MOL0     C25911   9.114   9.464   7.249 -0.6903  0.0946  0.1856
  913MOL0     C25912   9.070   9.526   7.374  0.5205  0.3804 -1.2999
  913MOL0     C25913   8.943   9.589   7.380  0.1229  0.0146 -0.1402
  913MOL0     C25914   8.856   9.576   7.269  0.6382  0.0530  0.4146
  913MOL0     O25915   8.740   9.640   7.263  0.2852  0.6808 -0.6218
  913MOL0     C25916   8.618   9.580   7.242  0.5203  0.7102  0.3501
  913MOL0     C25917   8.513   9.684   7.194 -0.0550  0.2905  0.1197
  913MOL0     C25918   8.500   9.807   7.284  0.9324  0.1612  1.0548
  913MOL0     C25919   8.556   9.940   7.225 -0.0201 -0.8841 -0.5131
  913MOL0     C25920   8.486  10.059   7.302 -0.2262 -0.1388 -0.4263
  913MOL0     C25921   8.433  10.150   7.363 -0.0866  0.5459  0.0241
  913MOL0     C25922   8.900   9.522   7.150 -0.5398 -0.6546  0.2523
  913MOL0     C25923   9.025   9.459   7.142  0.4556  0.1167 -0.0640
  913MOL0     C25924   9.076   9.397   7.015  0.6759 -0.0303  0.3832
  913MOL0     H25925   9.326   9.290   7.590  0.1582  1.6663 -1.2666
  913MOL0     H25926   9.515   9.179   7.695 -0.5972 -0.4070 -0.1887
  913MOL0     H25927   9.625   8.895   7.681 -0.5855 -2.9348 -0.4687
  913MOL0     H25928   9.780   8.854   7.622  1.2513  1.0789 -0.9366
  913MOL0     H25929   9.585   8.734   7.539  0.3112  1.3909  2.9705
  913MOL0     H25930   9.542   8.875   7.435  1.2022 -0.2605 -2.4510
  913MOL0     H25931   9.801   8.839   7.361  0.0935 -1.2489 -1.8536
  913MOL0     H25932   9.770   8.676   7.436  0.2425 -0.6226 -0.1570
  913MOL0     H25933   9.590   8.645   7.282 -0.5805  1.1011 -0.6739
  913MOL0     H25934   9.632   8.801   7.192 -2.0697  0.1338  0.4923
  913MOL0     H25935   9.701   8.591   7.097 -0.2337 -0.6646  1.0806
  913MOL0     H25936   9.809   8.556   7.227 -3.7667 -0.8835  2.5081
  913MOL0     H25937   9.843   8.795   7.046  0.6191 -1.0664 -1.8648
  913MOL0     H25938   9.932   8.769   7.201 -0.5442  2.4885 -1.2480
  913MOL0     H25939  10.012   8.560   7.094  0.3969  1.4518  3.3747
  913MOL0     H25940  10.076   8.699   7.020  1.0331 -1.8260 -1.3427
  913MOL0     H25941   9.828   8.575   6.916 -1.2975  2.5348 -1.0333
  913MOL0     H25942   9.912   8.706   6.833  3.0276  0.6329  0.1162
  913MOL0     H25943  10.219   8.633   6.840 -2.6624  1.6903  2.7808
  913MOL0     H25944  10.409   8.440   6.763  0.9263  0.9968 -0.0639
  913MOL0     H25945  10.372   8.490   6.597 -2.2234  0.6138 -1.4679
  913MOL0     H25946  10.283   8.214   6.670 -1.1931  1.1913 -0.4766
  913MOL0     H25947  10.311   8.279   6.516  0.1246 -1.6078  0.0327
  913MOL0     H25948  10.535   8.224   6.692 -1.3291  0.2275  0.8093
  913MOL0     H25949  10.479   8.108   6.572  0.0323  0.2396  1.5834
  913MOL0     H25950  10.616   8.373   6.529  0.6810  1.4729 -2.6956
  913MOL0     H25951  10.662   8.223   6.460  0.2019  0.8357  1.0854
  913MOL0     H25952  10.390   8.323   6.169  1.4476 -1.0465 -2.2726
  913MOL0     H25953  10.423   8.542   5.868 -0.5080  0.5924 -1.2954
  913MOL0     H25954  10.302   8.517   5.990  1.1598  1.8936 -1.9914
  913MOL0     H25955  10.379   8.373   5.922  2.2507 -1.5465  2.3410
  913MOL0     H25956  10.442   8.847   5.780  2.2796 -0.6315 -1.1979
  913MOL0     H25957  10.452   9.057   5.642  1.2435  0.8252 -1.4103
  913MOL0     H25958  10.447   9.340   5.828  1.2740  0.7660  1.6798
  913MOL0     H25959  10.604   9.428   5.826  0.6500 -1.7312  0.7222
  913MOL0     H25960  10.553   9.527   5.619  1.3809 -0.6578  1.1498
  913MOL0     H25961  10.419   9.414   5.583  0.7097  0.0995 -0.2506
  913MOL0     H25962  10.407   9.633   5.792  0.5378 -1.7574  0.8820
  913MOL0     H25963  10.286   9.513   5.781 -1.0678  2.4200 -0.0083
  913MOL0     H25964  10.234   9.571   5.542  2.8490 -0.0387 -2.8580
  913MOL0     H25965  10.360   9.682   5.548  0.5970 -2.5841 -0.0383
  913MOL0     H25966  10.206   9.774   5.759  0.3200  1.4673 -0.2789
  913MOL0     H25967  10.152   9.808   5.595 -1.5313  0.6144  0.9452
  913MOL0     H25968  10.067   9.600   5.802  1.9308  1.1571 -0.2392
  913MOL0     H25969  10.030   9.574   5.628  1.0520 -1.9703  1.2831
  913MOL0     H25970   9.915   9.800   5.634 -2.6735  1.2736  0.7927
  913MOL0     H25971   9.936   9.785   5.817 -0.9633  0.1303  0.1947
  913MOL0     H25972   9.767   9.627   5.616  1.7589 -0.3659 -0.2678
  913MOL0     H25973   9.727   9.709   5.766  2.1634  3.4920 -2.1195
  913MOL0     H25974  10.716   9.225   5.932 -0.9750  1.2327 -0.6762
  913MOL0     H25975  10.710   9.021   6.073  3.5279  0.4289 -1.1871
  913MOL0     H25976  10.778   8.628   6.197  1.7204 -2.3413  0.0076
  913MOL0     H25977  10.723   8.495   6.375  0.9617 -0.9226 -0.5188
  913MOL0     H25978   9.684   9.097   7.302  0.9006 -0.4654  1.8400
  913MOL0     H25979   9.504   9.262   7.205  2.6419  0.5156 -0.1913
  913MOL0     H25980   9.131   9.525   7.464 -1.9261 -1.2232  0.4563
  913MOL0     H25981   8.903   9.647   7.462 -2.5114 -1.5471 -0.2146
  913MOL0     H25982   8.634   9.494   7.176  3.6695  2.2098 -1.0815
  913MOL0     H25983   8.582   9.537   7.336 -1.6058  0.3907 -0.5675
  913MOL0     H25984   8.416   9.635   7.197  0.4176 -0.6610  0.4014
  913MOL0     H25985   8.554   9.719   7.098  1.4440  2.3730  1.4395
  913MOL0     H25986   8.393   9.821   7.301  0.6907  0.8459 -0.8747
  913MOL0     H25987   8.568   9.796   7.370  1.9492  0.7025  0.3413
  913MOL0     H25988   8.538   9.944   7.118  1.0615 -3.1642 -0.8551
  913MOL0     H25989   8.664   9.949   7.242 -0.1209 -0.3968 -0.1117
  913MOL0     H25990   8.378  10.221   7.421 -2.2846 -2.4564  1.8696
  913MOL0     H25991   8.831   9.532   7.067 -1.8917 -3.6194  0.8752
  913MOL0     H25992   9.161   9.457   6.983  0.3192  0.1594 -0.2277
  913MOL0     H25993   9.108   9.294   7.031  2.2814  0.3056 -0.5399
  913MOL0     H25994   9.003   9.396   6.933 -2.6073 -1.1396  3.0537
  914MOL0     O25995   6.348   0.044   4.183 -0.6463  0.6023 -0.3963
  914MOL0     C25996   6.331  -0.025   4.283  0.4762  0.1073  1.2750
  914MOL0     O25997   6.273  -0.148   4.276 -0.5547 -0.2844  0.6284
  914MOL0     C25998   6.194  -0.187   4.163  0.2348  0.2383  1.0279
  914MOL0     C25999   6.090  -0.108   4.108 -0.9223  0.2281 -0.6372
  914MOL0     C26000   6.017  -0.151   3.994 -0.6011  0.2973  0.0073
  914MOL0     C26001   6.051  -0.279   3.939 -0.6679  0.4624  0.0949
  914MOL0     O26002   5.991  -0.347   3.832 -1.0848 -0.0088 -0.7521
  914MOL0     C26003   5.922  -0.270   3.729  0.3469  0.1166 -0.7018
  914MOL0     C26004   5.886  -0.361   3.618 -0.2949  0.2073 -0.9687
  914MOL0     C26005   5.791  -0.467   3.667  0.6041 -0.0388  0.1287
  914MOL0     C26006   5.639  -0.427   3.684 -0.7350 -0.0622 -0.8181
  914MOL0     C26007   5.561  -0.519   3.783  0.5371  0.4540 -0.3932
  914MOL0     C26008   5.557  -0.655   3.715  0.0015 -0.1910 -0.1443
  914MOL0     C26009   5.454  -0.665   3.597  0.1695  0.0247  0.9760
  914MOL0     C26010   5.395  -0.812   3.586  0.5204 -0.2456 -0.6172
  914MOL0     N26011   5.296  -0.810   3.481 -0.6724  0.3882  0.0250
  914MOL0     C26012   5.322  -0.833   3.351  1.3072  0.2505  0.5440
  914MOL0     C26013   5.192  -0.807   3.295  1.0034 -0.3976  0.0935
  914MOL0     C26014   5.170  -0.840   3.146  0.1624 -0.5870 -0.2257
  914MOL0     C26015   5.256  -0.742   3.063 -0.4757  0.7796  1.1840
  914MOL0     C26016   5.179  -0.605   3.030  0.4571  0.1517  0.6970
  914MOL0     C26017   5.135  -0.522   3.149 -0.1080 -0.6675 -0.2619
  914MOL0     O26018   5.039  -0.417   3.104  0.4406  0.3051  0.0665
  914MOL0     C26019   4.920  -0.401   3.169  0.8785 -0.2568 -0.3718
  914MOL0     C26020   4.812  -0.334   3.108  0.8513 -0.2104 -0.4597
  914MOL0     C26021   4.694  -0.291   3.190 -0.0880  0.7162 -0.5771
  914MOL0     C26022   4.580  -0.242   3.111 -0.6186 -0.3565  0.0151
  914MOL0     C26023   4.696  -0.303   3.329  0.6323 -0.4972 -0.1915
  914MOL0     C26024   4.592  -0.241   3.415  0.1923  0.8806 -0.0104
  914MOL0     O26025   4.578  -0.301   3.544 -0.4467 -0.3407  0.3898
  914MOL0     C26026   4.476  -0.265   3.626 -0.2342  0.7624  0.2176
  914MOL0     C26027   4.477  -0.130   3.661  0.0542 -0.1876 -0.0765
  914MOL0     C26028   4.377  -0.086   3.752  0.4557  0.3492 -0.3140
  914MOL0     C26029   4.285  -0.174   3.810  0.1792 -0.5094  0.5582
  914MOL0     O26030   4.177  -0.132   3.886  0.7478  0.5525  0.6641
  914MOL0     C26031   4.166   0.008   3.928  0.1674  0.0467 -0.6746
  914MOL0     C26032   4.063   0.017   4.044 -0.8697 -0.2888 -1.0539
  914MOL0     C26033   4.115  -0.072   4.166 -0.4849  0.0436 -0.0794
  914MOL0     C26034   4.033  -0.056   4.298  0.0953  0.3517 -0.6554
  914MOL0     C26035   3.893  -0.111   4.292 -1.0736 -0.2243  0.6430
  914MOL0     C26036   3.845  -0.115   4.437 -0.1913  0.0892  0.9212
  914MOL0     C26037   3.714  -0.187   4.454  0.0815 -0.3296 -0.6841
  914MOL0     C26038   3.699  -0.203   4.606  0.0787 -0.6097  0.9444
  914MOL0    Cl26039   3.601  -0.067   4.660 -0.0084  0.4365  0.3661
  914MOL0     C26040   4.288  -0.318   3.767  0.1682 -0.4051 -0.1995
  914MOL0     C26041   4.391  -0.361   3.678  0.0696 -0.5256  0.0092
  914MOL0     O26042   4.515  -0.157   3.371 -0.0396 -0.5106 -0.5441
  914MOL0     C26043   4.808  -0.375   3.389  1.2809 -0.3462  0.1920
  914MOL0     C26044   4.909  -0.417   3.310  0.8520 -0.2771 -0.2220
  914MOL0     N26045   5.106  -0.762   3.395 -0.4878  0.2218 -0.4384
  914MOL0     N26046   5.175  -0.758   3.507  1.3724 -0.1700  0.2116
  914MOL0     C26047   6.160  -0.354   3.991  0.2514  0.1136  0.0250
  914MOL0     C26048   6.235  -0.305   4.100 -1.4618  0.1534  1.2063
  914MOL0     C26049   6.412   0.017   4.401  0.4733  0.2829 -0.6873
  914MOL0     C26050   6.453   0.149   4.404  0.3914  0.1309  0.2911
  914MOL0     C26051   6.503   0.199   4.521 -0.2873  0.3974 -0.0361
  914MOL0     C26052   6.507   0.113   4.626  0.1377  0.5969  0.6641
  914MOL0     O26053   6.535   0.181   4.743  0.1500  0.3855 -0.5046
  914MOL0     C26054   6.504   0.134   4.877  0.4018 -0.2072 -0.3505
  914MOL0     C26055   6.512   0.270   4.949 -1.0632 -0.6315 -0.6932
  914MOL0     C26056   6.656   0.323   4.957  0.8359 -0.1697 -0.5530
  914MOL0     C26057   6.662   0.447   5.047  0.4682 -0.3648  0.7312
  914MOL0     C26058   6.621   0.422   5.186  0.2923  0.6432  0.2993
  914MOL0     C26059   6.591   0.427   5.306 -0.2480 -0.4764  0.7997
  914MOL0     C26060   6.474  -0.025   4.630  0.5474 -0.1049 -0.0656
  914MOL0     C26061   6.426  -0.073   4.513  0.1848 -0.4603  1.4441
  914MOL0     C26062   6.391  -0.220   4.514 -0.3265 -0.4776  0.3998
  914MOL0     H26063   6.069  -0.009   4.148 -0.3625  0.8473 -1.8264
  914MOL0     H26064   5.929  -0.099   3.957 -3.0778 -0.1385  4.5574
  914MOL0     H26065   5.987  -0.189   3.696  0.1400 -0.2013 -1.9553
  914MOL0     H26066   5.832  -0.222   3.767 -0.7283 -0.1452 -2.7811
  914MOL0     H26067   5.851  -0.289   3.543 -1.8700 -0.7668 -1.2227
  914MOL0     H26068   5.980  -0.411   3.593 -0.6565 -2.2522  2.0469
  914MOL0     H26069   5.788  -0.549   3.594 -3.3601 -1.6306  1.7823
  914MOL0     H26070   5.819  -0.508   3.764 -2.3825 -1.1965  0.6269
  914MOL0     H26071   5.630  -0.320   3.708  0.6623  0.5508 -2.8060
  914MOL0     H26072   5.599  -0.435   3.583 -0.0247 -4.3794 -0.9366
  914MOL0     H26073   5.463  -0.476   3.806  1.0469  1.5303 -0.1303
  914MOL0     H26074   5.613  -0.525   3.879  4.2366 -1.7755 -2.3334
  914MOL0     H26075   5.659  -0.671   3.680  0.3084  2.2817 -0.5374
  914MOL0     H26076   5.540  -0.731   3.793 -3.6132  1.1561  0.5788
  914MOL0     H26077   5.495  -0.634   3.500 -2.1800 -0.0066 -0.1133
  914MOL0     H26078   5.371  -0.594   3.609 -0.3240  0.3668 -3.0676
  914MOL0     H26079   5.476  -0.883   3.567  0.5738 -0.5561  0.6666
  914MOL0     H26080   5.339  -0.835   3.677 -1.3857 -1.1451 -1.9427
  914MOL0     H26081   5.415  -0.868   3.307  0.5367 -1.4119  0.1871
  914MOL0     H26082   5.064  -0.838   3.119  0.2199 -0.3358 -0.4349
  914MOL0     H26083   5.208  -0.943   3.137  0.9187 -0.3387  0.0283
  914MOL0     H26084   5.350  -0.719   3.112  0.4030 -0.3302  0.0734
  914MOL0     H26085   5.275  -0.790   2.967  1.5054  1.3587  1.2527
  914MOL0     H26086   5.229  -0.541   2.958  1.7423 -0.6367  0.8616
  914MOL0     H26087   5.087  -0.642   2.984  0.6094 -0.3629  0.7958
  914MOL0     H26088   5.092  -0.590   3.223 -2.4410 -0.7275 -1.5722
  914MOL0     H26089   5.228  -0.476   3.183  0.5980  0.8794 -3.8014
  914MOL0     H26090   4.820  -0.309   3.003 -2.0807  1.3996 -0.4230
  914MOL0     H26091   4.542  -0.143   3.136 -1.1285  0.2731 -2.9183
  914MOL0     H26092   4.504  -0.321   3.105 -0.5580 -0.2973 -2.1983
  914MOL0     H26093   4.610  -0.236   3.006  1.3285  0.4225  0.5786
  914MOL0     H26094   4.548  -0.057   3.625  0.1753  0.3082  1.1168
  914MOL0     H26095   4.378   0.016   3.789 -0.4141 -0.2641  1.4932
  914MOL0     H26096   4.255   0.059   3.965 -0.5395 -1.4449  3.5665
  914MOL0     H26097   4.132   0.070   3.845 -0.8273  0.5797  0.1185
  914MOL0     H26098   4.070   0.121   4.077  1.5769 -0.9415  0.8539
  914MOL0     H26099   3.969  -0.025   4.007 -0.8974 -3.8318  2.3609
  914MOL0     H26100   4.217  -0.055   4.201 -0.1859 -4.6635  2.0737
  914MOL0     H26101   4.112  -0.174   4.127 -0.8309 -1.0318  2.5591
  914MOL0     H26102   4.033   0.051   4.316  2.0095  0.3073 -0.2328
  914MOL0     H26103   4.088  -0.095   4.384 -0.3783 -0.1283 -0.5612
  914MOL0     H26104   3.830  -0.042   4.235 -2.1735 -0.6070  1.3462
  914MOL0     H26105   3.907  -0.209   4.245 -0.1039 -1.1016  2.6540
  914MOL0     H26106   3.837  -0.016   4.482 -1.6647 -0.4576  1.9512
  914MOL0     H26107   3.922  -0.179   4.482 -1.1052 -1.3814  0.4638
  914MOL0     H26108   3.705  -0.285   4.407 -2.8383 -0.6633  0.3432
  914MOL0     H26109   3.638  -0.129   4.402  1.6968  1.2029 -1.4507
  914MOL0     H26110   3.791  -0.210   4.665 -0.0431 -2.2904  0.9674
  914MOL0     H26111   3.646  -0.297   4.620 -1.3408  0.4702  3.7040
  914MOL0     H26112   4.230  -0.401   3.806 -0.1329  0.1607  0.5690
  914MOL0     H26113   4.412  -0.466   3.661  0.2048 -1.0501  2.9338
  914MOL0     H26114   4.793  -0.393   3.495 -1.3428 -0.3551 -0.1150
  914MOL0     H26115   4.990  -0.466   3.363  1.7657  3.3761  2.1612
  914MOL0     H26116   6.188  -0.448   3.944  0.2792  0.6589 -1.0884
  914MOL0     H26117   6.324  -0.350   4.143 -0.8225 -1.1888 -1.3397
  914MOL0     H26118   6.440   0.216   4.320  1.6546  1.9003  1.4403
  914MOL0     H26119   6.529   0.304   4.530  0.7149  0.1900 -0.3862
  914MOL0     H26120   6.399   0.104   4.878  0.4617 -0.4219  0.2984
  914MOL0     H26121   6.574   0.061   4.920  1.6920 -0.4934 -2.7489
  914MOL0     H26122   6.473   0.246   5.048 -1.0336  1.2834 -0.1730
  914MOL0     H26123   6.460   0.357   4.907 -1.4095 -0.4045  0.1865
  914MOL0     H26124   6.724   0.254   5.006  2.4789  2.3036  0.8708
  914MOL0     H26125   6.709   0.351   4.866  2.5828 -1.1982  0.1071
  914MOL0     H26126   6.608   0.536   5.015  1.1074 -0.3085 -0.2539
  914MOL0     H26127   6.767   0.469   5.065  0.0349 -0.2690  3.5384
  914MOL0     H26128   6.566   0.414   5.409 -0.4714 -2.9164  0.4982
  914MOL0     H26129   6.475  -0.082   4.723  1.1368 -1.9852 -1.1707
  914MOL0     H26130   6.434  -0.267   4.424 -0.8400 -1.3274  0.5907
  914MOL0     H26131   6.431  -0.269   4.603 -2.2270 -2.4551  0.2335
  914MOL0     H26132   6.282  -0.215   4.517 -0.2965  2.1944  0.1443
  915MOL0     O26133   3.272   0.686   8.407 -0.8763  0.1776 -0.6784
  915MOL0     C26134   3.182   0.609   8.426 -0.9518  0.6472  0.3805
  915MOL0     O26135   3.052   0.623   8.385 -0.5851 -0.1546 -0.9481
  915MOL0     C26136   3.030   0.716   8.284  0.3420  0.6174  0.2358
  915MOL0     C26137   2.930   0.810   8.302  0.2571 -1.3388 -0.1542
  915MOL0     C26138   2.895   0.889   8.187  0.1157  0.2473 -0.4957
  915MOL0     C26139   2.961   0.875   8.063 -0.7106 -0.5663 -0.9135
  915MOL0     O26140   2.921   0.926   7.946 -0.1405 -0.0037 -0.4010
  915MOL0     C26141   2.889   1.068   7.940  0.5987 -0.1073 -0.2655
  915MOL0     C26142   2.746   1.110   7.936  0.8412  0.4278  0.1048
  915MOL0     C26143   2.718   1.244   7.858 -0.9224  0.1748 -0.2349
  915MOL0     C26144   2.735   1.365   7.959  0.3341  0.0892  0.1021
  915MOL0     C26145   2.729   1.498   7.878  0.4961 -0.1786  0.7173
  915MOL0     C26146   2.680   1.613   7.973 -0.1288 -0.0475  0.7078
  915MOL0     C26147   2.630   1.738   7.888 -1.3056  0.2236 -0.3312
  915MOL0     C26148   2.746   1.806   7.819 -0.2329 -0.7977  0.0718
  915MOL0     N26149   2.699   1.912   7.731 -0.4667 -0.5596  0.1784
  915MOL0     C26150   2.617   2.009   7.771 -0.7151 -0.1314 -0.4082
  915MOL0     C26151   2.588   2.076   7.652  0.2634  0.7840 -0.5399
  915MOL0     C26152   2.507   2.205   7.651  0.0426 -0.1683 -0.4894
  915MOL0     C26153   2.353   2.182   7.634 -0.2328 -0.1250 -0.3931
  915MOL0     C26154   2.285   2.159   7.766  0.5374 -0.2854 -0.1744
  915MOL0     C26155   2.125   2.161   7.756  1.1263 -0.1720 -0.1663
  915MOL0     O26156   2.067   2.185   7.886 -0.3754 -0.4473 -0.1959
  915MOL0     C26157   2.063   2.086   7.984  0.9402  0.3932 -0.1875
  915MOL0     C26158   1.998   2.119   8.097 -0.1492  0.1888 -0.2234
  915MOL0     C26159   1.980   2.030   8.198 -0.9108 -0.3316  0.0887
  915MOL0     C26160   1.907   2.084   8.311  0.4782 -0.0181  0.8708
  915MOL0     C26161   2.023   1.893   8.191  0.5845 -0.2842 -0.7981
  915MOL0     C26162   2.027   1.792   8.305 -0.1353 -0.5715  0.3702
  915MOL0     O26163   1.973   1.833   8.433  0.3526 -0.1673  0.6478
  915MOL0     C26164   2.016   1.767   8.548  0.1279  0.2035  0.8925
  915MOL0     C26165   2.064   1.831   8.656 -0.3594 -0.2299  0.4204
  915MOL0     C26166   2.117   1.758   8.771  1.1867  0.1832  0.8116
  915MOL0     C26167   2.105   1.615   8.768  1.1626  0.6763 -0.6505
  915MOL0     O26168   2.136   1.560   8.889  0.4498 -0.2268 -0.0028
  915MOL0     C26169   2.131   1.411   8.916  0.1229  0.0772  0.7942
  915MOL0     C26170   2.169   1.383   9.062  0.0406 -0.5223 -0.5773
  915MOL0     C26171   2.197   1.237   9.096 -0.1930  0.4024  0.5692
  915MOL0     C26172   2.347   1.211   9.058 -1.1501 -0.3525  0.7728
  915MOL0     C26173   2.394   1.068   9.115 -0.1843 -0.0175  0.5211
  915MOL0     C26174   2.305   0.949   9.071 -0.0944  0.1740  0.1264
  915MOL0     C26175   2.354   0.815   9.122  0.6496  0.2473  0.2371
  915MOL0     C26176   2.279   0.685   9.087 -0.3899 -0.0254 -0.9134
  915MOL0    Cl26177   2.118   0.672   9.166 -0.2549 -0.5532  0.1429
  915MOL0     C26178   2.045   1.550   8.665 -0.6843 -0.1640  0.0817
  915MOL0     C26179   1.998   1.630   8.558  0.6362  0.8160  0.4387
  915MOL0     O26180   2.076   1.680   8.282  0.6947 -0.0531 -0.2904
  915MOL0     C26181   2.082   1.860   8.072 -1.0034  0.0741 -0.2407
  915MOL0     C26182   2.104   1.957   7.972 -0.3545  0.1901  0.0728
  915MOL0     N26183   2.640   2.011   7.541 -0.5109  0.0170  1.0509
  915MOL0     N26184   2.705   1.913   7.594 -0.2026 -0.2600  0.1157
  915MOL0     C26185   3.074   0.789   8.061  0.0364 -1.1841 -0.2431
  915MOL0     C26186   3.104   0.705   8.167 -0.6441 -0.2985  1.3491
  915MOL0     C26187   3.211   0.484   8.501 -1.2301  0.1693 -0.1539
  915MOL0     C26188   3.102   0.413   8.553  0.8661  0.3185  0.2984
  915MOL0     C26189   3.114   0.300   8.637 -0.3334  0.6476 -0.5260
  915MOL0     C26190   3.238   0.257   8.679 -0.6286  0.4947 -0.7564
  915MOL0     O26191   3.249   0.172   8.779  0.0811  0.1147 -0.5196
  915MOL0     C26192   3.354   0.075   8.778  0.8218  0.3195  0.2775
  915MOL0     C26193   3.333  -0.019   8.886 -0.3860 -0.3600 -0.6882
  915MOL0     C26194   3.414  -0.153   8.885  0.1939  0.0446  0.2756
  915MOL0     C26195   3.416  -0.214   9.026 -0.3145  0.1854  0.4591
  915MOL0     C26196   3.280  -0.276   9.056  0.1708  0.1297  0.4430
  915MOL0     C26197   3.170  -0.316   9.064  0.0815 -0.1248  0.1067
  915MOL0     C26198   3.348   0.311   8.617  0.0449 -0.3773  0.4993
  915MOL0     C26199   3.336   0.424   8.526  0.7418  1.2650  0.0968
  915MOL0     C26200   3.459   0.471   8.453  0.0174  0.2645 -0.5317
  915MOL0     H26201   2.889   0.815   8.402 -0.7569 -1.2256 -0.5573
  915MOL0     H26202   2.805   0.949   8.186 -2.3824 -3.1431  1.4077
  915MOL0     H26203   2.945   1.100   7.852 -1.8023  0.2423 -1.7646
  915MOL0     H26204   2.930   1.116   8.030  2.8937  2.7016 -2.5869
  915MOL0     H26205   2.689   1.031   7.886  1.8293 -0.0398 -0.3132
  915MOL0     H26206   2.687   1.131   8.026 -1.3024 -1.1108 -0.8544
  915MOL0     H26207   2.795   1.259   7.782 -0.5831  5.0280  0.7040
  915MOL0     H26208   2.614   1.249   7.824 -2.2243 -0.9998  3.1112
  915MOL0     H26209   2.654   1.363   8.033  0.1166  1.5000 -0.0608
  915MOL0     H26210   2.828   1.365   8.017 -0.6172  2.5289  1.8307
  915MOL0     H26211   2.663   1.480   7.793  0.3757  2.1943  0.2502
  915MOL0     H26212   2.833   1.517   7.849  1.6683 -1.3402  3.7299
  915MOL0     H26213   2.598   1.576   8.035  1.3757 -0.7569  2.3608
  915MOL0     H26214   2.755   1.653   8.041 -0.5438 -1.1445  1.8504
  915MOL0     H26215   2.593   1.810   7.962 -1.2582  1.4178 -1.4306
  915MOL0     H26216   2.546   1.700   7.829 -3.0875  1.7038  1.1225
  915MOL0     H26217   2.812   1.850   7.895 -0.5599  3.0637 -1.6307
  915MOL0     H26218   2.796   1.724   7.768 -2.1607 -1.0423 -1.5584
  915MOL0     H26219   2.577   2.032   7.869 -0.1237 -2.2689  0.4007
  915MOL0     H26220   2.544   2.269   7.570 -3.2962 -0.4704 -2.4211
  915MOL0     H26221   2.522   2.254   7.747 -4.1735  1.6599 -0.5433
  915MOL0     H26222   2.313   2.275   7.594  1.6232  0.8550 -0.0698
  915MOL0     H26223   2.348   2.102   7.559  2.1418 -1.0693  0.3338
  915MOL0     H26224   2.320   2.060   7.797  0.5214  0.7017  3.3311
  915MOL0     H26225   2.299   2.236   7.842  2.3360  0.5088 -1.2501
  915MOL0     H26226   2.095   2.251   7.701 -0.0176 -0.0680  0.6014
  915MOL0     H26227   2.086   2.074   7.703  0.7212 -1.0199  1.4709
  915MOL0     H26228   1.961   2.221   8.103  1.5945  0.8927 -0.6634
  915MOL0     H26229   1.980   2.090   8.392  2.1575  3.0923 -0.6906
  915MOL0     H26230   1.815   2.032   8.340 -2.1881  2.3176 -2.5645
  915MOL0     H26231   1.866   2.181   8.281 -0.4618 -1.4422 -3.1103
  915MOL0     H26232   2.093   1.935   8.656 -0.6669 -0.1275  1.8709
  915MOL0     H26233   2.166   1.804   8.856 -0.3794  2.6966  0.4623
  915MOL0     H26234   2.033   1.363   8.910  1.1339 -2.1098  0.7657
  915MOL0     H26235   2.201   1.374   8.841 -0.8195  2.0619 -1.1625
  915MOL0     H26236   2.256   1.444   9.088  0.9815 -2.3838  0.9034
  915MOL0     H26237   2.086   1.419   9.125 -0.1986 -2.8292  0.5376
  915MOL0     H26238   2.125   1.177   9.040  3.1427  0.0101 -3.9137
  915MOL0     H26239   2.172   1.200   9.195 -1.8215  0.7731  0.3270
  915MOL0     H26240   2.415   1.294   9.077 -3.7405  2.5053 -1.3936
  915MOL0     H26241   2.348   1.203   8.949 -1.0652  0.2993  0.7212
  915MOL0     H26242   2.492   1.049   9.070 -1.2863  0.4414 -2.3280
  915MOL0     H26243   2.417   1.068   9.222 -0.1760 -2.9341  0.6089
  915MOL0     H26244   2.307   0.949   8.962 -0.1989 -1.6529  0.1018
  915MOL0     H26245   2.201   0.963   9.102 -0.8160 -4.7026  0.7102
  915MOL0     H26246   2.351   0.822   9.231 -2.2481  0.0459  0.2711
  915MOL0     H26247   2.456   0.800   9.086  0.5961  0.6215 -0.0783
  915MOL0     H26248   2.333   0.595   9.115 -1.5316 -0.4038  0.1528
  915MOL0     H26249   2.264   0.680   8.978 -4.4894 -2.4721 -0.4384
  915MOL0     H26250   2.035   1.442   8.669 -2.4007 -0.0714 -0.7115
  915MOL0     H26251   1.957   1.574   8.474  1.6173  2.7289 -1.4025
  915MOL0     H26252   2.088   1.753   8.057 -1.2471  0.1340 -0.8246
  915MOL0     H26253   2.154   1.924   7.882  0.2472 -0.7679  0.7398
  915MOL0     H26254   3.127   0.776   7.967 -1.5193  0.5036 -1.4192
  915MOL0     H26255   3.171   0.622   8.148 -0.9466  0.2424 -3.1471
  915MOL0     H26256   3.000   0.445   8.536  0.9339  0.9959  1.0991
  915MOL0     H26257   3.023   0.268   8.686 -1.4751  1.5415 -1.9594
  915MOL0     H26258   3.368   0.025   8.682 -0.4744  0.3871  0.0319
  915MOL0     H26259   3.442   0.138   8.794  0.6839  0.0360  2.5531
  915MOL0     H26260   3.227  -0.047   8.895 -0.7807  1.4769  1.2139
  915MOL0     H26261   3.361   0.029   8.980  2.4459 -0.4989 -1.3734
  915MOL0     H26262   3.383  -0.227   8.810 -2.5289 -0.1098  1.4153
  915MOL0     H26263   3.515  -0.135   8.847  0.0401 -1.5276 -1.0371
  915MOL0     H26264   3.442  -0.135   9.098 -0.7836 -0.8341  1.7926
  915MOL0     H26265   3.501  -0.283   9.023  0.8577  1.5191  1.3568
  915MOL0     H26266   3.066  -0.343   9.059 -0.1322  0.7774 -3.9162
  915MOL0     H26267   3.451   0.283   8.635  0.6870  2.6970  2.3877
  915MOL0     H26268   3.442   0.484   8.346  1.8397  1.2458 -0.7414
  915MOL0     H26269   3.492   0.564   8.499 -3.1565  0.6813  1.1966
  915MOL0     H26270   3.542   0.402   8.473  1.5030  1.5351 -1.9999
  916MOL0     O26271   7.139   6.215   5.433 -0.2620 -0.0462  0.1608
  916MOL0     C26272   7.029   6.166   5.423  0.4139 -0.3754 -0.3214
  916MOL0     O26273   6.970   6.091   5.518 -0.4513 -0.1697 -0.1333
  916MOL0     C26274   7.037   6.083   5.634  0.1687  0.0687 -0.4146
  916MOL0     C26275   7.021   6.184   5.738  0.1736 -0.4403  0.4820
  916MOL0     C26276   7.088   6.173   5.852 -0.4313 -0.1298 -0.4516
  916MOL0     C26277   7.169   6.058   5.883  0.1395 -1.1676  0.2135
  916MOL0     O26278   7.231   6.040   6.008 -0.6859  0.5204 -0.0279
  916MOL0     C26279   7.148   6.068   6.124  0.4602 -0.4653 -0.6823
  916MOL0     C26280   7.164   5.955   6.217 -1.2534 -0.2726  0.0189
  916MOL0     C26281   7.288   5.981   6.300 -0.1555  0.1547  0.9508
  916MOL0     C26282   7.312   5.864   6.388 -0.1394 -0.2954 -0.7449
  916MOL0     C26283   7.431   5.895   6.470  0.4661  0.0058 -0.1026
  916MOL0     C26284   7.447   5.807   6.598 -0.5951  0.6715 -0.2043
  916MOL0     C26285   7.601   5.822   6.647  0.3066  0.4338 -0.4956
  916MOL0     C26286   7.628   5.963   6.700 -0.0677 -0.7140 -0.1099
  916MOL0     N26287   7.754   5.977   6.779 -0.2438  0.0823 -0.2414
  916MOL0     C26288   7.881   6.000   6.738  0.0785 -1.0130 -0.0373
  916MOL0     C26289   7.963   6.015   6.850  1.0130  1.1596 -0.4197
  916MOL0     C26290   8.111   6.038   6.864 -0.1326 -0.1366  1.2885
  916MOL0     C26291   8.190   6.039   6.729  0.2731 -0.0329  0.0977
  916MOL0     C26292   8.342   6.063   6.765 -0.1760 -1.0765 -0.1477
  916MOL0     C26293   8.420   6.114   6.644 -0.0410  1.6140  0.0050
  916MOL0     O26294   8.522   6.210   6.688 -0.9061 -0.0261 -0.1939
  916MOL0     C26295   8.648   6.170   6.739 -0.0317  0.2175  0.1904
  916MOL0     C26296   8.759   6.257   6.768  0.0590  0.9738  1.6492
  916MOL0     C26297   8.892   6.214   6.788 -0.6409  0.8202 -0.1468
  916MOL0     C26298   8.991   6.326   6.820 -0.4814  0.3546 -1.0578
  916MOL0     C26299   8.923   6.077   6.784 -0.3330 -0.3544 -0.2118
  916MOL0     C26300   9.048   6.009   6.802  0.2337 -1.0676 -0.8387
  916MOL0     O26301   9.161   6.073   6.751  0.4246  0.1361 -0.3744
  916MOL0     C26302   9.277   6.016   6.787  0.3450  0.4118 -0.0579
  916MOL0     C26303   9.322   6.031   6.916  0.3112  0.0325 -0.4964
  916MOL0     C26304   9.447   5.983   6.951  0.1013  0.4240 -0.1574
  916MOL0     C26305   9.521   5.906   6.855 -0.0433  0.3043  0.0892
  916MOL0     O26306   9.645   5.851   6.860  0.1588 -0.2302 -0.0558
  916MOL0     C26307   9.689   5.827   6.991  0.3729  0.8587 -0.4829
  916MOL0     C26308   9.834   5.790   6.982 -0.6300  1.1817 -0.1319
  916MOL0     C26309   9.858   5.647   6.942  0.7662  0.9086 -0.9816
  916MOL0     C26310  10.010   5.602   6.945  0.2647  0.4154  0.9109
  916MOL0     C26311  10.084   5.646   6.819 -0.8849  0.3331  0.2974
  916MOL0     C26312  10.234   5.680   6.825 -0.3824  1.0557 -0.2697
  916MOL0     C26313  10.319   5.546   6.834  0.7312 -0.4375 -0.2535
  916MOL0     C26314  10.464   5.599   6.862 -0.4018 -0.6800 -0.4998
  916MOL0    Cl26315  10.575   5.461   6.879 -0.0620  0.3180  0.0421
  916MOL0     C26316   9.464   5.874   6.733 -0.0649 -0.1015 -0.2420
  916MOL0     C26317   9.353   5.944   6.692 -0.1902 -0.4217 -0.3351
  916MOL0     O26318   9.050   5.908   6.868  0.9672  0.0213  0.3520
  916MOL0     C26319   8.814   5.985   6.753  0.1475  0.9730  0.7711
  916MOL0     C26320   8.683   6.034   6.743 -0.6997  0.1858 -0.0083
  916MOL0     N26321   7.875   6.016   6.957  0.2404 -0.1720  0.4953
  916MOL0     N26322   7.757   5.995   6.915  0.4584  0.5449  0.4657
  916MOL0     C26323   7.185   5.964   5.784  0.9544  0.4873 -0.0199
  916MOL0     C26324   7.124   5.975   5.661  0.2913 -0.9491  0.1180
  916MOL0     C26325   6.956   6.188   5.298 -0.3689 -0.6309 -0.4079
  916MOL0     C26326   6.986   6.299   5.220 -0.4624  0.0981  0.4313
  916MOL0     C26327   6.927   6.324   5.091  0.1481  0.0145  0.2140
  916MOL0     C26328   6.832   6.239   5.048  0.0417 -0.2359  0.5543
  916MOL0     O26329   6.776   6.265   4.928  0.7727  0.5614  0.2870
  916MOL0     C26330   6.824   6.179   4.828  0.3538  0.0980 -0.4322
  916MOL0     C26331   6.705   6.126   4.759  0.3239 -0.2639  0.0428
  916MOL0     C26332   6.657   6.232   4.669 -0.5345 -0.0737  0.6593
  916MOL0     C26333   6.530   6.200   4.594 -0.3382 -0.4411 -0.7522
  916MOL0     C26334   6.568   6.102   4.490  0.1418 -0.9365 -0.8530
  916MOL0     C26335   6.596   6.020   4.406 -0.5230  0.2131 -0.0826
  916MOL0     C26336   6.783   6.138   5.130  0.1852  0.8000  0.6949
  916MOL0     C26337   6.847   6.118   5.259  0.2687 -0.2399  0.2785
  916MOL0     C26338   6.784   6.001   5.333  0.7478 -0.3273  0.0277
  916MOL0     H26339   6.956   6.263   5.701 -1.3834 -1.8162  0.1694
  916MOL0     H26340   7.070   6.251   5.925 -1.5443  0.1293 -0.9798
  916MOL0     H26341   7.041   6.065   6.103 -0.6430  3.4852  2.8173
  916MOL0     H26342   7.168   6.164   6.174 -0.2794 -0.3621 -0.5724
  916MOL0     H26343   7.077   5.943   6.282 -1.0348  1.1484  0.6087
  916MOL0     H26344   7.185   5.857   6.174 -1.0955 -0.9507  1.5831
  916MOL0     H26345   7.373   6.015   6.242  1.6026 -0.2744  3.1310
  916MOL0     H26346   7.262   6.071   6.356 -2.8375 -0.6452  1.1408
  916MOL0     H26347   7.227   5.847   6.456  0.2655  1.5290  0.3016
  916MOL0     H26348   7.331   5.773   6.331  0.4383  0.2058 -1.3614
  916MOL0     H26349   7.421   5.997   6.506  1.2140  0.7986 -2.0012
  916MOL0     H26350   7.525   5.893   6.414  1.3477 -3.1008  1.2416
  916MOL0     H26351   7.380   5.839   6.678  0.4325  0.9825  0.5608
  916MOL0     H26352   7.445   5.701   6.571  2.3934  0.6737 -0.7749
  916MOL0     H26353   7.677   5.800   6.571 -1.7104  1.3670 -2.9418
  916MOL0     H26354   7.610   5.747   6.726  0.1475 -0.4533 -1.3039
  916MOL0     H26355   7.637   6.031   6.614  1.3942  1.0384  1.3494
  916MOL0     H26356   7.544   5.998   6.760 -0.9497 -0.7572 -1.2747
  916MOL0     H26357   7.919   5.994   6.637 -0.7675  1.1017 -0.5395
  916MOL0     H26358   8.153   5.964   6.934  0.9478 -0.6566  0.1381
  916MOL0     H26359   8.114   6.132   6.920 -1.3168  0.1649  0.8718
  916MOL0     H26360   8.178   5.942   6.682  0.7817  0.6793 -1.5582
  916MOL0     H26361   8.140   6.108   6.661  0.6450  0.0147 -0.1314
  916MOL0     H26362   8.339   6.148   6.833  0.9331 -1.3616  0.2766
  916MOL0     H26363   8.390   5.979   6.816 -0.3761  0.4062  2.6481
  916MOL0     H26364   8.467   6.031   6.590 -1.4850  0.8107 -0.0735
  916MOL0     H26365   8.355   6.168   6.575  0.2086 -0.2817 -1.8097
  916MOL0     H26366   8.748   6.365   6.765 -0.9053  0.9377  3.0012
  916MOL0     H26367   9.014   6.381   6.728  0.8987 -0.6227 -1.3340
  916MOL0     H26368   9.079   6.290   6.874 -0.6713  1.0968 -0.2398
  916MOL0     H26369   8.947   6.395   6.893 -0.8992  2.4617 -3.1521
  916MOL0     H26370   9.270   6.101   6.981  1.4236  1.0071 -0.6169
  916MOL0     H26371   9.471   6.000   7.056  0.5116 -1.0229  0.0070
  916MOL0     H26372   9.679   5.915   7.055  3.2674 -0.8727  2.6945
  916MOL0     H26373   9.633   5.752   7.048  1.0782 -0.4787 -1.5004
  916MOL0     H26374   9.873   5.856   6.905 -1.7100  0.7312 -1.1067
  916MOL0     H26375   9.879   5.803   7.081 -0.8498  0.9844 -0.0038
  916MOL0     H26376   9.821   5.630   6.841  0.7695  1.5297 -1.0917
  916MOL0     H26377   9.809   5.580   7.013  0.6358  0.2338 -1.7020
  916MOL0     H26378  10.001   5.493   6.945 -1.3036  0.4994 -0.2016
  916MOL0     H26379  10.055   5.643   7.036  0.7391 -0.2153  0.9678
  916MOL0     H26380  10.084   5.560   6.751  1.1857 -0.2689  0.9644
  916MOL0     H26381  10.029   5.728   6.772  2.8806  2.3501 -0.9950
  916MOL0     H26382  10.259   5.741   6.913 -1.1270  3.1741 -1.4408
  916MOL0     H26383  10.268   5.741   6.740  0.1118 -0.7723 -1.4323
  916MOL0     H26384  10.305   5.500   6.735 -1.5881  1.3860 -0.8738
  916MOL0     H26385  10.268   5.488   6.911  1.8434  0.3966  1.1503
  916MOL0     H26386  10.471   5.675   6.940 -2.6467 -1.1762  0.2490
  916MOL0     H26387  10.494   5.649   6.770  2.8391  0.8121  1.2053
  916MOL0     H26388   9.514   5.822   6.653 -0.8614  0.8768 -1.4137
  916MOL0     H26389   9.309   5.932   6.594 -1.3800  0.1531  0.1017
  916MOL0     H26390   8.834   5.878   6.752  0.9225  1.0853  2.0540
  916MOL0     H26391   8.608   5.955   6.742  1.7868 -2.3401  0.4457
  916MOL0     H26392   7.254   5.880   5.794  2.0350  1.5149  1.6745
  916MOL0     H26393   7.137   5.894   5.589  0.8010 -0.4232 -0.3936
  916MOL0     H26394   7.064   6.370   5.247  0.2545 -0.0380 -1.2048
  916MOL0     H26395   6.952   6.420   5.045 -0.3580 -0.1828 -0.4946
  916MOL0     H26396   6.894   6.233   4.763  1.4073 -1.0496 -0.2896
  916MOL0     H26397   6.881   6.094   4.867  0.6630  0.5603  0.1451
  916MOL0     H26398   6.630   6.090   4.830  1.1229 -3.0690 -0.4200
  916MOL0     H26399   6.730   6.036   4.703 -1.4868 -1.2830  0.7868
  916MOL0     H26400   6.636   6.321   4.729 -3.1059 -0.2432  0.1334
  916MOL0     H26401   6.735   6.246   4.593 -0.4146 -1.7108  0.4364
  916MOL0     H26402   6.489   6.289   4.546  1.9506  0.4804 -1.1278
  916MOL0     H26403   6.467   6.152   4.669  1.2214 -0.0500  0.8895
  916MOL0     H26404   6.603   5.935   4.341 -1.1911 -0.5400  0.7937
  916MOL0     H26405   6.691   6.094   5.094  0.9338  0.9241 -1.5588
  916MOL0     H26406   6.707   5.958   5.268 -1.7433  4.0111 -0.2976
  916MOL0     H26407   6.853   5.927   5.373 -1.1115 -1.5599  1.1001
  916MOL0     H26408   6.728   6.042   5.418  4.0385  2.1739  1.2042
  917MOL0     O26409  11.336   9.000   5.492 -0.5151 -0.0703  0.1637
  917MOL0     C26410  11.455   8.978   5.488  0.0750  0.8785  0.5433
  917MOL0     O26411  11.506   8.870   5.545 -0.6767  0.2807  0.3299
  917MOL0     C26412  11.425   8.778   5.603  0.1609  0.1412 -0.5939
  917MOL0     C26413  11.411   8.773   5.743 -0.2171 -1.0140 -0.5588
  917MOL0     C26414  11.336   8.677   5.807 -0.3501  0.4187  0.3859
  917MOL0     C26415  11.266   8.576   5.728  0.5739 -0.8070 -0.7221
  917MOL0     O26416  11.170   8.496   5.786  0.6902 -0.0092 -0.0132
  917MOL0     C26417  11.115   8.519   5.912 -0.7144  0.3877 -0.2521
  917MOL0     C26418  10.976   8.451   5.926 -0.3943  0.0705  1.0105
  917MOL0     C26419  10.977   8.292   5.921  0.6969 -1.0362  0.6053
  917MOL0     C26420  10.838   8.238   5.934  0.3852 -0.2628 -0.0882
  917MOL0     C26421  10.842   8.092   5.925  0.9373  0.1617 -0.4474
  917MOL0     C26422  10.710   8.042   5.889  0.0067  1.2208 -0.3423
  917MOL0     C26423  10.598   8.064   5.985 -0.5053 -0.6025 -0.2626
  917MOL0     C26424  10.601   7.987   6.116 -0.8469  0.4517 -0.2373
  917MOL0     N26425  10.598   7.843   6.104 -0.2804 -0.8157  0.5959
  917MOL0     C26426  10.491   7.770   6.076  0.4078  0.1489  0.9364
  917MOL0     C26427  10.535   7.641   6.071 -0.2198 -0.7251 -0.1645
  917MOL0     C26428  10.444   7.530   6.067 -0.2146  0.4374  0.8259
  917MOL0     C26429  10.406   7.508   5.917  0.5239 -0.7501  0.2148
  917MOL0     C26430  10.325   7.386   5.880  0.9938 -0.5591 -0.6982
  917MOL0     C26431  10.185   7.359   5.938  0.5788 -0.2879 -0.1402
  917MOL0     O26432  10.093   7.465   5.910  0.0003 -0.1578 -0.1345
  917MOL0     C26433   9.964   7.434   5.945  0.4386 -0.3784 -0.2509
  917MOL0     C26434   9.912   7.488   6.065  0.0868 -0.7005  0.1043
  917MOL0     C26435   9.780   7.478   6.110 -0.6010  1.1538 -0.5745
  917MOL0     C26436   9.759   7.525   6.254 -0.0153  0.1064 -0.7770
  917MOL0     C26437   9.682   7.422   6.020 -0.8636 -0.9639  0.0901
  917MOL0     C26438   9.536   7.431   6.030  0.3589  0.3292  0.3617
  917MOL0     O26439   9.466   7.433   5.910 -0.4696  0.0387  0.0045
  917MOL0     C26440   9.329   7.428   5.916  0.2804  0.3638 -0.4350
  917MOL0     C26441   9.238   7.531   5.876  0.4226  0.1146  1.0615
  917MOL0     C26442   9.102   7.510   5.894 -0.8585  0.2578  0.4996
  917MOL0     C26443   9.044   7.390   5.948 -0.8769 -0.6417  0.0261
  917MOL0     O26444   8.910   7.384   5.946 -0.1394  0.1570  0.0906
  917MOL0     C26445   8.857   7.248   5.954  0.3336 -1.2141  0.5084
  917MOL0     C26446   8.885   7.168   5.831 -0.0604 -0.5415 -0.9985
  917MOL0     C26447   8.802   7.207   5.715  0.5733 -0.3541 -0.1089
  917MOL0     C26448   8.653   7.154   5.728  0.3105  0.0657 -0.1560
  917MOL0     C26449   8.585   7.134   5.587  0.6032 -0.1973 -0.4077
  917MOL0     C26450   8.592   7.261   5.505  0.9468 -0.2571 -0.8867
  917MOL0     C26451   8.538   7.223   5.361  0.3111 -0.1269 -0.4554
  917MOL0     C26452   8.577   7.336   5.262 -0.4974  1.0936 -0.1864
  917MOL0    Cl26453   8.761   7.314   5.239  0.1528  0.6475  0.2710
  917MOL0     C26454   9.139   7.289   5.987  0.6080 -0.2698  0.3111
  917MOL0     C26455   9.273   7.307   5.972 -0.0121  0.7839  0.1250
  917MOL0     O26456   9.487   7.442   6.140 -0.0706  0.5234  0.3696
  917MOL0     C26457   9.731   7.365   5.905 -0.0043  0.4857 -0.5509
  917MOL0     C26458   9.868   7.366   5.875 -0.0966 -1.1227 -0.5006
  917MOL0     N26459  10.666   7.641   6.099 -0.5154 -0.0596  0.0455
  917MOL0     N26460  10.706   7.759   6.108 -0.9618  0.1481  0.0786
  917MOL0     C26461  11.265   8.598   5.590 -0.4605 -1.2889 -0.2061
  917MOL0     C26462  11.345   8.692   5.529 -0.1251 -1.1190 -0.1408
  917MOL0     C26463  11.548   9.083   5.432 -0.3807 -0.4057  1.1095
  917MOL0     C26464  11.489   9.215   5.420 -1.1645 -0.9395  0.3143
  917MOL0     C26465  11.560   9.325   5.383 -0.1512 -0.7749  0.1290
  917MOL0     C26466  11.697   9.314   5.354  0.0433  0.1524 -0.6201
  917MOL0     O26467  11.785   9.414   5.325  0.3364  0.3973  0.2237
  917MOL0     C26468  11.734   9.549   5.297  0.2650 -0.1881 -0.5562
  917MOL0     C26469  11.681   9.553   5.160 -0.2817 -0.2570  1.0372
  917MOL0     C26470  11.751   9.466   5.065 -0.5187  0.2779  1.0802
  917MOL0     C26471  11.746   9.523   4.923 -0.4403  0.0560  0.4013
  917MOL0     C26472  11.814   9.653   4.917 -0.1145 -0.3069  0.1004
  917MOL0     C26473  11.854   9.767   4.911 -0.9578  0.3127 -0.4570
  917MOL0     C26474  11.757   9.184   5.371  0.5033 -0.2755  0.4893
  917MOL0     C26475  11.688   9.070   5.409  0.7641  0.5416 -0.3774
  917MOL0     C26476  11.747   8.943   5.444 -0.9791 -0.4275  0.1423
  917MOL0     H26477  11.476   8.839   5.800  0.7694 -2.1844 -0.2618
  917MOL0     H26478  11.343   8.685   5.915  1.8781  2.8156  0.1593
  917MOL0     H26479  11.102   8.624   5.938  0.1472  0.3178  0.5161
  917MOL0     H26480  11.181   8.468   5.983 -4.1946 -1.5510  1.8755
  917MOL0     H26481  10.927   8.488   6.016  2.1843  2.0109  1.7605
  917MOL0     H26482  10.908   8.477   5.844  1.8743 -2.9604 -2.1257
  917MOL0     H26483  11.018   8.250   5.829  0.0396 -0.6134  0.1105
  917MOL0     H26484  11.043   8.263   6.003  0.5095  1.8528  1.8997
  917MOL0     H26485  10.800   8.254   6.036  1.8670  0.7505  0.3426
  917MOL0     H26486  10.777   8.295   5.863  0.0854  0.2193  0.5467
  917MOL0     H26487  10.877   8.043   6.016 -1.6592  1.8167  1.6031
  917MOL0     H26488  10.916   8.053   5.855  1.4396  3.5932 -2.0192
  917MOL0     H26489  10.693   8.089   5.792  1.5027  1.8531 -0.3294
  917MOL0     H26490  10.711   7.934   5.874  1.2967  0.3601  4.3276
  917MOL0     H26491  10.500   8.044   5.940 -1.3773  0.2064  1.1775
  917MOL0     H26492  10.603   8.172   6.002  1.7483 -0.7547  0.2565
  917MOL0     H26493  10.689   8.023   6.169 -2.0260  1.9812  0.7874
  917MOL0     H26494  10.517   8.015   6.180  1.6038 -1.6673  4.3874
  917MOL0     H26495  10.386   7.800   6.069  0.3312 -0.4852 -1.6232
  917MOL0     H26496  10.348   7.545   6.118 -2.3330 -2.6496 -1.8573
  917MOL0     H26497  10.491   7.450   6.125 -2.8058 -0.6411  1.5512
  917MOL0     H26498  10.342   7.593   5.893 -1.4832 -1.9471  1.0871
  917MOL0     H26499  10.492   7.510   5.850  0.1341 -0.0957 -0.2801
  917MOL0     H26500  10.305   7.384   5.773 -1.4062 -4.7287 -0.3829
  917MOL0     H26501  10.384   7.295   5.895  0.7862 -0.4403  1.0966
  917MOL0     H26502  10.154   7.264   5.894  0.5201 -1.7918  2.9294
  917MOL0     H26503  10.183   7.344   6.046  1.0447 -0.5965 -0.1671
  917MOL0     H26504   9.976   7.542   6.136 -0.9577  2.0216 -0.8934
  917MOL0     H26505   9.660   7.568   6.272  1.0179  1.6886  1.6030
  917MOL0     H26506   9.830   7.598   6.295  1.7578 -1.0389 -1.7076
  917MOL0     H26507   9.750   7.438   6.320 -1.1431 -0.7333 -1.9811
  917MOL0     H26508   9.281   7.623   5.837 -1.5009  0.6578  0.1029
  917MOL0     H26509   9.043   7.586   5.846  0.7569  1.9828  1.1237
  917MOL0     H26510   8.892   7.195   6.043 -2.3738 -3.2881  0.4516
  917MOL0     H26511   8.750   7.251   5.975 -0.1936  3.9780 -1.4541
  917MOL0     H26512   8.992   7.168   5.806 -0.7048  2.0383 -4.6048
  917MOL0     H26513   8.869   7.064   5.859 -0.2595 -0.2271  0.1103
  917MOL0     H26514   8.852   7.157   5.632  1.2086  0.9839 -0.5568
  917MOL0     H26515   8.806   7.315   5.699  0.0186 -0.2489  0.4339
  917MOL0     H26516   8.593   7.219   5.793  0.9242  0.7003 -0.2133
  917MOL0     H26517   8.653   7.054   5.772  0.2715 -0.1027 -0.5349
  917MOL0     H26518   8.629   7.043   5.544 -1.7994 -1.6263  0.0080
  917MOL0     H26519   8.478   7.127   5.608  0.5046  2.4055  0.2259
  917MOL0     H26520   8.690   7.305   5.486 -0.2263  1.6572 -3.0523
  917MOL0     H26521   8.524   7.337   5.545  0.1101  0.0031 -2.7043
  917MOL0     H26522   8.429   7.219   5.374 -0.0219  0.0341 -2.7307
  917MOL0     H26523   8.569   7.121   5.337  2.1057  0.3699 -0.3932
  917MOL0     H26524   8.556   7.434   5.305 -2.4777  0.6098  0.0125
  917MOL0     H26525   8.523   7.320   5.169 -0.0414 -1.4174 -0.0904
  917MOL0     H26526   9.121   7.193   6.034  1.2878 -0.5186  0.0724
  917MOL0     H26527   9.344   7.230   6.001 -0.4857 -0.4113 -1.7267
  917MOL0     H26528   9.670   7.315   5.830  1.5668 -1.1612 -0.8037
  917MOL0     H26529   9.895   7.335   5.774 -0.2012  0.9917 -1.2392
  917MOL0     H26530  11.207   8.532   5.526  0.9277  0.1450 -3.0937
  917MOL0     H26531  11.343   8.711   5.423 -3.2393 -2.6014 -0.4550
  917MOL0     H26532  11.386   9.235   5.450 -1.4051 -0.9683 -0.4674
  917MOL0     H26533  11.516   9.424   5.373  2.7364  0.7875  1.5465
  917MOL0     H26534  11.662   9.582   5.372  1.2708  0.0412  0.3302
  917MOL0     H26535  11.808   9.630   5.299 -1.2558  1.3163 -1.5893
  917MOL0     H26536  11.684   9.657   5.128  0.4535 -0.5722  0.0431
  917MOL0     H26537  11.573   9.531   5.161 -1.2336  3.6467  2.9686
  917MOL0     H26538  11.859   9.464   5.077  0.0023  4.6264 -1.0586
  917MOL0     H26539  11.710   9.364   5.064  0.2849 -0.0674 -0.4191
  917MOL0     H26540  11.642   9.536   4.891 -0.4479  2.8709  1.2902
  917MOL0     H26541  11.804   9.462   4.853  2.9917  4.1698 -0.7772
  917MOL0     H26542  11.905   9.861   4.901  1.3150 -1.0906 -3.8408
  917MOL0     H26543  11.863   9.177   5.350 -0.0790  0.8532 -3.9490
  917MOL0     H26544  11.855   8.952   5.431 -0.8202 -1.4156  0.6520
  917MOL0     H26545  11.733   8.905   5.546 -2.0459 -0.3203  0.0512
  917MOL0     H26546  11.700   8.869   5.379 -2.4505  1.0041 -0.5065
  918MOL0     O26547   1.834   0.025   1.533  0.4303  0.5745 -0.2382
  918MOL0     C26548   1.802   0.094   1.624 -0.4143  0.0276 -0.8203
  918MOL0     O26549   1.692   0.069   1.709  0.2668 -0.0532  0.8199
  918MOL0     C26550   1.570   0.024   1.678 -0.1810 -0.5191  0.0709
  918MOL0     C26551   1.540  -0.064   1.567 -0.2719 -2.0903 -1.1232
  918MOL0     C26552   1.423  -0.140   1.558 -0.7438  0.8343  0.5046
  918MOL0     C26553   1.325  -0.122   1.657  0.3357 -0.3545 -1.3518
  918MOL0     O26554   1.207  -0.192   1.635 -0.9044  0.5339  0.1187
  918MOL0     C26555   1.103  -0.205   1.739  0.3438 -0.5597  0.5855
  918MOL0     C26556   0.988  -0.290   1.674  0.3320  1.5522 -0.6007
  918MOL0     C26557   0.885  -0.201   1.594  0.4798  0.3206  0.6643
  918MOL0     C26558   0.787  -0.277   1.500 -0.0047  1.1498 -0.1538
  918MOL0     C26559   0.664  -0.336   1.582  0.1266 -0.8398  0.0814
  918MOL0     C26560   0.586  -0.421   1.479  1.4062 -0.4120 -1.0004
  918MOL0     C26561   0.453  -0.468   1.530  0.2775  0.7479  0.3347
  918MOL0     C26562   0.467  -0.572   1.644  0.5392 -0.6059  0.3729
  918MOL0     N26563   0.336  -0.619   1.703  0.5316  0.3492  0.4272
  918MOL0     C26564   0.230  -0.667   1.631  0.1111  0.6644  0.1084
  918MOL0     C26565   0.124  -0.688   1.718  0.5051  0.0890 -0.2495
  918MOL0     C26566  -0.017  -0.728   1.686  0.3052 -0.4695  1.3153
  918MOL0     C26567  -0.098  -0.609   1.633  0.4151 -0.2039 -0.5315
  918MOL0     C26568  -0.099  -0.483   1.737 -0.0579  0.1927  0.3907
  918MOL0     C26569  -0.136  -0.365   1.644  0.9297 -0.2114  0.8080
  918MOL0     O26570  -0.126  -0.246   1.727 -0.1697 -0.0740  0.0168
  918MOL0     C26571  -0.163  -0.130   1.657 -0.5854  0.2555  0.6327
  918MOL0     C26572  -0.076  -0.023   1.637 -0.1133 -0.2852  0.1744
  918MOL0     C26573  -0.125   0.099   1.574 -0.4898  0.2374 -0.6689
  918MOL0     C26574  -0.020   0.214   1.573 -0.4871  0.4314 -0.0930
  918MOL0     C26575  -0.260   0.113   1.533  0.6630  0.6068  1.5105
  918MOL0     C26576  -0.310   0.240   1.477 -0.3818  1.4016  0.3037
  918MOL0     O26577  -0.443   0.259   1.504  0.4653 -0.4397 -0.1151
  918MOL0     C26578  -0.516   0.363   1.447  0.0978 -1.2300 -0.0328
  918MOL0     C26579  -0.577   0.462   1.537  0.2301  0.8842 -0.3887
  918MOL0     C26580  -0.647   0.566   1.485  0.1358  0.0714  0.8032
  918MOL0     C26581  -0.659   0.579   1.342 -0.3591  0.3319 -0.2800
  918MOL0     O26582  -0.735   0.668   1.274 -0.0968  0.1824 -0.1899
  918MOL0     C26583  -0.815   0.754   1.360  0.0346 -0.3757  0.7766
  918MOL0     C26584  -0.926   0.827   1.289  0.1782  0.0604  0.1761
  918MOL0     C26585  -1.013   0.923   1.382 -0.3586  0.0104 -0.3318
  918MOL0     C26586  -0.977   1.071   1.375  0.0712  0.6984  0.5577
  918MOL0     C26587  -1.082   1.149   1.450 -0.2133  0.7667  0.0318
  918MOL0     C26588  -1.062   1.293   1.433  0.4462 -0.4201  0.3138
  918MOL0     C26589  -1.182   1.383   1.427 -0.7462 -0.5780  0.0792
  918MOL0     C26590  -1.166   1.499   1.322  0.1411 -0.1214  0.8017
  918MOL0    Cl26591  -1.160   1.443   1.155 -0.2551  0.3893  0.0942
  918MOL0     C26592  -0.599   0.495   1.252 -0.2398  1.0144  0.0033
  918MOL0     C26593  -0.526   0.392   1.311  0.2293 -0.6436 -0.2206
  918MOL0     O26594  -0.237   0.322   1.418 -0.0981  0.1782  0.6039
  918MOL0     C26595  -0.340   0.005   1.568 -0.8459 -0.0633  0.8118
  918MOL0     C26596  -0.295  -0.118   1.622 -0.1555 -0.7485  0.2695
  918MOL0     N26597   0.176  -0.674   1.840  0.5305 -0.5487 -0.0318
  918MOL0     N26598   0.297  -0.628   1.830  0.8305  0.0154  0.6599
  918MOL0     C26599   1.347  -0.037   1.772 -0.0761  0.2872 -0.6640
  918MOL0     C26600   1.469   0.038   1.778  0.6647  0.3494  0.0612
  918MOL0     C26601   1.885   0.214   1.659  0.2576 -0.2388 -0.4806
  918MOL0     C26602   2.000   0.234   1.590  0.9056 -0.7501  0.1738
  918MOL0     C26603   2.096   0.340   1.606 -0.6071 -0.1936 -0.3180
  918MOL0     C26604   2.066   0.432   1.707 -0.2092  0.3833  0.4049
  918MOL0     O26605   2.135   0.541   1.738 -0.3099  0.3197 -0.3028
  918MOL0     C26606   2.273   0.547   1.691 -0.5970 -0.1757 -0.0768
  918MOL0     C26607   2.330   0.685   1.737  1.1028  0.4554 -0.5857
  918MOL0     C26608   2.364   0.679   1.889  0.2549  0.1781  0.0961
  918MOL0     C26609   2.439   0.811   1.917 -0.6809  0.4904  1.2936
  918MOL0     C26610   2.449   0.830   2.055 -0.7805 -0.1020 -0.5011
  918MOL0     C26611   2.458   0.856   2.176  1.1845  1.1174  0.2144
  918MOL0     C26612   1.946   0.415   1.779 -0.3207  0.4271  0.2055
  918MOL0     C26613   1.851   0.311   1.751 -0.5099 -0.3643 -1.2500
  918MOL0     C26614   1.733   0.314   1.835  0.6712  0.2477 -0.0297
  918MOL0     H26615   1.627  -0.074   1.503 -0.6468  1.5042 -2.4515
  918MOL0     H26616   1.398  -0.201   1.472  0.2530  1.4334 -0.2237
  918MOL0     H26617   1.048  -0.113   1.762 -2.3159 -1.3562 -1.9086
  918MOL0     H26618   1.142  -0.255   1.828  1.7618  0.8563  0.7964
  918MOL0     H26619   1.034  -0.368   1.612  0.1128  0.3580  0.6977
  918MOL0     H26620   0.933  -0.327   1.761  1.1794 -1.3043 -1.1626
  918MOL0     H26621   0.815  -0.148   1.659 -0.0403 -1.0694  1.2740
  918MOL0     H26622   0.936  -0.129   1.528 -3.4440  3.3628  0.5895
  918MOL0     H26623   0.761  -0.220   1.410  0.3693 -3.1114 -3.2560
  918MOL0     H26624   0.839  -0.364   1.459 -0.4346  0.9307 -0.2315
  918MOL0     H26625   0.602  -0.257   1.623  0.4169 -1.5895  2.0723
  918MOL0     H26626   0.705  -0.393   1.666  0.6865  0.7465  0.9101
  918MOL0     H26627   0.567  -0.351   1.396 -0.8057  0.5575  0.2464
  918MOL0     H26628   0.644  -0.503   1.437  4.1327  0.6048  0.5413
  918MOL0     H26629   0.395  -0.518   1.451 -1.0348 -0.3765  1.9387
  918MOL0     H26630   0.387  -0.386   1.560 -0.0779  0.9863 -1.0031
  918MOL0     H26631   0.525  -0.661   1.618  0.9262 -0.4098  0.5526
  918MOL0     H26632   0.514  -0.521   1.729 -2.0972 -3.1692  3.6755
  918MOL0     H26633   0.233  -0.675   1.522  0.1348  0.2837  0.1358
  918MOL0     H26634  -0.074  -0.754   1.775 -0.5829 -1.8201  0.3952
  918MOL0     H26635  -0.027  -0.813   1.618 -0.6183 -1.3023  2.4627
  918MOL0     H26636  -0.062  -0.580   1.534  0.0211 -0.4192 -0.7405
  918MOL0     H26637  -0.200  -0.644   1.611 -0.0719  0.0086  1.2380
  918MOL0     H26638  -0.181  -0.503   1.806 -1.5590 -2.4392 -1.9451
  918MOL0     H26639  -0.003  -0.459   1.784  0.7898 -1.1807 -0.5964
  918MOL0     H26640  -0.071  -0.371   1.556 -1.4851 -1.3622 -0.9999
  918MOL0     H26641  -0.236  -0.382   1.603  0.4218 -0.7156  2.2049
  918MOL0     H26642   0.019  -0.013   1.689  0.3735  0.8135 -0.8752
  918MOL0     H26643  -0.053   0.300   1.631  1.1124  0.7202  0.4578
  918MOL0     H26644  -0.023   0.247   1.469 -0.0856 -0.5732 -0.4418
  918MOL0     H26645   0.081   0.186   1.605 -1.0748 -0.0945  1.3658
  918MOL0     H26646  -0.545   0.446   1.640 -1.6302 -0.1032  0.0706
  918MOL0     H26647  -0.679   0.645   1.552  5.3713  2.1109  1.3998
  918MOL0     H26648  -0.858   0.685   1.433  0.5346 -1.7795 -0.1923
  918MOL0     H26649  -0.752   0.831   1.406  0.5029 -0.9377  1.0896
  918MOL0     H26650  -0.896   0.890   1.205 -1.7451  2.0091  0.8462
  918MOL0     H26651  -1.003   0.757   1.254  0.1965  0.0687  0.1183
  918MOL0     H26652  -0.993   0.890   1.484  2.1143 -1.2058 -1.1449
  918MOL0     H26653  -1.117   0.903   1.355  0.5450 -2.5994 -2.3066
  918MOL0     H26654  -1.005   1.104   1.275 -3.4096 -1.1993  0.7698
  918MOL0     H26655  -0.877   1.097   1.412  0.0536  0.7509  0.5672
  918MOL0     H26656  -1.187   1.127   1.425 -0.1453  0.0861  0.3136
  918MOL0     H26657  -1.075   1.109   1.552  2.1896  1.4715  0.1981
  918MOL0     H26658  -1.010   1.306   1.337 -2.1355 -1.1594 -1.3022
  918MOL0     H26659  -0.994   1.341   1.504 -0.2774  0.4074  0.4561
  918MOL0     H26660  -1.173   1.435   1.523 -0.4526 -1.5037  0.5687
  918MOL0     H26661  -1.283   1.347   1.407 -0.7659  0.8946 -3.1879
  918MOL0     H26662  -1.077   1.562   1.328  0.8574 -0.7420 -1.8421
  918MOL0     H26663  -1.245   1.568   1.352  1.7989  1.9573  0.6703
  918MOL0     H26664  -0.600   0.507   1.144  1.6372  0.9258 -0.0597
  918MOL0     H26665  -0.485   0.313   1.250 -2.8767 -2.0789 -0.6441
  918MOL0     H26666  -0.447   0.010   1.547 -1.2593  0.9757  2.8944
  918MOL0     H26667  -0.363  -0.198   1.648 -3.8128  0.9188 -3.0676
  918MOL0     H26668   1.271  -0.027   1.848  0.4837  0.4148 -0.1068
  918MOL0     H26669   1.472   0.111   1.858 -3.1477 -2.0759  2.7556
  918MOL0     H26670   2.036   0.152   1.529  2.5256 -1.5682  2.1054
  918MOL0     H26671   2.184   0.342   1.543  0.6649  2.3194  1.3759
  918MOL0     H26672   2.342   0.470   1.729 -0.0971  0.6448  0.7374
  918MOL0     H26673   2.283   0.543   1.582 -1.8439  1.0914 -0.2637
  918MOL0     H26674   2.247   0.751   1.711  2.2563  0.9073 -3.4346
  918MOL0     H26675   2.410   0.707   1.666 -0.6602 -0.7699 -3.0853
  918MOL0     H26676   2.269   0.677   1.943 -1.2945 -1.9732 -2.4568
  918MOL0     H26677   2.419   0.587   1.911 -1.6373 -1.1445 -0.4587
  918MOL0     H26678   2.390   0.896   1.869 -0.0029  0.6715  0.9114
  918MOL0     H26679   2.538   0.812   1.872  0.7515  1.9781  4.2196
  918MOL0     H26680   2.481   0.863   2.280  2.4377  1.7526 -0.0890
  918MOL0     H26681   1.933   0.478   1.866 -0.9141 -2.1205  2.0757
  918MOL0     H26682   1.717   0.211   1.868  1.3807 -0.4992 -1.9129
  918MOL0     H26683   1.744   0.395   1.909 -1.1284 -0.2890  0.8976
  918MOL0     H26684   1.648   0.331   1.768  1.1250 -1.9703 -1.2422
  919MOL0     O26685  11.222   8.440   6.608 -0.0389  0.5758 -0.1611
  919MOL0     C26686  11.316   8.403   6.535  0.7200  0.2016  1.2411
  919MOL0     O26687  11.382   8.480   6.440  0.8102 -0.9885 -0.3964
  919MOL0     C26688  11.323   8.589   6.395  0.0951 -0.4394 -0.4568
  919MOL0     C26689  11.377   8.707   6.422 -0.3328  0.2817  0.3671
  919MOL0     C26690  11.326   8.816   6.365  0.3517 -0.4168  0.7717
  919MOL0     C26691  11.222   8.814   6.279 -0.3725  1.0368 -0.6207
  919MOL0     O26692  11.182   8.933   6.223  0.7522  0.3203  0.5036
  919MOL0     C26693  11.162   8.926   6.079 -0.7761  0.8886 -1.0722
  919MOL0     C26694  11.121   9.055   6.025 -0.1474  0.5529  0.5556
  919MOL0     C26695  11.038   9.038   5.896  0.1725 -0.2837 -0.5105
  919MOL0     C26696  11.137   8.981   5.790  0.0317  0.4012  0.5621
  919MOL0     C26697  11.054   8.950   5.665 -0.3438  0.7748  1.0806
  919MOL0     C26698  10.923   8.882   5.684  0.5216  0.1292 -0.5529
  919MOL0     C26699  10.878   8.814   5.556  0.1300 -0.2840  1.0435
  919MOL0     C26700  10.743   8.737   5.559 -0.0293 -0.0815 -0.5367
  919MOL0     N26701  10.661   8.778   5.445  0.5051  0.0745 -0.4608
  919MOL0     C26702  10.680   8.726   5.320 -0.7918  1.1761  0.3869
  919MOL0     C26703  10.592   8.788   5.240 -0.7435 -0.4878  0.9103
  919MOL0     C26704  10.585   8.780   5.088 -0.3125 -0.3003 -0.1068
  919MOL0     C26705  10.478   8.869   5.026  0.7211 -0.4729  0.6158
  919MOL0     C26706  10.484   8.851   4.876 -0.9148  0.6210 -0.4330
  919MOL0     C26707  10.421   8.966   4.808  0.2718 -0.4111  0.8557
  919MOL0     O26708  10.461   8.961   4.670 -0.6790  0.8673 -0.1519
  919MOL0     C26709  10.405   9.034   4.576  0.2128 -0.4656  0.3561
  919MOL0     C26710  10.449   9.041   4.448 -0.2805 -0.5626  0.1781
  919MOL0     C26711  10.396   9.116   4.339  0.0706  0.4208 -0.0188
  919MOL0     C26712  10.480   9.126   4.208  0.4507  0.5604  0.5066
  919MOL0     C26713  10.267   9.177   4.366 -0.2293  0.7097  0.2473
  919MOL0     C26714  10.179   9.239   4.263  0.4355 -0.4901  0.7746
  919MOL0     O26715  10.067   9.302   4.311 -0.5331  0.5349  0.5137
  919MOL0     C26716  10.022   9.411   4.241 -1.3846 -0.8084  0.3084
  919MOL0     C26717  10.088   9.498   4.150 -0.0378  1.4004 -0.3109
  919MOL0     C26718  10.034   9.617   4.116  0.5746 -0.3971  0.2646
  919MOL0     C26719   9.914   9.659   4.160  0.3487  0.8694  0.7462
  919MOL0     O26720   9.858   9.776   4.108  0.2632  0.1655 -0.9767
  919MOL0     C26721   9.718   9.780   4.103  0.0049  1.0777 -1.2538
  919MOL0     C26722   9.668   9.870   4.222 -0.4695  0.3575  0.2757
  919MOL0     C26723   9.567   9.974   4.181  0.2889 -0.5894  1.4472
  919MOL0     C26724   9.637  10.084   4.091 -0.5785  0.7558  0.2934
  919MOL0     C26725   9.554  10.198   4.087  0.3018  0.2054  0.3908
  919MOL0     C26726   9.591  10.298   3.973 -0.8102  0.1510 -0.2136
  919MOL0     C26727   9.476  10.342   3.887 -0.1803  0.9586  0.7656
  919MOL0     C26728   9.518  10.454   3.788  0.0785  0.0932  1.1665
  919MOL0    Cl26729   9.449  10.393   3.631 -0.5688  0.1057  0.1366
  919MOL0     C26730   9.838   9.576   4.247  0.4724 -0.0822  0.4380
  919MOL0     C26731   9.897   9.455   4.286 -0.6564  0.2033  1.3225
  919MOL0     O26732  10.212   9.239   4.142 -0.7248  0.5653 -0.0201
  919MOL0     C26733  10.220   9.167   4.495  0.8842  0.6797 -0.4399
  919MOL0     C26734  10.289   9.113   4.598 -1.0210 -0.3751  0.0168
  919MOL0     N26735  10.510   8.875   5.321 -0.1505  0.2986 -0.0307
  919MOL0     N26736  10.560   8.864   5.443 -0.5587 -0.8248 -0.0439
  919MOL0     C26737  11.161   8.696   6.255  0.4779 -0.6804 -0.1438
  919MOL0     C26738  11.210   8.578   6.320  0.9150 -0.5208 -0.9035
  919MOL0     C26739  11.377   8.265   6.552  0.4867 -0.0562  0.3369
  919MOL0     C26740  11.500   8.238   6.486 -0.2943  0.9454 -0.4350
  919MOL0     C26741  11.563   8.114   6.506 -0.7492  0.4731 -0.0716
  919MOL0     C26742  11.522   8.011   6.581  0.7363 -0.2414 -0.3415
  919MOL0     O26743  11.603   7.904   6.610 -0.0888 -0.4166 -0.2786
  919MOL0     C26744  11.553   7.773   6.599 -0.0454 -0.0971  0.8303
  919MOL0     C26745  11.667   7.677   6.640  0.2001 -0.1262 -0.2188
  919MOL0     C26746  11.683   7.659   6.795  1.2973  0.2840  0.6996
  919MOL0     C26747  11.810   7.695   6.856 -1.5816  0.1568 -0.0410
  919MOL0     C26748  11.810   7.668   7.002  0.4698  0.3581  1.0364
  919MOL0     C26749  11.798   7.645   7.118 -0.6916 -0.7142 -0.3647
  919MOL0     C26750  11.393   8.034   6.638 -0.2783 -0.1278 -0.3834
  919MOL0     C26751  11.326   8.161   6.634 -0.8715  0.1453 -0.4529
  919MOL0     C26752  11.197   8.156   6.706 -0.0630  0.0105  0.8756
  919MOL0     H26753  11.467   8.705   6.482 -0.5120  2.3894  0.7684
  919MOL0     H26754  11.365   8.916   6.384 -2.3675  1.2108 -1.4581
  919MOL0     H26755  11.086   8.852   6.052 -2.4271  1.1277  2.4061
  919MOL0     H26756  11.251   8.896   6.023 -0.6603  2.1348 -1.5913
  919MOL0     H26757  11.078   9.116   6.105 -1.0730 -1.4636  1.6846
  919MOL0     H26758  11.214   9.106   5.999  0.3744 -1.4408 -1.9067
  919MOL0     H26759  10.949   8.981   5.923  1.0263 -1.6745 -0.5069
  919MOL0     H26760  10.988   9.127   5.857 -2.6237 -1.3970  0.3523
  919MOL0     H26761  11.220   9.049   5.767  0.4750  0.1925  1.5197
  919MOL0     H26762  11.178   8.886   5.826 -2.9504 -0.5158  1.8481
  919MOL0     H26763  11.109   8.884   5.598 -0.6645 -0.0275  1.5866
  919MOL0     H26764  11.049   9.049   5.618  2.6627  0.9307  0.8769
  919MOL0     H26765  10.937   8.805   5.761  0.5288  0.4012 -0.2796
  919MOL0     H26766  10.845   8.955   5.709  1.7778  0.3735  3.3179
  919MOL0     H26767  10.961   8.749   5.528 -0.4069 -0.6333  0.2098
  919MOL0     H26768  10.866   8.894   5.482  0.7586 -0.5286  0.6763
  919MOL0     H26769  10.754   8.628   5.568  1.1197 -0.0213 -1.0198
  919MOL0     H26770  10.692   8.773   5.649  2.1012  1.3975  0.1473
  919MOL0     H26771  10.771   8.667   5.308 -0.9483  0.3923  2.5871
  919MOL0     H26772  10.571   8.673   5.071  3.5908 -1.1876  1.1288
  919MOL0     H26773  10.680   8.801   5.038 -1.7386  2.6496 -1.7980
  919MOL0     H26774  10.385   8.835   5.074  0.6591  2.4854  2.9150
  919MOL0     H26775  10.479   8.973   5.060 -0.6116 -0.5954  1.0873
  919MOL0     H26776  10.587   8.848   4.839 -1.3817  1.5483 -1.9494
  919MOL0     H26777  10.443   8.753   4.850  0.8770  0.1157 -1.6006
  919MOL0     H26778  10.314   8.946   4.818  0.3296 -2.2400 -1.3100
  919MOL0     H26779  10.446   9.062   4.854  1.9891 -1.8476  3.1462
  919MOL0     H26780  10.540   8.984   4.440 -0.5151 -0.7933 -1.2275
  919MOL0     H26781  10.469   9.225   4.164  0.0874  1.2007  1.9882
  919MOL0     H26782  10.446   9.054   4.133 -0.7877  1.0201  0.6001
  919MOL0     H26783  10.585   9.104   4.231  0.6239 -1.2196 -1.6350
  919MOL0     H26784  10.182   9.459   4.111 -1.2364  0.4978 -2.5165
  919MOL0     H26785  10.091   9.681   4.048  0.5119  0.1034  0.6756
  919MOL0     H26786   9.685   9.839   4.016 -2.9265  2.1628  0.4264
  919MOL0     H26787   9.668   9.683   4.099 -0.1899  1.1417 -0.5424
  919MOL0     H26788   9.622   9.801   4.293 -1.2310  1.8009  1.2408
  919MOL0     H26789   9.752   9.912   4.277  1.5264  0.3142 -2.5247
  919MOL0     H26790   9.522  10.011   4.274 -0.4622 -0.0053  0.8717
  919MOL0     H26791   9.496   9.912   4.127  1.0672  0.7478 -1.2873
  919MOL0     H26792   9.647  10.050   3.988  1.6797  0.0808  0.6864
  919MOL0     H26793   9.736  10.110   4.130 -0.5831  3.4050 -1.2339
  919MOL0     H26794   9.453  10.163   4.067  0.4377 -0.5006  0.8826
  919MOL0     H26795   9.560  10.259   4.178  0.1173  3.7520 -1.8119
  919MOL0     H26796   9.670  10.255   3.911 -0.9786  0.1641 -0.4436
  919MOL0     H26797   9.637  10.389   4.012 -1.2003  0.3351 -0.1779
  919MOL0     H26798   9.393  10.370   3.954 -1.0353 -0.4621  0.3408
  919MOL0     H26799   9.437  10.250   3.842  4.3370 -0.5603 -0.5464
  919MOL0     H26800   9.626  10.467   3.774 -0.0332  0.4136  0.5881
  919MOL0     H26801   9.462  10.542   3.823 -2.1866 -0.0256 -1.7700
  919MOL0     H26802   9.733   9.574   4.272  0.1204  2.6331 -0.5021
  919MOL0     H26803   9.832   9.395   4.349 -0.7157 -0.2547  0.8298
  919MOL0     H26804  10.121   9.203   4.522  1.1776  0.0692  1.6148
  919MOL0     H26805  10.251   9.109   4.700 -0.6432 -1.9235  0.1220
  919MOL0     H26806  11.069   8.689   6.198 -1.0768  0.3997  2.1001
  919MOL0     H26807  11.180   8.481   6.283 -2.6386  0.2899 -0.4749
  919MOL0     H26808  11.547   8.315   6.425  1.1095  0.7567  0.3671
  919MOL0     H26809  11.662   8.120   6.461 -0.5752  1.0069  0.3676
  919MOL0     H26810  11.460   7.767   6.656 -0.9921 -1.4682 -0.7773
  919MOL0     H26811  11.530   7.763   6.492 -0.4165 -1.9822  1.0504
  919MOL0     H26812  11.755   7.724   6.596  0.9289 -1.8915 -0.7009
  919MOL0     H26813  11.666   7.578   6.594  1.6855 -0.1230 -0.2782
  919MOL0     H26814  11.612   7.730   6.838  0.8276  0.0717  0.2820
  919MOL0     H26815  11.642   7.562   6.825 -1.5180  0.4859 -2.0175
  919MOL0     H26816  11.830   7.802   6.848 -1.8907  0.2744  0.6365
  919MOL0     H26817  11.894   7.645   6.807 -1.4071  0.3407  0.0682
  919MOL0     H26818  11.779   7.635   7.223 -1.0561  3.9741  0.1985
  919MOL0     H26819  11.355   7.946   6.689 -1.4923 -1.1316 -2.8523
  919MOL0     H26820  11.187   8.058   6.754  0.8843 -0.4207  0.2192
  919MOL0     H26821  11.189   8.238   6.778 -1.7922  0.4060  0.2870
  919MOL0     H26822  11.116   8.179   6.636 -1.0295 -3.9758  0.4516
  920MOL0     O26823   5.036   1.104   4.648 -0.0004 -0.5297 -0.2495
  920MOL0     C26824   5.154   1.094   4.681  0.7246 -0.4242 -0.4724
  920MOL0     O26825   5.204   1.009   4.767 -0.7600 -0.3294 -0.2771
  920MOL0     C26826   5.124   0.920   4.831 -0.0645 -0.0576 -0.3808
  920MOL0     C26827   4.985   0.925   4.860  0.6220  0.3683 -0.4612
  920MOL0     C26828   4.923   0.818   4.920 -0.3203  0.1720 -0.3021
  920MOL0     C26829   5.003   0.723   4.990  0.3347  0.0216 -0.1115
  920MOL0     O26830   4.934   0.639   5.067  0.1615 -0.2689 -0.2037
  920MOL0     C26831   5.005   0.517   5.112 -0.0699 -0.2980  0.1791
  920MOL0     C26832   4.909   0.427   5.183  0.6449  0.9840 -0.7642
  920MOL0     C26833   4.963   0.276   5.173 -0.6789  0.0003 -0.6181
  920MOL0     C26834   5.079   0.226   5.275  0.1021  0.0267 -0.0199
  920MOL0     C26835   5.110   0.076   5.252 -0.4259 -1.0715 -0.4156
  920MOL0     C26836   5.015  -0.048   5.261 -0.5956 -0.2620 -0.0367
  920MOL0     C26837   4.931  -0.046   5.385 -1.2886  0.7275 -0.7492
  920MOL0     C26838   4.856  -0.184   5.410 -0.4238  0.1481  0.9041
  920MOL0     N26839   4.943  -0.295   5.435 -0.1746 -1.0914 -0.4613
  920MOL0     C26840   5.034  -0.322   5.536 -0.0290 -0.8007 -0.3030
  920MOL0     C26841   5.072  -0.450   5.513  0.6899  0.8095 -0.2425
  920MOL0     C26842   5.154  -0.542   5.589 -0.8763 -0.5125  0.2375
  920MOL0     C26843   5.241  -0.485   5.697 -0.0753 -0.0565 -0.8257
  920MOL0     C26844   5.377  -0.419   5.644 -0.4822  0.1045 -0.5224
  920MOL0     C26845   5.362  -0.274   5.583  0.9687  0.0747  0.2896
  920MOL0     O26846   5.281  -0.177   5.655 -0.0565  0.3317  0.4407
  920MOL0     C26847   5.279  -0.046   5.610  0.5416 -0.5181  0.9511
  920MOL0     C26848   5.376   0.018   5.525  0.0325 -0.8033 -0.1571
  920MOL0     C26849   5.377   0.158   5.498  0.5604  0.5514  0.1864
  920MOL0     C26850   5.484   0.207   5.407 -0.4387  0.2445 -0.6700
  920MOL0     C26851   5.264   0.233   5.552 -0.3657 -0.0984 -0.0807
  920MOL0     C26852   5.235   0.379   5.535 -0.3162  0.0434  0.2248
  920MOL0     O26853   5.352   0.458   5.512 -0.0644  0.5190  0.4521
  920MOL0     C26854   5.341   0.587   5.563 -0.5395  0.0679 -0.1364
  920MOL0     C26855   5.319   0.612   5.702 -0.1951 -0.2134  0.2644
  920MOL0     C26856   5.299   0.743   5.743 -0.2456  0.2256 -0.0213
  920MOL0     C26857   5.304   0.849   5.653  0.0898 -0.4525 -0.0779
  920MOL0     O26858   5.282   0.979   5.688  0.2305  0.2057  0.0083
  920MOL0     C26859   5.219   1.024   5.806 -0.4288  0.7805  0.5802
  920MOL0     C26860   5.195   1.176   5.804  0.3899  0.3551  0.2544
  920MOL0     C26861   5.081   1.216   5.713 -0.1315 -0.0714 -0.0159
  920MOL0     C26862   5.054   1.367   5.733  0.1206  0.4673  0.8271
  920MOL0     C26863   4.937   1.405   5.637  0.6707 -1.4737 -0.0584
  920MOL0     C26864   4.868   1.544   5.670 -0.3785 -0.5596 -0.5427
  920MOL0     C26865   4.776   1.590   5.550 -0.3855 -0.9165  1.0285
  920MOL0     C26866   4.683   1.474   5.509 -0.1711  0.4076  0.1213
  920MOL0    Cl26867   4.602   1.391   5.647  0.2806  0.1749  0.3024
  920MOL0     C26868   5.318   0.816   5.522  1.0115 -0.4057  0.0423
  920MOL0     C26869   5.329   0.692   5.476  0.5835  0.0378  0.0591
  920MOL0     O26870   5.120   0.422   5.532 -0.3193 -0.7293 -0.4414
  920MOL0     C26871   5.163   0.161   5.618  0.3113 -0.5661 -0.7192
  920MOL0     C26872   5.177   0.034   5.654  0.1024 -0.0189  0.2773
  920MOL0     N26873   5.012  -0.499   5.397  0.2071  0.8034 -0.0287
  920MOL0     N26874   4.939  -0.401   5.353  0.9957  0.1202  0.2912
  920MOL0     C26875   5.142   0.711   4.958  0.5880  0.0474 -0.2676
  920MOL0     C26876   5.196   0.800   4.864  0.0824  0.0981 -0.6233
  920MOL0     C26877   5.241   1.196   4.616 -0.0109  0.0569  0.1682
  920MOL0     C26878   5.183   1.322   4.585 -0.6128 -0.0816  1.0981
  920MOL0     C26879   5.264   1.419   4.531 -0.4799 -0.9896  0.3864
  920MOL0     C26880   5.401   1.394   4.497 -0.0774 -0.2036 -0.3203
  920MOL0     O26881   5.485   1.490   4.446  0.6402 -0.6066  0.2468
  920MOL0     C26882   5.439   1.629   4.427  0.3483 -0.0525 -0.0584
  920MOL0     C26883   5.565   1.710   4.389 -1.0693  0.4598  0.2513
  920MOL0     C26884   5.649   1.767   4.495 -0.0145  0.2599  0.7887
  920MOL0     C26885   5.756   1.673   4.548  0.9411 -0.4426 -0.1951
  920MOL0     C26886   5.881   1.663   4.460 -0.0625 -0.3756 -0.1205
  920MOL0     C26887   5.965   1.667   4.375 -0.5900  0.4359 -0.1994
  920MOL0     C26888   5.449   1.263   4.513 -0.0997 -0.3065  0.9798
  920MOL0     C26889   5.371   1.167   4.577 -1.1128 -0.3036 -0.9326
  920MOL0     C26890   5.430   1.029   4.610 -0.0880 -0.1187  0.2189
  920MOL0     H26891   4.932   1.019   4.852  0.6122  0.2469 -2.2682
  920MOL0     H26892   4.818   0.820   4.946  0.1054  4.5007  1.9037
  920MOL0     H26893   5.081   0.537   5.188 -3.3042 -1.4303  4.1348
  920MOL0     H26894   5.044   0.472   5.021 -1.3286  2.3180 -1.7633
  920MOL0     H26895   4.893   0.452   5.288 -1.3235 -2.5594 -0.0863
  920MOL0     H26896   4.816   0.431   5.125 -0.2499  0.1025  0.5650
  920MOL0     H26897   4.881   0.204   5.177  0.9458 -1.8729  1.8903
  920MOL0     H26898   5.003   0.267   5.071  0.5187 -1.5668 -0.0411
  920MOL0     H26899   5.170   0.285   5.264  1.4990 -2.4338 -3.4588
  920MOL0     H26900   5.050   0.233   5.380  2.2964  1.9354  0.5314
  920MOL0     H26901   5.194   0.063   5.321  0.7966  1.9310 -1.2068
  920MOL0     H26902   5.152   0.068   5.152  4.2857  2.1518  0.9620
  920MOL0     H26903   4.942  -0.053   5.180 -1.2767  1.0709  0.4473
  920MOL0     H26904   5.068  -0.143   5.259 -3.7723 -2.1593 -1.7948
  920MOL0     H26905   4.867   0.043   5.386 -0.8713  1.0344 -1.0678
  920MOL0     H26906   4.996  -0.032   5.472 -1.2267 -1.3677 -0.4080
  920MOL0     H26907   4.782  -0.180   5.491 -4.6894  0.8869 -2.6475
  920MOL0     H26908   4.802  -0.205   5.318 -0.3329 -0.0868  0.9043
  920MOL0     H26909   5.066  -0.261   5.620 -0.2219 -0.5441 -0.4146
  920MOL0     H26910   5.215  -0.601   5.520 -0.6354 -0.8820  0.7643
  920MOL0     H26911   5.083  -0.612   5.634 -0.4613 -2.2854 -1.6943
  920MOL0     H26912   5.186  -0.406   5.750 -0.3253 -1.0158  0.3665
  920MOL0     H26913   5.261  -0.563   5.770  0.6852 -1.4173 -2.4296
  920MOL0     H26914   5.447  -0.415   5.728 -1.9541  0.4706  0.7302
  920MOL0     H26915   5.427  -0.489   5.576 -3.0020 -3.3580  0.8730
  920MOL0     H26916   5.467  -0.246   5.574  1.5852 -1.9359  0.6777
  920MOL0     H26917   5.329  -0.278   5.479 -1.3829 -2.7376  1.0136
  920MOL0     H26918   5.457  -0.027   5.470  3.0089  3.0665  0.5685
  920MOL0     H26919   5.566   0.256   5.461 -0.4639 -1.7944  1.3466
  920MOL0     H26920   5.438   0.285   5.346 -3.2926  0.1482  1.1981
  920MOL0     H26921   5.525   0.134   5.336  0.5450 -0.8163  0.9270
  920MOL0     H26922   5.313   0.526   5.768  2.0990 -0.5013  0.1963
  920MOL0     H26923   5.278   0.757   5.849 -2.1271  0.7144 -0.4223
  920MOL0     H26924   5.124   0.971   5.808 -1.9093  3.2746  0.4341
  920MOL0     H26925   5.281   1.012   5.896 -1.4097  1.3297  1.3540
  920MOL0     H26926   5.182   1.203   5.909 -1.3626 -0.6768  0.3416
  920MOL0     H26927   5.287   1.223   5.768 -1.7491  3.2530 -1.9593
  920MOL0     H26928   4.993   1.158   5.741  0.3453 -2.1407 -2.3883
  920MOL0     H26929   5.110   1.191   5.610  2.0236 -0.0001  0.5187
  920MOL0     H26930   5.146   1.426   5.725  0.5879 -0.4604 -1.0384
  920MOL0     H26931   5.024   1.378   5.838  0.7644 -1.8640  1.3051
  920MOL0     H26932   4.981   1.410   5.537  3.8893 -0.6696  1.2760
  920MOL0     H26933   4.872   1.318   5.630  2.7070 -3.3440  2.4054
  920MOL0     H26934   4.935   1.622   5.706 -0.2945 -0.8702 -0.0212
  920MOL0     H26935   4.800   1.527   5.754 -2.0794  2.4591 -1.1660
  920MOL0     H26936   4.835   1.623   5.465 -2.3728  3.0789  0.9643
  920MOL0     H26937   4.716   1.678   5.576  0.4425 -0.3597  1.0662
  920MOL0     H26938   4.737   1.395   5.456  1.2799  1.4060  0.0468
  920MOL0     H26939   4.611   1.508   5.433  2.7670  2.3025 -2.0923
  920MOL0     H26940   5.305   0.892   5.447 -2.0945 -1.2024 -0.3634
  920MOL0     H26941   5.339   0.673   5.370  1.1512 -0.0774  0.1306
  920MOL0     H26942   5.084   0.221   5.661 -0.1801  0.1740 -2.5406
  920MOL0     H26943   5.109  -0.030   5.709  0.6393 -0.6094  0.2708
  920MOL0     H26944   5.199   0.630   5.002 -2.1867 -2.7969 -1.5035
  920MOL0     H26945   5.301   0.786   4.841 -0.4271  1.4531 -4.6206
  920MOL0     H26946   5.076   1.330   4.603 -1.1347 -1.1887 -1.0878
  920MOL0     H26947   5.221   1.517   4.511  0.3279 -0.9311 -1.2404
  920MOL0     H26948   5.362   1.613   4.351 -0.8094 -2.7381  1.5300
  920MOL0     H26949   5.385   1.675   4.510 -0.1864  1.7711 -1.3636
  920MOL0     H26950   5.515   1.797   4.346  0.5732  0.7691 -1.1925
  920MOL0     H26951   5.608   1.641   4.315 -3.1522 -1.3034  0.5698
  920MOL0     H26952   5.700   1.857   4.460  0.9284 -0.7896 -0.6894
  920MOL0     H26953   5.593   1.807   4.580  1.3136  2.3086  0.7772
  920MOL0     H26954   5.718   1.572   4.564  5.4285 -3.2265 -4.5099
  920MOL0     H26955   5.782   1.711   4.647  0.9486 -6.0738  2.3150
  920MOL0     H26956   6.027   1.669   4.287 -0.6810 -0.6404 -0.2988
  920MOL0     H26957   5.546   1.233   4.477 -0.7940 -2.9272  1.0713
  920MOL0     H26958   5.365   0.966   4.548 -0.1979 -0.2720  0.4924
  920MOL0     H26959   5.534   1.028   4.576 -1.3090  0.4927 -4.2146
  920MOL0     H26960   5.429   1.002   4.716  1.7524  3.4148  1.2990
  921MOL0     O26961   6.940   8.111  10.625  0.5261 -0.2003  0.5148
  921MOL0     C26962   6.819   8.099  10.590 -0.0104 -0.7599 -0.5765
  921MOL0     O26963   6.726   8.016  10.651  0.0964  0.2284 -0.0929
  921MOL0     C26964   6.757   7.966  10.778 -0.1765  0.4346 -0.4316
  921MOL0     C26965   6.732   8.035  10.895 -0.0930 -0.2558  0.1912
  921MOL0     C26966   6.772   7.977  11.016 -0.1170 -0.1872  0.1285
  921MOL0     C26967   6.826   7.848  11.018  0.4841 -0.2959 -0.4417
  921MOL0     O26968   6.833   7.794  11.146  0.7075 -0.2039 -0.0853
  921MOL0     C26969   6.944   7.711  11.171 -0.4232  0.4151  0.8039
  921MOL0     C26970   7.065   7.806  11.200 -0.7095 -0.4907 -0.0171
  921MOL0     C26971   7.206   7.739  11.179  0.5190 -0.0610  0.2672
  921MOL0     C26972   7.256   7.703  11.037 -0.1093  0.5826  0.0010
  921MOL0     C26973   7.268   7.830  10.956  0.5073 -0.3031 -0.1783
  921MOL0     C26974   7.303   7.795  10.804  0.6873  0.1422  0.5392
  921MOL0     C26975   7.345   7.920  10.731  0.0931  0.2912  0.6021
  921MOL0     C26976   7.231   7.970  10.641 -0.2415  0.4653  0.9374
  921MOL0     N26977   7.257   8.097  10.578 -0.0818 -0.1866  0.6370
  921MOL0     C26978   7.239   8.216  10.634  0.1843  0.2336 -0.6313
  921MOL0     C26979   7.301   8.304  10.554  1.1319 -0.3236 -0.3645
  921MOL0     C26980   7.298   8.453  10.571  1.1474 -0.0632  1.3274
  921MOL0     C26981   7.419   8.519  10.652  0.0505  0.4485  0.8313
  921MOL0     C26982   7.545   8.566  10.574  0.9960 -0.0112  0.0462
  921MOL0     C26983   7.651   8.628  10.663 -0.2012  0.0095  0.5998
  921MOL0     O26984   7.606   8.648  10.795  0.0535 -0.0578  0.3351
  921MOL0     C26985   7.686   8.702  10.895  0.5236  0.1942 -0.0365
  921MOL0     C26986   7.610   8.727  11.011  0.0727  0.1044 -0.7370
  921MOL0     C26987   7.666   8.786  11.120  0.2574 -1.0427  0.5649
  921MOL0     C26988   7.600   8.797  11.257  0.4297  0.0196  0.0674
  921MOL0     C26989   7.804   8.849  11.103 -0.2921  0.2874  0.2223
  921MOL0     C26990   7.879   8.925  11.205  1.0986  0.1308 -0.7663
  921MOL0     O26991   7.807   9.005  11.291 -1.0730 -0.2314 -1.0285
  921MOL0     C26992   7.878   9.080  11.384 -0.2269 -0.2045  0.0364
  921MOL0     C26993   7.855   9.061  11.518 -0.1184  0.3475 -0.4598
  921MOL0     C26994   7.905   9.156  11.618 -0.2608 -0.1999 -0.1733
  921MOL0     C26995   7.988   9.259  11.569  0.5725  0.1467 -0.0913
  921MOL0     O26996   8.029   9.362  11.647  0.1482  0.3982  0.5521
  921MOL0     C26997   7.977   9.401  11.767  0.3937 -0.4732 -0.2953
  921MOL0     C26998   8.013   9.549  11.810  0.9208 -0.1796  0.1525
  921MOL0     C26999   8.154   9.558  11.854 -0.1663  0.0187  0.1159
  921MOL0     C27000   8.178   9.702  11.895 -0.3021 -1.0129  0.8326
  921MOL0     C27001   8.092   9.745  12.020 -0.0040  0.1377  0.8821
  921MOL0     C27002   8.143   9.879  12.080 -0.0015 -0.1889  0.7495
  921MOL0     C27003   8.089   9.913  12.221 -0.2348 -0.2429  0.1754
  921MOL0     C27004   8.166   9.856  12.337 -0.9254 -0.2940 -0.7450
  921MOL0    Cl27005   8.088   9.699  12.375 -0.3227  0.0334  0.3361
  921MOL0     C27006   8.013   9.273  11.435 -0.3339 -0.0910  0.1374
  921MOL0     C27007   7.948   9.195  11.339  0.6357  0.8644 -0.0622
  921MOL0     O27008   8.002   8.922  11.191 -0.2164 -0.1940 -0.4959
  921MOL0     C27009   7.872   8.829  10.986 -0.4962 -0.3929 -0.6438
  921MOL0     C27010   7.816   8.753  10.880  0.6894 -0.4527 -0.5198
  921MOL0     N27011   7.369   8.241  10.447  0.5971  0.9477 -0.1012
  921MOL0     N27012   7.326   8.114  10.465  0.1156 -0.7853  0.5192
  921MOL0     C27013   6.855   7.778  10.901  0.3698 -0.5909  1.3108
  921MOL0     C27014   6.810   7.840  10.785  0.0693  0.4334 -1.1058
  921MOL0     C27015   6.766   8.181  10.477 -0.8512  0.6926 -0.4531
  921MOL0     C27016   6.662   8.120  10.405 -0.0742  0.0635 -0.6207
  921MOL0     C27017   6.613   8.181  10.293 -0.9614 -0.9960  0.1006
  921MOL0     C27018   6.662   8.303  10.257  0.6597 -0.5396  0.1232
  921MOL0     O27019   6.606   8.362  10.138  0.3310  0.3832  0.3753
  921MOL0     C27020   6.473   8.330  10.085  0.0273  0.2839  0.5723
  921MOL0     C27021   6.442   8.393   9.944 -0.2145 -0.5041  0.2247
  921MOL0     C27022   6.546   8.347   9.836 -0.2480 -1.2000 -1.2464
  921MOL0     C27023   6.559   8.457   9.737  0.2679 -0.0214  0.7924
  921MOL0     C27024   6.585   8.389   9.612  0.4713 -0.2438  0.4079
  921MOL0     C27025   6.600   8.355   9.497  0.4100 -0.0184 -0.0736
  921MOL0     C27026   6.759   8.376  10.322  1.0440  0.4271 -0.7029
  921MOL0     C27027   6.809   8.311  10.437  0.7907 -0.8024 -0.2537
  921MOL0     C27028   6.923   8.376  10.495 -0.3368 -0.4646  0.1501
  921MOL0     H27029   6.690   8.134  10.904 -2.9371 -1.5250  2.4915
  921MOL0     H27030   6.747   8.034  11.105 -1.4327  1.1456 -1.0462
  921MOL0     H27031   6.950   7.632  11.095  0.4085 -1.3442  2.6026
  921MOL0     H27032   6.932   7.652  11.263  2.4989  0.6177  1.3968
  921MOL0     H27033   7.064   7.882  11.121  0.0842 -3.9948 -3.7422
  921MOL0     H27034   7.050   7.849  11.299 -3.4097 -1.4321  0.0722
  921MOL0     H27035   7.279   7.801  11.232  1.9352  0.0861 -1.7594
  921MOL0     H27036   7.206   7.645  11.235  1.9351  0.3371  0.9721
  921MOL0     H27037   7.355   7.663  11.060  0.4161  3.4190  3.9178
  921MOL0     H27038   7.200   7.622  10.990 -1.6923  0.1011  2.4895
  921MOL0     H27039   7.342   7.896  11.002  1.4139  0.1438 -2.1500
  921MOL0     H27040   7.173   7.885  10.952 -0.2150 -1.4610  0.4201
  921MOL0     H27041   7.380   7.718  10.810  0.3488 -0.4456 -1.8208
  921MOL0     H27042   7.214   7.761  10.751  1.0927  0.8590 -0.6348
  921MOL0     H27043   7.426   7.893  10.663  3.0223 -0.2509  4.0381
  921MOL0     H27044   7.387   7.996  10.797 -1.1181  0.7244  0.9107
  921MOL0     H27045   7.215   7.895  10.563 -1.8451  1.0490  0.6582
  921MOL0     H27046   7.139   7.981  10.700  0.2286 -0.5909  1.8875
  921MOL0     H27047   7.184   8.247  10.722  1.3239  0.3268  0.0743
  921MOL0     H27048   7.200   8.481  10.611  0.4299 -1.7010  0.8187
  921MOL0     H27049   7.301   8.492  10.469  1.8667  2.0696  2.1027
  921MOL0     H27050   7.385   8.600  10.716 -0.6940  1.0998 -0.3541
  921MOL0     H27051   7.455   8.432  10.708  1.7495  0.5885 -0.0028
  921MOL0     H27052   7.600   8.483  10.529  1.7328 -0.9300  2.4870
  921MOL0     H27053   7.513   8.641  10.502 -1.1145  1.1691  2.0597
  921MOL0     H27054   7.731   8.554  10.665  0.5375  0.7741  0.0822
  921MOL0     H27055   7.672   8.721  10.609 -1.4473 -0.7673 -1.3386
  921MOL0     H27056   7.507   8.695  11.025  1.1921 -2.7913  2.6466
  921MOL0     H27057   7.569   8.901  11.274 -1.8370 -0.7335  0.8777
  921MOL0     H27058   7.666   8.766  11.339  2.0037  1.3037 -0.6379
  921MOL0     H27059   7.509   8.737  11.266  0.2603  0.3328  0.5375
  921MOL0     H27060   7.789   8.980  11.548 -0.5728  1.3103  1.2832
  921MOL0     H27061   7.881   9.140  11.723 -1.0943  2.7103  0.1469
  921MOL0     H27062   7.868   9.409  11.768  0.4704  1.5329  2.2243
  921MOL0     H27063   8.009   9.334  11.847 -0.6842 -0.6967 -0.0361
  921MOL0     H27064   7.994   9.629  11.738 -1.8699 -0.6660  0.2279
  921MOL0     H27065   7.937   9.569  11.886 -0.9777 -2.1101 -1.1214
  921MOL0     H27066   8.222   9.522  11.775  0.1087  0.4663  0.1428
  921MOL0     H27067   8.164   9.497  11.944  2.1001 -0.6119 -0.4900
  921MOL0     H27068   8.154   9.770  11.813  0.5634 -2.2596 -0.4930
  921MOL0     H27069   8.284   9.724  11.909 -0.7732  0.5467  2.4281
  921MOL0     H27070   7.986   9.747  11.992  0.1163 -0.0037  0.4084
  921MOL0     H27071   8.101   9.665  12.095 -4.1469 -0.7925  0.6316
  921MOL0     H27072   8.118   9.953  12.003  1.3964 -0.6653 -0.2193
  921MOL0     H27073   8.252   9.878  12.085  0.0313 -0.7901  0.1418
  921MOL0     H27074   7.982   9.888  12.215 -0.2751  0.1637 -1.0442
  921MOL0     H27075   8.102  10.021  12.229 -2.3916  0.0543  0.2687
  921MOL0     H27076   8.154   9.916  12.428  4.7326 -1.3326  1.1165
  921MOL0     H27077   8.273   9.861  12.312 -0.1492  0.3306  2.2596
  921MOL0     H27078   8.080   9.342  11.385 -0.5749 -0.2209 -0.3691
  921MOL0     H27079   7.947   9.238  11.239 -3.5974  0.5887 -0.3265
  921MOL0     H27080   7.971   8.870  10.971 -1.3674  2.0838 -0.0813
  921MOL0     H27081   7.864   8.717  10.790  1.1994 -2.0254  0.3333
  921MOL0     H27082   6.907   7.683  10.898  1.1905 -0.2235  2.6884
  921MOL0     H27083   6.831   7.796  10.688  1.4650  2.2576 -1.6991
  921MOL0     H27084   6.630   8.022  10.440  1.0190 -0.6733 -1.6159
  921MOL0     H27085   6.526   8.138  10.244 -1.3773  1.8299 -1.8779
  921MOL0     H27086   6.462   8.222  10.073 -0.3554  0.2656  1.0491
  921MOL0     H27087   6.394   8.368  10.151  0.5433  6.5966 -1.7952
  921MOL0     H27088   6.443   8.502   9.958 -3.7064  0.0749 -2.4355
  921MOL0     H27089   6.350   8.347   9.907  0.2631 -1.0441 -0.3044
  921MOL0     H27090   6.644   8.341   9.885  1.0482  2.2360 -3.1087
  921MOL0     H27091   6.513   8.250   9.798  1.2330 -3.8241  3.2792
  921MOL0     H27092   6.633   8.534   9.760  0.2444  0.0583  0.6075
  921MOL0     H27093   6.467   8.514   9.718 -0.3340 -1.0794  0.4226
  921MOL0     H27094   6.591   8.331   9.393 -2.0174 -2.8352  0.6458
  921MOL0     H27095   6.796   8.474  10.293  0.3216  0.8047 -0.3800
  921MOL0     H27096   7.016   8.326  10.464 -0.3469  0.3294 -1.2449
  921MOL0     H27097   6.916   8.484  10.479 -0.0622 -0.2213  1.5270
  921MOL0     H27098   6.907   8.369  10.603  0.4559 -0.5146  0.2765
  922MOL0     O27099   9.559   7.775  10.442  0.2776 -0.0860 -0.2648
  922MOL0     C27100   9.577   7.868  10.522 -0.0457 -0.2073 -0.0932
  922MOL0     O27101   9.475   7.961  10.572 -0.3102  1.0226  1.2368
  922MOL0     C27102   9.339   7.936  10.538 -0.5392  1.5686 -1.1403
  922MOL0     C27103   9.265   8.017  10.448 -0.4522 -0.8298 -0.4991
  922MOL0     C27104   9.126   8.009  10.435 -0.3648 -0.2472 -0.2613
  922MOL0     C27105   9.055   7.930  10.520 -0.3182  0.5848 -0.0710
  922MOL0     O27106   8.922   7.924  10.506 -0.2876 -1.1093  0.5762
  922MOL0     C27107   8.845   7.808  10.553  0.6810  0.0702  0.5779
  922MOL0     C27108   8.693   7.829  10.511 -0.2203 -0.1582 -0.3473
  922MOL0     C27109   8.629   7.695  10.473 -0.3085  0.3620  0.4183
  922MOL0     C27110   8.473   7.695  10.453 -0.1449 -0.1519 -0.0405
  922MOL0     C27111   8.413   7.551  10.409 -0.3554 -0.6659 -0.7324
  922MOL0     C27112   8.263   7.544  10.396 -0.0517  0.8191  0.0460
  922MOL0     C27113   8.222   7.540  10.242  0.6622  0.3681 -0.2995
  922MOL0     C27114   8.224   7.673  10.169  0.4619  0.3555  1.0849
  922MOL0     N27115   8.139   7.668  10.050  1.0795  0.5719 -0.6036
  922MOL0     C27116   8.180   7.658   9.922 -0.6120  0.1929 -0.1698
  922MOL0     C27117   8.061   7.650   9.852 -0.0330  0.2578 -0.1705
  922MOL0     C27118   8.044   7.634   9.702 -0.1174 -0.2039  0.8521
  922MOL0     C27119   8.061   7.490   9.666  0.8295 -0.5825  0.3004
  922MOL0     C27120   8.207   7.463   9.602  1.0072 -0.5483 -1.1202
  922MOL0     C27121   8.221   7.326   9.532  0.8609  0.2072 -0.3960
  922MOL0     O27122   8.181   7.216   9.619 -0.4963  0.5745  0.2796
  922MOL0     C27123   8.284   7.140   9.664 -0.7534 -1.0496 -0.9118
  922MOL0     C27124   8.401   7.180   9.720  0.2175 -0.1685  0.8758
  922MOL0     C27125   8.488   7.085   9.784  0.8071 -0.0495 -0.5550
  922MOL0     C27126   8.621   7.139   9.817 -0.1972  0.2471 -0.5011
  922MOL0     C27127   8.443   6.949   9.807 -0.3700  0.0756 -0.3498
  922MOL0     C27128   8.530   6.847   9.873  0.0033 -0.2192  0.3374
  922MOL0     O27129   8.635   6.885   9.952 -0.0037 -0.1384  0.1824
  922MOL0     C27130   8.695   6.813  10.052 -0.3708 -0.2915 -0.5097
  922MOL0     C27131   8.659   6.692  10.113  0.3869  0.3186  0.7858
  922MOL0     C27132   8.738   6.642  10.215  0.1952 -0.8979 -0.6479
  922MOL0     C27133   8.865   6.697  10.242  0.4031 -0.3239 -0.0886
  922MOL0     O27134   8.958   6.658  10.331 -0.5016 -0.0243 -1.0421
  922MOL0     C27135   8.926   6.546  10.426 -0.0286 -1.0163  0.3146
  922MOL0     C27136   8.801   6.571  10.522  0.6604  0.2082 -0.2422
  922MOL0     C27137   8.831   6.699  10.595 -0.1985 -0.3787  0.3955
  922MOL0     C27138   8.715   6.727  10.687 -1.3735 -0.1282 -0.2645
  922MOL0     C27139   8.704   6.846  10.773  0.4382 -0.1479  0.2569
  922MOL0     C27140   8.828   6.865  10.859  0.3593 -0.1310 -0.7293
  922MOL0     C27141   8.827   6.992  10.958 -1.0795  1.2354  0.1903
  922MOL0     C27142   8.704   7.005  11.043 -0.3933 -0.4472  0.3191
  922MOL0    Cl27143   8.691   6.894  11.173  0.7294  0.0880 -0.4910
  922MOL0     C27144   8.908   6.801  10.171 -1.5347  0.8959  0.6429
  922MOL0     C27145   8.828   6.864  10.077 -0.9456  0.0285  0.0466
  922MOL0     O27146   8.492   6.728   9.852 -0.5004  0.8786  0.5227
  922MOL0     C27147   8.322   6.914   9.739  0.1101 -0.1236 -0.1589
  922MOL0     C27148   8.245   7.008   9.668 -0.2484 -0.2262 -0.0526
  922MOL0     N27149   7.959   7.661   9.944 -0.4460 -0.2852 -0.1894
  922MOL0     N27150   8.010   7.682  10.056 -0.6792 -1.0678  0.6386
  922MOL0     C27151   9.126   7.846  10.605  0.4910 -0.6695  0.8602
  922MOL0     C27152   9.269   7.841  10.618  0.7034 -0.4205 -0.8298
  922MOL0     C27153   9.711   7.891  10.579  0.3824 -0.4974  0.8754
  922MOL0     C27154   9.739   8.022  10.614  0.2646 -0.5604 -0.8174
  922MOL0     C27155   9.865   8.061  10.672  0.0012 -0.7775 -0.2182
  922MOL0     C27156   9.973   7.976  10.686  0.0601 -0.6781 -0.7808
  922MOL0     O27157  10.091   8.018  10.743 -0.4045 -0.8634 -0.1813
  922MOL0     C27158  10.207   7.929  10.746 -0.0171 -1.0518  0.8612
  922MOL0     C27159  10.266   7.913  10.603  0.5222  0.8770  0.0766
  922MOL0     C27160  10.345   7.780  10.591 -0.1195  0.1231 -0.5195
  922MOL0     C27161  10.494   7.798  10.632  0.5576 -0.4560 -0.6624
  922MOL0     C27162  10.513   7.798  10.783 -0.5138 -0.0041  0.2906
  922MOL0     C27163  10.540   7.825  10.897 -0.3187 -0.8029 -0.0028
  922MOL0     C27164   9.944   7.840  10.633 -0.5104 -0.1011  0.3449
  922MOL0     C27165   9.818   7.801  10.577 -0.0292 -1.4230 -0.0191
  922MOL0     C27166   9.806   7.663  10.527 -0.5260  0.4896 -0.4079
  922MOL0     H27167   9.312   8.093  10.385 -0.7151  0.9120  1.3201
  922MOL0     H27168   9.084   8.086  10.371 -1.9441 -1.3429 -0.5895
  922MOL0     H27169   8.858   7.806  10.661 -1.0573 -1.2285  0.7993
  922MOL0     H27170   8.878   7.708  10.523 -1.2626 -0.5947  0.5375
  922MOL0     H27171   8.635   7.857  10.600 -5.1506 -0.5500 -3.0924
  922MOL0     H27172   8.664   7.894  10.428 -0.0403  2.3505  1.4594
  922MOL0     H27173   8.662   7.672  10.372 -1.1805 -1.2518  0.4656
  922MOL0     H27174   8.647   7.616  10.548 -0.8261  2.0408  2.4015
  922MOL0     H27175   8.418   7.739  10.538 -0.6722 -2.4810  0.8916
  922MOL0     H27176   8.445   7.762  10.371  1.6880  1.5890  0.6693
  922MOL0     H27177   8.451   7.467  10.469 -0.6944 -1.6786 -1.8764
  922MOL0     H27178   8.464   7.523  10.316  0.8870 -1.4353  0.1495
  922MOL0     H27179   8.235   7.455  10.453 -0.6497  0.4943 -0.7419
  922MOL0     H27180   8.209   7.620  10.455  0.0130  0.7569  0.1860
  922MOL0     H27181   8.127   7.487  10.237  1.0751 -0.4238  0.0403
  922MOL0     H27182   8.290   7.465  10.201  3.6688  2.3144  0.8298
  922MOL0     H27183   8.176   7.750  10.230  2.3475  0.6919  2.2116
  922MOL0     H27184   8.328   7.693  10.143  1.0411 -2.3207  1.0551
  922MOL0     H27185   8.278   7.644   9.877 -0.0379  0.7415  0.8554
  922MOL0     H27186   8.112   7.695   9.642  0.2241  1.4656  2.8214
  922MOL0     H27187   7.944   7.667   9.671  0.1895 -1.6937 -2.0706
  922MOL0     H27188   8.047   7.428   9.755 -1.4435  0.5455  0.8065
  922MOL0     H27189   7.988   7.467   9.588 -0.1211  0.8246  0.7376
  922MOL0     H27190   8.238   7.539   9.531 -0.4289  1.7562  0.5791
  922MOL0     H27191   8.267   7.476   9.692 -3.7031 -0.2217  2.3841
  922MOL0     H27192   8.151   7.336   9.448  0.6508  0.8018 -0.1618
  922MOL0     H27193   8.320   7.316   9.488  0.2349 -1.0858 -1.5985
  922MOL0     H27194   8.428   7.282   9.693 -1.3325 -0.1032 -0.6476
  922MOL0     H27195   8.639   7.111   9.921 -1.5642  0.5860 -0.1518
  922MOL0     H27196   8.618   7.248   9.807  1.2899  1.1392  5.2630
  922MOL0     H27197   8.697   7.105   9.746 -1.3756 -3.9961  0.0159
  922MOL0     H27198   8.570   6.641  10.078  2.2458 -0.4438 -3.3923
  922MOL0     H27199   8.701   6.546  10.249 -2.1919 -0.6876 -2.3641
  922MOL0     H27200   8.904   6.460  10.363 -2.0571 -0.5859  0.3591
  922MOL0     H27201   9.019   6.532  10.481 -0.3030 -0.4690  0.9337
  922MOL0     H27202   8.699   6.559  10.485  0.3358 -5.0799  1.5155
  922MOL0     H27203   8.806   6.489  10.594 -0.6342 -0.8828 -1.3417
  922MOL0     H27204   8.839   6.774  10.516 -2.6803 -2.1347 -1.6711
  922MOL0     H27205   8.927   6.684  10.646 -0.0118  1.5078  0.6643
  922MOL0     H27206   8.723   6.643  10.757  0.5642 -0.0131 -0.3103
  922MOL0     H27207   8.622   6.735  10.630 -1.8569  1.9445  0.7281
  922MOL0     H27208   8.701   6.928  10.701  2.4733 -1.4274 -1.3978
  922MOL0     H27209   8.618   6.841  10.841  0.7342 -5.0601  0.6165
  922MOL0     H27210   8.916   6.874  10.795  0.2130  1.8823 -0.6933
  922MOL0     H27211   8.839   6.768  10.909  2.4639  0.4826  0.1337
  922MOL0     H27212   8.845   7.078  10.893  0.3260  1.7314  1.1574
  922MOL0     H27213   8.912   6.988  11.027 -0.3402  1.2304 -0.7020
  922MOL0     H27214   8.617   7.008  10.977 -0.0118 -0.9645 -0.2228
  922MOL0     H27215   8.705   7.105  11.086  1.8135 -0.0999 -0.3690
  922MOL0     H27216   9.014   6.824  10.181 -0.9979  0.0759 -2.2041
  922MOL0     H27217   8.868   6.949  10.022 -2.0829 -0.7667 -2.1320
  922MOL0     H27218   8.297   6.810   9.723  2.1508 -1.1652  2.5354
  922MOL0     H27219   8.152   6.982   9.619 -1.6850  1.3588  1.6832
  922MOL0     H27220   9.068   7.772  10.659 -1.0894 -1.2601 -1.5233
  922MOL0     H27221   9.326   7.779  10.687  0.3006 -0.8919 -0.9126
  922MOL0     H27222   9.656   8.091  10.616 -1.5036 -2.5535 -1.6019
  922MOL0     H27223   9.868   8.161  10.714 -2.3019 -0.3230 -1.0019
  922MOL0     H27224  10.283   7.975  10.809  0.5217  0.0423 -0.5484
  922MOL0     H27225  10.176   7.832  10.787  0.0166 -1.0194  0.9630
  922MOL0     H27226  10.325   7.996  10.564  1.7824 -0.4583 -1.0108
  922MOL0     H27227  10.186   7.900  10.529  0.4506  2.9390 -0.2433
  922MOL0     H27228  10.290   7.699  10.640 -0.8130  1.6587  1.3714
  922MOL0     H27229  10.344   7.748  10.486  1.7204 -0.3217 -0.4366
  922MOL0     H27230  10.534   7.892  10.593 -0.3621  0.8458  1.3988
  922MOL0     H27231  10.550   7.723  10.574 -2.0628 -1.0834 -2.5674
  922MOL0     H27232  10.559   7.852  10.999 -2.4300  0.3160  0.1298
  922MOL0     H27233  10.029   7.772  10.639  0.1240  0.5652 -0.7702
  922MOL0     H27234   9.890   7.604  10.565  1.0747  0.4966 -3.5776
  922MOL0     H27235   9.717   7.615  10.569  0.4332 -0.2614  0.8372
  922MOL0     H27236   9.815   7.661  10.418  2.7678 -0.1407 -0.2327
  923MOL0     O27237   5.957   2.777   1.122 -0.0267 -0.2082 -0.9051
  923MOL0     C27238   6.037   2.688   1.109  0.0574 -0.5027  0.0130
  923MOL0     O27239   6.170   2.704   1.107  0.2987 -0.8637 -0.4773
  923MOL0     C27240   6.228   2.822   1.136  0.1665 -0.2294  0.1959
  923MOL0     C27241   6.334   2.880   1.055  0.0447  1.2644 -0.0921
  923MOL0     C27242   6.406   2.999   1.088  0.2786 -0.1509 -0.8358
  923MOL0     C27243   6.384   3.067   1.212 -0.2484 -0.1095 -0.5469
  923MOL0     O27244   6.448   3.184   1.258 -0.3480 -0.5097  0.5397
  923MOL0     C27245   6.523   3.257   1.157 -0.3545 -0.2539 -0.6951
  923MOL0     C27246   6.576   3.378   1.231 -0.0547  0.1323  0.2405
  923MOL0     C27247   6.459   3.476   1.278 -0.5532 -0.3301  0.0609
  923MOL0     C27248   6.375   3.538   1.171  0.1204  0.0217  0.4534
  923MOL0     C27249   6.258   3.631   1.224  0.1311 -0.8637  0.2167
  923MOL0     C27250   6.150   3.546   1.301  0.5017  1.0207 -0.2341
  923MOL0     C27251   6.018   3.620   1.338  0.7331  0.0263  0.7916
  923MOL0     C27252   5.913   3.513   1.392  0.8821 -0.5343 -0.2280
  923MOL0     N27253   5.775   3.573   1.390 -0.6665  0.4340  0.2866
  923MOL0     C27254   5.682   3.551   1.290 -0.1493 -0.0154 -0.0716
  923MOL0     C27255   5.570   3.615   1.328  0.3212  0.6532 -0.5106
  923MOL0     C27256   5.443   3.621   1.250  0.3608  0.4257 -0.0608
  923MOL0     C27257   5.332   3.529   1.303  0.0675  0.7185  0.5913
  923MOL0     C27258   5.195   3.540   1.232  0.3612 -0.3741  0.4860
  923MOL0     C27259   5.190   3.492   1.092  0.5868 -0.0478 -0.3093
  923MOL0     O27260   5.221   3.359   1.086 -1.1778  0.4444 -0.6355
  923MOL0     C27261   5.222   3.313   0.955  0.6929  0.2705  0.0513
  923MOL0     C27262   5.148   3.363   0.842  0.4984  0.4320  1.3880
  923MOL0     C27263   5.160   3.315   0.703 -0.6122 -0.2205  0.1141
  923MOL0     C27264   5.065   3.380   0.603 -0.3024 -0.6287 -0.2365
  923MOL0     C27265   5.261   3.219   0.677  0.4181  0.0753 -0.2998
  923MOL0     C27266   5.297   3.196   0.540  0.0040 -0.9273  0.2821
  923MOL0     O27267   5.290   3.072   0.491  0.5630 -0.0408 -0.2111
  923MOL0     C27268   5.240   2.970   0.566 -0.0259 -0.4678 -0.1248
  923MOL0     C27269   5.104   2.947   0.574  0.0669 -0.0293  0.2189
  923MOL0     C27270   5.070   2.837   0.653 -0.0726  1.1425 -0.4544
  923MOL0     C27271   5.163   2.745   0.703  0.2219 -1.6643  0.3826
  923MOL0     O27272   5.120   2.645   0.785 -0.3557  0.2513  0.3776
  923MOL0     C27273   5.144   2.508   0.753  0.9125 -1.4615  1.2051
  923MOL0     C27274   5.074   2.420   0.852  0.1384 -0.1716  0.3258
  923MOL0     C27275   5.071   2.266   0.813  0.0495  0.1407  0.4659
  923MOL0     C27276   4.980   2.178   0.909  0.6743 -0.0577  1.0568
  923MOL0     C27277   5.045   2.178   1.062  0.6598 -0.9010  0.5221
  923MOL0     C27278   4.962   2.072   1.142  0.1679  0.0657  0.7593
  923MOL0     C27279   4.814   2.114   1.145 -0.1129  0.6139 -0.1060
  923MOL0     C27280   4.733   2.008   1.213  1.4163 -0.4715 -0.4199
  923MOL0    Cl27281   4.726   1.862   1.118  0.1603 -0.5941 -0.1811
  923MOL0     C27282   5.297   2.772   0.678 -0.0811 -0.0238  0.6696
  923MOL0     C27283   5.341   2.884   0.607  0.5454 -0.2443  0.0825
  923MOL0     O27284   5.336   3.290   0.473 -0.3273  0.2231  0.3279
  923MOL0     C27285   5.343   3.175   0.794 -0.2730  0.5270  0.9309
  923MOL0     C27286   5.313   3.209   0.926 -0.1712 -0.7001 -0.0933
  923MOL0     N27287   5.596   3.653   1.462 -0.3538 -0.3895  0.2541
  923MOL0     N27288   5.722   3.643   1.487  0.5459  0.2123 -0.0229
  923MOL0     C27289   6.292   3.000   1.298 -0.3674  1.4930 -0.0739
  923MOL0     C27290   6.218   2.887   1.255  1.2478 -0.3223 -0.2892
  923MOL0     C27291   5.986   2.551   1.072 -0.6702  0.1606  0.0640
  923MOL0     C27292   5.907   2.495   1.175  0.4818 -0.5931  0.1172
  923MOL0     C27293   5.886   2.358   1.175 -0.4102 -0.6030  0.3743
  923MOL0     C27294   5.913   2.283   1.056  0.5501 -0.2964  0.4002
  923MOL0     O27295   5.872   2.151   1.051 -0.1312 -0.0346  0.0812
  923MOL0     C27296   5.967   2.056   1.003 -1.1140  0.1278 -0.4356
  923MOL0     C27297   5.936   1.923   1.059  0.0589 -0.7646 -0.2987
  923MOL0     C27298   5.985   1.913   1.205 -0.3857  0.5555 -1.0597
  923MOL0     C27299   5.870   1.979   1.306 -0.0171 -0.1439 -0.0807
  923MOL0     C27300   5.889   1.954   1.451 -0.0834 -0.2846  0.3846
  923MOL0     C27301   5.919   1.931   1.559 -0.7174  0.7401  0.2306
  923MOL0     C27302   5.987   2.346   0.943 -0.0800  0.3914 -0.3226
  923MOL0     C27303   6.026   2.477   0.951 -0.4615  0.8492 -0.8016
  923MOL0     C27304   6.105   2.544   0.841 -0.9060  0.3177 -0.2231
  923MOL0     H27305   6.362   2.836   0.960  1.1577  0.0753  0.7533
  923MOL0     H27306   6.493   3.041   1.038 -0.3542  0.5190 -1.3952
  923MOL0     H27307   6.475   3.290   1.065 -0.0704  1.5219 -0.2549
  923MOL0     H27308   6.608   3.200   1.118  0.9352  0.3955  1.0009
  923MOL0     H27309   6.634   3.349   1.319 -0.5377  0.4407  0.6706
  923MOL0     H27310   6.638   3.434   1.160 -2.9436  0.3352 -2.3376
  923MOL0     H27311   6.397   3.419   1.349 -1.4281 -0.0111 -0.4329
  923MOL0     H27312   6.515   3.555   1.328  0.5932 -1.0505 -0.0271
  923MOL0     H27313   6.438   3.600   1.107 -0.8315  1.5319  0.9302
  923MOL0     H27314   6.327   3.457   1.115  1.2464 -1.5433  1.6284
  923MOL0     H27315   6.217   3.701   1.150  0.2456  2.9028  3.3668
  923MOL0     H27316   6.295   3.700   1.300  3.4707 -2.8027  0.5313
  923MOL0     H27317   6.128   3.463   1.234  3.0745 -0.2728  0.3926
  923MOL0     H27318   6.194   3.502   1.391 -1.5896 -1.9184 -0.4937
  923MOL0     H27319   5.968   3.677   1.259 -4.4068 -1.4481  2.6011
  923MOL0     H27320   6.044   3.696   1.412  0.5582  1.5440 -0.6572
  923MOL0     H27321   5.905   3.421   1.335 -2.7366 -1.4768  1.5477
  923MOL0     H27322   5.949   3.482   1.491 -1.7591  1.0764  1.3857
  923MOL0     H27323   5.693   3.498   1.196 -1.0123  1.4376 -1.0376
  923MOL0     H27324   5.462   3.588   1.148 -0.9256 -2.6445  0.5838
  923MOL0     H27325   5.405   3.723   1.239 -0.3908  0.1998  0.3455
  923MOL0     H27326   5.355   3.422   1.299 -1.0533  0.5109 -2.0402
  923MOL0     H27327   5.317   3.552   1.409  0.0248 -2.7713  1.4686
  923MOL0     H27328   5.122   3.489   1.296  0.1762  1.4149  1.7934
  923MOL0     H27329   5.169   3.646   1.230  2.3887  0.1745 -1.9505
  923MOL0     H27330   5.088   3.516   1.061  0.9272  3.7303  0.9409
  923MOL0     H27331   5.251   3.560   1.032  0.9848  1.5155  1.7617
  923MOL0     H27332   5.080   3.447   0.846 -2.5328 -1.9074  3.5397
  923MOL0     H27333   4.967   3.385   0.651  0.1827 -1.3806  0.8544
  923MOL0     H27334   5.057   3.314   0.516  1.1134  1.2178 -1.8569
  923MOL0     H27335   5.087   3.484   0.578  2.1883 -0.1803  3.1279
  923MOL0     H27336   5.029   3.015   0.534 -1.1220 -2.1520 -1.3891
  923MOL0     H27337   4.969   2.816   0.687 -0.1592  4.1531  1.4803
  923MOL0     H27338   5.093   2.494   0.657 -2.5670 -1.8122  2.9273
  923MOL0     H27339   5.253   2.498   0.748  1.1065  0.5907 -0.0776
  923MOL0     H27340   5.122   2.428   0.950 -2.3139  1.0164  1.5068
  923MOL0     H27341   4.973   2.457   0.869 -0.3305 -1.2642  0.0248
  923MOL0     H27342   5.174   2.229   0.815 -0.1905 -0.6795 -0.7819
  923MOL0     H27343   5.038   2.263   0.709  2.7578  1.3315 -0.5142
  923MOL0     H27344   4.977   2.076   0.870 -2.0931  1.2309 -2.6938
  923MOL0     H27345   4.880   2.221   0.907  0.0326 -1.5207 -0.3098
  923MOL0     H27346   5.153   2.158   1.064  0.2733 -3.2851 -0.3175
  923MOL0     H27347   5.023   2.273   1.113 -6.0254 -2.0413  0.5867
  923MOL0     H27348   5.000   2.079   1.245  1.7841 -0.9400  0.2772
  923MOL0     H27349   4.967   1.972   1.099  1.0001  1.6914 -3.3428
  923MOL0     H27350   4.769   2.137   1.048 -4.2547  0.5613  1.5957
  923MOL0     H27351   4.799   2.195   1.217  0.5962 -1.0007  1.9660
  923MOL0     H27352   4.629   2.037   1.223  1.8778  0.6454  1.9271
  923MOL0     H27353   4.766   1.995   1.317  1.3391  2.8969  0.1431
  923MOL0     H27354   5.380   2.708   0.708 -1.0216 -2.1051 -0.9469
  923MOL0     H27355   5.441   2.907   0.571  0.6842  2.8305  2.1163
  923MOL0     H27356   5.422   3.102   0.783 -0.4091  0.3684  1.0045
  923MOL0     H27357   5.381   3.185   1.007 -0.6405  0.5607  0.7111
  923MOL0     H27358   6.281   3.049   1.394  2.8441  2.2942  0.0167
  923MOL0     H27359   6.133   2.871   1.320 -2.1301 -0.2210 -4.2463
  923MOL0     H27360   5.878   2.556   1.260  2.0013  2.3336 -1.3217
  923MOL0     H27361   5.842   2.299   1.254 -0.3183  0.2356  1.0614
  923MOL0     H27362   5.949   2.059   0.895 -0.2400 -0.6199 -0.6126
  923MOL0     H27363   6.071   2.087   1.018 -0.8388 -0.4294 -1.1691
  923MOL0     H27364   5.991   1.854   0.994  1.0923  0.6368 -0.9641
  923MOL0     H27365   5.827   1.907   1.059  0.0516 -0.7274  0.3630
  923MOL0     H27366   5.991   1.806   1.228 -1.5368  0.9439  1.3558
  923MOL0     H27367   6.087   1.952   1.220  0.7670 -2.8018  0.9944
  923MOL0     H27368   5.771   1.941   1.278  0.3062 -1.3381  0.3721
  923MOL0     H27369   5.856   2.088   1.307 -1.3829 -0.2893  1.7829
  923MOL0     H27370   5.954   1.936   1.661  4.0403 -0.7693 -1.0883
  923MOL0     H27371   6.030   2.289   0.861  2.4647  1.5510  0.1022
  923MOL0     H27372   6.161   2.630   0.878 -0.3434 -0.8010  1.6720
  923MOL0     H27373   6.178   2.469   0.809 -0.9882  0.0018  0.3206
  923MOL0     H27374   6.041   2.560   0.754 -0.0070 -0.3809 -1.0452
  924MOL0     O27375   1.495   8.340   9.716  0.3403  0.0342 -0.3075
  924MOL0     C27376   1.593   8.311   9.649 -0.8005  0.7592  0.3068
  924MOL0     O27377   1.638   8.384   9.545  0.8870 -0.4252  0.3328
  924MOL0     C27378   1.577   8.506   9.527  0.1134 -1.3812 -0.6889
  924MOL0     C27379   1.650   8.608   9.584  0.2827  0.7171  0.5422
  924MOL0     C27380   1.600   8.740   9.585  1.0832  0.5057  0.1680
  924MOL0     C27381   1.471   8.778   9.539 -0.6130  0.1444 -0.5729
  924MOL0     O27382   1.419   8.907   9.562  0.0457 -0.2816 -0.2698
  924MOL0     C27383   1.371   8.928   9.695  0.0054 -0.5932  0.4171
  924MOL0     C27384   1.269   9.039   9.692  0.2623 -0.5704 -0.3246
  924MOL0     C27385   1.237   9.103   9.825 -0.4073  0.0625  0.9898
  924MOL0     C27386   1.132   9.217   9.816 -0.1873  0.1148  0.4635
  924MOL0     C27387   1.191   9.349   9.766 -0.2108 -0.5398  0.3075
  924MOL0     C27388   1.114   9.475   9.825  0.1383  0.8891  0.3517
  924MOL0     C27389   1.156   9.596   9.764  0.6688 -0.6889  0.1405
  924MOL0     C27390   1.094   9.717   9.834  0.0211 -0.1009 -0.9111
  924MOL0     N27391   1.154   9.836   9.777 -0.5371 -0.1769 -0.1700
  924MOL0     C27392   1.173   9.960   9.837 -0.1945 -0.4598 -0.2243
  924MOL0     C27393   1.232  10.044   9.744 -0.1681 -0.0732  0.3319
  924MOL0     C27394   1.251  10.189   9.746  0.4706  1.0615  0.4017
  924MOL0     C27395   1.184  10.260   9.629  0.5388 -0.3109 -0.3043
  924MOL0     C27396   1.234  10.403   9.602 -0.4219 -0.4116  0.1953
  924MOL0     C27397   1.155  10.464   9.487 -0.0682 -0.4403  1.0024
  924MOL0     O27398   1.214  10.586   9.448 -0.0101  0.1398  0.5830
  924MOL0     C27399   1.282  10.595   9.334  0.9362 -0.2331  0.5033
  924MOL0     C27400   1.337  10.484   9.265  0.1946 -0.1995 -0.7255
  924MOL0     C27401   1.402  10.494   9.147 -0.4850  0.0346  0.9486
  924MOL0     C27402   1.440  10.356   9.081 -0.4642  0.1022 -0.3531
  924MOL0     C27403   1.436  10.622   9.092 -0.2023 -0.2666  0.4251
  924MOL0     C27404   1.497  10.634   8.958 -1.0986 -0.0693 -0.2040
  924MOL0     O27405   1.467  10.534   8.865 -0.0799  0.1532 -0.2009
  924MOL0     C27406   1.514  10.542   8.731  0.2613  0.1421  0.5327
  924MOL0     C27407   1.628  10.603   8.679 -0.0113  0.1192 -0.6140
  924MOL0     C27408   1.659  10.597   8.539  0.2931  0.5011 -0.4930
  924MOL0     C27409   1.574  10.532   8.454  0.2101  0.8178 -0.2856
  924MOL0     O27410   1.592  10.513   8.322 -0.3404  0.2903 -0.3622
  924MOL0     C27411   1.698  10.577   8.255 -0.3004  0.1713  0.7909
  924MOL0     C27412   1.821  10.488   8.280 -0.0331  0.1882  0.7134
  924MOL0     C27413   1.817  10.368   8.191 -0.8029 -0.0794  0.7368
  924MOL0     C27414   1.952  10.297   8.186 -0.5573 -0.4331  0.5606
  924MOL0     C27415   1.947  10.167   8.104 -0.3839 -0.0845  0.2253
  924MOL0     C27416   2.076  10.093   8.095 -0.6157 -0.0367 -0.2270
  924MOL0     C27417   2.200  10.155   8.019  0.2163  0.3137 -0.0206
  924MOL0     C27418   2.319  10.066   7.984  1.3117 -0.0932 -1.1464
  924MOL0    Cl27419   2.443  10.168   7.916 -0.0456 -0.0730  0.1168
  924MOL0     C27420   1.458  10.478   8.508  0.9925  0.0709  0.4806
  924MOL0     C27421   1.427  10.481   8.647  0.1027 -0.1692  1.0293
  924MOL0     O27422   1.552  10.742   8.931 -0.6955  0.3866 -0.2467
  924MOL0     C27423   1.385  10.739   9.153  0.1852  0.7853  0.4768
  924MOL0     C27424   1.309  10.719   9.272  0.4068  0.3905 -0.3420
  924MOL0     N27425   1.254   9.972   9.643  0.0338 -0.5034  0.0037
  924MOL0     N27426   1.206   9.848   9.659 -0.0523 -0.6185  0.7634
  924MOL0     C27427   1.397   8.671   9.490 -0.0441 -1.4531  0.5031
  924MOL0     C27428   1.448   8.538   9.493  0.6441 -0.4117  0.2877
  924MOL0     C27429   1.675   8.194   9.682  1.4382  0.3168 -0.6014
  924MOL0     C27430   1.748   8.135   9.571  0.8880  0.2835  0.0336
  924MOL0     C27431   1.787   8.013   9.581 -0.2196  0.2065  0.1200
  924MOL0     C27432   1.776   7.928   9.697  1.1113 -0.1002 -0.5165
  924MOL0     O27433   1.797   7.796   9.719  0.6429  0.5339  0.4214
  924MOL0     C27434   1.861   7.723   9.612  0.6418 -0.9022  0.6681
  924MOL0     C27435   1.899   7.586   9.669 -0.0731 -0.2601  0.2686
  924MOL0     C27436   2.011   7.502   9.597  0.4897 -0.3625  0.0699
  924MOL0     C27437   1.968   7.460   9.462  0.2561  0.5102  1.2597
  924MOL0     C27438   2.058   7.366   9.391  0.9819  0.6103 -0.5540
  924MOL0     C27439   2.138   7.297   9.330 -0.5585  0.4504  0.4073
  924MOL0     C27440   1.729   7.997   9.806 -0.1155 -0.4072  0.8948
  924MOL0     C27441   1.657   8.117   9.804 -0.8795 -0.0985  0.2322
  924MOL0     C27442   1.602   8.177   9.926  0.8682  0.1179  0.0559
  924MOL0     H27443   1.752   8.591   9.617  1.0221 -0.4285 -2.1080
  924MOL0     H27444   1.659   8.828   9.610  3.0575 -0.3383 -1.2420
  924MOL0     H27445   1.457   8.938   9.762 -0.0331 -2.8301  0.9040
  924MOL0     H27446   1.322   8.842   9.743  0.7068 -1.0016  0.4061
  924MOL0     H27447   1.306   9.119   9.628 -1.5152 -0.1585 -0.8998
  924MOL0     H27448   1.172   9.017   9.646 -0.0538  1.7631 -0.8971
  924MOL0     H27449   1.199   9.025   9.893 -0.7533 -0.7507 -0.1069
  924MOL0     H27450   1.329   9.144   9.866  1.2327 -0.4104 -1.9419
  924MOL0     H27451   1.044   9.197   9.755  0.5000  2.1088 -1.3311
  924MOL0     H27452   1.097   9.232   9.918  1.0264  2.5276  0.6079
  924MOL0     H27453   1.193   9.354   9.657 -0.1935 -0.6759  0.3016
  924MOL0     H27454   1.299   9.351   9.784  0.0781 -0.7493 -1.2694
  924MOL0     H27455   1.007   9.474   9.799  0.4235 -1.0341 -0.9423
  924MOL0     H27456   1.126   9.468   9.933 -2.8033 -2.9015  0.6411
  924MOL0     H27457   1.113   9.597   9.663 -0.6530  3.2117  0.5624
  924MOL0     H27458   1.264   9.607   9.763  0.4529  2.1564 -1.1733
  924MOL0     H27459   0.986   9.714   9.820 -0.2371 -0.0342  0.8634
  924MOL0     H27460   1.117   9.727   9.940 -0.9061  0.4472 -0.7493
  924MOL0     H27461   1.140   9.996   9.933  2.0150 -2.5683  1.4471
  924MOL0     H27462   1.357  10.215   9.750  0.2755  2.2213 -1.0451
  924MOL0     H27463   1.199  10.230   9.833 -3.6716  0.9355 -1.7597
  924MOL0     H27464   1.197  10.202   9.537 -0.7776 -1.3957  0.1533
  924MOL0     H27465   1.077  10.264   9.653  1.1598 -0.2947  2.8464
  924MOL0     H27466   1.221  10.453   9.698  1.8288 -0.7738  0.7589
  924MOL0     H27467   1.339  10.396   9.570 -0.3002  0.5559  0.3386
  924MOL0     H27468   1.134  10.393   9.407 -3.3171  0.0193  1.3119
  924MOL0     H27469   1.051  10.495   9.507  0.3263  2.3334 -0.6790
  924MOL0     H27470   1.316  10.386   9.307  2.0185 -1.6724 -2.9902
  924MOL0     H27471   1.460  10.278   9.156  0.1014  1.3993  0.8988
  924MOL0     H27472   1.530  10.359   9.019  0.2120  3.3127  0.6158
  924MOL0     H27473   1.354  10.315   9.028 -0.7079 -2.1882  1.6143
  924MOL0     H27474   1.699  10.654   8.743  2.0833 -3.1384 -0.1000
  924MOL0     H27475   1.740  10.653   8.494 -0.7502  2.3487 -0.1635
  924MOL0     H27476   1.671  10.588   8.150 -1.9311  0.2897  1.1850
  924MOL0     H27477   1.712  10.678   8.295 -1.5919  1.4074 -1.6897
  924MOL0     H27478   1.916  10.541   8.269  0.4165 -0.8605 -0.8553
  924MOL0     H27479   1.829  10.453   8.384 -2.1677  1.4183  1.3472
  924MOL0     H27480   1.788  10.395   8.089 -0.2448 -0.7413  0.4024
  924MOL0     H27481   1.739  10.300   8.226 -1.3595 -0.9366 -1.9776
  924MOL0     H27482   1.970  10.268   8.290  4.4405  1.7153  0.6082
  924MOL0     H27483   2.037  10.363   8.164 -2.9527  2.4202 -0.7733
  924MOL0     H27484   1.873  10.104   8.154 -0.4385  0.3077  0.6394
  924MOL0     H27485   1.919  10.194   8.001 -1.0202  1.6480  0.8201
  924MOL0     H27486   2.046   9.999   8.049 -2.0014  0.4556 -0.4093
  924MOL0     H27487   2.108  10.068   8.196  1.0519 -0.3880 -0.8267
  924MOL0     H27488   2.238  10.222   8.097 -0.3041 -2.3759  2.7603
  924MOL0     H27489   2.167  10.220   7.938  0.3780  1.2635  0.6490
  924MOL0     H27490   2.300   9.985   7.913  0.2259  0.6872 -1.7784
  924MOL0     H27491   2.354  10.020   8.077 -1.2764  3.2838  1.8174
  924MOL0     H27492   1.382  10.444   8.439  1.1657  2.2695 -0.8984
  924MOL0     H27493   1.328  10.449   8.678 -0.6593 -0.3953 -1.4417
  924MOL0     H27494   1.393  10.834   9.102 -0.6729 -0.0787 -1.3684
  924MOL0     H27495   1.255  10.798   9.323  2.2630  1.1546  0.5542
  924MOL0     H27496   1.299   8.695   9.449 -0.4537  0.6030  2.5034
  924MOL0     H27497   1.382   8.461   9.455 -0.3746  0.7849 -0.4151
  924MOL0     H27498   1.763   8.177   9.472  0.9392  0.7577  0.2424
  924MOL0     H27499   1.825   7.966   9.490 -3.7206  0.2513 -1.5376
  924MOL0     H27500   1.802   7.710   9.522  2.5298 -2.3795 -0.4404
  924MOL0     H27501   1.952   7.774   9.580  0.3709 -1.0540 -0.3575
  924MOL0     H27502   1.809   7.533   9.701 -1.0645  1.9406  1.3453
  924MOL0     H27503   1.921   7.591   9.776  3.7494 -1.2987 -0.3116
  924MOL0     H27504   2.102   7.563   9.592  0.4910 -0.2024  1.5763
  924MOL0     H27505   2.042   7.412   9.651 -0.4530 -0.1954  0.9181
  924MOL0     H27506   1.945   7.540   9.392  0.2375 -0.1633  0.4785
  924MOL0     H27507   1.871   7.408   9.468  0.6117 -0.3159  0.1312
  924MOL0     H27508   2.231   7.271   9.284 -1.2475  1.0425 -1.4129
  924MOL0     H27509   1.742   7.936   9.895 -0.0770  0.7257  1.6922
  924MOL0     H27510   1.661   8.267   9.946  1.3991 -0.5001  1.3974
  924MOL0     H27511   1.494   8.189   9.912  0.1136 -1.0798  3.6840
  924MOL0     H27512   1.613   8.110  10.013  1.7831  0.0709 -0.0819
  925MOL0     O27513   4.998   5.288   8.310 -0.3451 -0.0094  0.1476
  925MOL0     C27514   5.030   5.211   8.406  0.0835  0.5888 -0.2546
  925MOL0     O27515   5.153   5.181   8.455 -0.0276  0.5997  0.0881
  925MOL0     C27516   5.271   5.237   8.413 -0.6451 -0.2662  0.0049
  925MOL0     C27517   5.387   5.172   8.451  0.0271  0.3967 -0.6085
  925MOL0     C27518   5.519   5.224   8.431  0.4539  0.8994  0.1335
  925MOL0     C27519   5.536   5.329   8.353  0.2015  0.7558  0.2100
  925MOL0     O27520   5.659   5.371   8.338 -0.4307  0.3257 -0.6683
  925MOL0     C27521   5.694   5.415   8.208 -0.1640  0.3340  0.0082
  925MOL0     C27522   5.797   5.325   8.135  0.2182 -0.2642 -0.3969
  925MOL0     C27523   5.736   5.191   8.087 -0.1090 -0.1963  0.4183
  925MOL0     C27524   5.654   5.196   7.952 -0.2894 -0.3642  0.0315
  925MOL0     C27525   5.600   5.047   7.933 -0.1428  0.3661 -0.4508
  925MOL0     C27526   5.474   5.062   7.843 -0.5918 -0.5413  0.9789
  925MOL0     C27527   5.401   4.938   7.829  0.1861 -0.0940 -0.1837
  925MOL0     C27528   5.470   4.810   7.798 -0.3592  0.4688 -0.4295
  925MOL0     N27529   5.385   4.689   7.783  0.4002  0.1500  0.1606
  925MOL0     C27530   5.267   4.669   7.852 -0.4732  0.0707 -0.2209
  925MOL0     C27531   5.213   4.562   7.794 -0.6638 -0.5572  0.1579
  925MOL0     C27532   5.091   4.486   7.854  0.1457  0.0505  0.7138
  925MOL0     C27533   5.124   4.410   7.983 -0.6617  0.2262  0.5865
  925MOL0     C27534   5.269   4.356   7.986  0.0927 -0.7876  0.7129
  925MOL0     C27535   5.302   4.268   8.102  0.2517  0.8003 -0.5034
  925MOL0     O27536   5.280   4.330   8.228 -0.6221  0.2418  0.5837
  925MOL0     C27537   5.388   4.371   8.307  0.7498 -0.7005  0.5569
  925MOL0     C27538   5.378   4.375   8.447 -0.0932  0.5971 -0.7419
  925MOL0     C27539   5.486   4.408   8.531  0.5665  0.2383 -0.4448
  925MOL0     C27540   5.456   4.430   8.681 -0.2176  0.9427 -0.8926
  925MOL0     C27541   5.617   4.409   8.470  0.3961 -1.0398  0.6277
  925MOL0     C27542   5.748   4.436   8.541 -0.3647 -0.4391 -0.0714
  925MOL0     O27543   5.858   4.414   8.467 -0.2444  0.0592 -0.0200
  925MOL0     C27544   5.971   4.483   8.504 -0.4169 -0.0734 -0.6791
  925MOL0     C27545   5.991   4.618   8.470  0.5417 -0.2596 -0.5508
  925MOL0     C27546   6.114   4.672   8.504  0.3127 -0.7235 -0.5618
  925MOL0     C27547   6.214   4.608   8.576 -0.0168  0.5639 -0.1912
  925MOL0     O27548   6.329   4.671   8.612 -0.1677  0.0926 -0.3472
  925MOL0     C27549   6.439   4.594   8.660 -0.0655 -0.7310  0.7923
  925MOL0     C27550   6.435   4.573   8.816 -0.5144  0.3380 -0.0023
  925MOL0     C27551   6.521   4.668   8.904  0.0910 -0.6047 -0.0464
  925MOL0     C27552   6.507   4.626   9.052 -0.0226 -0.2487 -0.6460
  925MOL0     C27553   6.582   4.705   9.168  0.4562  0.1508  0.8803
  925MOL0     C27554   6.728   4.670   9.184 -0.5488  0.2683  0.1888
  925MOL0     C27555   6.807   4.761   9.276  0.7385  0.3870  0.2238
  925MOL0     C27556   6.950   4.717   9.274 -0.3985 -0.0746  0.6002
  925MOL0    Cl27557   7.061   4.806   9.389 -0.1926 -0.0902 -0.2717
  925MOL0     C27558   6.187   4.476   8.619  0.5915 -0.0062 -0.0804
  925MOL0     C27559   6.065   4.413   8.571  0.1597  0.4320  0.5124
  925MOL0     O27560   5.752   4.487   8.655  0.2508 -0.0951 -0.3482
  925MOL0     C27561   5.627   4.402   8.329 -0.5481 -0.3566  0.5219
  925MOL0     C27562   5.509   4.386   8.252  0.8325 -0.5851 -0.2414
  925MOL0     N27563   5.277   4.537   7.677  0.6654  0.1151 -0.6190
  925MOL0     N27564   5.374   4.616   7.669 -0.2617  0.1802  0.6782
  925MOL0     C27565   5.423   5.401   8.313  1.2070  0.5371  0.4558
  925MOL0     C27566   5.289   5.354   8.332  0.6392  0.1293 -0.9611
  925MOL0     C27567   4.913   5.135   8.461  0.1067  0.2673 -1.0817
  925MOL0     C27568   4.836   5.053   8.372 -0.7815  0.0607 -0.7112
  925MOL0     C27569   4.735   4.971   8.424 -0.3677 -0.5136  0.8926
  925MOL0     C27570   4.712   4.967   8.562 -0.4723 -0.8426  0.2267
  925MOL0     O27571   4.613   4.908   8.631 -0.2054 -0.0895 -0.3414
  925MOL0     C27572   4.501   4.855   8.550 -0.4573  1.4157  0.0858
  925MOL0     C27573   4.370   4.828   8.632 -0.6399  0.0296 -0.4270
  925MOL0     C27574   4.308   4.959   8.697 -0.3023  0.6137  0.5973
  925MOL0     C27575   4.183   4.918   8.777  0.7290  0.4136  0.9531
  925MOL0     C27576   4.069   4.995   8.741  0.1290 -0.0825  0.2273
  925MOL0     C27577   3.967   5.055   8.700  1.2503  0.0337 -0.1980
  925MOL0     C27578   4.790   5.039   8.645 -1.5181  0.0668 -0.7197
  925MOL0     C27579   4.892   5.122   8.599  0.5824 -0.7349  0.0319
  925MOL0     C27580   4.980   5.183   8.708 -0.3084 -0.3327 -0.6651
  925MOL0     H27581   5.383   5.085   8.516  1.4683  1.1024  0.4718
  925MOL0     H27582   5.604   5.170   8.472 -0.4448 -0.7700 -0.0997
  925MOL0     H27583   5.741   5.513   8.224 -0.1229  0.5447 -1.2961
  925MOL0     H27584   5.615   5.440   8.137  0.0985  2.4795  0.3819
  925MOL0     H27585   5.856   5.379   8.060  1.9647 -0.2786  0.8889
  925MOL0     H27586   5.879   5.294   8.201  0.9091 -0.9274 -1.5313
  925MOL0     H27587   5.826   5.131   8.073 -0.1430 -0.2749  0.5376
  925MOL0     H27588   5.683   5.150   8.173  1.1985  3.1605  3.0263
  925MOL0     H27589   5.582   5.277   7.967  1.0558  0.9006 -0.1101
  925MOL0     H27590   5.726   5.216   7.872  2.7195  0.0078  2.6414
  925MOL0     H27591   5.570   4.990   8.021 -0.1326 -4.3490 -3.1524
  925MOL0     H27592   5.679   4.982   7.893 -0.4641 -2.7329  3.3697
  925MOL0     H27593   5.404   5.131   7.890 -0.0052 -0.4817  1.8068
  925MOL0     H27594   5.518   5.093   7.748  0.9047 -0.4613  1.6649
  925MOL0     H27595   5.321   4.947   7.755  0.1799  1.1174 -0.0527
  925MOL0     H27596   5.351   4.927   7.926 -0.5113  1.9078 -0.2609
  925MOL0     H27597   5.550   4.829   7.726  1.0969 -3.2881 -0.0672
  925MOL0     H27598   5.527   4.787   7.889 -0.7078  2.4956  0.3491
  925MOL0     H27599   5.242   4.715   7.947 -0.0679  1.8555 -0.9460
  925MOL0     H27600   5.048   4.424   7.775  0.0579  2.0701 -0.9012
  925MOL0     H27601   5.021   4.566   7.876 -0.5785  0.1690 -1.7681
  925MOL0     H27602   5.123   4.483   8.064  2.1890  2.1520 -0.9374
  925MOL0     H27603   5.047   4.333   7.992  0.7037 -1.4572 -1.1567
  925MOL0     H27604   5.310   4.300   7.902 -2.1114 -2.4210  0.6417
  925MOL0     H27605   5.332   4.446   7.991 -3.6624  2.1951 -1.2353
  925MOL0     H27606   5.250   4.173   8.094  0.8078  0.6154 -2.3797
  925MOL0     H27607   5.403   4.231   8.083 -0.2743 -0.4706 -0.8973
  925MOL0     H27608   5.277   4.362   8.485 -0.0613  1.9881 -0.0966
  925MOL0     H27609   5.484   4.534   8.699  0.2879  0.1926  3.9519
  925MOL0     H27610   5.515   4.364   8.745  4.0348  3.2455 -2.0681
  925MOL0     H27611   5.351   4.430   8.713 -0.2427  3.0793 -0.8509
  925MOL0     H27612   5.907   4.676   8.431 -0.0709 -0.0109  1.0441
  925MOL0     H27613   6.130   4.777   8.483 -1.9911 -0.2709 -0.3339
  925MOL0     H27614   6.442   4.496   8.610 -2.4479 -0.2647 -0.3921
  925MOL0     H27615   6.534   4.646   8.647  1.1410 -3.1634 -1.1716
  925MOL0     H27616   6.330   4.556   8.844 -0.4600 -1.0407 -0.5420
  925MOL0     H27617   6.478   4.473   8.825 -3.4311 -1.0984 -0.9207
  925MOL0     H27618   6.505   4.776   8.892  0.4195 -0.3187  1.8164
  925MOL0     H27619   6.625   4.645   8.878  0.0259 -2.6444  1.2715
  925MOL0     H27620   6.532   4.520   9.069 -2.2292 -0.6821  0.3195
  925MOL0     H27621   6.400   4.636   9.072 -0.1525  0.9940 -1.8624
  925MOL0     H27622   6.571   4.814   9.158  0.6186  0.0928  0.0186
  925MOL0     H27623   6.531   4.679   9.261 -0.9771 -0.6043 -0.0773
  925MOL0     H27624   6.785   4.651   9.092 -1.0001 -2.0662  0.3402
  925MOL0     H27625   6.724   4.569   9.227  0.0694 -0.9110 -2.3246
  925MOL0     H27626   6.760   4.754   9.374  0.9954 -1.5197  0.2449
  925MOL0     H27627   6.797   4.866   9.246  1.4665 -0.1942 -2.3774
  925MOL0     H27628   6.999   4.724   9.176 -0.2353  0.4722  0.7221
  925MOL0     H27629   6.962   4.611   9.298 -0.6174 -0.5457 -1.2467
  925MOL0     H27630   6.265   4.427   8.677  2.0503  2.5816  0.3044
  925MOL0     H27631   6.032   4.311   8.591 -1.4563  1.2584  2.4573
  925MOL0     H27632   5.715   4.425   8.269 -1.6260  0.2523 -0.8805
  925MOL0     H27633   5.519   4.377   8.144 -0.7670 -1.2288 -0.3617
  925MOL0     H27634   5.443   5.477   8.238  2.6915  0.0467  0.3256
  925MOL0     H27635   5.203   5.412   8.299  1.0728  2.1500  1.1837
  925MOL0     H27636   4.854   5.063   8.265 -1.7097 -0.5997 -0.9380
  925MOL0     H27637   4.684   4.905   8.354  0.7108  1.2235 -1.6975
  925MOL0     H27638   4.478   4.911   8.459  1.5473 -0.9892 -2.0762
  925MOL0     H27639   4.524   4.756   8.508 -3.0748 -0.5220  2.7727
  925MOL0     H27640   4.404   4.763   8.713 -1.8509 -1.9496 -1.4403
  925MOL0     H27641   4.292   4.769   8.582 -2.8321  1.5827  0.9568
  925MOL0     H27642   4.374   4.999   8.775 -0.4046 -0.8472  1.4798
  925MOL0     H27643   4.287   5.038   8.625  2.2330  0.7670 -0.0699
  925MOL0     H27644   4.202   4.925   8.885  1.3959 -0.1395  0.8793
  925MOL0     H27645   4.147   4.818   8.751 -2.3048  1.5857  0.2325
  925MOL0     H27646   3.871   5.095   8.675  0.6340 -1.9914 -1.3058
  925MOL0     H27647   4.780   5.022   8.752  0.8255 -0.5226 -0.5274
  925MOL0     H27648   4.960   5.290   8.698  0.1022 -0.0997  0.7998
  925MOL0     H27649   4.949   5.157   8.810 -1.9203 -0.2800 -1.1149
  925MOL0     H27650   5.088   5.166   8.697 -0.2453  0.4358 -1.2587
  926MOL0     O27651   6.787   5.417   0.355 -0.4482  0.1831  0.3904
  926MOL0     C27652   6.712   5.327   0.391  0.3146 -0.3856  0.5412
  926MOL0     O27653   6.573   5.342   0.395  0.3618  0.6289 -0.0286
  926MOL0     C27654   6.532   5.470   0.391  0.1654 -0.3899  0.6511
  926MOL0     C27655   6.543   5.536   0.520  0.4333 -0.0064  0.5185
  926MOL0     C27656   6.496   5.664   0.523  0.2067 -0.7872 -0.0648
  926MOL0     C27657   6.443   5.731   0.404  0.5257 -0.2795 -0.4878
  926MOL0     O27658   6.395   5.859   0.396 -0.2874 -1.0226  0.1939
  926MOL0     C27659   6.411   5.949   0.506  0.1701 -0.1505 -0.7900
  926MOL0     C27660   6.384   6.099   0.465  0.1650 -0.3775  0.2259
  926MOL0     C27661   6.252   6.101   0.387 -0.3351  0.5585 -0.4927
  926MOL0     C27662   6.224   6.238   0.334  0.3715 -0.7671 -0.1774
  926MOL0     C27663   6.318   6.271   0.223 -0.3640  0.1355  0.2074
  926MOL0     C27664   6.249   6.377   0.135  0.5541  0.5522 -0.5398
  926MOL0     C27665   6.351   6.441   0.036  0.7286 -0.3003  0.1196
  926MOL0     C27666   6.309   6.563  -0.041 -0.3395  0.1688 -0.3972
  926MOL0     N27667   6.338   6.690   0.037  0.2041 -0.4596 -0.3127
  926MOL0     C27668   6.472   6.740   0.034 -0.5810 -0.6952  0.0870
  926MOL0     C27669   6.456   6.855   0.107 -0.2653  0.2269  0.2197
  926MOL0     C27670   6.541   6.975   0.150  0.0602  0.7158 -0.9538
  926MOL0     C27671   6.545   7.073   0.031 -0.1654 -0.0416  0.4656
  926MOL0     C27672   6.683   7.142   0.009  0.1491  0.3496  0.4811
  926MOL0     C27673   6.685   7.249  -0.101  0.2392 -0.4009 -0.0520
  926MOL0     O27674   6.591   7.217  -0.208 -0.1931  0.3129 -0.7897
  926MOL0     C27675   6.546   7.319  -0.288 -0.5419  0.2054 -0.0885
  926MOL0     C27676   6.436   7.287  -0.364 -0.1743 -0.2738  0.2398
  926MOL0     C27677   6.391   7.364  -0.475 -0.2754 -0.4889 -0.5158
  926MOL0     C27678   6.292   7.318  -0.572 -0.5047 -0.5147 -0.2574
  926MOL0     C27679   6.465   7.489  -0.501  0.8519 -0.7509 -0.8269
  926MOL0     C27680   6.418   7.584  -0.610 -0.5119 -0.6218 -1.1778
  926MOL0     O27681   6.476   7.561  -0.728  0.6956 -1.0461  0.3596
  926MOL0     C27682   6.433   7.648  -0.833  0.4686  0.4050  0.9674
  926MOL0     C27683   6.363   7.594  -0.938 -0.8570 -1.3370  0.1635
  926MOL0     C27684   6.329   7.672  -1.058 -0.3274 -1.0844  0.5858
  926MOL0     C27685   6.363   7.810  -1.054  1.1403 -0.0004 -0.3807
  926MOL0     O27686   6.343   7.894  -1.158 -0.1589 -0.5657  0.2693
  926MOL0     C27687   6.295   7.842  -1.281  0.6706 -0.1851 -0.6254
  926MOL0     C27688   6.334   7.937  -1.394  0.3266  0.5315  0.2917
  926MOL0     C27689   6.219   7.946  -1.496  1.1414 -0.5342  0.8754
  926MOL0     C27690   6.247   8.024  -1.625 -0.1262 -0.6168  0.4133
  926MOL0     C27691   6.115   8.034  -1.709 -0.0587 -1.0022  0.0080
  926MOL0     C27692   6.159   8.077  -1.848  0.3404 -0.0837 -0.4588
  926MOL0     C27693   6.043   8.132  -1.930 -0.6950 -0.8187  0.1251
  926MOL0     C27694   6.081   8.183  -2.064 -0.9639 -0.2819  0.6173
  926MOL0    Cl27695   5.931   8.196  -2.167 -0.1631 -0.3471  0.5340
  926MOL0     C27696   6.432   7.862  -0.942  0.3838 -1.3901 -0.7448
  926MOL0     C27697   6.478   7.777  -0.839 -0.7865 -0.5063  0.1045
  926MOL0     O27698   6.360   7.689  -0.570  0.1313 -0.0116 -0.9667
  926MOL0     C27699   6.582   7.519  -0.425  0.7229 -0.7819 -1.0777
  926MOL0     C27700   6.626   7.432  -0.327 -0.0209  0.1547  0.8734
  926MOL0     N27701   6.324   6.874   0.151  0.5211  0.2706  0.8330
  926MOL0     N27702   6.259   6.760   0.131  0.4377 -0.3013  0.5211
  926MOL0     C27703   6.446   5.663   0.282  0.3474  0.0508  0.4221
  926MOL0     C27704   6.490   5.535   0.274  0.3285 -0.0930  0.4175
  926MOL0     C27705   6.765   5.197   0.437 -0.6875 -0.2128  0.0168
  926MOL0     C27706   6.673   5.086   0.445  0.8318  0.3399 -0.0476
  926MOL0     C27707   6.711   4.966   0.505  0.8396  0.2051  0.4116
  926MOL0     C27708   6.842   4.947   0.542 -1.0835  0.0344  0.1854
  926MOL0     O27709   6.877   4.826   0.579 -0.0496 -0.0695 -0.8974
  926MOL0     C27710   7.002   4.779   0.536  0.2634 -0.5865 -0.2692
  926MOL0     C27711   7.014   4.631   0.561  0.9589 -0.3525 -0.1298
  926MOL0     C27712   6.914   4.545   0.486  0.7474 -0.7842 -0.4600
  926MOL0     C27713   6.950   4.391   0.479  0.4763  0.8287 -0.6353
  926MOL0     C27714   6.933   4.332   0.607  0.3154  0.2363 -0.2608
  926MOL0     C27715   6.892   4.266   0.704 -0.0062 -0.1639  0.1000
  926MOL0     C27716   6.935   5.049   0.515 -0.4869  0.3839 -1.2465
  926MOL0     C27717   6.903   5.177   0.472  0.3931  0.4490  0.4962
  926MOL0     C27718   7.017   5.285   0.471  0.5142  0.1264 -0.9318
  926MOL0     H27719   6.562   5.483   0.613 -1.2365  1.4802  1.7767
  926MOL0     H27720   6.497   5.721   0.615 -2.0807  1.1543 -1.1252
  926MOL0     H27721   6.509   5.956   0.554 -0.0080  0.3071 -0.4868
  926MOL0     H27722   6.339   5.924   0.584  0.8164  2.2830  0.7040
  926MOL0     H27723   6.375   6.170   0.548  0.7759 -0.1734  0.1239
  926MOL0     H27724   6.465   6.130   0.399  0.1945  0.1038  0.4821
  926MOL0     H27725   6.254   6.043   0.294  0.8449  1.7192 -1.2160
  926MOL0     H27726   6.165   6.069   0.446 -0.1196 -0.7186 -0.8357
  926MOL0     H27727   6.119   6.244   0.303  0.6307 -0.7390 -1.0756
  926MOL0     H27728   6.224   6.314   0.412 -1.3780  0.2047 -1.0600
  926MOL0     H27729   6.332   6.182   0.162 -1.3516 -1.4397  2.1659
  926MOL0     H27730   6.415   6.297   0.266  0.6445 -1.9799 -0.6666
  926MOL0     H27731   6.175   6.320   0.079  0.0209  2.4099 -1.8315
  926MOL0     H27732   6.205   6.455   0.198 -0.4766  0.4329 -1.1024
  926MOL0     H27733   6.381   6.363  -0.034 -3.0979 -1.1101 -0.8653
  926MOL0     H27734   6.440   6.472   0.091 -0.4370  2.0676  0.8020
  926MOL0     H27735   6.367   6.582  -0.132 -3.2558  0.0606 -2.4216
  926MOL0     H27736   6.205   6.557  -0.076 -0.5519  0.6128  0.1460
  926MOL0     H27737   6.562   6.711  -0.018  1.2496  1.0285  2.1184
  926MOL0     H27738   6.643   6.939   0.166 -0.3550  0.2713  0.9051
  926MOL0     H27739   6.502   7.006   0.248  2.4064 -2.7182  1.2520
  926MOL0     H27740   6.508   7.049  -0.068  2.1750  0.8432 -0.7076
  926MOL0     H27741   6.468   7.149   0.050  0.7259  1.3811 -1.2649
  926MOL0     H27742   6.719   7.188   0.101  0.3069  2.5113 -0.5979
  926MOL0     H27743   6.746   7.063  -0.031  1.3837  2.3910 -1.8871
  926MOL0     H27744   6.666   7.347  -0.057  0.1514 -1.8628  3.4922
  926MOL0     H27745   6.782   7.258  -0.149  1.1081 -0.8789  1.5359
  926MOL0     H27746   6.387   7.195  -0.332  0.8151 -1.2388 -0.8997
  926MOL0     H27747   6.191   7.356  -0.552 -0.4797  1.1972 -2.8569
  926MOL0     H27748   6.285   7.209  -0.577 -1.8100 -0.4577 -0.1717
  926MOL0     H27749   6.321   7.360  -0.669  0.6056  0.3442  0.4195
  926MOL0     H27750   6.320   7.495  -0.938 -0.8454 -1.4025 -2.6252
  926MOL0     H27751   6.274   7.622  -1.136 -0.0991 -3.8479  2.0449
  926MOL0     H27752   6.346   7.752  -1.316  2.6801  1.9497 -3.7595
  926MOL0     H27753   6.187   7.824  -1.283  0.3276  1.6772 -0.3221
  926MOL0     H27754   6.344   8.036  -1.347 -2.5539 -0.4230  3.3425
  926MOL0     H27755   6.421   7.903  -1.451  0.5145  1.6806 -0.1454
  926MOL0     H27756   6.144   8.014  -1.455  3.5292  0.9193  3.1666
  926MOL0     H27757   6.181   7.850  -1.531  0.6429 -0.8434  2.2192
  926MOL0     H27758   6.316   7.963  -1.683  0.1216 -2.2783  2.3253
  926MOL0     H27759   6.300   8.118  -1.607  2.2337 -1.6752 -0.6231
  926MOL0     H27760   6.058   7.942  -1.727 -2.7706  0.2992  1.2571
  926MOL0     H27761   6.050   8.109  -1.664 -2.4731 -3.1352  0.3456
  926MOL0     H27762   6.199   7.991  -1.903  0.8211  1.7529 -3.1731
  926MOL0     H27763   6.243   8.145  -1.831 -0.2978  0.2096  1.8832
  926MOL0     H27764   6.006   8.210  -1.864  1.5634  0.1321  0.3612
  926MOL0     H27765   5.967   8.055  -1.948 -1.1811 -0.4792  0.6859
  926MOL0     H27766   6.149   8.107  -2.104 -1.4480  0.6029 -2.0980
  926MOL0     H27767   6.140   8.274  -2.052 -2.3887  0.6156  1.0334
  926MOL0     H27768   6.450   7.969  -0.932  1.0460 -1.7154  2.6390
  926MOL0     H27769   6.530   7.822  -0.755 -0.1696 -1.3171  0.1783
  926MOL0     H27770   6.630   7.615  -0.438 -0.5893 -0.0973 -1.0025
  926MOL0     H27771   6.725   7.443  -0.285  0.8873 -1.0289 -0.8613
  926MOL0     H27772   6.417   5.713   0.191  3.4265 -0.6454 -1.0574
  926MOL0     H27773   6.497   5.474   0.184  0.2380 -1.5742  1.3852
  926MOL0     H27774   6.571   5.100   0.411  0.6673  0.4384  0.4864
  926MOL0     H27775   6.637   4.890   0.526  0.3602  0.3257 -0.7680
  926MOL0     H27776   7.016   4.800   0.430 -0.7056  0.1637 -0.2561
  926MOL0     H27777   7.079   4.828   0.597 -0.5250  0.7107 -0.2886
  926MOL0     H27778   6.994   4.602   0.665  1.2575 -0.4929 -0.1091
  926MOL0     H27779   7.115   4.597   0.535  1.2811  1.5106 -1.4961
  926MOL0     H27780   6.813   4.557   0.528  1.8712 -0.2208  2.2352
  926MOL0     H27781   6.898   4.588   0.387 -0.8811  0.1313  0.1552
  926MOL0     H27782   7.049   4.376   0.434  0.8258  0.4969  0.2337
  926MOL0     H27783   6.879   4.339   0.415  0.5289 -1.6439  1.1806
  926MOL0     H27784   6.861   4.205   0.786  1.9137 -0.7023  0.4837
  926MOL0     H27785   7.042   5.031   0.524 -0.0966  1.4785 -3.1088
  926MOL0     H27786   6.987   5.384   0.505  1.1574 -0.4785  1.6427
  926MOL0     H27787   7.086   5.250   0.548 -0.4733 -0.6179 -0.3735
  926MOL0     H27788   7.068   5.296   0.375 -0.2461 -0.7361 -1.4489
  927MOL0     O27789   3.956   2.163   0.355 -0.5666 -0.2676 -0.4565
  927MOL0     C27790   3.991   2.046   0.341 -0.1735 -1.2903 -0.2327
  927MOL0     O27791   3.944   1.970   0.228 -0.4471  0.8514 -1.5577
  927MOL0     C27792   3.854   2.023   0.136 -0.1781 -0.3357  0.0581
  927MOL0     C27793   3.886   2.143   0.068  0.1017  0.4623 -0.8215
  927MOL0     C27794   3.792   2.202  -0.019 -0.8082  0.3453  0.1675
  927MOL0     C27795   3.668   2.140  -0.043  0.7419 -0.0051  0.2350
  927MOL0     O27796   3.567   2.201  -0.121  0.2377  0.1710  0.0170
  927MOL0     C27797   3.595   2.322  -0.189  0.4903  0.8495 -1.2228
  927MOL0     C27798   3.467   2.328  -0.273  0.0172  0.6648 -0.4212
  927MOL0     C27799   3.453   2.217  -0.387 -0.1643 -0.1392 -0.4133
  927MOL0     C27800   3.319   2.244  -0.453  0.2031 -0.4575  0.3494
  927MOL0     C27801   3.268   2.129  -0.542 -0.1342 -0.0990 -0.1024
  927MOL0     C27802   3.301   2.120  -0.687  0.1815 -0.9998  0.5789
  927MOL0     C27803   3.445   2.093  -0.720 -0.1302  0.6624  0.3803
  927MOL0     C27804   3.453   2.000  -0.843  0.6783  0.4247  0.0628
  927MOL0     N27805   3.426   2.063  -0.972  0.2296 -0.4367 -0.0428
  927MOL0     C27806   3.338   2.006  -1.060  0.2257  0.3564 -0.2240
  927MOL0     C27807   3.367   2.063  -1.176 -0.2627  1.0195 -0.1809
  927MOL0     C27808   3.291   2.043  -1.300 -0.5452  0.3050  1.2879
  927MOL0     C27809   3.168   1.937  -1.322  0.3029 -0.7103  0.0787
  927MOL0     C27810   3.173   1.864  -1.456  0.6503 -0.8743 -0.1934
  927MOL0     C27811   3.038   1.793  -1.484 -0.5120 -0.0395 -0.1451
  927MOL0     O27812   2.934   1.893  -1.481  0.2684 -0.4347 -0.8353
  927MOL0     C27813   2.813   1.849  -1.527 -0.1423  1.2114  0.1340
  927MOL0     C27814   2.777   1.732  -1.596  0.2027  0.5294 -1.1753
  927MOL0     C27815   2.650   1.699  -1.649 -1.2418 -0.1273 -0.3652
  927MOL0     C27816   2.639   1.561  -1.706 -0.0889 -0.2070 -0.1863
  927MOL0     C27817   2.548   1.801  -1.621 -0.7896  0.0518 -0.7335
  927MOL0     C27818   2.405   1.788  -1.643 -0.1084 -0.1602 -1.1720
  927MOL0     O27819   2.322   1.873  -1.577 -0.0772 -0.7226 -0.4070
  927MOL0     C27820   2.192   1.881  -1.627 -0.1483  0.3108 -1.1802
  927MOL0     C27821   2.168   1.917  -1.755  0.4974  0.4746 -0.0308
  927MOL0     C27822   2.042   1.930  -1.811  0.2996 -0.4079 -0.6851
  927MOL0     C27823   1.924   1.909  -1.726  0.1828 -0.8148 -0.7064
  927MOL0     O27824   1.800   1.921  -1.785  0.0134  0.1452  0.3948
  927MOL0     C27825   1.757   1.786  -1.806  0.2675 -0.0244  0.3858
  927MOL0     C27826   1.636   1.808  -1.904 -0.0030  1.1259  0.5314
  927MOL0     C27827   1.522   1.696  -1.878 -0.0325 -0.3647 -0.2817
  927MOL0     C27828   1.429   1.656  -1.995 -0.4873 -0.4260  0.0108
  927MOL0     C27829   1.498   1.585  -2.114  0.0987 -0.0420  0.0373
  927MOL0     C27830   1.413   1.560  -2.245 -0.9033  0.0132  0.7725
  927MOL0     C27831   1.274   1.497  -2.216  0.4216 -0.1689  0.2965
  927MOL0     C27832   1.189   1.461  -2.346  0.6036 -0.1518 -0.0979
  927MOL0    Cl27833   1.058   1.366  -2.285 -0.0469 -0.0170  0.1509
  927MOL0     C27834   1.954   1.876  -1.590 -0.3049  0.5289  0.0460
  927MOL0     C27835   2.083   1.853  -1.546 -0.0283 -0.0060  0.7031
  927MOL0     O27836   2.369   1.698  -1.711  0.8014 -0.6135  0.5887
  927MOL0     C27837   2.586   1.919  -1.549  0.2659  0.7521  0.2777
  927MOL0     C27838   2.710   1.943  -1.507 -0.1432  0.5996 -0.4506
  927MOL0     N27839   3.460   2.161  -1.158 -0.5460  0.7704  0.8478
  927MOL0     N27840   3.490   2.169  -1.033 -0.3864  0.9032 -0.0565
  927MOL0     C27841   3.649   2.017   0.012  0.1563  0.7650  0.0755
  927MOL0     C27842   3.733   1.959   0.106  0.2857  0.3661 -0.2712
  927MOL0     C27843   4.059   1.970   0.445  1.1668  0.2177  0.6770
  927MOL0     C27844   4.082   1.834   0.410  0.1032 -0.5565 -0.3758
  927MOL0     C27845   4.128   1.745   0.504 -0.0049  0.3136  0.2358
  927MOL0     C27846   4.168   1.789   0.636 -0.3653  0.4263  0.4389
  927MOL0     O27847   4.240   1.715   0.733  0.4750  0.3141  0.5468
  927MOL0     C27848   4.245   1.569   0.710  0.2263 -0.5104 -0.4902
  927MOL0     C27849   4.282   1.488   0.835  0.3175 -0.4422  0.0896
  927MOL0     C27850   4.175   1.449   0.950 -0.0017 -0.1731  0.1467
  927MOL0     C27851   4.143   1.564   1.047  0.1769 -0.7095 -0.6915
  927MOL0     C27852   4.028   1.522   1.130  0.1192 -0.0419 -0.6466
  927MOL0     C27853   3.941   1.470   1.198 -1.0524  0.0423 -0.0223
  927MOL0     C27854   4.142   1.923   0.671 -0.7976 -0.4270  0.4523
  927MOL0     C27855   4.094   2.015   0.573 -0.1717 -0.0783  0.2284
  927MOL0     C27856   4.072   2.161   0.612  1.3996  0.5095  0.0425
  927MOL0     H27857   3.979   2.196   0.084  0.0267  0.3284  0.1309
  927MOL0     H27858   3.840   2.281  -0.076  0.2921  0.3924  1.1111
  927MOL0     H27859   3.685   2.321  -0.250 -0.1678 -0.1903 -2.2176
  927MOL0     H27860   3.589   2.405  -0.117  2.5760  0.2886 -0.3275
  927MOL0     H27861   3.376   2.335  -0.214 -0.0466 -0.9302 -0.2814
  927MOL0     H27862   3.462   2.421  -0.331 -2.6639  0.7567 -0.1359
  927MOL0     H27863   3.537   2.231  -0.456  1.5027  2.3510  1.8710
  927MOL0     H27864   3.472   2.116  -0.349  1.3345  0.3466  0.2078
  927MOL0     H27865   3.245   2.275  -0.379  0.8704 -0.4952  1.0500
  927MOL0     H27866   3.343   2.333  -0.511  3.1308 -0.9470  0.6466
  927MOL0     H27867   3.160   2.137  -0.533 -0.0341  0.7267  0.4524
  927MOL0     H27868   3.303   2.036  -0.498 -1.3255 -1.1838 -1.3540
  927MOL0     H27869   3.244   2.037  -0.731  0.0712 -1.0402  0.7981
  927MOL0     H27870   3.267   2.217  -0.725  1.8487 -0.0599  1.3840
  927MOL0     H27871   3.497   2.056  -0.632  2.1504  2.5688 -0.0710
  927MOL0     H27872   3.496   2.183  -0.756  0.2348 -0.6628 -2.8140
  927MOL0     H27873   3.547   1.945  -0.853  1.1433  1.2100  0.0583
  927MOL0     H27874   3.375   1.923  -0.835  0.5758  0.1609 -2.6144
  927MOL0     H27875   3.257   1.937  -1.045 -0.7346  1.7795  1.5246
  927MOL0     H27876   3.371   2.020  -1.371 -3.4595  0.0409 -2.2272
  927MOL0     H27877   3.257   2.145  -1.317 -2.1698  0.3087  3.9792
  927MOL0     H27878   3.158   1.860  -1.246 -4.7850 -0.4615  0.0248
  927MOL0     H27879   3.075   1.996  -1.319  1.7611  1.7124 -0.0878
  927MOL0     H27880   3.200   1.930  -1.539  0.6199 -3.7504 -2.6562
  927MOL0     H27881   3.255   1.792  -1.453  0.4908 -1.0656 -0.3401
  927MOL0     H27882   3.037   1.746  -1.583  0.1583  0.5284 -0.4303
  927MOL0     H27883   3.026   1.723  -1.401  2.3965 -0.7952 -0.2602
  927MOL0     H27884   2.847   1.650  -1.589  0.1787  0.6112  0.1988
  927MOL0     H27885   2.733   1.504  -1.709  0.3742  0.3241  2.2315
  927MOL0     H27886   2.610   1.590  -1.807  2.8317  3.6730 -0.1603
  927MOL0     H27887   2.560   1.498  -1.665 -2.5207  0.3914 -3.5314
  927MOL0     H27888   2.259   1.926  -1.813  0.4570 -0.7962 -0.3395
  927MOL0     H27889   2.034   1.975  -1.910 -0.5365  0.6639 -0.1559
  927MOL0     H27890   1.831   1.722  -1.855 -0.5016 -0.5730 -0.0879
  927MOL0     H27891   1.726   1.737  -1.713  3.0672  0.0019  1.4193
  927MOL0     H27892   1.596   1.909  -1.901 -0.8032  0.8063  1.0413
  927MOL0     H27893   1.674   1.789  -2.005 -0.8430 -0.7060  0.5164
  927MOL0     H27894   1.459   1.732  -1.797  1.9156  1.6187  0.4635
  927MOL0     H27895   1.562   1.606  -1.832  1.7678 -0.1441 -1.3286
  927MOL0     H27896   1.398   1.752  -2.037 -1.8615  0.1442  2.1639
  927MOL0     H27897   1.347   1.590  -1.967  0.0800 -0.3810  1.9479
  927MOL0     H27898   1.579   1.652  -2.142 -0.7707  0.7894 -0.5638
  927MOL0     H27899   1.537   1.488  -2.082 -5.6366 -1.9597  2.6342
  927MOL0     H27900   1.467   1.504  -2.322  0.2661  2.7881 -0.5195
  927MOL0     H27901   1.381   1.655  -2.288 -1.2016 -0.9673 -1.3079
  927MOL0     H27902   1.210   1.560  -2.154 -4.3189 -0.2303 -3.9305
  927MOL0     H27903   1.295   1.405  -2.159 -1.9682 -0.0522  1.5011
  927MOL0     H27904   1.247   1.426  -2.432  0.6939  1.8581 -0.9180
  927MOL0     H27905   1.142   1.553  -2.382  1.0275  0.4550  0.8374
  927MOL0     H27906   1.873   1.829  -1.535 -0.2804 -0.8899 -1.0631
  927MOL0     H27907   2.101   1.811  -1.448  1.2435 -3.2741 -0.7590
  927MOL0     H27908   2.510   1.994  -1.529 -1.2907 -1.2860  2.6575
  927MOL0     H27909   2.723   2.037  -1.455 -1.9782  0.7764 -0.2596
  927MOL0     H27910   3.556   1.964  -0.007 -2.0245  3.9666  1.0044
  927MOL0     H27911   3.716   1.859   0.146  1.7508  0.9551  2.0428
  927MOL0     H27912   4.080   1.798   0.307  0.4824 -0.2393 -0.4990
  927MOL0     H27913   4.141   1.642   0.476 -0.4109  0.2559  0.2472
  927MOL0     H27914   4.159   1.530   0.655 -0.9875  3.8447 -2.1138
  927MOL0     H27915   4.336   1.562   0.650  1.0732  1.5791  0.4450
  927MOL0     H27916   4.368   1.544   0.872 -1.0155 -0.0467  2.8267
  927MOL0     H27917   4.328   1.395   0.799  1.9641  0.5306 -0.4548
  927MOL0     H27918   4.082   1.422   0.900  0.0168  4.3400 -2.8776
  927MOL0     H27919   4.207   1.362   1.008 -0.5736 -0.8408 -0.5354
  927MOL0     H27920   4.127   1.664   1.005 -0.6294 -1.2375 -1.6884
  927MOL0     H27921   4.238   1.573   1.100  1.6527 -1.8247 -2.9769
  927MOL0     H27922   3.862   1.411   1.240  0.2443 -1.9729 -0.2886
  927MOL0     H27923   4.160   1.955   0.774 -0.7869 -1.4523  0.7763
  927MOL0     H27924   3.963   2.174   0.619  1.1686  0.4488 -2.6800
  927MOL0     H27925   4.121   2.173   0.709  0.2163 -0.4264  0.7874
  927MOL0     H27926   4.113   2.227   0.536  0.7648 -0.0967 -0.8436
  928MOL0     O27927   1.002  11.110   5.535  0.1189  0.3907 -0.2244
  928MOL0     C27928   1.094  11.191   5.566  0.4224  0.0850  0.5394
  928MOL0     O27929   1.194  11.225   5.476  0.0841  0.8615  0.2175
  928MOL0     C27930   1.195  11.179   5.344 -0.1794 -1.0257 -0.5474
  928MOL0     C27931   1.151  11.273   5.253 -0.0090  0.3496  0.2219
  928MOL0     C27932   1.156  11.239   5.120  1.2160  0.1842 -0.6738
  928MOL0     C27933   1.192  11.113   5.074 -1.5673  0.3218  1.5432
  928MOL0     O27934   1.181  11.083   4.941 -0.9910 -0.1155 -0.0616
  928MOL0     C27935   1.138  10.954   4.904  0.1552 -0.5862  0.7383
  928MOL0     C27936   1.094  10.944   4.756  0.3325  0.0191  0.2162
  928MOL0     C27937   1.191  10.996   4.653 -0.6205  0.3631 -1.3074
  928MOL0     C27938   1.320  10.918   4.657  0.2421  0.6807 -0.1515
  928MOL0     C27939   1.393  10.911   4.528  0.5868  0.3244  0.1936
  928MOL0     C27940   1.497  11.017   4.512 -0.6441  0.0190  0.6902
  928MOL0     C27941   1.585  10.989   4.387 -0.1453 -0.0727 -0.6301
  928MOL0     C27942   1.691  11.090   4.359  0.3972 -0.1024  1.2815
  928MOL0     N27943   1.647  11.227   4.331  0.5053  0.1071  0.2628
  928MOL0     C27944   1.656  11.331   4.414 -0.1428 -0.3824  0.8571
  928MOL0     C27945   1.653  11.440   4.336  0.5722 -0.3036  1.2468
  928MOL0     C27946   1.646  11.585   4.377 -0.1027  0.0547 -0.7442
  928MOL0     C27947   1.785  11.644   4.341  0.5369 -0.4991  0.2552
  928MOL0     C27948   1.779  11.757   4.239  1.0619 -0.0159 -1.0883
  928MOL0     C27949   1.923  11.797   4.197  0.9509  0.0862 -0.3742
  928MOL0     O27950   1.997  11.844   4.310  0.4083 -0.2240 -0.1293
  928MOL0     C27951   1.971  11.957   4.379  0.4012 -0.0521  0.1017
  928MOL0     C27952   2.041  11.973   4.503  0.3372  0.6572  0.2344
  928MOL0     C27953   2.030  12.090   4.574  0.0526 -0.1137 -0.1860
  928MOL0     C27954   2.121  12.090   4.700 -1.0051  0.9675 -0.4398
  928MOL0     C27955   1.955  12.197   4.536 -0.6212  0.7121 -0.4035
  928MOL0     C27956   1.952  12.332   4.598 -0.7904 -0.3242 -0.1592
  928MOL0     O27957   1.944  12.347   4.728 -0.0571  0.0468 -0.8096
  928MOL0     C27958   1.941  12.472   4.790  0.9056  0.1238 -0.2348
  928MOL0     C27959   1.866  12.480   4.909 -0.3928  0.5627  0.9781
  928MOL0     C27960   1.848  12.602   4.975 -0.2191 -0.2181  0.2502
  928MOL0     C27961   1.912  12.717   4.928 -0.1005 -0.2605 -0.0803
  928MOL0     O27962   1.911  12.826   5.018  0.7239 -0.6066 -0.0145
  928MOL0     C27963   1.976  12.944   4.972  0.5350 -0.2122 -0.2042
  928MOL0     C27964   1.946  13.051   5.076  0.6489 -0.2012  0.2385
  928MOL0     C27965   1.806  13.116   5.068 -0.2172 -0.4307  0.2517
  928MOL0     C27966   1.798  13.242   5.157  0.6018 -0.3901  0.1417
  928MOL0     C27967   1.686  13.339   5.120 -0.6347 -0.3717  0.5300
  928MOL0     C27968   1.707  13.412   4.994 -0.1101  0.3072 -0.5398
  928MOL0     C27969   1.616  13.537   4.981  0.1777 -0.3722 -0.6198
  928MOL0     C27970   1.496  13.505   4.890  0.0565  0.3199 -0.7478
  928MOL0    Cl27971   1.555  13.457   4.721  0.0297 -0.2621  0.0222
  928MOL0     C27972   1.985  12.714   4.816 -0.7137  0.1696 -0.1098
  928MOL0     C27973   2.004  12.588   4.752 -0.9048 -1.5491  0.2894
  928MOL0     O27974   1.930  12.422   4.523 -0.1356 -0.1509  0.2536
  928MOL0     C27975   1.880  12.178   4.417  0.0818 -0.2675 -0.0890
  928MOL0     C27976   1.887  12.059   4.340 -0.4568 -0.5927  0.6680
  928MOL0     N27977   1.648  11.402   4.203  0.2481  0.4458 -0.7728
  928MOL0     N27978   1.644  11.272   4.200 -0.3647 -0.2626  0.1473
  928MOL0     C27979   1.223  11.015   5.164  0.0107 -0.4896  0.3701
  928MOL0     C27980   1.234  11.057   5.300  0.5512  1.3400 -1.1616
  928MOL0     C27981   1.117  11.236   5.707  0.1387  0.2869  0.3280
  928MOL0     C27982   1.010  11.256   5.785 -0.8243  0.0335 -0.1437
  928MOL0     C27983   1.031  11.281   5.919  0.0605  0.3916 -0.4100
  928MOL0     C27984   1.156  11.285   5.982 -0.8592 -0.8670 -0.3849
  928MOL0     O27985   1.164  11.326   6.113  0.1854  0.6986  0.0913
  928MOL0     C27986   1.270  11.274   6.192 -0.2372  0.5454 -0.2269
  928MOL0     C27987   1.251  11.302   6.341  0.6548 -0.5229  0.4712
  928MOL0     C27988   1.133  11.221   6.411 -0.1347  0.1328  0.1237
  928MOL0     C27989   1.098  11.277   6.546 -0.2141  0.2500 -0.2048
  928MOL0     C27990   0.960  11.240   6.593  0.1127 -0.2380 -0.2372
  928MOL0     C27991   0.853  11.210   6.642  0.0876  0.3876  1.2519
  928MOL0     C27992   1.268  11.266   5.902  0.8176  0.5122 -0.8986
  928MOL0     C27993   1.255  11.238   5.769  0.5351  0.1059 -0.3245
  928MOL0     C27994   1.367  11.163   5.705  0.0012 -0.4205 -0.8613
  928MOL0     H27995   1.108  11.370   5.276 -0.8472 -0.5066  2.5998
  928MOL0     H27996   1.119  11.319   5.057 -2.0859  0.2514  1.1360
  928MOL0     H27997   1.054  10.922   4.966  0.9122 -0.3111  1.9353
  928MOL0     H27998   1.224  10.891   4.930  0.6836 -0.6189 -0.9459
  928MOL0     H27999   1.072  10.840   4.730 -0.0561  0.4768 -1.3815
  928MOL0     H28000   1.000  10.998   4.742  0.1343  0.2745  2.2968
  928MOL0     H28001   1.139  10.976   4.559 -2.2869  1.1652 -0.5977
  928MOL0     H28002   1.221  11.098   4.679  2.5279 -1.1179  1.7674
  928MOL0     H28003   1.394  10.947   4.733  0.4394  1.0800 -0.4914
  928MOL0     H28004   1.291  10.816   4.684 -1.1550  1.0961  0.0004
  928MOL0     H28005   1.322  10.906   4.445 -1.9620  0.6725  2.2571
  928MOL0     H28006   1.450  10.818   4.523  1.3917  0.8564 -0.9256
  928MOL0     H28007   1.451  11.116   4.505  1.3507  1.1066  2.2489
  928MOL0     H28008   1.562  11.017   4.599 -1.1728 -1.7071  1.1279
  928MOL0     H28009   1.530  10.971   4.295  0.6850 -0.1466 -1.1254
  928MOL0     H28010   1.644  10.902   4.418  0.6006  0.6427  0.0170
  928MOL0     H28011   1.758  11.105   4.445  1.4516  1.7062  0.2042
  928MOL0     H28012   1.748  11.054   4.273  1.4201 -0.3042  2.0165
  928MOL0     H28013   1.659  11.337   4.522 -1.9533  2.0249  0.8434
  928MOL0     H28014   1.639  11.584   4.486  2.5553 -0.3076 -0.5086
  928MOL0     H28015   1.560  11.638   4.335  0.9730  1.8021 -0.8503
  928MOL0     H28016   1.821  11.691   4.433  1.4829  0.2053 -0.4583
  928MOL0     H28017   1.854  11.563   4.314  0.0217 -0.3837 -1.5590
  928MOL0     H28018   1.725  11.712   4.155 -0.2378 -1.6236  0.5091
  928MOL0     H28019   1.732  11.841   4.291  0.5644 -2.0647  2.0671
  928MOL0     H28020   1.985  11.721   4.148  3.1982  1.7200 -0.2007
  928MOL0     H28021   1.907  11.882   4.130 -1.5740  0.0695  0.0909
  928MOL0     H28022   2.111  11.898   4.538  0.4856  0.9879  0.6518
  928MOL0     H28023   2.227  12.063   4.696 -0.1110  3.7854  1.3941
  928MOL0     H28024   2.084  12.024   4.779  1.3869 -0.2998 -0.2622
  928MOL0     H28025   2.121  12.193   4.739 -0.6751  0.7090  0.2638
  928MOL0     H28026   1.836  12.388   4.957  0.1114  1.0667  2.3067
  928MOL0     H28027   1.798  12.606   5.071 -1.7459  1.4476 -0.5602
  928MOL0     H28028   2.085  12.937   4.971  0.8701  3.0201  1.5582
  928MOL0     H28029   1.950  12.957   4.867  1.7272 -0.8730 -0.5990
  928MOL0     H28030   1.958  13.012   5.177 -4.5208  3.4180  2.7479
  928MOL0     H28031   2.018  13.131   5.056  1.8900 -1.1063  0.9968
  928MOL0     H28032   1.729  13.040   5.085  2.0100 -3.1733 -1.1312
  928MOL0     H28033   1.796  13.162   4.969 -2.6926  0.2033  0.7281
  928MOL0     H28034   1.879  13.315   5.166 -2.6664  3.8062 -0.8465
  928MOL0     H28035   1.775  13.202   5.257 -2.0419  0.5805  0.0127
  928MOL0     H28036   1.594  13.280   5.111 -1.9977  1.8832 -1.5405
  928MOL0     H28037   1.673  13.403   5.207  4.8472 -0.0370  1.4359
  928MOL0     H28038   1.697  13.351   4.904  0.9779 -1.7442  0.6523
  928MOL0     H28039   1.802  13.466   4.995 -1.1891  2.3575 -2.2478
  928MOL0     H28040   1.670  13.620   4.933 -0.8892  0.0236 -1.1569
  928MOL0     H28041   1.584  13.579   5.076  0.1789  2.0677 -1.6253
  928MOL0     H28042   1.428  13.590   4.883 -1.0076 -0.0213  3.1047
  928MOL0     H28043   1.446  13.420   4.937  0.2131  1.9623  2.6692
  928MOL0     H28044   2.029  12.804   4.774 -1.7644 -0.3821 -2.5863
  928MOL0     H28045   2.064  12.588   4.662  0.9090 -5.7831  1.2130
  928MOL0     H28046   1.808  12.252   4.387 -0.8886 -1.6972 -1.4493
  928MOL0     H28047   1.830  12.053   4.247  0.2755  3.3268 -0.2024
  928MOL0     H28048   1.236  10.910   5.142 -0.8058 -0.3331 -0.9262
  928MOL0     H28049   1.270  10.982   5.370  1.2209 -0.8866 -3.7300
  928MOL0     H28050   0.913  11.257   5.736 -0.0908 -2.8787 -1.8926
  928MOL0     H28051   0.950  11.305   5.988  2.4229  2.0039  2.0419
  928MOL0     H28052   1.284  11.167   6.180 -1.9156  0.2095  0.5043
  928MOL0     H28053   1.362  11.327   6.165 -0.1480  1.6619  1.9584
  928MOL0     H28054   1.242  11.409   6.361  3.3612 -0.1418  0.0307
  928MOL0     H28055   1.345  11.272   6.388  2.1593  0.4761 -1.7833
  928MOL0     H28056   1.042  11.237   6.352 -0.5973  0.2491  0.8509
  928MOL0     H28057   1.156  11.114   6.407  2.4670  0.6739 -2.4566
  928MOL0     H28058   1.091  11.386   6.539  4.1596  0.7336  0.6094
  928MOL0     H28059   1.168  11.243   6.623  0.1751 -2.6002 -1.6647
  928MOL0     H28060   0.758  11.185   6.684  0.2976 -0.4991  1.2164
  928MOL0     H28061   1.368  11.273   5.946 -0.7370  0.1511  3.1341
  928MOL0     H28062   1.355  11.058   5.677  1.3953 -1.5712  2.3466
  928MOL0     H28063   1.396  11.222   5.618  0.7954  2.4857  1.1968
  928MOL0     H28064   1.453  11.159   5.772 -0.7658 -2.2465  0.0815
  929MOL0     O28065   0.560   4.346  10.065  0.1957 -0.8152  0.5313
  929MOL0     C28066   0.571   4.352   9.944 -0.0815 -1.0252  0.0180
  929MOL0     O28067   0.671   4.287   9.880  0.2607  1.0008 -0.1299
  929MOL0     C28068   0.733   4.177   9.936  0.2764 -0.2015 -0.0325
  929MOL0     C28069   0.663   4.056   9.977 -0.0872 -0.7399 -0.7899
  929MOL0     C28070   0.740   3.949  10.019  0.8538 -0.5286  0.6439
  929MOL0     C28071   0.874   3.950  10.028  0.1733 -0.1663 -0.4502
  929MOL0     O28072   0.930   3.833  10.077 -0.4449  0.1464 -0.7338
  929MOL0     C28073   1.070   3.803  10.095 -0.7672  0.6299 -0.2919
  929MOL0     C28074   1.102   3.749  10.232  0.5464 -0.5296  0.3043
  929MOL0     C28075   1.225   3.653  10.246  0.0487  0.4424 -1.0171
  929MOL0     C28076   1.345   3.719  10.198 -0.4261 -0.3094 -0.3245
  929MOL0     C28077   1.470   3.638  10.200  0.3662  0.7375  0.1559
  929MOL0     C28078   1.519   3.593  10.335 -0.8157 -0.9563 -0.2075
  929MOL0     C28079   1.511   3.699  10.446  0.6856 -0.3443  0.5075
  929MOL0     C28080   1.600   3.657  10.564 -0.0079  0.6430  0.7284
  929MOL0     N28081   1.617   3.772  10.651 -0.4385  0.3273  0.5550
  929MOL0     C28082   1.526   3.832  10.733  0.7467  0.9973  0.9305
  929MOL0     C28083   1.577   3.949  10.769  1.0900 -0.9652 -0.7893
  929MOL0     C28084   1.495   4.042  10.853  0.8559 -0.4630  0.7073
  929MOL0     C28085   1.560   4.063  10.986 -0.3377  0.5100  0.5320
  929MOL0     C28086   1.505   4.164  11.081 -0.2314  0.0235  0.4353
  929MOL0     C28087   1.587   4.162  11.220  0.4627  1.0351  0.1315
  929MOL0     O28088   1.500   4.201  11.333  0.8303  0.0963  0.9520
  929MOL0     C28089   1.553   4.253  11.453 -0.4809  0.4324  0.0058
  929MOL0     C28090   1.695   4.242  11.494  0.6114  0.5226  0.2801
  929MOL0     C28091   1.719   4.267  11.629 -0.6338  0.3436  0.1499
  929MOL0     C28092   1.858   4.244  11.687 -0.2528 -0.1881 -0.5468
  929MOL0     C28093   1.627   4.329  11.715 -0.0653 -0.7198 -0.8563
  929MOL0     C28094   1.646   4.359  11.856 -0.9072 -0.3658 -0.0991
  929MOL0     O28095   1.654   4.259  11.947  0.2464 -0.0818  0.0050
  929MOL0     C28096   1.667   4.288  12.086 -0.0652 -0.3246 -0.3532
  929MOL0     C28097   1.715   4.411  12.145 -0.7099 -0.9387 -0.0697
  929MOL0     C28098   1.736   4.410  12.285 -0.0389 -0.0155  0.1588
  929MOL0     C28099   1.727   4.296  12.358 -0.9721 -0.5836 -1.0453
  929MOL0     O28100   1.760   4.297  12.499 -0.0556 -0.5415  0.3662
  929MOL0     C28101   1.706   4.399  12.580  0.3165 -0.6331  1.1190
  929MOL0     C28102   1.645   4.336  12.700 -0.0719  1.2211  0.0410
  929MOL0     C28103   1.557   4.207  12.665 -0.1449 -0.5595 -0.8299
  929MOL0     C28104   1.437   4.234  12.573 -0.6243 -0.6484  0.2683
  929MOL0     C28105   1.347   4.110  12.588  0.2491 -0.9031  0.3114
  929MOL0     C28106   1.221   4.115  12.496 -0.0316  0.6644  0.7212
  929MOL0     C28107   1.109   4.019  12.527  1.0044  0.7082  0.4444
  929MOL0     C28108   0.969   4.080  12.518  0.6938  0.9692 -0.4461
  929MOL0    Cl28109   0.853   3.955  12.588 -0.0800 -0.2520  0.2004
  929MOL0     C28110   1.689   4.182  12.299  0.2569 -0.0585  0.6209
  929MOL0     C28111   1.657   4.170  12.162 -0.0943  0.1364 -0.1272
  929MOL0     O28112   1.652   4.480  11.869  0.7179  0.6042  0.1157
  929MOL0     C28113   1.495   4.350  11.665 -0.0147 -1.0206  0.1331
  929MOL0     C28114   1.460   4.306  11.536  0.2308 -0.0710 -0.2822
  929MOL0     N28115   1.712   3.953  10.726  0.3949 -0.2735 -0.2252
  929MOL0     N28116   1.729   3.846  10.642  0.2531 -0.2083 -1.3487
  929MOL0     C28117   0.942   4.056   9.969 -0.5558  0.1939 -0.0080
  929MOL0     C28118   0.868   4.169   9.926  0.1536  0.1690 -0.0388
  929MOL0     C28119   0.480   4.436   9.854  0.3742 -0.0767  0.4278
  929MOL0     C28120   0.496   4.450   9.714  0.2011  0.1308 -0.6235
  929MOL0     C28121   0.407   4.520   9.639  0.0558  0.0213  0.5295
  929MOL0     C28122   0.297   4.584   9.690 -0.0959 -0.4988 -0.2502
  929MOL0     O28123   0.220   4.651   9.604  0.7408  0.1081  0.2749
  929MOL0     C28124   0.082   4.661   9.618  1.2913  0.3671  0.5329
  929MOL0     C28125   0.022   4.722   9.494 -0.0915 -0.6988 -1.1436
  929MOL0     C28126   0.054   4.652   9.370  0.6627  0.6246  0.0824
  929MOL0     C28127  -0.008   4.698   9.242  0.5885  0.0779 -0.2617
  929MOL0     C28128   0.057   4.814   9.169  0.7111  0.2476 -0.2754
  929MOL0     C28129   0.103   4.916   9.131 -0.0830 -1.0955 -0.1087
  929MOL0     C28130   0.273   4.578   9.827  0.6597  0.2368 -0.0770
  929MOL0     C28131   0.376   4.515   9.910 -0.4040  0.4404 -0.0097
  929MOL0     C28132   0.364   4.561  10.063  0.9690 -0.1127  0.2596
  929MOL0     H28133   0.555   4.040   9.978  0.3170 -3.9340 -0.0975
  929MOL0     H28134   0.685   3.864  10.059  2.2296 -1.4991  0.5598
  929MOL0     H28135   1.135   3.886  10.068 -3.2953  2.2608 -1.7872
  929MOL0     H28136   1.091   3.717  10.029  2.2372  0.9613  0.1178
  929MOL0     H28137   1.114   3.839  10.293  2.5452 -0.6343  0.1342
  929MOL0     H28138   1.010   3.700  10.263 -0.3383  0.6191 -0.4283
  929MOL0     H28139   1.229   3.637  10.354  1.4211 -0.3381 -1.1545
  929MOL0     H28140   1.212   3.560  10.190  0.4304  0.3327 -0.9281
  929MOL0     H28141   1.315   3.752  10.098 -1.8947  1.7704  0.7265
  929MOL0     H28142   1.365   3.808  10.260 -0.9782 -0.5737  0.2423
  929MOL0     H28143   1.552   3.704  10.168  1.1306  0.6203  1.7492
  929MOL0     H28144   1.464   3.553  10.132 -2.3127  0.6089  0.4632
  929MOL0     H28145   1.461   3.508  10.373 -0.4586 -0.2180  2.0982
  929MOL0     H28146   1.621   3.555  10.325 -1.0362 -2.0129  1.2248
  929MOL0     H28147   1.404   3.710  10.467  0.7602 -0.8820  1.2063
  929MOL0     H28148   1.548   3.797  10.412  0.6097 -0.2144  0.7975
  929MOL0     H28149   1.571   3.571  10.625 -0.2184  1.2426  1.5009
  929MOL0     H28150   1.697   3.635  10.517 -1.7164  1.3676 -3.5633
  929MOL0     H28151   1.427   3.789  10.744  0.5113  1.8648  2.3558
  929MOL0     H28152   1.396   3.999  10.869 -0.0770  0.7286 -1.4264
  929MOL0     H28153   1.488   4.137  10.799  1.6330 -0.3289  0.8204
  929MOL0     H28154   1.558   3.963  11.032 -2.1061  1.0347  1.6983
  929MOL0     H28155   1.663   4.091  10.965 -0.0385 -2.2771 -2.7335
  929MOL0     H28156   1.500   4.261  11.031 -1.7040 -1.2169 -1.9956
  929MOL0     H28157   1.398   4.148  11.092 -0.7116  3.1976  1.3697
  929MOL0     H28158   1.632   4.066  11.245  1.3051  1.4307  0.1816
  929MOL0     H28159   1.672   4.230  11.206  0.6313  0.3156 -3.0956
  929MOL0     H28160   1.772   4.219  11.421  0.5115 -0.2412  0.4072
  929MOL0     H28161   1.886   4.139  11.687  1.6271  0.2728 -0.5719
  929MOL0     H28162   1.883   4.284  11.786  2.8537 -2.0784 -0.4325
  929MOL0     H28163   1.934   4.292  11.625  1.3291  1.9781  2.7620
  929MOL0     H28164   1.733   4.500  12.085 -1.5161 -2.0223 -1.9903
  929MOL0     H28165   1.777   4.481  12.356  1.7185 -2.1738  1.4418
  929MOL0     H28166   1.783   4.468  12.615 -0.3501  0.6535  0.1413
  929MOL0     H28167   1.625   4.457  12.533  0.5291  0.6726  2.2877
  929MOL0     H28168   1.731   4.303  12.759  0.6131  0.9871 -1.0493
  929MOL0     H28169   1.575   4.400  12.753 -1.6079  0.4309 -0.9810
  929MOL0     H28170   1.519   4.180  12.764 -2.8374  1.6262 -1.1420
  929MOL0     H28171   1.608   4.115  12.634 -3.1298 -2.9086  0.6833
  929MOL0     H28172   1.472   4.249  12.470 -3.5561 -3.9431 -1.4115
  929MOL0     H28173   1.374   4.322  12.589  0.6301  0.5519 -1.0226
  929MOL0     H28174   1.402   4.018  12.568 -1.8466 -1.6226 -2.8459
  929MOL0     H28175   1.303   4.108  12.688  1.3785 -0.0486  0.8393
  929MOL0     H28176   1.246   4.103  12.390 -4.7403 -2.0448 -0.3386
  929MOL0     H28177   1.179   4.215  12.509  0.9274  1.1327  0.3826
  929MOL0     H28178   1.125   3.975  12.626  1.7637  3.0216  1.4085
  929MOL0     H28179   1.120   3.933  12.460  1.7488 -1.2201  2.8924
  929MOL0     H28180   0.955   4.106  12.413  2.5025  3.2310 -0.2125
  929MOL0     H28181   0.967   4.161  12.591 -0.1811  0.0870  0.5480
  929MOL0     H28182   1.687   4.089  12.356 -1.7080 -1.7000 -1.8930
  929MOL0     H28183   1.623   4.080  12.112 -3.5920  1.4860 -0.4205
  929MOL0     H28184   1.413   4.386  11.727  0.5873 -1.5572  1.2688
  929MOL0     H28185   1.358   4.314  11.500  0.3724  1.0285 -0.4687
  929MOL0     H28186   1.050   4.048   9.977 -0.3281  3.0600  1.0966
  929MOL0     H28187   0.912   4.255   9.876  0.4349 -1.9519 -3.8455
  929MOL0     H28188   0.571   4.391   9.663 -1.9267 -0.3834 -3.4107
  929MOL0     H28189   0.430   4.534   9.534  1.1087  1.3238  0.9088
  929MOL0     H28190   0.045   4.558   9.620  2.0981 -0.0728 -2.5010
  929MOL0     H28191   0.046   4.725   9.699 -1.9807 -0.4281 -0.1456
  929MOL0     H28192   0.049   4.828   9.491  0.0104 -0.6846 -0.0657
  929MOL0     H28193  -0.086   4.718   9.508  0.1489 -2.9686  0.5570
  929MOL0     H28194   0.161   4.641   9.348  0.7068 -0.0311  0.5931
  929MOL0     H28195   0.017   4.550   9.383 -0.3433  0.8593 -0.8101
  929MOL0     H28196  -0.111   4.716   9.274  0.7890  0.9146 -0.0470
  929MOL0     H28197  -0.017   4.609   9.179  0.3175  0.4913 -0.8105
  929MOL0     H28198   0.135   5.018   9.121  0.8653 -1.5372 -2.0027
  929MOL0     H28199   0.185   4.627   9.868  1.6001  1.2229  0.8158
  929MOL0     H28200   0.271   4.607  10.099 -1.6617 -3.3162 -1.7527
  929MOL0     H28201   0.366   4.477  10.134 -1.2809 -0.4526  0.0094
  929MOL0     H28202   0.453   4.618  10.090 -0.4287  2.3671 -0.1064
  930MOL0     O28203   0.529   3.042   8.026  0.3715 -0.4545 -0.1718
  930MOL0     C28204   0.502   2.927   8.068 -0.0643  0.7361  0.4502
  930MOL0     O28205   0.373   2.889   8.100 -0.0587 -0.2756 -0.6859
  930MOL0     C28206   0.263   2.925   8.018  0.2752 -0.3423  0.3149
  930MOL0     C28207   0.272   2.943   7.880  0.4518  0.7696 -0.2945
  930MOL0     C28208   0.160   2.951   7.798  0.2113 -0.7450  0.3861
  930MOL0     C28209   0.029   2.943   7.845  0.6017  0.1269 -0.0500
  930MOL0     O28210  -0.078   2.948   7.761  0.0514  0.3596 -0.0163
  930MOL0     C28211  -0.070   2.845   7.655  0.1558  0.4380 -0.1144
  930MOL0     C28212  -0.216   2.820   7.640 -0.3339  0.4680 -0.0922
  930MOL0     C28213  -0.287   2.927   7.554  0.3961  0.7227  0.6061
  930MOL0     C28214  -0.453   2.924   7.552  0.9133 -0.3012  0.9703
  930MOL0     C28215  -0.526   2.810   7.485 -0.0760 -0.1671  0.2378
  930MOL0     C28216  -0.560   2.695   7.582 -0.1653  0.4646 -0.0711
  930MOL0     C28217  -0.680   2.608   7.530  0.0945  0.2754  0.3275
  930MOL0     C28218  -0.646   2.501   7.416 -0.1955 -0.2125 -0.2093
  930MOL0     N28219  -0.608   2.566   7.292  0.9770 -1.0962  0.5367
  930MOL0     C28220  -0.659   2.675   7.224 -0.0059  0.4968  0.7069
  930MOL0     C28221  -0.601   2.669   7.094 -0.6009  0.6993 -0.4425
  930MOL0     C28222  -0.620   2.785   7.001 -0.8541 -0.2924 -0.6104
  930MOL0     C28223  -0.488   2.856   6.966 -0.5687 -1.1930  0.0465
  930MOL0     C28224  -0.407   2.902   7.088  0.2935  0.5348 -0.0507
  930MOL0     C28225  -0.290   2.994   7.049 -0.7315 -0.6219  1.1802
  930MOL0     O28226  -0.238   3.040   7.172  0.0721  0.5968  0.2963
  930MOL0     C28227  -0.129   3.127   7.164  0.4560  1.3955  0.7035
  930MOL0     C28228  -0.102   3.184   7.284 -0.6424 -0.0497 -1.0033
  930MOL0     C28229   0.002   3.269   7.307  0.0601 -0.6616 -0.7043
  930MOL0     C28230   0.038   3.317   7.444  0.9682 -0.8206 -0.1048
  930MOL0     C28231   0.063   3.333   7.186  0.3216  0.2754 -0.7130
  930MOL0     C28232   0.152   3.453   7.199  0.2784  0.4124 -0.6562
  930MOL0     O28233   0.120   3.546   7.293  0.0809  0.7140 -0.3565
  930MOL0     C28234   0.176   3.674   7.300  1.0521  0.2262  0.2194
  930MOL0     C28235   0.147   3.731   7.430  0.5057  0.0070  0.6320
  930MOL0     C28236   0.211   3.849   7.475  0.5485  0.0080  0.3197
  930MOL0     C28237   0.292   3.922   7.381  0.0173  1.0021  0.2056
  930MOL0     O28238   0.369   4.035   7.401  0.8839  0.1227  0.1725
  930MOL0     C28239   0.342   4.098   7.524 -0.2676 -0.0969 -0.0556
  930MOL0     C28240   0.439   4.210   7.543 -0.5175  0.4461  0.2018
  930MOL0     C28241   0.376   4.317   7.633 -0.5896  0.0871  0.3189
  930MOL0     C28242   0.462   4.444   7.662 -0.8042 -0.7166  0.1259
  930MOL0     C28243   0.440   4.533   7.785  0.4470  0.3501  0.5973
  930MOL0     C28244   0.551   4.629   7.803 -0.8056  0.4118  0.2146
  930MOL0     C28245   0.528   4.712   7.934  0.2534 -1.1067 -0.0379
  930MOL0     C28246   0.555   4.633   8.055 -1.1856  0.5235  0.8379
  930MOL0    Cl28247   0.721   4.548   8.035  0.3317 -0.1057 -0.1381
  930MOL0     C28248   0.317   3.864   7.256 -0.2230  0.1230  0.0653
  930MOL0     C28249   0.257   3.737   7.212 -0.3106  0.2934 -0.6280
  930MOL0     O28250   0.248   3.465   7.129 -0.0864 -0.0764  0.0769
  930MOL0     C28251   0.026   3.281   7.058  0.6027  0.6341  0.1564
  930MOL0     C28252  -0.058   3.171   7.054 -0.1604  0.4586  0.4467
  930MOL0     N28253  -0.513   2.563   7.095 -0.8409 -0.4545 -0.5413
  930MOL0     N28254  -0.517   2.508   7.210 -0.1006 -0.7395  0.2151
  930MOL0     C28255   0.012   2.922   7.980  0.7769  0.4822 -0.1230
  930MOL0     C28256   0.127   2.916   8.064  0.6012 -0.5143 -0.5232
  930MOL0     C28257   0.604   2.831   8.089 -0.5881  0.1881  0.0125
  930MOL0     C28258   0.590   2.736   8.196 -0.0723 -0.0476  0.2497
  930MOL0     C28259   0.687   2.638   8.228  0.9352 -0.8035 -0.2637
  930MOL0     C28260   0.816   2.644   8.171  0.1980  0.5591  0.4360
  930MOL0     O28261   0.916   2.547   8.206  0.4706 -0.0419  0.5568
  930MOL0     C28262   0.974   2.476   8.086  0.6627 -0.1424 -0.6839
  930MOL0     C28263   1.061   2.346   8.114  0.0385  0.9685 -0.8305
  930MOL0     C28264   1.199   2.377   8.177  0.6996  0.7620  0.0856
  930MOL0     C28265   1.316   2.270   8.155 -0.6537 -0.3483  0.7135
  930MOL0     C28266   1.437   2.342   8.109  1.0216 -0.1085 -0.3116
  930MOL0     C28267   1.544   2.387   8.080 -0.2435  0.2147 -1.6290
  930MOL0     C28268   0.834   2.737   8.066 -0.4749  0.1065 -0.0166
  930MOL0     C28269   0.732   2.825   8.029  0.2905  0.3069  0.0305
  930MOL0     C28270   0.769   2.909   7.905  0.0583  1.1330 -0.2938
  930MOL0     H28271   0.374   2.943   7.844  0.9701  2.4527  1.0512
  930MOL0     H28272   0.167   2.971   7.692 -0.4950  0.2498  0.5155
  930MOL0     H28273  -0.007   2.761   7.686  0.5901  0.6336 -0.4466
  930MOL0     H28274  -0.029   2.885   7.562 -3.0170  0.9893 -1.3993
  930MOL0     H28275  -0.236   2.729   7.582 -3.4432  2.0786 -1.7874
  930MOL0     H28276  -0.264   2.806   7.737 -2.2830 -1.1314 -1.2135
  930MOL0     H28277  -0.258   3.029   7.581  2.0273  0.9010 -1.5445
  930MOL0     H28278  -0.252   2.905   7.453 -2.1571 -1.4267  0.0691
  930MOL0     H28279  -0.503   2.929   7.650 -4.5633 -0.6551 -1.4560
  930MOL0     H28280  -0.492   3.013   7.502 -2.8172 -1.2845  1.8159
  930MOL0     H28281  -0.469   2.770   7.402 -1.6660 -1.4610 -0.2874
  930MOL0     H28282  -0.627   2.836   7.450 -1.7221 -2.7261  2.6052
  930MOL0     H28283  -0.469   2.636   7.601  1.0545  1.9117 -1.1814
  930MOL0     H28284  -0.595   2.737   7.676 -2.2920 -2.8093  0.7640
  930MOL0     H28285  -0.761   2.680   7.520  0.5491  0.7229 -0.1471
  930MOL0     H28286  -0.709   2.549   7.618  2.1026  0.9033  1.4773
  930MOL0     H28287  -0.565   2.434   7.444  0.6633 -0.4486 -2.9727
  930MOL0     H28288  -0.739   2.446   7.400  0.1103 -0.4264 -1.3295
  930MOL0     H28289  -0.723   2.758   7.253 -1.5461 -0.0084 -1.0730
  930MOL0     H28290  -0.696   2.855   7.036 -3.5988 -2.5080 -1.7757
  930MOL0     H28291  -0.667   2.753   6.907  0.1293 -1.6600 -0.6694
  930MOL0     H28292  -0.425   2.792   6.903 -1.0132 -2.0901  0.4894
  930MOL0     H28293  -0.516   2.942   6.905 -0.4189 -0.8475  0.4545
  930MOL0     H28294  -0.471   2.955   7.160  0.2562  2.5026 -1.4595
  930MOL0     H28295  -0.358   2.811   7.125  1.0684  0.3954 -1.3503
  930MOL0     H28296  -0.214   2.944   6.990  1.1597 -0.2049  3.1404
  930MOL0     H28297  -0.336   3.082   7.002  1.3449  0.0596  0.3383
  930MOL0     H28298  -0.163   3.153   7.368 -0.6925  2.8850  0.1815
  930MOL0     H28299   0.144   3.325   7.469  0.4738  1.1404  1.6058
  930MOL0     H28300  -0.001   3.248   7.519 -0.7871 -0.6937 -0.8621
  930MOL0     H28301   0.006   3.419   7.469  0.0759 -0.2158 -3.2091
  930MOL0     H28302   0.085   3.680   7.503  2.8902 -2.3271  1.1672
  930MOL0     H28303   0.176   3.890   7.569  0.3322  3.2168 -1.0467
  930MOL0     H28304   0.245   4.148   7.521 -0.1416  0.2096  0.7244
  930MOL0     H28305   0.330   4.030   7.609 -1.1377 -0.5808 -0.5454
  930MOL0     H28306   0.531   4.166   7.583 -0.0468 -0.0156 -1.3226
  930MOL0     H28307   0.464   4.261   7.450  3.1272  1.0695  1.3531
  930MOL0     H28308   0.359   4.287   7.737  2.4279 -0.1745  0.8306
  930MOL0     H28309   0.280   4.359   7.602 -0.2647  2.0906  1.8152
  930MOL0     H28310   0.475   4.498   7.568 -0.8979 -0.1345  0.4424
  930MOL0     H28311   0.560   4.396   7.675 -0.1313  1.0595  2.2915
  930MOL0     H28312   0.343   4.583   7.774  0.3914 -0.0504 -0.8753
  930MOL0     H28313   0.432   4.471   7.875 -1.2172 -0.5528 -0.1339
  930MOL0     H28314   0.552   4.694   7.715  4.1682 -1.6965 -1.6302
  930MOL0     H28315   0.649   4.581   7.802 -0.6166  0.3165  4.4624
  930MOL0     H28316   0.429   4.759   7.936  0.5597 -0.4751  1.1656
  930MOL0     H28317   0.606   4.789   7.932  1.1586 -1.7927  3.1060
  930MOL0     H28318   0.470   4.566   8.069 -1.1734  0.6116  1.3634
  930MOL0     H28319   0.551   4.687   8.151 -1.8518  1.7329  0.1587
  930MOL0     H28320   0.394   3.914   7.198  2.7354 -2.1586  1.7134
  930MOL0     H28321   0.298   3.694   7.121  0.8344  1.5618 -0.7527
  930MOL0     H28322   0.078   3.317   6.970  2.6773 -1.5279  0.3768
  930MOL0     H28323  -0.095   3.138   6.957 -1.0047  0.3588  0.7887
  930MOL0     H28324  -0.090   2.911   8.014  0.0181  4.2323 -0.7903
  930MOL0     H28325   0.119   2.872   8.164  0.2544 -2.3292 -1.3114
  930MOL0     H28326   0.494   2.725   8.245  0.5763 -7.3241  0.9794
  930MOL0     H28327   0.653   2.553   8.287 -0.4704  0.4296  0.7578
  930MOL0     H28328   0.895   2.435   8.023 -0.1749 -0.7771  0.7365
  930MOL0     H28329   1.033   2.548   8.029 -0.5440 -0.5299 -2.5064
  930MOL0     H28330   1.079   2.298   8.018  3.2450 -2.0043  1.0137
  930MOL0     H28331   1.008   2.273   8.176  0.3293  0.3241 -1.3405
  930MOL0     H28332   1.235   2.477   8.149 -2.2711  2.4029  1.6492
  930MOL0     H28333   1.181   2.389   8.284 -0.0800 -0.2284  0.0821
  930MOL0     H28334   1.290   2.205   8.071 -0.8491  3.8233 -2.8413
  930MOL0     H28335   1.330   2.208   8.244 -0.3319 -2.6617 -0.8763
  930MOL0     H28336   1.628   2.448   8.054 -0.3441  0.7659 -0.7146
  930MOL0     H28337   0.934   2.755   8.028  0.3830 -2.6647  0.6884
  930MOL0     H28338   0.677   2.956   7.868  0.1732 -0.5069 -2.9549
  930MOL0     H28339   0.843   2.986   7.926 -0.0135  1.1304 -0.0264
  930MOL0     H28340   0.809   2.854   7.819  0.3569  1.6440 -0.4877
  931MOL0     O28341   7.979   0.210   1.331  0.1326  0.4790 -0.0899
  931MOL0     C28342   8.066   0.261   1.402 -0.1631 -1.0292 -0.7940
  931MOL0     O28343   8.101   0.391   1.397  0.4219 -0.8258  0.0244
  931MOL0     C28344   8.018   0.477   1.329  0.0920 -0.0694 -0.6301
  931MOL0     C28345   7.934   0.567   1.404 -0.5687  0.1475  0.1097
  931MOL0     C28346   7.878   0.684   1.359  0.2533  0.2421  0.4021
  931MOL0     C28347   7.887   0.696   1.223 -0.0466  0.7879  0.1265
  931MOL0     O28348   7.800   0.801   1.174 -0.9195  0.0503 -0.2262
  931MOL0     C28349   7.808   0.828   1.031  0.4827  1.2266  1.0755
  931MOL0     C28350   7.920   0.923   0.990  0.6103 -0.1836 -0.2288
  931MOL0     C28351   7.887   0.996   0.868 -0.0033  0.2789  0.7604
  931MOL0     C28352   7.986   1.116   0.842 -1.7207 -0.1372  0.0056
  931MOL0     C28353   7.962   1.185   0.707 -0.0720  0.3341 -0.2702
  931MOL0     C28354   8.048   1.313   0.716 -0.7918 -0.5799  0.6770
  931MOL0     C28355   8.038   1.384   0.578 -0.7436 -0.6849  0.0237
  931MOL0     C28356   8.142   1.494   0.574  0.0360 -0.0584  0.4934
  931MOL0     N28357   8.096   1.617   0.639  0.5080 -0.6704  0.2246
  931MOL0     C28358   8.066   1.729   0.572  0.1793  0.9313  0.5906
  931MOL0     C28359   8.032   1.816   0.667  0.2575 -0.1118 -0.3539
  931MOL0     C28360   7.978   1.948   0.623  0.1495 -1.4160  0.8290
  931MOL0     C28361   8.053   2.014   0.502  0.5091 -0.2064 -0.0776
  931MOL0     C28362   8.030   2.170   0.489  0.1563 -0.2684  0.0615
  931MOL0     C28363   7.884   2.222   0.458 -0.5305  0.5583 -0.1889
  931MOL0     O28364   7.812   2.120   0.377  0.6510  0.1869 -0.9349
  931MOL0     C28365   7.771   2.163   0.253  0.2123 -0.7777  0.1738
  931MOL0     C28366   7.857   2.151   0.138 -0.2407 -0.0641  0.3724
  931MOL0     C28367   7.807   2.190   0.008 -1.0089  0.5229 -0.4984
  931MOL0     C28368   7.896   2.180  -0.123 -0.6142 -0.4291  0.0980
  931MOL0     C28369   7.675   2.228   0.002  1.1941 -0.6256 -0.2465
  931MOL0     C28370   7.609   2.280  -0.124 -0.2653  0.1170 -0.4443
  931MOL0     O28371   7.470   2.261  -0.130 -0.7024 -0.0105  0.1446
  931MOL0     C28372   7.405   2.282  -0.255  0.1863 -0.6945 -1.2774
  931MOL0     C28373   7.383   2.417  -0.305 -0.5208 -0.3892 -1.1003
  931MOL0     C28374   7.319   2.433  -0.425 -0.3917  0.1014  0.0150
  931MOL0     C28375   7.277   2.318  -0.501 -0.3941  0.1912  0.2514
  931MOL0     O28376   7.188   2.337  -0.612 -0.3903  0.3124  1.2009
  931MOL0     C28377   7.205   2.445  -0.714  0.4878  0.4739 -0.3082
  931MOL0     C28378   7.086   2.431  -0.818  0.3311  0.3283 -0.1462
  931MOL0     C28379   6.950   2.390  -0.751 -1.1183  0.3592  0.5282
  931MOL0     C28380   6.826   2.433  -0.834 -0.4252  0.4317 -0.2976
  931MOL0     C28381   6.700   2.380  -0.773  0.5252  0.4816  0.5747
  931MOL0     C28382   6.580   2.461  -0.841 -0.6526  0.0854  0.3199
  931MOL0     C28383   6.584   2.611  -0.783  0.8421 -0.8732 -0.2669
  931MOL0     C28384   6.437   2.674  -0.787  0.5985 -0.4818  0.2896
  931MOL0    Cl28385   6.398   2.735  -0.949  0.2124  0.0996  0.2553
  931MOL0     C28386   7.311   2.189  -0.464  0.2662 -0.6832 -0.6725
  931MOL0     C28387   7.381   2.180  -0.339 -0.3919 -0.0679  0.0821
  931MOL0     O28388   7.670   2.339  -0.203  0.3419 -0.8718 -0.4900
  931MOL0     C28389   7.595   2.227   0.115  0.7916  0.1101 -0.0189
  931MOL0     C28390   7.642   2.203   0.243 -0.5079 -0.9501  0.1086
  931MOL0     N28391   8.062   1.762   0.790  0.2236 -0.4436  0.0961
  931MOL0     N28392   8.088   1.642   0.767  0.3654 -0.5839 -0.0498
  931MOL0     C28393   7.972   0.610   1.138 -0.1283 -1.2495 -0.6375
  931MOL0     C28394   8.050   0.512   1.204 -0.8462  0.4344  0.7018
  931MOL0     C28395   8.143   0.163   1.490  0.4378  0.0087 -0.2405
  931MOL0     C28396   8.138   0.027   1.459 -0.2603  0.6373  0.0115
  931MOL0     C28397   8.209  -0.064   1.541  0.1395 -0.7758 -0.3649
  931MOL0     C28398   8.286  -0.030   1.644 -0.7673  0.2750  0.1301
  931MOL0     O28399   8.331  -0.140   1.711  0.5062 -0.6895 -0.0543
  931MOL0     C28400   8.430  -0.119   1.806 -0.5498 -0.2631  0.5352
  931MOL0     C28401   8.457  -0.244   1.880 -0.0168  0.2798 -0.1595
  931MOL0     C28402   8.533  -0.223   2.013  0.1766  0.2262  0.9450
  931MOL0     C28403   8.585  -0.353   2.058 -0.1612 -0.1946  1.1477
  931MOL0     C28404   8.600  -0.351   2.206 -0.3061 -0.0041 -0.1024
  931MOL0     C28405   8.637  -0.347   2.323  0.4468  0.0101 -0.9038
  931MOL0     C28406   8.306   0.102   1.674 -0.0586  0.0608 -0.2006
  931MOL0     C28407   8.237   0.206   1.598 -0.3857 -0.5072 -0.0521
  931MOL0     C28408   8.236   0.344   1.653 -0.9018  0.5590  0.6185
  931MOL0     H28409   7.925   0.553   1.511 -0.0152 -2.1976 -0.0871
  931MOL0     H28410   7.813   0.741   1.425  0.0830 -1.9354  2.2465
  931MOL0     H28411   7.715   0.877   1.003  0.2339 -0.6822 -1.9564
  931MOL0     H28412   7.809   0.733   0.976  0.9210 -0.0874  3.2499
  931MOL0     H28413   7.937   1.002   1.064 -0.4699  0.4911 -0.6682
  931MOL0     H28414   8.014   0.870   0.970  2.2856  1.7905  1.8620
  931MOL0     H28415   7.888   0.929   0.782  4.1159  0.8117  0.1867
  931MOL0     H28416   7.787   1.040   0.881 -0.3894  0.8873 -3.1300
  931MOL0     H28417   7.975   1.185   0.925 -0.1813 -0.3977  0.4544
  931MOL0     H28418   8.092   1.092   0.848 -0.5378  4.5170  2.5828
  931MOL0     H28419   7.855   1.199   0.691 -0.7798 -2.3966  1.4457
  931MOL0     H28420   8.002   1.109   0.639  3.0318 -0.7298  2.4781
  931MOL0     H28421   8.010   1.378   0.795 -2.9913 -1.0012  0.0332
  931MOL0     H28422   8.153   1.292   0.739  0.8443  4.3266 -0.9985
  931MOL0     H28423   7.937   1.425   0.573 -1.2021 -1.8474 -0.6592
  931MOL0     H28424   8.047   1.309   0.499 -3.5922 -1.1872  0.0523
  931MOL0     H28425   8.225   1.454   0.633 -1.5522 -2.5643  1.1955
  931MOL0     H28426   8.173   1.502   0.470  3.7178 -1.2150  1.3338
  931MOL0     H28427   8.083   1.745   0.466  0.0386  1.5967  0.6625
  931MOL0     H28428   7.959   2.019   0.704  2.5237  0.9716 -0.5367
  931MOL0     H28429   7.880   1.926   0.579  0.9391  0.0880 -1.9287
  931MOL0     H28430   8.160   1.993   0.508  0.4750 -0.4248 -0.2058
  931MOL0     H28431   8.024   1.958   0.412 -3.4210 -0.5253  1.2158
  931MOL0     H28432   8.073   2.214   0.579  0.4031 -0.5383  0.0759
  931MOL0     H28433   8.085   2.192   0.397 -0.1155 -4.2999 -1.2519
  931MOL0     H28434   7.827   2.229   0.551 -0.3952 -0.7137 -0.0026
  931MOL0     H28435   7.880   2.320   0.409  2.8405  2.1264  2.2823
  931MOL0     H28436   7.956   2.108   0.155 -0.5431 -0.6734  0.6232
  931MOL0     H28437   7.920   2.283  -0.150 -1.2862 -0.3984 -0.3997
  931MOL0     H28438   7.836   2.134  -0.202 -1.2624  0.3434  0.1339
  931MOL0     H28439   7.990   2.124  -0.115 -0.4489 -0.0375  1.0040
  931MOL0     H28440   7.419   2.504  -0.252  0.3705 -0.0257 -2.2614
  931MOL0     H28441   7.313   2.531  -0.471 -2.0287 -0.0329 -0.1134
  931MOL0     H28442   7.197   2.542  -0.662  0.5724  0.0170  0.5729
  931MOL0     H28443   7.300   2.446  -0.768  1.6961  3.0922  1.6253
  931MOL0     H28444   7.077   2.525  -0.872  3.7187  0.7810 -0.1412
  931MOL0     H28445   7.103   2.358  -0.897  0.5773  0.1455  0.0726
  931MOL0     H28446   6.936   2.435  -0.653 -2.1748  1.4401 -0.0932
  931MOL0     H28447   6.946   2.281  -0.740 -1.4251  0.3754  0.5853
  931MOL0     H28448   6.840   2.410  -0.940 -1.1806 -4.4992  0.3950
  931MOL0     H28449   6.818   2.541  -0.825 -0.2247  0.3455  1.1201
  931MOL0     H28450   6.698   2.272  -0.791  0.1425  0.6776 -0.6323
  931MOL0     H28451   6.701   2.398  -0.665 -3.3478  2.0582  0.4889
  931MOL0     H28452   6.494   2.399  -0.815  1.4279 -3.3115 -0.2284
  931MOL0     H28453   6.582   2.468  -0.950  1.6411 -0.2182  0.2936
  931MOL0     H28454   6.657   2.671  -0.839  0.0658 -2.0073 -2.5921
  931MOL0     H28455   6.604   2.613  -0.675  0.7223 -2.3154 -0.2086
  931MOL0     H28456   6.433   2.765  -0.726 -1.4142  0.9720 -1.8160
  931MOL0     H28457   6.373   2.594  -0.750  0.2756 -0.2669  0.2050
  931MOL0     H28458   7.268   2.107  -0.519 -2.1035 -0.1369  0.2435
  931MOL0     H28459   7.423   2.088  -0.299 -1.5121  0.0567  1.6507
  931MOL0     H28460   7.486   2.235   0.113  0.5970 -1.9780 -1.2362
  931MOL0     H28461   7.582   2.206   0.333 -0.1387  3.0327  0.3888
  931MOL0     H28462   7.957   0.609   1.031 -0.0426 -0.8783 -0.6517
  931MOL0     H28463   8.095   0.438   1.139  1.4289  0.2354  2.3915
  931MOL0     H28464   8.062   0.003   1.386 -0.7841  4.0153 -0.7410
  931MOL0     H28465   8.197  -0.171   1.544  0.9238 -1.0108  4.7594
  931MOL0     H28466   8.518  -0.076   1.756 -2.9378  4.7128  0.0268
  931MOL0     H28467   8.395  -0.046   1.880  0.4038 -4.9194  6.3922
  931MOL0     H28468   8.511  -0.308   1.811 -3.4541 -2.0158 -0.9952
  931MOL0     H28469   8.360  -0.293   1.894  0.4011 -0.3689  0.5609
  931MOL0     H28470   8.608  -0.145   1.995 -1.1079  1.4026  0.6105
  931MOL0     H28471   8.465  -0.179   2.086 -1.9274 -0.4451 -0.5060
  931MOL0     H28472   8.684  -0.375   2.016 -1.1520 -0.4054 -1.2587
  931MOL0     H28473   8.524  -0.438   2.025  1.1916 -0.8578  0.2609
  931MOL0     H28474   8.657  -0.322   2.425 -2.0010  2.4666 -0.9092
  931MOL0     H28475   8.365   0.121   1.763  1.2621 -3.5241 -0.1435
  931MOL0     H28476   8.304   0.409   1.597  0.8339 -0.6545  1.2243
  931MOL0     H28477   8.132   0.377   1.658 -2.3445 -3.1339 -1.4355
  931MOL0     H28478   8.280   0.339   1.753  1.9471 -1.0884 -0.5996
  932MOL0     O28479   1.082   4.698  11.383  0.0200  0.2161  0.7419
  932MOL0     C28480   1.067   4.582  11.428  0.7311  0.1632 -0.6859
  932MOL0     O28481   1.130   4.467  11.374  0.4222  0.6103  0.3440
  932MOL0     C28482   1.182   4.489  11.248 -0.4090 -0.2985 -0.5321
  932MOL0     C28483   1.113   4.514  11.134  0.4988 -0.4031  0.4656
  932MOL0     C28484   1.176   4.535  11.010  0.1526  0.2612 -0.4876
  932MOL0     C28485   1.315   4.516  10.997  0.6852 -0.6475 -0.0084
  932MOL0     O28486   1.385   4.516  10.875 -0.5786  0.2614  0.4410
  932MOL0     C28487   1.313   4.522  10.751 -0.3299 -0.1503 -0.6805
  932MOL0     C28488   1.272   4.671  10.729 -0.1463  1.4726 -0.0241
  932MOL0     C28489   1.176   4.692  10.617  0.5286  0.4669  0.3172
  932MOL0     C28490   1.115   4.834  10.631 -0.3328 -0.1288 -0.1365
  932MOL0     C28491   1.001   4.865  10.541  0.6055  0.1323 -0.3688
  932MOL0     C28492   1.036   4.856  10.396 -0.7684 -1.0018  0.9014
  932MOL0     C28493   0.908   4.861  10.318 -0.3470 -0.2540 -0.1131
  932MOL0     C28494   0.929   4.868  10.168  0.8776  1.2921 -1.5304
  932MOL0     N28495   0.810   4.860  10.092 -0.0841  0.2847 -0.0864
  932MOL0     C28496   0.697   4.943  10.102  0.6267 -0.5895  0.2505
  932MOL0     C28497   0.606   4.890  10.013 -0.0465 -0.1848 -0.0860
  932MOL0     C28498   0.472   4.937   9.979 -0.2199 -0.3813  0.0188
  932MOL0     C28499   0.459   4.995   9.837 -0.1438 -0.4436 -0.3751
  932MOL0     C28500   0.318   5.078   9.831  0.4047  0.2238 -0.0172
  932MOL0     C28501   0.208   4.993   9.764  0.2031  0.2029 -0.3582
  932MOL0     O28502   0.138   4.931   9.866  0.3018  0.3038  0.1757
  932MOL0     C28503   0.040   5.005   9.934 -0.2519  0.5565 -0.3781
  932MOL0     C28504  -0.080   5.021   9.864  0.2150  0.8075 -0.7536
  932MOL0     C28505  -0.185   5.089   9.925 -0.7991 -0.3889 -0.4424
  932MOL0     C28506  -0.306   5.114   9.845 -0.3979  0.6224 -0.4035
  932MOL0     C28507  -0.167   5.124  10.063 -0.0077  0.5834 -0.4085
  932MOL0     C28508  -0.264   5.199  10.136  0.4575  0.1586  0.1668
  932MOL0     O28509  -0.349   5.286  10.074 -0.0662  0.1028  0.6794
  932MOL0     C28510  -0.439   5.330  10.160  0.0664  0.2171 -0.0540
  932MOL0     C28511  -0.553   5.251  10.189  0.3811  0.7237 -1.1007
  932MOL0     C28512  -0.639   5.294  10.286 -0.0622 -0.1378 -0.1630
  932MOL0     C28513  -0.629   5.417  10.351  0.0569 -0.0362 -0.9728
  932MOL0     O28514  -0.719   5.471  10.438  0.5932 -0.2076 -0.4225
  932MOL0     C28515  -0.831   5.401  10.495  0.4622  0.9590  0.0278
  932MOL0     C28516  -0.916   5.493  10.583 -0.5870 -0.7017  0.7312
  932MOL0     C28517  -1.054   5.437  10.629 -0.3527  0.2077  0.7461
  932MOL0     C28518  -1.146   5.546  10.684  0.3265  0.0019 -0.4430
  932MOL0     C28519  -1.275   5.484  10.752 -0.1349  0.2295  0.8064
  932MOL0     C28520  -1.363   5.395  10.653  0.5305  0.3203 -0.3068
  932MOL0     C28521  -1.448   5.491  10.563  0.3051  0.9108  0.1664
  932MOL0     C28522  -1.496   5.418  10.445 -0.2407  0.3809 -0.4309
  932MOL0    Cl28523  -1.650   5.491  10.386  0.1847 -0.3245 -0.0336
  932MOL0     C28524  -0.522   5.498  10.327 -0.0651  0.0339 -0.2017
  932MOL0     C28525  -0.424   5.454  10.234  1.0199 -0.3340  0.4199
  932MOL0     O28526  -0.255   5.177  10.254 -0.0328  0.1686 -0.9656
  932MOL0     C28527  -0.042   5.087  10.126 -0.0383 -0.1729  0.2722
  932MOL0     C28528   0.072   5.039  10.056 -0.5139  0.1814 -0.3907
  932MOL0     N28529   0.667   4.771   9.960  0.3407 -0.0718  0.0985
  932MOL0     N28530   0.781   4.755  10.010 -0.1291  0.6683  0.5208
  932MOL0     C28531   1.387   4.486  11.117  0.5105  0.4206 -0.0961
  932MOL0     C28532   1.317   4.473  11.238 -0.3676  0.1906  0.4312
  932MOL0     C28533   0.999   4.575  11.558 -0.0823  0.5067  0.6840
  932MOL0     C28534   0.891   4.661  11.575 -1.0201  0.6647  0.1626
  932MOL0     C28535   0.808   4.647  11.681 -0.4907  0.1505  0.4418
  932MOL0     C28536   0.838   4.557  11.790 -0.6773  0.0702  0.4801
  932MOL0     O28537   0.767   4.539  11.910 -0.2919 -0.8566 -0.6263
  932MOL0     C28538   0.709   4.647  11.971 -0.2334 -0.5276 -1.0360
  932MOL0     C28539   0.666   4.607  12.106 -0.0313  0.0655 -0.6134
  932MOL0     C28540   0.771   4.545  12.201  0.5308 -1.1584 -0.3257
  932MOL0     C28541   0.719   4.576  12.346  0.8317 -0.9320  1.0892
  932MOL0     C28542   0.796   4.496  12.438 -0.4321  0.1196 -0.4316
  932MOL0     C28543   0.869   4.443  12.520  0.1740 -0.3926  1.2643
  932MOL0     C28544   0.945   4.468  11.759  0.3359 -0.0944  1.1119
  932MOL0     C28545   1.018   4.472  11.653 -0.6726  0.3385  0.0183
  932MOL0     C28546   1.144   4.399  11.661 -0.7591  0.6743  0.4409
  932MOL0     H28547   1.005   4.528  11.130  0.4248 -1.0919 -0.2578
  932MOL0     H28548   1.108   4.560  10.929 -0.8626  1.4531  0.6790
  932MOL0     H28549   1.224   4.460  10.742  0.2111 -1.0316 -0.1879
  932MOL0     H28550   1.380   4.493  10.670  2.6022  2.1695  0.6970
  932MOL0     H28551   1.207   4.701  10.812 -0.2872 -1.7817  1.1837
  932MOL0     H28552   1.352   4.738  10.696 -0.6221  1.7384 -0.6586
  932MOL0     H28553   1.229   4.693  10.521 -0.2375  1.3785 -0.1160
  932MOL0     H28554   1.090   4.624  10.616  0.1233  0.9535 -1.0351
  932MOL0     H28555   1.087   4.840  10.737  2.8678  1.9805  0.7135
  932MOL0     H28556   1.202   4.897  10.616 -0.7582  0.1057 -1.8245
  932MOL0     H28557   0.968   4.965  10.572  1.0362  0.7750 -1.9226
  932MOL0     H28558   0.914   4.801  10.562  1.3005 -0.4224  0.9257
  932MOL0     H28559   1.106   4.934  10.365 -0.0013 -1.1365  2.2190
  932MOL0     H28560   1.086   4.761  10.374  0.3269  0.0556 -1.4791
  932MOL0     H28561   0.842   4.945  10.335  0.7977  0.6049  0.2140
  932MOL0     H28562   0.861   4.765  10.343  0.7483 -0.8448 -0.2304
  932MOL0     H28563   0.985   4.957  10.140  3.5765 -0.3171 -1.5355
  932MOL0     H28564   1.003   4.796  10.133  5.5608  4.4565  0.8162
  932MOL0     H28565   0.691   5.029  10.168  2.1580  0.1780 -0.5416
  932MOL0     H28566   0.439   5.009  10.053  1.2737  0.6798 -0.3091
  932MOL0     H28567   0.418   4.842   9.986  1.7902 -1.4876  1.3573
  932MOL0     H28568   0.541   5.068   9.825 -1.0713  0.3187 -2.9408
  932MOL0     H28569   0.468   4.931   9.749 -0.0385  1.1739 -1.5927
  932MOL0     H28570   0.311   5.117   9.933  1.4407 -0.8082  0.4782
  932MOL0     H28571   0.334   5.160   9.761 -2.2522 -1.9692 -3.5222
  932MOL0     H28572   0.148   5.061   9.703  1.2756  3.1476  1.5904
  932MOL0     H28573   0.251   4.915   9.701 -0.8061 -2.7560  2.3798
  932MOL0     H28574  -0.101   4.975   9.768 -2.3286 -0.8033  0.4585
  932MOL0     H28575  -0.389   5.177   9.878  0.2878  2.5202 -2.1120
  932MOL0     H28576  -0.348   5.017   9.816 -1.2232  0.0224  2.5248
  932MOL0     H28577  -0.281   5.168   9.753 -1.0556 -0.1362 -1.0518
  932MOL0     H28578  -0.552   5.156  10.136  0.8914  0.5762 -0.8325
  932MOL0     H28579  -0.732   5.238  10.290  1.0507 -2.1780 -1.0164
  932MOL0     H28580  -0.890   5.360  10.412 -2.4096  4.3136  0.2044
  932MOL0     H28581  -0.797   5.321  10.561 -2.0820  0.6584  1.0755
  932MOL0     H28582  -0.860   5.536  10.667  3.5121 -0.8781 -1.6758
  932MOL0     H28583  -0.922   5.579  10.516  1.6180 -0.9427  0.1420
  932MOL0     H28584  -1.028   5.357  10.698  0.3949  0.6569  1.0020
  932MOL0     H28585  -1.099   5.387  10.543 -0.4185 -1.2875  1.6267
  932MOL0     H28586  -1.161   5.610  10.597 -1.5743 -0.7111 -0.6976
  932MOL0     H28587  -1.096   5.613  10.753 -1.6711  1.9434 -0.7713
  932MOL0     H28588  -1.245   5.402  10.818  2.1305 -1.2226 -1.8145
  932MOL0     H28589  -1.328   5.550  10.821  0.2229 -0.9744  2.2970
  932MOL0     H28590  -1.424   5.327  10.713  2.9077  1.2973  3.6627
  932MOL0     H28591  -1.312   5.335  10.577  0.3396 -0.4183  0.1365
  932MOL0     H28592  -1.386   5.574  10.528  1.3532 -0.8777 -2.5404
  932MOL0     H28593  -1.528   5.547  10.611 -1.7670  0.8095 -2.8620
  932MOL0     H28594  -1.515   5.310  10.450 -0.2333  0.4050  0.1852
  932MOL0     H28595  -1.417   5.438  10.372  1.2634 -0.2232  0.9692
  932MOL0     H28596  -0.502   5.592  10.378  1.0895  0.5385 -1.5265
  932MOL0     H28597  -0.326   5.499  10.223  1.8645 -1.1209  3.7048
  932MOL0     H28598  -0.034   5.109  10.232  0.3030  1.5420 -0.0863
  932MOL0     H28599   0.166   5.008  10.101 -1.3139  0.7044  1.7664
  932MOL0     H28600   1.496   4.488  11.122  0.5739  3.8177 -0.7065
  932MOL0     H28601   1.380   4.448  11.323  2.3188  1.1856 -1.1711
  932MOL0     H28602   0.876   4.733  11.496  2.4537 -2.8920 -4.2722
  932MOL0     H28603   0.714   4.703  11.685 -0.9508 -0.5383 -0.3473
  932MOL0     H28604   0.785   4.724  11.986 -2.3779  1.3959  0.6844
  932MOL0     H28605   0.622   4.689  11.919 -1.6620 -1.4181  0.5145
  932MOL0     H28606   0.579   4.544  12.088  2.0845 -2.8690 -1.3390
  932MOL0     H28607   0.625   4.699  12.150  1.0120  0.0594  0.4207
  932MOL0     H28608   0.794   4.439  12.181  0.2848 -1.4362  0.8058
  932MOL0     H28609   0.866   4.595  12.180  0.3178 -1.2392 -1.5407
  932MOL0     H28610   0.614   4.546  12.357 -0.4693  1.9275 -1.7382
  932MOL0     H28611   0.720   4.682  12.373 -1.5820 -1.0494  1.9142
  932MOL0     H28612   0.927   4.401  12.599  1.2554 -3.2757 -0.8814
  932MOL0     H28613   0.977   4.389  11.826  0.3053 -0.4789  0.6843
  932MOL0     H28614   1.219   4.475  11.641 -2.4296  1.6383 -2.7217
  932MOL0     H28615   1.172   4.346  11.753  3.9560  1.7412 -0.1465
  932MOL0     H28616   1.156   4.325  11.581  2.7366  1.3108  0.2110
  933MOL0     O28617  11.274   1.455  10.038 -0.2245  0.2784 -0.0494
  933MOL0     C28618  11.382   1.431   9.980  0.0628  0.6863  0.5973
  933MOL0     O28619  11.459   1.329  10.007  0.1421  0.5525 -0.1604
  933MOL0     C28620  11.405   1.230  10.092 -0.5920 -0.3911 -0.0609
  933MOL0     C28621  11.399   1.101  10.048 -0.2501 -0.2764  0.5967
  933MOL0     C28622  11.362   0.996  10.139  0.2304 -0.5537 -0.1057
  933MOL0     C28623  11.317   1.030  10.276  0.2148  0.2924  0.1696
  933MOL0     O28624  11.256   0.939  10.359  0.5457  0.5619 -0.3541
  933MOL0     C28625  11.114   0.957  10.408 -0.5322  0.3827  0.3332
  933MOL0     C28626  11.058   0.844  10.483  0.5671  0.6121 -0.6313
  933MOL0     C28627  10.907   0.873  10.482 -0.0631  0.9071 -0.2726
  933MOL0     C28628  10.832   0.744  10.524  0.6337 -0.4541 -0.1763
  933MOL0     C28629  10.682   0.754  10.477 -0.6882 -0.5470 -0.0416
  933MOL0     C28630  10.600   0.632  10.480 -0.4194  0.0959  0.7420
  933MOL0     C28631  10.445   0.657  10.454 -0.4147  0.6704  0.5215
  933MOL0     C28632  10.362   0.521  10.454 -0.0205 -0.4374 -0.2434
  933MOL0     N28633  10.354   0.470  10.583 -0.4824 -0.4758 -0.4453
  933MOL0     C28634  10.459   0.405  10.647  1.0003  0.3516 -0.0184
  933MOL0     C28635  10.403   0.375  10.772  0.7035  0.2387  0.3332
  933MOL0     C28636  10.467   0.316  10.894  0.0933 -0.0105 -0.0672
  933MOL0     C28637  10.388   0.201  10.954  0.5483  0.4159  0.6377
  933MOL0     C28638  10.317   0.244  11.074 -0.6035  0.4885 -0.0908
  933MOL0     C28639  10.203   0.353  11.060 -0.6760 -0.7176 -0.0656
  933MOL0     O28640  10.127   0.350  11.186  0.2022  0.2450  0.4835
  933MOL0     C28641  10.033   0.452  11.215  0.6031 -0.3272 -0.1964
  933MOL0     C28642   9.999   0.561  11.134 -0.3423  0.4856 -0.9536
  933MOL0     C28643   9.905   0.661  11.173  0.3432  0.2470  0.1914
  933MOL0     C28644   9.865   0.772  11.073  0.2140 -0.2977  0.1330
  933MOL0     C28645   9.852   0.651  11.301 -0.2459  0.0830 -0.5421
  933MOL0     C28646   9.770   0.755  11.358 -0.1893 -0.1832  0.8556
  933MOL0     O28647   9.793   0.786  11.485 -0.2758  0.6215 -0.5885
  933MOL0     C28648   9.766   0.898  11.557 -0.0223 -0.7891 -0.0226
  933MOL0     C28649   9.841   0.921  11.672 -0.9417  0.1498  0.4337
  933MOL0     C28650   9.831   1.042  11.752 -0.2404  0.1133  0.4901
  933MOL0     C28651   9.732   1.138  11.715 -0.2268 -0.1492  0.1862
  933MOL0     O28652   9.735   1.258  11.783  0.0079 -0.1280  0.1935
  933MOL0     C28653   9.603   1.327  11.778 -0.0521 -0.9033 -0.2077
  933MOL0     C28654   9.634   1.456  11.847  0.1874 -0.3184 -0.8228
  933MOL0     C28655   9.517   1.550  11.865  0.0439 -0.4623  0.4310
  933MOL0     C28656   9.551   1.657  11.966  1.1639  0.3292 -0.0896
  933MOL0     C28657   9.630   1.764  11.899 -0.0314 -0.6987 -0.2705
  933MOL0     C28658   9.606   1.893  11.989  0.4481 -0.9377  0.5645
  933MOL0     C28659   9.691   2.017  11.942  0.4545 -0.5155  0.6156
  933MOL0     C28660   9.832   2.011  11.979 -0.1407 -0.2421  0.0578
  933MOL0    Cl28661   9.937   2.160  11.966  0.3473  0.1369  0.1972
  933MOL0     C28662   9.651   1.111  11.597 -0.4512  1.1782  0.9625
  933MOL0     C28663   9.673   0.998  11.521 -0.2838 -0.2726 -0.3936
  933MOL0     O28664   9.678   0.802  11.291  0.4475  0.4677  1.0510
  933MOL0     C28665   9.900   0.548  11.383 -0.0699  0.0051 -0.2048
  933MOL0     C28666   9.985   0.450  11.344  0.3014 -0.2467 -0.2208
  933MOL0     N28667  10.278   0.436  10.774  0.0100  1.1924  0.5869
  933MOL0     N28668  10.256   0.500  10.669  0.9256 -0.0215  1.0831
  933MOL0     C28669  11.320   1.167  10.316 -0.8258 -0.0763 -0.0149
  933MOL0     C28670  11.377   1.262  10.226  0.1376 -0.8170 -0.3135
  933MOL0     C28671  11.434   1.531   9.882 -0.7343 -0.3753  0.6019
  933MOL0     C28672  11.548   1.495   9.801 -0.0910 -0.2790  0.9663
  933MOL0     C28673  11.586   1.581   9.688 -0.0890 -1.0991  0.4131
  933MOL0     C28674  11.525   1.713   9.663  0.1012  0.3715 -0.3313
  933MOL0     O28675  11.555   1.809   9.574 -0.8402 -0.3893 -0.1099
  933MOL0     C28676  11.645   1.758   9.473  0.2996 -0.0164  0.7192
  933MOL0     C28677  11.679   1.872   9.377  1.1207  0.1231  0.4866
  933MOL0     C28678  11.558   1.949   9.312  0.5654 -0.3344  0.7548
  933MOL0     C28679  11.526   1.885   9.174  0.6252 -0.3473 -0.4762
  933MOL0     C28680  11.477   1.749   9.179 -0.4245  0.0654  0.1478
  933MOL0     C28681  11.408   1.656   9.189 -0.1739  0.3089  0.5625
  933MOL0     C28682  11.419   1.746   9.749  0.7251  0.1615  0.6260
  933MOL0     C28683  11.381   1.659   9.860  0.5173  0.7610 -0.6339
  933MOL0     C28684  11.270   1.720   9.948  0.7720 -0.7722 -0.4582
  933MOL0     H28685  11.421   1.092   9.942 -6.1388  2.3672 -1.2791
  933MOL0     H28686  11.361   0.890  10.115 -2.2059 -0.5621 -0.2132
  933MOL0     H28687  11.060   0.971  10.314 -0.1483  0.1785  0.0785
  933MOL0     H28688  11.106   1.047  10.470  1.4056  0.0970  1.0993
  933MOL0     H28689  11.088   0.752  10.430  2.5501  1.0727 -0.3891
  933MOL0     H28690  11.100   0.826  10.582  2.7467  1.1009 -1.4050
  933MOL0     H28691  10.879   0.952  10.552 -0.6596 -2.0122  3.0220
  933MOL0     H28692  10.876   0.903  10.381  2.5369 -1.8654 -2.0870
  933MOL0     H28693  10.875   0.658  10.472  0.5670 -1.0244  0.6959
  933MOL0     H28694  10.844   0.726  10.631 -2.8853  0.8967  0.5816
  933MOL0     H28695  10.694   0.787  10.374  0.3171  3.2177  1.1253
  933MOL0     H28696  10.630   0.833  10.532 -2.8026 -1.4847 -0.6211
  933MOL0     H28697  10.639   0.552  10.416 -1.0437  1.1150 -0.9624
  933MOL0     H28698  10.604   0.587  10.580 -3.0563 -0.2967  0.7302
  933MOL0     H28699  10.433   0.698  10.353 -1.9269 -1.9055 -0.4494
  933MOL0     H28700  10.406   0.734  10.521  0.2793  1.4838  0.0071
  933MOL0     H28701  10.261   0.547  10.421 -0.2842 -2.8568 -1.5990
  933MOL0     H28702  10.398   0.448  10.382 -3.4927 -2.0759 -0.5196
  933MOL0     H28703  10.562   0.392  10.615  0.6188 -2.2219 -0.4650
  933MOL0     H28704  10.490   0.397  10.964  0.2786  1.9674 -2.2639
  933MOL0     H28705  10.565   0.275  10.867  1.3048  1.4278  1.9435
  933MOL0     H28706  10.313   0.178  10.878  3.0369 -0.7817 -1.5989
  933MOL0     H28707  10.453   0.114  10.963 -1.3588 -1.1888 -0.3838
  933MOL0     H28708  10.282   0.151  11.121  0.6679  1.8108  3.9568
  933MOL0     H28709  10.398   0.278  11.139  0.1997  2.9129 -2.2019
  933MOL0     H28710  10.237   0.453  11.034 -2.6759  0.3377  1.1895
  933MOL0     H28711  10.138   0.316  10.980  1.7377  0.6345 -2.8360
  933MOL0     H28712  10.039   0.566  11.033 -0.3985  0.6402 -0.9696
  933MOL0     H28713   9.935   0.774  10.990 -3.6234 -0.8874 -3.4572
  933MOL0     H28714   9.867   0.875  11.110  3.5246  0.1497 -0.9725
  933MOL0     H28715   9.764   0.759  11.034 -1.0587  4.1390  1.3540
  933MOL0     H28716   9.891   0.842  11.727 -2.0789 -0.3090  0.8260
  933MOL0     H28717   9.888   1.064  11.841  2.3020  2.9632 -1.5956
  933MOL0     H28718   9.591   1.356  11.673 -1.4746 -1.5636 -0.2548
  933MOL0     H28719   9.517   1.270  11.817  0.4318 -1.6775 -0.2463
  933MOL0     H28720   9.664   1.433  11.950 -3.0471  1.3273  0.6555
  933MOL0     H28721   9.714   1.505  11.793  0.8271 -0.5105 -0.0730
  933MOL0     H28722   9.427   1.496  11.895  0.9779 -1.1445  2.0934
  933MOL0     H28723   9.488   1.590  11.767  0.3918 -0.1363  0.4572
  933MOL0     H28724   9.607   1.621  12.053  1.4088  0.5538 -0.1518
  933MOL0     H28725   9.454   1.693  12.001  0.1168  0.3089 -2.7104
  933MOL0     H28726   9.736   1.739  11.891  0.4261  1.3074 -1.2007
  933MOL0     H28727   9.600   1.797  11.799 -1.0810  0.3997  0.3802
  933MOL0     H28728   9.634   1.879  12.094  1.8283  0.0014  0.3585
  933MOL0     H28729   9.501   1.922  11.989  0.7844  0.9343 -3.5600
  933MOL0     H28730   9.659   2.107  11.996 -0.6619  0.0980 -0.9758
  933MOL0     H28731   9.684   2.033  11.834  0.8772  2.1591  0.9149
  933MOL0     H28732   9.881   1.927  11.929  1.1520 -1.0567  2.5274
  933MOL0     H28733   9.842   1.994  12.086  0.6429  2.7209  0.5571
  933MOL0     H28734   9.572   1.176  11.562  0.1844  0.9893 -0.9668
  933MOL0     H28735   9.613   0.994  11.431 -2.8344  1.1729  1.1336
  933MOL0     H28736   9.883   0.548  11.490  2.5700 -1.1573  0.2873
  933MOL0     H28737  10.028   0.372  11.406  1.7736 -0.0208 -0.9331
  933MOL0     H28738  11.283   1.194  10.414  0.1932 -0.8435  0.5963
  933MOL0     H28739  11.368   1.365  10.260 -1.4435 -0.8661 -0.4988
  933MOL0     H28740  11.604   1.403   9.818  0.1402 -0.8408 -2.1678
  933MOL0     H28741  11.674   1.549   9.633 -0.3543  0.7720 -1.1839
  933MOL0     H28742  11.739   1.726   9.518  0.2471 -0.4656  0.5105
  933MOL0     H28743  11.595   1.678   9.418 -0.5014 -0.1141  1.5701
  933MOL0     H28744  11.743   1.825   9.302  0.5134 -1.1517  0.7406
  933MOL0     H28745  11.734   1.938   9.445  1.8501 -1.0790  1.1053
  933MOL0     H28746  11.472   1.941   9.380 -0.3198  4.5815  0.5607
  933MOL0     H28747  11.578   2.056   9.308  0.1062 -0.2833 -1.7127
  933MOL0     H28748  11.613   1.898   9.109  3.4457  5.8042  3.6125
  933MOL0     H28749  11.438   1.940   9.139  0.1643  0.9119  2.3829
  933MOL0     H28750  11.365   1.558   9.183 -0.2358  0.2942  1.1804
  933MOL0     H28751  11.372   1.842   9.731  1.4200  0.4392  0.2509
  933MOL0     H28752  11.286   1.700  10.054  0.5029 -1.1390 -0.4845
  933MOL0     H28753  11.258   1.829   9.940  0.4954 -0.8503 -1.2328
  933MOL0     H28754  11.172   1.677   9.925  0.3372 -1.3889  2.2804
  934MOL0     O28755  10.916   3.928   5.119  0.9584  0.4585  1.2655
  934MOL0     C28756  10.869   3.828   5.171  1.8050 -0.0824 -0.5256
  934MOL0     O28757  10.897   3.699   5.135 -0.3903  0.1960 -0.4475
  934MOL0     C28758  11.008   3.685   5.058 -0.0371  0.2333 -0.0679
  934MOL0     C28759  11.134   3.669   5.114 -1.0084  0.6020  0.0938
  934MOL0     C28760  11.249   3.663   5.028  0.0708  0.0389 -0.6984
  934MOL0     C28761  11.234   3.632   4.898  0.3920 -1.4930  0.0635
  934MOL0     O28762  11.352   3.636   4.823 -0.5650 -0.0612  0.4733
  934MOL0     C28763  11.351   3.642   4.678 -0.1765  0.1884  0.1656
  934MOL0     C28764  11.479   3.702   4.627 -0.4814 -0.5142  0.0107
  934MOL0     C28765  11.597   3.648   4.696  0.1758 -0.1356  0.5740
  934MOL0     C28766  11.722   3.661   4.607 -0.7477 -0.0792  0.3588
  934MOL0     C28767  11.752   3.790   4.524  0.0418  0.0471 -0.6081
  934MOL0     C28768  11.791   3.901   4.623  0.2671  0.4681  0.6429
  934MOL0     C28769  11.833   4.036   4.558  0.2883  0.5505  0.5662
  934MOL0     C28770  11.711   4.087   4.466 -0.0463  0.2589  1.2784
  934MOL0     N28771  11.577   4.089   4.536  1.0219  0.6574  0.4333
  934MOL0     C28772  11.542   4.160   4.648 -0.2188  0.2451  1.3344
  934MOL0     C28773  11.410   4.135   4.668 -0.1455 -0.5394 -0.3447
  934MOL0     C28774  11.334   4.199   4.780 -0.0486  0.2001  0.3690
  934MOL0     C28775  11.341   4.111   4.895  0.9236 -0.5295 -1.7097
  934MOL0     C28776  11.234   4.173   4.996 -0.2675 -0.9812 -0.2504
  934MOL0     C28777  11.201   4.102   5.121  0.1938  0.0405  0.1695
  934MOL0     O28778  11.316   4.015   5.157  1.0945 -0.0368 -0.2396
  934MOL0     C28779  11.302   3.942   5.275  0.1702 -1.1858  0.1596
  934MOL0     C28780  11.407   3.863   5.309  0.2413 -0.3805 -0.1020
  934MOL0     C28781  11.406   3.784   5.422  0.0482 -0.1662 -0.6983
  934MOL0     C28782  11.524   3.689   5.452 -0.0467  0.1404 -0.1088
  934MOL0     C28783  11.295   3.796   5.513  0.4789 -0.4902  0.5677
  934MOL0     C28784  11.286   3.726   5.645 -0.3256  0.2405 -0.6489
  934MOL0     O28785  11.401   3.679   5.714  0.5832  0.0834  0.5737
  934MOL0     C28786  11.380   3.623   5.834 -0.5869 -0.2126 -0.1935
  934MOL0     C28787  11.300   3.687   5.933 -0.1949  0.8768  0.0284
  934MOL0     C28788  11.277   3.622   6.057 -0.1079 -0.3800 -0.3284
  934MOL0     C28789  11.324   3.484   6.079  0.4395 -0.1232 -0.3214
  934MOL0     O28790  11.304   3.430   6.204  0.1816 -0.9289  0.0949
  934MOL0     C28791  11.239   3.301   6.195 -0.1808 -0.0527 -0.2196
  934MOL0     C28792  11.102   3.300   6.135 -0.6472  0.3371  0.3012
  934MOL0     C28793  11.012   3.405   6.201 -0.4056 -0.0961 -0.3072
  934MOL0     C28794  10.992   3.391   6.354  0.4689  0.0784  0.7985
  934MOL0     C28795  10.884   3.485   6.412  0.7034 -0.1362 -0.4307
  934MOL0     C28796  10.839   3.450   6.559  0.3348 -1.1329 -0.9705
  934MOL0     C28797  10.756   3.553   6.641 -0.8603 -0.4221 -0.3453
  934MOL0     C28798  10.665   3.650   6.573 -0.0603  0.0964 -0.3237
  934MOL0    Cl28799  10.543   3.737   6.687  0.3687  0.6395  0.0515
  934MOL0     C28800  11.405   3.430   5.988  0.3810  1.3683 -0.4153
  934MOL0     C28801  11.429   3.491   5.859  0.2066 -0.3983 -0.1078
  934MOL0     O28802  11.170   3.701   5.685  0.3153  0.4055 -0.1176
  934MOL0     C28803  11.184   3.876   5.481 -1.2942  0.3547  0.4534
  934MOL0     C28804  11.188   3.950   5.359 -0.1452 -0.3573 -0.6202
  934MOL0     N28805  11.368   4.059   4.558  0.1107 -0.0830  1.1045
  934MOL0     N28806  11.460   4.035   4.489 -0.5767 -0.4526  0.4963
  934MOL0     C28807  11.106   3.626   4.849 -0.7720  0.3428  0.2610
  934MOL0     C28808  10.992   3.652   4.928 -0.4340  0.1778 -0.3653
  934MOL0     C28809  10.779   3.846   5.301  0.3404  0.6832  0.2069
  934MOL0     C28810  10.690   3.958   5.308 -0.1200  0.4243 -0.0384
  934MOL0     C28811  10.601   3.968   5.418 -0.5382 -0.1555 -0.5307
  934MOL0     C28812  10.596   3.879   5.525  0.2178  0.0097 -0.8629
  934MOL0     O28813  10.528   3.935   5.634  0.6262 -0.7599 -0.2426
  934MOL0     C28814  10.508   3.862   5.746 -1.1278 -0.4132  0.4248
  934MOL0     C28815  10.440   3.952   5.847  0.1817  0.9349  0.9782
  934MOL0     C28816  10.515   4.085   5.862  0.3367 -0.7890 -0.8825
  934MOL0     C28817  10.460   4.168   5.974 -0.1351  0.1449 -0.1904
  934MOL0     C28818  10.549   4.276   6.006  0.1814 -0.1697  0.0328
  934MOL0     C28819  10.621   4.364   6.046 -0.3095 -1.1207 -0.3982
  934MOL0     C28820  10.686   3.775   5.521  0.0910 -0.2678  0.3642
  934MOL0     C28821  10.776   3.752   5.412  0.3683 -1.4249 -0.8228
  934MOL0     C28822  10.881   3.646   5.423  0.0255  0.3661  0.5019
  934MOL0     H28823  11.133   3.675   5.222 -0.7459 -1.2331  0.2378
  934MOL0     H28824  11.352   3.667   5.063  0.4665 -2.0474 -1.4919
  934MOL0     H28825  11.274   3.708   4.636  0.4249 -0.3116 -1.8334
  934MOL0     H28826  11.324   3.542   4.644 -3.9438  0.4136  1.9420
  934MOL0     H28827  11.480   3.692   4.518 -1.5499 -2.5250  0.1403
  934MOL0     H28828  11.494   3.808   4.651  1.1685 -0.7665  0.2078
  934MOL0     H28829  11.610   3.705   4.788 -4.8814 -1.0922  2.1689
  934MOL0     H28830  11.583   3.542   4.718 -1.8216  0.2339  1.2845
  934MOL0     H28831  11.810   3.645   4.669 -0.7888  1.4926  0.8521
  934MOL0     H28832  11.731   3.580   4.534 -0.9870  1.8914 -1.9758
  934MOL0     H28833  11.666   3.826   4.466 -1.3845  3.7090  3.2490
  934MOL0     H28834  11.832   3.773   4.452  1.6086  2.9993  0.2490
  934MOL0     H28835  11.707   3.917   4.691 -2.9112 -4.2433 -1.6608
  934MOL0     H28836  11.877   3.857   4.675  0.3628  1.1618  1.0808
  934MOL0     H28837  11.925   4.016   4.503 -0.1978  0.0325 -0.0812
  934MOL0     H28838  11.862   4.116   4.627  1.5981  1.0885 -0.5649
  934MOL0     H28839  11.737   4.188   4.432 -2.4703  0.6877  0.5179
  934MOL0     H28840  11.697   4.020   4.381 -1.2886  1.8773  0.1686
  934MOL0     H28841  11.603   4.226   4.709 -0.5864  4.0947 -1.9935
  934MOL0     H28842  11.239   4.229   4.736 -0.0508  0.3350  0.4678
  934MOL0     H28843  11.379   4.297   4.799  0.6447  0.1339 -0.8163
  934MOL0     H28844  11.320   4.005   4.880  0.6600 -0.3625 -2.5794
  934MOL0     H28845  11.445   4.110   4.929  0.6906 -1.4645 -0.9596
  934MOL0     H28846  11.277   4.271   5.019 -0.4362 -0.4134 -2.1144
  934MOL0     H28847  11.143   4.206   4.945  0.2511 -0.4775 -0.8733
  934MOL0     H28848  11.178   4.178   5.197  1.4151 -0.3509  0.9671
  934MOL0     H28849  11.111   4.044   5.096 -0.6878  1.9039 -1.2641
  934MOL0     H28850  11.491   3.853   5.241 -1.1092 -1.4524 -1.6655
  934MOL0     H28851  11.582   3.729   5.536 -1.1496  0.3860  0.5570
  934MOL0     H28852  11.592   3.683   5.367 -0.3091  0.9081 -0.3792
  934MOL0     H28853  11.483   3.590   5.478 -1.3219  0.7123  0.1528
  934MOL0     H28854  11.254   3.785   5.926 -0.0709  0.9159 -0.2404
  934MOL0     H28855  11.226   3.673   6.139  0.1748  0.0578 -0.4219
  934MOL0     H28856  11.304   3.236   6.136  2.0432  2.5607 -0.8996
  934MOL0     H28857  11.235   3.261   6.297 -0.8214 -0.0855 -0.2529
  934MOL0     H28858  11.107   3.306   6.026 -3.2711  1.9314  0.2039
  934MOL0     H28859  11.063   3.199   6.149  2.5813 -1.0600  0.2468
  934MOL0     H28860  10.926   3.405   6.134 -1.5734  1.7170  1.0743
  934MOL0     H28861  11.052   3.505   6.183 -0.2907 -0.3402 -1.5027
  934MOL0     H28862  11.080   3.424   6.410  0.6078  0.3224  0.4431
  934MOL0     H28863  10.961   3.289   6.378 -5.9037  1.0775 -1.1708
  934MOL0     H28864  10.897   3.594   6.409  3.1135 -0.3994 -1.6242
  934MOL0     H28865  10.799   3.467   6.345  1.3118  3.4619 -2.4825
  934MOL0     H28866  10.932   3.420   6.608  1.2346  1.5031 -0.9045
  934MOL0     H28867  10.784   3.358   6.539 -1.5984  0.5251 -4.1616
  934MOL0     H28868  10.825   3.614   6.699  1.5770 -0.3009 -3.1549
  934MOL0     H28869  10.692   3.497   6.711 -1.9178 -0.3668 -1.2329
  934MOL0     H28870  10.606   3.616   6.487  1.6928 -0.1742 -1.4685
  934MOL0     H28871  10.731   3.731   6.541  2.6555 -2.0319 -0.5069
  934MOL0     H28872  11.429   3.324   5.982 -0.6959  1.1868 -2.3147
  934MOL0     H28873  11.481   3.429   5.787  2.3638  2.0196 -0.8106
  934MOL0     H28874  11.102   3.878   5.552 -2.0093 -0.9031 -0.2975
  934MOL0     H28875  11.103   4.011   5.330  0.3552  0.5648 -0.2002
  934MOL0     H28876  11.101   3.616   4.741 -0.2568  2.2243  0.0200
  934MOL0     H28877  10.892   3.660   4.885 -0.3119  1.1230 -0.4988
  934MOL0     H28878  10.698   4.041   5.238  1.2428  0.6320  0.3360
  934MOL0     H28879  10.534   4.052   5.419  1.4369  1.5095 -0.5987
  934MOL0     H28880  10.440   3.777   5.732 -2.1791  0.2286  1.4834
  934MOL0     H28881  10.600   3.829   5.794 -1.3665 -0.3575  0.9330
  934MOL0     H28882  10.430   3.898   5.942 -2.5774 -0.6460 -0.1027
  934MOL0     H28883  10.341   3.965   5.802 -1.6546  1.0866  4.6476
  934MOL0     H28884  10.620   4.064   5.887  0.2365 -2.4488 -1.7141
  934MOL0     H28885  10.511   4.146   5.772  0.4237  3.6489  1.7981
  934MOL0     H28886  10.451   4.127   6.075  2.8325  0.7977  0.4551
  934MOL0     H28887  10.368   4.214   5.937 -0.1838  0.9517  0.8823
  934MOL0     H28888  10.680   4.446   6.081 -1.1880 -1.3231  1.7050
  934MOL0     H28889  10.693   3.711   5.609 -2.2036 -2.3754 -0.8641
  934MOL0     H28890  10.976   3.679   5.379 -0.3834  2.8536  1.3596
  934MOL0     H28891  10.900   3.612   5.526 -0.0448  0.5825  0.5864
  934MOL0     H28892  10.849   3.557   5.368  3.6993 -0.2846 -0.9239
  935MOL0     O28893   1.664  10.365  10.538 -0.1792  0.1867  0.3135
  935MOL0     C28894   1.678  10.287  10.438 -1.1424 -0.1785  0.9159
  935MOL0     O28895   1.724  10.328  10.312  0.2826  0.6517 -0.3799
  935MOL0     C28896   1.748  10.461  10.300 -0.1061 -1.0960 -0.4925
  935MOL0     C28897   1.650  10.538  10.237  0.3967  0.6583  0.1864
  935MOL0     C28898   1.650  10.671  10.213  0.1076  0.2259 -0.1901
  935MOL0     C28899   1.759  10.736  10.282  1.1446  0.3361 -0.1467
  935MOL0     O28900   1.765  10.872  10.263  0.0565 -0.3334 -0.5984
  935MOL0     C28901   1.886  10.950  10.300  0.1227  1.1196 -0.9023
  935MOL0     C28902   1.856  10.998  10.439 -0.2921  0.3593  0.4816
  935MOL0     C28903   1.962  11.094  10.497  0.9947 -0.5963  0.0640
  935MOL0     C28904   1.892  11.209  10.565 -0.3333 -0.4597 -0.1752
  935MOL0     C28905   1.987  11.259  10.681  0.3417  0.2050 -0.3134
  935MOL0     C28906   1.987  11.163  10.799 -0.8653  0.2679  0.1346
  935MOL0     C28907   2.059  11.234  10.919  0.0596 -0.4577 -0.1227
  935MOL0     C28908   2.062  11.138  11.038 -0.0878 -0.0023 -0.6002
  935MOL0     N28909   2.162  11.035  11.011  0.2144  0.0420  1.1381
  935MOL0     C28910   2.293  11.052  11.014 -0.9026  0.0538  0.0529
  935MOL0     C28911   2.354  10.942  10.969 -0.9648 -1.1779  0.1219
  935MOL0     C28912   2.505  10.936  10.962  0.7309 -0.1377  0.1808
  935MOL0     C28913   2.549  11.032  10.852 -1.0743  0.2037  1.1162
  935MOL0     C28914   2.706  11.023  10.840  1.2199  0.1349 -0.0814
  935MOL0     C28915   2.756  10.895  10.776  0.6108  0.0346  0.6657
  935MOL0     O28916   2.758  10.914  10.637 -0.2604  0.0227  0.4534
  935MOL0     C28917   2.822  10.822  10.554 -0.7013 -0.3573 -0.6061
  935MOL0     C28918   2.865  10.882  10.430 -0.0226 -0.2826  1.1652
  935MOL0     C28919   2.921  10.806  10.332 -0.8232  0.7067  0.2387
  935MOL0     C28920   2.964  10.860  10.203 -0.4827 -0.1662 -0.2296
  935MOL0     C28921   2.924  10.664  10.357 -0.6164 -0.6697 -0.2327
  935MOL0     C28922   2.977  10.560  10.262 -0.4197 -0.0520 -0.3115
  935MOL0     O28923   2.970  10.604  10.131 -0.3860  0.1659  0.1154
  935MOL0     C28924   3.020  10.546  10.020 -0.6393 -0.8612 -0.1478
  935MOL0     C28925   3.007  10.628   9.913 -0.0363 -0.2414  0.4276
  935MOL0     C28926   3.042  10.601   9.783  0.0176 -0.2269 -0.0580
  935MOL0     C28927   3.081  10.466   9.749  0.5655  0.1589 -0.4001
  935MOL0     O28928   3.119  10.426   9.623  1.3605  0.1418 -0.0330
  935MOL0     C28929   3.092  10.507   9.505 -0.1206 -0.2125 -0.5351
  935MOL0     C28930   3.012  10.445   9.389  0.6764 -0.4200 -0.3912
  935MOL0     C28931   3.095  10.337   9.321  0.2462 -0.5686 -0.5533
  935MOL0     C28932   3.009  10.283   9.216 -0.3866  0.8452 -0.1875
  935MOL0     C28933   3.101  10.187   9.128 -0.8316 -0.4221 -0.7798
  935MOL0     C28934   3.191  10.269   9.035 -0.3040  0.0020  0.7184
  935MOL0     C28935   3.331  10.196   8.981 -0.4808 -0.2822 -0.8051
  935MOL0     C28936   3.324  10.195   8.828  0.4045  0.2174 -0.9728
  935MOL0    Cl28937   3.476  10.114   8.779  0.0110  1.0336 -0.2559
  935MOL0     C28938   3.087  10.375   9.861  0.6705  0.3196  0.2731
  935MOL0     C28939   3.058  10.411   9.990 -0.1706 -0.3946 -0.9986
  935MOL0     O28940   3.015  10.447  10.301  0.3451 -0.0321 -0.2511
  935MOL0     C28941   2.869  10.604  10.481  0.1366 -0.2980  0.7688
  935MOL0     C28942   2.826  10.686  10.584  0.3157  0.3480  0.6519
  935MOL0     N28943   2.256  10.849  10.944 -0.4147 -0.1065 -1.1837
  935MOL0     N28944   2.140  10.908  10.969  0.9061  0.0928  0.8221
  935MOL0     C28945   1.856  10.665  10.349  0.5229 -0.2383 -0.6468
  935MOL0     C28946   1.860  10.528  10.352  0.3816  0.5573  0.1287
  935MOL0     C28947   1.678  10.142  10.451  0.2194 -0.0891 -0.8609
  935MOL0     C28948   1.714  10.057  10.345 -0.0695  1.2158 -0.4247
  935MOL0     C28949   1.696   9.914  10.354  0.5537  0.4820 -0.3556
  935MOL0     C28950   1.662   9.855  10.474  0.1583 -0.0223 -0.7020
  935MOL0     O28951   1.640   9.724  10.497 -0.6943  0.3748 -0.5825
  935MOL0     C28952   1.741   9.630  10.465 -0.2307  0.7815 -0.3059
  935MOL0     C28953   1.789   9.544  10.586 -0.8855 -0.5527 -0.0399
  935MOL0     C28954   1.853   9.637  10.692 -0.5264  0.0516 -0.5467
  935MOL0     C28955   1.772   9.666  10.827  0.0886  0.3386 -0.7110
  935MOL0     C28956   1.726   9.550  10.899 -0.0699  0.0307  1.1471
  935MOL0     C28957   1.703   9.444  10.960  0.6277  0.2338 -1.3018
  935MOL0     C28958   1.647   9.939  10.583  0.4802 -0.7452  0.9104
  935MOL0     C28959   1.659  10.075  10.575 -0.2824 -0.0219  0.6733
  935MOL0     C28960   1.672  10.138  10.710  0.6614  0.3144  0.1170
  935MOL0     H28961   1.562  10.485  10.203 -1.0057  2.6355  0.5726
  935MOL0     H28962   1.579  10.741  10.170  0.5188  0.6524 -0.1853
  935MOL0     H28963   1.900  11.035  10.233  1.7953  1.4092 -0.2341
  935MOL0     H28964   1.981  10.896  10.289  0.4346  0.7430  2.6371
  935MOL0     H28965   1.763  11.054  10.427 -0.5597  0.1859  1.6695
  935MOL0     H28966   1.838  10.914  10.507  0.3165  1.2589  1.8011
  935MOL0     H28967   2.024  11.042  10.570  1.3327 -0.7173 -0.3081
  935MOL0     H28968   2.030  11.128  10.419  2.0644 -0.4673  1.0186
  935MOL0     H28969   1.864  11.282  10.488 -3.7325 -1.2447  0.1822
  935MOL0     H28970   1.794  11.184  10.606 -1.6079  0.2246 -2.6527
  935MOL0     H28971   1.943  11.354  10.713  0.3613 -0.1620  0.8612
  935MOL0     H28972   2.091  11.278  10.654  0.5800  2.6850  1.9518
  935MOL0     H28973   1.884  11.134  10.822 -1.1701 -0.5256 -1.9820
  935MOL0     H28974   2.043  11.072  10.774 -1.0831  1.0753 -3.8359
  935MOL0     H28975   2.005  11.324  10.951 -0.1697 -0.5422 -0.2781
  935MOL0     H28976   2.162  11.265  10.899  0.4507  0.1703  2.4310
  935MOL0     H28977   2.083  11.194  11.129  0.4192 -1.5650  0.2778
  935MOL0     H28978   1.962  11.096  11.041 -0.7454  1.4276 -1.2399
  935MOL0     H28979   2.337  11.142  11.057  0.2246 -1.0436  1.3227
  935MOL0     H28980   2.534  10.833  10.936  0.8283 -0.4420  1.4330
  935MOL0     H28981   2.555  10.964  11.055  1.6368 -0.7528 -0.1052
  935MOL0     H28982   2.490  11.022  10.761 -0.0870 -2.3328  0.6593
  935MOL0     H28983   2.536  11.135  10.884  0.5422  0.7935 -0.0124
  935MOL0     H28984   2.744  11.113  10.793  0.9098  1.3314  1.8344
  935MOL0     H28985   2.754  11.023  10.939  2.0317 -0.0222 -0.4682
  935MOL0     H28986   2.854  10.866  10.814  0.3042  0.1124  1.5349
  935MOL0     H28987   2.696  10.807  10.802  0.1829  0.1567  0.0962
  935MOL0     H28988   2.851  10.989  10.415 -1.0155 -0.4713  0.6499
  935MOL0     H28989   2.968  10.969  10.208 -2.2439 -0.1227  1.6976
  935MOL0     H28990   2.916  10.825  10.111 -2.6702 -0.4439  0.9327
  935MOL0     H28991   3.064  10.818  10.198 -1.3959 -2.4577 -0.5672
  935MOL0     H28992   2.955  10.720   9.937 -1.1348 -0.6856 -0.1898
  935MOL0     H28993   3.048  10.678   9.707  0.6212  1.6975  1.8415
  935MOL0     H28994   3.032  10.597   9.519  0.8647  0.0796  2.2545
  935MOL0     H28995   3.185  10.540   9.459  0.3483 -0.5847  0.1390
  935MOL0     H28996   2.922  10.405   9.437  1.0199  1.2822  1.8449
  935MOL0     H28997   2.987  10.526   9.320 -1.8255 -0.2554  0.5765
  935MOL0     H28998   3.121  10.263   9.398  3.5322 -0.8766 -1.7900
  935MOL0     H28999   3.186  10.382   9.282  1.0500 -1.9636 -0.3759
  935MOL0     H29000   2.951  10.357   9.161 -0.6761  0.3292 -0.5901
  935MOL0     H29001   2.943  10.209   9.262 -0.9290 -0.7684 -3.2851
  935MOL0     H29002   3.161  10.121   9.192 -1.3956  0.9674  1.2988
  935MOL0     H29003   3.054  10.120   9.056  2.6576  0.4053 -4.1853
  935MOL0     H29004   3.218  10.363   9.084  1.0077  0.9596 -1.6805
  935MOL0     H29005   3.133  10.301   8.949  1.4980 -1.6081 -1.2170
  935MOL0     H29006   3.346  10.093   9.014 -2.3872 -0.2684  0.2407
  935MOL0     H29007   3.413  10.256   9.022 -0.0347 -1.4544  0.0692
  935MOL0     H29008   3.334  10.297   8.789 -1.5156  0.3387 -1.2264
  935MOL0     H29009   3.229  10.157   8.790  0.7445  0.2010 -1.8415
  935MOL0     H29010   3.103  10.274   9.826  1.4102  1.0988 -1.7982
  935MOL0     H29011   3.045  10.342  10.072 -1.1420 -1.0325 -1.6685
  935MOL0     H29012   2.873  10.496  10.492 -1.3716 -1.0002 -3.4737
  935MOL0     H29013   2.788  10.660  10.683  3.4362 -0.4846  1.7396
  935MOL0     H29014   1.950  10.702  10.389  1.2530 -0.4849 -2.0707
  935MOL0     H29015   1.935  10.470  10.405 -1.4986  0.5698  3.0562
  935MOL0     H29016   1.734  10.096  10.246 -0.1904  3.4775  0.3713
  935MOL0     H29017   1.723   9.839  10.281  1.6493 -0.6134  1.1144
  935MOL0     H29018   1.702   9.563  10.388  2.7212 -1.4497 -0.0310
  935MOL0     H29019   1.827   9.671  10.411  0.8493 -2.1066 -0.9667
  935MOL0     H29020   1.873   9.479  10.562  1.1323  1.0736  2.1942
  935MOL0     H29021   1.709   9.484  10.631  0.4864 -0.3097  2.9765
  935MOL0     H29022   1.941   9.583  10.730 -1.0760 -0.9829 -0.7209
  935MOL0     H29023   1.896   9.726  10.646  0.8231  0.3270  1.1382
  935MOL0     H29024   1.690   9.730  10.793  0.2574 -0.4804 -2.7718
  935MOL0     H29025   1.826   9.729  10.899 -0.2510 -1.0960  0.8754
  935MOL0     H29026   1.689   9.353  11.015  0.7967  0.0819 -1.5108
  935MOL0     H29027   1.625   9.893  10.679  1.0471 -4.6720 -0.6379
  935MOL0     H29028   1.575  10.175  10.741  0.3468 -0.0361 -0.4372
  935MOL0     H29029   1.706  10.076  10.794 -0.4125  4.0816  3.6628
  935MOL0     H29030   1.741  10.222  10.707 -0.8809  1.6912  1.6402
  936MOL0     O29031   1.262   5.886   7.850  0.1053 -0.0477 -0.6039
  936MOL0     C29032   1.174   5.962   7.823 -0.4792 -0.0956 -0.3155
  936MOL0     O29033   1.168   6.095   7.859 -0.1887 -0.4964 -0.5415
  936MOL0     C29034   1.244   6.153   7.955  0.8379 -0.1024 -0.8198
  936MOL0     C29035   1.286   6.085   8.073 -0.2804 -0.8088 -0.0387
  936MOL0     C29036   1.356   6.150   8.174  0.0870 -0.6254 -0.1238
  936MOL0     C29037   1.396   6.284   8.161  0.3341 -0.2669 -0.5275
  936MOL0     O29038   1.436   6.362   8.272  0.5284  0.4068  0.7615
  936MOL0     C29039   1.324   6.416   8.335  0.1072 -0.3235 -0.1206
  936MOL0     C29040   1.373   6.539   8.420 -0.0406 -0.0023  0.4798
  936MOL0     C29041   1.387   6.652   8.321 -0.3778  0.6091 -0.3040
  936MOL0     C29042   1.392   6.779   8.383 -1.5088 -0.1429 -0.2659
  936MOL0     C29043   1.386   6.896   8.282 -0.0197  1.1435 -0.3949
  936MOL0     C29044   1.375   7.024   8.347  0.3863 -0.3898 -0.4475
  936MOL0     C29045   1.356   7.153   8.273  0.2099  0.3479 -0.1083
  936MOL0     C29046   1.467   7.189   8.172 -0.3812 -0.6358 -0.2138
  936MOL0     N29047   1.451   7.319   8.106 -0.0388  0.2350 -0.6415
  936MOL0     C29048   1.355   7.334   8.016 -0.8517 -1.2640  0.1243
  936MOL0     C29049   1.359   7.469   7.977  0.3155 -0.7861  0.4255
  936MOL0     C29050   1.281   7.543   7.873  0.6246 -0.1853 -0.2034
  936MOL0     C29051   1.134   7.514   7.888  0.2167 -0.0037 -0.0493
  936MOL0     C29052   1.049   7.535   7.766  0.3340 -0.1699 -0.4393
  936MOL0     C29053   1.071   7.685   7.716 -0.1012 -0.3431  0.0979
  936MOL0     O29054   0.964   7.727   7.640  0.7560 -0.1760 -0.3761
  936MOL0     C29055   0.842   7.764   7.700  0.2974  0.5750 -1.0548
  936MOL0     C29056   0.833   7.802   7.835  0.2508 -0.5854  0.1865
  936MOL0     C29057   0.710   7.837   7.891  0.3477  1.1744  0.2554
  936MOL0     C29058   0.709   7.864   8.042  0.8442  0.7043 -0.0804
  936MOL0     C29059   0.594   7.827   7.814 -0.4174 -0.0613 -0.6443
  936MOL0     C29060   0.453   7.856   7.855 -1.0004  0.0719  0.2263
  936MOL0     O29061   0.355   7.807   7.770 -0.0744  0.3026 -0.8259
  936MOL0     C29062   0.221   7.796   7.813 -0.4060 -0.0681  0.0006
  936MOL0     C29063   0.155   7.902   7.876 -0.5543 -0.1103 -0.0398
  936MOL0     C29064   0.034   7.879   7.942 -0.9864 -0.5893 -0.0329
  936MOL0     C29065  -0.039   7.759   7.916 -0.3438 -0.8909  0.5584
  936MOL0     O29066  -0.167   7.741   7.941 -0.1032 -0.3146  0.0604
  936MOL0     C29067  -0.214   7.732   8.081  0.4477  1.6339 -0.5439
  936MOL0     C29068  -0.367   7.712   8.073  1.3019  0.4005  0.1290
  936MOL0     C29069  -0.445   7.814   7.983 -0.2878 -0.5162 -0.6247
  936MOL0     C29070  -0.587   7.841   8.020 -1.2371 -0.3746 -0.2615
  936MOL0     C29071  -0.671   7.912   7.921  0.4319 -0.3936  0.0008
  936MOL0     C29072  -0.736   7.819   7.816  0.8217  0.1389 -0.5433
  936MOL0     C29073  -0.849   7.742   7.884 -0.1410  0.0241 -0.0738
  936MOL0     C29074  -0.918   7.654   7.780  0.7884 -1.2522  0.3276
  936MOL0    Cl29075  -0.816   7.551   7.690 -0.3156  0.1983 -0.2714
  936MOL0     C29076   0.023   7.663   7.838 -0.8753 -0.1175 -0.4123
  936MOL0     C29077   0.153   7.675   7.792 -0.9062 -0.9075  0.0608
  936MOL0     O29078   0.428   7.898   7.969  0.1604 -0.1320 -0.3671
  936MOL0     C29079   0.610   7.788   7.688  0.3769  0.6329 -0.7031
  936MOL0     C29080   0.733   7.769   7.625 -0.5782  0.2535 -0.2789
  936MOL0     N29081   1.458   7.526   8.057  0.0571 -0.0404  0.0630
  936MOL0     N29082   1.505   7.439   8.141 -0.1032 -1.1481 -0.8481
  936MOL0     C29083   1.353   6.351   8.045  1.1098  0.1266  0.9681
  936MOL0     C29084   1.278   6.287   7.946 -0.8752  0.6165 -0.6287
  936MOL0     C29085   1.073   5.909   7.729  0.3446  0.9137  0.6318
  936MOL0     C29086   0.987   6.000   7.660 -0.6018 -0.9950 -0.4959
  936MOL0     C29087   0.884   5.962   7.572 -0.3419  0.0167 -0.5409
  936MOL0     C29088   0.878   5.835   7.525  0.8168  0.1987 -0.5717
  936MOL0     O29089   0.785   5.790   7.433  0.6190 -0.5010 -0.0632
  936MOL0     C29090   0.671   5.874   7.384  0.1231  0.8491 -0.1539
  936MOL0     C29091   0.558   5.771   7.347  0.6780 -0.0271 -0.4324
  936MOL0     C29092   0.509   5.678   7.460 -0.0617 -1.0823  0.0827
  936MOL0     C29093   0.437   5.557   7.397 -0.1514  0.4395 -0.1390
  936MOL0     C29094   0.312   5.589   7.333 -0.1204 -0.8972  0.3143
  936MOL0     C29095   0.204   5.614   7.281  0.7241 -1.0285 -0.5641
  936MOL0     C29096   0.965   5.739   7.582  0.6933 -0.7451  0.2166
  936MOL0     C29097   1.062   5.772   7.682 -0.0829  1.2413  0.2657
  936MOL0     C29098   1.140   5.654   7.745 -0.4191 -0.2686 -0.5428
  936MOL0     H29099   1.270   5.983   8.104  2.5740 -0.6390  2.4960
  936MOL0     H29100   1.390   6.087   8.256 -0.2852 -1.4901 -0.6228
  936MOL0     H29101   1.273   6.341   8.396 -0.4223  1.0071  1.1205
  936MOL0     H29102   1.254   6.439   8.254  0.8120 -0.7532 -0.8713
  936MOL0     H29103   1.297   6.553   8.497  0.6110  0.0824  1.1208
  936MOL0     H29104   1.471   6.525   8.467  1.1401 -1.8113 -2.2464
  936MOL0     H29105   1.484   6.636   8.273  1.8535  2.1037  3.3110
  936MOL0     H29106   1.310   6.646   8.244  2.3315 -4.9400 -3.2165
  936MOL0     H29107   1.315   6.788   8.460 -0.3169 -1.8525  1.2252
  936MOL0     H29108   1.485   6.784   8.440 -0.8539  0.8106 -1.3876
  936MOL0     H29109   1.296   6.876   8.222 -1.4356 -0.1544  2.0176
  936MOL0     H29110   1.470   6.903   8.212 -0.8025  0.0548 -1.4892
  936MOL0     H29111   1.284   7.021   8.407 -0.5559 -0.4925 -1.8465
  936MOL0     H29112   1.469   7.036   8.402  0.7871 -0.9225 -1.0037
  936MOL0     H29113   1.359   7.239   8.341  0.0367 -1.6481  2.5808
  936MOL0     H29114   1.260   7.141   8.221  1.2126 -1.2770 -1.6939
  936MOL0     H29115   1.557   7.214   8.228  0.3374 -2.2270 -0.5899
  936MOL0     H29116   1.482   7.102   8.107  1.3521  0.3441 -1.1980
  936MOL0     H29117   1.279   7.261   7.990 -2.6323  0.3995  0.4386
  936MOL0     H29118   1.314   7.495   7.780 -2.9509 -2.2358 -0.6017
  936MOL0     H29119   1.297   7.650   7.862  0.5872 -0.4179 -3.5269
  936MOL0     H29120   1.134   7.410   7.920  3.7258 -0.7392 -1.8715
  936MOL0     H29121   1.084   7.571   7.966  0.5080 -0.2684  0.3355
  936MOL0     H29122   1.077   7.471   7.682 -1.0161  0.9112 -1.7668
  936MOL0     H29123   0.944   7.524   7.792  0.8444 -0.0619  1.8191
  936MOL0     H29124   1.090   7.753   7.800  2.0394 -3.3148  2.2268
  936MOL0     H29125   1.165   7.676   7.661  0.0647 -2.5398  0.6738
  936MOL0     H29126   0.919   7.801   7.901 -0.1657 -1.4066  0.7208
  936MOL0     H29127   0.630   7.807   8.092 -1.3795 -0.2088 -4.2270
  936MOL0     H29128   0.704   7.970   8.069  2.2897  1.3228 -2.0097
  936MOL0     H29129   0.802   7.837   8.093  0.5018 -1.3348 -0.4542
  936MOL0     H29130   0.200   8.001   7.880 -3.1202  1.4386 -3.4919
  936MOL0     H29131  -0.027   7.954   7.991 -1.7828 -1.1014 -0.2151
  936MOL0     H29132  -0.171   7.645   8.130  0.8897  1.8486 -0.5441
  936MOL0     H29133  -0.194   7.825   8.136  2.5041  0.2969  1.0963
  936MOL0     H29134  -0.381   7.606   8.053 -1.2060  1.2226 -3.5420
  936MOL0     H29135  -0.403   7.736   8.174  2.2287  1.1106  0.3045
  936MOL0     H29136  -0.434   7.783   7.878 -0.6599  0.0179 -0.8242
  936MOL0     H29137  -0.388   7.906   7.994  0.2630 -0.9589  0.3296
  936MOL0     H29138  -0.581   7.908   8.106 -1.6731  2.0182 -1.9838
  936MOL0     H29139  -0.624   7.747   8.060  0.5681 -0.6972  0.7279
  936MOL0     H29140  -0.757   7.946   7.979 -2.1196 -0.0930 -3.6210
  936MOL0     H29141  -0.624   8.002   7.880  1.1540  0.1822  1.9694
  936MOL0     H29142  -0.658   7.750   7.784  0.9229 -1.7258  3.1891
  936MOL0     H29143  -0.776   7.880   7.735  2.6621  2.1201 -0.0583
  936MOL0     H29144  -0.909   7.813   7.942 -1.6243 -0.6217 -0.7617
  936MOL0     H29145  -0.801   7.666   7.946 -0.0950 -0.3594 -0.5809
  936MOL0     H29146  -0.984   7.709   7.713 -2.9202 -1.5751  3.3482
  936MOL0     H29147  -0.977   7.581   7.836  1.7110 -0.3927  2.5458
  936MOL0     H29148  -0.043   7.583   7.806 -1.0144 -2.4889  4.8029
  936MOL0     H29149   0.190   7.593   7.732 -0.6261  0.5813 -1.8667
  936MOL0     H29150   0.524   7.782   7.622 -0.1961 -0.1887  0.0886
  936MOL0     H29151   0.749   7.760   7.518  1.8490 -2.3255  0.1715
  936MOL0     H29152   1.380   6.455   8.029 -1.9898  0.9010  0.1666
  936MOL0     H29153   1.251   6.341   7.856 -0.6351 -0.2588 -1.2459
  936MOL0     H29154   1.003   6.101   7.698  0.8742 -1.1650 -0.6324
  936MOL0     H29155   0.830   6.044   7.526  1.9653  2.6467  1.1376
  936MOL0     H29156   0.627   5.942   7.458 -1.7367 -0.8716  0.4106
  936MOL0     H29157   0.700   5.928   7.293 -4.1681  2.6449 -0.7236
  936MOL0     H29158   0.586   5.703   7.266 -0.4610  0.0862 -0.9389
  936MOL0     H29159   0.473   5.837   7.326  0.2510  0.2010  1.7133
  936MOL0     H29160   0.595   5.634   7.512  0.0433 -0.6852  0.2451
  936MOL0     H29161   0.433   5.726   7.522  0.0145 -0.6280 -0.1771
  936MOL0     H29162   0.397   5.495   7.478 -0.9672  1.7064  0.4546
  936MOL0     H29163   0.501   5.502   7.328 -0.1522  0.0936  0.1295
  936MOL0     H29164   0.106   5.632   7.240  0.4888 -1.5028 -0.2241
  936MOL0     H29165   0.963   5.638   7.543 -1.1498  0.0547 -1.9936
  936MOL0     H29166   1.127   5.643   7.853  1.0398 -0.9620 -0.4140
  936MOL0     H29167   1.122   5.562   7.690  2.7922 -0.1652 -1.9895
  936MOL0     H29168   1.248   5.664   7.732 -0.1388 -0.8921  1.0400
  937MOL0     O29169   9.736   5.094   8.037 -0.2428 -0.6307  0.2802
  937MOL0     C29170   9.773   5.204   8.085  0.3482 -0.1701  0.7116
  937MOL0     O29171   9.719   5.260   8.204 -0.5264  0.0750 -0.0873
  937MOL0     C29172   9.658   5.180   8.286 -0.1603  0.2662 -0.7694
  937MOL0     C29173   9.693   5.051   8.329 -0.4530 -0.0983 -0.2442
  937MOL0     C29174   9.626   4.974   8.428  1.0291  0.0460 -1.3795
  937MOL0     C29175   9.507   5.029   8.479  0.6095  0.1890  0.7666
  937MOL0     O29176   9.419   4.965   8.557 -0.3702 -0.1638 -0.5380
  937MOL0     C29177   9.328   4.877   8.489 -0.4721 -0.1139  0.0867
  937MOL0     C29178   9.223   4.842   8.597  0.9910 -0.3657 -0.0408
  937MOL0     C29179   9.097   4.777   8.535 -0.0190  0.0368 -1.3518
  937MOL0     C29180   8.993   4.741   8.640  0.4519 -0.3409 -1.0846
  937MOL0     C29181   8.895   4.644   8.575  0.9149  0.0774 -0.4534
  937MOL0     C29182   8.780   4.620   8.674 -0.5943 -0.4502  0.1558
  937MOL0     C29183   8.676   4.542   8.601 -0.2553 -0.7799 -0.1945
  937MOL0     C29184   8.583   4.461   8.695 -0.3008  0.0061 -0.0587
  937MOL0     N29185   8.447   4.448   8.655  0.7913  0.5258 -0.3228
  937MOL0     C29186   8.393   4.468   8.523 -0.4654  0.1294 -0.0951
  937MOL0     C29187   8.257   4.463   8.536 -0.9194  0.7269 -1.0239
  937MOL0     C29188   8.156   4.487   8.431  1.1624 -0.0432 -0.1607
  937MOL0     C29189   8.011   4.517   8.479 -0.0077  0.9893  0.1824
  937MOL0     C29190   7.908   4.551   8.361  0.2033 -0.0987 -0.1270
  937MOL0     C29191   7.767   4.500   8.394  0.6548 -0.2739 -0.2871
  937MOL0     O29192   7.676   4.553   8.300 -0.5300 -0.9568  0.5118
  937MOL0     C29193   7.548   4.515   8.305 -0.4589  0.3869 -0.8098
  937MOL0     C29194   7.464   4.556   8.202  0.8470  0.0496 -0.7950
  937MOL0     C29195   7.323   4.531   8.191  0.2761  0.2580  0.1206
  937MOL0     C29196   7.251   4.593   8.080  0.6408 -0.6221  0.2329
  937MOL0     C29197   7.264   4.459   8.303  0.4135 -1.3092  0.8608
  937MOL0     C29198   7.123   4.421   8.304  1.2701 -0.4456 -1.1486
  937MOL0     O29199   7.083   4.405   8.434 -0.4974  0.4626 -0.1478
  937MOL0     C29200   6.955   4.376   8.450  0.3347 -0.2667 -0.1694
  937MOL0     C29201   6.890   4.253   8.411 -0.2429 -0.4058  0.0136
  937MOL0     C29202   6.755   4.237   8.411 -0.9458 -0.1405 -0.2011
  937MOL0     C29203   6.668   4.336   8.442 -0.1674  0.1868  0.1592
  937MOL0     O29204   6.529   4.333   8.443 -0.0298  0.6315  0.2567
  937MOL0     C29205   6.472   4.228   8.360  0.2303 -0.2073  1.1685
  937MOL0     C29206   6.329   4.253   8.327  0.7522  0.4990 -0.5393
  937MOL0     C29207   6.251   4.125   8.302 -0.0169 -0.0894  0.1629
  937MOL0     C29208   6.320   4.033   8.194  0.0346  0.2520 -0.6223
  937MOL0     C29209   6.234   3.906   8.169  0.1461  0.7357 -0.8229
  937MOL0     C29210   6.290   3.831   8.042  0.1334  0.8684  0.4327
  937MOL0     C29211   6.244   3.893   7.910  0.7942  0.8244  0.5708
  937MOL0     C29212   6.093   3.918   7.896 -0.2903  0.8123 -0.1025
  937MOL0    Cl29213   5.994   3.770   7.947  0.0580 -0.0208 -0.2117
  937MOL0     C29214   6.726   4.454   8.485  0.4201  0.3939 -0.2467
  937MOL0     C29215   6.865   4.478   8.495 -0.6664  0.0075  0.4312
  937MOL0     O29216   7.045   4.421   8.202  0.2097 -0.4923 -0.3796
  937MOL0     C29217   7.346   4.428   8.408  0.3269  0.6430  0.0667
  937MOL0     C29218   7.484   4.443   8.407  0.6524  0.1688  0.3606
  937MOL0     N29219   8.234   4.427   8.667  0.6494  0.1318 -0.5223
  937MOL0     N29220   8.338   4.424   8.737  0.1379 -0.3426 -0.1462
  937MOL0     C29221   9.464   5.155   8.438  0.6892 -0.5848  0.0548
  937MOL0     C29222   9.538   5.234   8.350 -0.0884  0.7397 -0.0302
  937MOL0     C29223   9.876   5.281   8.009 -0.2499  0.4170 -0.3215
  937MOL0     C29224   9.867   5.416   8.020  1.1218 -0.0250  0.0044
  937MOL0     C29225   9.923   5.496   7.917  0.5629 -0.0093 -0.1305
  937MOL0     C29226   9.991   5.444   7.807  0.9731 -0.4908 -0.9057
  937MOL0     O29227  10.041   5.531   7.719  0.6197 -0.7739  0.2672
  937MOL0     C29228  10.050   5.478   7.584 -0.1206 -0.0314 -0.1934
  937MOL0     C29229  10.032   5.590   7.474  0.1274 -0.4231 -0.8611
  937MOL0     C29230   9.904   5.672   7.502  0.8955  0.1570  0.7255
  937MOL0     C29231   9.854   5.743   7.376  0.0298  0.5587 -1.1319
  937MOL0     C29232   9.958   5.829   7.320 -0.4565  0.4670 -0.1810
  937MOL0     C29233  10.053   5.872   7.259 -0.1399 -0.7758  0.2305
  937MOL0     C29234  10.016   5.305   7.815  0.2264 -0.6194  0.1532
  937MOL0     C29235   9.957   5.225   7.903  0.7367 -0.4103 -0.3127
  937MOL0     C29236   9.978   5.069   7.885 -0.5075 -1.0842 -0.5630
  937MOL0     H29237   9.786   5.010   8.291 -0.8163 -1.3359  0.1536
  937MOL0     H29238   9.660   4.876   8.458 -2.4081 -0.6699  0.7410
  937MOL0     H29239   9.375   4.783   8.459  0.2265 -0.9257  3.3337
  937MOL0     H29240   9.294   4.921   8.395 -2.1263  2.5782  1.8127
  937MOL0     H29241   9.270   4.791   8.681  0.4255 -0.7461  0.0474
  937MOL0     H29242   9.188   4.936   8.640  0.7070 -1.2502  1.7399
  937MOL0     H29243   9.055   4.852   8.467 -1.5406 -0.1543 -0.6809
  937MOL0     H29244   9.134   4.688   8.483 -1.3388 -1.8356  0.6916
  937MOL0     H29245   9.045   4.686   8.719 -2.1304  0.6362  1.4802
  937MOL0     H29246   8.952   4.834   8.679  0.5095 -0.7242 -0.0877
  937MOL0     H29247   8.933   4.550   8.533  0.9141  0.7731 -2.0866
  937MOL0     H29248   8.844   4.691   8.491 -0.0625 -1.6143 -0.8664
  937MOL0     H29249   8.828   4.577   8.763 -1.7712 -1.2892  0.4146
  937MOL0     H29250   8.743   4.715   8.712 -1.2458 -0.6039 -0.0671
  937MOL0     H29251   8.736   4.479   8.534  0.9172  1.1838 -1.0726
  937MOL0     H29252   8.615   4.599   8.530 -3.1911 -3.1525  0.2206
  937MOL0     H29253   8.612   4.356   8.706  3.2938  0.5205 -2.7804
  937MOL0     H29254   8.581   4.509   8.794  0.6597 -0.6165  0.2802
  937MOL0     H29255   8.454   4.492   8.437  1.4677  0.9802  1.4417
  937MOL0     H29256   8.150   4.398   8.367  2.5978  0.5296 -1.1352
  937MOL0     H29257   8.190   4.567   8.365 -2.4742  2.6430  0.9165
  937MOL0     H29258   7.988   4.435   8.547  0.5065  2.0262  1.6634
  937MOL0     H29259   8.018   4.606   8.543  2.6928  0.0081  1.4008
  937MOL0     H29260   7.923   4.657   8.340  3.0522  0.4103  3.5216
  937MOL0     H29261   7.942   4.492   8.275  0.5904 -3.2962  2.0453
  937MOL0     H29262   7.766   4.391   8.405 -1.0092 -0.2048  0.7289
  937MOL0     H29263   7.732   4.544   8.488 -3.7962  1.7693 -2.6108
  937MOL0     H29264   7.512   4.610   8.121  3.0160  3.9570  2.6692
  937MOL0     H29265   7.213   4.515   8.013  1.7642  1.8826 -3.6552
  937MOL0     H29266   7.318   4.665   8.032 -0.5408  2.2074  2.5763
  937MOL0     H29267   7.167   4.654   8.112 -2.2124 -2.4767 -2.9891
  937MOL0     H29268   6.960   4.179   8.375  0.7288 -1.0784  2.9675
  937MOL0     H29269   6.723   4.142   8.370 -1.0762 -2.2372  4.1125
  937MOL0     H29270   6.519   4.231   8.261 -3.0801  0.9486 -0.5310
  937MOL0     H29271   6.484   4.128   8.404 -1.2322 -0.7557  0.3834
  937MOL0     H29272   6.293   4.295   8.422  2.6176  0.8749  0.0294
  937MOL0     H29273   6.316   4.326   8.246 -2.4264 -0.5225 -1.1176
  937MOL0     H29274   6.160   4.165   8.256  0.1379 -0.7357 -0.7284
  937MOL0     H29275   6.223   4.071   8.393 -0.6139  0.9980  0.6524
  937MOL0     H29276   6.425   4.008   8.210 -0.5179 -1.4998  0.5282
  937MOL0     H29277   6.322   4.093   8.102  4.7136 -0.0665 -0.9683
  937MOL0     H29278   6.252   3.832   8.247  4.1192  1.6887 -0.6368
  937MOL0     H29279   6.129   3.933   8.154 -0.8935 -2.3844  0.0164
  937MOL0     H29280   6.264   3.725   8.051  0.9510  0.4556 -1.5476
  937MOL0     H29281   6.400   3.834   8.033  0.5828 -2.0147  3.2123
  937MOL0     H29282   6.286   3.829   7.831 -0.4076 -1.8935  1.9961
  937MOL0     H29283   6.290   3.992   7.901  1.2022  0.4743 -1.7453
  937MOL0     H29284   6.068   3.958   7.797 -0.1010  0.2435 -0.3897
  937MOL0     H29285   6.089   4.002   7.965 -0.2084  0.3273  0.5028
  937MOL0     H29286   6.655   4.527   8.522  0.2009 -0.2497  0.6329
  937MOL0     H29287   6.900   4.573   8.531 -0.9732 -0.8138  3.0915
  937MOL0     H29288   7.302   4.387   8.499  2.2496  4.2085  2.8596
  937MOL0     H29289   7.544   4.404   8.489  3.8497  1.7389 -1.0712
  937MOL0     H29290   9.364   5.181   8.470 -0.4095 -0.3390 -3.2388
  937MOL0     H29291   9.494   5.329   8.320  0.4201  1.2242  0.7393
  937MOL0     H29292   9.816   5.459   8.105  0.0243 -0.1995 -0.5516
  937MOL0     H29293   9.914   5.603   7.925 -2.1184 -0.0703 -1.3464
  937MOL0     H29294  10.148   5.431   7.569  0.9697  1.7292  1.0238
  937MOL0     H29295   9.979   5.396   7.568 -0.6304 -0.4333  3.3662
  937MOL0     H29296  10.033   5.547   7.374 -1.7596  0.2727 -1.2144
  937MOL0     H29297  10.125   5.646   7.493  0.7711 -0.6959 -2.9909
  937MOL0     H29298   9.838   5.607   7.561  3.1504 -0.9867  2.1275
  937MOL0     H29299   9.929   5.752   7.572  2.2173 -0.8349  1.4518
  937MOL0     H29300   9.772   5.806   7.414  1.0010  1.4592 -0.4818
  937MOL0     H29301   9.813   5.671   7.304  0.2163  1.7806 -2.4971
  937MOL0     H29302  10.136   5.929   7.223  0.0457 -0.5212  1.0469
  937MOL0     H29303  10.076   5.270   7.732  1.0897 -2.7858  1.6178
  937MOL0     H29304   9.996   5.015   7.978  0.5746 -2.4165 -1.4969
  937MOL0     H29305   9.885   5.034   7.839 -1.1051  3.2650 -3.2655
  937MOL0     H29306  10.063   5.046   7.820 -0.4663  0.5523 -1.1319
  938MOL0     O29307   0.771   2.609   1.252 -0.0397  0.7213 -0.4706
  938MOL0     C29308   0.816   2.509   1.198 -0.7726  0.7096 -0.1344
  938MOL0     O29309   0.757   2.382   1.220  0.1769 -0.4048  0.0209
  938MOL0     C29310   0.625   2.357   1.269  0.9898 -0.1349 -0.0698
  938MOL0     C29311   0.530   2.456   1.250 -0.7463 -0.2933 -0.2556
  938MOL0     C29312   0.397   2.427   1.284  0.8389 -0.2706 -0.5900
  938MOL0     C29313   0.360   2.312   1.362 -0.4122  0.2849 -0.2122
  938MOL0     O29314   0.232   2.282   1.395  0.0784 -0.4556 -0.0558
  938MOL0     C29315   0.121   2.366   1.342 -0.0101  0.1837 -0.7783
  938MOL0     C29316  -0.016   2.309   1.368 -0.2234  0.6291 -0.0701
  938MOL0     C29317  -0.136   2.380   1.304  0.0097 -0.5908  0.0097
  938MOL0     C29318  -0.258   2.294   1.321  0.1835  0.6531 -0.0415
  938MOL0     C29319  -0.369   2.372   1.255 -0.5058 -0.4819 -0.3203
  938MOL0     C29320  -0.510   2.362   1.313  0.6686  0.2472  0.0231
  938MOL0     C29321  -0.563   2.223   1.257  0.5425  0.0692 -0.2964
  938MOL0     C29322  -0.712   2.233   1.243 -0.0033  1.0580  0.0451
  938MOL0     N29323  -0.772   2.092   1.226  0.3119  0.3227  0.1669
  938MOL0     C29324  -0.894   2.055   1.270 -0.3698  0.8424  0.9320
  938MOL0     C29325  -0.905   1.921   1.244 -0.1681 -0.1965  0.2013
  938MOL0     C29326  -1.026   1.828   1.275 -0.1623  0.6470  0.1607
  938MOL0     C29327  -1.144   1.879   1.184 -0.4728  1.1729  0.5628
  938MOL0     C29328  -1.126   1.880   1.031  0.4951 -0.1485 -0.0413
  938MOL0     C29329  -1.108   1.739   0.979  0.0948  1.4061  1.4087
  938MOL0     O29330  -1.113   1.756   0.834 -0.5750 -0.5930 -0.9253
  938MOL0     C29331  -1.214   1.688   0.775  0.1346 -0.3472  1.1421
  938MOL0     C29332  -1.309   1.768   0.722  0.6130  0.0121 -0.5971
  938MOL0     C29333  -1.434   1.710   0.673 -0.5279 -0.3362  0.6711
  938MOL0     C29334  -1.536   1.811   0.626  0.1585  0.4373 -0.3486
  938MOL0     C29335  -1.445   1.572   0.676 -0.7145  0.3176 -0.7861
  938MOL0     C29336  -1.565   1.504   0.643 -0.4359 -0.8050  0.3900
  938MOL0     O29337  -1.559   1.368   0.666  0.5658 -0.1708 -0.7226
  938MOL0     C29338  -1.673   1.300   0.678  0.8159  0.0036 -0.4126
  938MOL0     C29339  -1.745   1.303   0.796 -0.7001 -0.3671  0.2033
  938MOL0     C29340  -1.873   1.248   0.799 -0.1785 -0.5512 -0.1484
  938MOL0     C29341  -1.928   1.177   0.691 -0.9754 -0.8576  0.1479
  938MOL0     O29342  -2.053   1.122   0.704 -0.0865 -0.5990 -0.0584
  938MOL0     C29343  -2.081   0.995   0.643  0.2254  0.9316 -0.2924
  938MOL0     C29344  -2.047   0.876   0.743 -0.3207 -0.5272  0.2211
  938MOL0     C29345  -1.898   0.866   0.757  0.2058 -0.4068  0.3274
  938MOL0     C29346  -1.863   0.745   0.832 -0.6007  0.5249 -0.6293
  938MOL0     C29347  -1.729   0.751   0.906  0.5404 -0.0289  0.0285
  938MOL0     C29348  -1.615   0.753   0.805 -0.3347  0.1793 -0.1125
  938MOL0     C29349  -1.494   0.733   0.896 -0.4787  0.3006  0.6594
  938MOL0     C29350  -1.360   0.751   0.818 -1.0870  0.8165 -0.3725
  938MOL0    Cl29351  -1.231   0.699   0.933  0.1846  0.0876 -0.2868
  938MOL0     C29352  -1.853   1.183   0.570  0.2869  0.9205 -1.0466
  938MOL0     C29353  -1.722   1.236   0.568  0.9246  0.8987  0.5893
  938MOL0     O29354  -1.650   1.561   0.574 -0.2567  0.2876 -0.0169
  938MOL0     C29355  -1.342   1.496   0.739 -0.0855 -0.3471 -0.2246
  938MOL0     C29356  -1.220   1.550   0.778 -0.0605  0.0591  0.1044
  938MOL0     N29357  -0.784   1.881   1.180  0.1276 -0.0240 -0.1415
  938MOL0     N29358  -0.707   1.982   1.174  0.3641  0.2853 -0.1057
  938MOL0     C29359   0.464   2.226   1.390 -0.3969 -0.3274 -0.2687
  938MOL0     C29360   0.593   2.245   1.340  0.1897 -0.5146  0.0501
  938MOL0     C29361   0.930   2.519   1.102 -0.7754  0.3511 -0.0236
  938MOL0     C29362   0.975   2.401   1.047 -0.3727  0.4142  0.0957
  938MOL0     C29363   1.084   2.402   0.962  0.3121 -0.5205  0.2402
  938MOL0     C29364   1.140   2.520   0.923  0.2312  0.7270  0.7379
  938MOL0     O29365   1.244   2.500   0.842  0.8469  0.2328 -0.6128
  938MOL0     C29366   1.342   2.604   0.825  0.2184 -0.2929  1.0725
  938MOL0     C29367   1.471   2.552   0.786 -0.3901  0.0368 -0.9860
  938MOL0     C29368   1.592   2.650   0.788  1.0042 -0.3981 -0.1960
  938MOL0     C29369   1.565   2.795   0.740  0.2888  0.2536  0.1039
  938MOL0     C29370   1.501   2.869   0.856  0.4473 -0.1901 -0.0273
  938MOL0     C29371   1.444   2.933   0.947 -0.1746  0.4197  0.7981
  938MOL0     C29372   1.091   2.639   0.963 -0.6185  0.9901 -0.3995
  938MOL0     C29373   0.986   2.640   1.053 -0.1843 -0.5027  0.4155
  938MOL0     C29374   0.959   2.777   1.103 -0.5532 -0.1589 -0.0032
  938MOL0     H29375   0.538   2.556   1.210 -2.2374  0.9395  2.2835
  938MOL0     H29376   0.323   2.506   1.271 -0.7599 -2.0999 -3.6116
  938MOL0     H29377   0.127   2.400   1.239 -4.6050  0.1870 -1.2444
  938MOL0     H29378   0.108   2.457   1.401  0.7377 -1.5448  2.2686
  938MOL0     H29379  -0.007   2.209   1.325  1.7930  1.4386 -1.6937
  938MOL0     H29380  -0.021   2.306   1.477 -0.2539  0.7886 -0.0668
  938MOL0     H29381  -0.150   2.469   1.365 -3.3889 -1.0821  0.1056
  938MOL0     H29382  -0.125   2.406   1.198  0.0007  1.7854  0.5330
  938MOL0     H29383  -0.244   2.191   1.288 -0.4985 -0.4761  2.8799
  938MOL0     H29384  -0.285   2.280   1.426 -3.4517  0.4780 -0.8389
  938MOL0     H29385  -0.366   2.358   1.146  1.2742 -3.4022 -0.0061
  938MOL0     H29386  -0.340   2.473   1.284  1.6766 -2.1246  4.0912
  938MOL0     H29387  -0.517   2.360   1.422 -0.0105  0.0164 -0.0229
  938MOL0     H29388  -0.570   2.440   1.265  0.1176 -0.8070 -1.0513
  938MOL0     H29389  -0.542   2.138   1.323 -1.9041  0.2670  0.8334
  938MOL0     H29390  -0.522   2.198   1.159 -0.3390  0.2555 -0.7164
  938MOL0     H29391  -0.761   2.293   1.321 -0.4739  2.8237 -1.5309
  938MOL0     H29392  -0.732   2.289   1.152 -1.8266  2.4894  1.2369
  938MOL0     H29393  -0.966   2.127   1.308 -0.2428  0.9524  0.9630
  938MOL0     H29394  -1.059   1.830   1.379 -0.5077 -3.8076  0.3395
  938MOL0     H29395  -0.991   1.730   1.242 -2.7910  0.3363 -2.0982
  938MOL0     H29396  -1.233   1.820   1.207  0.9573 -1.7663 -0.8730
  938MOL0     H29397  -1.169   1.983   1.209  1.2504  2.4995 -2.6823
  938MOL0     H29398  -1.213   1.919   0.978  0.5803 -0.0625 -0.1193
  938MOL0     H29399  -1.036   1.937   1.006 -0.2413  1.1908  0.2458
  938MOL0     H29400  -1.008   1.704   1.007  0.7038  1.5991 -0.3702
  938MOL0     H29401  -1.186   1.673   1.018  1.8532  1.3900  5.4080
  938MOL0     H29402  -1.299   1.876   0.717  0.8592 -0.0463 -1.9699
  938MOL0     H29403  -1.498   1.912   0.644 -0.7306  0.4466  1.7795
  938MOL0     H29404  -1.632   1.787   0.672  0.5836 -1.4112 -0.3316
  938MOL0     H29405  -1.558   1.791   0.520  0.1524  3.2483 -0.9568
  938MOL0     H29406  -1.703   1.353   0.882 -2.0505  1.9585 -0.3767
  938MOL0     H29407  -1.936   1.268   0.885 -0.9099 -0.3419 -0.7212
  938MOL0     H29408  -2.188   0.993   0.620  0.0627 -1.3330  0.3529
  938MOL0     H29409  -2.027   0.974   0.550  0.0338 -2.7926  0.2511
  938MOL0     H29410  -2.089   0.892   0.843  3.2557  0.8345  1.6607
  938MOL0     H29411  -2.084   0.783   0.698  2.3984 -0.0971 -3.3695
  938MOL0     H29412  -1.845   0.946   0.808 -1.2265 -0.4118  1.8941
  938MOL0     H29413  -1.864   0.857   0.653 -0.4415 -1.8941  0.2149
  938MOL0     H29414  -1.853   0.653   0.773  0.0781 -1.4889  2.3725
  938MOL0     H29415  -1.947   0.730   0.901  1.1544 -2.7888  1.0557
  938MOL0     H29416  -1.727   0.841   0.968 -0.5795 -1.0167  1.5746
  938MOL0     H29417  -1.733   0.667   0.975 -3.1856  0.5503  0.7418
  938MOL0     H29418  -1.616   0.847   0.749  0.4273 -1.0939 -2.3991
  938MOL0     H29419  -1.632   0.680   0.725 -2.2023 -1.7081  1.8452
  938MOL0     H29420  -1.500   0.628   0.925 -0.6309 -0.3431 -1.5314
  938MOL0     H29421  -1.500   0.798   0.984 -2.9681  0.9371  0.0996
  938MOL0     H29422  -1.339   0.856   0.797 -0.9246  1.0218  0.7362
  938MOL0     H29423  -1.344   0.678   0.738  2.6015  1.2278 -0.1717
  938MOL0     H29424  -1.883   1.136   0.476  1.5371 -3.0349  0.3234
  938MOL0     H29425  -1.674   1.233   0.471 -2.0025 -1.4089 -0.9379
  938MOL0     H29426  -1.350   1.388   0.747 -0.9727 -0.1231  4.1766
  938MOL0     H29427  -1.135   1.497   0.819  1.9099  2.7145 -0.3210
  938MOL0     H29428   0.441   2.134   1.444 -1.6648  0.1353  0.0256
  938MOL0     H29429   0.665   2.164   1.348  0.2800 -0.6190 -1.4790
  938MOL0     H29430   0.935   2.302   1.067  4.3000 -2.2964 -2.3217
  938MOL0     H29431   1.121   2.311   0.915  1.5009 -0.6970  1.4524
  938MOL0     H29432   1.310   2.675   0.748 -0.5666 -0.4335  1.2630
  938MOL0     H29433   1.347   2.661   0.919  3.5238 -2.8428  2.6506
  938MOL0     H29434   1.462   2.493   0.694  1.6592  1.5193 -2.2451
  938MOL0     H29435   1.508   2.481   0.861  2.6105  2.7219  0.3178
  938MOL0     H29436   1.618   2.660   0.894  1.8909 -1.5010 -0.3075
  938MOL0     H29437   1.678   2.614   0.732  3.6012  2.2892  1.7187
  938MOL0     H29438   1.498   2.791   0.653 -2.4125 -0.6608  2.0746
  938MOL0     H29439   1.661   2.829   0.700  1.9342 -3.6225  0.3441
  938MOL0     H29440   1.382   2.979   1.020 -2.1040 -0.4832 -0.1924
  938MOL0     H29441   1.145   2.725   0.923  0.1223  0.6935 -0.0600
  938MOL0     H29442   0.855   2.803   1.080 -0.4135  2.0169  1.5476
  938MOL0     H29443   0.959   2.773   1.212 -0.1234 -0.5994 -0.0143
  938MOL0     H29444   1.026   2.854   1.063 -0.4920 -0.6483 -0.8770
  939MOL0     O29445   4.448   7.254   5.655 -0.1121  0.8491 -0.2181
  939MOL0     C29446   4.356   7.242   5.739 -0.3957 -0.0044  0.6918
  939MOL0     O29447   4.333   7.326   5.848 -0.3205  0.4150 -0.1429
  939MOL0     C29448   4.434   7.415   5.884 -0.7708 -0.5897  0.5225
  939MOL0     C29449   4.515   7.383   5.994 -0.0457  0.0263 -0.2083
  939MOL0     C29450   4.616   7.467   6.032  0.4155 -0.6948  0.4447
  939MOL0     C29451   4.651   7.577   5.950  0.1063 -1.4057  0.5332
  939MOL0     O29452   4.758   7.660   5.973  0.1836 -0.3652  0.4106
  939MOL0     C29453   4.825   7.660   6.091 -0.5146 -0.2091 -0.3814
  939MOL0     C29454   4.753   7.724   6.209  0.1057  0.2688 -0.4975
  939MOL0     C29455   4.848   7.742   6.331  0.2397 -0.5098  0.5266
  939MOL0     C29456   4.864   7.606   6.400 -0.1717  0.1988  0.3628
  939MOL0     C29457   4.925   7.630   6.535  0.5092  0.0380 -0.7676
  939MOL0     C29458   5.079   7.655   6.516 -0.0942 -0.2329 -0.5112
  939MOL0     C29459   5.146   7.659   6.660 -0.3554  0.3384 -0.2105
  939MOL0     C29460   5.287   7.719   6.656  0.1696  0.6656  0.3112
  939MOL0     N29461   5.394   7.627   6.621  0.2863 -0.1782  0.1869
  939MOL0     C29462   5.496   7.579   6.706  0.3678  0.2711  0.8229
  939MOL0     C29463   5.551   7.474   6.637  0.1621  0.3242 -0.6088
  939MOL0     C29464   5.664   7.394   6.690  0.9017 -0.1317  0.9400
  939MOL0     C29465   5.708   7.272   6.600 -0.3718 -0.6628  0.6183
  939MOL0     C29466   5.610   7.149   6.626  0.3030  0.7434  0.1190
  939MOL0     C29467   5.479   7.145   6.544 -0.5525 -0.1409 -0.8637
  939MOL0     O29468   5.389   7.033   6.569 -0.0312  0.0195 -0.5413
  939MOL0     C29469   5.265   7.024   6.508 -0.7108  0.1818  0.2812
  939MOL0     C29470   5.213   7.132   6.442  0.0770  0.8872  0.7049
  939MOL0     C29471   5.090   7.126   6.376 -0.1718 -0.2783  1.2705
  939MOL0     C29472   5.061   7.238   6.279 -0.5273  0.2053  1.2311
  939MOL0     C29473   5.008   7.011   6.383 -0.3761 -0.4144  0.1601
  939MOL0     C29474   4.874   7.003   6.326  0.5597  0.5414 -0.4763
  939MOL0     O29475   4.803   7.118   6.285 -0.1785  0.1473 -0.1834
  939MOL0     C29476   4.667   7.127   6.297  0.1577 -0.7325  0.7403
  939MOL0     C29477   4.603   7.244   6.360 -1.1392  0.7812  0.0785
  939MOL0     C29478   4.468   7.236   6.385  0.2517 -0.1732  0.5478
  939MOL0     C29479   4.387   7.117   6.344  0.4323  0.4745 -0.5818
  939MOL0     O29480   4.251   7.121   6.370 -0.3273  0.4604  0.8226
  939MOL0     C29481   4.207   7.133   6.509 -1.1642 -0.2204 -0.0941
  939MOL0     C29482   4.063   7.088   6.519  0.3133 -0.1917  0.0959
  939MOL0     C29483   4.054   6.923   6.499  0.3343 -0.3351  1.3937
  939MOL0     C29484   3.911   6.887   6.461 -0.1016 -0.3273  0.2052
  939MOL0     C29485   3.900   6.738   6.458 -0.9614  0.4696 -0.7064
  939MOL0     C29486   3.774   6.670   6.439 -0.1908 -0.3629  0.1324
  939MOL0     C29487   3.712   6.708   6.305  0.0103 -0.1806  1.0660
  939MOL0     C29488   3.606   6.606   6.280  1.4614 -0.0603  0.4961
  939MOL0    Cl29489   3.683   6.460   6.222  0.5293  0.3031  0.1160
  939MOL0     C29490   4.445   7.000   6.301 -0.3657 -0.4623 -0.2135
  939MOL0     C29491   4.582   7.012   6.270 -0.5645  0.1878  0.4622
  939MOL0     O29492   4.830   6.890   6.323 -0.6468  0.6471  0.1205
  939MOL0     C29493   5.062   6.899   6.454 -0.4423 -0.7262 -0.4333
  939MOL0     C29494   5.191   6.912   6.516  0.5529  0.8378  0.0061
  939MOL0     N29495   5.491   7.468   6.506  0.3743  0.5104 -0.0019
  939MOL0     N29496   5.398   7.554   6.504  0.8026 -0.0856 -1.3142
  939MOL0     C29497   4.567   7.603   5.847  0.0621 -0.4655  0.1110
  939MOL0     C29498   4.453   7.533   5.813  0.2853 -0.0472 -0.5492
  939MOL0     C29499   4.276   7.135   5.705  0.3599 -0.1502  0.6403
  939MOL0     C29500   4.334   7.018   5.669  0.5493 -0.3620 -0.7122
  939MOL0     C29501   4.253   6.906   5.638 -0.0615 -2.0170  0.1612
  939MOL0     C29502   4.119   6.900   5.671  0.8134 -0.5598 -0.2507
  939MOL0     O29503   4.035   6.798   5.653 -0.3606  0.0657 -0.4693
  939MOL0     C29504   4.085   6.679   5.593 -0.4248  0.7061 -1.2460
  939MOL0     C29505   4.157   6.580   5.695  0.0454  0.1317  0.3750
  939MOL0     C29506   4.070   6.544   5.811 -0.2095 -0.8533  0.4805
  939MOL0     C29507   4.127   6.470   5.923 -0.4293  0.2572 -1.3797
  939MOL0     C29508   4.059   6.443   6.055 -0.3660  0.5905  0.5977
  939MOL0     C29509   4.006   6.440   6.159 -0.7518  0.5144  0.2140
  939MOL0     C29510   4.063   7.016   5.725 -0.8756 -0.8677 -0.3852
  939MOL0     C29511   4.138   7.132   5.747 -0.2894  0.6947 -0.5106
  939MOL0     C29512   4.075   7.261   5.790  0.3115  0.0360 -0.2397
  939MOL0     H29513   4.497   7.295   6.055  2.0597 -0.0455  0.4024
  939MOL0     H29514   4.677   7.442   6.118  3.9353  2.6255 -0.8049
  939MOL0     H29515   4.916   7.717   6.069 -0.9609 -0.0204 -1.8651
  939MOL0     H29516   4.842   7.555   6.116  0.1729 -0.4509 -1.7276
  939MOL0     H29517   4.744   7.822   6.160 -1.0333 -2.0064 -5.3987
  939MOL0     H29518   4.661   7.672   6.235  1.0171 -1.1187  0.0233
  939MOL0     H29519   4.947   7.784   6.311  1.0829 -1.8055  1.7740
  939MOL0     H29520   4.808   7.819   6.397  1.7837  0.7776  0.0184
  939MOL0     H29521   4.767   7.564   6.429 -0.7423  1.5090  0.4200
  939MOL0     H29522   4.919   7.535   6.337  1.3692  2.8112 -1.4277
  939MOL0     H29523   4.907   7.550   6.607 -2.6057  1.0315 -0.3256
  939MOL0     H29524   4.865   7.711   6.576 -2.7575 -3.2465  1.5473
  939MOL0     H29525   5.126   7.575   6.458 -1.5530 -1.5683  0.0974
  939MOL0     H29526   5.108   7.747   6.465  1.6220 -1.2485 -1.4617
  939MOL0     H29527   5.140   7.554   6.688  1.4647  0.3254  0.2386
  939MOL0     H29528   5.093   7.718   6.736 -1.3011 -0.7001 -0.0458
  939MOL0     H29529   5.291   7.799   6.582  1.1161  2.1929  1.9363
  939MOL0     H29530   5.309   7.761   6.754 -0.9042  1.2755  0.3062
  939MOL0     H29531   5.526   7.607   6.807 -1.3413 -0.3450  1.5532
  939MOL0     H29532   5.641   7.352   6.788 -1.4025 -1.7742 -0.2236
  939MOL0     H29533   5.754   7.456   6.696  0.0784  1.4919 -1.7014
  939MOL0     H29534   5.721   7.295   6.494 -1.6921  0.7337  0.7204
  939MOL0     H29535   5.805   7.240   6.639 -0.1122 -1.5038 -0.6920
  939MOL0     H29536   5.660   7.065   6.576 -2.4388  0.1902 -1.8778
  939MOL0     H29537   5.599   7.125   6.732  1.3557  1.4314  0.4067
  939MOL0     H29538   5.424   7.233   6.579  0.7238  0.3214  0.0417
  939MOL0     H29539   5.494   7.165   6.438  0.3083  4.4463 -0.1050
  939MOL0     H29540   5.276   7.217   6.419  2.2286 -0.7125  0.3230
  939MOL0     H29541   5.154   7.280   6.239 -1.1024  0.6716  0.3625
  939MOL0     H29542   4.986   7.310   6.315 -1.3935  0.7844 -1.5206
  939MOL0     H29543   5.020   7.191   6.189  1.2745  0.0010  0.4812
  939MOL0     H29544   4.664   7.325   6.397  1.3940 -2.1740  2.9316
  939MOL0     H29545   4.417   7.314   6.440 -0.0771  0.3671 -0.4960
  939MOL0     H29546   4.282   7.082   6.569  0.3127  1.1608 -0.6889
  939MOL0     H29547   4.212   7.238   6.538 -0.6404  0.8207 -3.4670
  939MOL0     H29548   4.026   7.110   6.620  2.6812  0.1848  0.9504
  939MOL0     H29549   4.001   7.145   6.450  0.6258 -0.8481 -0.7451
  939MOL0     H29550   4.077   6.864   6.588 -1.2941 -2.2889  0.6152
  939MOL0     H29551   4.129   6.901   6.423 -0.4082 -0.2992  0.6383
  939MOL0     H29552   3.885   6.914   6.358  1.5618 -0.5379 -0.3095
  939MOL0     H29553   3.839   6.919   6.536  2.0186 -0.6350  2.5050
  939MOL0     H29554   3.974   6.693   6.392  0.6978 -0.7477  1.7934
  939MOL0     H29555   3.930   6.708   6.559 -1.6113 -0.2308 -0.7030
  939MOL0     H29556   3.704   6.688   6.521  0.1765  1.8644  0.0325
  939MOL0     H29557   3.790   6.563   6.453 -0.4266 -0.0945  3.0046
  939MOL0     H29558   3.797   6.701   6.238  0.4901  0.6247  1.5685
  939MOL0     H29559   3.665   6.807   6.304 -0.4572 -0.3961  0.6134
  939MOL0     H29560   3.540   6.660   6.211  0.3057 -0.8546  0.9576
  939MOL0     H29561   3.556   6.586   6.375 -2.0444  1.8105 -0.7778
  939MOL0     H29562   4.376   6.917   6.291  1.2224 -1.8592  0.0087
  939MOL0     H29563   4.631   6.928   6.222 -0.4841  0.5724 -0.1425
  939MOL0     H29564   5.000   6.810   6.465 -3.6279  1.4832  0.6561
  939MOL0     H29565   5.210   6.822   6.572 -1.3518 -0.8222 -1.8471
  939MOL0     H29566   4.598   7.685   5.783  0.9453 -1.0162 -0.1761
  939MOL0     H29567   4.385   7.561   5.733 -0.3453  0.8447  0.2703
  939MOL0     H29568   4.439   7.007   5.645  0.9364  1.5746 -0.0698
  939MOL0     H29569   4.303   6.826   5.584  0.9100 -0.9198 -0.6424
  939MOL0     H29570   4.003   6.629   5.541  1.5198 -0.7133 -3.1298
  939MOL0     H29571   4.163   6.704   5.521  2.6980 -2.5463  0.6800
  939MOL0     H29572   4.254   6.625   5.722  0.8956  0.4579 -2.7830
  939MOL0     H29573   4.182   6.487   5.643 -0.9492  0.5160 -0.8228
  939MOL0     H29574   4.022   6.636   5.847  0.6921  0.5333 -1.6399
  939MOL0     H29575   3.991   6.483   5.766  0.7602 -2.5560  1.0211
  939MOL0     H29576   4.230   6.496   5.951 -0.4164 -1.3814  0.2911
  939MOL0     H29577   4.142   6.368   5.885  1.3730 -0.6525  1.4738
  939MOL0     H29578   3.963   6.460   6.255 -0.8489 -0.5904  0.4180
  939MOL0     H29579   3.955   7.017   5.737 -1.0187 -0.5093 -1.5809
  939MOL0     H29580   3.966   7.265   5.798  0.2660  0.5455 -1.0343
  939MOL0     H29581   4.112   7.282   5.891  2.7469  0.5279 -1.1460
  939MOL0     H29582   4.095   7.349   5.729  0.0870 -0.1906 -0.6422
  940MOL0     O29583   4.529   9.119   8.738 -1.1611 -0.6775  0.0225
  940MOL0     C29584   4.482   9.229   8.724  0.3781  0.1591 -0.1604
  940MOL0     O29585   4.533   9.348   8.789 -1.3833  1.4407 -0.1759
  940MOL0     C29586   4.591   9.332   8.907 -0.3544  0.0459  0.1410
  940MOL0     C29587   4.511   9.293   9.013  0.8142  0.5715  0.4662
  940MOL0     C29588   4.563   9.256   9.134 -0.2064  0.4049 -0.3727
  940MOL0     C29589   4.703   9.238   9.148  1.1836  0.1508 -0.6642
  940MOL0     O29590   4.760   9.227   9.273  0.0414  0.1814 -0.9546
  940MOL0     C29591   4.727   9.330   9.363  0.3515 -0.1142  0.4090
  940MOL0     C29592   4.781   9.472   9.319 -0.0826 -0.2523  0.3794
  940MOL0     C29593   4.935   9.496   9.326 -0.1398 -0.3743 -0.4036
  940MOL0     C29594   4.998   9.440   9.448  0.4049 -0.1040  0.3125
  940MOL0     C29595   4.957   9.519   9.566 -0.4645 -0.5736 -0.3553
  940MOL0     C29596   5.032   9.443   9.683  0.0708  0.5908 -0.1547
  940MOL0     C29597   4.991   9.504   9.816  0.1155  0.2124 -0.9257
  940MOL0     C29598   4.872   9.415   9.880  0.1358 -1.1434 -0.2763
  940MOL0     N29599   4.752   9.443   9.804  0.0951  0.0817 -0.1245
  940MOL0     C29600   4.686   9.556   9.835 -1.2808  0.3195  0.7542
  940MOL0     C29601   4.576   9.530   9.768 -0.0918 -0.2325 -0.6635
  940MOL0     C29602   4.463   9.624   9.781 -0.7344  0.2793  0.4473
  940MOL0     C29603   4.374   9.566   9.891  0.0897 -0.4972  0.1793
  940MOL0     C29604   4.223   9.600   9.874 -0.1774  0.6484 -0.4707
  940MOL0     C29605   4.131   9.556   9.996 -0.4314  0.6415 -0.3001
  940MOL0     O29606   4.165   9.627  10.120 -0.0159 -0.0575  0.7493
  940MOL0     C29607   4.104   9.745  10.152  0.0172  0.1459 -0.1757
  940MOL0     C29608   4.152   9.808  10.266  0.4728  0.2400  0.3513
  940MOL0     C29609   4.099   9.928  10.314  0.2496 -0.1987  0.1585
  940MOL0     C29610   4.144   9.995  10.449 -1.4186  0.6052 -1.3188
  940MOL0     C29611   4.013   9.999  10.227 -0.0240  0.4188 -0.2720
  940MOL0     C29612   3.963  10.132  10.265  0.2160  0.2729  0.0791
  940MOL0     O29613   3.832  10.146  10.308  0.7699 -0.1899 -0.2444
  940MOL0     C29614   3.807  10.251  10.386  0.1435 -0.5404  0.6958
  940MOL0     C29615   3.755  10.369  10.327 -0.1763 -0.2504 -0.9180
  940MOL0     C29616   3.713  10.479  10.405 -0.7874 -0.9498  0.2371
  940MOL0     C29617   3.736  10.473  10.538  1.0812 -0.8922 -0.4865
  940MOL0     O29618   3.735  10.574  10.636  0.1719 -0.0028 -0.0393
  940MOL0     C29619   3.678  10.702  10.601  0.9450  0.0196 -0.1627
  940MOL0     C29620   3.670  10.789  10.711  0.6589 -1.0375 -0.3975
  940MOL0     C29621   3.562  10.736  10.812  0.0239  0.0936 -0.0955
  940MOL0     C29622   3.590  10.819  10.942  0.1202 -0.0960 -0.5704
  940MOL0     C29623   3.529  10.763  11.071 -0.3016 -0.6681 -0.1146
  940MOL0     C29624   3.590  10.839  11.197 -0.8438 -1.0996 -0.1500
  940MOL0     C29625   3.598  10.742  11.312  0.5867  0.0059  0.2661
  940MOL0     C29626   3.630  10.808  11.441 -0.5400 -0.4897  0.5054
  940MOL0    Cl29627   3.485  10.877  11.517 -0.1825  0.3028 -0.1364
  940MOL0     C29628   3.767  10.347  10.596 -0.0593  0.3926 -0.2903
  940MOL0     C29629   3.802  10.235  10.526 -0.0062 -0.8967  0.0502
  940MOL0     O29630   4.039  10.228  10.249 -0.2228 -0.1726  0.5933
  940MOL0     C29631   3.973   9.942  10.110  0.1144 -0.6481  0.0799
  940MOL0     C29632   4.017   9.815  10.079 -0.1769 -0.0832  0.2874
  940MOL0     N29633   4.582   9.409   9.699  1.0837 -0.1542  1.3312
  940MOL0     N29634   4.691   9.353   9.721  0.3249  0.0900  0.6373
  940MOL0     C29635   4.784   9.246   9.035 -0.0399  0.7117  0.2205
  940MOL0     C29636   4.733   9.312   8.920  0.1189 -0.1985  0.0816
  940MOL0     C29637   4.359   9.256   8.630  0.0471  0.1680 -0.5885
  940MOL0     C29638   4.310   9.388   8.632 -0.2957  0.4718  0.1711
  940MOL0     C29639   4.198   9.429   8.570  0.5000 -1.2710  0.0655
  940MOL0     C29640   4.119   9.330   8.507  1.0277  0.9186  0.3459
  940MOL0     O29641   4.004   9.379   8.443 -0.2518  0.7963 -1.0386
  940MOL0     C29642   3.904   9.276   8.414  0.4387 -0.0211 -0.0201
  940MOL0     C29643   3.828   9.230   8.544 -1.0770  0.5637 -0.8378
  940MOL0     C29644   3.784   9.344   8.626  0.4793 -0.5691 -0.4074
  940MOL0     C29645   3.673   9.430   8.558  0.6070 -1.0889 -0.6178
  940MOL0     C29646   3.644   9.549   8.646 -0.6903 -0.1014  0.8387
  940MOL0     C29647   3.631   9.648   8.712 -0.4930  0.1775  0.7456
  940MOL0     C29648   4.151   9.195   8.526 -0.1435  0.2393 -0.0986
  940MOL0     C29649   4.280   9.155   8.575  0.1112  0.2528  0.0813
  940MOL0     C29650   4.319   9.021   8.540  0.2174 -0.2959  0.3422
  940MOL0     H29651   4.403   9.285   9.007  0.6896  2.7451 -1.3516
  940MOL0     H29652   4.496   9.229   9.215  1.6004  0.3932  1.1680
  940MOL0     H29653   4.773   9.308   9.460  1.3155  0.8027  0.1803
  940MOL0     H29654   4.618   9.332   9.376  0.5125  1.3437  1.8468
  940MOL0     H29655   4.738   9.504   9.223 -1.6673  1.3420  1.5566
  940MOL0     H29656   4.740   9.541   9.393 -0.4376 -2.2573  2.1498
  940MOL0     H29657   4.985   9.449   9.241  0.6199  0.7729 -0.6073
  940MOL0     H29658   4.954   9.603   9.317  2.8534 -0.7669  0.3040
  940MOL0     H29659   4.970   9.335   9.459  1.4870 -0.2833  1.5878
  940MOL0     H29660   5.107   9.441   9.449  0.4416 -1.5524  1.8014
  940MOL0     H29661   4.852   9.510   9.595 -0.1247 -0.8539  0.8241
  940MOL0     H29662   4.990   9.621   9.542 -1.5554 -0.2898 -0.7302
  940MOL0     H29663   4.999   9.339   9.690  0.6303  0.5210  1.9577
  940MOL0     H29664   5.140   9.451   9.663 -0.0631  0.2854 -1.0636
  940MOL0     H29665   4.949   9.604   9.811 -4.1875 -1.4271 -4.2137
  940MOL0     H29666   5.077   9.494   9.883 -1.1121 -2.6488  0.4122
  940MOL0     H29667   4.894   9.308   9.886  1.2269 -0.8598  3.0618
  940MOL0     H29668   4.872   9.448   9.984 -0.2587 -2.7145  0.2604
  940MOL0     H29669   4.724   9.635   9.899  1.5220 -0.2855  0.0155
  940MOL0     H29670   4.416   9.620   9.682  0.6755 -0.5028 -0.2217
  940MOL0     H29671   4.488   9.730   9.793 -3.2238  1.1129 -1.0307
  940MOL0     H29672   4.380   9.457   9.903  0.7975 -0.5495 -0.5814
  940MOL0     H29673   4.408   9.616   9.982  0.8038  1.3285 -1.0345
  940MOL0     H29674   4.203   9.704   9.847  1.3329  0.2639 -3.6324
  940MOL0     H29675   4.185   9.538   9.792  0.4014 -2.3126  1.3564
  940MOL0     H29676   4.028   9.569   9.960  0.7842 -0.8901 -5.1439
  940MOL0     H29677   4.142   9.448  10.003  0.7308  0.7478 -0.2996
  940MOL0     H29678   4.204   9.742  10.334 -3.9696 -3.2162  0.8767
  940MOL0     H29679   4.203   9.918  10.500 -1.4840  0.4039 -1.5484
  940MOL0     H29680   4.068  10.020  10.524  0.8826 -1.0679  1.8161
  940MOL0     H29681   4.202  10.088  10.448  0.1083 -0.1497  1.9983
  940MOL0     H29682   3.740  10.373  10.220  0.1300  0.5782 -0.9299
  940MOL0     H29683   3.685  10.571  10.355  0.3393 -1.0974 -0.7076
  940MOL0     H29684   3.739  10.751  10.524 -0.0913 -0.8063 -1.5596
  940MOL0     H29685   3.579  10.681  10.559  0.8845 -0.1027  0.0375
  940MOL0     H29686   3.770  10.788  10.756  1.0627 -1.7115 -1.2924
  940MOL0     H29687   3.648  10.889  10.672  0.0251 -1.6881 -1.7833
  940MOL0     H29688   3.580  10.631  10.837  2.6265 -0.2341 -2.9032
  940MOL0     H29689   3.458  10.762  10.789  0.4964 -0.3587 -3.0193
  940MOL0     H29690   3.558  10.922  10.923  0.3864  0.1028  0.0342
  940MOL0     H29691   3.696  10.835  10.965 -0.1338  3.2717 -1.1146
  940MOL0     H29692   3.421  10.770  11.088 -0.1053 -1.4009  1.6000
  940MOL0     H29693   3.559  10.658  11.065 -0.2823 -0.7191  0.7291
  940MOL0     H29694   3.530  10.924  11.229 -2.2468 -1.3339 -2.0283
  940MOL0     H29695   3.685  10.884  11.168 -1.2774 -0.1950 -0.2023
  940MOL0     H29696   3.676  10.669  11.291 -1.0848 -0.6969 -4.9108
  940MOL0     H29697   3.498  10.698  11.320 -0.2655  1.6613 -0.7461
  940MOL0     H29698   3.698  10.892  11.429 -1.2365  0.1426  0.9366
  940MOL0     H29699   3.672  10.748  11.522 -1.7166  0.2143  1.6740
  940MOL0     H29700   3.749  10.339  10.703 -1.1804 -1.9877 -0.5948
  940MOL0     H29701   3.822  10.139  10.572 -0.5349 -0.2763  1.6573
  940MOL0     H29702   3.898   9.980  10.042  0.0629 -2.8296 -1.1808
  940MOL0     H29703   4.003   9.783   9.976  2.4476 -0.8603  0.1178
  940MOL0     H29704   4.890   9.225   9.024 -0.3069 -1.8007  1.6669
  940MOL0     H29705   4.800   9.349   8.843 -1.0408  0.6011 -0.5908
  940MOL0     H29706   4.372   9.464   8.679  0.7198  1.5261 -2.6090
  940MOL0     H29707   4.151   9.527   8.573 -1.4310 -2.1693  1.9078
  940MOL0     H29708   3.834   9.330   8.349 -2.7662 -1.5019  1.9526
  940MOL0     H29709   3.948   9.196   8.353  1.7317  1.3985 -1.0324
  940MOL0     H29710   3.894   9.167   8.604 -2.1677  0.2547  0.0619
  940MOL0     H29711   3.745   9.160   8.534  2.1508 -3.8844  0.5134
  940MOL0     H29712   3.736   9.308   8.718  1.3973 -1.5053 -0.2707
  940MOL0     H29713   3.880   9.393   8.648  0.2095 -0.4670  0.6074
  940MOL0     H29714   3.581   9.373   8.543 -2.4962  2.0354  3.9255
  940MOL0     H29715   3.702   9.458   8.457  0.3688 -0.1930 -0.4474
  940MOL0     H29716   3.626   9.743   8.761 -0.1818  0.9216 -0.6183
  940MOL0     H29717   4.084   9.117   8.492 -1.4397  1.8339 -1.3795
  940MOL0     H29718   4.427   9.018   8.558  0.3634  4.0753  1.3591
  940MOL0     H29719   4.272   8.944   8.602  1.1311 -0.0359  1.3834
  940MOL0     H29720   4.286   9.012   8.436  1.7899  0.6440 -0.2797
  941MOL0     O29721   3.616   6.181   0.406 -0.4156  0.5973  0.2311
  941MOL0     C29722   3.691   6.226   0.493  0.5394 -0.3091  0.7895
  941MOL0     O29723   3.820   6.240   0.487 -0.2289 -0.0163 -0.0010
  941MOL0     C29724   3.883   6.156   0.393 -0.6472 -0.4405 -0.4157
  941MOL0     C29725   3.896   6.025   0.414 -0.0385 -0.5548 -0.6723
  941MOL0     C29726   3.965   5.948   0.330 -0.1704 -0.0279  0.0445
  941MOL0     C29727   4.033   5.996   0.220 -0.0440  0.7350  0.6544
  941MOL0     O29728   4.096   5.904   0.139 -0.2970  0.3006  0.3754
  941MOL0     C29729   4.129   5.957   0.009 -0.2647  0.0929  0.3052
  941MOL0     C29730   4.125   5.840  -0.086  0.8729 -0.1234 -0.2295
  941MOL0     C29731   4.072   5.880  -0.212  0.5690  1.0601 -0.0132
  941MOL0     C29732   4.172   5.933  -0.323 -0.0914  0.4278 -0.0781
  941MOL0     C29733   4.108   5.927  -0.465 -0.1626 -0.1651 -0.4880
  941MOL0     C29734   4.206   5.993  -0.566 -0.0120  0.4963  0.3728
  941MOL0     C29735   4.189   5.949  -0.714 -0.9750  0.1026  0.6063
  941MOL0     C29736   4.051   5.980  -0.770  0.6736  0.0599 -0.6670
  941MOL0     N29737   4.044   6.000  -0.919 -0.5403 -0.1513 -1.1929
  941MOL0     C29738   4.116   6.104  -0.979 -0.3058  0.6820 -0.2922
  941MOL0     C29739   4.068   6.114  -1.099 -1.2028 -0.1735  0.5134
  941MOL0     C29740   4.112   6.208  -1.206 -1.2775  1.0374  1.1343
  941MOL0     C29741   4.164   6.136  -1.328 -0.3645  1.0844  0.5468
  941MOL0     C29742   4.314   6.109  -1.293  0.3337  1.1890 -0.5534
  941MOL0     C29743   4.397   6.044  -1.398 -0.2954  0.1560  0.8050
  941MOL0     O29744   4.440   6.154  -1.484  0.4825  0.3539  1.0432
  941MOL0     C29745   4.554   6.224  -1.465 -0.6111 -0.0940  0.3628
  941MOL0     C29746   4.581   6.339  -1.551 -0.4230  0.3263  0.6515
  941MOL0     C29747   4.714   6.392  -1.568 -1.1182  0.6720 -0.8495
  941MOL0     C29748   4.731   6.499  -1.665  0.7199  0.0303 -0.2477
  941MOL0     C29749   4.817   6.333  -1.484  0.6070  0.2494 -0.5426
  941MOL0     C29750   4.961   6.377  -1.480 -0.0796 -0.3539  0.7899
  941MOL0     O29751   5.033   6.343  -1.370  0.0337 -0.0337  0.3808
  941MOL0     C29752   5.148   6.415  -1.351 -1.1745  1.1558  0.3877
  941MOL0     C29753   5.143   6.533  -1.287  0.3489 -0.8616 -0.7762
  941MOL0     C29754   5.258   6.612  -1.259  0.1309  0.3555  0.0644
  941MOL0     C29755   5.378   6.580  -1.304  0.8114 -0.6308  0.8083
  941MOL0     O29756   5.475   6.661  -1.266 -0.3831 -0.4839  0.3435
  941MOL0     C29757   5.581   6.591  -1.192 -0.8722 -0.0077 -0.5200
  941MOL0     C29758   5.691   6.697  -1.172  0.6069 -0.1454 -0.1690
  941MOL0     C29759   5.808   6.650  -1.084 -0.1596  0.4291 -0.3095
  941MOL0     C29760   5.771   6.630  -0.934  0.4644 -0.2123 -0.3517
  941MOL0     C29761   5.888   6.563  -0.861 -0.1355  0.2069 -0.4219
  941MOL0     C29762   6.031   6.630  -0.898  0.0711  0.5130 -1.6248
  941MOL0     C29763   6.130   6.598  -0.789  0.4821 -0.3172  0.0676
  941MOL0     C29764   6.076   6.602  -0.646 -0.1536 -0.0443  1.2058
  941MOL0    Cl29765   6.219   6.597  -0.559 -0.0853  0.1880 -0.0595
  941MOL0     C29766   5.389   6.467  -1.386  0.5253 -0.0302 -0.1077
  941MOL0     C29767   5.279   6.381  -1.402  0.2735 -0.6454 -0.0642
  941MOL0     O29768   5.004   6.447  -1.575  0.0573  0.4139  0.0427
  941MOL0     C29769   4.781   6.235  -1.383 -0.1358 -0.8333  0.1287
  941MOL0     C29770   4.650   6.186  -1.371  0.9186 -1.3119  0.2716
  941MOL0     N29771   3.957   6.033  -1.111 -0.8110  0.6806 -0.5541
  941MOL0     N29772   3.954   5.963  -1.010  0.6211  0.4090 -0.6394
  941MOL0     C29773   4.026   6.137   0.203 -0.2281  0.3351 -0.0764
  941MOL0     C29774   3.954   6.216   0.292  0.3772  1.0742  0.2697
  941MOL0     C29775   3.603   6.280   0.608 -0.7235 -0.0174  0.1506
  941MOL0     C29776   3.470   6.309   0.600  0.3377 -0.2223  0.2392
  941MOL0     C29777   3.391   6.338   0.712  0.2288  0.3369 -0.1426
  941MOL0     C29778   3.448   6.367   0.836 -0.8536 -0.1980  0.2209
  941MOL0     O29779   3.378   6.396   0.947  0.9095 -0.0205  0.9606
  941MOL0     C29780   3.426   6.451   1.075 -0.4089  0.0957  0.3722
  941MOL0     C29781   3.492   6.589   1.050 -0.3852 -0.4001 -0.0444
  941MOL0     C29782   3.583   6.629   1.169  0.0680  0.2178  0.9920
  941MOL0     C29783   3.665   6.755   1.146  0.0221  0.3039  0.2544
  941MOL0     C29784   3.594   6.882   1.196  0.3012  0.1876  0.5270
  941MOL0     C29785   3.536   6.973   1.242 -0.3796 -0.1987 -0.0651
  941MOL0     C29786   3.588   6.349   0.846 -0.9884 -0.2168 -0.5988
  941MOL0     C29787   3.660   6.303   0.734  0.4505  0.3744 -0.8520
  941MOL0     C29788   3.805   6.253   0.767 -0.5298 -0.0454  0.2656
  941MOL0     H29789   3.843   5.966   0.489  0.5804 -1.3634 -0.8596
  941MOL0     H29790   3.961   5.842   0.351  1.2015 -0.1720 -0.2906
  941MOL0     H29791   4.229   6.001   0.017 -1.7479  4.2564 -1.0781
  941MOL0     H29792   4.064   6.039  -0.024  2.9212  2.7722  0.0308
  941MOL0     H29793   4.224   5.799  -0.110  0.1112 -1.7248 -0.7839
  941MOL0     H29794   4.062   5.764  -0.041  1.0758  0.1817  0.5915
  941MOL0     H29795   4.046   5.781  -0.252 -0.6530  1.0817  0.6801
  941MOL0     H29796   3.975   5.931  -0.219 -1.7469 -3.0588 -2.7489
  941MOL0     H29797   4.206   6.032  -0.292 -0.9323  1.2276 -1.5933
  941MOL0     H29798   4.259   5.867  -0.324 -1.2528 -1.1899  0.3640
  941MOL0     H29799   4.014   5.984  -0.465 -0.4317 -0.6097 -0.6486
  941MOL0     H29800   4.097   5.819  -0.478  4.3763 -2.0876  6.4496
  941MOL0     H29801   4.203   6.102  -0.567  4.2864  0.8165  2.1964
  941MOL0     H29802   4.306   5.958  -0.540 -0.9521 -1.0588  2.1805
  941MOL0     H29803   4.206   5.841  -0.720 -2.4659 -0.0771 -2.0511
  941MOL0     H29804   4.261   6.010  -0.769 -3.9371  0.7709 -2.9053
  941MOL0     H29805   3.979   5.908  -0.729 -2.4502  3.8569  1.2299
  941MOL0     H29806   4.020   6.066  -0.710 -0.6973 -2.4021  2.4749
  941MOL0     H29807   4.198   6.154  -0.929 -1.1456 -1.5090  3.6714
  941MOL0     H29808   4.180   6.280  -1.161 -0.7055 -0.8127  3.4410
  941MOL0     H29809   4.026   6.267  -1.240 -1.1905  0.0083 -1.0266
  941MOL0     H29810   4.114   6.039  -1.341  1.7709 -0.0175  0.0082
  941MOL0     H29811   4.158   6.186  -1.425 -3.0380 -0.1807 -0.0433
  941MOL0     H29812   4.352   6.208  -1.268 -0.2549  1.4152 -0.5596
  941MOL0     H29813   4.322   6.046  -1.203 -0.0425  1.6562 -0.1836
  941MOL0     H29814   4.492   6.003  -1.361  2.1344  0.3741 -4.3377
  941MOL0     H29815   4.338   5.966  -1.448 -1.0203  0.7508  0.7236
  941MOL0     H29816   4.498   6.365  -1.616  1.5083  6.4048  0.0138
  941MOL0     H29817   4.631   6.516  -1.705  0.8711 -1.0306 -1.1292
  941MOL0     H29818   4.780   6.478  -1.760  1.4585  1.4473 -0.2041
  941MOL0     H29819   4.774   6.593  -1.628  2.0309 -0.1300 -1.2968
  941MOL0     H29820   5.052   6.563  -1.236  0.9691  2.8187 -1.5974
  941MOL0     H29821   5.245   6.703  -1.201  5.2693  1.2061  0.2881
  941MOL0     H29822   5.562   6.546  -1.095  3.3306 -2.7380 -0.6980
  941MOL0     H29823   5.628   6.505  -1.241  0.5159  1.0614 -1.1350
  941MOL0     H29824   5.731   6.729  -1.268 -1.7517 -0.3598 -1.2745
  941MOL0     H29825   5.646   6.786  -1.128 -2.8186 -0.6665 -2.2534
  941MOL0     H29826   5.881   6.732  -1.086  1.4634 -0.9598 -1.0951
  941MOL0     H29827   5.861   6.563  -1.125  0.3695  0.0742  1.0587
  941MOL0     H29828   5.687   6.561  -0.926 -2.1144  2.5626 -1.2466
  941MOL0     H29829   5.757   6.730  -0.890  0.5291  0.3531 -1.5725
  941MOL0     H29830   5.866   6.570  -0.754 -0.8764  0.4878 -0.5874
  941MOL0     H29831   5.890   6.456  -0.882 -1.3884 -0.3829  2.0431
  941MOL0     H29832   6.023   6.739  -0.903  2.3246  1.0188  2.2528
  941MOL0     H29833   6.061   6.602  -0.999 -0.3245  0.3678 -1.7068
  941MOL0     H29834   6.204   6.676  -0.806  1.0325 -0.9207 -0.3744
  941MOL0     H29835   6.163   6.494  -0.801 -1.6500 -0.9006 -1.3075
  941MOL0     H29836   6.024   6.514  -0.607 -2.4894 -0.5827 -2.6164
  941MOL0     H29837   6.016   6.692  -0.628  0.9518  0.9613  0.0819
  941MOL0     H29838   5.482   6.432  -1.428 -0.3313 -1.9664 -0.5029
  941MOL0     H29839   5.282   6.295  -1.468  3.4479  0.3076 -1.3381
  941MOL0     H29840   4.857   6.197  -1.316  2.0753  2.7507 -0.0724
  941MOL0     H29841   4.636   6.108  -1.297  1.4881 -1.9072 -0.2368
  941MOL0     H29842   4.073   6.183   0.116  1.3739  1.3182  1.2399
  941MOL0     H29843   3.944   6.324   0.284 -1.6498  0.8053 -1.6531
  941MOL0     H29844   3.418   6.290   0.506  0.0866 -1.0512  0.5329
  941MOL0     H29845   3.282   6.335   0.718  0.1225 -2.9223 -1.7828
  941MOL0     H29846   3.337   6.465   1.137  0.7460 -0.2344  2.1789
  941MOL0     H29847   3.499   6.379   1.113  0.3575 -0.5474 -2.1167
  941MOL0     H29848   3.408   6.656   1.033  0.2638  0.8205  1.3716
  941MOL0     H29849   3.559   6.582   0.963  0.0806 -1.7401  0.3860
  941MOL0     H29850   3.528   6.644   1.262 -1.2543 -1.0765  0.4626
  941MOL0     H29851   3.663   6.554   1.172  1.3888  1.4885 -0.6742
  941MOL0     H29852   3.679   6.757   1.037 -0.6931 -3.6163 -0.0617
  941MOL0     H29853   3.766   6.753   1.187  0.3294 -0.6953 -0.5145
  941MOL0     H29854   3.495   7.061   1.288 -0.4217 -0.2136 -0.0741
  941MOL0     H29855   3.637   6.351   0.943 -0.8803 -0.8759 -0.6346
  941MOL0     H29856   3.840   6.162   0.718  3.3181  0.4315  1.7451
  941MOL0     H29857   3.875   6.328   0.729 -2.5589  1.6905 -0.1630
  941MOL0     H29858   3.825   6.237   0.874 -0.4082  3.1145  0.8223
  942MOL0     O29859   1.821   3.969   8.918 -0.2299  0.2898  0.1734
  942MOL0     C29860   1.876   3.894   9.000  1.0789 -0.1626  0.2145
  942MOL0     O29861   1.838   3.760   9.022 -1.4780 -1.0140 -0.8132
  942MOL0     C29862   1.740   3.707   8.946  0.3105  0.1158  0.7319
  942MOL0     C29863   1.618   3.764   8.905  0.1017  0.4841 -0.1730
  942MOL0     C29864   1.527   3.696   8.825 -0.5611 -0.0368  0.5879
  942MOL0     C29865   1.554   3.562   8.790  0.2889 -0.5913  0.1034
  942MOL0     O29866   1.479   3.503   8.697 -0.5823 -0.2092  0.1600
  942MOL0     C29867   1.550   3.483   8.569 -0.0944  0.0558 -1.2004
  942MOL0     C29868   1.457   3.402   8.478  0.3363 -0.5047 -0.2774
  942MOL0     C29869   1.541   3.358   8.360 -0.2987 -0.1317 -0.2417
  942MOL0     C29870   1.531   3.455   8.243 -0.9447 -0.2922 -0.1640
  942MOL0     C29871   1.660   3.457   8.148  0.2328  0.3019 -0.0922
  942MOL0     C29872   1.615   3.475   8.004 -0.6712 -0.6015 -0.8152
  942MOL0     C29873   1.564   3.618   7.963 -0.8932 -0.5597 -0.3567
  942MOL0     C29874   1.429   3.600   7.883 -0.5561  0.3207 -0.0706
  942MOL0     N29875   1.313   3.559   7.965 -0.4185 -0.3562  0.2308
  942MOL0     C29876   1.263   3.613   8.083  0.5874 -0.2396  1.5466
  942MOL0     C29877   1.165   3.530   8.121  0.0001 -0.0245  0.1348
  942MOL0     C29878   1.070   3.581   8.238  0.2466 -0.1194 -0.2228
  942MOL0     C29879   1.121   3.544   8.368 -1.3385 -0.4130 -0.6675
  942MOL0     C29880   1.019   3.556   8.480 -0.5760  0.1925  0.8191
  942MOL0     C29881   1.108   3.516   8.604 -0.0649 -0.2784  0.5749
  942MOL0     O29882   1.015   3.503   8.718  0.7040 -0.2772  0.2026
  942MOL0     C29883   1.063   3.527   8.836 -1.3945 -0.2813 -0.4663
  942MOL0     C29884   1.190   3.494   8.883 -0.5860  0.6484  0.3129
  942MOL0     C29885   1.244   3.512   9.020  1.3280 -0.2006 -0.3899
  942MOL0     C29886   1.377   3.459   9.052 -0.3490  0.5408  0.2448
  942MOL0     C29887   1.160   3.586   9.109  1.4112  1.0887 -0.4769
  942MOL0     C29888   1.192   3.632   9.244  0.6619 -0.2495  0.6390
  942MOL0     O29889   1.125   3.747   9.289  0.3640  0.0656  0.4457
  942MOL0     C29890   1.150   3.810   9.410 -0.3634 -0.4103 -0.5564
  942MOL0     C29891   1.044   3.861   9.492  0.1488  1.1899 -0.6040
  942MOL0     C29892   1.067   3.934   9.613 -0.1643  0.7128 -0.1601
  942MOL0     C29893   1.199   3.966   9.656  0.5770 -0.0579  0.5096
  942MOL0     O29894   1.224   4.042   9.769 -0.5052 -1.1549  0.0880
  942MOL0     C29895   1.333   4.136   9.742  0.1100 -0.3052 -0.9500
  942MOL0     C29896   1.329   4.247   9.844  1.1637  1.0629  0.3014
  942MOL0     C29897   1.331   4.214   9.994  0.5142  0.9331  0.2183
  942MOL0     C29898   1.429   4.110  10.043 -0.7918  0.0703  0.1485
  942MOL0     C29899   1.467   4.135  10.187  0.2820  0.0951 -0.8591
  942MOL0     C29900   1.338   4.133  10.273 -0.2654 -0.2918  0.4864
  942MOL0     C29901   1.367   4.155  10.425  0.0045 -1.0688  0.3083
  942MOL0     C29902   1.311   4.285  10.457  0.0839  0.3004  1.0386
  942MOL0    Cl29903   1.406   4.420  10.386 -0.2160 -0.2405 -0.9441
  942MOL0     C29904   1.297   3.904   9.580  0.6348 -0.8562  0.7429
  942MOL0     C29905   1.278   3.836   9.458 -0.3042 -1.0080  0.2700
  942MOL0     O29906   1.271   3.565   9.315  0.4488  0.2556  0.7540
  942MOL0     C29907   1.033   3.621   9.060  1.0869 -0.1034 -0.5982
  942MOL0     C29908   0.978   3.578   8.939 -0.6121 -0.0269  0.0945
  942MOL0     N29909   1.163   3.425   8.037 -0.3948  0.4836 -0.4623
  942MOL0     N29910   1.241   3.437   7.941  0.2368  0.0644 -0.8683
  942MOL0     C29911   1.679   3.503   8.823 -0.6095 -0.3005  0.3730
  942MOL0     C29912   1.766   3.573   8.899 -0.3282 -0.6890 -0.7928
  942MOL0     C29913   2.005   3.939   9.067  0.5018 -0.5852 -0.2800
  942MOL0     C29914   2.105   3.845   9.099 -0.1505 -0.4814 -0.5600
  942MOL0     C29915   2.233   3.884   9.151 -0.3688 -0.5768 -0.2565
  942MOL0     C29916   2.263   4.021   9.163 -0.9024  0.3630  0.6033
  942MOL0     O29917   2.398   4.056   9.202 -0.1276 -0.6211 -0.7954
  942MOL0     C29918   2.429   4.197   9.238  0.0227  0.7594  0.0828
  942MOL0     C29919   2.361   4.232   9.369  0.1438 -1.3878  0.6791
  942MOL0     C29920   2.451   4.300   9.468  0.5203  0.3956  0.7264
  942MOL0     C29921   2.396   4.287   9.609  0.3416 -0.6062 -0.1837
  942MOL0     C29922   2.458   4.391   9.693 -1.3890  0.4782  0.3629
  942MOL0     C29923   2.508   4.484   9.749 -1.7173  0.0732 -0.3202
  942MOL0     C29924   2.165   4.117   9.131 -0.4252 -0.7047 -0.3015
  942MOL0     C29925   2.035   4.074   9.099 -0.0525  0.6967  0.0815
  942MOL0     C29926   1.940   4.186   9.069  0.5879  0.2751  1.2665
  942MOL0     H29927   1.584   3.865   8.927  0.7888  0.6783  0.0377
  942MOL0     H29928   1.437   3.747   8.793  1.9736  3.5129 -1.6144
  942MOL0     H29929   1.638   3.421   8.583 -1.0566 -1.0679  0.1544
  942MOL0     H29930   1.574   3.582   8.529  0.4410  0.5349  0.2723
  942MOL0     H29931   1.421   3.309   8.524 -1.6212 -0.7530 -2.1769
  942MOL0     H29932   1.376   3.464   8.440  0.9506 -0.2306 -1.1639
  942MOL0     H29933   1.644   3.329   8.384 -0.4309 -0.2393  0.1925
  942MOL0     H29934   1.495   3.268   8.318  1.6812  0.4718 -4.2029
  942MOL0     H29935   1.439   3.455   8.186 -1.3796  1.6002  0.4482
  942MOL0     H29936   1.522   3.553   8.291 -0.3789 -1.8323  3.4467
  942MOL0     H29937   1.732   3.376   8.162  1.4313  0.3169 -4.6280
  942MOL0     H29938   1.726   3.542   8.168 -1.5224  1.6545  0.1444
  942MOL0     H29939   1.694   3.451   7.932 -0.6741 -2.5366 -0.2231
  942MOL0     H29940   1.542   3.393   8.001 -0.5712 -1.1971  4.3998
  942MOL0     H29941   1.640   3.649   7.891 -0.7966 -0.0801 -0.0491
  942MOL0     H29942   1.560   3.694   8.041  3.1953 -0.5326  0.0517
  942MOL0     H29943   1.406   3.699   7.842 -0.3411 -0.2033 -1.5161
  942MOL0     H29944   1.449   3.530   7.801 -0.5888 -2.0007  1.8047
  942MOL0     H29945   1.305   3.703   8.126 -0.0753  2.0333 -2.1023
  942MOL0     H29946   0.968   3.543   8.224 -0.5893  0.9510  2.4157
  942MOL0     H29947   1.065   3.690   8.238 -1.7796 -0.1546  1.2979
  942MOL0     H29948   1.181   3.453   8.366 -1.6932 -0.6401 -1.1201
  942MOL0     H29949   1.198   3.615   8.400 -0.9481 -1.3935  0.6327
  942MOL0     H29950   0.992   3.662   8.489 -0.9592  0.0189  1.8156
  942MOL0     H29951   0.925   3.500   8.471 -0.1399 -0.7861  2.0354
  942MOL0     H29952   1.137   3.411   8.599 -2.7404 -1.1178  1.1286
  942MOL0     H29953   1.195   3.581   8.616 -0.2522  0.0971 -0.0320
  942MOL0     H29954   1.251   3.445   8.807 -2.3529 -0.4532 -0.4626
  942MOL0     H29955   1.404   3.393   8.969 -1.7932  1.4856 -1.0327
  942MOL0     H29956   1.378   3.394   9.140 -0.6611  1.2236  0.7640
  942MOL0     H29957   1.451   3.539   9.067  1.7357 -1.5537  1.7777
  942MOL0     H29958   0.943   3.846   9.456 -0.8692  1.0212  2.1342
  942MOL0     H29959   0.978   3.965   9.668  0.1674  0.0419  0.7944
  942MOL0     H29960   1.427   4.085   9.762  0.5264 -1.4788 -5.0258
  942MOL0     H29961   1.336   4.182   9.643  2.3825  3.2358  0.5422
  942MOL0     H29962   1.418   4.309   9.835  3.2627 -1.4797  2.0156
  942MOL0     H29963   1.234   4.298   9.828 -1.3345 -2.4572  2.4750
  942MOL0     H29964   1.230   4.181  10.020  1.1759 -1.6058 -0.1188
  942MOL0     H29965   1.346   4.309  10.045 -0.6138  0.4239  1.5616
  942MOL0     H29966   1.518   4.111   9.979  1.8109 -0.1330  3.4654
  942MOL0     H29967   1.396   4.006  10.040  2.4617 -1.3187  3.3900
  942MOL0     H29968   1.519   4.045  10.219 -1.9479 -1.2385 -0.7839
  942MOL0     H29969   1.528   4.226  10.197  0.4546 -0.2702  2.3630
  942MOL0     H29970   1.285   4.037  10.274 -1.2014  0.2074  0.7372
  942MOL0     H29971   1.270   4.210  10.235  2.5174  1.0496 -2.1493
  942MOL0     H29972   1.469   4.139  10.460  0.6336 -0.8300 -1.3205
  942MOL0     H29973   1.296   4.081  10.463 -3.7844  0.6260 -2.7076
  942MOL0     H29974   1.317   4.296  10.566  1.6704  0.0706  0.9904
  942MOL0     H29975   1.212   4.301  10.413  1.4884  2.6076 -1.5701
  942MOL0     H29976   1.399   3.922   9.613 -0.6450  1.9081  3.7171
  942MOL0     H29977   1.363   3.789   9.408  1.2711  0.4954  1.4275
  942MOL0     H29978   0.958   3.677   9.115 -1.5742 -3.7601 -0.1713
  942MOL0     H29979   0.880   3.612   8.906  0.1426  1.2439 -0.9200
  942MOL0     H29980   1.708   3.403   8.792  0.2314 -0.9157  2.8987
  942MOL0     H29981   1.852   3.519   8.937  1.3247  0.7509 -2.2957
  942MOL0     H29982   2.091   3.741   9.071  1.7679 -0.8066 -0.4504
  942MOL0     H29983   2.308   3.806   9.151 -0.0257 -0.2462  0.3261
  942MOL0     H29984   2.537   4.211   9.244 -0.0746  1.0754  1.6628
  942MOL0     H29985   2.396   4.264   9.158 -2.2599 -0.1291  0.2122
  942MOL0     H29986   2.317   4.148   9.423  0.6699  0.0701  3.5273
  942MOL0     H29987   2.277   4.297   9.343  0.9455 -0.7420 -0.4225
  942MOL0     H29988   2.553   4.258   9.467  0.0297 -0.8541  1.1290
  942MOL0     H29989   2.451   4.408   9.450  0.0603  0.5016  1.3293
  942MOL0     H29990   2.417   4.186   9.645 -1.7848 -0.8142  0.5821
  942MOL0     H29991   2.290   4.310   9.617  0.7303  0.9836  0.7369
  942MOL0     H29992   2.546   4.564   9.810  0.9114 -2.0143  1.0116
  942MOL0     H29993   2.192   4.218   9.161  1.7478 -2.0418  2.8183
  942MOL0     H29994   1.962   4.283   9.115 -3.9242 -0.2639  5.4987
  942MOL0     H29995   1.932   4.197   8.961  1.9934  0.9602  1.2089
  942MOL0     H29996   1.844   4.155   9.112 -0.4503  0.0309 -1.0805
  943MOL0     O29997  10.688   6.313   9.785 -0.1088  0.2767 -0.2759
  943MOL0     C29998  10.663   6.330   9.907  0.5115 -0.2059  0.3466
  943MOL0     O29999  10.756   6.334  10.000 -0.5452 -1.1940 -0.4933
  943MOL0     C30000  10.887   6.291   9.977 -0.5197 -0.2410 -0.6520
  943MOL0     C30001  10.921   6.175   9.908  0.0936 -0.7780  0.5377
  943MOL0     C30002  11.055   6.126   9.906  0.2221  0.5328  0.1296
  943MOL0     C30003  11.156   6.202   9.977 -0.6623  0.0844 -0.4459
  943MOL0     O30004  11.284   6.150   9.993  0.5828 -0.1071 -0.8097
  943MOL0     C30005  11.327   6.028   9.928 -0.6600 -0.4027 -0.5763
  943MOL0     C30006  11.469   5.988   9.979 -0.2724  0.6706 -0.2120
  943MOL0     C30007  11.551   5.901   9.878  0.7319 -0.0575  0.0762
  943MOL0     C30008  11.659   5.844   9.947 -0.2718  0.6170  0.1834
  943MOL0     C30009  11.741   5.750   9.854  0.1341 -0.2347 -0.1258
  943MOL0     C30010  11.859   5.676   9.927 -0.2976 -0.8118 -0.3143
  943MOL0     C30011  11.978   5.760   9.963  0.1123  0.3141 -0.1868
  943MOL0     C30012  12.074   5.684  10.036  0.3038 -1.0753 -0.3201
  943MOL0     N30013  12.207   5.751  10.025 -0.5895  0.7695 -0.3754
  943MOL0     C30014  12.257   5.843  10.115  0.8203 -0.3577 -0.4655
  943MOL0     C30015  12.389   5.853  10.082 -0.5841  0.9894  0.5283
  943MOL0     C30016  12.486   5.929  10.159 -0.2041  0.7600 -0.2274
  943MOL0     C30017  12.633   5.944  10.095  0.0876 -0.7414  1.1741
  943MOL0     C30018  12.621   5.988   9.946  0.4240 -0.4345 -0.0306
  943MOL0     C30019  12.704   5.906   9.845  0.2675 -0.9537  0.2638
  943MOL0     O30020  12.697   5.979   9.724 -0.4190 -0.5228 -0.2714
  943MOL0     C30021  12.632   5.922   9.622  0.0010 -0.7760  0.8915
  943MOL0     C30022  12.681   5.951   9.492 -0.2903 -0.5239  0.0594
  943MOL0     C30023  12.604   5.911   9.377  0.4765  0.8201 -0.1189
  943MOL0     C30024  12.651   5.956   9.244 -0.0830  0.1629 -0.6037
  943MOL0     C30025  12.485   5.842   9.390 -1.2323  0.6425  0.2622
  943MOL0     C30026  12.394   5.789   9.284 -0.0913 -0.5216 -1.3516
  943MOL0     O30027  12.438   5.693   9.204 -0.6733  0.1080  0.0209
  943MOL0     C30028  12.363   5.667   9.096  0.2636  0.4787  0.6058
  943MOL0     C30029  12.410   5.685   8.966 -0.1613 -0.7730  0.1001
  943MOL0     C30030  12.332   5.643   8.855  0.0680  0.4259 -0.7242
  943MOL0     C30031  12.203   5.593   8.869  0.1012 -1.3368 -0.2119
  943MOL0     O30032  12.127   5.572   8.757 -0.1908 -0.1360 -0.4027
  943MOL0     C30033  11.982   5.585   8.779 -0.2558  0.3483  0.1484
  943MOL0     C30034  11.904   5.571   8.645 -0.2692 -0.1895  0.4997
  943MOL0     C30035  11.921   5.438   8.571 -0.0573  0.3065 -0.2914
  943MOL0     C30036  11.903   5.306   8.658 -0.6128 -0.3261 -0.2092
  943MOL0     C30037  11.921   5.192   8.557 -0.2929 -0.0028 -0.0737
  943MOL0     C30038  11.981   5.063   8.619  0.1777  0.1116 -0.0967
  943MOL0     C30039  11.974   4.930   8.540 -0.5692 -0.0101 -0.4889
  943MOL0     C30040  11.953   4.804   8.632  0.5917  0.3400  0.7395
  943MOL0    Cl30041  12.086   4.795   8.743  0.4312  0.5708 -0.3658
  943MOL0     C30042  12.158   5.578   8.997  0.8764 -0.2419  0.1448
  943MOL0     C30043  12.234   5.609   9.111  0.9707 -0.2481 -0.1609
  943MOL0     O30044  12.287   5.849   9.271  0.6891 -0.6490 -0.2220
  943MOL0     C30045  12.450   5.807   9.517  0.3824 -0.3676  0.3476
  943MOL0     C30046  12.519   5.841   9.629 -0.7879 -0.3180 -1.4810
  943MOL0     N30047  12.410   5.765   9.980  0.6936  0.0934 -0.0155
  943MOL0     N30048  12.303   5.708   9.935  0.1248 -0.5001  0.1499
  943MOL0     C30049  11.123   6.323  10.046 -0.8471 -0.2524  0.6142
  943MOL0     C30050  10.990   6.363  10.046  0.9336  0.4181  0.0276
  943MOL0     C30051  10.520   6.338   9.938 -0.9415  0.2185 -0.0814
  943MOL0     C30052  10.441   6.409   9.849  0.4073 -0.3900  0.4305
  943MOL0     C30053  10.295   6.403   9.858 -0.5737 -1.2129  0.9724
  943MOL0     C30054  10.239   6.330   9.961 -0.6676  0.7106 -0.0485
  943MOL0     O30055  10.098   6.333   9.969 -0.2057  0.2564  0.1324
  943MOL0     C30056  10.033   6.208  10.001 -0.2471 -0.2673  0.1532
  943MOL0     C30057   9.940   6.152   9.876  0.0894 -0.0393 -0.2016
  943MOL0     C30058   9.811   6.237   9.882 -0.5685 -0.8828  1.8129
  943MOL0     C30059   9.689   6.183   9.810 -0.5438  0.0845 -0.2728
  943MOL0     C30060   9.585   6.280   9.796 -1.0001 -0.4415  0.4097
  943MOL0     C30061   9.509   6.369   9.763  0.1844 -0.1279 -1.0152
  943MOL0     C30062  10.322   6.261  10.054  0.3985  0.7798 -0.1349
  943MOL0     C30063  10.459   6.256  10.043  0.2914 -0.1182  0.8546
  943MOL0     C30064  10.540   6.173  10.136  0.3918 -0.5989  0.3557
  943MOL0     H30065  10.857   6.134   9.831  1.0868  0.8599 -1.2925
  943MOL0     H30066  11.085   6.036   9.853  0.8326  0.9894 -0.3185
  943MOL0     H30067  11.333   6.059   9.823  2.5692 -1.1875 -0.7193
  943MOL0     H30068  11.250   5.951   9.942 -1.8396  0.7300 -0.5827
  943MOL0     H30069  11.537   6.070  10.007  1.8583 -0.4481 -1.8728
  943MOL0     H30070  11.459   5.925  10.068  0.9062  0.5517 -0.1394
  943MOL0     H30071  11.483   5.827   9.835  1.9229 -1.0464 -0.1552
  943MOL0     H30072  11.587   5.960   9.793  1.0704  2.3686  1.7970
  943MOL0     H30073  11.719   5.930   9.977  0.0149  0.4792  0.0135
  943MOL0     H30074  11.633   5.786  10.036  1.2953 -0.5323 -0.0497
  943MOL0     H30075  11.789   5.810   9.776 -0.4686 -0.6202 -0.8005
  943MOL0     H30076  11.676   5.676   9.807 -0.7317 -0.2679  1.0909
  943MOL0     H30077  11.817   5.619  10.010  1.5624 -1.2835  0.3412
  943MOL0     H30078  11.911   5.607   9.860  1.4910 -0.4346  0.6273
  943MOL0     H30079  11.948   5.849  10.018  0.6211  1.1668 -1.2580
  943MOL0     H30080  12.021   5.797   9.870  0.9406  0.3590  0.2020
  943MOL0     H30081  12.043   5.700  10.139 -0.1033 -0.0826 -0.5870
  943MOL0     H30082  12.071   5.584   9.990  1.9298  0.4618 -4.1686
  943MOL0     H30083  12.206   5.892  10.197 -1.0219  0.0486 -1.8089
  943MOL0     H30084  12.498   5.887  10.259 -1.2862  0.2066 -0.3143
  943MOL0     H30085  12.449   6.030  10.181  1.8469  1.0746  2.2110
  943MOL0     H30086  12.684   6.027  10.145 -1.0990  3.1486 -3.3529
  943MOL0     H30087  12.682   5.846  10.108 -0.0820 -1.1703 -1.0288
  943MOL0     H30088  12.519   5.988   9.907  0.6543  0.9873 -0.7086
  943MOL0     H30089  12.667   6.087   9.936 -0.2945 -0.2254 -1.5087
  943MOL0     H30090  12.803   5.892   9.888 -0.6259 -1.8381  2.1997
  943MOL0     H30091  12.649   5.812   9.833  0.7527 -1.5488  2.3413
  943MOL0     H30092  12.766   6.017   9.474 -1.8233  1.1940 -1.3581
  943MOL0     H30093  12.606   6.055   9.243 -2.3199 -0.7565  0.7157
  943MOL0     H30094  12.627   5.891   9.159  4.3149  1.6607 -3.3348
  943MOL0     H30095  12.759   5.973   9.241  0.5311 -3.0943 -0.7626
  943MOL0     H30096  12.512   5.718   8.948 -0.2097  0.0240  1.1750
  943MOL0     H30097  12.384   5.641   8.759  2.7719 -1.7423  0.6412
  943MOL0     H30098  11.942   5.504   8.842 -0.0451 -2.2348 -2.8020
  943MOL0     H30099  11.961   5.685   8.818  1.0181  0.6596  0.0633
  943MOL0     H30100  11.800   5.598   8.663 -0.6750 -2.4824  2.1101
  943MOL0     H30101  11.933   5.646   8.572 -0.6803  0.7692  1.2973
  943MOL0     H30102  12.029   5.436   8.551 -0.2532 -1.1814 -1.3437
  943MOL0     H30103  11.856   5.440   8.483 -1.7727  0.2627  0.9245
  943MOL0     H30104  11.814   5.303   8.722  0.2034 -0.8162  0.9254
  943MOL0     H30105  11.986   5.303   8.728 -1.6404 -0.0407  1.0653
  943MOL0     H30106  11.830   5.171   8.500  0.1077 -0.0134 -0.7189
  943MOL0     H30107  11.991   5.220   8.478 -0.1059 -3.2172 -1.1910
  943MOL0     H30108  11.920   5.055   8.710 -0.9456  1.2563 -0.7128
  943MOL0     H30109  12.074   5.076   8.675 -0.8849  3.3160  1.1599
  943MOL0     H30110  12.075   4.913   8.502  0.6136  1.1396  1.9293
  943MOL0     H30111  11.902   4.937   8.458 -0.2433 -2.3290 -1.0413
  943MOL0     H30112  11.952   4.712   8.573  2.8043 -2.3485  4.4718
  943MOL0     H30113  11.861   4.809   8.692  1.2502 -1.1925  1.9325
  943MOL0     H30114  12.063   5.526   9.007  1.1046 -0.5457  0.7672
  943MOL0     H30115  12.195   5.605   9.213 -0.5557  4.4410 -0.3330
  943MOL0     H30116  12.355   5.756   9.527 -1.2588  1.6139 -3.0749
  943MOL0     H30117  12.464   5.815   9.719 -0.1495  0.7230 -0.7719
  943MOL0     H30118  11.197   6.384  10.097  1.1018  0.7451 -3.0430
  943MOL0     H30119  10.955   6.452  10.096  2.5673  0.5117  1.0508
  943MOL0     H30120  10.490   6.449   9.761 -1.5435  1.7367  0.1971
  943MOL0     H30121  10.237   6.459   9.785  2.0287  0.7476  0.2468
  943MOL0     H30122  10.094   6.128  10.044 -0.1305 -0.4039 -0.2607
  943MOL0     H30123   9.963   6.222  10.084 -0.6695 -2.9628  0.3648
  943MOL0     H30124   9.917   6.045   9.888  0.2575 -0.0089  0.4111
  943MOL0     H30125   9.991   6.173   9.782 -1.9589  1.0626 -1.1473
  943MOL0     H30126   9.772   6.248   9.983 -0.9461 -0.9533  1.6771
  943MOL0     H30127   9.841   6.335   9.844 -1.2938 -1.5289 -0.6220
  943MOL0     H30128   9.650   6.101   9.870 -0.3154 -1.3347 -1.9753
  943MOL0     H30129   9.716   6.149   9.710 -0.3784  0.6756 -0.4388
  943MOL0     H30130   9.424   6.433   9.751  0.3796  0.9620  2.3166
  943MOL0     H30131  10.274   6.205  10.134 -1.6775  1.0731 -1.1010
  943MOL0     H30132  10.570   6.239  10.218 -2.0994 -0.2715  1.0911
  943MOL0     H30133  10.479   6.092  10.176  0.1995 -0.7019 -0.1321
  943MOL0     H30134  10.630   6.132  10.089 -0.8718 -0.9250 -1.9446
  944MOL0     O30135   6.332   3.803  10.388  0.2445  0.3668 -0.6666
  944MOL0     C30136   6.210   3.799  10.376  0.0741 -0.1361 -0.0352
  944MOL0     O30137   6.132   3.895  10.319  0.2286  0.5357  0.7066
  944MOL0     C30138   6.178   4.024  10.307 -0.9316 -0.3242 -0.7368
  944MOL0     C30139   6.287   4.051  10.219  0.2803  0.1181 -0.7382
  944MOL0     C30140   6.317   4.186  10.193 -0.4093 -0.3511 -0.4202
  944MOL0     C30141   6.257   4.291  10.255 -0.2584 -0.2305  0.2732
  944MOL0     O30142   6.282   4.419  10.215 -0.6241 -0.5694 -0.0511
  944MOL0     C30143   6.420   4.468  10.229  0.3968 -0.3873  0.2570
  944MOL0     C30144   6.423   4.629  10.223 -0.0173  0.4526  0.4757
  944MOL0     C30145   6.566   4.676  10.241 -0.4907  0.2104 -0.5100
  944MOL0     C30146   6.564   4.831  10.275  0.1538  0.4730 -0.3245
  944MOL0     C30147   6.708   4.888  10.267  0.2235 -0.4322  0.2160
  944MOL0     C30148   6.703   5.028  10.211 -0.9971  0.3299  0.4661
  944MOL0     C30149   6.854   5.081  10.189  0.4246  0.0860  0.5701
  944MOL0     C30150   6.961   5.028  10.283  0.8750 -0.6628  0.9679
  944MOL0     N30151   7.082   5.109  10.279  0.6372  0.1525 -0.4829
  944MOL0     C30152   7.209   5.066  10.303  0.5330  0.4760  0.5552
  944MOL0     C30153   7.296   5.171  10.293 -0.0811  0.5062  0.1879
  944MOL0     C30154   7.447   5.159  10.294  1.1871 -0.5841 -0.0005
  944MOL0     C30155   7.505   5.138  10.154 -0.5003  0.3280 -0.0557
  944MOL0     C30156   7.633   5.067  10.168  0.1424 -0.3553  0.3624
  944MOL0     C30157   7.600   4.916  10.165  0.1180 -0.4874  0.5840
  944MOL0     O30158   7.722   4.846  10.202  0.2892  0.5196  0.5129
  944MOL0     C30159   7.703   4.709  10.186 -0.8944 -0.3218  0.0291
  944MOL0     C30160   7.804   4.632  10.127  0.2738 -1.1881  0.5167
  944MOL0     C30161   7.799   4.496  10.116 -0.6935  0.3133 -1.2778
  944MOL0     C30162   7.908   4.427  10.037 -0.0035  0.3758  0.1840
  944MOL0     C30163   7.690   4.425  10.173 -0.0211  1.0447  0.5290
  944MOL0     C30164   7.671   4.279  10.161  0.2492 -0.5996  0.1980
  944MOL0     O30165   7.535   4.235  10.160  0.0143  0.4850  0.4199
  944MOL0     C30166   7.485   4.111  10.167  0.1003 -0.5368  0.4043
  944MOL0     C30167   7.359   4.098  10.226 -0.4224  0.2955  0.4019
  944MOL0     C30168   7.309   3.967  10.236 -0.4225  0.9449 -0.9825
  944MOL0     C30169   7.386   3.857  10.201  0.9007  0.6620  0.0118
  944MOL0     O30170   7.340   3.725  10.227  0.5807  0.3590  0.5280
  944MOL0     C30171   7.438   3.627  10.220 -1.3462  0.2716  0.9467
  944MOL0     C30172   7.389   3.520  10.317 -0.1009 -0.1573 -0.0900
  944MOL0     C30173   7.269   3.449  10.266 -0.2198 -0.2420  0.4273
  944MOL0     C30174   7.207   3.368  10.372  0.7052  0.4036  1.5256
  944MOL0     C30175   7.138   3.447  10.478  0.9257 -0.1719  0.3870
  944MOL0     C30176   7.010   3.517  10.427 -0.3901 -0.5244  0.2317
  944MOL0     C30177   6.936   3.565  10.547  0.6224 -0.6232  0.1649
  944MOL0     C30178   6.825   3.653  10.502 -0.0490 -0.5313  0.1941
  944MOL0    Cl30179   6.751   3.735  10.647 -0.1640 -0.0659 -0.0805
  944MOL0     C30180   7.508   3.878  10.142  0.0228 -0.4964 -0.4868
  944MOL0     C30181   7.549   4.005  10.113  0.2468  0.0605  0.5143
  944MOL0     O30182   7.768   4.201  10.152  0.2941 -1.0758  0.1411
  944MOL0     C30183   7.584   4.502  10.233 -0.5950  0.3398  1.0517
  944MOL0     C30184   7.595   4.644  10.238  0.3163  0.7757 -0.1091
  944MOL0     N30185   7.222   5.272  10.253 -0.1366  0.2053  0.5225
  944MOL0     N30186   7.094   5.243  10.258  0.1811 -0.6003 -0.1984
  944MOL0     C30187   6.151   4.262  10.351 -0.1813 -0.0744 -0.4633
  944MOL0     C30188   6.117   4.130  10.370 -0.1323 -0.1730 -0.7730
  944MOL0     C30189   6.140   3.687  10.436  1.0472 -0.5380 -0.6029
  944MOL0     C30190   6.006   3.673  10.406 -0.2775  0.0282  0.1077
  944MOL0     C30191   5.925   3.573  10.467  0.1765  0.0225  0.5937
  944MOL0     C30192   5.984   3.479  10.544  1.0187  0.6056 -0.7083
  944MOL0     O30193   5.916   3.373  10.616 -0.3890 -0.5029  0.0790
  944MOL0     C30194   5.779   3.389  10.662  0.0011  0.9041 -0.3087
  944MOL0     C30195   5.668   3.327  10.575  0.2005  0.4967  0.7504
  944MOL0     C30196   5.691   3.177  10.540  0.1746 -0.4979 -0.3015
  944MOL0     C30197   5.578   3.117  10.459  0.3869  0.5084  0.6627
  944MOL0     C30198   5.444   3.117  10.520 -0.9510  0.5272  0.1477
  944MOL0     C30199   5.331   3.124  10.565 -0.2465  0.2696 -0.2667
  944MOL0     C30200   6.123   3.480  10.569  0.7683  0.2970 -0.5945
  944MOL0     C30201   6.208   3.580  10.513  0.9965 -0.5513  0.2070
  944MOL0     C30202   6.356   3.574  10.538  0.6677 -0.2015  0.0230
  944MOL0     H30203   6.321   3.971  10.154  0.4604 -0.5301  0.1253
  944MOL0     H30204   6.403   4.204  10.129  0.2395  1.4672  0.8871
  944MOL0     H30205   6.474   4.427  10.143 -1.2828  1.0172 -1.5562
  944MOL0     H30206   6.461   4.444  10.327 -1.0761 -0.9404  0.7700
  944MOL0     H30207   6.368   4.669  10.137 -2.2204  3.2930  3.0115
  944MOL0     H30208   6.363   4.671  10.304  1.6778  0.5454  1.7119
  944MOL0     H30209   6.601   4.632  10.335  1.3018  2.0473 -0.2281
  944MOL0     H30210   6.623   4.639  10.156  1.8429 -1.5782  1.6922
  944MOL0     H30211   6.491   4.880  10.211 -0.6173  3.0556  2.2937
  944MOL0     H30212   6.531   4.856  10.376  3.8314  2.5121  0.5834
  944MOL0     H30213   6.774   4.826  10.206  4.8912  3.2812  0.9271
  944MOL0     H30214   6.765   4.881  10.360  3.0312 -3.3483 -1.5544
  944MOL0     H30215   6.643   5.015  10.121  0.4883 -3.9364 -0.1560
  944MOL0     H30216   6.638   5.085  10.278 -1.4004  2.7891 -1.8365
  944MOL0     H30217   6.848   5.190  10.190  2.6713  0.2662  1.4041
  944MOL0     H30218   6.881   5.066  10.084 -1.6372  1.8160 -0.2821
  944MOL0     H30219   6.913   5.030  10.382  0.2384 -0.0412  0.6569
  944MOL0     H30220   6.993   4.931  10.243  4.6573  1.0114 -0.5814
  944MOL0     H30221   7.242   4.964  10.316 -1.9034 -0.6044 -0.9482
  944MOL0     H30222   7.471   5.078  10.363  0.5518 -1.2576 -0.5472
  944MOL0     H30223   7.492   5.252  10.330  0.4383 -1.2622  2.9192
  944MOL0     H30224   7.433   5.070  10.106 -0.3188  0.2835 -0.2660
  944MOL0     H30225   7.516   5.235  10.106  0.1414 -0.1000 -0.7994
  944MOL0     H30226   7.693   5.082  10.078 -0.8012 -0.3574 -0.2899
  944MOL0     H30227   7.681   5.098  10.261 -1.0717  1.6648  0.3885
  944MOL0     H30228   7.520   4.898  10.237  0.6237  2.3065  2.0055
  944MOL0     H30229   7.576   4.893  10.061  3.8481 -2.3338 -0.0333
  944MOL0     H30230   7.883   4.687  10.076  0.3308  1.3391  3.0618
  944MOL0     H30231   7.877   4.372   9.947  1.4070 -1.4917  0.7698
  944MOL0     H30232   7.951   4.339  10.086 -0.9961 -0.1858  0.0927
  944MOL0     H30233   7.991   4.490  10.006  0.7678 -0.7943 -0.1958
  944MOL0     H30234   7.313   4.184  10.273 -0.6927  2.4184 -3.2976
  944MOL0     H30235   7.212   3.945  10.278 -0.0779 -0.8305 -1.0563
  944MOL0     H30236   7.451   3.581  10.121 -1.3206  1.3774  0.4211
  944MOL0     H30237   7.537   3.660  10.254  0.4413  0.3965 -3.6352
  944MOL0     H30238   7.471   3.448  10.330  1.1383  0.3891 -3.7017
  944MOL0     H30239   7.370   3.570  10.412  0.5439  3.4160 -1.6816
  944MOL0     H30240   7.306   3.387  10.184 -1.0745  3.2501 -2.9110
  944MOL0     H30241   7.198   3.520  10.223  0.2161 -0.2746 -0.3770
  944MOL0     H30242   7.288   3.301  10.402  0.7490  0.1828  0.9292
  944MOL0     H30243   7.130   3.299  10.337  1.2977  0.7752 -0.6416
  944MOL0     H30244   7.112   3.371  10.553  2.2046  0.3415  1.4014
  944MOL0     H30245   7.201   3.512  10.539 -0.2180  0.1585  1.2484
  944MOL0     H30246   6.945   3.440  10.385 -2.3654 -0.5865  3.0582
  944MOL0     H30247   7.033   3.597  10.357  4.5905 -2.4545 -0.7154
  944MOL0     H30248   6.998   3.629  10.610 -0.4854  1.1907 -0.4983
  944MOL0     H30249   6.898   3.482  10.607  0.3412  0.1174  1.0352
  944MOL0     H30250   6.758   3.588  10.445  1.6464 -1.4645 -0.8206
  944MOL0     H30251   6.854   3.729  10.429  0.1952  1.1817  2.0100
  944MOL0     H30252   7.567   3.797  10.100  0.7244  1.1953 -2.9748
  944MOL0     H30253   7.632   4.008  10.042  1.0807  1.1738  1.5048
  944MOL0     H30254   7.503   4.449  10.281  0.9491  0.2190  3.6915
  944MOL0     H30255   7.520   4.703  10.290 -1.1379 -0.0643 -1.1836
  944MOL0     H30256   6.106   4.351  10.394 -1.1916 -1.1849  0.8336
  944MOL0     H30257   6.043   4.115  10.448  1.3359 -3.5081  0.1481
  944MOL0     H30258   5.962   3.750  10.344 -0.5816  0.6063  1.0065
  944MOL0     H30259   5.818   3.567  10.454 -0.1947  3.0540  1.5878
  944MOL0     H30260   5.766   3.335  10.757 -1.8429 -0.0873 -1.0790
  944MOL0     H30261   5.756   3.496  10.667 -0.1905  0.8378  0.5011
  944MOL0     H30262   5.659   3.389  10.485  1.0556 -1.7325 -0.9438
  944MOL0     H30263   5.568   3.341  10.618 -0.6585 -2.3364 -0.1428
  944MOL0     H30264   5.778   3.169  10.473 -0.1324 -1.5882 -0.5843
  944MOL0     H30265   5.712   3.116  10.628  0.7800 -2.0984 -1.4873
  944MOL0     H30266   5.600   3.010  10.450 -1.3708  0.0737  1.1322
  944MOL0     H30267   5.570   3.174  10.366 -2.3294  1.5807  1.4728
  944MOL0     H30268   5.228   3.121  10.595  0.4428  0.5001  2.3965
  944MOL0     H30269   6.169   3.407  10.634  3.0052 -0.3464 -2.7321
  944MOL0     H30270   6.392   3.658  10.599 -1.4739  0.4162  0.5017
  944MOL0     H30271   6.384   3.483  10.592 -0.1623 -1.1229 -1.0652
  944MOL0     H30272   6.417   3.577  10.447 -0.1763 -1.6807 -0.6170
  945MOL0     O30273   6.446  10.018   3.146  0.1381 -0.1306 -0.8465
  945MOL0     C30274   6.413  10.136   3.153 -0.2143  0.4786 -0.4534
  945MOL0     O30275   6.325  10.197   3.064  0.6985  0.2658  0.3728
  945MOL0     C30276   6.269  10.130   2.954  0.3696  0.4522 -0.5228
  945MOL0     C30277   6.290  10.160   2.825 -0.2290  0.0253  0.1324
  945MOL0     C30278   6.218  10.093   2.728  0.1533  0.1149  0.1302
  945MOL0     C30279   6.133   9.984   2.757  0.9696  0.2809  0.2569
  945MOL0     O30280   6.073   9.921   2.650 -0.8929  0.4703 -0.9364
  945MOL0     C30281   5.931   9.878   2.652 -1.0322  0.2616 -0.3646
  945MOL0     C30282   5.840   9.999   2.656  0.2695 -0.3154 -0.3454
  945MOL0     C30283   5.814  10.063   2.517  0.1443 -1.1265 -0.0628
  945MOL0     C30284   5.735  10.194   2.509 -0.2540 -0.7035  0.9869
  945MOL0     C30285   5.675  10.221   2.372  1.2743 -0.2686 -0.2355
  945MOL0     C30286   5.544  10.291   2.382  0.3830 -0.3490 -0.3834
  945MOL0     C30287   5.422  10.194   2.392 -0.3765 -0.1733 -0.4478
  945MOL0     C30288   5.287  10.260   2.385 -0.3861 -0.9167 -0.7839
  945MOL0     N30289   5.244  10.340   2.506  0.9571  0.1417  0.2710
  945MOL0     C30290   5.188  10.461   2.502  0.8182  0.1759  0.0416
  945MOL0     C30291   5.209  10.511   2.627 -0.0987  0.8726  0.2510
  945MOL0     C30292   5.160  10.640   2.686  0.3059  0.2025 -0.2478
  945MOL0     C30293   5.205  10.760   2.594 -0.2756 -0.5229  0.2706
  945MOL0     C30294   5.185  10.901   2.656  0.3823 -0.4354 -0.4449
  945MOL0     C30295   5.039  10.925   2.669  1.0118 -0.7782  0.0186
  945MOL0     O30296   4.954  10.885   2.557 -0.0828 -0.5327 -0.2636
  945MOL0     C30297   4.845  10.965   2.535  0.0653  0.2601  0.5186
  945MOL0     C30298   4.762  10.990   2.642 -0.2610 -0.8007 -0.0228
  945MOL0     C30299   4.636  11.045   2.627  0.9279  0.0351 -0.2229
  945MOL0     C30300   4.560  11.080   2.757 -0.8818  0.9991 -0.9911
  945MOL0     C30301   4.589  11.077   2.500 -0.2083 -0.1477 -0.3867
  945MOL0     C30302   4.447  11.122   2.474 -0.4121 -1.0054  0.2713
  945MOL0     O30303   4.418  11.199   2.359 -0.1114 -0.2382 -0.2877
  945MOL0     C30304   4.290  11.256   2.334  0.4274  0.0362 -0.3965
  945MOL0     C30305   4.193  11.303   2.424  0.3218  0.2160  0.2776
  945MOL0     C30306   4.073  11.368   2.399  0.8089 -1.0963 -0.1068
  945MOL0     C30307   4.036  11.378   2.261  0.1964  0.4202 -0.3910
  945MOL0     O30308   3.910  11.425   2.223  0.3872  0.8374 -0.9179
  945MOL0     C30309   3.830  11.493   2.321 -0.0275  0.2112  0.2244
  945MOL0     C30310   3.708  11.573   2.263 -0.6110  0.7596 -0.9596
  945MOL0     C30311   3.754  11.695   2.203 -1.1478 -0.2185  0.7887
  945MOL0     C30312   3.658  11.738   2.089  0.5185 -0.0687 -0.0149
  945MOL0     C30313   3.651  11.897   2.098  0.3193  0.0308 -0.0491
  945MOL0     C30314   3.584  11.950   1.969 -0.3659 -0.8421 -0.7186
  945MOL0     C30315   3.531  12.087   1.955 -0.8611  0.6837  0.1289
  945MOL0     C30316   3.424  12.124   2.058 -0.0653 -0.3691 -0.3594
  945MOL0    Cl30317   3.246  12.076   2.014  0.0429 -0.4012  0.3747
  945MOL0     C30318   4.121  11.323   2.170  0.2292  0.9244  0.3260
  945MOL0     C30319   4.252  11.270   2.204 -0.4924  0.4037 -0.0383
  945MOL0     O30320   4.362  11.076   2.547  0.5642  0.5316 -0.1066
  945MOL0     C30321   4.677  11.052   2.389  0.4567 -0.9365  0.3576
  945MOL0     C30322   4.799  10.990   2.411 -0.1778  0.4395  0.5153
  945MOL0     N30323   5.281  10.422   2.702  0.8541  0.4109 -0.1037
  945MOL0     N30324   5.316  10.326   2.626 -0.1542 -0.1146 -0.2867
  945MOL0     C30325   6.129   9.945   2.893  0.5163 -0.4287  0.6660
  945MOL0     C30326   6.186  10.019   2.989  0.1892  0.8917 -0.1513
  945MOL0     C30327   6.462  10.224   3.263 -0.5027  1.2152  0.9151
  945MOL0     C30328   6.391  10.341   3.289  0.3464  0.0452 -0.0302
  945MOL0     C30329   6.428  10.429   3.383  0.3105 -0.0894 -1.0840
  945MOL0     C30330   6.543  10.411   3.466  0.2601 -0.4215  0.1100
  945MOL0     O30331   6.572  10.513   3.553 -0.3960  0.1920 -0.7324
  945MOL0     C30332   6.667  10.506   3.662 -0.2186  0.6668 -0.4715
  945MOL0     C30333   6.612  10.445   3.794 -0.1591 -0.1396  0.9362
  945MOL0     C30334   6.573  10.292   3.779  0.0518 -0.5358  0.5055
  945MOL0     C30335   6.532  10.225   3.907 -0.2728 -0.2221 -0.4502
  945MOL0     C30336   6.400  10.268   3.957  0.3810  1.2794  0.2657
  945MOL0     C30337   6.287  10.301   3.987  0.7667  0.4696 -0.4354
  945MOL0     C30338   6.621  10.298   3.437 -0.0702 -0.0484  1.2903
  945MOL0     C30339   6.586  10.200   3.344 -0.3327  0.0733  1.0177
  945MOL0     C30340   6.661  10.065   3.345  0.2585  0.0797 -0.1180
  945MOL0     H30341   6.352  10.247   2.803  0.3221  0.1376  1.9472
  945MOL0     H30342   6.215  10.130   2.625  0.5166 -1.7405 -0.5846
  945MOL0     H30343   5.909   9.815   2.738 -1.4857 -1.4958 -1.7110
  945MOL0     H30344   5.899   9.825   2.562 -0.9403  0.5271 -0.5569
  945MOL0     H30345   5.740   9.976   2.694  0.6993  0.6007  1.4551
  945MOL0     H30346   5.888  10.072   2.722  0.6960 -2.0658  1.3764
  945MOL0     H30347   5.913  10.087   2.478  0.2036 -1.3246 -0.0352
  945MOL0     H30348   5.760   9.986   2.461 -3.8589  1.2169  0.2227
  945MOL0     H30349   5.657  10.182   2.585 -0.6507  1.1850  0.9378
  945MOL0     H30350   5.800  10.276   2.542 -1.1173 -0.3971  2.0020
  945MOL0     H30351   5.662  10.126   2.319  2.2474 -1.9397  2.3355
  945MOL0     H30352   5.740  10.275   2.302  1.9088  3.3850  2.8216
  945MOL0     H30353   5.545  10.347   2.475  0.6501 -1.3088  0.2105
  945MOL0     H30354   5.533  10.350   2.291 -0.6799 -1.1287 -0.7800
  945MOL0     H30355   5.427  10.142   2.488 -2.7161  0.2329 -0.0387
  945MOL0     H30356   5.409  10.116   2.317 -4.1582 -1.6640  1.5032
  945MOL0     H30357   5.287  10.322   2.295  1.4994  0.7156  0.2500
  945MOL0     H30358   5.216  10.178   2.372  0.6262 -1.8522 -0.5703
  945MOL0     H30359   5.136  10.519   2.428  0.6044  1.6036  1.2644
  945MOL0     H30360   5.212  10.642   2.782  0.4216  2.7261 -0.2781
  945MOL0     H30361   5.051  10.638   2.696  0.4402 -0.2699  1.3365
  945MOL0     H30362   5.313  10.743   2.594 -0.1560  0.2316  0.0488
  945MOL0     H30363   5.166  10.753   2.492 -1.8544  2.3180  0.5927
  945MOL0     H30364   5.232  10.904   2.755  0.7022  0.7035 -0.6159
  945MOL0     H30365   5.234  10.977   2.595 -0.3472  1.1749  0.9088
  945MOL0     H30366   5.001  10.876   2.758  1.8954  2.7468  2.5595
  945MOL0     H30367   5.027  11.030   2.697  0.2552 -1.2685  1.6339
  945MOL0     H30368   4.789  10.973   2.745 -0.6778 -1.3917 -0.0080
  945MOL0     H30369   4.467  11.025   2.769 -0.8250  0.9092 -0.9596
  945MOL0     H30370   4.527  11.184   2.749 -2.8340  0.4686 -0.2201
  945MOL0     H30371   4.615  11.060   2.849 -3.2722  1.6381  0.6349
  945MOL0     H30372   4.218  11.286   2.528 -0.5469 -0.2833  0.4061
  945MOL0     H30373   4.018  11.394   2.489 -0.3156  1.6969 -1.5052
  945MOL0     H30374   3.780  11.426   2.391  0.7146 -2.1368 -1.3559
  945MOL0     H30375   3.890  11.566   2.376 -0.3649  0.6734 -0.0064
  945MOL0     H30376   3.666  11.501   2.192 -0.2476 -0.7143  0.2715
  945MOL0     H30377   3.642  11.582   2.349  1.5965 -0.0718  0.9167
  945MOL0     H30378   3.849  11.672   2.154 -0.1286 -0.2890  2.7295
  945MOL0     H30379   3.768  11.773   2.278  0.4680  0.7067 -0.4282
  945MOL0     H30380   3.560  11.689   2.084  0.0411  0.6821  1.5001
  945MOL0     H30381   3.707  11.704   1.997 -0.6373  0.9326 -1.0264
  945MOL0     H30382   3.598  11.929   2.188 -0.5145 -1.9541  0.2185
  945MOL0     H30383   3.751  11.940   2.098 -0.5038  2.6399 -4.6872
  945MOL0     H30384   3.506  11.877   1.944 -0.8802 -0.2608 -0.8524
  945MOL0     H30385   3.660  11.941   1.891  0.9323 -1.4285  0.5628
  945MOL0     H30386   3.480  12.094   1.859 -1.3784 -2.4373  0.0723
  945MOL0     H30387   3.613  12.158   1.971 -1.8804  2.1179 -0.7913
  945MOL0     H30388   3.431  12.231   2.081  3.4808 -0.7229  0.9114
  945MOL0     H30389   3.447  12.061   2.145 -1.3688 -1.3419 -0.6858
  945MOL0     H30390   4.093  11.313   2.065  1.2045 -0.2575  0.1640
  945MOL0     H30391   4.318  11.217   2.136 -0.1560 -0.1931  0.7373
  945MOL0     H30392   4.657  11.089   2.289  1.9329  3.9934  1.6231
  945MOL0     H30393   4.858  10.961   2.325 -1.1476 -2.5282  0.7194
  945MOL0     H30394   6.079   9.859   2.936  0.6516 -1.4120 -1.0581
  945MOL0     H30395   6.182  10.002   3.096 -0.7853  1.9689  0.0005
  945MOL0     H30396   6.300  10.366   3.236 -0.1226  2.2051  1.6485
  945MOL0     H30397   6.366  10.516   3.398 -1.6703 -1.4992 -0.6527
  945MOL0     H30398   6.752  10.451   3.620 -0.6955  1.1639 -2.1554
  945MOL0     H30399   6.697  10.608   3.686  1.1505  0.0682  0.5393
  945MOL0     H30400   6.521  10.497   3.823 -2.1617 -3.3637  0.9126
  945MOL0     H30401   6.687  10.453   3.873  1.0506  0.1083 -0.1941
  945MOL0     H30402   6.502  10.300   3.696  0.6784  0.0908  0.0215
  945MOL0     H30403   6.665  10.241   3.749  1.3290  0.5442  2.3937
  945MOL0     H30404   6.618  10.234   3.974  3.9878 -0.9344 -5.2008
  945MOL0     H30405   6.516  10.119   3.886  1.6825 -0.9479  1.3754
  945MOL0     H30406   6.191  10.336   4.018  1.0748 -0.5166  1.8550
  945MOL0     H30407   6.703  10.276   3.505  1.3465  1.0767  0.0138
  945MOL0     H30408   6.700  10.037   3.246  1.5113 -3.9556  1.2861
  945MOL0     H30409   6.741  10.081   3.418  0.2096 -0.7276  0.1257
  945MOL0     H30410   6.593   9.984   3.370  0.1981 -0.0443 -0.6634
  946MOL0     O30411   0.171   8.917   6.380 -0.0007 -0.3223  0.5217
  946MOL0     C30412   0.126   8.911   6.267 -0.2673  0.5165 -0.4049
  946MOL0     O30413   0.147   8.806   6.178  0.5031  0.6054 -0.4103
  946MOL0     C30414   0.212   8.695   6.223 -1.2103 -0.1212  0.4236
  946MOL0     C30415   0.344   8.686   6.202 -0.1986  0.1769  0.5700
  946MOL0     C30416   0.417   8.581   6.258 -0.6376 -0.3892 -0.4012
  946MOL0     C30417   0.353   8.486   6.337 -0.4693  0.6363 -0.5860
  946MOL0     O30418   0.433   8.381   6.383  0.0415 -0.2094 -0.3350
  946MOL0     C30419   0.525   8.416   6.495 -0.6740 -0.5046  0.2394
  946MOL0     C30420   0.664   8.340   6.495  1.0825 -0.1894  0.8098
  946MOL0     C30421   0.745   8.342   6.362 -0.1483 -0.3446  0.4357
  946MOL0     C30422   0.692   8.230   6.275 -0.0405 -1.1815  0.2112
  946MOL0     C30423   0.780   8.206   6.148 -0.2462 -0.0100  0.0810
  946MOL0     C30424   0.799   8.070   6.108 -0.3768 -0.0853 -0.1001
  946MOL0     C30425   0.676   8.005   6.040 -0.4031 -0.3248 -0.7359
  946MOL0     C30426   0.702   7.859   6.034  0.0542  0.8010 -0.5676
  946MOL0     N30427   0.812   7.805   5.955 -0.2600  0.7202 -0.7546
  946MOL0     C30428   0.862   7.688   5.984 -0.4801  0.2658  0.4560
  946MOL0     C30429   0.928   7.658   5.870 -0.2942  0.3734 -0.0763
  946MOL0     C30430   0.998   7.527   5.818  0.7276  0.0866  1.0740
  946MOL0     C30431   0.955   7.399   5.888  0.3985 -0.1485  0.6297
  946MOL0     C30432   0.975   7.274   5.790 -0.3695 -0.2835  0.3261
  946MOL0     C30433   1.123   7.264   5.737  1.2401 -0.7718  0.2382
  946MOL0     O30434   1.204   7.227   5.848  0.8652  0.2599 -0.4381
  946MOL0     C30435   1.342   7.242   5.852  0.0389  0.0788 -0.1864
  946MOL0     C30436   1.426   7.202   5.746 -0.2942  0.6706 -0.0853
  946MOL0     C30437   1.565   7.204   5.757 -0.7179  0.9503 -0.4855
  946MOL0     C30438   1.647   7.135   5.649  0.9104  0.5416 -0.2300
  946MOL0     C30439   1.623   7.260   5.871 -0.3130  0.6754 -0.3848
  946MOL0     C30440   1.769   7.279   5.904  0.1569  0.9660  0.2239
  946MOL0     O30441   1.797   7.338   6.021 -0.5579  0.4201  0.3549
  946MOL0     C30442   1.924   7.315   6.071 -0.8533  0.2994 -0.8877
  946MOL0     C30443   2.031   7.389   6.041 -0.3324  0.3018 -0.8122
  946MOL0     C30444   2.153   7.366   6.092 -0.3610 -0.0652  0.2893
  946MOL0     C30445   2.185   7.261   6.188  1.1653  0.2360  0.3668
  946MOL0     O30446   2.318   7.236   6.219 -0.4782 -0.5766 -0.1050
  946MOL0     C30447   2.346   7.111   6.286 -0.3357 -0.6060 -1.3068
  946MOL0     C30448   2.496   7.116   6.337  0.1134 -0.1386  0.7794
  946MOL0     C30449   2.531   7.227   6.438  0.2968  0.3722  0.7926
  946MOL0     C30450   2.684   7.260   6.436  0.4909  0.8154 -0.2537
  946MOL0     C30451   2.711   7.374   6.538  0.4184 -0.1270 -0.3524
  946MOL0     C30452   2.868   7.395   6.569 -0.4561  0.2226 -0.5204
  946MOL0     C30453   2.956   7.396   6.438  0.5409 -0.7149 -0.7870
  946MOL0     C30454   3.100   7.382   6.470 -0.8510  0.2652  0.7691
  946MOL0    Cl30455   3.161   7.512   6.570  0.0395  0.1299  0.3841
  946MOL0     C30456   2.071   7.185   6.223 -0.2248 -0.0653  0.6568
  946MOL0     C30457   1.943   7.211   6.166  0.1836 -0.3615  0.8644
  946MOL0     O30458   1.851   7.249   5.816  0.1732 -0.5344 -0.6552
  946MOL0     C30459   1.530   7.303   5.974 -0.3871 -0.0039  0.2763
  946MOL0     C30460   1.391   7.289   5.970  1.0216  0.2222 -0.4407
  946MOL0     N30461   0.931   7.761   5.783  0.5469 -0.3175  0.7802
  946MOL0     N30462   0.852   7.845   5.836 -0.1339 -0.0001  0.1719
  946MOL0     C30463   0.216   8.504   6.373  0.2296 -0.3337 -0.0568
  946MOL0     C30464   0.140   8.605   6.306 -0.3923 -1.0913  0.0455
  946MOL0     C30465   0.032   9.018   6.214 -0.8108 -0.1241  0.6684
  946MOL0     C30466   0.008   9.006   6.073 -0.2902  0.1413 -1.0267
  946MOL0     C30467  -0.060   9.109   6.009  0.5387 -0.0818  0.2087
  946MOL0     C30468  -0.107   9.226   6.076  0.5204  0.4143 -0.2664
  946MOL0     O30469  -0.151   9.338   6.009  0.2397 -0.0160 -0.6386
  946MOL0     C30470  -0.135   9.355   5.864  0.0895  1.0048  0.4341
  946MOL0     C30471  -0.119   9.501   5.827  0.7546  0.2299 -0.2620
  946MOL0     C30472  -0.127   9.514   5.675  0.3018  0.3443  0.0722
  946MOL0     C30473  -0.108   9.660   5.637  1.0001  0.2578  0.4218
  946MOL0     C30474  -0.110   9.684   5.490 -0.8103 -0.2575  0.3994
  946MOL0     C30475  -0.120   9.726   5.374 -0.4269  0.0145 -0.0826
  946MOL0     C30476  -0.102   9.221   6.218 -0.8149 -0.2370  0.7983
  946MOL0     C30477  -0.032   9.120   6.287  0.4309 -0.1246  0.4900
  946MOL0     C30478  -0.017   9.130   6.434  0.8069 -0.2573 -1.0624
  946MOL0     H30479   0.393   8.762   6.143 -0.0586 -0.8063 -0.6314
  946MOL0     H30480   0.525   8.589   6.256 -0.5678  0.7015  2.4701
  946MOL0     H30481   0.470   8.390   6.586 -0.1613 -2.9733 -0.0937
  946MOL0     H30482   0.548   8.523   6.495  2.1379 -0.9987  2.5047
  946MOL0     H30483   0.733   8.383   6.568 -0.3835  3.2099  0.4238
  946MOL0     H30484   0.655   8.236   6.527 -0.8481 -0.3955 -0.2317
  946MOL0     H30485   0.732   8.437   6.310 -0.6093  1.3120  3.3710
  946MOL0     H30486   0.853   8.333   6.374  0.4012  0.3086 -2.8615
  946MOL0     H30487   0.690   8.143   6.341  1.2645 -1.9811 -0.7613
  946MOL0     H30488   0.587   8.239   6.246 -1.2490  0.6623  4.3511
  946MOL0     H30489   0.876   8.255   6.164 -1.5600  2.6395  0.4239
  946MOL0     H30490   0.738   8.265   6.066 -0.5719 -1.8644 -1.1576
  946MOL0     H30491   0.874   8.070   6.028  0.3733  1.6589  0.5640
  946MOL0     H30492   0.825   8.025   6.205 -0.9819  0.0527  0.1294
  946MOL0     H30493   0.668   8.039   5.936  1.9630 -0.3669 -0.9916
  946MOL0     H30494   0.593   8.039   6.102 -2.3754 -1.8542 -2.4285
  946MOL0     H30495   0.711   7.810   6.131 -4.2790 -0.3019 -0.5178
  946MOL0     H30496   0.614   7.808   5.992  1.5352 -1.1131 -1.5366
  946MOL0     H30497   0.830   7.617   6.060  1.0773  2.0156  2.8868
  946MOL0     H30498   1.107   7.533   5.823  0.8669 -0.5381 -0.4822
  946MOL0     H30499   0.969   7.508   5.714  2.1179 -0.4258  0.7696
  946MOL0     H30500   1.018   7.394   5.977  1.4735 -0.1826 -0.1038
  946MOL0     H30501   0.849   7.396   5.914  0.5759 -2.3539  1.2782
  946MOL0     H30502   0.947   7.185   5.846 -3.8661 -0.1383 -0.9300
  946MOL0     H30503   0.909   7.277   5.702  1.3291  0.8150 -1.0005
  946MOL0     H30504   1.119   7.186   5.660 -1.0386  2.1962 -3.0042
  946MOL0     H30505   1.151   7.356   5.684  0.3851 -1.4712 -1.5235
  946MOL0     H30506   1.386   7.140   5.666 -0.0510 -1.0107  1.0534
  946MOL0     H30507   1.714   7.202   5.593  3.8659 -1.7175  0.3832
  946MOL0     H30508   1.580   7.097   5.571 -0.4459  3.4436 -0.6413
  946MOL0     H30509   1.704   7.055   5.697 -1.5897 -0.6849  0.8669
  946MOL0     H30510   2.024   7.464   5.962  0.1158 -0.0976 -1.2353
  946MOL0     H30511   2.231   7.432   6.055 -1.8059  1.6212  0.0859
  946MOL0     H30512   2.286   7.092   6.376  0.2505  1.3113 -0.4665
  946MOL0     H30513   2.324   7.032   6.213 -1.8824 -0.4681 -1.0397
  946MOL0     H30514   2.523   7.021   6.384  1.2564 -0.8789 -1.2763
  946MOL0     H30515   2.561   7.123   6.249 -1.6053  1.0775 -0.4659
  946MOL0     H30516   2.494   7.196   6.536  1.0538  0.6404  1.1738
  946MOL0     H30517   2.482   7.318   6.401 -2.6690 -1.8958 -1.3862
  946MOL0     H30518   2.711   7.284   6.333 -2.0240 -1.2990 -1.5149
  946MOL0     H30519   2.746   7.174   6.465 -0.2227 -0.3669 -2.0836
  946MOL0     H30520   2.676   7.467   6.492 -2.4438 -1.3003 -0.7693
  946MOL0     H30521   2.655   7.362   6.631 -5.4728  2.1897 -3.1054
  946MOL0     H30522   2.911   7.322   6.638 -2.4101 -0.6521 -0.1443
  946MOL0     H30523   2.885   7.490   6.622  1.8306  0.6595 -1.9301
  946MOL0     H30524   2.956   7.495   6.390  2.2043 -0.8695 -1.1785
  946MOL0     H30525   2.926   7.321   6.364 -3.6558 -1.0286  1.0017
  946MOL0     H30526   3.148   7.372   6.373  1.4764 -2.9703  2.0986
  946MOL0     H30527   3.126   7.290   6.524 -0.1585 -0.4157 -0.6937
  946MOL0     H30528   2.090   7.113   6.301  3.9410 -0.1292 -0.1740
  946MOL0     H30529   1.851   7.163   6.199 -2.9197  4.4473  0.1858
  946MOL0     H30530   1.555   7.356   6.065 -1.5758 -0.4918  0.8986
  946MOL0     H30531   1.327   7.327   6.049 -0.2099 -1.8366 -0.3750
  946MOL0     H30532   0.165   8.434   6.438 -0.1648 -0.0329 -0.0373
  946MOL0     H30533   0.033   8.607   6.324 -0.4782  0.2351 -0.5080
  946MOL0     H30534   0.064   8.930   6.018 -0.3312 -0.9769  0.4132
  946MOL0     H30535  -0.058   9.094   5.902 -3.7580 -2.3759  0.2568
  946MOL0     H30536  -0.052   9.287   5.840  1.5146  2.3406  1.3689
  946MOL0     H30537  -0.229   9.322   5.819  0.3220  0.8873  0.0310
  946MOL0     H30538  -0.022   9.536   5.862  1.4325 -1.3727 -0.4527
  946MOL0     H30539  -0.189   9.572   5.874  4.1021  3.4759  0.2343
  946MOL0     H30540  -0.048   9.451   5.634 -0.7889 -1.4100  0.5510
  946MOL0     H30541  -0.224   9.480   5.638 -0.2787  0.7095  1.2075
  946MOL0     H30542  -0.020   9.702   5.687 -0.5537 -0.1221  3.7234
  946MOL0     H30543  -0.190   9.714   5.684 -0.6786 -3.0313  1.5470
  946MOL0     H30544  -0.125   9.771   5.277  0.6186  0.1968 -0.0633
  946MOL0     H30545  -0.123   9.302   6.287  1.3678  0.4539  0.7472
  946MOL0     H30546  -0.033   9.036   6.487  0.9172  0.6646  0.6487
  946MOL0     H30547   0.087   9.159   6.452  0.1907  2.5381 -1.5042
  946MOL0     H30548  -0.070   9.211   6.483  3.7833  0.5966  1.0460
  947MOL0     O30549   0.334   8.329  11.017  0.2532 -0.3017  1.1122
  947MOL0     C30550   0.297   8.293  11.123 -0.5595  0.6395  0.4459
  947MOL0     O30551   0.289   8.167  11.166 -0.0611  0.3008 -0.3724
  947MOL0     C30552   0.296   8.062  11.078 -0.7968 -0.1616 -0.1421
  947MOL0     C30553   0.404   7.968  11.098  0.3988  1.0941 -0.6917
  947MOL0     C30554   0.430   7.859  11.013  0.7404  0.1378  0.3659
  947MOL0     C30555   0.349   7.837  10.907 -0.1721  0.3442 -1.1305
  947MOL0     O30556   0.345   7.721  10.831 -0.2965 -0.6558 -0.5430
  947MOL0     C30557   0.469   7.693  10.763  0.6635 -0.2766  0.0287
  947MOL0     C30558   0.427   7.568  10.670 -0.7283 -0.0232 -0.3486
  947MOL0     C30559   0.540   7.531  10.575 -0.1935 -0.1786  0.5462
  947MOL0     C30560   0.500   7.404  10.489 -0.1604  0.0086 -0.5601
  947MOL0     C30561   0.599   7.383  10.386  0.9021  0.5164 -0.3000
  947MOL0     C30562   0.725   7.323  10.424 -0.2536  0.3463 -0.2684
  947MOL0     C30563   0.835   7.327  10.324  0.5686 -0.5215 -0.8988
  947MOL0     C30564   0.805   7.221  10.207  0.3678 -0.0089 -0.5949
  947MOL0     N30565   0.922   7.192  10.131  0.6551  0.1628  0.8178
  947MOL0     C30566   1.010   7.285  10.103  0.0086 -0.3825 -0.3579
  947MOL0     C30567   1.097   7.224  10.019 -0.0188 -0.6705 -0.3967
  947MOL0     C30568   1.212   7.295   9.954  0.6123  0.4953 -0.9700
  947MOL0     C30569   1.227   7.267   9.804 -0.1102  1.2720 -0.8460
  947MOL0     C30570   1.097   7.308   9.716 -0.4509 -1.1351 -0.9794
  947MOL0     C30571   1.145   7.380   9.583 -0.8230  0.3507  0.9027
  947MOL0     O30572   1.246   7.310   9.504  0.6942 -0.3082 -0.3239
  947MOL0     C30573   1.210   7.262   9.380 -0.4421  0.0874 -0.3205
  947MOL0     C30574   1.088   7.289   9.305 -0.3383  0.0861 -0.4514
  947MOL0     C30575   1.065   7.242   9.172 -1.0297 -0.3149  0.0527
  947MOL0     C30576   0.937   7.275   9.096  0.1003 -0.8905  0.1012
  947MOL0     C30577   1.170   7.170   9.110 -0.0967  0.9055 -0.1759
  947MOL0     C30578   1.160   7.102   8.972  0.6205 -0.0100 -0.6531
  947MOL0     O30579   1.045   7.024   8.946 -0.4129 -0.8946 -0.5974
  947MOL0     C30580   1.056   6.933   8.847  0.1336 -0.3492 -0.3166
  947MOL0     C30581   1.166   6.853   8.813  0.1962 -0.1088  0.1241
  947MOL0     C30582   1.152   6.759   8.709  0.0120 -0.8763 -0.4803
  947MOL0     C30583   1.025   6.732   8.652  0.3846  0.3774  0.5175
  947MOL0     O30584   1.024   6.629   8.555  0.4466 -0.8235  0.5400
  947MOL0     C30585   0.926   6.641   8.446 -0.9569 -0.5738  0.4954
  947MOL0     C30586   0.920   6.506   8.385 -0.5164  0.3246  0.3288
  947MOL0     C30587   0.894   6.388   8.484  0.0980 -1.4286  0.5035
  947MOL0     C30588   0.842   6.257   8.413  1.0019  0.4005 -0.3910
  947MOL0     C30589   0.838   6.131   8.510 -0.3990  0.1047 -0.4705
  947MOL0     C30590   0.859   5.998   8.446  0.2580 -0.7602  0.1064
  947MOL0     C30591   0.851   5.878   8.541  0.4456 -0.4968 -0.7451
  947MOL0     C30592   0.790   5.758   8.466  0.1433  0.1938  0.0922
  947MOL0    Cl30593   0.863   5.739   8.298  0.0170  0.4160 -0.1335
  947MOL0     C30594   0.920   6.795   8.701  0.5328 -1.0751  1.0316
  947MOL0     C30595   0.930   6.900   8.795 -0.5746  0.0593  0.0482
  947MOL0     O30596   1.251   7.117   8.898 -0.1276  0.1348  0.4575
  947MOL0     C30597   1.288   7.146   9.183  0.0821 -1.0892  0.3890
  947MOL0     C30598   1.306   7.195   9.314 -0.3841 -0.4114  0.4414
  947MOL0     N30599   1.067   7.090   9.996 -0.3459 -0.2296  0.2344
  947MOL0     N30600   0.960   7.067  10.072 -0.2304  0.2475  0.1507
  947MOL0     C30601   0.234   7.927  10.880 -0.5535 -0.0383  0.3656
  947MOL0     C30602   0.219   8.033  10.961  0.4623 -0.9164  0.2171
  947MOL0     C30603   0.245   8.401  11.208  0.5999 -0.4331 -0.0363
  947MOL0     C30604   0.254   8.393  11.347  0.0610  0.4502  0.0757
  947MOL0     C30605   0.202   8.495  11.427 -1.0422  0.1272  0.9867
  947MOL0     C30606   0.166   8.621  11.374  0.4287 -0.7986  0.2179
  947MOL0     O30607   0.120   8.736  11.442 -0.4389  0.0252  0.0207
  947MOL0     C30608   0.035   8.705  11.553 -0.7686  0.4557 -0.0166
  947MOL0     C30609  -0.096   8.788  11.553  0.2240 -1.1277 -0.0368
  947MOL0     C30610  -0.078   8.944  11.562  0.0152 -0.3503 -1.0237
  947MOL0     C30611  -0.204   9.024  11.603  0.1851  0.1126  0.6115
  947MOL0     C30612  -0.319   8.975  11.523  1.1560 -0.1738  0.0799
  947MOL0     C30613  -0.420   8.937  11.462  0.0805 -0.9231  0.4992
  947MOL0     C30614   0.147   8.622  11.239  0.1631  0.1334 -0.7909
  947MOL0     C30615   0.186   8.521  11.155 -0.9102 -0.3023  0.1691
  947MOL0     C30616   0.134   8.524  11.009  0.4233  0.4980 -0.7908
  947MOL0     H30617   0.462   7.974  11.189  0.2699 -1.2198 -0.3814
  947MOL0     H30618   0.490   7.774  11.045 -1.9660 -1.4876  1.6204
  947MOL0     H30619   0.554   7.660  10.824  1.4095 -2.1731 -1.9374
  947MOL0     H30620   0.480   7.779  10.696 -3.7397 -0.5724 -1.3629
  947MOL0     H30621   0.405   7.481  10.733 -3.7332  0.0036 -1.1892
  947MOL0     H30622   0.335   7.583  10.612 -0.0345 -3.3095 -2.5624
  947MOL0     H30623   0.559   7.613  10.505 -2.2774 -1.3987 -1.6052
  947MOL0     H30624   0.626   7.501  10.636  1.1348 -0.7608 -1.5118
  947MOL0     H30625   0.484   7.320  10.557  1.8517 -1.2725 -1.5805
  947MOL0     H30626   0.402   7.429  10.446  0.1133  1.0599 -0.6086
  947MOL0     H30627   0.625   7.472  10.328 -2.0932  1.1441 -0.8581
  947MOL0     H30628   0.548   7.315  10.316  0.7301 -1.6008  1.7535
  947MOL0     H30629   0.767   7.373  10.512  1.4313 -1.0708 -0.2120
  947MOL0     H30630   0.701   7.220  10.451 -0.1902  1.0023  2.6315
  947MOL0     H30631   0.929   7.310  10.378  0.2666  0.3328 -0.0799
  947MOL0     H30632   0.837   7.429  10.285  1.5690 -0.2063 -0.0712
  947MOL0     H30633   0.777   7.125  10.253  0.4406 -0.5493 -1.6494
  947MOL0     H30634   0.724   7.239  10.137  0.4489 -0.8989 -0.9352
  947MOL0     H30635   1.005   7.387  10.140 -3.5351 -1.3205  2.2507
  947MOL0     H30636   1.305   7.258   9.999 -1.1413 -1.9995  0.9196
  947MOL0     H30637   1.211   7.402   9.972  0.2557  0.6891 -2.0704
  947MOL0     H30638   1.318   7.317   9.768  0.1691  1.7230  0.4457
  947MOL0     H30639   1.251   7.162   9.785 -2.5881  0.4342  0.2651
  947MOL0     H30640   1.037   7.220   9.693  0.3721 -2.1314  0.4874
  947MOL0     H30641   1.034   7.375   9.775  2.4424 -0.3785  1.5435
  947MOL0     H30642   1.059   7.408   9.522  0.5849  4.8641  0.6486
  947MOL0     H30643   1.188   7.477   9.609 -2.2684  1.6629 -1.2987
  947MOL0     H30644   1.006   7.355   9.331 -0.4607  1.3703 -3.5456
  947MOL0     H30645   0.863   7.195   9.107 -1.9493  0.8286 -0.4743
  947MOL0     H30646   0.968   7.284   8.992  2.0010  0.3463  0.7106
  947MOL0     H30647   0.882   7.364   9.129 -2.4479 -1.8692 -1.2671
  947MOL0     H30648   1.268   6.876   8.840  0.4081 -1.8240  0.8922
  947MOL0     H30649   1.233   6.696   8.674 -0.9778 -2.3812 -0.1435
  947MOL0     H30650   0.826   6.663   8.484 -1.0007 -0.2308  0.1932
  947MOL0     H30651   0.937   6.729   8.382 -2.0703 -0.3503  0.5938
  947MOL0     H30652   0.829   6.503   8.323 -2.3315 -0.8643  2.8895
  947MOL0     H30653   1.021   6.500   8.345  0.3683  0.3968  2.4421
  947MOL0     H30654   0.804   6.421   8.535 -1.1380 -2.1807 -1.0889
  947MOL0     H30655   0.985   6.358   8.538  1.0313 -1.6890 -1.1184
  947MOL0     H30656   0.922   6.231   8.343  2.1267  2.2671  0.1177
  947MOL0     H30657   0.752   6.270   8.352  0.5912 -0.2186  0.0813
  947MOL0     H30658   0.914   6.143   8.587 -1.0349  0.0674  0.1779
  947MOL0     H30659   0.742   6.126   8.562 -0.9442 -2.5380 -1.5440
  947MOL0     H30660   0.951   5.996   8.385  1.3236 -0.2267  1.6391
  947MOL0     H30661   0.783   5.987   8.368 -1.0890 -2.7887  1.6046
  947MOL0     H30662   0.781   5.915   8.618  1.7245  2.3689 -0.8056
  947MOL0     H30663   0.939   5.853   8.600 -0.0392  1.4303  0.9171
  947MOL0     H30664   0.685   5.777   8.445 -0.1923  1.1264  2.2843
  947MOL0     H30665   0.793   5.666   8.525 -1.1804 -0.7417 -1.2324
  947MOL0     H30666   0.828   6.752   8.663  1.2890 -2.7281  0.9465
  947MOL0     H30667   0.838   6.946   8.832 -1.9411 -2.4156 -0.0362
  947MOL0     H30668   1.372   7.091   9.141 -0.0321 -2.4205  1.7785
  947MOL0     H30669   1.400   7.180   9.366  0.8235 -0.8453 -1.7500
  947MOL0     H30670   0.168   7.903  10.797 -2.4977  0.7374  1.6174
  947MOL0     H30671   0.139   8.104  10.946 -0.3181 -2.3313 -3.0631
  947MOL0     H30672   0.289   8.303  11.397 -0.2099  0.2959 -0.0113
  947MOL0     H30673   0.212   8.486  11.535  0.0527 -3.3106  0.7216
  947MOL0     H30674  -0.001   8.602  11.547 -2.1196  0.7464  2.0109
  947MOL0     H30675   0.096   8.714  11.643 -2.0222 -0.7862  1.0167
  947MOL0     H30676  -0.144   8.751  11.644 -0.3790 -0.6388 -0.1480
  947MOL0     H30677  -0.162   8.767  11.468 -0.4413  0.9277 -0.0832
  947MOL0     H30678   0.002   8.975  11.630  0.3363 -0.2378 -1.4479
  947MOL0     H30679  -0.044   8.992  11.470  1.1152  0.0108 -0.4376
  947MOL0     H30680  -0.193   9.133  11.596 -1.9196  0.4036  1.3045
  947MOL0     H30681  -0.228   9.007  11.709  2.5719 -2.2743  0.8783
  947MOL0     H30682  -0.506   8.891  11.417  0.6679  0.0717 -1.7566
  947MOL0     H30683   0.106   8.712  11.193  1.4331  1.5566  0.7285
  947MOL0     H30684   0.125   8.423  10.968  5.1262  0.2259 -1.7596
  947MOL0     H30685   0.044   8.586  11.006  0.6264  0.8805  0.4795
  947MOL0     H30686   0.197   8.564  10.929  0.8329  0.9536 -0.2474
  948MOL0     O30687   0.874   6.652   3.028 -0.4637 -1.2020 -0.6943
  948MOL0     C30688   0.941   6.675   3.127 -0.5002 -0.2552 -1.7505
  948MOL0     O30689   0.932   6.601   3.245  0.2421 -0.4593 -0.5489
  948MOL0     C30690   0.948   6.660   3.369  0.2604  0.8256 -0.5234
  948MOL0     C30691   1.062   6.628   3.448  0.0595 -0.0802  0.4678
  948MOL0     C30692   1.063   6.658   3.578 -0.6407  0.1978 -0.9110
  948MOL0     C30693   0.952   6.706   3.646 -0.5691 -0.0780  0.0573
  948MOL0     O30694   0.970   6.736   3.777 -0.5382  0.5288 -0.7207
  948MOL0     C30695   0.871   6.801   3.856  0.0703 -0.4316  0.5685
  948MOL0     C30696   0.919   6.782   4.002  0.3788 -0.9678 -0.5213
  948MOL0     C30697   0.836   6.868   4.101  0.7311  0.6388 -0.2098
  948MOL0     C30698   0.902   6.852   4.242  0.0162  0.6743 -0.4222
  948MOL0     C30699   0.824   6.937   4.339 -0.8793 -0.5857  0.3466
  948MOL0     C30700   0.859   6.938   4.482  0.5911  0.3013 -1.0099
  948MOL0     C30701   0.763   7.041   4.557  0.4848 -0.3624 -0.1259
  948MOL0     C30702   0.768   7.020   4.711  0.0448  0.0041 -0.0819
  948MOL0     N30703   0.732   6.889   4.769 -0.4588  1.5469 -0.3555
  948MOL0     C30704   0.608   6.853   4.816  1.2016 -0.4375  0.2429
  948MOL0     C30705   0.625   6.729   4.856  0.3423  0.8820 -0.2419
  948MOL0     C30706   0.520   6.629   4.907  0.5296 -0.3942  0.2136
  948MOL0     C30707   0.488   6.528   4.804 -0.2182  0.7239 -1.0368
  948MOL0     C30708   0.404   6.414   4.849  0.5237 -0.0378 -0.8389
  948MOL0     C30709   0.487   6.283   4.875  0.1212 -0.2024 -0.2306
  948MOL0     O30710   0.387   6.186   4.926  0.2380 -0.7701  0.2026
  948MOL0     C30711   0.448   6.079   4.988 -0.7843 -0.5605 -0.5171
  948MOL0     C30712   0.444   5.962   4.924  0.9751  1.0855 -0.7592
  948MOL0     C30713   0.477   5.844   5.000 -0.2586  0.0299 -0.7979
  948MOL0     C30714   0.436   5.712   4.949  0.2675  1.6528  0.9402
  948MOL0     C30715   0.540   5.852   5.120  0.5025 -0.0625 -0.6102
  948MOL0     C30716   0.579   5.727   5.191  0.5094  0.4136 -1.0605
  948MOL0     O30717   0.615   5.618   5.125 -0.2334  0.5649  0.1370
  948MOL0     C30718   0.644   5.506   5.194 -0.2509  0.1359  0.1539
  948MOL0     C30719   0.588   5.462   5.315 -0.2332 -0.4417 -1.2883
  948MOL0     C30720   0.633   5.348   5.389 -0.2140 -0.7719  1.0164
  948MOL0     C30721   0.728   5.262   5.318  0.8903  0.0692 -0.0506
  948MOL0     O30722   0.780   5.154   5.387  0.2882 -0.2812  1.2649
  948MOL0     C30723   0.763   5.027   5.318  0.7323 -0.5719  0.7942
  948MOL0     C30724   0.764   4.920   5.423 -0.3541  0.1682  0.3364
  948MOL0     C30725   0.640   4.925   5.512  0.5460 -0.8252 -0.5403
  948MOL0     C30726   0.600   4.798   5.573  0.1341 -0.6355  0.5951
  948MOL0     C30727   0.456   4.805   5.625 -0.3003  0.5353  0.4953
  948MOL0     C30728   0.424   4.682   5.728 -0.7204 -0.4622  0.7566
  948MOL0     C30729   0.277   4.690   5.768  0.5945 -0.0358 -0.8737
  948MOL0     C30730   0.228   4.574   5.852 -0.4138 -0.3377  0.1501
  948MOL0    Cl30731   0.260   4.414   5.782  0.6948  0.0482 -0.7139
  948MOL0     C30732   0.776   5.303   5.195 -0.3925  0.3590  0.1203
  948MOL0     C30733   0.736   5.418   5.128 -0.7051  0.0967  0.8584
  948MOL0     O30734   0.592   5.745   5.310  0.0315 -0.2162 -1.2328
  948MOL0     C30735   0.551   5.982   5.182 -0.6036  0.5774  0.1613
  948MOL0     C30736   0.510   6.090   5.111  0.8143 -0.5103  0.4389
  948MOL0     N30737   0.751   6.687   4.821  0.9568  0.6401  0.2882
  948MOL0     N30738   0.811   6.776   4.755  0.0483  0.2649  0.2719
  948MOL0     C30739   0.841   6.736   3.565  0.6037  0.5160  0.0594
  948MOL0     C30740   0.837   6.716   3.425 -0.2655  0.6202  0.6945
  948MOL0     C30741   1.005   6.805   3.123  0.0354  0.0090 -0.2752
  948MOL0     C30742   0.933   6.923   3.091  0.2621  0.7292  0.7041
  948MOL0     C30743   1.006   7.036   3.065  1.2577 -0.3636 -0.7923
  948MOL0     C30744   1.139   7.048   3.068 -0.8133  0.6436  0.4895
  948MOL0     O30745   1.208   7.167   3.035 -0.7088 -0.2255  0.2144
  948MOL0     C30746   1.207   7.202   2.898 -0.0952  0.1403  1.1187
  948MOL0     C30747   1.255   7.091   2.793 -0.2217  0.6499  0.8409
  948MOL0     C30748   1.413   7.062   2.805  0.3116 -0.1805  0.4893
  948MOL0     C30749   1.492   7.123   2.692  1.2061  0.2185  0.4515
  948MOL0     C30750   1.624   7.134   2.757 -0.4528 -0.5372  0.5764
  948MOL0     C30751   1.738   7.164   2.792  0.3475  0.4871 -0.0335
  948MOL0     C30752   1.211   6.932   3.093  0.7290 -0.3640 -0.7393
  948MOL0     C30753   1.140   6.809   3.118 -0.0628  0.4091 -0.2214
  948MOL0     C30754   1.233   6.690   3.160 -0.1021  0.4079  0.1866
  948MOL0     H30755   1.142   6.570   3.404 -0.0334 -0.0872  0.3081
  948MOL0     H30756   1.150   6.637   3.639 -0.7117  0.9506 -0.5388
  948MOL0     H30757   0.775   6.751   3.843 -1.3113  1.0944  3.8043
  948MOL0     H30758   0.869   6.908   3.829  1.7305  0.0003  1.9582
  948MOL0     H30759   0.902   6.679   4.034 -1.0077 -0.0984  1.8400
  948MOL0     H30760   1.028   6.791   3.999  0.2824  0.7880  0.0980
  948MOL0     H30761   0.831   6.974   4.074  2.3680 -0.2865 -5.3511
  948MOL0     H30762   0.737   6.821   4.103  0.5541  1.0231  1.1511
  948MOL0     H30763   0.884   6.749   4.273 -1.0647  1.2274  0.8849
  948MOL0     H30764   1.003   6.893   4.243 -1.0487  3.6501  2.3598
  948MOL0     H30765   0.721   6.902   4.345 -1.0001 -0.0738  1.8212
  948MOL0     H30766   0.811   7.039   4.302 -4.1791 -0.3349  1.8110
  948MOL0     H30767   0.836   6.838   4.520 -0.3795  0.6087 -0.7542
  948MOL0     H30768   0.964   6.968   4.493  0.7466 -0.5563  0.1180
  948MOL0     H30769   0.664   7.005   4.529 -0.3175  0.3373  1.6467
  948MOL0     H30770   0.784   7.144   4.524 -1.3112  0.2725  0.5804
  948MOL0     H30771   0.872   7.041   4.738  0.7826 -1.4625 -1.6051
  948MOL0     H30772   0.704   7.094   4.759  2.4172  1.3110  1.2482
  948MOL0     H30773   0.519   6.915   4.825  1.3493  0.4317 -3.1891
  948MOL0     H30774   0.424   6.676   4.932  1.1121  1.6694 -1.1744
  948MOL0     H30775   0.563   6.587   4.998 -0.4894 -0.5848  0.6232
  948MOL0     H30776   0.433   6.574   4.721 -0.7809  2.7636  0.3653
  948MOL0     H30777   0.584   6.491   4.767 -0.3179  0.7301 -1.3043
  948MOL0     H30778   0.353   6.433   4.944  1.2034 -2.3472  0.0445
  948MOL0     H30779   0.336   6.396   4.765 -0.8169 -0.9715  0.4023
  948MOL0     H30780   0.535   6.248   4.783 -3.1277 -1.3833 -1.6046
  948MOL0     H30781   0.567   6.295   4.949 -0.7665 -0.3381  0.7709
  948MOL0     H30782   0.390   5.948   4.831 -1.8782 -0.6831  1.0155
  948MOL0     H30783   0.364   5.736   4.871  1.6007  0.2265 -0.8150
  948MOL0     H30784   0.388   5.644   5.020  2.8404  0.6677  1.8865
  948MOL0     H30785   0.511   5.652   4.896 -2.7497  0.4757 -2.3183
  948MOL0     H30786   0.518   5.530   5.362  0.8399  0.6240 -1.1659
  948MOL0     H30787   0.608   5.321   5.491  2.4313 -3.1079  1.1557
  948MOL0     H30788   0.668   5.021   5.264 -0.7697 -0.9169  3.3085
  948MOL0     H30789   0.851   5.011   5.254  0.7630  2.1051  0.0312
  948MOL0     H30790   0.769   4.830   5.362  1.5797  0.9716 -0.7712
  948MOL0     H30791   0.854   4.929   5.484  0.4777  0.4959 -0.9087
  948MOL0     H30792   0.557   4.954   5.447  0.9180 -5.5914 -3.5741
  948MOL0     H30793   0.636   5.001   5.590 -0.6097 -0.6933 -0.6987
  948MOL0     H30794   0.663   4.782   5.662 -0.0620  1.6593  1.2034
  948MOL0     H30795   0.615   4.715   5.504  0.0709  0.3554 -0.6330
  948MOL0     H30796   0.432   4.900   5.674 -0.9721  0.2169  0.7868
  948MOL0     H30797   0.386   4.805   5.541 -1.2242  3.8987  1.1114
  948MOL0     H30798   0.488   4.688   5.816  3.1488  2.2809 -1.8962
  948MOL0     H30799   0.453   4.586   5.683  1.5343 -1.4199  3.9545
  948MOL0     H30800   0.218   4.694   5.676 -0.6178 -0.1956 -0.1245
  948MOL0     H30801   0.267   4.788   5.814  1.0594  0.1527 -1.1777
  948MOL0     H30802   0.121   4.594   5.870 -0.4555 -1.3515  1.1305
  948MOL0     H30803   0.280   4.578   5.948 -1.0636 -1.1978  0.5498
  948MOL0     H30804   0.845   5.234   5.147 -0.2835  0.6814 -0.1981
  948MOL0     H30805   0.783   5.453   5.036 -0.8430  0.0766  0.7798
  948MOL0     H30806   0.595   5.995   5.280  0.0252 -1.4694  0.1956
  948MOL0     H30807   0.526   6.189   5.154 -1.4403 -0.6525  1.7672
  948MOL0     H30808   0.745   6.758   3.609  0.2042  1.9562 -1.4441
  948MOL0     H30809   0.743   6.738   3.375  0.6248  2.3225 -0.3357
  948MOL0     H30810   0.826   6.917   3.077  0.3128 -3.8164  1.1011
  948MOL0     H30811   0.953   7.126   3.038 -1.8943 -2.2490 -1.4075
  948MOL0     H30812   1.104   7.236   2.885 -1.1236 -0.6924  5.3033
  948MOL0     H30813   1.279   7.284   2.893 -0.4270  0.6005  2.9509
  948MOL0     H30814   1.238   7.131   2.692  0.2875  0.9824  0.8853
  948MOL0     H30815   1.185   7.007   2.801 -1.0134  1.0812 -1.0324
  948MOL0     H30816   1.446   7.089   2.905 -1.4423 -1.4531  1.4768
  948MOL0     H30817   1.410   6.953   2.795 -2.0258 -0.1823  0.7222
  948MOL0     H30818   1.456   7.221   2.660  1.6004  0.9577  2.1609
  948MOL0     H30819   1.493   7.058   2.604 -1.9135 -0.9009  1.1307
  948MOL0     H30820   1.827   7.212   2.824 -1.0374  3.0993  0.1640
  948MOL0     H30821   1.319   6.925   3.101  0.9041  2.8970  1.8539
  948MOL0     H30822   1.330   6.685   3.110 -1.0228  0.9524 -1.7341
  948MOL0     H30823   1.253   6.704   3.267 -1.3297  1.1122  0.3432
  948MOL0     H30824   1.187   6.593   3.144 -0.8590 -0.3922  5.3581
  949MOL0     O30825   1.256  10.494   2.241 -0.9867  0.1722 -0.1729
  949MOL0     C30826   1.377  10.478   2.268  0.7610  0.1570 -0.0122
  949MOL0     O30827   1.462  10.423   2.175 -0.6055 -0.8469  0.0905
  949MOL0     C30828   1.405  10.379   2.063 -0.2694  0.2658  0.6266
  949MOL0     C30829   1.440  10.245   2.031 -0.1645  0.0394  0.4198
  949MOL0     C30830   1.394  10.165   1.918 -0.5406  0.5220 -0.2815
  949MOL0     C30831   1.303  10.234   1.840  0.2987 -0.4332  0.3727
  949MOL0     O30832   1.241  10.155   1.742 -0.0537 -0.4028  0.3689
  949MOL0     C30833   1.195  10.224   1.625  0.3192 -0.5287  0.4429
  949MOL0     C30834   1.184  10.112   1.519 -0.2590 -0.3909  0.6154
  949MOL0     C30835   1.327  10.044   1.479  0.4689 -0.3188 -0.9466
  949MOL0     C30836   1.309   9.915   1.402  0.3057 -1.2178 -0.8955
  949MOL0     C30837   1.439   9.862   1.364  0.0912  0.3993  0.2652
  949MOL0     C30838   1.425   9.745   1.274  0.6745 -0.6469 -0.0231
  949MOL0     C30839   1.365   9.766   1.131  0.5696 -1.2401  0.8977
  949MOL0     C30840   1.412   9.669   1.032  0.2156  0.8779 -0.1067
  949MOL0     N30841   1.357   9.699   0.898 -0.0358  0.9504 -0.4867
  949MOL0     C30842   1.386   9.813   0.828 -0.4174 -0.1828 -0.1675
  949MOL0     C30843   1.293   9.824   0.733 -0.1867  1.1782 -0.5565
  949MOL0     C30844   1.300   9.929   0.620  0.2620 -0.2987 -0.1921
  949MOL0     C30845   1.385  10.051   0.656 -0.2264  0.0208  0.4778
  949MOL0     C30846   1.340  10.181   0.587 -0.1361  0.2421 -0.2355
  949MOL0     C30847   1.382  10.300   0.668 -0.2777 -0.2606 -0.0113
  949MOL0     O30848   1.298  10.302   0.789 -0.7013  0.2950  0.0551
  949MOL0     C30849   1.332  10.375   0.901 -0.1739 -0.3777 -0.4330
  949MOL0     C30850   1.232  10.411   0.982 -0.5922  0.2034 -0.3805
  949MOL0     C30851   1.255  10.454   1.114 -0.3085 -1.0072  0.0459
  949MOL0     C30852   1.127  10.494   1.188 -0.0053 -0.0964 -0.1830
  949MOL0     C30853   1.380  10.476   1.155 -0.5629 -0.1473 -0.3842
  949MOL0     C30854   1.408  10.536   1.286  0.1927  0.4232  0.9511
  949MOL0     O30855   1.399  10.666   1.288  0.3953 -0.4628  0.7802
  949MOL0     C30856   1.448  10.747   1.389  0.3954 -0.4074  0.1067
  949MOL0     C30857   1.536  10.700   1.488 -0.4439  0.9352 -0.0779
  949MOL0     C30858   1.586  10.787   1.583 -0.1009 -0.7137 -0.4031
  949MOL0     C30859   1.548  10.923   1.591  0.4066  0.4057 -0.2758
  949MOL0     O30860   1.597  10.992   1.702 -0.2079 -0.5106  0.4974
  949MOL0     C30861   1.561  11.133   1.703  0.7941  0.2447  0.7951
  949MOL0     C30862   1.608  11.196   1.830 -0.1913 -0.0578  0.3529
  949MOL0     C30863   1.546  11.140   1.955 -0.4569 -0.4643 -0.2843
  949MOL0     C30864   1.397  11.184   1.967  0.1982  0.8171 -0.3260
  949MOL0     C30865   1.370  11.220   2.107  0.1400 -0.7897 -1.0489
  949MOL0     C30866   1.381  11.100   2.213  0.4797  0.6898 -0.3323
  949MOL0     C30867   1.335  11.132   2.358 -0.5502 -0.2555 -0.0512
  949MOL0     C30868   1.433  11.224   2.429  0.4911 -0.0592  0.1949
  949MOL0    Cl30869   1.381  11.250   2.604  0.5495  0.3751  0.0577
  949MOL0     C30870   1.451  10.964   1.492  0.1316 -2.2063  0.0729
  949MOL0     C30871   1.403  10.875   1.396 -0.6443 -1.0309  0.1368
  949MOL0     O30872   1.412  10.465   1.388  0.4679 -0.0812  0.7746
  949MOL0     C30873   1.497  10.432   1.086 -0.4301 -0.0752  0.1612
  949MOL0     C30874   1.466  10.385   0.948 -0.2594  0.6002  0.0932
  949MOL0     N30875   1.200   9.726   0.750 -0.1757 -0.5291  0.3328
  949MOL0     N30876   1.239   9.652   0.850 -0.2694  0.8209  0.5621
  949MOL0     C30877   1.265  10.373   1.871  0.4138  0.8788  0.4621
  949MOL0     C30878   1.314  10.445   1.980 -0.2117 -0.1709 -0.4564
  949MOL0     C30879   1.439  10.515   2.393  0.1099 -1.5277 -0.4116
  949MOL0     C30880   1.561  10.446   2.436 -0.0227  0.1672 -0.9355
  949MOL0     C30881   1.629  10.476   2.549 -0.2383  0.6309  0.9516
  949MOL0     C30882   1.582  10.581   2.632  0.6113  0.2916 -0.4633
  949MOL0     O30883   1.633  10.624   2.755  0.4048 -0.0416 -0.1174
  949MOL0     C30884   1.760  10.562   2.800 -0.3078  0.1438 -0.1512
  949MOL0     C30885   1.775  10.655   2.924 -0.3611  0.5851 -0.1313
  949MOL0     C30886   1.839  10.567   3.025  0.5065 -0.6479 -0.4338
  949MOL0     C30887   1.857  10.643   3.154  0.2066  0.0081  1.3833
  949MOL0     C30888   1.956  10.578   3.241  0.5680 -0.4967 -0.0350
  949MOL0     C30889   2.030  10.513   3.309  0.2348  0.2790 -0.3967
  949MOL0     C30890   1.471  10.651   2.595 -0.1452  0.2652  0.0305
  949MOL0     C30891   1.396  10.620   2.482 -0.0140 -0.7119  0.6749
  949MOL0     C30892   1.270  10.703   2.449 -0.0186 -0.1799 -0.9221
  949MOL0     H30893   1.513  10.194   2.093 -0.1500  0.3873  0.6918
  949MOL0     H30894   1.430  10.064   1.901 -0.7404  0.1135  1.5670
  949MOL0     H30895   1.259  10.307   1.595 -0.4194 -0.2084 -0.2978
  949MOL0     H30896   1.094  10.263   1.641 -0.6917 -3.3754  1.6534
  949MOL0     H30897   1.120  10.035   1.564 -0.1331 -2.3347 -2.2685
  949MOL0     H30898   1.133  10.152   1.431  1.2665 -0.7990 -0.4928
  949MOL0     H30899   1.384  10.106   1.409  0.4209 -1.5632 -2.1217
  949MOL0     H30900   1.384  10.041   1.572 -0.1788 -0.0708 -0.5294
  949MOL0     H30901   1.255   9.840   1.461 -3.0748 -0.2665 -2.4953
  949MOL0     H30902   1.236   9.928   1.321 -1.7992 -0.7969  0.9578
  949MOL0     H30903   1.484   9.829   1.458 -2.5639  1.4102  2.0117
  949MOL0     H30904   1.495   9.945   1.321  1.1126 -1.1118 -1.4376
  949MOL0     H30905   1.527   9.708   1.256  1.5665  2.4194 -2.0915
  949MOL0     H30906   1.376   9.669   1.335  0.1237 -2.2244 -2.2824
  949MOL0     H30907   1.379   9.869   1.096 -1.4147 -1.2075  0.0638
  949MOL0     H30908   1.258   9.745   1.143  0.3038 -2.6949 -2.8355
  949MOL0     H30909   1.521   9.671   1.021  0.5228 -0.8712  1.9380
  949MOL0     H30910   1.387   9.567   1.060 -0.2406  1.3217  1.1416
  949MOL0     H30911   1.479   9.870   0.831 -0.7434  0.5018 -1.9994
  949MOL0     H30912   1.195   9.957   0.611  0.5493  0.6827 -0.5833
  949MOL0     H30913   1.330   9.879   0.527  1.3111 -1.1245  0.5548
  949MOL0     H30914   1.360  10.064   0.762  0.7650 -0.4006  0.7837
  949MOL0     H30915   1.492  10.030   0.646 -0.0441  0.4123  1.4837
  949MOL0     H30916   1.382  10.192   0.487 -1.7024  1.6703 -0.7892
  949MOL0     H30917   1.232  10.193   0.574  0.1042  1.1255 -1.5228
  949MOL0     H30918   1.482  10.285   0.709 -0.1732  0.8223  0.1628
  949MOL0     H30919   1.374  10.396   0.616 -0.9634 -0.1788  0.2424
  949MOL0     H30920   1.134  10.391   0.939 -0.3746  3.1693 -2.5608
  949MOL0     H30921   1.092  10.411   1.251 -0.1027  1.2542  1.6033
  949MOL0     H30922   1.045  10.513   1.119  1.2263  2.3549 -1.0716
  949MOL0     H30923   1.132  10.585   1.247  1.5957 -1.3049  1.6912
  949MOL0     H30924   1.576  10.599   1.487 -1.1978  0.6137 -1.6702
  949MOL0     H30925   1.652  10.751   1.661  0.7762  0.1807 -0.7095
  949MOL0     H30926   1.605  11.188   1.620  0.0353  0.9275  0.8350
  949MOL0     H30927   1.453  11.147   1.697  0.9930  1.0284 -1.9387
  949MOL0     H30928   1.716  11.205   1.843 -0.5347  4.3543  1.5296
  949MOL0     H30929   1.594  11.303   1.816  0.6241 -0.2694 -2.8303
  949MOL0     H30930   1.603  11.191   2.033 -1.5619  0.0451  0.2105
  949MOL0     H30931   1.580  11.037   1.965  2.4103  0.5037  0.7076
  949MOL0     H30932   1.338  11.102   1.926  0.5549  1.2945 -1.8823
  949MOL0     H30933   1.381  11.262   1.891  1.3672  0.2425 -1.2010
  949MOL0     H30934   1.428  11.302   2.150 -0.5587 -0.3388 -0.9324
  949MOL0     H30935   1.265  11.253   2.105  1.0095  2.2441 -1.7624
  949MOL0     H30936   1.481  11.054   2.217  0.7244  1.2493  0.1338
  949MOL0     H30937   1.311  11.017   2.201  0.0470  0.9192  0.5202
  949MOL0     H30938   1.342  11.040   2.418  0.7479  0.5856  1.1610
  949MOL0     H30939   1.238  11.181   2.356 -0.2157  0.4467  0.5259
  949MOL0     H30940   1.440  11.317   2.372  3.3535 -0.9264 -1.0790
  949MOL0     H30941   1.534  11.182   2.426  1.2008  1.4743  0.9604
  949MOL0     H30942   1.429  11.070   1.495  0.3311 -1.9642 -3.3427
  949MOL0     H30943   1.335  10.908   1.318 -0.9103 -3.1456 -0.6050
  949MOL0     H30944   1.595  10.453   1.125 -0.2940  0.5623 -0.5114
  949MOL0     H30945   1.548  10.355   0.884  0.5758 -0.7981  1.7336
  949MOL0     H30946   1.180  10.405   1.812 -1.1462 -3.3493  0.0560
  949MOL0     H30947   1.285  10.544   2.014  1.5409  0.1410  0.2459
  949MOL0     H30948   1.600  10.370   2.370  0.3810  2.0332 -2.9639
  949MOL0     H30949   1.710  10.410   2.576 -1.0385 -0.1868  1.4132
  949MOL0     H30950   1.741  10.456   2.819 -0.7569 -0.5947 -3.8828
  949MOL0     H30951   1.844  10.581   2.732  0.4850  0.2643  0.8495
  949MOL0     H30952   1.680  10.683   2.971  0.2966  0.2973  1.4499
  949MOL0     H30953   1.832  10.746   2.905  1.2881  0.3114  2.8477
  949MOL0     H30954   1.774  10.481   3.043 -1.5404  0.0779 -3.5736
  949MOL0     H30955   1.933  10.518   2.997  0.2853 -2.4290  1.7372
  949MOL0     H30956   1.765  10.660   3.210 -1.3432 -0.4027 -0.9049
  949MOL0     H30957   1.897  10.741   3.129 -1.0041  1.2404  3.9276
  949MOL0     H30958   2.087  10.453   3.377  1.3104 -0.1946 -1.6779
  949MOL0     H30959   1.456  10.736   2.661  2.0154 -0.8570  2.1573
  949MOL0     H30960   1.253  10.760   2.541  2.5557  0.7164 -0.9102
  949MOL0     H30961   1.284  10.762   2.358  3.5013 -1.2611 -1.2260
  949MOL0     H30962   1.180  10.642   2.449 -0.4524  0.4439 -0.6370
  950MOL0     O30963  10.584   3.018  10.416 -0.3468  0.6017  0.2098
  950MOL0     C30964  10.531   3.106  10.346 -0.5929  0.8484 -0.7993
  950MOL0     O30965  10.580   3.153  10.228  0.1366  0.3667  0.1386
  950MOL0     C30966  10.706   3.113  10.184 -0.7286  0.7526 -0.2025
  950MOL0     C30967  10.721   3.116  10.043 -0.0815  0.6949 -0.1571
  950MOL0     C30968  10.844   3.089   9.984 -0.1249 -0.2636 -0.1136
  950MOL0     C30969  10.960   3.044  10.064 -0.1390 -0.4497 -0.0709
  950MOL0     O30970  11.081   3.009  10.014  0.5310 -0.9459  0.0649
  950MOL0     C30971  11.079   2.953   9.881  0.5321 -0.2124 -0.9092
  950MOL0     C30972  11.025   2.808   9.885 -0.2858  0.1870 -0.5102
  950MOL0     C30973  11.082   2.702   9.983 -0.6121  0.2949 -0.7600
  950MOL0     C30974  11.000   2.664  10.112  0.3955 -0.4378 -0.7864
  950MOL0     C30975  11.040   2.529  10.170 -0.4286 -0.7343 -0.9642
  950MOL0     C30976  11.187   2.535  10.212  0.3063 -0.5529 -1.1631
  950MOL0     C30977  11.220   2.416  10.308  0.5018 -0.4777 -0.1665
  950MOL0     C30978  11.370   2.429  10.360  0.1736  0.1626 -0.3841
  950MOL0     N30979  11.379   2.367  10.493 -0.7726  0.7898  0.2643
  950MOL0     C30980  11.304   2.406  10.606 -0.3587 -0.2506 -0.2257
  950MOL0     C30981  11.346   2.309  10.698 -0.4170  0.2190  0.2326
  950MOL0     C30982  11.297   2.295  10.842 -0.3926  0.0625  0.0483
  950MOL0     C30983  11.189   2.185  10.864 -0.4032  0.2294  0.7814
  950MOL0     C30984  11.244   2.047  10.841  0.1613  0.2752 -0.5245
  950MOL0     C30985  11.142   1.942  10.838  0.7713  0.6707 -0.0640
  950MOL0     O30986  11.093   1.900  10.963 -0.3112 -0.2112  0.0613
  950MOL0     C30987  10.997   1.806  10.968  0.0724  0.1960  0.3458
  950MOL0     C30988  10.972   1.721  10.863 -0.1214 -0.9966 -0.2339
  950MOL0     C30989  10.877   1.623  10.882  0.0767  0.0880  0.1447
  950MOL0     C30990  10.850   1.531  10.757  1.1967 -0.7794 -0.0977
  950MOL0     C30991  10.801   1.618  10.999 -0.1000 -0.7716 -0.3788
  950MOL0     C30992  10.716   1.500  11.033  0.5493 -0.2044 -0.5021
  950MOL0     O30993  10.615   1.536  11.115  0.0620  0.8681  0.0721
  950MOL0     C30994  10.519   1.447  11.166 -0.6249 -1.0288  0.3765
  950MOL0     C30995  10.444   1.369  11.088  0.1487 -0.3898  0.0757
  950MOL0     C30996  10.355   1.282  11.150 -0.5209 -0.4273  0.5397
  950MOL0     C30997  10.343   1.284  11.292 -0.8788 -0.6195  0.5513
  950MOL0     O30998  10.248   1.205  11.342 -0.3069  0.1090 -0.2467
  950MOL0     C30999  10.235   1.204  11.484  0.4209  0.9962  1.0237
  950MOL0     C31000  10.111   1.132  11.536  0.4099  0.3019 -0.6025
  950MOL0     C31001  10.136   0.981  11.511  0.2139 -0.6599  0.0033
  950MOL0     C31002  10.174   0.893  11.639 -0.4830  0.2909 -0.7836
  950MOL0     C31003  10.324   0.911  11.680  0.4333 -0.4149  0.0013
  950MOL0     C31004  10.343   0.894  11.837  0.1626  1.0095  0.2625
  950MOL0     C31005  10.289   1.014  11.914 -0.1743  0.9983 -0.2325
  950MOL0     C31006  10.302   0.997  12.069  1.1779 -0.1564  0.0981
  950MOL0    Cl31007  10.480   0.993  12.119 -0.0833 -0.2765  0.0039
  950MOL0     C31008  10.417   1.373  11.365 -0.2689 -0.1010 -0.2861
  950MOL0     C31009  10.511   1.455  11.304  0.2011 -0.0471 -0.2891
  950MOL0     O31010  10.737   1.379  11.007 -0.2910 -0.4620  0.1422
  950MOL0     C31011  10.817   1.719  11.099 -0.3851  0.7508  0.9487
  950MOL0     C31012  10.923   1.804  11.089 -0.0051  0.2547 -0.4699
  950MOL0     N31013  11.434   2.220  10.636  0.4041  0.6391  0.1787
  950MOL0     N31014  11.451   2.257  10.513 -0.0492 -0.3353  0.2002
  950MOL0     C31015  10.941   3.062  10.197 -0.1033 -0.5114 -0.7942
  950MOL0     C31016  10.823   3.099  10.258  0.1777 -0.6261 -0.1743
  950MOL0     C31017  10.416   3.169  10.410 -0.4280  0.3306 -0.5654
  950MOL0     C31018  10.428   3.301  10.437 -0.0357 -1.4455  0.0127
  950MOL0     C31019  10.315   3.370  10.478  0.2137 -0.0450  0.0789
  950MOL0     C31020  10.191   3.309  10.519 -0.0808 -0.2134 -0.1916
  950MOL0     O31021  10.097   3.394  10.569 -0.7742 -0.7848 -0.1204
  950MOL0     C31022   9.986   3.337  10.637 -0.2733  0.5568 -0.4985
  950MOL0     C31023   9.912   3.450  10.709  0.2745  0.6447 -1.0795
  950MOL0     C31024   9.861   3.571  10.622  0.7209 -0.6264  0.5472
  950MOL0     C31025   9.846   3.707  10.696  0.4256  0.6695 -0.2997
  950MOL0     C31026   9.979   3.760  10.719 -0.5282  0.0992  0.7011
  950MOL0     C31027  10.094   3.804  10.733 -0.1570  0.3723  0.0482
  950MOL0     C31028  10.189   3.171  10.496 -0.1756  0.1196 -0.6937
  950MOL0     C31029  10.293   3.105  10.432 -0.0770  0.3665 -0.8596
  950MOL0     C31030  10.274   2.957  10.400  0.1374  0.2311  0.4005
  950MOL0     H31031  10.638   3.138   9.976 -0.7734  0.8281  0.7230
  950MOL0     H31032  10.853   3.097   9.876  2.0722 -1.8474 -0.0969
  950MOL0     H31033  11.185   2.957   9.855  0.7498 -2.9468 -0.7273
  950MOL0     H31034  11.015   3.007   9.811  0.3312  2.3017  1.0714
  950MOL0     H31035  10.915   2.812   9.890 -0.2383 -0.1938  1.8525
  950MOL0     H31036  11.054   2.782   9.783  0.2942 -0.9587 -0.0776
  950MOL0     H31037  11.093   2.610   9.925  1.5452 -0.8108  1.2294
  950MOL0     H31038  11.181   2.733  10.019  0.5572 -2.7214 -1.0584
  950MOL0     H31039  11.016   2.751  10.176  0.5693 -0.2687 -1.0625
  950MOL0     H31040  10.893   2.664  10.087  0.0115  0.3221  0.7273
  950MOL0     H31041  11.042   2.458  10.087  2.9775  0.3229 -1.9400
  950MOL0     H31042  10.974   2.499  10.252  2.7061 -1.0680  1.6425
  950MOL0     H31043  11.247   2.539  10.121  1.9019 -0.9867 -0.1909
  950MOL0     H31044  11.200   2.632  10.261  2.8753 -2.1953  1.8290
  950MOL0     H31045  11.207   2.317  10.263  2.3330 -1.1618  0.6779
  950MOL0     H31046  11.157   2.420  10.397  0.1020  2.1368 -0.4991
  950MOL0     H31047  11.443   2.374  10.301 -0.5406 -2.9686  1.4020
  950MOL0     H31048  11.400   2.532  10.382  0.2528  0.1037 -0.2165
  950MOL0     H31049  11.222   2.476  10.610 -0.5722 -0.5273  0.2957
  950MOL0     H31050  11.274   2.395  10.881  0.7121  1.2187 -2.0708
  950MOL0     H31051  11.383   2.262  10.900  1.0466  1.9080 -0.8981
  950MOL0     H31052  11.146   2.199  10.963  0.9779  0.2376  1.4134
  950MOL0     H31053  11.115   2.208  10.788  1.0525 -1.5473 -1.3105
  950MOL0     H31054  11.301   2.032  10.750  1.2878 -3.0033  0.5834
  950MOL0     H31055  11.310   2.006  10.918  0.1054  1.6562  0.2928
  950MOL0     H31056  11.067   1.973  10.764  0.6935 -1.4830 -0.9761
  950MOL0     H31057  11.200   1.863  10.790  0.3736  0.9402 -1.0358
  950MOL0     H31058  11.037   1.722  10.776  0.1290  1.3878 -0.0778
  950MOL0     H31059  10.857   1.582  10.661 -0.5024  0.1806  0.2560
  950MOL0     H31060  10.752   1.486  10.774 -1.3998  3.7916 -1.3816
  950MOL0     H31061  10.924   1.451  10.767 -0.0215 -1.6642  3.4004
  950MOL0     H31062  10.458   1.343  10.983 -0.1396 -3.1678  0.6361
  950MOL0     H31063  10.295   1.213  11.091  1.1980 -1.6609  0.1838
  950MOL0     H31064  10.328   1.164  11.525  0.0153 -0.7818  0.2996
  950MOL0     H31065  10.226   1.304  11.528  0.4775  0.7652  1.5731
  950MOL0     H31066  10.100   1.143  11.644  0.7298  2.1550 -0.7273
  950MOL0     H31067  10.023   1.179  11.491  0.1423  0.8171  0.4319
  950MOL0     H31068  10.203   0.964  11.425  0.7541  0.7639  0.1185
  950MOL0     H31069  10.036   0.944  11.484 -1.6765  2.6927  1.8639
  950MOL0     H31070  10.171   0.788  11.609  3.2353 -0.6959  1.6047
  950MOL0     H31071  10.105   0.905  11.723  1.3560  0.7386  0.7309
  950MOL0     H31072  10.379   0.832  11.628  1.5210  0.1733  0.2468
  950MOL0     H31073  10.361   1.008  11.646 -3.8764  1.7224  0.6340
  950MOL0     H31074  10.452   0.888  11.842  0.0642 -0.4527  1.6930
  950MOL0     H31075  10.299   0.798  11.866  0.5214  0.2805 -1.4763
  950MOL0     H31076  10.183   1.034  11.892 -0.1753  1.4303  0.1506
  950MOL0     H31077  10.344   1.105  11.892  3.6596  0.0331  3.9829
  950MOL0     H31078  10.252   0.902  12.092 -1.0494  0.3121 -2.3360
  950MOL0     H31079  10.244   1.068  12.128  2.1132 -0.4072  1.3593
  950MOL0     H31080  10.406   1.388  11.472 -4.7501 -0.6430 -0.4862
  950MOL0     H31081  10.570   1.534  11.349  0.8253  0.7820 -2.4319
  950MOL0     H31082  10.774   1.717  11.199 -0.6571 -0.0812  0.8189
  950MOL0     H31083  10.950   1.869  11.171  0.0508  0.8102 -0.9226
  950MOL0     H31084  11.028   3.040  10.259  0.1000 -0.3401 -1.0127
  950MOL0     H31085  10.805   3.093  10.365 -0.0956 -2.4461 -0.2839
  950MOL0     H31086  10.511   3.362  10.404 -0.8330 -0.9684 -1.1749
  950MOL0     H31087  10.317   3.478  10.486 -1.6700  0.0821 -0.5499
  950MOL0     H31088   9.919   3.297  10.560 -1.0300  1.7162 -0.4645
  950MOL0     H31089  10.016   3.272  10.720  0.2397 -1.4264 -2.1609
  950MOL0     H31090   9.990   3.487  10.775 -1.3584 -1.8707  2.5744
  950MOL0     H31091   9.834   3.412  10.776  0.8047 -1.4856 -1.5911
  950MOL0     H31092   9.938   3.587  10.545 -1.5445 -0.1409 -1.7352
  950MOL0     H31093   9.770   3.545  10.567  0.5909  2.4319 -0.9092
  950MOL0     H31094   9.797   3.696  10.793  1.6212  1.5841  0.4345
  950MOL0     H31095   9.794   3.773  10.626  1.9700 -1.1545 -3.4050
  950MOL0     H31096  10.181   3.864  10.754 -0.8292  1.7738 -0.9950
  950MOL0     H31097  10.113   3.100  10.528 -0.8330  0.5588 -1.2509
  950MOL0     H31098  10.209   2.945  10.314  1.0886 -1.9886 -0.0768
  950MOL0     H31099  10.369   2.905  10.382 -0.2922  0.3619 -2.7302
  950MOL0     H31100  10.220   2.899  10.475  1.2113  0.1867  1.1722
  951MOL0     O31101   6.070   7.373   5.516 -0.0151  0.3551  0.3300
  951MOL0     C31102   6.039   7.410   5.407  0.3912  0.3218 -0.0614
  951MOL0     O31103   6.105   7.512   5.334  0.6855 -0.4039 -0.3110
  951MOL0     C31104   6.236   7.505   5.347  0.0719  0.1713 -0.5064
  951MOL0     C31105   6.301   7.602   5.425 -0.0942  0.5313 -0.3462
  951MOL0     C31106   6.444   7.604   5.414  0.2938 -0.2810  0.4994
  951MOL0     C31107   6.510   7.501   5.358  1.1740  0.1632  0.4598
  951MOL0     O31108   6.644   7.493   5.341  0.1012  0.1540 -0.1053
  951MOL0     C31109   6.719   7.590   5.405  0.3004  0.0863  0.1175
  951MOL0     C31110   6.749   7.537   5.544 -0.6992 -0.0920 -0.0002
  951MOL0     C31111   6.850   7.629   5.599 -0.1130  0.6060 -0.8046
  951MOL0     C31112   6.915   7.571   5.724 -0.2746 -0.8657  0.6816
  951MOL0     C31113   6.815   7.553   5.839 -1.1482 -0.7194 -0.5579
  951MOL0     C31114   6.885   7.539   5.971  0.1170  0.6470  0.6439
  951MOL0     C31115   6.780   7.512   6.085  0.1681 -0.1436 -0.3445
  951MOL0     C31116   6.711   7.642   6.129  0.0746  0.5906  0.2771
  951MOL0     N31117   6.808   7.713   6.215 -0.3873 -0.0581 -0.3516
  951MOL0     C31118   6.841   7.689   6.352  1.0717 -0.9920 -0.2060
  951MOL0     C31119   6.891   7.808   6.400 -0.5927 -0.6018 -1.0534
  951MOL0     C31120   6.921   7.845   6.544  0.9834 -0.6336 -0.3904
  951MOL0     C31121   7.075   7.865   6.583 -0.5952 -0.4840  1.1918
  951MOL0     C31122   7.097   7.964   6.699  0.0572  0.6652 -0.3393
  951MOL0     C31123   7.045   7.925   6.836 -0.2856  0.5048 -0.2075
  951MOL0     O31124   6.918   7.867   6.825 -0.9353 -0.6649  0.2468
  951MOL0     C31125   6.856   7.832   6.940  0.9778 -0.8270  1.4207
  951MOL0     C31126   6.726   7.789   6.915 -0.2501 -0.3763  0.6568
  951MOL0     C31127   6.637   7.758   7.019 -0.8153 -0.5046  0.2628
  951MOL0     C31128   6.497   7.706   6.991 -0.3108  0.3419  0.0271
  951MOL0     C31129   6.684   7.767   7.152 -0.9317 -0.2541  0.1683
  951MOL0     C31130   6.621   7.712   7.266 -0.1473 -0.8071 -0.2113
  951MOL0     O31131   6.613   7.796   7.379 -0.4471  0.0991  0.4598
  951MOL0     C31132   6.595   7.751   7.500  0.4577  0.0177 -0.7972
  951MOL0     C31133   6.594   7.616   7.546 -0.0139  0.5824 -0.4596
  951MOL0     C31134   6.571   7.574   7.680 -0.9346  0.7788 -0.3497
  951MOL0     C31135   6.559   7.673   7.780  0.3763 -0.3283 -0.1946
  951MOL0     O31136   6.527   7.653   7.911  0.0009  0.5937  0.0315
  951MOL0     C31137   6.535   7.522   7.965 -0.5428 -0.0756  0.0180
  951MOL0     C31138   6.409   7.503   8.053 -0.0482 -0.2192  0.1431
  951MOL0     C31139   6.367   7.368   8.107 -0.7831  0.5548 -0.3726
  951MOL0     C31140   6.478   7.275   8.150  0.0982 -0.7127 -0.2509
  951MOL0     C31141   6.565   7.326   8.269 -0.2707 -0.8434 -0.3879
  951MOL0     C31142   6.641   7.205   8.322  0.1971  0.4043  0.7617
  951MOL0     C31143   6.745   7.237   8.428 -0.6911 -0.4106 -0.0874
  951MOL0     C31144   6.873   7.289   8.371  0.5868  0.5242 -0.3227
  951MOL0    Cl31145   6.976   7.339   8.505 -0.3249  0.0403  0.0169
  951MOL0     C31146   6.556   7.809   7.737 -0.4451  0.5929 -0.3604
  951MOL0     C31147   6.580   7.851   7.598 -0.4162 -0.1072  0.6588
  951MOL0     O31148   6.578   7.599   7.261 -0.6462 -0.1878 -0.7682
  951MOL0     C31149   6.810   7.818   7.182  0.0485  0.2564 -0.4817
  951MOL0     C31150   6.894   7.851   7.074 -0.2409 -0.3100  0.3193
  951MOL0     N31151   6.913   7.889   6.287  0.2153  0.2440 -0.3186
  951MOL0     N31152   6.865   7.828   6.176 -0.2420 -0.3586 -0.4590
  951MOL0     C31153   6.435   7.385   5.314  0.0692 -0.1570  0.2089
  951MOL0     C31154   6.298   7.385   5.296  0.3825 -0.4672 -0.4116
  951MOL0     C31155   5.936   7.349   5.319  0.2673  0.4651 -0.1753
  951MOL0     C31156   5.883   7.417   5.210  0.4417 -0.7654  1.1699
  951MOL0     C31157   5.780   7.366   5.130 -0.1152 -0.1575  0.1237
  951MOL0     C31158   5.721   7.241   5.165  0.6979  0.3801 -0.1477
  951MOL0     O31159   5.622   7.173   5.101  0.2669  0.5089  0.3959
  951MOL0     C31160   5.581   7.199   4.960  0.8236 -0.4521  0.0043
  951MOL0     C31161   5.428   7.166   4.945 -0.2763 -0.2685 -0.9383
  951MOL0     C31162   5.336   7.260   5.038  0.3712  0.9027 -0.3400
  951MOL0     C31163   5.190   7.204   5.046  0.2113 -0.1088 -0.6319
  951MOL0     C31164   5.114   7.270   5.154 -0.6714 -0.2312  0.4161
  951MOL0     C31165   5.048   7.318   5.246 -0.9570 -0.6561  1.0078
  951MOL0     C31166   5.767   7.177   5.283  0.4340  0.2099 -0.1618
  951MOL0     C31167   5.882   7.218   5.346 -1.0412  0.1902 -0.7171
  951MOL0     C31168   5.920   7.135   5.464 -0.4678 -0.2673  0.2143
  951MOL0     H31169   6.256   7.691   5.468  2.8804  2.7708 -1.5486
  951MOL0     H31170   6.488   7.696   5.450 -0.8547  0.3598  0.3341
  951MOL0     H31171   6.684   7.693   5.412 -0.7153 -0.2516  0.2034
  951MOL0     H31172   6.809   7.599   5.343 -1.1535  2.0681 -1.8892
  951MOL0     H31173   6.671   7.534   5.620  0.3669 -0.1287  1.1186
  951MOL0     H31174   6.779   7.432   5.535  1.5836  0.5444 -0.4458
  951MOL0     H31175   6.923   7.643   5.519 -1.1618  1.1912 -1.6675
  951MOL0     H31176   6.808   7.726   5.626 -2.4107 -0.6755  0.5816
  951MOL0     H31177   6.983   7.489   5.697  2.2033  1.9463 -2.4718
  951MOL0     H31178   6.976   7.658   5.751 -1.4022 -0.9288  3.9423
  951MOL0     H31179   6.754   7.463   5.827  0.9249 -2.3667  0.5818
  951MOL0     H31180   6.756   7.645   5.848  3.1556  2.1955  0.6840
  951MOL0     H31181   6.956   7.457   5.961 -0.7880 -0.1911  0.9247
  951MOL0     H31182   6.945   7.629   5.982  0.3422  0.9246 -2.1072
  951MOL0     H31183   6.843   7.472   6.166  2.6893 -0.5670 -2.3763
  951MOL0     H31184   6.706   7.442   6.045 -1.9102  1.8332 -0.1682
  951MOL0     H31185   6.687   7.706   6.044 -1.5679 -0.0393  0.2477
  951MOL0     H31186   6.626   7.616   6.192 -0.5665  0.5368 -0.5978
  951MOL0     H31187   6.816   7.601   6.410  1.7051  0.0956  1.8383
  951MOL0     H31188   6.873   7.771   6.608 -2.1529  1.8481  0.4260
  951MOL0     H31189   6.862   7.933   6.573 -0.0042 -1.7722  1.2171
  951MOL0     H31190   7.118   7.766   6.596 -1.8467 -1.5179 -1.6065
  951MOL0     H31191   7.137   7.901   6.501  0.1652 -2.2579  0.9534
  951MOL0     H31192   7.205   7.981   6.710 -0.0661  1.5804 -0.4286
  951MOL0     H31193   7.061   8.060   6.662 -0.1708 -0.1039 -2.2073
  951MOL0     H31194   7.111   7.856   6.889 -1.9342  0.1714  1.5376
  951MOL0     H31195   7.037   8.016   6.896  0.2975  2.1823 -2.5228
  951MOL0     H31196   6.684   7.779   6.815 -1.6331  0.3383  1.1386
  951MOL0     H31197   6.488   7.714   6.882 -0.6849 -1.9747 -0.1519
  951MOL0     H31198   6.411   7.761   7.030 -0.0245  0.4932  0.4598
  951MOL0     H31199   6.489   7.600   7.013 -1.6104  0.4772  0.2550
  951MOL0     H31200   6.594   7.529   7.481  0.9913 -0.5622  1.0146
  951MOL0     H31201   6.558   7.469   7.703 -1.0616  0.1636 -2.8625
  951MOL0     H31202   6.538   7.438   7.895 -1.4000  0.0984 -0.2379
  951MOL0     H31203   6.625   7.513   8.027 -0.8822  2.3667  0.9904
  951MOL0     H31204   6.418   7.569   8.140 -1.5501 -1.8524  1.5945
  951MOL0     H31205   6.327   7.554   8.001 -1.0500 -1.1931  0.7316
  951MOL0     H31206   6.313   7.314   8.029 -0.8918  1.3183 -0.8368
  951MOL0     H31207   6.304   7.375   8.196 -0.6768 -2.4986  0.0280
  951MOL0     H31208   6.542   7.247   8.065  0.4465 -1.5098  0.2589
  951MOL0     H31209   6.429   7.183   8.184  1.1350 -1.8273 -1.6271
  951MOL0     H31210   6.633   7.408   8.246 -1.2438  0.1127  0.0689
  951MOL0     H31211   6.497   7.367   8.345 -0.0358  0.0212 -0.6389
  951MOL0     H31212   6.686   7.147   8.241 -0.1174  2.1737 -0.7464
  951MOL0     H31213   6.568   7.148   8.380  1.9450 -0.9323  1.7189
  951MOL0     H31214   6.784   7.148   8.477 -0.0806 -0.3108 -0.3747
  951MOL0     H31215   6.702   7.304   8.503  0.2232 -1.0664  1.0448
  951MOL0     H31216   6.856   7.372   8.302 -0.0468 -2.6507 -4.3498
  951MOL0     H31217   6.923   7.210   8.315 -0.4223 -2.1184  2.2585
  951MOL0     H31218   6.538   7.889   7.808  1.0240  1.0261 -0.4615
  951MOL0     H31219   6.565   7.957   7.579  0.1244  0.3028  2.3937
  951MOL0     H31220   6.865   7.820   7.276  0.7122 -0.8502 -0.8227
  951MOL0     H31221   6.987   7.903   7.093  0.5133 -1.5320  0.0096
  951MOL0     H31222   6.499   7.301   5.291  1.1293  0.3497  1.2306
  951MOL0     H31223   6.244   7.313   5.235  2.5000 -0.4368 -2.4870
  951MOL0     H31224   5.919   7.515   5.182 -0.9050 -0.8605 -1.2658
  951MOL0     H31225   5.748   7.421   5.042  1.0071  0.9893  0.4074
  951MOL0     H31226   5.589   7.307   4.947  0.0622 -0.3113  0.6075
  951MOL0     H31227   5.641   7.144   4.887  0.0582 -0.6296 -0.5017
  951MOL0     H31228   5.418   7.060   4.971  0.9574 -0.4624 -1.2015
  951MOL0     H31229   5.385   7.168   4.844  2.3641  0.1316 -2.1501
  951MOL0     H31230   5.383   7.267   5.137 -2.1580 -0.5001  1.0707
  951MOL0     H31231   5.335   7.361   4.998  2.8082 -0.0074 -3.0167
  951MOL0     H31232   5.193   7.100   5.080 -1.1716  0.3244  0.9268
  951MOL0     H31233   5.134   7.209   4.953 -0.5380 -1.9166 -0.3037
  951MOL0     H31234   4.980   7.371   5.310  0.1196  1.4808  0.4776
  951MOL0     H31235   5.716   7.082   5.295  0.5577  0.2815  1.0057
  951MOL0     H31236   5.858   7.163   5.550 -0.6732  1.5579 -0.4788
  951MOL0     H31237   5.901   7.028   5.449  0.9455 -0.9473  2.7134
  951MOL0     H31238   6.025   7.143   5.494 -1.0127  1.7317  1.8320
  952MOL0     O31239   9.929   0.485   4.644 -0.7597  1.0502  0.3786
  952MOL0     C31240   9.860   0.560   4.582  0.7403  0.2956 -0.1368
  952MOL0     O31241   9.889   0.687   4.550  0.0142  0.3946  0.3758
  952MOL0     C31242  10.021   0.728   4.576  0.1774 -0.1292 -0.6654
  952MOL0     C31243  10.058   0.816   4.686  0.3669  0.2935  0.3606
  952MOL0     C31244  10.188   0.860   4.700 -0.4830 -0.7358 -0.0228
  952MOL0     C31245  10.283   0.815   4.604  0.0162 -0.3649  0.2704
  952MOL0     O31246  10.423   0.849   4.614  0.5855 -0.6451  0.5271
  952MOL0     C31247  10.459   0.964   4.527  0.0881  0.0624  0.0777
  952MOL0     C31248  10.432   1.087   4.616  0.8494  0.6183  0.2894
  952MOL0     C31249  10.511   1.071   4.759 -0.1961 -0.4565 -0.4665
  952MOL0     C31250  10.621   1.179   4.793  0.4619  0.1297 -0.2840
  952MOL0     C31251  10.715   1.140   4.905 -0.2535 -0.2092  0.0957
  952MOL0     C31252  10.701   1.246   5.023 -0.2716  0.6057 -0.4542
  952MOL0     C31253  10.791   1.209   5.151  0.0730  0.8013  0.0569
  952MOL0     C31254  10.784   1.331   5.246 -0.7951  0.2785 -0.1206
  952MOL0     N31255  10.821   1.463   5.195  0.1280 -0.3746 -0.1005
  952MOL0     C31256  10.928   1.492   5.119 -0.2523 -0.0275 -0.2492
  952MOL0     C31257  10.902   1.613   5.068  0.3912 -0.3089 -0.3056
  952MOL0     C31258  10.969   1.711   4.977 -0.5481 -0.8297 -0.9457
  952MOL0     C31259  11.109   1.753   5.038  1.2293 -0.4210  0.5283
  952MOL0     C31260  11.063   1.869   5.124 -0.9136  0.0948  0.5525
  952MOL0     C31261  11.187   1.912   5.214  0.1649 -0.0616  1.0164
  952MOL0     O31262  11.253   1.802   5.274  0.5073 -0.2209  0.1103
  952MOL0     C31263  11.380   1.772   5.233 -0.4915  0.1110  0.2992
  952MOL0     C31264  11.464   1.688   5.313  0.2514  1.0786  1.0389
  952MOL0     C31265  11.589   1.642   5.265 -0.0779 -0.2248  0.2788
  952MOL0     C31266  11.654   1.545   5.345 -1.1040  0.2594 -0.0097
  952MOL0     C31267  11.644   1.692   5.147 -0.1512 -0.3471  0.5030
  952MOL0     C31268  11.787   1.682   5.100 -0.4997  0.6409 -0.1154
  952MOL0     O31269  11.885   1.647   5.192 -0.3756 -0.2175  0.2645
  952MOL0     C31270  12.011   1.662   5.156  0.0333 -0.0826  0.0015
  952MOL0     C31271  12.063   1.597   5.039  0.3175 -0.4390 -0.4636
  952MOL0     C31272  12.186   1.626   4.996 -0.1844 -0.7135 -0.3468
  952MOL0     C31273  12.271   1.722   5.063 -0.1208  0.2193 -0.1594
  952MOL0     O31274  12.393   1.764   5.020  0.0459  0.2261  0.8322
  952MOL0     C31275  12.452   1.708   4.905  0.9528 -0.2904  0.0635
  952MOL0     C31276  12.600   1.755   4.913  0.2423 -0.4033  0.0825
  952MOL0     C31277  12.687   1.678   4.826 -0.6155  1.0991  0.2518
  952MOL0     C31278  12.634   1.698   4.680 -0.1969 -0.0946  1.0931
  952MOL0     C31279  12.718   1.613   4.582 -1.0573 -0.1035  0.3695
  952MOL0     C31280  12.661   1.600   4.434 -0.3988 -0.2960 -0.8821
  952MOL0     C31281  12.761   1.506   4.360 -0.1170 -0.5501  0.5492
  952MOL0     C31282  12.745   1.351   4.384 -0.7718 -0.5801 -0.3319
  952MOL0    Cl31283  12.840   1.283   4.244 -0.4078  0.0705 -0.2116
  952MOL0     C31284  12.220   1.781   5.187 -0.9862  0.1780  0.5950
  952MOL0     C31285  12.091   1.756   5.225  0.6031  0.0037 -0.2316
  952MOL0     O31286  11.809   1.693   4.979 -0.5749  0.5658 -0.9159
  952MOL0     C31287  11.554   1.759   5.063 -0.3202 -0.3558  0.5178
  952MOL0     C31288  11.430   1.805   5.111  0.0577 -0.2698  0.0222
  952MOL0     N31289  10.784   1.660   5.132 -0.3486  0.3008 -0.3948
  952MOL0     N31290  10.739   1.565   5.206  0.3922  0.2956 -0.7639
  952MOL0     C31291  10.246   0.739   4.491  0.2999  1.2750  0.4977
  952MOL0     C31292  10.119   0.688   4.478 -0.1007 -0.1758  0.9255
  952MOL0     C31293   9.732   0.507   4.530  1.0799 -0.5034 -0.4249
  952MOL0     C31294   9.636   0.606   4.485  0.2008  0.4303  1.3891
  952MOL0     C31295   9.514   0.561   4.438  0.2973 -0.3635  0.0654
  952MOL0     C31296   9.477   0.433   4.420 -0.5565  0.1361  0.6676
  952MOL0     O31297   9.346   0.400   4.364 -0.2161 -0.9129 -0.0085
  952MOL0     C31298   9.315   0.283   4.288 -0.0008  0.3935 -0.6431
  952MOL0     C31299   9.335   0.320   4.141  0.4543  0.0532  0.0448
  952MOL0     C31300   9.224   0.423   4.093 -0.0104 -0.0566 -0.4367
  952MOL0     C31301   9.211   0.442   3.938 -1.3742 -0.5934 -0.2983
  952MOL0     C31302   9.343   0.456   3.869  0.2974  0.5108  0.0278
  952MOL0     C31303   9.443   0.467   3.801  0.0137  0.3646  0.7558
  952MOL0     C31304   9.575   0.339   4.458  0.6673 -0.5581 -0.5085
  952MOL0     C31305   9.694   0.367   4.524  0.3061 -0.4830 -0.8305
  952MOL0     C31306   9.794   0.261   4.563 -0.3648 -0.3801 -0.5091
  952MOL0     H31307   9.978   0.857   4.747 -4.0784 -2.4680 -2.9349
  952MOL0     H31308  10.217   0.928   4.779 -2.4355  3.6154 -2.6472
  952MOL0     H31309  10.382   0.951   4.451 -1.5842  3.3374  1.0491
  952MOL0     H31310  10.559   0.967   4.482  1.2214 -0.9102  2.3876
  952MOL0     H31311  10.455   1.186   4.575  0.9163  2.1203  3.6001
  952MOL0     H31312  10.325   1.093   4.641  0.9620  0.0652  0.9312
  952MOL0     H31313  10.441   1.095   4.840  0.2129  0.0408 -0.2550
  952MOL0     H31314  10.555   0.972   4.772  0.8203 -0.1075 -1.1874
  952MOL0     H31315  10.677   1.203   4.703 -0.7297  1.0318 -0.8172
  952MOL0     H31316  10.568   1.274   4.807  1.8764  1.2395 -2.0921
  952MOL0     H31317  10.819   1.138   4.871  0.5430  3.0708  1.9811
  952MOL0     H31318  10.683   1.044   4.946 -3.0586  0.3945 -0.4694
  952MOL0     H31319  10.732   1.339   4.975 -0.2558  1.4580  1.1172
  952MOL0     H31320  10.598   1.255   5.060  0.8008 -0.1074  3.0727
  952MOL0     H31321  10.897   1.189   5.136  0.3872 -0.3553  3.1331
  952MOL0     H31322  10.743   1.119   5.191  0.4530 -0.3543 -1.9083
  952MOL0     H31323  10.680   1.332   5.280 -1.4559 -2.4574 -1.7320
  952MOL0     H31324  10.845   1.304   5.333 -2.4709 -5.4164 -0.2964
  952MOL0     H31325  11.015   1.430   5.100 -0.3640  0.0600 -1.0614
  952MOL0     H31326  10.914   1.803   4.956  0.6215 -0.0570 -0.7196
  952MOL0     H31327  10.985   1.668   4.878 -0.5027  0.5363 -1.5546
  952MOL0     H31328  11.150   1.668   5.094  1.6808 -0.7858 -0.3363
  952MOL0     H31329  11.178   1.793   4.964 -0.9250  0.1466 -1.2756
  952MOL0     H31330  11.043   1.958   5.064  2.2836  1.4639  1.2828
  952MOL0     H31331  10.983   1.846   5.195 -0.1347  0.9886  1.7688
  952MOL0     H31332  11.252   1.978   5.155 -0.7155  0.8600  1.0419
  952MOL0     H31333  11.145   1.970   5.297 -0.1205  1.3932 -0.0932
  952MOL0     H31334  11.420   1.641   5.401  0.4468  0.2723  0.7184
  952MOL0     H31335  11.733   1.488   5.296 -0.2113  0.6891  0.8748
  952MOL0     H31336  11.591   1.479   5.406 -2.6491 -0.3063 -2.1120
  952MOL0     H31337  11.696   1.614   5.419  0.0281  3.5208 -3.3745
  952MOL0     H31338  12.007   1.531   4.974  0.2079  0.6889 -1.5468
  952MOL0     H31339  12.210   1.574   4.903 -1.6175 -3.4049  0.7068
  952MOL0     H31340  12.435   1.600   4.904  0.8294 -0.3155  1.5733
  952MOL0     H31341  12.393   1.744   4.821 -0.8543  1.9440  2.1174
  952MOL0     H31342  12.621   1.857   4.882  0.3865 -0.3481  0.3651
  952MOL0     H31343  12.618   1.747   5.020 -0.7143 -0.1640  0.2706
  952MOL0     H31344  12.692   1.570   4.848  2.7859  0.3388 -3.2594
  952MOL0     H31345  12.791   1.708   4.834 -0.0468 -0.4738 -0.7152
  952MOL0     H31346  12.637   1.802   4.648 -1.4734 -0.4576 -0.3188
  952MOL0     H31347  12.532   1.660   4.666 -0.0034  0.2847 -2.0452
  952MOL0     H31348  12.816   1.661   4.580 -0.6172 -0.9962  0.0403
  952MOL0     H31349  12.728   1.511   4.620 -1.1223  0.0434  0.7865
  952MOL0     H31350  12.658   1.706   4.410  1.4939  1.0887  3.9246
  952MOL0     H31351  12.557   1.566   4.429  0.1405 -1.9374 -2.9704
  952MOL0     H31352  12.864   1.526   4.390  0.3625  2.4756 -2.4410
  952MOL0     H31353  12.751   1.535   4.255 -2.4027 -0.8905  0.6109
  952MOL0     H31354  12.639   1.329   4.368 -1.4040  2.6203 -1.3838
  952MOL0     H31355  12.774   1.322   4.486  0.7612 -3.1528 -1.4326
  952MOL0     H31356  12.278   1.849   5.249  0.3725  0.9794 -1.4626
  952MOL0     H31357  12.055   1.806   5.315  0.7054  0.5957 -0.5183
  952MOL0     H31358  11.595   1.789   4.966 -0.7658  1.1271  0.7649
  952MOL0     H31359  11.367   1.865   5.047  0.3181  0.2614  0.2584
  952MOL0     H31360  10.324   0.709   4.422 -0.4062  0.5231  0.0052
  952MOL0     H31361  10.081   0.636   4.390  3.1724 -1.2523 -0.0018
  952MOL0     H31362   9.657   0.711   4.499 -1.6197  0.8975  0.9417
  952MOL0     H31363   9.447   0.641   4.406 -1.9785 -0.3645  4.1468
  952MOL0     H31364   9.374   0.194   4.314 -0.0277  0.5409 -0.0665
  952MOL0     H31365   9.211   0.254   4.300 -0.3072  1.0802 -1.5020
  952MOL0     H31366   9.318   0.226   4.088  1.2208 -2.1604  3.4347
  952MOL0     H31367   9.437   0.357   4.126 -0.4082  2.7680  0.3525
  952MOL0     H31368   9.130   0.393   4.138  0.7934  0.3718  1.6646
  952MOL0     H31369   9.246   0.524   4.130  0.0971  0.9573 -3.0351
  952MOL0     H31370   9.150   0.529   3.914 -0.4150  0.0928 -0.3203
  952MOL0     H31371   9.161   0.351   3.903  2.4745 -2.6421 -1.0940
  952MOL0     H31372   9.532   0.481   3.743  1.2885  2.1177  2.9988
  952MOL0     H31373   9.550   0.240   4.423 -2.6214  0.2769 -0.8409
  952MOL0     H31374   9.757   0.158   4.553 -0.1954 -0.8061  2.4067
  952MOL0     H31375   9.884   0.267   4.500 -2.2592 -0.5932 -3.4533
  952MOL0     H31376   9.810   0.271   4.670 -0.2148  3.9423 -0.7608
  953MOL0     O31377   4.492   6.982   0.746  0.1949  0.1588  0.0095
  953MOL0     C31378   4.456   6.933   0.642 -0.2976 -0.1324 -0.0317
  953MOL0     O31379   4.430   6.802   0.626 -0.2363 -0.1897  0.0983
  953MOL0     C31380   4.457   6.691   0.710 -0.6218 -0.4747  0.2683
  953MOL0     C31381   4.435   6.566   0.653 -0.6374 -0.6597  0.7775
  953MOL0     C31382   4.472   6.446   0.719  0.4965 -0.3132 -0.0004
  953MOL0     C31383   4.541   6.463   0.842 -0.3371 -0.4009  0.0062
  953MOL0     O31384   4.577   6.349   0.915 -0.0391  0.0186  0.1791
  953MOL0     C31385   4.642   6.245   0.858 -0.5536  0.4591  0.3247
  953MOL0     C31386   4.564   6.111   0.866  0.3108  0.2740  0.2907
  953MOL0     C31387   4.561   6.069   1.014  0.8565  0.3559 -0.3225
  953MOL0     C31388   4.693   6.039   1.079  0.0993  0.8324 -0.1196
  953MOL0     C31389   4.674   6.053   1.228  0.7921 -0.0932 -0.7952
  953MOL0     C31390   4.798   5.993   1.297  0.6730  0.1451 -0.7774
  953MOL0     C31391   4.785   6.025   1.443 -0.6014  0.2040  0.0307
  953MOL0     C31392   4.907   5.988   1.530  0.4128 -0.3516  0.0033
  953MOL0     N31393   4.923   5.840   1.536  0.7991  0.8035  0.7968
  953MOL0     C31394   4.860   5.765   1.633 -0.6644 -0.8862 -0.2744
  953MOL0     C31395   4.914   5.646   1.607  1.1999  0.1977 -0.0420
  953MOL0     C31396   4.884   5.532   1.697 -0.7192  0.2687  0.2483
  953MOL0     C31397   4.995   5.528   1.795  0.4190 -0.8606 -1.1885
  953MOL0     C31398   5.010   5.395   1.862  0.4619  0.1513  0.7690
  953MOL0     C31399   4.887   5.351   1.945  0.3824 -0.1560  0.8189
  953MOL0     O31400   4.873   5.419   2.071  0.1916  0.6059  0.2080
  953MOL0     C31401   4.746   5.414   2.120 -0.0474 -0.4829 -0.1479
  953MOL0     C31402   4.655   5.310   2.108  0.7357  0.5503  0.7994
  953MOL0     C31403   4.520   5.307   2.153  0.1188  0.3472  0.1259
  953MOL0     C31404   4.440   5.176   2.151 -0.2924 -0.6281  0.3513
  953MOL0     C31405   4.477   5.419   2.227  0.8579 -0.0806  0.4304
  953MOL0     C31406   4.346   5.439   2.268  0.0805  0.6304 -0.4054
  953MOL0     O31407   4.285   5.338   2.344  0.1556 -0.6224  0.3055
  953MOL0     C31408   4.151   5.339   2.370  0.3284 -0.3861  0.4076
  953MOL0     C31409   4.066   5.324   2.258 -0.8376 -0.4342  1.2313
  953MOL0     C31410   3.933   5.324   2.281 -0.7584 -0.4171 -0.0894
  953MOL0     C31411   3.871   5.335   2.402  0.3841  0.3042  0.1484
  953MOL0     O31412   3.737   5.355   2.407  0.0003 -0.7211 -0.1246
  953MOL0     C31413   3.698   5.450   2.508  0.1531  0.3570  0.2788
  953MOL0     C31414   3.588   5.537   2.455  0.7138 -0.2050  0.9531
  953MOL0     C31415   3.450   5.488   2.429  0.3795  0.9796  0.7961
  953MOL0     C31416   3.440   5.361   2.352 -0.1080 -0.2129 -0.3296
  953MOL0     C31417   3.303   5.312   2.300  0.2738 -0.5637  0.5289
  953MOL0     C31418   3.206   5.435   2.241  0.4285  0.3331 -0.7754
  953MOL0     C31419   3.089   5.375   2.162  0.3699  0.1121  0.1523
  953MOL0     C31420   2.959   5.338   2.241 -0.3380  0.3365  0.3493
  953MOL0    Cl31421   2.852   5.476   2.255  0.1578  0.3254  0.4712
  953MOL0     C31422   3.966   5.341   2.516  0.6525  0.4388  0.2553
  953MOL0     C31423   4.110   5.341   2.494  0.2692 -0.2267  0.3741
  953MOL0     O31424   4.297   5.548   2.250  0.8620  0.6690  0.0070
  953MOL0     C31425   4.561   5.530   2.236  0.2813  0.5483 -0.1117
  953MOL0     C31426   4.693   5.530   2.188 -0.8432 -0.0077  0.5779
  953MOL0     N31427   4.996   5.640   1.492 -0.5172  0.7783  0.0417
  953MOL0     N31428   5.006   5.761   1.458  0.1909 -0.4349  0.6325
  953MOL0     C31429   4.559   6.593   0.893 -0.8735  0.3522 -0.7231
  953MOL0     C31430   4.512   6.706   0.834 -0.5547  0.9836  0.0625
  953MOL0     C31431   4.426   7.032   0.527  0.1772  0.9819  0.7164
  953MOL0     C31432   4.452   6.999   0.394 -0.6793  0.5112  0.3046
  953MOL0     C31433   4.412   7.087   0.289  0.0928  0.3431  0.0932
  953MOL0     C31434   4.349   7.212   0.328 -0.4964  1.2173 -0.4148
  953MOL0     O31435   4.306   7.307   0.235  0.1880  0.5199 -0.0744
  953MOL0     C31436   4.305   7.283   0.096  0.5689  0.8599 -0.6398
  953MOL0     C31437   4.457   7.298   0.055  0.6406 -0.5145  0.1760
  953MOL0     C31438   4.485   7.428  -0.019 -0.0893 -0.0277  0.0320
  953MOL0     C31439   4.456   7.555   0.064  0.5896  0.3933  0.1049
  953MOL0     C31440   4.467   7.673  -0.020 -0.4767 -0.3815 -0.9350
  953MOL0     C31441   4.479   7.770  -0.083 -0.7666  0.4354  0.2860
  953MOL0     C31442   4.309   7.241   0.457 -0.0862 -0.9547  0.7109
  953MOL0     C31443   4.352   7.158   0.552  0.0200  1.1625 -0.2062
  953MOL0     C31444   4.304   7.199   0.692 -0.3926  0.3226  0.4557
  953MOL0     H31445   4.372   6.578   0.566 -2.4621  0.3603  2.1519
  953MOL0     H31446   4.455   6.345   0.684  1.7765 -0.0455 -1.4995
  953MOL0     H31447   4.737   6.239   0.912  1.6670  2.6630 -2.9914
  953MOL0     H31448   4.673   6.273   0.757  0.5534  0.0820  0.5458
  953MOL0     H31449   4.469   6.107   0.812  0.9336 -0.7505 -0.7561
  953MOL0     H31450   4.620   6.035   0.812 -0.8066  0.7755 -1.6639
  953MOL0     H31451   4.504   6.155   1.051 -0.6644 -0.1119 -1.4582
  953MOL0     H31452   4.491   5.986   1.024 -1.1446  1.7865 -1.6631
  953MOL0     H31453   4.712   5.934   1.055  0.0818  1.0703 -1.2265
  953MOL0     H31454   4.775   6.104   1.046  0.9065  0.5960  1.3569
  953MOL0     H31455   4.590   5.995   1.267  0.5109  2.1048  2.2082
  953MOL0     H31456   4.665   6.159   1.251 -0.7934 -0.4414  0.3201
  953MOL0     H31457   4.818   5.886   1.281 -1.7153 -0.3838 -0.4969
  953MOL0     H31458   4.891   6.039   1.260  1.1021  0.4086  0.5750
  953MOL0     H31459   4.706   5.963   1.485  1.5463 -1.5555  1.7883
  953MOL0     H31460   4.774   6.134   1.449  1.1339  0.4431 -0.5464
  953MOL0     H31461   4.997   6.048   1.513  1.7249 -0.5846  4.7362
  953MOL0     H31462   4.882   6.008   1.635  0.2802 -1.1926  0.1378
  953MOL0     H31463   4.789   5.804   1.705 -1.5461  2.9310 -2.8898
  953MOL0     H31464   4.902   5.461   1.616 -0.8264  1.3657 -0.7682
  953MOL0     H31465   4.786   5.541   1.746  1.1410  1.7731  4.1702
  953MOL0     H31466   5.093   5.555   1.753  0.7887 -1.7060 -0.8875
  953MOL0     H31467   4.975   5.599   1.875 -0.2921 -3.3931  1.0397
  953MOL0     H31468   5.031   5.319   1.786 -2.1985  0.8255 -0.7360
  953MOL0     H31469   5.086   5.404   1.940  1.6398 -3.5358  0.2505
  953MOL0     H31470   4.793   5.365   1.890 -0.5616  0.6881  2.5846
  953MOL0     H31471   4.896   5.242   1.949 -2.7376 -0.4864  1.4456
  953MOL0     H31472   4.677   5.213   2.064 -2.8180  0.1673 -0.4353
  953MOL0     H31473   4.489   5.118   2.230  1.9785  3.1732  2.0473
  953MOL0     H31474   4.439   5.113   2.062  1.9412 -0.9564  0.4867
  953MOL0     H31475   4.334   5.192   2.172 -0.1090  1.6974 -0.2043
  953MOL0     H31476   4.126   5.320   2.168 -0.2775  1.1108  1.5024
  953MOL0     H31477   3.875   5.339   2.191  0.2858  1.1517 -0.5487
  953MOL0     H31478   3.657   5.397   2.595  1.0156 -0.2571  0.3201
  953MOL0     H31479   3.779   5.522   2.520  0.9558 -0.3503 -0.7178
  953MOL0     H31480   3.566   5.614   2.530 -0.3612  0.6159 -0.1452
  953MOL0     H31481   3.622   5.599   2.371  0.1252  1.2492  1.7514
  953MOL0     H31482   3.403   5.562   2.364  1.2061  0.1741 -0.7937
  953MOL0     H31483   3.380   5.457   2.507 -1.6936 -3.1287 -2.2594
  953MOL0     H31484   3.494   5.278   2.399  1.8804 -0.1944 -2.3863
  953MOL0     H31485   3.499   5.381   2.261 -0.6825 -0.5248 -0.7806
  953MOL0     H31486   3.325   5.248   2.214 -0.3354  0.3847 -0.3623
  953MOL0     H31487   3.250   5.256   2.377 -2.2378  1.3249  0.3240
  953MOL0     H31488   3.279   5.489   2.180  0.6334  1.3242  0.3198
  953MOL0     H31489   3.169   5.498   2.322  3.2769  0.0306  0.9226
  953MOL0     H31490   3.114   5.282   2.110 -0.2450 -0.4213  0.7843
  953MOL0     H31491   3.058   5.444   2.084  0.1212 -0.9175 -0.6783
  953MOL0     H31492   2.978   5.308   2.344 -2.2158  0.1569  0.6928
  953MOL0     H31493   2.898   5.266   2.187 -0.7044 -0.3124  1.6014
  953MOL0     H31494   3.932   5.338   2.619  1.7717 -1.6763  0.6210
  953MOL0     H31495   4.185   5.351   2.572  2.5744  3.4511 -1.9831
  953MOL0     H31496   4.533   5.610   2.303  1.7337  0.2042  0.9503
  953MOL0     H31497   4.758   5.613   2.213 -0.1291 -0.7896  1.3737
  953MOL0     H31498   4.612   6.594   0.988  1.9312  0.8155 -2.1976
  953MOL0     H31499   4.530   6.798   0.887  2.0197  0.3863  0.3799
  953MOL0     H31500   4.493   6.903   0.365  0.2243  1.9687 -3.9551
  953MOL0     H31501   4.446   7.063   0.189  1.1201  0.4038  0.4210
  953MOL0     H31502   4.275   7.181   0.070 -1.2395  0.6178  1.9417
  953MOL0     H31503   4.250   7.368   0.055  1.6746  2.0716  0.3113
  953MOL0     H31504   4.474   7.215  -0.015  0.9490  0.3331 -0.7822
  953MOL0     H31505   4.524   7.287   0.140 -0.7554 -0.5924  1.3045
  953MOL0     H31506   4.590   7.438  -0.051 -0.1228  0.1722 -0.0182
  953MOL0     H31507   4.432   7.432  -0.115  0.1056 -2.1611 -0.2041
  953MOL0     H31508   4.523   7.561   0.150  1.3882  1.5965 -0.5737
  953MOL0     H31509   4.352   7.561   0.100  0.8926  2.0405  0.8041
  953MOL0     H31510   4.486   7.860  -0.140  2.4222  1.0132  1.3594
  953MOL0     H31511   4.243   7.325   0.477  1.4854  0.1723  1.3983
  953MOL0     H31512   4.277   7.112   0.752 -3.5541  1.6013  1.0947
  953MOL0     H31513   4.373   7.271   0.736  0.2886  0.1519 -0.3045
  953MOL0     H31514   4.206   7.248   0.679 -0.4987  0.7092  2.4731
  954MOL0     O31515   8.476   9.528   3.862  0.5756  0.4962 -0.4565
  954MOL0     C31516   8.394   9.492   3.956 -0.1966 -0.7397  1.2275
  954MOL0     O31517   8.420   9.402   4.041  0.1124 -0.3316  0.5551
  954MOL0     C31518   8.544   9.333   4.048  0.2747 -0.2103  0.9943
  954MOL0     C31519   8.554   9.224   3.967  0.8564 -0.3352 -0.1029
  954MOL0     C31520   8.651   9.130   3.961 -1.3880  1.0049  0.3917
  954MOL0     C31521   8.764   9.163   4.043  0.4475 -0.7944  0.6424
  954MOL0     O31522   8.886   9.091   4.032 -0.3202 -0.0902  0.5560
  954MOL0     C31523   8.889   8.964   3.961  0.9190  0.1561 -0.5508
  954MOL0     C31524   9.022   8.909   3.967 -0.3633  0.3598  0.0318
  954MOL0     C31525   9.114   8.980   3.867  1.0629  0.6475  0.0785
  954MOL0     C31526   9.255   8.905   3.864 -0.8890 -0.5107 -0.1518
  954MOL0     C31527   9.363   8.976   3.784  0.2449  0.2133 -0.1975
  954MOL0     C31528   9.505   8.911   3.795  0.0268  0.3212  0.6737
  954MOL0     C31529   9.525   8.787   3.707 -0.4162 -0.2306  0.3224
  954MOL0     C31530   9.644   8.711   3.758  0.3039  0.6613  0.6131
  954MOL0     N31531   9.660   8.584   3.694  0.1263  0.0414  0.2523
  954MOL0     C31532   9.661   8.563   3.558 -0.2788  0.1047 -0.9737
  954MOL0     C31533   9.698   8.437   3.549  0.0353 -0.7664  0.8825
  954MOL0     C31534   9.707   8.362   3.418 -0.7753  0.2483 -0.1660
  954MOL0     C31535   9.841   8.396   3.351 -0.5460  1.2294 -0.2637
  954MOL0     C31536   9.979   8.368   3.418 -0.0842  0.3744 -0.0283
  954MOL0     C31537   9.996   8.225   3.468 -0.3937 -0.4015 -0.0268
  954MOL0     O31538  10.034   8.127   3.368  0.0367  0.9794 -0.2685
  954MOL0     C31539  10.159   8.138   3.310 -0.5500  0.4037 -0.4866
  954MOL0     C31540  10.268   8.186   3.379  0.1634  0.4246  0.3665
  954MOL0     C31541  10.390   8.178   3.315  0.3815 -1.0345  0.0345
  954MOL0     C31542  10.506   8.240   3.392  0.2117 -0.6215  0.6769
  954MOL0     C31543  10.408   8.132   3.184  0.3701  0.6617 -0.1270
  954MOL0     C31544  10.539   8.127   3.118 -0.3249 -0.0047 -1.3737
  954MOL0     O31545  10.640   8.217   3.153  0.8729  0.5689  0.5209
  954MOL0     C31546  10.761   8.197   3.080 -0.9975  1.1931 -0.9897
  954MOL0     C31547  10.879   8.175   3.156 -0.4402  0.6002  0.3555
  954MOL0     C31548  11.002   8.172   3.099 -0.8322 -0.6415 -0.7408
  954MOL0     C31549  11.016   8.187   2.957 -0.0250 -1.2715  0.2913
  954MOL0     O31550  11.143   8.197   2.897  0.6134 -0.1763 -0.2888
  954MOL0     C31551  11.201   8.329   2.893  0.7292 -0.5690  0.1690
  954MOL0     C31552  11.321   8.321   2.804 -0.3460  1.0326  0.2359
  954MOL0     C31553  11.375   8.452   2.751  0.2375  0.7068 -0.1941
  954MOL0     C31554  11.473   8.425   2.635  0.5012 -0.5328 -0.6992
  954MOL0     C31555  11.573   8.529   2.614  0.1594 -0.6254 -0.3330
  954MOL0     C31556  11.705   8.464   2.566  0.3345  0.4250 -0.8584
  954MOL0     C31557  11.794   8.569   2.519 -0.4799  0.2494 -0.4133
  954MOL0     C31558  11.943   8.530   2.505 -0.0895  0.1853 -0.0826
  954MOL0    Cl31559  12.035   8.620   2.381 -0.2142  0.3677  0.3296
  954MOL0     C31560  10.899   8.204   2.877  0.1580 -0.5385  0.0918
  954MOL0     C31561  10.777   8.211   2.935  0.4422 -0.8887 -0.5511
  954MOL0     O31562  10.555   8.032   3.042 -0.0211 -0.5598  0.1529
  954MOL0     C31563  10.292   8.093   3.119  0.1343  0.0381 -0.1334
  954MOL0     C31564  10.174   8.093   3.184 -0.1795  0.4974 -1.0070
  954MOL0     N31565   9.711   8.382   3.670 -0.2371  0.6335 -0.0795
  954MOL0     N31566   9.672   8.467   3.763 -0.4975 -0.5619  0.4603
  954MOL0     C31567   8.759   9.279   4.131  0.0091  0.1162  1.0147
  954MOL0     C31568   8.652   9.361   4.135  0.0822 -0.8996 -0.1282
  954MOL0     C31569   8.272   9.576   3.972  0.4769 -0.8537 -0.2416
  954MOL0     C31570   8.208   9.585   4.097  0.0370  0.0106  0.2440
  954MOL0     C31571   8.085   9.650   4.120 -0.0752  0.5736 -0.4159
  954MOL0     C31572   8.015   9.699   4.013 -0.5869  0.0365 -0.4230
  954MOL0     O31573   7.894   9.758   4.028  0.3972 -0.5956  0.4488
  954MOL0     C31574   7.903   9.876   4.117 -0.2109 -0.7558 -0.0401
  954MOL0     C31575   7.807   9.989   4.078  0.0651  0.7535 -0.7312
  954MOL0     C31576   7.671   9.966   4.143  0.6571 -0.7676 -0.3670
  954MOL0     C31577   7.573  10.082   4.090 -0.4514 -0.0826 -0.6395
  954MOL0     C31578   7.535  10.174   4.196  0.1157  0.4511  0.7228
  954MOL0     C31579   7.506  10.257   4.278  0.1609 -0.5326 -0.1810
  954MOL0     C31580   8.079   9.703   3.889  0.2924 -0.2728  0.0317
  954MOL0     C31581   8.206   9.642   3.865 -0.8042 -0.9179 -0.3335
  954MOL0     C31582   8.252   9.644   3.719 -0.6919  0.1643  0.7466
  954MOL0     H31583   8.470   9.201   3.902  0.9832  0.0701 -0.4215
  954MOL0     H31584   8.640   9.043   3.897  1.2869  1.2174 -0.4805
  954MOL0     H31585   8.855   8.975   3.857 -0.2220 -1.5426 -0.4024
  954MOL0     H31586   8.833   8.887   4.014  0.2383  1.1660  0.2231
  954MOL0     H31587   9.070   8.916   4.065  1.1415  0.0081 -0.6613
  954MOL0     H31588   9.013   8.803   3.944 -1.3134  0.6078 -0.7850
  954MOL0     H31589   9.068   8.971   3.768  0.6622 -0.0773  0.3231
  954MOL0     H31590   9.126   9.087   3.889 -1.6960  0.6983  1.8087
  954MOL0     H31591   9.297   8.910   3.965  0.7968  0.7296 -0.8669
  954MOL0     H31592   9.241   8.799   3.839  0.5036 -0.5646 -0.8177
  954MOL0     H31593   9.372   9.079   3.819 -3.4829  0.5957 -0.0060
  954MOL0     H31594   9.341   8.989   3.678  1.7550  1.5359 -0.3803
  954MOL0     H31595   9.579   8.986   3.764  1.3104 -0.4305  1.8288
  954MOL0     H31596   9.519   8.883   3.899 -0.2342 -3.0471 -0.0760
  954MOL0     H31597   9.538   8.815   3.602 -0.7967 -1.8985 -0.2033
  954MOL0     H31598   9.433   8.729   3.695 -0.0985 -0.2418 -3.0699
  954MOL0     H31599   9.731   8.765   3.722  1.1244  0.1191  1.7261
  954MOL0     H31600   9.647   8.701   3.867  1.3616  0.7791  0.5981
  954MOL0     H31601   9.644   8.630   3.475  0.1860 -1.9770 -2.8375
  954MOL0     H31602   9.620   8.398   3.361  1.9098  3.6310 -2.6108
  954MOL0     H31603   9.693   8.254   3.428 -1.6413  0.5879  4.2972
  954MOL0     H31604   9.836   8.334   3.261  0.5063  2.9759 -1.5863
  954MOL0     H31605   9.837   8.504   3.335 -0.7520  1.1947 -0.4524
  954MOL0     H31606  10.071   8.392   3.365  0.5902 -1.6057  0.1720
  954MOL0     H31607   9.984   8.434   3.506  0.7388  4.3770 -2.7731
  954MOL0     H31608  10.070   8.232   3.548  2.8914  1.0462 -2.8893
  954MOL0     H31609   9.898   8.194   3.503 -1.1433 -0.1208 -1.7558
  954MOL0     H31610  10.249   8.229   3.477 -0.8762 -0.0100  0.3800
  954MOL0     H31611  10.538   8.340   3.362  1.6949 -2.2262 -3.8795
  954MOL0     H31612  10.593   8.174   3.383 -0.2019 -1.3761  1.8932
  954MOL0     H31613  10.488   8.246   3.500  2.1017  3.7388  0.9689
  954MOL0     H31614  10.876   8.173   3.265 -0.3247  0.6214  0.3592
  954MOL0     H31615  11.099   8.182   3.146  0.0921 -0.4669 -2.6289
  954MOL0     H31616  11.135   8.404   2.848 -0.6593 -2.4983 -1.1663
  954MOL0     H31617  11.232   8.361   2.993  1.6254  1.1405 -0.6193
  954MOL0     H31618  11.390   8.262   2.865  1.2156  1.8323 -0.6832
  954MOL0     H31619  11.292   8.261   2.717 -0.7043  0.2288  0.8966
  954MOL0     H31620  11.435   8.496   2.831  1.9804 -0.8666 -0.5790
  954MOL0     H31621  11.292   8.520   2.730  0.2586  2.7787  5.0248
  954MOL0     H31622  11.415   8.392   2.549 -0.0597 -0.4524 -0.3633
  954MOL0     H31623  11.521   8.332   2.667 -0.6338 -0.5553  1.1168
  954MOL0     H31624  11.533   8.600   2.540 -1.6366 -0.9509  0.2676
  954MOL0     H31625  11.605   8.576   2.707  1.4947  0.8173 -1.4609
  954MOL0     H31626  11.681   8.403   2.478 -1.4157 -0.8472  0.4245
  954MOL0     H31627  11.746   8.406   2.650  0.1713  3.6060  1.5936
  954MOL0     H31628  11.788   8.659   2.582  0.5986  2.5867 -3.3955
  954MOL0     H31629  11.753   8.598   2.422 -2.6503 -2.4083 -0.3957
  954MOL0     H31630  11.960   8.423   2.485  0.6775  0.0910  1.0184
  954MOL0     H31631  11.997   8.542   2.599 -0.7357  2.8358  0.0115
  954MOL0     H31632  10.912   8.197   2.769  0.1237 -2.2560  0.1722
  954MOL0     H31633  10.688   8.224   2.874 -0.4482 -0.3094  0.8183
  954MOL0     H31634  10.292   8.055   3.017  2.6196 -4.5387  1.2859
  954MOL0     H31635  10.087   8.054   3.133  0.4418 -2.2816 -0.1393
  954MOL0     H31636   8.855   9.300   4.177 -0.7197  0.2906  2.5080
  954MOL0     H31637   8.655   9.448   4.199 -3.4335 -0.1079 -0.7938
  954MOL0     H31638   8.263   9.545   4.182  0.6113 -0.4781 -0.3477
  954MOL0     H31639   8.057   9.643   4.225 -0.9616  2.8097 -0.4637
  954MOL0     H31640   7.898   9.849   4.223 -0.4713  2.1059  0.7787
  954MOL0     H31641   8.003   9.920   4.121 -0.3814 -0.4386  2.3844
  954MOL0     H31642   7.808   9.996   3.969  0.5612  0.4645 -0.7515
  954MOL0     H31643   7.846  10.082   4.121 -1.1593  1.8310 -1.8906
  954MOL0     H31644   7.620   9.871   4.126 -1.9444  0.3288  0.7026
  954MOL0     H31645   7.673   9.966   4.253 -0.2619 -2.3032 -0.3128
  954MOL0     H31646   7.493  10.028   4.039  0.1502 -0.1603 -1.5362
  954MOL0     H31647   7.629  10.149   4.024  1.7209  1.7361  2.8043
  954MOL0     H31648   7.481  10.337   4.345 -0.9036 -0.4244 -0.7004
  954MOL0     H31649   8.025   9.741   3.803  0.5526 -1.7345 -0.8006
  954MOL0     H31650   8.174   9.680   3.650 -2.7280 -0.0066  2.8230
  954MOL0     H31651   8.338   9.711   3.724 -0.9146  0.8382 -2.4362
  954MOL0     H31652   8.278   9.542   3.690 -2.0961 -0.2499  0.8515
  955MOL0     O31653   0.559   4.185   1.802  0.3501  0.2934  0.1748
  955MOL0     C31654   0.596   4.071   1.767 -0.3378 -0.0694 -0.4726
  955MOL0     O31655   0.665   4.044   1.661  0.5588 -0.0697  0.5594
  955MOL0     C31656   0.726   4.131   1.568  0.0596  0.6193  0.4496
  955MOL0     C31657   0.816   4.072   1.483  0.4068 -0.7782 -0.4556
  955MOL0     C31658   0.901   4.138   1.394  0.4629  1.2495  0.7225
  955MOL0     C31659   0.890   4.283   1.390 -0.5782 -1.2035  0.7651
  955MOL0     O31660   0.978   4.360   1.310 -0.0924  0.9768 -0.5296
  955MOL0     C31661   1.098   4.403   1.381 -0.0355 -0.3577  0.9817
  955MOL0     C31662   1.208   4.440   1.279 -0.2802 -0.3764  0.2308
  955MOL0     C31663   1.143   4.561   1.195 -0.2084 -0.4255 -0.3502
  955MOL0     C31664   1.250   4.648   1.120 -0.1305 -1.3674  0.3153
  955MOL0     C31665   1.331   4.740   1.214  0.0602 -0.0187 -0.4323
  955MOL0     C31666   1.405   4.843   1.129 -0.4822  0.8159 -0.5020
  955MOL0     C31667   1.479   4.952   1.212 -0.0956  0.6585 -0.7590
  955MOL0     C31668   1.595   4.884   1.297  0.5222  0.4498 -0.7290
  955MOL0     N31669   1.711   4.843   1.211 -1.0949 -1.1671  0.7543
  955MOL0     C31670   1.791   4.919   1.128 -0.1754  0.4192 -0.8407
  955MOL0     C31671   1.881   4.838   1.077 -0.1365  0.8385 -0.0153
  955MOL0     C31672   1.991   4.862   0.986 -0.5319 -0.7240 -0.3142
  955MOL0     C31673   2.106   4.923   1.056 -0.0399  0.1516 -0.3426
  955MOL0     C31674   2.225   4.967   0.970  0.2215  0.6109  0.9946
  955MOL0     C31675   2.324   5.039   1.061  0.4396 -0.5951  0.3027
  955MOL0     O31676   2.374   4.974   1.182  0.0840 -0.2432  0.5967
  955MOL0     C31677   2.432   4.854   1.178  0.0226  0.3804  0.2248
  955MOL0     C31678   2.495   4.785   1.055  0.5446 -0.3541 -0.5792
  955MOL0     C31679   2.549   4.654   1.057  0.1966  0.2890 -0.7455
  955MOL0     C31680   2.602   4.606   0.926  0.5430  0.0823 -0.1426
  955MOL0     C31681   2.573   4.597   1.179  0.4177  0.0770 -0.4094
  955MOL0     C31682   2.607   4.455   1.183 -0.5206  0.3574  0.0878
  955MOL0     O31683   2.694   4.414   1.286  0.3819  0.5702  0.3432
  955MOL0     C31684   2.702   4.278   1.314 -0.4371  0.3314 -0.6459
  955MOL0     C31685   2.838   4.225   1.321  0.1994 -0.3423  0.5212
  955MOL0     C31686   2.865   4.091   1.350  0.6628 -0.1846  0.0462
  955MOL0     C31687   2.761   3.996   1.351 -0.8458  0.3585 -0.4698
  955MOL0     O31688   2.774   3.862   1.382 -0.3004 -0.1754 -0.3448
  955MOL0     C31689   2.885   3.798   1.338 -0.6724  0.5467 -0.0719
  955MOL0     C31690   2.899   3.788   1.187  0.2233 -0.5606 -0.2785
  955MOL0     C31691   2.790   3.711   1.117 -0.0384 -0.5570 -0.7825
  955MOL0     C31692   2.812   3.712   0.966  0.3407  0.1337  0.2711
  955MOL0     C31693   2.703   3.633   0.895 -0.3740 -0.7517  0.8574
  955MOL0     C31694   2.726   3.632   0.746  0.0673  1.0341  0.1664
  955MOL0     C31695   2.605   3.574   0.657 -0.0870  0.8524 -0.1767
  955MOL0     C31696   2.632   3.594   0.512 -0.1541  0.8851  0.2108
  955MOL0    Cl31697   2.799   3.525   0.477  0.0292  0.2831  0.0341
  955MOL0     C31698   2.626   4.041   1.344 -0.8354 -0.2287  1.6540
  955MOL0     C31699   2.600   4.176   1.319 -0.6616  0.0819 -0.5775
  955MOL0     O31700   2.538   4.381   1.108 -0.8966  0.0298  0.3884
  955MOL0     C31701   2.529   4.663   1.300 -0.2697  0.2753  0.2718
  955MOL0     C31702   2.464   4.790   1.300  0.6905  0.9088  0.0995
  955MOL0     N31703   1.854   4.720   1.128  0.1638  0.0067  0.0132
  955MOL0     N31704   1.756   4.714   1.203  0.1650 -0.7192 -0.3534
  955MOL0     C31705   0.787   4.342   1.471 -0.0702 -0.5029 -0.1950
  955MOL0     C31706   0.701   4.269   1.554 -1.2953  0.8945 -0.1977
  955MOL0     C31707   0.552   3.942   1.841  0.8163  0.2371  0.9203
  955MOL0     C31708   0.608   3.815   1.802 -0.4297 -0.0651 -0.1681
  955MOL0     C31709   0.565   3.696   1.865  0.3508  0.3755 -0.2319
  955MOL0     C31710   0.461   3.700   1.959  0.6585  0.0387  0.1817
  955MOL0     O31711   0.404   3.591   2.025 -0.2771 -0.3662 -0.9212
  955MOL0     C31712   0.438   3.462   1.980 -0.1439 -0.0554  0.6689
  955MOL0     C31713   0.371   3.356   2.062  0.2414  0.6622  0.8319
  955MOL0     C31714   0.426   3.346   2.201 -0.1072 -0.0647  0.4881
  955MOL0     C31715   0.549   3.260   2.216 -0.6588  0.4665  0.1240
  955MOL0     C31716   0.671   3.336   2.184 -0.4272  0.2168 -1.1918
  955MOL0     C31717   0.765   3.408   2.143  1.0662 -0.3122 -0.2411
  955MOL0     C31718   0.398   3.820   1.975  0.7135  0.2133 -0.5120
  955MOL0     C31719   0.452   3.944   1.936  0.5601  0.0370 -0.0048
  955MOL0     C31720   0.382   4.072   1.988  0.5254  0.3174  0.5944
  955MOL0     H31721   0.839   3.966   1.494  2.8248 -0.5291 -2.2316
  955MOL0     H31722   0.971   4.083   1.332  1.8007  4.8201 -1.2100
  955MOL0     H31723   1.134   4.316   1.438  0.1273 -1.1377 -0.2857
  955MOL0     H31724   1.087   4.495   1.440  1.4137  1.2570 -1.1352
  955MOL0     H31725   1.306   4.472   1.316 -1.0418  2.1591  0.2432
  955MOL0     H31726   1.223   4.346   1.225 -1.4728  0.1124 -1.0069
  955MOL0     H31727   1.068   4.517   1.128 -1.2007  0.7201 -0.0450
  955MOL0     H31728   1.097   4.631   1.265  1.7992  1.0176 -0.4011
  955MOL0     H31729   1.322   4.592   1.060  0.0248 -1.6793  0.7916
  955MOL0     H31730   1.203   4.711   1.043  3.6419 -0.4048 -1.4668
  955MOL0     H31731   1.396   4.680   1.278  0.0371  0.8829  0.4581
  955MOL0     H31732   1.268   4.801   1.279 -1.6102  3.0544 -4.4900
  955MOL0     H31733   1.487   4.799   1.071 -1.3927 -0.2739 -1.0049
  955MOL0     H31734   1.331   4.887   1.061 -2.0865 -0.2736  0.4664
  955MOL0     H31735   1.414   5.005   1.282 -3.8859 -1.5437 -2.2994
  955MOL0     H31736   1.518   5.033   1.149  0.8161  0.1404 -0.8859
  955MOL0     H31737   1.635   4.956   1.370  1.6442  2.0529 -2.8176
  955MOL0     H31738   1.568   4.791   1.346  0.9013  0.8202  0.2103
  955MOL0     H31739   1.786   5.027   1.117 -0.6694  0.4383 -0.4630
  955MOL0     H31740   1.945   4.927   0.911 -1.6527 -0.9229  0.1912
  955MOL0     H31741   2.022   4.770   0.935  1.5851 -0.1140 -0.2416
  955MOL0     H31742   2.067   5.017   1.096 -4.2053  0.2953 -4.0058
  955MOL0     H31743   2.134   4.857   1.139 -0.1331  1.2013  0.5472
  955MOL0     H31744   2.261   4.878   0.917 -0.8320  0.7780 -0.0391
  955MOL0     H31745   2.193   5.039   0.894  1.5382  1.6656  1.4186
  955MOL0     H31746   2.412   5.071   1.003  0.4337 -1.3276 -0.1231
  955MOL0     H31747   2.271   5.127   1.099  0.0176 -0.4243 -0.6390
  955MOL0     H31748   2.495   4.837   0.960  0.6877  1.4987  0.3902
  955MOL0     H31749   2.538   4.521   0.900  0.6688 -0.3230  0.8297
  955MOL0     H31750   2.707   4.582   0.945 -0.4191 -3.4874  1.5664
  955MOL0     H31751   2.613   4.682   0.848  0.9344  0.1004 -0.0670
  955MOL0     H31752   2.921   4.294   1.307 -0.2875  0.3061  0.7521
  955MOL0     H31753   2.969   4.072   1.373  0.4472 -1.8815 -0.2462
  955MOL0     H31754   2.977   3.847   1.373 -0.0397  0.1723 -1.1383
  955MOL0     H31755   2.882   3.699   1.385 -1.9518 -0.3021 -1.7956
  955MOL0     H31756   2.906   3.891   1.150 -1.6798 -0.2532  0.0974
  955MOL0     H31757   2.991   3.732   1.173  1.4059  1.1437  0.3487
  955MOL0     H31758   2.694   3.758   1.141  1.9149  3.7455 -0.4576
  955MOL0     H31759   2.791   3.605   1.144 -2.4318 -0.9593 -1.9574
  955MOL0     H31760   2.915   3.688   0.935  0.7800  2.9091 -0.7708
  955MOL0     H31761   2.807   3.819   0.944 -0.6226  0.2613  1.0633
  955MOL0     H31762   2.701   3.529   0.927  2.2856 -0.3222  2.7279
  955MOL0     H31763   2.603   3.669   0.922 -0.5503  0.9239 -1.7072
  955MOL0     H31764   2.811   3.567   0.724  0.4010  2.5885 -4.1351
  955MOL0     H31765   2.750   3.733   0.712  3.4045  0.4406  0.4141
  955MOL0     H31766   2.505   3.612   0.678 -1.2320 -1.5249 -1.0093
  955MOL0     H31767   2.609   3.466   0.675 -1.0095  0.8743  0.1964
  955MOL0     H31768   2.630   3.702   0.495  5.2687  1.5548  1.9734
  955MOL0     H31769   2.569   3.536   0.445  0.5737  0.8706 -0.4641
  955MOL0     H31770   2.540   3.975   1.340 -1.4408  0.5745 -1.0723
  955MOL0     H31771   2.498   4.201   1.291  0.0420  1.6431 -1.9621
  955MOL0     H31772   2.570   4.625   1.393  1.2188 -0.0145 -0.4634
  955MOL0     H31773   2.446   4.849   1.389 -0.1469  3.4825 -1.6486
  955MOL0     H31774   0.782   4.451   1.464  1.8614 -0.4417 -1.1121
  955MOL0     H31775   0.618   4.322   1.599  0.3992  1.6939  2.2168
  955MOL0     H31776   0.685   3.796   1.728 -0.7440 -1.8192 -0.0912
  955MOL0     H31777   0.623   3.605   1.857 -2.0847 -1.1324 -1.9220
  955MOL0     H31778   0.415   3.451   1.874  1.1111 -2.7476  0.5836
  955MOL0     H31779   0.546   3.444   1.987 -0.6710 -4.1536  0.7807
  955MOL0     H31780   0.380   3.260   2.010  4.0457  0.7548  1.0403
  955MOL0     H31781   0.269   3.390   2.079  0.0078  0.6065 -0.3968
  955MOL0     H31782   0.441   3.443   2.249  0.7937 -0.2667  0.6366
  955MOL0     H31783   0.351   3.309   2.271 -0.2509  1.0367  0.9355
  955MOL0     H31784   0.542   3.176   2.147 -2.1428  0.9338 -0.3251
  955MOL0     H31785   0.556   3.229   2.321 -0.0766 -1.2805 -0.4045
  955MOL0     H31786   0.847   3.471   2.114  1.0810  0.2779  1.0445
  955MOL0     H31787   0.328   3.827   2.058  2.5219  2.3844  0.9646
  955MOL0     H31788   0.311   4.045   2.066  1.4901  0.2946  1.4822
  955MOL0     H31789   0.444   4.143   2.043  0.7004 -0.8340  1.9346
  955MOL0     H31790   0.325   4.122   1.908 -0.6635 -1.5598  0.1933
  956MOL0     O31791   2.940   2.198   4.714 -0.2095 -1.0186  0.5910
  956MOL0     C31792   2.820   2.227   4.713  0.1519 -0.4519  0.2688
  956MOL0     O31793   2.751   2.255   4.830 -0.3440  0.6183 -0.1191
  956MOL0     C31794   2.826   2.297   4.936  0.1465  0.5084 -0.1656
  956MOL0     C31795   2.905   2.211   5.006  0.4725 -0.2718 -0.3348
  956MOL0     C31796   2.980   2.257   5.121  1.3221 -0.5655 -0.1403
  956MOL0     C31797   2.959   2.379   5.173 -0.0780  0.1504  0.2547
  956MOL0     O31798   3.030   2.412   5.289  0.3444 -0.2728 -0.4293
  956MOL0     C31799   3.149   2.495   5.270  1.0845  0.5632 -0.0278
  956MOL0     C31800   3.268   2.408   5.246 -0.4730  0.2326  0.7846
  956MOL0     C31801   3.381   2.485   5.190 -1.0449  0.6079  1.0244
  956MOL0     C31802   3.484   2.385   5.132 -0.1866  0.0153  1.0616
  956MOL0     C31803   3.627   2.428   5.099  0.0622  0.7134  0.1176
  956MOL0     C31804   3.722   2.424   5.224  0.0113  1.0593  0.4907
  956MOL0     C31805   3.858   2.481   5.176 -0.2673  0.3108  0.0212
  956MOL0     C31806   3.951   2.488   5.292 -0.1213 -0.6926  0.5569
  956MOL0     N31807   3.914   2.614   5.366  0.3454  1.2640 -0.8556
  956MOL0     C31808   4.000   2.727   5.358 -0.0598 -0.2609  0.4181
  956MOL0     C31809   3.934   2.831   5.415  0.3905  0.3137  0.1699
  956MOL0     C31810   3.968   2.978   5.416 -0.0367 -0.1291 -0.4073
  956MOL0     C31811   4.068   3.007   5.528 -0.0638  0.2107 -0.9527
  956MOL0     C31812   4.135   3.147   5.512  0.0861  0.1052  0.5415
  956MOL0     C31813   4.233   3.157   5.627 -0.8860 -0.5188 -0.1959
  956MOL0     O31814   4.339   3.055   5.643 -0.2459  0.1461  0.1823
  956MOL0     C31815   4.465   3.088   5.590 -0.5865 -0.1991 -0.9408
  956MOL0     C31816   4.572   3.014   5.638  0.9825 -0.1967 -0.3983
  956MOL0     C31817   4.703   3.034   5.613 -0.1899 -0.3690  0.0111
  956MOL0     C31818   4.810   2.952   5.691 -0.3098 -0.4985 -1.0568
  956MOL0     C31819   4.736   3.138   5.524  0.2911  0.6842  0.2213
  956MOL0     C31820   4.869   3.194   5.491  0.9601 -0.2784 -0.1942
  956MOL0     O31821   4.878   3.313   5.423  0.0022  1.0223  0.6090
  956MOL0     C31822   4.984   3.356   5.347 -0.4405 -0.5845 -0.4425
  956MOL0     C31823   4.980   3.497   5.320  0.2779 -0.2184 -0.3309
  956MOL0     C31824   5.080   3.559   5.249  0.2715 -0.2108  0.3221
  956MOL0     C31825   5.191   3.488   5.196  0.3231  0.7926  0.4454
  956MOL0     O31826   5.296   3.553   5.132  0.3730 -0.5612 -0.3589
  956MOL0     C31827   5.266   3.650   5.029 -0.4520  0.1797  0.1584
  956MOL0     C31828   5.395   3.682   4.955  1.2353  0.4289 -0.5771
  956MOL0     C31829   5.491   3.766   5.039 -0.1185 -0.2686 -0.9844
  956MOL0     C31830   5.579   3.838   4.941 -0.2962  0.5104 -0.8947
  956MOL0     C31831   5.665   3.932   5.036 -0.3216  0.7956  0.6885
  956MOL0     C31832   5.783   3.997   4.961 -0.0763  0.0173  0.1015
  956MOL0     C31833   5.875   4.066   5.063  1.1011  1.1083  0.3426
  956MOL0     C31834   6.000   4.117   5.000 -0.0356  0.0326  1.0785
  956MOL0    Cl31835   6.114   4.001   4.920  0.1253  0.3492 -0.0888
  956MOL0     C31836   5.193   3.345   5.221  0.8932 -0.5164 -0.1226
  956MOL0     C31837   5.094   3.282   5.301 -0.1787  0.3216 -0.5980
  956MOL0     O31838   4.958   3.114   5.519 -0.4619 -0.1939  0.0962
  956MOL0     C31839   4.629   3.216   5.465 -0.4552  0.1601  0.1741
  956MOL0     C31840   4.495   3.185   5.499  0.1216 -0.5427  0.1352
  956MOL0     N31841   3.813   2.778   5.462 -0.2538  0.0127 -0.2459
  956MOL0     N31842   3.799   2.650   5.433  0.1531 -1.0467 -0.3946
  956MOL0     C31843   2.880   2.470   5.107  0.6240  0.0778 -0.3070
  956MOL0     C31844   2.805   2.428   4.990  0.1898 -0.1691 -0.7064
  956MOL0     C31845   2.743   2.217   4.592 -0.0978 -0.4343  1.2186
  956MOL0     C31846   2.633   2.300   4.573 -0.4892 -0.5819 -0.4962
  956MOL0     C31847   2.549   2.299   4.457  0.1589  0.3439  0.1386
  956MOL0     C31848   2.580   2.213   4.342  0.3250  0.1981 -0.3259
  956MOL0     O31849   2.510   2.187   4.228  0.4118 -0.1162  0.1562
  956MOL0     C31850   2.366   2.219   4.218  0.9847  0.5381  0.1396
  956MOL0     C31851   2.291   2.122   4.313  0.2357  0.2175  0.0529
  956MOL0     C31852   2.141   2.125   4.272  0.5099 -0.0828 -0.4366
  956MOL0     C31853   2.068   2.004   4.342 -0.6689 -0.3483  0.2734
  956MOL0     C31854   1.927   1.991   4.314 -0.3501 -0.5753  0.0417
  956MOL0     C31855   1.819   1.952   4.281  1.1472 -0.3433 -0.0802
  956MOL0     C31856   2.677   2.116   4.375 -0.6539  0.6285 -0.2620
  956MOL0     C31857   2.759   2.119   4.493  0.9323  0.4395  1.0444
  956MOL0     C31858   2.848   1.995   4.517  0.5243 -0.2996  0.0895
  956MOL0     H31859   2.930   2.118   4.956  2.7278 -0.8554  1.6995
  956MOL0     H31860   3.043   2.196   5.186  1.3529 -1.9134 -1.3886
  956MOL0     H31861   3.162   2.551   5.363  1.7329  0.0787  0.1745
  956MOL0     H31862   3.131   2.568   5.190  2.7437 -0.9349 -1.8676
  956MOL0     H31863   3.304   2.361   5.337 -0.6721  0.2415  0.8686
  956MOL0     H31864   3.237   2.332   5.173 -0.6372  0.6521  0.4092
  956MOL0     H31865   3.356   2.556   5.111  0.2418  1.1586  1.0932
  956MOL0     H31866   3.426   2.550   5.265 -1.6757 -0.7865  2.6795
  956MOL0     H31867   3.473   2.291   5.186  2.8780  0.0897  1.9915
  956MOL0     H31868   3.441   2.358   5.034  1.5096  1.9253 -0.2745
  956MOL0     H31869   3.620   2.531   5.064 -1.7619 -0.1532 -2.4662
  956MOL0     H31870   3.663   2.366   5.016  0.0075 -1.0479  1.3409
  956MOL0     H31871   3.685   2.491   5.302  1.5261  3.1554 -0.4901
  956MOL0     H31872   3.741   2.319   5.249 -0.1548  0.5496 -1.3661
  956MOL0     H31873   3.842   2.581   5.135  0.3638  1.2812  2.0182
  956MOL0     H31874   3.900   2.418   5.097  3.0154  0.4423  1.5116
  956MOL0     H31875   3.957   2.396   5.350 -2.5700 -3.6071 -3.3056
  956MOL0     H31876   4.049   2.504   5.246 -0.4438  0.0750  0.1185
  956MOL0     H31877   4.095   2.739   5.307 -0.1401 -0.3153  0.2573
  956MOL0     H31878   3.885   3.046   5.436  0.5306  0.0210  1.6610
  956MOL0     H31879   4.023   3.012   5.327  0.0456  0.2405 -0.2173
  956MOL0     H31880   4.025   2.992   5.628  1.3854 -1.4419 -0.5174
  956MOL0     H31881   4.142   2.926   5.530  1.7793  1.7070  3.1695
  956MOL0     H31882   4.193   3.158   5.420  0.7409  0.6349  1.0060
  956MOL0     H31883   4.059   3.226   5.509 -0.2736 -0.2505  0.3363
  956MOL0     H31884   4.272   3.259   5.619 -4.0565  0.8142 -0.3704
  956MOL0     H31885   4.185   3.173   5.724  4.0207  0.1859  2.4527
  956MOL0     H31886   4.540   2.942   5.712  0.1829 -0.2015 -0.7351
  956MOL0     H31887   4.870   2.904   5.614  4.3260  2.0298  0.6203
  956MOL0     H31888   4.749   2.881   5.749  0.4848  0.6981  1.3602
  956MOL0     H31889   4.871   3.021   5.750 -1.4301 -0.2240 -0.1757
  956MOL0     H31890   4.884   3.541   5.348  0.4333 -1.1500  1.8534
  956MOL0     H31891   5.071   3.667   5.235 -3.4506 -0.0575  2.5261
  956MOL0     H31892   5.199   3.604   4.956 -0.1816 -0.0346  0.0426
  956MOL0     H31893   5.233   3.747   5.069  2.4645  0.2586  2.7858
  956MOL0     H31894   5.442   3.584   4.940  0.9992  0.3470 -0.7999
  956MOL0     H31895   5.364   3.728   4.861 -0.9977  0.2171  0.0099
  956MOL0     H31896   5.554   3.722   5.117 -0.5889  0.0082 -0.4319
  956MOL0     H31897   5.437   3.848   5.089  3.7963  2.6756 -1.1169
  956MOL0     H31898   5.521   3.898   4.870 -0.4487  0.5979 -0.6991
  956MOL0     H31899   5.655   3.777   4.893 -0.4213  0.6144 -1.2290
  956MOL0     H31900   5.610   4.012   5.085  0.6909  1.1588  1.2651
  956MOL0     H31901   5.711   3.856   5.100 -0.1356 -0.2246 -0.5896
  956MOL0     H31902   5.748   4.050   4.873 -1.8300  0.2888  0.9246
  956MOL0     H31903   5.853   3.916   4.936  1.3485  0.9172  0.9571
  956MOL0     H31904   5.889   3.993   5.143 -0.9436  1.7068  1.2968
  956MOL0     H31905   5.811   4.148   5.097 -1.0170 -0.9047  1.4478
  956MOL0     H31906   6.061   4.153   5.083  0.7223  0.1499  0.4926
  956MOL0     H31907   5.996   4.203   4.931  2.8039 -2.0400 -2.0392
  956MOL0     H31908   5.269   3.285   5.173  0.8063 -0.3204 -0.5113
  956MOL0     H31909   5.109   3.178   5.330 -2.1051 -0.1475 -1.1075
  956MOL0     H31910   4.635   3.300   5.397 -1.0447  0.5511  0.5995
  956MOL0     H31911   4.430   3.250   5.442 -0.2664 -1.1443 -0.1152
  956MOL0     H31912   2.870   2.570   5.147 -1.0159  1.4059 -3.6672
  956MOL0     H31913   2.738   2.504   4.952 -0.4051  0.2554  1.0829
  956MOL0     H31914   2.617   2.381   4.644  0.2811 -2.2398  1.6727
  956MOL0     H31915   2.467   2.368   4.440  1.6594  1.6608 -2.2945
  956MOL0     H31916   2.352   2.318   4.263  2.3780 -0.0292  1.9939
  956MOL0     H31917   2.327   2.211   4.117 -0.5220 -2.1331  0.8316
  956MOL0     H31918   2.304   2.144   4.419 -0.7498 -1.9345  0.6894
  956MOL0     H31919   2.328   2.020   4.298  0.3180  0.5465 -2.5402
  956MOL0     H31920   2.083   2.212   4.305  0.5943 -0.6947  1.4668
  956MOL0     H31921   2.122   2.115   4.165 -0.1014  0.6470 -0.4049
  956MOL0     H31922   2.087   2.016   4.449  2.4257 -0.8110 -0.1219
  956MOL0     H31923   2.125   1.919   4.303  1.0132  0.9284 -0.1778
  956MOL0     H31924   1.718   1.925   4.255  1.1498 -1.9288  1.3914
  956MOL0     H31925   2.694   2.042   4.298 -0.7834  1.0497 -0.6959
  956MOL0     H31926   2.848   1.971   4.623 -2.5463 -1.9219 -0.1563
  956MOL0     H31927   2.823   1.906   4.458 -0.4353 -0.2205  0.3514
  956MOL0     H31928   2.949   2.023   4.487  0.2744 -1.2954 -1.9289
  957MOL0     O31929   5.646   9.814   9.718 -0.0321  0.2424  0.2657
  957MOL0     C31930   5.679   9.812   9.836 -1.0569 -0.2965  0.5825
  957MOL0     O31931   5.600   9.833   9.943  0.2827  0.2430  0.1383
  957MOL0     C31932   5.460   9.847   9.909 -0.4246  0.1638 -0.2649
  957MOL0     C31933   5.413   9.933   9.816 -0.1171  0.1190  1.0183
  957MOL0     C31934   5.283   9.931   9.778 -0.5000 -0.2896 -0.2688
  957MOL0     C31935   5.194   9.837   9.823  0.1357 -0.2730  0.0551
  957MOL0     O31936   5.066   9.823   9.771 -0.7318  0.1701 -0.2504
  957MOL0     C31937   4.981   9.934   9.785  0.4413  0.7715  0.4583
  957MOL0     C31938   4.837   9.919   9.748  0.2992 -0.3490 -0.1524
  957MOL0     C31939   4.821   9.908   9.595  0.3599  0.3164  0.2261
  957MOL0     C31940   4.773  10.049   9.543  0.3336  0.3862 -0.0782
  957MOL0     C31941   4.762  10.054   9.395 -0.1800  0.3302 -0.2192
  957MOL0     C31942   4.705  10.188   9.325  0.0044 -0.4565 -0.2038
  957MOL0     C31943   4.696  10.180   9.167  0.5699 -0.6527 -0.4924
  957MOL0     C31944   4.651  10.316   9.107  0.1812 -0.2246  0.6424
  957MOL0     N31945   4.506  10.332   9.110  0.0282  0.1803 -1.0330
  957MOL0     C31946   4.427  10.412   9.201 -0.1636  0.0620 -0.5202
  957MOL0     C31947   4.309  10.417   9.147  0.9392  0.5378 -0.9587
  957MOL0     C31948   4.174  10.489   9.198 -0.4924  0.0810  0.4498
  957MOL0     C31949   4.053  10.435   9.135  0.5546 -0.1044 -0.7707
  957MOL0     C31950   3.917  10.488   9.204 -0.2657 -0.2771 -0.0839
  957MOL0     C31951   3.816  10.496   9.098  0.1374 -0.0695 -0.0399
  957MOL0     O31952   3.709  10.560   9.168 -1.4466  0.3902 -0.5438
  957MOL0     C31953   3.585  10.573   9.107 -0.6639  0.8001 -0.5963
  957MOL0     C31954   3.479  10.645   9.175 -0.2646 -0.2025 -0.1379
  957MOL0     C31955   3.346  10.665   9.129  0.3633  0.9742 -0.1599
  957MOL0     C31956   3.241  10.731   9.217  0.4344  0.2972 -0.1448
  957MOL0     C31957   3.317  10.624   8.995 -0.0992 -0.5706  0.0545
  957MOL0     C31958   3.184  10.633   8.940  0.3645 -0.3124 -0.2718
  957MOL0     O31959   3.074  10.592   9.013 -0.2239  0.5054  0.2602
  957MOL0     C31960   2.956  10.632   8.952 -0.1200 -0.6306 -0.8718
  957MOL0     C31961   2.909  10.573   8.837 -0.7034 -0.0248 -0.0435
  957MOL0     C31962   2.799  10.628   8.767  0.4605  0.5564 -0.8684
  957MOL0     C31963   2.736  10.741   8.825 -0.1452 -0.2516 -0.3702
  957MOL0     O31964   2.632  10.798   8.762  0.5721 -1.3732  1.3463
  957MOL0     C31965   2.626  10.948   8.751 -1.2126 -1.0005 -0.0387
  957MOL0     C31966   2.516  10.985   8.661 -0.1760  0.0413  1.2657
  957MOL0     C31967   2.538  10.920   8.520  0.0146 -0.0574 -0.8153
  957MOL0     C31968   2.436  10.949   8.404  0.4916 -0.2046  0.5234
  957MOL0     C31969   2.440  10.833   8.300 -0.6089  0.0033 -0.3834
  957MOL0     C31970   2.336  10.853   8.186  0.5511 -0.2166  0.5898
  957MOL0     C31971   2.331  10.736   8.089  0.5491  0.0363 -0.0940
  957MOL0     C31972   2.383  10.765   7.948  0.2239  0.5404  0.0354
  957MOL0    Cl31973   2.290  10.872   7.841 -0.2243  0.0403 -0.2220
  957MOL0     C31974   2.780  10.799   8.939  0.7662 -0.2579 -0.1468
  957MOL0     C31975   2.885  10.742   9.012 -0.2316 -0.6425 -0.5967
  957MOL0     O31976   3.179  10.684   8.837  0.1011 -0.3878  0.6725
  957MOL0     C31977   3.426  10.553   8.926  0.9041  0.0512 -0.4820
  957MOL0     C31978   3.553  10.531   8.977 -0.9449 -0.6245  0.3823
  957MOL0     N31979   4.312  10.342   9.028 -0.0950 -0.5146 -0.2147
  957MOL0     N31980   4.425  10.282   9.017 -0.1444  0.2781  0.1704
  957MOL0     C31981   5.232   9.753   9.934 -1.8791 -0.6258  0.3452
  957MOL0     C31982   5.367   9.761   9.978 -0.4315 -0.0033  0.3772
  957MOL0     C31983   5.821   9.772   9.867 -0.5688 -0.2015  0.9279
  957MOL0     C31984   5.905   9.762   9.753  1.0887 -0.5047  0.4925
  957MOL0     C31985   6.044   9.729   9.771  0.0963  0.2265 -0.3571
  957MOL0     C31986   6.100   9.709   9.898  0.2785  0.6708  0.7488
  957MOL0     O31987   6.236   9.690   9.931 -0.3755 -1.0022  0.7107
  957MOL0     C31988   6.326   9.675   9.822 -0.1590 -0.1722 -0.8121
  957MOL0     C31989   6.461   9.641   9.878  0.0642 -0.9115 -0.8352
  957MOL0     C31990   6.568   9.629   9.774 -0.5599  0.0507  0.4168
  957MOL0     C31991   6.713   9.612   9.826  0.3167  0.1170 -0.3343
  957MOL0     C31992   6.812   9.603   9.716 -0.8311  0.1924 -0.3685
  957MOL0     C31993   6.878   9.628   9.619  0.1766 -0.2941  0.5735
  957MOL0     C31994   6.009   9.719  10.005 -0.5275  0.7314  0.7068
  957MOL0     C31995   5.873   9.750   9.992  0.4006  0.2918  0.0944
  957MOL0     C31996   5.790   9.738  10.120  0.0359 -0.4157  0.9025
  957MOL0     H31997   5.483  10.005   9.775  2.1242 -1.6912  1.4715
  957MOL0     H31998   5.257  10.006   9.704 -0.1366 -2.5250 -2.7827
  957MOL0     H31999   5.014  10.025   9.732 -4.2199  0.8891 -2.8151
  957MOL0     H32000   4.987   9.949   9.893 -2.5657  1.0616  0.6658
  957MOL0     H32001   4.801   9.824   9.788  0.4215  0.0811  1.0297
  957MOL0     H32002   4.783  10.004   9.791  0.5467 -0.6447  0.7769
  957MOL0     H32003   4.917   9.891   9.545  0.1051 -0.5040 -0.0075
  957MOL0     H32004   4.756   9.824   9.566  1.8648 -0.9176  0.2898
  957MOL0     H32005   4.676  10.063   9.591  0.1834 -1.5641  0.2543
  957MOL0     H32006   4.849  10.119   9.576 -3.5682  3.7419  2.8496
  957MOL0     H32007   4.701   9.966   9.371  2.3445 -1.6333  0.1576
  957MOL0     H32008   4.860  10.025   9.355  0.2987  0.5640  0.7433
  957MOL0     H32009   4.606  10.200   9.370  0.3143  1.3365  0.0717
  957MOL0     H32010   4.778  10.267   9.349  0.3732 -1.4341  2.2043
  957MOL0     H32011   4.619  10.104   9.150 -0.6067 -0.2191  2.3331
  957MOL0     H32012   4.795  10.168   9.122 -0.0834 -1.8316 -1.6968
  957MOL0     H32013   4.701  10.398   9.160  1.1214  0.4124 -1.1429
  957MOL0     H32014   4.688  10.326   9.005 -3.3825  1.3683 -0.6705
  957MOL0     H32015   4.458  10.469   9.287 -1.5067  0.3405 -0.1879
  957MOL0     H32016   4.175  10.596   9.175 -1.3327 -0.1519 -0.7677
  957MOL0     H32017   4.157  10.472   9.304  0.7642  1.0770  0.8373
  957MOL0     H32018   4.049  10.457   9.028  1.9480 -2.5929 -1.3931
  957MOL0     H32019   4.051  10.326   9.128  2.3198 -0.3543  1.5337
  957MOL0     H32020   3.889  10.418   9.283  2.2305  0.1877  1.2989
  957MOL0     H32021   3.947  10.586   9.243  3.8182 -2.3116  2.5642
  957MOL0     H32022   3.848  10.561   9.016 -3.9274  1.8081 -0.3813
  957MOL0     H32023   3.782  10.396   9.067 -0.8856  0.4142 -0.5141
  957MOL0     H32024   3.485  10.674   9.279  2.4644 -0.1606 -0.2269
  957MOL0     H32025   3.201  10.826   9.179  1.5968  0.2557 -1.5346
  957MOL0     H32026   3.268  10.739   9.323 -0.9068  0.2786  0.2254
  957MOL0     H32027   3.154  10.664   9.222  1.8256 -1.5826 -0.2211
  957MOL0     H32028   2.961  10.491   8.788 -0.9849 -0.8343  0.9800
  957MOL0     H32029   2.762  10.598   8.670  0.2703 -1.9833 -0.0932
  957MOL0     H32030   2.619  10.996   8.849  1.2462 -0.2341 -0.1609
  957MOL0     H32031   2.714  10.992   8.705 -3.0012  1.1115 -1.6414
  957MOL0     H32032   2.427  10.945   8.712 -2.3340 -0.3716 -2.4717
  957MOL0     H32033   2.504  11.094   8.668 -0.6604 -0.0165  1.4071
  957MOL0     H32034   2.542  10.811   8.533  2.9297  0.3980  4.9378
  957MOL0     H32035   2.638  10.954   8.491  1.7777 -2.6959  1.5741
  957MOL0     H32036   2.460  11.037   8.343 -0.5756  0.5004  1.0945
  957MOL0     H32037   2.332  10.971   8.431 -0.5369 -0.7893 -2.5673
  957MOL0     H32038   2.539  10.807   8.260  0.9899  1.2598  2.4305
  957MOL0     H32039   2.405  10.745   8.354 -1.2200  0.4389 -0.0647
  957MOL0     H32040   2.354  10.948   8.135 -1.5530  0.2997  0.7256
  957MOL0     H32041   2.240  10.882   8.228 -0.5031 -1.4114 -0.8620
  957MOL0     H32042   2.228  10.701   8.077  0.8746 -0.1987 -3.0333
  957MOL0     H32043   2.389  10.656   8.136 -2.5655 -1.2397  1.9046
  957MOL0     H32044   2.386  10.674   7.887 -0.9975  0.2707  0.3537
  957MOL0     H32045   2.481  10.814   7.958 -0.5730  2.0952  0.5278
  957MOL0     H32046   2.739  10.886   8.990  0.0729 -0.3843 -0.4847
  957MOL0     H32047   2.912  10.788   9.106  0.1711 -0.0878 -0.9791
  957MOL0     H32048   3.418  10.510   8.826 -1.2219 -2.7062  0.7583
  957MOL0     H32049   3.619  10.495   8.899 -0.6194  0.4688  0.1334
  957MOL0     H32050   5.161   9.682   9.973 -2.1305 -0.8345 -0.4744
  957MOL0     H32051   5.387   9.686  10.054  0.8191 -0.4648 -0.3721
  957MOL0     H32052   5.871   9.789   9.654  0.9055  0.6062  0.8337
  957MOL0     H32053   6.107   9.727   9.683  0.7188  2.3764 -0.0196
  957MOL0     H32054   6.289   9.593   9.760 -0.1054  0.2525 -1.4162
  957MOL0     H32055   6.338   9.759   9.753  1.1421 -1.8310 -2.7233
  957MOL0     H32056   6.449   9.543   9.925  1.1851 -0.2267  0.9607
  957MOL0     H32057   6.482   9.723   9.947 -1.7190 -1.7243  0.7572
  957MOL0     H32058   6.541   9.542   9.714 -0.5478 -2.0011  3.1740
  957MOL0     H32059   6.566   9.713   9.703  0.0567  2.1683  2.7412
  957MOL0     H32060   6.717   9.531   9.900 -0.7051  0.5723  0.2278
  957MOL0     H32061   6.743   9.698   9.886  1.7902 -0.4854 -0.1610
  957MOL0     H32062   6.930   9.641   9.526 -3.7261 -0.0707 -1.7875
  957MOL0     H32063   6.040   9.690  10.105 -2.6346 -1.3371  0.8736
  957MOL0     H32064   5.690   9.697  10.099  0.1206 -0.3523  0.3697
  957MOL0     H32065   5.833   9.673  10.197 -0.4764 -4.3421 -1.8587
  957MOL0     H32066   5.787   9.841  10.157  4.5090  0.7534 -1.3784
  958MOL0     O32067   2.828   1.061   1.581 -0.2950  1.0526 -0.0373
  958MOL0     C32068   2.828   1.008   1.691 -0.4210  0.5239  0.2092
  958MOL0     O32069   2.920   0.913   1.733 -0.1960  0.7274  0.6044
  958MOL0     C32070   2.999   0.857   1.632 -0.3265  0.1759 -0.3292
  958MOL0     C32071   2.963   0.827   1.501  0.1133  0.1604 -0.1503
  958MOL0     C32072   3.064   0.760   1.419 -0.3798 -0.0287 -0.1613
  958MOL0     C32073   3.195   0.736   1.471  0.6875 -0.5244  0.2700
  958MOL0     O32074   3.298   0.670   1.402  0.3222 -0.0172  0.1054
  958MOL0     C32075   3.281   0.623   1.261  0.0022  0.0771 -0.8347
  958MOL0     C32076   3.415   0.573   1.205  0.5127 -0.8466  0.4698
  958MOL0     C32077   3.465   0.442   1.255 -0.4420  0.8818  0.2185
  958MOL0     C32078   3.427   0.399   1.402 -0.4807  0.2846 -0.4330
  958MOL0     C32079   3.473   0.252   1.421  0.3353  0.2273  1.1913
  958MOL0     C32080   3.450   0.223   1.563 -0.4238 -0.3348  0.2907
  958MOL0     C32081   3.507   0.085   1.600 -0.6875 -0.2193 -0.5294
  958MOL0     C32082   3.548   0.091   1.748 -0.3118  0.1448 -0.7339
  958MOL0     N32083   3.559  -0.036   1.826 -0.2607 -0.3834 -0.2517
  958MOL0     C32084   3.484  -0.088   1.931 -0.2743 -0.1084  0.6277
  958MOL0     C32085   3.549  -0.195   1.979 -0.7325 -0.5243 -0.1371
  958MOL0     C32086   3.519  -0.278   2.098 -0.2255  0.4927  0.4546
  958MOL0     C32087   3.602  -0.412   2.120  0.2846 -0.0192 -0.3076
  958MOL0     C32088   3.591  -0.487   2.254  0.6716 -0.6075 -0.4273
  958MOL0     C32089   3.606  -0.636   2.231  0.2851  0.7251 -0.5505
  958MOL0     O32090   3.712  -0.685   2.151  0.3004 -0.4690  0.1431
  958MOL0     C32091   3.682  -0.779   2.065  0.6066  0.7098 -0.0081
  958MOL0     C32092   3.658  -0.751   1.934  0.7586 -1.3669 -0.1113
  958MOL0     C32093   3.611  -0.851   1.849  0.1745 -0.1893 -0.2059
  958MOL0     C32094   3.601  -0.819   1.695 -0.1685  0.3978 -1.0392
  958MOL0     C32095   3.585  -0.981   1.893  0.0901  0.0753  0.3415
  958MOL0     C32096   3.524  -1.087   1.814 -0.3010  0.2521  0.2385
  958MOL0     O32097   3.540  -1.213   1.864 -0.8490  0.6436  0.7290
  958MOL0     C32098   3.453  -1.308   1.838 -0.3081 -0.9103  0.0061
  958MOL0     C32099   3.315  -1.289   1.812 -0.5555  0.4481 -0.7018
  958MOL0     C32100   3.226  -1.395   1.782  0.0243 -1.2773  0.8324
  958MOL0     C32101   3.279  -1.523   1.798  0.6651  0.1948 -0.2135
  958MOL0     O32102   3.204  -1.633   1.778  0.1804  0.2813  0.1556
  958MOL0     C32103   3.065  -1.613   1.751  0.9673  0.6542  0.0236
  958MOL0     C32104   2.973  -1.574   1.873  0.4681  0.8821 -0.3469
  958MOL0     C32105   2.948  -1.709   1.943  0.3820  1.0438 -0.9055
  958MOL0     C32106   2.928  -1.685   2.097 -0.3031  0.2913 -0.0516
  958MOL0     C32107   2.921  -1.823   2.173 -0.1501  0.1965 -0.4044
  958MOL0     C32108   2.804  -1.918   2.131 -0.0992 -0.0260  0.0832
  958MOL0     C32109   2.666  -1.846   2.121  0.5936  1.0101  0.1051
  958MOL0     C32110   2.550  -1.939   2.084 -0.3159 -0.1413 -0.6141
  958MOL0    Cl32111   2.543  -2.077   2.198 -0.4686  0.1566 -0.5559
  958MOL0     C32112   3.413  -1.544   1.842  0.1982 -0.4768  0.4760
  958MOL0     C32113   3.503  -1.435   1.859 -1.0435 -0.1790  0.7795
  958MOL0     O32114   3.455  -1.060   1.716  0.2059 -0.3080  0.1619
  958MOL0     C32115   3.618  -1.010   2.023 -0.5313  0.3056  0.4269
  958MOL0     C32116   3.665  -0.912   2.113  0.4210  0.7737  0.5121
  958MOL0     N32117   3.664  -0.221   1.899 -0.0602 -0.7829 -0.2086
  958MOL0     N32118   3.660  -0.125   1.807 -0.3182  0.2114  0.8443
  958MOL0     C32119   3.221   0.758   1.601  0.0341 -0.3214 -0.7621
  958MOL0     C32120   3.122   0.812   1.688  0.1468  0.0403  1.0206
  958MOL0     C32121   2.745   1.049   1.796  0.8651  0.5567 -0.3389
  958MOL0     C32122   2.802   1.061   1.923 -0.2115 -0.8818 -0.0941
  958MOL0     C32123   2.730   1.105   2.028  0.1908  0.4960  0.0147
  958MOL0     C32124   2.599   1.162   2.008  0.0764 -0.3905  0.8727
  958MOL0     O32125   2.545   1.226   2.120  0.3650 -0.3112 -0.1308
  958MOL0     C32126   2.409   1.272   2.102  0.6239  0.1883  0.1460
  958MOL0     C32127   2.329   1.321   2.220 -0.0669  0.5538  0.3678
  958MOL0     C32128   2.253   1.199   2.282 -0.0556  0.3932 -1.5672
  958MOL0     C32129   2.163   1.246   2.399  0.2114  0.6792 -0.7293
  958MOL0     C32130   2.252   1.296   2.504  0.1757 -0.2024 -0.3813
  958MOL0     C32131   2.316   1.359   2.587  0.7695  0.5575 -0.0708
  958MOL0     C32132   2.534   1.144   1.879  0.0578  0.7699  0.1240
  958MOL0     C32133   2.612   1.097   1.775  0.0077 -0.2981 -0.2051
  958MOL0     C32134   2.550   1.124   1.638 -0.3454  0.9724 -0.0127
  958MOL0     H32135   2.863   0.846   1.461 -2.1359  0.0581  4.6601
  958MOL0     H32136   3.054   0.733   1.315  2.6546 -3.8786  0.3439
  958MOL0     H32137   3.255   0.709   1.198  1.5649  0.4081 -1.0762
  958MOL0     H32138   3.203   0.548   1.243  0.6124 -1.1549  1.3611
  958MOL0     H32139   3.391   0.577   1.098 -1.7501  0.1115  0.9596
  958MOL0     H32140   3.485   0.654   1.222 -1.1152  0.8164 -0.3982
  958MOL0     H32141   3.436   0.365   1.183 -1.9120  0.8565  0.8014
  958MOL0     H32142   3.573   0.459   1.245 -0.4177  0.8019  0.3538
  958MOL0     H32143   3.482   0.456   1.477 -0.4176 -1.5248  0.9601
  958MOL0     H32144   3.320   0.419   1.411 -0.3324  1.0419 -0.3077
  958MOL0     H32145   3.580   0.237   1.401 -0.2179 -0.6412 -1.4662
  958MOL0     H32146   3.417   0.181   1.360  0.1987  2.5035 -1.5435
  958MOL0     H32147   3.502   0.292   1.630  1.1743 -1.7962  0.6299
  958MOL0     H32148   3.341   0.228   1.571 -0.6077  1.7104 -2.0562
  958MOL0     H32149   3.591   0.058   1.536 -0.9544 -0.9538 -0.5759
  958MOL0     H32150   3.418   0.022   1.594  0.1439 -1.5494  0.5630
  958MOL0     H32151   3.647   0.137   1.749 -0.9675  1.7169  1.7894
  958MOL0     H32152   3.473   0.151   1.800 -1.2731 -2.7393  1.5050
  958MOL0     H32153   3.396  -0.040   1.974  1.0073  0.8034  2.3870
  958MOL0     H32154   3.412  -0.300   2.102  0.3401 -2.6703  0.9405
  958MOL0     H32155   3.543  -0.214   2.183  0.2459  2.0327 -0.7846
  958MOL0     H32156   3.594  -0.482   2.037  0.1781  0.5107 -0.7456
  958MOL0     H32157   3.708  -0.386   2.107  1.2805 -3.6259 -0.6199
  958MOL0     H32158   3.666  -0.445   2.321 -0.0270 -2.6397  1.7626
  958MOL0     H32159   3.498  -0.457   2.302  2.8089  0.6327  3.2936
  958MOL0     H32160   3.621  -0.683   2.328 -2.1512  1.4636  0.2563
  958MOL0     H32161   3.506  -0.668   2.202 -1.2977  1.9817  2.9561
  958MOL0     H32162   3.684  -0.653   1.894  0.7490 -0.8634  1.0802
  958MOL0     H32163   3.495  -0.801   1.674 -1.0102 -2.0717  0.6975
  958MOL0     H32164   3.644  -0.912   1.657  0.2408  0.6393 -1.1682
  958MOL0     H32165   3.664  -0.736   1.662  0.2900 -0.1099 -1.4571
  958MOL0     H32166   3.271  -1.190   1.817 -3.3217 -0.7528  1.8023
  958MOL0     H32167   3.123  -1.370   1.760  0.3832 -0.4138  0.0982
  958MOL0     H32168   3.047  -1.536   1.675  2.2972  0.9306 -0.0398
  958MOL0     H32169   3.022  -1.706   1.714  1.2695 -1.8062  5.0694
  958MOL0     H32170   3.032  -1.500   1.929  3.1303 -2.6386  1.9468
  958MOL0     H32171   2.888  -1.520   1.831  1.9237  3.6442 -0.0384
  958MOL0     H32172   3.038  -1.769   1.928  0.6995  1.7450 -1.8231
  958MOL0     H32173   2.864  -1.769   1.905 -1.8193  2.6110  1.1477
  958MOL0     H32174   2.839  -1.625   2.116 -0.3721 -0.1146  0.9404
  958MOL0     H32175   3.015  -1.626   2.129  0.9194 -1.2547 -0.3863
  958MOL0     H32176   3.020  -1.871   2.171 -1.2279 -2.1761 -2.4740
  958MOL0     H32177   2.914  -1.803   2.280 -0.7968 -2.2932  0.0863
  958MOL0     H32178   2.804  -2.002   2.201 -0.1791 -3.6086 -3.8143
  958MOL0     H32179   2.825  -1.973   2.039 -0.5385 -2.1246  1.1693
  958MOL0     H32180   2.674  -1.769   2.044  1.4176  0.5740 -0.2536
  958MOL0     H32181   2.625  -1.812   2.216 -2.7929 -0.4515 -0.6896
  958MOL0     H32182   2.563  -1.974   1.981  1.0148  1.4443 -1.0120
  958MOL0     H32183   2.456  -1.883   2.085  0.4786  1.2209  0.8266
  958MOL0     H32184   3.445  -1.647   1.839  2.7550  0.2881 -1.0143
  958MOL0     H32185   3.611  -1.448   1.868 -1.0291 -1.7932 -1.0647
  958MOL0     H32186   3.625  -1.108   2.069  2.4845  0.5020  0.6252
  958MOL0     H32187   3.707  -0.930   2.212  3.2251  4.2108  0.1461
  958MOL0     H32188   3.316   0.731   1.644  0.6786  1.2856 -1.1097
  958MOL0     H32189   3.152   0.823   1.792  1.0990  0.1336  0.7510
  958MOL0     H32190   2.907   1.035   1.933  0.2125  1.2076  1.4765
  958MOL0     H32191   2.777   1.110   2.126  0.1629  0.9974  0.0022
  958MOL0     H32192   2.407   1.353   2.028 -0.2657 -1.4969 -1.7687
  958MOL0     H32193   2.350   1.195   2.051 -3.5439  3.9704 -1.3496
  958MOL0     H32194   2.262   1.402   2.191  2.2808  2.1345 -0.9807
  958MOL0     H32195   2.392   1.375   2.292 -0.2502  1.1525  0.0847
  958MOL0     H32196   2.186   1.153   2.209 -1.3537 -0.8354  0.2991
  958MOL0     H32197   2.319   1.119   2.316 -0.2956  1.2942  1.3347
  958MOL0     H32198   2.100   1.169   2.444  0.3805  2.0700  2.1840
  958MOL0     H32199   2.092   1.321   2.362 -2.0609  0.0189  1.9177
  958MOL0     H32200   2.377   1.408   2.660 -0.2461 -2.2407  2.9419
  958MOL0     H32201   2.428   1.166   1.869 -0.0029  0.5262  0.2300
  958MOL0     H32202   2.591   1.214   1.592  2.9793 -0.6812 -0.5851
  958MOL0     H32203   2.578   1.042   1.571  1.7518  1.0346  0.7269
  958MOL0     H32204   2.441   1.121   1.642 -0.2912 -0.5903  1.5297
  959MOL0     O32205   3.329   1.097   3.879  0.0705  0.7559  0.9501
  959MOL0     C32206   3.332   1.169   3.972 -0.8415 -0.2455  0.3033
  959MOL0     O32207   3.347   1.138   4.101  1.0759  0.6706 -0.6421
  959MOL0     C32208   3.377   1.008   4.141 -0.8088 -0.1925 -0.8425
  959MOL0     C32209   3.318   0.954   4.256  0.7601 -0.2072  0.3975
  959MOL0     C32210   3.349   0.825   4.299  0.3975  0.4221 -0.2977
  959MOL0     C32211   3.436   0.745   4.219  0.3687 -0.0249 -0.9884
  959MOL0     O32212   3.469   0.615   4.248  0.4365  0.0913 -0.3834
  959MOL0     C32213   3.442   0.571   4.389 -0.7987 -0.1910 -0.1493
  959MOL0     C32214   3.526   0.435   4.404  0.8000  0.1011  0.7229
  959MOL0     C32215   3.681   0.449   4.413  0.0097 -1.7612 -0.6470
  959MOL0     C32216   3.734   0.364   4.531  0.7240 -0.3035  0.9742
  959MOL0     C32217   3.893   0.380   4.531  0.3251  1.1854  0.1661
  959MOL0     C32218   3.968   0.316   4.647 -0.1619  0.5060 -0.0440
  959MOL0     C32219   3.913   0.192   4.700 -0.3889  0.3219 -0.5667
  959MOL0     C32220   4.012   0.104   4.783 -0.2043 -0.2470  0.7971
  959MOL0     N32221   4.104   0.028   4.702 -0.0332  0.0786  0.4308
  959MOL0     C32222   4.235   0.049   4.666 -0.6671 -1.0810  0.4442
  959MOL0     C32223   4.279  -0.064   4.609 -0.9774  0.2898  0.1082
  959MOL0     C32224   4.412  -0.110   4.568 -0.7597 -1.0382  0.5085
  959MOL0     C32225   4.445  -0.098   4.415  0.0902 -0.2924 -0.0635
  959MOL0     C32226   4.581  -0.166   4.390 -1.0080 -0.2575 -0.2037
  959MOL0     C32227   4.699  -0.126   4.482 -0.5619 -0.1103  0.0784
  959MOL0     O32228   4.725   0.015   4.462  0.1899  0.4449  0.1592
  959MOL0     C32229   4.841   0.075   4.501 -0.3621  0.4698  0.3241
  959MOL0     C32230   4.955   0.020   4.457  0.1289 -0.0199  0.4070
  959MOL0     C32231   5.076   0.069   4.514  0.1126  1.2895 -0.0853
  959MOL0     C32232   5.205   0.007   4.474  0.5765  0.8157  0.1769
  959MOL0     C32233   5.079   0.175   4.611 -0.3349  0.6462 -0.0406
  959MOL0     C32234   5.196   0.224   4.678  0.6268 -0.1581  0.7824
  959MOL0     O32235   5.196   0.362   4.712  1.2294  0.4902  0.4993
  959MOL0     C32236   5.273   0.413   4.813 -0.4099 -0.7244 -0.0819
  959MOL0     C32237   5.362   0.517   4.790 -0.9212 -1.4306  0.4420
  959MOL0     C32238   5.455   0.566   4.877  0.1354  1.0335 -0.5097
  959MOL0     C32239   5.443   0.524   5.017  0.8470  0.4378  0.0539
  959MOL0     O32240   5.499   0.590   5.124  0.1656 -0.6542 -1.1043
  959MOL0     C32241   5.499   0.731   5.125 -0.0782  0.2571 -0.3176
  959MOL0     C32242   5.637   0.808   5.137 -0.2375  0.6342 -0.4009
  959MOL0     C32243   5.726   0.821   5.011  0.1925  0.4535 -0.7071
  959MOL0     C32244   5.808   0.696   4.991 -0.1299 -0.6218 -0.4998
  959MOL0     C32245   5.844   0.687   4.841  0.8696  0.0745  0.0070
  959MOL0     C32246   5.920   0.813   4.785  0.1866  0.2046  0.3029
  959MOL0     C32247   5.974   0.784   4.643  0.1827  0.5987 -0.6795
  959MOL0     C32248   5.864   0.755   4.537 -0.3848 -0.4156 -0.6699
  959MOL0    Cl32249   5.848   0.892   4.439  0.0197 -0.0131 -0.2119
  959MOL0     C32250   5.363   0.411   5.041 -0.1500  0.0067  0.4628
  959MOL0     C32251   5.282   0.355   4.940 -0.0461 -0.9077  1.1722
  959MOL0     O32252   5.284   0.152   4.722 -0.4937 -0.2994 -0.3437
  959MOL0     C32253   4.955   0.231   4.653 -0.9460 -0.2236  1.5989
  959MOL0     C32254   4.844   0.177   4.599 -0.1948  0.2297  0.1298
  959MOL0     N32255   4.176  -0.154   4.605 -0.6562  0.6639  0.1184
  959MOL0     N32256   4.070  -0.095   4.655  1.2391  0.4818  0.5394
  959MOL0     C32257   3.512   0.803   4.111 -0.2861  0.0413 -0.2718
  959MOL0     C32258   3.480   0.938   4.077 -0.4431  0.9080 -0.6980
  959MOL0     C32259   3.294   1.308   3.944 -0.9680 -0.6830 -0.5181
  959MOL0     C32260   3.312   1.359   3.814  0.8860  0.2044 -0.0011
  959MOL0     C32261   3.301   1.491   3.770 -0.6386  0.4700  0.4017
  959MOL0     C32262   3.264   1.587   3.860 -0.0480 -0.6806 -0.5497
  959MOL0     O32263   3.287   1.720   3.836 -0.1930  0.7697  0.1833
  959MOL0     C32264   3.269   1.756   3.700 -0.1796  0.0322 -0.3435
  959MOL0     C32265   3.393   1.782   3.626 -0.2969  0.6562 -0.0042
  959MOL0     C32266   3.355   1.769   3.476  0.4715 -0.1848  0.4311
  959MOL0     C32267   3.468   1.802   3.376 -0.4218  0.4352 -0.6878
  959MOL0     C32268   3.511   1.946   3.378 -0.1594 -0.2082 -0.7045
  959MOL0     C32269   3.535   2.069   3.389 -0.6636 -0.2989  0.3630
  959MOL0     C32270   3.245   1.542   3.994  0.0309 -0.6130  0.3839
  959MOL0     C32271   3.266   1.408   4.042  0.6477  0.1519 -0.2027
  959MOL0     C32272   3.237   1.388   4.184 -0.4993 -0.9812 -0.5491
  959MOL0     H32273   3.256   1.027   4.308  0.1460 -0.3936 -0.0564
  959MOL0     H32274   3.302   0.780   4.386  5.0563 -0.8694  1.8801
  959MOL0     H32275   3.340   0.542   4.414 -0.6196 -0.1500  0.6337
  959MOL0     H32276   3.486   0.647   4.454 -0.1597 -0.2248 -0.5377
  959MOL0     H32277   3.492   0.398   4.501  0.9509 -2.0600 -0.0073
  959MOL0     H32278   3.503   0.360   4.328 -6.1227  2.1467  0.1758
  959MOL0     H32279   3.723   0.414   4.318  2.4756 -3.2240  0.8645
  959MOL0     H32280   3.712   0.554   4.419  0.1395 -1.8656  0.8737
  959MOL0     H32281   3.702   0.411   4.624  0.6863  2.3781 -0.3177
  959MOL0     H32282   3.703   0.259   4.526  2.7407 -0.9620  1.0308
  959MOL0     H32283   3.928   0.484   4.527  3.3108  0.2442 -1.9222
  959MOL0     H32284   3.941   0.353   4.436  1.2364  1.9502  0.3874
  959MOL0     H32285   4.071   0.297   4.617  0.5413  0.2950  2.3115
  959MOL0     H32286   3.967   0.391   4.727  2.8786  0.4211  0.1902
  959MOL0     H32287   3.893   0.120   4.620  2.2176  1.6372 -2.5539
  959MOL0     H32288   3.822   0.219   4.755  0.7879 -0.3461  1.8355
  959MOL0     H32289   4.068   0.161   4.857  2.9337 -1.1224 -0.7423
  959MOL0     H32290   3.943   0.032   4.829  0.7151 -1.2086  0.7139
  959MOL0     H32291   4.292   0.139   4.687  0.4201 -2.1177  2.1819
  959MOL0     H32292   4.414  -0.217   4.591 -0.1721 -0.7462  1.9377
  959MOL0     H32293   4.483  -0.050   4.627 -0.9143  1.4769 -1.7009
  959MOL0     H32294   4.372  -0.163   4.367  1.3747 -3.4837  1.9839
  959MOL0     H32295   4.451   0.001   4.367  0.6700 -0.8228 -1.1180
  959MOL0     H32296   4.567  -0.272   4.412 -1.9558  0.3936  2.8327
  959MOL0     H32297   4.613  -0.160   4.285 -1.9324 -3.1105 -0.7290
  959MOL0     H32298   4.671  -0.146   4.586  0.2362  0.4645  0.4107
  959MOL0     H32299   4.778  -0.198   4.464 -1.3917 -1.0304  0.0338
  959MOL0     H32300   4.959  -0.057   4.381 -1.9140  0.8696 -0.6728
  959MOL0     H32301   5.285   0.077   4.498  0.8110  0.2858  0.9706
  959MOL0     H32302   5.213  -0.029   4.371  0.1417  1.4317 -0.0780
  959MOL0     H32303   5.218  -0.087   4.529 -1.2969  0.5756  0.2713
  959MOL0     H32304   5.362   0.568   4.693 -0.5724 -1.4132  0.4494
  959MOL0     H32305   5.525   0.646   4.857  0.3318  1.0289  0.1114
  959MOL0     H32306   5.428   0.779   5.056  2.6354  1.2576 -2.6006
  959MOL0     H32307   5.447   0.752   5.219 -0.9399 -0.4455 -0.6246
  959MOL0     H32308   5.608   0.904   5.180 -1.5423  0.9527 -1.9138
  959MOL0     H32309   5.686   0.777   5.230  0.5809  4.2809  0.5569
  959MOL0     H32310   5.795   0.905   5.021 -2.4763  2.7670 -0.4075
  959MOL0     H32311   5.662   0.840   4.924 -1.4549  0.1697  0.4033
  959MOL0     H32312   5.761   0.599   5.011  1.9002 -1.1441  2.3800
  959MOL0     H32313   5.889   0.697   5.064 -0.3939  0.0929 -0.2095
  959MOL0     H32314   5.904   0.595   4.840 -0.2402 -0.7066  1.2723
  959MOL0     H32315   5.746   0.667   4.796 -1.2374  0.4607  3.9904
  959MOL0     H32316   6.011   0.836   4.841  0.1982 -0.0172  0.3804
  959MOL0     H32317   5.855   0.899   4.772  0.3083  0.5270  1.6673
  959MOL0     H32318   6.044   0.699   4.639 -0.7853 -0.2233 -0.6083
  959MOL0     H32319   6.033   0.874   4.624  2.8711 -0.3240  2.4459
  959MOL0     H32320   5.779   0.713   4.592 -0.2551  1.9840  1.5061
  959MOL0     H32321   5.900   0.671   4.476  1.5280  0.8615 -1.4070
  959MOL0     H32322   5.357   0.379   5.144  2.8026  0.6341  0.9336
  959MOL0     H32323   5.222   0.265   4.950  0.3653 -1.3965 -0.4655
  959MOL0     H32324   4.956   0.299   4.737 -0.9887 -0.4668  1.8007
  959MOL0     H32325   4.749   0.199   4.646 -2.0487 -2.4253 -2.0676
  959MOL0     H32326   3.578   0.736   4.057 -0.2723  1.1498 -1.6734
  959MOL0     H32327   3.533   0.992   4.000 -1.1984 -0.5661 -2.3397
  959MOL0     H32328   3.334   1.288   3.734 -0.2040 -1.6656  1.2831
  959MOL0     H32329   3.332   1.514   3.669 -4.0082  1.2654 -0.5498
  959MOL0     H32330   3.208   1.680   3.650 -0.4431  0.8142 -1.2476
  959MOL0     H32331   3.216   1.852   3.693 -2.1911 -1.1655 -3.5173
  959MOL0     H32332   3.465   1.707   3.659 -1.4045 -1.4348 -2.0667
  959MOL0     H32333   3.428   1.884   3.646  4.8563 -0.9100  0.4224
  959MOL0     H32334   3.323   1.666   3.455 -0.0104  0.5508 -3.0968
  959MOL0     H32335   3.264   1.826   3.455  0.1282 -0.4082  1.2824
  959MOL0     H32336   3.438   1.769   3.276 -2.0311  0.9046 -0.4046
  959MOL0     H32337   3.541   1.731   3.413 -0.1114  0.6140 -0.9534
  959MOL0     H32338   3.571   2.169   3.394  2.2852 -1.2101 -0.5640
  959MOL0     H32339   3.222   1.625   4.060 -1.5311  0.5906 -1.5556
  959MOL0     H32340   3.326   1.381   4.247 -0.6861 -1.0751 -0.2944
  959MOL0     H32341   3.187   1.473   4.231 -0.3495 -0.1456 -1.8514
  959MOL0     H32342   3.172   1.299   4.187 -2.8892  0.6855  1.2608
  960MOL0     O32343   5.698   1.206   5.107  0.1354 -0.1655  0.1002
  960MOL0     C32344   5.725   1.228   4.989 -0.5447 -0.2534  0.1483
  960MOL0     O32345   5.643   1.299   4.901 -0.5448  0.4552  0.1685
  960MOL0     C32346   5.555   1.400   4.937 -0.3137 -0.5003 -0.5015
  960MOL0     C32347   5.509   1.476   4.830 -0.7801 -0.4331 -0.2681
  960MOL0     C32348   5.404   1.574   4.845  0.5019 -1.0599 -0.1792
  960MOL0     C32349   5.368   1.602   4.974  0.9768 -0.0493 -0.8516
  960MOL0     O32350   5.262   1.698   4.974 -0.3244  0.2284  0.1345
  960MOL0     C32351   5.201   1.748   5.095 -0.3753  0.9825  0.4550
  960MOL0     C32352   5.093   1.827   5.024  0.0452 -0.6277  0.4136
  960MOL0     C32353   4.958   1.766   4.992 -0.0405 -0.3657  1.0664
  960MOL0     C32354   4.954   1.672   4.878 -0.0455 -0.9194  0.6194
  960MOL0     C32355   4.887   1.542   4.918 -0.0474  0.5702  0.5872
  960MOL0     C32356   4.966   1.461   5.028  0.1532 -2.1569 -0.4146
  960MOL0     C32357   5.079   1.382   4.984 -0.9286 -0.2087  0.2098
  960MOL0     C32358   5.168   1.354   5.102 -0.7190  1.0056 -0.7764
  960MOL0     N32359   5.109   1.260   5.202  0.8124 -0.1988 -0.1593
  960MOL0     C32360   5.070   1.140   5.168  0.7847 -0.1125  0.0380
  960MOL0     C32361   5.015   1.091   5.282 -0.5752 -0.9336  0.7109
  960MOL0     C32362   4.967   0.950   5.303  0.2775 -0.6552 -0.1783
  960MOL0     C32363   4.932   0.914   5.445  0.4671  0.9887 -0.4995
  960MOL0     C32364   4.879   0.769   5.454  0.8082  0.9726 -0.0357
  960MOL0     C32365   4.723   0.775   5.460  0.6848 -0.3066  0.3530
  960MOL0     O32366   4.643   0.661   5.417  0.5973 -0.9465  0.8865
  960MOL0     C32367   4.660   0.534   5.468 -1.0653  0.4091  0.4868
  960MOL0     C32368   4.612   0.423   5.391 -0.8214  0.6096 -0.8807
  960MOL0     C32369   4.615   0.291   5.446  0.1283  0.6868  0.0418
  960MOL0     C32370   4.595   0.178   5.343  0.2523 -0.5077 -0.8504
  960MOL0     C32371   4.676   0.264   5.576 -0.9247  0.9871 -0.2593
  960MOL0     C32372   4.700   0.123   5.621  0.3558 -0.8639 -0.4948
  960MOL0     O32373   4.591   0.042   5.603  0.9683  0.0035 -0.2410
  960MOL0     C32374   4.593  -0.071   5.669  0.3744  0.8954  0.5170
  960MOL0     C32375   4.570  -0.196   5.601  0.0532  0.5694 -0.3385
  960MOL0     C32376   4.576  -0.316   5.663 -0.7986 -0.1247  1.2155
  960MOL0     C32377   4.606  -0.329   5.791  0.2827 -0.3742  0.0415
  960MOL0     O32378   4.627  -0.456   5.834 -1.5934 -0.5705  0.3860
  960MOL0     C32379   4.716  -0.541   5.756 -0.2939  0.6451  0.7722
  960MOL0     C32380   4.794  -0.638   5.843  0.2454 -1.6514 -0.5653
  960MOL0     C32381   4.709  -0.738   5.921  0.9028  0.3458  1.0610
  960MOL0     C32382   4.678  -0.695   6.066 -0.4321  0.3558  0.0761
  960MOL0     C32383   4.576  -0.786   6.133  0.7328 -0.0918  0.0743
  960MOL0     C32384   4.433  -0.756   6.103  0.1310  1.0485 -0.0807
  960MOL0     C32385   4.348  -0.850   6.183  0.4416 -0.2411  0.3359
  960MOL0     C32386   4.377  -0.851   6.333 -0.3096 -0.1589  0.3385
  960MOL0    Cl32387   4.248  -0.945   6.421  0.0551  0.1785  0.0668
  960MOL0     C32388   4.617  -0.204   5.869  0.1997 -0.8141 -0.0793
  960MOL0     C32389   4.619  -0.082   5.804  0.0005 -0.2329  0.1368
  960MOL0     O32390   4.808   0.090   5.662  0.7939 -0.0464  0.1468
  960MOL0     C32391   4.736   0.376   5.645 -0.2806  0.3205  0.1803
  960MOL0     C32392   4.729   0.510   5.596 -0.0819  0.4148  0.3726
  960MOL0     N32393   4.995   1.193   5.368  0.1139 -0.0286  0.5438
  960MOL0     N32394   5.049   1.301   5.320 -0.0007  0.2066  0.6257
  960MOL0     C32395   5.435   1.547   5.085  0.0461 -0.1236  0.1542
  960MOL0     C32396   5.523   1.438   5.069 -0.0738 -0.2591 -1.1444
  960MOL0     C32397   5.862   1.181   4.942 -0.0809  0.5476 -0.9063
  960MOL0     C32398   5.955   1.137   5.044  1.1313  0.1738 -0.0797
  960MOL0     C32399   6.079   1.081   4.999  0.6380 -0.0306 -0.3634
  960MOL0     C32400   6.131   1.098   4.869 -0.0706  0.3574  0.3675
  960MOL0     O32401   6.259   1.043   4.845  0.3945 -1.1893  0.4459
  960MOL0     C32402   6.306   1.016   4.712  0.9285 -0.2407 -0.2274
  960MOL0     C32403   6.456   0.988   4.745  0.5568 -0.0043  0.6830
  960MOL0     C32404   6.556   1.030   4.631  0.0376  0.2838  0.0599
  960MOL0     C32405   6.563   0.925   4.514  0.6113  0.3307  0.3755
  960MOL0     C32406   6.430   0.917   4.443 -1.6344 -0.5828 -0.2278
  960MOL0     C32407   6.321   0.914   4.385 -0.8311 -0.4515 -0.2826
  960MOL0     C32408   6.036   1.138   4.770  0.0704 -0.2651 -0.3577
  960MOL0     C32409   5.899   1.181   4.808 -0.1857 -0.9110 -0.1359
  960MOL0     C32410   5.818   1.237   4.697 -0.3882 -0.3984  0.6157
  960MOL0     H32411   5.532   1.468   4.724 -1.5082  1.4010 -0.6024
  960MOL0     H32412   5.366   1.640   4.768 -1.0909 -0.6798  0.8934
  960MOL0     H32413   5.268   1.807   5.158 -1.4127  1.8970  0.7282
  960MOL0     H32414   5.152   1.674   5.159  2.0905 -1.0849  0.0899
  960MOL0     H32415   5.055   1.900   5.096  0.6203  1.1546 -0.9880
  960MOL0     H32416   5.138   1.892   4.947 -1.3892  0.9083  0.8143
  960MOL0     H32417   4.920   1.724   5.086 -0.1188 -0.8089  0.8397
  960MOL0     H32418   4.888   1.846   4.967 -1.4979 -1.8368  0.2754
  960MOL0     H32419   4.896   1.714   4.795  1.2574 -1.2660 -0.5021
  960MOL0     H32420   5.053   1.649   4.839 -0.1388  1.0313 -0.9220
  960MOL0     H32421   4.879   1.487   4.824  0.9493 -1.9084  1.8797
  960MOL0     H32422   4.787   1.555   4.960 -0.8876  1.6242 -1.5595
  960MOL0     H32423   4.993   1.531   5.107 -0.2678  0.0761 -2.1601
  960MOL0     H32424   4.891   1.397   5.075 -0.7193 -0.9432 -0.1216
  960MOL0     H32425   5.132   1.431   4.902 -3.8781  1.7898 -0.6665
  960MOL0     H32426   5.039   1.292   4.936 -0.2482  0.0895 -0.9603
  960MOL0     H32427   5.262   1.315   5.063 -1.0412  0.9962 -1.5620
  960MOL0     H32428   5.185   1.450   5.152  0.2421  0.5011 -0.1167
  960MOL0     H32429   5.097   1.081   5.081  0.0529  1.2460 -1.1383
  960MOL0     H32430   5.047   0.882   5.272  0.1620 -0.2464 -1.4157
  960MOL0     H32431   4.881   0.927   5.239  0.5430 -4.5572  0.5671
  960MOL0     H32432   5.023   0.913   5.506 -0.1382 -1.5382  0.5079
  960MOL0     H32433   4.857   0.978   5.491  0.5875  1.6271 -1.1756
  960MOL0     H32434   4.908   0.703   5.372  0.6052 -0.6180  1.1420
  960MOL0     H32435   4.915   0.715   5.542 -0.2069  0.1510 -0.1041
  960MOL0     H32436   4.703   0.803   5.564  0.1999  0.4914  0.0564
  960MOL0     H32437   4.694   0.856   5.393  0.7786  0.0484  0.7317
  960MOL0     H32438   4.572   0.433   5.290  0.7361 -1.0483 -1.7274
  960MOL0     H32439   4.686   0.123   5.322  3.3426  3.8767 -0.3230
  960MOL0     H32440   4.547   0.231   5.260  0.2153 -2.5775 -2.2170
  960MOL0     H32441   4.516   0.113   5.381 -3.0301  3.2163 -0.5893
  960MOL0     H32442   4.542  -0.200   5.496 -2.2624 -0.1208  0.2407
  960MOL0     H32443   4.563  -0.402   5.599 -1.3622  1.1907 -0.5135
  960MOL0     H32444   4.655  -0.599   5.685  0.5753  0.9862 -0.2868
  960MOL0     H32445   4.781  -0.473   5.700  1.7717  0.6464  3.0163
  960MOL0     H32446   4.866  -0.692   5.780  0.6389 -1.3541 -0.3779
  960MOL0     H32447   4.852  -0.571   5.907 -1.8914 -2.8845  2.9683
  960MOL0     H32448   4.750  -0.839   5.919  1.5717  0.6139 -0.2441
  960MOL0     H32449   4.617  -0.739   5.861  1.0921 -2.4228  0.6616
  960MOL0     H32450   4.650  -0.589   6.075  2.5036  1.2044  0.4970
  960MOL0     H32451   4.757  -0.708   6.142  0.0550 -0.8825 -0.6111
  960MOL0     H32452   4.608  -0.889   6.114  1.0352  0.1750 -0.9174
  960MOL0     H32453   4.588  -0.781   6.242 -3.9904  0.6590  0.7842
  960MOL0     H32454   4.419  -0.777   5.996 -0.2676 -2.1607  0.5014
  960MOL0     H32455   4.415  -0.651   6.130  0.2865  0.9678  0.3500
  960MOL0     H32456   4.346  -0.958   6.161 -2.2791 -0.0600 -0.6295
  960MOL0     H32457   4.249  -0.804   6.174  0.6512  0.4585  1.4308
  960MOL0     H32458   4.397  -0.753   6.378  1.1246 -0.4483  0.4001
  960MOL0     H32459   4.471  -0.906   6.343  2.1884  3.4717 -0.9259
  960MOL0     H32460   4.642  -0.209   5.974 -2.8603  1.6641  0.8873
  960MOL0     H32461   4.638   0.007   5.863  2.4129 -0.0855 -0.7659
  960MOL0     H32462   4.794   0.370   5.736  4.4472  1.8738 -2.4183
  960MOL0     H32463   4.763   0.591   5.659 -3.7817  1.1990  1.6055
  960MOL0     H32464   5.405   1.563   5.188 -2.5576 -1.7412 -0.2492
  960MOL0     H32465   5.562   1.388   5.157  0.8296  2.4671  0.1478
  960MOL0     H32466   5.920   1.133   5.147  0.7825 -1.1497 -0.2270
  960MOL0     H32467   6.129   1.024   5.077 -0.5723 -1.3139 -0.4968
  960MOL0     H32468   6.257   0.925   4.678  0.0619 -1.1056  2.9244
  960MOL0     H32469   6.286   1.105   4.651 -3.4297 -0.7621  0.0715
  960MOL0     H32470   6.473   0.883   4.767  0.6808  0.1816  1.4895
  960MOL0     H32471   6.480   1.044   4.836  0.5180  0.1252  0.6144
  960MOL0     H32472   6.521   1.129   4.600 -0.0537  0.7744  1.6687
  960MOL0     H32473   6.653   1.034   4.679  0.2988  2.6528 -0.5408
  960MOL0     H32474   6.594   0.825   4.546 -0.5032 -0.1806 -0.0981
  960MOL0     H32475   6.633   0.970   4.443 -0.3967  1.1507 -0.1253
  960MOL0     H32476   6.229   0.912   4.331 -2.5057 -3.5490  2.3156
  960MOL0     H32477   6.064   1.133   4.665 -2.5163 -2.6927 -1.0317
  960MOL0     H32478   5.713   1.209   4.696 -0.1768 -1.2196  0.2324
  960MOL0     H32479   5.830   1.344   4.676 -0.2221 -0.4285  0.5517
  960MOL0     H32480   5.848   1.186   4.605 -3.1905 -1.6519  0.3021
  961MOL0     O32481   3.217   9.755   9.996 -0.3707  0.3342  0.5816
  961MOL0     C32482   3.154   9.670   9.930  0.3727  0.0049 -0.8769
  961MOL0     O32483   3.151   9.658   9.800  0.1292  0.7786 -0.0541
  961MOL0     C32484   3.228   9.732   9.721 -0.3015  1.3918 -0.7938
  961MOL0     C32485   3.180   9.782   9.605  0.1235  0.6232  0.4195
  961MOL0     C32486   3.255   9.848   9.507 -0.5096 -0.4108 -0.0944
  961MOL0     C32487   3.397   9.866   9.534  0.2707 -0.2325 -0.2244
  961MOL0     O32488   3.494   9.907   9.451 -1.1687  0.2501  0.3405
  961MOL0     C32489   3.448   9.987   9.348 -0.0271 -0.8580  0.7517
  961MOL0     C32490   3.436  10.135   9.393  0.2448  0.9736 -0.1466
  961MOL0     C32491   3.558  10.188   9.480  0.2608  0.1453  0.3220
  961MOL0     C32492   3.579  10.339   9.488 -0.9538 -0.5371 -0.9190
  961MOL0     C32493   3.716  10.382   9.555  0.1546  0.2707 -0.1401
  961MOL0     C32494   3.724  10.543   9.548  0.3555  0.5535  0.0502
  961MOL0     C32495   3.646  10.625   9.654  1.0992  0.5975  0.2052
  961MOL0     C32496   3.641  10.770   9.621 -0.5564 -0.4129  0.3944
  961MOL0     N32497   3.603  10.847   9.741 -0.5258 -0.9558  0.6418
  961MOL0     C32498   3.477  10.839   9.793 -0.7150  0.7127 -0.0081
  961MOL0     C32499   3.464  10.946   9.875 -0.0173  0.1906 -0.6284
  961MOL0     C32500   3.331  10.976   9.940  0.6966  0.0309 -1.0561
  961MOL0     C32501   3.252  11.061   9.841  0.4757 -0.0186  0.0027
  961MOL0     C32502   3.318  11.199   9.821  0.5076 -0.6712 -0.3828
  961MOL0     C32503   3.218  11.309   9.781 -0.5446  0.0224  0.3401
  961MOL0     O32504   3.096  11.312   9.859  0.1290  1.5038  0.0981
  961MOL0     C32505   3.054  11.437   9.884 -0.3243 -0.1813 -0.2375
  961MOL0     C32506   3.130  11.535   9.952  0.6467 -0.3593 -0.5561
  961MOL0     C32507   3.088  11.663   9.970  0.0246  0.5091  0.9429
  961MOL0     C32508   3.184  11.762  10.036 -0.4812  0.6858  0.3061
  961MOL0     C32509   2.957  11.690   9.930  0.1611 -0.4505 -0.1547
  961MOL0     C32510   2.895  11.818   9.962 -0.1932  0.7318  0.6890
  961MOL0     O32511   2.834  11.868   9.859  0.8423  0.4166  0.5962
  961MOL0     C32512   2.727  11.949   9.861 -0.0540  0.6834  0.2078
  961MOL0     C32513   2.684  12.025   9.979  0.3667  0.1782  0.5750
  961MOL0     C32514   2.576  12.113   9.954 -0.0530  0.1764 -0.6988
  961MOL0     C32515   2.527  12.140   9.828  0.7819 -0.4263 -0.1871
  961MOL0     O32516   2.424  12.223   9.825  0.0977 -0.7979  0.0824
  961MOL0     C32517   2.376  12.273   9.695 -1.0497 -0.6697 -0.6140
  961MOL0     C32518   2.251  12.369   9.714  0.9007 -0.2544 -0.5329
  961MOL0     C32519   2.167  12.369   9.588  0.0253 -0.7789  0.1029
  961MOL0     C32520   2.022  12.416   9.606  0.1228 -0.3361  0.0230
  961MOL0     C32521   1.961  12.421   9.460  0.6487  0.4921  0.2413
  961MOL0     C32522   1.866  12.536   9.439  0.1033  1.2954 -0.7148
  961MOL0     C32523   1.739  12.487   9.371  0.0977  0.4095  0.1257
  961MOL0     C32524   1.779  12.419   9.232 -0.6249  0.3629  0.0498
  961MOL0    Cl32525   1.867  12.531   9.119  0.1908  0.4388 -0.3855
  961MOL0     C32526   2.575  12.073   9.718 -0.6800 -0.0483 -1.3336
  961MOL0     C32527   2.668  11.972   9.734 -0.4198  0.3743  0.8342
  961MOL0     O32528   2.908  11.874  10.071  0.0039 -0.5062 -0.4160
  961MOL0     C32529   2.880  11.596   9.864 -0.1582 -0.7621  0.3697
  961MOL0     C32530   2.927  11.470   9.832 -1.4392  0.2855  1.2187
  961MOL0     N32531   3.595  10.998   9.889  1.1714 -0.0035  0.8412
  961MOL0     N32532   3.676  10.952   9.799  0.5463  0.7914 -0.7847
  961MOL0     C32533   3.453   9.811   9.648  0.2231 -0.6740  0.0635
  961MOL0     C32534   3.368   9.741   9.741 -0.3122  0.0161  0.6618
  961MOL0     C32535   3.086   9.564  10.016 -0.1516  0.9329 -0.2556
  961MOL0     C32536   3.100   9.573  10.154  0.0332 -0.3659 -0.1245
  961MOL0     C32537   3.044   9.479  10.239 -0.4042 -1.1871  0.0119
  961MOL0     C32538   2.968   9.375  10.194 -0.3417 -0.6419  0.2502
  961MOL0     O32539   2.915   9.290  10.290  0.3840 -0.2124  0.3026
  961MOL0     C32540   2.938   9.149  10.283  0.3582 -0.4407 -0.4079
  961MOL0     C32541   2.810   9.069  10.219 -0.1119 -0.6575 -0.0991
  961MOL0     C32542   2.834   8.922  10.179  0.5920  0.5032 -0.0155
  961MOL0     C32543   2.957   8.890  10.082  0.0431 -0.2123 -1.1846
  961MOL0     C32544   2.950   8.971   9.961  0.1182  0.1306  0.6741
  961MOL0     C32545   2.932   9.037   9.860  0.4578 -0.0201 -1.0053
  961MOL0     C32546   2.960   9.362  10.051  0.9392  0.1586 -0.1157
  961MOL0     C32547   3.010   9.455   9.966 -0.3585  0.4860 -0.3621
  961MOL0     C32548   2.986   9.428   9.811 -0.2386  0.1305 -0.4402
  961MOL0     H32549   3.075   9.757   9.600  0.1254  0.8627 -1.8180
  961MOL0     H32550   3.215   9.862   9.407  2.2481  1.8533 -1.0065
  961MOL0     H32551   3.356   9.956   9.296  0.6376 -0.7005 -0.5537
  961MOL0     H32552   3.525   9.990   9.271 -0.5567  0.4733  0.2396
  961MOL0     H32553   3.425  10.210   9.313 -0.9651  2.6589  1.5065
  961MOL0     H32554   3.348  10.141   9.457  1.9231  0.2616  2.3774
  961MOL0     H32555   3.565  10.136   9.576  1.8650  1.6817  1.0955
  961MOL0     H32556   3.649  10.160   9.426  0.3124  0.4599  0.2440
  961MOL0     H32557   3.578  10.371   9.384 -2.0664 -1.6101 -1.2699
  961MOL0     H32558   3.491  10.379   9.539  1.4211  0.2522  2.9543
  961MOL0     H32559   3.798  10.322   9.516 -2.4610 -2.0150 -2.6443
  961MOL0     H32560   3.724  10.362   9.663  1.6237 -3.0492 -0.7513
  961MOL0     H32561   3.820  10.591   9.570  0.7727 -0.4088  0.3735
  961MOL0     H32562   3.687  10.570   9.449 -2.7920  1.0940  1.2564
  961MOL0     H32563   3.695  10.616   9.751 -0.0356  0.9068  0.8246
  961MOL0     H32564   3.547  10.586   9.677 -0.0630  1.6831 -2.4547
  961MOL0     H32565   3.727  10.808   9.566 -2.3934 -1.0844 -3.3044
  961MOL0     H32566   3.571  10.773   9.537 -0.9180  0.2958  0.7124
  961MOL0     H32567   3.406  10.763   9.763  0.6010 -0.6349  0.1712
  961MOL0     H32568   3.350  11.022  10.037 -0.6066 -0.6190 -0.4646
  961MOL0     H32569   3.280  10.882   9.965  0.8828 -0.1022 -1.1653
  961MOL0     H32570   3.255  11.003   9.748  2.6235 -3.5950  2.0655
  961MOL0     H32571   3.147  11.086   9.857 -0.7110 -2.5356 -2.7632
  961MOL0     H32572   3.371  11.224   9.913 -2.1786  0.0319  1.0972
  961MOL0     H32573   3.390  11.204   9.739 -0.7884  2.5621 -1.4990
  961MOL0     H32574   3.265  11.405   9.759 -2.3925  0.4515 -2.1868
  961MOL0     H32575   3.178  11.283   9.683 -0.2946  0.6541  0.0665
  961MOL0     H32576   3.224  11.499   9.994 -0.6848 -2.0431  1.1595
  961MOL0     H32577   3.291  11.738  10.032 -0.2153  1.7259 -4.1605
  961MOL0     H32578   3.142  11.750  10.136  2.4944 -1.1176  1.4834
  961MOL0     H32579   3.172  11.859   9.988 -1.0157 -0.3880 -1.8490
  961MOL0     H32580   2.737  12.006  10.072  2.1378  2.7617  0.2064
  961MOL0     H32581   2.552  12.169  10.043  1.0584 -0.9107  0.3307
  961MOL0     H32582   2.458  12.322   9.642 -0.7548 -0.5539 -0.0633
  961MOL0     H32583   2.349  12.178   9.648  2.7451 -2.3053  0.2012
  961MOL0     H32584   2.187  12.332   9.794  0.3571  0.0416 -0.8229
  961MOL0     H32585   2.293  12.464   9.747 -0.6628  0.5248 -0.7015
  961MOL0     H32586   2.155  12.267   9.551 -1.5338 -0.8763  0.7613
  961MOL0     H32587   2.227  12.438   9.528  0.8913 -2.2620 -0.7718
  961MOL0     H32588   2.013  12.513   9.656 -3.3743 -1.0307  1.0174
  961MOL0     H32589   1.974  12.347   9.675  0.3054 -0.4529  0.0325
  961MOL0     H32590   2.032  12.420   9.378 -0.3356  2.8891 -0.7271
  961MOL0     H32591   1.900  12.331   9.448  0.8436 -0.3568  4.0619
  961MOL0     H32592   1.892  12.619   9.373 -1.8751 -0.2115 -3.6313
  961MOL0     H32593   1.838  12.573   9.538 -1.0306 -2.0742  0.3491
  961MOL0     H32594   1.669  12.570   9.359 -1.0058 -0.5571 -0.3479
  961MOL0     H32595   1.706  12.411   9.442  3.8937 -0.7097  0.9438
  961MOL0     H32596   1.693  12.375   9.180 -0.8731 -1.1007  1.5956
  961MOL0     H32597   1.847  12.333   9.240 -0.1434  0.7504  0.1193
  961MOL0     H32598   2.535  12.069   9.617 -1.6123 -1.0481 -0.9515
  961MOL0     H32599   2.687  11.893   9.662  0.6877 -0.9296  2.4666
  961MOL0     H32600   2.779  11.627   9.841 -0.3388 -0.0191  2.0313
  961MOL0     H32601   2.870  11.390   9.786  0.3880 -0.3195 -0.0968
  961MOL0     H32602   3.559   9.801   9.665  0.1315  1.1252  2.0644
  961MOL0     H32603   3.426   9.692   9.818  3.7439  3.0105 -0.1129
  961MOL0     H32604   3.162   9.647  10.202  3.5483 -1.7048 -2.1724
  961MOL0     H32605   3.082   9.500  10.339  1.1767 -1.7474 -0.4332
  961MOL0     H32606   3.027   9.126  10.223 -0.4076 -3.5327 -0.5194
  961MOL0     H32607   2.957   9.114  10.385  0.2901  4.9071  1.7752
  961MOL0     H32608   2.770   9.124  10.133  0.1675  1.8575  1.3065
  961MOL0     H32609   2.729   9.077  10.292 -1.9235 -2.8347 -1.7301
  961MOL0     H32610   2.843   8.859  10.268  2.2270 -0.5106 -0.8468
  961MOL0     H32611   2.753   8.872  10.126  0.4870  2.5996 -1.9870
  961MOL0     H32612   2.971   8.786  10.050  1.2060 -0.2165 -0.7132
  961MOL0     H32613   3.047   8.917  10.138 -0.0618 -3.7904  1.0108
  961MOL0     H32614   2.913   9.107   9.781 -3.2928  0.7780  0.3917
  961MOL0     H32615   2.899   9.281  10.011  2.0708 -0.0693 -1.4564
  961MOL0     H32616   2.928   9.515   9.778 -0.9218  0.8260  2.3379
  961MOL0     H32617   3.079   9.426   9.754 -1.2406  1.3801 -2.2393
  961MOL0     H32618   2.920   9.343   9.793 -0.5210 -0.2838  2.1890
  962MOL0     O32619   3.773  11.041   5.381  0.2625  0.1353  0.7569
  962MOL0     C32620   3.831  11.068   5.486  0.1362 -0.3397 -0.6090
  962MOL0     O32621   3.943  11.008   5.537  0.1335 -0.6980 -0.3116
  962MOL0     C32622   3.990  10.910   5.464  0.2097  0.2022  0.5849
  962MOL0     C32623   3.933  10.782   5.477  0.7522 -0.5790 -0.3550
  962MOL0     C32624   3.990  10.667   5.417  0.2256  0.1578  1.0470
  962MOL0     C32625   4.097  10.690   5.328 -1.1584  0.0013  0.3907
  962MOL0     O32626   4.168  10.594   5.258  0.4496  0.7802  0.4559
  962MOL0     C32627   4.112  10.464   5.256  0.1525  0.7198 -0.9853
  962MOL0     C32628   4.221  10.373   5.199  0.3837  0.3323 -0.7381
  962MOL0     C32629   4.219  10.364   5.047 -0.0531  0.8333  1.0887
  962MOL0     C32630   4.315  10.268   4.988  0.9002 -0.8427 -0.1729
  962MOL0     C32631   4.278  10.120   5.018  0.0023  0.1700  0.3751
  962MOL0     C32632   4.382  10.012   4.986 -0.2947  0.3248 -0.1308
  962MOL0     C32633   4.327   9.882   5.040  0.2261 -0.2253  0.2600
  962MOL0     C32634   4.420   9.774   4.986  0.0949 -0.2938 -0.2489
  962MOL0     N32635   4.566   9.773   5.022  0.6701 -0.1070  0.3514
  962MOL0     C32636   4.678   9.786   4.942 -0.1391 -0.2700 -0.1520
  962MOL0     C32637   4.781   9.766   5.030  0.1705  0.6802  0.3777
  962MOL0     C32638   4.923   9.775   5.004  0.0840 -0.1311 -0.0634
  962MOL0     C32639   4.961   9.676   4.890  0.5945  0.5241 -0.2285
  962MOL0     C32640   5.087   9.599   4.926 -1.1182  0.2537 -0.9970
  962MOL0     C32641   5.160   9.555   4.807 -0.2906 -0.8593 -1.0002
  962MOL0     O32642   5.077   9.452   4.751  0.4227 -0.5457  0.5089
  962MOL0     C32643   5.119   9.391   4.636  0.5529 -0.3351  0.4164
  962MOL0     C32644   5.221   9.436   4.549  0.4049  0.0831  0.1450
  962MOL0     C32645   5.246   9.367   4.428  0.2805 -0.0491  0.7192
  962MOL0     C32646   5.346   9.435   4.335  0.6063 -0.6296 -0.6070
  962MOL0     C32647   5.171   9.250   4.392  0.8076 -0.3715  0.1206
  962MOL0     C32648   5.190   9.177   4.264 -1.1078 -0.0573 -0.3161
  962MOL0     O32649   5.084   9.093   4.232  0.0946 -0.1037  0.0530
  962MOL0     C32650   5.082   9.029   4.110  0.8923 -0.4041  0.8368
  962MOL0     C32651   5.130   9.095   3.989  1.3575 -0.2420  0.4932
  962MOL0     C32652   5.140   9.018   3.868 -0.3416 -0.4778 -0.6935
  962MOL0     C32653   5.097   8.883   3.870 -0.8852 -0.0843  0.1727
  962MOL0     O32654   5.114   8.808   3.756  0.7158 -0.2175 -0.5305
  962MOL0     C32655   5.129   8.666   3.761  0.0960  0.4004  0.2603
  962MOL0     C32656   5.254   8.622   3.833  0.2453 -0.3571 -0.2888
  962MOL0     C32657   5.288   8.475   3.826 -1.1382  0.4799  0.1485
  962MOL0     C32658   5.427   8.434   3.885  0.8308 -0.7366  0.3799
  962MOL0     C32659   5.400   8.383   4.026  0.6504  1.0364 -0.3685
  962MOL0     C32660   5.510   8.400   4.131 -0.0884 -0.3617  0.2672
  962MOL0     C32661   5.451   8.457   4.268 -0.1511 -0.4080  0.2461
  962MOL0     C32662   5.533   8.438   4.387  0.6036 -0.3886 -0.5420
  962MOL0    Cl32663   5.556   8.270   4.436  0.5165 -0.3229  0.1641
  962MOL0     C32664   5.026   8.836   3.980 -0.3480 -1.3581 -0.1421
  962MOL0     C32665   5.020   8.906   4.103 -0.2391  0.0010  0.6717
  962MOL0     O32666   5.306   9.190   4.211 -0.0129 -0.4860 -0.0025
  962MOL0     C32667   5.072   9.210   4.481 -0.0959 -0.0771  0.5169
  962MOL0     C32668   5.042   9.276   4.600 -0.1982 -0.7878  0.2735
  962MOL0     N32669   4.731   9.751   5.155 -0.1730  0.0888 -0.5036
  962MOL0     N32670   4.606   9.747   5.154  0.3808  0.0692 -0.4353
  962MOL0     C32671   4.149  10.823   5.311 -0.0147  0.6528  0.4956
  962MOL0     C32672   4.096  10.933   5.372  0.1435  1.1171 -0.7480
  962MOL0     C32673   3.793  11.189   5.568  0.9681 -0.7144 -1.1435
  962MOL0     C32674   3.887  11.243   5.654  0.5222 -0.2282  0.0006
  962MOL0     C32675   3.866  11.367   5.716 -0.9256  0.4521  0.8318
  962MOL0     C32676   3.738  11.419   5.710 -0.1323  0.0739  0.7197
  962MOL0     O32677   3.699  11.545   5.758  0.1879  0.8580 -0.2908
  962MOL0     C32678   3.721  11.653   5.666 -0.2016  0.9510 -0.5053
  962MOL0     C32679   3.845  11.742   5.698  0.1384  0.6438  0.7823
  962MOL0     C32680   3.821  11.807   5.833  0.1380  0.5299 -0.2500
  962MOL0     C32681   3.710  11.913   5.819  0.6132  0.5759 -0.3401
  962MOL0     C32682   3.703  11.997   5.694  0.6460 -0.2881  0.9115
  962MOL0     C32683   3.685  12.091   5.613  0.1391  0.1091 -0.5406
  962MOL0     C32684   3.643  11.364   5.623  0.8190 -0.5129 -0.3589
  962MOL0     C32685   3.665  11.251   5.551 -0.5782  0.1861  0.7782
  962MOL0     C32686   3.553  11.195   5.451 -0.0247 -0.0992  0.0148
  962MOL0     H32687   3.847  10.776   5.544  0.3066 -0.2807 -0.8926
  962MOL0     H32688   3.954  10.566   5.434  1.8529 -0.4749  0.9519
  962MOL0     H32689   4.019  10.460   5.200 -0.6438  2.8520  0.0548
  962MOL0     H32690   4.088  10.431   5.357  0.7639  2.4010 -0.2497
  962MOL0     H32691   4.318  10.394   5.245  0.7251 -0.8999 -0.8783
  962MOL0     H32692   4.191  10.275   5.236  1.0371 -1.2735 -4.0319
  962MOL0     H32693   4.116  10.338   5.018 -1.1624  2.0860  3.6301
  962MOL0     H32694   4.246  10.458   4.999  0.5509 -0.2316 -0.7622
  962MOL0     H32695   4.318  10.282   4.880  0.5672 -4.1765 -0.7270
  962MOL0     H32696   4.417  10.284   5.023  0.3323  1.3148  0.7150
  962MOL0     H32697   4.186  10.112   4.959  1.7922  1.5473 -2.8283
  962MOL0     H32698   4.246  10.109   5.123 -2.1396  1.1236 -0.1252
  962MOL0     H32699   4.400  10.012   4.878  1.6721  0.2799  0.1586
  962MOL0     H32700   4.477  10.022   5.038  0.4050 -2.0956 -0.7917
  962MOL0     H32701   4.221   9.875   5.013  0.2092  0.5441  0.1134
  962MOL0     H32702   4.331   9.876   5.149 -0.1811 -1.4261  0.2204
  962MOL0     H32703   4.384   9.673   5.003 -0.6478 -0.4244 -2.3264
  962MOL0     H32704   4.420   9.775   4.876  2.5368  0.5589 -0.2999
  962MOL0     H32705   4.657   9.815   4.839 -2.1377  2.3616  0.8778
  962MOL0     H32706   4.966   9.739   5.098  2.3003  2.4585  0.0395
  962MOL0     H32707   4.947   9.881   4.992 -4.5966  0.9701 -1.6458
  962MOL0     H32708   4.879   9.608   4.867 -0.1861  1.2758  0.2784
  962MOL0     H32709   4.977   9.757   4.817  1.6124  0.8665  0.3472
  962MOL0     H32710   5.155   9.667   4.978 -6.5150  3.9067  2.2777
  962MOL0     H32711   5.065   9.517   4.995 -1.0635 -1.4489 -2.9146
  962MOL0     H32712   5.164   9.646   4.747  0.5778  1.4589  2.2970
  962MOL0     H32713   5.258   9.512   4.829 -0.4351 -1.1129 -0.8469
  962MOL0     H32714   5.276   9.524   4.582  1.7569 -0.3701 -0.7974
  962MOL0     H32715   5.444   9.391   4.311  0.2527 -1.6772 -0.1942
  962MOL0     H32716   5.372   9.535   4.371 -2.4522 -0.2452  0.8257
  962MOL0     H32717   5.286   9.451   4.245  0.6666 -0.2344 -0.5761
  962MOL0     H32718   5.163   9.197   4.003  2.7621 -0.8004  1.4857
  962MOL0     H32719   5.183   9.066   3.781 -0.8522 -1.2035 -1.3569
  962MOL0     H32720   5.039   8.622   3.805 -2.0924 -0.2712 -4.3381
  962MOL0     H32721   5.123   8.621   3.662  0.8893 -1.1188  0.8644
  962MOL0     H32722   5.337   8.673   3.783 -1.8997  2.8748 -0.8158
  962MOL0     H32723   5.240   8.647   3.938  1.8342 -1.0079  0.1069
  962MOL0     H32724   5.284   8.433   3.725  0.8161 -1.9644  0.9709
  962MOL0     H32725   5.215   8.418   3.885 -2.5892  0.2584 -1.7419
  962MOL0     H32726   5.484   8.527   3.878 -2.8906  1.7018  0.3430
  962MOL0     H32727   5.473   8.354   3.825  0.4220 -1.5305  1.1078
  962MOL0     H32728   5.316   8.442   4.064  0.3591  0.5582 -0.2630
  962MOL0     H32729   5.374   8.277   4.030  0.3501  1.1063 -0.4518
  962MOL0     H32730   5.589   8.467   4.095  0.7960 -0.3141  2.1534
  962MOL0     H32731   5.540   8.296   4.141 -0.7540 -0.5296  0.5857
  962MOL0     H32732   5.353   8.412   4.288 -0.1234 -0.6899 -0.2298
  962MOL0     H32733   5.438   8.564   4.251  2.6267  0.2200  1.5586
  962MOL0     H32734   5.471   8.485   4.464 -1.5860  2.5740 -3.8100
  962MOL0     H32735   5.629   8.489   4.382  2.2471 -3.0763  0.9322
  962MOL0     H32736   4.978   8.739   3.970 -0.4915 -1.1501 -1.7013
  962MOL0     H32737   4.951   8.868   4.178 -1.6469  1.3104  0.0923
  962MOL0     H32738   5.008   9.125   4.458  4.3551 -3.9477  0.9523
  962MOL0     H32739   4.948   9.261   4.653 -0.3412 -1.1675 -0.0859
  962MOL0     H32740   4.231  10.825   5.239 -1.7937  0.8511 -1.6512
  962MOL0     H32741   4.133  11.035   5.368  1.4499  0.6386 -2.0905
  962MOL0     H32742   3.987  11.201   5.651 -0.8018 -3.8677  1.1620
  962MOL0     H32743   3.929  11.443   5.761  0.3705 -0.5895  0.8315
  962MOL0     H32744   3.732  11.599   5.572 -3.1674 -2.2061  0.7690
  962MOL0     H32745   3.627  11.709   5.659 -0.9002 -0.4702 -4.2728
  962MOL0     H32746   3.863  11.812   5.616  0.4714  2.4888  2.3607
  962MOL0     H32747   3.936  11.681   5.708 -0.3052  0.1222  1.7376
  962MOL0     H32748   3.798  11.725   5.901  0.3586  0.2143 -0.5575
  962MOL0     H32749   3.916  11.859   5.853  0.4432 -0.1673  0.1627
  962MOL0     H32750   3.714  11.981   5.905 -1.2181  0.4878 -0.1275
  962MOL0     H32751   3.612  11.869   5.842  2.1023 -1.1295  3.5376
  962MOL0     H32752   3.680  12.187   5.566  0.3707  2.8630  4.3957
  962MOL0     H32753   3.541  11.401   5.635 -0.0740 -3.4032  2.4447
  962MOL0     H32754   3.467  11.261   5.443  1.2073  1.5325 -0.3243
  962MOL0     H32755   3.587  11.212   5.348 -3.2224 -1.3570 -1.3864
  962MOL0     H32756   3.522  11.097   5.489  1.8627 -0.3898  0.9220
  963MOL0     O32757   3.872   8.991  11.358  0.1529 -0.2738  0.0840
  963MOL0     C32758   3.915   9.035  11.466 -0.2518 -0.5559 -0.2189
  963MOL0     O32759   3.901   9.163  11.505  0.5089  0.5671 -0.2924
  963MOL0     C32760   3.827   9.249  11.433  0.7284  0.0150 -0.6154
  963MOL0     C32761   3.900   9.331  11.349  0.0414 -0.1481 -0.0427
  963MOL0     C32762   3.844   9.439  11.280 -0.3988 -0.1874  0.5098
  963MOL0     C32763   3.699   9.466  11.294  0.1996 -0.4360 -0.9329
  963MOL0     O32764   3.627   9.560  11.225  0.1806 -0.1456  0.1664
  963MOL0     C32765   3.671   9.579  11.086 -1.0417  0.4422  0.4328
  963MOL0     C32766   3.574   9.663  11.012  0.0512  0.0453  0.9109
  963MOL0     C32767   3.455   9.576  10.971 -0.8218  0.1640 -0.1332
  963MOL0     C32768   3.362   9.653  10.878 -0.3456  0.9033  0.0041
  963MOL0     C32769   3.234   9.562  10.840  0.6190  0.5907  0.2051
  963MOL0     C32770   3.143   9.634  10.745  0.9104 -0.7979  0.0822
  963MOL0     C32771   3.057   9.544  10.662 -0.1274 -0.3504 -0.4238
  963MOL0     C32772   3.004   9.424  10.733  0.8699 -0.4369 -0.4500
  963MOL0     N32773   2.898   9.473  10.827  0.0188 -0.5802  1.0106
  963MOL0     C32774   2.767   9.465  10.793  0.3889  0.3045  0.4959
  963MOL0     C32775   2.694   9.513  10.891 -0.1394 -0.4229 -0.4321
  963MOL0     C32776   2.539   9.528  10.910 -0.5227  0.1756  0.5176
  963MOL0     C32777   2.473   9.579  10.779  0.8088 -0.3386 -1.4230
  963MOL0     C32778   2.495   9.728  10.773 -0.3486 -0.2103  0.1698
  963MOL0     C32779   2.454   9.773  10.637 -0.6548  0.1370  0.5354
  963MOL0     O32780   2.556   9.733  10.543 -0.2126 -0.5649 -0.1010
  963MOL0     C32781   2.521   9.680  10.431 -0.3154 -0.6562  0.5303
  963MOL0     C32782   2.564   9.549  10.393 -0.3429 -0.2167 -0.5575
  963MOL0     C32783   2.527   9.497  10.266  0.6870 -0.0337  0.5286
  963MOL0     C32784   2.558   9.356  10.247  1.0027  0.2853  0.7388
  963MOL0     C32785   2.458   9.577  10.164 -0.9291 -0.9584 -0.3133
  963MOL0     C32786   2.404   9.520  10.043  0.6328 -0.1164 -0.7601
  963MOL0     O32787   2.411   9.594   9.927 -0.0137  0.6240  0.1369
  963MOL0     C32788   2.379   9.541   9.802  0.3786 -0.4666 -0.5165
  963MOL0     C32789   2.317   9.636   9.715 -0.5890 -0.1114  0.0813
  963MOL0     C32790   2.321   9.616   9.572 -1.4424  0.2824  0.8862
  963MOL0     C32791   2.351   9.485   9.523  0.5088 -0.5702 -0.1145
  963MOL0     O32792   2.346   9.462   9.389 -0.3008 -0.2254  0.6225
  963MOL0     C32793   2.209   9.460   9.340 -0.2324 -0.0556  0.4006
  963MOL0     C32794   2.176   9.329   9.265  0.4263 -0.5228  0.1400
  963MOL0     C32795   2.292   9.312   9.162  0.2074  0.1413  0.4427
  963MOL0     C32796   2.272   9.194   9.069 -0.5181  0.1267  0.2810
  963MOL0     C32797   2.394   9.179   8.976  0.4594 -0.5460  1.2067
  963MOL0     C32798   2.532   9.157   9.042 -0.1803 -0.7708 -0.4257
  963MOL0     C32799   2.647   9.128   8.942  1.0785 -0.0040 -0.8922
  963MOL0     C32800   2.783   9.167   9.008  0.8164 -0.6710 -0.1739
  963MOL0    Cl32801   2.812   9.339   8.963 -0.3341 -0.3633  0.0581
  963MOL0     C32802   2.398   9.389   9.610 -0.4001  0.4685  0.6381
  963MOL0     C32803   2.410   9.417   9.748  0.5933  0.2996 -0.8758
  963MOL0     O32804   2.345   9.409  10.053 -0.2344 -0.0526  1.2330
  963MOL0     C32805   2.420   9.710  10.208  0.2154 -0.6439  0.0957
  963MOL0     C32806   2.448   9.753  10.337  0.0813 -0.6337 -0.3753
  963MOL0     N32807   2.788   9.542  10.990 -0.5864 -0.2856 -0.6382
  963MOL0     N32808   2.909   9.533  10.952 -0.6954  0.5434 -0.1344
  963MOL0     C32809   3.629   9.376  11.381  0.0680  0.1348  0.3013
  963MOL0     C32810   3.690   9.280  11.449 -0.2984 -0.1250  0.2627
  963MOL0     C32811   4.013   8.945  11.538  0.2438  0.6015  1.8110
  963MOL0     C32812   4.060   8.832  11.462  0.0251 -0.1755 -0.0750
  963MOL0     C32813   4.135   8.735  11.530  0.1313 -0.1445 -0.5778
  963MOL0     C32814   4.173   8.758  11.657 -1.1488 -0.3439 -0.0629
  963MOL0     O32815   4.265   8.672  11.718 -0.3359 -0.6301  0.4966
  963MOL0     C32816   4.210   8.565  11.802 -0.9022 -0.5421 -0.3165
  963MOL0     C32817   4.198   8.623  11.941 -0.0683 -0.6122  0.2207
  963MOL0     C32818   4.198   8.508  12.056 -0.8442  0.3069 -0.6969
  963MOL0     C32819   4.057   8.440  12.076 -0.2185  0.4516  0.2562
  963MOL0     C32820   3.951   8.538  12.106 -0.8924 -0.2343 -0.0227
  963MOL0     C32821   3.878   8.633  12.127  0.1817  0.6411 -0.7737
  963MOL0     C32822   4.146   8.878  11.724 -0.3482 -0.1578  0.1310
  963MOL0     C32823   4.057   8.970  11.669  0.2931 -1.1379  1.5259
  963MOL0     C32824   4.012   9.090  11.741 -0.7296 -0.2991  0.9181
  963MOL0     H32825   4.002   9.309  11.318  0.9422  0.2222  2.4039
  963MOL0     H32826   3.892   9.501  11.205 -2.7516  0.6385 -0.4121
  963MOL0     H32827   3.685   9.484  11.034  1.1525  0.6024  0.6414
  963MOL0     H32828   3.769   9.627  11.093 -1.5510  1.6122 -0.0429
  963MOL0     H32829   3.543   9.745  11.077 -0.6521  0.5870 -0.0850
  963MOL0     H32830   3.632   9.698  10.926  0.2600 -0.8003  0.6921
  963MOL0     H32831   3.487   9.486  10.919 -0.3097  0.6810 -0.7325
  963MOL0     H32832   3.399   9.540  11.057  0.3110 -3.0968 -0.6365
  963MOL0     H32833   3.330   9.739  10.938 -0.7915 -0.8775  2.4876
  963MOL0     H32834   3.419   9.690  10.792  2.2628 -0.0963  1.2067
  963MOL0     H32835   3.188   9.513  10.926  0.5990 -4.3036 -2.2398
  963MOL0     H32836   3.274   9.471  10.795 -0.4328 -0.4947  1.3824
  963MOL0     H32837   3.068   9.701  10.789  2.2374  1.5939 -1.1252
  963MOL0     H32838   3.204   9.701  10.684 -1.2354  1.4115  0.1905
  963MOL0     H32839   3.115   9.508  10.577 -0.0757  0.4740 -0.7549
  963MOL0     H32840   2.972   9.602  10.624  0.0499  0.8346  0.8728
  963MOL0     H32841   2.955   9.356  10.664 -4.4128  3.6536 -1.3528
  963MOL0     H32842   3.073   9.369  10.797 -0.1047 -1.4449 -0.2298
  963MOL0     H32843   2.721   9.422  10.705 -2.3853  3.3570  0.2640
  963MOL0     H32844   2.525   9.599  10.992  3.7967 -0.8103  2.3910
  963MOL0     H32845   2.503   9.429  10.941  0.7596  0.2295  2.3263
  963MOL0     H32846   2.521   9.538  10.690 -0.9589 -1.8030 -1.7675
  963MOL0     H32847   2.370   9.543  10.779  0.5726 -0.0137  2.0982
  963MOL0     H32848   2.428   9.772  10.847 -0.4232  1.6244 -0.9402
  963MOL0     H32849   2.597   9.754  10.801  1.3704 -2.8994 -2.8895
  963MOL0     H32850   2.360   9.721  10.614  0.0520  0.4305 -3.9956
  963MOL0     H32851   2.425   9.876  10.612  0.5485  0.0965 -1.2250
  963MOL0     H32852   2.633   9.490  10.451 -1.3057  1.1523  2.1844
  963MOL0     H32853   2.490   9.290  10.302  0.8204 -0.3210 -0.1828
  963MOL0     H32854   2.661   9.340  10.281  0.7880  0.2661  1.3959
  963MOL0     H32855   2.558   9.314  10.145 -5.6559 -2.3578  1.2953
  963MOL0     H32856   2.285   9.732   9.753  2.5023  0.6776  0.9451
  963MOL0     H32857   2.293   9.698   9.506  1.2352 -1.3397 -2.6018
  963MOL0     H32858   2.139   9.463   9.424  0.4473  0.8468  0.9453
  963MOL0     H32859   2.190   9.545   9.274 -2.1925 -0.0112  0.9516
  963MOL0     H32860   2.181   9.241   9.330  2.7740 -1.7992 -1.6280
  963MOL0     H32861   2.083   9.339   9.210  1.4584  0.5085 -1.4850
  963MOL0     H32862   2.383   9.290   9.218  2.1994  0.9298 -2.2616
  963MOL0     H32863   2.326   9.393   9.096  1.7086 -1.9436 -1.4901
  963MOL0     H32864   2.196   9.215   8.994  0.8449 -2.9275 -2.1608
  963MOL0     H32865   2.245   9.095   9.106 -0.5940 -1.1495 -2.8719
  963MOL0     H32866   2.379   9.089   8.915  1.6919 -2.4649  3.5764
  963MOL0     H32867   2.400   9.266   8.910  0.4208 -0.0675  1.8247
  963MOL0     H32868   2.531   9.076   9.115  1.8800 -1.5073 -1.1230
  963MOL0     H32869   2.564   9.247   9.094 -1.0610  0.1508 -1.4220
  963MOL0     H32870   2.623   9.151   8.838 -0.4574 -2.1523 -1.0899
  963MOL0     H32871   2.645   9.020   8.925 -1.7901 -0.3270  0.7383
  963MOL0     H32872   2.861   9.097   8.976 -0.0318 -2.4545  1.4780
  963MOL0     H32873   2.763   9.172   9.115 -0.6810  0.1256 -0.4650
  963MOL0     H32874   2.426   9.292   9.572  1.9449  1.2628  0.1702
  963MOL0     H32875   2.458   9.348   9.816 -2.0241  1.4467  2.4204
  963MOL0     H32876   2.358   9.770  10.143  1.1826  2.3923  1.7874
  963MOL0     H32877   2.417   9.853  10.367  1.2752  0.4180 -2.4164
  963MOL0     H32878   3.521   9.373  11.390  0.1461 -0.4012  1.2284
  963MOL0     H32879   3.620   9.222  11.509  0.8249 -2.8504 -0.8874
  963MOL0     H32880   4.036   8.824  11.357  0.5766 -2.3625 -0.0798
  963MOL0     H32881   4.188   8.647  11.495  1.3688 -1.0380  3.1336
  963MOL0     H32882   4.111   8.526  11.776 -1.7285 -0.0584  1.8802
  963MOL0     H32883   4.285   8.485  11.811  0.0855  0.4931  1.1681
  963MOL0     H32884   4.111   8.689  11.946  1.5067  1.4603  3.6362
  963MOL0     H32885   4.287   8.680  11.969 -0.4918 -0.5354  1.4614
  963MOL0     H32886   4.277   8.435  12.037  0.0684  1.2314 -0.5700
  963MOL0     H32887   4.219   8.560  12.150 -0.5205  0.4172 -0.8282
  963MOL0     H32888   4.060   8.362  12.152 -4.6931  1.3180  1.6152
  963MOL0     H32889   4.034   8.389  11.981 -1.1115 -0.2720  0.8454
  963MOL0     H32890   3.806   8.708  12.151 -2.1138 -1.8210  0.5491
  963MOL0     H32891   4.179   8.891  11.826 -0.2140  1.3602 -0.0750
  963MOL0     H32892   3.904   9.096  11.732 -0.5567 -0.1821 -2.4347
  963MOL0     H32893   4.053   9.094  11.842  2.3914  2.8967 -0.2789
  963MOL0     H32894   4.055   9.175  11.688  3.2947 -3.5995 -1.8286
  964MOL0     O32895   8.369   8.181   7.883  0.0869  0.3163  0.0422
  964MOL0     C32896   8.361   8.080   7.950 -1.4116 -0.0779 -0.6369
  964MOL0     O32897   8.335   7.951   7.894  0.4919  0.6194  0.5398
  964MOL0     C32898   8.279   7.928   7.763  0.2887  0.1716  0.6454
  964MOL0     C32899   8.211   8.027   7.693 -0.3026  0.0472  0.3380
  964MOL0     C32900   8.177   7.999   7.555 -0.1288 -0.7316  1.6095
  964MOL0     C32901   8.188   7.864   7.500  1.0431 -0.2675  0.3433
  964MOL0     O32902   8.171   7.823   7.367  0.1291 -0.5561  0.2246
  964MOL0     C32903   8.082   7.898   7.276  0.5922 -0.9084  0.0454
  964MOL0     C32904   8.035   7.798   7.167 -0.7283 -0.2547 -0.1665
  964MOL0     C32905   7.945   7.866   7.060  0.8112  0.1228 -0.5999
  964MOL0     C32906   7.891   7.767   6.947 -0.3215 -0.3388  0.9316
  964MOL0     C32907   7.824   7.827   6.827  0.9164  0.2841  0.4728
  964MOL0     C32908   7.687   7.872   6.869  0.2652 -0.4407  0.1879
  964MOL0     C32909   7.590   7.927   6.753  0.0078 -0.2055 -0.2142
  964MOL0     C32910   7.500   7.821   6.688  0.3491 -0.8397 -0.2573
  964MOL0     N32911   7.577   7.730   6.607 -0.1800 -0.0729  0.1130
  964MOL0     C32912   7.667   7.767   6.507  0.6675 -0.2973 -0.6563
  964MOL0     C32913   7.739   7.664   6.478 -0.0468  0.0706 -0.5887
  964MOL0     C32914   7.847   7.650   6.375  1.4447  0.6281  0.6745
  964MOL0     C32915   7.828   7.748   6.258  0.1379 -0.6453  1.6355
  964MOL0     C32916   7.925   7.728   6.132  0.2635 -1.2448  0.1811
  964MOL0     C32917   7.898   7.846   6.030  0.0108 -0.1058  0.6473
  964MOL0     O32918   8.006   7.829   5.940 -0.8317 -0.2126 -0.5646
  964MOL0     C32919   8.005   7.917   5.832 -0.6176 -0.7240  0.1693
  964MOL0     C32920   7.912   8.026   5.819 -0.3436  0.5503  0.4262
  964MOL0     C32921   7.905   8.100   5.702  0.4372  0.0154 -0.0190
  964MOL0     C32922   7.793   8.208   5.678  0.0843 -0.2517  0.6474
  964MOL0     C32923   8.009   8.082   5.611  0.9379  0.0700 -0.0687
  964MOL0     C32924   8.032   8.173   5.498  0.5447 -0.2661  0.4599
  964MOL0     O32925   8.068   8.121   5.379  0.1721 -0.0706 -0.0861
  964MOL0     C32926   8.094   8.210   5.271  0.5936 -0.0436 -0.3917
  964MOL0     C32927   8.210   8.192   5.200  0.2190  0.1680  0.2616
  964MOL0     C32928   8.227   8.274   5.087 -0.8882 -0.3323 -1.0474
  964MOL0     C32929   8.138   8.372   5.048 -0.0806  0.3152 -0.4583
  964MOL0     O32930   8.163   8.459   4.950  0.2056  0.0240 -0.0319
  964MOL0     C32931   8.277   8.421   4.865 -0.1591 -0.3432 -0.0004
  964MOL0     C32932   8.284   8.496   4.740  0.0364  0.1218 -0.4766
  964MOL0     C32933   8.391   8.451   4.630  0.1170  0.9211 -0.2378
  964MOL0     C32934   8.354   8.526   4.504 -0.1209 -0.3417 -0.1326
  964MOL0     C32935   8.431   8.461   4.387  0.3625  0.4575  0.8574
  964MOL0     C32936   8.403   8.301   4.369  0.1270 -0.1052 -0.3719
  964MOL0     C32937   8.460   8.257   4.241 -0.4820 -0.1708 -0.9113
  964MOL0     C32938   8.452   8.111   4.209 -0.4379 -0.0967  0.7811
  964MOL0    Cl32939   8.599   8.026   4.281  0.4361 -0.5062 -0.0018
  964MOL0     C32940   8.023   8.385   5.123 -0.4579 -0.0820 -0.4195
  964MOL0     C32941   7.999   8.311   5.234 -1.4861 -0.2329 -0.0569
  964MOL0     O32942   8.034   8.296   5.522  0.3030 -0.0861 -0.5951
  964MOL0     C32943   8.096   7.974   5.616 -1.3044 -0.3917 -1.0474
  964MOL0     C32944   8.091   7.886   5.726  0.2649 -0.1722  0.2961
  964MOL0     N32945   7.691   7.555   6.555  0.2516 -1.1671  0.3754
  964MOL0     N32946   7.602   7.603   6.635  0.1562  0.1279  0.0731
  964MOL0     C32947   8.254   7.769   7.582  0.0479 -0.1683  0.0770
  964MOL0     C32948   8.307   7.804   7.700  0.2609  0.1810  0.7240
  964MOL0     C32949   8.407   8.088   8.095 -0.8092  0.1350 -0.2238
  964MOL0     C32950   8.372   7.973   8.176 -0.2385  0.5021  0.4422
  964MOL0     C32951   8.427   7.960   8.302  0.1377  0.3181  0.0102
  964MOL0     C32952   8.507   8.059   8.364 -1.0754  0.8238 -0.7021
  964MOL0     O32953   8.550   8.063   8.496 -0.1421  0.1040  0.4884
  964MOL0     C32954   8.544   7.944   8.580  0.0369  0.7140 -0.6161
  964MOL0     C32955   8.685   7.901   8.628 -0.3329 -0.0920  0.8618
  964MOL0     C32956   8.796   7.873   8.522  1.0619  0.8836 -0.4744
  964MOL0     C32957   8.931   7.852   8.597 -0.6939  0.4698  1.1106
  964MOL0     C32958   9.019   7.754   8.518 -0.0099 -0.9603  0.6056
  964MOL0     C32959   9.074   7.663   8.459  0.0295 -0.8359  0.6407
  964MOL0     C32960   8.527   8.178   8.288 -0.4933  0.3812 -0.4739
  964MOL0     C32961   8.480   8.195   8.160 -0.7831 -0.1300  0.7013
  964MOL0     C32962   8.481   8.330   8.095 -0.2643 -0.1904 -0.2245
  964MOL0     H32963   8.189   8.131   7.717 -0.7979 -0.5565  2.7998
  964MOL0     H32964   8.133   8.076   7.493 -2.0991 -0.8754  2.7590
  964MOL0     H32965   8.143   7.975   7.227  0.4102 -0.5045  0.4517
  964MOL0     H32966   7.997   7.946   7.325  0.3009 -0.3206 -1.0120
  964MOL0     H32967   8.123   7.759   7.117 -3.1855 -2.1750 -3.3444
  964MOL0     H32968   7.985   7.708   7.204  0.1218 -1.0337 -0.8666
  964MOL0     H32969   7.859   7.903   7.117  1.1190 -0.0953  0.0115
  964MOL0     H32970   8.003   7.948   7.016 -0.9879  1.2788 -0.9550
  964MOL0     H32971   7.979   7.714   6.910  0.8281  1.2389  1.2928
  964MOL0     H32972   7.815   7.703   6.994 -0.6266 -0.1837  0.6512
  964MOL0     H32973   7.806   7.754   6.748  2.7576  3.1397 -2.8872
  964MOL0     H32974   7.879   7.908   6.778  1.3659 -0.3342 -0.0599
  964MOL0     H32975   7.629   7.790   6.913  0.0012 -0.3731 -0.0291
  964MOL0     H32976   7.676   7.942   6.953 -0.6473  0.8698 -0.9899
  964MOL0     H32977   7.648   7.981   6.678 -3.2457 -0.2964 -3.0137
  964MOL0     H32978   7.535   8.011   6.798  2.3002  0.1427  2.2407
  964MOL0     H32979   7.444   7.778   6.771  0.3269  0.0758  0.2229
  964MOL0     H32980   7.436   7.861   6.609 -0.0669 -0.6922  0.1434
  964MOL0     H32981   7.677   7.866   6.464  0.4843 -0.9192 -2.2406
  964MOL0     H32982   7.831   7.550   6.334 -1.7782  1.0292  0.6931
  964MOL0     H32983   7.939   7.664   6.433  0.3282  4.3865  1.8360
  964MOL0     H32984   7.724   7.738   6.225  1.1109 -1.0091 -1.6859
  964MOL0     H32985   7.837   7.850   6.296 -0.7937 -0.0761  0.4138
  964MOL0     H32986   8.031   7.713   6.155 -0.1388 -4.2381  0.4749
  964MOL0     H32987   7.907   7.628   6.091 -0.7086 -2.6520  3.6556
  964MOL0     H32988   7.799   7.819   5.990  0.0450  1.4428 -0.5952
  964MOL0     H32989   7.895   7.949   6.065  1.7300  0.7861 -1.5782
  964MOL0     H32990   7.835   8.031   5.896  0.3207 -3.7215  1.6490
  964MOL0     H32991   7.805   8.269   5.588  4.2016 -1.6227  0.0109
  964MOL0     H32992   7.807   8.283   5.755 -0.1390  0.2714  0.1838
  964MOL0     H32993   7.691   8.168   5.676  0.2475 -0.6718  0.3614
  964MOL0     H32994   8.279   8.109   5.207 -1.0569 -1.0711 -1.2157
  964MOL0     H32995   8.330   8.261   5.057  0.9556  0.2309  4.0485
  964MOL0     H32996   8.373   8.433   4.918 -1.5309  0.8627  2.4064
  964MOL0     H32997   8.269   8.314   4.844 -4.2159 -0.1129 -0.3201
  964MOL0     H32998   8.191   8.500   4.682  0.4731  1.6025 -1.1118
  964MOL0     H32999   8.299   8.600   4.771 -0.5867 -0.5523  2.3527
  964MOL0     H33000   8.372   8.345   4.613  0.0864  1.2268 -2.3674
  964MOL0     H33001   8.496   8.462   4.657 -0.0530 -1.5954  1.7631
  964MOL0     H33002   8.382   8.631   4.516 -0.8091 -0.4162  2.6437
  964MOL0     H33003   8.249   8.508   4.481 -1.1941  1.1388  3.1441
  964MOL0     H33004   8.408   8.515   4.295 -0.6144 -1.1916  0.0904
  964MOL0     H33005   8.539   8.459   4.402  0.4665  4.7787  1.9807
  964MOL0     H33006   8.296   8.280   4.364  0.3905 -1.6264  0.0795
  964MOL0     H33007   8.470   8.250   4.439 -1.7906  0.8301  2.2798
  964MOL0     H33008   8.565   8.283   4.251 -0.2893 -1.4740  0.9373
  964MOL0     H33009   8.409   8.311   4.160 -1.6711  0.4376  0.1952
  964MOL0     H33010   8.469   8.098   4.102 -0.5200 -0.6568  0.8320
  964MOL0     H33011   8.360   8.059   4.237 -0.3317  0.2109  1.7437
  964MOL0     H33012   7.952   8.461   5.092 -0.3782  1.1525  2.2005
  964MOL0     H33013   7.908   8.329   5.289 -1.6145  2.8225 -1.0989
  964MOL0     H33014   8.182   7.949   5.554 -0.3489 -2.4042  0.9423
  964MOL0     H33015   8.163   7.804   5.727  3.6689  2.4122 -2.7029
  964MOL0     H33016   8.271   7.670   7.541 -1.3878  0.1619 -1.4030
  964MOL0     H33017   8.370   7.752   7.771  2.0734  0.0406 -0.9045
  964MOL0     H33018   8.308   7.890   8.149  0.8121 -0.3748  0.5781
  964MOL0     H33019   8.403   7.871   8.358  0.7686  0.1176 -0.0280
  964MOL0     H33020   8.490   7.981   8.669  0.5640  3.2704 -1.2744
  964MOL0     H33021   8.489   7.858   8.541 -0.4543  1.8277 -2.4860
  964MOL0     H33022   8.677   7.811   8.689 -1.1625  0.2686  1.2962
  964MOL0     H33023   8.739   7.984   8.674  1.6442  0.0545 -1.5010
  964MOL0     H33024   8.750   7.783   8.479  1.1096  1.1614 -1.1247
  964MOL0     H33025   8.804   7.945   8.440  0.1797  1.0721 -0.3988
  964MOL0     H33026   8.924   7.812   8.699 -2.6922 -4.3790 -0.6341
  964MOL0     H33027   8.984   7.946   8.613 -1.1749  0.8725  0.3685
  964MOL0     H33028   9.119   7.576   8.415  0.2588 -0.8203  0.8422
  964MOL0     H33029   8.585   8.251   8.344 -0.1452 -0.3051  0.0691
  964MOL0     H33030   8.507   8.408   8.167 -0.0506  1.1246 -1.6518
  964MOL0     H33031   8.566   8.343   8.027  0.1401  0.8021  0.4370
  964MOL0     H33032   8.383   8.353   8.053  0.0374 -0.4141 -1.0823
  965MOL0     O33033   9.441   2.619   5.458  0.3799 -0.5803  0.0635
  965MOL0     C33034   9.496   2.624   5.572 -0.0704  0.4579 -0.4056
  965MOL0     O33035   9.428   2.612   5.691 -0.1719  0.4327  0.0490
  965MOL0     C33036   9.295   2.575   5.684 -0.5755 -0.0705  0.6673
  965MOL0     C33037   9.268   2.450   5.623 -0.3018  0.9072  0.4387
  965MOL0     C33038   9.133   2.402   5.607  0.8123 -0.8307 -0.4709
  965MOL0     C33039   9.022   2.488   5.657  0.0805 -0.5851  0.5998
  965MOL0     O33040   8.896   2.441   5.625 -0.2656  0.4930 -0.3185
  965MOL0     C33041   8.777   2.505   5.685 -0.2968 -0.0387  0.3527
  965MOL0     C33042   8.652   2.439   5.634  0.3618  0.6599  0.3369
  965MOL0     C33043   8.581   2.513   5.517  0.2872  0.4132  0.3811
  965MOL0     C33044   8.678   2.538   5.399 -0.9754  0.4352 -1.2204
  965MOL0     C33045   8.612   2.581   5.263  0.3687  0.6016 -0.2647
  965MOL0     C33046   8.706   2.580   5.138 -0.0534  0.3154 -0.6963
  965MOL0     C33047   8.624   2.586   5.008  0.9248 -0.6346  0.6024
  965MOL0     C33048   8.713   2.557   4.897 -0.4316  0.6668  0.3278
  965MOL0     N33049   8.837   2.624   4.875  0.1468  0.0996 -0.5649
  965MOL0     C33050   8.837   2.733   4.795 -0.8971  0.2308  0.1148
  965MOL0     C33051   8.964   2.757   4.768 -0.1498  0.3823 -0.1437
  965MOL0     C33052   9.037   2.857   4.681 -0.9774  0.2573 -0.0449
  965MOL0     C33053   9.096   2.783   4.558  0.5915 -1.0979  0.3154
  965MOL0     C33054   9.147   2.885   4.452  0.0743 -0.3137  0.7523
  965MOL0     C33055   9.151   2.800   4.324 -0.0414 -0.2001  0.0394
  965MOL0     O33056   9.243   2.692   4.348 -0.2255 -0.0859  0.2112
  965MOL0     C33057   9.294   2.622   4.236  0.3761 -0.4445  0.6337
  965MOL0     C33058   9.371   2.505   4.252  0.4802 -0.1042 -0.2470
  965MOL0     C33059   9.435   2.440   4.145  0.3329  0.9219  0.3212
  965MOL0     C33060   9.507   2.313   4.176 -0.0305 -0.6119  0.6417
  965MOL0     C33061   9.416   2.491   4.014 -0.5267 -0.0009 -0.7022
  965MOL0     C33062   9.481   2.435   3.891  1.0249 -0.5744  0.2571
  965MOL0     O33063   9.416   2.468   3.775  0.1146  0.4931 -0.1862
  965MOL0     C33064   9.457   2.438   3.644 -0.2713 -0.5514 -0.0359
  965MOL0     C33065   9.592   2.446   3.594  0.1029 -0.7605  0.1762
  965MOL0     C33066   9.620   2.439   3.458  0.9607 -0.4635  0.2446
  965MOL0     C33067   9.514   2.425   3.359 -0.2017 -0.3359  0.9402
  965MOL0     O33068   9.520   2.416   3.219 -0.2378 -0.3792  0.6286
  965MOL0     C33069   9.604   2.500   3.147 -0.0408  0.1020  0.0364
  965MOL0     C33070   9.707   2.417   3.070 -1.0328  0.1642  0.9202
  965MOL0     C33071   9.802   2.350   3.164 -0.4468  0.6054 -0.7027
  965MOL0     C33072   9.913   2.265   3.096  0.0265 -1.3716 -0.3274
  965MOL0     C33073  10.021   2.237   3.192  0.3726  0.6836  0.4528
  965MOL0     C33074  10.108   2.119   3.148 -0.2109 -0.6196 -0.4669
  965MOL0     C33075  10.187   2.163   3.025 -0.1443 -0.2975  0.0574
  965MOL0     C33076  10.303   2.083   2.989  0.3304  0.4125  0.5013
  965MOL0    Cl33077  10.238   1.933   2.929  0.3581 -0.1850  0.2573
  965MOL0     C33078   9.380   2.412   3.421 -0.4310  0.2203  0.6129
  965MOL0     C33079   9.359   2.419   3.552  0.2616  0.3877  0.0073
  965MOL0     O33080   9.582   2.381   3.902 -0.2103  0.2796  0.3670
  965MOL0     C33081   9.331   2.597   3.999  0.3304  0.8000 -0.5414
  965MOL0     C33082   9.270   2.666   4.102  0.3635  0.0139 -0.5606
  965MOL0     N33083   9.035   2.654   4.839  0.3265 -0.4360  0.5534
  965MOL0     N33084   8.957   2.570   4.896 -0.0572 -0.2432  0.5538
  965MOL0     C33085   9.055   2.621   5.712 -0.6064  1.0338 -0.1908
  965MOL0     C33086   9.188   2.665   5.733  0.8340 -0.0407 -0.9400
  965MOL0     C33087   9.649   2.636   5.577 -0.0742  0.2810  0.1185
  965MOL0     C33088   9.718   2.608   5.697  0.5300  1.1141 -0.5050
  965MOL0     C33089   9.852   2.611   5.707 -0.2568  0.7625  0.7470
  965MOL0     C33090   9.933   2.658   5.597  0.2432  0.3600  0.6819
  965MOL0     O33091  10.068   2.653   5.594 -0.5636 -0.2129 -0.1132
  965MOL0     C33092  10.142   2.777   5.582 -0.1517  0.5474 -0.4176
  965MOL0     C33093  10.110   2.874   5.686  1.1477 -1.0028  0.0864
  965MOL0     C33094  10.160   2.829   5.821 -0.0030  0.0078 -1.1292
  965MOL0     C33095  10.150   2.936   5.925 -0.9197 -0.3601  0.2290
  965MOL0     C33096  10.214   2.902   6.054  0.1094  0.4591 -0.7901
  965MOL0     C33097  10.250   2.883   6.166 -0.3552 -0.1533 -0.8444
  965MOL0     C33098   9.867   2.698   5.479 -0.8547  0.0988  0.3021
  965MOL0     C33099   9.729   2.694   5.466 -0.1252  0.3229 -0.1008
  965MOL0     C33100   9.676   2.751   5.335  0.2908 -0.4115 -0.1894
  965MOL0     H33101   9.351   2.389   5.588 -0.0903  1.3736  0.0993
  965MOL0     H33102   9.107   2.314   5.549 -2.0434  0.6854 -1.6743
  965MOL0     H33103   8.766   2.614   5.675  3.2149  0.3088 -1.1296
  965MOL0     H33104   8.781   2.476   5.791  0.6800 -1.4463 -0.0461
  965MOL0     H33105   8.681   2.341   5.594 -1.2623 -0.3869  1.6045
  965MOL0     H33106   8.586   2.420   5.718 -0.8255 -0.6972 -0.8402
  965MOL0     H33107   8.489   2.470   5.477  1.6862 -1.4328 -1.0075
  965MOL0     H33108   8.558   2.608   5.566  0.6758  0.4074  0.5870
  965MOL0     H33109   8.748   2.618   5.424 -0.4947 -1.2119  3.6000
  965MOL0     H33110   8.726   2.440   5.391 -0.9191  0.2928  0.5762
  965MOL0     H33111   8.570   2.680   5.284  0.5430  0.0852  2.9224
  965MOL0     H33112   8.526   2.521   5.233 -0.1647  0.4097  1.5287
  965MOL0     H33113   8.777   2.662   5.154 -0.3099 -0.1771  4.7412
  965MOL0     H33114   8.753   2.481   5.141 -0.6945  0.0392  0.8113
  965MOL0     H33115   8.583   2.686   4.998 -1.0785 -1.5178 -0.6305
  965MOL0     H33116   8.546   2.510   5.020 -0.9456  1.2745  0.9491
  965MOL0     H33117   8.736   2.451   4.888 -0.4811  0.8279 -2.7090
  965MOL0     H33118   8.645   2.571   4.812  1.6206 -0.9368 -1.6831
  965MOL0     H33119   8.747   2.784   4.764  1.0056  4.0227  0.2142
  965MOL0     H33120   9.122   2.899   4.735 -0.3632 -2.4807  1.2653
  965MOL0     H33121   8.970   2.940   4.658  0.4105  2.2304  2.5168
  965MOL0     H33122   9.185   2.729   4.592  0.8085 -0.1172  1.3649
  965MOL0     H33123   9.024   2.712   4.516 -0.6002 -0.6924  1.5948
  965MOL0     H33124   9.078   2.970   4.446 -0.0835 -0.4379  0.7890
  965MOL0     H33125   9.238   2.939   4.482 -0.3822  1.2400 -0.4868
  965MOL0     H33126   9.055   2.758   4.292 -0.6813  0.3410  1.1773
  965MOL0     H33127   9.182   2.861   4.239  0.1340  0.0433  0.2779
  965MOL0     H33128   9.386   2.449   4.344 -1.0098 -1.2575 -0.6614
  965MOL0     H33129   9.502   2.259   4.081 -0.6718  1.1590 -0.3811
  965MOL0     H33130   9.465   2.253   4.257  1.7223 -1.8425  0.6987
  965MOL0     H33131   9.611   2.342   4.194 -0.1685  0.9615 -0.8486
  965MOL0     H33132   9.675   2.455   3.664  2.6622  1.3794 -2.8838
  965MOL0     H33133   9.719   2.454   3.416  1.5293  2.9425  2.4151
  965MOL0     H33134   9.538   2.550   3.075  0.3933  0.7132  0.0509
  965MOL0     H33135   9.653   2.573   3.213  0.1848 -0.0293  0.0152
  965MOL0     H33136   9.663   2.345   3.000  1.3258  0.1262 -0.6595
  965MOL0     H33137   9.774   2.476   3.008  0.9212 -2.5650  0.2378
  965MOL0     H33138   9.735   2.301   3.234 -0.7152  3.1180  0.9102
  965MOL0     H33139   9.852   2.425   3.225  0.0145  1.3758 -1.9698
  965MOL0     H33140   9.950   2.318   3.008  0.3893 -0.1039  0.5630
  965MOL0     H33141   9.862   2.177   3.055 -2.5228  0.1496 -0.5631
  965MOL0     H33142  10.085   2.321   3.222  1.0466 -0.0517  1.1192
  965MOL0     H33143   9.977   2.216   3.289  0.2809  2.8423  0.9350
  965MOL0     H33144  10.067   2.024   3.113 -0.4068  0.0577 -2.1790
  965MOL0     H33145  10.180   2.106   3.229  0.6337 -0.1566 -1.1319
  965MOL0     H33146  10.230   2.261   3.049  1.4018 -0.0151 -3.2675
  965MOL0     H33147  10.120   2.177   2.939 -2.9355 -0.2625  2.0906
  965MOL0     H33148  10.374   2.065   3.070  0.2678 -2.2342  0.0491
  965MOL0     H33149  10.354   2.133   2.905 -0.3308  1.7235  0.8543
  965MOL0     H33150   9.302   2.405   3.346  1.5003 -0.4890 -1.4733
  965MOL0     H33151   9.259   2.421   3.596  1.3509  0.8649  2.6458
  965MOL0     H33152   9.310   2.638   3.901 -3.8659 -2.1950 -1.2250
  965MOL0     H33153   9.217   2.758   4.081  2.2695  1.4089  0.4450
  965MOL0     H33154   8.979   2.689   5.749  1.3197  3.5346 -0.5380
  965MOL0     H33155   9.205   2.759   5.784 -0.7323 -0.5330  0.5721
  965MOL0     H33156   9.654   2.577   5.779 -0.5918  1.2415 -1.3020
  965MOL0     H33157   9.887   2.575   5.803 -1.6885  1.3924  1.5285
  965MOL0     H33158  10.250   2.758   5.579  0.3854  1.8766  3.6293
  965MOL0     H33159  10.108   2.815   5.486  0.0121  1.0568 -0.2741
  965MOL0     H33160  10.004   2.898   5.694  0.8470 -2.3187  0.3021
  965MOL0     H33161  10.158   2.970   5.665 -0.0044 -0.1997  0.9853
  965MOL0     H33162  10.086   2.752   5.847  1.8961 -1.3770  0.4181
  965MOL0     H33163  10.255   2.776   5.819 -0.3319 -0.6493 -0.2500
  965MOL0     H33164  10.047   2.973   5.930 -0.9082 -0.1873 -0.5699
  965MOL0     H33165  10.214   3.021   5.901 -2.5481  0.2804 -2.3082
  965MOL0     H33166  10.291   2.876   6.265  0.3163 -1.9081 -1.2064
  965MOL0     H33167   9.937   2.732   5.403 -2.6457  0.9582 -1.0181
  965MOL0     H33168   9.634   2.851   5.350 -0.5589 -1.0574  2.1656
  965MOL0     H33169   9.761   2.760   5.267  0.3872  2.4468  0.2069
  965MOL0     H33170   9.594   2.690   5.294 -4.6001  3.9357  2.0364
  966MOL0     O33171   2.108   0.454   6.811  0.1562 -0.3337 -0.1750
  966MOL0     C33172   2.102   0.573   6.861  0.0662  0.1886  0.0089
  966MOL0     O33173   2.119   0.690   6.792  0.4036  0.5153 -0.4243
  966MOL0     C33174   2.177   0.677   6.670  0.8135 -0.6533  0.6873
  966MOL0     C33175   2.116   0.702   6.543 -0.5420 -0.0541 -0.1926
  966MOL0     C33176   2.204   0.706   6.429  0.1795  0.6681  0.6381
  966MOL0     C33177   2.335   0.675   6.427 -0.6003  0.6063 -1.1740
  966MOL0     O33178   2.382   0.659   6.297 -0.0145  0.8032 -0.3404
  966MOL0     C33179   2.405   0.514   6.269 -0.2953 -0.8604 -0.5772
  966MOL0     C33180   2.394   0.488   6.112 -0.7804 -0.4140 -0.7305
  966MOL0     C33181   2.267   0.431   6.063  0.2814  0.6848 -0.0512
  966MOL0     C33182   2.284   0.351   5.934 -0.3529  0.3092  0.5898
  966MOL0     C33183   2.313   0.451   5.826  0.9386  0.6053  0.0230
  966MOL0     C33184   2.183   0.523   5.780  0.0730 -0.3579 -1.0898
  966MOL0     C33185   2.224   0.605   5.656 -0.2372 -0.5650 -0.1862
  966MOL0     C33186   2.102   0.680   5.591  0.4850 -0.8461  0.2385
  966MOL0     N33187   2.151   0.779   5.501 -0.0777 -0.5347 -0.1148
  966MOL0     C33188   2.087   0.829   5.396  1.0679  0.5001 -0.1088
  966MOL0     C33189   2.161   0.911   5.324  0.4792  1.0583  0.5231
  966MOL0     C33190   2.133   0.981   5.190 -0.6634  1.3881 -1.1399
  966MOL0     C33191   2.257   1.063   5.149  0.4103 -0.4477 -1.0166
  966MOL0     C33192   2.329   0.994   5.039 -1.1060  0.3129 -0.4896
  966MOL0     C33193   2.391   0.852   5.074 -0.4363  0.5608  0.5354
  966MOL0     O33194   2.480   0.834   4.967 -0.5442  1.0171 -0.7868
  966MOL0     C33195   2.599   0.774   5.008  1.0583  0.5469 -0.4098
  966MOL0     C33196   2.699   0.849   5.064  1.5985  0.3527  0.1312
  966MOL0     C33197   2.825   0.802   5.095  0.5320  0.2655 -0.5025
  966MOL0     C33198   2.924   0.884   5.171 -0.2595 -0.4029 -0.2400
  966MOL0     C33199   2.856   0.669   5.057  0.4568 -0.4543 -0.4234
  966MOL0     C33200   2.978   0.592   5.096 -0.1579  0.6458  0.0553
  966MOL0     O33201   2.963   0.453   5.114 -0.6194 -0.0643  0.5772
  966MOL0     C33202   3.080   0.384   5.129 -0.0098 -0.5081 -0.9264
  966MOL0     C33203   3.156   0.388   5.242 -0.4145 -1.6350  0.1688
  966MOL0     C33204   3.277   0.321   5.259 -0.1782 -0.2639  0.0476
  966MOL0     C33205   3.316   0.233   5.159  0.2464  0.7557 -0.0640
  966MOL0     O33206   3.436   0.170   5.163 -0.1841 -0.5280 -0.6761
  966MOL0     C33207   3.483   0.127   5.293 -0.1129 -0.1009  0.7268
  966MOL0     C33208   3.588   0.017   5.283 -0.3546  0.3574  1.2899
  966MOL0     C33209   3.725   0.066   5.252 -0.6507 -0.1264  0.1275
  966MOL0     C33210   3.823  -0.035   5.193 -0.2242 -0.6437  0.3351
  966MOL0     C33211   3.861  -0.157   5.283  0.5466  0.4147  1.0113
  966MOL0     C33212   3.982  -0.214   5.230  0.6340  0.7173 -0.4597
  966MOL0     C33213   4.111  -0.131   5.256  0.2053 -0.2663  0.3659
  966MOL0     C33214   4.178  -0.130   5.395  0.2758  0.4117  0.6611
  966MOL0    Cl33215   4.280  -0.279   5.415  0.2776 -0.3353 -0.5138
  966MOL0     C33216   3.246   0.234   5.037  0.3620 -0.7932 -0.1436
  966MOL0     C33217   3.122   0.303   5.022  0.0652 -0.0740 -0.5231
  966MOL0     O33218   3.085   0.645   5.105 -0.1991 -1.1647 -0.0989
  966MOL0     C33219   2.748   0.590   5.004  0.6904 -0.8372 -0.3542
  966MOL0     C33220   2.622   0.642   4.984 -0.0885  0.1325  0.3184
  966MOL0     N33221   2.277   0.934   5.412  0.2890  0.9560 -0.0258
  966MOL0     N33222   2.261   0.857   5.521 -0.6081  0.4068  0.0476
  966MOL0     C33223   2.400   0.655   6.548 -1.1265 -0.0855 -0.0946
  966MOL0     C33224   2.323   0.652   6.666 -0.0277 -0.7751 -0.5436
  966MOL0     C33225   2.055   0.591   6.999 -0.3699 -0.0390  0.4352
  966MOL0     C33226   1.935   0.526   7.027  0.5497 -0.4125  0.3457
  966MOL0     C33227   1.909   0.516   7.162  0.1988 -0.2187 -0.6795
  966MOL0     C33228   1.989   0.567   7.265  0.6316 -0.9137  0.0795
  966MOL0     O33229   1.960   0.561   7.401 -0.5505  0.4394 -0.2503
  966MOL0     C33230   1.852   0.473   7.441 -0.8573  0.2663  0.3544
  966MOL0     C33231   1.860   0.448   7.597  0.0658 -0.1877  0.5451
  966MOL0     C33232   1.754   0.339   7.643  0.3453  0.1885  0.3043
  966MOL0     C33233   1.685   0.388   7.758  0.8065  0.2016  0.5257
  966MOL0     C33234   1.581   0.292   7.802 -0.3816  0.6149  0.2903
  966MOL0     C33235   1.514   0.198   7.839  0.5506  0.6617 -0.5906
  966MOL0     C33236   2.100   0.638   7.229 -0.2827  1.0378 -1.0933
  966MOL0     C33237   2.132   0.664   7.097  0.1417  0.1827  1.2376
  966MOL0     C33238   2.267   0.735   7.071  0.5309 -0.7833  0.8181
  966MOL0     H33239   2.008   0.711   6.541 -1.0628 -4.1542 -0.1629
  966MOL0     H33240   2.158   0.714   6.331 -0.5959 -2.2933  0.6735
  966MOL0     H33241   2.332   0.456   6.326 -0.4057  1.3231  1.6575
  966MOL0     H33242   2.503   0.480   6.305  0.9978  0.1400 -2.9496
  966MOL0     H33243   2.407   0.587   6.067 -1.2084  1.1558  2.2913
  966MOL0     H33244   2.483   0.427   6.096 -0.5324  0.1067 -1.3613
  966MOL0     H33245   2.217   0.361   6.130  2.0106  1.4741  2.1848
  966MOL0     H33246   2.211   0.525   6.058  1.0205  1.1320  0.0029
  966MOL0     H33247   2.367   0.280   5.938 -0.9113 -0.3788  0.3527
  966MOL0     H33248   2.188   0.301   5.917 -0.8755  1.2592  0.6931
  966MOL0     H33249   2.354   0.396   5.740 -2.1108  0.5823 -1.5487
  966MOL0     H33250   2.388   0.526   5.850  1.6614  0.3350 -1.2729
  966MOL0     H33251   2.105   0.453   5.751 -1.0764 -0.0984  1.1469
  966MOL0     H33252   2.144   0.584   5.862  5.2486  2.4467 -0.2640
  966MOL0     H33253   2.266   0.542   5.576 -0.5546  0.6977 -1.3861
  966MOL0     H33254   2.303   0.674   5.688 -0.9111 -0.8931  2.4202
  966MOL0     H33255   2.031   0.609   5.548  1.7094 -1.7882 -0.2637
  966MOL0     H33256   2.050   0.732   5.673 -2.1939  1.3424 -2.5663
  966MOL0     H33257   1.986   0.797   5.372  1.3237 -0.3794 -0.0247
  966MOL0     H33258   2.050   1.046   5.220 -2.3484 -0.5434 -1.3434
  966MOL0     H33259   2.097   0.916   5.110 -2.2263 -0.3622  0.8629
  966MOL0     H33260   2.226   1.162   5.115 -2.2408 -0.0376  2.0871
  966MOL0     H33261   2.328   1.093   5.226  0.9423  1.0995 -2.0716
  966MOL0     H33262   2.267   0.999   4.948 -3.0734  2.8636  0.8353
  966MOL0     H33263   2.416   1.054   5.010 -0.2906 -0.5073  0.2257
  966MOL0     H33264   2.443   0.867   5.169  2.7723  1.4598 -1.2523
  966MOL0     H33265   2.317   0.771   5.075 -0.8308  0.8518 -1.4061
  966MOL0     H33266   2.682   0.954   5.085  2.2637  1.0350 -2.3602
  966MOL0     H33267   2.917   0.862   5.278 -2.1057 -0.2077 -0.2981
  966MOL0     H33268   2.899   0.989   5.156 -1.1082  0.5919  5.7096
  966MOL0     H33269   3.025   0.871   5.131  0.3456  0.3704  0.9992
  966MOL0     H33270   3.125   0.444   5.329 -1.1338 -2.5107  0.4966
  966MOL0     H33271   3.340   0.334   5.346 -1.3942  2.7849  0.5883
  966MOL0     H33272   3.528   0.217   5.336  1.8297  0.0753 -1.4395
  966MOL0     H33273   3.399   0.086   5.350 -1.9924  2.0616 -0.3620
  966MOL0     H33274   3.591  -0.035   5.379 -0.6108  0.4089  1.3266
  966MOL0     H33275   3.569  -0.054   5.202  2.4736  0.2072  0.6360
  966MOL0     H33276   3.764   0.097   5.350  1.3659 -1.6940 -0.1093
  966MOL0     H33277   3.724   0.155   5.188  2.5833 -1.1893 -1.6044
  966MOL0     H33278   3.916   0.004   5.152 -0.2191  0.5029  1.3895
  966MOL0     H33279   3.774  -0.068   5.101 -0.7441  1.0921 -0.0374
  966MOL0     H33280   3.878  -0.139   5.389 -0.4795  2.4343  0.8854
  966MOL0     H33281   3.773  -0.222   5.285 -0.0753  1.2444  1.2300
  966MOL0     H33282   3.967  -0.232   5.123  0.1498  0.8220 -0.4086
  966MOL0     H33283   3.989  -0.314   5.275 -2.5900  0.9789  0.8722
  966MOL0     H33284   4.094  -0.026   5.231 -2.3510 -0.4125  1.2270
  966MOL0     H33285   4.183  -0.165   5.181 -2.6928  3.0638 -4.5167
  966MOL0     H33286   4.106  -0.118   5.477 -1.8630 -0.8971 -0.9036
  966MOL0     H33287   4.236  -0.038   5.409 -0.8890  1.3459 -0.3963
  966MOL0     H33288   3.290   0.171   4.960  1.0209 -2.1136  1.2644
  966MOL0     H33289   3.066   0.306   4.929 -1.0429  2.5727  0.1283
  966MOL0     H33290   2.774   0.485   4.992  1.2679 -1.0190  2.0150
  966MOL0     H33291   2.544   0.582   4.939  0.7736 -0.4979 -0.3688
  966MOL0     H33292   2.505   0.631   6.554 -1.5094 -1.9255 -0.2527
  966MOL0     H33293   2.373   0.649   6.762 -0.1541  0.4545 -0.4194
  966MOL0     H33294   1.868   0.477   6.957 -1.0195  1.3423  0.5399
  966MOL0     H33295   1.819   0.459   7.181  0.3987  0.2392  2.0365
  966MOL0     H33296   1.752   0.506   7.413 -0.5366 -0.0610 -1.2828
  966MOL0     H33297   1.859   0.374   7.395 -2.3342 -1.1062  2.9102
  966MOL0     H33298   1.831   0.550   7.626 -2.0216 -0.2727 -0.9981
  966MOL0     H33299   1.959   0.422   7.635  0.9753  3.9769  1.5871
  966MOL0     H33300   1.672   0.343   7.571 -1.1539 -0.2889  1.9091
  966MOL0     H33301   1.802   0.241   7.655  0.1362 -0.1016 -1.1077
  966MOL0     H33302   1.646   0.489   7.746  0.7614 -0.0224 -1.5592
  966MOL0     H33303   1.759   0.404   7.836  0.8639  0.9348  0.3277
  966MOL0     H33304   1.456   0.114   7.871 -0.3986  1.5722  0.1608
  966MOL0     H33305   2.158   0.679   7.311 -1.4891  1.3079 -0.3442
  966MOL0     H33306   2.294   0.800   7.155 -0.1586  0.1139  0.3634
  966MOL0     H33307   2.354   0.671   7.050 -0.1931 -1.9519  1.3287
  966MOL0     H33308   2.256   0.803   6.986  2.9511 -0.3530  0.7534
  967MOL0     O33309   7.166   5.167  11.441  0.5066 -0.6569 -0.1041
  967MOL0     C33310   7.067   5.114  11.388  0.7985  0.4315  0.8268
  967MOL0     O33311   7.078   5.057  11.265  0.1031  0.5167  0.1816
  967MOL0     C33312   7.201   5.058  11.202  0.2328 -1.4853 -1.4687
  967MOL0     C33313   7.221   5.160  11.107 -0.0635  0.5804 -0.2009
  967MOL0     C33314   7.342   5.189  11.041 -0.9298 -1.3036 -1.5673
  967MOL0     C33315   7.456   5.112  11.084 -0.4667 -0.1660  0.3003
  967MOL0     O33316   7.586   5.150  11.055 -0.3005  0.6332 -0.4291
  967MOL0     C33317   7.609   5.282  11.032 -0.4859  1.0888 -0.0082
  967MOL0     C33318   7.751   5.320  11.083  0.4255  0.6232  0.3611
  967MOL0     C33319   7.871   5.237  11.020  0.1954  0.5023 -0.6506
  967MOL0     C33320   7.951   5.152  11.125 -1.2188 -0.0173 -0.0186
  967MOL0     C33321   8.049   5.062  11.054  0.0221  0.3716 -0.2108
  967MOL0     C33322   8.137   4.985  11.155 -0.0550 -0.2855 -0.9581
  967MOL0     C33323   8.224   5.083  11.236  0.0477  0.5983 -0.0006
  967MOL0     C33324   8.367   5.056  11.251 -0.6653 -0.0816  0.4577
  967MOL0     N33325   8.445   5.035  11.129  0.7693  0.0551 -0.0425
  967MOL0     C33326   8.469   5.145  11.042  0.3126  0.4446  0.8209
  967MOL0     C33327   8.573   5.106  10.957  0.2355  0.0638 -0.4274
  967MOL0     C33328   8.639   5.191  10.858  0.5564 -0.7012 -0.9335
  967MOL0     C33329   8.787   5.191  10.875  0.1759 -0.2702  0.3753
  967MOL0     C33330   8.877   5.272  10.777  1.0955 -0.3382  0.1423
  967MOL0     C33331   9.021   5.281  10.802  0.6206  0.0386 -1.1428
  967MOL0     O33332   9.075   5.150  10.782  0.3627 -0.8118 -0.3585
  967MOL0     C33333   9.205   5.131  10.788  0.1752  0.0609 -0.6474
  967MOL0     C33334   9.243   5.009  10.757 -0.2730  0.1805  0.3957
  967MOL0     C33335   9.375   4.965  10.764  0.6559 -0.1096 -0.1905
  967MOL0     C33336   9.403   4.815  10.740  1.0398 -0.4711 -0.7095
  967MOL0     C33337   9.477   5.058  10.780  0.0618  0.1737 -0.8766
  967MOL0     C33338   9.622   5.032  10.767 -0.6434 -0.2001 -0.6043
  967MOL0     O33339   9.706   5.127  10.811 -0.5640 -1.0187  0.1232
  967MOL0     C33340   9.843   5.093  10.817  0.5946 -0.4839  0.5020
  967MOL0     C33341   9.932   5.117  10.715 -0.1256 -0.3289 -0.2386
  967MOL0     C33342  10.074   5.087  10.724  0.1897  0.9432  0.0888
  967MOL0     C33343  10.129   5.031  10.846  0.5368  0.1678 -0.3587
  967MOL0     O33344  10.256   4.979  10.873  0.6188 -0.1990 -1.4116
  967MOL0     C33345  10.377   5.049  10.828  0.3188 -0.2216 -0.1018
  967MOL0     C33346  10.428   4.980  10.704  0.1954  0.3830  0.0422
  967MOL0     C33347  10.561   5.029  10.662  0.6035 -0.0374  0.6058
  967MOL0     C33348  10.661   4.918  10.630 -0.3330  0.3624  0.1408
  967MOL0     C33349  10.788   4.994  10.562 -0.4654 -0.3864 -0.6166
  967MOL0     C33350  10.918   4.912  10.544 -0.5394  0.0831 -0.7336
  967MOL0     C33351  11.017   4.998  10.461  0.2212 -0.3604  0.4258
  967MOL0     C33352  11.079   5.117  10.528  0.3543 -1.0541  0.0642
  967MOL0    Cl33353  11.170   5.068  10.656  0.1619 -0.0161 -0.0947
  967MOL0     C33354  10.037   5.023  10.950  0.6531 -1.3067 -0.3318
  967MOL0     C33355   9.900   5.047  10.930 -0.0250  0.4431 -1.4020
  967MOL0     O33356   9.661   4.943  10.696  1.2728  0.5900  0.2868
  967MOL0     C33357   9.436   5.189  10.816  0.1106 -0.2982 -0.1962
  967MOL0     C33358   9.305   5.228  10.831  0.3752  0.3181 -0.3396
  967MOL0     N33359   8.619   4.988  11.004 -0.9250  0.2494 -0.0521
  967MOL0     N33360   8.547   4.951  11.110 -0.4672  0.3580  0.3637
  967MOL0     C33361   7.435   5.013  11.172  0.2072 -0.4587  0.1638
  967MOL0     C33362   7.313   4.978  11.226 -0.5849 -0.4234  0.3073
  967MOL0     C33363   6.937   5.102  11.462 -0.0862  0.1890 -0.3725
  967MOL0     C33364   6.849   5.008  11.418  0.3096 -0.1943  1.4003
  967MOL0     C33365   6.726   4.990  11.468 -0.4227 -0.1099 -0.6951
  967MOL0     C33366   6.681   5.064  11.571 -0.4410  0.2837 -0.1525
  967MOL0     O33367   6.546   5.069  11.600 -0.3386 -0.0261 -0.3905
  967MOL0     C33368   6.505   4.989  11.714 -1.0991  0.0943  0.0136
  967MOL0     C33369   6.414   4.881  11.672  0.2275  0.1889  0.2540
  967MOL0     C33370   6.291   4.920  11.586 -0.6155  0.0721  0.2458
  967MOL0     C33371   6.204   4.796  11.567 -0.1003 -0.5014  0.7385
  967MOL0     C33372   6.068   4.842  11.532  0.0075 -0.2851  0.3439
  967MOL0     C33373   5.955   4.873  11.506  0.2071  0.0758 -0.4132
  967MOL0     C33374   6.767   5.162  11.629 -0.9570 -0.2466  0.5895
  967MOL0     C33375   6.897   5.179  11.566 -0.1210 -0.1531 -0.6633
  967MOL0     C33376   6.990   5.282  11.633  0.0542 -0.1629  0.1328
  967MOL0     H33377   7.131   5.214  11.079 -1.0146 -2.1180 -2.9053
  967MOL0     H33378   7.347   5.272  10.972 -1.8381  1.0613  1.0251
  967MOL0     H33379   7.543   5.342  11.096  0.0227 -0.9312  2.5693
  967MOL0     H33380   7.591   5.309  10.928  0.0134 -0.3588 -0.4937
  967MOL0     H33381   7.774   5.425  11.067  4.8277 -0.1470  0.2761
  967MOL0     H33382   7.745   5.282  11.186 -0.0822  2.1852  0.9388
  967MOL0     H33383   7.833   5.180  10.935  0.5725  3.3494 -2.8836
  967MOL0     H33384   7.944   5.307  10.977  0.4035  0.3475 -0.5498
  967MOL0     H33385   8.015   5.216  11.186  0.1619 -0.9208 -0.4783
  967MOL0     H33386   7.887   5.083  11.180  0.9727 -0.2238  2.4924
  967MOL0     H33387   8.118   5.128  11.000  3.1511 -0.0227  2.9040
  967MOL0     H33388   7.986   4.998  10.992 -0.4764  2.0595 -1.5249
  967MOL0     H33389   8.070   4.927  11.219 -1.1956  1.0610 -0.8755
  967MOL0     H33390   8.195   4.907  11.105  0.6320 -0.3643 -0.0614
  967MOL0     H33391   8.194   5.105  11.339 -0.1136  1.0292 -0.1386
  967MOL0     H33392   8.211   5.184  11.196  0.8134  0.9979  0.7234
  967MOL0     H33393   8.414   5.143  11.297 -1.7286  1.3197 -0.9867
  967MOL0     H33394   8.374   4.966  11.314  2.5186  0.6577  1.3133
  967MOL0     H33395   8.416   5.240  11.037  0.6088  0.6035  0.6851
  967MOL0     H33396   8.595   5.290  10.872  0.4699 -0.9373  0.5895
  967MOL0     H33397   8.614   5.153  10.759  1.9137  1.1960 -2.0753
  967MOL0     H33398   8.803   5.232  10.975 -2.1539  1.4477  0.1209
  967MOL0     H33399   8.814   5.086  10.866 -4.0031 -1.6529  1.5964
  967MOL0     H33400   8.863   5.237  10.675  0.0651 -4.7490  1.6011
  967MOL0     H33401   8.861   5.380  10.787  0.9829 -0.1915 -1.3618
  967MOL0     H33402   9.073   5.363  10.751  0.6919  1.1523  0.6400
  967MOL0     H33403   9.029   5.305  10.909 -0.3999  0.8572 -1.2262
  967MOL0     H33404   9.168   4.934  10.733 -1.0660  0.7881  0.9099
  967MOL0     H33405   9.489   4.797  10.806  3.7590  1.7127 -3.3739
  967MOL0     H33406   9.413   4.802  10.632 -0.1211 -1.2708 -0.7311
  967MOL0     H33407   9.320   4.755  10.776  0.6409  1.0579  1.0921
  967MOL0     H33408   9.899   5.156  10.619 -0.1651  2.7792  0.9401
  967MOL0     H33409  10.137   5.093  10.635 -0.0854 -0.5950 -0.2426
  967MOL0     H33410  10.352   5.151  10.798 -1.4097 -1.4745 -3.6239
  967MOL0     H33411  10.447   5.054  10.911  4.1657  2.7728 -3.1195
  967MOL0     H33412  10.434   4.874  10.731  1.4954  0.5979  0.6665
  967MOL0     H33413  10.355   5.004  10.625  1.7708  0.6747 -1.3859
  967MOL0     H33414  10.604   5.086  10.744  3.3571 -0.4526 -0.4506
  967MOL0     H33415  10.539   5.100  10.582 -3.0463  2.3149  3.3641
  967MOL0     H33416  10.618   4.847  10.559  0.4104  2.3441 -2.4474
  967MOL0     H33417  10.683   4.870  10.726 -1.5065  0.4683  0.4757
  967MOL0     H33418  10.760   5.041  10.467  1.0991  3.3224  0.5661
  967MOL0     H33419  10.812   5.085  10.619 -0.3896 -0.7857  0.0041
  967MOL0     H33420  10.909   4.812  10.501 -0.9369  0.2346 -1.0124
  967MOL0     H33421  10.958   4.888  10.643 -0.1971 -1.3644 -1.2005
  967MOL0     H33422  10.958   5.034  10.376  4.1925 -0.8265 -2.8147
  967MOL0     H33423  11.102   4.950  10.412  1.2822  0.9820  0.9052
  967MOL0     H33424  11.003   5.188  10.562 -0.2392 -1.6120 -0.0719
  967MOL0     H33425  11.150   5.170  10.464 -1.1038  0.0297 -0.7145
  967MOL0     H33426  10.085   4.986  11.040 -0.8747 -0.7588  0.7448
  967MOL0     H33427   9.836   5.028  11.016 -0.6392 -0.2500 -2.0001
  967MOL0     H33428   9.505   5.272  10.825  0.6104 -0.4905 -1.8936
  967MOL0     H33429   9.275   5.329  10.858  0.7462  1.2436 -3.1303
  967MOL0     H33430   7.524   4.958  11.204  1.4155  1.9457  1.1826
  967MOL0     H33431   7.329   4.894  11.292 -1.2341 -2.1655 -1.6409
  967MOL0     H33432   6.875   4.948  11.331 -0.8477 -0.0064  0.8988
  967MOL0     H33433   6.663   4.910  11.431 -1.3271 -0.2587  1.0247
  967MOL0     H33434   6.596   4.938  11.748 -0.3952 -1.5065 -3.7517
  967MOL0     H33435   6.458   5.044  11.795 -2.2390  1.2021 -1.3505
  967MOL0     H33436   6.384   4.831  11.764  2.8306  3.1179  2.9676
  967MOL0     H33437   6.479   4.812  11.618 -0.5176  0.6423 -1.2663
  967MOL0     H33438   6.237   5.003  11.634 -0.8070 -0.6082  1.2262
  967MOL0     H33439   6.319   4.949  11.484  1.4162 -2.4306 -0.0120
  967MOL0     H33440   6.193   4.737  11.658  0.4634  0.8036  1.6871
  967MOL0     H33441   6.234   4.728  11.487 -0.8461 -1.2041  1.0426
  967MOL0     H33442   5.855   4.902  11.483  0.1059 -0.8135 -1.1754
  967MOL0     H33443   6.732   5.232  11.704  0.4591 -1.1619  2.1630
  967MOL0     H33444   7.078   5.230  11.672 -2.2816 -2.8204  2.3329
  967MOL0     H33445   7.031   5.353  11.561  1.6769 -1.8143 -0.6564
  967MOL0     H33446   6.931   5.341  11.704 -1.1120 -0.1390 -0.8284
  968MOL0     O33447   2.597  11.379   6.683  0.0840  0.3528  0.0788
  968MOL0     C33448   2.705  11.330   6.723 -0.0245 -0.4057  0.0971
  968MOL0     O33449   2.787  11.252   6.652 -0.9569  0.3908  0.2747
  968MOL0     C33450   2.768  11.186   6.532 -0.4356  1.0845  0.1396
  968MOL0     C33451   2.646  11.195   6.462 -0.3004  0.3972 -0.0290
  968MOL0     C33452   2.628  11.133   6.336  0.2616 -0.4425  0.3995
  968MOL0     C33453   2.730  11.076   6.270 -0.7670  0.4993 -0.0534
  968MOL0     O33454   2.717  11.022   6.147 -0.2204 -0.0433  0.3850
  968MOL0     C33455   2.762  11.106   6.042  0.7847 -0.7844 -0.5335
  968MOL0     C33456   2.677  11.226   5.997  0.2924 -0.1514 -0.5655
  968MOL0     C33457   2.550  11.173   5.935  1.0638 -0.1823 -0.4866
  968MOL0     C33458   2.574  11.107   5.799  0.2887  0.7971  0.2966
  968MOL0     C33459   2.644  11.196   5.692  0.5024 -0.9397  0.4060
  968MOL0     C33460   2.787  11.150   5.664  0.0541  1.7577 -0.2099
  968MOL0     C33461   2.881  11.244   5.580 -0.3534 -0.1569  0.4246
  968MOL0     C33462   2.977  11.320   5.672  0.3504  0.1875 -0.1631
  968MOL0     N33463   3.056  11.232   5.757  0.0224  0.1909  1.0083
  968MOL0     C33464   3.181  11.184   5.717 -0.8538 -0.3672 -0.5083
  968MOL0     C33465   3.252  11.165   5.836  0.7062 -0.6333  1.2564
  968MOL0     C33466   3.393  11.121   5.843 -0.6699 -0.1601 -0.4164
  968MOL0     C33467   3.416  10.991   5.764 -0.2505 -0.2226  0.2450
  968MOL0     C33468   3.535  10.917   5.817 -0.0079  0.5618  0.7380
  968MOL0     C33469   3.508  10.828   5.932 -0.2302 -0.1926  0.1926
  968MOL0     O33470   3.627  10.817   6.011 -0.0967  0.1149 -0.4735
  968MOL0     C33471   3.718  10.719   5.979  1.0607  0.3668  0.5893
  968MOL0     C33472   3.805  10.692   6.087  0.8244  0.1910  0.2238
  968MOL0     C33473   3.882  10.578   6.089 -0.6353  0.0599 -0.1727
  968MOL0     C33474   3.948  10.548   6.217  0.1487 -0.2948 -0.4270
  968MOL0     C33475   3.889  10.497   5.975 -0.3302  0.5230 -0.6010
  968MOL0     C33476   3.966  10.368   5.978  0.5951  0.5846 -0.2952
  968MOL0     O33477   3.942  10.287   6.087  0.2934  0.5382 -0.0780
  968MOL0     C33478   3.984  10.159   6.085  0.0476 -0.2272  0.3901
  968MOL0     C33479   4.111  10.126   6.134 -0.6925 -0.2202 -0.0014
  968MOL0     C33480   4.147   9.989   6.129 -0.0167  0.3248  0.4474
  968MOL0     C33481   4.069   9.885   6.084 -0.0814 -0.4953  0.0521
  968MOL0     O33482   4.103   9.759   6.083  0.3619 -0.3052 -0.5891
  968MOL0     C33483   4.010   9.669   6.135 -0.1582  0.5145 -0.5238
  968MOL0     C33484   4.081   9.553   6.202  0.0410 -0.6356  0.4312
  968MOL0     C33485   3.989   9.451   6.243  0.0345 -0.0807 -0.9381
  968MOL0     C33486   4.069   9.341   6.318 -0.3248  0.0986  0.2423
  968MOL0     C33487   3.982   9.230   6.364  0.1843 -0.4607 -0.7411
  968MOL0     C33488   3.872   9.269   6.470 -0.2790 -0.3232 -0.5664
  968MOL0     C33489   3.900   9.205   6.603  0.3493  0.0471  0.4650
  968MOL0     C33490   4.035   9.237   6.676 -0.4518 -0.2326 -0.3067
  968MOL0    Cl33491   4.039   9.395   6.748  0.0588 -0.4021  0.3114
  968MOL0     C33492   3.948   9.923   6.036 -0.2974 -0.4348 -0.0351
  968MOL0     C33493   3.896  10.059   6.035 -0.2671 -0.1013 -0.1644
  968MOL0     O33494   4.029  10.344   5.879 -0.1163 -0.5893  0.1339
  968MOL0     C33495   3.819  10.536   5.858 -0.0872  1.0787  0.3787
  968MOL0     C33496   3.721  10.639   5.864 -0.1949 -0.1595  0.2508
  968MOL0     N33497   3.169  11.206   5.937 -0.1940  0.9524 -0.1254
  968MOL0     N33498   3.063  11.257   5.890 -0.1343 -0.1573 -0.4421
  968MOL0     C33499   2.859  11.071   6.343  0.3599 -0.4745  0.1331
  968MOL0     C33500   2.877  11.123   6.472 -0.0441  0.7702  0.1024
  968MOL0     C33501   2.772  11.383   6.852 -0.1393  0.0288  0.2150
  968MOL0     C33502   2.915  11.394   6.870  0.0145 -1.0785  0.3301
  968MOL0     C33503   2.972  11.453   6.985  0.7080 -0.0906 -0.2073
  968MOL0     C33504   2.883  11.498   7.091  0.3257 -0.4726  0.6358
  968MOL0     O33505   2.924  11.568   7.205 -0.3163  0.7715 -0.0522
  968MOL0     C33506   3.055  11.616   7.233  0.2277 -0.8076  0.0436
  968MOL0     C33507   3.051  11.745   7.319 -0.3291 -0.0219 -0.6760
  968MOL0     C33508   3.193  11.793   7.366 -0.0610  0.4867  0.1021
  968MOL0     C33509   3.254  11.711   7.487 -0.8248 -0.5103  0.6959
  968MOL0     C33510   3.392  11.762   7.521  0.6687  1.3401 -0.0480
  968MOL0     C33511   3.489  11.817   7.561 -0.7358 -0.5172  0.3775
  968MOL0     C33512   2.744  11.481   7.086  0.0818 -0.1058  1.4622
  968MOL0     C33513   2.691  11.425   6.963 -0.1616 -0.1390 -0.7149
  968MOL0     C33514   2.538  11.435   6.968 -0.9732  0.0935  1.2877
  968MOL0     H33515   2.568  11.244   6.520 -0.7654 -1.2132  0.7674
  968MOL0     H33516   2.533  11.140   6.283  1.7769  3.7449 -2.2826
  968MOL0     H33517   2.804  11.050   5.959  1.3444  0.2477 -0.9632
  968MOL0     H33518   2.856  11.146   6.082 -1.2943  1.1828  2.9177
  968MOL0     H33519   2.656  11.288   6.085  2.1133 -1.8660  1.1794
  968MOL0     H33520   2.736  11.283   5.925 -0.2432  1.7705  0.4465
  968MOL0     H33521   2.509  11.098   6.004  6.1764 -1.7265  1.3941
  968MOL0     H33522   2.488  11.262   5.919 -0.0149 -0.4349  1.8793
  968MOL0     H33523   2.627  11.013   5.814  2.6438  1.5943 -2.2456
  968MOL0     H33524   2.479  11.092   5.746 -1.1062  0.3343  2.7675
  968MOL0     H33525   2.646  11.297   5.733  0.3520 -1.1730  0.9970
  968MOL0     H33526   2.580  11.202   5.603  0.8217  2.5740  0.2725
  968MOL0     H33527   2.827  11.116   5.759 -3.3551  1.2261  1.1817
  968MOL0     H33528   2.778  11.056   5.610 -0.3167  3.1491 -2.7616
  968MOL0     H33529   2.830  11.326   5.529 -0.6352  1.4049  3.0478
  968MOL0     H33530   2.937  11.183   5.508  0.2373  0.2532  0.5260
  968MOL0     H33531   3.043  11.394   5.626 -2.3528  4.1485  1.7630
  968MOL0     H33532   2.919  11.380   5.742  0.9915 -0.3776  0.8736
  968MOL0     H33533   3.230  11.178   5.621  0.6828  2.0979  0.0388
  968MOL0     H33534   3.439  11.108   5.942 -1.1671 -1.3110 -0.3170
  968MOL0     H33535   3.464  11.200   5.816  0.1066  1.9870  6.1188
  968MOL0     H33536   3.322  10.937   5.781  0.2371 -0.1874  3.8089
  968MOL0     H33537   3.429  11.010   5.657  2.3425  0.5584  0.6451
  968MOL0     H33538   3.565  10.852   5.734  0.8589 -2.2743  3.1158
  968MOL0     H33539   3.606  10.997   5.836 -1.1966  1.9539 -0.4421
  968MOL0     H33540   3.439  10.874   6.003  0.8348  0.2053  1.0025
  968MOL0     H33541   3.473  10.731   5.896 -1.1823 -0.6996  2.3429
  968MOL0     H33542   3.800  10.762   6.169  3.9948  5.3269 -3.4181
  968MOL0     H33543   3.884  10.487   6.281  2.2982 -1.6942  0.4891
  968MOL0     H33544   4.007  10.627   6.265  1.6720 -2.1829  0.9773
  968MOL0     H33545   4.034  10.485   6.191  1.4801  1.5354 -0.6950
  968MOL0     H33546   4.176  10.203   6.173 -3.5212  1.7057  1.2452
  968MOL0     H33547   4.242   9.955   6.170 -1.3271 -2.9958  0.9744
  968MOL0     H33548   3.951   9.723   6.209 -0.7350 -0.4246 -0.2727
  968MOL0     H33549   3.944   9.635   6.054  0.3773 -3.3223  0.4697
  968MOL0     H33550   4.153   9.520   6.127 -2.1884  0.8878 -2.5731
  968MOL0     H33551   4.127   9.600   6.290 -3.4059  2.7153  0.7198
  968MOL0     H33552   3.953   9.426   6.142 -0.9866  1.3702 -0.9600
  968MOL0     H33553   3.915   9.504   6.304 -0.7094  0.0892 -1.9588
  968MOL0     H33554   4.129   9.380   6.400 -0.5213 -1.0914  0.9703
  968MOL0     H33555   4.143   9.299   6.249 -0.0690 -0.9445  1.1202
  968MOL0     H33556   3.918   9.187   6.286 -1.7650 -1.8861  1.5086
  968MOL0     H33557   4.057   9.162   6.405 -2.0043 -2.4484  0.1751
  968MOL0     H33558   3.777   9.251   6.419  1.6344 -3.7679 -3.3666
  968MOL0     H33559   3.874   9.377   6.492  2.6766 -0.6273  1.3063
  968MOL0     H33560   3.908   9.098   6.586 -1.0802  0.2026 -1.4847
  968MOL0     H33561   3.810   9.220   6.664  0.2670 -1.7580  0.8450
  968MOL0     H33562   4.120   9.226   6.608  1.3253 -2.3006  2.0674
  968MOL0     H33563   4.062   9.164   6.753 -2.6429 -3.0283 -1.9882
  968MOL0     H33564   3.883   9.846   5.995 -2.3427  0.1347  1.8964
  968MOL0     H33565   3.793  10.069   6.001 -0.1354 -0.7252 -0.7592
  968MOL0     H33566   3.835  10.475   5.769 -1.1158 -1.8984  2.1216
  968MOL0     H33567   3.658  10.662   5.779 -2.4278  1.3920  2.1976
  968MOL0     H33568   2.941  11.013   6.300 -0.0799  0.2862 -1.8437
  968MOL0     H33569   2.959  11.096   6.538 -0.3139  2.0570  1.0144
  968MOL0     H33570   2.973  11.381   6.779 -1.1698  1.1372 -0.8101
  968MOL0     H33571   3.078  11.479   6.989  0.1336  2.3404  1.9301
  968MOL0     H33572   3.102  11.534   7.288  0.7114 -1.2948 -1.0556
  968MOL0     H33573   3.115  11.625   7.141 -0.9396  3.0077 -0.5305
  968MOL0     H33574   2.990  11.731   7.408  1.4419  0.5863  0.7098
  968MOL0     H33575   3.013  11.824   7.253  0.3057  1.4895  0.6996
  968MOL0     H33576   3.273  11.802   7.293 -0.1181 -1.7245 -0.2960
  968MOL0     H33577   3.182  11.899   7.392 -1.0703 -0.3491  3.6740
  968MOL0     H33578   3.267  11.612   7.441  3.4641  0.8278 -1.4301
  968MOL0     H33579   3.190  11.705   7.576 -2.8217 -1.4560 -0.7289
  968MOL0     H33580   3.580  11.863   7.593 -0.7884 -0.6351  0.6991
  968MOL0     H33581   2.683  11.520   7.166 -0.0836  2.2552  0.2704
  968MOL0     H33582   2.497  11.334   6.962  1.6306 -1.0134  0.8252
  968MOL0     H33583   2.488  11.494   7.046 -0.0790  2.2277  0.3493
  968MOL0     H33584   2.523  11.493   6.876  0.4878  0.0024  0.9797
  969MOL0     O33585   4.293   8.447  11.030 -0.3759  0.8006 -0.4068
  969MOL0     C33586   4.311   8.563  11.030 -0.0379  0.1950 -0.5522
  969MOL0     O33587   4.367   8.636  11.138 -0.3912  0.0433 -0.6879
  969MOL0     C33588   4.438   8.576  11.241 -0.3726  0.5324  0.2563
  969MOL0     C33589   4.439   8.651  11.359 -0.2734  0.6266 -0.7952
  969MOL0     C33590   4.490   8.591  11.476 -0.8483  0.3644  0.2653
  969MOL0     C33591   4.539   8.460  11.487  0.1549 -0.4097  0.7536
  969MOL0     O33592   4.595   8.401  11.600 -0.0603 -0.3634  0.4513
  969MOL0     C33593   4.585   8.482  11.716  1.2263 -0.0849  1.2049
  969MOL0     C33594   4.657   8.402  11.820  0.2203 -0.0535  0.2551
  969MOL0     C33595   4.560   8.323  11.901 -0.1105 -0.8605  0.4676
  969MOL0     C33596   4.619   8.243  12.000 -0.4059  0.7367 -0.4842
  969MOL0     C33597   4.506   8.202  12.098 -0.5684  0.4263 -0.0115
  969MOL0     C33598   4.574   8.115  12.200 -0.7003  0.5217  0.5104
  969MOL0     C33599   4.494   8.076  12.328  1.0045 -0.2588  0.0980
  969MOL0     C33600   4.362   8.003  12.274 -0.5364 -0.8710  0.0250
  969MOL0     N33601   4.286   7.928  12.379 -0.1653  0.0055  0.2678
  969MOL0     C33602   4.331   7.911  12.506 -0.0191 -0.5728  0.6243
  969MOL0     C33603   4.238   7.829  12.563 -0.4383 -0.0140 -0.1351
  969MOL0     C33604   4.249   7.771  12.706 -0.4226  0.2888 -0.5468
  969MOL0     C33605   4.184   7.633  12.701 -0.0104  0.2560 -0.5478
  969MOL0     C33606   4.249   7.536  12.804  0.1326 -0.3637 -0.1779
  969MOL0     C33607   4.389   7.477  12.756  0.0435  0.3307  0.0554
  969MOL0     O33608   4.455   7.433  12.883  0.8235 -0.2659  0.5340
  969MOL0     C33609   4.587   7.389  12.892  0.8853  0.7036  0.1368
  969MOL0     C33610   4.673   7.379  12.786 -0.5717 -0.5768  0.3903
  969MOL0     C33611   4.802   7.314  12.799 -0.3909  0.1771  0.8167
  969MOL0     C33612   4.884   7.314  12.679 -1.0245 -0.2625 -0.1014
  969MOL0     C33613   4.855   7.266  12.924  0.1564 -0.0334  0.4147
  969MOL0     C33614   4.990   7.214  12.962 -0.8634  0.4649  0.2648
  969MOL0     O33615   4.989   7.139  13.071 -0.4732 -0.0215 -0.6846
  969MOL0     C33616   5.112   7.080  13.103  0.6775 -0.1769  0.5584
  969MOL0     C33617   5.221   7.158  13.133 -0.7645 -0.0185 -1.5340
  969MOL0     C33618   5.328   7.090  13.201  0.8100 -0.2012 -0.1894
  969MOL0     C33619   5.325   6.952  13.216 -0.7969 -0.8169  0.3398
  969MOL0     O33620   5.418   6.881  13.290 -0.0394 -0.1537 -0.0824
  969MOL0     C33621   5.461   6.932  13.414 -0.9054 -1.0321 -0.1499
  969MOL0     C33622   5.488   6.807  13.501  0.7678  0.4877  0.7176
  969MOL0     C33623   5.550   6.853  13.632 -0.7811 -0.4662  0.5092
  969MOL0     C33624   5.597   6.733  13.727  0.5598 -0.1259  0.5517
  969MOL0     C33625   5.475   6.647  13.756 -0.1805  0.0537  0.1141
  969MOL0     C33626   5.490   6.530  13.846 -0.3278 -0.1719  0.4796
  969MOL0     C33627   5.361   6.470  13.905 -0.7730  0.4231  0.6176
  969MOL0     C33628   5.386   6.430  14.051 -0.0317  1.3424 -0.3362
  969MOL0    Cl33629   5.267   6.307  14.100  0.2313  0.1931 -0.0750
  969MOL0     C33630   5.219   6.878  13.171  0.0879 -0.2357 -0.2564
  969MOL0     C33631   5.102   6.943  13.123 -0.4429  0.4958 -0.3759
  969MOL0     O33632   5.085   7.250  12.906 -0.5378  0.6453 -0.1092
  969MOL0     C33633   4.758   7.271  13.026  0.2571 -0.2530 -0.0763
  969MOL0     C33634   4.630   7.320  13.007 -0.3450 -1.0381  0.4191
  969MOL0     N33635   4.141   7.795  12.468 -1.2984  0.0079  0.1923
  969MOL0     N33636   4.173   7.865  12.363 -0.1952 -0.2243 -0.7880
  969MOL0     C33637   4.535   8.384  11.368  0.9965  0.8628 -0.0878
  969MOL0     C33638   4.486   8.444  11.248 -0.0756  0.1057  0.3315
  969MOL0     C33639   4.264   8.641  10.909  0.5940  0.2132  0.4084
  969MOL0     C33640   4.167   8.578  10.842 -0.4319  0.0166 -0.0663
  969MOL0     C33641   4.113   8.652  10.732 -0.0190  0.4176  0.2012
  969MOL0     C33642   4.160   8.782  10.700 -0.2650 -0.2194  0.0729
  969MOL0     O33643   4.102   8.842  10.590  0.3132 -0.2720 -0.2522
  969MOL0     C33644   3.988   8.923  10.633  0.1603  0.1236  0.0766
  969MOL0     C33645   3.869   8.874  10.562  0.6255  0.1940  0.2941
  969MOL0     C33646   3.872   8.840  10.404 -0.5355 -0.2663  0.6827
  969MOL0     C33647   3.908   8.958  10.322  0.2224 -1.5649  0.3278
  969MOL0     C33648   3.808   9.060  10.357  0.5817  0.3097  0.2971
  969MOL0     C33649   3.712   9.138  10.370  0.1644 -0.2615 -0.3593
  969MOL0     C33650   4.261   8.841  10.771  0.6576 -0.3285  0.1968
  969MOL0     C33651   4.326   8.769  10.875  0.1476  0.0454 -0.7036
  969MOL0     C33652   4.439   8.842  10.939 -0.0961 -0.4896 -0.6248
  969MOL0     H33653   4.393   8.749  11.356 -0.6066  0.4379 -3.2614
  969MOL0     H33654   4.487   8.654  11.564 -0.1955 -1.4799  1.6539
  969MOL0     H33655   4.480   8.503  11.734  1.1956  1.8844 -0.8697
  969MOL0     H33656   4.633   8.580  11.702 -0.4981  0.4198 -2.3242
  969MOL0     H33657   4.731   8.339  11.770  0.5073  2.1195 -2.2064
  969MOL0     H33658   4.708   8.462  11.896  0.2719 -2.1954  2.0113
  969MOL0     H33659   4.480   8.382  11.947 -0.2320 -0.2857 -0.4559
  969MOL0     H33660   4.504   8.256  11.835 -2.4072  1.4836 -0.1400
  969MOL0     H33661   4.662   8.154  11.952  0.6135  0.4512  0.8617
  969MOL0     H33662   4.698   8.302  12.048  1.9978  1.1305 -4.4673
  969MOL0     H33663   4.430   8.136  12.056  1.8968 -3.7199  1.4334
  969MOL0     H33664   4.456   8.285  12.148 -0.3418 -0.3531  1.5685
  969MOL0     H33665   4.594   8.022  12.146 -1.1936  1.0169 -0.5582
  969MOL0     H33666   4.670   8.160  12.228  0.0477 -2.2924  2.9211
  969MOL0     H33667   4.457   8.159  12.389  0.8988 -0.7365  0.6985
  969MOL0     H33668   4.566   8.021  12.389  0.3432  0.0449  1.2006
  969MOL0     H33669   4.291   8.075  12.232 -1.0268 -0.3523  1.6785
  969MOL0     H33670   4.385   7.931  12.194 -0.9235 -4.5093  2.8991
  969MOL0     H33671   4.417   7.951  12.558 -2.8473  2.1599  3.6876
  969MOL0     H33672   4.216   7.827  12.793 -1.3483 -0.3026 -0.4984
  969MOL0     H33673   4.354   7.761  12.732 -0.4052  4.0310  1.3872
  969MOL0     H33674   4.075   7.648  12.699 -0.4965 -2.6402 -2.5428
  969MOL0     H33675   4.203   7.587  12.603  2.8410  3.0842 -1.4814
  969MOL0     H33676   4.259   7.587  12.900 -2.4814 -2.0455  1.1070
  969MOL0     H33677   4.179   7.456  12.829 -1.0412  0.2864 -1.2537
  969MOL0     H33678   4.375   7.388  12.694  1.4672 -0.9290  1.4478
  969MOL0     H33679   4.447   7.556  12.707  1.3324 -1.2063 -1.0126
  969MOL0     H33680   4.661   7.426  12.689  1.7269  5.0891  2.4491
  969MOL0     H33681   4.851   7.389  12.607  0.2314  0.2552 -0.1537
  969MOL0     H33682   4.901   7.212  12.642  2.7414 -0.0989  0.7754
  969MOL0     H33683   4.979   7.357  12.711 -1.3311  0.5317 -0.2292
  969MOL0     H33684   5.216   7.266  13.123 -3.2002 -0.1575 -2.2755
  969MOL0     H33685   5.410   7.139  13.252  1.2497  1.2122 -2.1426
  969MOL0     H33686   5.544   7.002  13.403 -2.3546  0.3983 -3.1120
  969MOL0     H33687   5.383   6.984  13.469 -0.8152 -0.0861 -0.8992
  969MOL0     H33688   5.388   6.766  13.519  0.5486  0.7765  0.1865
  969MOL0     H33689   5.545   6.728  13.451  0.1278  1.4480 -1.6224
  969MOL0     H33690   5.483   6.917  13.691 -1.3736 -1.2474  0.7026
  969MOL0     H33691   5.639   6.911  13.609 -0.0876 -0.9410  1.9029
  969MOL0     H33692   5.637   6.779  13.818 -2.6857 -0.3679  2.2536
  969MOL0     H33693   5.665   6.659  13.683 -2.0688 -3.3984  1.5964
  969MOL0     H33694   5.394   6.709  13.796 -0.1890  0.7810 -0.9992
  969MOL0     H33695   5.435   6.612  13.660 -0.4732 -1.9830  0.9190
  969MOL0     H33696   5.540   6.582  13.928  0.0364  1.9343 -0.9746
  969MOL0     H33697   5.556   6.451  13.810 -2.3280 -0.6772 -2.4690
  969MOL0     H33698   5.327   6.377  13.859  3.9351 -3.3092  3.6951
  969MOL0     H33699   5.283   6.546  13.897  0.2646  1.7117  2.1024
  969MOL0     H33700   5.382   6.514  14.121 -1.5782  0.9131  0.1142
  969MOL0     H33701   5.484   6.385  14.073 -0.6440 -0.0390 -0.2853
  969MOL0     H33702   5.226   6.770  13.168  3.6851 -0.1047 -2.0934
  969MOL0     H33703   5.009   6.893  13.101  0.6564 -0.6150 -2.8807
  969MOL0     H33704   4.785   7.245  13.128  1.3229  0.6402 -0.1110
  969MOL0     H33705   4.555   7.327  13.086  0.3140 -0.0915  0.9812
  969MOL0     H33706   4.567   8.281  11.369  3.7405  1.6588  0.8146
  969MOL0     H33707   4.484   8.376  11.163  0.5138  0.9658 -0.3843
  969MOL0     H33708   4.115   8.488  10.874  1.1380  0.0322  2.8207
  969MOL0     H33709   4.029   8.614  10.675  3.0517 -2.0789 -3.1519
  969MOL0     H33710   3.971   8.907  10.739 -2.1224 -2.7065 -0.6032
  969MOL0     H33711   4.015   9.028  10.616  0.3632 -0.1765 -1.7206
  969MOL0     H33712   3.788   8.945  10.579  2.5832  2.6949 -0.2059
  969MOL0     H33713   3.839   8.789  10.624 -1.5446 -0.1478 -1.1162
  969MOL0     H33714   3.937   8.754  10.384  0.4172  0.3483  1.0606
  969MOL0     H33715   3.773   8.803  10.375  0.8337 -3.0784 -0.8859
  969MOL0     H33716   3.920   8.940  10.215  2.1056  1.9991 -0.1902
  969MOL0     H33717   4.007   8.991  10.352  0.4809 -2.2553  0.2357
  969MOL0     H33718   3.642   9.217  10.385  2.7159  2.5002 -1.9272
  969MOL0     H33719   4.310   8.934  10.742  1.1377 -0.4716  0.5362
  969MOL0     H33720   4.506   8.882  10.863 -1.9999 -0.6995 -2.5027
  969MOL0     H33721   4.396   8.930  10.989 -0.9203 -1.8979  1.2895
  969MOL0     H33722   4.501   8.788  11.012 -0.7306  2.7319  2.5982
  970MOL0     O33723   8.541   7.518   1.251 -0.6438 -0.0163 -0.1671
  970MOL0     C33724   8.627   7.463   1.318 -0.2662 -0.2330 -0.2330
  970MOL0     O33725   8.611   7.357   1.407 -0.0538 -0.4048  0.1818
  970MOL0     C33726   8.487   7.299   1.407  0.7842  0.0199 -0.3950
  970MOL0     C33727   8.420   7.293   1.534  0.5493  0.4866 -0.0046
  970MOL0     C33728   8.313   7.207   1.559 -0.2603 -0.8607  0.3835
  970MOL0     C33729   8.268   7.119   1.454  0.5570  0.4076 -0.6919
  970MOL0     O33730   8.169   7.026   1.468  0.9461  0.9694  0.1369
  970MOL0     C33731   8.143   6.983   1.609 -0.3142  0.4917 -1.1739
  970MOL0     C33732   8.058   6.846   1.622  0.2354 -0.0398  0.8767
  970MOL0     C33733   8.038   6.788   1.759 -0.8621 -0.0548  0.9872
  970MOL0     C33734   7.984   6.645   1.751 -0.0836 -0.7280  0.5383
  970MOL0     C33735   7.965   6.578   1.892  0.2471 -0.6260  0.1720
  970MOL0     C33736   7.906   6.433   1.870 -0.3683  0.0910  0.1826
  970MOL0     C33737   7.841   6.375   1.996 -0.5999  0.5210  0.4825
  970MOL0     C33738   7.819   6.221   1.980 -0.3471 -0.5838  0.1465
  970MOL0     N33739   7.751   6.167   2.096  0.0965 -0.2691 -0.6713
  970MOL0     C33740   7.808   6.154   2.223 -0.8398 -0.0635  0.8588
  970MOL0     C33741   7.705   6.117   2.299 -0.9071  0.4814 -0.2534
  970MOL0     C33742   7.703   6.089   2.443 -0.1694 -0.6009  0.3710
  970MOL0     C33743   7.726   5.939   2.480 -0.6642 -0.2269 -0.1790
  970MOL0     C33744   7.753   5.926   2.628 -1.2459 -0.0996 -1.2025
  970MOL0     C33745   7.636   5.932   2.719  0.5224  0.4982 -0.7824
  970MOL0     O33746   7.589   6.065   2.726 -0.3148 -1.4183 -0.1354
  970MOL0     C33747   7.622   6.133   2.847  0.7966 -0.7881 -0.3321
  970MOL0     C33748   7.530   6.217   2.906  0.4249 -0.0404  0.1472
  970MOL0     C33749   7.552   6.292   3.022 -0.0482 -0.8956  0.2132
  970MOL0     C33750   7.443   6.396   3.065  0.1641  0.3373  0.7695
  970MOL0     C33751   7.681   6.278   3.078 -1.4242 -0.3674 -0.4616
  970MOL0     C33752   7.726   6.346   3.201  0.0416  0.2983  0.3079
  970MOL0     O33753   7.833   6.289   3.264  0.4045 -0.3357 -0.6073
  970MOL0     C33754   7.897   6.364   3.356  0.5866 -0.5290  0.0534
  970MOL0     C33755   7.835   6.431   3.464  0.4418 -0.1394 -0.0006
  970MOL0     C33756   7.914   6.510   3.550 -1.0147  0.3087 -0.2878
  970MOL0     C33757   8.056   6.530   3.528 -0.5778 -1.0984 -0.4075
  970MOL0     O33758   8.132   6.611   3.612  0.1710  0.2444 -0.0316
  970MOL0     C33759   8.233   6.682   3.540  0.4860  0.1526  0.2027
  970MOL0     C33760   8.305   6.788   3.631  0.0002  1.0549 -0.7168
  970MOL0     C33761   8.257   6.929   3.598  1.0953 -0.4046  0.3487
  970MOL0     C33762   8.283   7.041   3.699  0.0725 -0.2903  0.0606
  970MOL0     C33763   8.440   7.070   3.696  0.7272  0.7072 -0.0645
  970MOL0     C33764   8.492   7.141   3.820 -0.1440 -0.8120 -0.6474
  970MOL0     C33765   8.408   7.270   3.844 -0.5718 -0.4428 -0.1922
  970MOL0     C33766   8.429   7.383   3.748 -1.4060  0.2323  0.4434
  970MOL0    Cl33767   8.325   7.527   3.776 -0.2871  0.4590 -0.2036
  970MOL0     C33768   8.116   6.455   3.418 -0.5288  0.9318  0.4297
  970MOL0     C33769   8.036   6.378   3.331 -0.3016 -0.9151  0.7385
  970MOL0     O33770   7.675   6.452   3.236  0.2860 -0.4223 -0.1477
  970MOL0     C33771   7.774   6.187   3.021  0.2564 -0.3238  0.1538
  970MOL0     C33772   7.743   6.109   2.910  0.4705 -0.3977 -0.6176
  970MOL0     N33773   7.598   6.102   2.217 -0.3155  0.5346 -0.4513
  970MOL0     N33774   7.624   6.135   2.093  0.6170 -0.1632 -0.4115
  970MOL0     C33775   8.317   7.142   1.322  0.2528  0.3534 -0.0497
  970MOL0     C33776   8.434   7.221   1.297 -1.1474 -0.5404 -0.4151
  970MOL0     C33777   8.764   7.525   1.320  0.0584 -0.2544 -0.2513
  970MOL0     C33778   8.829   7.539   1.198  0.3765  0.5985  0.0748
  970MOL0     C33779   8.946   7.610   1.194 -0.3778 -0.2038  0.4267
  970MOL0     C33780   9.016   7.646   1.310  0.5193 -0.9527  0.0564
  970MOL0     O33781   9.142   7.695   1.284  1.1216  0.0032  0.0441
  970MOL0     C33782   9.225   7.730   1.397  0.5663  0.0203  0.9538
  970MOL0     C33783   9.321   7.840   1.355 -0.6467  0.9906  0.2242
  970MOL0     C33784   9.464   7.823   1.399  0.1916  0.2421 -1.3811
  970MOL0     C33785   9.498   7.888   1.543 -0.4091  0.2154  0.1856
  970MOL0     C33786   9.519   8.036   1.546  0.3754 -0.1512 -0.7646
  970MOL0     C33787   9.514   8.154   1.563 -0.5175  0.2469  0.3351
  970MOL0     C33788   8.970   7.610   1.439  0.3555  0.2456 -0.0248
  970MOL0     C33789   8.841   7.549   1.440 -0.5616 -0.5327 -0.6247
  970MOL0     C33790   8.779   7.539   1.580 -0.9087 -0.1179 -0.0461
  970MOL0     H33791   8.457   7.336   1.626  0.9629 -0.2418  0.1784
  970MOL0     H33792   8.279   7.200   1.662  1.2302  2.3254  1.1945
  970MOL0     H33793   8.093   7.059   1.670 -1.2808 -0.4378 -0.7699
  970MOL0     H33794   8.237   6.961   1.661 -2.6879 -1.4842  2.8036
  970MOL0     H33795   7.964   6.861   1.569 -1.0476 -1.0036  2.7481
  970MOL0     H33796   8.114   6.779   1.556  0.6223  1.1593 -0.0492
  970MOL0     H33797   8.137   6.797   1.805 -1.3097  2.0987  1.6586
  970MOL0     H33798   7.967   6.847   1.819 -1.1511  0.5957  0.0291
  970MOL0     H33799   7.889   6.631   1.700  1.1356 -3.3980 -1.2217
  970MOL0     H33800   8.050   6.594   1.680  1.7681  0.3808  1.3657
  970MOL0     H33801   7.891   6.638   1.947 -0.2990 -1.4943  0.4078
  970MOL0     H33802   8.055   6.564   1.952  3.6323  2.4027 -3.6198
  970MOL0     H33803   7.829   6.427   1.793  1.8191  2.1173 -2.3846
  970MOL0     H33804   7.989   6.370   1.838  0.5388  2.3261 -2.2869
  970MOL0     H33805   7.745   6.420   2.022 -1.6010 -1.0104 -0.4091
  970MOL0     H33806   7.909   6.387   2.081 -0.2780 -0.2990  0.3520
  970MOL0     H33807   7.753   6.210   1.894 -0.4169  2.9181 -0.3879
  970MOL0     H33808   7.911   6.166   1.956  0.9615  1.4171  0.2765
  970MOL0     H33809   7.909   6.181   2.254 -1.2271  1.1375  1.1115
  970MOL0     H33810   7.599   6.108   2.473 -0.4021  0.7352 -1.1671
  970MOL0     H33811   7.773   6.153   2.497 -0.0767 -0.1684 -0.2568
  970MOL0     H33812   7.640   5.881   2.445  0.0167 -1.0330 -0.5595
  970MOL0     H33813   7.820   5.909   2.431  1.5775  3.4079  1.5167
  970MOL0     H33814   7.807   5.835   2.656  0.0195  1.3609  1.5137
  970MOL0     H33815   7.815   6.011   2.660 -3.7475  1.7715 -1.0495
  970MOL0     H33816   7.555   5.869   2.683  1.5426 -0.5638 -1.2986
  970MOL0     H33817   7.662   5.893   2.818 -0.0959 -1.2237 -1.2688
  970MOL0     H33818   7.437   6.237   2.854  1.0143 -1.4945 -1.5606
  970MOL0     H33819   7.479   6.498   3.049 -2.0077  1.1205  0.5509
  970MOL0     H33820   7.428   6.396   3.173  4.1752  2.3113  1.5190
  970MOL0     H33821   7.351   6.388   3.006  0.0493  0.3927  0.9427
  970MOL0     H33822   7.727   6.429   3.473  0.4036 -1.6593 -0.4867
  970MOL0     H33823   7.868   6.559   3.635 -2.5015  0.3806 -1.1071
  970MOL0     H33824   8.312   6.619   3.497  3.1901  2.9835  0.6615
  970MOL0     H33825   8.173   6.727   3.461  2.4236  0.2436 -1.2880
  970MOL0     H33826   8.283   6.771   3.737  3.0493  1.6612  0.1261
  970MOL0     H33827   8.414   6.782   3.635  0.0857  1.1025 -2.3861
  970MOL0     H33828   8.148   6.927   3.595  0.9628  2.7357 -1.4306
  970MOL0     H33829   8.299   6.965   3.503  0.7279  0.7675  0.6138
  970MOL0     H33830   8.258   7.009   3.801  1.5888  4.8616  2.3863
  970MOL0     H33831   8.215   7.125   3.684 -0.7551 -1.0985 -0.8003
  970MOL0     H33832   8.493   6.974   3.698 -1.7601 -0.7372  0.1779
  970MOL0     H33833   8.464   7.117   3.600  1.9866 -3.0796 -1.8126
  970MOL0     H33834   8.600   7.162   3.821 -0.0060 -1.4320 -1.4232
  970MOL0     H33835   8.466   7.086   3.911  0.0212 -0.1251 -0.1766
  970MOL0     H33836   8.426   7.308   3.945  3.0376 -1.2317 -0.4164
  970MOL0     H33837   8.301   7.244   3.840 -0.3827 -1.1295 -1.1457
  970MOL0     H33838   8.411   7.352   3.645  0.1667  0.1695  0.1732
  970MOL0     H33839   8.534   7.412   3.750 -0.2120 -3.3270 -1.3148
  970MOL0     H33840   8.220   6.466   3.388  0.0888 -1.7185  1.3195
  970MOL0     H33841   8.074   6.322   3.246 -1.1073  2.7152 -2.2744
  970MOL0     H33842   7.866   6.173   3.076  0.5317 -1.1563 -0.4789
  970MOL0     H33843   7.811   6.033   2.873 -0.2389 -1.4052  0.0775
  970MOL0     H33844   8.280   7.066   1.253  4.3495 -1.3294 -0.6930
  970MOL0     H33845   8.491   7.214   1.205 -2.3581 -3.9629 -1.0254
  970MOL0     H33846   8.783   7.513   1.103  4.2730  2.3957 -2.5515
  970MOL0     H33847   8.976   7.619   1.090 -2.5253  1.2311 -0.1168
  970MOL0     H33848   9.158   7.770   1.473 -1.0110  2.1975 -1.4289
  970MOL0     H33849   9.283   7.642   1.430  0.9791 -0.8798 -1.9279
  970MOL0     H33850   9.284   7.941   1.377 -1.4658  0.5662  0.7989
  970MOL0     H33851   9.333   7.841   1.246  2.8206  1.6513  0.4916
  970MOL0     H33852   9.489   7.717   1.407  3.5362  0.7360 -3.3223
  970MOL0     H33853   9.534   7.850   1.320  0.7232 -3.1129 -2.1908
  970MOL0     H33854   9.589   7.839   1.581 -0.3952  0.2934  0.2534
  970MOL0     H33855   9.426   7.866   1.622  1.1335  0.5526  1.7552
  970MOL0     H33856   9.537   8.256   1.584  1.4001 -0.2827  1.0455
  970MOL0     H33857   9.013   7.643   1.533 -0.7871  2.8797 -0.3268
  970MOL0     H33858   8.715   7.452   1.597 -0.9613 -0.6747 -2.6435
  970MOL0     H33859   8.860   7.544   1.653 -0.8438 -0.0967 -0.1191
  970MOL0     H33860   8.727   7.631   1.607  2.3259  1.9824 -0.4230
  971MOL0     O33861   3.437   5.294   6.670 -0.0009 -0.7336  0.6339
  971MOL0     C33862   3.482   5.273   6.557 -0.0769  0.2322 -0.7099
  971MOL0     O33863   3.407   5.270   6.441  0.9278  0.2146 -0.4602
  971MOL0     C33864   3.283   5.221   6.452 -0.5120 -0.6541  0.1017
  971MOL0     C33865   3.248   5.083   6.461 -0.0609  0.3268 -0.9515
  971MOL0     C33866   3.117   5.031   6.471 -0.3421 -0.1334 -0.0268
  971MOL0     C33867   3.011   5.125   6.470  0.0408  0.0422 -0.6104
  971MOL0     O33868   2.880   5.095   6.499 -0.8563 -0.0899  0.6505
  971MOL0     C33869   2.846   4.957   6.502 -0.1350 -0.0220 -0.1269
  971MOL0     C33870   2.700   4.957   6.522 -0.2825 -0.3779  0.2475
  971MOL0     C33871   2.645   4.816   6.483 -0.4025  0.3779 -0.7022
  971MOL0     C33872   2.497   4.804   6.514 -0.3331  0.4994 -0.6396
  971MOL0     C33873   2.454   4.653   6.523  0.1585  0.7618 -0.0360
  971MOL0     C33874   2.319   4.633   6.454 -0.0690  0.5187 -0.4892
  971MOL0     C33875   2.241   4.505   6.481  0.8253  0.1731 -0.8758
  971MOL0     C33876   2.310   4.372   6.455 -0.3912 -0.0914 -0.0531
  971MOL0     N33877   2.261   4.275   6.357 -0.1363 -0.6983 -0.0999
  971MOL0     C33878   2.278   4.297   6.222 -0.5301  0.6299  0.1807
  971MOL0     C33879   2.193   4.203   6.168 -0.5917  0.3698  0.8026
  971MOL0     C33880   2.159   4.190   6.022  0.1716 -0.1679  0.1492
  971MOL0     C33881   2.271   4.127   5.949 -0.4042  0.3272 -0.0662
  971MOL0     C33882   2.310   3.986   6.011 -0.6838 -0.4600  0.2753
  971MOL0     C33883   2.398   3.908   5.912 -0.3289  0.4945 -0.5857
  971MOL0     O33884   2.503   3.985   5.862  0.4686  0.1882 -0.1301
  971MOL0     C33885   2.590   3.926   5.769  0.4136  0.2603  0.8319
  971MOL0     C33886   2.606   3.789   5.748 -0.3405  0.8522  1.5937
  971MOL0     C33887   2.681   3.733   5.637 -0.3717  0.6457  0.5366
  971MOL0     C33888   2.663   3.583   5.614  0.2714  0.9999 -0.5038
  971MOL0     C33889   2.750   3.823   5.557  0.8545 -0.7888  0.3757
  971MOL0     C33890   2.835   3.776   5.444 -0.0250 -0.1782  0.7888
  971MOL0     O33891   2.939   3.858   5.418 -0.2657  0.2757  0.0695
  971MOL0     C33892   3.018   3.836   5.310  0.9379  0.0520  0.3302
  971MOL0     C33893   3.085   3.944   5.256  0.5472  0.1686  0.2654
  971MOL0     C33894   3.173   3.930   5.150  0.1372  0.6531  1.2356
  971MOL0     C33895   3.183   3.813   5.080 -0.8978  0.3204 -0.0835
  971MOL0     O33896   3.253   3.813   4.962  0.5402 -0.5211 -0.5406
  971MOL0     C33897   3.335   3.694   4.929  0.3303 -0.7064  0.5024
  971MOL0     C33898   3.441   3.724   4.814 -0.1799  0.4463  0.0220
  971MOL0     C33899   3.551   3.819   4.854 -1.0528  0.5581 -0.2056
  971MOL0     C33900   3.629   3.867   4.720  0.5092  0.0989  0.0172
  971MOL0     C33901   3.738   3.960   4.753 -0.3868 -0.4244  0.0972
  971MOL0     C33902   3.830   3.993   4.628  0.6395  0.2936 -0.4958
  971MOL0     C33903   3.958   4.067   4.665  0.2331  0.5756  0.6794
  971MOL0     C33904   4.042   4.084   4.543  0.6190  0.0996  0.7334
  971MOL0    Cl33905   3.950   4.201   4.424 -0.0650  0.7433 -0.1159
  971MOL0     C33906   3.118   3.702   5.131  0.2432 -0.6986  1.0915
  971MOL0     C33907   3.035   3.708   5.241 -0.3300 -0.6113 -0.1074
  971MOL0     O33908   2.795   3.683   5.369 -0.4064 -0.0929  0.2612
  971MOL0     C33909   2.744   3.960   5.588 -0.4311 -0.2028 -0.0259
  971MOL0     C33910   2.670   4.008   5.694 -0.9976  0.5708  0.2378
  971MOL0     N33911   2.109   4.158   6.266  0.4979 -0.5844 -0.2972
  971MOL0     N33912   2.166   4.189   6.380  0.0217  0.1397 -0.4666
  971MOL0     C33913   3.050   5.260   6.461  0.1528 -0.1188 -0.3418
  971MOL0     C33914   3.178   5.309   6.451  0.8696 -0.0739 -0.3192
  971MOL0     C33915   3.635   5.262   6.550  0.4866  1.0651 -0.7376
  971MOL0     C33916   3.695   5.191   6.656  0.2391 -0.6535  0.2593
  971MOL0     C33917   3.837   5.163   6.660  0.7698  0.3028  0.6456
  971MOL0     C33918   3.915   5.231   6.557 -0.4450  1.3673 -0.4661
  971MOL0     O33919   4.050   5.240   6.546  0.6000  0.8427  0.4874
  971MOL0     C33920   4.114   5.372   6.557 -0.7986  0.1391  0.5303
  971MOL0     C33921   4.102   5.404   6.709 -0.7663  0.1567  0.2410
  971MOL0     C33922   4.218   5.328   6.786 -0.1813  0.0603 -0.6823
  971MOL0     C33923   4.221   5.350   6.935  0.7022  0.0510 -0.5905
  971MOL0     C33924   4.273   5.479   6.975  0.0720  0.3706  0.0723
  971MOL0     C33925   4.304   5.592   7.015  1.5818  0.0123 -0.3086
  971MOL0     C33926   3.847   5.302   6.460 -0.4833 -0.2064  0.4779
  971MOL0     C33927   3.709   5.323   6.451 -1.0272 -0.8990 -0.4040
  971MOL0     C33928   3.654   5.417   6.351 -0.3879  0.2390  0.5503
  971MOL0     H33929   3.332   5.015   6.474  1.6916  2.5682  0.1162
  971MOL0     H33930   3.097   4.925   6.480 -1.7400  0.2965  2.8760
  971MOL0     H33931   2.904   4.901   6.575 -1.7626  2.7789  3.6727
  971MOL0     H33932   2.869   4.924   6.400 -0.3640  0.8561 -0.4755
  971MOL0     H33933   2.667   4.997   6.618 -2.5599  1.1618 -1.0857
  971MOL0     H33934   2.657   5.021   6.444 -1.2006 -1.7013 -0.3848
  971MOL0     H33935   2.666   4.792   6.378  1.0573 -0.4428 -0.2547
  971MOL0     H33936   2.697   4.736   6.537  0.4552 -1.4716 -3.9990
  971MOL0     H33937   2.472   4.865   6.601 -0.1441  0.6213 -0.6703
  971MOL0     H33938   2.444   4.852   6.432  0.8611 -0.6679 -2.1752
  971MOL0     H33939   2.449   4.635   6.630 -3.9974 -0.8801 -0.3206
  971MOL0     H33940   2.529   4.584   6.483 -2.2286 -0.6604 -2.3561
  971MOL0     H33941   2.263   4.716   6.499 -0.3465  0.2862 -0.4095
  971MOL0     H33942   2.308   4.647   6.346 -2.1614  1.9352 -0.1389
  971MOL0     H33943   2.159   4.507   6.409  2.2685  0.3476 -2.5729
  971MOL0     H33944   2.212   4.499   6.586  1.6354  0.9561 -0.5948
  971MOL0     H33945   2.417   4.386   6.439 -0.7633  0.0969 -2.8627
  971MOL0     H33946   2.295   4.330   6.555  0.2133  1.3188  0.6569
  971MOL0     H33947   2.334   4.370   6.165  0.6974 -0.0740  0.4389
  971MOL0     H33948   2.116   4.278   5.974 -0.1004 -1.7865 -2.8290
  971MOL0     H33949   2.075   4.121   6.012 -0.1552  0.3994 -1.1447
  971MOL0     H33950   2.250   4.125   5.842  1.4304  0.6696 -0.4725
  971MOL0     H33951   2.361   4.191   5.951  0.4590 -0.8563  0.0837
  971MOL0     H33952   2.374   4.013   6.095 -3.0974  1.3411  1.6709
  971MOL0     H33953   2.215   3.937   6.033 -0.6810 -1.1692 -1.1920
  971MOL0     H33954   2.457   3.838   5.971 -0.7360  1.8992  1.6435
  971MOL0     H33955   2.336   3.848   5.844  2.0959 -4.7225  1.2935
  971MOL0     H33956   2.555   3.715   5.809  0.8993 -0.0952  1.5245
  971MOL0     H33957   2.748   3.539   5.561 -0.4524 -2.3780  0.8717
  971MOL0     H33958   2.580   3.554   5.549  0.1190  1.4899 -0.5376
  971MOL0     H33959   2.651   3.526   5.707 -0.1594  0.6448 -0.7778
  971MOL0     H33960   3.081   4.036   5.315  1.2449 -0.4565  1.3336
  971MOL0     H33961   3.215   4.018   5.103  0.9272 -0.1950  0.2966
  971MOL0     H33962   3.398   3.657   5.010  2.2971 -2.8553 -1.8149
  971MOL0     H33963   3.270   3.618   4.884 -0.4088  0.1791  0.0462
  971MOL0     H33964   3.486   3.627   4.789 -2.3329  0.1229 -3.1742
  971MOL0     H33965   3.391   3.762   4.724 -1.3799 -1.3714 -0.1483
  971MOL0     H33966   3.622   3.773   4.923 -2.2814 -5.0732 -2.1667
  971MOL0     H33967   3.510   3.908   4.902 -1.6564  1.1747 -1.8013
  971MOL0     H33968   3.557   3.926   4.662  2.0877  1.0513 -1.0231
  971MOL0     H33969   3.653   3.789   4.647  2.1618  1.1400 -0.5884
  971MOL0     H33970   3.700   4.056   4.789 -1.0571 -1.5359  2.5722
  971MOL0     H33971   3.801   3.905   4.824  3.6465 -0.9994 -3.4593
  971MOL0     H33972   3.769   4.045   4.554  1.2968  1.7459 -0.0537
  971MOL0     H33973   3.851   3.897   4.580  1.6382 -1.3329  2.8483
  971MOL0     H33974   4.022   4.005   4.728  0.6802  0.3421  0.0163
  971MOL0     H33975   3.935   4.161   4.717  1.6720  0.7456  1.0389
  971MOL0     H33976   4.074   3.990   4.497  3.1210  0.3119  1.9069
  971MOL0     H33977   4.134   4.134   4.576  0.6959  1.3717 -1.2155
  971MOL0     H33978   3.109   3.602   5.088 -0.5760  0.4231 -1.5492
  971MOL0     H33979   3.000   3.621   5.295  0.5788  0.0500  1.6274
  971MOL0     H33980   2.793   4.028   5.519  2.0441 -2.1654 -0.3701
  971MOL0     H33981   2.667   4.117   5.698  0.8354  0.6184  2.8138
  971MOL0     H33982   2.964   5.326   6.454 -1.2459 -1.9183 -1.2266
  971MOL0     H33983   3.200   5.414   6.436  1.7238 -0.1201  0.5089
  971MOL0     H33984   3.629   5.149   6.731 -3.0044 -0.0321 -2.0363
  971MOL0     H33985   3.878   5.105   6.741  1.8425 -1.3570 -0.9998
  971MOL0     H33986   4.219   5.363   6.527 -0.8968  1.1212 -0.1564
  971MOL0     H33987   4.058   5.440   6.492 -2.5782 -1.0304  0.7541
  971MOL0     H33988   4.006   5.372   6.751 -1.1153 -1.2019 -1.4677
  971MOL0     H33989   4.106   5.513   6.715 -0.7885  0.0849  2.4025
  971MOL0     H33990   4.205   5.219   6.786 -0.4536 -0.2362  5.2025
  971MOL0     H33991   4.316   5.348   6.741 -0.4459 -0.0083 -1.3074
  971MOL0     H33992   4.282   5.273   6.985 -1.1917 -1.2478 -0.1739
  971MOL0     H33993   4.119   5.344   6.974  0.2450 -0.8269 -1.8343
  971MOL0     H33994   4.324   5.691   7.051 -0.0403  0.8160 -1.4648
  971MOL0     H33995   3.902   5.349   6.380 -1.3231 -0.1596 -0.0844
  971MOL0     H33996   3.623   5.362   6.262 -0.0593  3.0858 -1.4525
  971MOL0     H33997   3.577   5.485   6.387  0.8794  2.0345  0.0055
  971MOL0     H33998   3.731   5.483   6.311 -0.0486 -0.3501  0.2213
  972MOL0     O33999   9.067  10.678   1.933  0.6994  0.2945 -0.9856
  972MOL0     C34000   8.996  10.669   1.834 -0.0651 -0.0637  1.1210
  972MOL0     O34001   9.031  10.597   1.712  1.0589 -0.0613  0.7305
  972MOL0     C34002   9.168  10.584   1.680  0.4081 -1.0390  0.0941
  972MOL0     C34003   9.232  10.466   1.680 -1.3584  0.2378 -0.2049
  972MOL0     C34004   9.366  10.449   1.637  0.6264 -0.9211 -0.1353
  972MOL0     C34005   9.443  10.568   1.602 -0.2105 -0.3215  1.2428
  972MOL0     O34006   9.568  10.576   1.548  0.1966 -0.3018  0.2948
  972MOL0     C34007   9.663  10.467   1.585  0.4581 -0.6185  0.6630
  972MOL0     C34008   9.818  10.524   1.565  0.6750  0.0022  0.1372
  972MOL0     C34009   9.854  10.627   1.679 -0.0591  0.0237 -0.1504
  972MOL0     C34010   9.871  10.563   1.812  0.1482 -1.2132 -0.3518
  972MOL0     C34011  10.001  10.495   1.809  0.7799  0.4545 -0.0860
  972MOL0     C34012  10.015  10.418   1.940  0.4414 -0.5738 -1.5251
  972MOL0     C34013  10.146  10.352   1.971 -0.2452  1.3284 -0.0322
  972MOL0     C34014  10.140  10.253   2.086 -0.1733 -0.1710 -0.2681
  972MOL0     N34015  10.273  10.207   2.113 -0.0561 -0.2988 -0.6586
  972MOL0     C34016  10.394  10.276   2.103  1.2112 -0.1541 -0.0924
  972MOL0     C34017  10.483  10.188   2.140 -0.0857  0.0708  0.5466
  972MOL0     C34018  10.639  10.211   2.156  0.2939 -0.2151 -0.7255
  972MOL0     C34019  10.719  10.172   2.034  0.0887 -0.2243 -0.9723
  972MOL0     C34020  10.863  10.180   2.070  0.0829 -0.0782  0.1686
  972MOL0     C34021  10.937  10.177   1.936 -0.6091  0.9780  1.0310
  972MOL0     O34022  11.084  10.193   1.961 -0.9252 -0.3423 -0.1751
  972MOL0     C34023  11.163  10.084   1.992 -0.0932  0.0793 -0.2063
  972MOL0     C34024  11.304  10.097   1.988  0.1002 -0.0712 -0.0314
  972MOL0     C34025  11.387   9.992   2.022 -0.2130 -0.2587  0.3242
  972MOL0     C34026  11.536  10.026   2.016  0.0946  0.0350 -0.4031
  972MOL0     C34027  11.336   9.869   2.069 -0.1413 -0.3205  0.0573
  972MOL0     C34028  11.419   9.751   2.111  1.1446  0.4373  0.0189
  972MOL0     O34029  11.333   9.657   2.158 -0.7236  0.0107 -0.1771
  972MOL0     C34030  11.394   9.545   2.205  0.2756  1.1265 -0.3477
  972MOL0     C34031  11.452   9.452   2.117  0.6712 -0.3242 -0.0049
  972MOL0     C34032  11.516   9.345   2.174 -0.0900  0.1659 -0.2668
  972MOL0     C34033  11.522   9.324   2.313  0.2730 -0.1916 -0.1325
  972MOL0     O34034  11.604   9.234   2.357 -0.0163 -0.6421 -0.2493
  972MOL0     C34035  11.616   9.096   2.312  0.1988 -0.2435 -0.1422
  972MOL0     C34036  11.716   9.031   2.410  0.1161 -0.1626 -0.2909
  972MOL0     C34037  11.667   9.031   2.551  0.2064 -0.0043 -0.4604
  972MOL0     C34038  11.564   8.918   2.595  0.1164 -0.1289 -1.2798
  972MOL0     C34039  11.514   8.922   2.744 -0.0766 -0.4343 -0.9374
  972MOL0     C34040  11.400   8.827   2.777  0.9124  0.2466  0.3942
  972MOL0     C34041  11.369   8.849   2.929 -1.4146 -0.5081  0.8689
  972MOL0     C34042  11.287   8.754   2.997  0.8181 -0.8547 -0.2963
  972MOL0    Cl34043  11.136   8.708   2.905  0.3753  0.1941  0.4111
  972MOL0     C34044  11.461   9.418   2.401  0.7532  0.3447  0.0589
  972MOL0     C34045  11.402   9.530   2.347  0.3980 -0.2938 -0.2532
  972MOL0     O34046  11.538   9.740   2.090 -0.3485  0.1165  0.0092
  972MOL0     C34047  11.193   9.853   2.073  0.0688  0.4824  0.0988
  972MOL0     C34048  11.111   9.955   2.036 -0.3355  0.0166  0.5017
  972MOL0     N34049  10.420  10.075   2.178  0.1901 -0.5022 -0.2578
  972MOL0     N34050  10.295  10.080   2.158 -0.7965  0.5839  0.9198
  972MOL0     C34051   9.378  10.693   1.618 -0.8215 -0.7731 -0.0620
  972MOL0     C34052   9.247  10.702   1.659 -0.8233  0.3245 -0.7348
  972MOL0     C34053   8.859  10.707   1.858  0.7550 -0.3700  0.6837
  972MOL0     C34054   8.760  10.633   1.781  0.0246 -0.5204  0.8289
  972MOL0     C34055   8.626  10.655   1.787 -0.2424 -0.2872  0.6636
  972MOL0     C34056   8.574  10.745   1.876  0.3955 -0.2895 -0.8261
  972MOL0     O34057   8.451  10.783   1.878  0.4983 -0.4490 -0.1919
  972MOL0     C34058   8.352  10.702   1.822 -0.1502 -0.5650  1.0618
  972MOL0     C34059   8.212  10.774   1.838 -0.7940  1.0934  0.5399
  972MOL0     C34060   8.161  10.792   1.984  0.3157  0.9095  0.5863
  972MOL0     C34061   8.086  10.668   2.033  0.1032  0.0561 -0.7047
  972MOL0     C34062   7.962  10.640   1.953 -0.1597 -0.5382 -0.1442
  972MOL0     C34063   7.876  10.591   1.875 -0.7639 -0.2175 -0.3025
  972MOL0     C34064   8.663  10.826   1.952  0.6258 -0.5744  0.2717
  972MOL0     C34065   8.802  10.806   1.941 -0.3946  0.0863 -0.5222
  972MOL0     C34066   8.885  10.897   2.030 -0.0377  0.5798 -0.0180
  972MOL0     H34067   9.176  10.376   1.704 -1.6919  0.6475  0.5989
  972MOL0     H34068   9.414  10.351   1.636 -0.0890 -1.2869  0.2686
  972MOL0     H34069   9.647  10.394   1.505 -1.2075  1.0388 -0.6223
  972MOL0     H34070   9.647  10.430   1.687  2.7096 -1.3642  0.8081
  972MOL0     H34071   9.891  10.444   1.575  1.7905  1.2484  4.0423
  972MOL0     H34072   9.825  10.561   1.463  1.9470  1.6227  0.7735
  972MOL0     H34073   9.937  10.681   1.632 -1.3816  0.4044 -2.2215
  972MOL0     H34074   9.773  10.700   1.687 -2.4598 -2.6699  2.2068
  972MOL0     H34075   9.888  10.644   1.883  0.3420 -1.3337 -0.2580
  972MOL0     H34076   9.788  10.504   1.852 -0.8133  1.1284  1.2654
  972MOL0     H34077  10.079  10.571   1.801  1.3239  0.2630  2.5415
  972MOL0     H34078  10.002  10.425   1.725 -1.4613  2.7072 -2.1821
  972MOL0     H34079   9.997  10.491   2.020 -2.1643 -1.6344 -1.0646
  972MOL0     H34080   9.934  10.345   1.950 -0.9556  1.1627  0.8502
  972MOL0     H34081  10.215  10.435   1.991 -0.6573  1.6183  0.1831
  972MOL0     H34082  10.182  10.301   1.881  0.4189 -0.4119  1.1649
  972MOL0     H34083  10.107  10.313   2.171  3.7391 -1.8796  2.7407
  972MOL0     H34084  10.073  10.169   2.066  0.4325  0.0133 -3.6395
  972MOL0     H34085  10.404  10.379   2.072 -2.4564  0.0742 -1.0129
  972MOL0     H34086  10.666  10.158   2.247  1.9611  2.6745  0.6196
  972MOL0     H34087  10.646  10.320   2.168 -1.8824  0.1902 -2.4578
  972MOL0     H34088  10.704  10.066   2.011 -0.0591 -1.7671  4.7769
  972MOL0     H34089  10.689  10.233   1.948  1.5828  1.6902 -0.1885
  972MOL0     H34090  10.891  10.268   2.128  0.4058 -0.1288  0.0905
  972MOL0     H34091  10.891  10.097   2.135 -2.8229  0.4830  2.3554
  972MOL0     H34092  10.924  10.085   1.878  1.0959  0.2576  1.7001
  972MOL0     H34093  10.895  10.255   1.873 -2.9530  1.5744  3.1693
  972MOL0     H34094  11.347  10.189   1.951 -2.6835  1.0530 -0.7384
  972MOL0     H34095  11.568  10.014   1.913 -1.5846  2.0262 -1.2300
  972MOL0     H34096  11.596   9.979   2.095 -1.6314  2.3078  2.4581
  972MOL0     H34097  11.549  10.132   2.039 -1.5985 -0.3481  3.1106
  972MOL0     H34098  11.448   9.482   2.013  1.3083  1.4564  0.4583
  972MOL0     H34099  11.562   9.273   2.107 -2.0005 -0.3047 -1.1402
  972MOL0     H34100  11.515   9.054   2.323  0.4449 -0.7395  0.2482
  972MOL0     H34101  11.654   9.091   2.210  0.2288  1.4771 -0.2481
  972MOL0     H34102  11.734   8.926   2.383  0.1091 -0.5352  1.0803
  972MOL0     H34103  11.810   9.086   2.400  0.2984 -0.8383 -3.2551
  972MOL0     H34104  11.625   9.125   2.588 -2.0584 -1.3802  0.6377
  972MOL0     H34105  11.751   9.019   2.621  0.1831  1.2443 -0.1949
  972MOL0     H34106  11.606   8.818   2.588  0.6073 -0.1201  0.9315
  972MOL0     H34107  11.469   8.933   2.542 -1.7010  1.5547  2.0633
  972MOL0     H34108  11.590   8.903   2.820 -2.0814 -0.3672  1.1878
  972MOL0     H34109  11.474   9.022   2.760  0.0682 -0.3141 -1.3013
  972MOL0     H34110  11.432   8.725   2.751  0.7701  0.8346 -2.3300
  972MOL0     H34111  11.313   8.847   2.715  2.0204 -1.1576 -1.7539
  972MOL0     H34112  11.329   8.951   2.932  1.0392  0.5710 -0.5039
  972MOL0     H34113  11.465   8.867   2.978  0.6370  0.8927 -3.1901
  972MOL0     H34114  11.253   8.785   3.096 -2.6253  0.4951 -1.7229
  972MOL0     H34115  11.351   8.666   3.004  1.2255 -0.6306 -1.1425
  972MOL0     H34116  11.484   9.401   2.505  3.8168  0.2600 -0.5307
  972MOL0     H34117  11.366   9.618   2.399  1.4977  0.4411 -0.6943
  972MOL0     H34118  11.138   9.761   2.092 -1.7150  0.9634 -2.2407
  972MOL0     H34119  11.007   9.931   2.056  0.2385 -2.3288  0.8614
  972MOL0     H34120   9.429  10.785   1.590 -3.0958  0.7387  0.4722
  972MOL0     H34121   9.194  10.797   1.664 -2.5260 -0.5163 -1.7772
  972MOL0     H34122   8.801  10.569   1.703  0.4822  4.0432 -3.1613
  972MOL0     H34123   8.556  10.594   1.731  0.5079 -3.7713  3.2581
  972MOL0     H34124   8.371  10.699   1.714 -2.5490 -2.4034  0.6011
  972MOL0     H34125   8.343  10.601   1.862  0.7268 -0.8913  0.4574
  972MOL0     H34126   8.150  10.699   1.788  4.5150 -2.3908 -1.7283
  972MOL0     H34127   8.219  10.869   1.784 -0.5144  1.1965  0.7608
  972MOL0     H34128   8.249  10.809   2.046  1.9976 -0.2851 -1.3684
  972MOL0     H34129   8.091  10.876   1.980 -0.7055  0.2123  2.3497
  972MOL0     H34130   8.059  10.687   2.138  1.2070  5.5278 -1.0908
  972MOL0     H34131   8.156  10.585   2.017  2.4907  2.3226 -2.9466
  972MOL0     H34132   7.803  10.548   1.809 -2.2345  1.1492  0.3616
  972MOL0     H34133   8.627  10.899   2.023  1.5339  1.0615 -0.8961
  972MOL0     H34134   8.821  10.946   2.104 -1.0958 -2.1097  0.9408
  972MOL0     H34135   8.973  10.847   2.072 -1.0119 -0.2008  1.1800
  972MOL0     H34136   8.917  10.984   1.971  1.4131  0.2069  0.1851
  973MOL0     O34137  11.272   7.118   4.526 -0.1707 -0.6312  0.3080
  973MOL0     C34138  11.296   7.001   4.522  0.9038 -0.2909 -0.0034
  973MOL0     O34139  11.253   6.913   4.613  0.1979 -0.5328 -1.0997
  973MOL0     C34140  11.179   6.962   4.714  0.0848 -0.0799 -0.6429
  973MOL0     C34141  11.039   6.944   4.698 -0.3822  0.2154 -0.0469
  973MOL0     C34142  10.955   6.980   4.807 -0.5466  0.0251  0.2577
  973MOL0     C34143  10.997   7.032   4.928  0.1474 -0.6620 -0.4281
  973MOL0     O34144  10.902   7.075   5.023  0.2263 -0.8716  1.1244
  973MOL0     C34145  10.952   7.140   5.140 -0.3689 -0.3948 -0.1009
  973MOL0     C34146  10.833   7.184   5.225 -0.8603  0.2290 -0.0263
  973MOL0     C34147  10.863   7.315   5.299 -1.1000  0.6591  0.8010
  973MOL0     C34148  10.969   7.280   5.413 -0.2816  0.2617  0.2222
  973MOL0     C34149  11.019   7.406   5.481  0.1774  0.4267 -1.1086
  973MOL0     C34150  11.109   7.402   5.600 -0.1034 -0.2073  0.0422
  973MOL0     C34151  11.242   7.327   5.573  0.3760  1.0128  0.1802
  973MOL0     C34152  11.318   7.296   5.701  0.4505 -0.2431  0.1720
  973MOL0     N34153  11.260   7.191   5.788  1.3090 -0.3324  0.4414
  973MOL0     C34154  11.159   7.214   5.885  0.1228  1.0970  0.1569
  973MOL0     C34155  11.142   7.098   5.955 -0.3650 -0.2329  0.4133
  973MOL0     C34156  11.048   7.085   6.066  0.0165  0.2205  0.2870
  973MOL0     C34157  10.989   6.942   6.092 -0.7146 -0.2932  0.5059
  973MOL0     C34158  10.904   6.936   6.222 -0.2530 -0.0274  1.3228
  973MOL0     C34159  10.834   6.792   6.249 -0.3919 -0.4458  0.1275
  973MOL0     O34160  10.702   6.785   6.184  0.7192  0.8283 -0.0575
  973MOL0     C34161  10.586   6.736   6.245  0.2764 -0.5075 -0.7429
  973MOL0     C34162  10.552   6.749   6.380 -0.5641  0.1131 -0.1525
  973MOL0     C34163  10.429   6.711   6.429 -0.2624 -0.3795 -0.3856
  973MOL0     C34164  10.408   6.732   6.580 -0.2334 -0.0329  0.9719
  973MOL0     C34165  10.327   6.668   6.338 -0.0196  0.2409  0.1350
  973MOL0     C34166  10.186   6.630   6.374  0.2505 -0.2144  0.0298
  973MOL0     O34167  10.098   6.607   6.274 -0.3476 -0.3879  0.5894
  973MOL0     C34168   9.974   6.560   6.294  0.8981 -0.6566 -0.4742
  973MOL0     C34169   9.938   6.466   6.388  0.8517 -0.4898 -0.8167
  973MOL0     C34170   9.811   6.442   6.435  1.2165  1.1162  0.4881
  973MOL0     C34171   9.708   6.494   6.359  0.3225 -0.1355  0.3942
  973MOL0     O34172   9.576   6.487   6.387 -0.6223 -0.1312  0.0092
  973MOL0     C34173   9.524   6.354   6.391  0.0902 -0.8194 -0.1268
  973MOL0     C34174   9.486   6.306   6.533 -0.5589 -0.1978  0.6522
  973MOL0     C34175   9.357   6.377   6.582 -0.0733 -0.5771  0.1491
  973MOL0     C34176   9.363   6.424   6.725  0.0387 -0.7550 -0.2367
  973MOL0     C34177   9.428   6.564   6.738  0.1017  0.1077 -0.2922
  973MOL0     C34178   9.439   6.586   6.886  0.2494 -0.4772 -0.6231
  973MOL0     C34179   9.521   6.716   6.913 -0.6941 -0.0026 -0.5504
  973MOL0     C34180   9.530   6.727   7.065  0.2972  0.2029 -0.0898
  973MOL0    Cl34181   9.644   6.603   7.117 -0.0943 -0.0061  0.0376
  973MOL0     C34182   9.734   6.577   6.245  0.2766  0.4551  1.0177
  973MOL0     C34183   9.866   6.605   6.207 -0.5017  0.3129  0.8394
  973MOL0     O34184  10.169   6.594   6.485 -0.1145  0.1002 -0.1498
  973MOL0     C34185  10.356   6.668   6.199  0.0578 -0.4869 -0.5754
  973MOL0     C34186  10.481   6.703   6.155  0.6394  0.1604 -0.0875
  973MOL0     N34187  11.232   7.005   5.893  0.6244  0.4138  0.1897
  973MOL0     N34188  11.302   7.055   5.799 -0.3335 -0.0528 -0.4619
  973MOL0     C34189  11.135   7.059   4.939 -0.6356  0.2269 -0.7205
  973MOL0     C34190  11.220   7.019   4.838  0.0785 -0.4233  0.5608
  973MOL0     C34191  11.379   6.972   4.401 -0.4089  0.9717 -0.5650
  973MOL0     C34192  11.423   6.840   4.395 -1.3611 -0.4428  0.1487
  973MOL0     C34193  11.494   6.790   4.285 -0.0836  0.4392  0.1610
  973MOL0     C34194  11.532   6.869   4.180  0.1159 -0.6691  0.1284
  973MOL0     O34195  11.614   6.815   4.085  0.6522  0.5603 -0.1979
  973MOL0     C34196  11.644   6.905   3.973  0.1287 -0.4177  0.4388
  973MOL0     C34197  11.758   6.850   3.891 -0.3727  0.3139  0.7739
  973MOL0     C34198  11.869   6.791   3.976 -0.0896  0.1039  0.5828
  973MOL0     C34199  12.007   6.826   3.918  0.0798  0.2464 -1.1631
  973MOL0     C34200  12.047   6.963   3.946 -0.3277  0.4906 -0.0805
  973MOL0     C34201  12.085   7.071   3.993  0.1949  0.5108 -0.9468
  973MOL0     C34202  11.483   7.005   4.183 -0.7902 -0.9189  0.4590
  973MOL0     C34203  11.414   7.063   4.290 -0.2888  0.6613 -0.5631
  973MOL0     C34204  11.351   7.199   4.261  0.0555 -0.1733  1.1912
  973MOL0     H34205  10.999   6.887   4.615  0.7246  1.2514 -1.3369
  973MOL0     H34206  10.850   6.958   4.790 -0.1465 -2.3523  0.4605
  973MOL0     H34207  11.019   7.221   5.109 -0.8050  0.4043  0.9584
  973MOL0     H34208  11.007   7.065   5.197  2.2369  1.7595  0.4202
  973MOL0     H34209  10.758   7.207   5.149 -0.8713  1.7546  0.4026
  973MOL0     H34210  10.787   7.114   5.296  0.7736  0.6261  1.5032
  973MOL0     H34211  10.905   7.394   5.235 -2.6272  0.5525 -0.3690
  973MOL0     H34212  10.766   7.353   5.333 -0.9356 -0.2164  2.3492
  973MOL0     H34213  10.928   7.206   5.483  0.5176  0.8689  1.3715
  973MOL0     H34214  11.059   7.230   5.377 -0.3984 -1.6526  2.3465
  973MOL0     H34215  10.930   7.467   5.499 -1.1066 -1.3047 -1.3844
  973MOL0     H34216  11.072   7.465   5.405 -2.8688  1.4185 -2.6205
  973MOL0     H34217  11.138   7.507   5.613 -2.8461  0.7328 -0.7983
  973MOL0     H34218  11.056   7.374   5.692  0.4311  0.4082  0.5509
  973MOL0     H34219  11.310   7.386   5.510  1.6161  0.3216  0.8394
  973MOL0     H34220  11.229   7.235   5.514 -0.9153  1.9884 -1.1556
  973MOL0     H34221  11.424   7.280   5.678  0.0035 -0.6000 -1.8037
  973MOL0     H34222  11.317   7.379   5.772  0.3499 -0.4063  0.3610
  973MOL0     H34223  11.109   7.307   5.910  0.9854  1.5031  0.4164
  973MOL0     H34224  10.969   7.157   6.042  2.8486  2.9704 -1.6209
  973MOL0     H34225  11.098   7.100   6.162  5.0496 -2.7075 -1.4524
  973MOL0     H34226  10.913   6.925   6.014 -0.4050  0.0731  0.1180
  973MOL0     H34227  11.063   6.863   6.086  1.1703  1.4900 -1.4536
  973MOL0     H34228  10.965   6.958   6.310  1.0313 -2.0774  1.0096
  973MOL0     H34229  10.822   7.009   6.224  2.3224  3.0738  2.2016
  973MOL0     H34230  10.897   6.709   6.217  0.5014  1.0459 -2.2222
  973MOL0     H34231  10.822   6.791   6.358  2.2070 -1.2608  0.4881
  973MOL0     H34232  10.640   6.780   6.435  0.6400 -1.2434 -1.2356
  973MOL0     H34233  10.304   6.737   6.612  0.1286  1.2246  2.0934
  973MOL0     H34234  10.446   6.832   6.604  0.2527  0.8941 -2.9782
  973MOL0     H34235  10.472   6.661   6.633 -0.5048 -2.0171 -1.2238
  973MOL0     H34236  10.022   6.418   6.436  0.6625  0.8517  0.9810
  973MOL0     H34237   9.785   6.372   6.514  0.0414 -0.6810 -1.3778
  973MOL0     H34238   9.436   6.362   6.327 -0.5819  1.1723  0.9696
  973MOL0     H34239   9.594   6.278   6.355 -1.7563 -2.4402 -0.4512
  973MOL0     H34240   9.460   6.199   6.534 -0.6236 -0.1929 -0.2333
  973MOL0     H34241   9.576   6.314   6.595  0.4538 -0.1947 -0.7908
  973MOL0     H34242   9.278   6.301   6.590 -1.1826  0.7488  3.2520
  973MOL0     H34243   9.331   6.455   6.509  4.4650  2.9268  1.7752
  973MOL0     H34244   9.418   6.347   6.780 -1.1781 -0.1206  1.9778
  973MOL0     H34245   9.269   6.435   6.780 -0.7355  0.2244 -1.6891
  973MOL0     H34246   9.523   6.554   6.685  0.2611  0.4984 -0.0780
  973MOL0     H34247   9.372   6.638   6.680  1.7925  0.8703 -1.0254
  973MOL0     H34248   9.488   6.498   6.929 -0.9926 -1.1074 -0.4517
  973MOL0     H34249   9.342   6.590   6.936  1.0428  2.2172  0.8837
  973MOL0     H34250   9.463   6.790   6.858 -0.7450  0.5382  0.2165
  973MOL0     H34251   9.628   6.713   6.888 -0.2933 -1.3019  1.0750
  973MOL0     H34252   9.429   6.711   7.103  0.0982  0.2292 -0.6028
  973MOL0     H34253   9.551   6.830   7.096  1.2412 -0.1794  0.5883
  973MOL0     H34254   9.654   6.609   6.179  3.3610 -1.2260 -4.1611
  973MOL0     H34255   9.890   6.666   6.120 -3.3024  0.1093 -0.1640
  973MOL0     H34256  10.278   6.645   6.127 -1.9247  2.5636  0.4077
  973MOL0     H34257  10.483   6.721   6.048 -1.8736 -3.2997 -0.8673
  973MOL0     H34258  11.177   7.095   5.032 -1.0393 -1.3762  0.1263
  973MOL0     H34259  11.328   7.020   4.852  0.1323  1.4505  0.3190
  973MOL0     H34260  11.390   6.770   4.472 -0.3627 -0.9247  0.1503
  973MOL0     H34261  11.522   6.686   4.293  1.4643  0.7207 -1.1869
  973MOL0     H34262  11.560   6.908   3.903 -1.9653 -3.3576  2.5361
  973MOL0     H34263  11.665   7.008   4.004 -0.6162 -0.7352  2.0860
  973MOL0     H34264  11.797   6.930   3.827  0.0130  0.3085  1.0006
  973MOL0     H34265  11.710   6.773   3.830  1.0238  1.2207 -1.6203
  973MOL0     H34266  11.865   6.831   4.078  0.3367  2.6581 -0.3287
  973MOL0     H34267  11.841   6.685   3.973 -1.0626  0.3416 -3.1814
  973MOL0     H34268  11.997   6.830   3.809  1.9513 -1.0657 -1.4387
  973MOL0     H34269  12.081   6.748   3.940 -2.3022 -1.2466  2.3723
  973MOL0     H34270  12.110   7.171   4.023  0.5475 -0.7538  3.8628
  973MOL0     H34271  11.494   7.065   4.093  2.8381  0.0576  1.3947
  973MOL0     H34272  11.405   7.274   4.319  0.6946  1.4892 -1.3729
  973MOL0     H34273  11.346   7.242   4.160 -1.2311  2.5180  2.2995
  973MOL0     H34274  11.242   7.198   4.271  0.0265 -0.6011  0.8849
  974MOL0     O34275   8.663   7.311   8.765  0.3549  0.4376  0.4065
  974MOL0     C34276   8.724   7.411   8.771  0.4893 -0.2400  0.0965
  974MOL0     O34277   8.678   7.527   8.733  0.0125 -0.1015  0.6142
  974MOL0     C34278   8.570   7.529   8.643 -0.7762  0.3134  0.0103
  974MOL0     C34279   8.436   7.565   8.687 -0.5573 -0.3309 -0.2634
  974MOL0     C34280   8.337   7.590   8.592  0.1873 -0.2428 -0.8114
  974MOL0     C34281   8.369   7.577   8.460  0.8333  0.0768  1.0973
  974MOL0     O34282   8.275   7.621   8.371 -0.0375 -0.1848  0.1984
  974MOL0     C34283   8.280   7.570   8.238 -0.2138 -0.0675  0.2784
  974MOL0     C34284   8.151   7.597   8.161 -0.0384  0.3747 -0.0031
  974MOL0     C34285   8.155   7.548   8.019  0.2116 -0.2588  1.3322
  974MOL0     C34286   8.016   7.547   7.948 -0.1360  0.5336  0.0083
  974MOL0     C34287   7.923   7.429   7.983 -0.3010 -0.1145 -0.3722
  974MOL0     C34288   7.810   7.408   7.888 -0.1878 -0.2287  0.1276
  974MOL0     C34289   7.702   7.307   7.941  0.2472  0.3326  0.2201
  974MOL0     C34290   7.732   7.157   7.922  0.1857  0.7650 -0.1006
  974MOL0     N34291   7.754   7.123   7.780  0.5124 -0.5803 -0.3629
  974MOL0     C34292   7.674   7.093   7.673  0.4073 -0.3293  0.2574
  974MOL0     C34293   7.759   7.082   7.566  1.0138  0.1072 -0.6919
  974MOL0     C34294   7.718   7.046   7.427  0.3962 -0.3113 -0.4623
  974MOL0     C34295   7.751   6.901   7.402  1.5028  0.1995 -0.8384
  974MOL0     C34296   7.860   6.860   7.298 -1.4279 -0.6181 -0.5501
  974MOL0     C34297   7.998   6.920   7.328  0.0172  0.3953  0.0390
  974MOL0     O34298   8.096   6.814   7.310  0.0974  0.4467 -0.9017
  974MOL0     C34299   8.224   6.867   7.286 -0.4172  1.2530  0.5028
  974MOL0     C34300   8.304   6.794   7.189  0.6096 -0.5462  0.4490
  974MOL0     C34301   8.425   6.848   7.136 -0.8367 -0.4908 -0.0463
  974MOL0     C34302   8.507   6.771   7.037  0.2281 -0.1907 -0.4053
  974MOL0     C34303   8.467   6.981   7.190 -0.0901  0.4575  0.2499
  974MOL0     C34304   8.594   7.055   7.141  0.1325  0.5721 -0.1797
  974MOL0     O34305   8.614   7.179   7.202 -0.2421 -0.6268  0.2414
  974MOL0     C34306   8.735   7.234   7.161  0.5516 -1.6632 -0.7276
  974MOL0     C34307   8.857   7.243   7.234  0.2676 -0.1606  0.0357
  974MOL0     C34308   8.965   7.305   7.173  0.8426 -0.5462 -0.9659
  974MOL0     C34309   8.961   7.360   7.050 -0.1075  0.1438  0.4364
  974MOL0     O34310   9.089   7.397   7.008  0.0800  0.2206  0.4252
  974MOL0     C34311   9.096   7.468   6.879 -0.1092  0.1196  0.0296
  974MOL0     C34312   9.249   7.497   6.859  0.4027 -1.4393  0.2132
  974MOL0     C34313   9.297   7.465   6.720  0.0952  0.2110  0.4900
  974MOL0     C34314   9.300   7.583   6.631 -0.0404 -1.0024 -0.2000
  974MOL0     C34315   9.344   7.556   6.488  0.1275  0.7017 -0.1136
  974MOL0     C34316   9.248   7.452   6.413 -0.3406  0.0971 -0.2622
  974MOL0     C34317   9.112   7.495   6.404 -0.0334  0.5414 -0.7090
  974MOL0     C34318   9.025   7.404   6.307  0.2912 -0.7169  0.4172
  974MOL0    Cl34319   8.913   7.296   6.399 -0.2550 -0.0492 -0.8265
  974MOL0     C34320   8.849   7.362   6.983  1.1702  0.2702  0.0871
  974MOL0     C34321   8.737   7.308   7.041  0.5806 -0.4151 -0.7536
  974MOL0     O34322   8.652   7.014   7.037 -0.3600 -0.1238 -1.4160
  974MOL0     C34323   8.389   7.040   7.289  1.0874  0.0876 -0.3683
  974MOL0     C34324   8.271   6.984   7.342  0.0408  0.0371 -0.9554
  974MOL0     N34325   7.884   7.101   7.610  0.6633  0.0185 -0.5355
  974MOL0     N34326   7.882   7.117   7.735 -0.1082 -0.2011 -0.2691
  974MOL0     C34327   8.498   7.531   8.412  0.3116 -0.5309 -1.1687
  974MOL0     C34328   8.600   7.518   8.506 -0.0082  0.7005 -0.0742
  974MOL0     C34329   8.857   7.415   8.852  0.6626 -0.1617  0.1773
  974MOL0     C34330   8.888   7.534   8.908 -0.4042 -0.3427  0.4055
  974MOL0     C34331   9.005   7.538   8.990 -0.8947  0.6072 -0.9021
  974MOL0     C34332   9.088   7.430   9.016 -0.1489 -0.0781 -0.0969
  974MOL0     O34333   9.195   7.456   9.098 -0.2833  0.3538 -0.6049
  974MOL0     C34334   9.311   7.379   9.093 -0.3017 -0.0163 -0.1447
  974MOL0     C34335   9.432   7.476   9.121  0.5429  0.2567  0.5871
  974MOL0     C34336   9.423   7.554   9.249  0.9703 -0.2719 -0.6864
  974MOL0     C34337   9.518   7.676   9.237 -0.1974  0.6434 -0.0718
  974MOL0     C34338   9.565   7.706   9.371 -0.7125  0.3252 -0.2701
  974MOL0     C34339   9.603   7.751   9.479 -0.2471 -0.2882 -1.1479
  974MOL0     C34340   9.053   7.311   8.955 -0.1466  0.2106  0.6479
  974MOL0     C34341   8.941   7.301   8.872 -0.1199 -0.3833  0.6595
  974MOL0     C34342   8.906   7.164   8.816  0.2174 -1.3400 -0.0768
  974MOL0     H34343   8.412   7.582   8.792 -1.7286 -0.4487 -0.4967
  974MOL0     H34344   8.237   7.615   8.626 -0.0017 -1.5390 -0.3400
  974MOL0     H34345   8.311   7.465   8.242 -0.0114 -0.0578 -0.6489
  974MOL0     H34346   8.354   7.623   8.177  0.2720 -1.2853 -0.2215
  974MOL0     H34347   8.075   7.536   8.211  1.2625  0.6151  2.4294
  974MOL0     H34348   8.128   7.703   8.172 -0.5783  0.0688  2.2877
  974MOL0     H34349   8.223   7.606   7.956  0.1761 -2.7328 -1.1862
  974MOL0     H34350   8.196   7.447   8.028  1.1811 -0.0156 -0.0215
  974MOL0     H34351   7.956   7.633   7.980 -1.5042  0.1727 -1.4452
  974MOL0     H34352   8.022   7.565   7.840  0.7057  3.7008  0.4711
  974MOL0     H34353   7.879   7.441   8.082 -0.6156 -1.6947 -0.3055
  974MOL0     H34354   7.981   7.336   7.982 -0.4805 -0.2773  1.5251
  974MOL0     H34355   7.748   7.497   7.873 -0.7819 -0.7703 -0.7016
  974MOL0     H34356   7.839   7.370   7.789 -2.1555 -1.0580 -0.1709
  974MOL0     H34357   7.611   7.339   7.888  1.4025  0.6154 -1.6770
  974MOL0     H34358   7.677   7.321   8.047  1.7351 -0.6814  0.7321
  974MOL0     H34359   7.821   7.136   7.982  0.3056  0.7894 -0.2672
  974MOL0     H34360   7.647   7.094   7.949 -0.0717  1.1833  0.0762
  974MOL0     H34361   7.567   7.075   7.673  0.7935 -3.1703 -0.9731
  974MOL0     H34362   7.775   7.099   7.350  3.0250 -1.9994  0.2043
  974MOL0     H34363   7.612   7.065   7.408  0.8385  0.9923 -1.8719
  974MOL0     H34364   7.781   6.851   7.495 -0.0788  1.0707  0.1880
  974MOL0     H34365   7.656   6.851   7.377  1.0690  1.4741 -1.8323
  974MOL0     H34366   7.857   6.751   7.287 -0.1814 -0.7757  0.4454
  974MOL0     H34367   7.827   6.883   7.197  0.4135 -2.7321 -1.7250
  974MOL0     H34368   8.021   7.005   7.264 -3.0662 -1.1646 -3.4828
  974MOL0     H34369   8.010   6.952   7.432 -0.0678 -0.1064  0.2079
  974MOL0     H34370   8.263   6.706   7.140  0.9101 -0.4707  0.0598
  974MOL0     H34371   8.610   6.788   7.071 -0.1782  1.4579  0.1093
  974MOL0     H34372   8.490   6.818   6.940 -1.7018  2.3643  1.0466
  974MOL0     H34373   8.487   6.664   7.032 -0.9266  0.0575 -1.8040
  974MOL0     H34374   8.859   7.175   7.318 -1.3263 -0.6935 -0.3161
  974MOL0     H34375   9.064   7.309   7.219  0.6883  1.0417 -0.6894
  974MOL0     H34376   9.072   7.395   6.802 -0.1002 -1.0498  1.1036
  974MOL0     H34377   9.037   7.561   6.880  0.6007  0.7242 -3.2333
  974MOL0     H34378   9.264   7.604   6.870 -1.7960 -1.1483  0.9866
  974MOL0     H34379   9.308   7.448   6.937  0.6991 -0.4485  0.6212
  974MOL0     H34380   9.236   7.384   6.679  2.4391 -0.2080 -2.5925
  974MOL0     H34381   9.397   7.427   6.742 -0.4319 -1.8984 -0.4801
  974MOL0     H34382   9.359   7.660   6.682  1.5554 -1.2546 -1.5620
  974MOL0     H34383   9.198   7.621   6.623  0.1024 -0.8329 -1.3518
  974MOL0     H34384   9.339   7.656   6.444 -1.9486  0.8733  0.4009
  974MOL0     H34385   9.445   7.516   6.488 -0.0755  0.1612 -0.9451
  974MOL0     H34386   9.240   7.355   6.463 -0.9536 -1.0019 -2.4073
  974MOL0     H34387   9.285   7.436   6.312  5.1484  2.0179  1.0628
  974MOL0     H34388   9.121   7.599   6.370  1.9251  0.0972 -1.7239
  974MOL0     H34389   9.067   7.503   6.503  1.4641 -1.8464  0.2450
  974MOL0     H34390   9.091   7.340   6.248  2.0599  1.2010  0.1858
  974MOL0     H34391   8.969   7.466   6.236 -0.6035 -3.0779 -1.0507
  974MOL0     H34392   8.843   7.407   6.885  1.4442 -0.8509 -0.4624
  974MOL0     H34393   8.642   7.314   6.988  0.3333 -4.0881 -1.0029
  974MOL0     H34394   8.408   7.141   7.322 -0.8200  0.4149 -0.1069
  974MOL0     H34395   8.223   7.050   7.414  1.3411 -0.1179  0.1086
  974MOL0     H34396   8.537   7.532   8.310  2.3134  1.4005 -0.4631
  974MOL0     H34397   8.702   7.491   8.477 -0.7177 -0.2053 -1.9034
  974MOL0     H34398   8.826   7.621   8.889  2.1578  1.0697 -2.3281
  974MOL0     H34399   9.035   7.628   9.044 -2.7660 -0.5908  2.4634
  974MOL0     H34400   9.308   7.303   9.171  4.4766  1.3103  1.6942
  974MOL0     H34401   9.338   7.340   8.995 -1.3429  0.5509 -0.6745
  974MOL0     H34402   9.431   7.548   9.039 -1.9261 -1.2885 -0.8383
  974MOL0     H34403   9.527   7.422   9.121  0.9862  0.9507 -1.3969
  974MOL0     H34404   9.328   7.601   9.277 -0.0244 -0.6708 -3.1371
  974MOL0     H34405   9.455   7.491   9.333  2.2356  0.1866 -0.8025
  974MOL0     H34406   9.466   7.764   9.197 -0.9267  0.3486  0.2041
  974MOL0     H34407   9.614   7.653   9.191  0.0972  0.5386  0.5853
  974MOL0     H34408   9.639   7.773   9.577  0.4088 -0.2319 -1.3961
  974MOL0     H34409   9.105   7.217   8.973  0.2815  0.1705 -0.6945
  974MOL0     H34410   8.989   7.092   8.817  1.2255 -0.2030 -0.3277
  974MOL0     H34411   8.828   7.118   8.878 -0.3969  0.2146  0.3596
  974MOL0     H34412   8.871   7.164   8.712  2.1642 -2.3726 -0.7878
  975MOL0     O34413   9.178   9.178   8.491 -0.4396 -0.4126  0.2263
  975MOL0     C34414   9.062   9.184   8.504 -0.3426  0.2400  0.2399
  975MOL0     O34415   8.976   9.080   8.500  1.1803  0.6689 -0.4572
  975MOL0     C34416   9.027   8.962   8.457  0.6576  0.1765 -0.1840
  975MOL0     C34417   9.068   8.863   8.549  0.5513 -0.2036  0.6192
  975MOL0     C34418   9.121   8.744   8.500  0.4926 -0.4148  0.3351
  975MOL0     C34419   9.145   8.731   8.363  1.2875  0.5870  0.5617
  975MOL0     O34420   9.202   8.617   8.302 -0.5905 -0.0953 -0.6620
  975MOL0     C34421   9.234   8.503   8.373 -0.2965  0.5888 -1.2528
  975MOL0     C34422   9.252   8.387   8.287 -0.3268  1.0576  0.0598
  975MOL0     C34423   9.292   8.274   8.384 -0.4621  0.5367  0.3453
  975MOL0     C34424   9.442   8.259   8.388 -0.5050 -0.1571 -0.6873
  975MOL0     C34425   9.484   8.141   8.473 -0.2203 -0.1223 -0.7821
  975MOL0     C34426   9.635   8.107   8.471 -0.8541  0.3259  0.0061
  975MOL0     C34427   9.676   7.982   8.538  0.0514  0.3499  0.6796
  975MOL0     C34428   9.827   7.949   8.502  0.0269  1.0254 -0.8005
  975MOL0     N34429   9.871   7.821   8.548  0.0468  0.8471 -0.1890
  975MOL0     C34430   9.918   7.796   8.677  0.6647 -0.0333  0.2724
  975MOL0     C34431   9.946   7.666   8.678 -0.2132  0.6920  0.2270
  975MOL0     C34432   9.991   7.573   8.789  0.0939  0.4266 -0.7274
  975MOL0     C34433   9.909   7.444   8.814  0.2319  0.4884  0.3428
  975MOL0     C34434   9.769   7.464   8.880 -0.2378 -0.2124  0.1747
  975MOL0     C34435   9.667   7.348   8.875  0.5999  0.0901  0.7915
  975MOL0     O34436   9.670   7.256   8.985 -0.4043 -0.2800 -0.3255
  975MOL0     C34437   9.559   7.170   8.997 -0.4499 -0.1597  0.3596
  975MOL0     C34438   9.484   7.142   8.879  0.3085  0.1459  0.2984
  975MOL0     C34439   9.388   7.053   8.896  0.9308  0.0260 -0.7962
  975MOL0     C34440   9.307   7.024   8.771  0.1853 -0.0925 -0.7684
  975MOL0     C34441   9.342   6.995   9.019 -0.2284 -0.7231 -0.0230
  975MOL0     C34442   9.228   6.908   9.047  0.7083  0.4127  0.4802
  975MOL0     O34443   9.254   6.794   9.119  0.3164  0.2688 -0.2271
  975MOL0     C34444   9.153   6.715   9.140  0.1831 -0.0256  0.6587
  975MOL0     C34445   9.112   6.605   9.050 -0.0537  0.0313 -0.2569
  975MOL0     C34446   9.000   6.532   9.078  0.6917  0.0590  0.4316
  975MOL0     C34447   8.928   6.556   9.198  0.8741 -0.1058  0.0246
  975MOL0     O34448   8.822   6.472   9.225 -0.1816 -0.3129 -0.4221
  975MOL0     C34449   8.703   6.503   9.300 -0.4448 -0.3316 -0.3704
  975MOL0     C34450   8.610   6.601   9.227 -0.1384  0.5870 -0.9529
  975MOL0     C34451   8.513   6.682   9.324 -0.9400 -1.9326  0.0721
  975MOL0     C34452   8.394   6.598   9.364  0.2807 -0.0938 -0.1097
  975MOL0     C34453   8.281   6.683   9.426 -0.5092  0.0787 -0.7929
  975MOL0     C34454   8.190   6.600   9.529 -0.5785  0.1492  0.2529
  975MOL0     C34455   8.098   6.501   9.446  0.0095 -0.3783 -0.6087
  975MOL0     C34456   8.008   6.399   9.532 -0.4593 -0.3174 -0.1590
  975MOL0    Cl34457   7.889   6.493   9.615  0.0005 -0.0685 -0.1239
  975MOL0     C34458   8.969   6.656   9.284  0.7963 -0.1492  0.5224
  975MOL0     C34459   9.079   6.734   9.255 -0.3564  0.2522 -0.1190
  975MOL0     O34460   9.114   6.953   9.023 -0.0117 -0.6661 -0.9442
  975MOL0     C34461   9.427   7.023   9.129  0.0782  0.3733  0.6988
  975MOL0     C34462   9.536   7.112   9.122 -0.8469 -0.7030 -0.1646
  975MOL0     N34463   9.922   7.609   8.559 -0.8440  0.2876 -0.0038
  975MOL0     N34464   9.868   7.704   8.481  0.6098 -0.2254  0.5708
  975MOL0     C34465   9.099   8.828   8.276 -1.2019 -0.1434  0.2036
  975MOL0     C34466   9.031   8.942   8.322  0.1736  0.2646  0.4615
  975MOL0     C34467   8.996   9.318   8.512 -0.3715 -0.1235  0.5665
  975MOL0     C34468   8.861   9.322   8.468 -0.3540 -0.7997  0.0223
  975MOL0     C34469   8.796   9.444   8.487 -0.4504  0.2199 -0.3092
  975MOL0     C34470   8.863   9.556   8.527 -0.1566 -0.3205  0.0513
  975MOL0     O34471   8.799   9.674   8.541 -0.1446  0.3188  0.3376
  975MOL0     C34472   8.747   9.733   8.421 -0.1596 -0.5187 -0.1169
  975MOL0     C34473   8.864   9.767   8.324  0.6528  0.3309 -1.1539
  975MOL0     C34474   8.806   9.847   8.203  0.3319  0.1321  0.5860
  975MOL0     C34475   8.790   9.743   8.085  0.0977 -0.4100  0.7633
  975MOL0     C34476   8.922   9.732   8.014 -0.5171 -0.9233 -0.0642
  975MOL0     C34477   9.033   9.703   7.962  0.8439 -1.1275  0.5041
  975MOL0     C34478   8.996   9.555   8.548 -0.7203  0.7246  0.6192
  975MOL0     C34479   9.067   9.434   8.552 -0.3179  0.0047  0.4240
  975MOL0     C34480   9.203   9.428   8.626  0.5746 -0.1953 -0.5341
  975MOL0     H34481   9.065   8.873   8.657 -0.9476 -0.1173  0.6011
  975MOL0     H34482   9.144   8.673   8.578 -0.3569  2.0086  2.9516
  975MOL0     H34483   9.160   8.479   8.450  1.3579 -0.7889 -0.0038
  975MOL0     H34484   9.324   8.510   8.434 -1.8579 -2.2293  1.7154
  975MOL0     H34485   9.150   8.372   8.250 -1.2695  2.6272  1.8575
  975MOL0     H34486   9.322   8.402   8.205 -1.8196  1.0397 -1.2667
  975MOL0     H34487   9.268   8.285   8.490  1.4047  1.3223  0.7266
  975MOL0     H34488   9.253   8.179   8.346 -1.9767  1.5231 -0.7178
  975MOL0     H34489   9.482   8.231   8.290  0.6898  0.0112 -0.2550
  975MOL0     H34490   9.492   8.350   8.422  0.1414 -1.1933  1.2767
  975MOL0     H34491   9.430   8.053   8.436 -2.2464  0.5998  0.2785
  975MOL0     H34492   9.453   8.165   8.575  1.2292 -0.0668 -0.3311
  975MOL0     H34493   9.677   8.111   8.370  1.2135  1.2205  0.8456
  975MOL0     H34494   9.693   8.187   8.517  0.9693 -1.1569  0.4346
  975MOL0     H34495   9.602   7.903   8.520 -0.5962  1.4715 -2.0939
  975MOL0     H34496   9.678   8.007   8.644 -0.7563 -0.6025  0.9311
  975MOL0     H34497   9.835   7.956   8.393 -0.7495 -1.0741 -1.0256
  975MOL0     H34498   9.893   8.026   8.544  1.2762  0.7492 -2.2016
  975MOL0     H34499   9.913   7.861   8.764  0.7873 -0.7058  0.7861
  975MOL0     H34500  10.000   7.630   8.882 -0.7549  0.9781 -0.9739
  975MOL0     H34501  10.095   7.543   8.772 -0.5773 -3.9421  1.5792
  975MOL0     H34502   9.903   7.391   8.719 -0.9282 -0.1715  0.7638
  975MOL0     H34503   9.968   7.376   8.876  2.4588  1.5606 -0.4788
  975MOL0     H34504   9.774   7.505   8.981 -1.1529  0.9434 -0.2200
  975MOL0     H34505   9.728   7.541   8.812  1.3162  2.5013  2.1125
  975MOL0     H34506   9.568   7.394   8.867  0.5065 -0.2122  0.1543
  975MOL0     H34507   9.680   7.295   8.780 -3.3111  1.5268 -0.7669
  975MOL0     H34508   9.488   7.193   8.783 -3.4085  2.9182  1.3899
  975MOL0     H34509   9.228   6.948   8.782 -0.7129  1.1737  2.2174
  975MOL0     H34510   9.379   6.998   8.692  1.6107 -1.4726  0.9196
  975MOL0     H34511   9.260   7.120   8.749  4.2302  1.9150 -1.4223
  975MOL0     H34512   9.176   6.585   8.965 -0.5728  1.6669 -1.0731
  975MOL0     H34513   8.975   6.439   9.027 -0.5024  0.8394 -0.4614
  975MOL0     H34514   8.653   6.412   9.335  0.4642 -0.2216  1.3166
  975MOL0     H34515   8.734   6.534   9.400  0.5175 -0.4876 -0.6085
  975MOL0     H34516   8.665   6.675   9.168 -0.7074  2.8297  1.1145
  975MOL0     H34517   8.548   6.545   9.157 -1.2750 -1.2054  1.3789
  975MOL0     H34518   8.496   6.770   9.262 -0.0045 -0.5993  1.6329
  975MOL0     H34519   8.567   6.728   9.408 -1.2087  0.4228 -0.9576
  975MOL0     H34520   8.431   6.526   9.437 -0.4395 -0.8483 -0.4681
  975MOL0     H34521   8.363   6.548   9.271  0.8549  1.9110 -1.4604
  975MOL0     H34522   8.329   6.766   9.479 -0.1378 -0.3907 -0.3803
  975MOL0     H34523   8.219   6.733   9.352 -1.3366  0.7481  0.3135
  975MOL0     H34524   8.121   6.661   9.588  0.1862 -1.8219  3.4634
  975MOL0     H34525   8.251   6.542   9.599 -0.0377  0.7624  0.3094
  975MOL0     H34526   8.162   6.448   9.375 -0.0247 -1.1805 -0.0615
  975MOL0     H34527   8.032   6.549   9.374  0.6807 -2.5950 -2.8376
  975MOL0     H34528   8.084   6.357   9.599  1.4734  0.0157 -2.0192
  975MOL0     H34529   7.959   6.323   9.471 -1.3098 -0.2686  0.4469
  975MOL0     H34530   8.922   6.663   9.382 -0.9118  0.6517 -0.3085
  975MOL0     H34531   9.100   6.807   9.332 -1.4147 -3.1356  3.7209
  975MOL0     H34532   9.404   6.984   9.227 -2.1011 -1.3385 -0.4147
  975MOL0     H34533   9.612   7.124   9.199 -1.1692  1.2290 -0.1134
  975MOL0     H34534   9.108   8.812   8.169 -1.1279  1.9251 -0.1367
  975MOL0     H34535   8.989   9.016   8.255  2.2745  0.1486 -1.0953
  975MOL0     H34536   8.805   9.238   8.427  1.1405 -0.9563 -1.8324
  975MOL0     H34537   8.688   9.435   8.480 -0.3826  0.4093 -2.0557
  975MOL0     H34538   8.677   9.672   8.362 -0.4097  1.6252 -2.1942
  975MOL0     H34539   8.694   9.826   8.446  0.3977 -0.3388  0.4217
  975MOL0     H34540   8.922   9.678   8.299  2.0958  0.5906  1.0575
  975MOL0     H34541   8.929   9.832   8.383  3.6056 -2.3229 -1.1999
  975MOL0     H34542   8.702   9.874   8.224 -0.7160 -2.6668 -0.5146
  975MOL0     H34543   8.877   9.922   8.168  0.8266 -1.2080 -1.4984
  975MOL0     H34544   8.713   9.765   8.011  0.7010  0.1749  0.2937
  975MOL0     H34545   8.769   9.646   8.132 -1.4892 -1.0605 -1.1366
  975MOL0     H34546   9.125   9.679   7.913  0.6405  3.2281 -2.5769
  975MOL0     H34547   9.036   9.651   8.580  2.6422 -0.5958  0.7876
  975MOL0     H34548   9.278   9.451   8.550  1.0736  1.1940  0.3534
  975MOL0     H34549   9.204   9.506   8.702 -0.2802 -0.4490 -0.2522
  975MOL0     H34550   9.226   9.330   8.669 -1.4221  0.4000  2.1761
  976MOL0     O34551   1.481   6.225  11.481  0.0844  0.4024  0.2044
  976MOL0     C34552   1.465   6.132  11.395  0.6753  0.0317  0.3852
  976MOL0     O34553   1.551   6.034  11.379 -0.4031  0.5670 -0.2824
  976MOL0     C34554   1.643   5.998  11.480 -1.2495  0.3406  0.2840
  976MOL0     C34555   1.623   5.994  11.618 -0.6757 -0.1153 -0.5161
  976MOL0     C34556   1.726   5.942  11.704 -0.1396  0.5804 -0.2828
  976MOL0     C34557   1.851   5.912  11.654 -0.2105  0.7431  0.2675
  976MOL0     O34558   1.956   5.872  11.734 -0.1006  0.3838  0.4841
  976MOL0     C34559   1.994   5.957  11.847  0.1673 -0.7341 -0.1889
  976MOL0     C34560   1.984   5.891  11.978 -0.4520  0.0414 -0.3433
  976MOL0     C34561   2.082   5.773  12.011  0.2544  0.1962 -0.2011
  976MOL0     C34562   2.056   5.651  11.922 -0.1716  0.2006 -0.5343
  976MOL0     C34563   2.130   5.537  11.997 -0.0116  0.3080 -0.5150
  976MOL0     C34564   2.282   5.560  12.023 -0.2160 -0.8215 -0.4730
  976MOL0     C34565   2.356   5.431  12.068 -0.2350  0.2741 -0.0582
  976MOL0     C34566   2.498   5.456  12.128  0.2195 -0.7350  0.2705
  976MOL0     N34567   2.564   5.327  12.165 -0.0522 -0.7768 -0.9677
  976MOL0     C34568   2.631   5.247  12.080  0.3626  0.8344 -0.1143
  976MOL0     C34569   2.691   5.154  12.167  0.4867  0.5045  0.3978
  976MOL0     C34570   2.768   5.035  12.118  0.3802  0.2737  0.1763
  976MOL0     C34571   2.766   4.923  12.222 -0.6464 -0.6740 -0.2048
  976MOL0     C34572   2.841   4.807  12.160  0.2153 -0.7129 -0.9971
  976MOL0     C34573   2.887   4.704  12.264  0.3885  0.6515  0.0930
  976MOL0     O34574   3.027   4.711  12.296  0.0327 -0.9435 -1.0665
  976MOL0     C34575   3.111   4.644  12.210 -0.3793  0.1832 -0.1082
  976MOL0     C34576   3.192   4.718  12.136 -0.1553 -0.1714  0.5415
  976MOL0     C34577   3.284   4.671  12.036 -1.3558  0.4740  0.1703
  976MOL0     C34578   3.357   4.774  11.953 -0.6564 -0.3645  0.2403
  976MOL0     C34579   3.293   4.529  12.027  0.1748 -0.2109 -0.2443
  976MOL0     C34580   3.372   4.450  11.926  0.0111  0.9860 -0.2080
  976MOL0     O34581   3.363   4.307  11.932  0.7787 -0.6908  0.9140
  976MOL0     C34582   3.412   4.228  11.828 -0.3690 -0.5930  0.2823
  976MOL0     C34583   3.346   4.225  11.706 -0.1099  0.6515 -1.1690
  976MOL0     C34584   3.388   4.144  11.600 -1.1252 -0.1301 -0.2646
  976MOL0     C34585   3.505   4.071  11.611  0.0230 -0.1001  0.2026
  976MOL0     O34586   3.563   3.986  11.521 -0.2107 -0.1415 -0.0055
  976MOL0     C34587   3.554   4.032  11.382 -0.6013 -0.1319 -0.6375
  976MOL0     C34588   3.448   3.953  11.307 -0.2810  0.2697 -0.8972
  976MOL0     C34589   3.458   4.012  11.171 -0.5197  0.4912 -0.2669
  976MOL0     C34590   3.379   3.920  11.081  0.3948  0.0268  0.1656
  976MOL0     C34591   3.372   3.982  10.940 -1.3968  0.0366  0.3513
  976MOL0     C34592   3.282   3.896  10.859 -0.0026 -0.8185  0.2617
  976MOL0     C34593   3.144   3.944  10.865 -0.3567 -0.9515  0.0925
  976MOL0     C34594   3.045   3.860  10.791  0.3030  0.6575  0.4413
  976MOL0    Cl34595   3.107   3.832  10.619 -0.1106 -0.0958 -0.4348
  976MOL0     C34596   3.561   4.067  11.737  0.3858 -0.7042  0.1089
  976MOL0     C34597   3.526   4.146  11.850  0.0707 -0.0028  0.5682
  976MOL0     O34598   3.426   4.516  11.834 -0.3381  1.2150 -0.3626
  976MOL0     C34599   3.221   4.452  12.118 -0.4525  0.1846  0.0276
  976MOL0     C34600   3.130   4.508  12.206 -0.5566  0.3298 -0.4128
  976MOL0     N34601   2.666   5.184  12.294  0.0263  0.2140  0.1883
  976MOL0     N34602   2.587   5.285  12.290 -0.3499 -0.3781 -0.1324
  976MOL0     C34603   1.882   5.922  11.513 -0.2605 -0.3265 -1.2149
  976MOL0     C34604   1.777   5.962  11.427  0.4627  0.3540 -0.4361
  976MOL0     C34605   1.366   6.150  11.294  1.1916  0.1467 -0.0992
  976MOL0     C34606   1.406   6.138  11.163  0.1894  0.0265  0.3919
  976MOL0     C34607   1.317   6.163  11.059  0.0566  0.7727 -0.2393
  976MOL0     C34608   1.179   6.168  11.091 -0.5867  0.1406  0.4028
  976MOL0     O34609   1.090   6.184  10.990 -0.5442  0.0078 -0.2303
  976MOL0     C34610   1.064   6.069  10.902 -0.5586  0.0271 -0.0154
  976MOL0     C34611   1.049   6.128  10.764 -0.1148  0.3262  0.0907
  976MOL0     C34612   1.051   6.024  10.658 -0.0953  0.0224 -0.0796
  976MOL0     C34613   0.912   5.966  10.652  0.9417  0.5867 -0.0473
  976MOL0     C34614   0.912   5.858  10.547 -0.1264  0.0261  0.4612
  976MOL0     C34615   0.927   5.760  10.468  0.7835  0.7140 -0.6180
  976MOL0     C34616   1.143   6.161  11.223  0.5663  0.8191  0.4141
  976MOL0     C34617   1.233   6.169  11.330  0.4310 -0.3768 -0.0070
  976MOL0     C34618   1.180   6.178  11.468 -0.0867  0.4188 -0.2093
  976MOL0     H34619   1.522   6.021  11.645 -2.0655 -2.0244 -3.3447
  976MOL0     H34620   1.696   5.934  11.808  2.1230 -0.0916  0.3680
  976MOL0     H34621   1.934   6.048  11.840  0.0552 -0.8477 -0.8312
  976MOL0     H34622   2.101   5.976  11.843  0.4307 -1.9333  0.4890
  976MOL0     H34623   2.013   5.972  12.046  1.1266  1.0816 -2.1690
  976MOL0     H34624   1.880   5.860  11.986 -1.6429  3.6096 -0.4755
  976MOL0     H34625   2.185   5.809  11.996 -0.3724  1.8436 -0.7198
  976MOL0     H34626   2.079   5.751  12.118  1.3734 -1.0214 -0.3886
  976MOL0     H34627   1.952   5.634  11.893 -0.9468  2.8281  0.3850
  976MOL0     H34628   2.102   5.659  11.823 -1.8867  0.5314 -1.3405
  976MOL0     H34629   2.126   5.446  11.936 -1.1844 -0.6207  0.8621
  976MOL0     H34630   2.076   5.515  12.090  0.8476 -0.6915 -0.2324
  976MOL0     H34631   2.336   5.584  11.931  3.6089 -2.0592  1.2202
  976MOL0     H34632   2.299   5.640  12.095  0.8357 -0.0214 -1.5695
  976MOL0     H34633   2.346   5.355  11.990 -0.1509  2.5975 -2.4356
  976MOL0     H34634   2.306   5.403  12.161  1.7600  1.3806  1.4254
  976MOL0     H34635   2.555   5.518  12.059 -2.6633  3.6910  1.4786
  976MOL0     H34636   2.492   5.519  12.218  0.0241  3.1840 -2.2612
  976MOL0     H34637   2.647   5.238  11.973 -1.4580  2.0541 -0.5407
  976MOL0     H34638   2.868   5.072  12.091 -1.1997  2.1176 -3.9255
  976MOL0     H34639   2.719   5.001  12.027  1.1274  0.1661 -0.1947
  976MOL0     H34640   2.820   4.956  12.312 -5.5264  0.8853  2.5726
  976MOL0     H34641   2.666   4.902  12.263  0.3907 -0.5020  2.6300
  976MOL0     H34642   2.772   4.762  12.088 -0.0148 -1.9800 -0.0169
  976MOL0     H34643   2.929   4.840  12.105  1.4928 -3.8864 -1.0767
  976MOL0     H34644   2.822   4.696  12.351 -1.0638 -3.5480 -1.1249
  976MOL0     H34645   2.875   4.603  12.223  5.3932  0.7284 -2.3206
  976MOL0     H34646   3.180   4.826  12.135  0.4833 -0.0920  0.2018
  976MOL0     H34647   3.302   4.808  11.864  1.3372  3.1781  0.1878
  976MOL0     H34648   3.449   4.729  11.915 -2.4677 -2.6374 -1.8744
  976MOL0     H34649   3.370   4.855  12.025 -0.5900  0.2668 -0.4718
  976MOL0     H34650   3.251   4.275  11.691  0.0233  0.6526 -2.0913
  976MOL0     H34651   3.327   4.129  11.512  0.2377 -0.1702 -1.2364
  976MOL0     H34652   3.548   4.141  11.377  0.9594  0.0403  0.4960
  976MOL0     H34653   3.651   4.018  11.334 -0.1368  2.1657 -0.5047
  976MOL0     H34654   3.476   3.847  11.312  1.5112  0.6819 -1.4775
  976MOL0     H34655   3.346   3.967  11.345  0.3730  0.1760  0.9733
  976MOL0     H34656   3.559   4.018  11.131 -0.0837 -2.1361  0.2477
  976MOL0     H34657   3.409   4.109  11.162  0.6702  1.2039  0.6497
  976MOL0     H34658   3.281   3.892  11.121  0.4744 -1.4617 -0.6395
  976MOL0     H34659   3.424   3.822  11.067  2.8356  0.7978  1.8220
  976MOL0     H34660   3.331   4.083  10.950  1.0423  1.1753 -0.2116
  976MOL0     H34661   3.471   3.996  10.896 -0.1182 -2.4274  2.1660
  976MOL0     H34662   3.286   3.790  10.887 -1.3033 -0.3678  2.4039
  976MOL0     H34663   3.325   3.901  10.759  2.8916 -3.7024  1.1873
  976MOL0     H34664   3.138   4.045  10.824 -1.3619 -0.9314  0.2485
  976MOL0     H34665   3.113   3.945  10.970  0.3692  0.8041  0.3166
  976MOL0     H34666   2.945   3.902  10.803  0.2434  0.7209 -0.2213
  976MOL0     H34667   3.044   3.764  10.845 -0.5428  1.2256  1.4549
  976MOL0     H34668   3.648   4.011  11.771 -1.6608 -2.9775  1.9937
  976MOL0     H34669   3.570   4.138  11.949  1.2963 -1.8186 -0.0686
  976MOL0     H34670   3.241   4.345  12.123  0.6573  0.3686 -0.2448
  976MOL0     H34671   3.079   4.436  12.270  1.0325  0.2420  0.8061
  976MOL0     H34672   1.982   5.898  11.478  0.4039  2.1115 -1.1357
  976MOL0     H34673   1.791   5.956  11.320 -0.0169 -0.7394 -0.4483
  976MOL0     H34674   1.504   6.110  11.128 -0.7772 -2.1123 -0.8246
  976MOL0     H34675   1.360   6.154  10.960  1.0234  1.5222  0.0914
  976MOL0     H34676   1.153   6.006  10.900 -1.5420 -1.3963 -1.8585
  976MOL0     H34677   0.985   5.998  10.925 -1.8550  0.6635 -2.1840
  976MOL0     H34678   1.125   6.206  10.757 -0.9620  1.1540 -0.0212
  976MOL0     H34679   0.952   6.178  10.766 -0.2330  0.0909  0.8428
  976MOL0     H34680   1.079   6.062  10.559 -0.0400  0.9131  0.2740
  976MOL0     H34681   1.125   5.945  10.679 -0.8684 -0.8611 -0.6038
  976MOL0     H34682   0.832   6.041  10.641  0.8386  0.4519 -0.2264
  976MOL0     H34683   0.891   5.918  10.748 -0.2217  3.0237  1.0140
  976MOL0     H34684   0.935   5.682  10.395 -0.1742  0.2674 -0.2576
  976MOL0     H34685   1.036   6.152  11.240 -0.1304 -0.6780 -3.5360
  976MOL0     H34686   1.099   6.106  11.487  0.6979  0.3733  3.6500
  976MOL0     H34687   1.254   6.133  11.534 -0.5097 -2.5432 -1.5905
  976MOL0     H34688   1.156   6.282  11.491  1.9698  1.4288 -2.1847
  977MOL0     O34689  11.195   5.605   4.554  0.4434 -0.0953  0.4327
  977MOL0     C34690  11.243   5.514   4.628  0.7339  0.2302 -0.4744
  977MOL0     O34691  11.251   5.524   4.766 -0.0984 -0.0766 -0.7248
  977MOL0     C34692  11.213   5.633   4.837  0.0154 -1.1197 -0.2615
  977MOL0     C34693  11.083   5.641   4.901  0.1196  0.4036 -0.4392
  977MOL0     C34694  11.054   5.748   4.968 -1.4167 -0.4352  0.0054
  977MOL0     C34695  11.140   5.858   4.970 -0.4405 -0.8735 -0.0844
  977MOL0     O34696  11.094   5.960   5.059 -0.0146 -0.0253  0.6721
  977MOL0     C34697  11.168   6.089   5.057  0.7057 -0.3630 -0.0747
  977MOL0     C34698  11.128   6.179   4.942 -0.5807  0.3173 -0.3136
  977MOL0     C34699  11.202   6.308   4.921  0.1758  0.8615 -0.2367
  977MOL0     C34700  11.354   6.272   4.894  0.5629  0.3273 -1.1271
  977MOL0     C34701  11.435   6.398   4.869  0.5929 -0.6716  0.8799
  977MOL0     C34702  11.427   6.437   4.725  0.9745 -0.4295 -0.7947
  977MOL0     C34703  11.511   6.568   4.696 -0.1945 -0.3854  0.3482
  977MOL0     C34704  11.429   6.693   4.733  0.8528 -0.2339 -0.7418
  977MOL0     N34705  11.441   6.738   4.868  0.3007  0.3168 -0.7843
  977MOL0     C34706  11.340   6.736   4.961 -0.3771 -0.0709  0.0180
  977MOL0     C34707  11.398   6.783   5.070  0.0967  0.1979 -0.0408
  977MOL0     C34708  11.352   6.782   5.210 -0.1852  0.0865  0.0742
  977MOL0     C34709  11.260   6.912   5.255  0.6844  0.8063  0.1190
  977MOL0     C34710  11.273   6.971   5.393  0.2492  0.5463  0.7136
  977MOL0     C34711  11.183   6.918   5.498  0.2093  0.2544 -0.8649
  977MOL0     O34712  11.046   6.917   5.447  0.0760 -0.4799  0.0576
  977MOL0     C34713  10.951   6.867   5.536  0.8422  0.8828  0.2324
  977MOL0     C34714  10.835   6.825   5.466  0.4367 -0.9685 -0.5472
  977MOL0     C34715  10.745   6.758   5.543  1.2413  0.4683  0.4867
  977MOL0     C34716  10.631   6.691   5.475  0.4952 -0.0065  0.3907
  977MOL0     C34717  10.757   6.732   5.684  0.0605 -0.1595 -0.6820
  977MOL0     C34718  10.664   6.653   5.775 -0.4451 -0.3457  0.6807
  977MOL0     O34719  10.726   6.548   5.840 -0.1465 -0.3606 -0.4355
  977MOL0     C34720  10.652   6.474   5.915  0.3542 -0.1958 -0.1500
  977MOL0     C34721  10.542   6.406   5.856 -0.0500  0.0736 -0.2896
  977MOL0     C34722  10.464   6.324   5.948 -0.5253  0.9023  0.2665
  977MOL0     C34723  10.498   6.319   6.086 -0.3540  0.4303 -0.1493
  977MOL0     O34724  10.419   6.248   6.167  0.0820  0.0560 -0.4448
  977MOL0     C34725  10.290   6.296   6.201 -0.1324  0.3659 -0.0683
  977MOL0     C34726  10.199   6.187   6.284 -0.5019 -0.8585 -0.6158
  977MOL0     C34727  10.151   6.070   6.205 -0.7520  0.1514  0.3403
  977MOL0     C34728  10.059   6.114   6.083  0.3377 -0.2024  0.9270
  977MOL0     C34729   9.997   6.010   6.000  0.4419  0.3571  0.9215
  977MOL0     C34730  10.041   5.992   5.856  0.2006 -0.1646  0.3670
  977MOL0     C34731   9.986   5.860   5.795 -0.2804  0.3598  0.1950
  977MOL0     C34732  10.088   5.760   5.747 -0.7197 -0.0522  0.5152
  977MOL0    Cl34733  10.173   5.703   5.894 -0.0146 -0.1686  0.4133
  977MOL0     C34734  10.613   6.383   6.138 -0.6201 -0.0875 -0.0894
  977MOL0     C34735  10.691   6.457   6.047  0.1782  0.2806 -0.3327
  977MOL0     O34736  10.549   6.682   5.785  0.4819 -0.5356 -0.5715
  977MOL0     C34737  10.873   6.789   5.742 -0.6849  0.5406 -0.1801
  977MOL0     C34738  10.957   6.867   5.676 -0.4216 -1.3262  1.1375
  977MOL0     N34739  11.531   6.811   5.051  0.0425 -0.5454  0.6308
  977MOL0     N34740  11.556   6.787   4.927  0.5465  1.3206 -0.4063
  977MOL0     C34741  11.270   5.852   4.906  0.8186  0.4905 -0.1557
  977MOL0     C34742  11.307   5.741   4.831  0.8317  0.9062  0.3433
  977MOL0     C34743  11.290   5.392   4.553 -0.3482  0.3297  0.3447
  977MOL0     C34744  11.263   5.271   4.614 -0.3927 -0.7256 -1.4743
  977MOL0     C34745  11.277   5.153   4.546  0.3203 -0.4347 -0.0673
  977MOL0     C34746  11.322   5.149   4.406 -1.1912 -0.1391 -0.2292
  977MOL0     O34747  11.355   5.038   4.339  0.4325  0.8778  0.5104
  977MOL0     C34748  11.366   4.914   4.404  1.2976  0.5226 -0.2854
  977MOL0     C34749  11.434   4.806   4.321 -0.2037 -0.2783 -0.5257
  977MOL0     C34750  11.355   4.743   4.196 -0.8275 -0.5183 -0.1623
  977MOL0     C34751  11.446   4.628   4.140  0.1974 -0.1379  0.0508
  977MOL0     C34752  11.453   4.513   4.227  0.2084  0.2814  0.3657
  977MOL0     C34753  11.443   4.419   4.304  0.3804  0.5773  0.5147
  977MOL0     C34754  11.350   5.276   4.354 -0.0049 -0.0708  0.2816
  977MOL0     C34755  11.338   5.395   4.419  0.3779 -0.4067  0.2939
  977MOL0     C34756  11.353   5.518   4.332  0.1782  0.3964 -1.5343
  977MOL0     H34757  11.013   5.558   4.894 -1.1304  1.3262  0.8127
  977MOL0     H34758  10.964   5.738   5.027 -0.8092 -1.7222  0.7465
  977MOL0     H34759  11.277   6.080   5.070  1.1677 -3.5501 -4.0902
  977MOL0     H34760  11.143   6.143   5.149  0.5749 -1.4976  0.5699
  977MOL0     H34761  11.135   6.115   4.854 -0.3060  2.1979 -1.7231
  977MOL0     H34762  11.024   6.211   4.956 -1.4953 -0.8589 -3.4964
  977MOL0     H34763  11.157   6.371   4.844 -2.8615  0.8968  1.4267
  977MOL0     H34764  11.196   6.371   5.010 -2.0441  0.7461 -0.2511
  977MOL0     H34765  11.392   6.222   4.983  0.1499  0.4881 -0.8585
  977MOL0     H34766  11.355   6.199   4.812 -2.0732 -1.1418  0.0186
  977MOL0     H34767  11.539   6.371   4.890  0.0291 -1.8031  2.4346
  977MOL0     H34768  11.404   6.486   4.927  0.8657  0.4219 -0.5896
  977MOL0     H34769  11.468   6.356   4.664  0.8180  0.6659 -2.4158
  977MOL0     H34770  11.322   6.448   4.696  0.6987 -1.6725 -0.3464
  977MOL0     H34771  11.541   6.570   4.592 -0.5745 -1.0819  0.2190
  977MOL0     H34772  11.604   6.577   4.752  0.5471  0.1689 -0.9425
  977MOL0     H34773  11.461   6.773   4.667 -2.0695  1.5340 -0.1960
  977MOL0     H34774  11.325   6.671   4.707 -0.2664 -1.0171  3.5529
  977MOL0     H34775  11.239   6.697   4.951 -1.0683  2.0346 -1.9883
  977MOL0     H34776  11.434   6.772   5.281  1.4526  2.7517 -1.2915
  977MOL0     H34777  11.286   6.696   5.225 -1.7083  1.6179  2.7817
  977MOL0     H34778  11.282   6.974   5.168  0.5546 -3.2813 -3.1544
  977MOL0     H34779  11.158   6.881   5.232  2.0045 -2.5194 -2.1241
  977MOL0     H34780  11.376   6.971   5.431  0.4905 -0.8679  0.0928
  977MOL0     H34781  11.254   7.077   5.373 -0.2184  0.3496  0.0813
  977MOL0     H34782  11.215   6.821   5.537 -3.3914 -0.1566  1.5827
  977MOL0     H34783  11.199   6.983   5.585 -0.9589 -1.3596  0.6299
  977MOL0     H34784  10.828   6.834   5.358  0.5103 -0.9244 -0.5479
  977MOL0     H34785  10.631   6.582   5.475  0.8890 -0.1021 -2.8851
  977MOL0     H34786  10.637   6.729   5.372  0.4136  1.3819  0.8768
  977MOL0     H34787  10.532   6.720   5.512  0.2511  0.2653 -0.4363
  977MOL0     H34788  10.505   6.416   5.755 -0.3538 -0.7422 -0.2695
  977MOL0     H34789  10.369   6.282   5.918  0.2256  0.5002 -1.6951
  977MOL0     H34790  10.311   6.385   6.262  2.6877 -0.6406  0.5731
  977MOL0     H34791  10.242   6.326   6.107 -1.2769 -0.3367  0.2736
  977MOL0     H34792  10.258   6.147   6.367 -1.9424 -1.1731  0.2765
  977MOL0     H34793  10.117   6.242   6.331  0.8525 -1.0162  2.0881
  977MOL0     H34794  10.091   6.011   6.275 -1.1978  1.1967  0.8666
  977MOL0     H34795  10.236   6.010   6.171  0.5201  1.4477  1.0955
  977MOL0     H34796  10.096   6.187   6.010 -1.8048  0.6970  0.6477
  977MOL0     H34797   9.978   6.162   6.138  1.2209  0.1333  1.9681
  977MOL0     H34798  10.018   5.919   6.057 -1.9979  0.2679  1.7740
  977MOL0     H34799   9.889   6.015   6.014  0.1297 -2.6159  0.3440
  977MOL0     H34800  10.150   5.990   5.853  0.2271 -0.2026 -3.3395
  977MOL0     H34801  10.011   6.076   5.794  0.7519 -0.1396  0.1331
  977MOL0     H34802   9.927   5.876   5.704  1.5461  1.0840 -0.9109
  977MOL0     H34803   9.934   5.808   5.875  0.3699 -2.7860 -1.2444
  977MOL0     H34804  10.160   5.808   5.680 -0.3771  1.2405  1.7714
  977MOL0     H34805  10.044   5.676   5.691 -4.0378  2.0606 -0.3193
  977MOL0     H34806  10.650   6.371   6.240  0.8869 -0.2632 -0.6237
  977MOL0     H34807  10.779   6.515   6.075 -0.0156  1.0131 -1.2029
  977MOL0     H34808  10.892   6.781   5.848 -0.4812  3.3923  0.0697
  977MOL0     H34809  11.051   6.912   5.708  0.3379  0.0876 -2.5675
  977MOL0     H34810  11.334   5.940   4.904  1.6562 -0.0859 -2.4550
  977MOL0     H34811  11.401   5.734   4.778  0.3491  3.6462 -1.0569
  977MOL0     H34812  11.240   5.260   4.720 -2.4374 -2.3730 -2.0060
  977MOL0     H34813  11.260   5.060   4.599 -2.0625 -0.6816 -1.1585
  977MOL0     H34814  11.415   4.920   4.502 -0.9995  1.2954  0.8800
  977MOL0     H34815  11.259   4.893   4.404  1.4351 -0.2286  0.0803
  977MOL0     H34816  11.453   4.731   4.399 -1.4995  0.8913  1.0074
  977MOL0     H34817  11.526   4.843   4.275  0.6621 -3.0144 -1.2040
  977MOL0     H34818  11.257   4.708   4.231  0.0927  1.6360  5.6492
  977MOL0     H34819  11.352   4.814   4.114 -0.1901 -2.0038 -1.5193
  977MOL0     H34820  11.540   4.680   4.118 -1.2143  2.8879  0.6668
  977MOL0     H34821  11.408   4.586   4.046  3.9990 -1.6290 -1.0289
  977MOL0     H34822  11.432   4.323   4.351 -0.3136  0.9055  1.0484
  977MOL0     H34823  11.379   5.267   4.250  0.9061 -2.4307  0.6907
  977MOL0     H34824  11.414   5.586   4.391  1.2153 -1.4034 -0.4399
  977MOL0     H34825  11.399   5.499   4.234 -1.4027  1.3073 -2.4859
  977MOL0     H34826  11.262   5.568   4.297 -0.7633 -0.8271 -0.9131
  978MOL0     O34827   5.474   2.597   7.143 -0.8707  0.2192 -1.5652
  978MOL0     C34828   5.508   2.710   7.129 -0.5570 -0.3737 -0.1190
  978MOL0     O34829   5.449   2.809   7.047  0.2635  0.2771 -0.2621
  978MOL0     C34830   5.361   2.759   6.958 -0.1321  0.1649 -0.2028
  978MOL0     C34831   5.413   2.702   6.841 -0.7404 -0.4061 -0.1115
  978MOL0     C34832   5.327   2.646   6.745 -0.0715 -0.9157 -0.2484
  978MOL0     C34833   5.190   2.657   6.770  0.3983 -0.4196  0.5044
  978MOL0     O34834   5.103   2.612   6.679  0.1616  0.3331  0.4321
  978MOL0     C34835   5.130   2.478   6.639  0.2728 -0.0670  0.6579
  978MOL0     C34836   4.995   2.397   6.621 -1.2895 -0.5610  0.8235
  978MOL0     C34837   4.921   2.404   6.750 -0.2312 -0.6607 -0.6733
  978MOL0     C34838   4.806   2.299   6.769 -0.7241 -0.3494  0.5826
  978MOL0     C34839   4.742   2.314   6.904  0.1137  0.4876 -0.4837
  978MOL0     C34840   4.639   2.427   6.908 -0.3436  0.2221 -0.3650
  978MOL0     C34841   4.603   2.456   7.056  0.5620 -0.1655  0.2259
  978MOL0     C34842   4.713   2.531   7.134  0.2171  0.4265  0.1778
  978MOL0     N34843   4.738   2.671   7.089 -0.1820  0.3839 -0.2504
  978MOL0     C34844   4.640   2.764   7.071 -0.0285 -0.0495  0.1666
  978MOL0     C34845   4.705   2.874   7.037  0.0559 -1.1495 -0.3692
  978MOL0     C34846   4.643   3.000   7.009  0.1085 -0.9026 -0.7468
  978MOL0     C34847   4.567   2.991   6.873  0.7613  0.6767  0.1645
  978MOL0     C34848   4.551   3.125   6.801  0.7469  0.4669  0.1291
  978MOL0     C34849   4.426   3.200   6.860 -1.4709  0.3037  0.0155
  978MOL0     O34850   4.436   3.341   6.847  0.7162  0.3594 -0.3314
  978MOL0     C34851   4.481   3.423   6.950 -0.4210 -0.0436 -0.9291
  978MOL0     C34852   4.479   3.560   6.922  0.2837 -0.8087 -0.7667
  978MOL0     C34853   4.493   3.649   7.028  0.0779 -0.0385  0.0609
  978MOL0     C34854   4.471   3.794   7.004  0.0713 -0.7548  0.4414
  978MOL0     C34855   4.542   3.608   7.149  0.2180 -0.1113  0.5238
  978MOL0     C34856   4.593   3.698   7.258 -0.0531  0.5656 -1.0147
  978MOL0     O34857   4.547   3.828   7.269  0.0810  0.2220  0.7841
  978MOL0     C34858   4.593   3.907   7.358  0.0578  0.5156  0.4295
  978MOL0     C34859   4.722   3.955   7.366  0.4669  0.0789 -0.5858
  978MOL0     C34860   4.771   4.031   7.476 -0.0767 -0.1324  0.4317
  978MOL0     C34861   4.674   4.079   7.570  0.5549  0.0241  0.0269
  978MOL0     O34862   4.717   4.160   7.673 -0.8890  0.8237 -0.5912
  978MOL0     C34863   4.628   4.213   7.769  0.0165 -1.1456 -0.6056
  978MOL0     C34864   4.573   4.348   7.723 -0.2074  0.2052 -1.0311
  978MOL0     C34865   4.681   4.452   7.717  0.6975 -0.5948  0.7485
  978MOL0     C34866   4.628   4.588   7.663  0.6027  0.2906  0.9161
  978MOL0     C34867   4.705   4.715   7.699  0.4962  0.6738 -0.0863
  978MOL0     C34868   4.744   4.726   7.851  0.0007 -0.4352  0.3102
  978MOL0     C34869   4.784   4.868   7.874  0.5519  1.1593 -0.0847
  978MOL0     C34870   4.804   4.905   8.017 -0.3552  0.2913 -0.6411
  978MOL0    Cl34871   4.961   4.828   8.084  0.1608 -0.0641 -0.0375
  978MOL0     C34872   4.537   4.038   7.557  0.1714  0.6580  0.6745
  978MOL0     C34873   4.501   3.947   7.457  0.1035 -0.1896 -0.3664
  978MOL0     O34874   4.666   3.637   7.343  0.4697 -0.4720  0.3234
  978MOL0     C34875   4.555   3.471   7.176  0.4463  0.6614 -0.0987
  978MOL0     C34876   4.520   3.375   7.074  1.1721 -0.2186 -1.1348
  978MOL0     N34877   4.836   2.848   7.034 -0.6722 -0.8143  0.5905
  978MOL0     N34878   4.856   2.727   7.066  0.4333  0.8057 -0.4477
  978MOL0     C34879   5.140   2.697   6.883 -0.1907 -0.8187 -1.0900
  978MOL0     C34880   5.225   2.753   6.982  0.6830 -0.9395  0.3735
  978MOL0     C34881   5.615   2.769   7.219 -0.7392  0.3920 -0.4914
  978MOL0     C34882   5.608   2.906   7.243 -0.6734 -0.7610 -0.1575
  978MOL0     C34883   5.712   2.970   7.315 -0.3535  0.3749 -0.9290
  978MOL0     C34884   5.818   2.904   7.375 -0.7754  0.4714 -1.0531
  978MOL0     O34885   5.923   2.948   7.455  0.3292  0.3436 -0.4744
  978MOL0     C34886   5.937   3.089   7.480 -0.6879 -0.1660  1.3643
  978MOL0     C34887   6.026   3.120   7.591 -0.9298  0.4113  1.1775
  978MOL0     C34888   5.974   3.048   7.721  0.3758 -0.1844  1.3353
  978MOL0     C34889   6.056   3.085   7.848 -0.1805 -0.5386 -0.2566
  978MOL0     C34890   6.049   3.223   7.889  0.4461 -0.6172  0.0428
  978MOL0     C34891   6.028   3.340   7.913 -1.2081 -0.2433 -0.1646
  978MOL0     C34892   5.812   2.767   7.357 -0.2558 -0.5881  0.3845
  978MOL0     C34893   5.722   2.697   7.273 -0.0953  0.4983  0.8842
  978MOL0     C34894   5.754   2.548   7.243  0.3081  0.4911 -0.1613
  978MOL0     H34895   5.519   2.708   6.817 -0.2449  2.1675  2.1716
  978MOL0     H34896   5.361   2.626   6.644  0.5875  0.5692 -0.3369
  978MOL0     H34897   5.202   2.423   6.699 -0.5222 -2.4410 -0.4366
  978MOL0     H34898   5.174   2.478   6.539  0.6096 -1.7771  0.7899
  978MOL0     H34899   4.939   2.436   6.535 -0.6720 -0.5637  0.4166
  978MOL0     H34900   5.010   2.291   6.600 -1.7488 -1.1988  3.3781
  978MOL0     H34901   4.996   2.383   6.827  0.8295 -0.7680 -1.7038
  978MOL0     H34902   4.885   2.505   6.767  1.7935 -0.0775  0.5848
  978MOL0     H34903   4.727   2.318   6.696 -0.8236  2.4245  1.3071
  978MOL0     H34904   4.843   2.196   6.765 -3.3875 -1.3797  0.4369
  978MOL0     H34905   4.822   2.319   6.979 -0.2773  2.5083 -0.1588
  978MOL0     H34906   4.693   2.217   6.912 -0.4708  0.8780  0.7309
  978MOL0     H34907   4.684   2.517   6.866 -0.7223  1.2740  1.3858
  978MOL0     H34908   4.550   2.401   6.850 -1.6710  0.0091  1.6893
  978MOL0     H34909   4.571   2.366   7.109  1.0908 -0.3203  0.2865
  978MOL0     H34910   4.507   2.508   7.046  0.8859  0.5731  0.8354
  978MOL0     H34911   4.684   2.548   7.238  1.9514  1.3901  0.5255
  978MOL0     H34912   4.811   2.483   7.138 -0.0982 -0.2555  0.0711
  978MOL0     H34913   4.533   2.748   7.078 -0.3476  1.5450 -0.5544
  978MOL0     H34914   4.716   3.081   7.003 -1.0030  0.1326 -0.7699
  978MOL0     H34915   4.583   3.013   7.100  1.2760 -4.1366  0.5995
  978MOL0     H34916   4.628   2.927   6.809 -1.0734 -0.4266 -0.5309
  978MOL0     H34917   4.473   2.935   6.878  0.9846 -0.1990 -3.2491
  978MOL0     H34918   4.635   3.192   6.821  0.9773 -0.6060  3.2847
  978MOL0     H34919   4.560   3.107   6.694  0.4423 -0.0750  0.1930
  978MOL0     H34920   4.339   3.173   6.801 -2.7468  2.9850  0.5066
  978MOL0     H34921   4.417   3.158   6.961  1.3339 -1.8835 -0.5173
  978MOL0     H34922   4.438   3.602   6.831  0.0637  0.3560 -0.1523
  978MOL0     H34923   4.462   3.810   6.896  1.8810  0.3844  0.4165
  978MOL0     H34924   4.559   3.848   7.041 -0.2302 -1.1032  1.7303
  978MOL0     H34925   4.380   3.841   7.041 -1.7575 -2.6102 -1.4110
  978MOL0     H34926   4.786   3.934   7.281 -1.1638  1.3877 -2.2278
  978MOL0     H34927   4.876   4.057   7.486 -0.1097  0.0748  0.2553
  978MOL0     H34928   4.545   4.147   7.796 -1.0436  0.2653 -0.2637
  978MOL0     H34929   4.677   4.237   7.864  2.1476 -1.4663 -1.5836
  978MOL0     H34930   4.525   4.329   7.627  2.2056 -1.6559 -1.9724
  978MOL0     H34931   4.498   4.377   7.797  2.6977  2.1347  1.4161
  978MOL0     H34932   4.764   4.429   7.649 -0.0430  0.4570 -0.5574
  978MOL0     H34933   4.719   4.472   7.818  0.2665  0.2176  0.7575
  978MOL0     H34934   4.526   4.598   7.700 -0.1134 -1.2165 -0.5631
  978MOL0     H34935   4.616   4.594   7.554 -1.3391  1.4673  1.1499
  978MOL0     H34936   4.801   4.713   7.645  0.1635 -1.3942 -0.6677
  978MOL0     H34937   4.649   4.802   7.662  1.4252  1.0605 -0.6208
  978MOL0     H34938   4.829   4.661   7.872 -0.3269 -1.3817 -1.1178
  978MOL0     H34939   4.655   4.695   7.906 -2.4530  0.0027 -3.0534
  978MOL0     H34940   4.705   4.930   7.832  1.5037  1.7811 -0.9733
  978MOL0     H34941   4.873   4.899   7.818  2.1082  2.1651  2.7066
  978MOL0     H34942   4.727   4.870   8.086 -0.1413  0.3754 -0.3612
  978MOL0     H34943   4.798   5.014   8.012 -1.0369  0.2569 -0.6760
  978MOL0     H34944   4.454   4.061   7.623 -1.8540 -2.5586 -0.5150
  978MOL0     H34945   4.403   3.901   7.451 -0.2312  0.6179 -1.2303
  978MOL0     H34946   4.606   3.431   7.263  0.3385 -5.1203 -2.2320
  978MOL0     H34947   4.515   3.269   7.098 -2.1905 -0.5604 -2.7837
  978MOL0     H34948   5.034   2.700   6.906 -0.0184 -2.1361 -0.0085
  978MOL0     H34949   5.180   2.778   7.078  0.8595  0.0112  0.2228
  978MOL0     H34950   5.535   2.973   7.199 -1.4057 -1.7582 -0.5112
  978MOL0     H34951   5.705   3.077   7.329 -0.2054  0.3890 -0.9643
  978MOL0     H34952   5.982   3.126   7.388 -0.9673 -1.4343  0.6940
  978MOL0     H34953   5.838   3.136   7.488 -0.2709  2.0777 -3.1331
  978MOL0     H34954   6.033   3.227   7.611  1.5893  0.6836 -0.7675
  978MOL0     H34955   6.124   3.076   7.576 -1.7670 -1.1455 -0.0660
  978MOL0     H34956   5.867   3.063   7.737 -0.4458 -2.3305 -1.3029
  978MOL0     H34957   5.993   2.941   7.705  2.6821  0.2435  0.7978
  978MOL0     H34958   6.162   3.060   7.833  0.6243  3.5272 -2.8848
  978MOL0     H34959   6.017   3.020   7.927 -0.0823  2.4194  2.3916
  978MOL0     H34960   6.007   3.444   7.928 -3.3798 -0.9454  2.7492
  978MOL0     H34961   5.887   2.719   7.419  2.7412  0.8324 -1.8930
  978MOL0     H34962   5.860   2.522   7.245 -0.5741 -3.8259  0.1442
  978MOL0     H34963   5.710   2.479   7.316  1.5882  0.6461  0.7952
  978MOL0     H34964   5.719   2.531   7.140 -0.1639  0.8113 -0.0572
  979MOL0     O34965   6.729   6.996   4.539 -0.7573  0.4292 -0.0812
  979MOL0     C34966   6.693   7.091   4.612 -0.4196  0.6889  0.6519
  979MOL0     O34967   6.567   7.145   4.599  0.2658  0.3930  0.2928
  979MOL0     C34968   6.465   7.061   4.542  0.1541 -0.8697  1.5011
  979MOL0     C34969   6.372   7.006   4.627  0.0042  0.7528 -0.4055
  979MOL0     C34970   6.257   6.935   4.578  0.4960 -0.4561 -0.8956
  979MOL0     C34971   6.226   6.939   4.445 -0.1490 -0.0761  0.5261
  979MOL0     O34972   6.118   6.890   4.378  0.1154  0.4332  0.7056
  979MOL0     C34973   6.025   6.818   4.463 -0.7220 -0.8023  0.3529
  979MOL0     C34974   5.933   6.733   4.374  0.5339  0.3720 -0.0146
  979MOL0     C34975   5.860   6.623   4.455  0.7419 -0.0199 -0.8879
  979MOL0     C34976   5.788   6.514   4.373  0.1812 -0.2327  1.5229
  979MOL0     C34977   5.699   6.567   4.247 -0.6778 -0.3968  0.6140
  979MOL0     C34978   5.553   6.586   4.278  0.4447  0.2070 -0.7004
  979MOL0     C34979   5.478   6.670   4.177  0.1530  0.3430  0.3076
  979MOL0     C34980   5.326   6.657   4.201  0.5781  0.1482 -0.4527
  979MOL0     N34981   5.268   6.524   4.153 -0.7775  0.5798 -0.4137
  979MOL0     C34982   5.196   6.450   4.233 -0.3148  1.0166 -0.6963
  979MOL0     C34983   5.182   6.331   4.166 -0.7584  0.8038 -0.1510
  979MOL0     C34984   5.119   6.201   4.214  0.6978 -0.1083  0.0282
  979MOL0     C34985   5.217   6.098   4.272  0.0698  0.6207  0.2933
  979MOL0     C34986   5.318   6.048   4.175 -1.2523  0.7309  0.3589
  979MOL0     C34987   5.276   5.987   4.047  1.0944  0.2162 -0.8115
  979MOL0     O34988   5.393   5.996   3.966 -0.2113 -0.0812  0.0427
  979MOL0     C34989   5.386   5.944   3.843  0.0599  0.0313  0.0072
  979MOL0     C34990   5.433   5.821   3.812 -0.3846 -0.1774  0.7239
  979MOL0     C34991   5.411   5.768   3.687  0.1750  0.0600 -0.0763
  979MOL0     C34992   5.460   5.628   3.668 -0.0722  0.6147  0.3295
  979MOL0     C34993   5.338   5.841   3.584  0.2707 -0.0212  0.2827
  979MOL0     C34994   5.303   5.790   3.453  0.4284 -0.1951 -0.6505
  979MOL0     O34995   5.257   5.886   3.359  0.1034 -0.4013  0.2649
  979MOL0     C34996   5.256   5.856   3.227 -0.0738  0.2172  0.5170
  979MOL0     C34997   5.178   5.748   3.181  0.5736 -0.5270  1.0262
  979MOL0     C34998   5.177   5.724   3.043 -0.7755  0.0315 -0.1669
  979MOL0     C34999   5.248   5.798   2.946  0.9188  0.1697  0.0193
  979MOL0     O35000   5.243   5.770   2.806 -0.5176  0.0591  0.1086
  979MOL0     C35001   5.361   5.778   2.721  0.6099  1.0765  0.1757
  979MOL0     C35002   5.324   5.764   2.578 -1.0483 -0.0907 -0.5616
  979MOL0     C35003   5.238   5.889   2.542 -0.0815 -0.8077  0.3650
  979MOL0     C35004   5.102   5.847   2.490  0.8141 -0.4853  0.0624
  979MOL0     C35005   5.028   5.971   2.419  0.5931  0.3501  0.5538
  979MOL0     C35006   4.890   5.928   2.379  0.4407 -0.4433  0.3844
  979MOL0     C35007   4.812   6.036   2.302  0.2010  0.5488  0.4143
  979MOL0     C35008   4.694   5.966   2.228 -0.3108 -0.5936 -0.8470
  979MOL0    Cl35009   4.755   5.864   2.087  0.1248 -0.0899 -0.0146
  979MOL0     C35010   5.311   5.916   2.997  0.6459 -0.0734 -0.0477
  979MOL0     C35011   5.314   5.935   3.135 -0.5443 -0.7689 -0.0062
  979MOL0     O35012   5.304   5.665   3.437  0.1780 -0.3604  1.0298
  979MOL0     C35013   5.298   5.974   3.620 -0.5491  0.6662  0.9607
  979MOL0     C35014   5.322   6.020   3.749  0.4028 -0.4010  1.7952
  979MOL0     N35015   5.241   6.341   4.044  0.7574  0.4697  0.3654
  979MOL0     N35016   5.301   6.460   4.037  0.7532  0.3144  0.4076
  979MOL0     C35017   6.316   7.001   4.361  0.2029  0.6936  0.1860
  979MOL0     C35018   6.426   7.065   4.412 -0.3993 -0.0206  0.3686
  979MOL0     C35019   6.785   7.159   4.692 -1.1757 -0.5678 -0.3811
  979MOL0     C35020   6.911   7.201   4.641  0.1419  0.1746 -0.9007
  979MOL0     C35021   7.010   7.237   4.724 -0.4763  0.0913 -0.3100
  979MOL0     C35022   6.993   7.250   4.860 -0.1110 -0.8111  0.1371
  979MOL0     O35023   7.094   7.274   4.950 -0.2641 -0.5663  0.0361
  979MOL0     C35024   7.183   7.157   4.961 -0.1642  0.1620 -0.2294
  979MOL0     C35025   7.165   7.089   5.098  0.4927  0.4864  0.2523
  979MOL0     C35026   7.213   7.196   5.204  0.0479 -0.5899 -1.1908
  979MOL0     C35027   7.148   7.167   5.347  0.7785 -0.0131  0.6205
  979MOL0     C35028   7.007   7.197   5.351 -0.4029  0.2970  0.0997
  979MOL0     C35029   6.886   7.211   5.361  0.2923 -1.0051 -0.5793
  979MOL0     C35030   6.864   7.253   4.905 -0.4689 -0.4289 -0.8778
  979MOL0     C35031   6.765   7.185   4.834 -0.2086  0.1875  0.9094
  979MOL0     C35032   6.640   7.139   4.898 -0.5609 -0.0117  0.2185
  979MOL0     H35033   6.383   7.003   4.735 -2.2782  1.4942 -0.0877
  979MOL0     H35034   6.185   6.888   4.644 -0.1233  3.3073  1.4677
  979MOL0     H35035   5.962   6.889   4.517  1.0476 -0.8851  2.7009
  979MOL0     H35036   6.079   6.747   4.526  0.7265  0.2659  0.3564
  979MOL0     H35037   5.869   6.792   4.308 -1.4469 -2.4862 -0.8051
  979MOL0     H35038   5.997   6.673   4.308  0.7593 -0.9871  1.3945
  979MOL0     H35039   5.935   6.583   4.523 -1.1430 -3.6727 -0.7333
  979MOL0     H35040   5.780   6.670   4.512  0.2775 -1.4177 -0.3660
  979MOL0     H35041   5.859   6.440   4.336 -2.4401 -1.1347 -2.3019
  979MOL0     H35042   5.730   6.453   4.442 -2.4217  0.7612  0.3394
  979MOL0     H35043   5.712   6.493   4.167  2.0909 -0.4695  1.0549
  979MOL0     H35044   5.727   6.664   4.205  1.5354 -0.5322  1.6281
  979MOL0     H35045   5.519   6.482   4.278  0.6012  0.1333 -2.4914
  979MOL0     H35046   5.527   6.641   4.369 -1.4928 -2.4645  0.4915
  979MOL0     H35047   5.505   6.631   4.078 -2.0406  0.0560 -0.2212
  979MOL0     H35048   5.517   6.772   4.187  3.0325 -0.7886  1.8981
  979MOL0     H35049   5.311   6.658   4.309 -2.1283  0.9202 -0.7564
  979MOL0     H35050   5.268   6.733   4.148  1.2411 -0.7925 -2.6899
  979MOL0     H35051   5.164   6.476   4.333 -0.0281  0.2984 -0.4169
  979MOL0     H35052   5.052   6.159   4.139  0.6346  0.6246 -0.3301
  979MOL0     H35053   5.045   6.219   4.293  0.2542 -0.5333 -0.2860
  979MOL0     H35054   5.279   6.139   4.352  0.5071  1.4360 -0.4533
  979MOL0     H35055   5.162   6.012   4.311  2.9456 -1.5490 -0.1405
  979MOL0     H35056   5.393   6.121   4.143 -1.6190  0.1402 -2.0084
  979MOL0     H35057   5.374   5.964   4.218 -2.5621 -2.9043 -4.2126
  979MOL0     H35058   5.238   5.890   4.080 -2.8005  2.3614  1.7290
  979MOL0     H35059   5.192   6.040   4.002 -1.1083 -0.6416  2.0064
  979MOL0     H35060   5.495   5.765   3.881 -3.0514  1.4973  4.8207
  979MOL0     H35061   5.511   5.616   3.572  1.9329  0.8125  1.3181
  979MOL0     H35062   5.371   5.567   3.648  2.3699 -2.7094 -1.3573
  979MOL0     H35063   5.523   5.586   3.746  1.0440  0.5278 -0.5863
  979MOL0     H35064   5.119   5.694   3.253  0.1935 -1.5254 -0.0131
  979MOL0     H35065   5.110   5.647   3.007  0.4465 -0.0119 -2.6243
  979MOL0     H35066   5.421   5.867   2.741  3.1941 -0.1242 -1.6157
  979MOL0     H35067   5.427   5.692   2.738 -3.5198 -2.3460  0.3845
  979MOL0     H35068   5.414   5.766   2.515  0.3719 -0.5503  1.3500
  979MOL0     H35069   5.273   5.669   2.559 -0.5245 -0.2926 -0.9775
  979MOL0     H35070   5.285   5.941   2.458 -2.0564 -0.1254 -0.3685
  979MOL0     H35071   5.224   5.954   2.629 -1.2150  2.8005 -2.2767
  979MOL0     H35072   5.047   5.817   2.579  0.2914  1.1475  0.3230
  979MOL0     H35073   5.106   5.761   2.422 -0.8347  0.9114 -1.9251
  979MOL0     H35074   5.022   6.065   2.474 -0.9735  0.3544  0.4069
  979MOL0     H35075   5.099   5.991   2.337  0.8324 -3.7837 -0.4443
  979MOL0     H35076   4.843   5.910   2.476  0.2227  1.6579  0.7027
  979MOL0     H35077   4.898   5.843   2.310 -1.1884 -1.8727  1.8582
  979MOL0     H35078   4.882   6.095   2.243  0.2645 -0.7409 -0.8358
  979MOL0     H35079   4.769   6.116   2.363 -0.6769  0.9390 -0.6736
  979MOL0     H35080   4.621   6.035   2.185 -1.0227  0.1714  1.4214
  979MOL0     H35081   4.643   5.901   2.300 -0.8483 -2.1497 -2.5610
  979MOL0     H35082   5.358   5.983   2.926  0.7744  0.0332  0.1378
  979MOL0     H35083   5.394   5.997   3.175 -0.1224 -1.3369  0.0354
  979MOL0     H35084   5.253   6.045   3.551 -0.6804  0.9815  1.3628
  979MOL0     H35085   5.287   6.120   3.773  0.8929  0.3389 -0.3516
  979MOL0     H35086   6.290   7.022   4.258 -2.7214  0.4676  0.7805
  979MOL0     H35087   6.496   7.107   4.340  2.8198 -0.0806  3.2305
  979MOL0     H35088   6.930   7.196   4.534  1.1194 -6.2627 -0.7973
  979MOL0     H35089   7.110   7.250   4.682  1.8348 -2.0729  3.8273
  979MOL0     H35090   7.169   7.089   4.877  3.8030 -1.4424  0.1913
  979MOL0     H35091   7.287   7.193   4.964 -0.1559  0.0757  1.8131
  979MOL0     H35092   7.224   6.998   5.111 -0.5707 -0.8086 -2.9544
  979MOL0     H35093   7.061   7.055   5.105  0.3925  1.0435  2.2318
  979MOL0     H35094   7.321   7.203   5.221 -0.4392  0.4512  2.0831
  979MOL0     H35095   7.180   7.295   5.171 -2.0572 -0.5723  0.7554
  979MOL0     H35096   7.186   7.237   5.421  0.0306  1.0239  0.0366
  979MOL0     H35097   7.171   7.069   5.391  0.7244 -2.2793 -3.8399
  979MOL0     H35098   6.779   7.213   5.370 -0.0391  0.3018 -3.6749
  979MOL0     H35099   6.824   7.279   5.003 -2.2873  2.2105 -2.2014
  979MOL0     H35100   6.624   7.032   4.881  2.6345 -0.7387  1.1279
  979MOL0     H35101   6.646   7.160   5.006 -0.0307  1.7061 -0.1212
  979MOL0     H35102   6.557   7.205   4.871  0.9551  1.0742 -2.0205
  980MOL0     O35103   4.626   0.396   8.456  0.2653  0.7692  0.0807
  980MOL0     C35104   4.665   0.502   8.489 -0.2601  0.0877 -0.1926
  980MOL0     O35105   4.763   0.577   8.428 -0.2575 -0.2508  0.3208
  980MOL0     C35106   4.842   0.515   8.330  0.4599  1.0291  0.2818
  980MOL0     C35107   4.864   0.584   8.206 -0.4227  0.8398 -0.1312
  980MOL0     C35108   4.911   0.515   8.098  0.3619 -0.0075  0.7849
  980MOL0     C35109   4.934   0.377   8.096  0.5520  0.0076 -0.4487
  980MOL0     O35110   4.967   0.330   7.973  0.3338  0.4187  0.0433
  980MOL0     C35111   4.931   0.184   7.952 -0.3638 -0.6181  0.0556
  980MOL0     C35112   4.968   0.133   7.818 -0.1362 -0.0564  0.3720
  980MOL0     C35113   5.124   0.104   7.805 -0.1322  0.0204 -0.1013
  980MOL0     C35114   5.145   0.049   7.663  0.3510 -0.3003 -0.6491
  980MOL0     C35115   5.283   0.019   7.618 -0.3671  0.3228 -0.4047
  980MOL0     C35116   5.367   0.137   7.610 -0.4737 -0.4440 -0.9715
  980MOL0     C35117   5.516   0.106   7.614 -0.2891  0.5733  0.3369
  980MOL0     C35118   5.614   0.221   7.582  0.3737  0.4223  0.5015
  980MOL0     N35119   5.575   0.348   7.630  0.5014 -0.2904  0.9536
  980MOL0     C35120   5.513   0.449   7.548  0.2240  0.9527  0.4962
  980MOL0     C35121   5.469   0.534   7.648 -0.2703 -0.2060 -0.5823
  980MOL0     C35122   5.399   0.659   7.609  0.1552  0.0241  0.6204
  980MOL0     C35123   5.244   0.646   7.582  0.0255  0.2496 -0.6924
  980MOL0     C35124   5.170   0.581   7.707  0.9389 -0.4764  0.7393
  980MOL0     C35125   5.019   0.571   7.673  0.4219 -0.9983  0.0646
  980MOL0     O35126   4.948   0.637   7.777  0.4813 -0.2293 -0.8174
  980MOL0     C35127   4.829   0.694   7.748  0.4540  0.9871  0.4998
  980MOL0     C35128   4.778   0.782   7.836  0.5165 -0.2825 -0.5222
  980MOL0     C35129   4.654   0.858   7.816 -0.1090 -0.4164  0.4918
  980MOL0     C35130   4.619   0.957   7.917 -0.2499  0.5930 -1.0600
  980MOL0     C35131   4.582   0.836   7.702 -0.5490  0.3468  0.6836
  980MOL0     C35132   4.462   0.915   7.661 -0.5263 -0.0812 -0.4090
  980MOL0     O35133   4.408   0.883   7.534  0.9185  0.1132 -0.3426
  980MOL0     C35134   4.279   0.940   7.514  0.0663 -0.2403  0.0481
  980MOL0     C35135   4.250   0.939   7.377 -0.3479 -0.5356 -0.1374
  980MOL0     C35136   4.127   0.978   7.334  1.5191  0.1590 -0.0118
  980MOL0     C35137   4.026   1.022   7.416 -0.5918  0.4086  0.4406
  980MOL0     O35138   3.910   1.061   7.358  0.2915 -0.2736 -0.1609
  980MOL0     C35139   3.850   1.195   7.379 -0.4879  1.1714 -0.0802
  980MOL0     C35140   3.719   1.157   7.447 -0.3227 -0.3551 -0.5391
  980MOL0     C35141   3.640   1.280   7.483  0.6957 -0.4748  0.2505
  980MOL0     C35142   3.511   1.231   7.549  0.8510 -0.1813 -0.5480
  980MOL0     C35143   3.422   1.342   7.596 -0.1720 -0.2148 -0.2006
  980MOL0     C35144   3.489   1.471   7.657  0.5240  0.9754  0.2993
  980MOL0     C35145   3.550   1.455   7.799 -0.2869  0.3715  0.6440
  980MOL0     C35146   3.552   1.599   7.865 -0.8377  0.7001  0.2954
  980MOL0    Cl35147   3.655   1.707   7.779 -0.0469 -0.2094  0.2112
  980MOL0     C35148   4.056   1.020   7.548  0.8687 -0.3351  0.7332
  980MOL0     C35149   4.183   0.994   7.599  0.0994 -0.1318  0.2190
  980MOL0     O35150   4.423   1.008   7.736 -0.2207 -0.0939 -0.2032
  980MOL0     C35151   4.628   0.734   7.611 -0.1481 -0.0120  0.7197
  980MOL0     C35152   4.745   0.661   7.640  0.6123 -0.2871  0.3572
  980MOL0     N35153   5.498   0.498   7.774 -0.8966  0.3894 -0.2016
  980MOL0     N35154   5.557   0.381   7.764 -0.2401 -0.1243  0.2806
  980MOL0     C35155   4.923   0.315   8.219 -0.4787  0.0403  0.6492
  980MOL0     C35156   4.886   0.379   8.334 -0.0218 -0.8007 -0.9917
  980MOL0     C35157   4.612   0.567   8.610  0.1243 -0.2357 -0.0869
  980MOL0     C35158   4.633   0.701   8.618 -0.0998  0.5302 -0.0522
  980MOL0     C35159   4.580   0.780   8.719 -0.6380  0.5735  0.0180
  980MOL0     C35160   4.525   0.727   8.839 -0.6132 -0.4080  0.3233
  980MOL0     O35161   4.485   0.810   8.947  0.5877  0.1365  0.1506
  980MOL0     C35162   4.410   0.756   9.058 -0.5314  0.5909 -0.5323
  980MOL0     C35163   4.399   0.857   9.168  0.0627 -0.5512  0.5722
  980MOL0     C35164   4.542   0.874   9.224  0.2408 -0.2371 -1.1420
  980MOL0     C35165   4.562   0.786   9.354 -0.3104 -0.6693  0.2799
  980MOL0     C35166   4.683   0.814   9.424 -0.7120  0.0906  1.2711
  980MOL0     C35167   4.793   0.836   9.469 -1.0863 -0.1799 -0.6604
  980MOL0     C35168   4.515   0.590   8.831 -0.0294 -0.0026  0.0342
  980MOL0     C35169   4.554   0.508   8.724 -0.0219  0.4009  0.4492
  980MOL0     C35170   4.549   0.358   8.751 -0.0222  0.8238 -0.7567
  980MOL0     H35171   4.857   0.692   8.211 -4.1308  0.6675  1.9049
  980MOL0     H35172   4.939   0.569   8.008  0.9056  0.4807  1.2402
  980MOL0     H35173   4.823   0.169   7.967 -0.2289  1.4072  4.2172
  980MOL0     H35174   4.978   0.118   8.025 -0.8505 -0.9288  0.0955
  980MOL0     H35175   4.896   0.051   7.813  0.2607 -0.3821 -0.0144
  980MOL0     H35176   4.957   0.193   7.727  1.1756 -0.5806 -0.1490
  980MOL0     H35177   5.181   0.196   7.823  3.4290 -1.8389 -0.8600
  980MOL0     H35178   5.147   0.039   7.890 -5.6843  0.7763  2.4504
  980MOL0     H35179   5.084  -0.042   7.654 -1.3230  0.6098  0.9023
  980MOL0     H35180   5.104   0.120   7.591 -1.1030 -1.5989 -1.1580
  980MOL0     H35181   5.281  -0.042   7.527  0.1777 -2.8100  1.5403
  980MOL0     H35182   5.331  -0.048   7.690 -1.1552 -0.4575 -0.5898
  980MOL0     H35183   5.349   0.192   7.517 -1.3362 -1.1164 -1.2157
  980MOL0     H35184   5.346   0.200   7.696 -1.6976 -1.9685 -0.1054
  980MOL0     H35185   5.550   0.020   7.555  1.0366  2.0758 -1.1755
  980MOL0     H35186   5.531   0.071   7.717  0.8737 -0.9080 -0.3027
  980MOL0     H35187   5.719   0.201   7.606  1.3011  4.1752  0.1403
  980MOL0     H35188   5.613   0.228   7.473 -1.5864 -0.4547  0.4256
  980MOL0     H35189   5.499   0.460   7.441  1.5185  0.2776  0.2397
  980MOL0     H35190   5.448   0.697   7.519 -0.8707 -2.2101 -0.9863
  980MOL0     H35191   5.411   0.738   7.684  0.1331 -0.3073  0.9754
  980MOL0     H35192   5.196   0.740   7.555 -0.5445  0.6805  1.6324
  980MOL0     H35193   5.241   0.584   7.491  2.7877  3.1379 -2.9549
  980MOL0     H35194   5.211   0.485   7.738 -0.2537 -1.4252 -0.4615
  980MOL0     H35195   5.183   0.656   7.785  0.3239 -1.4775  1.8264
  980MOL0     H35196   5.006   0.624   7.579  0.9358 -1.0971 -0.0657
  980MOL0     H35197   4.985   0.469   7.653 -0.3547 -1.3805  2.8374
  980MOL0     H35198   4.842   0.817   7.917 -0.3278  0.4417 -0.1544
  980MOL0     H35199   4.539   0.915   7.980  1.6770 -3.3062 -0.8911
  980MOL0     H35200   4.593   1.051   7.868 -0.1086  1.2355  0.0760
  980MOL0     H35201   4.705   0.968   7.983 -1.7148 -1.2560  1.3377
  980MOL0     H35202   4.324   0.894   7.311 -3.2424 -2.4402 -2.3015
  980MOL0     H35203   4.102   0.975   7.228  0.5955  0.5262  0.1855
  980MOL0     H35204   3.919   1.259   7.436  0.5125  0.3789 -0.3786
  980MOL0     H35205   3.829   1.231   7.278  1.0462  0.0081 -0.8537
  980MOL0     H35206   3.663   1.100   7.373 -1.1177  1.4257 -1.3792
  980MOL0     H35207   3.729   1.099   7.539 -2.2828  1.2366  0.7634
  980MOL0     H35208   3.630   1.343   7.394 -0.2651  0.1536  0.7852
  980MOL0     H35209   3.701   1.335   7.555 -1.5376 -2.2447  3.7960
  980MOL0     H35210   3.530   1.174   7.640 -0.4978  0.7878  0.3646
  980MOL0     H35211   3.466   1.152   7.488  5.0568 -2.7270 -0.7291
  980MOL0     H35212   3.360   1.359   7.508  0.0224 -1.9334 -0.7095
  980MOL0     H35213   3.351   1.299   7.667 -0.1723  0.3548  0.1532
  980MOL0     H35214   3.403   1.534   7.683  0.9309  1.4681  0.4746
  980MOL0     H35215   3.564   1.516   7.591  3.5453 -1.0513  2.0725
  980MOL0     H35216   3.647   1.405   7.803 -2.3870 -4.1618  0.7760
  980MOL0     H35217   3.486   1.390   7.859 -0.4308 -0.3494 -0.2773
  980MOL0     H35218   3.589   1.586   7.968 -0.5490  0.4889  0.1683
  980MOL0     H35219   3.455   1.644   7.886  0.0916  1.1844  4.4994
  980MOL0     H35220   3.978   1.067   7.608 -0.3566  0.7363 -1.5629
  980MOL0     H35221   4.191   1.012   7.706  2.0214  1.0622 -0.0764
  980MOL0     H35222   4.578   0.718   7.516 -0.1531  0.3437  0.6646
  980MOL0     H35223   4.772   0.591   7.561  1.8633  0.6378 -0.0625
  980MOL0     H35224   4.940   0.208   8.214 -1.6603 -0.1377 -2.9411
  980MOL0     H35225   4.867   0.321   8.423  2.0147 -0.4329 -0.2678
  980MOL0     H35226   4.678   0.764   8.542 -0.4293 -0.0938 -0.7759
  980MOL0     H35227   4.591   0.888   8.724 -0.1892  0.4855  1.5116
  980MOL0     H35228   4.306   0.728   9.037 -1.3191  1.9083  1.3734
  980MOL0     H35229   4.460   0.665   9.093  1.7970  2.3689  1.0573
  980MOL0     H35230   4.331   0.829   9.248  1.3119 -1.6166  1.3146
  980MOL0     H35231   4.352   0.944   9.122 -1.4185 -2.2729 -1.3366
  980MOL0     H35232   4.611   0.843   9.145 -2.1146 -2.3678 -2.5269
  980MOL0     H35233   4.566   0.977   9.254  2.0587 -1.3200  1.4901
  980MOL0     H35234   4.555   0.679   9.334  1.8666 -0.7057 -0.5458
  980MOL0     H35235   4.480   0.805   9.423  0.9486 -0.4471  1.7725
  980MOL0     H35236   4.893   0.855   9.503 -1.4368 -0.6292  0.6856
  980MOL0     H35237   4.491   0.536   8.922 -1.4307 -0.8575 -0.7940
  980MOL0     H35238   4.554   0.321   8.853 -2.6263  2.9859  0.2691
  980MOL0     H35239   4.460   0.314   8.705 -1.1755  2.2719  0.0114
  980MOL0     H35240   4.620   0.309   8.683 -2.6159  1.8737 -4.5322
  981MOL0     O35241   5.856   7.629  11.078 -0.3376 -0.1986  0.1816
  981MOL0     C35242   5.820   7.536  11.002 -0.2668 -0.0260 -0.5084
  981MOL0     O35243   5.725   7.442  11.035  0.2145 -0.1745  1.7362
  981MOL0     C35244   5.709   7.442  11.175 -0.2411 -0.0567  0.3093
  981MOL0     C35245   5.806   7.398  11.267 -0.3349  0.5616  0.3849
  981MOL0     C35246   5.770   7.388  11.411 -0.2899 -1.0249 -0.0209
  981MOL0     C35247   5.650   7.449  11.464 -0.4742  0.3138 -0.0141
  981MOL0     O35248   5.619   7.435  11.595 -0.7547  0.0014  0.1462
  981MOL0     C35249   5.719   7.488  11.686 -0.5658  0.0588  0.7008
  981MOL0     C35250   5.693   7.422  11.821  0.1626  1.0471 -0.3967
  981MOL0     C35251   5.830   7.377  11.888 -0.0771 -0.4395 -0.1783
  981MOL0     C35252   5.893   7.252  11.831  0.6911  0.5613 -0.4324
  981MOL0     C35253   6.041   7.230  11.860 -0.4950 -0.1238 -0.3062
  981MOL0     C35254   6.073   7.218  12.013  0.2495 -0.0669  0.2297
  981MOL0     C35255   6.213   7.189  12.043 -0.5235 -0.5758  0.7812
  981MOL0     C35256   6.244   7.039  12.045  1.0743  0.0583 -0.3458
  981MOL0     N35257   6.368   7.003  12.113  0.8396  0.0744 -0.4037
  981MOL0     C35258   6.447   6.910  12.059  0.6969  0.1245 -0.3019
  981MOL0     C35259   6.560   6.927  12.129 -0.1877 -0.0846  0.3563
  981MOL0     C35260   6.679   6.843  12.116  0.1864 -0.4271 -0.0511
  981MOL0     C35261   6.697   6.751  12.235 -0.4221  0.1150  0.1875
  981MOL0     C35262   6.755   6.809  12.365 -0.2028  0.7944 -0.5605
  981MOL0     C35263   6.888   6.881  12.347 -0.6238 -0.1673  0.7150
  981MOL0     O35264   6.980   6.778  12.303 -0.3445  0.8793 -0.3381
  981MOL0     C35265   7.091   6.799  12.236  0.2251  0.4668 -0.0669
  981MOL0     C35266   7.160   6.687  12.203 -0.8794  1.4313  0.8825
  981MOL0     C35267   7.269   6.684  12.118 -0.5676  0.6020  0.0357
  981MOL0     C35268   7.333   6.553  12.093  0.3791  0.5837 -0.4573
  981MOL0     C35269   7.320   6.809  12.075  0.7411  0.2597  1.0313
  981MOL0     C35270   7.427   6.813  11.972 -0.1941 -0.0389 -0.0250
  981MOL0     O35271   7.455   6.935  11.932  0.0437 -0.7927 -0.2378
  981MOL0     C35272   7.539   6.949  11.828 -0.2354 -0.3672 -0.1961
  981MOL0     C35273   7.656   7.023  11.856  0.3071  0.0959 -0.3743
  981MOL0     C35274   7.754   7.046  11.763 -0.2630 -0.4229 -0.4644
  981MOL0     C35275   7.735   6.987  11.630 -0.0654  0.3130  0.1217
  981MOL0     O35276   7.818   7.014  11.522 -0.1565  0.2571 -0.3114
  981MOL0     C35277   7.945   7.072  11.554  0.1597  0.6005 -1.2368
  981MOL0     C35278   8.030   7.079  11.425  0.6119  0.1333 -0.2650
  981MOL0     C35279   7.991   7.189  11.328 -0.2126 -0.9548 -1.1561
  981MOL0     C35280   8.085   7.184  11.213 -0.6018  0.6021  0.0327
  981MOL0     C35281   8.092   7.322  11.148 -0.3068 -0.2245  0.1475
  981MOL0     C35282   7.976   7.353  11.049  0.2385  0.1845  0.9194
  981MOL0     C35283   7.993   7.447  10.927  1.7835 -0.3578 -0.4721
  981MOL0     C35284   8.059   7.573  10.953 -0.5826 -0.1592 -0.5760
  981MOL0    Cl35285   8.139   7.620  10.789  0.3511  0.0705  0.4288
  981MOL0     C35286   7.619   6.917  11.603  1.3317 -0.1887  0.4752
  981MOL0     C35287   7.523   6.892  11.702  0.3183 -0.7036 -0.0056
  981MOL0     O35288   7.487   6.713  11.936 -0.1637 -0.6697  0.3945
  981MOL0     C35289   7.259   6.924  12.111  0.4333  0.1588 -0.3330
  981MOL0     C35290   7.146   6.928  12.195 -0.9346 -0.0988  0.1042
  981MOL0     N35291   6.542   7.015  12.235 -0.2417  1.0884  1.0283
  981MOL0     N35292   6.430   7.066  12.211 -0.5262  0.3781  0.8555
  981MOL0     C35293   5.561   7.488  11.366 -1.3334 -0.4155 -0.4197
  981MOL0     C35294   5.594   7.485  11.228 -0.0721  0.1285  0.1833
  981MOL0     C35295   5.858   7.538  10.851 -0.6318  0.5423 -0.4406
  981MOL0     C35296   5.817   7.436  10.769  0.3502  0.6107  0.0916
  981MOL0     C35297   5.860   7.415  10.622 -0.7277  0.0353 -0.1475
  981MOL0     C35298   5.956   7.507  10.584  0.5271  0.2427  0.0794
  981MOL0     O35299   6.015   7.504  10.462  0.2165  0.5743 -0.3349
  981MOL0     C35300   5.994   7.391  10.373 -0.2060 -0.4376 -0.9249
  981MOL0     C35301   5.861   7.390  10.284  0.6044  0.6427  0.3318
  981MOL0     C35302   5.861   7.492  10.163  0.5051 -0.4919 -0.4524
  981MOL0     C35303   5.727   7.492  10.084 -0.0822 -0.0805 -0.7297
  981MOL0     C35304   5.689   7.366  10.012 -0.2803 -0.1389 -0.5167
  981MOL0     C35305   5.669   7.269   9.939  0.3628  0.0706 -1.4143
  981MOL0     C35306   6.002   7.607  10.669 -0.4540  0.0562 -0.4473
  981MOL0     C35307   5.960   7.620  10.799 -0.3684 -0.2915 -0.5344
  981MOL0     C35308   6.017   7.743  10.876 -0.1751 -0.1658 -0.4265
  981MOL0     H35309   5.894   7.350  11.225 -1.8373 -0.5133 -1.7228
  981MOL0     H35310   5.841   7.336  11.475  1.8509 -0.4106 -1.7579
  981MOL0     H35311   5.705   7.595  11.702 -2.3148  0.1222 -0.8197
  981MOL0     H35312   5.819   7.460  11.652  0.9247  3.8204  1.5259
  981MOL0     H35313   5.642   7.494  11.886 -4.1746 -2.1442  0.1735
  981MOL0     H35314   5.637   7.329  11.810  1.3717  0.3397 -0.7195
  981MOL0     H35315   5.904   7.458  11.878  0.2802 -0.7970 -0.4722
  981MOL0     H35316   5.815   7.368  11.996  0.1473  1.0650  0.0099
  981MOL0     H35317   5.831   7.166  11.861 -3.0979  3.4622  0.8917
  981MOL0     H35318   5.905   7.258  11.723  0.1947  1.2800 -0.4540
  981MOL0     H35319   6.107   7.305  11.817  2.0359 -2.4133 -0.6487
  981MOL0     H35320   6.072   7.130  11.827 -1.3817 -1.2342  1.9924
  981MOL0     H35321   6.028   7.303  12.064 -2.1679 -0.9132 -0.3729
  981MOL0     H35322   6.004   7.140  12.044  1.2910 -1.5361 -1.0057
  981MOL0     H35323   6.231   7.218  12.147  0.4792  2.3313 -0.1074
  981MOL0     H35324   6.282   7.249  11.982  1.0208  1.3036  4.1197
  981MOL0     H35325   6.164   6.983  12.093  2.8391 -0.3979  2.2793
  981MOL0     H35326   6.229   7.016  11.939 -3.3050 -0.9521  0.3140
  981MOL0     H35327   6.403   6.847  11.982 -0.0047  1.8581 -1.3897
  981MOL0     H35328   6.764   6.911  12.105 -0.4599  0.1693 -1.6486
  981MOL0     H35329   6.671   6.790  12.021 -3.6877  0.5565 -0.4233
  981MOL0     H35330   6.602   6.702  12.255 -0.5177  0.1630 -0.1452
  981MOL0     H35331   6.760   6.668  12.200 -0.6105 -1.0263  2.3827
  981MOL0     H35332   6.678   6.879  12.397  0.6322  1.1703  0.7269
  981MOL0     H35333   6.780   6.724  12.430 -0.6640  2.1252  1.4570
  981MOL0     H35334   6.875   6.965  12.278  1.7286  1.2541  1.8804
  981MOL0     H35335   6.913   6.935  12.438 -1.3373  4.0627 -1.3594
  981MOL0     H35336   7.114   6.595  12.238 -2.3022  2.0548  0.7038
  981MOL0     H35337   7.432   6.548  12.138  1.3720  0.5963 -2.5276
  981MOL0     H35338   7.334   6.526  11.987 -1.9819 -3.0465  0.2833
  981MOL0     H35339   7.277   6.477  12.149 -1.4450 -0.0452 -2.9659
  981MOL0     H35340   7.655   7.068  11.955 -1.3886  2.5191 -1.3947
  981MOL0     H35341   7.839   7.111  11.783 -0.9804  0.1628  0.7342
  981MOL0     H35342   7.939   7.176  11.588 -0.0672  0.6304 -1.3653
  981MOL0     H35343   7.997   7.010  11.628 -1.5498 -2.2499 -2.2461
  981MOL0     H35344   8.136   7.088  11.450  0.7986 -4.1830  1.2891
  981MOL0     H35345   8.039   6.987  11.368  3.9094 -0.6738  1.3152
  981MOL0     H35346   8.014   7.276  11.390  0.2983 -1.0297 -1.2366
  981MOL0     H35347   7.884   7.199  11.307 -1.0864 -2.6840  1.8107
  981MOL0     H35348   8.066   7.099  11.146  1.3020 -3.1487  3.7632
  981MOL0     H35349   8.186   7.164  11.251 -0.8842 -1.0755 -0.0170
  981MOL0     H35350   8.088   7.394  11.231  2.1168 -0.1196  0.2342
  981MOL0     H35351   8.180   7.336  11.085 -1.9930  0.8370 -2.1277
  981MOL0     H35352   7.887   7.391  11.100 -0.6612  2.7945 -2.2074
  981MOL0     H35353   7.952   7.258  11.001  4.1297 -1.5069  1.9404
  981MOL0     H35354   7.895   7.470  10.884  1.6747  1.5425  0.6704
  981MOL0     H35355   8.059   7.390  10.861  0.5032  0.1052 -2.2462
  981MOL0     H35356   8.143   7.565  11.022 -0.3380  2.8731 -0.4116
  981MOL0     H35357   7.999   7.657  10.991  0.2867  1.0279 -1.7532
  981MOL0     H35358   7.629   6.869  11.507  3.5877  1.8195 -0.3999
  981MOL0     H35359   7.439   6.829  11.677  3.1752 -3.9805 -2.3584
  981MOL0     H35360   7.284   7.024  12.076 -1.2690  0.3032 -1.2933
  981MOL0     H35361   7.108   7.028  12.214 -0.7463  0.3164 -1.5510
  981MOL0     H35362   5.461   7.520  11.393 -1.2394  2.0521 -2.6382
  981MOL0     H35363   5.519   7.515  11.155  0.1824 -1.5543 -0.8331
  981MOL0     H35364   5.741   7.371  10.813  1.7094 -0.1641  1.4041
  981MOL0     H35365   5.829   7.323  10.574  2.9379 -1.6833  0.4748
  981MOL0     H35366   6.085   7.384  10.313 -0.4657  0.6761 -1.4638
  981MOL0     H35367   6.000   7.299  10.433  0.2070  0.7575  0.9358
  981MOL0     H35368   5.783   7.419  10.354  2.1604 -0.6130  2.7452
  981MOL0     H35369   5.849   7.290  10.241  0.1648 -0.1313  2.1509
  981MOL0     H35370   5.874   7.590  10.210  3.5943 -0.3320 -1.4155
  981MOL0     H35371   5.948   7.481  10.097 -0.2746 -2.0526 -1.2816
  981MOL0     H35372   5.726   7.576  10.013 -0.1209 -0.4381 -1.1570
  981MOL0     H35373   5.644   7.513  10.152  1.2635  1.5229  0.5068
  981MOL0     H35374   5.635   7.181   9.888 -0.2096 -0.1908 -0.5958
  981MOL0     H35375   6.062   7.680  10.617 -0.4981  0.0858 -0.4568
  981MOL0     H35376   6.079   7.813  10.819 -1.4206  0.1767 -1.4067
  981MOL0     H35377   5.938   7.811  10.906 -0.0757 -0.4954  0.6096
  981MOL0     H35378   6.077   7.702  10.958 -3.4795 -2.0839  1.2457
  982MOL0     O35379   5.767  11.246   2.392  1.3532 -0.6765  0.0991
  982MOL0     C35380   5.691  11.316   2.318 -0.3271  0.0906 -0.4630
  982MOL0     O35381   5.737  11.394   2.203 -0.2064  0.0762  0.4382
  982MOL0     C35382   5.870  11.435   2.209  0.7446 -0.0983 -0.0430
  982MOL0     C35383   5.916  11.498   2.324  0.4935 -0.5360  0.8907
  982MOL0     C35384   6.047  11.550   2.314  0.0543 -0.3190  0.2361
  982MOL0     C35385   6.134  11.528   2.201 -1.2082  0.3069 -0.7814
  982MOL0     O35386   6.265  11.578   2.206  0.4996  0.5603 -0.6067
  982MOL0     C35387   6.365  11.516   2.118  0.6727 -1.1123 -0.5841
  982MOL0     C35388   6.416  11.381   2.167  0.2174  0.9025 -0.0498
  982MOL0     C35389   6.494  11.301   2.058 -0.6594  0.0761  0.1547
  982MOL0     C35390   6.582  11.390   1.963 -0.4250  1.0060 -0.4656
  982MOL0     C35391   6.642  11.321   1.833 -0.6340 -1.3066  0.3861
  982MOL0     C35392   6.732  11.213   1.868 -0.2063  0.1724 -0.8683
  982MOL0     C35393   6.797  11.148   1.744 -0.1090  0.2807  0.2762
  982MOL0     C35394   6.886  11.232   1.650 -0.4317 -0.8752 -0.2527
  982MOL0     N35395   6.991  11.312   1.712 -0.2442  0.6142 -0.1044
  982MOL0     C35396   7.095  11.249   1.777  0.0795 -0.1632 -0.8713
  982MOL0     C35397   7.179  11.353   1.810  0.5949  0.2839 -1.2146
  982MOL0     C35398   7.309  11.345   1.883  1.2570 -0.9080 -0.7118
  982MOL0     C35399   7.420  11.323   1.778 -0.2792  1.0717 -0.2232
  982MOL0     C35400   7.469  11.449   1.719  0.4915 -0.3807 -1.2709
  982MOL0     C35401   7.544  11.412   1.590  0.3248 -0.5346  0.2964
  982MOL0     O35402   7.648  11.304   1.611  0.4329 -0.2769 -0.6491
  982MOL0     C35403   7.738  11.290   1.508 -0.7043 -0.0642  0.2183
  982MOL0     C35404   7.743  11.346   1.377 -0.4490 -0.4957 -1.0082
  982MOL0     C35405   7.849  11.318   1.285  0.2078  0.3402 -0.5859
  982MOL0     C35406   7.849  11.389   1.153 -0.4552 -0.2037 -0.4931
  982MOL0     C35407   7.950  11.239   1.329 -0.1226 -0.1679  0.4997
  982MOL0     C35408   8.072  11.211   1.255 -0.1410 -0.1718  0.2685
  982MOL0     O35409   8.192  11.236   1.331  0.0912 -0.1926 -0.5281
  982MOL0     C35410   8.317  11.187   1.297 -0.2758 -0.3677  0.0289
  982MOL0     C35411   8.429  11.246   1.355  0.3343 -0.1287  0.0846
  982MOL0     C35412   8.560  11.225   1.298 -0.2029 -0.4867 -0.4142
  982MOL0     C35413   8.580  11.147   1.187  0.7157  0.3045  0.3316
  982MOL0     O35414   8.704  11.139   1.138 -0.0240 -0.0007 -0.2364
  982MOL0     C35415   8.734  11.080   1.017 -0.6510  0.0147  0.7778
  982MOL0     C35416   8.878  11.035   1.008 -0.4824  0.8805 -0.6688
  982MOL0     C35417   8.911  10.975   0.875  0.3412  0.9571  1.6781
  982MOL0     C35418   9.053  10.941   0.867 -0.1875 -0.4014  0.2288
  982MOL0     C35419   9.120  10.922   0.728 -0.7379  0.1746 -0.5481
  982MOL0     C35420   9.079  10.790   0.647 -0.8846 -0.4034  0.2346
  982MOL0     C35421   9.115  10.643   0.710 -0.6917 -0.4639  0.1503
  982MOL0     C35422   9.261  10.631   0.729  0.3524  0.2454 -0.6033
  982MOL0    Cl35423   9.289  10.463   0.804 -0.1549 -0.2768 -0.6754
  982MOL0     C35424   8.466  11.067   1.144 -0.5003 -0.2031 -0.2045
  982MOL0     C35425   8.346  11.082   1.208  0.0963  0.4412  0.9789
  982MOL0     O35426   8.059  11.168   1.141  0.4597 -0.2609  0.3796
  982MOL0     C35427   7.939  11.174   1.461 -1.8184 -0.2121  0.6795
  982MOL0     C35428   7.833  11.193   1.550 -0.6421  0.2278  0.9356
  982MOL0     N35429   7.126  11.463   1.764  0.5792 -0.2443 -0.6456
  982MOL0     N35430   7.018  11.443   1.693 -0.5167  0.1941 -0.2672
  982MOL0     C35431   6.074  11.470   2.088  0.3332  0.0212 -0.5470
  982MOL0     C35432   5.937  11.432   2.084 -0.5414 -0.4508 -0.2578
  982MOL0     C35433   5.547  11.344   2.354  0.0509  0.0337  0.2108
  982MOL0     C35434   5.499  11.480   2.337 -0.0398  0.5489  0.7826
  982MOL0     C35435   5.369  11.525   2.353 -0.0918 -0.3393  0.4825
  982MOL0     C35436   5.279  11.427   2.379 -0.9827  0.1665 -0.1741
  982MOL0     O35437   5.153  11.478   2.398  0.0587 -0.6487  0.1027
  982MOL0     C35438   5.058  11.392   2.451 -0.3021  0.8476  0.2941
  982MOL0     C35439   4.936  11.467   2.493 -0.5894  0.3926  0.1834
  982MOL0     C35440   4.832  11.371   2.540  0.5150 -0.6926 -0.5418
  982MOL0     C35441   4.705  11.450   2.591  0.0868 -0.0724  1.0961
  982MOL0     C35442   4.730  11.533   2.709  0.1263 -0.1827 -0.2417
  982MOL0     C35443   4.770  11.618   2.791 -0.9352  0.6587 -0.8597
  982MOL0     C35444   5.318  11.292   2.393  0.5369 -0.6164  0.2116
  982MOL0     C35445   5.450  11.254   2.391  0.1541 -0.1631  0.4274
  982MOL0     C35446   5.470  11.104   2.399  0.0121  0.1038  0.3489
  982MOL0     H35447   5.864  11.513   2.418 -1.4110 -0.1290 -0.1963
  982MOL0     H35448   6.102  11.602   2.391  1.6776 -1.5240 -0.0483
  982MOL0     H35449   6.453  11.580   2.128  0.6413 -1.4437  3.3516
  982MOL0     H35450   6.329  11.519   2.015  0.0270  0.9776 -0.3381
  982MOL0     H35451   6.480  11.379   2.255  1.7227 -1.4099 -1.0849
  982MOL0     H35452   6.328  11.322   2.194  0.3123  1.5004  1.6479
  982MOL0     H35453   6.549  11.218   2.104 -2.0047  0.6595  3.0775
  982MOL0     H35454   6.412  11.262   1.998  1.1162  0.5617 -2.7707
  982MOL0     H35455   6.526  11.479   1.933  0.8291  1.6924 -0.8608
  982MOL0     H35456   6.656  11.426   2.035 -1.3094  2.3952 -0.2322
  982MOL0     H35457   6.691  11.396   1.770  1.0009  0.0361  3.0401
  982MOL0     H35458   6.562  11.284   1.768 -1.0936  0.0971  0.1163
  982MOL0     H35459   6.797  11.237   1.952 -0.6537  0.7660 -0.6823
  982MOL0     H35460   6.668  11.137   1.913  0.0506  0.6098  0.2647
  982MOL0     H35461   6.718  11.115   1.675 -1.2141  3.0976  0.0691
  982MOL0     H35462   6.855  11.059   1.771 -0.0386 -0.7740 -2.9474
  982MOL0     H35463   6.940  11.175   1.574 -2.3601 -2.1036 -0.7736
  982MOL0     H35464   6.817  11.306   1.607  0.9267  0.5836 -0.0250
  982MOL0     H35465   7.116  11.149   1.814  0.8453  0.8106  1.5080
  982MOL0     H35466   7.307  11.270   1.962  0.3830 -0.0145  0.1370
  982MOL0     H35467   7.326  11.440   1.934  4.4527 -1.8665  0.2469
  982MOL0     H35468   7.498  11.276   1.839 -1.8359 -0.8152  0.4149
  982MOL0     H35469   7.380  11.258   1.699  1.5674  1.8302 -1.8618
  982MOL0     H35470   7.383  11.514   1.699 -0.6529 -2.0266 -1.8666
  982MOL0     H35471   7.536  11.509   1.782  2.2370  0.3392 -3.6862
  982MOL0     H35472   7.478  11.373   1.511 -0.1524 -1.3088  1.0484
  982MOL0     H35473   7.589  11.507   1.561  0.3232  0.2284  2.5810
  982MOL0     H35474   7.657  11.405   1.344 -0.6488  0.1315  0.5130
  982MOL0     H35475   7.939  11.382   1.091  0.3519  2.6495  0.1906
  982MOL0     H35476   7.828  11.493   1.180 -1.6871 -0.7827  0.9401
  982MOL0     H35477   7.764  11.360   1.090  1.1572 -4.0555 -1.1919
  982MOL0     H35478   8.413  11.331   1.420 -1.5501 -2.3298  2.7069
  982MOL0     H35479   8.649  11.278   1.330 -0.4435  0.6030 -1.4928
  982MOL0     H35480   8.668  10.992   1.011 -2.3028  1.1621  1.4755
  982MOL0     H35481   8.701  11.147   0.938 -0.4159 -0.1758  0.5131
  982MOL0     H35482   8.947  11.120   1.020 -0.2163  0.8102 -1.6649
  982MOL0     H35483   8.904  10.964   1.087 -0.9763 -1.0829 -2.2082
  982MOL0     H35484   8.890  11.046   0.795  1.6656 -2.3777 -1.9195
  982MOL0     H35485   8.838  10.898   0.848  0.9841  1.2836 -1.2735
  982MOL0     H35486   9.071  10.862   0.941 -1.5640 -1.4732 -0.5336
  982MOL0     H35487   9.109  11.031   0.894  1.8389 -0.6245 -2.8153
  982MOL0     H35488   9.098  11.000   0.655  1.0186 -1.0320 -2.4954
  982MOL0     H35489   9.227  10.942   0.740 -0.3569 -0.2955 -2.7208
  982MOL0     H35490   9.126  10.797   0.549  0.4555  0.3362  0.9010
  982MOL0     H35491   8.970  10.796   0.633 -0.6466  0.0706 -1.6535
  982MOL0     H35492   9.072  10.580   0.631 -2.4127  2.0157 -1.0045
  982MOL0     H35493   9.067  10.624   0.806  1.0472 -0.8633  0.9840
  982MOL0     H35494   9.302  10.703   0.801 -0.5366  0.2158 -0.0386
  982MOL0     H35495   9.311  10.652   0.635  1.5294 -0.7395 -0.2198
  982MOL0     H35496   8.483  10.995   1.065 -1.0974 -0.1416 -0.3968
  982MOL0     H35497   8.265  11.027   1.160  0.0663  1.3169  0.0094
  982MOL0     H35498   8.020  11.114   1.499 -1.0497 -0.9245 -1.8710
  982MOL0     H35499   7.832  11.148   1.649 -1.2148  0.8758  1.2386
  982MOL0     H35500   6.120  11.474   1.990 -1.8578 -2.7601 -1.8167
  982MOL0     H35501   5.896  11.388   1.994  0.7941 -0.3028 -0.9589
  982MOL0     H35502   5.568  11.560   2.310  0.3225 -0.5128 -1.7173
  982MOL0     H35503   5.344  11.630   2.344 -1.0618 -0.6491 -0.9263
  982MOL0     H35504   5.035  11.318   2.373 -1.1377 -0.1612  1.4636
  982MOL0     H35505   5.097  11.345   2.541  0.1272  0.2816 -0.1784
  982MOL0     H35506   4.879  11.522   2.418 -1.9762 -2.5953 -1.1455
  982MOL0     H35507   4.943  11.532   2.580 -3.4079 -2.3838  2.7731
  982MOL0     H35508   4.792  11.309   2.460 -0.3968  1.0718 -1.5129
  982MOL0     H35509   4.869  11.306   2.620 -1.9908 -2.1744 -0.4889
  982MOL0     H35510   4.625  11.375   2.593  1.9556 -2.2627 -0.0178
  982MOL0     H35511   4.682  11.526   2.516  0.5630 -0.3961  0.6158
  982MOL0     H35512   4.799  11.682   2.872 -0.7061  0.1768 -0.5559
  982MOL0     H35513   5.251  11.208   2.412  3.2686 -2.5406  2.0772
  982MOL0     H35514   5.494  11.067   2.299 -1.2137 -1.2866  0.5349
  982MOL0     H35515   5.542  11.076   2.477 -0.0666  3.5181  1.8115
  982MOL0     H35516   5.378  11.050   2.423 -1.5569  1.8691 -1.3696
  983MOL0     O35517   3.446   0.181   8.318 -0.0259 -0.2232  0.5813
  983MOL0     C35518   3.398   0.068   8.320  0.0665  1.6173 -0.1942
  983MOL0     O35519   3.278   0.027   8.272 -0.0508  1.1487 -0.4658
  983MOL0     C35520   3.201   0.123   8.215  1.1544 -0.9387  0.3152
  983MOL0     C35521   3.102   0.063   8.127  0.0113 -0.4941  0.3334
  983MOL0     C35522   3.011   0.153   8.056 -0.0341 -0.4480  0.4265
  983MOL0     C35523   3.005   0.288   8.079 -1.2566 -0.7242  0.5217
  983MOL0     O35524   2.916   0.362   8.007  0.3053 -0.5588  0.3530
  983MOL0     C35525   2.789   0.380   8.065  0.1784  0.3395 -0.6557
  983MOL0     C35526   2.710   0.506   8.032  0.2836  0.6718 -0.7719
  983MOL0     C35527   2.744   0.570   7.899  0.6278 -0.5897  0.1511
  983MOL0     C35528   2.640   0.668   7.848  0.0058 -0.1011  0.0441
  983MOL0     C35529   2.690   0.754   7.726  0.1661 -0.7916 -1.2062
  983MOL0     C35530   2.564   0.830   7.660 -0.7480 -0.0941 -0.0888
  983MOL0     C35531   2.615   0.903   7.539 -0.5803  0.3717 -0.2382
  983MOL0     C35532   2.505   0.997   7.490  0.2558 -0.2448 -0.5481
  983MOL0     N35533   2.522   1.032   7.349 -0.7437  0.1426 -0.4952
  983MOL0     C35534   2.638   1.016   7.271 -0.7354  0.2473  0.4832
  983MOL0     C35535   2.600   1.032   7.145  0.2570 -0.3663 -0.6520
  983MOL0     C35536   2.686   1.051   7.020  0.2948 -0.4957  0.4891
  983MOL0     C35537   2.642   0.974   6.893 -0.3574 -0.1923 -0.0437
  983MOL0     C35538   2.744   0.964   6.790  0.2392  0.3169 -0.9224
  983MOL0     C35539   2.699   0.886   6.668 -0.8713 -0.1970 -0.9213
  983MOL0     O35540   2.805   0.809   6.609 -0.3858  0.4428 -0.6457
  983MOL0     C35541   2.804   0.790   6.475  0.4061  0.8533  0.1680
  983MOL0     C35542   2.928   0.751   6.423 -0.0927  0.3310  0.1635
  983MOL0     C35543   2.950   0.740   6.286 -0.8237 -0.8856 -0.8860
  983MOL0     C35544   3.081   0.678   6.247 -0.1642 -0.0656  0.6797
  983MOL0     C35545   2.830   0.748   6.198 -0.5229  0.1150 -0.5059
  983MOL0     C35546   2.832   0.708   6.055 -1.1631 -0.4070 -0.2648
  983MOL0     O35547   2.731   0.761   5.980  0.1992  0.6929  0.6333
  983MOL0     C35548   2.727   0.743   5.845 -0.2149  0.6031  0.2415
  983MOL0     C35549   2.606   0.747   5.790  0.6554  0.2629  0.0602
  983MOL0     C35550   2.597   0.727   5.644  0.2982  0.3113 -0.9235
  983MOL0     C35551   2.710   0.712   5.568  0.2999  0.3260  0.5664
  983MOL0     O35552   2.700   0.708   5.430 -0.3080 -0.3497 -0.1878
  983MOL0     C35553   2.598   0.629   5.371  0.7817 -0.5917  0.1020
  983MOL0     C35554   2.633   0.486   5.358 -0.9071  0.3564  0.2226
  983MOL0     C35555   2.512   0.401   5.329  0.6090  0.2549 -0.7476
  983MOL0     C35556   2.484   0.380   5.180  0.0141 -0.6453  0.5127
  983MOL0     C35557   2.341   0.316   5.157 -0.5616 -0.3721 -0.1589
  983MOL0     C35558   2.258   0.335   5.025  0.2873 -0.7591  0.1815
  983MOL0     C35559   2.113   0.277   5.011 -0.0939  0.2192 -0.9478
  983MOL0     C35560   2.011   0.303   5.122  0.6263  0.1523  1.1970
  983MOL0    Cl35561   2.000   0.476   5.143  0.3573  0.6992  0.0676
  983MOL0     C35562   2.828   0.715   5.618 -0.3863 -0.0845 -1.2166
  983MOL0     C35563   2.846   0.720   5.759  0.2706  0.3805  0.2512
  983MOL0     O35564   2.917   0.623   6.024 -0.1608  0.4823 -0.6120
  983MOL0     C35565   2.711   0.790   6.256  0.1108 -0.1466 -0.0840
  983MOL0     C35566   2.693   0.804   6.393  0.2793  0.1210  0.3475
  983MOL0     N35567   2.463   1.064   7.138  0.4085 -0.0143 -0.6672
  983MOL0     N35568   2.423   1.061   7.264 -0.8922  0.5914 -0.0922
  983MOL0     C35569   3.092   0.343   8.181 -0.0285 -0.7812  0.2759
  983MOL0     C35570   3.184   0.265   8.241  0.3394  1.0627 -0.4766
  983MOL0     C35571   3.487  -0.033   8.402 -0.5433 -0.2472  0.1181
  983MOL0     C35572   3.626  -0.012   8.395  0.0731  0.9206  0.1883
  983MOL0     C35573   3.722  -0.098   8.463 -0.3762  0.0935 -0.5212
  983MOL0     C35574   3.680  -0.189   8.557 -0.3148 -0.5712 -0.9039
  983MOL0     O35575   3.766  -0.280   8.628  1.2407 -0.0181  0.4597
  983MOL0     C35576   3.904  -0.276   8.614 -0.2430  0.6236 -0.1973
  983MOL0     C35577   3.931  -0.336   8.478  0.8144 -0.5288  0.0007
  983MOL0     C35578   3.913  -0.486   8.464  0.6716 -0.2464  0.6477
  983MOL0     C35579   3.977  -0.571   8.563  0.5213  0.5261 -0.7532
  983MOL0     C35580   4.111  -0.526   8.607  0.5286 -0.0755  0.9305
  983MOL0     C35581   4.216  -0.477   8.645  0.1430 -0.2035 -0.0787
  983MOL0     C35582   3.539  -0.206   8.568 -0.6488 -0.1237  0.4784
  983MOL0     C35583   3.448  -0.127   8.489 -0.0300  0.1282 -0.4125
  983MOL0     C35584   3.303  -0.156   8.512 -0.5787 -0.8105 -0.2224
  983MOL0     H35585   3.099  -0.044   8.110 -3.4266 -0.2489 -1.5710
  983MOL0     H35586   2.925   0.116   8.001 -0.2585  0.6646  0.0032
  983MOL0     H35587   2.796   0.393   8.173 -1.6650  0.2773 -0.4960
  983MOL0     H35588   2.721   0.296   8.047  0.1648 -0.0612  1.0717
  983MOL0     H35589   2.605   0.502   8.064  0.2315  2.6671 -0.6227
  983MOL0     H35590   2.758   0.570   8.106  2.2355 -1.6033  0.0602
  983MOL0     H35591   2.838   0.623   7.920  0.7760 -1.1643  0.9784
  983MOL0     H35592   2.746   0.485   7.831  0.9111 -0.9104  0.5576
  983MOL0     H35593   2.548   0.611   7.830  0.7179 -1.1884 -0.2752
  983MOL0     H35594   2.621   0.734   7.933  0.5574  0.8313 -0.5549
  983MOL0     H35595   2.723   0.686   7.647  1.3424 -0.6812 -0.8234
  983MOL0     H35596   2.766   0.829   7.751 -2.0176  0.0034  4.7276
  983MOL0     H35597   2.489   0.757   7.628  0.0926 -1.2381  0.4627
  983MOL0     H35598   2.516   0.898   7.731  1.4954 -0.1651  1.6176
  983MOL0     H35599   2.642   0.831   7.462  2.3946  0.1670  0.8496
  983MOL0     H35600   2.709   0.952   7.568 -0.3718  0.4001 -0.9522
  983MOL0     H35601   2.408   0.947   7.493 -0.0453  0.2103 -2.0883
  983MOL0     H35602   2.481   1.092   7.540 -2.9888 -0.5341 -1.3565
  983MOL0     H35603   2.740   1.013   7.309 -0.6244 -3.8404  0.2437
  983MOL0     H35604   2.786   1.018   7.051  1.1576  3.6942  2.8517
  983MOL0     H35605   2.698   1.158   7.004 -2.6715 -0.2266 -0.3764
  983MOL0     H35606   2.607   0.872   6.913 -1.2738  0.1057 -0.0754
  983MOL0     H35607   2.566   1.039   6.849 -0.5368 -1.0794 -1.1004
  983MOL0     H35608   2.778   1.061   6.752  3.1807 -0.5606 -0.7970
  983MOL0     H35609   2.825   0.922   6.850 -1.1687 -0.6736  0.3582
  983MOL0     H35610   2.611   0.825   6.689 -0.3142 -0.8880 -0.5798
  983MOL0     H35611   2.666   0.959   6.593  0.6603  2.9093  1.2067
  983MOL0     H35612   3.007   0.750   6.498 -1.2389  1.8472  1.4582
  983MOL0     H35613   3.069   0.572   6.219 -0.1305  0.2489 -0.5585
  983MOL0     H35614   3.150   0.680   6.332  2.0707  0.9963 -1.0612
  983MOL0     H35615   3.130   0.709   6.155 -0.9963  0.3676  0.3737
  983MOL0     H35616   2.517   0.768   5.849  0.3314  0.0706 -0.3498
  983MOL0     H35617   2.498   0.731   5.600  0.4392 -3.8712 -2.0486
  983MOL0     H35618   2.497   0.638   5.411  0.3027 -0.8938 -0.9822
  983MOL0     H35619   2.600   0.669   5.269  2.9012 -0.5980  0.0908
  983MOL0     H35620   2.707   0.479   5.278  1.6160  0.6116  2.3788
  983MOL0     H35621   2.675   0.453   5.453  2.2642 -1.2807 -1.6002
  983MOL0     H35622   2.430   0.452   5.379  1.5253  1.0039  0.0275
  983MOL0     H35623   2.525   0.299   5.367  0.8389  0.2762 -0.7672
  983MOL0     H35624   2.568   0.331   5.131  0.9740 -0.4585  1.9093
  983MOL0     H35625   2.468   0.481   5.141 -2.2679 -0.4309  1.8267
  983MOL0     H35626   2.359   0.211   5.179 -3.0497 -0.5646  1.2769
  983MOL0     H35627   2.275   0.356   5.234 -0.6478  1.7207 -1.2470
  983MOL0     H35628   2.317   0.296   4.942  0.4004  0.8649 -0.5545
  983MOL0     H35629   2.242   0.443   5.021  1.4065 -0.6157 -2.0304
  983MOL0     H35630   2.127   0.169   4.997  3.9714  0.2886  0.9384
  983MOL0     H35631   2.066   0.323   4.924 -1.0880  1.3378  0.1515
  983MOL0     H35632   2.041   0.250   5.212  2.4081  2.0749  1.8119
  983MOL0     H35633   1.919   0.258   5.083 -0.3105  1.7360  1.5018
  983MOL0     H35634   2.915   0.722   5.553  0.7041 -1.9340 -0.0254
  983MOL0     H35635   2.945   0.696   5.797 -0.2088 -4.2414 -0.8029
  983MOL0     H35636   2.619   0.799   6.199  1.5493  0.2369 -2.4516
  983MOL0     H35637   2.594   0.828   6.431 -0.5294 -0.7939 -1.1129
  983MOL0     H35638   3.073   0.448   8.201 -0.2990 -1.0195  1.3184
  983MOL0     H35639   3.251   0.300   8.319  0.8810 -0.3986 -0.2605
  983MOL0     H35640   3.666   0.071   8.338 -0.2333  0.0123 -1.4162
  983MOL0     H35641   3.826  -0.078   8.442 -0.5767  0.3414 -1.3233
  983MOL0     H35642   3.938  -0.172   8.616  0.6225  0.3351  1.6446
  983MOL0     H35643   3.956  -0.335   8.690 -0.3951  0.9899  0.1912
  983MOL0     H35644   4.036  -0.309   8.459  0.7935 -0.2432  0.2843
  983MOL0     H35645   3.878  -0.283   8.399 -0.0707 -0.1221  0.8473
  983MOL0     H35646   3.807  -0.512   8.463  0.1582  1.5732  1.9613
  983MOL0     H35647   3.958  -0.516   8.369 -1.7053  3.4324 -1.9254
  983MOL0     H35648   3.980  -0.674   8.526 -1.9034  0.2647 -0.3833
  983MOL0     H35649   3.920  -0.578   8.656  1.6176  1.4516  0.0277
  983MOL0     H35650   4.299  -0.426   8.688  0.2520  2.0250 -2.6313
  983MOL0     H35651   3.499  -0.294   8.616 -1.1762  0.8338  1.8675
  983MOL0     H35652   3.238  -0.070   8.496 -2.4012 -2.1219 -0.2078
  983MOL0     H35653   3.270  -0.223   8.432  1.3287 -0.3825 -1.4264
  983MOL0     H35654   3.279  -0.208   8.606  0.4626  0.7394  0.9434
  984MOL0     O35655   7.500   3.259   4.425 -0.3409  0.7234  0.4595
  984MOL0     C35656   7.500   3.363   4.361 -0.1550 -0.1178  0.9450
  984MOL0     O35657   7.533   3.486   4.424  0.3693  0.0745 -0.1122
  984MOL0     C35658   7.558   3.486   4.557  0.5432 -0.2982 -1.0587
  984MOL0     C35659   7.481   3.564   4.648  0.1739  0.5292 -0.1979
  984MOL0     C35660   7.482   3.532   4.791 -0.8325 -0.1801  0.8623
  984MOL0     C35661   7.583   3.453   4.848  0.4348 -0.8488  0.7452
  984MOL0     O35662   7.584   3.446   4.983  0.3973 -0.3746  0.0572
  984MOL0     C35663   7.616   3.315   5.046 -0.3098  0.4160 -0.5940
  984MOL0     C35664   7.542   3.321   5.178 -0.3116  0.7091  0.0267
  984MOL0     C35665   7.539   3.179   5.251 -0.9530 -0.9214  0.0681
  984MOL0     C35666   7.456   3.175   5.376  0.3157 -0.8032  0.0008
  984MOL0     C35667   7.507   3.072   5.485 -0.2869 -0.4339 -0.6707
  984MOL0     C35668   7.583   3.155   5.595  0.3183 -0.2785  0.0254
  984MOL0     C35669   7.652   3.054   5.684  0.1768 -0.2584 -0.2318
  984MOL0     C35670   7.724   3.131   5.786  0.1801 -0.6144 -0.4845
  984MOL0     N35671   7.631   3.203   5.871  0.1142 -0.1401 -0.1775
  984MOL0     C35672   7.544   3.145   5.959 -0.3225 -0.8015  0.2800
  984MOL0     C35673   7.503   3.237   6.053 -0.3658  0.5040  0.3012
  984MOL0     C35674   7.410   3.211   6.189 -0.5869 -0.3474 -0.1539
  984MOL0     C35675   7.316   3.095   6.164  0.2075 -0.4371  0.3435
  984MOL0     C35676   7.232   3.062   6.283  0.6352 -0.1671  0.3580
  984MOL0     C35677   7.099   3.144   6.292  0.2721 -0.5453  0.1001
  984MOL0     O35678   7.134   3.280   6.317  0.8531  0.1643  0.0189
  984MOL0     C35679   7.068   3.381   6.248  0.3449 -1.1503  0.2867
  984MOL0     C35680   7.115   3.507   6.273  0.8724  0.5532 -0.1966
  984MOL0     C35681   7.074   3.618   6.203  0.0345 -0.0454  0.6076
  984MOL0     C35682   7.137   3.751   6.236  0.2920 -0.9864 -0.0624
  984MOL0     C35683   6.979   3.600   6.091  0.8827 -0.6102  0.3800
  984MOL0     C35684   6.923   3.707   6.004  0.2466 -0.0718  0.1157
  984MOL0     O35685   6.864   3.667   5.885  0.4655  0.7324  0.4302
  984MOL0     C35686   6.823   3.768   5.810  0.4356  0.3110  0.3956
  984MOL0     C35687   6.891   3.805   5.696  0.2875  0.6937  0.4721
  984MOL0     C35688   6.852   3.920   5.627  0.0349 -0.0959 -0.6947
  984MOL0     C35689   6.753   4.008   5.676 -1.0204  0.6131 -0.3036
  984MOL0     O35690   6.728   4.130   5.624  0.5023  0.0360  0.4411
  984MOL0     C35691   6.838   4.201   5.560  0.5403  0.4766 -0.5326
  984MOL0     C35692   6.794   4.341   5.549 -0.6661 -0.7365  0.3058
  984MOL0     C35693   6.883   4.419   5.455  0.0254 -0.5930  0.9088
  984MOL0     C35694   6.819   4.557   5.421 -0.5464 -0.1133  0.5597
  984MOL0     C35695   6.671   4.553   5.391 -0.0917  0.4794 -0.2372
  984MOL0     C35696   6.630   4.693   5.334  0.3449 -0.2023  0.1524
  984MOL0     C35697   6.656   4.820   5.410  0.7060 -0.0069 -0.6094
  984MOL0     C35698   6.585   4.808   5.542  0.4427 -0.1753  0.0022
  984MOL0    Cl35699   6.618   4.955   5.644 -0.5570  0.6704  0.0145
  984MOL0     C35700   6.687   3.971   5.794 -1.2469  1.0493 -0.8616
  984MOL0     C35701   6.727   3.857   5.857  0.7647 -0.6457 -0.0825
  984MOL0     O35702   6.924   3.829   6.043 -0.8076  0.2110 -1.1495
  984MOL0     C35703   6.916   3.468   6.088 -0.7714  0.7890  1.0614
  984MOL0     C35704   6.964   3.359   6.156  0.6840  0.1425  0.1907
  984MOL0     N35705   7.581   3.350   6.018  0.6375 -0.1166 -0.7050
  984MOL0     N35706   7.648   3.335   5.913  0.6726 -0.9567 -0.0882
  984MOL0     C35707   7.668   3.378   4.753 -0.6035 -0.6803 -0.6605
  984MOL0     C35708   7.655   3.399   4.613 -0.2474 -0.1712 -0.7451
  984MOL0     C35709   7.475   3.361   4.212  1.0234 -0.5501 -0.7446
  984MOL0     C35710   7.480   3.480   4.144  0.0652  0.6726 -0.9949
  984MOL0     C35711   7.463   3.494   4.008 -0.7901 -0.8391  0.4461
  984MOL0     C35712   7.419   3.389   3.933 -0.2055  0.3278  0.2777
  984MOL0     O35713   7.394   3.398   3.798 -0.1221  0.2580 -0.5875
  984MOL0     C35714   7.287   3.312   3.745  0.4921  1.1245 -0.3249
  984MOL0     C35715   7.224   3.349   3.618  0.0829 -0.8523  0.2505
  984MOL0     C35716   7.162   3.493   3.623 -0.3519 -1.5034 -0.6288
  984MOL0     C35717   7.107   3.531   3.478  0.8766  0.9575  0.0050
  984MOL0     C35718   7.205   3.608   3.395 -0.2579  0.5136 -0.5243
  984MOL0     C35719   7.285   3.682   3.334  0.8994  0.4566 -0.1370
  984MOL0     C35720   7.417   3.264   3.997  0.8298  1.0178  0.1168
  984MOL0     C35721   7.441   3.246   4.138 -0.2193  0.1960  0.9536
  984MOL0     C35722   7.441   3.102   4.187  0.5707  1.0543  0.2177
  984MOL0     H35723   7.403   3.629   4.611 -0.4050  0.8446  1.5097
  984MOL0     H35724   7.402   3.561   4.859 -1.7533 -0.2231 -0.1661
  984MOL0     H35725   7.725   3.307   5.055 -0.2105  0.9128 -1.3488
  984MOL0     H35726   7.582   3.225   4.994 -1.4584 -0.7098  1.8859
  984MOL0     H35727   7.603   3.382   5.246 -0.1163  0.5312  0.0111
  984MOL0     H35728   7.438   3.356   5.170 -0.6004 -0.2794 -0.7390
  984MOL0     H35729   7.499   3.105   5.182  0.0678 -0.7452 -0.7220
  984MOL0     H35730   7.643   3.157   5.277 -1.4320  1.1562  5.0901
  984MOL0     H35731   7.463   3.275   5.422 -0.6944  0.3126 -2.1326
  984MOL0     H35732   7.351   3.155   5.355  0.3499 -2.3675  1.1592
  984MOL0     H35733   7.571   2.998   5.436 -0.1093 -0.1545 -0.8561
  984MOL0     H35734   7.428   3.011   5.531  1.0258 -1.5884  0.1305
  984MOL0     H35735   7.663   3.201   5.535  0.2731 -0.9751 -0.5873
  984MOL0     H35736   7.516   3.220   5.652  0.4433  0.0319 -0.1817
  984MOL0     H35737   7.725   2.994   5.628 -0.7521 -2.9083  1.2065
  984MOL0     H35738   7.581   2.977   5.715 -1.0684  1.1115  0.4476
  984MOL0     H35739   7.776   3.059   5.851 -2.4365 -0.2759  2.1936
  984MOL0     H35740   7.803   3.199   5.752  0.0366  0.0248  0.4117
  984MOL0     H35741   7.516   3.040   5.965  1.0007 -1.1701  0.2613
  984MOL0     H35742   7.368   3.309   6.214 -4.2228 -2.2731  2.1088
  984MOL0     H35743   7.484   3.176   6.262  0.6683  1.4312 -0.4936
  984MOL0     H35744   7.250   3.115   6.079  0.5190  1.6033  0.5377
  984MOL0     H35745   7.379   3.008   6.145  2.0087  1.0650 -0.8843
  984MOL0     H35746   7.202   2.957   6.277 -3.2175  0.6297  2.3651
  984MOL0     H35747   7.296   3.062   6.372  3.6758 -2.1176 -1.6288
  984MOL0     H35748   7.037   3.123   6.204 -0.7264  2.3363  0.0288
  984MOL0     H35749   7.042   3.106   6.377  1.9646  0.4221  1.7459
  984MOL0     H35750   7.175   3.517   6.363  2.2257 -1.9752 -0.7094
  984MOL0     H35751   7.239   3.746   6.276  0.8401  1.0648 -1.0745
  984MOL0     H35752   7.071   3.802   6.306  2.4137 -2.1128  3.0026
  984MOL0     H35753   7.137   3.819   6.150  1.3895  0.7485  1.2374
  984MOL0     H35754   6.972   3.742   5.661 -0.2111  1.7685 -3.0630
  984MOL0     H35755   6.899   3.939   5.531  1.8501 -0.2304  0.1183
  984MOL0     H35756   6.922   4.197   5.630 -0.3872 -1.9995  0.5953
  984MOL0     H35757   6.867   4.150   5.467  2.2828 -3.2710  1.7806
  984MOL0     H35758   6.692   4.338   5.509  0.1315 -0.9247 -1.8282
  984MOL0     H35759   6.782   4.397   5.642  1.5324 -0.1589  0.2833
  984MOL0     H35760   6.885   4.367   5.358  1.4583 -0.5589  0.8897
  984MOL0     H35761   6.982   4.427   5.500  0.5741 -1.1937 -0.1433
  984MOL0     H35762   6.876   4.606   5.342 -1.6309  1.0034  0.4409
  984MOL0     H35763   6.821   4.630   5.503 -3.6389  1.2030 -0.3913
  984MOL0     H35764   6.654   4.477   5.314 -1.7149 -2.1339  2.4709
  984MOL0     H35765   6.614   4.537   5.483  1.3619 -1.9062  0.3477
  984MOL0     H35766   6.523   4.689   5.312  0.9431 -3.6408 -2.9454
  984MOL0     H35767   6.681   4.721   5.241 -0.4885  2.0151  0.2834
  984MOL0     H35768   6.621   4.913   5.364 -1.3285  1.4212  3.3416
  984MOL0     H35769   6.763   4.823   5.430  0.8591  1.8752 -1.4960
  984MOL0     H35770   6.617   4.717   5.593 -1.8311 -2.7051 -2.6760
  984MOL0     H35771   6.478   4.797   5.525  0.8892 -2.8709 -1.7242
  984MOL0     H35772   6.602   4.026   5.831 -1.5978 -0.8539  1.4175
  984MOL0     H35773   6.679   3.852   5.954  1.4302 -0.2268  0.2784
  984MOL0     H35774   6.832   3.451   6.022  0.8192 -0.9462 -0.6178
  984MOL0     H35775   6.910   3.267   6.138  2.4115 -1.0066  0.6334
  984MOL0     H35776   7.746   3.310   4.786  0.7482  0.7647 -0.7610
  984MOL0     H35777   7.727   3.344   4.553 -0.8436 -0.2560 -1.3869
  984MOL0     H35778   7.510   3.571   4.195  1.2493  0.2249 -0.8513
  984MOL0     H35779   7.481   3.586   3.952  0.6743 -1.1829  0.3114
  984MOL0     H35780   7.332   3.213   3.733  0.7728  1.2225 -0.0870
  984MOL0     H35781   7.211   3.297   3.822 -2.6882  1.1963 -3.1994
  984MOL0     H35782   7.145   3.275   3.599 -0.7878  0.3120 -0.8957
  984MOL0     H35783   7.296   3.330   3.538 -0.4340 -0.4178 -0.3301
  984MOL0     H35784   7.090   3.481   3.705  0.3005 -2.0311 -0.1244
  984MOL0     H35785   7.246   3.558   3.648  0.1111 -1.6414 -1.7396
  984MOL0     H35786   7.018   3.594   3.491 -1.3068 -1.6817 -1.1363
  984MOL0     H35787   7.076   3.443   3.421 -2.3828  1.0529  1.3803
  984MOL0     H35788   7.366   3.738   3.293  1.5959  0.8937  1.7471
  984MOL0     H35789   7.374   3.178   3.948 -0.0717  1.1748  0.6009
  984MOL0     H35790   7.543   3.077   4.218  1.2164  1.7290 -1.2796
  984MOL0     H35791   7.395   3.090   4.286 -0.3472  2.1954 -0.0461
  984MOL0     H35792   7.401   3.031   4.114  3.1457 -0.9212  0.5978
  985MOL0     O35793   8.459  10.717   2.452  0.1745  0.0562  0.6155
  985MOL0     C35794   8.452  10.820   2.384 -1.3043 -0.3385  0.0208
  985MOL0     O35795   8.559  10.899   2.345 -0.1163 -0.1035 -0.1943
  985MOL0     C35796   8.687  10.861   2.380 -1.0537 -0.2768 -0.0075
  985MOL0     C35797   8.753  10.766   2.304 -0.4070  0.4573 -0.5689
  985MOL0     C35798   8.892  10.737   2.324  0.2417  1.1393  0.5220
  985MOL0     C35799   8.957  10.811   2.419 -0.1614  0.3745 -0.1172
  985MOL0     O35800   9.094  10.782   2.452  0.5951  0.0523  0.0593
  985MOL0     C35801   9.184  10.703   2.365  0.1617 -0.2396 -0.3021
  985MOL0     C35802   9.326  10.724   2.406 -0.2110 -0.6101  0.5215
  985MOL0     C35803   9.379  10.651   2.528 -0.1138 -0.2833  0.2976
  985MOL0     C35804   9.319  10.696   2.670 -0.9491 -0.5393 -0.0858
  985MOL0     C35805   9.394  10.645   2.790 -0.3321 -0.2112  0.9560
  985MOL0     C35806   9.528  10.703   2.805 -1.0986  0.0793 -0.2500
  985MOL0     C35807   9.605  10.635   2.923 -0.2525 -0.6311  0.1739
  985MOL0     C35808   9.742  10.702   2.945  0.1411  0.4169 -0.3028
  985MOL0     N35809   9.825  10.710   2.823 -0.1818 -0.1450  0.3326
  985MOL0     C35810   9.855  10.611   2.735 -0.8757  0.0589 -0.9562
  985MOL0     C35811   9.942  10.657   2.646  0.0404 -0.2816 -0.9679
  985MOL0     C35812   9.989  10.563   2.534 -0.4135  0.6825 -0.2239
  985MOL0     C35813  10.016  10.419   2.581 -0.4929  0.2312  0.4730
  985MOL0     C35814  10.112  10.349   2.476  0.0606  0.7129 -0.2292
  985MOL0     C35815  10.129  10.197   2.514 -0.4397  0.1549  0.2094
  985MOL0     O35816  10.218  10.179   2.626  0.3890 -1.2020  0.6464
  985MOL0     C35817  10.314  10.083   2.633 -0.0533  0.0681  0.7080
  985MOL0     C35818  10.359  10.015   2.523  0.4465  0.3733 -0.1747
  985MOL0     C35819  10.461   9.916   2.541  0.0539 -0.3433  0.4224
  985MOL0     C35820  10.496   9.833   2.416  0.3830  0.2498 -0.3236
  985MOL0     C35821  10.509   9.892   2.673  0.5411  0.3117 -0.4285
  985MOL0     C35822  10.613   9.791   2.697  0.2685 -1.1764 -0.2681
  985MOL0     O35823  10.678   9.735   2.590 -0.6739 -0.2679 -0.3264
  985MOL0     C35824  10.784   9.644   2.608  0.2567 -0.3017 -0.5057
  985MOL0     C35825  10.869   9.632   2.723 -0.6031 -0.2411 -0.0956
  985MOL0     C35826  10.958   9.523   2.720 -0.4639 -0.2511 -0.1890
  985MOL0     C35827  10.959   9.425   2.621 -0.0279 -0.3178  0.7822
  985MOL0     O35828  11.063   9.332   2.624 -0.4204 -0.2960  0.4399
  985MOL0     C35829  11.111   9.288   2.747 -0.5817 -0.8404 -0.4161
  985MOL0     C35830  11.155   9.150   2.742  0.5571 -0.8414  0.4184
  985MOL0     C35831  11.043   9.053   2.760 -0.4837 -0.2912 -0.2816
  985MOL0     C35832  10.930   9.074   2.655 -0.2267 -0.4978 -0.1032
  985MOL0     C35833  10.859   8.945   2.628 -0.5146 -0.9939  1.0145
  985MOL0     C35834  10.716   8.975   2.564 -0.3816 -0.5396 -0.8390
  985MOL0     C35835  10.628   8.858   2.581  0.8551 -0.5881  0.1913
  985MOL0     C35836  10.498   8.868   2.502 -1.4698 -0.4713  0.0111
  985MOL0    Cl35837  10.368   8.791   2.584  0.2864 -0.5953 -0.2887
  985MOL0     C35838  10.891   9.450   2.512  0.2823  0.1246  0.4345
  985MOL0     C35839  10.795   9.548   2.504 -0.4138 -1.3300 -1.2492
  985MOL0     O35840  10.640   9.768   2.816  0.4014  0.0277  0.2285
  985MOL0     C35841  10.454   9.961   2.783  0.2047 -0.2078  0.3590
  985MOL0     C35842  10.360  10.058   2.766  0.3738 -0.1021  0.3914
  985MOL0     N35843   9.959  10.800   2.669 -0.6753  0.2613 -0.7186
  985MOL0     N35844   9.887  10.825   2.778  0.6611 -0.2568  0.2159
  985MOL0     C35845   8.887  10.912   2.494  0.2242  0.1281  0.0064
  985MOL0     C35846   8.762  10.945   2.462  0.1242 -0.2671  0.1688
  985MOL0     C35847   8.312  10.876   2.381  0.4400 -0.1287  0.1872
  985MOL0     C35848   8.283  11.016   2.375  0.0597 -0.4509  0.2116
  985MOL0     C35849   8.153  11.061   2.380 -0.0233  0.9790  0.7103
  985MOL0     C35850   8.044  10.978   2.378 -1.0129 -0.1247  0.0649
  985MOL0     O35851   7.918  11.036   2.397 -0.2764 -0.7946 -0.2126
  985MOL0     C35852   7.804  10.953   2.384 -0.0537 -0.1048 -0.5311
  985MOL0     C35853   7.769  10.924   2.230 -0.2263 -0.5653  0.4393
  985MOL0     C35854   7.664  10.818   2.209 -0.1948  0.6062  0.5535
  985MOL0     C35855   7.524  10.873   2.224  0.1717 -0.5124 -0.0607
  985MOL0     C35856   7.429  10.777   2.191  0.2319  0.0376 -0.1704
  985MOL0     C35857   7.344  10.693   2.165  0.2572  0.3741  0.6096
  985MOL0     C35858   8.067  10.842   2.386 -0.5257  1.5319 -0.2333
  985MOL0     C35859   8.197  10.786   2.382 -0.4024  0.2823 -0.3415
  985MOL0     C35860   8.207  10.637   2.368  0.9955  0.6473 -1.2642
  985MOL0     H35861   8.691  10.712   2.234 -0.7114  2.8710 -2.2855
  985MOL0     H35862   8.933  10.658   2.262 -1.3761 -0.3642  1.2838
  985MOL0     H35863   9.175  10.740   2.263  2.5312  1.4671  0.0173
  985MOL0     H35864   9.157  10.598   2.379 -0.7774  0.4565  5.6658
  985MOL0     H35865   9.378  10.687   2.317  0.1569 -1.6197  1.1361
  985MOL0     H35866   9.344  10.832   2.408  4.6803 -1.1715 -0.4043
  985MOL0     H35867   9.363  10.543   2.527  4.3353 -1.2011  1.9056
  985MOL0     H35868   9.489  10.657   2.522 -0.2329  3.0303 -0.6691
  985MOL0     H35869   9.318  10.804   2.690  1.9934 -0.7720  1.7896
  985MOL0     H35870   9.213  10.668   2.675 -1.0372 -0.3043 -0.5548
  985MOL0     H35871   9.401  10.536   2.781  0.6650 -0.0744 -0.0951
  985MOL0     H35872   9.345  10.652   2.888  1.0489 -0.7131  1.7078
  985MOL0     H35873   9.588  10.690   2.715  1.5405  0.5683  1.3465
  985MOL0     H35874   9.534  10.812   2.815  0.6707 -0.0372  0.2440
  985MOL0     H35875   9.628  10.531   2.898  2.4499  0.0942 -0.6850
  985MOL0     H35876   9.557  10.646   3.021 -0.2543 -0.9881  0.2158
  985MOL0     H35877   9.722  10.802   2.983 -0.1107  1.1235 -2.1822
  985MOL0     H35878   9.794  10.635   3.014 -1.5935 -1.5314 -0.7797
  985MOL0     H35879   9.820  10.509   2.739 -0.4351 -0.0894 -0.8681
  985MOL0     H35880  10.089  10.598   2.507  1.3126 -0.0209  4.3512
  985MOL0     H35881   9.914  10.570   2.455 -0.2765  0.4886 -0.3720
  985MOL0     H35882  10.064  10.422   2.679 -1.4563  0.9041  0.9505
  985MOL0     H35883   9.919  10.368   2.583 -1.4153  1.4734 -3.1491
  985MOL0     H35884  10.059  10.344   2.381 -1.7327 -0.9777  0.7777
  985MOL0     H35885  10.213  10.390   2.468  1.8793 -2.6917  2.5003
  985MOL0     H35886  10.026  10.171   2.539 -1.7347  3.9978 -0.5898
  985MOL0     H35887  10.167  10.140   2.428 -1.0219 -1.1576  0.7887
  985MOL0     H35888  10.325  10.015   2.420  0.3948  0.5110 -0.1566
  985MOL0     H35889  10.442   9.863   2.326  2.5326 -0.7235 -2.0451
  985MOL0     H35890  10.449   9.734   2.421  2.6051 -0.9518 -1.5673
  985MOL0     H35891  10.601   9.838   2.386  0.2616  3.3262 -0.5699
  985MOL0     H35892  10.881   9.702   2.805 -0.3545  1.1259 -1.2540
  985MOL0     H35893  11.016   9.507   2.810 -3.2986  0.1460  1.8060
  985MOL0     H35894  11.198   9.349   2.771 -1.4902  0.3832 -0.1160
  985MOL0     H35895  11.037   9.304   2.826 -0.7798  3.4831 -1.2107
  985MOL0     H35896  11.197   9.141   2.641  1.9575  2.8575  0.4975
  985MOL0     H35897  11.230   9.141   2.822  0.0284  1.2722  1.2028
  985MOL0     H35898  11.002   9.075   2.859 -0.1616  2.5055 -0.6921
  985MOL0     H35899  11.070   8.947   2.763 -2.4737 -0.8103  0.9176
  985MOL0     H35900  10.970   9.114   2.561  1.2092  4.8688  2.3950
  985MOL0     H35901  10.866   9.151   2.700  3.9080  1.3506  3.3313
  985MOL0     H35902  10.916   8.885   2.557  0.3580 -1.2141  1.8734
  985MOL0     H35903  10.846   8.888   2.721  1.0338  1.1948  2.7005
  985MOL0     H35904  10.723   9.009   2.461 -0.9186 -1.1385 -1.0745
  985MOL0     H35905  10.657   9.050   2.617 -0.7614 -1.6746  0.4056
  985MOL0     H35906  10.593   8.869   2.683 -0.0882  1.8191 -0.3458
  985MOL0     H35907  10.680   8.762   2.566  1.0457 -0.9044  2.5677
  985MOL0     H35908  10.507   8.819   2.405  0.2643  1.4118 -0.8384
  985MOL0     H35909  10.475   8.973   2.480  2.7180  1.2495  2.5494
  985MOL0     H35910  10.900   9.381   2.428 -1.7396 -1.6569  1.5684
  985MOL0     H35911  10.732   9.570   2.419  0.6438  0.6029 -1.5890
  985MOL0     H35912  10.493   9.940   2.882  2.0943  1.1375 -0.0472
  985MOL0     H35913  10.308  10.118   2.840 -1.0515 -0.0729 -0.5943
  985MOL0     H35914   8.927  10.979   2.570 -1.4092  1.4141 -0.2051
  985MOL0     H35915   8.727  11.035   2.511 -0.1746  0.2943 -1.0417
  985MOL0     H35916   8.367  11.083   2.389  0.4780 -0.9320  0.0654
  985MOL0     H35917   8.142  11.169   2.368 -2.2846  0.7709  0.3882
  985MOL0     H35918   7.816  10.863   2.446  0.6927  0.4241  0.1021
  985MOL0     H35919   7.718  11.006   2.426 -2.6228 -3.8337 -0.5216
  985MOL0     H35920   7.856  10.885   2.177 -0.8487 -1.8332  0.3227
  985MOL0     H35921   7.739  11.015   2.179  2.8256  1.8900  2.5978
  985MOL0     H35922   7.677  10.770   2.112 -1.8646 -1.0359  1.1039
  985MOL0     H35923   7.672  10.740   2.285 -1.4219 -1.6062 -1.4501
  985MOL0     H35924   7.503  10.958   2.158 -0.9943  1.2200  2.3886
  985MOL0     H35925   7.505  10.913   2.324 -2.0317 -1.3925 -0.0702
  985MOL0     H35926   7.267  10.622   2.145  2.8201 -1.9487 -2.1985
  985MOL0     H35927   7.985  10.773   2.406 -1.6087  3.5158  3.0160
  985MOL0     H35928   8.252  10.587   2.454 -0.9021 -0.5670 -0.9313
  985MOL0     H35929   8.112  10.586   2.353  0.0579  0.3212  3.9871
  985MOL0     H35930   8.270  10.622   2.280 -1.1833  0.1333 -2.8028
  986MOL0     O35931   6.013  11.457   9.183 -0.4449  0.8174  0.0314
  986MOL0     C35932   6.106  11.515   9.236  0.1272 -0.1245  1.0530
  986MOL0     O35933   6.193  11.594   9.169  0.3982 -0.0762  0.0665
  986MOL0     C35934   6.164  11.626   9.042  1.2562 -0.1227 -0.2388
  986MOL0     C35935   6.252  11.588   8.943  0.9123 -0.9846  0.1963
  986MOL0     C35936   6.228  11.644   8.813  0.8414  0.0226  0.7595
  986MOL0     C35937   6.117  11.725   8.785 -0.2230 -0.2092  0.0833
  986MOL0     O35938   6.123  11.784   8.657  0.0663  0.4928  0.5260
  986MOL0     C35939   6.012  11.870   8.620 -0.5654  0.9256 -0.6180
  986MOL0     C35940   5.867  11.805   8.598 -0.0526 -0.0408  0.1402
  986MOL0     C35941   5.854  11.746   8.462 -0.8227  0.3855  0.3268
  986MOL0     C35942   5.883  11.840   8.338 -0.4102  0.3719 -0.4561
  986MOL0     C35943   5.791  11.819   8.227 -1.4528 -0.4328  0.3717
  986MOL0     C35944   5.825  11.900   8.107  0.1350  0.1537 -0.0476
  986MOL0     C35945   5.841  12.047   8.128 -0.7330 -0.4423  0.3500
  986MOL0     C35946   5.838  12.129   7.997 -1.3591 -0.6415 -0.6573
  986MOL0     N35947   5.950  12.098   7.906 -0.3778  0.3664 -0.0851
  986MOL0     C35948   5.933  12.001   7.808 -0.1007  0.9341  0.1353
  986MOL0     C35949   6.066  11.985   7.758 -0.2524  0.0576  0.5689
  986MOL0     C35950   6.104  11.888   7.648  0.2647  0.5992 -0.0932
  986MOL0     C35951   5.994  11.786   7.616  0.0400 -0.5315 -0.6988
  986MOL0     C35952   6.006  11.681   7.501 -0.3240  0.2679  0.7995
  986MOL0     C35953   6.027  11.733   7.355 -0.2424 -0.2931  1.1683
  986MOL0     O35954   5.880  11.749   7.317 -0.4410  0.4733  0.2290
  986MOL0     C35955   5.858  11.823   7.206 -0.2788 -0.4213  0.4286
  986MOL0     C35956   5.726  11.844   7.186  0.5355 -0.1036 -0.4958
  986MOL0     C35957   5.685  11.931   7.083  0.0043  0.4357  0.6078
  986MOL0     C35958   5.537  11.959   7.051 -0.1235 -0.4531 -0.8309
  986MOL0     C35959   5.796  11.987   7.001  0.2084  0.6355  0.5402
  986MOL0     C35960   5.767  12.091   6.890 -0.9352 -0.0388 -0.2365
  986MOL0     O35961   5.726  12.211   6.931 -0.3286 -0.1306 -0.4627
  986MOL0     C35962   5.713  12.304   6.827 -0.3612  0.9030 -0.0798
  986MOL0     C35963   5.624  12.289   6.719 -0.0554 -0.1859 -0.4780
  986MOL0     C35964   5.608  12.396   6.636 -1.5116 -0.4600  0.6379
  986MOL0     C35965   5.680  12.514   6.655  0.1627 -0.7475  0.0458
  986MOL0     O35966   5.644  12.606   6.567  0.4004 -0.3535  0.2634
  986MOL0     C35967   5.615  12.740   6.599  0.3011 -1.0367 -0.3507
  986MOL0     C35968   5.492  12.757   6.694  0.6676 -0.6801 -0.0921
  986MOL0     C35969   5.363  12.680   6.655  0.2335 -0.7687 -0.7142
  986MOL0     C35970   5.327  12.689   6.497  0.0782 -0.2253  0.0985
  986MOL0     C35971   5.213  12.592   6.466  0.3966  0.4530  0.2410
  986MOL0     C35972   5.253  12.446   6.467  0.2629  0.1735 -0.2920
  986MOL0     C35973   5.330  12.399   6.346  0.2977  0.1366  0.3072
  986MOL0     C35974   5.327  12.246   6.339  0.2664 -0.5748 -0.4913
  986MOL0    Cl35975   5.158  12.212   6.300  0.0551  0.1081  0.4748
  986MOL0     C35976   5.767  12.533   6.758 -0.4930  0.0860 -0.7654
  986MOL0     C35977   5.778  12.426   6.843  0.1686  0.6934 -1.0262
  986MOL0     O35978   5.802  12.062   6.775 -0.1361 -0.3146  0.5652
  986MOL0     C35979   5.928  11.949   7.016 -0.9043  0.1556  0.0008
  986MOL0     C35980   5.960  11.869   7.116 -0.5863  1.1052 -0.2354
  986MOL0     N35981   6.154  12.080   7.815  0.6467  0.5940  0.6927
  986MOL0     N35982   6.084  12.145   7.904 -0.1887  0.2631  0.5054
  986MOL0     C35983   6.028  11.764   8.888  0.7141 -0.2894 -0.2994
  986MOL0     C35984   6.050  11.708   9.018 -0.4343  0.2926 -0.4790
  986MOL0     C35985   6.122  11.496   9.385  0.0085  0.1666  0.1713
  986MOL0     C35986   6.206  11.583   9.452 -0.4206  0.4113  0.6427
  986MOL0     C35987   6.224  11.568   9.588  0.4418 -0.7725  0.1461
  986MOL0     C35988   6.164  11.467   9.660 -1.0734  0.5734  0.6619
  986MOL0     O35989   6.211  11.462   9.789 -0.2638 -0.2532 -0.9832
  986MOL0     C35990   6.121  11.405   9.885  0.2694  0.5865 -0.3157
  986MOL0     C35991   6.132  11.477  10.013  0.7379  0.9377 -0.2229
  986MOL0     C35992   6.077  11.390  10.138 -1.3375 -0.3017  0.4543
  986MOL0     C35993   6.028  11.482  10.260  0.1212  0.5664 -0.4817
  986MOL0     C35994   5.895  11.524  10.221 -0.5404 -0.2295  0.3950
  986MOL0     C35995   5.782  11.549  10.183  1.3950 -0.6602 -0.5239
  986MOL0     C35996   6.079  11.380   9.596 -0.4772  0.5629  1.1625
  986MOL0     C35997   6.056  11.391   9.459  0.6545  0.3710  0.3019
  986MOL0     C35998   5.960  11.284   9.411 -0.6142  0.9883  0.4969
  986MOL0     H35999   6.341  11.528   8.960  3.3494  1.5800 -2.2133
  986MOL0     H36000   6.300  11.621   8.736  0.8253 -5.4225  1.9564
  986MOL0     H36001   6.053  11.916   8.530 -1.5857  4.6299  0.6174
  986MOL0     H36002   5.995  11.953   8.689 -2.0146 -0.7147  1.1147
  986MOL0     H36003   5.846  11.726   8.670  1.3286  0.9163  1.6723
  986MOL0     H36004   5.782  11.873   8.611 -2.2148 -2.9468  2.8170
  986MOL0     H36005   5.923  11.661   8.462 -0.2546  0.8325  0.9918
  986MOL0     H36006   5.749  11.715   8.455 -1.2222  1.1588  2.3599
  986MOL0     H36007   5.877  11.943   8.376  1.9225 -0.7501  3.5639
  986MOL0     H36008   5.987  11.827   8.305 -0.4553  0.8464 -0.8034
  986MOL0     H36009   5.686  11.842   8.242 -2.2996 -0.9929 -3.5305
  986MOL0     H36010   5.803  11.713   8.206  1.3883 -0.4816  1.6866
  986MOL0     H36011   5.917  11.868   8.057  0.1421  2.2138 -1.5030
  986MOL0     H36012   5.739  11.880   8.042  0.0286  1.8647 -0.4911
  986MOL0     H36013   5.941  12.066   8.169  1.1927 -1.3458 -3.4816
  986MOL0     H36014   5.761  12.082   8.194 -0.5236  1.8546 -0.5154
  986MOL0     H36015   5.742  12.132   7.944 -2.1865  1.0403  0.8719
  986MOL0     H36016   5.861  12.229   8.033  1.3496  0.0496 -3.8165
  986MOL0     H36017   5.845  11.947   7.775  1.1535 -1.4974  0.5449
  986MOL0     H36018   6.191  11.833   7.684  1.3016  1.0505 -1.7885
  986MOL0     H36019   6.133  11.937   7.554 -2.2554 -0.3964 -1.5047
  986MOL0     H36020   5.972  11.722   7.701 -0.9682  0.7915  0.0742
  986MOL0     H36021   5.909  11.851   7.593  0.9584  0.2419 -2.1302
  986MOL0     H36022   6.099  11.626   7.522  1.6954  3.4642  0.9828
  986MOL0     H36023   5.914  11.624   7.511 -0.9129  0.7964 -1.1027
  986MOL0     H36024   6.087  11.824   7.345 -3.0828  1.5495 -1.0326
  986MOL0     H36025   6.069  11.659   7.287 -0.4420  1.0749 -0.5338
  986MOL0     H36026   5.654  11.791   7.246  0.6340  0.0560 -0.2340
  986MOL0     H36027   5.527  12.064   7.080  0.1759 -0.4722 -0.6619
  986MOL0     H36028   5.477  11.897   7.118  1.3437  0.7110  1.7016
  986MOL0     H36029   5.516  11.956   6.944 -3.8200  1.5018 -0.3381
  986MOL0     H36030   5.571  12.194   6.714  0.2730 -0.3901 -0.1711
  986MOL0     H36031   5.547  12.405   6.547 -1.1145  1.2207  0.5014
  986MOL0     H36032   5.701  12.794   6.641 -1.7661  1.4576  0.9590
  986MOL0     H36033   5.598  12.793   6.505  0.4278 -0.5255 -0.0885
  986MOL0     H36034   5.520  12.731   6.796  1.4818  1.5040  0.2941
  986MOL0     H36035   5.460  12.862   6.688 -0.3637 -0.9841 -5.7642
  986MOL0     H36036   5.279  12.702   6.722 -0.6781 -3.0797 -1.0080
  986MOL0     H36037   5.385  12.578   6.687  2.1420 -0.7499 -1.7875
  986MOL0     H36038   5.419  12.652   6.450  0.3917 -0.2693  0.7297
  986MOL0     H36039   5.319  12.796   6.479 -1.4099  0.6423  4.5587
  986MOL0     H36040   5.138  12.613   6.543 -0.1429 -0.4734 -0.0117
  986MOL0     H36041   5.169  12.624   6.371  0.5208  3.0828  1.0054
  986MOL0     H36042   5.157  12.394   6.473  1.0072 -1.0988  1.2645
  986MOL0     H36043   5.309  12.426   6.558 -0.6330 -3.0153 -0.2977
  986MOL0     H36044   5.433  12.433   6.359  1.3504 -2.4818 -0.6387
  986MOL0     H36045   5.296  12.445   6.253 -1.7451  0.7535  1.3027
  986MOL0     H36046   5.366  12.205   6.433 -4.4812  2.1341  3.1391
  986MOL0     H36047   5.396  12.210   6.262  1.6141  0.8385 -0.0107
  986MOL0     H36048   5.805  12.633   6.771 -0.0681 -0.0267 -1.1121
  986MOL0     H36049   5.848  12.436   6.925  1.0279 -1.1248 -1.4798
  986MOL0     H36050   6.004  11.999   6.956 -0.1163 -1.6576 -0.5802
  986MOL0     H36051   6.067  11.854   7.120 -0.0201  2.3066 -5.1483
  986MOL0     H36052   5.937  11.819   8.868  1.4287  1.0040 -0.0931
  986MOL0     H36053   5.988  11.735   9.103  0.0209  1.2125 -0.4256
  986MOL0     H36054   6.257  11.655   9.389  2.6478  0.0133  2.4524
  986MOL0     H36055   6.267  11.646   9.649  0.0369 -1.0084  0.7426
  986MOL0     H36056   6.017  11.415   9.854 -0.6057 -3.7309  0.6111
  986MOL0     H36057   6.137  11.299   9.909  0.0703  0.3471 -1.2080
  986MOL0     H36058   6.095  11.579  10.002 -2.5794 -0.0932  0.4352
  986MOL0     H36059   6.240  11.487  10.026  1.0739 -2.1253  0.2356
  986MOL0     H36060   6.003  11.321  10.096 -2.2785 -1.7296  4.1157
  986MOL0     H36061   6.157  11.330  10.183 -3.2476 -1.5830  2.3395
  986MOL0     H36062   6.092  11.571  10.266  2.9678 -1.4469  1.7018
  986MOL0     H36063   6.036  11.419  10.349  2.8668 -0.1384 -1.1250
  986MOL0     H36064   5.689  11.574  10.136  2.4320 -2.7701 -4.0952
  986MOL0     H36065   6.042  11.298   9.658 -2.5543  0.6281  0.1110
  986MOL0     H36066   6.008  11.199   9.363  0.5185  1.4926  0.6906
  986MOL0     H36067   5.897  11.257   9.497  2.2538 -1.1314  2.1086
  986MOL0     H36068   5.896  11.317   9.329 -0.8223 -0.5035  0.0431
  987MOL0     O36069  10.043  11.453   1.062 -0.6036  0.5356  0.3534
  987MOL0     C36070  10.022  11.459   1.183 -0.4817  0.6506  1.0112
  987MOL0     O36071  10.088  11.535   1.274 -0.9385 -0.2714  0.6776
  987MOL0     C36072  10.193  11.616   1.220  0.4518  0.2849 -0.5295
  987MOL0     C36073  10.166  11.715   1.121  0.2858  0.1942  0.5310
  987MOL0     C36074  10.279  11.804   1.090  0.5080  0.2347 -0.5204
  987MOL0     C36075  10.410  11.786   1.142  0.1927 -0.0212 -0.0263
  987MOL0     O36076  10.518  11.867   1.112 -0.8570 -0.0683  0.2697
  987MOL0     C36077  10.500  12.009   1.101  0.5273 -0.1752  0.7271
  987MOL0     C36078  10.629  12.080   1.046  0.0945  0.1320  0.2479
  987MOL0     C36079  10.640  12.062   0.895 -0.2672  0.0063 -0.0446
  987MOL0     C36080  10.754  12.139   0.833 -0.1314  0.1311 -0.1933
  987MOL0     C36081  10.774  12.126   0.681 -0.1711  0.4612  0.7032
  987MOL0     C36082  10.892  12.216   0.642 -1.3001  0.0252  0.0684
  987MOL0     C36083  10.917  12.227   0.491 -0.4531 -0.4873  0.8880
  987MOL0     C36084  10.806  12.322   0.437 -0.3960 -0.3792  0.1528
  987MOL0     N36085  10.847  12.361   0.302  0.0576 -0.3536  0.3886
  987MOL0     C36086  10.808  12.310   0.180 -0.3633 -0.1885 -0.1298
  987MOL0     C36087  10.884  12.380   0.077  0.7668  0.3334  0.1908
  987MOL0     C36088  10.876  12.353  -0.076  0.8089 -0.3911 -0.0202
  987MOL0     C36089  10.734  12.378  -0.127  0.0915  0.5647  0.5598
  987MOL0     C36090  10.663  12.503  -0.066 -0.4050 -0.2378 -0.0154
  987MOL0     C36091  10.727  12.636  -0.101  0.1752 -0.7080  0.6722
  987MOL0     O36092  10.795  12.621  -0.227 -0.4562 -0.4190  0.4365
  987MOL0     C36093  10.885  12.724  -0.255 -0.2834 -1.2356 -1.1441
  987MOL0     C36094  10.999  12.695  -0.326 -0.0833  0.2447  0.3813
  987MOL0     C36095  11.092  12.800  -0.377  0.3588  0.0246 -0.0221
  987MOL0     C36096  11.220  12.747  -0.434 -0.2146 -0.2550 -0.0793
  987MOL0     C36097  11.060  12.937  -0.355  0.2487 -1.0650  0.7781
  987MOL0     C36098  11.146  13.051  -0.402 -0.1360  0.5639  0.0279
  987MOL0     O36099  11.259  13.025  -0.493  0.4812  0.1352 -0.7156
  987MOL0     C36100  11.350  13.119  -0.505 -0.4468 -0.0251  0.5106
  987MOL0     C36101  11.367  13.186  -0.627  0.4117 -0.7802 -0.2380
  987MOL0     C36102  11.455  13.298  -0.634  0.2947  0.1298 -0.1031
  987MOL0     C36103  11.535  13.328  -0.530 -0.5674 -0.3375 -0.1039
  987MOL0     O36104  11.624  13.431  -0.551 -0.1942  0.3527 -0.1896
  987MOL0     C36105  11.760  13.410  -0.493  0.1090  0.4061  0.1455
  987MOL0     C36106  11.879  13.502  -0.528 -0.2010 -1.0848 -0.1744
  987MOL0     C36107  11.908  13.486  -0.681  0.3996  0.0619 -0.1077
  987MOL0     C36108  12.023  13.568  -0.726 -0.0329 -0.4882 -0.9674
  987MOL0     C36109  12.034  13.586  -0.878 -0.0955  0.6087 -0.4609
  987MOL0     C36110  12.120  13.718  -0.921 -0.2481  0.2912 -0.5544
  987MOL0     C36111  12.258  13.728  -0.867  0.3661  0.2080 -0.0544
  987MOL0     C36112  12.329  13.855  -0.917  0.1251  0.7417  0.0340
  987MOL0    Cl36113  12.374  13.840  -1.095 -0.3124 -0.0513  0.1395
  987MOL0     C36114  11.514  13.269  -0.408 -0.8415 -0.2869  0.0095
  987MOL0     C36115  11.423  13.166  -0.392  1.0725  0.6719  0.3105
  987MOL0     O36116  11.126  13.153  -0.349 -0.6303 -0.5547  1.0578
  987MOL0     C36117  10.947  12.962  -0.271 -0.2296  0.0399 -1.0185
  987MOL0     C36118  10.859  12.862  -0.223  0.3372  0.5908  0.1320
  987MOL0     N36119  10.950  12.470   0.153 -0.2991  0.2360  0.9780
  987MOL0     N36120  10.934  12.463   0.276 -0.2268  0.5910 -0.1519
  987MOL0     C36121  10.426  11.682   1.232  0.6022 -0.7725 -0.2426
  987MOL0     C36122  10.324  11.595   1.277 -0.7852 -0.4885 -0.7109
  987MOL0     C36123   9.922  11.365   1.219 -0.3573 -0.5791  0.3613
  987MOL0     C36124   9.913  11.242   1.161  0.4257 -0.5700  0.3021
  987MOL0     C36125   9.815  11.152   1.193  0.0338  0.6023  0.6608
  987MOL0     C36126   9.727  11.184   1.296 -0.0867 -0.5278 -0.3418
  987MOL0     O36127   9.642  11.097   1.360  0.6736  0.5384 -0.3393
  987MOL0     C36128   9.663  10.951   1.347 -0.0190  0.1545  0.2297
  987MOL0     C36129   9.604  10.886   1.222 -0.0290  0.1897  0.8763
  987MOL0     C36130   9.618  10.736   1.223 -0.1383 -0.0525 -0.0385
  987MOL0     C36131   9.586  10.669   1.091  0.8556  0.0929 -0.5320
  987MOL0     C36132   9.581  10.520   1.108  0.1423 -0.0748  1.1175
  987MOL0     C36133   9.597  10.402   1.113 -0.5700  0.3689  0.3351
  987MOL0     C36134   9.720  11.312   1.347 -0.8952  0.2173  0.1190
  987MOL0     C36135   9.820  11.406   1.311  0.8382  1.0232  0.2852
  987MOL0     C36136   9.815  11.538   1.371  0.6327  0.3795  0.3351
  987MOL0     H36137  10.073  11.748   1.075 -0.0096  0.2004  1.1257
  987MOL0     H36138  10.256  11.877   1.013 -3.6740  0.1703  0.4191
  987MOL0     H36139  10.465  12.056   1.194 -1.5964 -1.1813  0.5188
  987MOL0     H36140  10.420  12.028   1.028 -0.7571 -1.6359  1.6844
  987MOL0     H36141  10.613  12.188   1.049  2.5102  0.5259  1.1568
  987MOL0     H36142  10.714  12.053   1.109  1.4881  3.0893 -0.1639
  987MOL0     H36143  10.653  11.956   0.874  3.7083  0.4572 -0.5838
  987MOL0     H36144  10.550  12.108   0.853  0.6112  0.3582 -1.6277
  987MOL0     H36145  10.753  12.246   0.854  0.6455 -0.1453  1.4047
  987MOL0     H36146  10.844  12.100   0.881  1.2946  2.7252 -0.5717
  987MOL0     H36147  10.687  12.168   0.632 -1.3283 -2.4647  0.0424
  987MOL0     H36148  10.782  12.018   0.662 -1.7618  0.4710 -0.1383
  987MOL0     H36149  10.876  12.319   0.677 -0.7852  1.0816 -2.5122
  987MOL0     H36150  10.978  12.166   0.685 -0.7659 -0.8793 -1.9294
  987MOL0     H36151  10.914  12.127   0.446 -3.8758  0.4090 -1.2876
  987MOL0     H36152  11.015  12.275   0.479 -1.7391  1.6891 -2.0535
  987MOL0     H36153  10.709  12.273   0.436 -0.3809 -0.3998 -0.8531
  987MOL0     H36154  10.807  12.422   0.482 -4.8144  1.1499 -2.4880
  987MOL0     H36155  10.761  12.214   0.164 -0.3157 -0.2509  0.0971
  987MOL0     H36156  10.906  12.253  -0.109  0.6782  0.1221 -1.8314
  987MOL0     H36157  10.948  12.422  -0.123 -0.0986  3.1581  3.2898
  987MOL0     H36158  10.730  12.380  -0.237  1.3284  0.0342  0.4957
  987MOL0     H36159  10.679  12.288  -0.098  0.8536  0.0251  0.3328
  987MOL0     H36160  10.561  12.515  -0.104  1.2945  6.1071 -4.1435
  987MOL0     H36161  10.653  12.490   0.042 -0.3791  0.9121  0.1370
  987MOL0     H36162  10.651  12.714  -0.100  0.1996 -0.6635 -0.1186
  987MOL0     H36163  10.787  12.662  -0.014 -0.9685 -0.6445  1.4643
  987MOL0     H36164  11.034  12.593  -0.326 -1.1965 -0.1605 -1.3860
  987MOL0     H36165  11.307  12.792  -0.385 -1.8292  2.2716  0.6935
  987MOL0     H36166  11.223  12.777  -0.539 -1.6027  0.6919  0.1213
  987MOL0     H36167  11.241  12.640  -0.424  1.5147  0.1891  1.7067
  987MOL0     H36168  11.295  13.164  -0.705 -1.0821 -0.6024  1.0371
  987MOL0     H36169  11.463  13.356  -0.726 -1.3734 -0.8974 -0.9438
  987MOL0     H36170  11.758  13.404  -0.384 -2.6696 -0.1310  0.1624
  987MOL0     H36171  11.793  13.310  -0.523  0.1696  0.7172 -0.8540
  987MOL0     H36172  11.844  13.599  -0.492  0.3961 -0.8253 -0.2750
  987MOL0     H36173  11.978  13.498  -0.482 -0.2850  1.1167  0.3054
  987MOL0     H36174  11.813  13.515  -0.727 -0.2714 -2.2367 -0.2853
  987MOL0     H36175  11.926  13.379  -0.697 -0.3952  0.0046 -0.6889
  987MOL0     H36176  12.118  13.535  -0.684  1.8768  2.7575 -2.3097
  987MOL0     H36177  12.004  13.665  -0.679 -1.6196 -1.9946  1.7306
  987MOL0     H36178  12.083  13.494  -0.912 -0.0449 -0.1481  1.5491
  987MOL0     H36179  11.933  13.588  -0.920 -0.7755  0.5682  1.1021
  987MOL0     H36180  12.076  13.814  -0.892  2.4042  0.8180  2.2976
  987MOL0     H36181  12.133  13.716  -1.029  1.5163 -2.2734 -0.3914
  987MOL0     H36182  12.320  13.639  -0.882  0.2097 -0.1377  1.2628
  987MOL0     H36183  12.248  13.732  -0.758  1.3282 -0.3770  0.0644
  987MOL0     H36184  12.420  13.859  -0.858 -2.1301 -0.2760  3.9530
  987MOL0     H36185  12.271  13.948  -0.909 -3.3238 -0.7168 -3.8911
  987MOL0     H36186  11.577  13.309  -0.329 -0.8974 -2.1351  1.0379
  987MOL0     H36187  11.422  13.122  -0.293  1.8622 -1.4579 -0.5812
  987MOL0     H36188  10.907  13.063  -0.260  3.2424  1.3708  0.9626
  987MOL0     H36189  10.763  12.891  -0.179  0.5593 -0.7876  1.6337
  987MOL0     H36190  10.526  11.658   1.268  0.8177  0.3104 -0.0869
  987MOL0     H36191  10.339  11.516   1.350 -1.6854 -1.2500 -1.3242
  987MOL0     H36192   9.975  11.208   1.078 -0.0316  2.7666 -1.6163
  987MOL0     H36193   9.816  11.061   1.133  3.4605 -1.0327  2.8733
  987MOL0     H36194   9.770  10.928   1.338 -0.6666 -2.6274 -1.5714
  987MOL0     H36195   9.617  10.903   1.434 -1.2541  2.7646  1.1138
  987MOL0     H36196   9.662  10.922   1.137 -0.9020 -0.3462  0.0332
  987MOL0     H36197   9.498  10.913   1.218  0.3085  2.4338  3.6512
  987MOL0     H36198   9.722  10.710   1.246  0.1493 -0.0733 -1.2915
  987MOL0     H36199   9.559  10.694   1.305  1.9572 -1.9858  0.5809
  987MOL0     H36200   9.662  10.682   1.014  0.2411 -0.1645 -1.1875
  987MOL0     H36201   9.489  10.703   1.054  1.3354 -1.2808 -3.2865
  987MOL0     H36202   9.602  10.295   1.120 -2.8312  0.2567  1.1108
  987MOL0     H36203   9.646  11.344   1.420 -1.6917  1.7436 -1.2980
  987MOL0     H36204   9.875  11.536   1.462  1.4992 -1.1061 -0.2402
  987MOL0     H36205   9.858  11.625   1.321 -0.0621  0.6952  0.2682
  987MOL0     H36206   9.720  11.581   1.405 -0.0688  0.6211 -1.7831
  988MOL0     O36207   1.729   6.839   9.630  0.4714 -0.2175 -0.2873
  988MOL0     C36208   1.663   6.895   9.543 -0.5328 -0.7584 -0.3855
  988MOL0     O36209   1.609   7.016   9.554 -0.4744 -0.0168 -0.2882
  988MOL0     C36210   1.625   7.077   9.672 -0.6807 -0.2804 -0.3950
  988MOL0     C36211   1.531   7.055   9.779 -0.3239 -0.0824 -0.1085
  988MOL0     C36212   1.547   7.134   9.895  0.7787 -0.1199  0.3143
  988MOL0     C36213   1.649   7.225   9.907  0.5253 -0.5715 -0.2327
  988MOL0     O36214   1.664   7.319  10.009  0.0891 -0.1437  0.0829
  988MOL0     C36215   1.579   7.436  10.000 -0.1018  0.0177  0.8350
  988MOL0     C36216   1.612   7.539  10.105 -0.3097  0.3055  0.2980
  988MOL0     C36217   1.705   7.660  10.072 -0.5248 -0.1075  0.4478
  988MOL0     C36218   1.765   7.729  10.194 -0.4024 -1.4235 -0.4797
  988MOL0     C36219   1.833   7.856  10.163  0.7496 -0.7912  0.7236
  988MOL0     C36220   1.933   7.853  10.048 -0.0248  1.0971  0.3350
  988MOL0     C36221   2.001   7.985  10.020 -0.6751 -0.7936  0.3855
  988MOL0     C36222   2.085   7.979   9.889 -0.3581  1.1112  0.0669
  988MOL0     N36223   2.187   7.865   9.900  0.2231 -0.0846 -0.7692
  988MOL0     C36224   2.188   7.742   9.837 -0.2984 -0.6069 -0.2848
  988MOL0     C36225   2.308   7.688   9.854 -0.1312 -0.0354 -1.1950
  988MOL0     C36226   2.355   7.572   9.790  0.0736  0.7293  0.8690
  988MOL0     C36227   2.477   7.609   9.709 -0.8017  0.2174  0.7495
  988MOL0     C36228   2.521   7.483   9.632 -0.1287 -0.2467  0.0540
  988MOL0     C36229   2.667   7.495   9.571  0.0290  0.1190 -0.2389
  988MOL0     O36230   2.672   7.616   9.501  0.6749 -0.1902  0.1151
  988MOL0     C36231   2.788   7.639   9.433 -0.7869 -1.0332  0.1722
  988MOL0     C36232   2.905   7.572   9.449 -1.3876  1.0624  0.4832
  988MOL0     C36233   3.028   7.621   9.376  0.1177 -1.1643  0.2184
  988MOL0     C36234   3.153   7.564   9.421  0.2686 -0.3402 -0.4105
  988MOL0     C36235   3.018   7.727   9.279  0.5956  1.1767  0.6703
  988MOL0     C36236   3.133   7.800   9.214  1.2723  0.0976  0.4783
  988MOL0     O36237   3.112   7.929   9.170  0.7055 -0.2378 -0.0404
  988MOL0     C36238   3.202   7.983   9.080 -0.5627  1.1606  0.6366
  988MOL0     C36239   3.210   8.122   9.086  0.7274  0.2256 -0.1966
  988MOL0     C36240   3.297   8.188   8.998  0.1865 -0.1452 -1.1928
  988MOL0     C36241   3.378   8.115   8.909  0.3840  0.1723  0.3424
  988MOL0     O36242   3.454   8.183   8.815 -0.5333 -0.5991  0.3148
  988MOL0     C36243   3.472   8.327   8.825 -0.0120 -1.0082  0.5646
  988MOL0     C36244   3.542   8.372   8.696  0.3379 -0.4427  0.0684
  988MOL0     C36245   3.573   8.521   8.727  0.6849  0.1719  0.2146
  988MOL0     C36246   3.662   8.573   8.619 -0.4450 -0.3866  0.7081
  988MOL0     C36247   3.718   8.714   8.650 -0.5336  0.0898  0.0967
  988MOL0     C36248   3.735   8.805   8.531 -0.2923  0.4515  0.5556
  988MOL0     C36249   3.810   8.736   8.403  0.8822 -0.2436  0.1895
  988MOL0     C36250   3.955   8.691   8.425  0.1775  0.0209 -0.0244
  988MOL0    Cl36251   4.054   8.838   8.453  0.0613 -0.6760 -0.0556
  988MOL0     C36252   3.361   7.973   8.896  0.9693 -0.0325 -0.0765
  988MOL0     C36253   3.275   7.905   8.980  0.3930  0.3968  0.1208
  988MOL0     O36254   3.240   7.741   9.215  0.3403 -0.7993 -0.3033
  988MOL0     C36255   2.892   7.786   9.263 -0.2467 -0.3597  0.9132
  988MOL0     C36256   2.789   7.745   9.348  0.0304  0.0535 -0.0116
  988MOL0     N36257   2.377   7.777   9.934 -0.7117 -0.1860 -0.3924
  988MOL0     N36258   2.307   7.880   9.960  0.7730 -0.1355 -0.2325
  988MOL0     C36259   1.742   7.238   9.799  0.5763 -0.1601 -0.5332
  988MOL0     C36260   1.732   7.165   9.682 -0.2664 -0.7340 -0.3396
  988MOL0     C36261   1.677   6.843   9.393 -0.4662  0.9788 -0.6411
  988MOL0     C36262   1.669   6.937   9.292  0.0978  0.7951 -0.4068
  988MOL0     C36263   1.683   6.900   9.159 -1.3306 -0.1108  0.2701
  988MOL0     C36264   1.723   6.778   9.115 -0.1351 -0.6716 -0.4589
  988MOL0     O36265   1.707   6.751   8.983  0.5748  0.3602  0.2288
  988MOL0     C36266   1.698   6.619   8.939 -0.5979 -0.5763  0.0022
  988MOL0     C36267   1.663   6.607   8.792  1.3480  0.2765 -0.2689
  988MOL0     C36268   1.775   6.637   8.699  0.3662  0.3961  0.2278
  988MOL0     C36269   1.828   6.785   8.695  0.2831 -0.3145 -0.7891
  988MOL0     C36270   1.970   6.773   8.658 -0.3322  0.2122  0.7399
  988MOL0     C36271   2.089   6.784   8.657  0.1880 -0.1257 -0.1303
  988MOL0     C36272   1.729   6.681   9.217 -0.6924  0.2627  0.7781
  988MOL0     C36273   1.699   6.710   9.356  0.1990  0.9757  0.0183
  988MOL0     C36274   1.720   6.609   9.464  0.5508 -0.1508  1.4188
  988MOL0     H36275   1.443   6.991   9.769  0.8861 -2.3330  2.3577
  988MOL0     H36276   1.474   7.143   9.976 -0.5343  5.8211 -1.0560
  988MOL0     H36277   1.471   7.415  10.001 -0.3510  1.2046  0.9867
  988MOL0     H36278   1.601   7.490   9.907 -1.5192 -0.3517  0.2546
  988MOL0     H36279   1.516   7.587  10.125 -1.9994 -2.3003 -0.9896
  988MOL0     H36280   1.633   7.492  10.202  0.2168  2.3251  1.2346
  988MOL0     H36281   1.785   7.617  10.011 -1.3208  0.4584 -1.0607
  988MOL0     H36282   1.651   7.724  10.002  1.2004 -0.1543 -1.0000
  988MOL0     H36283   1.690   7.749  10.271  2.6106 -1.6046  2.7561
  988MOL0     H36284   1.849   7.669  10.231 -0.3909  0.4921  2.9247
  988MOL0     H36285   1.873   7.895  10.257 -1.2728 -1.1085  1.7836
  988MOL0     H36286   1.764   7.925  10.114  0.2379 -2.7431 -1.4615
  988MOL0     H36287   2.000   7.770  10.073 -0.0412  1.1691  0.6262
  988MOL0     H36288   1.890   7.807   9.959  1.3872 -1.3771  0.8311
  988MOL0     H36289   2.074   8.019  10.095  0.2787  3.0028 -2.0371
  988MOL0     H36290   1.924   8.061  10.009 -0.8062 -0.6388  2.1202
  988MOL0     H36291   2.025   7.953   9.801 -3.6848  1.6742  2.0039
  988MOL0     H36292   2.124   8.079   9.867 -0.3659  1.2045  0.4633
  988MOL0     H36293   2.107   7.697   9.780  0.4379 -1.4945 -0.6645
  988MOL0     H36294   2.286   7.522   9.722  0.0040  2.0717 -0.0899
  988MOL0     H36295   2.370   7.502   9.873  0.5935  0.8656  0.8878
  988MOL0     H36296   2.445   7.693   9.647 -1.2247  1.2869  2.3479
  988MOL0     H36297   2.550   7.653   9.778 -0.4118 -0.5998  0.8761
  988MOL0     H36298   2.517   7.396   9.699 -1.5717 -1.1545 -1.1398
  988MOL0     H36299   2.438   7.484   9.560 -0.4921  0.9544  0.4495
  988MOL0     H36300   2.739   7.484   9.652 -0.0329 -2.4537 -0.4698
  988MOL0     H36301   2.681   7.406   9.510  2.3533  0.8900 -0.9521
  988MOL0     H36302   2.912   7.499   9.529 -3.9690 -0.2305 -0.3336
  988MOL0     H36303   3.143   7.496   9.507 -0.2759 -1.7910 -1.5845
  988MOL0     H36304   3.215   7.645   9.461 -0.9707  1.1195 -1.3705
  988MOL0     H36305   3.210   7.516   9.341  1.3288  0.9320 -0.4426
  988MOL0     H36306   3.158   8.182   9.160  1.2603  1.4418 -0.7795
  988MOL0     H36307   3.302   8.296   9.013  1.8241 -0.5941  2.7263
  988MOL0     H36308   3.378   8.380   8.840 -1.0413 -3.3266  3.1989
  988MOL0     H36309   3.531   8.350   8.914 -0.2983 -0.3441  0.5887
  988MOL0     H36310   3.631   8.309   8.691 -0.7235 -2.4994  3.4564
  988MOL0     H36311   3.477   8.360   8.609  2.1360  0.0767 -1.4029
  988MOL0     H36312   3.629   8.534   8.820  1.0403  0.2687 -0.0130
  988MOL0     H36313   3.478   8.576   8.732 -1.2333 -2.6405 -2.0696
  988MOL0     H36314   3.606   8.583   8.526 -0.0101  1.3670  0.6107
  988MOL0     H36315   3.755   8.517   8.608  0.9496  2.0906 -0.8029
  988MOL0     H36316   3.629   8.749   8.704 -0.4291  0.5980 -0.0531
  988MOL0     H36317   3.811   8.709   8.706 -0.9118 -1.0863  0.6573
  988MOL0     H36318   3.791   8.896   8.554  2.0592 -0.4592 -1.2386
  988MOL0     H36319   3.636   8.839   8.499 -0.8240 -0.5664  1.0330
  988MOL0     H36320   3.806   8.806   8.319  0.0794  2.4638  2.3374
  988MOL0     H36321   3.749   8.651   8.370  0.8747 -0.3344  0.4324
  988MOL0     H36322   3.994   8.643   8.335 -0.7051  1.0492 -1.0032
  988MOL0     H36323   3.970   8.629   8.514 -2.3071  0.0128  0.4716
  988MOL0     H36324   3.406   7.905   8.825 -0.5755 -3.3116  1.8298
  988MOL0     H36325   3.269   7.797   8.973  4.9220 -0.0111 -0.5979
  988MOL0     H36326   2.875   7.862   9.187  3.5162 -1.1580 -0.9512
  988MOL0     H36327   2.696   7.802   9.343 -0.1039 -0.1998 -0.4262
  988MOL0     H36328   1.824   7.308   9.812 -0.1148  0.4627  0.6147
  988MOL0     H36329   1.795   7.174   9.595 -0.0220 -0.1786 -0.1091
  988MOL0     H36330   1.650   7.041   9.315  4.0801  1.8449 -1.1853
  988MOL0     H36331   1.672   6.976   9.083 -0.3066  1.3173  1.4951
  988MOL0     H36332   1.795   6.575   8.962  1.0503  2.1093 -1.3040
  988MOL0     H36333   1.622   6.574   9.003  0.6844  1.5323  3.2437
  988MOL0     H36334   1.582   6.678   8.775 -1.3811 -2.6738 -0.5477
  988MOL0     H36335   1.620   6.508   8.773 -0.6180  1.2671 -1.1650
  988MOL0     H36336   1.860   6.569   8.710  1.0884  1.1477 -0.5250
  988MOL0     H36337   1.736   6.609   8.601  3.6066  0.6692 -1.2842
  988MOL0     H36338   1.814   6.831   8.793 -1.0124  2.3671 -2.1186
  988MOL0     H36339   1.772   6.844   8.623  1.2269 -2.8043 -3.8123
  988MOL0     H36340   2.194   6.805   8.653  0.6674 -2.5515 -2.5502
  988MOL0     H36341   1.754   6.581   9.185  1.0673  1.3465 -1.5764
  988MOL0     H36342   1.818   6.615   9.512  0.6361 -0.6886  1.3113
  988MOL0     H36343   1.643   6.624   9.541  0.1055  0.0857  0.9356
  988MOL0     H36344   1.714   6.508   9.423  2.6475  0.6675 -1.1525
  989MOL0     O36345  11.253   6.961   7.935  0.0760 -0.7619  0.1788
  989MOL0     C36346  11.142   6.962   7.972  0.2785  0.8090  1.7440
  989MOL0     O36347  11.051   7.064   7.950 -0.0198 -0.1973 -0.5313
  989MOL0     C36348  11.092   7.179   7.887 -0.4715 -0.0033  1.3498
  989MOL0     C36349  11.214   7.239   7.904 -0.4330 -1.0050 -0.0340
  989MOL0     C36350  11.255   7.365   7.846  0.4646  0.7290  0.1025
  989MOL0     C36351  11.157   7.421   7.760 -0.2365 -0.4184  0.4182
  989MOL0     O36352  11.202   7.546   7.705  0.2877  0.0205  0.8384
  989MOL0     C36353  11.130   7.611   7.597  0.1299  0.3999  0.2486
  989MOL0     C36354  11.194   7.738   7.562 -0.8079 -0.3148 -1.0964
  989MOL0     C36355  11.108   7.834   7.488  0.5202 -0.4733 -0.2461
  989MOL0     C36356  11.178   7.958   7.441  0.3837 -0.4441  0.0068
  989MOL0     C36357  11.094   8.048   7.349  1.0595 -0.4794 -0.1982
  989MOL0     C36358  11.038   7.960   7.234  0.0874 -0.0886  0.1595
  989MOL0     C36359  11.004   8.048   7.112  0.5690  0.2363 -0.5672
  989MOL0     C36360  10.893   8.160   7.152 -0.2273 -0.0210 -0.5631
  989MOL0     N36361  10.829   8.221   7.033 -0.2177 -0.4029 -0.2123
  989MOL0     C36362  10.881   8.318   6.965 -1.0403 -0.6165 -0.2541
  989MOL0     C36363  10.826   8.311   6.843  0.2680 -0.1382 -0.4083
  989MOL0     C36364  10.857   8.382   6.719 -0.5986 -0.1115  0.5063
  989MOL0     C36365  10.783   8.516   6.698  0.2233 -0.1057  0.0766
  989MOL0     C36366  10.883   8.636   6.704  0.4598 -0.2267  0.0269
  989MOL0     C36367  10.959   8.654   6.570  0.5504 -0.6299  0.0011
  989MOL0     O36368  10.872   8.704   6.472  0.0114 -0.4941  0.1184
  989MOL0     C36369  10.854   8.846   6.451 -0.3688  0.2509  0.1672
  989MOL0     C36370  10.945   8.946   6.472  0.7012  0.3656  0.3482
  989MOL0     C36371  10.925   9.085   6.449 -0.4322 -0.2958  1.0943
  989MOL0     C36372  11.020   9.194   6.487  0.2756 -0.4523  0.2582
  989MOL0     C36373  10.787   9.113   6.408  0.4806  0.9826 -0.9360
  989MOL0     C36374  10.749   9.251   6.380 -0.3849  0.1754 -0.2061
  989MOL0     O36375  10.742   9.274   6.244  0.3202 -0.5977 -0.1110
  989MOL0     C36376  10.702   9.401   6.205 -0.1758  0.6742  0.1371
  989MOL0     C36377  10.769   9.513   6.251  0.3558  0.3074 -0.1824
  989MOL0     C36378  10.736   9.638   6.200  0.3304  0.1657 -1.1421
  989MOL0     C36379  10.628   9.651   6.107 -0.7109  0.0124 -0.0767
  989MOL0     O36380  10.597   9.776   6.054  0.4225 -0.5519  0.1628
  989MOL0     C36381  10.697   9.867   6.009 -1.0899  0.5536  0.3251
  989MOL0     C36382  10.621   9.986   5.946 -0.1097  0.4556  0.7237
  989MOL0     C36383  10.669  10.004   5.795 -0.4761 -0.5942 -0.6830
  989MOL0     C36384  10.579  10.091   5.709  0.8522  0.1600  0.5164
  989MOL0     C36385  10.428  10.057   5.716  0.1591  0.1079  0.4707
  989MOL0     C36386  10.349  10.147   5.613 -0.6234  0.1525 -0.5294
  989MOL0     C36387  10.200  10.119   5.643  0.0139 -0.3994  0.1668
  989MOL0     C36388  10.109  10.167   5.530 -1.0956 -0.6371 -0.0999
  989MOL0    Cl36389   9.942  10.142   5.587 -0.8626  0.0721 -0.2351
  989MOL0     C36390  10.540   9.542   6.080  0.7736  0.3349  0.5358
  989MOL0     C36391  10.583   9.415   6.129  0.5265 -0.0827  0.1252
  989MOL0     O36392  10.709   9.323   6.476 -0.6733  0.1696  0.9809
  989MOL0     C36393  10.700   9.009   6.386 -0.6064 -0.4802  0.8971
  989MOL0     C36394  10.733   8.878   6.398  0.7029  0.4539  0.2704
  989MOL0     N36395  10.735   8.203   6.848 -0.8281 -0.2482  0.2973
  989MOL0     N36396  10.740   8.153   6.966  0.5725  0.8432  0.9694
  989MOL0     C36397  11.042   7.357   7.737 -0.3185 -0.7212  0.3206
  989MOL0     C36398  11.002   7.240   7.800  0.8553 -0.4636  0.0639
  989MOL0     C36399  11.084   6.850   8.045  0.9203  0.4120  0.7244
  989MOL0     C36400  10.964   6.872   8.104  0.1288 -0.3358  0.8533
  989MOL0     C36401  10.904   6.775   8.194  0.6409  0.0421  0.1535
  989MOL0     C36402  10.966   6.644   8.204 -0.0003 -0.9101  0.0010
  989MOL0     O36403  10.920   6.542   8.274 -0.0182 -0.6272 -0.8379
  989MOL0     C36404  10.820   6.567   8.387 -0.0310  0.4342 -0.3145
  989MOL0     C36405  10.761   6.440   8.414  0.2475  0.7192 -0.5742
  989MOL0     C36406  10.850   6.327   8.464 -0.7686  0.3386 -0.1228
  989MOL0     C36407  10.875   6.346   8.611  0.3328 -0.6284 -0.0419
  989MOL0     C36408  10.903   6.227   8.687 -0.8858 -0.2386 -0.5701
  989MOL0     C36409  10.958   6.145   8.757  0.0682 -0.0189 -0.7451
  989MOL0     C36410  11.096   6.625   8.145  0.2979 -0.4021  0.1970
  989MOL0     C36411  11.157   6.727   8.069  1.2204 -0.3793 -1.2468
  989MOL0     C36412  11.290   6.708   8.021  0.2063  0.2586 -0.4421
  989MOL0     H36413  11.276   7.194   7.981 -1.4296 -1.0441  0.7777
  989MOL0     H36414  11.355   7.405   7.857  1.7060 -1.9043 -0.7596
  989MOL0     H36415  11.035   7.638   7.644 -0.8561 -2.5530  0.1309
  989MOL0     H36416  11.123   7.559   7.501  2.1629 -1.5749  1.0649
  989MOL0     H36417  11.228   7.788   7.653  0.5774 -0.3872 -1.5524
  989MOL0     H36418  11.286   7.720   7.506 -1.3909  0.5001 -2.3630
  989MOL0     H36419  11.068   7.782   7.401  0.9375 -2.9452  0.9470
  989MOL0     H36420  11.015   7.862   7.540  1.1880  2.9787 -0.6396
  989MOL0     H36421  11.220   8.020   7.521  0.9268 -0.1392 -0.5093
  989MOL0     H36422  11.270   7.929   7.389 -0.7772 -1.1956 -1.7249
  989MOL0     H36423  11.140   8.140   7.313 -0.4630  0.9737  1.4147
  989MOL0     H36424  11.000   8.074   7.399  1.4933 -2.2898  1.7013
  989MOL0     H36425  11.114   7.895   7.189 -1.4892 -0.8331 -1.5724
  989MOL0     H36426  10.951   7.901   7.262  0.7771 -1.1120  0.1949
  989MOL0     H36427  10.963   7.989   7.029 -2.0201  0.9518  0.1119
  989MOL0     H36428  11.090   8.105   7.078  0.3083  2.6174  2.3992
  989MOL0     H36429  10.824   8.107   7.218  0.3012 -3.0165 -2.2146
  989MOL0     H36430  10.946   8.233   7.213  0.2558 -0.1188 -0.8611
  989MOL0     H36431  10.950   8.397   6.995 -0.9292 -1.1678  1.0393
  989MOL0     H36432  10.841   8.317   6.633 -0.9622 -0.3270  0.7347
  989MOL0     H36433  10.964   8.400   6.706 -0.8883  1.5436  0.1684
  989MOL0     H36434  10.741   8.510   6.597 -1.7357  0.9158  0.7783
  989MOL0     H36435  10.711   8.536   6.778  1.7733  2.9502  0.8978
  989MOL0     H36436  10.823   8.727   6.712 -1.6181 -1.5291 -0.0450
  989MOL0     H36437  10.954   8.618   6.786  1.5997 -0.9555 -1.0759
  989MOL0     H36438  11.047   8.718   6.583  1.0140 -1.3405  0.3919
  989MOL0     H36439  11.003   8.559   6.539 -0.1645 -1.2302  0.7978
  989MOL0     H36440  11.046   8.914   6.492  1.2203 -1.3338 -3.8540
  989MOL0     H36441  11.072   9.166   6.579  1.9318  2.1404  0.2195
  989MOL0     H36442  10.972   9.290   6.505 -0.1056 -0.3875 -1.0436
  989MOL0     H36443  11.078   9.205   6.395 -0.1255 -0.4759  0.0007
  989MOL0     H36444  10.860   9.504   6.309 -0.0290  4.4537  1.3523
  989MOL0     H36445  10.787   9.731   6.221 -1.9145  1.7647 -2.3222
  989MOL0     H36446  10.763   9.897   6.090  1.1187  0.4688 -1.3386
  989MOL0     H36447  10.765   9.817   5.940  0.6170 -0.3087  2.5087
  989MOL0     H36448  10.514   9.964   5.938  0.1728 -1.4025  1.4907
  989MOL0     H36449  10.640  10.076   6.005  0.6787 -0.1925  1.4898
  989MOL0     H36450  10.689   9.905   5.753  1.4752  0.0327 -1.3250
  989MOL0     H36451  10.766  10.053   5.802 -1.0736  0.5698 -0.1619
  989MOL0     H36452  10.609  10.096   5.604  1.3929  1.9113  0.7280
  989MOL0     H36453  10.591  10.190   5.754  0.9330 -0.7329  2.5975
  989MOL0     H36454  10.401   9.957   5.684  0.4124  0.7589 -1.9474
  989MOL0     H36455  10.378  10.079   5.811 -0.6755  0.3554 -0.0153
  989MOL0     H36456  10.374  10.117   5.511 -1.7220  3.5683 -1.9300
  989MOL0     H36457  10.373  10.254   5.622  0.8962 -0.3014  1.8695
  989MOL0     H36458  10.179  10.176   5.734 -0.6391  0.8177 -0.7156
  989MOL0     H36459  10.169  10.015   5.652  0.6823 -0.6922 -0.7955
  989MOL0     H36460  10.126  10.111   5.438  0.0785  1.2404 -1.0750
  989MOL0     H36461  10.125  10.270   5.498  2.3881 -1.2241 -0.5988
  989MOL0     H36462  10.454   9.554   6.015 -1.0916 -2.0144  2.3666
  989MOL0     H36463  10.511   9.335   6.113 -0.1369  0.3062  1.0597
  989MOL0     H36464  10.609   9.045   6.339  1.0845 -0.2883 -2.5120
  989MOL0     H36465  10.655   8.803   6.390  0.3856  0.8089 -0.0311
  989MOL0     H36466  10.970   7.401   7.668  0.9694 -0.0167 -0.6134
  989MOL0     H36467  10.903   7.200   7.781 -0.7673  2.7943  0.9114
  989MOL0     H36468  10.903   6.958   8.081  1.0421  0.0430 -0.2359
  989MOL0     H36469  10.808   6.802   8.237  0.1099 -1.2049 -0.2010
  989MOL0     H36470  10.860   6.609   8.480 -1.4406  1.6261 -0.2105
  989MOL0     H36471  10.751   6.645   8.353  0.3907  0.5784 -0.8655
  989MOL0     H36472  10.708   6.407   8.324  1.3542  3.0080 -2.1669
  989MOL0     H36473  10.687   6.461   8.491  1.3378  2.2580  0.1123
  989MOL0     H36474  10.796   6.235   8.441  0.0546 -0.1839 -0.0038
  989MOL0     H36475  10.943   6.324   8.407 -1.4793 -0.4370 -1.2834
  989MOL0     H36476  10.787   6.392   8.657  1.3160  2.4585 -1.0183
  989MOL0     H36477  10.954   6.420   8.624 -1.0017  0.7700  0.4325
  989MOL0     H36478  10.985   6.093   8.847 -0.8428  1.1363  0.2511
  989MOL0     H36479  11.144   6.532   8.173  1.1396 -1.1107 -3.0685
  989MOL0     H36480  11.290   6.710   7.912  0.6613 -3.5503 -0.6400
  989MOL0     H36481  11.360   6.781   8.062  0.1955 -0.0359  0.1201
  989MOL0     H36482  11.322   6.608   8.051  1.4113  0.5382 -0.7520
  990MOL0     O36483   0.608  10.483   2.600  0.5058  0.6214 -0.2211
  990MOL0     C36484   0.674  10.431   2.507 -0.5227  0.5412 -1.0393
  990MOL0     O36485   0.676  10.295   2.488 -0.5866  0.0986  0.3776
  990MOL0     C36486   0.581  10.224   2.549  0.0778  0.6568  0.9033
  990MOL0     C36487   0.445  10.250   2.527  0.1775  0.4505 -0.2449
  990MOL0     C36488   0.347  10.184   2.592  0.1221 -0.8898  0.3872
  990MOL0     C36489   0.378  10.076   2.677  0.7401 -0.4198  1.9209
  990MOL0     O36490   0.272  10.003   2.715 -0.6437 -0.7721 -0.6483
  990MOL0     C36491   0.280   9.880   2.648 -0.0655 -0.1422  0.1969
  990MOL0     C36492   0.144   9.811   2.652  0.6227  1.1098 -0.0942
  990MOL0     C36493   0.092   9.783   2.794 -0.4020  0.7116  0.2943
  990MOL0     C36494  -0.040   9.699   2.796 -0.5574 -0.4295  0.4642
  990MOL0     C36495  -0.095   9.657   2.931  0.2334  0.2927  0.5311
  990MOL0     C36496  -0.230   9.586   2.947 -0.3649 -0.5349 -0.3482
  990MOL0     C36497  -0.285   9.619   3.086 -0.5139 -0.1696  0.1412
  990MOL0     C36498  -0.385   9.513   3.119  0.2957 -0.0757  0.5480
  990MOL0     N36499  -0.326   9.387   3.136 -0.1220 -0.1368  0.1254
  990MOL0     C36500  -0.244   9.332   3.238 -0.2904 -0.0626  0.7754
  990MOL0     C36501  -0.215   9.212   3.192 -0.5267  0.4302  0.7883
  990MOL0     C36502  -0.130   9.115   3.260  0.6108  0.4411  0.2855
  990MOL0     C36503  -0.004   9.082   3.171  0.2808  0.2647 -0.3339
  990MOL0     C36504   0.079   9.203   3.150  0.1320  0.2164  0.2836
  990MOL0     C36505   0.080   9.264   3.014  0.3921 -0.0594 -0.7280
  990MOL0     O36506   0.191   9.351   3.006 -0.4666 -0.0375  0.2799
  990MOL0     C36507   0.230   9.393   2.874 -0.4018 -0.8721 -0.3500
  990MOL0     C36508   0.350   9.455   2.870 -0.2316 -0.0447 -0.8745
  990MOL0     C36509   0.394   9.500   2.748 -0.5115  0.2290 -0.1614
  990MOL0     C36510   0.538   9.555   2.743 -1.2997 -0.2555  0.4278
  990MOL0     C36511   0.319   9.486   2.625  0.3804 -0.2197  0.4337
  990MOL0     C36512   0.353   9.539   2.494 -0.1021 -0.4163  0.8144
  990MOL0     O36513   0.305   9.469   2.380  0.2427 -0.8643  0.3409
  990MOL0     C36514   0.341   9.510   2.258 -0.6533  0.7729  0.6166
  990MOL0     C36515   0.457   9.452   2.209  0.0529 -0.6204 -0.0164
  990MOL0     C36516   0.504   9.508   2.085 -0.0028  0.6016 -0.3046
  990MOL0     C36517   0.421   9.598   2.013 -0.5196  0.4537  0.3562
  990MOL0     O36518   0.449   9.633   1.882  0.4939 -0.3450  0.4443
  990MOL0     C36519   0.526   9.547   1.797  0.2754 -0.2257 -0.1250
  990MOL0     C36520   0.497   9.591   1.646  0.2234  0.9184 -0.3992
  990MOL0     C36521   0.556   9.483   1.558  0.6574  0.4072  0.4373
  990MOL0     C36522   0.513   9.522   1.414 -0.4194  0.3038 -0.3459
  990MOL0     C36523   0.585   9.435   1.313 -0.0866  0.9397 -1.0963
  990MOL0     C36524   0.503   9.302   1.289 -1.1004  0.6705  0.7409
  990MOL0     C36525   0.582   9.222   1.179  0.5646  0.4367 -0.9733
  990MOL0     C36526   0.512   9.095   1.138 -0.2190  1.0120  0.1830
  990MOL0    Cl36527   0.482   8.975   1.270 -0.1873  0.2623 -0.2927
  990MOL0     C36528   0.306   9.651   2.069 -0.4010  0.4321  0.7121
  990MOL0     C36529   0.260   9.596   2.190  0.2260  0.4586  0.4681
  990MOL0     O36530   0.432   9.635   2.487  0.2857 -0.0649 -0.1143
  990MOL0     C36531   0.198   9.411   2.629  0.3206 -0.1212 -0.2159
  990MOL0     C36532   0.167   9.356   2.758  0.3404 -0.2956 -0.3312
  990MOL0     N36533  -0.284   9.191   3.064  0.3327 -0.4912  0.5562
  990MOL0     N36534  -0.363   9.283   3.050  0.1325 -0.3249 -1.2198
  990MOL0     C36535   0.512  10.041   2.692 -0.6436 -0.5344 -0.0543
  990MOL0     C36536   0.615  10.117   2.637  0.6501 -0.5397  0.6811
  990MOL0     C36537   0.755  10.511   2.421  0.2724  0.1762 -0.4690
  990MOL0     C36538   0.841  10.449   2.327  0.5977 -0.2201  0.1274
  990MOL0     C36539   0.928  10.523   2.253  0.4671  0.3756  1.0669
  990MOL0     C36540   0.937  10.657   2.266 -0.0748 -0.3595  0.5201
  990MOL0     O36541   1.035  10.718   2.189 -0.4631  0.7996  1.0457
  990MOL0     C36542   0.999  10.846   2.134 -0.3519 -0.3340  0.6136
  990MOL0     C36543   1.097  10.881   2.019 -0.5745 -0.5338  0.7357
  990MOL0     C36544   1.096  10.791   1.896 -0.5595  0.5764  0.4077
  990MOL0     C36545   1.221  10.818   1.809 -0.1647 -0.2049  0.2333
  990MOL0     C36546   1.203  10.716   1.705 -0.6037 -0.7796 -0.2009
  990MOL0     C36547   1.199  10.642   1.609  0.1673  0.1051  0.2894
  990MOL0     C36548   0.858  10.720   2.356  0.4015  0.7600  0.2211
  990MOL0     C36549   0.761  10.652   2.435 -0.0123 -0.2664 -0.2287
  990MOL0     C36550   0.673  10.745   2.531 -0.0580 -0.9527 -0.0800
  990MOL0     H36551   0.439  10.339   2.465  1.1011 -0.7694 -2.1992
  990MOL0     H36552   0.247  10.220   2.571  0.6925  1.9524  2.0588
  990MOL0     H36553   0.344   9.802   2.689 -0.8144 -2.3562 -2.5488
  990MOL0     H36554   0.315   9.890   2.545  1.9458  0.1549  0.8625
  990MOL0     H36555   0.068   9.857   2.589  0.9315  0.6004 -0.8556
  990MOL0     H36556   0.158   9.716   2.601 -1.7661  0.9151 -0.4751
  990MOL0     H36557   0.153   9.719   2.859 -1.9715 -1.8498 -0.6165
  990MOL0     H36558   0.072   9.877   2.847 -3.3130 -0.0331  0.7168
  990MOL0     H36559  -0.118   9.761   2.752 -3.3708 -3.5419  0.6179
  990MOL0     H36560  -0.021   9.615   2.728 -1.9817 -0.6604  0.3261
  990MOL0     H36561  -0.096   9.746   2.994  2.0893  1.3164 -0.8034
  990MOL0     H36562  -0.014   9.595   2.970  1.9730  1.7904 -0.5472
  990MOL0     H36563  -0.292   9.620   2.864  1.6515 -0.2237 -1.8058
  990MOL0     H36564  -0.209   9.479   2.943 -0.0552 -0.5226  0.5667
  990MOL0     H36565  -0.320   9.722   3.090  1.3687  0.5212 -0.4411
  990MOL0     H36566  -0.207   9.604   3.161 -1.1478 -0.6976  0.7153
  990MOL0     H36567  -0.438   9.527   3.215 -1.7260 -1.3245 -0.3050
  990MOL0     H36568  -0.462   9.507   3.042 -0.3249 -2.9352  1.2702
  990MOL0     H36569  -0.200   9.375   3.327  0.9563  0.5897 -0.1239
  990MOL0     H36570  -0.183   9.020   3.272  2.3710 -0.7936 -1.2348
  990MOL0     H36571  -0.107   9.138   3.365  0.8557  0.3050  0.2624
  990MOL0     H36572   0.052   9.003   3.223 -1.6221 -0.7892  0.2096
  990MOL0     H36573  -0.039   9.047   3.074  0.2147  0.5224 -0.4012
  990MOL0     H36574   0.037   9.280   3.215 -0.3939 -0.6810  1.0281
  990MOL0     H36575   0.182   9.178   3.176 -0.7716 -2.5106  1.5569
  990MOL0     H36576   0.086   9.183   2.941  0.8465  2.4825 -3.6856
  990MOL0     H36577  -0.013   9.320   3.002 -0.2747 -1.0445 -0.3438
  990MOL0     H36578   0.412   9.467   2.959 -0.5317 -0.4428 -0.6121
  990MOL0     H36579   0.601   9.517   2.823 -0.2185 -0.9396 -0.7162
  990MOL0     H36580   0.543   9.664   2.747  2.6044 -0.2659 -0.3706
  990MOL0     H36581   0.585   9.540   2.646 -1.4158 -0.2947  0.3762
  990MOL0     H36582   0.523   9.388   2.267  0.9701  1.5287  1.4585
  990MOL0     H36583   0.599   9.478   2.043  0.7056  1.3746  0.6948
  990MOL0     H36584   0.635   9.543   1.808  0.1654 -1.5285  0.8253
  990MOL0     H36585   0.488   9.445   1.806 -1.7949  0.4936 -0.0184
  990MOL0     H36586   0.389   9.603   1.645  0.2701  2.9190  2.8581
  990MOL0     H36587   0.536   9.693   1.635 -0.8807  1.3329 -0.6070
  990MOL0     H36588   0.506   9.388   1.580  0.7722  0.0658 -0.6905
  990MOL0     H36589   0.665   9.468   1.559  0.8149  0.8811 -2.0229
  990MOL0     H36590   0.546   9.624   1.393 -0.5609  0.8930  2.0889
  990MOL0     H36591   0.406   9.521   1.392 -0.6332  1.6698  0.5482
  990MOL0     H36592   0.612   9.492   1.223 -0.6367 -0.6295 -2.2888
  990MOL0     H36593   0.682   9.409   1.357 -0.4537  1.8336  0.3148
  990MOL0     H36594   0.403   9.328   1.254 -1.2673 -1.2561 -0.3608
  990MOL0     H36595   0.495   9.250   1.384 -0.5834  2.1294  1.6112
  990MOL0     H36596   0.678   9.190   1.220 -0.4293 -1.1871  0.1902
  990MOL0     H36597   0.595   9.280   1.087 -0.6435  0.2974 -1.2507
  990MOL0     H36598   0.552   9.038   1.053  2.3842  1.8478  0.7547
  990MOL0     H36599   0.417   9.127   1.093 -0.0892 -1.4476 -2.1087
  990MOL0     H36600   0.248   9.723   2.012 -3.9879 -0.7516  2.5334
  990MOL0     H36601   0.165   9.629   2.232 -2.0919 -2.4742 -2.0037
  990MOL0     H36602   0.131   9.414   2.543  1.0095 -0.0224 -0.7562
  990MOL0     H36603   0.070   9.308   2.747  0.4725 -0.2404 -1.9918
  990MOL0     H36604   0.530   9.956   2.757  4.7346  1.3879  1.4982
  990MOL0     H36605   0.722  10.107   2.649  0.8557 -1.8746 -1.6925
  990MOL0     H36606   0.820  10.343   2.317  0.2377 -0.0705 -0.7851
  990MOL0     H36607   0.994  10.493   2.172  0.3646  0.6375  0.8863
  990MOL0     H36608   0.896  10.837   2.097  1.4280 -2.9843 -4.8597
  990MOL0     H36609   1.001  10.925   2.209  3.7502 -1.3965  1.8628
  990MOL0     H36610   1.197  10.883   2.065  1.4191 -2.5778 -3.0317
  990MOL0     H36611   1.074  10.985   1.994  0.5087  0.1681  2.4402
  990MOL0     H36612   1.094  10.688   1.932 -2.1694 -0.8058 -3.1282
  990MOL0     H36613   1.001  10.794   1.842 -2.0390  2.7629  2.8991
  990MOL0     H36614   1.315  10.799   1.862  1.3093  0.8321 -1.8670
  990MOL0     H36615   1.234  10.916   1.764  1.9699 -0.0815  0.9912
  990MOL0     H36616   1.197  10.581   1.521 -2.6725  1.7298 -0.9465
  990MOL0     H36617   0.865  10.828   2.368 -1.0379  1.1252 -1.6238
  990MOL0     H36618   0.570  10.721   2.502  0.7833 -0.3862 -4.1986
  990MOL0     H36619   0.699  10.722   2.635  0.7186 -1.1789 -0.3234
  990MOL0     H36620   0.700  10.851   2.518  2.0947 -1.7695 -3.7903
  991MOL0     O36621   2.569   4.621   4.222 -0.4441  0.9254 -0.5949
  991MOL0     C36622   2.518   4.647   4.331  0.1752  0.8203  0.0484
  991MOL0     O36623   2.527   4.773   4.378 -0.5815  0.3722  0.4538
  991MOL0     C36624   2.565   4.867   4.290  0.5445 -0.5602  0.6816
  991MOL0     C36625   2.694   4.880   4.243 -0.1052 -0.5430 -0.6440
  991MOL0     C36626   2.727   4.972   4.147 -0.5687 -0.5260  0.2526
  991MOL0     C36627   2.627   5.061   4.091  0.2611 -0.3326  0.4361
  991MOL0     O36628   2.650   5.151   3.996  0.1143 -0.2903  0.2294
  991MOL0     C36629   2.736   5.108   3.883 -0.0169  0.6255  0.2476
  991MOL0     C36630   2.743   5.227   3.787 -0.1329  0.3240 -1.5777
  991MOL0     C36631   2.866   5.217   3.701 -0.0173  0.2485  0.7943
  991MOL0     C36632   2.846   5.281   3.562 -0.0781 -1.1922  0.1779
  991MOL0     C36633   2.976   5.352   3.501 -1.9352  0.8209 -0.0717
  991MOL0     C36634   3.080   5.241   3.456 -0.1659  0.5592 -0.5954
  991MOL0     C36635   3.027   5.127   3.368 -0.1554 -0.2853  0.1896
  991MOL0     C36636   3.003   5.166   3.214  0.0766  0.2685 -0.4675
  991MOL0     N36637   2.944   5.063   3.125  0.7330  0.8757  0.0551
  991MOL0     C36638   3.010   4.945   3.089 -0.6230 -0.3300 -0.2289
  991MOL0     C36639   2.914   4.876   3.022 -0.3029 -0.3004  0.0582
  991MOL0     C36640   2.954   4.748   2.953  0.0475  0.6911  0.8355
  991MOL0     C36641   3.011   4.773   2.813  0.7710  0.6003 -0.3386
  991MOL0     C36642   3.140   4.857   2.799 -0.6225  0.1614  0.5978
  991MOL0     C36643   3.253   4.788   2.862  0.0191  0.2514  0.1696
  991MOL0     O36644   3.360   4.876   2.875 -1.3772 -0.4002 -0.0964
  991MOL0     C36645   3.461   4.852   2.971  0.3026  0.3131  0.3408
  991MOL0     C36646   3.473   4.736   3.046 -0.2336 -0.2348 -0.5912
  991MOL0     C36647   3.584   4.708   3.128  0.3880  1.0335  0.7978
  991MOL0     C36648   3.582   4.577   3.192 -0.6827  1.0137  0.7730
  991MOL0     C36649   3.677   4.817   3.155  0.1344  1.7062 -0.4002
  991MOL0     C36650   3.792   4.812   3.255 -0.5573 -1.0357  0.6273
  991MOL0     O36651   3.908   4.878   3.221 -0.6730  0.0023  0.8434
  991MOL0     C36652   4.016   4.878   3.306 -0.8320 -0.4341 -0.9863
  991MOL0     C36653   4.075   5.007   3.327  0.2668  0.4468  0.0015
  991MOL0     C36654   4.197   5.010   3.396  0.5926 -0.0400 -0.2122
  991MOL0     C36655   4.259   4.905   3.457 -0.1464 -0.1897 -0.2704
  991MOL0     O36656   4.371   4.930   3.525 -0.4574  0.2787 -0.4438
  991MOL0     C36657   4.440   4.824   3.599  0.4028  0.1422  0.3124
  991MOL0     C36658   4.574   4.878   3.652  0.3545  0.2154 -0.1365
  991MOL0     C36659   4.646   4.805   3.757 -1.2444 -0.1436 -0.4703
  991MOL0     C36660   4.609   4.659   3.766 -0.2888  0.3890  0.4483
  991MOL0     C36661   4.726   4.581   3.842  0.2467 -1.0762 -0.2924
  991MOL0     C36662   4.688   4.441   3.870  0.7785 -0.2375  0.0549
  991MOL0     C36663   4.691   4.351   3.741  0.0690  0.2257 -0.7266
  991MOL0     C36664   4.583   4.267   3.722 -0.5864  1.0493 -0.7190
  991MOL0    Cl36665   4.566   4.126   3.842 -0.3218 -0.2636 -0.1567
  991MOL0     C36666   4.186   4.786   3.466 -0.0904 -0.2737  1.1344
  991MOL0     C36667   4.065   4.766   3.391  0.1559  0.0882 -0.0657
  991MOL0     O36668   3.758   4.754   3.360 -0.4379 -0.4718 -0.3007
  991MOL0     C36669   3.662   4.928   3.076 -0.5464  0.0072  1.1367
  991MOL0     C36670   3.559   4.943   2.981  0.3953 -0.7328 -0.2645
  991MOL0     N36671   2.795   4.951   3.010  0.0398 -0.8050  0.1757
  991MOL0     N36672   2.820   5.067   3.066  0.3635  0.5259 -0.7452
  991MOL0     C36673   2.499   5.063   4.149  0.0822 -0.8581  0.5122
  991MOL0     C36674   2.465   4.958   4.236 -0.1517 -0.2792 -0.4271
  991MOL0     C36675   2.483   4.535   4.417  1.0504 -0.0657  0.1718
  991MOL0     C36676   2.508   4.538   4.552  0.0976 -0.7117 -0.0858
  991MOL0     C36677   2.512   4.428   4.638  0.5515  0.0948  0.2919
  991MOL0     C36678   2.455   4.310   4.594 -0.2552 -0.4471 -0.5215
  991MOL0     O36679   2.438   4.191   4.657 -0.5558  0.1247 -0.6421
  991MOL0     C36680   2.479   4.194   4.793 -1.0478  0.2669 -0.6188
  991MOL0     C36681   2.446   4.063   4.875  0.2363  1.1053 -0.8779
  991MOL0     C36682   2.292   4.034   4.892 -0.2281  0.1332 -0.1416
  991MOL0     C36683   2.250   3.924   4.984 -0.6439 -0.6891 -0.1375
  991MOL0     C36684   2.295   3.803   4.911  0.4366 -0.3986  0.5752
  991MOL0     C36685   2.339   3.716   4.840  0.1701 -0.7466 -0.6616
  991MOL0     C36686   2.414   4.311   4.461 -0.2467  0.8449 -0.2080
  991MOL0     C36687   2.420   4.418   4.369 -0.0761  0.1278 -0.3829
  991MOL0     C36688   2.371   4.392   4.233 -0.0929 -0.2739  0.4403
  991MOL0     H36689   2.776   4.821   4.284 -0.9644 -1.7068 -0.5461
  991MOL0     H36690   2.828   4.971   4.108  1.1407  0.2636  4.1475
  991MOL0     H36691   2.691   5.022   3.833 -2.0210  2.6993 -1.7501
  991MOL0     H36692   2.838   5.095   3.920 -0.1914 -2.5714 -0.1268
  991MOL0     H36693   2.648   5.232   3.734  0.2503  0.5939 -2.2593
  991MOL0     H36694   2.754   5.313   3.854  0.2975 -1.8444  1.2791
  991MOL0     H36695   2.946   5.270   3.753  1.4753 -1.2296  0.1150
  991MOL0     H36696   2.906   5.117   3.682  2.9529  1.7761 -2.0460
  991MOL0     H36697   2.799   5.210   3.493 -2.2538  1.4256 -1.2444
  991MOL0     H36698   2.783   5.371   3.569  3.5711  1.5152  0.9868
  991MOL0     H36699   3.022   5.406   3.584 -0.1159 -0.1081 -0.4299
  991MOL0     H36700   2.963   5.417   3.414 -0.8411 -0.3547 -1.1438
  991MOL0     H36701   3.168   5.287   3.410  0.8727  0.7551  1.4808
  991MOL0     H36702   3.131   5.189   3.537  2.1792 -1.2813 -3.0400
  991MOL0     H36703   2.935   5.087   3.411  0.6713 -0.4655  1.9023
  991MOL0     H36704   3.104   5.049   3.367  0.7516  0.4264  3.1032
  991MOL0     H36705   2.950   5.262   3.210  2.4961  1.7462  0.6790
  991MOL0     H36706   3.100   5.193   3.174  0.5160  1.2573  1.1755
  991MOL0     H36707   3.114   4.930   3.115 -0.4444  0.0941 -0.6928
  991MOL0     H36708   2.862   4.695   2.927 -0.3938  2.4581 -1.6106
  991MOL0     H36709   3.003   4.675   3.018 -0.1388 -0.4329 -0.2506
  991MOL0     H36710   3.033   4.679   2.762 -1.6596  0.8979 -2.1081
  991MOL0     H36711   2.931   4.823   2.758 -0.1981 -2.2338 -1.7090
  991MOL0     H36712   3.159   4.856   2.691 -0.8177  0.0316  0.5643
  991MOL0     H36713   3.139   4.961   2.833 -1.5312 -0.0550  1.2815
  991MOL0     H36714   3.220   4.756   2.962 -1.8982  2.1590  0.2040
  991MOL0     H36715   3.284   4.693   2.817  0.9299  0.5986  0.0519
  991MOL0     H36716   3.396   4.664   3.073 -0.4330  0.6151  1.2696
  991MOL0     H36717   3.514   4.584   3.277 -2.3189 -1.0623 -0.2899
  991MOL0     H36718   3.688   4.559   3.213  0.1707  0.5129 -3.1816
  991MOL0     H36719   3.543   4.497   3.129 -1.9075 -0.1460  2.9198
  991MOL0     H36720   4.022   5.097   3.296  1.9636  1.5346  0.1738
  991MOL0     H36721   4.242   5.108   3.411  0.6587 -0.4515  2.9839
  991MOL0     H36722   4.371   4.795   3.679 -0.5387  2.3075  0.3526
  991MOL0     H36723   4.467   4.741   3.532 -2.0214  0.7832 -1.6168
  991MOL0     H36724   4.639   4.876   3.564  1.0103 -1.9933  0.3347
  991MOL0     H36725   4.565   4.979   3.693 -0.0842  0.3074 -0.4615
  991MOL0     H36726   4.631   4.859   3.851 -1.5492  0.6895 -0.9927
  991MOL0     H36727   4.754   4.813   3.743 -1.0103  2.3302  1.9682
  991MOL0     H36728   4.604   4.612   3.668  0.3727 -3.1829  1.9561
  991MOL0     H36729   4.512   4.656   3.816  0.8765  1.0611  2.9478
  991MOL0     H36730   4.820   4.571   3.788  0.4550  1.5755 -0.5452
  991MOL0     H36731   4.761   4.619   3.939 -0.8938 -4.0689  1.4313
  991MOL0     H36732   4.594   4.431   3.926  0.8180  2.5679  0.7511
  991MOL0     H36733   4.761   4.397   3.938 -1.3660 -2.4828  1.0828
  991MOL0     H36734   4.780   4.288   3.751 -1.9148 -2.5415  1.0417
  991MOL0     H36735   4.696   4.421   3.657  3.3267  2.2064  0.8863
  991MOL0     H36736   4.616   4.213   3.633  2.4178 -1.0115  1.4505
  991MOL0     H36737   4.490   4.325   3.714 -2.1708 -1.3863 -1.0900
  991MOL0     H36738   4.232   4.709   3.528 -1.7515  0.3320  3.2543
  991MOL0     H36739   4.020   4.667   3.393  0.8501 -0.2396  1.5060
  991MOL0     H36740   3.740   5.003   3.070 -1.7534  1.1935 -2.9369
  991MOL0     H36741   3.564   5.026   2.911 -2.6053 -0.5605 -0.4208
  991MOL0     H36742   2.419   5.121   4.104  0.6645 -0.6754 -0.3102
  991MOL0     H36743   2.362   4.940   4.264 -0.5705 -1.2565 -2.4518
  991MOL0     H36744   2.559   4.628   4.584 -1.1437 -0.4662  1.3038
  991MOL0     H36745   2.562   4.419   4.734  1.1258  0.0059 -0.0101
  991MOL0     H36746   2.588   4.207   4.794 -1.3442  4.0070  1.6300
  991MOL0     H36747   2.443   4.279   4.851 -0.5278 -0.5272  0.9333
  991MOL0     H36748   2.481   4.083   4.977 -2.7065  0.8454  0.2723
  991MOL0     H36749   2.495   3.977   4.828  0.4832 -0.1489  1.5455
  991MOL0     H36750   2.245   4.122   4.937 -3.6332 -0.5818 -1.9634
  991MOL0     H36751   2.262   4.023   4.787  0.9460 -1.9159 -0.2986
  991MOL0     H36752   2.142   3.927   5.003 -0.3700  0.8572  1.4051
  991MOL0     H36753   2.309   3.924   5.076 -3.3828  0.3240  1.7839
  991MOL0     H36754   2.384   3.640   4.780  2.0270  1.3758 -2.0772
  991MOL0     H36755   2.370   4.218   4.426  2.3475 -0.2678 -0.8145
  991MOL0     H36756   2.419   4.309   4.181  3.2606  1.4323  0.5284
  991MOL0     H36757   2.263   4.374   4.224  0.0178 -4.0902  3.7587
  991MOL0     H36758   2.399   4.478   4.172  0.3208  0.1113  1.1519
  992MOL0     O36759  11.507   4.340  10.046  0.3817 -0.2354  0.1436
  992MOL0     C36760  11.569   4.236  10.023  0.2737  1.0042 -0.8283
  992MOL0     O36761  11.633   4.157  10.112 -0.1753 -0.2055  0.7415
  992MOL0     C36762  11.625   4.191  10.244  0.2747 -0.2056  0.2915
  992MOL0     C36763  11.523   4.135  10.327 -0.6182  0.2070  0.0221
  992MOL0     C36764  11.501   4.179  10.458  0.5879  0.6020 -0.1860
  992MOL0     C36765  11.585   4.280  10.506 -0.4196 -0.4743  0.3912
  992MOL0     O36766  11.556   4.341  10.626  0.2066  0.8485 -0.1290
  992MOL0     C36767  11.544   4.483  10.627  0.7084  0.0404  0.5558
  992MOL0     C36768  11.444   4.519  10.744 -0.3994 -0.4401 -0.8367
  992MOL0     C36769  11.303   4.463  10.745 -0.0590  0.9742 -1.1994
  992MOL0     C36770  11.228   4.494  10.883 -0.7301 -0.0604 -0.8951
  992MOL0     C36771  11.171   4.644  10.897  0.0808  0.6674  0.3039
  992MOL0     C36772  11.114   4.659  11.032  0.2208 -0.3761  0.3009
  992MOL0     C36773  11.063   4.801  11.058  0.0149  1.1852  0.4062
  992MOL0     C36774  10.979   4.879  10.948 -0.2745 -0.1386 -0.7060
  992MOL0     N36775  10.900   4.989  11.003 -0.0902 -0.0825  0.2565
  992MOL0     C36776  10.944   5.089  11.087  0.3720  0.5393  0.1494
  992MOL0     C36777  10.834   5.172  11.118 -0.0801  1.2257 -0.1512
  992MOL0     C36778  10.831   5.299  11.197 -0.2664 -0.6258 -0.3687
  992MOL0     C36779  10.802   5.271  11.348 -0.2653  0.2087 -0.2336
  992MOL0     C36780  10.808   5.393  11.428  0.1333 -0.2997 -0.7214
  992MOL0     C36781  10.705   5.508  11.391  0.6586 -0.3515  0.0372
  992MOL0     O36782  10.725   5.603  11.490  0.2163 -0.9086  0.5372
  992MOL0     C36783  10.645   5.710  11.476 -0.5337 -0.7657  0.3428
  992MOL0     C36784  10.693   5.835  11.499 -0.5275 -0.7905  0.7612
  992MOL0     C36785  10.627   5.956  11.481  0.6248  0.2123  0.5561
  992MOL0     C36786  10.699   6.083  11.502 -0.0503 -0.0624 -0.7366
  992MOL0     C36787  10.500   5.954  11.439  1.2755  0.3084 -0.0311
  992MOL0     C36788  10.415   6.073  11.403  0.1682 -1.2074  0.1682
  992MOL0     O36789  10.327   6.053  11.304 -0.3858  0.0710 -0.2539
  992MOL0     C36790  10.278   6.159  11.239 -0.1481  0.0162  0.1321
  992MOL0     C36791  10.145   6.145  11.204  0.2582  0.0515 -0.0439
  992MOL0     C36792  10.079   6.252  11.134 -0.8349 -0.3521 -0.0748
  992MOL0     C36793  10.151   6.372  11.103  0.5467 -0.0789  0.1331
  992MOL0     O36794  10.081   6.467  11.043 -0.0061 -0.3562  0.4736
  992MOL0     C36795   9.988   6.534  11.127  0.6254  0.1796  1.2161
  992MOL0     C36796   9.895   6.614  11.027 -0.4567 -0.1205  0.0044
  992MOL0     C36797   9.760   6.641  11.099  0.1702 -0.7247  0.5049
  992MOL0     C36798   9.641   6.651  10.998  0.8386 -1.0450 -0.1536
  992MOL0     C36799   9.529   6.728  11.068  0.6494 -0.6277 -0.0980
  992MOL0     C36800   9.387   6.711  11.013 -0.2025 -0.3576  0.3842
  992MOL0     C36801   9.271   6.761  11.104  0.4565  0.6879  0.7092
  992MOL0     C36802   9.134   6.695  11.082 -0.0478 -0.1128 -1.0260
  992MOL0    Cl36803   9.089   6.676  10.916  0.0466 -0.4091  0.0908
  992MOL0     C36804  10.279   6.378  11.133 -0.1064 -0.5727  0.2576
  992MOL0     C36805  10.344   6.276  11.203 -0.2159  0.4080 -0.0901
  992MOL0     O36806  10.425   6.176  11.471  0.0570  0.1019  0.2964
  992MOL0     C36807  10.447   5.831  11.421  0.2968 -0.2772  0.8232
  992MOL0     C36808  10.512   5.711  11.446  0.1947  0.3035 -0.7510
  992MOL0     N36809  10.728   5.112  11.055 -0.3268 -0.8528 -0.1974
  992MOL0     N36810  10.773   5.023  10.968 -0.0554  0.2710 -0.0197
  992MOL0     C36811  11.677   4.333  10.421  0.1013  0.1484 -0.4457
  992MOL0     C36812  11.712   4.287  10.300  0.2509 -0.0006 -0.3337
  992MOL0     C36813  11.560   4.190   9.885  1.0976 -0.6945 -0.3516
  992MOL0     C36814  11.437   4.197   9.817 -0.1084 -0.7946 -0.1887
  992MOL0     C36815  11.424   4.129   9.694  0.0735  0.1287  0.2917
  992MOL0     C36816  11.537   4.087   9.626 -0.2839 -0.6649 -0.6209
  992MOL0     O36817  11.540   4.039   9.502  0.3316  0.3424 -0.2398
  992MOL0     C36818  11.418   3.985   9.437 -0.1540  0.1882  0.5064
  992MOL0     C36819  11.369   4.076   9.329 -0.4851  0.1669 -0.5166
  992MOL0     C36820  11.480   4.079   9.213  0.9928  0.2370 -0.3362
  992MOL0     C36821  11.465   4.197   9.120  0.8430  0.5287  0.0587
  992MOL0     C36822  11.547   4.180   8.992 -0.2839 -0.1485 -0.4426
  992MOL0     C36823  11.614   4.159   8.889 -0.3549  0.4236 -0.2949
  992MOL0     C36824  11.660   4.097   9.687  0.6142  1.1722  0.2856
  992MOL0     C36825  11.674   4.140   9.816 -0.4027  0.3416  0.1259
  992MOL0     C36826  11.819   4.133   9.876 -0.4287 -1.1545 -0.1186
  992MOL0     H36827  11.451   4.072  10.277 -0.8894  0.3210  0.2676
  992MOL0     H36828  11.440   4.120  10.525  1.4271  0.5109  0.5192
  992MOL0     H36829  11.498   4.520  10.536  1.5862 -2.6456 -1.1016
  992MOL0     H36830  11.642   4.528  10.643  1.4285 -2.3999  4.9622
  992MOL0     H36831  11.491   4.488  10.838 -1.0826  1.2544  0.0987
  992MOL0     H36832  11.420   4.625  10.744  0.5731 -0.0766  2.6827
  992MOL0     H36833  11.248   4.520  10.670  2.7413  3.3288 -1.6270
  992MOL0     H36834  11.303   4.357  10.717 -1.1332  0.4639  0.5943
  992MOL0     H36835  11.145   4.424  10.898 -3.0750  2.7136 -0.1689
  992MOL0     H36836  11.295   4.469  10.966  1.1989 -0.7311 -2.5544
  992MOL0     H36837  11.088   4.665  10.829  1.5809  2.1605 -1.1708
  992MOL0     H36838  11.252   4.715  10.875 -0.0095  0.7755  0.3198
  992MOL0     H36839  11.029   4.591  11.039 -0.3433  0.2527 -0.3547
  992MOL0     H36840  11.189   4.633  11.107 -1.4800 -1.8115  1.5880
  992MOL0     H36841  11.155   4.854  11.084  1.0804  0.0729 -0.9526
  992MOL0     H36842  11.001   4.809  11.148  3.5286 -0.0798  3.1988
  992MOL0     H36843  11.053   4.921  10.878  1.0648  3.2806  2.4304
  992MOL0     H36844  10.912   4.811  10.895 -2.0241  1.6873 -0.9484
  992MOL0     H36845  11.051   5.098  11.103  0.4510 -1.9973  1.4009
  992MOL0     H36846  10.754   5.369  11.162  1.1442 -0.3980 -3.3639
  992MOL0     H36847  10.932   5.341  11.194  0.2497 -1.7460 -3.7472
  992MOL0     H36848  10.712   5.211  11.363  1.1789 -1.3340  3.0177
  992MOL0     H36849  10.883   5.208  11.384  0.6101  1.5439  0.2264
  992MOL0     H36850  10.793   5.365  11.533  0.3956 -1.5235 -0.9868
  992MOL0     H36851  10.913   5.422  11.421  0.7421 -2.6191 -3.2527
  992MOL0     H36852  10.735   5.554  11.297 -0.0442  3.5276  1.5051
  992MOL0     H36853  10.607   5.464  11.371 -0.3524  1.9372 -0.3606
  992MOL0     H36854  10.798   5.851  11.523  0.5986 -3.3450 -1.8711
  992MOL0     H36855  10.664   6.116  11.600  0.4569 -1.9734  0.1347
  992MOL0     H36856  10.678   6.154  11.422 -0.9300 -2.7771 -3.0992
  992MOL0     H36857  10.808   6.081  11.514  0.1123  3.0782 -0.9807
  992MOL0     H36858  10.090   6.054  11.223  0.3699  0.1234  0.6488
  992MOL0     H36859   9.978   6.223  11.106 -0.8495 -1.2762  0.8591
  992MOL0     H36860   9.943   6.448  11.177 -0.4111  0.2663  0.4633
  992MOL0     H36861  10.041   6.596  11.200 -0.0691  1.1822  0.8863
  992MOL0     H36862   9.948   6.708  11.011  3.0391 -1.9218 -0.0773
  992MOL0     H36863   9.878   6.566  10.930 -2.5269  1.3272 -0.4069
  992MOL0     H36864   9.777   6.727  11.164  1.4108  0.3903 -1.2316
  992MOL0     H36865   9.747   6.555  11.166  4.8478 -1.6648  0.5247
  992MOL0     H36866   9.601   6.552  10.978  1.5955 -1.5457  0.7491
  992MOL0     H36867   9.685   6.693  10.908  0.8020 -0.4747  0.0873
  992MOL0     H36868   9.536   6.690  11.171 -1.7657 -2.1442 -0.4313
  992MOL0     H36869   9.555   6.834  11.071  0.2576 -0.4902 -1.2014
  992MOL0     H36870   9.379   6.603  10.997  1.4466 -0.4256 -0.2573
  992MOL0     H36871   9.383   6.748  10.910  1.6674  0.1317  0.4388
  992MOL0     H36872   9.259   6.870  11.105 -0.2732  0.6153  2.1258
  992MOL0     H36873   9.316   6.746  11.203 -0.2065  2.9670  1.4140
  992MOL0     H36874   9.064   6.764  11.130  1.8543  2.6386 -1.9875
  992MOL0     H36875   9.122   6.604  11.142  0.6831  0.7050  0.4368
  992MOL0     H36876  10.333   6.471  11.116 -0.9350 -0.2475 -0.6390
  992MOL0     H36877  10.443   6.297  11.241  0.6490 -0.0509 -1.9735
  992MOL0     H36878  10.343   5.830  11.390  0.5726 -0.2914 -0.1294
  992MOL0     H36879  10.451   5.622  11.435  2.3231 -0.9634 -3.8140
  992MOL0     H36880  11.724   4.426  10.452  2.2968 -0.6772 -1.0990
  992MOL0     H36881  11.777   4.345  10.236 -0.9732 -0.3885 -1.9792
  992MOL0     H36882  11.346   4.243   9.855  1.2644  1.5210  0.4800
  992MOL0     H36883  11.318   4.115   9.672  0.1748  0.9868 -0.8559
  992MOL0     H36884  11.438   3.888   9.392 -3.4604 -0.2292 -0.3162
  992MOL0     H36885  11.342   3.961   9.511 -0.2033 -1.4326 -0.0363
  992MOL0     H36886  11.346   4.173   9.375  3.2822  0.6266  0.7351
  992MOL0     H36887  11.270   4.039   9.300 -1.6682  1.1398  2.0110
  992MOL0     H36888  11.581   4.071   9.253  1.0173  0.6455 -0.3121
  992MOL0     H36889  11.471   3.987   9.154  2.3424 -0.3266  0.3034
  992MOL0     H36890  11.502   4.282   9.178 -0.9573 -0.8252  3.5311
  992MOL0     H36891  11.361   4.227   9.108  0.6150  0.5136  1.7138
  992MOL0     H36892  11.664   4.144   8.795  0.4600  0.3924  0.1400
  992MOL0     H36893  11.746   4.045   9.647 -1.5122 -1.4746 -1.2048
  992MOL0     H36894  11.846   4.226   9.928  1.5431  0.3216 -3.4621
  992MOL0     H36895  11.824   4.045   9.941 -1.5378  0.5744  2.4915
  992MOL0     H36896  11.893   4.127   9.796  0.1181 -0.7632  0.3514
  993MOL0     O36897   7.445   2.788  10.775  1.1593 -0.1476 -0.2315
  993MOL0     C36898   7.499   2.884  10.831  0.2434  0.4141 -0.0458
  993MOL0     O36899   7.615   2.938  10.791 -0.7511  0.3365 -0.3277
  993MOL0     C36900   7.615   2.957  10.658 -0.8018 -0.1067  0.3763
  993MOL0     C36901   7.629   2.851  10.572 -0.4671  0.8407 -0.9292
  993MOL0     C36902   7.639   2.876  10.437  0.1834 -0.2400 -0.3159
  993MOL0     C36903   7.620   3.004  10.382  0.1385 -0.1053  0.2254
  993MOL0     O36904   7.646   3.000  10.248  0.2227  0.2285 -0.3842
  993MOL0     C36905   7.618   3.115  10.157  0.4505  0.2755 -0.1151
  993MOL0     C36906   7.744   3.206  10.158  0.6533  0.0844  0.3222
  993MOL0     C36907   7.880   3.127  10.163  0.7554  0.0409 -0.0828
  993MOL0     C36908   7.952   3.151  10.293  0.4354  0.7784  0.6980
  993MOL0     C36909   8.058   3.041  10.312 -0.3858  0.8406  1.0786
  993MOL0     C36910   8.125   3.032  10.449 -0.1947  0.0886 -0.4002
  993MOL0     C36911   8.251   3.122  10.444  0.5725 -0.1369  0.3490
  993MOL0     C36912   8.296   3.179  10.581  1.2075  0.8291  0.3427
  993MOL0     N36913   8.335   3.077  10.683 -0.0438 -0.6150  0.5327
  993MOL0     C36914   8.462   3.026  10.697 -0.3998 -0.3363 -0.2493
  993MOL0     C36915   8.454   2.949  10.809 -0.3711  0.0537 -0.4309
  993MOL0     C36916   8.575   2.906  10.891  0.7296 -0.8501 -0.4769
  993MOL0     C36917   8.604   2.762  10.849 -0.4551  0.3050  0.0026
  993MOL0     C36918   8.526   2.661  10.939  0.7459 -0.1476 -0.2180
  993MOL0     C36919   8.564   2.515  10.914 -0.1770  0.2413 -0.0249
  993MOL0     O36920   8.544   2.472  10.775  0.5738  0.0265  0.5735
  993MOL0     C36921   8.565   2.343  10.737 -0.7606 -1.0010  0.1329
  993MOL0     C36922   8.522   2.319  10.607  0.5170 -0.5788  0.4752
  993MOL0     C36923   8.522   2.187  10.557  0.5820 -0.0477  1.5360
  993MOL0     C36924   8.449   2.160  10.427 -0.8591 -0.1535 -0.0858
  993MOL0     C36925   8.596   2.081  10.629  0.6371 -0.3198 -0.3933
  993MOL0     C36926   8.600   1.939  10.594 -0.0018 -0.3571  1.2529
  993MOL0     O36927   8.621   1.899  10.463  0.0348  1.2244  0.5316
  993MOL0     C36928   8.642   1.769  10.421  0.0465  0.0014  0.0803
  993MOL0     C36929   8.640   1.747  10.288  0.0231  0.2485  1.7493
  993MOL0     C36930   8.671   1.611  10.234 -0.7108 -0.4386  0.6823
  993MOL0     C36931   8.694   1.503  10.319 -0.3520  0.2831 -0.2883
  993MOL0     O36932   8.714   1.378  10.262 -0.0333  0.5772  0.5788
  993MOL0     C36933   8.702   1.248  10.331 -0.1619 -0.8780  0.4968
  993MOL0     C36934   8.846   1.235  10.392  1.1326  1.5382  0.2740
  993MOL0     C36935   8.958   1.298  10.299  0.3321  0.4129  0.2325
  993MOL0     C36936   9.081   1.202  10.308 -0.5936 -0.1231 -0.5698
  993MOL0     C36937   9.151   1.237  10.438 -0.2088 -0.4119  0.1923
  993MOL0     C36938   9.302   1.213  10.439 -0.0951 -0.1722 -0.4562
  993MOL0     C36939   9.391   1.328  10.386  0.0042  0.1456 -0.1863
  993MOL0     C36940   9.542   1.297  10.367 -0.2299 -0.4376  0.3558
  993MOL0    Cl36941   9.609   1.231  10.517  0.3132  0.2298 -0.3257
  993MOL0     C36942   8.680   1.526  10.454  0.8047 -0.2048 -0.0899
  993MOL0     C36943   8.667   1.659  10.503  0.3398 -0.7829 -0.8819
  993MOL0     O36944   8.562   1.866  10.688 -0.5208  0.3854  0.1486
  993MOL0     C36945   8.650   2.118  10.755 -0.0833  0.1320 -0.1009
  993MOL0     C36946   8.636   2.248  10.805 -0.4423  0.0220 -0.1853
  993MOL0     N36947   8.329   2.951  10.859 -0.1186  0.3209  0.4739
  993MOL0     N36948   8.259   3.038  10.790  0.7961 -0.5962 -0.2284
  993MOL0     C36949   7.589   3.111  10.464 -0.5094  0.2611 -0.0955
  993MOL0     C36950   7.596   3.090  10.602  0.0556 -0.4060 -0.1091
  993MOL0     C36951   7.454   2.922  10.965 -0.2597 -0.3739  0.2352
  993MOL0     C36952   7.550   2.950  11.066 -0.4258  0.1262  0.3059
  993MOL0     C36953   7.520   2.969  11.200  0.8586  0.7250  1.4922
  993MOL0     C36954   7.384   2.973  11.248  0.2327 -0.0794  0.3046
  993MOL0     O36955   7.338   3.012  11.369 -0.0887  0.0323  0.4019
  993MOL0     C36956   7.382   3.134  11.422 -0.5361 -0.5727 -0.5346
  993MOL0     C36957   7.283   3.241  11.408  0.4749  0.6114 -0.4012
  993MOL0     C36958   7.315   3.342  11.517  0.6447  0.7931  0.0886
  993MOL0     C36959   7.242   3.471  11.491 -0.2574 -0.4210  0.2422
  993MOL0     C36960   7.099   3.441  11.510 -0.0001  0.1680  0.6626
  993MOL0     C36961   6.978   3.415  11.517 -0.6882  0.0800 -0.1539
  993MOL0     C36962   7.288   2.963  11.144 -0.6867  0.2408  0.0814
  993MOL0     C36963   7.322   2.943  11.007  0.3529  0.9318  1.3679
  993MOL0     C36964   7.209   2.948  10.899  0.6492 -0.5303 -0.1419
  993MOL0     H36965   7.649   2.750  10.606 -0.0871  0.9949 -0.6901
  993MOL0     H36966   7.659   2.784  10.383 -2.2897 -2.8832  2.8392
  993MOL0     H36967   7.531   3.176  10.181  0.2466  0.5697 -1.5081
  993MOL0     H36968   7.600   3.080  10.055 -0.6126  0.5787 -0.0412
  993MOL0     H36969   7.730   3.265  10.067 -3.6012  1.9536  1.9179
  993MOL0     H36970   7.718   3.279  10.235 -1.6679 -0.0610 -0.2429
  993MOL0     H36971   7.872   3.021  10.137  0.7625  0.1233 -0.4382
  993MOL0     H36972   7.939   3.170  10.081  3.2851  3.4088  3.1572
  993MOL0     H36973   7.993   3.252  10.286 -0.9078  1.2690 -3.7651
  993MOL0     H36974   7.878   3.149  10.373 -0.7110 -0.5143 -0.3264
  993MOL0     H36975   8.135   3.050  10.235  0.3701  3.1424  2.0029
  993MOL0     H36976   8.014   2.943  10.293  2.1988 -0.0934 -0.7144
  993MOL0     H36977   8.050   3.054  10.525 -0.0683 -2.5299  0.5888
  993MOL0     H36978   8.169   2.932  10.452 -0.3421  0.0508  1.4233
  993MOL0     H36979   8.240   3.210  10.380 -0.0519 -0.8360 -0.5366
  993MOL0     H36980   8.337   3.064  10.408  1.6266  0.0285  2.4658
  993MOL0     H36981   8.383   3.242  10.560 -0.2552  4.1197  3.1161
  993MOL0     H36982   8.224   3.251  10.623  0.9232  0.2873  0.8057
  993MOL0     H36983   8.552   3.067  10.651  0.1877 -0.9542  0.3414
  993MOL0     H36984   8.559   2.922  10.998 -1.5712 -2.1869 -0.5534
  993MOL0     H36985   8.662   2.964  10.858 -0.5976  0.9801 -0.9391
  993MOL0     H36986   8.583   2.746  10.743 -0.8730 -0.4142  0.1892
  993MOL0     H36987   8.711   2.745  10.863 -0.7010  0.2055  2.0644
  993MOL0     H36988   8.533   2.677  11.047 -0.5448 -1.1770  0.0440
  993MOL0     H36989   8.425   2.670  10.900  0.6708 -0.2264 -0.0428
  993MOL0     H36990   8.662   2.488  10.956 -1.0840 -1.8266  0.9264
  993MOL0     H36991   8.494   2.453  10.971  0.4534 -1.7216 -1.2867
  993MOL0     H36992   8.473   2.398  10.550  2.0335 -0.5136 -0.8047
  993MOL0     H36993   8.353   2.108  10.439 -0.3830 -0.4821  2.9769
  993MOL0     H36994   8.511   2.096  10.364 -0.3902  0.2619 -0.0521
  993MOL0     H36995   8.423   2.254  10.377  2.0252  1.2108  0.8001
  993MOL0     H36996   8.601   1.822  10.220 -2.8826 -1.2830  1.5754
  993MOL0     H36997   8.661   1.584  10.129 -3.3202  0.8803  0.5131
  993MOL0     H36998   8.623   1.245  10.406  1.0476 -0.3850  1.8275
  993MOL0     H36999   8.668   1.170  10.261 -1.8133  0.8562 -0.7683
  993MOL0     H37000   8.847   1.296  10.483 -1.8213  1.3962  0.4941
  993MOL0     H37001   8.857   1.128  10.416 -1.0542  0.3871 -3.1471
  993MOL0     H37002   8.966   1.406  10.315  0.9595  0.4467 -0.2406
  993MOL0     H37003   8.930   1.281  10.195 -3.7615 -1.7823  1.4769
  993MOL0     H37004   9.153   1.225  10.229 -0.0500 -1.2405 -0.4233
  993MOL0     H37005   9.064   1.094  10.300  0.8325 -0.7485  3.1471
  993MOL0     H37006   9.127   1.336  10.478 -0.0445  0.7084 -2.2740
  993MOL0     H37007   9.118   1.176  10.523 -1.1203  0.8746  0.7900
  993MOL0     H37008   9.324   1.132  10.369  2.9682  1.3599 -1.4355
  993MOL0     H37009   9.332   1.174  10.537  0.1258 -0.3537 -0.5928
  993MOL0     H37010   9.397   1.409  10.459  0.8119 -0.6464  0.6513
  993MOL0     H37011   9.343   1.357  10.292  0.1611  2.2076  0.3305
  993MOL0     H37012   9.601   1.389  10.351 -0.7215  0.0417  1.2533
  993MOL0     H37013   9.550   1.222  10.288  0.4855  0.1568 -0.1527
  993MOL0     H37014   8.665   1.443  10.522 -0.2820  0.0382 -0.0235
  993MOL0     H37015   8.664   1.655  10.612 -2.6461 -0.0822 -0.8582
  993MOL0     H37016   8.708   2.043  10.809  0.1757  1.0668  0.9570
  993MOL0     H37017   8.675   2.254  10.906 -2.8345 -1.8276  0.9590
  993MOL0     H37018   7.577   3.202  10.405 -0.5349  0.8583  0.8095
  993MOL0     H37019   7.580   3.168  10.675 -0.6353 -1.6650  1.1374
  993MOL0     H37020   7.654   2.949  11.035 -0.1190  3.0807  0.9493
  993MOL0     H37021   7.605   2.989  11.264  2.0374  0.3641  0.0847
  993MOL0     H37022   7.407   3.111  11.526  2.1436  1.2008 -0.7015
  993MOL0     H37023   7.473   3.170  11.373 -0.6627 -0.5339 -0.7418
  993MOL0     H37024   7.181   3.204  11.424  0.8673  0.5965  2.6648
  993MOL0     H37025   7.288   3.276  11.304 -2.0222  0.0542 -0.7817
  993MOL0     H37026   7.292   3.304  11.617 -2.5213 -0.5078 -1.0193
  993MOL0     H37027   7.423   3.355  11.506  0.9241 -2.1814 -2.1263
  993MOL0     H37028   7.273   3.518  11.397  0.0511 -0.1224  0.4899
  993MOL0     H37029   7.267   3.533  11.578 -1.1736 -0.4115  0.5054
  993MOL0     H37030   6.871   3.402  11.512 -0.8381  1.5303 -1.5635
  993MOL0     H37031   7.182   2.962  11.170 -0.0231  1.0044  3.3893
  993MOL0     H37032   7.245   3.011  10.818  0.3151  0.1268  0.2149
  993MOL0     H37033   7.187   2.852  10.851  1.5073 -1.6286  1.5579
  993MOL0     H37034   7.120   2.994  10.942  2.7018  2.2136  1.5307
  994MOL0     O37035   2.247   9.539   4.050 -0.2058  0.1681 -0.1636
  994MOL0     C37036   2.276   9.448   3.977  0.0097  0.3129 -0.4430
  994MOL0     O37037   2.325   9.326   4.014 -0.4788 -0.4304 -0.2359
  994MOL0     C37038   2.398   9.311   4.135  0.3510  0.1103  0.1620
  994MOL0     C37039   2.393   9.188   4.201  1.6500  0.2910  0.2203
  994MOL0     C37040   2.461   9.163   4.321 -0.4185  1.1066  0.8395
  994MOL0     C37041   2.557   9.254   4.363 -1.2763  0.2830 -0.8873
  994MOL0     O37042   2.644   9.209   4.467 -0.1474 -0.3097 -0.1727
  994MOL0     C37043   2.628   9.280   4.588 -0.1803 -0.9605 -0.2061
  994MOL0     C37044   2.768   9.300   4.648 -1.6282 -0.2287 -0.4700
  994MOL0     C37045   2.741   9.345   4.795  1.6494 -0.4549  0.7441
  994MOL0     C37046   2.861   9.377   4.876 -0.5541  0.7239  0.2183
  994MOL0     C37047   2.837   9.349   5.029  0.0281  0.7762  0.3926
  994MOL0     C37048   2.702   9.393   5.094 -0.2011 -0.3047 -0.4936
  994MOL0     C37049   2.729   9.368   5.245 -0.3720  0.6328  0.3791
  994MOL0     C37050   2.633   9.449   5.329  0.6045  0.0690 -0.2089
  994MOL0     N37051   2.644   9.428   5.476  0.3421 -1.4237  0.0265
  994MOL0     C37052   2.646   9.311   5.544  1.1739  0.6909  0.9652
  994MOL0     C37053   2.663   9.337   5.670  1.0010 -0.7009  0.3834
  994MOL0     C37054   2.655   9.239   5.790  0.4843 -0.4032  0.3473
  994MOL0     C37055   2.527   9.261   5.865 -0.2323 -1.0251  0.1964
  994MOL0     C37056   2.407   9.186   5.798 -0.1608  0.8772 -0.3519
  994MOL0     C37057   2.269   9.202   5.873 -0.0370  0.2026  0.2907
  994MOL0     O37058   2.164   9.113   5.843 -0.1991  0.2503  0.7899
  994MOL0     C37059   2.082   9.153   5.739  0.4708  0.4635 -0.6557
  994MOL0     C37060   2.009   9.053   5.670  0.0535  0.1983 -0.5756
  994MOL0     C37061   1.915   9.074   5.569  0.4264  0.4212  0.6067
  994MOL0     C37062   1.851   8.960   5.500  0.2616 -0.5874 -0.0876
  994MOL0     C37063   1.882   9.204   5.541  0.6005 -0.0572  0.3017
  994MOL0     C37064   1.780   9.242   5.447  1.1799  0.3091 -0.5219
  994MOL0     O37065   1.817   9.320   5.340 -0.0761 -0.2900  0.1126
  994MOL0     C37066   1.712   9.333   5.251  0.8652 -0.1047  0.2531
  994MOL0     C37067   1.609   9.426   5.269 -0.5405  0.1971 -0.0136
  994MOL0     C37068   1.504   9.451   5.179 -0.0665 -0.2650  0.2885
  994MOL0     C37069   1.493   9.369   5.064  0.4797  0.2497 -0.1200
  994MOL0     O37070   1.391   9.385   4.978  0.4369  0.5879  0.3027
  994MOL0     C37071   1.415   9.421   4.841  0.3199 -0.2287  0.7006
  994MOL0     C37072   1.285   9.451   4.766 -0.9653  0.4722  0.2495
  994MOL0     C37073   1.225   9.572   4.833  1.0745 -0.1895  0.6490
  994MOL0     C37074   1.092   9.616   4.784  0.1524 -0.1239  1.2253
  994MOL0     C37075   1.003   9.653   4.902  0.3887  0.4604 -1.3150
  994MOL0     C37076   1.033   9.783   4.955 -0.0059  0.0220 -0.7741
  994MOL0     C37077   0.947   9.815   5.077 -0.0304 -0.2326 -0.2580
  994MOL0     C37078   1.006   9.939   5.149  1.0045 -0.2939 -0.5221
  994MOL0    Cl37079   0.897   9.956   5.298  0.4750  0.6465  0.0174
  994MOL0     C37080   1.578   9.254   5.059 -0.9192 -0.2620  0.7910
  994MOL0     C37081   1.686   9.241   5.144 -0.3033  0.3362 -0.3231
  994MOL0     O37082   1.661   9.205   5.470  0.0240 -0.1540 -0.5534
  994MOL0     C37083   1.946   9.308   5.615  0.1330  0.0085 -0.1596
  994MOL0     C37084   2.050   9.286   5.703  0.7141  1.3271  0.1700
  994MOL0     N37085   2.676   9.475   5.683 -0.1182 -0.2337  0.8846
  994MOL0     N37086   2.656   9.525   5.565  0.2134  0.4184 -0.2006
  994MOL0     C37087   2.568   9.381   4.300  1.2597  0.0106  0.5837
  994MOL0     C37088   2.484   9.413   4.191  0.0444  0.1154  0.4039
  994MOL0     C37089   2.230   9.464   3.841  0.9054 -0.9424  0.4545
  994MOL0     C37090   2.111   9.542   3.816  0.5228 -0.0342 -0.1267
  994MOL0     C37091   2.051   9.532   3.691 -0.8373  0.3271 -0.4162
  994MOL0     C37092   2.104   9.451   3.586  0.9889 -0.5521  0.2182
  994MOL0     O37093   2.049   9.450   3.456  0.2678  0.1119 -0.4511
  994MOL0     C37094   2.116   9.361   3.367  0.8359 -0.0888 -0.0160
  994MOL0     C37095   2.046   9.376   3.228  0.2019 -0.5021  0.2367
  994MOL0     C37096   2.105   9.289   3.115 -0.0661  0.2379  0.4579
  994MOL0     C37097   2.019   9.315   2.984  0.6489 -0.4656 -0.2118
  994MOL0     C37098   2.075   9.246   2.860  0.1796  0.3372  0.1806
  994MOL0     C37099   2.112   9.175   2.765 -0.9685  0.0392  0.1851
  994MOL0     C37100   2.224   9.388   3.621 -0.3932  0.9067  1.1064
  994MOL0     C37101   2.294   9.401   3.739  0.1590  0.4023 -1.0183
  994MOL0     C37102   2.432   9.331   3.749  0.3560  0.4794 -0.8861
  994MOL0     H37103   2.336   9.102   4.168 -0.0054  1.2203  0.5346
  994MOL0     H37104   2.442   9.071   4.376  0.1767  0.4201 -0.0506
  994MOL0     H37105   2.559   9.223   4.650 -0.1439 -1.2237 -0.4075
  994MOL0     H37106   2.578   9.374   4.566 -0.8244 -1.4315 -0.7797
  994MOL0     H37107   2.831   9.211   4.651 -0.7707  0.3896  1.5195
  994MOL0     H37108   2.819   9.375   4.587  0.6805 -0.8357  0.5816
  994MOL0     H37109   2.669   9.428   4.797  0.0252 -1.8152  0.2278
  994MOL0     H37110   2.684   9.262   4.836  3.1087  0.5203  5.4591
  994MOL0     H37111   2.948   9.320   4.840 -1.4758  1.2099 -3.0604
  994MOL0     H37112   2.866   9.485   4.858 -3.0501  0.8364 -0.1677
  994MOL0     H37113   2.919   9.401   5.081 -0.3031 -1.1661  3.1084
  994MOL0     H37114   2.862   9.245   5.054 -1.1246  0.3749 -0.0454
  994MOL0     H37115   2.690   9.496   5.061  2.1165  0.3702  0.5074
  994MOL0     H37116   2.611   9.336   5.073 -1.3534  0.9786  0.7904
  994MOL0     H37117   2.832   9.388   5.276 -1.1182  3.2764  1.3995
  994MOL0     H37118   2.715   9.260   5.261  2.1263  0.3631  1.1595
  994MOL0     H37119   2.635   9.553   5.296  0.4753 -0.0143 -0.4768
  994MOL0     H37120   2.533   9.412   5.303 -0.1383 -0.0814  2.5422
  994MOL0     H37121   2.611   9.216   5.504 -4.6419  1.8468  2.5119
  994MOL0     H37122   2.740   9.269   5.852  1.5188  3.9210 -2.7706
  994MOL0     H37123   2.662   9.134   5.759  2.0604 -0.2424  0.0738
  994MOL0     H37124   2.537   9.250   5.974  3.2734  2.0844  0.3958
  994MOL0     H37125   2.486   9.360   5.847  1.4660 -0.6050 -1.7054
  994MOL0     H37126   2.400   9.227   5.697 -0.7541 -0.1444 -0.7408
  994MOL0     H37127   2.436   9.081   5.794  1.5274  1.3683 -3.0310
  994MOL0     H37128   2.282   9.194   5.981  0.4308  1.0471  0.3071
  994MOL0     H37129   2.246   9.308   5.866  0.7466  0.3309 -0.4931
  994MOL0     H37130   2.025   8.952   5.705 -1.4090  0.0348 -0.2909
  994MOL0     H37131   1.800   8.902   5.578  0.7733  0.1364  0.8030
  994MOL0     H37132   1.929   8.905   5.447 -1.4513  0.3719 -3.9567
  994MOL0     H37133   1.791   8.986   5.412  0.2003 -3.4406 -0.9953
  994MOL0     H37134   1.614   9.491   5.356 -2.1308 -0.4356  0.5887
  994MOL0     H37135   1.433   9.532   5.193 -0.4487 -0.8800  2.1400
  994MOL0     H37136   1.485   9.505   4.844  1.3027 -1.0390  1.2145
  994MOL0     H37137   1.473   9.347   4.785  1.1796  0.9905 -0.0633
  994MOL0     H37138   1.302   9.470   4.660 -1.5264 -0.4086 -0.0022
  994MOL0     H37139   1.229   9.359   4.780 -0.1582 -0.1482 -0.4985
  994MOL0     H37140   1.295   9.651   4.804  0.0376 -0.6661 -4.0698
  994MOL0     H37141   1.219   9.550   4.940  0.2585 -2.6756  0.1602
  994MOL0     H37142   1.037   9.530   4.745  0.2340 -0.2192  1.3214
  994MOL0     H37143   1.099   9.686   4.700  4.6535 -0.8046  0.7789
  994MOL0     H37144   0.897   9.651   4.874  0.0517 -1.6945 -0.1587
  994MOL0     H37145   1.008   9.580   4.984  1.7535  1.4692 -0.4559
  994MOL0     H37146   1.025   9.854   4.871 -3.1507  0.6657 -0.0436
  994MOL0     H37147   1.136   9.788   4.992  0.2833  0.3659 -1.5927
  994MOL0     H37148   0.958   9.731   5.146  1.1441  0.3273  0.2606
  994MOL0     H37149   0.842   9.828   5.050  0.2982 -0.6184 -1.7648
  994MOL0     H37150   1.000  10.025   5.082 -0.5302 -2.0668 -2.8260
  994MOL0     H37151   1.111   9.915   5.165  1.2499 -1.7789 -3.7134
  994MOL0     H37152   1.557   9.188   4.975 -0.5406 -1.4102  1.5712
  994MOL0     H37153   1.761   9.164   5.129 -0.5168 -0.0546  0.5367
  994MOL0     H37154   1.922   9.411   5.590  0.0645 -0.4279 -2.0412
  994MOL0     H37155   2.098   9.373   5.746  0.8409  1.1453  0.3934
  994MOL0     H37156   2.652   9.440   4.334  1.3514 -0.1462  0.6270
  994MOL0     H37157   2.496   9.499   4.126 -1.6285 -1.5007 -2.2619
  994MOL0     H37158   2.062   9.592   3.898  0.9778  1.8425 -0.9546
  994MOL0     H37159   1.965   9.594   3.670 -0.2400  2.1971  2.1420
  994MOL0     H37160   2.221   9.383   3.347  0.7382 -1.5860 -2.6269
  994MOL0     H37161   2.107   9.259   3.408  0.8898 -0.4641 -0.9271
  994MOL0     H37162   2.057   9.484   3.214 -0.6579 -0.4841 -0.3951
  994MOL0     H37163   1.938   9.362   3.243 -0.0935  2.0418  1.1119
  994MOL0     H37164   2.208   9.323   3.095  0.0951  2.4611  4.0616
  994MOL0     H37165   2.113   9.183   3.141  0.5996  0.3770  0.8569
  994MOL0     H37166   1.990   9.415   2.950 -3.0860 -1.3860 -0.1121
  994MOL0     H37167   1.933   9.251   3.000 -0.8149  1.1561 -1.1969
  994MOL0     H37168   2.146   9.125   2.677 -0.7422  0.7621 -0.1404
  994MOL0     H37169   2.271   9.321   3.551  1.9264  0.7486  2.7238
  994MOL0     H37170   2.468   9.315   3.647 -2.1741  1.0058 -1.9290
  994MOL0     H37171   2.505   9.397   3.796  0.6442 -0.7218  0.4420
  994MOL0     H37172   2.432   9.242   3.813  3.9562  1.1019  0.2151
  995MOL0     O37173   6.690   2.028  10.424 -1.0307 -0.0036  0.3532
  995MOL0     C37174   6.679   2.147  10.415 -0.5690 -0.6519  0.6691
  995MOL0     O37175   6.775   2.232  10.369  0.6741  0.1353 -1.0117
  995MOL0     C37176   6.900   2.178  10.348  0.7561 -0.7599 -0.2964
  995MOL0     C37177   6.975   2.124  10.445 -0.6109 -0.4968 -0.1812
  995MOL0     C37178   7.105   2.073  10.423  0.0078  0.3692  0.7868
  995MOL0     C37179   7.158   2.070  10.291  0.2492 -0.2813 -0.0877
  995MOL0     O37180   7.283   2.022  10.280 -0.0062 -0.7510 -0.5609
  995MOL0     C37181   7.331   1.995  10.142 -0.1472  0.0259 -0.1466
  995MOL0     C37182   7.423   1.879  10.125  0.3795 -0.1859  0.1394
  995MOL0     C37183   7.552   1.893  10.217  0.8488  0.1804 -0.5585
  995MOL0     C37184   7.648   1.762  10.217  0.1615 -0.1560 -0.3537
  995MOL0     C37185   7.759   1.773  10.323 -0.0650  0.1006 -0.0507
  995MOL0     C37186   7.696   1.752  10.470  0.3013 -0.8040 -0.0121
  995MOL0     C37187   7.813   1.742  10.578  0.2058 -0.6192 -0.2879
  995MOL0     C37188   7.862   1.594  10.590 -0.7557  0.9623 -0.5711
  995MOL0     N37189   7.750   1.502  10.625 -0.0828 -0.4393  0.2098
  995MOL0     C37190   7.686   1.508  10.747  0.6381  0.0229  0.7722
  995MOL0     C37191   7.613   1.390  10.754 -0.0506 -0.2412  0.1355
  995MOL0     C37192   7.526   1.336  10.862 -0.0590  0.5217  0.1750
  995MOL0     C37193   7.596   1.212  10.927  0.2724 -0.4920 -0.5819
  995MOL0     C37194   7.503   1.146  11.035  0.3576  0.0947  0.7045
  995MOL0     C37195   7.568   1.055  11.144  0.7872  0.2599 -0.5320
  995MOL0     O37196   7.626   0.930  11.086  0.3840  0.3196 -0.1548
  995MOL0     C37197   7.657   0.832  11.175 -0.2734  0.8356  0.0148
  995MOL0     C37198   7.653   0.829  11.316  0.6666  0.6787 -1.5859
  995MOL0     C37199   7.703   0.721  11.398  0.2928  0.3582 -0.2465
  995MOL0     C37200   7.690   0.722  11.555  0.0881 -0.3691 -0.3761
  995MOL0     C37201   7.754   0.603  11.328 -0.7529  0.1409  0.1537
  995MOL0     C37202   7.803   0.474  11.396  0.2725  0.1640  0.4378
  995MOL0     O37203   7.898   0.398  11.339 -0.2991  0.6180 -0.3125
  995MOL0     C37204   7.936   0.282  11.403 -0.0821 -0.0082 -0.3115
  995MOL0     C37205   8.044   0.290  11.491  0.8206 -0.0106 -0.7221
  995MOL0     C37206   8.083   0.172  11.560 -0.1320 -0.0318 -0.4469
  995MOL0     C37207   8.029   0.047  11.529  0.0747 -0.7176 -0.2983
  995MOL0     O37208   8.044  -0.051  11.617 -0.2541 -0.1309  0.3081
  995MOL0     C37209   8.173  -0.104  11.643  0.9473  0.7635  0.3740
  995MOL0     C37210   8.204  -0.176  11.513  0.0780 -0.2374 -0.0825
  995MOL0     C37211   8.337  -0.250  11.528  0.3558  0.8120 -0.6618
  995MOL0     C37212   8.351  -0.339  11.404  0.0913  0.3388  0.5759
  995MOL0     C37213   8.469  -0.434  11.422 -0.8897 -0.0710  0.0335
  995MOL0     C37214   8.486  -0.526  11.294 -0.2113  0.7657 -0.6204
  995MOL0     C37215   8.428  -0.664  11.327 -0.3478  0.0942 -0.1410
  995MOL0     C37216   8.429  -0.744  11.193  0.8836 -0.3367 -0.9227
  995MOL0    Cl37217   8.578  -0.747  11.115  0.2848 -0.2025  0.4753
  995MOL0     C37218   7.925   0.041  11.436  0.5049 -1.4880 -0.1209
  995MOL0     C37219   7.875   0.157  11.371 -0.0695  0.4480 -0.2021
  995MOL0     O37220   7.728   0.438  11.478 -0.5493 -0.3799  0.1205
  995MOL0     C37221   7.756   0.605  11.193  0.0799 -0.7021  0.0228
  995MOL0     C37222   7.714   0.714  11.117  0.2219 -0.0445 -1.7293
  995MOL0     N37223   7.649   1.316  10.646  0.4364 -0.4581  0.5264
  995MOL0     N37224   7.726   1.386  10.567  0.1871  0.0673  0.4621
  995MOL0     C37225   7.079   2.122  10.189  0.2868  0.7988 -0.6816
  995MOL0     C37226   6.954   2.179  10.216  0.4084  0.1813 -0.4222
  995MOL0     C37227   6.548   2.205  10.441 -0.3293 -0.1131 -0.0282
  995MOL0     C37228   6.506   2.329  10.384 -0.3506  0.3691 -0.5019
  995MOL0     C37229   6.386   2.393  10.405 -0.7589  0.1132  0.1261
  995MOL0     C37230   6.290   2.333  10.481  0.2531  0.0487 -0.3981
  995MOL0     O37231   6.176   2.407  10.493 -0.0343  0.5181  0.3468
  995MOL0     C37232   6.069   2.361  10.586 -0.2297  0.2219 -0.2332
  995MOL0     C37233   6.021   2.461  10.686 -0.1370  0.7262  0.1689
  995MOL0     C37234   6.119   2.458  10.803 -0.5828  0.0303 -0.3996
  995MOL0     C37235   6.099   2.599  10.878 -0.1991 -0.3266 -0.0668
  995MOL0     C37236   6.155   2.591  11.017  0.0390  0.8400  0.4102
  995MOL0     C37237   6.195   2.569  11.130  0.7785 -0.1831 -0.1045
  995MOL0     C37238   6.319   2.210  10.539  0.0833 -0.6019 -0.6010
  995MOL0     C37239   6.447   2.136  10.514  0.0977 -0.7012 -0.4055
  995MOL0     C37240   6.458   2.007  10.597  0.0330 -0.2491  0.2465
  995MOL0     H37241   6.938   2.140  10.546  0.5344 -0.7672  0.2915
  995MOL0     H37242   7.159   2.025  10.504 -1.2276 -2.8566 -0.1469
  995MOL0     H37243   7.377   2.090  10.113  1.7364 -0.3230  1.4966
  995MOL0     H37244   7.254   1.963  10.072 -0.8264 -0.3205  0.7416
  995MOL0     H37245   7.369   1.791  10.161 -1.6096  0.9115  0.0107
  995MOL0     H37246   7.437   1.867  10.018  0.0372 -0.3936  0.1155
  995MOL0     H37247   7.609   1.976  10.174 -2.2239  0.2429 -5.2143
  995MOL0     H37248   7.520   1.913  10.320  0.2943  2.3829 -1.0975
  995MOL0     H37249   7.585   1.674  10.235 -1.8639  0.7692 -2.4216
  995MOL0     H37250   7.697   1.746  10.121 -1.3469 -2.0513 -0.8797
  995MOL0     H37251   7.801   1.874  10.312 -1.3181  0.4922 -1.5845
  995MOL0     H37252   7.829   1.691  10.306  0.1522  0.5263 -1.3164
  995MOL0     H37253   7.638   1.841  10.497 -1.1771 -1.6866 -0.1245
  995MOL0     H37254   7.630   1.664  10.468  2.7276 -2.7127 -2.3040
  995MOL0     H37255   7.771   1.770  10.675  0.3467  0.7642 -0.6108
  995MOL0     H37256   7.887   1.817  10.549  0.0207  0.3377  1.5154
  995MOL0     H37257   7.915   1.571  10.497 -1.2183 -1.3407 -0.3209
  995MOL0     H37258   7.928   1.588  10.677  1.3227 -0.1633 -2.1500
  995MOL0     H37259   7.697   1.591  10.816  1.2230 -0.4834  1.2894
  995MOL0     H37260   7.427   1.311  10.823  1.9121 -2.7333 -3.4939
  995MOL0     H37261   7.519   1.427  10.921  0.2455  1.2548 -0.8929
  995MOL0     H37262   7.606   1.122  10.865 -3.3750 -0.9972 -0.6647
  995MOL0     H37263   7.690   1.240  10.977 -0.8548  2.3388  0.1800
  995MOL0     H37264   7.439   1.208  11.097 -4.6909 -2.5509 -1.3054
  995MOL0     H37265   7.432   1.080  10.984 -0.7787  1.2566  0.7286
  995MOL0     H37266   7.640   1.105  11.210  0.4846  1.2121 -0.8966
  995MOL0     H37267   7.487   1.022  11.210 -0.2597 -2.2788 -2.8641
  995MOL0     H37268   7.603   0.906  11.375  0.7785 -1.1671  1.1144
  995MOL0     H37269   7.599   0.664  11.572 -0.0277  0.2440  1.3013
  995MOL0     H37270   7.698   0.821  11.601  3.1254 -1.7079  2.3565
  995MOL0     H37271   7.770   0.664  11.602 -0.7003 -0.1568  1.2964
  995MOL0     H37272   8.068   0.393  11.518 -1.2147  0.3258  0.0143
  995MOL0     H37273   8.150   0.164  11.645 -2.5067 -0.9861  1.4532
  995MOL0     H37274   8.245  -0.025  11.669  1.6151 -0.1609  1.4110
  995MOL0     H37275   8.170  -0.180  11.722 -2.6426  0.3910  0.0149
  995MOL0     H37276   8.123  -0.244  11.486  0.5830 -0.9763  0.2352
  995MOL0     H37277   8.219  -0.104  11.432  1.7337 -1.8380 -1.2868
  995MOL0     H37278   8.328  -0.301  11.624 -0.6928  1.9373 -0.1364
  995MOL0     H37279   8.418  -0.176  11.526  0.0976  1.0774 -1.6668
  995MOL0     H37280   8.375  -0.273  11.320  0.9030 -0.5574  0.0876
  995MOL0     H37281   8.255  -0.388  11.389 -0.2932  0.5555  2.1784
  995MOL0     H37282   8.562  -0.379  11.438 -0.3728 -1.1744  0.9364
  995MOL0     H37283   8.447  -0.495  11.510 -0.5308  2.4925  2.0292
  995MOL0     H37284   8.590  -0.528  11.263  0.2724 -3.5164  0.6970
  995MOL0     H37285   8.424  -0.488  11.212 -3.3194 -2.1596  0.1517
  995MOL0     H37286   8.326  -0.660  11.366 -0.1666  0.1526  0.3338
  995MOL0     H37287   8.485  -0.712  11.407  0.7563  1.6822  0.0584
  995MOL0     H37288   8.360  -0.698  11.122  0.7116 -3.6919 -3.2000
  995MOL0     H37289   8.397  -0.848  11.208  2.3607 -0.7256 -0.2563
  995MOL0     H37290   7.897  -0.058  11.404 -1.2594 -0.4496 -2.0597
  995MOL0     H37291   7.795   0.155  11.298 -1.8256  1.8195  1.5734
  995MOL0     H37292   7.775   0.517  11.133  0.5824  0.2851 -1.3172
  995MOL0     H37293   7.703   0.704  11.010 -0.2861  0.7432 -1.7536
  995MOL0     H37294   7.100   2.106  10.084  1.0373 -0.1289 -0.4019
  995MOL0     H37295   6.882   2.209  10.141  1.6159  2.9389 -0.6002
  995MOL0     H37296   6.576   2.380  10.319  0.9346 -0.9307 -0.2120
  995MOL0     H37297   6.374   2.490  10.359 -0.8649 -0.0276 -0.1441
  995MOL0     H37298   5.990   2.346  10.511 -1.1181  3.5328 -0.1455
  995MOL0     H37299   6.094   2.272  10.643  1.5454  1.6030  1.2663
  995MOL0     H37300   5.927   2.433  10.734  1.9324 -0.9600  3.6183
  995MOL0     H37301   6.018   2.558  10.636 -2.6204 -0.4705 -2.2604
  995MOL0     H37302   6.092   2.377  10.872 -1.5051  0.1167 -0.6575
  995MOL0     H37303   6.224   2.437  10.779  0.8153 -0.3973  4.7082
  995MOL0     H37304   5.991   2.618  10.875 -0.0219  1.7861  2.7373
  995MOL0     H37305   6.151   2.684  10.833 -1.1257 -0.2222 -0.9785
  995MOL0     H37306   6.211   2.566  11.236  1.8687 -2.7178 -0.2749
  995MOL0     H37307   6.250   2.165  10.610  0.2152 -0.8580 -0.6335
  995MOL0     H37308   6.359   1.970  10.625  0.7297 -0.7683  2.1247
  995MOL0     H37309   6.511   1.927  10.544 -0.8843 -0.5334 -0.2665
  995MOL0     H37310   6.507   2.023  10.693 -1.3499  0.6528  0.8278
  996MOL0     O37311   5.926   0.806   3.932 -0.1505  0.2331  0.4029
  996MOL0     C37312   5.977   0.751   3.835  0.2043 -0.2559  0.0435
  996MOL0     O37313   5.908   0.709   3.726 -0.3719  0.2765 -0.1304
  996MOL0     C37314   5.802   0.790   3.676  0.1618  0.3217  0.4946
  996MOL0     C37315   5.721   0.732   3.576 -0.3645 -0.1285  0.6955
  996MOL0     C37316   5.618   0.801   3.513  0.4768 -0.3296  0.3123
  996MOL0     C37317   5.599   0.940   3.550  0.1603  0.3227  0.2324
  996MOL0     O37318   5.506   1.016   3.479  0.4697 -0.4330  0.3415
  996MOL0     C37319   5.393   1.039   3.557 -0.3034  0.0914  0.2111
  996MOL0     C37320   5.266   1.003   3.472 -0.7934  0.1973  0.2880
  996MOL0     C37321   5.135   1.031   3.540  0.6040 -0.5038 -0.4005
  996MOL0     C37322   5.095   0.918   3.639  0.5560 -0.1763 -0.1353
  996MOL0     C37323   4.963   0.964   3.716  0.2360  0.8619 -0.0919
  996MOL0     C37324   4.890   0.855   3.799  0.1840  0.5063 -0.4054
  996MOL0     C37325   4.749   0.894   3.853  0.1880  0.3127 -0.0780
  996MOL0     C37326   4.705   0.811   3.972 -0.1290  0.5110 -0.3773
  996MOL0     N37327   4.772   0.846   4.098 -0.2387  0.4382 -0.0126
  996MOL0     C37328   4.866   0.766   4.163  0.2176  0.1090  0.3730
  996MOL0     C37329   4.900   0.837   4.274 -0.2537  0.1624 -0.9504
  996MOL0     C37330   5.006   0.803   4.370 -0.0325 -0.5933  0.0930
  996MOL0     C37331   4.975   0.676   4.448  0.2040  0.0199  0.6815
  996MOL0     C37332   5.102   0.615   4.518 -0.6518  0.4512 -0.3270
  996MOL0     C37333   5.217   0.571   4.419 -0.5868  0.0934 -0.6084
  996MOL0     O37334   5.335   0.651   4.442 -0.4940  0.4367  0.6341
  996MOL0     C37335   5.453   0.601   4.404 -1.0345  0.4584  0.0745
  996MOL0     C37336   5.533   0.680   4.322 -0.6232 -0.5672 -0.1881
  996MOL0     C37337   5.652   0.629   4.267 -0.6988 -0.1208 -0.0533
  996MOL0     C37338   5.723   0.717   4.167  0.8157  0.7992  0.0557
  996MOL0     C37339   5.711   0.506   4.307  0.1548 -0.0969  0.0581
  996MOL0     C37340   5.848   0.461   4.275  0.0442 -0.3815 -0.3575
  996MOL0     O37341   5.930   0.570   4.254 -0.0949  0.5896 -0.3379
  996MOL0     C37342   6.055   0.524   4.245 -0.3535  0.3173  0.9884
  996MOL0     C37343   6.139   0.526   4.351 -0.2907  0.9836 -0.0586
  996MOL0     C37344   6.271   0.495   4.348 -0.1849  0.6956  0.5829
  996MOL0     C37345   6.332   0.472   4.233 -0.1357  0.6861 -1.0318
  996MOL0     O37346   6.470   0.449   4.233  0.8283 -0.2262  0.0382
  996MOL0     C37347   6.539   0.542   4.151  0.4428  0.3165 -0.3633
  996MOL0     C37348   6.618   0.639   4.242  0.7150 -0.4382 -1.0928
  996MOL0     C37349   6.705   0.568   4.344 -0.6787  0.5730  0.0392
  996MOL0     C37350   6.822   0.494   4.274  0.3677  0.0226  0.8777
  996MOL0     C37351   6.929   0.436   4.372 -1.0203  0.3391  0.0658
  996MOL0     C37352   6.864   0.333   4.464  0.8289  0.5340 -0.0032
  996MOL0     C37353   6.962   0.230   4.520  0.0536  0.2166  0.1045
  996MOL0     C37354   6.914   0.141   4.636  0.4260 -0.6451  0.0834
  996MOL0    Cl37355   6.931   0.235   4.788  0.4138  0.6112 -0.0824
  996MOL0     C37356   6.249   0.456   4.122 -0.2306 -0.8990  0.7352
  996MOL0     C37357   6.113   0.481   4.123 -0.9489 -0.2079  0.2193
  996MOL0     O37358   5.879   0.337   4.275 -0.2977  0.2124 -0.9114
  996MOL0     C37359   5.627   0.428   4.386  0.9077  0.5569  0.3233
  996MOL0     C37360   5.501   0.477   4.438 -0.5383  0.4557 -0.7997
  996MOL0     N37361   4.827   0.956   4.268 -0.4389 -0.5647  0.3823
  996MOL0     N37362   4.754   0.961   4.163 -0.0132 -0.1799  0.0391
  996MOL0     C37363   5.677   0.992   3.647 -0.2836 -0.5597  0.7117
  996MOL0     C37364   5.777   0.923   3.709  0.3883 -0.7944  0.4067
  996MOL0     C37365   6.116   0.709   3.843  0.1410  0.1551  0.1947
  996MOL0     C37366   6.162   0.600   3.761  0.3936 -0.3271  0.0874
  996MOL0     C37367   6.298   0.563   3.753  0.8721 -0.0794  0.1163
  996MOL0     C37368   6.389   0.637   3.822  0.0777 -0.2922 -0.2527
  996MOL0     O37369   6.522   0.612   3.811  0.8769  0.0580 -0.2700
  996MOL0     C37370   6.594   0.673   3.697  1.3036  0.3610  0.6997
  996MOL0     C37371   6.557   0.607   3.563  0.8107 -0.3440  0.3922
  996MOL0     C37372   6.620   0.678   3.446 -0.1830 -0.6469  0.0972
  996MOL0     C37373   6.632   0.588   3.322  0.2648  0.3652  0.6259
  996MOL0     C37374   6.709   0.660   3.222  0.3997 -0.3057  0.7577
  996MOL0     C37375   6.769   0.731   3.139  0.5023 -0.3136  0.7659
  996MOL0     C37376   6.346   0.740   3.906 -0.4843  0.0014  0.1983
  996MOL0     C37377   6.216   0.768   3.922  0.5203 -0.4675 -0.0344
  996MOL0     C37378   6.188   0.853   4.049  0.1953 -0.7911 -0.7047
  996MOL0     H37379   5.751   0.633   3.543 -0.6017 -0.0172  0.1432
  996MOL0     H37380   5.555   0.754   3.438  1.4468 -0.3286 -0.5213
  996MOL0     H37381   5.402   1.145   3.582  3.7010 -0.5104  2.1104
  996MOL0     H37382   5.393   0.982   3.651 -3.4311  0.0792  0.3248
  996MOL0     H37383   5.257   1.061   3.380  1.9163  0.9965  0.4682
  996MOL0     H37384   5.280   0.896   3.454 -2.9866  0.1533 -1.6646
  996MOL0     H37385   5.151   1.128   3.587 -0.4195 -0.6229  0.2040
  996MOL0     H37386   5.057   1.034   3.463  1.0748 -2.5499 -1.0421
  996MOL0     H37387   5.082   0.817   3.598  1.6847 -1.1792  1.8409
  996MOL0     H37388   5.175   0.912   3.713  0.4473  3.2335  0.4301
  996MOL0     H37389   4.892   0.990   3.636 -2.2039 -1.6576  1.0932
  996MOL0     H37390   4.983   1.051   3.778 -0.1163 -0.5454  2.0827
  996MOL0     H37391   4.899   0.760   3.746  2.5935  0.0264  0.7127
  996MOL0     H37392   4.948   0.832   3.889  0.6071  0.1126 -0.7751
  996MOL0     H37393   4.681   0.892   3.768 -2.0876  1.9989  1.5724
  996MOL0     H37394   4.737   0.995   3.893 -3.1160  0.2283 -0.5951
  996MOL0     H37395   4.596   0.825   3.972 -0.3540 -1.0295  0.1539
  996MOL0     H37396   4.720   0.703   3.957  2.1917  0.5928  0.9164
  996MOL0     H37397   4.898   0.665   4.139  0.8984 -0.2510  2.5873
  996MOL0     H37398   5.021   0.891   4.433  1.7553 -0.2586 -0.7340
  996MOL0     H37399   5.088   0.783   4.300  1.0880 -0.4261  1.3142
  996MOL0     H37400   4.909   0.704   4.530 -0.9670 -1.9920  0.4800
  996MOL0     H37401   4.923   0.603   4.386 -2.8784  3.1478 -0.7728
  996MOL0     H37402   5.139   0.690   4.589  0.1388 -0.5615  0.3452
  996MOL0     H37403   5.075   0.532   4.584  1.2816 -0.1988 -0.2944
  996MOL0     H37404   5.247   0.473   4.456  1.3440  1.8280  2.9573
  996MOL0     H37405   5.183   0.563   4.315 -2.6821  0.9461 -0.0306
  996MOL0     H37406   5.492   0.774   4.288  1.9668  0.7293  0.0128
  996MOL0     H37407   5.797   0.778   4.219  2.2012 -1.2332  0.6032
  996MOL0     H37408   5.657   0.789   4.118  0.7508  0.3837 -0.4844
  996MOL0     H37409   5.777   0.659   4.091 -1.9053 -1.6847 -0.1450
  996MOL0     H37410   6.101   0.552   4.449  2.2614  1.5810  0.8569
  996MOL0     H37411   6.319   0.515   4.443 -1.4680 -1.2691  1.7137
  996MOL0     H37412   6.612   0.492   4.086  0.2852  1.4241 -1.4186
  996MOL0     H37413   6.472   0.606   4.094 -1.4072 -0.0542  1.2881
  996MOL0     H37414   6.677   0.711   4.185 -0.8400  3.0378  1.3446
  996MOL0     H37415   6.549   0.707   4.293  1.3710  0.4729 -1.3973
  996MOL0     H37416   6.640   0.495   4.393  0.3045 -0.8933 -0.7451
  996MOL0     H37417   6.739   0.635   4.423  1.4293  1.4953 -1.5544
  996MOL0     H37418   6.868   0.573   4.213 -0.5860 -0.2771 -0.2610
  996MOL0     H37419   6.781   0.413   4.214  0.7369 -0.2816  1.0352
  996MOL0     H37420   7.004   0.391   4.305  0.0754  0.9987  0.8111
  996MOL0     H37421   6.968   0.525   4.421 -0.4572 -0.3643  0.9426
  996MOL0     H37422   6.774   0.290   4.420  2.4748 -1.9444 -1.1895
  996MOL0     H37423   6.825   0.382   4.554  0.4530 -0.4133  0.3669
  996MOL0     H37424   7.057   0.276   4.548  1.3188 -1.5884 -0.9832
  996MOL0     H37425   6.986   0.155   4.443  0.8035 -0.8483  1.3267
  996MOL0     H37426   6.971   0.048   4.639 -0.0888 -0.9413  2.5195
  996MOL0     H37427   6.811   0.112   4.615 -0.2825  0.7422  1.4634
  996MOL0     H37428   6.285   0.423   4.024  0.3850 -3.3357  1.6968
  996MOL0     H37429   6.048   0.482   4.036 -3.8341  0.1941  2.2291
  996MOL0     H37430   5.658   0.325   4.394 -0.5952 -0.0137 -0.8912
  996MOL0     H37431   5.441   0.408   4.496 -0.3861 -0.7674 -2.0370
  996MOL0     H37432   5.667   1.099   3.664  1.4550 -0.0588 -1.0752
  996MOL0     H37433   5.841   0.969   3.784  1.9353  0.1602 -1.4218
  996MOL0     H37434   6.085   0.551   3.701 -0.0516 -1.0012  1.1872
  996MOL0     H37435   6.325   0.487   3.680  1.2942 -1.6352  1.8134
  996MOL0     H37436   6.564   0.778   3.691  0.5688  0.1559  0.6287
  996MOL0     H37437   6.702   0.667   3.708  1.5587 -0.3974 -1.6672
  996MOL0     H37438   6.450   0.627   3.564  1.1769  2.0308  1.4217
  996MOL0     H37439   6.579   0.500   3.563  1.7496 -0.1772  1.7886
  996MOL0     H37440   6.554   0.757   3.408 -0.2591 -0.9905 -0.5035
  996MOL0     H37441   6.722   0.704   3.474  0.2394 -0.3992 -1.5694
  996MOL0     H37442   6.530   0.572   3.286 -0.6646  0.0097  3.1733
  996MOL0     H37443   6.688   0.496   3.345 -0.3034 -0.4312 -1.0588
  996MOL0     H37444   6.811   0.799   3.068 -2.7111  1.1173  0.0284
  996MOL0     H37445   6.420   0.775   3.978 -1.6244  1.8071  0.5525
  996MOL0     H37446   6.157   0.951   4.013 -0.7446 -1.2813 -1.2858
  996MOL0     H37447   6.108   0.799   4.102 -0.9586 -1.1700 -2.7077
  996MOL0     H37448   6.271   0.873   4.118 -0.9367  0.4371  0.3505
  997MOL0     O37449  11.303   6.401   2.005  0.0530 -0.8046 -0.3423
  997MOL0     C37450  11.325   6.287   2.038 -0.4521 -0.3145  0.9084
  997MOL0     O37451  11.444   6.241   2.101  0.4545  0.2007  0.2022
  997MOL0     C37452  11.569   6.285   2.070  0.1214  1.4948  0.1003
  997MOL0     C37453  11.663   6.223   2.157 -0.1903  0.0802  0.1905
  997MOL0     C37454  11.792   6.263   2.149 -0.5033  0.5586  0.4644
  997MOL0     C37455  11.836   6.362   2.044  0.2613  1.2988  0.4913
  997MOL0     O37456  11.968   6.409   2.045  0.5428  0.0964 -0.4787
  997MOL0     C37457  12.052   6.340   1.955  0.1514 -0.2503 -0.1703
  997MOL0     C37458  12.168   6.433   1.908 -0.0480  0.7244 -0.5894
  997MOL0     C37459  12.133   6.574   1.851 -1.0080 -0.3373  0.4461
  997MOL0     C37460  12.201   6.609   1.716  1.2652 -0.5721  1.3621
  997MOL0     C37461  12.157   6.753   1.673 -0.3994 -0.1930 -1.4193
  997MOL0     C37462  12.227   6.862   1.755  0.1389  0.7998 -0.1782
  997MOL0     C37463  12.176   7.002   1.706 -0.4641  1.4190 -0.4534
  997MOL0     C37464  12.057   7.067   1.783 -0.8364  0.3563 -0.5757
  997MOL0     N37465  12.041   7.209   1.743 -0.3799 -0.3527 -0.1081
  997MOL0     C37466  11.922   7.264   1.700 -0.2409  0.5475  0.9421
  997MOL0     C37467  11.924   7.388   1.741  0.6809  0.7603 -0.8471
  997MOL0     C37468  11.812   7.487   1.728 -0.3440 -0.0482  0.1318
  997MOL0     C37469  11.844   7.588   1.621  0.5492  0.1070 -0.5581
  997MOL0     C37470  11.753   7.711   1.636  0.3907  0.7833  0.8512
  997MOL0     C37471  11.773   7.794   1.513  0.4722  0.1296 -1.6203
  997MOL0     O37472  11.721   7.733   1.396  0.1605  0.4591 -0.0210
  997MOL0     C37473  11.806   7.680   1.295  0.3632 -0.4099 -0.3506
  997MOL0     C37474  11.950   7.701   1.273  0.5244 -0.1137 -0.7090
  997MOL0     C37475  12.008   7.639   1.158 -0.6417  0.3157  0.3133
  997MOL0     C37476  12.162   7.668   1.137  0.0721  0.1872  0.2383
  997MOL0     C37477  11.940   7.568   1.060  0.3078 -1.0042  0.1465
  997MOL0     C37478  11.981   7.492   0.939 -0.9742 -0.4691 -0.5787
  997MOL0     O37479  11.887   7.449   0.858 -0.9702 -0.4043 -0.2949
  997MOL0     C37480  11.923   7.357   0.760  0.1102  0.6548 -0.7532
  997MOL0     C37481  11.918   7.219   0.784  0.2507 -1.0319 -0.2586
  997MOL0     C37482  11.969   7.124   0.701  0.3619 -0.6943 -0.0940
  997MOL0     C37483  12.038   7.162   0.588  0.8088 -0.5234 -0.5120
  997MOL0     O37484  12.097   7.070   0.499 -1.0346 -0.0966 -0.3576
  997MOL0     C37485  12.111   6.934   0.541  0.0846 -0.3037  0.7719
  997MOL0     C37486  12.204   6.860   0.439  0.2410  1.0021  0.3293
  997MOL0     C37487  12.235   6.715   0.478 -0.6574 -0.6385  0.1635
  997MOL0     C37488  12.295   6.704   0.626 -0.0467  0.2748  0.0183
  997MOL0     C37489  12.346   6.556   0.646  0.3809  0.5587 -0.0701
  997MOL0     C37490  12.505   6.531   0.620  0.7793 -0.0339 -0.7139
  997MOL0     C37491  12.565   6.431   0.706 -0.4505  0.0112 -0.3805
  997MOL0     C37492  12.603   6.468   0.854 -0.4466 -0.4126  0.0997
  997MOL0    Cl37493  12.743   6.584   0.859  0.4792  0.2344  0.1854
  997MOL0     C37494  12.030   7.295   0.552 -0.0543 -0.6263  0.1999
  997MOL0     C37495  11.976   7.395   0.638 -0.3166  0.3745  0.1878
  997MOL0     O37496  12.107   7.482   0.918 -0.6769 -0.1445 -0.2426
  997MOL0     C37497  11.794   7.562   1.078  0.1269  0.2026 -0.2924
  997MOL0     C37498  11.738   7.619   1.189 -0.1812 -0.1205 -0.2262
  997MOL0     N37499  12.043   7.404   1.804 -0.1912  0.9020 -0.1791
  997MOL0     N37500  12.116   7.304   1.801  0.2209  0.0702 -0.2768
  997MOL0     C37501  11.736   6.415   1.966 -0.4947 -1.5632 -0.1437
  997MOL0     C37502  11.601   6.378   1.975  0.7711 -0.0104 -0.3271
  997MOL0     C37503  11.213   6.195   2.016 -0.7673  0.1003  0.5070
  997MOL0     C37504  11.114   6.232   1.920  0.1897  0.1157  0.0617
  997MOL0     C37505  10.993   6.155   1.901 -0.8854  0.1961  1.0923
  997MOL0     C37506  10.964   6.044   1.988  0.5687 -0.2754 -0.3948
  997MOL0     O37507  10.840   5.975   1.970  0.7642 -0.7746  0.3244
  997MOL0     C37508  10.731   6.029   1.894  0.2820 -0.5294  0.4529
  997MOL0     C37509  10.600   5.952   1.905  0.1873  0.7434  0.7112
  997MOL0     C37510  10.606   5.809   1.853 -0.0780 -0.4446 -0.3488
  997MOL0     C37511  10.481   5.727   1.886  0.4333 -0.2155  0.2370
  997MOL0     C37512  10.364   5.770   1.814 -0.0108  0.1817 -0.2832
  997MOL0     C37513  10.278   5.798   1.730 -0.2264  0.0914 -0.8749
  997MOL0     C37514  11.056   6.006   2.078 -1.0116 -0.8199  0.8949
  997MOL0     C37515  11.188   6.074   2.090  0.0164  0.1732  0.2205
  997MOL0     C37516  11.283   5.999   2.172  0.2491  0.0113 -0.8879
  997MOL0     H37517  11.625   6.144   2.221 -0.7900  0.4926  0.3507
  997MOL0     H37518  11.876   6.214   2.196  1.0526  0.3441 -2.3454
  997MOL0     H37519  11.992   6.307   1.869 -3.0235 -0.5268  1.9701
  997MOL0     H37520  12.088   6.252   2.008  0.4646  0.2296  0.4356
  997MOL0     H37521  12.247   6.447   1.982 -1.7370  4.2904  0.7807
  997MOL0     H37522  12.204   6.386   1.817 -3.1944 -0.0692 -1.5484
  997MOL0     H37523  12.025   6.589   1.847 -0.6277  2.5922 -1.7452
  997MOL0     H37524  12.159   6.650   1.925 -0.9958 -0.6767  0.7950
  997MOL0     H37525  12.309   6.607   1.736  1.5404  3.5581  1.1617
  997MOL0     H37526  12.161   6.535   1.647  0.6719 -1.1502  2.2938
  997MOL0     H37527  12.048   6.758   1.667 -0.3946  0.0729 -1.2891
  997MOL0     H37528  12.183   6.761   1.567  1.0235 -1.5651 -1.2220
  997MOL0     H37529  12.207   6.850   1.862  0.7092 -1.1136 -0.2577
  997MOL0     H37530  12.336   6.852   1.754  0.2483  1.3785 -3.3185
  997MOL0     H37531  12.161   6.983   1.599 -0.1224 -0.6766 -0.1802
  997MOL0     H37532  12.260   7.071   1.711  1.7836 -1.1819  0.3926
  997MOL0     H37533  11.975   6.997   1.769  1.2668 -2.2446 -0.5921
  997MOL0     H37534  12.091   7.070   1.887 -0.3569 -2.9728 -0.5398
  997MOL0     H37535  11.839   7.227   1.641  2.2545  2.1076 -4.1434
  997MOL0     H37536  11.804   7.545   1.820  0.3398  2.5570 -1.3677
  997MOL0     H37537  11.719   7.436   1.702 -0.0303 -1.0551  0.8953
  997MOL0     H37538  11.947   7.623   1.634  0.1672  0.9249  0.4410
  997MOL0     H37539  11.824   7.534   1.528  1.1855  1.3369 -1.4449
  997MOL0     H37540  11.652   7.672   1.643  0.0894  0.5565 -2.7062
  997MOL0     H37541  11.763   7.769   1.728  3.5165  2.4875 -0.3958
  997MOL0     H37542  11.712   7.884   1.523 -0.8531 -0.9095  0.1187
  997MOL0     H37543  11.881   7.814   1.517  0.9690 -2.4371 -0.6782
  997MOL0     H37544  12.003   7.739   1.360 -0.9170  1.1738 -0.3552
  997MOL0     H37545  12.183   7.703   1.036 -2.2915 -0.6911 -0.6318
  997MOL0     H37546  12.216   7.575   1.154 -2.3666 -0.9639  2.3684
  997MOL0     H37547  12.197   7.745   1.206 -4.3830  0.6412  2.4118
  997MOL0     H37548  11.890   7.181   0.881 -1.9376  2.2712  0.5716
  997MOL0     H37549  11.967   7.022   0.735  1.4821 -0.2109  1.5331
  997MOL0     H37550  12.153   6.926   0.642 -2.4119 -0.2785  1.8850
  997MOL0     H37551  12.013   6.885   0.540  0.1661 -0.4631  0.5933
  997MOL0     H37552  12.148   6.852   0.345 -3.1191  1.9278  2.0740
  997MOL0     H37553  12.304   6.904   0.440  2.2554 -3.1646  0.5049
  997MOL0     H37554  12.308   6.669   0.410 -0.8359  3.2065 -2.9955
  997MOL0     H37555  12.145   6.653   0.470  0.0129 -1.4232 -2.5569
  997MOL0     H37556  12.210   6.711   0.695  0.3885  0.7910  0.5107
  997MOL0     H37557  12.372   6.776   0.653 -1.5208  0.6362  4.0027
  997MOL0     H37558  12.316   6.525   0.746 -0.9968 -2.1461 -1.2065
  997MOL0     H37559  12.307   6.483   0.574  1.1937  3.0301 -3.2970
  997MOL0     H37560  12.557   6.627   0.628 -0.3329  0.4340  2.9677
  997MOL0     H37561  12.520   6.505   0.515 -3.3412 -1.3466 -1.1384
  997MOL0     H37562  12.664   6.409   0.664 -0.9779 -0.9920 -1.1585
  997MOL0     H37563  12.508   6.338   0.709 -2.5912  1.2307 -0.9388
  997MOL0     H37564  12.639   6.375   0.898  3.1758  0.1369 -1.3857
  997MOL0     H37565  12.515   6.509   0.905 -3.6865 -2.4470 -3.3147
  997MOL0     H37566  12.066   7.327   0.454  1.7419 -0.1808  0.9718
  997MOL0     H37567  11.958   7.496   0.603 -1.8472  1.0131  2.5516
  997MOL0     H37568  11.722   7.513   1.013 -1.5076  3.2659 -0.9675
  997MOL0     H37569  11.631   7.604   1.199  0.1768 -1.3876  3.1376
  997MOL0     H37570  11.751   6.495   1.894  1.0772 -1.9012 -0.2241
  997MOL0     H37571  11.526   6.436   1.924  0.5263 -0.3988 -0.4143
  997MOL0     H37572  11.124   6.313   1.848  0.5103  0.4747  0.5009
  997MOL0     H37573  10.925   6.189   1.824  0.3129 -0.2809 -0.2148
  997MOL0     H37574  10.723   6.131   1.932  0.5730 -0.9324  1.6228
  997MOL0     H37575  10.753   6.034   1.786  0.9901 -1.4757  0.5403
  997MOL0     H37576  10.514   6.001   1.859 -1.5756 -1.9511  0.9275
  997MOL0     H37577  10.578   5.938   2.012  3.4123 -5.5343  1.0524
  997MOL0     H37578  10.629   5.821   1.747  0.7325  2.2524  0.0720
  997MOL0     H37579  10.692   5.755   1.893  0.4190 -1.2109 -2.3346
  997MOL0     H37580  10.454   5.745   1.990 -0.8703  2.8208 -0.5137
  997MOL0     H37581  10.504   5.623   1.862 -1.9089 -0.3485 -1.8631
  997MOL0     H37582  10.209   5.824   1.653 -1.4551 -1.3410 -0.3139
  997MOL0     H37583  11.046   5.926   2.150  1.1931 -1.7488  0.2571
  997MOL0     H37584  11.384   6.014   2.133  0.6981 -1.6657 -0.4466
  997MOL0     H37585  11.285   6.025   2.278  0.8041 -0.5564 -0.7524
  997MOL0     H37586  11.266   5.891   2.160  0.1310 -0.0419 -0.2816
  998MOL0     O37587   7.279   8.867  11.164 -0.6596  0.4057  0.1704
  998MOL0     C37588   7.170   8.892  11.205 -0.4146 -0.4331  0.2403
  998MOL0     O37589   7.106   8.819  11.301  0.0444 -1.0214 -0.3641
  998MOL0     C37590   7.162   8.707  11.348 -0.6452  0.1312  0.9152
  998MOL0     C37591   7.257   8.725  11.444  0.2652 -0.2921  0.1167
  998MOL0     C37592   7.347   8.623  11.464 -0.8033  0.7447 -0.8392
  998MOL0     C37593   7.323   8.497  11.417  0.2273  0.1688 -0.3129
  998MOL0     O37594   7.404   8.401  11.483  0.5480  0.6286  0.6944
  998MOL0     C37595   7.416   8.270  11.410  0.5945 -0.4023 -0.0813
  998MOL0     C37596   7.506   8.162  11.485  0.0827  0.0873 -0.8612
  998MOL0     C37597   7.522   8.192  11.631  0.8843  0.5100 -0.1428
  998MOL0     C37598   7.610   8.087  11.701 -0.2440  0.3472  0.1656
  998MOL0     C37599   7.601   8.101  11.859 -0.7988 -0.1973  0.4764
  998MOL0     C37600   7.711   8.012  11.916 -0.7325  0.7701 -0.5040
  998MOL0     C37601   7.731   8.019  12.063  0.3151 -0.0747  0.3316
  998MOL0     C37602   7.870   7.982  12.121  1.2444  0.0392  0.3404
  998MOL0     N37603   7.853   7.970  12.269 -0.8812 -1.0458  0.1272
  998MOL0     C37604   7.952   7.943  12.359 -1.1956  0.5932  0.0868
  998MOL0     C37605   7.890   7.915  12.479  0.0254  0.3805  0.3038
  998MOL0     C37606   7.951   7.843  12.600  0.4791 -0.3492 -0.1250
  998MOL0     C37607   7.852   7.856  12.714  0.3240 -0.6813 -0.3120
  998MOL0     C37608   7.868   7.981  12.800 -0.9463  0.4535  0.3345
  998MOL0     C37609   7.784   7.968  12.924  0.3140 -0.0482  0.0066
  998MOL0     O37610   7.771   8.070  13.019  0.5704 -0.5820  0.0853
  998MOL0     C37611   7.705   8.041  13.139 -0.1163 -0.5554 -0.4370
  998MOL0     C37612   7.634   7.922  13.166  0.2367 -0.3419 -0.7361
  998MOL0     C37613   7.567   7.903  13.295  0.4496 -0.5170 -0.4022
  998MOL0     C37614   7.528   7.764  13.323  0.5492  0.1203 -0.3216
  998MOL0     C37615   7.564   8.004  13.392  0.2857  1.4770  0.6819
  998MOL0     C37616   7.496   7.983  13.526  0.1607  0.2874 -0.7369
  998MOL0     O37617   7.465   8.093  13.593  0.6579 -0.1062  0.8343
  998MOL0     C37618   7.428   8.085  13.731  0.4523 -0.3187 -0.4945
  998MOL0     C37619   7.516   8.145  13.814 -0.4911 -0.0834 -1.1714
  998MOL0     C37620   7.495   8.146  13.954 -1.1684  0.1270 -0.5242
  998MOL0     C37621   7.379   8.075  14.014  0.2776 -0.4775  0.4554
  998MOL0     O37622   7.378   8.058  14.146  0.2144 -0.2182 -0.4914
  998MOL0     C37623   7.264   7.983  14.204 -0.6708  1.0237  0.0741
  998MOL0     C37624   7.268   7.987  14.363 -0.6511 -0.1386  0.5181
  998MOL0     C37625   7.373   7.901  14.424  0.2817  1.2430 -0.2604
  998MOL0     C37626   7.375   7.924  14.583 -1.1438  0.8091  0.8533
  998MOL0     C37627   7.495   7.873  14.656  0.5900 -0.5934  0.3317
  998MOL0     C37628   7.629   7.950  14.619 -0.0344  0.5935  0.1671
  998MOL0     C37629   7.641   8.094  14.672 -0.8289  1.0718 -0.4984
  998MOL0     C37630   7.779   8.117  14.737  0.6107  0.2574  0.0970
  998MOL0    Cl37631   7.909   8.106  14.621  0.0932 -0.0016  0.3709
  998MOL0     C37632   7.287   8.013  13.917 -0.1852  0.5166 -1.1246
  998MOL0     C37633   7.308   8.027  13.776  0.1010  0.2396 -0.0636
  998MOL0     O37634   7.483   7.873  13.581 -0.3512 -0.6560  0.3912
  998MOL0     C37635   7.636   8.115  13.367  0.1569 -0.8909 -0.7482
  998MOL0     C37636   7.710   8.138  13.249 -0.5472  0.3767  0.5332
  998MOL0     N37637   7.751   7.922  12.465  0.3971  0.0221  0.0400
  998MOL0     N37638   7.739   7.950  12.340  0.7748  0.3496 -0.0635
  998MOL0     C37639   7.217   8.481  11.329 -0.3931  0.7456  0.3602
  998MOL0     C37640   7.141   8.580  11.285  0.6969  0.7472  0.2256
  998MOL0     C37641   7.106   9.010  11.137 -0.6541  1.0573  0.2287
  998MOL0     C37642   7.172   9.073  11.037 -0.4253 -0.9848  0.1216
  998MOL0     C37643   7.117   9.185  10.975  0.0224 -0.0897 -0.3503
  998MOL0     C37644   6.993   9.232  11.010 -0.6154 -0.5247 -0.0231
  998MOL0     O37645   6.933   9.331  10.934  0.3624  0.0619  0.1422
  998MOL0     C37646   7.009   9.419  10.846 -0.0667  0.6552  0.2778
  998MOL0     C37647   6.912   9.485  10.740  0.8972 -0.3410  0.0484
  998MOL0     C37648   6.980   9.589  10.643 -0.3000 -0.3053 -0.0872
  998MOL0     C37649   6.898   9.622  10.518  0.5181 -0.6826 -0.1376
  998MOL0     C37650   6.768   9.682  10.538 -0.6577 -0.4999 -0.2569
  998MOL0     C37651   6.651   9.721  10.541 -0.0981 -0.0289 -0.3556
  998MOL0     C37652   6.927   9.178  11.109 -0.1737 -0.6385 -1.1708
  998MOL0     C37653   6.975   9.063  11.176  0.4172  1.0946  0.5967
  998MOL0     C37654   6.898   9.011  11.287  0.5883  0.9899 -0.6621
  998MOL0     H37655   7.284   8.826  11.474  1.4154  0.4244 -2.9732
  998MOL0     H37656   7.433   8.643  11.528  0.0064  1.8071 -2.2238
  998MOL0     H37657   7.465   8.279  11.313  1.0441 -0.3709  0.1421
  998MOL0     H37658   7.314   8.233  11.402  0.6713 -1.4237  2.6342
  998MOL0     H37659   7.464   8.067  11.450 -2.2650  0.6665  0.2292
  998MOL0     H37660   7.606   8.170  11.441 -0.6712 -0.6500 -2.8383
  998MOL0     H37661   7.578   8.285  11.645  0.8467  0.1374  3.3007
  998MOL0     H37662   7.423   8.207  11.675  0.2259  1.1641 -1.7782
  998MOL0     H37663   7.553   7.997  11.679 -2.1529  1.5002  0.1241
  998MOL0     H37664   7.709   8.094  11.656 -0.0705  1.4582  0.6799
  998MOL0     H37665   7.500   8.074  11.888 -2.7434  1.0287 -4.2127
  998MOL0     H37666   7.621   8.206  11.883 -1.1404 -0.1463  0.5369
  998MOL0     H37667   7.691   7.909  11.887  2.3302 -0.0239 -0.1510
  998MOL0     H37668   7.807   8.047  11.877 -0.6736 -0.5095 -1.5978
  998MOL0     H37669   7.657   7.953  12.110  0.7337  0.3766  1.6747
  998MOL0     H37670   7.708   8.120  12.096  0.3189  0.0196  0.0463
  998MOL0     H37671   7.896   7.891  12.068 -4.3382 -1.0438 -1.1839
  998MOL0     H37672   7.945   8.059  12.102 -0.8727  1.3915 -3.6189
  998MOL0     H37673   8.058   7.924  12.343 -1.0324  0.2131  1.4930
  998MOL0     H37674   8.043   7.892  12.636  1.1076 -1.1304 -0.6334
  998MOL0     H37675   7.974   7.738  12.582  2.1010  0.3109 -2.4109
  998MOL0     H37676   7.747   7.846  12.685 -0.1201  1.1002  0.5279
  998MOL0     H37677   7.862   7.773  12.784 -0.4314 -0.2062  0.3682
  998MOL0     H37678   7.968   7.976  12.843 -0.2554  3.4043 -0.7343
  998MOL0     H37679   7.844   8.063  12.732 -3.2756 -1.2353 -1.0398
  998MOL0     H37680   7.684   7.966  12.879 -0.2000 -1.0562  1.1218
  998MOL0     H37681   7.799   7.871  12.973  1.5968 -0.3500 -0.9263
  998MOL0     H37682   7.643   7.839  13.097 -0.8725  0.9213 -2.4676
  998MOL0     H37683   7.551   7.702  13.237 -2.4576  1.2778 -2.1117
  998MOL0     H37684   7.422   7.764  13.349  0.8295  0.0533  0.9028
  998MOL0     H37685   7.582   7.716  13.405 -0.9925 -3.2951 -1.1527
  998MOL0     H37686   7.612   8.181  13.777  0.7299 -0.7840  1.1546
  998MOL0     H37687   7.568   8.193  14.018  0.6729 -0.8089 -1.8383
  998MOL0     H37688   7.176   8.027  14.157 -0.7266 -0.1680 -0.9920
  998MOL0     H37689   7.265   7.879  14.170  0.1901  1.3760 -1.0833
  998MOL0     H37690   7.289   8.093  14.377 -1.9196  0.2423 -0.3194
  998MOL0     H37691   7.173   7.948  14.400 -1.7651 -0.7145 -2.6353
  998MOL0     H37692   7.474   7.898  14.383  1.8107 -2.5654  3.1290
  998MOL0     H37693   7.342   7.799  14.400 -0.3798  1.2217  0.6464
  998MOL0     H37694   7.288   7.875  14.626 -1.1672  0.2321  0.1590
  998MOL0     H37695   7.394   8.030  14.602  5.2449  0.6740 -2.1037
  998MOL0     H37696   7.483   7.882  14.764  1.8847  1.6479  0.3680
  998MOL0     H37697   7.512   7.767  14.634  0.3946 -1.2954  3.2247
  998MOL0     H37698   7.654   7.947  14.513  2.6753  1.6696  0.6790
  998MOL0     H37699   7.710   7.883  14.652 -0.6057 -0.9944 -1.5110
  998MOL0     H37700   7.564   8.110  14.748 -1.6272 -0.9509 -0.8168
  998MOL0     H37701   7.626   8.160  14.586  0.3146  0.1898 -1.4102
  998MOL0     H37702   7.797   8.047  14.820  2.3623 -0.1745 -0.6068
  998MOL0     H37703   7.772   8.214  14.788  1.5876 -1.2640  3.4421
  998MOL0     H37704   7.196   7.961  13.943 -0.4564  1.3370 -0.3765
  998MOL0     H37705   7.227   7.989  13.715 -0.4768  2.6950 -0.9322
  998MOL0     H37706   7.649   8.189  13.446  1.0365 -2.4283  0.6250
  998MOL0     H37707   7.758   8.230  13.216 -2.9525  0.3747 -3.6569
  998MOL0     H37708   7.189   8.385  11.287  0.3004  1.6896 -2.4761
  998MOL0     H37709   7.058   8.554  11.221  0.2439 -3.9057  2.2647
  998MOL0     H37710   7.278   9.055  11.022 -0.5248 -0.4424 -1.4631
  998MOL0     H37711   7.176   9.232  10.898 -0.8854 -0.0269 -1.0245
  998MOL0     H37712   7.057   9.492  10.911 -0.9750  1.3582  0.1857
  998MOL0     H37713   7.088   9.371  10.788 -2.8446 -0.3960 -3.0496
  998MOL0     H37714   6.831   9.541  10.787  1.7170 -0.3217  1.5381
  998MOL0     H37715   6.869   9.400  10.687  0.1052 -2.0553  3.2013
  998MOL0     H37716   6.978   9.673  10.713  2.1861 -2.6350  3.0502
  998MOL0     H37717   7.085   9.570  10.617 -0.8217 -2.3981 -0.8047
  998MOL0     H37718   6.872   9.532  10.463 -1.5509 -0.2899  0.1080
  998MOL0     H37719   6.958   9.694  10.461 -3.3817 -0.4429 -4.4397
  998MOL0     H37720   6.551   9.759  10.533  0.5706  1.8988 -0.2425
  998MOL0     H37721   6.833   9.228  11.134 -0.5215 -1.2278 -1.2783
  998MOL0     H37722   6.835   9.090  11.330  2.1211  1.4276  0.8669
  998MOL0     H37723   6.842   8.921  11.259  1.6467 -0.1588  0.7818
  998MOL0     H37724   6.962   8.980  11.369  0.7887  1.0871 -0.7816
  999MOL0     O37725  10.074  10.795   6.198  0.0703  0.1808 -0.1076
  999MOL0     C37726  10.181  10.754   6.245  0.4383 -0.6095 -0.3471
  999MOL0     O37727  10.206  10.633   6.302  0.5853 -0.0929 -0.2889
  999MOL0     C37728  10.103  10.536   6.321  0.6414  1.1564 -0.0156
  999MOL0     C37729  10.163  10.421   6.365  0.5771  0.7166  0.2217
  999MOL0     C37730  10.089  10.302   6.389 -0.5030 -0.4225 -0.6091
  999MOL0     C37731   9.955  10.319   6.401 -0.0074 -0.2988  0.6191
  999MOL0     O37732   9.891  10.209   6.447  0.7380 -0.2101 -0.4266
  999MOL0     C37733   9.747  10.202   6.468 -0.3023  0.4931  0.6213
  999MOL0     C37734   9.697  10.055   6.488 -0.1270  0.4132 -0.3613
  999MOL0     C37735   9.540  10.046   6.493 -0.2934 -0.9819  0.1238
  999MOL0     C37736   9.485   9.909   6.497 -0.5166  0.2589  0.6403
  999MOL0     C37737   9.333   9.916   6.486 -0.3377 -0.0652  1.0267
  999MOL0     C37738   9.285   9.788   6.427  0.3930  0.9963 -0.5860
  999MOL0     C37739   9.145   9.816   6.349  0.5046 -0.3323 -0.2172
  999MOL0     C37740   9.097   9.689   6.287  0.6337 -0.1628  0.2172
  999MOL0     N37741   9.182   9.640   6.178  0.3751 -0.7924  0.4459
  999MOL0     C37742   9.280   9.544   6.176 -0.0276  0.0039  0.0776
  999MOL0     C37743   9.346   9.565   6.067 -0.6856 -0.2016  0.0201
  999MOL0     C37744   9.457   9.473   6.021  0.6453 -1.6731 -0.1899
  999MOL0     C37745   9.423   9.415   5.881  0.1702  0.2943 -0.3478
  999MOL0     C37746   9.270   9.380   5.863 -0.1065 -0.4482  0.1449
  999MOL0     C37747   9.214   9.287   5.975  0.1273 -0.2261  0.6307
  999MOL0     O37748   9.109   9.207   5.919  0.3227  1.0857 -0.0740
  999MOL0     C37749   8.987   9.274   5.881 -0.4107  0.3621  0.6512
  999MOL0     C37750   8.950   9.414   5.903  0.4817  0.1096 -0.1994
  999MOL0     C37751   8.830   9.469   5.854 -0.1706 -0.0199  0.3323
  999MOL0     C37752   8.797   9.605   5.892 -0.1334 -0.7892  1.1927
  999MOL0     C37753   8.736   9.373   5.796  0.9074 -0.2616  0.5207
  999MOL0     C37754   8.590   9.404   5.780 -0.5057  0.3994  0.8268
  999MOL0     O37755   8.558   9.379   5.651  0.0370  0.1232 -0.7983
  999MOL0     C37756   8.436   9.381   5.603  0.4248  0.1386  0.0795
  999MOL0     C37757   8.409   9.473   5.499  0.0646  0.5492 -1.3808
  999MOL0     C37758   8.286   9.475   5.435  0.8553 -0.2330  1.0452
  999MOL0     C37759   8.183   9.393   5.481 -0.4551 -0.2903 -0.1964
  999MOL0     O37760   8.052   9.429   5.439  0.1117  0.5963 -0.6794
  999MOL0     C37761   7.939   9.376   5.512 -0.2501 -0.1085  0.2567
  999MOL0     C37762   7.916   9.232   5.449  0.1039  0.0153 -0.7168
  999MOL0     C37763   7.803   9.239   5.348  0.8408 -0.9375 -0.4242
  999MOL0     C37764   7.660   9.239   5.416  0.6232 -0.1070 -1.1328
  999MOL0     C37765   7.540   9.244   5.321 -0.2698 -0.1646  1.0611
  999MOL0     C37766   7.410   9.243   5.393 -0.6584 -0.1378 -0.4036
  999MOL0     C37767   7.381   9.363   5.482  0.0225 -0.3796 -0.1697
  999MOL0     C37768   7.396   9.498   5.417  0.1502 -0.4629 -1.1599
  999MOL0    Cl37769   7.304   9.512   5.267  0.5715 -0.1860 -0.2394
  999MOL0     C37770   8.216   9.292   5.572  0.3015  0.5095  0.0075
  999MOL0     C37771   8.339   9.283   5.637 -0.2775  0.0800  0.8502
  999MOL0     O37772   8.511   9.436   5.875  0.1747  0.3669 -0.0455
  999MOL0     C37773   8.775   9.243   5.775  0.0638  0.6895  0.0563
  999MOL0     C37774   8.897   9.193   5.815 -0.5484 -0.2217 -0.0637
  999MOL0     N37775   9.294   9.675   6.000 -1.0202 -0.6691  0.5703
  999MOL0     N37776   9.186   9.704   6.063  0.7755  0.4339  0.8133
  999MOL0     C37777   9.892  10.442   6.359  0.4628 -0.0972 -0.4037
  999MOL0     C37778   9.963  10.554   6.316 -0.3742 -0.1120  0.7882
  999MOL0     C37779  10.308  10.837   6.226  1.4106  1.2185  0.3049
  999MOL0     C37780  10.393  10.842   6.344 -0.4675 -0.3211  0.2882
  999MOL0     C37781  10.508  10.924   6.337  0.3415 -0.3338 -0.9696
  999MOL0     C37782  10.538  10.994   6.221 -0.5696 -0.4127 -0.3626
  999MOL0     O37783  10.642  11.076   6.205 -0.6536 -0.2076 -0.7673
  999MOL0     C37784  10.759  11.068   6.290  0.6298  0.4540  0.1972
  999MOL0     C37785  10.821  10.931   6.314 -0.6397 -0.3206  0.1043
  999MOL0     C37786  10.844  10.852   6.181  0.7051  0.5434  0.6092
  999MOL0     C37787  10.860  10.700   6.207  0.1805  0.2732 -0.1399
  999MOL0     C37788  10.732  10.645   6.258 -0.4563 -0.9270 -0.5978
  999MOL0     C37789  10.636  10.574   6.280  0.2909 -0.2319 -0.4055
  999MOL0     C37790  10.447  10.991   6.105 -0.0141  0.6375 -0.0274
  999MOL0     C37791  10.339  10.903   6.108 -0.7089 -0.5148  0.0020
  999MOL0     C37792  10.265  10.883   5.982 -0.7529 -0.0781  0.2491
  999MOL0     H37793  10.271  10.416   6.373  0.5014 -2.3162  0.5666
  999MOL0     H37794  10.144  10.213   6.418  2.2042  1.0673 -0.7661
  999MOL0     H37795   9.702  10.238   6.375 -0.7942  0.6321  0.9112
  999MOL0     H37796   9.730  10.263   6.557  3.7652 -1.4285  3.0341
  999MOL0     H37797   9.734  10.010   6.395  1.0737 -0.7079  0.6349
  999MOL0     H37798   9.741   9.995   6.567  1.0194  0.7364 -0.7342
  999MOL0     H37799   9.509  10.084   6.591  0.9574  2.6433 -0.7399
  999MOL0     H37800   9.483  10.112   6.427  0.6639 -2.1583 -1.9866
  999MOL0     H37801   9.529   9.844   6.421 -0.0827  0.9891  0.2550
  999MOL0     H37802   9.513   9.860   6.591  0.7373 -1.3563 -0.5242
  999MOL0     H37803   9.304   9.989   6.410  0.1180 -2.9415 -2.1453
  999MOL0     H37804   9.279   9.925   6.581  0.9593 -1.5778  1.9645
  999MOL0     H37805   9.357   9.746   6.357 -0.3718 -0.3259 -0.6075
  999MOL0     H37806   9.273   9.715   6.507 -1.4337 -0.2617 -1.9186
  999MOL0     H37807   9.174   9.894   6.278 -1.1155 -0.6786 -1.3125
  999MOL0     H37808   9.069   9.851   6.420  1.0689 -3.1824  1.9753
  999MOL0     H37809   9.074   9.603   6.351 -2.2586 -0.6999 -1.3751
  999MOL0     H37810   9.003   9.714   6.238  0.9307 -2.0034 -1.4158
  999MOL0     H37811   9.302   9.477   6.259 -1.4083  0.3615  0.7619
  999MOL0     H37812   9.469   9.399   6.101  0.9196  0.9488  2.3442
  999MOL0     H37813   9.553   9.525   6.019  0.7072 -1.8002 -0.9541
  999MOL0     H37814   9.432   9.499   5.812  2.1375  0.8806  0.5311
  999MOL0     H37815   9.489   9.337   5.842 -1.9372 -0.9821 -1.5046
  999MOL0     H37816   9.206   9.469   5.857  3.0951  1.9965  0.0776
  999MOL0     H37817   9.256   9.336   5.764  1.6183 -3.0935  0.9846
  999MOL0     H37818   9.293   9.213   5.993  0.5975 -1.2234 -4.2571
  999MOL0     H37819   9.189   9.346   6.064 -0.2561  3.9526 -1.9758
  999MOL0     H37820   9.014   9.485   5.954  0.4585  3.3871 -4.2036
  999MOL0     H37821   8.706   9.637   5.840 -0.3643 -2.8652  0.2239
  999MOL0     H37822   8.877   9.669   5.853 -0.7152 -0.1921  0.9624
  999MOL0     H37823   8.815   9.621   5.998  2.4382  1.1364  0.5498
  999MOL0     H37824   8.492   9.536   5.470  0.4384  1.0562  0.6591
  999MOL0     H37825   8.269   9.556   5.364  0.4814  0.4858  1.9276
  999MOL0     H37826   7.963   9.359   5.617 -2.2466 -2.9837  0.3729
  999MOL0     H37827   7.853   9.440   5.494  0.0228  0.1091 -0.2925
  999MOL0     H37828   8.008   9.191   5.407 -0.6347 -2.2872 -0.2087
  999MOL0     H37829   7.901   9.166   5.535  1.0676  0.1493 -0.4443
  999MOL0     H37830   7.822   9.150   5.287  2.6308 -0.6506 -0.3479
  999MOL0     H37831   7.811   9.332   5.293  1.3756  1.9937  4.0569
  999MOL0     H37832   7.652   9.329   5.477 -1.3603 -0.8905 -0.1447
  999MOL0     H37833   7.656   9.153   5.483  3.0192 -0.1974 -1.0195
  999MOL0     H37834   7.555   9.333   5.260 -0.5184 -2.3712 -2.5272
  999MOL0     H37835   7.546   9.162   5.249  0.3446  2.6431 -2.3478
  999MOL0     H37836   7.408   9.152   5.453  1.9617 -0.5967 -0.8989
  999MOL0     H37837   7.339   9.240   5.309  0.8917 -2.1321 -1.7280
  999MOL0     H37838   7.439   9.357   5.575 -1.0448  0.8295  0.6096
  999MOL0     H37839   7.278   9.345   5.515 -1.5719  2.1652 -3.2368
  999MOL0     H37840   7.503   9.511   5.400  0.6369 -2.5025  0.0638
  999MOL0     H37841   7.362   9.572   5.491  0.6717 -2.0331  0.7125
  999MOL0     H37842   8.152   9.209   5.601  2.2129 -0.5096  1.5195
  999MOL0     H37843   8.375   9.199   5.696  2.2671 -0.6304 -1.5250
  999MOL0     H37844   8.701   9.166   5.750 -0.5667  0.3846  2.6166
  999MOL0     H37845   8.913   9.086   5.806 -3.3587 -0.9213  1.8724
  999MOL0     H37846   9.786  10.455   6.378  0.6598  1.1184 -0.0602
  999MOL0     H37847   9.925  10.654   6.301  2.4613  1.1880  1.5320
  999MOL0     H37848  10.367  10.796   6.438 -0.4852 -1.1309 -0.1046
  999MOL0     H37849  10.554  10.940   6.434  4.3058  0.7225 -2.8156
  999MOL0     H37850  10.833  11.138   6.248  0.7461  1.4814  2.0288
  999MOL0     H37851  10.729  11.110   6.386  0.1349 -0.4262  0.4353
  999MOL0     H37852  10.769  10.875   6.393 -0.4575  1.5677  1.6443
  999MOL0     H37853  10.917  10.954   6.362 -1.2340 -0.1936  1.2727
  999MOL0     H37854  10.751  10.862   6.125 -0.1484 -1.0305  1.6783
  999MOL0     H37855  10.931  10.893   6.127  0.4385  0.3482  0.0176
  999MOL0     H37856  10.943  10.669   6.271 -0.6591 -0.0068  0.8470
  999MOL0     H37857  10.879  10.657   6.108 -2.7040  0.1989 -0.7474
  999MOL0     H37858  10.555  10.513   6.315 -0.9456  0.8171 -1.3539
  999MOL0     H37859  10.473  11.050   6.018  0.3146 -2.5612 -2.2384
  999MOL0     H37860  10.343  10.885   5.905 -1.4753 -3.7605 -0.7745
  999MOL0     H37861  10.218  10.785   5.981 -1.3138  0.1881 -1.2766
  999MOL0     H37862  10.190  10.963   5.973  1.4195  2.1378  0.5420
 1000MOL0     O37863   2.779   0.324   8.523 -0.0358  0.1572  0.1936
 1000MOL0     C37864   2.700   0.246   8.471  0.1373 -1.2987 -0.9620
 1000MOL0     O37865   2.579   0.273   8.416 -0.4704  0.3937 -0.5195
 1000MOL0     C37866   2.532   0.400   8.388 -0.2387  0.5157  0.7707
 1000MOL0     C37867   2.388   0.412   8.373  0.2668  0.1301  0.4519
 1000MOL0     C37868   2.327   0.538   8.336  0.1956  0.5913  0.1216
 1000MOL0     C37869   2.417   0.639   8.294  0.0546  0.0433 -0.5960
 1000MOL0     O37870   2.368   0.757   8.251  0.4696  0.3649 -1.0465
 1000MOL0     C37871   2.415   0.880   8.308 -1.4782  0.1703 -0.6536
 1000MOL0     C37872   2.367   0.996   8.221  0.4990  0.4181 -0.0050
 1000MOL0     C37873   2.411   1.132   8.294 -0.0109  0.3239 -0.1152
 1000MOL0     C37874   2.550   1.173   8.244  0.8470 -0.0342 -0.2144
 1000MOL0     C37875   2.602   1.300   8.301  0.1674  0.3161 -0.0711
 1000MOL0     C37876   2.506   1.422   8.284  0.1491 -0.1571 -0.3512
 1000MOL0     C37877   2.575   1.563   8.314  0.6319  0.4213 -0.0898
 1000MOL0     C37878   2.460   1.653   8.341  0.7440 -0.6805  0.0371
 1000MOL0     N37879   2.492   1.793   8.301 -0.1528  0.5556 -0.2238
 1000MOL0     C37880   2.401   1.891   8.291  1.0373  0.5323  0.0396
 1000MOL0     C37881   2.456   1.984   8.230  0.0306 -0.4261  0.0509
 1000MOL0     C37882   2.401   2.115   8.187 -0.2890  0.0524  0.0774
 1000MOL0     C37883   2.447   2.216   8.290  0.2160  0.1922 -0.6757
 1000MOL0     C37884   2.348   2.224   8.412 -0.1267 -0.9636  0.4484
 1000MOL0     C37885   2.253   2.345   8.370  0.6959  0.6549 -0.3842
 1000MOL0     O37886   2.145   2.346   8.465  0.6490  0.1535 -0.2193
 1000MOL0     C37887   2.040   2.432   8.433  0.5052  0.1775 -0.1011
 1000MOL0     C37888   2.037   2.527   8.334  0.2118  0.2357 -1.0461
 1000MOL0     C37889   1.922   2.597   8.286 -0.4062  0.3480  0.5960
 1000MOL0     C37890   1.949   2.705   8.179  0.4917 -0.1633 -0.1876
 1000MOL0     C37891   1.806   2.575   8.355  0.4249 -0.0953 -0.3352
 1000MOL0     C37892   1.675   2.630   8.325  0.3507 -0.2356  0.1740
 1000MOL0     O37893   1.584   2.648   8.428  0.2939  0.2236  0.0458
 1000MOL0     C37894   1.479   2.721   8.379  0.4860  1.0799 -0.1471
 1000MOL0     C37895   1.367   2.658   8.318  0.8763 -0.9359 -0.5465
 1000MOL0     C37896   1.259   2.732   8.274 -0.3410 -0.4888  0.9737
 1000MOL0     C37897   1.248   2.871   8.287 -0.1290 -0.0430  0.1500
 1000MOL0     O37898   1.149   2.937   8.224  0.5980 -0.1016  0.4792
 1000MOL0     C37899   1.122   3.080   8.265 -1.3619  0.0582  0.2148
 1000MOL0     C37900   1.006   3.129   8.182 -0.2824 -1.2002 -1.3776
 1000MOL0     C37901   0.870   3.083   8.234  0.9021  0.3879  0.2860
 1000MOL0     C37902   0.819   3.164   8.357 -1.6503 -0.6225  1.0196
 1000MOL0     C37903   0.685   3.128   8.409  0.5185  0.0478  0.2830
 1000MOL0     C37904   0.625   3.236   8.511 -1.2670  0.4011 -0.5987
 1000MOL0     C37905   0.584   3.379   8.460  0.8608 -0.5559  0.2099
 1000MOL0     C37906   0.554   3.391   8.307 -0.1218 -0.3368 -0.1232
 1000MOL0    Cl37907   0.550   3.563   8.272 -0.0889  0.0943 -0.2286
 1000MOL0     C37908   1.361   2.934   8.345 -0.5937 -0.0765 -0.0238
 1000MOL0     C37909   1.471   2.863   8.394  0.1200 -0.5403 -0.1124
 1000MOL0     O37910   1.649   2.663   8.208 -0.5887  0.3097  0.4395
 1000MOL0     C37911   1.803   2.493   8.469  0.3006 -0.8224 -0.0810
 1000MOL0     C37912   1.918   2.416   8.501 -0.0733  0.6701 -0.8627
 1000MOL0     N37913   2.587   1.954   8.208 -0.3122  0.0781  0.7660
 1000MOL0     N37914   2.606   1.831   8.244 -0.0410 -0.4280 -0.7353
 1000MOL0     C37915   2.550   0.618   8.309 -0.8107 -0.1164 -0.0450
 1000MOL0     C37916   2.613   0.506   8.353 -0.0462  1.4745 -0.3008
 1000MOL0     C37917   2.743   0.100   8.478  0.8288 -0.6296 -0.4784
 1000MOL0     C37918   2.783   0.046   8.356  0.5843 -0.0566  0.1682
 1000MOL0     C37919   2.849  -0.077   8.342 -0.2498  0.4111 -0.3822
 1000MOL0     C37920   2.860  -0.155   8.463  0.2553  0.7720  0.4425
 1000MOL0     O37921   2.898  -0.287   8.477 -0.2317  0.2403  0.0328
 1000MOL0     C37922   2.953  -0.347   8.357 -0.1869 -0.2796  0.0406
 1000MOL0     C37923   3.004  -0.493   8.389  0.9485  0.6303 -0.3841
 1000MOL0     C37924   3.135  -0.494   8.469 -0.3153 -0.9071  0.1534
 1000MOL0     C37925   3.170  -0.628   8.528 -0.3397  0.0262  0.3821
 1000MOL0     C37926   3.222  -0.724   8.426  0.2655  0.5145  0.1476
 1000MOL0     C37927   3.241  -0.805   8.335  0.1889  0.6401  0.0808
 1000MOL0     C37928   2.823  -0.097   8.585  0.3622  0.2198 -0.6700
 1000MOL0     C37929   2.763   0.027   8.594  0.4556 -0.0596  0.2859
 1000MOL0     C37930   2.726   0.072   8.740 -0.4940 -0.0346  0.5081
 1000MOL0     H37931   2.314   0.333   8.385  0.1870 -0.1009 -1.3747
 1000MOL0     H37932   2.220   0.549   8.320  0.0349 -1.4566 -0.5072
 1000MOL0     H37933   2.524   0.882   8.305 -1.0738 -3.7466  2.9712
 1000MOL0     H37934   2.370   0.880   8.407 -1.7148 -0.3554 -0.7572
 1000MOL0     H37935   2.414   0.981   8.123 -3.9037 -1.0430 -2.1771
 1000MOL0     H37936   2.261   0.985   8.195  0.8012 -2.3056 -0.3713
 1000MOL0     H37937   2.348   1.215   8.260  0.3934  1.8212  2.5336
 1000MOL0     H37938   2.405   1.126   8.403 -3.0986 -0.3134 -0.2400
 1000MOL0     H37939   2.614   1.087   8.261 -0.9959 -0.9168  3.2784
 1000MOL0     H37940   2.538   1.194   8.137  0.1516 -1.9378 -0.5543
 1000MOL0     H37941   2.699   1.331   8.263 -0.6964  2.5315 -0.6022
 1000MOL0     H37942   2.607   1.293   8.410 -3.6889 -1.3821  0.1728
 1000MOL0     H37943   2.473   1.418   8.180 -2.6942 -0.4490  0.4722
 1000MOL0     H37944   2.418   1.402   8.345  0.3771  3.2789  1.2970
 1000MOL0     H37945   2.648   1.593   8.238 -0.4548  0.5425 -1.1134
 1000MOL0     H37946   2.628   1.569   8.409 -0.1333  3.1394  0.2586
 1000MOL0     H37947   2.368   1.613   8.298  1.6848 -0.5151 -2.2215
 1000MOL0     H37948   2.425   1.645   8.445 -2.2070 -2.8993 -0.9598
 1000MOL0     H37949   2.298   1.875   8.320  1.0792  0.3301  0.0772
 1000MOL0     H37950   2.292   2.118   8.179 -0.3627  1.1683  1.2169
 1000MOL0     H37951   2.432   2.136   8.085 -3.6945  0.8079 -0.9328
 1000MOL0     H37952   2.546   2.191   8.328 -1.0850 -1.4367  1.9765
 1000MOL0     H37953   2.450   2.312   8.238 -1.1271  1.4159  1.3453
 1000MOL0     H37954   2.290   2.134   8.433 -0.2297 -0.4002  2.8668
 1000MOL0     H37955   2.407   2.246   8.501  3.2612  0.8365 -1.9941
 1000MOL0     H37956   2.309   2.439   8.372  0.8746  0.6063  2.8126
 1000MOL0     H37957   2.219   2.312   8.272  3.1554 -1.7128 -0.5383
 1000MOL0     H37958   2.130   2.562   8.290  1.1806 -0.6225  0.2442
 1000MOL0     H37959   2.053   2.692   8.146  1.5748 -0.0743  2.8539
 1000MOL0     H37960   1.939   2.802   8.227 -0.1464  0.3511 -1.3303
 1000MOL0     H37961   1.882   2.705   8.092  2.6801  2.7268 -2.0452
 1000MOL0     H37962   1.366   2.550   8.306  3.9042 -0.9165 -1.6486
 1000MOL0     H37963   1.172   2.676   8.241 -0.4342  0.6799 -0.9231
 1000MOL0     H37964   1.099   3.083   8.372 -2.8693 -1.0505 -0.0537
 1000MOL0     H37965   1.215   3.132   8.242  0.2267 -3.3110 -1.8881
 1000MOL0     H37966   1.002   3.238   8.186  1.0545 -1.1641  0.6716
 1000MOL0     H37967   1.019   3.100   8.077 -1.6573 -2.4790 -1.2166
 1000MOL0     H37968   0.882   2.977   8.258 -2.3701 -0.0053  0.6086
 1000MOL0     H37969   0.800   3.096   8.152 -0.0625  0.1509  1.0502
 1000MOL0     H37970   0.827   3.270   8.333  0.0506 -0.9264  0.1107
 1000MOL0     H37971   0.892   3.142   8.435  0.6991  0.5569 -0.7333
 1000MOL0     H37972   0.618   3.117   8.323  4.4932 -0.4936 -3.0627
 1000MOL0     H37973   0.702   3.034   8.461 -3.2927 -0.0449  1.7125
 1000MOL0     H37974   0.707   3.260   8.580 -0.3825 -3.5022 -0.0598
 1000MOL0     H37975   0.551   3.192   8.578 -1.0854 -0.5760 -1.0336
 1000MOL0     H37976   0.665   3.450   8.478  2.1018 -1.2692 -2.1404
 1000MOL0     H37977   0.497   3.412   8.518  0.8321 -0.9700  0.4037
 1000MOL0     H37978   0.457   3.343   8.290 -1.8262  2.8746 -0.1621
 1000MOL0     H37979   0.630   3.353   8.237  1.7101  2.0702  0.4307
 1000MOL0     H37980   1.375   3.041   8.347  1.7105 -0.3135 -0.6810
 1000MOL0     H37981   1.562   2.896   8.445  1.2852 -0.8775 -1.8849
 1000MOL0     H37982   1.713   2.485   8.530 -1.9571 -0.7318 -3.2032
 1000MOL0     H37983   1.908   2.340   8.578 -1.2118  1.0171 -0.6482
 1000MOL0     H37984   2.619   0.698   8.284 -1.6273 -0.0629 -2.4144
 1000MOL0     H37985   2.721   0.499   8.345  0.0224  3.6361 -2.2925
 1000MOL0     H37986   2.777   0.119   8.277  1.2926 -0.5895 -0.3917
 1000MOL0     H37987   2.890  -0.112   8.248 -1.1377  2.0778 -1.4419
 1000MOL0     H37988   2.877  -0.352   8.278 -0.6377  2.3477  0.1994
 1000MOL0     H37989   3.025  -0.273   8.319 -2.7972  1.6090 -1.6047
 1000MOL0     H37990   3.024  -0.534   8.290  3.9355  3.2498 -1.0467
 1000MOL0     H37991   2.926  -0.544   8.446 -1.3655  2.7445 -1.4357
 1000MOL0     H37992   3.209  -0.468   8.392 -0.7079  1.8864  0.6154
 1000MOL0     H37993   3.155  -0.413   8.540  1.1328  0.1515 -1.3668
 1000MOL0     H37994   3.077  -0.664   8.573  1.4370 -1.6784  2.9574
 1000MOL0     H37995   3.239  -0.621   8.613 -0.1397 -2.4055  0.4918
 1000MOL0     H37996   3.247  -0.888   8.269  1.1085  1.9070 -1.4952
 1000MOL0     H37997   2.840  -0.156   8.674  0.2247 -0.4002 -1.0524
 1000MOL0     H37998   2.818   0.071   8.800 -0.3559  2.1934  0.4506
 1000MOL0     H37999   2.679   0.171   8.737 -1.6938 -0.5576  1.4831
 1000MOL0     H38000   2.651   0.008   8.787 -2.7339  1.5420 -0.7321
 1001MOL0     O38001   7.949   5.595   5.536 -0.1512 -0.4922 -0.0795
 1001MOL0     C38002   8.020   5.557   5.447 -0.5944 -0.5017  0.9494
 1001MOL0     O38003   8.109   5.639   5.370 -0.0029  0.3559  0.0872
 1001MOL0     C38004   8.127   5.778   5.393 -0.3148  0.7437 -0.1231
 1001MOL0     C38005   8.128   5.835   5.520 -0.1308 -0.8469 -0.8022
 1001MOL0     C38006   8.140   5.976   5.548 -0.2488 -0.5556 -0.0287
 1001MOL0     C38007   8.161   6.062   5.440  0.7601 -0.7337  0.0469
 1001MOL0     O38008   8.189   6.199   5.453 -0.0520 -0.2501 -0.1682
 1001MOL0     C38009   8.229   6.235   5.582  0.6387 -0.4411 -0.4909
 1001MOL0     C38010   8.284   6.383   5.591  0.2846 -0.1290  1.1543
 1001MOL0     C38011   8.324   6.434   5.732  0.3272  0.5418  0.4312
 1001MOL0     C38012   8.428   6.548   5.717 -0.1417  1.1752 -0.1472
 1001MOL0     C38013   8.499   6.589   5.842 -0.0046  0.5107 -0.5301
 1001MOL0     C38014   8.636   6.528   5.870 -0.3317  0.6944  0.4836
 1001MOL0     C38015   8.711   6.604   5.988 -0.3490  0.6571  0.0595
 1001MOL0     C38016   8.846   6.542   6.020  0.1410  0.3428  0.4568
 1001MOL0     N38017   8.934   6.619   6.105  0.6459  0.0466  0.1215
 1001MOL0     C38018   8.960   6.753   6.093  0.1516 -0.1724  1.0727
 1001MOL0     C38019   9.034   6.788   6.202 -0.3984  0.9737  0.7632
 1001MOL0     C38020   9.085   6.929   6.228  0.9923 -0.8570  0.2183
 1001MOL0     C38021   9.210   6.928   6.300 -0.3832  0.2292  0.0325
 1001MOL0     C38022   9.262   7.065   6.304 -1.3415 -0.4912  0.4949
 1001MOL0     C38023   9.402   7.068   6.374  0.2189 -0.8020  0.1865
 1001MOL0     O38024   9.373   7.043   6.507 -0.0196 -0.2104  0.1098
 1001MOL0     C38025   9.485   7.027   6.581  0.1902 -0.0657 -0.4526
 1001MOL0     C38026   9.579   6.928   6.562  0.1912  0.2784 -0.0513
 1001MOL0     C38027   9.706   6.938   6.613 -0.6812 -0.3416 -0.0221
 1001MOL0     C38028   9.795   6.826   6.565 -0.3321  0.6476  0.1793
 1001MOL0     C38029   9.740   7.041   6.706  0.7576  0.0519 -0.8456
 1001MOL0     C38030   9.871   7.050   6.773  0.7693 -1.2056 -0.1476
 1001MOL0     O38031   9.905   6.933   6.832 -0.2484 -0.9769  0.1064
 1001MOL0     C38032  10.036   6.937   6.872  0.2201  0.5866  0.3803
 1001MOL0     C38033  10.101   7.035   6.955 -0.3459 -0.4422  0.2915
 1001MOL0     C38034  10.241   7.018   6.978 -0.4718  0.1736  0.4838
 1001MOL0     C38035  10.309   6.902   6.937 -0.1818 -0.4799  1.3593
 1001MOL0     O38036  10.443   6.867   6.958  0.6763  0.9696  0.4723
 1001MOL0     C38037  10.545   6.961   6.931  0.3660 -0.4640 -0.4320
 1001MOL0     C38038  10.651   6.892   6.852 -0.3266  0.4785  0.5684
 1001MOL0     C38039  10.711   6.790   6.941  0.6081 -0.4541 -0.1813
 1001MOL0     C38040  10.857   6.754   6.894  0.0425 -1.1364 -0.2640
 1001MOL0     C38041  10.914   6.644   6.978  0.3529  0.2922  0.0661
 1001MOL0     C38042  11.060   6.620   6.947 -0.1570  0.4414  0.1536
 1001MOL0     C38043  11.118   6.484   6.992 -1.5745  0.3473  0.1563
 1001MOL0     C38044  11.272   6.470   6.979 -0.3806 -0.3020 -0.2986
 1001MOL0    Cl38045  11.344   6.330   7.049  0.5829  0.2909  0.0396
 1001MOL0     C38046  10.238   6.798   6.873 -0.1071  1.0553 -0.2449
 1001MOL0     C38047  10.106   6.819   6.836 -0.0865 -0.9209 -0.2452
 1001MOL0     O38048   9.921   7.162   6.803  0.3683 -0.7195 -0.5810
 1001MOL0     C38049   9.637   7.133   6.735  0.0190 -0.3672 -0.7047
 1001MOL0     C38050   9.511   7.135   6.665 -0.6052  0.8874 -0.1363
 1001MOL0     N38051   9.050   6.676   6.273 -0.0717 -0.4286 -0.3998
 1001MOL0     N38052   9.000   6.575   6.219 -0.0666 -0.1043 -0.1676
 1001MOL0     C38053   8.161   6.005   5.315 -1.2787 -0.3281  0.0906
 1001MOL0     C38054   8.149   5.871   5.290 -0.2815 -0.8132 -0.0183
 1001MOL0     C38055   8.023   5.410   5.417 -1.0921  0.7564  0.2901
 1001MOL0     C38056   7.936   5.323   5.487 -0.4806  0.2799 -0.3407
 1001MOL0     C38057   7.933   5.185   5.475 -0.2393 -0.1931  0.5399
 1001MOL0     C38058   8.029   5.118   5.400  0.1730 -0.6113 -0.5038
 1001MOL0     O38059   8.041   4.986   5.394 -0.3636  0.6014 -0.1272
 1001MOL0     C38060   7.987   4.899   5.505  0.0232  0.0718  0.7397
 1001MOL0     C38061   7.872   4.805   5.467 -1.0506  0.5976  0.5539
 1001MOL0     C38062   7.762   4.872   5.397 -0.0905  0.5914  0.0327
 1001MOL0     C38063   7.668   4.780   5.315 -0.0872  0.7503 -0.4594
 1001MOL0     C38064   7.577   4.870   5.239 -0.1581 -0.2092  0.3412
 1001MOL0     C38065   7.505   4.946   5.175  0.0052  0.2770  0.8247
 1001MOL0     C38066   8.108   5.194   5.319  0.0018  0.2782 -0.1704
 1001MOL0     C38067   8.108   5.337   5.324  0.1982  0.2230  1.3929
 1001MOL0     C38068   8.204   5.408   5.230  0.2607 -0.4206 -0.1699
 1001MOL0     H38069   8.119   5.764   5.601 -4.8580  3.0081  2.6583
 1001MOL0     H38070   8.144   6.017   5.648  4.0114  2.8016 -1.2799
 1001MOL0     H38071   8.294   6.160   5.627 -0.2219  0.0608  1.7285
 1001MOL0     H38072   8.142   6.231   5.648  0.4727  0.6320 -0.6353
 1001MOL0     H38073   8.385   6.392   5.548  1.1547  0.4542  3.1970
 1001MOL0     H38074   8.217   6.459   5.550 -1.7062 -2.1443  0.4882
 1001MOL0     H38075   8.240   6.464   5.795 -0.9986 -3.3379  0.7685
 1001MOL0     H38076   8.375   6.354   5.786 -1.7354  0.4109  2.2886
 1001MOL0     H38077   8.508   6.531   5.645  0.0044 -1.8371  0.5889
 1001MOL0     H38078   8.382   6.644   5.688  1.5916  1.1687 -3.3521
 1001MOL0     H38079   8.437   6.562   5.928  1.8732  0.4303  0.8682
 1001MOL0     H38080   8.531   6.693   5.838  1.7347 -0.0411 -3.8047
 1001MOL0     H38081   8.622   6.422   5.890 -1.0724  0.2918 -1.8624
 1001MOL0     H38082   8.701   6.533   5.782  0.2407  1.8649  0.9392
 1001MOL0     H38083   8.648   6.615   6.077 -0.4046  0.3618  0.0551
 1001MOL0     H38084   8.720   6.705   5.946  2.0695  0.6069  0.2998
 1001MOL0     H38085   8.827   6.445   6.066 -1.0459 -0.3570 -1.3755
 1001MOL0     H38086   8.904   6.519   5.930  0.8432 -2.5814  1.5499
 1001MOL0     H38087   8.943   6.815   6.006 -1.6336 -0.5252  1.1333
 1001MOL0     H38088   9.008   6.977   6.289  0.1102  0.7599 -2.0489
 1001MOL0     H38089   9.082   6.982   6.133 -1.3807 -0.0359  0.6796
 1001MOL0     H38090   9.196   6.895   6.403 -2.1200  1.6883  0.3135
 1001MOL0     H38091   9.278   6.857   6.253 -0.9852 -1.2128  1.2817
 1001MOL0     H38092   9.275   7.097   6.201 -2.0644 -1.0517  0.2142
 1001MOL0     H38093   9.195   7.133   6.357 -1.6007 -0.3904  0.0384
 1001MOL0     H38094   9.456   6.986   6.327  0.8696  0.5305 -1.4988
 1001MOL0     H38095   9.448   7.165   6.350 -1.2042 -0.7001 -2.6077
 1001MOL0     H38096   9.543   6.855   6.490 -1.9064  1.0482  0.1456
 1001MOL0     H38097   9.786   6.819   6.456 -2.5823  1.9986  0.2022
 1001MOL0     H38098   9.769   6.731   6.611 -1.2618  1.6694  1.8656
 1001MOL0     H38099   9.901   6.838   6.589 -0.4733 -1.2161  1.9497
 1001MOL0     H38100  10.059   7.128   6.993 -3.9200 -2.0689  0.8284
 1001MOL0     H38101  10.295   7.090   7.039 -4.1699  1.4304  2.5569
 1001MOL0     H38102  10.513   7.052   6.879 -1.1446  0.3418  1.7585
 1001MOL0     H38103  10.587   6.992   7.027 -0.0174 -0.2288 -0.3372
 1001MOL0     H38104  10.605   6.848   6.763  0.0885  1.3442 -0.0887
 1001MOL0     H38105  10.717   6.969   6.812  0.8036 -0.4160  0.6849
 1001MOL0     H38106  10.649   6.699   6.940 -1.9521  1.1965 -0.8688
 1001MOL0     H38107  10.730   6.823   7.044 -0.3565  1.8135 -0.6712
 1001MOL0     H38108  10.916   6.846   6.903 -0.4963 -1.0373  3.9692
 1001MOL0     H38109  10.852   6.717   6.791 -2.0767  1.0128 -1.0403
 1001MOL0     H38110  10.905   6.656   7.087  0.2408 -1.6419  0.3045
 1001MOL0     H38111  10.856   6.553   6.960  0.6586  0.2804 -0.8949
 1001MOL0     H38112  11.115   6.698   7.000 -1.2908  2.0299 -0.9190
 1001MOL0     H38113  11.063   6.629   6.838 -1.7065 -2.7861 -0.2707
 1001MOL0     H38114  11.075   6.411   6.922 -0.3666 -1.7083  1.4787
 1001MOL0     H38115  11.090   6.465   7.096  0.0336 -2.6046  0.1432
 1001MOL0     H38116  11.318   6.558   7.024 -1.0772 -0.2431  0.3175
 1001MOL0     H38117  11.302   6.473   6.874 -1.6264 -1.4164 -0.7156
 1001MOL0     H38118  10.293   6.707   6.856 -0.3578  1.1145 -1.5104
 1001MOL0     H38119  10.055   6.740   6.782 -2.1267 -0.0692  0.3469
 1001MOL0     H38120   9.646   7.211   6.810 -1.5594  0.4439 -1.3163
 1001MOL0     H38121   9.428   7.205   6.675 -1.6030  0.1887 -2.6186
 1001MOL0     H38122   8.169   6.074   5.231 -0.6282  0.3173  0.6677
 1001MOL0     H38123   8.153   5.832   5.189  0.0387 -1.7742  0.3496
 1001MOL0     H38124   7.862   5.376   5.545 -1.2174  0.8045 -1.7210
 1001MOL0     H38125   7.862   5.129   5.535  1.6240 -1.7879  1.3740
 1001MOL0     H38126   8.071   4.834   5.531 -1.2079 -1.9257  0.0611
 1001MOL0     H38127   7.957   4.943   5.600  1.0311  2.6905 -0.0822
 1001MOL0     H38128   7.846   4.755   5.561 -2.9132 -2.0783 -1.2548
 1001MOL0     H38129   7.912   4.717   5.417 -4.9299 -0.8136 -0.4331
 1001MOL0     H38130   7.711   4.935   5.471 -1.2354  0.7831 -0.8974
 1001MOL0     H38131   7.804   4.949   5.332 -1.2695 -0.1564 -1.6628
 1001MOL0     H38132   7.603   4.725   5.383  0.1696 -0.7663 -1.4031
 1001MOL0     H38133   7.714   4.700   5.256  3.6788 -0.5691  3.6846
 1001MOL0     H38134   7.440   5.019   5.131  0.3122 -0.2320 -0.5441
 1001MOL0     H38135   8.176   5.145   5.250 -0.5247 -0.4324 -0.2073
 1001MOL0     H38136   8.288   5.440   5.291  0.7219  1.5276 -1.7205
 1001MOL0     H38137   8.240   5.342   5.150  1.1739 -0.0407 -0.0774
 1001MOL0     H38138   8.157   5.499   5.192 -2.2239  0.6985  4.7673
 1002MOL0     O38139   0.268   3.493   9.189  0.0873 -0.5156 -0.0953
 1002MOL0     C38140   0.261   3.606   9.241 -0.4030  0.4371 -0.2940
 1002MOL0     O38141   0.238   3.623   9.379  0.0496  0.9727  0.5330
 1002MOL0     C38142   0.204   3.506   9.447 -0.5090 -0.6183  0.2044
 1002MOL0     C38143   0.302   3.441   9.520 -0.2194  0.1634  0.3568
 1002MOL0     C38144   0.276   3.306   9.558  0.3654  0.1338  0.5990
 1002MOL0     C38145   0.142   3.257   9.546  0.6395  0.0533 -1.0778
 1002MOL0     O38146   0.104   3.134   9.591 -0.2016  0.4650 -0.0328
 1002MOL0     C38147   0.195   3.057   9.665 -0.3833 -0.4829  0.4210
 1002MOL0     C38148   0.158   2.915   9.691  0.4754  0.3240 -0.3591
 1002MOL0     C38149   0.042   2.897   9.793  0.7580 -0.7484  0.5724
 1002MOL0     C38150   0.059   2.761   9.857 -0.3152  0.2700 -0.4115
 1002MOL0     C38151  -0.064   2.726   9.953  0.7714 -0.3827  0.4466
 1002MOL0     C38152  -0.094   2.840  10.049 -0.4822  0.4055 -0.0995
 1002MOL0     C38153   0.022   2.855  10.154  0.7607  0.6773 -0.7271
 1002MOL0     C38154   0.010   2.971  10.253  0.3634 -0.7448 -0.3175
 1002MOL0     N38155   0.143   3.000  10.309 -1.2373  0.0747  0.2633
 1002MOL0     C38156   0.184   3.120  10.361  0.1750  0.0846 -0.5014
 1002MOL0     C38157   0.313   3.091  10.398  0.3883 -0.1591  0.2136
 1002MOL0     C38158   0.414   3.185  10.455 -0.1715  0.1558  0.0030
 1002MOL0     C38159   0.370   3.249  10.583 -0.3625 -0.6548 -0.8893
 1002MOL0     C38160   0.353   3.399  10.554  0.7504  0.1697  0.0894
 1002MOL0     C38161   0.349   3.488  10.682  0.3357  0.1364  0.2577
 1002MOL0     O38162   0.293   3.615  10.636  0.0396  0.0723  0.8596
 1002MOL0     C38163   0.245   3.700  10.735 -0.1222 -0.0680  0.4766
 1002MOL0     C38164   0.204   3.825  10.685 -0.4769  0.8071  0.2353
 1002MOL0     C38165   0.161   3.921  10.776  0.4436  0.4805  0.3097
 1002MOL0     C38166   0.100   4.044  10.711  0.3423  0.0296  0.2749
 1002MOL0     C38167   0.163   3.898  10.909  1.4706 -0.5370 -0.0215
 1002MOL0     C38168   0.097   3.990  11.006  0.2628  0.0875 -0.2581
 1002MOL0     O38169   0.085   3.934  11.130 -0.1148 -0.1897 -1.0063
 1002MOL0     C38170   0.018   3.997  11.226  0.0250 -0.1457 -0.2319
 1002MOL0     C38171  -0.113   3.956  11.229  1.2724  0.4253  0.2876
 1002MOL0     C38172  -0.195   4.005  11.334  0.3778 -0.2898 -0.6311
 1002MOL0     C38173  -0.145   4.089  11.438  0.3166 -0.2505 -0.0220
 1002MOL0     O38174  -0.228   4.148  11.539 -0.3103  0.2964 -0.5668
 1002MOL0     C38175  -0.370   4.139  11.536 -0.3048  0.1179 -0.0859
 1002MOL0     C38176  -0.430   4.206  11.657  0.3054 -0.6878 -0.5825
 1002MOL0     C38177  -0.391   4.124  11.788 -0.4009  0.0071 -0.0324
 1002MOL0     C38178  -0.505   4.146  11.891  0.1451 -0.2487 -0.1756
 1002MOL0     C38179  -0.493   4.044  12.003  0.4841 -0.9271  0.1524
 1002MOL0     C38180  -0.592   4.083  12.108  0.8938 -0.2890 -0.3997
 1002MOL0     C38181  -0.598   3.976  12.221 -0.2458 -0.8874 -0.7090
 1002MOL0     C38182  -0.685   4.005  12.343 -0.6186  0.2363 -0.4235
 1002MOL0    Cl38183  -0.826   4.104  12.320 -0.3828  0.4733 -0.2132
 1002MOL0     C38184  -0.013   4.135  11.420 -0.7534  0.7312  0.5007
 1002MOL0     C38185   0.073   4.081  11.320  0.3342 -0.4029 -0.7057
 1002MOL0     O38186   0.057   4.099  10.972 -0.2808 -0.1726 -0.6175
 1002MOL0     C38187   0.213   3.784  10.964  0.0300 -0.4437  0.4106
 1002MOL0     C38188   0.253   3.684  10.876 -0.5954  0.1497 -0.2524
 1002MOL0     N38189   0.344   2.956  10.381  0.3285 -0.2920 -0.0596
 1002MOL0     N38190   0.238   2.898  10.329 -0.1847 -0.2685  0.4094
 1002MOL0     C38191   0.046   3.323   9.479 -0.6454  1.0027 -0.5514
 1002MOL0     C38192   0.077   3.446   9.427  0.6808 -0.5559 -0.6958
 1002MOL0     C38193   0.285   3.725   9.168 -0.8412  0.1197 -0.2837
 1002MOL0     C38194   0.323   3.839   9.234 -0.0121 -0.5202  0.0913
 1002MOL0     C38195   0.350   3.959   9.166  0.3508  0.0862 -0.4194
 1002MOL0     C38196   0.349   3.967   9.031 -0.0664  0.0937  0.5165
 1002MOL0     O38197   0.371   4.085   8.957  0.6730 -0.0039 -1.4027
 1002MOL0     C38198   0.363   4.216   9.026  0.2293  0.4766  0.4942
 1002MOL0     C38199   0.505   4.258   9.087  0.1539 -0.2176 -0.4659
 1002MOL0     C38200   0.493   4.366   9.200 -0.4393  0.9329 -0.1345
 1002MOL0     C38201   0.459   4.508   9.161 -0.0187 -1.3161  0.2211
 1002MOL0     C38202   0.571   4.571   9.094 -0.2842  0.0244  0.7256
 1002MOL0     C38203   0.670   4.602   9.023  0.3633  0.0516 -0.0623
 1002MOL0     C38204   0.301   3.854   8.957 -0.2693  0.6781  0.5638
 1002MOL0     C38205   0.273   3.737   9.026  0.2182 -0.2109 -0.3951
 1002MOL0     C38206   0.202   3.622   8.956  0.6314  0.5979  0.3576
 1002MOL0     H38207   0.401   3.482   9.535 -0.3966  2.7296 -3.8982
 1002MOL0     H38208   0.357   3.243   9.593 -0.7232 -3.0162 -2.0063
 1002MOL0     H38209   0.239   3.116   9.746  0.2204  0.3547 -0.4908
 1002MOL0     H38210   0.288   3.044   9.609 -1.5227 -1.1041 -1.4085
 1002MOL0     H38211   0.113   2.865   9.605  0.4774 -0.9234  0.3478
 1002MOL0     H38212   0.243   2.850   9.714 -0.1214  0.2012  1.6789
 1002MOL0     H38213   0.043   2.982   9.861 -3.4414  0.6507 -0.8350
 1002MOL0     H38214  -0.053   2.902   9.739  0.3662  1.2541  1.3866
 1002MOL0     H38215   0.070   2.687   9.777  0.1560 -1.9456  1.6129
 1002MOL0     H38216   0.143   2.766   9.925 -2.1060 -0.1339  1.9519
 1002MOL0     H38217  -0.041   2.629   9.998  2.7240 -0.0035  0.3453
 1002MOL0     H38218  -0.156   2.714   9.895  0.3547  2.5875  0.3472
 1002MOL0     H38219  -0.109   2.934   9.995 -1.9504  1.5155  2.0530
 1002MOL0     H38220  -0.199   2.834  10.082 -0.6190  2.2519 -0.0775
 1002MOL0     H38221   0.108   2.885  10.092 -1.1728  1.0060 -3.4327
 1002MOL0     H38222   0.048   2.763  10.207  1.8805  2.2310  1.5551
 1002MOL0     H38223  -0.017   3.067  10.210  1.6448 -0.5657 -0.7613
 1002MOL0     H38224  -0.061   2.948  10.333  1.8204 -1.9603  0.7011
 1002MOL0     H38225   0.129   3.213  10.369 -2.1902 -1.4010  3.4506
 1002MOL0     H38226   0.412   3.261  10.377  2.8825 -1.2854 -1.6560
 1002MOL0     H38227   0.510   3.133  10.452 -1.4416 -2.3861 -3.5184
 1002MOL0     H38228   0.286   3.193  10.626  2.2009 -3.7409  0.5738
 1002MOL0     H38229   0.460   3.235  10.644 -1.3949 -0.3121  0.7516
 1002MOL0     H38230   0.436   3.445  10.499 -0.2863  1.4961 -0.4385
 1002MOL0     H38231   0.264   3.415  10.493  1.1962  2.5480 -0.0639
 1002MOL0     H38232   0.281   3.443  10.754 -0.8390 -0.9760 -1.4746
 1002MOL0     H38233   0.448   3.486  10.730 -0.0431 -4.0619  1.2656
 1002MOL0     H38234   0.214   3.847  10.579  1.0845  0.3764  0.2690
 1002MOL0     H38235   0.130   4.049  10.606  0.0992 -1.5084  0.1100
 1002MOL0     H38236   0.125   4.141  10.756 -2.4767  0.3836  1.2270
 1002MOL0     H38237  -0.008   4.035  10.722  0.3826 -2.2385 -0.6589
 1002MOL0     H38238  -0.148   3.893  11.148  1.5786  1.3616 -0.6029
 1002MOL0     H38239  -0.302   3.988  11.335  0.2641  0.3880  0.3573
 1002MOL0     H38240  -0.405   4.196  11.449  1.3517  2.4363  0.6697
 1002MOL0     H38241  -0.417   4.041  11.526 -3.4446  1.5397 -0.6316
 1002MOL0     H38242  -0.399   4.311  11.665 -2.4196  0.1920 -0.5145
 1002MOL0     H38243  -0.539   4.212  11.645 -0.4291  0.4219  4.1679
 1002MOL0     H38244  -0.293   4.160  11.823 -1.6570 -1.1813  5.6925
 1002MOL0     H38245  -0.381   4.016  11.775  0.0784 -0.3671  2.8431
 1002MOL0     H38246  -0.594   4.135  11.828  2.0145 -4.0898 -2.5000
 1002MOL0     H38247  -0.489   4.246  11.931 -2.3751  0.3376 -0.4430
 1002MOL0     H38248  -0.507   3.939  11.975  1.5467 -1.8074  2.6639
 1002MOL0     H38249  -0.391   4.058  12.041  0.5839 -1.3373  0.0507
 1002MOL0     H38250  -0.694   4.089  12.068  0.2297  3.1973  1.4275
 1002MOL0     H38251  -0.579   4.183  12.151  1.3921 -1.5908  2.6809
 1002MOL0     H38252  -0.496   3.953  12.253 -0.7600 -1.3333  0.6908
 1002MOL0     H38253  -0.634   3.883  12.178 -0.8031 -1.6419  1.2883
 1002MOL0     H38254  -0.614   4.048  12.413  1.7914 -4.2567  0.2504
 1002MOL0     H38255  -0.709   3.911  12.393  2.1938  0.5493  1.7552
 1002MOL0     H38256   0.032   4.211  11.484 -0.4177  0.2783  0.8157
 1002MOL0     H38257   0.172   4.124  11.322 -0.2659  1.0222  0.1702
 1002MOL0     H38258   0.227   3.773  11.071  2.1021 -0.3152  0.1922
 1002MOL0     H38259   0.287   3.587  10.912 -0.7804  0.5792  1.1225
 1002MOL0     H38260  -0.049   3.279   9.452 -1.2330 -0.8372  3.7212
 1002MOL0     H38261  -0.003   3.497   9.375 -1.3866 -0.7536  2.0699
 1002MOL0     H38262   0.328   3.838   9.342 -0.0037  0.5009  0.1169
 1002MOL0     H38263   0.372   4.050   9.220 -3.5157  0.6650  0.5041
 1002MOL0     H38264   0.322   4.301   8.971  1.5013  1.2690  0.7436
 1002MOL0     H38265   0.283   4.213   9.101 -0.8194  1.6346 -0.5249
 1002MOL0     H38266   0.583   4.274   9.012 -0.4515  0.2960 -1.0002
 1002MOL0     H38267   0.530   4.170   9.147 -0.3544 -0.4700 -0.6135
 1002MOL0     H38268   0.430   4.318   9.276  2.5028  0.3882  2.1734
 1002MOL0     H38269   0.591   4.359   9.248 -0.3565 -2.8546 -0.5850
 1002MOL0     H38270   0.456   4.561   9.256  2.6273 -2.4956  1.0587
 1002MOL0     H38271   0.373   4.525   9.095  0.8418  1.2704 -0.3190
 1002MOL0     H38272   0.745   4.614   8.948 -0.6898 -0.4216 -1.2216
 1002MOL0     H38273   0.315   3.858   8.850 -1.1064  3.8175  0.4830
 1002MOL0     H38274   0.178   3.647   8.852 -0.7015  2.7980  1.1448
 1002MOL0     H38275   0.272   3.537   8.961 -0.8106 -0.5533  3.1877
 1002MOL0     H38276   0.109   3.599   9.008 -1.5499 -0.0786 -3.4628
 1003MOL0     O38277   0.326   2.941   8.579 -0.6661  0.5009 -0.9592
 1003MOL0     C38278   0.333   3.049   8.637  0.0707 -0.5428  0.3699
 1003MOL0     O38279   0.413   3.082   8.740 -0.3575  0.6806 -0.6470
 1003MOL0     C38280   0.478   2.978   8.810  0.1164  0.2893 -0.4105
 1003MOL0     C38281   0.618   2.998   8.824 -0.7142  1.1670  0.0907
 1003MOL0     C38282   0.688   2.892   8.895  0.4407 -0.0718 -0.8983
 1003MOL0     C38283   0.618   2.787   8.962 -0.5747  0.0845  0.9676
 1003MOL0     O38284   0.680   2.688   9.034 -0.2686  0.9787  0.4456
 1003MOL0     C38285   0.802   2.633   8.966  0.9151  0.5936 -0.2899
 1003MOL0     C38286   0.831   2.496   9.019 -0.0584  0.3639 -0.7546
 1003MOL0     C38287   0.705   2.403   9.045  0.3816 -0.6398 -0.0984
 1003MOL0     C38288   0.750   2.270   9.105 -1.1414 -1.2225  0.1393
 1003MOL0     C38289   0.858   2.189   9.025 -0.7611 -0.6496 -0.1646
 1003MOL0     C38290   0.815   2.157   8.883  1.5732 -0.2636  0.5599
 1003MOL0     C38291   0.720   2.039   8.875 -0.0705  0.5573  0.1019
 1003MOL0     C38292   0.667   2.015   8.729  0.2596 -0.2626 -0.3746
 1003MOL0     N38293   0.595   1.888   8.706 -0.2347 -0.4024 -0.8838
 1003MOL0     C38294   0.616   1.796   8.598  0.5900  0.2137  0.8152
 1003MOL0     C38295   0.511   1.715   8.609  0.3773  1.6248 -0.5339
 1003MOL0     C38296   0.502   1.597   8.517 -0.4537  0.7559 -0.0808
 1003MOL0     C38297   0.519   1.472   8.598  0.2413 -0.9741  0.2242
 1003MOL0     C38298   0.495   1.340   8.517  0.0342 -0.4117 -0.7132
 1003MOL0     C38299   0.383   1.337   8.414 -0.0759 -0.4401  0.8659
 1003MOL0     O38300   0.412   1.413   8.290  0.0163  0.1326  0.1659
 1003MOL0     C38301   0.541   1.418   8.240 -0.2845  0.7418  0.5167
 1003MOL0     C38302   0.608   1.296   8.212  0.9049  0.4638  0.7414
 1003MOL0     C38303   0.730   1.279   8.147 -0.0439 -1.0937 -0.6398
 1003MOL0     C38304   0.789   1.142   8.125  0.0270  0.5510 -0.6442
 1003MOL0     C38305   0.792   1.402   8.101 -0.6419  0.0518  0.1729
 1003MOL0     C38306   0.918   1.417   8.025  0.5208 -0.7715  0.3364
 1003MOL0     O38307   0.957   1.548   7.983  0.9203  0.3190 -0.1574
 1003MOL0     C38308   1.044   1.560   7.879  1.5454 -0.4654 -0.5733
 1003MOL0     C38309   1.167   1.618   7.889  1.0407 -0.1920  0.6521
 1003MOL0     C38310   1.253   1.641   7.777 -0.0048  0.1624 -0.2899
 1003MOL0     C38311   1.211   1.590   7.653  0.4548  0.4414  1.3189
 1003MOL0     O38312   1.285   1.606   7.541 -0.3660 -0.0611  0.0701
 1003MOL0     C38313   1.405   1.689   7.544  0.1306 -0.2636  1.0209
 1003MOL0     C38314   1.425   1.754   7.404  0.1950 -0.4264  0.7970
 1003MOL0     C38315   1.292   1.828   7.369 -0.1154  0.2901  0.2986
 1003MOL0     C38316   1.336   1.954   7.292  0.5738  1.3041  0.4301
 1003MOL0     C38317   1.218   2.024   7.225  0.2669 -0.5596 -0.7803
 1003MOL0     C38318   1.272   2.138   7.135  0.2261 -0.0119 -0.1046
 1003MOL0     C38319   1.178   2.202   7.025  0.2169  0.4033 -0.3578
 1003MOL0     C38320   1.229   2.333   6.967  0.1974 -0.1228  2.0596
 1003MOL0    Cl38321   1.336   2.286   6.838  0.0574 -0.1151 -0.1109
 1003MOL0     C38322   1.085   1.525   7.638 -0.0305 -0.0849  1.1889
 1003MOL0     C38323   1.006   1.507   7.745  0.3223 -0.8524  0.3526
 1003MOL0     O38324   0.985   1.315   7.997 -0.8586  0.0037  1.4479
 1003MOL0     C38325   0.725   1.526   8.131 -0.4241  0.1320 -0.6077
 1003MOL0     C38326   0.597   1.533   8.187  0.0397 -0.6883  0.0737
 1003MOL0     N38327   0.429   1.747   8.715 -0.2458  0.0541  0.0938
 1003MOL0     N38328   0.486   1.849   8.777  0.1302  0.7378 -0.9477
 1003MOL0     C38329   0.475   2.781   8.950 -0.4783 -0.2648 -0.1682
 1003MOL0     C38330   0.399   2.883   8.881 -0.0954 -0.0704 -0.0958
 1003MOL0     C38331   0.255   3.171   8.580 -1.1497  1.0500 -0.8958
 1003MOL0     C38332   0.200   3.265   8.670 -0.5405 -1.0224  0.9644
 1003MOL0     C38333   0.115   3.365   8.623 -0.8788 -1.7070 -0.6749
 1003MOL0     C38334   0.091   3.388   8.489  0.2912 -0.4719 -0.0240
 1003MOL0     O38335   0.030   3.501   8.448  1.0579 -0.2017 -0.5942
 1003MOL0     C38336   0.060   3.550   8.310  1.0454  1.1325 -1.1837
 1003MOL0     C38337   0.016   3.693   8.291 -0.0277 -0.5394  0.4911
 1003MOL0     C38338   0.121   3.787   8.336  0.2163  1.0043 -0.9795
 1003MOL0     C38339   0.159   3.772   8.487 -0.4450 -0.3043  0.3871
 1003MOL0     C38340   0.208   3.896   8.543 -0.1973 -0.8565  0.8104
 1003MOL0     C38341   0.252   4.001   8.574  0.4412 -0.8079  0.1949
 1003MOL0     C38342   0.149   3.297   8.402 -0.8267 -0.4159  0.7600
 1003MOL0     C38343   0.228   3.184   8.447  0.1636 -0.1737 -0.5458
 1003MOL0     C38344   0.291   3.104   8.341  0.1843 -0.6739 -0.4240
 1003MOL0     H38345   0.656   3.081   8.765 -1.5295  0.9573 -0.7475
 1003MOL0     H38346   0.795   2.885   8.883  0.6213  2.6154 -1.6498
 1003MOL0     H38347   0.889   2.700   8.966  3.4767 -2.4297 -1.7313
 1003MOL0     H38348   0.771   2.622   8.862 -1.8788  3.1472  0.1399
 1003MOL0     H38349   0.901   2.449   8.948  1.0701  1.6001 -0.5106
 1003MOL0     H38350   0.873   2.520   9.117 -2.2823  1.4696 -0.0145
 1003MOL0     H38351   0.644   2.455   9.120 -2.0677  1.9989 -3.6128
 1003MOL0     H38352   0.642   2.384   8.958  0.0548  0.1211 -0.0340
 1003MOL0     H38353   0.793   2.301   9.200  0.8096  4.0489 -2.1136
 1003MOL0     H38354   0.657   2.213   9.108 -0.5350 -2.1894  1.2445
 1003MOL0     H38355   0.895   2.096   9.069 -0.2591 -1.0511 -1.3823
 1003MOL0     H38356   0.947   2.251   9.014 -3.2318  3.0584 -1.0457
 1003MOL0     H38357   0.772   2.247   8.837 -0.0214 -1.3387 -0.1493
 1003MOL0     H38358   0.906   2.135   8.827  2.8811  1.7740  1.7509
 1003MOL0     H38359   0.635   2.061   8.941  1.7459  2.6970  1.8669
 1003MOL0     H38360   0.777   1.955   8.916 -0.7366  0.7979  1.5514
 1003MOL0     H38361   0.606   2.102   8.701 -0.7029 -0.8864 -0.2539
 1003MOL0     H38362   0.752   2.017   8.661 -1.6598  3.2886 -3.0569
 1003MOL0     H38363   0.693   1.798   8.523 -0.8194  0.8480 -0.6794
 1003MOL0     H38364   0.577   1.616   8.439  0.0561  0.0579  0.2272
 1003MOL0     H38365   0.404   1.589   8.470 -1.7142 -2.1429  2.6758
 1003MOL0     H38366   0.611   1.464   8.657 -0.5016  0.4235  1.6465
 1003MOL0     H38367   0.444   1.477   8.678  0.6343 -1.1478  0.6087
 1003MOL0     H38368   0.588   1.309   8.467  2.9558  3.1300  1.9814
 1003MOL0     H38369   0.473   1.266   8.595 -5.5748  3.9291  2.5762
 1003MOL0     H38370   0.376   1.230   8.393  1.8586 -0.3215 -0.6514
 1003MOL0     H38371   0.285   1.363   8.455 -0.4939 -1.3979  0.5058
 1003MOL0     H38372   0.565   1.207   8.257 -1.3657  0.7361 -0.7296
 1003MOL0     H38373   0.853   1.128   8.037 -1.9990  1.8141 -2.4210
 1003MOL0     H38374   0.716   1.063   8.111  0.9397 -0.2850 -0.7787
 1003MOL0     H38375   0.859   1.118   8.206 -0.5949  0.8937  0.0057
 1003MOL0     H38376   1.187   1.662   7.986 -1.6498  3.2865 -0.2061
 1003MOL0     H38377   1.347   1.695   7.783 -0.1823  0.8189 -2.6220
 1003MOL0     H38378   1.391   1.775   7.610 -2.7507 -0.0013  0.1817
 1003MOL0     H38379   1.495   1.633   7.569  0.3840  0.1141  0.9662
 1003MOL0     H38380   1.508   1.825   7.403 -0.5259  0.4335 -0.1872
 1003MOL0     H38381   1.436   1.683   7.322 -0.9255  0.3982 -0.1061
 1003MOL0     H38382   1.234   1.850   7.459 -3.2190  1.3432 -1.7936
 1003MOL0     H38383   1.228   1.764   7.308  0.1874  1.8969 -1.8142
 1003MOL0     H38384   1.409   1.926   7.216 -1.0506 -5.2241  0.6818
 1003MOL0     H38385   1.390   2.021   7.360 -1.3752  3.3736  0.0211
 1003MOL0     H38386   1.167   1.947   7.166 -0.2283 -2.8499  2.3545
 1003MOL0     H38387   1.149   2.060   7.302  1.0546 -0.4427 -0.1154
 1003MOL0     H38388   1.352   2.097   7.073 -0.0872  2.6423 -2.4876
 1003MOL0     H38389   1.321   2.213   7.198  3.9170 -1.5042 -0.8985
 1003MOL0     H38390   1.077   2.216   7.065 -0.0982 -0.5782 -0.7725
 1003MOL0     H38391   1.177   2.127   6.945  2.1890 -0.6154  0.5144
 1003MOL0     H38392   1.277   2.393   7.045  0.0020 -0.8705  2.7790
 1003MOL0     H38393   1.149   2.391   6.922  0.9759  0.1902  1.0411
 1003MOL0     H38394   1.051   1.482   7.545 -0.2960 -0.4850  1.4694
 1003MOL0     H38395   0.905   1.468   7.741 -0.4265  0.5119  3.4484
 1003MOL0     H38396   0.780   1.619   8.126  3.6214 -1.9145  1.0055
 1003MOL0     H38397   0.547   1.626   8.211 -0.0189 -0.0635 -2.2046
 1003MOL0     H38398   0.421   2.706   9.006 -0.5071  1.3549  2.1019
 1003MOL0     H38399   0.291   2.896   8.882  0.0797  2.2028  2.6632
 1003MOL0     H38400   0.229   3.266   8.775  2.7587 -0.8580  0.1476
 1003MOL0     H38401   0.085   3.448   8.686  1.2800 -0.4495 -1.1854
 1003MOL0     H38402   0.166   3.539   8.286  1.1143 -2.8775  0.2212
 1003MOL0     H38403  -0.001   3.494   8.239 -0.3687 -0.3967  1.1178
 1003MOL0     H38404  -0.083   3.708   8.335  1.2968 -0.6333  3.7155
 1003MOL0     H38405  -0.010   3.702   8.185 -2.5840 -0.7601  1.0340
 1003MOL0     H38406   0.213   3.755   8.285  1.2927  1.3280  0.6729
 1003MOL0     H38407   0.095   3.889   8.306 -2.1401  0.6836 -0.2099
 1003MOL0     H38408   0.238   3.700   8.513 -0.6854 -0.2892  1.1895
 1003MOL0     H38409   0.074   3.733   8.543 -0.4681  0.0514  0.6015
 1003MOL0     H38410   0.283   4.099   8.605  0.5117 -1.0406  0.8880
 1003MOL0     H38411   0.129   3.298   8.295  1.4232 -3.1248  0.1699
 1003MOL0     H38412   0.238   3.008   8.337 -0.7639 -0.3973  2.7303
 1003MOL0     H38413   0.293   3.156   8.245 -1.6456 -0.9582 -0.6491
 1003MOL0     H38414   0.397   3.101   8.367 -0.0580  1.3026  1.0466
 1004MOL0     O38415   0.656   4.392   6.154 -0.4952  0.1604  0.1805
 1004MOL0     C38416   0.678   4.297   6.080 -0.4826  0.0954  0.3395
 1004MOL0     O38417   0.644   4.164   6.102 -0.3727 -0.2502  0.7391
 1004MOL0     C38418   0.553   4.143   6.200 -0.4034 -0.6987  0.2557
 1004MOL0     C38419   0.603   4.128   6.333  0.0003  0.4627 -0.3404
 1004MOL0     C38420   0.519   4.109   6.436  0.4979  0.3428 -0.6044
 1004MOL0     C38421   0.378   4.124   6.413  0.3259 -0.1529 -0.3601
 1004MOL0     O38422   0.279   4.103   6.517  0.1914 -0.5582  0.0423
 1004MOL0     C38423   0.312   4.127   6.651 -0.0886 -0.0865  0.7512
 1004MOL0     C38424   0.204   4.080   6.740 -0.0994  0.1564  0.4711
 1004MOL0     C38425   0.195   3.926   6.739  0.1786 -0.4974  0.0354
 1004MOL0     C38426   0.088   3.866   6.832 -0.3187 -0.1280 -0.3648
 1004MOL0     C38427   0.121   3.717   6.849  0.3507  0.5571  0.5531
 1004MOL0     C38428   0.134   3.614   6.732 -1.5684  0.4956  0.6890
 1004MOL0     C38429   0.005   3.570   6.676  0.1543  1.0966 -0.0745
 1004MOL0     C38430   0.016   3.497   6.538 -0.4460  0.6531 -1.1166
 1004MOL0     N38431   0.069   3.581   6.430  0.0907 -0.5203  0.5824
 1004MOL0     C38432   0.026   3.699   6.379  0.8604  0.2230 -0.0877
 1004MOL0     C38433   0.122   3.734   6.286 -0.4699  0.2101  0.8849
 1004MOL0     C38434   0.148   3.859   6.201  0.6339  0.7396 -0.5962
 1004MOL0     C38435   0.028   3.864   6.103 -1.1070  0.7932 -0.2052
 1004MOL0     C38436  -0.068   3.975   6.126  0.1693  0.6066  0.9282
 1004MOL0     C38437  -0.161   3.951   6.243  0.4839 -0.9550 -0.1387
 1004MOL0     O38438  -0.098   3.979   6.373 -0.1494  0.1482 -0.1817
 1004MOL0     C38439  -0.178   4.004   6.482 -0.1807  1.1284 -0.7389
 1004MOL0     C38440  -0.307   3.955   6.489  0.1144  0.1866  0.2911
 1004MOL0     C38441  -0.391   3.972   6.595  0.5381  1.0194 -0.2911
 1004MOL0     C38442  -0.529   3.911   6.575 -0.1089  0.2860 -0.2904
 1004MOL0     C38443  -0.350   4.055   6.705  0.7402 -0.1123 -0.4144
 1004MOL0     C38444  -0.433   4.102   6.824  0.4957  0.5794  0.4774
 1004MOL0     O38445  -0.553   4.056   6.825  0.8117  0.1950  0.7126
 1004MOL0     C38446  -0.634   4.074   6.934  0.1848 -0.4625 -1.5441
 1004MOL0     C38447  -0.640   4.197   7.006  0.8150  0.8364 -0.5468
 1004MOL0     C38448  -0.750   4.206   7.095  0.2163  0.9757  0.4944
 1004MOL0     C38449  -0.825   4.095   7.140  0.1107  0.1147 -0.1264
 1004MOL0     O38450  -0.904   4.094   7.255  0.3012 -0.9593 -0.0672
 1004MOL0     C38451  -0.862   4.170   7.372 -0.2809 -0.6056  1.1573
 1004MOL0     C38452  -0.970   4.276   7.411 -0.4652 -0.1493 -0.5848
 1004MOL0     C38453  -0.912   4.376   7.513  0.1857 -0.2401 -0.4759
 1004MOL0     C38454  -0.807   4.471   7.468  0.6915 -0.1668  0.0279
 1004MOL0     C38455  -0.713   4.514   7.584  0.3952  0.0274 -1.2074
 1004MOL0     C38456  -0.653   4.653   7.558  0.0339 -0.1472 -0.1400
 1004MOL0     C38457  -0.612   4.725   7.688 -0.0558 -0.1452  1.0166
 1004MOL0     C38458  -0.472   4.699   7.736 -0.1810 -0.7438 -0.2792
 1004MOL0    Cl38459  -0.454   4.761   7.901  0.2095  0.0801  0.2654
 1004MOL0     C38460  -0.822   3.980   7.062  0.9487  0.9229 -0.3895
 1004MOL0     C38461  -0.729   3.970   6.953  0.4790  0.1683  0.5460
 1004MOL0     O38462  -0.372   4.164   6.918 -0.1220 -0.1312  0.2292
 1004MOL0     C38463  -0.215   4.117   6.697  0.2043  1.2190  0.0611
 1004MOL0     C38464  -0.134   4.095   6.578  0.0934  0.0382  0.3134
 1004MOL0     N38465   0.226   3.641   6.291  0.3601 -1.1603 -0.7288
 1004MOL0     N38466   0.189   3.545   6.372 -0.3649  0.0654  0.6114
 1004MOL0     C38467   0.329   4.142   6.284  0.5285  0.0001  0.0702
 1004MOL0     C38468   0.415   4.164   6.176 -0.3618  0.1084 -0.2960
 1004MOL0     C38469   0.724   4.314   5.936 -0.0966 -0.5145 -0.6860
 1004MOL0     C38470   0.702   4.441   5.880 -0.1922  0.4538 -0.1939
 1004MOL0     C38471   0.713   4.450   5.741 -1.2783  0.6055 -0.0262
 1004MOL0     C38472   0.780   4.358   5.665  0.3945 -0.1318 -0.0091
 1004MOL0     O38473   0.801   4.358   5.535 -0.3105  0.3751  0.5070
 1004MOL0     C38474   0.754   4.453   5.448  0.5495 -0.6572  0.1608
 1004MOL0     C38475   0.795   4.428   5.305  0.4198 -0.1050 -0.0610
 1004MOL0     C38476   0.955   4.435   5.278 -0.4036 -0.6478 -0.1989
 1004MOL0     C38477   1.007   4.574   5.299 -0.3196 -0.2745  0.0775
 1004MOL0     C38478   0.993   4.673   5.187  0.6337 -0.0161  0.0420
 1004MOL0     C38479   0.975   4.748   5.102  0.4880  0.4795  0.6215
 1004MOL0     C38480   0.814   4.237   5.724 -0.3997  0.1662  0.0325
 1004MOL0     C38481   0.783   4.208   5.856 -0.5391  0.6567  0.0080
 1004MOL0     C38482   0.855   4.091   5.920 -0.3559 -1.0541 -0.1427
 1004MOL0     H38483   0.708   4.142   6.358 -0.4989  0.0757  2.2038
 1004MOL0     H38484   0.562   4.089   6.534 -0.9514  0.6565  0.1247
 1004MOL0     H38485   0.321   4.236   6.659  0.6656 -0.2598  3.1112
 1004MOL0     H38486   0.398   4.066   6.678 -0.0906  0.5322  2.2633
 1004MOL0     H38487   0.213   4.093   6.848 -2.6437 -3.0592  1.2584
 1004MOL0     H38488   0.120   4.130   6.690  0.8934 -0.9552 -2.4873
 1004MOL0     H38489   0.189   3.883   6.639  1.9847  1.6182 -1.0495
 1004MOL0     H38490   0.289   3.890   6.781  1.3477 -0.7546 -2.6359
 1004MOL0     H38491   0.078   3.923   6.925  0.1136  1.8872 -1.4903
 1004MOL0     H38492  -0.005   3.879   6.775  0.0143 -1.1121 -1.1506
 1004MOL0     H38493   0.042   3.677   6.914  1.1020  1.5828  2.1391
 1004MOL0     H38494   0.212   3.712   6.909  1.0687 -1.7646 -0.6077
 1004MOL0     H38495   0.189   3.661   6.651 -0.5849 -2.1945 -0.3070
 1004MOL0     H38496   0.179   3.523   6.773 -0.1334  0.5212 -0.7682
 1004MOL0     H38497  -0.053   3.660   6.654 -2.5913 -0.5190  0.0939
 1004MOL0     H38498  -0.041   3.515   6.758  1.9492  0.1388  0.3459
 1004MOL0     H38499   0.088   3.419   6.564  0.3184  1.5200 -0.5555
 1004MOL0     H38500  -0.077   3.455   6.500  1.1455 -2.5255 -1.8686
 1004MOL0     H38501  -0.068   3.741   6.412 -0.6273 -4.4534  2.6079
 1004MOL0     H38502   0.246   3.850   6.153  1.9134 -0.4758  2.0739
 1004MOL0     H38503   0.151   3.945   6.269 -2.4229 -1.7804  3.1416
 1004MOL0     H38504   0.067   3.891   6.005  1.3137  0.1604  0.5173
 1004MOL0     H38505  -0.012   3.762   6.100  1.8774 -0.4507 -0.9761
 1004MOL0     H38506  -0.015   4.070   6.128  1.2054  0.2664 -3.0154
 1004MOL0     H38507  -0.126   3.986   6.034  0.7283  1.5256  0.6849
 1004MOL0     H38508  -0.252   4.009   6.224 -0.4767 -1.9573  1.1622
 1004MOL0     H38509  -0.187   3.845   6.240 -0.8690 -0.6282 -1.4573
 1004MOL0     H38510  -0.336   3.893   6.404 -2.8859  0.9044  0.6742
 1004MOL0     H38511  -0.590   3.994   6.538  0.1678 -0.2624 -2.0907
 1004MOL0     H38512  -0.565   3.876   6.672  1.1138 -0.2664 -0.0051
 1004MOL0     H38513  -0.526   3.826   6.506  1.5477  0.2516 -0.2131
 1004MOL0     H38514  -0.558   4.266   6.989  2.4494 -0.4165  1.7106
 1004MOL0     H38515  -0.756   4.304   7.140  1.7968  0.5559  1.7158
 1004MOL0     H38516  -0.851   4.095   7.450  1.7679  0.4344  1.9471
 1004MOL0     H38517  -0.763   4.215   7.364 -1.6229  2.6952  1.3187
 1004MOL0     H38518  -1.001   4.336   7.325  1.0440 -1.0923 -1.8430
 1004MOL0     H38519  -1.056   4.220   7.448 -1.5475  1.1698 -1.0085
 1004MOL0     H38520  -0.869   4.312   7.590  0.4691  1.5282  0.8894
 1004MOL0     H38521  -0.992   4.435   7.558  0.5552  4.0226 -4.6085
 1004MOL0     H38522  -0.880   4.545   7.434 -0.9841  0.2484  3.9490
 1004MOL0     H38523  -0.748   4.441   7.381 -0.4681  0.6662 -1.0910
 1004MOL0     H38524  -0.780   4.512   7.670 -0.2863  0.3143 -1.7175
 1004MOL0     H38525  -0.620   4.458   7.595  1.5386  2.2787  1.8623
 1004MOL0     H38526  -0.728   4.713   7.506  0.4291 -2.2553 -3.4344
 1004MOL0     H38527  -0.565   4.642   7.493  0.9216 -2.7461  1.3459
 1004MOL0     H38528  -0.682   4.697   7.768  1.2878 -0.7633  2.0177
 1004MOL0     H38529  -0.611   4.834   7.677  1.4777 -0.1265  1.2490
 1004MOL0     H38530  -0.399   4.744   7.667 -0.0598  1.6800  1.2896
 1004MOL0     H38531  -0.457   4.591   7.731 -0.0877 -0.7456  0.0104
 1004MOL0     H38532  -0.882   3.891   7.081  2.2646  0.1745  0.4747
 1004MOL0     H38533  -0.730   3.893   6.876 -1.3421  0.9719 -0.3100
 1004MOL0     H38534  -0.175   4.175   6.780 -1.2252  1.8315  0.3501
 1004MOL0     H38535  -0.039   4.146   6.567 -0.3641  1.7875  3.3770
 1004MOL0     H38536   0.222   4.152   6.270  0.5469  0.3328  0.1388
 1004MOL0     H38537   0.385   4.193   6.075  1.9398  0.4900 -0.9219
 1004MOL0     H38538   0.657   4.518   5.941  1.7154  0.0195  1.8966
 1004MOL0     H38539   0.695   4.546   5.694  2.1126  0.8190 -1.1526
 1004MOL0     H38540   0.645   4.458   5.455  0.4418  2.6326 -1.7768
 1004MOL0     H38541   0.779   4.554   5.482 -0.3891 -0.4124  0.1543
 1004MOL0     H38542   0.758   4.509   5.241  3.6753  0.5129 -1.3782
 1004MOL0     H38543   0.741   4.337   5.279  2.0809 -1.6922  1.7506
 1004MOL0     H38544   1.012   4.361   5.335 -1.9368 -1.4176  0.3997
 1004MOL0     H38545   0.971   4.430   5.170  1.3421  2.1331 -0.1551
 1004MOL0     H38546   1.116   4.566   5.299 -0.0148  2.5223  1.3295
 1004MOL0     H38547   0.973   4.615   5.394  0.9452  0.4700  0.2351
 1004MOL0     H38548   0.971   4.822   5.025  1.6195 -0.2634 -0.1836
 1004MOL0     H38549   0.857   4.162   5.659 -1.9129 -0.4004 -0.3505
 1004MOL0     H38550   0.922   4.128   5.998 -0.9358  0.8680 -0.5038
 1004MOL0     H38551   0.780   4.020   5.958 -3.0199  1.1213 -0.9660
 1004MOL0     H38552   0.919   4.050   5.843 -0.7097  1.4666 -1.8931
 1005MOL0     O38553   9.018   4.840   5.845  0.4274  0.1246  0.4159
 1005MOL0     C38554   9.101   4.752   5.826 -0.1373 -0.1054 -0.0459
 1005MOL0     O38555   9.188   4.706   5.926 -0.3529  0.9476 -0.5858
 1005MOL0     C38556   9.195   4.778   6.045 -0.4568  0.0864 -0.4973
 1005MOL0     C38557   9.143   4.716   6.159  0.5856  0.4844 -0.5323
 1005MOL0     C38558   9.132   4.792   6.281 -0.5601  0.7847  0.4058
 1005MOL0     C38559   9.170   4.923   6.298 -0.9269  0.2480 -0.0896
 1005MOL0     O38560   9.169   4.997   6.415  0.3437 -0.6181  0.0973
 1005MOL0     C38561   9.096   4.946   6.530  0.4171 -1.2864  0.5629
 1005MOL0     C38562   9.188   4.848   6.616 -0.1710  0.0728 -0.4367
 1005MOL0     C38563   9.333   4.895   6.647 -0.5536 -0.1636  1.4285
 1005MOL0     C38564   9.333   4.996   6.762 -0.1381 -0.0273  0.2346
 1005MOL0     C38565   9.321   4.928   6.899  0.0571  0.8429  0.1055
 1005MOL0     C38566   9.351   5.019   7.026  0.1696  0.6824  0.6927
 1005MOL0     C38567   9.380   4.933   7.158  0.2735  0.2237  0.3995
 1005MOL0     C38568   9.362   5.024   7.272 -0.2877 -0.8267  0.5515
 1005MOL0     N38569   9.229   5.092   7.292 -0.7544  0.2253  0.4392
 1005MOL0     C38570   9.218   5.220   7.329  0.0628 -0.3968 -0.3467
 1005MOL0     C38571   9.090   5.245   7.297 -0.4479  0.6062 -0.1095
 1005MOL0     C38572   9.026   5.382   7.302 -0.2569 -0.1247 -0.1455
 1005MOL0     C38573   9.037   5.468   7.178 -0.0137  0.2032 -0.2423
 1005MOL0     C38574   8.983   5.391   7.053 -0.1498 -0.9822 -0.5483
 1005MOL0     C38575   9.006   5.482   6.938  0.0756 -0.8865  0.3380
 1005MOL0     O38576   8.977   5.416   6.810 -0.1480  0.5063  0.5065
 1005MOL0     C38577   9.033   5.473   6.704  0.3253  0.3423 -0.8037
 1005MOL0     C38578   9.080   5.400   6.601  0.2081  0.9766  0.5720
 1005MOL0     C38579   9.142   5.458   6.480  0.6469 -0.1513  0.1259
 1005MOL0     C38580   9.189   5.365   6.371  0.8443  0.2288  0.3211
 1005MOL0     C38581   9.139   5.605   6.472 -0.2002  0.4270 -0.9310
 1005MOL0     C38582   9.221   5.682   6.374 -0.5481 -0.7147  0.0449
 1005MOL0     O38583   9.180   5.809   6.358 -0.2774  0.1868  0.3273
 1005MOL0     C38584   9.220   5.883   6.252  0.4533 -0.4740  0.8635
 1005MOL0     C38585   9.288   5.845   6.139  0.1451  0.0543 -1.2430
 1005MOL0     C38586   9.325   5.941   6.043 -0.7600  1.1560 -0.2983
 1005MOL0     C38587   9.296   6.075   6.070 -0.0646 -0.4972 -0.8660
 1005MOL0     O38588   9.352   6.186   6.010 -0.3043 -0.4195  0.8310
 1005MOL0     C38589   9.417   6.175   5.880 -0.1481  0.2822  0.5149
 1005MOL0     C38590   9.490   6.305   5.841 -0.2160  1.0208  0.9191
 1005MOL0     C38591   9.644   6.270   5.860  0.4696 -1.5046 -0.0163
 1005MOL0     C38592   9.723   6.399   5.846 -0.0956 -0.1091  0.0739
 1005MOL0     C38593   9.873   6.362   5.840 -0.2026  0.5069 -0.0661
 1005MOL0     C38594   9.978   6.460   5.782  0.2196 -0.2288  0.3510
 1005MOL0     C38595  10.119   6.408   5.774 -0.2216  0.1835  0.9615
 1005MOL0     C38596  10.203   6.505   5.703 -0.1941 -0.1621  0.9515
 1005MOL0    Cl38597  10.234   6.632   5.828  0.2208 -0.4097  0.3892
 1005MOL0     C38598   9.226   6.111   6.182  0.0829 -0.3956  0.0468
 1005MOL0     C38599   9.189   6.014   6.275  0.3316 -0.4685  0.2639
 1005MOL0     O38600   9.319   5.632   6.327 -0.6981 -0.1151  0.3320
 1005MOL0     C38601   9.079   5.679   6.574  0.0851 -0.4952 -1.9003
 1005MOL0     C38602   9.030   5.617   6.692 -0.6983  0.6911 -0.1988
 1005MOL0     N38603   9.016   5.130   7.252 -0.1298  0.2353  0.0319
 1005MOL0     N38604   9.102   5.037   7.268  0.0330 -0.1607  0.1664
 1005MOL0     C38605   9.221   4.977   6.189  0.0074 -0.1121 -0.2485
 1005MOL0     C38606   9.230   4.917   6.057  0.5517  0.1336  0.1365
 1005MOL0     C38607   9.113   4.701   5.692  0.2729  0.6973 -0.1982
 1005MOL0     C38608   9.122   4.786   5.580 -0.8456  0.0041  0.0646
 1005MOL0     C38609   9.118   4.742   5.454 -1.2002  0.0314  0.6388
 1005MOL0     C38610   9.101   4.606   5.429 -0.2608 -0.1790 -0.0461
 1005MOL0     O38611   9.092   4.548   5.307  0.5131 -0.2178 -0.0412
 1005MOL0     C38612   8.976   4.584   5.235 -0.0130 -0.0026  0.0369
 1005MOL0     C38613   8.846   4.514   5.303  0.6598 -0.1161  1.1201
 1005MOL0     C38614   8.862   4.363   5.257 -0.0061  0.7854  0.4779
 1005MOL0     C38615   8.788   4.316   5.130 -0.0755  0.7766  0.1512
 1005MOL0     C38616   8.879   4.306   5.011 -0.2858 -0.8152 -0.8965
 1005MOL0     C38617   8.962   4.291   4.923  0.0010  0.2440 -0.4951
 1005MOL0     C38618   9.110   4.522   5.532  0.3997  0.8484 -0.0736
 1005MOL0     C38619   9.115   4.563   5.662  1.0862  1.1227 -0.1452
 1005MOL0     C38620   9.092   4.462   5.772  0.5936  0.4034 -0.3142
 1005MOL0     H38621   9.099   4.617   6.160 -1.3046  1.2858  0.6839
 1005MOL0     H38622   9.094   4.733   6.364  1.1793 -1.3747 -0.2226
 1005MOL0     H38623   9.004   4.895   6.501 -0.3196 -0.1429  0.8371
 1005MOL0     H38624   9.066   5.036   6.585 -0.5749  1.3198 -3.7427
 1005MOL0     H38625   9.134   4.821   6.707 -1.4837  3.3468 -0.1003
 1005MOL0     H38626   9.197   4.749   6.571 -2.5855  0.3560 -1.7274
 1005MOL0     H38627   9.392   4.803   6.657  1.2620  0.8239  0.2661
 1005MOL0     H38628   9.379   4.934   6.556  0.3973 -5.5762 -0.7874
 1005MOL0     H38629   9.430   5.044   6.746 -0.7269  0.6274 -1.6464
 1005MOL0     H38630   9.261   5.079   6.757  1.6993  1.5924 -0.7810
 1005MOL0     H38631   9.383   4.838   6.903 -0.1657  0.6993  0.4694
 1005MOL0     H38632   9.218   4.894   6.912  0.6655 -1.2608 -0.2627
 1005MOL0     H38633   9.430   5.091   6.999 -1.2862  2.3691  0.7856
 1005MOL0     H38634   9.265   5.084   7.038 -0.7824  0.3904 -3.1309
 1005MOL0     H38635   9.481   4.890   7.153  0.2155  0.2116 -0.9898
 1005MOL0     H38636   9.302   4.856   7.161 -0.5924  1.0654 -0.1343
 1005MOL0     H38637   9.389   4.980   7.368  2.0608  2.0421  1.3801
 1005MOL0     H38638   9.430   5.110   7.272 -3.8700  2.2922  2.1360
 1005MOL0     H38639   9.293   5.293   7.360  1.5016 -0.8210 -2.5900
 1005MOL0     H38640   9.076   5.435   7.384 -1.7804  1.5338 -0.2112
 1005MOL0     H38641   8.928   5.375   7.350  1.2298  2.0010  3.6804
 1005MOL0     H38642   8.988   5.565   7.191  2.3824  1.2331  2.1329
 1005MOL0     H38643   9.142   5.492   7.160  1.4744 -4.0830  1.5299
 1005MOL0     H38644   9.032   5.296   7.028 -0.9575 -1.2788 -1.0527
 1005MOL0     H38645   8.875   5.373   7.061 -0.0981 -0.7961  0.6672
 1005MOL0     H38646   8.965   5.583   6.945  1.8648 -0.2284  4.0775
 1005MOL0     H38647   9.112   5.510   6.939 -0.5764  1.9720 -0.2443
 1005MOL0     H38648   9.077   5.293   6.618  0.8314  0.6880 -0.9023
 1005MOL0     H38649   9.291   5.381   6.337  0.5989 -2.8770 -2.3139
 1005MOL0     H38650   9.115   5.379   6.292  1.1287  0.3863  0.0835
 1005MOL0     H38651   9.165   5.263   6.403  0.1182  0.7788  1.6262
 1005MOL0     H38652   9.304   5.740   6.117  1.2755  0.5953 -3.2221
 1005MOL0     H38653   9.390   5.919   5.959  1.5883  3.2448  0.8454
 1005MOL0     H38654   9.482   6.089   5.861 -2.4750 -0.9878 -2.7205
 1005MOL0     H38655   9.342   6.168   5.801 -0.1965  1.9663  0.3767
 1005MOL0     H38656   9.477   6.319   5.733 -1.7959 -1.1853  0.7685
 1005MOL0     H38657   9.455   6.392   5.898  1.0364  1.2692  1.3494
 1005MOL0     H38658   9.679   6.198   5.786  0.0950 -1.2592 -0.4358
 1005MOL0     H38659   9.669   6.232   5.960  0.7372  1.0443  0.9652
 1005MOL0     H38660   9.711   6.462   5.934 -1.2354 -0.5668  0.2667
 1005MOL0     H38661   9.683   6.448   5.757 -1.3540 -0.8735  0.1780
 1005MOL0     H38662   9.902   6.320   5.937  0.7587  1.1312 -0.0664
 1005MOL0     H38663   9.875   6.272   5.778 -0.7829  0.3118  0.1951
 1005MOL0     H38664   9.978   6.547   5.849 -1.1893  0.3730 -0.3974
 1005MOL0     H38665   9.939   6.492   5.685 -0.8834 -1.2917  0.4134
 1005MOL0     H38666  10.117   6.314   5.717  0.4984 -0.7905  2.4887
 1005MOL0     H38667  10.166   6.393   5.871  2.1752  2.7144  0.3334
 1005MOL0     H38668  10.152   6.552   5.619  4.2237  0.8027 -1.4960
 1005MOL0     H38669  10.296   6.456   5.673  0.5913  0.4607  2.2736
 1005MOL0     H38670   9.204   6.217   6.196  1.4101  0.0215 -0.8484
 1005MOL0     H38671   9.136   6.047   6.364  1.2840 -2.6249  1.7254
 1005MOL0     H38672   9.065   5.787   6.577  1.3713 -0.2991 -2.4063
 1005MOL0     H38673   8.994   5.680   6.773  2.0105  0.2382  1.4831
 1005MOL0     H38674   9.243   5.082   6.207 -1.9567  0.0705  1.4582
 1005MOL0     H38675   9.262   4.972   5.969  2.5944 -0.0360  0.7128
 1005MOL0     H38676   9.147   4.889   5.601  2.6998 -0.7713  0.2782
 1005MOL0     H38677   9.108   4.817   5.376  0.6309  0.0773  0.4065
 1005MOL0     H38678   8.959   4.691   5.222  0.0510  0.0939  0.7081
 1005MOL0     H38679   9.002   4.553   5.133  1.4540  3.0429 -0.6094
 1005MOL0     H38680   8.756   4.555   5.256  0.8619 -0.4579  0.4224
 1005MOL0     H38681   8.841   4.534   5.411  3.0135  1.3680  1.0220
 1005MOL0     H38682   8.968   4.341   5.239 -0.3416 -0.1410 -0.5029
 1005MOL0     H38683   8.837   4.314   5.351 -2.4688  2.9763  1.0765
 1005MOL0     H38684   8.716   4.397   5.116  3.0998  4.0834  1.2280
 1005MOL0     H38685   8.732   4.225   5.154 -1.3974  1.9953  1.9467
 1005MOL0     H38686   9.026   4.273   4.839  0.0806  0.6199 -0.5162
 1005MOL0     H38687   9.123   4.415   5.520  0.3081  0.8512 -0.2026
 1005MOL0     H38688   9.008   4.487   5.837  0.7334  1.1707 -0.4233
 1005MOL0     H38689   9.066   4.361   5.738 -0.8750 -0.4302  2.9182
 1005MOL0     H38690   9.183   4.448   5.831  0.7041 -1.0905 -0.8105
 1006MOL0     O38691  11.327   3.410   9.074 -0.0276 -0.9540 -0.0962
 1006MOL0     C38692  11.403   3.415   8.974 -0.6197  0.0001  0.0533
 1006MOL0     O38693  11.486   3.318   8.938  0.5624  0.1778  0.2151
 1006MOL0     C38694  11.512   3.204   9.003  0.7175  0.3902  0.5898
 1006MOL0     C38695  11.529   3.193   9.145  0.8139 -0.6260 -0.2384
 1006MOL0     C38696  11.577   3.070   9.207  0.7845 -0.5287 -0.2394
 1006MOL0     C38697  11.620   2.964   9.127 -0.0465  0.1825 -0.4213
 1006MOL0     O38698  11.681   2.851   9.181  0.2877 -0.2260 -0.5962
 1006MOL0     C38699  11.764   2.853   9.295 -0.7995  0.0851  0.0322
 1006MOL0     C38700  11.902   2.924   9.252 -1.1825  0.2975  0.2006
 1006MOL0     C38701  12.013   2.947   9.354  0.9435  0.0756 -0.1960
 1006MOL0     C38702  12.124   3.027   9.281 -0.1455  0.0699 -0.0919
 1006MOL0     C38703  12.233   3.088   9.373 -0.1245 -0.2881 -0.1914
 1006MOL0     C38704  12.192   3.204   9.458  0.0046  0.3942  0.2503
 1006MOL0     C38705  12.314   3.265   9.535 -0.8672 -1.3346  0.1158
 1006MOL0     C38706  12.281   3.408   9.586  0.1492 -0.0270  0.4374
 1006MOL0     N38707  12.391   3.458   9.676  0.0839  0.2099 -0.1221
 1006MOL0     C38708  12.505   3.521   9.641 -0.2208  0.7396  1.2108
 1006MOL0     C38709  12.586   3.505   9.747  0.4141 -0.1064  0.2249
 1006MOL0     C38710  12.724   3.570   9.753 -0.1600 -0.0256 -0.6380
 1006MOL0     C38711  12.845   3.478   9.755  0.1419  0.3046  0.5881
 1006MOL0     C38712  12.885   3.431   9.904  0.3963  1.1565 -0.1217
 1006MOL0     C38713  12.816   3.307   9.965  0.5690 -0.4084 -0.6624
 1006MOL0     O38714  12.847   3.188   9.893 -0.4984 -0.3988  0.1059
 1006MOL0     C38715  12.971   3.129   9.906 -0.1097 -0.3350  0.3519
 1006MOL0     C38716  13.007   3.056   9.797  0.3118  0.1844  0.4574
 1006MOL0     C38717  13.137   3.017   9.775  0.0728 -0.6536 -0.4004
 1006MOL0     C38718  13.177   2.941   9.642  0.2329  0.1908 -0.4832
 1006MOL0     C38719  13.228   3.032   9.874 -0.2556  0.0095  0.1107
 1006MOL0     C38720  13.369   3.009   9.842 -0.0959  0.1951 -0.2615
 1006MOL0     O38721  13.448   3.068   9.741  0.0987  0.6459  0.4689
 1006MOL0     C38722  13.577   3.023   9.710 -0.2517 -0.5475 -0.1739
 1006MOL0     C38723  13.606   2.885   9.719  0.3474 -0.2194  0.0112
 1006MOL0     C38724  13.740   2.833   9.702 -0.7566  0.0131 -0.7590
 1006MOL0     C38725  13.835   2.925   9.646  1.1159 -0.4890  0.7688
 1006MOL0     O38726  13.962   2.890   9.614 -0.4483 -1.1113 -0.0169
 1006MOL0     C38727  13.965   2.764   9.548  0.6849 -0.1193  0.2200
 1006MOL0     C38728  14.115   2.752   9.501 -0.4034  0.6044  0.7294
 1006MOL0     C38729  14.132   2.637   9.391 -0.2790  0.5761  0.0525
 1006MOL0     C38730  14.279   2.593   9.375 -1.6119 -0.2424  0.3139
 1006MOL0     C38731  14.366   2.702   9.325  0.7001 -0.3824  0.0954
 1006MOL0     C38732  14.510   2.656   9.307  0.6026  0.2691 -0.2747
 1006MOL0     C38733  14.598   2.760   9.244  0.1959  0.2033 -0.8029
 1006MOL0     C38734  14.745   2.729   9.247  0.1320 -0.4906 -0.6513
 1006MOL0    Cl38735  14.755   2.580   9.165 -0.0910  0.2052 -0.1386
 1006MOL0     C38736  13.791   3.060   9.629 -0.3601  0.7138  0.0941
 1006MOL0     C38737  13.666   3.106   9.655  0.4509 -0.1456 -0.0723
 1006MOL0     O38738  13.415   2.934   9.932 -0.4491  0.1157  0.5515
 1006MOL0     C38739  13.195   3.090  10.001 -0.6541 -0.1161  0.1404
 1006MOL0     C38740  13.066   3.141  10.010 -0.3916  0.0711 -0.1685
 1006MOL0     N38741  12.517   3.449   9.856  0.5440 -0.0504  0.1234
 1006MOL0     N38742  12.402   3.421   9.802  0.2711 -0.3234 -0.2070
 1006MOL0     C38743  11.601   2.972   8.994 -0.0165  0.1752  1.4916
 1006MOL0     C38744  11.553   3.089   8.930  0.3555  0.5925 -0.2361
 1006MOL0     C38745  11.377   3.530   8.880 -0.7089  0.1343  0.1288
 1006MOL0     C38746  11.361   3.504   8.733 -0.1752  0.4666 -0.1065
 1006MOL0     C38747  11.337   3.607   8.647 -0.1688 -0.8721  1.0038
 1006MOL0     C38748  11.322   3.741   8.702  0.3378  0.5621 -0.3731
 1006MOL0     O38749  11.301   3.846   8.615 -0.0719 -1.0498  0.7844
 1006MOL0     C38750  11.289   3.981   8.664  0.8124  0.4455 -0.1073
 1006MOL0     C38751  11.257   4.066   8.542  0.3347  0.9835 -0.4226
 1006MOL0     C38752  11.379   4.080   8.449  1.5814 -0.6053 -0.1302
 1006MOL0     C38753  11.408   4.213   8.386 -0.6612 -1.1339  0.0756
 1006MOL0     C38754  11.519   4.182   8.285 -0.0768 -0.2842  0.4332
 1006MOL0     C38755  11.605   4.147   8.206 -0.2784  0.3873 -0.5979
 1006MOL0     C38756  11.313   3.758   8.842 -0.9302 -0.3884  0.3640
 1006MOL0     C38757  11.345   3.660   8.932  0.0295 -0.4535  0.0258
 1006MOL0     C38758  11.348   3.705   9.073 -0.3944 -0.1092 -1.4154
 1006MOL0     H38759  11.516   3.274   9.216 -1.7003 -0.5017 -0.7545
 1006MOL0     H38760  11.593   3.064   9.314 -0.8332  1.4529  0.1808
 1006MOL0     H38761  11.799   2.751   9.315  0.4457  0.3200 -0.8591
 1006MOL0     H38762  11.723   2.908   9.380  0.8631  0.6066  0.5387
 1006MOL0     H38763  11.954   2.878   9.168 -1.5514  1.4218 -0.6824
 1006MOL0     H38764  11.870   3.022   9.214 -3.9496  1.0071  3.7114
 1006MOL0     H38765  11.971   3.008   9.434 -3.2775 -1.6887 -0.7753
 1006MOL0     H38766  12.047   2.852   9.398 -3.3663 -2.5068 -1.7545
 1006MOL0     H38767  12.174   2.949   9.222  0.9522 -1.4762  2.6890
 1006MOL0     H38768  12.085   3.102   9.212 -0.7859 -0.5203 -0.3845
 1006MOL0     H38769  12.315   3.122   9.310 -2.7077  2.9624 -2.1991
 1006MOL0     H38770  12.268   3.013   9.443 -0.0367  0.0137  0.0925
 1006MOL0     H38771  12.147   3.290   9.407 -1.9169  0.6039  2.1142
 1006MOL0     H38772  12.120   3.176   9.536 -0.1980  1.9199  0.6572
 1006MOL0     H38773  12.398   3.265   9.465  0.9157  2.2126  1.9595
 1006MOL0     H38774  12.341   3.201   9.620 -0.3105 -0.9129  0.2625
 1006MOL0     H38775  12.275   3.475   9.499 -1.4458 -0.1575  0.4049
 1006MOL0     H38776  12.178   3.407   9.623  0.7293 -1.1564  2.1250
 1006MOL0     H38777  12.529   3.557   9.542 -2.3886  0.5837  0.5787
 1006MOL0     H38778  12.726   3.628   9.846  0.8354  1.3683 -1.4906
 1006MOL0     H38779  12.737   3.646   9.675  0.4005 -1.4602 -1.9758
 1006MOL0     H38780  12.835   3.400   9.678 -1.5724 -0.1109  1.1930
 1006MOL0     H38781  12.933   3.534   9.721  2.2817 -2.4104  1.3101
 1006MOL0     H38782  12.991   3.402   9.899 -0.2556 -1.3665 -1.3923
 1006MOL0     H38783  12.860   3.514   9.970 -2.2365  0.5022 -0.1911
 1006MOL0     H38784  12.843   3.297  10.071  0.8689 -1.6018 -0.8448
 1006MOL0     H38785  12.709   3.329   9.958  0.4417  0.4325  2.4722
 1006MOL0     H38786  12.925   3.034   9.730  0.3290  0.2909  0.4012
 1006MOL0     H38787  13.086   2.894   9.603 -0.0668  1.7860 -1.7883
 1006MOL0     H38788  13.250   2.863   9.668 -0.3622 -0.1325  0.2578
 1006MOL0     H38789  13.208   3.008   9.562 -0.4391  0.2667 -0.6837
 1006MOL0     H38790  13.532   2.815   9.757  0.4381 -0.7035 -0.6904
 1006MOL0     H38791  13.767   2.729   9.721  1.5519  0.2872 -2.1471
 1006MOL0     H38792  13.949   2.691   9.627  0.9401  0.1208  0.4941
 1006MOL0     H38793  13.895   2.766   9.464  0.1271 -1.1503  0.6424
 1006MOL0     H38794  14.145   2.847   9.456 -0.4594  0.2634 -0.0450
 1006MOL0     H38795  14.183   2.734   9.585  0.4526  0.8795  0.1104
 1006MOL0     H38796  14.085   2.656   9.294 -0.7603 -1.9824 -0.2861
 1006MOL0     H38797  14.071   2.554   9.428  2.3038 -0.4261  2.4849
 1006MOL0     H38798  14.269   2.503   9.314 -0.6264 -0.2673  0.1665
 1006MOL0     H38799  14.318   2.572   9.475 -1.0463 -2.3737 -0.3073
 1006MOL0     H38800  14.321   2.727   9.229 -2.3411 -2.5480  0.7855
 1006MOL0     H38801  14.363   2.785   9.395 -4.7267 -0.8728  0.8137
 1006MOL0     H38802  14.513   2.572   9.237 -1.8586 -0.2520  0.1256
 1006MOL0     H38803  14.546   2.623   9.405 -0.0588  0.9963  0.2325
 1006MOL0     H38804  14.574   2.849   9.302 -1.1886 -2.8910  3.9163
 1006MOL0     H38805  14.567   2.767   9.139  2.9680  1.6565 -1.6111
 1006MOL0     H38806  14.776   2.724   9.352  0.2172  2.3721 -0.4652
 1006MOL0     H38807  14.782   2.817   9.194 -2.8649  0.2361 -1.7961
 1006MOL0     H38808  13.862   3.129   9.586 -0.0753  1.1350  1.1986
 1006MOL0     H38809  13.630   3.207   9.640 -1.1166 -0.7560 -0.6330
 1006MOL0     H38810  13.273   3.093  10.076  0.5973  1.1183 -1.1560
 1006MOL0     H38811  13.040   3.180  10.108 -3.0160 -3.5063  0.7588
 1006MOL0     H38812  11.637   2.889   8.934  3.2465  2.9587 -0.8519
 1006MOL0     H38813  11.551   3.085   8.822 -2.4539 -0.3301 -0.2424
 1006MOL0     H38814  11.376   3.408   8.685 -1.2359  0.7914 -1.1289
 1006MOL0     H38815  11.335   3.583   8.541  1.2327 -1.2520  1.0478
 1006MOL0     H38816  11.203   3.980   8.731  0.6198  1.8820 -0.3147
 1006MOL0     H38817  11.382   4.004   8.718 -0.7380 -0.8292  3.4184
 1006MOL0     H38818  11.235   4.164   8.585 -1.1267  1.8853 -3.0081
 1006MOL0     H38819  11.161   4.030   8.504 -0.4582  0.2295  2.1062
 1006MOL0     H38820  11.467   4.056   8.510  2.4140  2.2707 -0.0563
 1006MOL0     H38821  11.357   4.014   8.364 -1.0475  0.2038 -0.1602
 1006MOL0     H38822  11.446   4.286   8.458 -0.7180  2.0303 -2.8254
 1006MOL0     H38823  11.321   4.250   8.331 -0.1591  0.8397  0.5004
 1006MOL0     H38824  11.690   4.111   8.151 -0.1213  1.9600 -1.4406
 1006MOL0     H38825  11.287   3.853   8.887  1.4115  1.3810 -1.7610
 1006MOL0     H38826  11.402   3.637   9.139 -1.2229 -1.8150 -2.4273
 1006MOL0     H38827  11.397   3.803   9.074 -0.3526 -0.0877 -3.0340
 1006MOL0     H38828  11.248   3.720   9.115  0.8819  0.1068  1.8547
 1007MOL0     O38829  10.137   5.848   8.522 -0.0753 -0.5786 -0.5848
 1007MOL0     C38830  10.196   5.810   8.417 -0.6587  0.7122 -0.3876
 1007MOL0     O38831  10.128   5.753   8.319 -0.5036  0.3228 -0.0979
 1007MOL0     C38832   9.992   5.749   8.328 -0.6071  0.0977  0.4317
 1007MOL0     C38833   9.938   5.625   8.353 -0.1755  0.2053 -0.8558
 1007MOL0     C38834   9.796   5.615   8.359 -0.2152 -0.4064  0.4076
 1007MOL0     C38835   9.710   5.716   8.312 -0.7113  0.0906 -0.2011
 1007MOL0     O38836   9.575   5.722   8.293 -1.1655  0.2965  0.8607
 1007MOL0     C38837   9.491   5.704   8.412 -0.8428 -0.6436  0.8497
 1007MOL0     C38838   9.342   5.667   8.378  0.7583 -0.6985 -0.7601
 1007MOL0     C38839   9.305   5.671   8.224  0.0295 -1.0138 -0.2580
 1007MOL0     C38840   9.379   5.560   8.139 -0.4481  0.7020 -0.8861
 1007MOL0     C38841   9.380   5.616   8.001  0.9869  0.0281 -0.3933
 1007MOL0     C38842   9.484   5.538   7.924 -0.3908 -0.3537  1.0743
 1007MOL0     C38843   9.476   5.574   7.770  0.9795 -0.7404 -0.4170
 1007MOL0     C38844   9.584   5.506   7.691 -0.1796 -0.1888  0.4265
 1007MOL0     N38845   9.548   5.365   7.653 -0.3597 -0.1477 -0.4287
 1007MOL0     C38846   9.572   5.263   7.742  0.4093  0.0053  0.6613
 1007MOL0     C38847   9.535   5.154   7.673  0.5747  0.5695  0.0658
 1007MOL0     C38848   9.561   5.013   7.708 -0.0438  0.2017 -0.7887
 1007MOL0     C38849   9.472   4.905   7.650 -0.9352 -1.0763  0.3228
 1007MOL0     C38850   9.527   4.765   7.689 -0.0593 -0.0246 -0.2267
 1007MOL0     C38851   9.503   4.672   7.566 -0.6898 -0.6390 -0.2179
 1007MOL0     O38852   9.600   4.705   7.467 -0.1511  0.5281 -0.1374
 1007MOL0     C38853   9.587   4.636   7.349 -0.0325 -0.0849  0.4718
 1007MOL0     C38854   9.673   4.676   7.238  0.0282  0.2453  0.3600
 1007MOL0     C38855   9.669   4.623   7.108  0.9227 -0.4315 -0.1721
 1007MOL0     C38856   9.750   4.695   6.995  0.2084 -1.0178  0.3647
 1007MOL0     C38857   9.576   4.521   7.083 -0.1353 -0.3844  0.0728
 1007MOL0     C38858   9.560   4.448   6.957  0.2398 -0.5772  0.5498
 1007MOL0     O38859   9.444   4.371   6.947 -0.4764  0.0194 -0.4475
 1007MOL0     C38860   9.402   4.336   6.822  0.0193 -0.6216 -0.6404
 1007MOL0     C38861   9.334   4.431   6.741 -1.1418 -0.3561 -0.3654
 1007MOL0     C38862   9.274   4.389   6.620  0.4942  0.4668  0.1647
 1007MOL0     C38863   9.293   4.262   6.577  0.0566  0.4126  0.0975
 1007MOL0     O38864   9.227   4.218   6.466 -0.6740 -0.0628 -0.2215
 1007MOL0     C38865   9.191   4.077   6.464  0.7748 -0.2629  0.6467
 1007MOL0     C38866   9.044   4.048   6.440  1.1119 -0.4400  0.3768
 1007MOL0     C38867   9.012   3.896   6.427 -0.5313  1.5042 -0.3146
 1007MOL0     C38868   9.041   3.837   6.291  1.1005  0.4727 -0.1458
 1007MOL0     C38869   9.008   3.684   6.297 -0.0801 -0.9074 -0.5797
 1007MOL0     C38870   9.027   3.616   6.157 -0.2920  1.0037 -0.1620
 1007MOL0     C38871   8.951   3.484   6.147 -0.1526  0.7447  0.9670
 1007MOL0     C38872   8.801   3.498   6.103  0.6143 -0.5738 -1.2248
 1007MOL0    Cl38873   8.769   3.560   5.936  0.0304  0.3244  0.1273
 1007MOL0     C38874   9.383   4.184   6.651  0.6986 -0.3515 -0.6275
 1007MOL0     C38875   9.429   4.208   6.783 -0.0270  0.6024 -0.2654
 1007MOL0     O38876   9.641   4.459   6.863 -0.0234 -0.4100  0.5667
 1007MOL0     C38877   9.503   4.472   7.195  0.1630  0.6706  0.1035
 1007MOL0     C38878   9.513   4.518   7.328  0.2521  0.1205  0.7774
 1007MOL0     N38879   9.478   5.186   7.549  0.6906  0.6488  0.1644
 1007MOL0     N38880   9.489   5.319   7.535 -0.0221  0.2163 -0.4934
 1007MOL0     C38881   9.771   5.843   8.278 -0.8598  0.3798 -0.1312
 1007MOL0     C38882   9.912   5.851   8.283 -0.0137 -0.6008  0.5672
 1007MOL0     C38883  10.337   5.804   8.393  0.2535 -0.4995  0.3633
 1007MOL0     C38884  10.384   5.747   8.274  0.2951 -0.1994  0.0889
 1007MOL0     C38885  10.520   5.742   8.255  0.7337  0.9488  0.0424
 1007MOL0     C38886  10.612   5.787   8.349 -0.7016  0.3704  0.1048
 1007MOL0     O38887  10.754   5.782   8.329  0.5343  0.5280 -0.2199
 1007MOL0     C38888  10.798   5.661   8.263  1.1081 -0.5949  0.1721
 1007MOL0     C38889  10.929   5.642   8.313  0.9073 -0.1558 -0.9595
 1007MOL0     C38890  10.937   5.629   8.460  0.1998 -0.2533 -0.4842
 1007MOL0     C38891  11.071   5.556   8.506  0.9142 -0.2117  0.0578
 1007MOL0     C38892  11.051   5.412   8.477  0.2689  0.2768  0.0616
 1007MOL0     C38893  11.027   5.297   8.435 -0.4040 -0.7984 -0.2832
 1007MOL0     C38894  10.568   5.833   8.464 -0.6744  0.2430 -0.3092
 1007MOL0     C38895  10.435   5.851   8.485 -0.3465  0.0871 -0.8226
 1007MOL0     C38896  10.392   5.921   8.615  0.5373 -0.1096  0.3908
 1007MOL0     H38897  10.003   5.541   8.372 -0.0171  0.5446  0.1293
 1007MOL0     H38898   9.752   5.522   8.395 -0.4471 -0.4935 -0.0964
 1007MOL0     H38899   9.501   5.801   8.461 -0.6042 -0.1191 -0.2008
 1007MOL0     H38900   9.547   5.637   8.478  1.1778 -0.0042 -0.1336
 1007MOL0     H38901   9.328   5.564   8.412 -4.0363  0.8833  3.2932
 1007MOL0     H38902   9.276   5.725   8.443  0.7252  1.3040 -2.4968
 1007MOL0     H38903   9.199   5.644   8.215 -0.2783  0.7296 -2.7832
 1007MOL0     H38904   9.325   5.773   8.190  0.3019 -2.3465 -4.8205
 1007MOL0     H38905   9.480   5.540   8.174 -0.3223 -0.3273 -1.7771
 1007MOL0     H38906   9.323   5.465   8.141  2.1652 -0.9285 -0.7386
 1007MOL0     H38907   9.400   5.723   7.996 -2.7166  0.8307 -1.1920
 1007MOL0     H38908   9.282   5.590   7.959  0.5086 -4.3644  2.7469
 1007MOL0     H38909   9.583   5.568   7.958 -0.4125  2.5486 -1.0633
 1007MOL0     H38910   9.458   5.432   7.928 -3.1971  0.1314 -0.8763
 1007MOL0     H38911   9.459   5.681   7.759  1.4503 -0.2032  3.0205
 1007MOL0     H38912   9.385   5.526   7.731  3.2263 -2.9110 -3.4986
 1007MOL0     H38913   9.599   5.574   7.606 -3.3082 -0.8622 -0.8215
 1007MOL0     H38914   9.671   5.511   7.756 -0.6113  1.1548  0.9466
 1007MOL0     H38915   9.635   5.268   7.829 -0.3130 -0.0298  1.1947
 1007MOL0     H38916   9.557   5.002   7.817  0.3234 -1.0268 -0.8863
 1007MOL0     H38917   9.664   5.002   7.672  0.7173 -2.3761  1.7878
 1007MOL0     H38918   9.371   4.906   7.691 -1.0849 -1.6578 -0.0097
 1007MOL0     H38919   9.466   4.928   7.543 -2.1928  2.3692  1.0149
 1007MOL0     H38920   9.632   4.768   7.718 -0.9024 -1.2481  3.5682
 1007MOL0     H38921   9.475   4.727   7.777 -0.0210  2.6907  1.0650
 1007MOL0     H38922   9.503   4.565   7.585  2.2102 -0.5360  0.9128
 1007MOL0     H38923   9.402   4.692   7.530 -1.0738 -1.0355  0.6160
 1007MOL0     H38924   9.737   4.762   7.257 -0.2310  0.0599  2.1878
 1007MOL0     H38925   9.681   4.729   6.917  1.3660  1.4627  0.3136
 1007MOL0     H38926   9.829   4.626   6.965  1.6809  0.2396  1.2143
 1007MOL0     H38927   9.799   4.781   7.042  0.5047 -1.2748  0.5277
 1007MOL0     H38928   9.306   4.522   6.793  0.5993 -0.4019  0.7377
 1007MOL0     H38929   9.199   4.446   6.566  1.4241 -0.2518 -2.0030
 1007MOL0     H38930   9.258   4.054   6.380  0.8803  2.8709 -0.2596
 1007MOL0     H38931   9.229   4.013   6.544  2.0284  3.7120  3.5376
 1007MOL0     H38932   8.994   4.102   6.520  0.2965 -1.6714  0.7222
 1007MOL0     H38933   9.024   4.091   6.342  0.0355  0.8606  1.1468
 1007MOL0     H38934   8.912   3.877   6.467  0.0695 -0.0689  0.5250
 1007MOL0     H38935   9.070   3.831   6.493 -1.0217  1.2347 -0.1375
 1007MOL0     H38936   9.143   3.836   6.252  0.9532  1.6692 -0.6192
 1007MOL0     H38937   8.975   3.889   6.221 -3.5210 -0.5742  3.0025
 1007MOL0     H38938   9.071   3.625   6.365  0.6143  0.6531  0.1823
 1007MOL0     H38939   8.905   3.671   6.331 -1.7324 -0.8103 -4.9529
 1007MOL0     H38940   9.134   3.597   6.149 -0.9156 -3.3372 -0.4382
 1007MOL0     H38941   8.993   3.679   6.074 -0.3989  0.4116 -0.5729
 1007MOL0     H38942   8.970   3.434   6.243  2.5626 -0.4916 -0.1060
 1007MOL0     H38943   8.999   3.434   6.063 -1.6786  0.7965  0.0205
 1007MOL0     H38944   8.746   3.554   6.178  4.0534 -0.1423  1.2162
 1007MOL0     H38945   8.764   3.395   6.107 -1.0792  0.0378  2.2688
 1007MOL0     H38946   9.401   4.085   6.611 -2.2731 -0.7999 -1.0347
 1007MOL0     H38947   9.493   4.145   6.845 -1.7408 -1.6424 -0.6330
 1007MOL0     H38948   9.429   4.393   7.184  3.0496 -2.3214  0.4092
 1007MOL0     H38949   9.454   4.474   7.407 -3.4420 -0.8993 -2.2809
 1007MOL0     H38950   9.715   5.924   8.234  0.7031  1.8741  0.4904
 1007MOL0     H38951   9.955   5.940   8.238  0.2016  0.4379  2.7069
 1007MOL0     H38952  10.323   5.699   8.198 -0.9428  3.5372 -1.5269
 1007MOL0     H38953  10.539   5.705   8.154 -1.9368 -1.0918  0.1669
 1007MOL0     H38954  10.725   5.581   8.283 -0.3844  0.2913 -1.4672
 1007MOL0     H38955  10.793   5.676   8.154  0.3246 -2.7898 -0.1485
 1007MOL0     H38956  10.989   5.733   8.300  2.7431 -0.9847  1.0871
 1007MOL0     H38957  10.983   5.562   8.262  1.3995  0.3139 -1.1852
 1007MOL0     H38958  10.921   5.727   8.506 -1.0594 -1.0736  0.9124
 1007MOL0     H38959  10.851   5.569   8.490 -0.4533 -0.4185 -2.5106
 1007MOL0     H38960  11.089   5.574   8.612 -1.1692 -2.4227  0.8651
 1007MOL0     H38961  11.150   5.601   8.445 -1.4459  0.2680 -2.8690
 1007MOL0     H38962  11.006   5.213   8.371 -1.3722  0.1726 -1.2945
 1007MOL0     H38963  10.632   5.865   8.545  0.2486  0.7602 -1.2111
 1007MOL0     H38964  10.334   5.846   8.669 -1.3745  2.4330  2.0309
 1007MOL0     H38965  10.476   5.949   8.679  0.9186  2.2903 -1.0417
 1007MOL0     H38966  10.335   6.009   8.585 -1.7072 -1.8416 -0.8061
 1008MOL0     O38967   0.735   1.453   6.485 -0.1681 -1.2983  0.3972
 1008MOL0     C38968   0.795   1.355   6.536  0.8648 -0.1151 -0.4497
 1008MOL0     O38969   0.775   1.228   6.497  0.3260  0.1977 -0.2988
 1008MOL0     C38970   0.700   1.219   6.382 -0.0989 -1.0028 -0.6171
 1008MOL0     C38971   0.760   1.232   6.253  0.9899  0.0784  0.7256
 1008MOL0     C38972   0.676   1.243   6.134 -0.1564  0.8099  0.1565
 1008MOL0     C38973   0.532   1.228   6.144  0.6461 -0.0022 -0.4828
 1008MOL0     O38974   0.438   1.234   6.041 -1.1399  0.3875  0.6050
 1008MOL0     C38975   0.481   1.206   5.909  0.0034 -0.1241  0.7379
 1008MOL0     C38976   0.360   1.200   5.807  0.6184  0.2598 -0.7758
 1008MOL0     C38977   0.415   1.187   5.662 -0.4763  0.0541  0.1140
 1008MOL0     C38978   0.313   1.215   5.549  0.2204 -0.2738  0.5922
 1008MOL0     C38979   0.381   1.227   5.408  0.9685  0.6861  0.2071
 1008MOL0     C38980   0.396   1.081   5.352  1.0643 -0.5033  0.6920
 1008MOL0     C38981   0.490   1.065   5.237 -0.2204  0.1585  0.3285
 1008MOL0     C38982   0.499   0.914   5.200 -1.5122 -0.0065 -0.4050
 1008MOL0     N38983   0.390   0.853   5.136  0.8056 -0.0737 -0.8415
 1008MOL0     C38984   0.321   0.889   5.029  0.0245 -0.6203 -0.3062
 1008MOL0     C38985   0.256   0.771   4.997  0.2086 -0.4298  0.9485
 1008MOL0     C38986   0.151   0.758   4.883 -0.5710 -0.0371  0.6659
 1008MOL0     C38987   0.030   0.846   4.906  1.3226 -0.4549 -0.8056
 1008MOL0     C38988  -0.024   0.841   5.052  0.8178  0.1933 -0.4192
 1008MOL0     C38989  -0.059   0.702   5.088 -0.4216  0.5188 -0.2577
 1008MOL0     O38990  -0.135   0.631   4.985  0.4244 -0.0364 -0.5379
 1008MOL0     C38991  -0.184   0.506   5.011 -0.1435 -0.4665  1.1373
 1008MOL0     C38992  -0.276   0.455   4.925 -0.0968  0.0645  1.0285
 1008MOL0     C38993  -0.323   0.318   4.930  0.7804  1.3521  0.5077
 1008MOL0     C38994  -0.440   0.288   4.833  0.4537 -0.0003  0.1654
 1008MOL0     C38995  -0.264   0.232   5.025 -0.3148 -0.2726 -0.8197
 1008MOL0     C38996  -0.306   0.082   5.037 -0.0487 -0.4150 -0.5099
 1008MOL0     O38997  -0.373   0.023   4.928  0.6151  0.1180 -1.6275
 1008MOL0     C38998  -0.400  -0.112   4.936 -0.2171 -0.3524 -0.0646
 1008MOL0     C38999  -0.343  -0.208   4.844  0.2628  0.0059  0.1089
 1008MOL0     C39000  -0.351  -0.344   4.868 -0.0993 -0.6194 -0.5215
 1008MOL0     C39001  -0.439  -0.402   4.960  1.3205 -0.7413 -0.2483
 1008MOL0     O39002  -0.474  -0.533   4.949  0.3237  0.2338 -0.7192
 1008MOL0     C39003  -0.605  -0.580   4.996 -0.9532 -0.2474 -0.3487
 1008MOL0     C39004  -0.614  -0.728   4.990 -1.6819 -0.6179  0.0539
 1008MOL0     C39005  -0.606  -0.786   4.835 -0.1099 -0.1566  0.0550
 1008MOL0     C39006  -0.474  -0.846   4.796 -0.8098 -0.2302  0.0082
 1008MOL0     C39007  -0.463  -0.928   4.670 -0.0134  0.0929  0.3897
 1008MOL0     C39008  -0.321  -0.945   4.608  0.3450 -0.4926  0.1465
 1008MOL0     C39009  -0.304  -1.040   4.487  0.1196  0.1581  0.3850
 1008MOL0     C39010  -0.151  -1.067   4.447  1.2138 -0.4856 -0.0545
 1008MOL0    Cl39011  -0.078  -0.916   4.376  0.2926  0.5953  0.0204
 1008MOL0     C39012  -0.489  -0.308   5.050 -0.3030 -0.1663 -0.3065
 1008MOL0     C39013  -0.471  -0.173   5.047 -0.6555  0.4030  1.3380
 1008MOL0     O39014  -0.299   0.041   5.152 -0.1372 -0.9561 -0.3574
 1008MOL0     C39015  -0.177   0.291   5.114  0.2233 -0.0744 -0.4448
 1008MOL0     C39016  -0.133   0.426   5.116 -0.0317 -1.2359 -0.3562
 1008MOL0     N39017   0.293   0.664   5.071 -0.0846 -1.3013 -0.4903
 1008MOL0     N39018   0.364   0.718   5.167 -0.4417 -0.3313  0.8737
 1008MOL0     C39019   0.490   1.189   6.272  0.1435 -0.3845 -0.7248
 1008MOL0     C39020   0.559   1.191   6.390 -1.3401 -0.5663 -0.9581
 1008MOL0     C39021   0.875   1.391   6.658 -0.4591  0.2888  0.1335
 1008MOL0     C39022   0.840   1.498   6.742  0.1231 -0.0708  0.6644
 1008MOL0     C39023   0.898   1.515   6.873  0.8971 -0.8127  0.6607
 1008MOL0     C39024   0.992   1.429   6.923 -0.0593 -1.0435 -0.0167
 1008MOL0     O39025   1.054   1.454   7.043  0.2579  0.8641 -0.0261
 1008MOL0     C39026   0.995   1.377   7.144 -0.0742 -0.2144 -0.3100
 1008MOL0     C39027   1.011   1.440   7.282  0.4976 -0.0333  0.0890
 1008MOL0     C39028   0.940   1.572   7.291 -1.1311 -0.1364  0.3573
 1008MOL0     C39029   0.793   1.562   7.332 -0.7394  0.1999  0.6165
 1008MOL0     C39030   0.752   1.686   7.396 -0.1277  0.0767  0.3481
 1008MOL0     C39031   0.732   1.805   7.432 -0.0064  0.2919 -0.7167
 1008MOL0     C39032   1.039   1.329   6.831 -0.0024 -0.6596 -0.8291
 1008MOL0     C39033   0.974   1.306   6.707 -0.1356  0.9027  0.0077
 1008MOL0     C39034   1.032   1.192   6.612 -0.1080  0.0181  0.1399
 1008MOL0     H39035   0.868   1.243   6.265  1.6737 -1.8163 -2.4548
 1008MOL0     H39036   0.720   1.256   6.036 -2.0171 -0.2304 -0.8762
 1008MOL0     H39037   0.530   1.109   5.910 -1.1182 -0.7303 -0.4055
 1008MOL0     H39038   0.546   1.290   5.880 -0.5449  0.4625  1.1771
 1008MOL0     H39039   0.290   1.121   5.836 -2.3623  3.7234  2.5580
 1008MOL0     H39040   0.313   1.297   5.820 -1.0687 -0.5924 -0.2160
 1008MOL0     H39041   0.495   1.261   5.653  1.1905 -1.6186  0.4998
 1008MOL0     H39042   0.463   1.089   5.662  4.3784  2.1203 -1.8176
 1008MOL0     H39043   0.237   1.135   5.547 -1.5469  1.3515 -0.0819
 1008MOL0     H39044   0.253   1.303   5.574 -2.1073 -2.2120  2.4175
 1008MOL0     H39045   0.480   1.271   5.416  3.5335 -3.9435 -1.9359
 1008MOL0     H39046   0.329   1.288   5.334  1.2742 -0.9436 -1.4135
 1008MOL0     H39047   0.433   1.026   5.439 -0.8844  0.3346  2.1272
 1008MOL0     H39048   0.297   1.044   5.322  1.6800 -0.4254 -1.6248
 1008MOL0     H39049   0.592   1.104   5.243  0.0148 -0.0448 -1.8094
 1008MOL0     H39050   0.459   1.134   5.158  1.0499  2.2993  1.5925
 1008MOL0     H39051   0.589   0.928   5.139 -0.4816  4.0493  1.6733
 1008MOL0     H39052   0.529   0.854   5.287 -3.7174 -1.2217 -0.3931
 1008MOL0     H39053   0.311   0.982   4.974  0.5599  0.4662  1.3878
 1008MOL0     H39054   0.119   0.654   4.880 -0.1507 -0.1448 -2.0067
 1008MOL0     H39055   0.192   0.796   4.789 -1.9962  0.5282  0.2441
 1008MOL0     H39056   0.067   0.946   4.880  0.6922  0.5340  1.7958
 1008MOL0     H39057  -0.050   0.838   4.832 -0.3972  2.1657  0.5823
 1008MOL0     H39058   0.042   0.890   5.124  0.0781 -0.1103  0.4897
 1008MOL0     H39059  -0.113   0.905   5.050  0.1216 -0.7261 -2.6553
 1008MOL0     H39060   0.029   0.644   5.120 -0.6374 -0.2387 -0.9883
 1008MOL0     H39061  -0.111   0.709   5.184  3.0026 -2.6602  2.1200
 1008MOL0     H39062  -0.305   0.535   4.858  2.3900  1.1983  1.1816
 1008MOL0     H39063  -0.408   0.228   4.747  1.2647  2.2597 -1.2084
 1008MOL0     H39064  -0.484   0.379   4.790  1.6454 -0.1176 -1.3752
 1008MOL0     H39065  -0.518   0.232   4.884  0.1113  0.0688 -0.2828
 1008MOL0     H39066  -0.267  -0.180   4.771 -1.0342  0.7833 -0.9973
 1008MOL0     H39067  -0.290  -0.412   4.809  0.7662 -0.4572  0.1694
 1008MOL0     H39068  -0.631  -0.551   5.097 -2.9591 -1.0440 -0.5938
 1008MOL0     H39069  -0.680  -0.534   4.932 -0.8677  1.0151  0.4319
 1008MOL0     H39070  -0.528  -0.770   5.043 -0.1401  1.8163 -0.3889
 1008MOL0     H39071  -0.703  -0.746   5.051  0.0306  1.8266  3.6110
 1008MOL0     H39072  -0.641  -0.703   4.771 -0.6235 -0.8140 -0.5333
 1008MOL0     H39073  -0.678  -0.868   4.829  0.7105 -0.8232 -0.9366
 1008MOL0     H39074  -0.439  -0.905   4.882  3.6645 -0.0147 -1.4334
 1008MOL0     H39075  -0.413  -0.756   4.790 -0.9704 -0.1790 -0.9779
 1008MOL0     H39076  -0.514  -1.022   4.692 -1.1758  0.4653 -0.6089
 1008MOL0     H39077  -0.523  -0.870   4.598  2.1641  2.4984  0.3667
 1008MOL0     H39078  -0.242  -0.954   4.683  0.3626  1.3625  0.3883
 1008MOL0     H39079  -0.309  -0.845   4.565 -0.1934 -0.4703  0.0372
 1008MOL0     H39080  -0.364  -1.013   4.399 -0.0677 -2.7738 -0.4895
 1008MOL0     H39081  -0.356  -1.124   4.534  1.7252 -0.9389  0.2815
 1008MOL0     H39082  -0.149  -1.156   4.383  1.0238 -0.4480 -0.1134
 1008MOL0     H39083  -0.089  -1.082   4.537  0.1094  1.0746  1.0234
 1008MOL0     H39084  -0.545  -0.340   5.137 -0.4094  2.4118  0.6387
 1008MOL0     H39085  -0.504  -0.117   5.135 -1.5582  4.0283 -1.0520
 1008MOL0     H39086  -0.128   0.229   5.189  0.8247  1.3054  0.3501
 1008MOL0     H39087  -0.065   0.465   5.191 -1.3461 -0.3557  0.4236
 1008MOL0     H39088   0.385   1.171   6.293  0.5822  0.2519  2.5946
 1008MOL0     H39089   0.503   1.178   6.483 -2.4660  2.8695 -1.0251
 1008MOL0     H39090   0.762   1.569   6.718 -0.1579 -0.6885 -0.2775
 1008MOL0     H39091   0.861   1.595   6.936 -0.4694 -0.0853 -0.9980
 1008MOL0     H39092   0.887   1.361   7.141 -0.1589 -0.1823  1.5060
 1008MOL0     H39093   1.052   1.284   7.140  2.7789  1.4651 -1.9768
 1008MOL0     H39094   1.120   1.442   7.292  0.5299 -3.2429  1.7238
 1008MOL0     H39095   0.965   1.371   7.354  1.1913 -0.5097  0.0865
 1008MOL0     H39096   0.991   1.627   7.370  2.6643  0.3117 -2.1187
 1008MOL0     H39097   0.959   1.635   7.203 -0.1225 -1.5115 -0.4471
 1008MOL0     H39098   0.790   1.473   7.394 -1.6836  0.2669  0.6838
 1008MOL0     H39099   0.744   1.539   7.237  0.5969 -0.9183  0.1675
 1008MOL0     H39100   0.721   1.902   7.476 -1.0695  0.7396 -1.9049
 1008MOL0     H39101   1.131   1.277   6.855 -0.4892 -1.9470 -1.7048
 1008MOL0     H39102   1.037   1.214   6.506  0.4454 -1.2489 -0.1163
 1008MOL0     H39103   1.125   1.153   6.655 -0.5820  0.7828  1.9942
 1008MOL0     H39104   0.964   1.106   6.612  1.2547 -1.0996 -0.3494
 1009MOL0     O39105   4.822   5.286   0.384  0.4548 -0.2870  0.2210
 1009MOL0     C39106   4.913   5.346   0.445 -0.4546 -0.1545  0.2322
 1009MOL0     O39107   5.009   5.429   0.384  0.1286  0.4115 -0.5824
 1009MOL0     C39108   4.991   5.453   0.253  0.0983 -0.1369  0.5372
 1009MOL0     C39109   4.976   5.595   0.204  0.4400  0.7254 -1.4881
 1009MOL0     C39110   4.953   5.611   0.067 -0.4425  0.0890 -0.8517
 1009MOL0     C39111   4.943   5.500  -0.019 -0.1784  0.5623  0.2327
 1009MOL0     O39112   4.903   5.517  -0.148 -0.1303 -0.0004  0.1295
 1009MOL0     C39113   4.832   5.640  -0.176 -1.0493 -0.4386 -0.6321
 1009MOL0     C39114   4.732   5.601  -0.282  1.0896  0.2364  0.3979
 1009MOL0     C39115   4.601   5.538  -0.216  0.6093  0.1992 -0.1510
 1009MOL0     C39116   4.485   5.495  -0.313  0.0433  0.2201  0.6324
 1009MOL0     C39117   4.449   5.613  -0.409 -0.4137  0.0404 -0.4472
 1009MOL0     C39118   4.314   5.588  -0.472 -0.5328  0.5492 -0.0962
 1009MOL0     C39119   4.306   5.465  -0.568  0.9199  0.2203 -0.1450
 1009MOL0     C39120   4.163   5.455  -0.634  0.3039  0.8575 -0.2187
 1009MOL0     N39121   4.061   5.425  -0.535 -0.4464  0.1004 -0.9072
 1009MOL0     C39122   3.932   5.465  -0.563 -0.8425 -0.1315  0.7910
 1009MOL0     C39123   3.851   5.396  -0.476  0.7979 -0.6280 -0.4059
 1009MOL0     C39124   3.702   5.421  -0.457  0.3283 -0.0399 -0.2812
 1009MOL0     C39125   3.639   5.314  -0.365 -0.8316 -0.5488  0.2047
 1009MOL0     C39126   3.665   5.355  -0.221 -0.1646 -0.1046  0.4528
 1009MOL0     C39127   3.595   5.280  -0.117 -0.9166  0.4115 -0.0971
 1009MOL0     O39128   3.457   5.270  -0.126 -0.0719 -0.1026  0.1664
 1009MOL0     C39129   3.378   5.323  -0.030  0.4150  0.8154 -0.2054
 1009MOL0     C39130   3.329   5.237   0.073 -0.5435 -0.2205 -0.5664
 1009MOL0     C39131   3.255   5.281   0.185  0.5849  1.0665 -1.0103
 1009MOL0     C39132   3.206   5.185   0.285  1.0098 -0.2085 -0.4092
 1009MOL0     C39133   3.232   5.417   0.196 -0.0878 -0.7234 -0.3730
 1009MOL0     C39134   3.150   5.487   0.304  0.0039  0.9186 -1.4887
 1009MOL0     O39135   3.064   5.592   0.264 -0.3459  0.2048  0.4305
 1009MOL0     C39136   2.975   5.646   0.351  1.2388 -0.0461  0.2844
 1009MOL0     C39137   2.903   5.557   0.439  1.0736  0.0345  0.5135
 1009MOL0     C39138   2.830   5.610   0.555  0.4320 -0.5129 -1.0777
 1009MOL0     C39139   2.815   5.751   0.568  0.0166 -0.4004  0.4867
 1009MOL0     O39140   2.741   5.782   0.679  0.3892  0.0707 -0.4113
 1009MOL0     C39141   2.682   5.912   0.700 -0.8624  0.1591  1.2765
 1009MOL0     C39142   2.538   5.914   0.647 -0.6590  1.2779  0.3196
 1009MOL0     C39143   2.457   6.034   0.666 -0.0211 -0.6044  0.1259
 1009MOL0     C39144   2.333   6.023   0.580 -0.1388 -0.3646 -0.0867
 1009MOL0     C39145   2.252   6.140   0.615  0.9197  0.7588  0.4642
 1009MOL0     C39146   2.294   6.276   0.586  1.0495  0.3504 -0.4804
 1009MOL0     C39147   2.176   6.372   0.609  0.0580  0.1996  0.0480
 1009MOL0     C39148   2.229   6.507   0.639  0.2065  0.1253 -0.2835
 1009MOL0    Cl39149   2.356   6.565   0.526 -0.3320  0.2347 -0.1900
 1009MOL0     C39150   2.874   5.839   0.471 -0.7516  0.0107 -0.6160
 1009MOL0     C39151   2.952   5.784   0.373  0.6028  0.1898 -0.0490
 1009MOL0     O39152   3.178   5.467   0.426 -0.1887  0.5446  0.3390
 1009MOL0     C39153   3.264   5.509   0.094 -0.6909  0.8741  0.2536
 1009MOL0     C39154   3.339   5.454  -0.019  0.2044 -0.3072  0.5043
 1009MOL0     N39155   3.937   5.317  -0.395  0.7769  0.1424 -0.4231
 1009MOL0     N39156   4.057   5.331  -0.440  1.0536  0.3851  0.3634
 1009MOL0     C39157   4.968   5.375   0.027 -0.5957  0.4766 -0.0599
 1009MOL0     C39158   4.989   5.347   0.165  0.5003  0.3864  0.5204
 1009MOL0     C39159   4.914   5.337   0.593  0.0921 -0.3842 -0.3431
 1009MOL0     C39160   5.043   5.328   0.650 -0.8675 -0.6971 -0.5462
 1009MOL0     C39161   5.051   5.345   0.786 -0.4111  0.2012 -0.3961
 1009MOL0     C39162   4.936   5.364   0.865  1.2462  1.1705  1.0591
 1009MOL0     O39163   4.945   5.377   1.004 -0.1196  0.9582 -0.4275
 1009MOL0     C39164   5.075   5.373   1.065 -0.5227 -0.5703 -0.7273
 1009MOL0     C39165   5.040   5.350   1.223 -0.0569  0.4354 -0.5734
 1009MOL0     C39166   5.173   5.361   1.287 -0.1203  0.1700  0.1826
 1009MOL0     C39167   5.169   5.302   1.436 -0.0660  1.0207  0.3650
 1009MOL0     C39168   5.183   5.153   1.424  0.7262  0.2372 -0.0356
 1009MOL0     C39169   5.164   5.038   1.412 -0.6852 -0.5777  0.2105
 1009MOL0     C39170   4.813   5.359   0.805 -0.0229  0.1546  1.1633
 1009MOL0     C39171   4.800   5.356   0.668  0.9102  0.9012 -0.0555
 1009MOL0     C39172   4.665   5.394   0.621 -0.3586 -0.3166  0.6458
 1009MOL0     H39173   4.994   5.680   0.269  0.9131  0.5881 -1.4373
 1009MOL0     H39174   4.930   5.711   0.032 -3.5468 -0.7309 -1.5101
 1009MOL0     H39175   4.901   5.720  -0.204 -3.0475  0.9790 -1.7007
 1009MOL0     H39176   4.768   5.683  -0.099  0.7524 -4.3282  3.5463
 1009MOL0     H39177   4.702   5.700  -0.317 -0.7132  0.5026  2.4565
 1009MOL0     H39178   4.784   5.530  -0.347 -1.5319 -1.3471 -0.1085
 1009MOL0     H39179   4.617   5.450  -0.153 -4.5636  0.4621  2.0438
 1009MOL0     H39180   4.567   5.612  -0.142 -0.8781  2.2675 -2.7527
 1009MOL0     H39181   4.524   5.411  -0.372  0.5958  1.6886 -1.1586
 1009MOL0     H39182   4.403   5.471  -0.245 -0.0581  0.9757  0.7862
 1009MOL0     H39183   4.519   5.622  -0.493 -1.2693 -1.3532 -1.3597
 1009MOL0     H39184   4.453   5.707  -0.354  1.0785 -0.9022  1.1385
 1009MOL0     H39185   4.241   5.574  -0.392 -2.8722  0.6083 -2.0970
 1009MOL0     H39186   4.269   5.667  -0.533 -1.9556 -1.0130 -1.1805
 1009MOL0     H39187   4.329   5.365  -0.530  1.1009  0.3483  0.0906
 1009MOL0     H39188   4.373   5.483  -0.653 -2.0896 -2.0300 -3.2516
 1009MOL0     H39189   4.132   5.548  -0.682 -3.4083  0.9019  1.8552
 1009MOL0     H39190   4.183   5.372  -0.703 -0.3874 -0.0673  0.6560
 1009MOL0     H39191   3.890   5.529  -0.639 -1.8726  1.3095  2.4859
 1009MOL0     H39192   3.648   5.413  -0.552 -0.4942 -3.7047  0.3640
 1009MOL0     H39193   3.686   5.518  -0.409  0.1004 -1.0922  1.9014
 1009MOL0     H39194   3.532   5.297  -0.383 -1.0038  1.7254 -1.2409
 1009MOL0     H39195   3.705   5.227  -0.376 -0.6414 -0.4715  0.7317
 1009MOL0     H39196   3.772   5.361  -0.197  0.4869  0.3347 -2.2144
 1009MOL0     H39197   3.621   5.455  -0.213 -4.0946 -1.3798 -2.2422
 1009MOL0     H39198   3.628   5.176  -0.105  1.3277  1.3522  4.9698
 1009MOL0     H39199   3.619   5.335  -0.025  0.6188  1.5393 -1.1181
 1009MOL0     H39200   3.363   5.135   0.056 -1.8857 -0.5684 -1.2824
 1009MOL0     H39201   3.214   5.086   0.240  0.8006 -0.2393 -0.3795
 1009MOL0     H39202   3.098   5.199   0.299  1.1914  0.0023  0.8553
 1009MOL0     H39203   3.259   5.199   0.379  0.3117 -1.0608  0.1250
 1009MOL0     H39204   2.922   5.451   0.431 -1.0691 -0.2623 -2.2850
 1009MOL0     H39205   2.776   5.546   0.624  2.6915  0.5550  1.8637
 1009MOL0     H39206   2.681   5.931   0.808  1.8308 -0.9613  1.5911
 1009MOL0     H39207   2.737   5.992   0.648  0.3649 -2.7701 -2.3592
 1009MOL0     H39208   2.532   5.880   0.543  2.1266 -3.1198  1.3307
 1009MOL0     H39209   2.486   5.840   0.708 -0.7626  0.2539 -0.9515
 1009MOL0     H39210   2.506   6.124   0.630 -5.5068  2.3795 -0.9488
 1009MOL0     H39211   2.433   6.046   0.772  2.0758  1.1084  0.4672
 1009MOL0     H39212   2.277   5.934   0.608 -0.0348 -1.2950 -2.5885
 1009MOL0     H39213   2.365   6.025   0.476  3.6389 -1.0547  0.9108
 1009MOL0     H39214   2.168   6.124   0.547  0.8816 -0.5746  0.7991
 1009MOL0     H39215   2.220   6.125   0.719  1.0182 -2.0399  0.1505
 1009MOL0     H39216   2.345   6.285   0.490  1.0667  1.3810 -0.3925
 1009MOL0     H39217   2.371   6.313   0.655 -0.0972  0.0165  1.0316
 1009MOL0     H39218   2.121   6.341   0.699  1.1989 -1.9532  0.0917
 1009MOL0     H39219   2.104   6.370   0.528 -1.6561 -1.4511  1.5256
 1009MOL0     H39220   2.278   6.504   0.737  1.5878  0.9015 -0.9180
 1009MOL0     H39221   2.143   6.575   0.648 -2.1366 -2.8610  1.8231
 1009MOL0     H39222   2.865   5.947   0.467  2.5045  0.4183 -0.0442
 1009MOL0     H39223   2.987   5.848   0.293 -1.1207  1.2351 -0.0101
 1009MOL0     H39224   3.243   5.615   0.098  3.4381  1.9424 -1.4878
 1009MOL0     H39225   3.380   5.518  -0.096  0.3347  1.7840  2.2219
 1009MOL0     H39226   4.955   5.301  -0.052  0.8026 -2.2058  2.0445
 1009MOL0     H39227   5.000   5.242   0.192  3.8303 -0.0954 -1.9864
 1009MOL0     H39228   5.134   5.318   0.592  0.5502 -0.1900  1.4955
 1009MOL0     H39229   5.149   5.344   0.831  0.1781  0.3627 -1.6381
 1009MOL0     H39230   5.137   5.291   1.027 -1.5479 -0.8617 -1.8266
 1009MOL0     H39231   5.131   5.465   1.048 -1.6542 -0.2890 -3.5329
 1009MOL0     H39232   4.981   5.259   1.236 -0.9249  0.9927 -0.5517
 1009MOL0     H39233   4.974   5.428   1.263 -1.6372  0.3951 -2.9195
 1009MOL0     H39234   5.251   5.312   1.227 -2.4506 -0.9308 -2.1145
 1009MOL0     H39235   5.205   5.465   1.297  2.0802 -0.5126  0.8848
 1009MOL0     H39236   5.082   5.339   1.491  0.1375  3.0372 -0.5852
 1009MOL0     H39237   5.253   5.340   1.494 -0.1649  0.3393  0.9747
 1009MOL0     H39238   5.130   4.937   1.409  1.4789 -1.4307 -4.7889
 1009MOL0     H39239   4.734   5.401   0.867  0.9981  1.9587  1.3169
 1009MOL0     H39240   4.696   5.475   0.554 -1.0379 -1.9801 -1.8115
 1009MOL0     H39241   4.617   5.308   0.573 -1.1700 -0.1598  1.1707
 1009MOL0     H39242   4.606   5.442   0.699  2.6658  1.1802  2.2129
 1010MOL0     O39243   4.352   1.859   6.936 -0.0750  0.4847 -0.0604
 1010MOL0     C39244   4.270   1.893   6.853  0.2818 -0.6278  0.6349
 1010MOL0     O39245   4.224   1.817   6.747  1.0540  0.2332 -0.1228
 1010MOL0     C39246   4.236   1.689   6.749  0.2399  0.0800  0.0811
 1010MOL0     C39247   4.251   1.621   6.636  0.0301  0.1835  0.5113
 1010MOL0     C39248   4.249   1.477   6.639 -0.9703  0.2831 -0.3557
 1010MOL0     C39249   4.244   1.404   6.762  0.7549 -0.1150  0.1711
 1010MOL0     O39250   4.237   1.267   6.755 -0.4404 -0.1050 -0.1062
 1010MOL0     C39251   4.174   1.190   6.863 -0.1037 -0.7903 -0.8389
 1010MOL0     C39252   4.182   1.038   6.837 -0.3094  0.2729 -0.7357
 1010MOL0     C39253   4.327   0.994   6.812  0.9877 -0.3970  0.5034
 1010MOL0     C39254   4.419   0.981   6.934 -0.5675 -0.2541 -0.4342
 1010MOL0     C39255   4.534   0.900   6.907 -0.4733 -0.6439  0.7201
 1010MOL0     C39256   4.627   0.884   7.031 -0.0197  0.8892 -0.8405
 1010MOL0     C39257   4.613   0.736   7.075  0.4560  0.2922  0.2560
 1010MOL0     C39258   4.700   0.704   7.191  0.7236  0.2103 -0.3941
 1010MOL0     N39259   4.673   0.568   7.234 -0.6050  0.0984 -0.3742
 1010MOL0     C39260   4.602   0.520   7.339  1.3092  0.2365 -0.1096
 1010MOL0     C39261   4.648   0.396   7.340  0.4698  0.8258  0.1324
 1010MOL0     C39262   4.590   0.278   7.417 -0.5936  0.0686 -0.0021
 1010MOL0     C39263   4.713   0.238   7.502  0.6716 -0.3465 -0.4881
 1010MOL0     C39264   4.682   0.126   7.591  0.5739  1.1814 -0.8063
 1010MOL0     C39265   4.578   0.148   7.704 -0.6981 -0.1574  0.5134
 1010MOL0     O39266   4.652   0.226   7.801 -0.4744 -0.0591 -0.0642
 1010MOL0     C39267   4.575   0.319   7.869 -0.5195 -1.3059 -0.2213
 1010MOL0     C39268   4.447   0.300   7.918 -0.1723 -0.5477 -0.8180
 1010MOL0     C39269   4.387   0.390   8.008  0.4430  1.0633  0.0240
 1010MOL0     C39270   4.252   0.341   8.057 -0.3195  0.5473 -0.3481
 1010MOL0     C39271   4.463   0.491   8.067  0.0170 -0.1368 -0.6864
 1010MOL0     C39272   4.420   0.571   8.177  0.0696 -1.2397 -0.0821
 1010MOL0     O39273   4.510   0.672   8.213 -0.9614 -0.3300 -0.3288
 1010MOL0     C39274   4.484   0.789   8.298 -0.7636 -0.1085  1.1524
 1010MOL0     C39275   4.605   0.860   8.336 -0.0133  0.7574 -0.0770
 1010MOL0     C39276   4.591   0.975   8.418 -0.4152 -0.5708  0.4217
 1010MOL0     C39277   4.462   1.028   8.443 -0.7420  0.2771  0.0296
 1010MOL0     O39278   4.442   1.149   8.506 -0.2174 -0.7967  0.0153
 1010MOL0     C39279   4.519   1.172   8.629 -0.3617  1.0409  0.2111
 1010MOL0     C39280   4.430   1.137   8.753 -1.2049  0.2061  0.4448
 1010MOL0     C39281   4.320   1.229   8.796 -0.0716 -0.5579  0.5217
 1010MOL0     C39282   4.202   1.235   8.709  0.5165 -0.2212  0.0487
 1010MOL0     C39283   4.109   1.339   8.766  0.0294  0.0371  0.6783
 1010MOL0     C39284   3.983   1.365   8.670 -0.2399 -0.3406  0.6408
 1010MOL0     C39285   3.894   1.488   8.705 -0.0852 -0.3424  0.0590
 1010MOL0     C39286   3.823   1.454   8.845  0.0071 -0.1650 -0.0989
 1010MOL0    Cl39287   3.790   1.617   8.911 -0.3286  0.0494  0.2080
 1010MOL0     C39288   4.352   0.959   8.405  0.6735  0.1413 -0.1551
 1010MOL0     C39289   4.362   0.839   8.333  0.2242 -0.4315  0.3078
 1010MOL0     O39290   4.313   0.557   8.241  0.1171 -0.1257 -0.3225
 1010MOL0     C39291   4.592   0.521   8.002  1.1984 -0.8772 -0.1312
 1010MOL0     C39292   4.638   0.441   7.900  0.0914  0.2249 -0.5590
 1010MOL0     N39293   4.746   0.372   7.245 -0.3523 -0.0056  0.2113
 1010MOL0     N39294   4.757   0.483   7.185 -0.6751  0.1341  1.2661
 1010MOL0     C39295   4.244   1.484   6.882  0.2717 -0.5704  0.0315
 1010MOL0     C39296   4.232   1.621   6.868 -0.4578 -0.1787  0.0180
 1010MOL0     C39297   4.211   2.027   6.879 -0.0546  0.6730  1.3604
 1010MOL0     C39298   4.298   2.121   6.937  0.0846  0.7291 -0.9702
 1010MOL0     C39299   4.256   2.251   6.940  1.1036 -0.2963  0.8235
 1010MOL0     C39300   4.119   2.292   6.907 -0.7592 -0.4819  0.0997
 1010MOL0     O39301   4.062   2.418   6.914  1.0967  0.0051 -0.0063
 1010MOL0     C39302   4.145   2.524   6.944  0.3625  0.4333  0.2845
 1010MOL0     C39303   4.070   2.654   6.934  0.1073  0.3261  0.0955
 1010MOL0     C39304   4.053   2.694   6.784 -0.3793 -0.6208 -0.2287
 1010MOL0     C39305   3.979   2.835   6.767  0.5119  1.0701 -0.5921
 1010MOL0     C39306   3.847   2.832   6.831  0.5426  0.3430 -0.1736
 1010MOL0     C39307   3.746   2.835   6.898  0.9849 -1.0103 -0.4845
 1010MOL0     C39308   4.036   2.196   6.865 -0.7073  0.5378 -0.9991
 1010MOL0     C39309   4.077   2.060   6.840  1.6097  0.7686  0.5851
 1010MOL0     C39310   3.977   1.956   6.771  0.2867 -0.0344  0.4923
 1010MOL0     H39311   4.285   1.677   6.549  1.2509 -0.6867  0.4032
 1010MOL0     H39312   4.247   1.411   6.553 -4.4723 -0.1138 -0.0919
 1010MOL0     H39313   4.074   1.231   6.881  1.0590  1.0802  2.1936
 1010MOL0     H39314   4.213   1.195   6.965  1.2988 -2.0922 -1.2678
 1010MOL0     H39315   4.146   0.978   6.921 -0.7283  0.4056 -0.8181
 1010MOL0     H39316   4.102   1.015   6.767 -1.3765 -0.4142  0.6629
 1010MOL0     H39317   4.333   0.893   6.769  1.7398 -0.7375  1.3701
 1010MOL0     H39318   4.374   1.059   6.737  2.1519 -2.6058 -0.8100
 1010MOL0     H39319   4.454   1.079   6.968  1.0827 -0.9970  0.1140
 1010MOL0     H39320   4.364   0.932   7.015 -3.4882  0.7932 -1.6321
 1010MOL0     H39321   4.601   0.949   6.836 -2.3324 -1.4059 -1.6858
 1010MOL0     H39322   4.501   0.805   6.863 -0.0146 -0.8590  0.8361
 1010MOL0     H39323   4.731   0.902   7.003  0.8322 -0.3418  1.3013
 1010MOL0     H39324   4.603   0.957   7.109  0.1990  1.2767 -1.1286
 1010MOL0     H39325   4.621   0.668   6.990  0.1466 -0.7716  1.0659
 1010MOL0     H39326   4.508   0.722   7.104  0.8126  3.4058  3.9169
 1010MOL0     H39327   4.803   0.714   7.154  0.6377  0.4093 -0.5766
 1010MOL0     H39328   4.688   0.779   7.270  2.7199 -1.0457  1.2412
 1010MOL0     H39329   4.522   0.550   7.406 -0.3040  1.0240 -2.2890
 1010MOL0     H39330   4.578   0.194   7.348  1.5529  1.6142 -2.4617
 1010MOL0     H39331   4.500   0.307   7.472  1.8231  3.0149  2.8724
 1010MOL0     H39332   4.805   0.213   7.447 -0.0792 -1.7536 -1.1739
 1010MOL0     H39333   4.743   0.323   7.564  3.4210  0.0519 -2.1583
 1010MOL0     H39334   4.638   0.046   7.531 -0.3917 -0.0454  1.4104
 1010MOL0     H39335   4.762   0.074   7.645 -0.6485  0.2339  0.1587
 1010MOL0     H39336   4.493   0.207   7.669 -0.8633 -2.3418 -3.2313
 1010MOL0     H39337   4.547   0.047   7.730 -1.4710 -0.0372  0.0864
 1010MOL0     H39338   4.407   0.200   7.908 -2.0846  0.0763  0.1670
 1010MOL0     H39339   4.223   0.246   8.011 -1.9237 -0.2501  2.1073
 1010MOL0     H39340   4.171   0.412   8.041 -0.3228  0.2961 -1.5232
 1010MOL0     H39341   4.249   0.316   8.164 -1.8999  1.6830 -0.0899
 1010MOL0     H39342   4.701   0.820   8.307  0.8524  1.0864  2.1702
 1010MOL0     H39343   4.673   1.037   8.451 -0.7903 -0.3504  0.9521
 1010MOL0     H39344   4.616   1.123   8.640 -1.1135 -0.6997 -0.6346
 1010MOL0     H39345   4.539   1.279   8.641 -1.5333  1.1094  1.8154
 1010MOL0     H39346   4.388   1.038   8.733 -1.2917  0.4457 -0.6173
 1010MOL0     H39347   4.496   1.126   8.839 -2.9679  1.2998  2.0221
 1010MOL0     H39348   4.357   1.332   8.799  0.9175 -0.8623 -0.5587
 1010MOL0     H39349   4.292   1.219   8.901 -0.2097  0.7346  0.6306
 1010MOL0     H39350   4.148   1.140   8.701  1.0755 -0.6057  0.6424
 1010MOL0     H39351   4.223   1.273   8.608 -0.8282  0.6141  0.0635
 1010MOL0     H39352   4.080   1.320   8.870  0.5511  0.0568  0.8304
 1010MOL0     H39353   4.164   1.433   8.759  0.8748 -0.5970 -2.7307
 1010MOL0     H39354   3.916   1.280   8.658  2.6918 -2.7728  0.3832
 1010MOL0     H39355   4.032   1.377   8.573 -1.8932  0.3759 -0.1458
 1010MOL0     H39356   3.830   1.535   8.630  1.8637  0.8316 -0.9587
 1010MOL0     H39357   3.968   1.568   8.714  0.5809 -1.1711  2.7008
 1010MOL0     H39358   3.886   1.402   8.918  2.3982 -1.3469 -2.7789
 1010MOL0     H39359   3.733   1.397   8.823  0.4946 -1.1586  0.4072
 1010MOL0     H39360   4.256   0.998   8.437  1.0482 -0.5960  2.0424
 1010MOL0     H39361   4.275   0.790   8.291  0.0619 -0.6573  0.9031
 1010MOL0     H39362   4.654   0.608   8.021  0.6710 -0.9616  2.2032
 1010MOL0     H39363   4.742   0.455   7.870  0.8147 -0.5816  1.4030
 1010MOL0     H39364   4.246   1.430   6.976 -1.7569 -2.3231 -0.8427
 1010MOL0     H39365   4.220   1.671   6.964 -0.2928  1.5565 -0.8261
 1010MOL0     H39366   4.390   2.096   6.990 -0.1986 -1.6337 -1.4710
 1010MOL0     H39367   4.329   2.324   6.972 -0.6105  0.3271  3.6763
 1010MOL0     H39368   4.171   2.502   7.048 -0.3916  0.5021  0.4906
 1010MOL0     H39369   4.240   2.527   6.889 -0.3366  1.8466 -0.9168
 1010MOL0     H39370   4.117   2.733   6.993 -1.9058  1.2508  0.5460
 1010MOL0     H39371   3.973   2.651   6.984  1.1510  0.6059  2.2853
 1010MOL0     H39372   4.157   2.701   6.750 -0.8036  3.1396 -1.1967
 1010MOL0     H39373   3.996   2.611   6.743 -1.4701 -1.8210  3.3494
 1010MOL0     H39374   3.957   2.850   6.660 -2.2434 -1.9894 -0.6080
 1010MOL0     H39375   4.038   2.921   6.799 -0.9498  2.6461 -1.9069
 1010MOL0     H39376   3.675   2.865   6.972  2.7842  2.7104 -0.0256
 1010MOL0     H39377   3.934   2.231   6.860 -0.3941  1.8236  0.6598
 1010MOL0     H39378   3.879   2.003   6.776  0.7291  1.2784 -1.8035
 1010MOL0     H39379   4.004   1.934   6.667  3.1983  0.3132  1.0706
 1010MOL0     H39380   3.977   1.862   6.826 -1.7526 -0.1441  0.3557
 1011MOL0     O39381   8.259   5.450  11.349 -0.0664 -0.0280 -0.1149
 1011MOL0     C39382   8.253   5.514  11.453  1.0458 -0.2500  0.4393
 1011MOL0     O39383   8.338   5.506  11.555 -0.0190 -0.0462 -0.1571
 1011MOL0     C39384   8.455   5.439  11.534  0.2535 -0.1558 -0.1501
 1011MOL0     C39385   8.456   5.302  11.522 -0.2557 -0.3671  0.4888
 1011MOL0     C39386   8.575   5.240  11.486 -0.6327 -0.3744  0.3116
 1011MOL0     C39387   8.696   5.314  11.466 -0.3399 -0.5536 -0.3194
 1011MOL0     O39388   8.815   5.250  11.434 -0.2192  0.1795  0.9868
 1011MOL0     C39389   8.812   5.125  11.362  0.2040 -0.0864  0.2369
 1011MOL0     C39390   8.935   5.117  11.276 -0.5587 -0.0857 -0.2290
 1011MOL0     C39391   8.945   4.990  11.208 -0.1395  0.0183  0.5022
 1011MOL0     C39392   9.082   4.971  11.156  0.3691  0.0923 -1.1498
 1011MOL0     C39393   9.094   4.839  11.071  0.0125 -0.2132  0.9681
 1011MOL0     C39394   9.019   4.831  10.939 -0.6908  0.0977  0.0810
 1011MOL0     C39395   8.889   4.742  10.953 -0.5185  0.5611 -0.3151
 1011MOL0     C39396   8.797   4.752  10.828  0.1272  0.3297 -0.1153
 1011MOL0     N39397   8.868   4.714  10.703 -0.5112 -0.0680 -0.1024
 1011MOL0     C39398   8.903   4.588  10.663  0.2122 -0.6667 -1.1112
 1011MOL0     C39399   8.993   4.611  10.564 -0.1802 -0.8181  0.1888
 1011MOL0     C39400   9.083   4.512  10.495  0.5126 -0.2058 -0.7444
 1011MOL0     C39401   9.091   4.538  10.344  0.5485  0.1514  0.6709
 1011MOL0     C39402   9.178   4.438  10.268  0.3504 -0.5066  0.5630
 1011MOL0     C39403   9.154   4.289  10.297 -0.7402  0.9148  0.7600
 1011MOL0     O39404   9.216   4.233  10.175  0.3458 -0.5796 -0.3616
 1011MOL0     C39405   9.283   4.120  10.173 -0.0815 -0.6416 -0.3356
 1011MOL0     C39406   9.284   4.030  10.278 -0.7949  0.0679 -0.6088
 1011MOL0     C39407   9.372   3.920  10.283 -0.6677  0.3513  0.0039
 1011MOL0     C39408   9.385   3.849  10.414  0.0502 -0.1685 -1.2837
 1011MOL0     C39409   9.449   3.882  10.172 -0.1299  0.3005 -0.3957
 1011MOL0     C39410   9.528   3.754  10.157 -0.5330  0.9998 -0.4577
 1011MOL0     O39411   9.520   3.656  10.249 -0.2332  0.0269 -0.4182
 1011MOL0     C39412   9.574   3.541  10.217 -0.0435 -0.0903 -1.4522
 1011MOL0     C39413   9.485   3.434  10.181 -0.8047 -0.4438  1.5494
 1011MOL0     C39414   9.551   3.318  10.151  0.3003 -0.2302  0.2750
 1011MOL0     C39415   9.676   3.278  10.194  0.2545 -1.1487 -0.0885
 1011MOL0     O39416   9.721   3.146  10.181  0.2540 -0.7044  0.6132
 1011MOL0     C39417   9.844   3.112  10.241 -0.2760 -0.7208 -0.4601
 1011MOL0     C39418   9.875   2.969  10.232  0.1284  0.6533 -0.8067
 1011MOL0     C39419   9.869   2.915  10.097  0.1993  1.5224 -0.1743
 1011MOL0     C39420   9.919   2.765  10.089  0.6511 -0.0908 -0.6262
 1011MOL0     C39421   9.893   2.699   9.959 -1.0134 -1.0836 -0.0874
 1011MOL0     C39422   9.951   2.558   9.958  0.2590  0.4637 -0.1996
 1011MOL0     C39423  10.103   2.542   9.926 -0.4111 -0.4451 -0.5904
 1011MOL0     C39424  10.170   2.401   9.959  0.0922  0.0135 -0.4589
 1011MOL0    Cl39425  10.338   2.426   9.929  0.3297  0.2239  0.0787
 1011MOL0     C39426   9.759   3.379  10.250  0.2468  0.8300  1.8362
 1011MOL0     C39427   9.710   3.512  10.248 -1.1951 -0.1097  0.9694
 1011MOL0     O39428   9.588   3.741  10.053 -0.6562  0.0511 -0.1368
 1011MOL0     C39429   9.452   3.979  10.066  0.8284  0.9517 -0.1534
 1011MOL0     C39430   9.372   4.099  10.066  0.1114  0.8287 -0.2494
 1011MOL0     N39431   9.001   4.743  10.538  0.4931 -0.7324  0.7986
 1011MOL0     N39432   8.923   4.804  10.616 -0.4208  0.1638 -0.1900
 1011MOL0     C39433   8.689   5.457  11.473  0.6723 -0.5271 -1.9537
 1011MOL0     C39434   8.568   5.517  11.522 -0.9099 -0.0389 -0.6020
 1011MOL0     C39435   8.141   5.596  11.465  0.3279 -0.7778  0.1633
 1011MOL0     C39436   8.158   5.729  11.502 -0.2697  0.0542  0.6360
 1011MOL0     C39437   8.059   5.822  11.507  0.0313  0.5311 -1.2066
 1011MOL0     C39438   7.931   5.782  11.462 -0.0070  0.0220  0.4052
 1011MOL0     O39439   7.828   5.867  11.477  0.1039  0.5316  0.0490
 1011MOL0     C39440   7.853   6.010  11.469  0.3258  0.2186 -0.2709
 1011MOL0     C39441   7.724   6.075  11.402 -0.3265  0.0447 -1.4368
 1011MOL0     C39442   7.717   6.073  11.252  0.3034  0.2735  1.1527
 1011MOL0     C39443   7.829   6.143  11.184  0.0466  0.4163  0.4099
 1011MOL0     C39444   7.808   6.286  11.205 -0.4199 -0.4236 -0.6644
 1011MOL0     C39445   7.797   6.410  11.226 -0.1938  0.1787 -0.5531
 1011MOL0     C39446   7.903   5.653  11.431  0.1639 -0.8405  0.6713
 1011MOL0     C39447   8.008   5.563  11.428 -0.4185  0.6725  0.5531
 1011MOL0     C39448   7.979   5.419  11.384  0.1833 -1.1511  0.2697
 1011MOL0     H39449   8.367   5.241  11.514 -0.7478  0.1133  1.9799
 1011MOL0     H39450   8.587   5.134  11.467  1.7932  0.0349 -0.7920
 1011MOL0     H39451   8.718   5.124  11.305 -0.9775 -2.9159  1.9935
 1011MOL0     H39452   8.811   5.039  11.429 -1.4362  0.2116  0.6426
 1011MOL0     H39453   8.920   5.197  11.202 -2.9006 -0.0635  0.2015
 1011MOL0     H39454   9.026   5.129  11.335  0.3082  3.0072 -1.9706
 1011MOL0     H39455   8.923   4.910  11.279 -0.0988 -0.1120  0.3706
 1011MOL0     H39456   8.871   4.972  11.129 -3.3632 -0.1949  3.3243
 1011MOL0     H39457   9.105   5.054  11.089 -0.9561  1.0588 -0.4561
 1011MOL0     H39458   9.156   4.964  11.236 -0.5950 -0.1107 -0.2518
 1011MOL0     H39459   9.079   4.747  11.129  0.9463 -1.2931 -0.4423
 1011MOL0     H39460   9.201   4.839  11.045 -0.6160 -0.7765 -1.9998
 1011MOL0     H39461   8.991   4.932  10.908  0.2316  0.1450 -0.6257
 1011MOL0     H39462   9.079   4.773  10.868  0.4403 -1.3591  2.0968
 1011MOL0     H39463   8.823   4.784  11.030 -1.7875 -2.9288  0.7034
 1011MOL0     H39464   8.916   4.639  10.977 -1.5838 -0.4237 -3.0120
 1011MOL0     H39465   8.707   4.691  10.841  1.0534 -1.5878 -2.0129
 1011MOL0     H39466   8.774   4.859  10.827 -1.0006  0.1081  0.4156
 1011MOL0     H39467   8.886   4.489  10.703 -1.2811 -0.9359 -2.3392
 1011MOL0     H39468   9.043   4.412  10.512  2.1979 -0.9762 -1.0912
 1011MOL0     H39469   9.185   4.520  10.535  1.4095  1.4882 -3.1152
 1011MOL0     H39470   8.997   4.560  10.293  1.4503 -0.3227 -1.3092
 1011MOL0     H39471   9.147   4.631  10.329  3.0485 -1.1202  1.5567
 1011MOL0     H39472   9.165   4.451  10.161  2.5738 -0.5897  0.2311
 1011MOL0     H39473   9.285   4.453  10.289 -0.0601  1.7718  1.2791
 1011MOL0     H39474   9.204   4.261  10.390  0.2216  1.5947  0.4707
 1011MOL0     H39475   9.050   4.256  10.301 -0.4062 -0.0254  2.2851
 1011MOL0     H39476   9.221   4.049  10.364  2.3114  5.6970  0.9442
 1011MOL0     H39477   9.354   3.911  10.499 -0.0791 -0.0627 -1.4088
 1011MOL0     H39478   9.490   3.830  10.437 -0.1460 -0.3970 -0.5284
 1011MOL0     H39479   9.323   3.759  10.422 -1.6871  1.0181 -0.9831
 1011MOL0     H39480   9.377   3.449  10.173 -0.8702 -0.8419  1.6801
 1011MOL0     H39481   9.489   3.232  10.127 -1.1265  0.6623  0.6853
 1011MOL0     H39482   9.914   3.165  10.176 -2.6972  1.3417 -1.5828
 1011MOL0     H39483   9.838   3.155  10.342 -0.2463 -1.4112 -0.1643
 1011MOL0     H39484   9.978   2.945  10.260 -0.1096 -1.4187 -1.4966
 1011MOL0     H39485   9.805   2.909  10.292  0.6922 -0.0566 -0.8439
 1011MOL0     H39486   9.931   2.976  10.030  2.7318  0.1470  0.7677
 1011MOL0     H39487   9.768   2.917  10.057  0.0735 -0.9273 -0.1326
 1011MOL0     H39488   9.887   2.706  10.176  0.5288  1.0996  0.1654
 1011MOL0     H39489  10.027   2.780  10.093  0.6148  0.0510  2.0349
 1011MOL0     H39490   9.786   2.700   9.940 -0.6591 -2.8065 -2.6507
 1011MOL0     H39491   9.940   2.756   9.878 -2.9910  1.3571  0.3649
 1011MOL0     H39492   9.880   2.498   9.901 -1.4336  1.8956  0.3012
 1011MOL0     H39493   9.949   2.522  10.061  0.9629 -0.8625 -0.6314
 1011MOL0     H39494  10.152   2.622   9.981 -2.5261  1.8118 -1.7593
 1011MOL0     H39495  10.127   2.558   9.820  0.8522  2.5264  0.0371
 1011MOL0     H39496  10.119   2.333   9.889 -1.9513 -0.1399  1.0776
 1011MOL0     H39497  10.146   2.362  10.059 -0.3230 -0.2824 -0.6712
 1011MOL0     H39498   9.860   3.358  10.284  0.2713 -0.8984  0.8217
 1011MOL0     H39499   9.772   3.587  10.295 -1.2756  2.2153 -2.3114
 1011MOL0     H39500   9.503   3.950   9.975 -1.2878 -0.7981 -0.8774
 1011MOL0     H39501   9.373   4.170   9.984  3.5462 -1.4280 -2.4347
 1011MOL0     H39502   8.773   5.525  11.477  0.4480 -0.2774 -1.3392
 1011MOL0     H39503   8.553   5.624  11.537 -2.3372 -0.0828 -1.5151
 1011MOL0     H39504   8.255   5.769  11.529  0.1158 -1.4681  1.5973
 1011MOL0     H39505   8.080   5.921  11.548  1.9506  0.6911 -2.4594
 1011MOL0     H39506   7.863   6.061  11.565  2.0291  2.5019 -1.5599
 1011MOL0     H39507   7.949   6.035  11.423  2.6964 -3.0769  2.4201
 1011MOL0     H39508   7.723   6.180  11.430 -0.8081 -0.2648 -0.2697
 1011MOL0     H39509   7.633   6.035  11.447  0.5959  0.0068  0.5020
 1011MOL0     H39510   7.729   5.971  11.216 -0.2713  0.7570 -0.4657
 1011MOL0     H39511   7.622   6.116  11.219  1.6493  1.1010 -1.9376
 1011MOL0     H39512   7.824   6.108  11.080  0.3311 -0.9883  0.8556
 1011MOL0     H39513   7.927   6.120  11.227  0.7484  0.9697 -0.8177
 1011MOL0     H39514   7.777   6.515  11.233  1.0281  0.3184  1.5932
 1011MOL0     H39515   7.805   5.622  11.398 -0.1148 -0.1899  0.8880
 1011MOL0     H39516   8.035   5.338  11.433  0.4720 -0.5444  0.9526
 1011MOL0     H39517   7.875   5.394  11.406 -0.8849  0.2219 -2.6568
 1011MOL0     H39518   7.983   5.411  11.275  1.5737  0.4132  0.1847
 1012MOL0     O39519   0.894   3.587   2.523 -0.2302  1.1053  0.9078
 1012MOL0     C39520   0.789   3.632   2.483  0.7632 -0.1355  0.1270
 1012MOL0     O39521   0.669   3.573   2.491  0.9854 -0.4000  0.4764
 1012MOL0     C39522   0.635   3.467   2.569  0.8126 -0.0252  0.5255
 1012MOL0     C39523   0.710   3.413   2.672  0.0779 -0.2710  0.4561
 1012MOL0     C39524   0.670   3.303   2.745 -0.4624  0.1826 -0.3348
 1012MOL0     C39525   0.549   3.245   2.722  0.4296  0.6988  0.3459
 1012MOL0     O39526   0.523   3.141   2.806 -0.9205 -0.9866 -0.4161
 1012MOL0     C39527   0.477   3.026   2.739  0.0331 -0.0758 -0.3519
 1012MOL0     C39528   0.469   2.924   2.852 -0.1071 -0.0776  0.0182
 1012MOL0     C39529   0.393   2.797   2.795  0.9974 -0.5727 -0.5162
 1012MOL0     C39530   0.476   2.709   2.709 -0.0973  0.3057  0.0752
 1012MOL0     C39531   0.543   2.605   2.799 -0.5158  0.5669  0.2616
 1012MOL0     C39532   0.492   2.458   2.785 -0.2584 -1.0467  0.0654
 1012MOL0     C39533   0.343   2.467   2.821  0.0527  0.6123 -0.6429
 1012MOL0     C39534   0.277   2.335   2.815  0.3242  0.1069 -0.8989
 1012MOL0     N39535   0.237   2.291   2.680  0.2062 -0.7397  0.7112
 1012MOL0     C39536   0.294   2.307   2.553  0.2077 -0.2696 -0.7539
 1012MOL0     C39537   0.206   2.245   2.467  0.1719  0.8628 -0.1979
 1012MOL0     C39538   0.233   2.239   2.322  0.6973 -1.3305 -0.3430
 1012MOL0     C39539   0.342   2.131   2.287  0.3544 -1.1072 -0.0691
 1012MOL0     C39540   0.381   2.140   2.133  0.4201 -0.0886  0.5170
 1012MOL0     C39541   0.505   2.050   2.111  0.6628 -0.1651 -0.3154
 1012MOL0     O39542   0.502   1.923   2.176  0.4932 -1.2827  0.3393
 1012MOL0     C39543   0.613   1.840   2.148 -0.4614  0.6594  0.1593
 1012MOL0     C39544   0.682   1.853   2.025 -0.2604 -0.2202 -0.1283
 1012MOL0     C39545   0.805   1.786   2.006  0.5325  0.3594  0.3432
 1012MOL0     C39546   0.851   1.773   1.868 -0.3442 -0.2192 -0.1443
 1012MOL0     C39547   0.861   1.702   2.110 -0.0297  0.0171 -0.3286
 1012MOL0     C39548   1.002   1.654   2.112  0.0792  0.2132  0.2589
 1012MOL0     O39549   1.055   1.596   2.222  0.2565 -0.4040 -0.6569
 1012MOL0     C39550   1.175   1.543   2.226 -0.5680 -0.0131  0.3382
 1012MOL0     C39551   1.301   1.597   2.164  0.5477  0.3491 -0.4775
 1012MOL0     C39552   1.426   1.530   2.186  0.6069 -1.3488  0.0974
 1012MOL0     C39553   1.434   1.432   2.287  0.0860  0.0072 -0.6501
 1012MOL0     O39554   1.561   1.394   2.310 -0.0420  0.0032 -0.3096
 1012MOL0     C39555   1.580   1.263   2.367 -0.2070 -0.8584  0.2842
 1012MOL0     C39556   1.587   1.253   2.517 -0.7104 -0.3833  0.4602
 1012MOL0     C39557   1.628   1.108   2.550 -0.4030 -0.4098 -0.7399
 1012MOL0     C39558   1.567   1.082   2.696  0.3602  0.7550  0.7292
 1012MOL0     C39559   1.600   0.933   2.726  0.2006 -0.0078  0.0395
 1012MOL0     C39560   1.502   0.877   2.830  0.0197 -0.2019 -0.5563
 1012MOL0     C39561   1.512   0.946   2.971  0.1548  0.1508  0.5166
 1012MOL0     C39562   1.454   0.870   3.086  0.4830 -0.5382  0.2556
 1012MOL0    Cl39563   1.278   0.844   3.062 -0.4541 -0.0532 -0.7074
 1012MOL0     C39564   1.313   1.384   2.347 -0.4730 -0.7208 -1.0460
 1012MOL0     C39565   1.191   1.446   2.324 -1.0982 -1.6076  0.0116
 1012MOL0     O39566   1.061   1.686   2.010  0.7647 -0.1240  0.7751
 1012MOL0     C39567   0.780   1.690   2.226 -0.7153 -0.5181 -0.4055
 1012MOL0     C39568   0.660   1.749   2.243  0.5020 -0.3026 -0.2327
 1012MOL0     N39569   0.094   2.204   2.542  0.5282 -0.0044  0.8860
 1012MOL0     N39570   0.109   2.239   2.659 -0.0642 -0.3582  0.2488
 1012MOL0     C39571   0.465   3.296   2.633 -0.1746  0.0165  0.0938
 1012MOL0     C39572   0.507   3.406   2.554 -0.0394  0.0850  1.0417
 1012MOL0     C39573   0.804   3.748   2.387 -0.0751  0.1698  0.4540
 1012MOL0     C39574   0.717   3.752   2.277  0.3974  0.2149  1.0681
 1012MOL0     C39575   0.733   3.845   2.177  0.4158 -0.0395 -1.1026
 1012MOL0     C39576   0.833   3.940   2.181  0.0277  0.1957 -1.1475
 1012MOL0     O39577   0.848   4.022   2.070 -0.0036 -0.2211 -0.1826
 1012MOL0     C39578   0.961   4.112   2.057 -0.2284 -0.7229 -0.1331
 1012MOL0     C39579   0.998   4.144   1.916  0.2837 -0.0781  0.9505
 1012MOL0     C39580   0.995   4.032   1.813  0.8164 -0.2444  0.3205
 1012MOL0     C39581   1.090   3.915   1.842  0.0635 -0.4093 -0.7176
 1012MOL0     C39582   1.234   3.954   1.860  0.3087  0.3340 -0.6662
 1012MOL0     C39583   1.350   3.951   1.894 -0.6997  0.2006  0.2656
 1012MOL0     C39584   0.915   3.943   2.292  0.8038  0.1388 -0.1918
 1012MOL0     C39585   0.904   3.842   2.399 -0.6708 -0.5005 -0.5194
 1012MOL0     C39586   0.994   3.852   2.518 -0.6621 -0.2879  0.0777
 1012MOL0     H39587   0.807   3.459   2.687  0.5891 -0.9954 -0.5388
 1012MOL0     H39588   0.745   3.255   2.808 -1.0500  0.2496  0.4264
 1012MOL0     H39589   0.546   2.994   2.662 -0.3295 -0.8661 -0.3565
 1012MOL0     H39590   0.378   3.029   2.693 -0.1020  2.5429 -0.0510
 1012MOL0     H39591   0.568   2.910   2.896 -0.0517  0.9483  0.2666
 1012MOL0     H39592   0.404   2.963   2.931 -0.7931 -0.9689 -0.0939
 1012MOL0     H39593   0.365   2.743   2.886  0.6471 -1.7476 -1.3024
 1012MOL0     H39594   0.297   2.827   2.752 -0.1980  1.0309  2.9300
 1012MOL0     H39595   0.406   2.663   2.639  0.6815  2.1736 -2.0374
 1012MOL0     H39596   0.552   2.769   2.658 -0.4778  1.1047  0.4251
 1012MOL0     H39597   0.545   2.629   2.906  1.4972  0.2471  0.3262
 1012MOL0     H39598   0.647   2.609   2.765 -0.0385 -2.0337  1.1856
 1012MOL0     H39599   0.512   2.419   2.685  1.1005 -2.6903  0.9364
 1012MOL0     H39600   0.540   2.389   2.855  1.1542  0.0389  0.1972
 1012MOL0     H39601   0.292   2.540   2.758 -0.6293 -0.9785 -1.9965
 1012MOL0     H39602   0.340   2.491   2.928  3.8406 -0.4177 -0.1333
 1012MOL0     H39603   0.329   2.253   2.865  0.4072 -0.8494 -2.4720
 1012MOL0     H39604   0.188   2.345   2.877 -0.6551  2.1771 -2.5076
 1012MOL0     H39605   0.382   2.369   2.538 -1.9286  2.9076 -1.1031
 1012MOL0     H39606   0.246   2.342   2.287  2.1299 -0.6954  1.8591
 1012MOL0     H39607   0.149   2.215   2.255  3.0824  3.1116 -5.8369
 1012MOL0     H39608   0.433   2.159   2.341  0.3208 -2.3673  0.6845
 1012MOL0     H39609   0.293   2.035   2.310 -0.7696  0.3098  4.5869
 1012MOL0     H39610   0.300   2.105   2.068  1.2032 -0.7291 -0.1453
 1012MOL0     H39611   0.403   2.238   2.091  2.1296 -1.1447 -1.2070
 1012MOL0     H39612   0.490   2.034   2.003 -0.1567 -1.5226 -0.0308
 1012MOL0     H39613   0.591   2.106   2.147  0.0285 -0.7433  2.3297
 1012MOL0     H39614   0.656   1.918   1.942 -0.5460 -1.0649 -0.7123
 1012MOL0     H39615   0.886   1.675   1.836  2.3193  1.6705 -3.7219
 1012MOL0     H39616   0.937   1.833   1.840  2.2047 -3.1973  0.7475
 1012MOL0     H39617   0.770   1.795   1.797 -1.6320  3.3142  2.1519
 1012MOL0     H39618   1.297   1.653   2.072  1.0784 -2.6570 -2.4912
 1012MOL0     H39619   1.514   1.569   2.136  1.2354 -0.5696  1.7216
 1012MOL0     H39620   1.501   1.196   2.330  1.4953 -2.7782 -0.0356
 1012MOL0     H39621   1.676   1.220   2.339  0.0880 -1.1967  1.7246
 1012MOL0     H39622   1.651   1.327   2.565  0.4128  0.4570 -2.1744
 1012MOL0     H39623   1.488   1.277   2.557 -0.5261 -0.1701  0.7902
 1012MOL0     H39624   1.737   1.101   2.555 -0.4153 -0.1896 -0.1522
 1012MOL0     H39625   1.597   1.039   2.471  0.6659  2.4616 -3.8912
 1012MOL0     H39626   1.460   1.082   2.714  0.5099 -1.4963  1.9238
 1012MOL0     H39627   1.607   1.147   2.775  0.0689  3.5323 -1.2383
 1012MOL0     H39628   1.586   0.877   2.633 -2.1326  1.3920 -0.5274
 1012MOL0     H39629   1.707   0.918   2.744  0.5131 -1.6221 -2.6942
 1012MOL0     H39630   1.535   0.772   2.835  1.1180  0.0860 -1.4214
 1012MOL0     H39631   1.399   0.891   2.797 -0.5284  1.0442  1.4743
 1012MOL0     H39632   1.463   1.044   2.977  1.9202  0.9922  3.0012
 1012MOL0     H39633   1.619   0.942   2.995  0.2185  2.0923  0.7226
 1012MOL0     H39634   1.489   0.920   3.177  1.5655 -1.5460  0.4203
 1012MOL0     H39635   1.507   0.775   3.092 -0.9135 -1.4015 -0.5801
 1012MOL0     H39636   1.306   1.299   2.414  1.2949 -0.2197 -0.1598
 1012MOL0     H39637   1.112   1.421   2.394 -1.7948  0.2088 -0.0665
 1012MOL0     H39638   0.825   1.627   2.302  0.7236  2.7800  1.7268
 1012MOL0     H39639   0.605   1.728   2.334  0.3713  2.3917  0.3708
 1012MOL0     H39640   0.363   3.260   2.619 -1.1879  2.1615  1.4270
 1012MOL0     H39641   0.451   3.455   2.476  2.0488 -1.7822 -1.8402
 1012MOL0     H39642   0.642   3.678   2.248  0.7606  0.7059 -1.3267
 1012MOL0     H39643   0.666   3.842   2.092 -2.6693 -0.0669  1.1837
 1012MOL0     H39644   0.928   4.203   2.108  2.3991  0.4691 -0.4066
 1012MOL0     H39645   1.046   4.064   2.105 -0.4783 -0.1563  0.9054
 1012MOL0     H39646   1.098   4.188   1.915  0.0593  0.4519 -0.4003
 1012MOL0     H39647   0.930   4.218   1.871  0.3303 -1.4173 -1.5072
 1012MOL0     H39648   0.895   3.992   1.793  0.2067  2.2108 -2.1382
 1012MOL0     H39649   1.012   4.074   1.714  2.0480 -1.6096 -0.0884
 1012MOL0     H39650   1.081   3.833   1.770 -3.6099 -2.5808  1.8532
 1012MOL0     H39651   1.057   3.869   1.936  0.7138  0.6694  0.0560
 1012MOL0     H39652   1.438   3.945   1.953 -1.1038  2.1316  1.1550
 1012MOL0     H39653   1.000   4.010   2.300  1.3725 -0.7693  2.3793
 1012MOL0     H39654   0.936   3.845   2.611  1.6927  0.4992  1.7108
 1012MOL0     H39655   1.072   3.774   2.515  2.0585  2.2812 -1.0741
 1012MOL0     H39656   1.048   3.947   2.515 -2.9304  1.0365 -0.2870
 1013MOL0     O39657   4.962   0.401   1.695 -0.4976 -0.2568  0.0224
 1013MOL0     C39658   4.885   0.475   1.639 -0.0946  0.3056 -0.5173
 1013MOL0     O39659   4.813   0.438   1.530 -0.1361 -0.1384 -0.1353
 1013MOL0     C39660   4.829   0.312   1.475 -0.2880  0.1628  0.3051
 1013MOL0     C39661   4.764   0.204   1.534 -0.9048  0.3627 -0.3654
 1013MOL0     C39662   4.767   0.084   1.470 -0.5180  0.1691 -0.7967
 1013MOL0     C39663   4.847   0.062   1.358  0.7459 -0.1628 -0.8459
 1013MOL0     O39664   4.874  -0.061   1.316  0.1073 -1.1608  0.3930
 1013MOL0     C39665   4.758  -0.134   1.268 -0.0592 -0.8703 -0.7895
 1013MOL0     C39666   4.794  -0.274   1.230  0.1793 -1.3741  0.1940
 1013MOL0     C39667   4.881  -0.353   1.342  0.8507 -0.2172 -0.8620
 1013MOL0     C39668   4.802  -0.342   1.478  0.9780 -0.1704 -0.4366
 1013MOL0     C39669   4.666  -0.406   1.478  1.3693 -0.7391 -0.4966
 1013MOL0     C39670   4.602  -0.439   1.616  0.6308  0.2228 -0.1727
 1013MOL0     C39671   4.579  -0.313   1.702  0.2849  0.6332  0.6594
 1013MOL0     C39672   4.468  -0.308   1.802 -0.0939  0.2436  0.4843
 1013MOL0     N39673   4.464  -0.424   1.891  0.0658  0.1956  0.1254
 1013MOL0     C39674   4.354  -0.500   1.897  0.2119 -0.5160 -0.0101
 1013MOL0     C39675   4.376  -0.589   2.000 -0.1260  0.1339 -0.1716
 1013MOL0     C39676   4.279  -0.690   2.064 -0.0639  0.0179 -0.5734
 1013MOL0     C39677   4.347  -0.803   2.122 -0.8242 -0.4457  0.5511
 1013MOL0     C39678   4.410  -0.778   2.255  0.0567 -0.4596 -0.5593
 1013MOL0     C39679   4.444  -0.911   2.318  0.1027 -0.0835 -0.1890
 1013MOL0     O39680   4.556  -0.908   2.395 -0.7744  0.3295 -0.3171
 1013MOL0     C39681   4.544  -0.871   2.523 -0.2938  0.4488  0.7246
 1013MOL0     C39682   4.658  -0.909   2.598  0.2521  0.5898 -0.2528
 1013MOL0     C39683   4.662  -0.893   2.737  0.5440  0.3021  0.8226
 1013MOL0     C39684   4.774  -0.954   2.808  0.0368 -0.2196  0.1310
 1013MOL0     C39685   4.550  -0.826   2.800 -0.4214 -0.3085 -0.3552
 1013MOL0     C39686   4.547  -0.780   2.940 -0.8233  1.1406 -0.1208
 1013MOL0     O39687   4.653  -0.715   3.002  0.0760 -0.1427 -0.2996
 1013MOL0     C39688   4.642  -0.686   3.136 -0.0533  0.7964 -0.3965
 1013MOL0     C39689   4.549  -0.601   3.197  0.4459 -0.2310  1.0330
 1013MOL0     C39690   4.550  -0.577   3.327 -0.3085  0.3167 -1.4613
 1013MOL0     C39691   4.644  -0.641   3.413 -0.8247 -0.8147  0.0498
 1013MOL0     O39692   4.641  -0.623   3.553 -0.3833  0.0230 -0.9084
 1013MOL0     C39693   4.734  -0.689   3.639 -0.0108 -0.4824  0.9252
 1013MOL0     C39694   4.690  -0.656   3.775  0.4807  0.0436  1.0022
 1013MOL0     C39695   4.740  -0.754   3.881  0.6484 -0.4123 -0.1727
 1013MOL0     C39696   4.698  -0.687   4.018  0.3515  0.5120 -0.2045
 1013MOL0     C39697   4.757  -0.766   4.143  0.2325  0.8493  0.6372
 1013MOL0     C39698   4.725  -0.686   4.269  0.0583  0.5659  0.0243
 1013MOL0     C39699   4.742  -0.762   4.400 -0.1040 -0.4407  0.2322
 1013MOL0     C39700   4.730  -0.676   4.524 -0.2304  0.8684 -0.2043
 1013MOL0    Cl39701   4.597  -0.551   4.513 -0.0460 -0.0298  0.0458
 1013MOL0     C39702   4.742  -0.724   3.348 -0.0714 -1.1019  0.3808
 1013MOL0     C39703   4.744  -0.746   3.211 -0.0237 -0.2478  0.4144
 1013MOL0     O39704   4.432  -0.800   2.981 -0.9928 -0.1167 -0.8186
 1013MOL0     C39705   4.442  -0.791   2.725  0.4028  0.7117  0.1309
 1013MOL0     C39706   4.433  -0.807   2.585  0.2338 -0.0533  0.9196
 1013MOL0     N39707   4.498  -0.557   2.063 -0.2657 -0.6934  0.0762
 1013MOL0     N39708   4.554  -0.458   1.994 -0.1130  1.1198  0.5378
 1013MOL0     C39709   4.925   0.164   1.306 -0.5330 -1.1631 -0.4332
 1013MOL0     C39710   4.903   0.293   1.364 -0.0803 -0.1157  0.4290
 1013MOL0     C39711   4.853   0.611   1.699  0.5200  0.5712  0.4196
 1013MOL0     C39712   4.795   0.706   1.602  0.1611 -0.1444 -0.0132
 1013MOL0     C39713   4.791   0.834   1.641 -0.6347 -0.5844 -0.1984
 1013MOL0     C39714   4.825   0.874   1.774  1.0058 -0.0029 -0.7766
 1013MOL0     O39715   4.818   1.011   1.804 -0.1009  0.3240 -0.5918
 1013MOL0     C39716   4.882   1.065   1.922  0.7706  0.4133  0.0602
 1013MOL0     C39717   4.794   1.055   2.044  1.3814  0.7394  1.0101
 1013MOL0     C39718   4.884   1.094   2.160  0.2223 -0.6827 -0.9158
 1013MOL0     C39719   4.805   1.180   2.275  0.5538  0.5541  0.0471
 1013MOL0     C39720   4.673   1.132   2.308  0.0135  1.0448  0.2000
 1013MOL0     C39721   4.578   1.077   2.357  0.0614 -0.7582 -0.5384
 1013MOL0     C39722   4.880   0.780   1.865  1.2133  0.2733  0.3435
 1013MOL0     C39723   4.890   0.645   1.826  0.4968  0.9088 -0.2631
 1013MOL0     C39724   4.933   0.543   1.929  0.2384 -0.1909 -1.0808
 1013MOL0     H39725   4.713   0.202   1.630  1.8221 -1.0235  1.1750
 1013MOL0     H39726   4.729  -0.003   1.523  4.6415 -3.1236 -1.7512
 1013MOL0     H39727   4.735  -0.072   1.181  2.6167 -1.2693 -1.8693
 1013MOL0     H39728   4.675  -0.123   1.338  2.7963 -0.0415  2.7945
 1013MOL0     H39729   4.698  -0.319   1.207 -1.8776  2.5889  0.0850
 1013MOL0     H39730   4.863  -0.283   1.145  0.7337 -1.1548  0.6092
 1013MOL0     H39731   4.903  -0.457   1.318  1.0660 -0.3453 -0.1230
 1013MOL0     H39732   4.977  -0.309   1.370 -0.4059 -0.1006  4.2875
 1013MOL0     H39733   4.857  -0.403   1.550  0.2024  0.4417  0.6969
 1013MOL0     H39734   4.802  -0.240   1.518 -1.0230  0.2543 -1.4135
 1013MOL0     H39735   4.679  -0.506   1.435  2.6417 -2.2769  3.0655
 1013MOL0     H39736   4.594  -0.345   1.422 -0.2468 -0.3471  1.8584
 1013MOL0     H39737   4.510  -0.496   1.595  1.5416 -1.1364 -0.6190
 1013MOL0     H39738   4.667  -0.520   1.650 -1.0812 -0.7704  0.9194
 1013MOL0     H39739   4.566  -0.222   1.643  2.2842  1.1669  0.9703
 1013MOL0     H39740   4.668  -0.303   1.765 -0.1555  0.5156  1.3179
 1013MOL0     H39741   4.475  -0.209   1.846 -1.8260  1.5602 -1.9582
 1013MOL0     H39742   4.378  -0.298   1.742 -0.2071 -1.2980  0.3409
 1013MOL0     H39743   4.272  -0.477   1.830  1.1148 -3.2967 -2.2594
 1013MOL0     H39744   4.201  -0.720   1.993  0.8766 -1.7198 -0.9394
 1013MOL0     H39745   4.218  -0.642   2.141 -2.6288 -0.6989 -2.0379
 1013MOL0     H39746   4.279  -0.888   2.135  2.3968 -3.3048  0.3394
 1013MOL0     H39747   4.431  -0.830   2.057 -1.2146  0.3942 -0.3353
 1013MOL0     H39748   4.495  -0.709   2.255  1.7171 -2.3497  1.3366
 1013MOL0     H39749   4.337  -0.725   2.316 -1.3444 -0.5106 -2.1381
 1013MOL0     H39750   4.363  -0.956   2.376  0.9186 -0.5607  0.6131
 1013MOL0     H39751   4.465  -0.983   2.239 -0.8111 -0.5475 -0.0190
 1013MOL0     H39752   4.733  -0.970   2.549  0.0126 -0.9048  1.1306
 1013MOL0     H39753   4.819  -0.869   2.860 -0.2047  0.0507 -0.1011
 1013MOL0     H39754   4.849  -0.990   2.737 -0.2023 -0.7616  0.1451
 1013MOL0     H39755   4.737  -1.028   2.881 -1.3956 -0.2118 -0.5530
 1013MOL0     H39756   4.464  -0.572   3.136  0.4350 -0.6399  0.8543
 1013MOL0     H39757   4.484  -0.508   3.379  1.2217 -1.9737  4.3066
 1013MOL0     H39758   4.741  -0.798   3.625  1.7933 -0.2014 -0.8751
 1013MOL0     H39759   4.838  -0.659   3.624 -0.0075  0.4888  2.6555
 1013MOL0     H39760   4.731  -0.558   3.802 -1.3237  0.7702  1.2217
 1013MOL0     H39761   4.581  -0.651   3.775  0.4973  1.7777 -1.2304
 1013MOL0     H39762   4.848  -0.748   3.867  0.7558  0.0988  0.7881
 1013MOL0     H39763   4.710  -0.859   3.871 -0.9243 -0.2852  2.4470
 1013MOL0     H39764   4.590  -0.670   4.024  0.5917  2.3999 -0.5498
 1013MOL0     H39765   4.747  -0.590   4.029 -0.2460  0.8970 -0.8692
 1013MOL0     H39766   4.712  -0.865   4.150 -0.7354  1.2312 -0.0339
 1013MOL0     H39767   4.866  -0.763   4.129 -0.0996  2.6859 -2.4262
 1013MOL0     H39768   4.620  -0.657   4.257 -0.8661 -2.5988 -0.2726
 1013MOL0     H39769   4.784  -0.594   4.275 -1.3056  1.4248  1.1714
 1013MOL0     H39770   4.844  -0.797   4.384 -0.8185 -1.1464 -4.0176
 1013MOL0     H39771   4.682  -0.854   4.402  1.7530 -1.7061  2.2055
 1013MOL0     H39772   4.817  -0.610   4.524  0.2466  0.2606 -1.1011
 1013MOL0     H39773   4.733  -0.739   4.613 -1.0394  1.0637 -0.0291
 1013MOL0     H39774   4.819  -0.770   3.410  2.3561  0.0777 -1.5612
 1013MOL0     H39775   4.827  -0.793   3.160  1.4134  2.7129 -0.2038
 1013MOL0     H39776   4.362  -0.728   2.763 -0.0851  0.5233 -0.5721
 1013MOL0     H39777   4.343  -0.775   2.532  0.1363 -0.8633  0.5772
 1013MOL0     H39778   4.987   0.161   1.217  0.6261 -0.4463  0.3391
 1013MOL0     H39779   4.943   0.384   1.320 -3.2925  0.8409 -0.8753
 1013MOL0     H39780   4.769   0.671   1.503  1.7335 -0.2650 -0.4225
 1013MOL0     H39781   4.754   0.902   1.565 -2.1526 -3.6229 -2.4156
 1013MOL0     H39782   4.979   1.016   1.935  1.3958  1.6112  0.0537
 1013MOL0     H39783   4.903   1.171   1.906  0.9654  0.3901  0.1549
 1013MOL0     H39784   4.765   0.951   2.058  0.1261  0.9868  0.3718
 1013MOL0     H39785   4.701   1.111   2.031 -0.0641 -1.1255  2.6851
 1013MOL0     H39786   4.937   1.007   2.202  0.0113 -0.9023 -1.0987
 1013MOL0     H39787   4.964   1.160   2.127  0.2057  0.9335  1.9236
 1013MOL0     H39788   4.805   1.287   2.256  0.1971  0.6560  0.5992
 1013MOL0     H39789   4.868   1.154   2.361  1.6560 -3.0281 -1.6133
 1013MOL0     H39790   4.495   1.029   2.404 -2.7096  2.3214 -1.8748
 1013MOL0     H39791   4.907   0.802   1.968  0.2274 -1.1628  0.9470
 1013MOL0     H39792   4.911   0.579   2.030  0.1441 -2.9559 -0.0316
 1013MOL0     H39793   4.886   0.446   1.911  1.2938 -1.2876  1.4555
 1013MOL0     H39794   5.041   0.525   1.922  0.8869  0.9548  3.2137
 1014MOL0     O39795  10.320   3.230   5.798  0.2910  0.3357 -0.5791
 1014MOL0     C39796  10.344   3.325   5.862  0.1454 -0.2851  0.0156
 1014MOL0     O39797  10.378   3.449   5.809 -1.0405  0.9233  0.4865
 1014MOL0     C39798  10.385   3.455   5.671 -0.2023 -0.1261 -1.5022
 1014MOL0     C39799  10.283   3.525   5.608  0.3990  0.1855 -1.1662
 1014MOL0     C39800  10.274   3.526   5.471  0.1093  0.4866  0.1868
 1014MOL0     C39801  10.368   3.464   5.390  0.1929 -0.7457 -0.1312
 1014MOL0     O39802  10.366   3.487   5.255 -0.0802  0.5919  0.2188
 1014MOL0     C39803  10.466   3.418   5.172 -0.0441  1.0520 -0.7839
 1014MOL0     C39804  10.594   3.495   5.169 -0.0404 -0.8476  0.1995
 1014MOL0     C39805  10.616   3.555   5.033  0.7527 -0.2910 -0.2592
 1014MOL0     C39806  10.537   3.684   5.020  0.1148  0.2024  0.1052
 1014MOL0     C39807  10.550   3.742   4.876  0.0440 -0.1204 -0.2842
 1014MOL0     C39808  10.495   3.884   4.885 -0.4983 -0.0118  0.7355
 1014MOL0     C39809  10.338   3.884   4.860 -0.3475  0.6955  0.0109
 1014MOL0     C39810  10.305   3.932   4.724 -0.8963  0.4070 -0.3907
 1014MOL0     N39811  10.163   3.913   4.682 -0.0769  0.2689 -0.3455
 1014MOL0     C39812  10.064   3.951   4.772  0.7685  0.2923  0.0649
 1014MOL0     C39813   9.957   3.862   4.749 -0.3324 -0.4142  1.0113
 1014MOL0     C39814   9.823   3.860   4.819 -0.6374 -0.0713 -0.6268
 1014MOL0     C39815   9.753   3.996   4.797  0.1112 -0.4192 -0.2772
 1014MOL0     C39816   9.689   3.994   4.657  0.4566  0.2483 -0.0703
 1014MOL0     C39817   9.628   4.135   4.624 -0.3071 -0.2210  0.0945
 1014MOL0     O39818   9.505   4.144   4.709 -0.4476 -0.3474 -0.2123
 1014MOL0     C39819   9.473   4.265   4.755  0.2703  0.4907 -0.7253
 1014MOL0     C39820   9.406   4.276   4.881  1.6195  1.3888  0.6909
 1014MOL0     C39821   9.362   4.395   4.931 -0.8707 -0.2772  0.9206
 1014MOL0     C39822   9.308   4.400   5.074 -1.0646 -0.7178 -0.0846
 1014MOL0     C39823   9.383   4.520   4.853  0.6681 -0.9537  0.0771
 1014MOL0     C39824   9.340   4.656   4.897 -0.5321 -0.4198 -1.1050
 1014MOL0     O39825   9.323   4.688   5.030 -0.1564  0.5081  0.3805
 1014MOL0     C39826   9.287   4.806   5.079  0.8608  0.3046  1.2933
 1014MOL0     C39827   9.166   4.861   5.046 -0.2632 -0.1618  0.2947
 1014MOL0     C39828   9.122   4.979   5.106  0.5144 -0.2937  0.5542
 1014MOL0     C39829   9.203   5.045   5.192  0.4239 -0.5527 -0.6968
 1014MOL0     O39830   9.160   5.168   5.240  0.6533  0.3092 -0.0423
 1014MOL0     C39831   9.190   5.198   5.384 -0.4510 -1.2347  0.2765
 1014MOL0     C39832   9.177   5.352   5.408  1.6568 -0.0712  0.1356
 1014MOL0     C39833   9.203   5.387   5.546 -0.4126  0.7779 -0.9175
 1014MOL0     C39834   9.192   5.535   5.578 -0.5241 -0.1822  0.1891
 1014MOL0     C39835   9.234   5.589   5.714 -0.4677  0.2276 -1.1073
 1014MOL0     C39836   9.220   5.741   5.716  0.5264 -0.1174 -0.2922
 1014MOL0     C39837   9.073   5.785   5.743 -0.7427 -0.0937 -0.0314
 1014MOL0     C39838   9.072   5.933   5.755 -0.1301  0.1535 -0.1519
 1014MOL0    Cl39839   8.892   5.975   5.770 -0.0978  0.1737  0.0860
 1014MOL0     C39840   9.330   4.993   5.225  0.3845 -0.0099  0.2227
 1014MOL0     C39841   9.362   4.871   5.181 -0.8745  0.3940 -0.4613
 1014MOL0     O39842   9.349   4.738   4.807  0.4598  0.0905  0.1586
 1014MOL0     C39843   9.451   4.510   4.729  0.0226  0.1221  0.4677
 1014MOL0     C39844   9.497   4.380   4.684 -0.1160 -0.0812  0.1962
 1014MOL0     N39845   9.998   3.783   4.636  0.5335  0.4720  0.0911
 1014MOL0     N39846  10.122   3.803   4.611  0.1580 -0.4971 -0.4475
 1014MOL0     C39847  10.465   3.391   5.459 -0.2640  0.1988 -0.4625
 1014MOL0     C39848  10.482   3.394   5.599  0.6696 -0.7802  0.5823
 1014MOL0     C39849  10.331   3.317   6.011 -0.3553 -0.7424  0.4179
 1014MOL0     C39850  10.374   3.200   6.074  0.0932  0.5839  0.3256
 1014MOL0     C39851  10.377   3.182   6.209 -0.0588 -0.1468  0.9281
 1014MOL0     C39852  10.321   3.287   6.289 -0.0439  0.3996  0.3525
 1014MOL0     O39853  10.324   3.244   6.420 -0.2002  0.0480  0.4288
 1014MOL0     C39854  10.282   3.337   6.522 -1.3268  0.6315 -0.0897
 1014MOL0     C39855  10.292   3.266   6.657  0.1317 -0.2257 -1.2108
 1014MOL0     C39856  10.219   3.336   6.777 -0.2662  0.1655  0.4268
 1014MOL0     C39857  10.281   3.484   6.811  0.3385  0.0927  1.1496
 1014MOL0     C39858  10.412   3.475   6.877  0.4911 -0.2909 -0.0711
 1014MOL0     C39859  10.511   3.452   6.943  0.7167  0.3859 -0.2274
 1014MOL0     C39860  10.269   3.402   6.229  0.7175  0.1061  0.7166
 1014MOL0     C39861  10.265   3.423   6.088 -0.4691  0.4937  0.4960
 1014MOL0     C39862  10.210   3.554   6.034 -0.8608 -0.4117  0.2554
 1014MOL0     H39863  10.218   3.565   5.686 -1.8184 -3.0298 -1.1642
 1014MOL0     H39864  10.202   3.584   5.415 -1.8499  0.0957  2.1396
 1014MOL0     H39865  10.422   3.418   5.071 -0.0833  3.6441 -0.8262
 1014MOL0     H39866  10.493   3.314   5.190 -1.4673  0.9893  1.3241
 1014MOL0     H39867  10.596   3.574   5.244  0.1108 -0.6722  0.0086
 1014MOL0     H39868  10.679   3.430   5.191 -1.3486 -1.6737  3.4584
 1014MOL0     H39869  10.722   3.580   5.024  0.0002  2.5733 -4.2472
 1014MOL0     H39870  10.592   3.486   4.952 -0.5155 -0.2594  0.0699
 1014MOL0     H39871  10.431   3.674   5.045 -0.2573  0.0557 -1.4305
 1014MOL0     H39872  10.577   3.752   5.096  2.3176 -2.1675  1.2337
 1014MOL0     H39873  10.508   3.681   4.795 -0.7735  0.6585 -0.4598
 1014MOL0     H39874  10.656   3.745   4.850  0.5280  1.6617  1.6486
 1014MOL0     H39875  10.509   3.930   4.983 -2.5726  5.6689 -1.2561
 1014MOL0     H39876  10.541   3.964   4.826 -2.1284  0.9645  0.7177
 1014MOL0     H39877  10.300   3.961   4.928 -2.0470 -0.9228  1.0133
 1014MOL0     H39878  10.292   3.785   4.873  1.1562 -0.7085 -3.8338
 1014MOL0     H39879  10.333   4.037   4.715  0.6334  0.1581  0.9986
 1014MOL0     H39880  10.379   3.884   4.659  0.0338  3.1482 -1.4848
 1014MOL0     H39881  10.070   4.037   4.838  3.1234  0.6720 -0.5360
 1014MOL0     H39882   9.849   3.847   4.924  0.6848 -1.0458 -1.0558
 1014MOL0     H39883   9.777   3.766   4.788 -2.0815  0.2082  0.5208
 1014MOL0     H39884   9.678   4.024   4.871 -1.3967 -1.3736 -1.3650
 1014MOL0     H39885   9.819   4.082   4.807 -2.4425  1.7170 -0.6369
 1014MOL0     H39886   9.759   3.959   4.581 -2.1075 -1.6603 -1.6904
 1014MOL0     H39887   9.608   3.923   4.641 -0.0285  1.0446 -1.3051
 1014MOL0     H39888   9.697   4.217   4.646  1.5323 -0.9506 -2.4215
 1014MOL0     H39889   9.613   4.145   4.516 -0.0507  2.7022  0.2699
 1014MOL0     H39890   9.406   4.185   4.941  0.7634  0.8298 -0.1317
 1014MOL0     H39891   9.383   4.454   5.132 -1.7306  0.6686 -0.4742
 1014MOL0     H39892   9.285   4.304   5.122 -2.3577 -1.7653 -2.5820
 1014MOL0     H39893   9.225   4.471   5.074  1.1351  2.0280  0.3904
 1014MOL0     H39894   9.109   4.819   4.964 -0.7681 -0.1869  0.6560
 1014MOL0     H39895   9.027   5.022   5.075  0.9918 -0.1321 -0.7390
 1014MOL0     H39896   9.130   5.149   5.461 -4.2916  0.9507 -1.0782
 1014MOL0     H39897   9.288   5.158   5.413 -0.4048 -1.5912 -0.3505
 1014MOL0     H39898   9.258   5.405   5.357  0.5462 -1.1494 -3.0184
 1014MOL0     H39899   9.074   5.382   5.386  0.9877 -2.9452 -1.1492
 1014MOL0     H39900   9.304   5.350   5.561 -0.1842  2.4148  2.5486
 1014MOL0     H39901   9.140   5.329   5.614 -1.4609  0.7109 -1.8980
 1014MOL0     H39902   9.091   5.565   5.550 -0.4676 -0.2659 -0.1141
 1014MOL0     H39903   9.261   5.580   5.506 -0.8839  1.7210  0.9734
 1014MOL0     H39904   9.166   5.538   5.783 -0.9879  1.1397 -0.9415
 1014MOL0     H39905   9.339   5.561   5.731 -1.6469 -3.0527  2.2738
 1014MOL0     H39906   9.253   5.769   5.616  1.4476 -3.4848 -1.0801
 1014MOL0     H39907   9.291   5.776   5.792  1.1801 -5.2116  1.8891
 1014MOL0     H39908   9.032   5.734   5.831  1.6782 -0.5936  0.8929
 1014MOL0     H39909   9.010   5.750   5.661 -0.6844 -0.3991  0.0506
 1014MOL0     H39910   9.105   5.992   5.670 -3.5144  2.9104  0.2285
 1014MOL0     H39911   9.118   5.962   5.850  0.5797  0.9926 -0.7456
 1014MOL0     H39912   9.392   5.051   5.293  3.5692 -5.1531  2.2927
 1014MOL0     H39913   9.449   4.810   5.205 -2.3480 -0.1170  4.6449
 1014MOL0     H39914   9.473   4.588   4.658  0.1940  1.8492  2.3373
 1014MOL0     H39915   9.554   4.383   4.592 -0.1837 -2.7177 -0.0174
 1014MOL0     H39916  10.555   3.349   5.415 -0.6016  0.5305 -1.5074
 1014MOL0     H39917  10.566   3.344   5.647 -0.5116  0.4777  4.3682
 1014MOL0     H39918  10.411   3.122   6.009  0.4308 -0.2781  1.5264
 1014MOL0     H39919  10.400   3.088   6.259  1.2505 -0.8569 -0.9028
 1014MOL0     H39920  10.352   3.420   6.510 -2.5417  1.8033  0.6087
 1014MOL0     H39921  10.180   3.370   6.500 -0.5877  2.2260 -1.3206
 1014MOL0     H39922  10.395   3.245   6.686 -0.0853 -1.0529 -1.0114
 1014MOL0     H39923  10.252   3.165   6.643  1.5301 -0.5231 -3.7078
 1014MOL0     H39924  10.118   3.353   6.739  0.7235  3.5045 -1.0512
 1014MOL0     H39925  10.223   3.271   6.866 -2.2589 -0.1593  0.3187
 1014MOL0     H39926  10.212   3.534   6.880  0.0776 -0.2058  1.1084
 1014MOL0     H39927  10.287   3.557   6.730  0.0681  2.6679  3.3006
 1014MOL0     H39928  10.602   3.439   6.998  0.7318  2.6645  0.3961
 1014MOL0     H39929  10.233   3.483   6.291 -0.8000  0.4975 -0.6200
 1014MOL0     H39930  10.110   3.543   5.990 -2.0604  0.8919  2.4722
 1014MOL0     H39931  10.191   3.607   6.127 -1.9864 -1.8970  0.9170
 1014MOL0     H39932  10.277   3.609   5.967  0.1449  0.5419  1.9833
 1015MOL0     O39933   0.012  10.947   2.607  0.1029 -0.4940  0.5058
 1015MOL0     C39934   0.071  11.033   2.541  0.5172 -1.0232 -0.3481
 1015MOL0     O39935   0.154  11.013   2.429 -0.0403  0.1564  0.3231
 1015MOL0     C39936   0.202  10.896   2.379  0.6928  1.1199 -0.8902
 1015MOL0     C39937   0.218  10.791   2.472 -1.3645  0.4754  0.1037
 1015MOL0     C39938   0.264  10.666   2.425  0.0914 -0.6384 -0.4461
 1015MOL0     C39939   0.290  10.647   2.287 -0.0752  0.2853 -0.0588
 1015MOL0     O39940   0.332  10.526   2.239 -0.1503 -0.6487 -0.3167
 1015MOL0     C39941   0.257  10.468   2.137  0.0618  0.6839  0.3793
 1015MOL0     C39942   0.244  10.312   2.160  0.5901 -0.0355  0.1583
 1015MOL0     C39943   0.378  10.235   2.145  0.9639  0.5396 -0.9280
 1015MOL0     C39944   0.352  10.089   2.184 -0.4381 -0.2124  0.5562
 1015MOL0     C39945   0.479   9.998   2.173  0.5908  0.5106 -0.7062
 1015MOL0     C39946   0.518   9.960   2.312 -0.0444  0.1060  0.0075
 1015MOL0     C39947   0.638   9.865   2.292  0.3058 -0.0566  0.0704
 1015MOL0     C39948   0.691   9.829   2.424  0.0715  0.5442  1.0608
 1015MOL0     N39949   0.788   9.719   2.429  0.2913 -0.0343 -0.3621
 1015MOL0     C39950   0.787   9.586   2.380 -0.3117 -0.0661  0.1920
 1015MOL0     C39951   0.914   9.539   2.391  0.2040  0.4836  0.5970
 1015MOL0     C39952   0.983   9.408   2.356  0.5759  0.8307 -0.1261
 1015MOL0     C39953   0.921   9.351   2.231 -0.1134  0.2208  0.1274
 1015MOL0     C39954   0.961   9.209   2.186 -0.4145  0.0022  0.0569
 1015MOL0     C39955   0.891   9.182   2.049 -0.4980  0.1706  0.1219
 1015MOL0     O39956   0.973   9.086   1.985 -0.4843 -0.1297  0.4619
 1015MOL0     C39957   1.050   9.121   1.874 -0.1489  1.2755 -0.3338
 1015MOL0     C39958   1.096   9.009   1.798  1.0167  0.4842 -0.0030
 1015MOL0     C39959   1.195   9.011   1.704 -1.5210  0.4818  0.7434
 1015MOL0     C39960   1.250   8.871   1.644  0.5872 -0.5379 -0.4432
 1015MOL0     C39961   1.248   9.145   1.676  0.3548 -0.5503  0.0202
 1015MOL0     C39962   1.350   9.161   1.576  0.4188  0.6796  0.1647
 1015MOL0     O39963   1.450   9.238   1.618  0.7893  0.3553  0.0795
 1015MOL0     C39964   1.549   9.264   1.533  0.0829 -0.5179 -0.3045
 1015MOL0     C39965   1.537   9.384   1.456 -0.0550  0.3486 -0.4698
 1015MOL0     C39966   1.634   9.408   1.356 -0.5440 -0.4111 -0.5407
 1015MOL0     C39967   1.752   9.332   1.341  1.3338 -0.4044 -0.8199
 1015MOL0     O39968   1.835   9.372   1.239 -0.0419  0.3864  0.1389
 1015MOL0     C39969   1.959   9.297   1.240 -1.1836 -0.4374  0.3635
 1015MOL0     C39970   2.063   9.322   1.351 -0.3428 -0.2317  0.1987
 1015MOL0     C39971   2.099   9.475   1.353  0.2487 -0.5766 -0.6830
 1015MOL0     C39972   2.184   9.503   1.486 -0.6838  0.1503 -0.7481
 1015MOL0     C39973   2.250   9.641   1.489 -0.5648 -0.1621  0.1658
 1015MOL0     C39974   2.310   9.663   1.626  0.2723 -1.0184  0.5145
 1015MOL0     C39975   2.394   9.792   1.640  0.6614  0.1125 -0.9076
 1015MOL0     C39976   2.484   9.807   1.771  0.5099 -0.5353 -0.0019
 1015MOL0    Cl39977   2.559   9.978   1.766 -0.3647  0.3725 -0.0482
 1015MOL0     C39978   1.760   9.222   1.430  0.7251  0.1548  0.7554
 1015MOL0     C39979   1.661   9.185   1.520 -0.5484  0.0955  0.8377
 1015MOL0     O39980   1.341   9.107   1.466  0.1737  0.5530 -0.3183
 1015MOL0     C39981   1.207   9.259   1.748 -0.0135 -0.1687  0.5007
 1015MOL0     C39982   1.109   9.243   1.853  0.9778 -0.3795 -0.1643
 1015MOL0     N39983   0.988   9.647   2.441 -0.5483  0.3377 -0.4154
 1015MOL0     N39984   0.915   9.742   2.478  1.0868 -0.3381 -0.0295
 1015MOL0     C39985   0.274  10.750   2.203  0.4230  0.3850  0.4261
 1015MOL0     C39986   0.223  10.873   2.243 -0.4081 -0.4335 -0.0302
 1015MOL0     C39987   0.040  11.171   2.577  0.0722  0.9096 -0.8568
 1015MOL0     C39988   0.068  11.273   2.477  0.9873 -0.1739  0.1275
 1015MOL0     C39989   0.037  11.401   2.508 -0.0967 -0.6426  0.6569
 1015MOL0     C39990  -0.020  11.436   2.624  0.2887 -1.5798  0.7936
 1015MOL0     O39991  -0.028  11.576   2.635  0.0140  0.6924 -0.8907
 1015MOL0     C39992  -0.087  11.629   2.753  0.4992 -0.9842 -0.4097
 1015MOL0     C39993  -0.058  11.780   2.734  1.0777  0.7458 -0.0413
 1015MOL0     C39994   0.078  11.802   2.807 -0.0189 -0.4114 -0.4338
 1015MOL0     C39995   0.133  11.939   2.784  0.5125  0.3687  0.1791
 1015MOL0     C39996   0.166  11.968   2.642 -0.6095 -0.5191 -0.9763
 1015MOL0     C39997   0.210  11.996   2.535  0.6737  0.5288  0.8041
 1015MOL0     C39998  -0.056  11.347   2.720 -0.4517 -0.9671 -1.1913
 1015MOL0     C39999  -0.019  11.215   2.706 -0.3321 -0.1936  0.4147
 1015MOL0     C40000  -0.063  11.118   2.813 -0.0440  0.0377  0.3248
 1015MOL0     H40001   0.237  10.815   2.576 -3.3953 -1.0574  0.8933
 1015MOL0     H40002   0.283  10.585   2.495  1.6356 -1.3930 -1.6892
 1015MOL0     H40003   0.317  10.491   2.049  0.5574 -1.3789  0.1369
 1015MOL0     H40004   0.155  10.506   2.123 -0.6436 -1.1481  0.2755
 1015MOL0     H40005   0.203  10.294   2.260  2.2544  0.3201  0.9390
 1015MOL0     H40006   0.169  10.269   2.092  1.4408  0.0183 -0.8349
 1015MOL0     H40007   0.410  10.246   2.041 -1.3519  1.1153 -1.6499
 1015MOL0     H40008   0.460  10.277   2.204  1.8657 -2.1553 -0.1392
 1015MOL0     H40009   0.307  10.090   2.283  0.2038 -1.0655  0.8625
 1015MOL0     H40010   0.266  10.057   2.124 -1.4875  2.0414  0.7483
 1015MOL0     H40011   0.566  10.050   2.131  1.5871  0.4712  1.1808
 1015MOL0     H40012   0.458   9.907   2.117  0.1071 -0.3569  0.8184
 1015MOL0     H40013   0.539  10.052   2.368 -1.6654 -0.8977  2.4543
 1015MOL0     H40014   0.450   9.900   2.374  1.7977 -2.7097 -0.5143
 1015MOL0     H40015   0.720   9.908   2.235 -0.8493  0.9728 -0.8682
 1015MOL0     H40016   0.599   9.777   2.239  1.5746 -2.0518  2.2296
 1015MOL0     H40017   0.757   9.914   2.444 -0.8732  1.1787  1.4878
 1015MOL0     H40018   0.617   9.822   2.503  0.4893 -1.0871  1.3504
 1015MOL0     H40019   0.699   9.538   2.338 -1.3009  1.5148  0.3909
 1015MOL0     H40020   0.960   9.339   2.438  1.8066  1.1336  0.5095
 1015MOL0     H40021   1.093   9.408   2.352  0.5910 -0.7467 -0.1652
 1015MOL0     H40022   0.814   9.341   2.254 -1.3409  1.3280 -4.2016
 1015MOL0     H40023   0.926   9.421   2.147 -1.9449 -0.3860 -0.5388
 1015MOL0     H40024   1.068   9.191   2.177 -0.7725 -2.2594 -0.3525
 1015MOL0     H40025   0.924   9.129   2.250 -0.7573  0.2364  0.1557
 1015MOL0     H40026   0.791   9.138   2.058 -0.7062 -0.1541 -2.7932
 1015MOL0     H40027   0.867   9.270   1.988  0.9622 -1.0834 -2.4639
 1015MOL0     H40028   1.055   8.919   1.843  0.9927  2.1084  3.5784
 1015MOL0     H40029   1.219   8.787   1.706 -1.1747  0.4401  0.0596
 1015MOL0     H40030   1.359   8.879   1.631  0.7054 -2.3320 -0.7845
 1015MOL0     H40031   1.208   8.851   1.546  1.8272 -0.0066 -1.1117
 1015MOL0     H40032   1.452   9.451   1.466  0.3096  0.7637 -0.1206
 1015MOL0     H40033   1.638   9.508   1.315  1.1701 -1.0968 -2.1939
 1015MOL0     H40034   1.938   9.190   1.232  2.3493 -1.2187 -0.3156
 1015MOL0     H40035   1.995   9.308   1.137  0.0148 -0.7164  0.7381
 1015MOL0     H40036   2.017   9.295   1.446  0.9465  3.5241  2.1064
 1015MOL0     H40037   2.151   9.262   1.326  0.5851  1.0548  0.2554
 1015MOL0     H40038   2.010   9.537   1.342  0.1624 -0.9891 -2.6322
 1015MOL0     H40039   2.167   9.495   1.269  0.7500  1.4883  0.1375
 1015MOL0     H40040   2.265   9.432   1.504 -0.8408 -0.2800 -1.7139
 1015MOL0     H40041   2.124   9.477   1.575 -3.0464  0.1472 -2.2382
 1015MOL0     H40042   2.329   9.626   1.416 -0.7844  0.4876 -0.2099
 1015MOL0     H40043   2.184   9.726   1.468 -0.7947  0.1080  1.8309
 1015MOL0     H40044   2.372   9.573   1.638  2.2499  0.6288  5.0826
 1015MOL0     H40045   2.241   9.671   1.710  1.4308  0.0633  1.4093
 1015MOL0     H40046   2.323   9.875   1.649 -0.2045 -0.7435  0.5987
 1015MOL0     H40047   2.455   9.796   1.549  1.3661 -0.4160 -0.4670
 1015MOL0     H40048   2.564   9.733   1.786  1.8903  0.9163  0.0569
 1015MOL0     H40049   2.416   9.803   1.856 -2.0427  1.5806 -1.7841
 1015MOL0     H40050   1.839   9.150   1.410  0.1926 -0.1887 -0.1696
 1015MOL0     H40051   1.677   9.106   1.593  0.8079 -1.2831 -0.8416
 1015MOL0     H40052   1.252   9.358   1.746 -0.3541 -0.0145 -0.5972
 1015MOL0     H40053   1.097   9.340   1.899  1.9329  0.6269 -1.9131
 1015MOL0     H40054   0.292  10.747   2.097  0.0883  0.3255  0.3674
 1015MOL0     H40055   0.221  10.946   2.163  0.7793  1.1544  1.3216
 1015MOL0     H40056   0.130  11.242   2.393 -0.3903 -0.5274 -0.7933
 1015MOL0     H40057   0.055  11.485   2.441 -0.2804 -2.2369 -1.4931
 1015MOL0     H40058  -0.195  11.622   2.741  0.7489 -1.0203 -3.4665
 1015MOL0     H40059  -0.033  11.593   2.841 -0.8173 -2.7453 -0.2641
 1015MOL0     H40060  -0.137  11.831   2.791  0.3110 -2.4537  2.0271
 1015MOL0     H40061  -0.068  11.825   2.635  0.7512  0.0209 -0.3440
 1015MOL0     H40062   0.065  11.787   2.915  1.4036  1.2782  0.0101
 1015MOL0     H40063   0.160  11.739   2.773 -1.4912 -1.5006 -2.1505
 1015MOL0     H40064   0.228  11.947   2.838  2.5180  2.5772 -3.3007
 1015MOL0     H40065   0.076  12.023   2.826  0.6079  0.5365 -0.0219
 1015MOL0     H40066   0.252  12.018   2.439  1.1578 -2.2611  0.2829
 1015MOL0     H40067  -0.093  11.381   2.816 -1.3213 -2.1740 -1.0846
 1015MOL0     H40068  -0.162  11.085   2.781  0.5942 -0.6391 -1.0531
 1015MOL0     H40069   0.003  11.034   2.835 -1.3515 -1.4995 -1.2833
 1015MOL0     H40070  -0.067  11.180   2.903 -4.8324  0.5295  0.0184
 1016MOL0     O40071   2.502   9.338   3.299  0.7465  0.9696 -0.3670
 1016MOL0     C40072   2.497   9.243   3.221 -0.2060 -0.7203  0.5282
 1016MOL0     O40073   2.518   9.107   3.250 -1.1892  0.4718 -0.5110
 1016MOL0     C40074   2.541   9.074   3.385 -0.1198 -0.5466 -0.0245
 1016MOL0     C40075   2.438   9.034   3.460  0.5652  0.0048 -0.8588
 1016MOL0     C40076   2.441   9.019   3.595  0.2079  0.0666 -0.2487
 1016MOL0     C40077   2.563   9.006   3.663 -0.6891 -0.8856  0.0966
 1016MOL0     O40078   2.569   8.960   3.796  0.1991 -0.2436 -0.3015
 1016MOL0     C40079   2.677   8.963   3.877  0.1269 -0.0269  0.3557
 1016MOL0     C40080   2.659   8.857   3.981  0.6471 -0.2678 -0.3959
 1016MOL0     C40081   2.523   8.879   4.056 -0.4819 -0.7510  0.3070
 1016MOL0     C40082   2.416   8.789   4.010  0.1861  0.0551  0.0516
 1016MOL0     C40083   2.294   8.790   4.107  0.2748  0.0669  0.0376
 1016MOL0     C40084   2.194   8.681   4.069 -0.0271 -0.1797  0.6349
 1016MOL0     C40085   2.057   8.691   4.150 -0.3964  0.2666  0.2826
 1016MOL0     C40086   1.968   8.568   4.133 -0.0272  0.2873 -0.0454
 1016MOL0     N40087   2.024   8.434   4.180  0.6480 -0.0549  0.4834
 1016MOL0     C40088   2.039   8.397   4.313  0.8125 -0.3006  0.2609
 1016MOL0     C40089   2.090   8.270   4.303 -0.1885 -0.2615  0.3653
 1016MOL0     C40090   2.156   8.193   4.409 -0.2334 -0.4179 -0.7222
 1016MOL0     C40091   2.051   8.122   4.508  0.1093 -0.0973 -1.4944
 1016MOL0     C40092   2.132   8.036   4.602 -0.6283  0.1159 -0.4955
 1016MOL0     C40093   2.067   7.909   4.647 -0.2338 -0.8502  0.5639
 1016MOL0     O40094   1.933   7.938   4.650  0.4295  0.1017 -0.1709
 1016MOL0     C40095   1.869   7.993   4.758 -0.9535 -0.3826 -0.6700
 1016MOL0     C40096   1.755   8.065   4.730  0.8849 -1.1102 -0.0082
 1016MOL0     C40097   1.663   8.114   4.830 -0.7186  0.1381 -0.9986
 1016MOL0     C40098   1.537   8.184   4.780 -0.4513  0.9300  0.2021
 1016MOL0     C40099   1.707   8.108   4.972 -0.2677 -0.2754 -0.0856
 1016MOL0     C40100   1.613   8.146   5.086  0.4332 -0.2797 -0.3041
 1016MOL0     O40101   1.683   8.163   5.206  0.8048  0.3984 -0.9957
 1016MOL0     C40102   1.628   8.174   5.328 -0.6778 -0.1303 -0.3109
 1016MOL0     C40103   1.495   8.135   5.366  0.1373  0.7528  0.8368
 1016MOL0     C40104   1.443   8.184   5.484  0.7844 -0.6556 -0.2317
 1016MOL0     C40105   1.527   8.243   5.577 -0.0435  0.2231  0.3411
 1016MOL0     O40106   1.468   8.280   5.694 -0.3127 -0.0553 -0.3033
 1016MOL0     C40107   1.535   8.373   5.775  0.2607 -0.4210 -0.0557
 1016MOL0     C40108   1.423   8.436   5.860 -0.0867 -0.6342 -0.8160
 1016MOL0     C40109   1.379   8.331   5.969 -0.3533 -0.6539 -0.5060
 1016MOL0     C40110   1.277   8.398   6.061  1.0081  0.4057  0.8066
 1016MOL0     C40111   1.138   8.420   5.995 -0.3443 -0.3596 -0.1814
 1016MOL0     C40112   1.075   8.543   6.068 -0.0732 -0.1416 -0.3847
 1016MOL0     C40113   0.921   8.561   6.049  0.4025  0.2637  0.0158
 1016MOL0     C40114   0.870   8.692   6.103  0.8267  0.3321 -0.5473
 1016MOL0    Cl40115   0.702   8.721   6.102 -0.3938 -0.1459 -0.3191
 1016MOL0     C40116   1.665   8.249   5.551 -0.5535  0.0082  0.2724
 1016MOL0     C40117   1.714   8.230   5.418  0.9127 -0.8846  0.1282
 1016MOL0     O40118   1.491   8.162   5.075 -0.2435 -0.8405 -0.3348
 1016MOL0     C40119   1.834   8.055   4.998 -0.7609 -0.0940 -0.5168
 1016MOL0     C40120   1.908   8.001   4.892 -0.0816  0.0829 -0.0787
 1016MOL0     N40121   2.098   8.244   4.173  0.1036  0.4559  0.3235
 1016MOL0     N40122   2.067   8.344   4.093  0.5523 -0.2460 -1.3205
 1016MOL0     C40123   2.679   9.027   3.587 -0.3833 -0.5229 -1.4067
 1016MOL0     C40124   2.665   9.065   3.447  0.0864 -0.2503  0.9802
 1016MOL0     C40125   2.491   9.270   3.071  0.6990  0.2174 -0.6189
 1016MOL0     C40126   2.446   9.168   2.995 -0.4745 -0.1678 -0.1264
 1016MOL0     C40127   2.454   9.176   2.854 -0.2821 -0.1468 -0.1372
 1016MOL0     C40128   2.518   9.276   2.790 -0.5261  0.3274  0.2472
 1016MOL0     O40129   2.552   9.277   2.653  0.1757 -0.6488  0.5112
 1016MOL0     C40130   2.487   9.188   2.567  0.1787 -0.1222  0.4056
 1016MOL0     C40131   2.581   9.073   2.533 -0.0348  0.1007  0.5966
 1016MOL0     C40132   2.668   9.107   2.405 -0.2587 -0.1696  0.7303
 1016MOL0     C40133   2.754   9.240   2.409  0.8450 -0.4392  0.2643
 1016MOL0     C40134   2.854   9.231   2.517 -0.4918  0.2657  0.5789
 1016MOL0     C40135   2.938   9.210   2.591  0.3572 -0.1104  0.0809
 1016MOL0     C40136   2.550   9.392   2.870  0.2265 -0.4112 -0.2790
 1016MOL0     C40137   2.529   9.389   3.005 -0.0986 -1.0839 -0.3011
 1016MOL0     C40138   2.568   9.517   3.078 -0.0332  0.2569  0.0631
 1016MOL0     H40139   2.338   9.021   3.418  0.8494  2.0120 -2.3084
 1016MOL0     H40140   2.350   8.998   3.650 -1.1997 -0.1620 -2.5250
 1016MOL0     H40141   2.687   9.060   3.927 -0.1338  1.1096 -1.7202
 1016MOL0     H40142   2.772   8.951   3.824 -1.2722  3.3884 -3.3920
 1016MOL0     H40143   2.657   8.761   3.928 -0.3200  0.8671 -2.5290
 1016MOL0     H40144   2.742   8.839   4.050  0.1889 -1.9321 -0.2281
 1016MOL0     H40145   2.548   8.845   4.157  3.2625  0.6368 -0.0122
 1016MOL0     H40146   2.503   8.986   4.045  0.3591 -0.0986  3.9131
 1016MOL0     H40147   2.379   8.807   3.908 -4.7873 -2.2823  1.1418
 1016MOL0     H40148   2.465   8.691   4.011  1.5847  0.7250  0.7877
 1016MOL0     H40149   2.243   8.887   4.117  0.7881  0.4565 -1.0174
 1016MOL0     H40150   2.318   8.764   4.211 -2.3573 -1.1811  0.4170
 1016MOL0     H40151   2.166   8.698   3.964  1.1640 -2.8581 -0.1999
 1016MOL0     H40152   2.249   8.587   4.077  0.9790  0.5093  2.5568
 1016MOL0     H40153   1.992   8.767   4.107 -3.7521 -3.1667 -1.3728
 1016MOL0     H40154   2.080   8.701   4.256  2.5290  0.2142 -0.2647
 1016MOL0     H40155   1.885   8.596   4.198  1.3050 -0.8904  2.2616
 1016MOL0     H40156   1.926   8.551   4.033 -0.7910  1.7958 -0.0087
 1016MOL0     H40157   2.018   8.463   4.397 -4.4529 -1.4611  0.1827
 1016MOL0     H40158   2.210   8.260   4.476 -1.7214 -2.0424  2.3297
 1016MOL0     H40159   2.233   8.128   4.367 -0.2527 -2.3628  2.0104
 1016MOL0     H40160   1.989   8.195   4.560 -0.8225 -0.6871 -1.7618
 1016MOL0     H40161   1.993   8.064   4.435  1.5023 -0.5853 -2.2660
 1016MOL0     H40162   2.226   8.012   4.551 -1.1384  0.6107 -1.7297
 1016MOL0     H40163   2.161   8.096   4.689  5.1654 -3.0563  0.2700
 1016MOL0     H40164   2.086   7.821   4.586  0.2227 -0.4379  0.0996
 1016MOL0     H40165   2.109   7.891   4.746  0.0236  1.0466  0.8361
 1016MOL0     H40166   1.736   8.103   4.631 -0.3325  2.0980  1.3182
 1016MOL0     H40167   1.452   8.123   4.812  0.2451  1.3422  3.0493
 1016MOL0     H40168   1.540   8.185   4.670 -0.3608 -2.7516  0.0541
 1016MOL0     H40169   1.534   8.291   4.803  2.8060  0.9755  0.9584
 1016MOL0     H40170   1.432   8.088   5.291 -1.8831  2.5706  1.3063
 1016MOL0     H40171   1.334   8.179   5.489  0.3252  2.0948 -3.6294
 1016MOL0     H40172   1.607   8.320   5.837  0.8945 -2.7916 -2.6254
 1016MOL0     H40173   1.593   8.451   5.724  0.7856  1.7194  3.5174
 1016MOL0     H40174   1.447   8.531   5.908 -2.4597  1.2596 -3.0405
 1016MOL0     H40175   1.333   8.469   5.808 -2.5963  0.2198  3.5617
 1016MOL0     H40176   1.466   8.305   6.031 -0.0570  4.5109  1.8040
 1016MOL0     H40177   1.332   8.242   5.928 -0.6610  0.1245 -1.8979
 1016MOL0     H40178   1.314   8.498   6.085 -2.1587  2.4994 -2.0709
 1016MOL0     H40179   1.270   8.347   6.158  2.1858 -0.0816  0.6559
 1016MOL0     H40180   1.156   8.443   5.890 -3.1099 -1.3347 -0.9581
 1016MOL0     H40181   1.070   8.334   6.000 -1.3208  0.4302  2.9261
 1016MOL0     H40182   1.132   8.635   6.054 -0.1793  0.5019  2.7147
 1016MOL0     H40183   1.086   8.534   6.176 -2.7196 -0.8407 -0.1059
 1016MOL0     H40184   0.854   8.493   6.101 -0.4220 -2.3620 -3.9928
 1016MOL0     H40185   0.895   8.552   5.943  0.8401 -0.4234 -0.0420
 1016MOL0     H40186   0.907   8.770   6.036  0.4481  1.6657  0.7391
 1016MOL0     H40187   0.909   8.722   6.201  1.7518  2.1552 -1.4057
 1016MOL0     H40188   1.731   8.300   5.621 -1.9976  3.3100 -0.5522
 1016MOL0     H40189   1.809   8.278   5.398  0.4921  0.8833  2.0542
 1016MOL0     H40190   1.891   8.063   5.090 -0.2910  2.3234 -0.9523
 1016MOL0     H40191   1.997   7.954   4.932  0.7677 -1.2926 -3.2310
 1016MOL0     H40192   2.773   9.046   3.638 -1.8995  1.7089  0.8204
 1016MOL0     H40193   2.755   9.086   3.390  0.5708  0.0076  1.8066
 1016MOL0     H40194   2.430   9.068   3.035 -0.8961 -0.2998 -0.6219
 1016MOL0     H40195   2.411   9.092   2.801 -2.0718  0.3922  0.3828
 1016MOL0     H40196   2.395   9.152   2.614  1.4646 -1.8900  1.7122
 1016MOL0     H40197   2.456   9.238   2.475 -1.2343  0.5482  1.2074
 1016MOL0     H40198   2.516   8.987   2.515 -2.0135  2.0446 -2.3111
 1016MOL0     H40199   2.650   9.051   2.615 -2.1204 -1.2215  2.1039
 1016MOL0     H40200   2.732   9.018   2.396 -1.5738 -1.0526 -0.2690
 1016MOL0     H40201   2.605   9.128   2.319 -1.6676  2.6453  2.3049
 1016MOL0     H40202   2.696   9.333   2.411 -0.1274 -0.6753 -4.4872
 1016MOL0     H40203   2.801   9.235   2.311 -0.4676 -1.0209 -0.3643
 1016MOL0     H40204   3.016   9.183   2.658  1.1614  0.3095 -0.6590
 1016MOL0     H40205   2.597   9.478   2.823  1.4890 -0.1923  1.2900
 1016MOL0     H40206   2.485   9.566   3.131  0.4374  0.7653  0.3353
 1016MOL0     H40207   2.654   9.498   3.142  0.3968 -0.3915 -0.6987
 1016MOL0     H40208   2.600   9.595   3.008 -1.2401  0.0665 -0.7419
 1017MOL0     O40209   7.105   6.474   7.152 -0.2656 -0.1624 -0.2477
 1017MOL0     C40210   7.080   6.370   7.213  1.0800 -0.4510 -0.5164
 1017MOL0     O40211   7.172   6.312   7.300  0.5826 -0.3425 -0.5050
 1017MOL0     C40212   7.305   6.342   7.285 -0.1542  0.0408 -0.1799
 1017MOL0     C40213   7.403   6.244   7.237 -1.3590 -0.6595  1.3575
 1017MOL0     C40214   7.539   6.284   7.215 -0.7631 -0.6745  0.9853
 1017MOL0     C40215   7.577   6.415   7.234 -0.1060  0.1988 -0.5837
 1017MOL0     O40216   7.700   6.455   7.197  0.5718  0.6512 -0.4501
 1017MOL0     C40217   7.721   6.514   7.073  0.4346 -0.1245 -0.0897
 1017MOL0     C40218   7.740   6.404   6.979 -0.4246  0.1645  1.0214
 1017MOL0     C40219   7.750   6.450   6.833 -0.0179 -0.9822  0.7355
 1017MOL0     C40220   7.711   6.344   6.740 -0.6380  0.8459 -0.4086
 1017MOL0     C40221   7.817   6.323   6.637  0.4586  0.5044  0.5187
 1017MOL0     C40222   7.784   6.422   6.524  0.0730 -0.4163  0.2354
 1017MOL0     C40223   7.882   6.390   6.412  0.2813  0.4788 -0.2227
 1017MOL0     C40224   7.849   6.475   6.289 -0.0676 -0.1343 -0.8069
 1017MOL0     N40225   7.705   6.467   6.256  0.0527  0.2681  0.0924
 1017MOL0     C40226   7.650   6.360   6.181 -0.0313  0.4056 -0.0526
 1017MOL0     C40227   7.523   6.404   6.160 -0.0085  0.4043  0.4549
 1017MOL0     C40228   7.404   6.349   6.081  0.2267  0.4116  0.5253
 1017MOL0     C40229   7.341   6.456   5.992 -0.4983  0.3733 -0.2992
 1017MOL0     C40230   7.447   6.518   5.891  0.5008  0.4125 -0.1545
 1017MOL0     C40231   7.413   6.660   5.843 -0.7351  1.0658 -0.3812
 1017MOL0     O40232   7.302   6.650   5.747 -0.6696 -0.0156 -0.4039
 1017MOL0     C40233   7.338   6.628   5.620  0.5600  0.4006  0.9429
 1017MOL0     C40234   7.384   6.737   5.546 -0.0710 -0.4922  0.8617
 1017MOL0     C40235   7.397   6.739   5.402 -0.1434  0.1245 -1.0627
 1017MOL0     C40236   7.433   6.868   5.343 -0.0287 -0.2542  0.0182
 1017MOL0     C40237   7.377   6.615   5.326 -0.1942  0.7700 -0.0238
 1017MOL0     C40238   7.408   6.602   5.178 -1.1330  0.3649  0.0356
 1017MOL0     O40239   7.469   6.707   5.115  0.1501 -0.0557  0.6503
 1017MOL0     C40240   7.500   6.699   4.981 -0.2754  0.0675  0.2135
 1017MOL0     C40241   7.634   6.674   4.939  0.2543  0.6915 -1.1476
 1017MOL0     C40242   7.665   6.668   4.802 -1.0771 -0.4066 -0.1076
 1017MOL0     C40243   7.567   6.701   4.709  0.5851 -0.1016 -0.2369
 1017MOL0     O40244   7.608   6.701   4.579 -0.1867  0.0584 -0.2513
 1017MOL0     C40245   7.505   6.697   4.481  0.0936  0.5094 -0.3701
 1017MOL0     C40246   7.556   6.672   4.337  0.4095  0.2486 -0.2673
 1017MOL0     C40247   7.676   6.749   4.291  0.2759  0.7230 -1.1300
 1017MOL0     C40248   7.630   6.903   4.288 -0.9690  1.0680  0.0173
 1017MOL0     C40249   7.745   6.986   4.249 -0.1558  0.2274 -0.3001
 1017MOL0     C40250   7.796   6.983   4.099 -0.3498  0.1322 -0.6457
 1017MOL0     C40251   7.904   7.089   4.076 -0.2017 -1.0825  0.8096
 1017MOL0     C40252   8.034   7.065   4.156 -1.0950  0.3754 -0.0797
 1017MOL0    Cl40253   8.158   7.002   4.052 -0.4987 -0.3244  0.5594
 1017MOL0     C40254   7.434   6.732   4.757 -0.0915 -0.6084 -0.2156
 1017MOL0     C40255   7.405   6.740   4.891  0.7633  0.5963 -0.5164
 1017MOL0     O40256   7.381   6.499   5.120 -0.0486 -0.0119 -0.3205
 1017MOL0     C40257   7.339   6.506   5.402  0.4443 -0.7937  0.7760
 1017MOL0     C40258   7.308   6.516   5.543 -1.0804 -0.7813 -1.0510
 1017MOL0     N40259   7.503   6.518   6.231 -0.3550  0.2116  0.7933
 1017MOL0     N40260   7.611   6.560   6.288 -0.1500  0.6965  0.2175
 1017MOL0     C40261   7.484   6.502   7.281 -0.2142 -0.0767 -0.5364
 1017MOL0     C40262   7.351   6.471   7.306 -0.8276  0.2001 -0.5875
 1017MOL0     C40263   6.941   6.324   7.205  0.6015  0.1461  0.1911
 1017MOL0     C40264   6.852   6.372   7.110  0.4798  0.0499 -1.2885
 1017MOL0     C40265   6.715   6.338   7.100  0.5151  0.6099 -0.2309
 1017MOL0     C40266   6.662   6.261   7.195  0.0538 -0.5910  0.4742
 1017MOL0     O40267   6.536   6.222   7.168 -0.3069 -0.0221  0.0559
 1017MOL0     C40268   6.472   6.139   7.263  0.5552 -0.0751 -0.4505
 1017MOL0     C40269   6.332   6.110   7.206 -0.2046  0.0798 -0.0621
 1017MOL0     C40270   6.259   5.983   7.257  0.6396  0.1095 -0.7643
 1017MOL0     C40271   6.168   5.923   7.150  0.3537 -0.2008 -0.2458
 1017MOL0     C40272   6.077   5.837   7.221  0.7375  0.3056 -0.2452
 1017MOL0     C40273   6.014   5.752   7.276  0.7302 -0.6119 -0.7594
 1017MOL0     C40274   6.744   6.209   7.306  0.2158 -0.3289  0.2480
 1017MOL0     C40275   6.882   6.243   7.305  0.6300 -0.2449 -0.2502
 1017MOL0     C40276   6.952   6.203   7.433 -0.1418  0.4433  0.0197
 1017MOL0     H40277   7.387   6.140   7.210  2.5397 -0.4261 -3.2524
 1017MOL0     H40278   7.606   6.208   7.174 -0.5000 -0.0894  0.3100
 1017MOL0     H40279   7.807   6.581   7.082  0.2358 -0.1018  2.8718
 1017MOL0     H40280   7.632   6.569   7.043  0.0358  0.6092  2.1950
 1017MOL0     H40281   7.832   6.351   7.007 -0.1773  0.6953  1.2325
 1017MOL0     H40282   7.657   6.334   6.988 -2.5189  2.4406  0.6122
 1017MOL0     H40283   7.680   6.531   6.812  0.7852 -0.6839 -1.0324
 1017MOL0     H40284   7.846   6.500   6.817 -0.0834 -0.5773  1.5547
 1017MOL0     H40285   7.692   6.254   6.800  1.0913  1.4661  1.2028
 1017MOL0     H40286   7.613   6.354   6.693 -0.2202 -0.1902 -1.5385
 1017MOL0     H40287   7.799   6.220   6.603 -0.2752  1.2837 -1.6004
 1017MOL0     H40288   7.921   6.328   6.671  1.2846 -3.6399 -0.8337
 1017MOL0     H40289   7.682   6.397   6.492 -0.7014  2.3458  0.2990
 1017MOL0     H40290   7.786   6.526   6.557  0.0008 -1.6098  4.6310
 1017MOL0     H40291   7.879   6.282   6.394  3.5510  0.2988 -0.2269
 1017MOL0     H40292   7.977   6.422   6.455  2.6666 -2.0158 -3.1811
 1017MOL0     H40293   7.880   6.579   6.304  2.0164 -1.0273  1.9126
 1017MOL0     H40294   7.913   6.435   6.209  1.8945  2.1699 -0.5125
 1017MOL0     H40295   7.688   6.270   6.135 -1.7920 -0.4120  0.0124
 1017MOL0     H40296   7.324   6.310   6.144 -2.9088  4.4522 -0.5073
 1017MOL0     H40297   7.441   6.264   6.022 -5.3782 -1.9668 -0.2650
 1017MOL0     H40298   7.267   6.407   5.928  1.0933  0.0341 -1.9494
 1017MOL0     H40299   7.300   6.529   6.063  1.7945  2.5916 -1.1041
 1017MOL0     H40300   7.540   6.531   5.948 -0.3466 -3.3102  2.4529
 1017MOL0     H40301   7.464   6.452   5.805  0.6214 -0.5158  0.5635
 1017MOL0     H40302   7.371   6.718   5.925 -1.0816  0.7364 -0.3221
 1017MOL0     H40303   7.501   6.716   5.810  0.0374 -0.2981 -0.7425
 1017MOL0     H40304   7.386   6.834   5.594  1.3421  0.6275 -1.2681
 1017MOL0     H40305   7.537   6.871   5.308 -0.5010  1.9869 -1.4235
 1017MOL0     H40306   7.404   6.955   5.404  2.2685 -0.6723  1.8615
 1017MOL0     H40307   7.376   6.882   5.251  1.3018 -1.4158 -1.0113
 1017MOL0     H40308   7.715   6.651   5.008 -2.8557 -2.2812  1.9271
 1017MOL0     H40309   7.769   6.662   4.771 -0.9530  0.4727  0.1058
 1017MOL0     H40310   7.427   6.630   4.520 -0.1365  0.0085 -1.6632
 1017MOL0     H40311   7.446   6.789   4.487  0.6753  1.3134 -4.4001
 1017MOL0     H40312   7.582   6.565   4.339  0.7809  0.1058 -4.1666
 1017MOL0     H40313   7.476   6.682   4.263  1.8798  0.7524 -1.8879
 1017MOL0     H40314   7.710   6.709   4.194  0.6680  1.3465 -1.2532
 1017MOL0     H40315   7.761   6.735   4.358  0.7849 -1.3472 -2.1131
 1017MOL0     H40316   7.602   6.933   4.389  0.2220  0.1699  0.6438
 1017MOL0     H40317   7.541   6.910   4.225 -1.9894 -0.6880  1.2084
 1017MOL0     H40318   7.711   7.084   4.281 -3.7937 -1.2050  0.7071
 1017MOL0     H40319   7.825   6.951   4.315 -1.8677  1.3674  2.5675
 1017MOL0     H40320   7.709   7.010   4.039 -0.1541  1.3178 -0.4380
 1017MOL0     H40321   7.825   6.882   4.070 -0.2697 -1.4686  4.1171
 1017MOL0     H40322   7.863   7.179   4.124  2.7883 -0.3426  2.2048
 1017MOL0     H40323   7.923   7.122   3.973 -2.7156 -0.7760  0.3932
 1017MOL0     H40324   8.018   6.996   4.240 -2.1137  2.2648  1.3523
 1017MOL0     H40325   8.069   7.162   4.192 -2.2563  0.6046  0.4881
 1017MOL0     H40326   7.351   6.768   4.697 -0.4712 -0.3536  0.4535
 1017MOL0     H40327   7.309   6.763   4.937 -0.0584 -7.8159  3.8249
 1017MOL0     H40328   7.315   6.414   5.351 -2.1857 -1.5978  3.1684
 1017MOL0     H40329   7.270   6.430   5.597 -0.9721  0.0855  0.4558
 1017MOL0     H40330   7.508   6.603   7.312 -1.0687 -0.2787  0.8436
 1017MOL0     H40331   7.280   6.543   7.344 -1.4137  0.0366 -1.3341
 1017MOL0     H40332   6.898   6.443   7.041  0.5400  2.0053  0.6685
 1017MOL0     H40333   6.660   6.368   7.011 -0.5713 -2.6632 -0.8044
 1017MOL0     H40334   6.522   6.044   7.282  1.0795  0.6949  2.5874
 1017MOL0     H40335   6.471   6.181   7.364  1.4081 -2.5532  0.6583
 1017MOL0     H40336   6.337   6.100   7.097 -0.8698 -1.1488  0.0020
 1017MOL0     H40337   6.262   6.192   7.224 -0.0949 -0.3916  3.1012
 1017MOL0     H40338   6.328   5.902   7.284 -0.2908 -0.4382  0.0163
 1017MOL0     H40339   6.201   6.001   7.348 -1.5094 -0.3674 -1.9659
 1017MOL0     H40340   6.222   5.865   7.074 -0.2213  0.0096 -0.8240
 1017MOL0     H40341   6.115   6.007   7.103  0.6575  1.0291  1.4949
 1017MOL0     H40342   5.982   5.666   7.332  1.8891  1.4760  3.5415
 1017MOL0     H40343   6.708   6.137   7.380  1.5352 -0.0768  1.1860
 1017MOL0     H40344   7.027   6.124   7.417 -0.9107 -0.4411  0.6515
 1017MOL0     H40345   7.010   6.285   7.476 -0.6988  1.4210 -1.0235
 1017MOL0     H40346   6.893   6.168   7.518  0.9046  0.1068  0.6300
 1018MOL0     O40347   5.178   2.408   3.544 -0.2397  0.1663 -0.1845
 1018MOL0     C40348   5.250   2.329   3.600  0.1112  0.0559  0.1547
 1018MOL0     O40349   5.218   2.202   3.627  0.0103  0.2288  0.4876
 1018MOL0     C40350   5.089   2.160   3.596 -0.6477  0.0168  0.1763
 1018MOL0     C40351   5.047   2.107   3.472 -0.0615  0.6580 -1.2428
 1018MOL0     C40352   4.919   2.061   3.457  0.5592 -0.3265  0.1598
 1018MOL0     C40353   4.831   2.055   3.573 -0.6251  0.2067  0.8671
 1018MOL0     O40354   4.697   2.028   3.566  0.4299 -0.1918 -0.3099
 1018MOL0     C40355   4.610   2.119   3.482 -0.3595  0.1102  0.0268
 1018MOL0     C40356   4.473   2.048   3.478  0.9265  0.2399  0.2825
 1018MOL0     C40357   4.378   2.118   3.378  0.3903  0.0475 -0.3247
 1018MOL0     C40358   4.256   2.030   3.333 -0.7849 -0.4247  0.4135
 1018MOL0     C40359   4.176   1.988   3.445 -0.1860 -0.3922  0.0037
 1018MOL0     C40360   4.062   1.901   3.391  0.0514  0.5048 -0.0039
 1018MOL0     C40361   3.968   1.861   3.501  1.2975  0.0643 -0.5419
 1018MOL0     C40362   3.878   1.968   3.560  0.1174 -0.8512 -0.2541
 1018MOL0     N40363   3.813   1.960   3.690  0.4599  0.4946 -0.2725
 1018MOL0     C40364   3.741   1.857   3.738 -0.1886  0.7426  0.2181
 1018MOL0     C40365   3.682   1.894   3.849 -0.0519  0.3632  0.3344
 1018MOL0     C40366   3.610   1.786   3.925  0.4787  0.6198 -0.7689
 1018MOL0     C40367   3.709   1.724   4.022  0.0388  0.5777  0.1558
 1018MOL0     C40368   3.631   1.626   4.121 -0.2272 -0.6227 -0.2879
 1018MOL0     C40369   3.597   1.488   4.059 -0.9714  0.1567  0.1263
 1018MOL0     O40370   3.718   1.411   4.061 -0.5313  0.1194  0.4482
 1018MOL0     C40371   3.750   1.336   4.173  1.1010 -0.0975 -0.0858
 1018MOL0     C40372   3.649   1.271   4.254 -0.5300 -0.9942  0.0534
 1018MOL0     C40373   3.673   1.234   4.392 -0.0165 -0.4805  0.4757
 1018MOL0     C40374   3.565   1.161   4.471  0.3041  0.5789 -0.5379
 1018MOL0     C40375   3.800   1.245   4.443  0.6460  0.2474 -0.0511
 1018MOL0     C40376   3.822   1.224   4.588 -0.4718  0.9591  0.9708
 1018MOL0     O40377   3.912   1.125   4.618  0.0259 -0.5279 -0.4684
 1018MOL0     C40378   3.952   1.111   4.748  0.1487  0.1098 -0.4297
 1018MOL0     C40379   3.857   1.068   4.840 -0.0907  0.7791 -0.1780
 1018MOL0     C40380   3.887   1.036   4.968 -0.5648 -0.3335  0.1945
 1018MOL0     C40381   4.017   1.045   5.015 -0.4804 -0.6236  0.0643
 1018MOL0     O40382   4.059   1.041   5.151 -0.0688 -0.6282 -0.0448
 1018MOL0     C40383   3.995   0.941   5.231 -0.9088 -0.5461  0.8328
 1018MOL0     C40384   4.078   0.950   5.358 -0.0736  0.8785  0.8272
 1018MOL0     C40385   4.017   0.860   5.461 -0.4656  0.4339  0.6664
 1018MOL0     C40386   4.109   0.733   5.462  0.1577 -0.5567 -1.1001
 1018MOL0     C40387   4.034   0.628   5.543  0.4706 -0.5499  1.0705
 1018MOL0     C40388   4.133   0.534   5.611  0.5653 -0.6082  0.2890
 1018MOL0     C40389   4.247   0.480   5.518 -0.1065  0.8520  0.1393
 1018MOL0     C40390   4.189   0.361   5.437 -0.0376 -0.7577  0.2564
 1018MOL0    Cl40391   4.132   0.218   5.519  0.2758  0.2352  0.0732
 1018MOL0     C40392   4.110   1.093   4.929  0.1249 -0.4944  0.2395
 1018MOL0     C40393   4.079   1.125   4.789 -0.1254 -0.4462 -0.5668
 1018MOL0     O40394   3.761   1.287   4.669  1.2506  0.0257  0.0402
 1018MOL0     C40395   3.901   1.298   4.363  0.8312 -0.4678  0.2626
 1018MOL0     C40396   3.879   1.341   4.228  0.6258  0.3261 -0.6807
 1018MOL0     N40397   3.718   2.022   3.876  0.1560  0.2002  0.4694
 1018MOL0     N40398   3.788   2.062   3.773 -0.0425 -0.8371  0.0179
 1018MOL0     C40399   4.875   2.100   3.694 -0.2488 -0.0604  0.7836
 1018MOL0     C40400   5.002   2.155   3.707  0.5268 -0.0451  0.7478
 1018MOL0     C40401   5.376   2.376   3.670 -0.5752 -0.2254 -1.4390
 1018MOL0     C40402   5.415   2.304   3.781 -1.1933  0.9675  1.5164
 1018MOL0     C40403   5.526   2.331   3.851  0.3816 -0.1889  0.4415
 1018MOL0     C40404   5.593   2.448   3.824 -1.0349 -0.2091 -0.1149
 1018MOL0     O40405   5.692   2.492   3.912  0.3865 -0.0657 -0.7033
 1018MOL0     C40406   5.823   2.430   3.900  0.7508  0.0563  0.7452
 1018MOL0     C40407   5.895   2.409   4.044  0.4559  1.2687  0.0297
 1018MOL0     C40408   6.015   2.303   4.041  0.6035 -0.7566  0.7220
 1018MOL0     C40409   6.117   2.334   3.933 -0.4352 -0.6665 -0.4328
 1018MOL0     C40410   6.203   2.224   3.913 -0.9104 -0.1562  0.8698
 1018MOL0     C40411   6.269   2.122   3.917 -0.1566 -0.1072  0.8923
 1018MOL0     C40412   5.562   2.526   3.705 -0.4412 -0.3120 -0.3590
 1018MOL0     C40413   5.454   2.484   3.629  0.4068  0.7445 -1.0989
 1018MOL0     C40414   5.430   2.538   3.491 -0.6196  0.0252  0.6252
 1018MOL0     H40415   5.124   2.115   3.395 -2.2255  0.3863 -3.5912
 1018MOL0     H40416   4.898   2.022   3.358 -1.9740 -1.6947  1.1451
 1018MOL0     H40417   4.649   2.134   3.381  1.6412  2.1256  1.0132
 1018MOL0     H40418   4.611   2.209   3.544  2.0084 -1.7996  3.0521
 1018MOL0     H40419   4.477   1.947   3.438 -1.8753  0.4989 -0.8905
 1018MOL0     H40420   4.432   2.051   3.580 -1.7193 -5.1719 -0.3211
 1018MOL0     H40421   4.346   2.216   3.414  2.2301  1.0057 -1.1620
 1018MOL0     H40422   4.433   2.141   3.286  2.6232 -1.4769  0.5397
 1018MOL0     H40423   4.200   2.084   3.257 -2.4966  2.1851  3.3036
 1018MOL0     H40424   4.295   1.945   3.276  0.0502  1.2951 -1.7231
 1018MOL0     H40425   4.120   2.077   3.478 -1.1515 -1.1681  0.5062
 1018MOL0     H40426   4.241   1.944   3.522 -1.3032  1.2523  1.9908
 1018MOL0     H40427   4.011   1.963   3.317  3.1469  2.6059 -0.5710
 1018MOL0     H40428   4.100   1.810   3.345 -5.9184 -3.1571  1.2167
 1018MOL0     H40429   4.035   1.824   3.579  0.2971  1.4954  1.0809
 1018MOL0     H40430   3.892   1.788   3.474  3.3220 -2.5648  0.5014
 1018MOL0     H40431   3.939   2.058   3.566 -2.0923  0.8645 -2.0000
 1018MOL0     H40432   3.808   1.994   3.481  0.4194  1.6868  0.2367
 1018MOL0     H40433   3.738   1.759   3.692 -0.7878  0.7410  0.2585
 1018MOL0     H40434   3.567   1.703   3.867  1.1687 -0.2224 -0.1116
 1018MOL0     H40435   3.530   1.829   3.985 -0.8881 -0.2570 -1.8917
 1018MOL0     H40436   3.779   1.665   3.962  3.5713  2.2303  2.3299
 1018MOL0     H40437   3.756   1.813   4.065  0.5441 -0.6590  2.3405
 1018MOL0     H40438   3.696   1.616   4.209  3.8018 -3.7706 -3.2438
 1018MOL0     H40439   3.541   1.680   4.151 -0.4634 -1.1911  0.0295
 1018MOL0     H40440   3.518   1.447   4.122 -0.4894  0.3329  0.8527
 1018MOL0     H40441   3.552   1.501   3.960  1.0570  1.4237 -0.6956
 1018MOL0     H40442   3.544   1.258   4.230 -0.2683 -1.3678 -0.9359
 1018MOL0     H40443   3.595   1.059   4.498 -3.9874 -1.1671 -1.5684
 1018MOL0     H40444   3.474   1.151   4.412 -0.2818  1.5674  0.1851
 1018MOL0     H40445   3.536   1.221   4.558 -1.0599  0.6282 -1.0139
 1018MOL0     H40446   3.752   1.061   4.813 -0.6574 -0.2604  2.0285
 1018MOL0     H40447   3.805   1.007   5.034 -0.2442  0.3940  0.9304
 1018MOL0     H40448   3.890   0.970   5.249 -0.3650  0.9009  1.9415
 1018MOL0     H40449   3.996   0.838   5.196 -1.9569 -0.8309  1.5644
 1018MOL0     H40450   4.177   0.910   5.338 -1.1706 -3.4916  2.9965
 1018MOL0     H40451   4.080   1.052   5.397  0.7358  0.2063  2.6359
 1018MOL0     H40452   3.919   0.822   5.432 -0.4264  0.8682 -0.0447
 1018MOL0     H40453   4.016   0.906   5.561 -0.4781 -1.6683  1.6916
 1018MOL0     H40454   4.192   0.769   5.524 -1.5558  0.4085  0.7901
 1018MOL0     H40455   4.136   0.701   5.361 -0.4396  2.3317 -2.2811
 1018MOL0     H40456   3.985   0.680   5.626  2.0839  3.7053 -0.3595
 1018MOL0     H40457   3.962   0.580   5.477  0.3626  0.1396  0.6898
 1018MOL0     H40458   4.068   0.455   5.649  0.5753  0.3353  2.4781
 1018MOL0     H40459   4.174   0.587   5.698  0.3378  1.0151 -0.5589
 1018MOL0     H40460   4.332   0.445   5.577 -1.3778 -1.0551  0.9316
 1018MOL0     H40461   4.297   0.553   5.453  1.2417 -0.3129 -0.1828
 1018MOL0     H40462   4.278   0.343   5.377 -2.5155 -0.8914 -3.7136
 1018MOL0     H40463   4.114   0.403   5.370  1.6065 -1.4337 -2.1320
 1018MOL0     H40464   4.211   1.117   4.961  1.0845 -2.8428 -0.7998
 1018MOL0     H40465   4.164   1.161   4.732  1.2795  2.3542  2.9678
 1018MOL0     H40466   4.000   1.290   4.405  1.4651 -2.8990 -1.4625
 1018MOL0     H40467   3.962   1.396   4.184  1.3579  1.0968  1.5284
 1018MOL0     H40468   4.802   2.104   3.775  0.1752  0.1366  1.1627
 1018MOL0     H40469   5.045   2.208   3.791  3.1617  1.1808 -1.2385
 1018MOL0     H40470   5.357   2.221   3.821 -1.3988  0.0778 -0.5050
 1018MOL0     H40471   5.555   2.270   3.936 -0.6509 -2.1361 -0.5381
 1018MOL0     H40472   5.798   2.331   3.859  0.6935 -0.6918  2.4782
 1018MOL0     H40473   5.882   2.489   3.830 -0.3829 -1.8277 -1.9562
 1018MOL0     H40474   5.817   2.376   4.113 -0.2832  0.5688 -1.1123
 1018MOL0     H40475   5.925   2.506   4.084  0.8470  1.9060 -1.7059
 1018MOL0     H40476   6.050   2.276   4.140 -1.4341  1.5404  2.1980
 1018MOL0     H40477   5.979   2.204   4.009  0.5271 -0.8567  1.1186
 1018MOL0     H40478   6.184   2.416   3.961 -0.3187 -0.2541 -1.8624
 1018MOL0     H40479   6.081   2.362   3.834  1.9061  1.2676 -0.8311
 1018MOL0     H40480   6.337   2.040   3.917 -3.5226 -3.1833 -0.6058
 1018MOL0     H40481   5.618   2.614   3.675 -2.4728  1.3875  0.5216
 1018MOL0     H40482   5.503   2.616   3.470  1.2134 -1.4483  1.1449
 1018MOL0     H40483   5.451   2.458   3.420  1.2202  1.6056 -0.7102
 1018MOL0     H40484   5.327   2.569   3.472 -0.5194 -0.6725 -1.2771
 1019MOL0     O40485   8.920   6.449   4.354  0.2109  0.1019 -0.2384
 1019MOL0     C40486   8.976   6.459   4.246  0.1722 -0.3719  0.1841
 1019MOL0     O40487   9.070   6.553   4.215 -0.5810 -0.0342  0.2895
 1019MOL0     C40488   9.122   6.624   4.320  0.0559 -0.7061  0.5613
 1019MOL0     C40489   9.047   6.722   4.387  0.8902 -0.6026  0.8541
 1019MOL0     C40490   9.110   6.802   4.489 -0.4514 -0.9969  0.0208
 1019MOL0     C40491   9.242   6.785   4.519 -0.0655 -0.1474 -0.4274
 1019MOL0     O40492   9.305   6.878   4.605  0.1273 -0.0359 -0.0961
 1019MOL0     C40493   9.332   6.856   4.742  0.4709 -0.1120  0.0167
 1019MOL0     C40494   9.446   6.942   4.796 -0.1590  1.4250 -1.0227
 1019MOL0     C40495   9.491   6.890   4.936  0.8801  0.1977  0.1591
 1019MOL0     C40496   9.615   6.959   4.994 -0.3874 -0.5930 -0.0084
 1019MOL0     C40497   9.662   6.914   5.131  0.7315  0.0517 -0.3271
 1019MOL0     C40498   9.572   6.959   5.248  1.0676  0.0935 -1.1651
 1019MOL0     C40499   9.606   7.100   5.293 -0.3320 -0.3306  0.0983
 1019MOL0     C40500   9.529   7.145   5.413 -0.0247 -0.2025  0.6156
 1019MOL0     N40501   9.601   7.254   5.491 -0.5148 -0.2464 -0.0089
 1019MOL0     C40502   9.586   7.387   5.468  0.5264 -0.3958 -0.2595
 1019MOL0     C40503   9.695   7.450   5.509 -0.7735 -0.1161  0.9363
 1019MOL0     C40504   9.730   7.588   5.470 -0.3768 -0.3048  0.4729
 1019MOL0     C40505   9.750   7.669   5.603 -0.5667 -0.2053  0.7131
 1019MOL0     C40506   9.610   7.718   5.660 -0.7475  0.8647 -0.9750
 1019MOL0     C40507   9.627   7.840   5.741 -0.2301 -0.6346 -0.6903
 1019MOL0     O40508   9.503   7.897   5.775  0.5408 -0.0692  0.2121
 1019MOL0     C40509   9.505   8.001   5.865  0.3714 -0.2609  0.6110
 1019MOL0     C40510   9.614   8.074   5.932 -0.1815 -0.5585  0.0829
 1019MOL0     C40511   9.595   8.184   6.021 -0.4509 -0.0648  0.1125
 1019MOL0     C40512   9.717   8.243   6.075  0.3817 -0.1865  0.1051
 1019MOL0     C40513   9.453   8.213   6.055 -0.9188 -0.7058  0.8387
 1019MOL0     C40514   9.427   8.327   6.142  0.3056 -0.0950  0.1222
 1019MOL0     O40515   9.514   8.368   6.238 -0.6472  0.2808 -0.3825
 1019MOL0     C40516   9.512   8.475   6.320 -0.5766  0.6112  0.1400
 1019MOL0     C40517   9.450   8.598   6.301  0.8488  0.0118  0.8246
 1019MOL0     C40518   9.475   8.700   6.395  0.0178  0.0016  0.4687
 1019MOL0     C40519   9.550   8.676   6.509 -0.1545  0.6369 -0.0613
 1019MOL0     O40520   9.549   8.775   6.605 -0.0185  0.5403 -0.2181
 1019MOL0     C40521   9.630   8.752   6.717 -0.4810 -0.2654 -0.8321
 1019MOL0     C40522   9.623   8.873   6.814  0.4723 -0.7327 -0.5880
 1019MOL0     C40523   9.478   8.911   6.856 -0.3763  0.4977  0.6305
 1019MOL0     C40524   9.476   8.997   6.979 -0.5181 -1.2622 -0.1066
 1019MOL0     C40525   9.336   9.037   7.034  0.1616 -0.6007  0.8413
 1019MOL0     C40526   9.254   8.927   7.098 -0.1309 -0.0929 -0.2476
 1019MOL0     C40527   9.129   8.987   7.159 -0.1547 -0.1047 -0.1633
 1019MOL0     C40528   9.025   8.885   7.208 -0.3116  0.4262  0.1625
 1019MOL0    Cl40529   8.874   8.955   7.255  0.0774 -0.2415  0.2538
 1019MOL0     C40530   9.615   8.553   6.519 -0.1084 -0.2851 -0.0753
 1019MOL0     C40531   9.597   8.449   6.430 -1.0550 -0.5252 -0.0725
 1019MOL0     O40532   9.314   8.375   6.121  0.0806  0.5572  0.4443
 1019MOL0     C40533   9.351   8.139   6.000  0.5495  0.2123 -0.0557
 1019MOL0     C40534   9.373   8.037   5.910  0.1061 -0.2852 -0.0451
 1019MOL0     N40535   9.783   7.354   5.562  0.2627  0.3129 -0.5055
 1019MOL0     N40536   9.723   7.239   5.550 -0.8137  0.5468 -0.6549
 1019MOL0     C40537   9.313   6.691   4.444 -0.1280  0.4003  0.8134
 1019MOL0     C40538   9.256   6.613   4.347  0.5126  0.4519 -0.0508
 1019MOL0     C40539   8.967   6.340   4.155 -0.0297 -0.0390  0.7568
 1019MOL0     C40540   8.844   6.270   4.151 -0.3300  1.2942  0.7881
 1019MOL0     C40541   8.829   6.155   4.065 -0.6942  0.0634  0.4328
 1019MOL0     C40542   8.929   6.106   3.993  0.1804  0.8858  0.7990
 1019MOL0     O40543   8.903   6.003   3.898  0.4425  0.4880  0.2427
 1019MOL0     C40544   8.990   6.000   3.784 -0.0571  0.2477 -0.2651
 1019MOL0     C40545   8.945   5.891   3.688 -0.0847  0.3588  0.1278
 1019MOL0     C40546   8.819   5.943   3.617 -0.3559  0.8222  0.0240
 1019MOL0     C40547   8.759   5.830   3.519  0.8291 -0.1493  0.0148
 1019MOL0     C40548   8.853   5.792   3.402  0.3510 -0.2086  0.4391
 1019MOL0     C40549   8.907   5.736   3.313  0.3520  0.6112  1.0344
 1019MOL0     C40550   9.051   6.174   4.001  0.3077 -0.7416 -0.3286
 1019MOL0     C40551   9.075   6.286   4.087  0.2701  0.1500  1.0534
 1019MOL0     C40552   9.226   6.329   4.107  0.0955  0.9189 -0.1335
 1019MOL0     H40553   8.942   6.724   4.362  1.5005 -2.4436 -2.3525
 1019MOL0     H40554   9.050   6.880   4.534 -0.2664 -0.1639 -1.1258
 1019MOL0     H40555   9.357   6.750   4.749 -1.6265 -0.5614  1.6006
 1019MOL0     H40556   9.240   6.875   4.797 -0.6085  0.8319 -2.0016
 1019MOL0     H40557   9.531   6.925   4.729  0.3118 -2.6354  0.3610
 1019MOL0     H40558   9.404   7.042   4.807 -1.0496  0.7592  4.7139
 1019MOL0     H40559   9.409   6.917   5.003  2.7402  2.8009  1.5380
 1019MOL0     H40560   9.504   6.781   4.929  0.1028 -0.0146  1.5826
 1019MOL0     H40561   9.691   6.931   4.920 -1.1692 -1.1451 -0.6191
 1019MOL0     H40562   9.609   7.068   4.992  1.2526 -0.4805 -0.1779
 1019MOL0     H40563   9.762   6.956   5.149 -0.3864  2.5218  0.6403
 1019MOL0     H40564   9.656   6.805   5.123 -1.3657  0.2646 -3.8925
 1019MOL0     H40565   9.464   6.965   5.231  1.0887 -1.2898 -1.8727
 1019MOL0     H40566   9.592   6.901   5.338  2.6930  1.0488 -0.8553
 1019MOL0     H40567   9.583   7.171   5.213 -2.0302  0.4198  1.2022
 1019MOL0     H40568   9.711   7.105   5.323 -0.3122 -0.1758  0.0009
 1019MOL0     H40569   9.436   7.193   5.382  0.7018 -0.8376 -3.0329
 1019MOL0     H40570   9.529   7.056   5.476  3.9012 -2.1662 -1.6955
 1019MOL0     H40571   9.508   7.437   5.413 -1.3446 -2.9985 -0.1710
 1019MOL0     H40572   9.656   7.638   5.407 -0.2605  0.8306  1.2095
 1019MOL0     H40573   9.827   7.596   5.420  1.1936  0.0546  3.3484
 1019MOL0     H40574   9.812   7.605   5.666  2.4116 -0.8324 -2.5589
 1019MOL0     H40575   9.810   7.755   5.572  1.9931 -1.9551  0.5252
 1019MOL0     H40576   9.546   7.735   5.573  0.2768  1.0135 -1.7223
 1019MOL0     H40577   9.569   7.639   5.723  0.4223  2.1176  1.5411
 1019MOL0     H40578   9.680   7.798   5.827 -4.0366 -4.2048  0.2384
 1019MOL0     H40579   9.683   7.914   5.684 -0.7127 -0.9820 -1.6504
 1019MOL0     H40580   9.719   8.052   5.911  0.2329 -0.8721  2.2907
 1019MOL0     H40581   9.736   8.207   6.176  3.5757  1.2098  0.1395
 1019MOL0     H40582   9.710   8.351   6.085 -0.6221 -0.4757  4.4228
 1019MOL0     H40583   9.803   8.215   6.012 -1.1415 -6.9811  0.2371
 1019MOL0     H40584   9.385   8.623   6.218  1.5406 -1.3437 -0.1561
 1019MOL0     H40585   9.422   8.795   6.391 -0.7135 -0.3488  1.4033
 1019MOL0     H40586   9.599   8.662   6.772  3.2866  0.2825  2.6365
 1019MOL0     H40587   9.736   8.747   6.691  0.2873  3.0700  1.0877
 1019MOL0     H40588   9.690   8.857   6.899 -0.3004  2.2023  0.7398
 1019MOL0     H40589   9.657   8.968   6.771 -0.1177 -1.2259 -2.2312
 1019MOL0     H40590   9.428   8.813   6.855 -1.5481  1.0822  0.1934
 1019MOL0     H40591   9.433   8.969   6.775 -1.8042  0.7858  1.5892
 1019MOL0     H40592   9.531   9.090   6.962 -0.6895 -1.1166  0.1295
 1019MOL0     H40593   9.519   8.953   7.069  0.7807 -0.7495 -0.4535
 1019MOL0     H40594   9.342   9.127   7.097  3.6575  1.1748 -1.6775
 1019MOL0     H40595   9.276   9.067   6.948 -2.8624 -2.2095  2.2427
 1019MOL0     H40596   9.308   8.863   7.168 -0.6945  1.5366  1.7629
 1019MOL0     H40597   9.226   8.859   7.016 -0.6630 -1.6476  1.1682
 1019MOL0     H40598   9.088   9.055   7.084 -3.0247  1.1367  2.2660
 1019MOL0     H40599   9.156   9.062   7.235 -1.1308  3.0781 -2.7272
 1019MOL0     H40600   9.071   8.825   7.287  0.6053  0.4408 -0.3369
 1019MOL0     H40601   9.000   8.816   7.128 -3.7800  2.0989 -0.3683
 1019MOL0     H40602   9.685   8.552   6.602  0.5653  4.6178 -0.2468
 1019MOL0     H40603   9.646   8.352   6.426 -3.7771 -1.9323 -2.9366
 1019MOL0     H40604   9.249   8.159   6.030 -0.0574 -0.8857 -1.2951
 1019MOL0     H40605   9.286   7.987   5.870 -0.4168  0.6703 -0.1229
 1019MOL0     H40606   9.420   6.695   4.461  0.8237 -0.5603 -3.5834
 1019MOL0     H40607   9.310   6.546   4.280  0.5483 -1.9602  2.2027
 1019MOL0     H40608   8.767   6.313   4.214  1.5619  2.2721  2.5495
 1019MOL0     H40609   8.735   6.103   4.054  0.0974 -2.5149  4.1061
 1019MOL0     H40610   8.975   6.097   3.736 -0.4786  0.8823  1.1164
 1019MOL0     H40611   9.093   5.988   3.819  0.1043  1.7663 -0.1718
 1019MOL0     H40612   8.919   5.797   3.738  2.7048  1.0952  3.3725
 1019MOL0     H40613   9.024   5.866   3.616 -0.6444  0.6602 -0.5995
 1019MOL0     H40614   8.742   5.980   3.685 -0.6706 -0.0753  0.1811
 1019MOL0     H40615   8.856   6.012   3.542  2.2195 -0.6873 -0.2257
 1019MOL0     H40616   8.663   5.853   3.472 -0.2154 -2.7436  0.6350
 1019MOL0     H40617   8.739   5.737   3.575 -0.2275  1.7343  3.0433
 1019MOL0     H40618   8.964   5.699   3.230 -0.6667 -0.0969  0.6288
 1019MOL0     H40619   9.132   6.134   3.941  0.1223 -0.4698 -0.7698
 1019MOL0     H40620   9.258   6.310   4.210 -1.0158 -2.4346 -0.3106
 1019MOL0     H40621   9.292   6.261   4.052 -1.8279  0.7001 -2.3211
 1019MOL0     H40622   9.248   6.426   4.060  0.0451  1.6775  1.3531
 1020MOL0     O40623   3.805   9.594  10.136  0.9861  0.3105  0.3115
 1020MOL0     C40624   3.718   9.521  10.102 -0.1985  0.6345 -0.0088
 1020MOL0     O40625   3.692   9.481   9.969 -0.2043 -0.5273 -0.7050
 1020MOL0     C40626   3.759   9.558   9.866 -0.2686 -0.7692 -0.1290
 1020MOL0     C40627   3.826   9.491   9.759  0.2634  0.2019 -1.9194
 1020MOL0     C40628   3.891   9.574   9.662 -0.1331 -0.5311 -0.1351
 1020MOL0     C40629   3.886   9.711   9.673 -0.2835 -0.7000 -0.0309
 1020MOL0     O40630   3.957   9.778   9.569  0.0681  0.2153 -0.7085
 1020MOL0     C40631   3.951   9.920   9.557  0.2636 -0.3277  0.1371
 1020MOL0     C40632   4.053   9.989   9.645  0.4720  0.1318 -0.2127
 1020MOL0     C40633   4.192   9.932   9.616  0.3442  0.2938  0.5393
 1020MOL0     C40634   4.251   9.967   9.479 -0.5490  0.0608 -0.3239
 1020MOL0     C40635   4.396   9.914   9.451  0.0786 -1.2234 -0.4229
 1020MOL0     C40636   4.409   9.766   9.411  1.1153  0.1275  0.5661
 1020MOL0     C40637   4.355   9.732   9.277  1.0761 -0.4979 -0.3083
 1020MOL0     C40638   4.401   9.586   9.232 -0.2496 -0.8208  0.0495
 1020MOL0     N40639   4.313   9.485   9.287  0.4263  0.1948 -0.1944
 1020MOL0     C40640   4.298   9.440   9.420  1.0151  0.8100 -1.1054
 1020MOL0     C40641   4.204   9.334   9.401 -0.7779 -0.2685  0.5865
 1020MOL0     C40642   4.157   9.249   9.509  0.5267  0.7206 -0.2344
 1020MOL0     C40643   4.141   9.099   9.470  0.4569 -0.2350  0.7454
 1020MOL0     C40644   4.265   9.035   9.411  0.5521  0.0708  0.5701
 1020MOL0     C40645   4.386   9.045   9.488 -0.9523  0.4380 -0.8287
 1020MOL0     O40646   4.373   8.953   9.606 -0.6794 -0.0729  0.3203
 1020MOL0     C40647   4.486   8.940   9.693  0.1852  0.1412  0.1223
 1020MOL0     C40648   4.617   8.999   9.666  0.8966  0.1845 -0.2216
 1020MOL0     C40649   4.727   8.975   9.741 -0.7227 -0.4165  0.7963
 1020MOL0     C40650   4.858   9.052   9.716  0.1742 -0.2241 -0.2721
 1020MOL0     C40651   4.711   8.880   9.846  0.0483  0.0937  0.8333
 1020MOL0     C40652   4.813   8.833   9.944 -0.8558 -0.1081  0.2014
 1020MOL0     O40653   4.907   8.923   9.976  0.1602  0.7268  0.4864
 1020MOL0     C40654   5.023   8.861  10.019 -0.7434  0.0403  1.1826
 1020MOL0     C40655   5.107   8.818   9.923 -0.0237  0.0162  0.1299
 1020MOL0     C40656   5.236   8.796   9.952 -0.4610  0.6929  0.0038
 1020MOL0     C40657   5.286   8.805  10.080  0.5321 -0.5142 -0.0069
 1020MOL0     O40658   5.421   8.788  10.097  0.0982 -0.3459 -0.0259
 1020MOL0     C40659   5.497   8.868  10.192  0.0219  0.3275  0.4429
 1020MOL0     C40660   5.649   8.848  10.170  0.3591 -0.1747  0.7955
 1020MOL0     C40661   5.723   8.900  10.299 -0.9696 -0.8866  0.4660
 1020MOL0     C40662   5.867   8.860  10.293 -0.3680  0.1986  0.2112
 1020MOL0     C40663   5.957   8.934  10.184 -0.7532 -0.8563 -0.0133
 1020MOL0     C40664   6.069   8.839  10.126  0.2472  0.4654 -0.4992
 1020MOL0     C40665   6.170   8.910  10.037 -0.6447  0.8263 -0.1858
 1020MOL0     C40666   6.254   8.798   9.971 -0.6763 -0.2617 -1.5382
 1020MOL0    Cl40667   6.399   8.862   9.883  0.1333  0.6145  0.1687
 1020MOL0     C40668   5.204   8.854  10.179  0.4643 -0.3287  0.6346
 1020MOL0     C40669   5.066   8.865  10.154 -0.7695  0.3818  0.1274
 1020MOL0     O40670   4.817   8.713   9.973 -0.1409  0.3002 -0.4499
 1020MOL0     C40671   4.587   8.811   9.863  1.0537 -0.2094 -1.3457
 1020MOL0     C40672   4.477   8.845   9.793  0.1776 -0.3260  0.5435
 1020MOL0     N40673   4.186   9.315   9.268  0.7979 -0.0932  0.4779
 1020MOL0     N40674   4.258   9.395   9.198  0.4808  0.5401 -0.3548
 1020MOL0     C40675   3.815   9.775   9.770 -0.1088  0.4819 -0.9097
 1020MOL0     C40676   3.752   9.698   9.864 -0.7929 -1.1040 -0.5308
 1020MOL0     C40677   3.618   9.483  10.205  0.4879  0.0632  0.2409
 1020MOL0     C40678   3.655   9.512  10.343  0.6398  0.2062 -0.4704
 1020MOL0     C40679   3.583   9.490  10.452  0.7791  0.5594 -0.5808
 1020MOL0     C40680   3.461   9.420  10.445  0.5885 -0.4570  0.2094
 1020MOL0     O40681   3.395   9.385  10.559  0.7343  0.1377 -0.3113
 1020MOL0     C40682   3.335   9.258  10.558  0.0099  0.7178 -0.0876
 1020MOL0     C40683   3.414   9.137  10.568 -0.1631  0.9042 -0.1798
 1020MOL0     C40684   3.501   9.131  10.698 -0.1132 -0.1011 -0.1073
 1020MOL0     C40685   3.598   9.254  10.715 -0.2317  0.6941  0.0527
 1020MOL0     C40686   3.710   9.207  10.803  0.6065 -0.0892 -0.1760
 1020MOL0     C40687   3.813   9.177  10.865  0.7453 -0.5468 -0.9241
 1020MOL0     C40688   3.414   9.389  10.309 -0.8646 -0.0634  0.1158
 1020MOL0     C40689   3.491   9.419  10.194  0.1710 -0.7516  0.6540
 1020MOL0     C40690   3.435   9.386  10.053  0.5146 -0.0126 -0.5355
 1020MOL0     H40691   3.837   9.384   9.754  0.6504 -0.0639  1.9922
 1020MOL0     H40692   3.936   9.534   9.572  0.1078  4.3115 -2.4926
 1020MOL0     H40693   3.852   9.959   9.582  0.5313 -0.6293  1.7923
 1020MOL0     H40694   3.974   9.942   9.452 -2.1873  0.3026 -0.3397
 1020MOL0     H40695   4.042  10.098   9.639 -0.7813 -0.0852 -3.1353
 1020MOL0     H40696   4.028   9.973   9.751 -2.6850  1.3385 -0.6574
 1020MOL0     H40697   4.263   9.974   9.688  0.4820 -0.5193  0.8949
 1020MOL0     H40698   4.193   9.824   9.636  1.9860  0.1664 -0.0550
 1020MOL0     H40699   4.189   9.937   9.395  1.4099 -3.5509 -0.6912
 1020MOL0     H40700   4.267  10.075   9.476 -1.2559  0.2397  1.2241
 1020MOL0     H40701   4.457   9.947   9.536 -4.3092  0.4133  2.4630
 1020MOL0     H40702   4.435   9.984   9.376  1.7581 -2.3121 -0.6185
 1020MOL0     H40703   4.518   9.755   9.402  1.0728  1.1370 -2.0939
 1020MOL0     H40704   4.379   9.698   9.492  1.9380 -1.0636 -0.0921
 1020MOL0     H40705   4.397   9.793   9.197  0.2678  0.7588  0.1892
 1020MOL0     H40706   4.246   9.731   9.289  0.4987  0.0230 -4.2773
 1020MOL0     H40707   4.407   9.582   9.123 -0.8801 -1.1179  0.0223
 1020MOL0     H40708   4.501   9.569   9.274 -0.2907 -0.9390  0.0992
 1020MOL0     H40709   4.319   9.479   9.519  0.0916 -2.9751  0.7523
 1020MOL0     H40710   4.064   9.289   9.548  0.3726  1.9828 -1.7954
 1020MOL0     H40711   4.231   9.255   9.590 -0.5199  3.4078  0.6350
 1020MOL0     H40712   4.115   9.032   9.553  3.4319 -2.2551  0.2305
 1020MOL0     H40713   4.061   9.100   9.396  0.5881 -3.1262  0.4471
 1020MOL0     H40714   4.261   8.931   9.379  1.0284  0.4330 -0.7316
 1020MOL0     H40715   4.287   9.091   9.320 -1.1390 -2.2807 -1.3987
 1020MOL0     H40716   4.475   9.021   9.430 -0.5400 -0.4669  0.1379
 1020MOL0     H40717   4.415   9.148   9.514  1.2009 -0.1457 -0.7483
 1020MOL0     H40718   4.624   9.082   9.597 -0.0501  2.5441  2.3221
 1020MOL0     H40719   4.920   8.978   9.666  1.8623 -1.3081  3.1135
 1020MOL0     H40720   4.903   9.079   9.812 -0.1618  3.6113 -1.0079
 1020MOL0     H40721   4.846   9.142   9.655  2.6247 -0.1286 -0.6907
 1020MOL0     H40722   5.081   8.812   9.818  1.0279 -0.1660 -0.1240
 1020MOL0     H40723   5.300   8.746   9.880 -0.0114 -0.0876  0.9211
 1020MOL0     H40724   5.461   8.965  10.158 -2.4126 -1.2247 -1.8938
 1020MOL0     H40725   5.471   8.839  10.294  4.7878  0.6475  2.0068
 1020MOL0     H40726   5.665   8.740  10.178 -0.5792 -0.1746  4.1068
 1020MOL0     H40727   5.667   8.908  10.080 -2.5817 -0.3492 -0.0339
 1020MOL0     H40728   5.672   8.853  10.384 -2.9753  0.7751  0.2597
 1020MOL0     H40729   5.706   9.008  10.297 -1.7516 -1.0091 -1.7833
 1020MOL0     H40730   5.884   8.753  10.283  1.0182  0.4307 -0.1452
 1020MOL0     H40731   5.904   8.907  10.385  1.7061  3.7549 -2.1732
 1020MOL0     H40732   5.903   8.970  10.096  2.5752 -0.2684 -1.9928
 1020MOL0     H40733   5.998   9.022  10.234  1.9702 -0.5041 -2.6128
 1020MOL0     H40734   6.025   8.750  10.080 -2.8175  1.6822 -0.1551
 1020MOL0     H40735   6.125   8.797  10.210 -0.5505 -2.5615 -1.3541
 1020MOL0     H40736   6.242   8.963  10.100 -0.4752  0.3713  0.0049
 1020MOL0     H40737   6.109   8.970   9.969 -1.3041  0.3362 -0.0445
 1020MOL0     H40738   6.196   8.740   9.898  1.1735 -2.9140 -1.0393
 1020MOL0     H40739   6.288   8.728  10.047 -1.7370  1.5831  0.7935
 1020MOL0     H40740   5.245   8.865  10.279 -1.8796 -1.6040  1.8287
 1020MOL0     H40741   4.986   8.902  10.216  1.1003  1.6715  1.8859
 1020MOL0     H40742   4.577   8.733   9.938  1.6587  3.0149  2.3935
 1020MOL0     H40743   4.379   8.802   9.814 -1.5457  3.3699  0.9123
 1020MOL0     H40744   3.797   9.882   9.768  1.6288  0.7980 -1.1502
 1020MOL0     H40745   3.712   9.772   9.934 -0.1854  1.4885 -2.7730
 1020MOL0     H40746   3.750   9.560  10.366 -0.6458  1.6016  2.4461
 1020MOL0     H40747   3.630   9.521  10.544  2.1831 -0.7606 -0.8143
 1020MOL0     H40748   3.261   9.251  10.639 -0.5182 -2.5986 -0.7160
 1020MOL0     H40749   3.280   9.243  10.465 -0.0129 -1.1476  0.1754
 1020MOL0     H40750   3.480   9.137  10.481  1.3921  0.5288  0.9401
 1020MOL0     H40751   3.353   9.047  10.573  1.0666  0.0562  0.0660
 1020MOL0     H40752   3.436   9.138  10.785  0.7344  2.9283  0.3888
 1020MOL0     H40753   3.552   9.034  10.694 -1.1786 -0.7156 -4.3767
 1020MOL0     H40754   3.538   9.340  10.745 -1.6599  0.1901 -1.2004
 1020MOL0     H40755   3.636   9.272  10.614 -2.4194  0.5464 -0.8416
 1020MOL0     H40756   3.900   9.151  10.922  0.1025 -1.6604 -0.4099
 1020MOL0     H40757   3.310   9.360  10.306 -1.1686  0.5937  2.2499
 1020MOL0     H40758   3.492   9.306  10.004 -1.1425 -1.0074 -0.9162
 1020MOL0     H40759   3.330   9.359  10.069 -0.9932  4.8017 -0.5336
 1020MOL0     H40760   3.421   9.473   9.988  2.0505 -1.3903 -2.8593
 1021MOL0     O40761   0.663  11.411   9.571 -0.9075 -0.3663 -0.4734
 1021MOL0     C40762   0.668  11.432   9.449  0.1995 -0.5625  0.0803
 1021MOL0     O40763   0.674  11.559   9.390  0.4615  0.6539  0.6363
 1021MOL0     C40764   0.710  11.666   9.465 -0.8250  0.2377 -0.0843
 1021MOL0     C40765   0.822  11.745   9.416 -0.2505 -0.4516 -0.7158
 1021MOL0     C40766   0.863  11.858   9.487 -0.5642 -0.2027 -0.5594
 1021MOL0     C40767   0.783  11.903   9.594  0.1918  0.2590  0.3944
 1021MOL0     O40768   0.797  12.017   9.669  0.3483 -0.3446 -0.4713
 1021MOL0     C40769   0.903  12.115   9.654 -0.2616  0.1925 -1.2745
 1021MOL0     C40770   0.894  12.237   9.751  0.4372 -0.3520 -0.4386
 1021MOL0     C40771   0.870  12.192   9.886 -0.5172  0.9665  0.6644
 1021MOL0     C40772   0.838  12.312   9.973 -0.1709 -0.0992 -0.6944
 1021MOL0     C40773   0.687  12.349   9.949 -0.5529 -0.3572 -0.8651
 1021MOL0     C40774   0.638  12.484  10.000  0.2896  0.3426 -0.2520
 1021MOL0     C40775   0.715  12.615   9.956  0.4901  0.0587 -0.7543
 1021MOL0     C40776   0.746  12.614   9.818 -0.1539  0.1547  0.8376
 1021MOL0     N40777   0.825  12.729   9.779  0.7358 -0.1531 -0.5176
 1021MOL0     C40778   0.777  12.860   9.779  0.3456  0.1513  0.4064
 1021MOL0     C40779   0.883  12.939   9.749 -0.4940 -0.4514 -0.4905
 1021MOL0     C40780   0.887  13.089   9.732 -0.8370  0.5079  0.1868
 1021MOL0     C40781   0.974  13.134   9.620  0.4800  0.1556 -0.0149
 1021MOL0     C40782   0.977  13.288   9.603  0.1472  0.4169  0.5906
 1021MOL0     C40783   1.067  13.343   9.716  1.6730 -0.4211 -0.4259
 1021MOL0     O40784   1.043  13.486   9.704  0.1597  0.2799 -0.3520
 1021MOL0     C40785   1.159  13.558   9.663  0.2626  0.1567 -0.6080
 1021MOL0     C40786   1.228  13.546   9.539 -0.1521  0.5634  0.3735
 1021MOL0     C40787   1.348  13.608   9.519 -0.2408 -0.2077 -0.6081
 1021MOL0     C40788   1.435  13.571   9.399  0.5015  0.6066 -0.2706
 1021MOL0     C40789   1.395  13.710   9.607 -1.0254 -0.8895  0.3113
 1021MOL0     C40790   1.524  13.795   9.585  1.3091  0.2615  1.0119
 1021MOL0     O40791   1.531  13.904   9.666 -0.0890  0.2833 -0.0414
 1021MOL0     C40792   1.664  13.933   9.708  0.4103 -0.1725  1.0634
 1021MOL0     C40793   1.679  14.060   9.754  0.0465 -0.5994 -0.5671
 1021MOL0     C40794   1.798  14.111   9.809 -0.0452 -0.6772  0.4124
 1021MOL0     C40795   1.914  14.026   9.800  0.1978  1.0174 -0.1430
 1021MOL0     O40796   2.036  14.061   9.843  0.8014  0.4413 -0.1779
 1021MOL0     C40797   2.036  14.086   9.985 -0.5834 -0.0011 -0.1704
 1021MOL0     C40798   2.145  14.186  10.006 -0.7895 -1.0759 -0.5166
 1021MOL0     C40799   2.281  14.135   9.966  0.0979 -0.0520  0.3720
 1021MOL0     C40800   2.389  14.242   9.974 -0.3485  0.5989  1.1830
 1021MOL0     C40801   2.530  14.189  10.003  0.5414 -0.4103 -0.0643
 1021MOL0     C40802   2.582  14.093   9.898  0.6635  0.5917  0.3274
 1021MOL0     C40803   2.731  14.064   9.925 -0.2155  0.4053  1.0156
 1021MOL0     C40804   2.774  13.978  10.043  0.5186  0.1660 -0.9132
 1021MOL0    Cl40805   2.944  13.953  10.047 -0.0494 -0.5737 -0.1083
 1021MOL0     C40806   1.898  13.899   9.740 -0.7140  0.5711  0.0160
 1021MOL0     C40807   1.773  13.853   9.697  0.5349  0.2540 -0.1601
 1021MOL0     O40808   1.604  13.768   9.495  0.2464 -0.1645  0.0833
 1021MOL0     C40809   1.324  13.730   9.729 -0.9745  0.0018 -0.1992
 1021MOL0     C40810   1.211  13.655   9.753 -0.4784 -0.3834 -1.0646
 1021MOL0     N40811   0.988  12.854   9.730 -0.8703  0.1862 -0.6671
 1021MOL0     N40812   0.954  12.732   9.744 -0.1835  0.8538  0.2585
 1021MOL0     C40813   0.671  11.838   9.633  0.0787  0.4263  1.1285
 1021MOL0     C40814   0.633  11.718   9.579 -0.5939 -0.2956  0.3169
 1021MOL0     C40815   0.663  11.319   9.359 -0.4795 -1.2337 -0.9532
 1021MOL0     C40816   0.598  11.335   9.237  0.5770 -0.2301  0.1894
 1021MOL0     C40817   0.585  11.229   9.149 -0.4705 -0.3853  0.3698
 1021MOL0     C40818   0.633  11.106   9.177 -0.2977 -0.1793 -0.7340
 1021MOL0     O40819   0.622  10.994   9.099  0.4661  0.4407 -0.9688
 1021MOL0     C40820   0.532  11.000   8.994 -0.5243 -0.0684 -0.3206
 1021MOL0     C40821   0.572  10.869   8.918  0.3150  1.5699 -0.6969
 1021MOL0     C40822   0.539  10.732   8.987 -0.2845 -0.5846  0.4880
 1021MOL0     C40823   0.601  10.623   8.894  0.4882 -0.5822 -0.2114
 1021MOL0     C40824   0.528  10.603   8.768  0.6899 -0.7350  0.0239
 1021MOL0     C40825   0.470  10.595   8.661 -0.2142  0.8911  0.1335
 1021MOL0     C40826   0.703  11.089   9.298  0.3080  0.6782  0.3804
 1021MOL0     C40827   0.722  11.194   9.388 -0.4365  0.5435  0.2293
 1021MOL0     C40828   0.804  11.162   9.505  0.1255  0.4268  0.3503
 1021MOL0     H40829   0.885  11.709   9.335 -1.5869 -2.6456 -0.8462
 1021MOL0     H40830   0.940  11.927   9.456  0.0110  0.2403  1.6773
 1021MOL0     H40831   0.906  12.143   9.549 -0.7237 -2.7523 -2.1851
 1021MOL0     H40832   0.999  12.064   9.668  0.8581  2.3230 -0.7012
 1021MOL0     H40833   0.985  12.298   9.746 -0.6831  1.3939 -0.1175
 1021MOL0     H40834   0.815  12.301   9.712 -1.2855 -0.7178  2.2302
 1021MOL0     H40835   0.801  12.108   9.885 -0.5824  1.0094 -0.7842
 1021MOL0     H40836   0.965  12.162   9.930 -0.1139  0.0644 -0.7659
 1021MOL0     H40837   0.852  12.298  10.080  0.4628  1.5708 -0.5346
 1021MOL0     H40838   0.907  12.391   9.942  2.5599 -0.9393  2.6296
 1021MOL0     H40839   0.633  12.266   9.995 -0.1241  0.4083  1.0830
 1021MOL0     H40840   0.652  12.339   9.846  1.1551 -0.7339 -1.4541
 1021MOL0     H40841   0.534  12.493   9.966  0.7528 -1.6006 -2.3969
 1021MOL0     H40842   0.640  12.478  10.109 -2.9877  2.5990  0.0975
 1021MOL0     H40843   0.807  12.616  10.015 -0.7201 -1.2650  1.2694
 1021MOL0     H40844   0.645  12.697   9.974 -2.7636 -2.9020  1.6138
 1021MOL0     H40845   0.794  12.522   9.786 -0.5226  0.4429 -0.6417
 1021MOL0     H40846   0.650  12.620   9.766 -0.4972 -1.0960  1.3046
 1021MOL0     H40847   0.684  12.905   9.811 -0.1408 -0.9718  0.6171
 1021MOL0     H40848   0.927  13.142   9.819  1.1895  0.9823 -0.9803
 1021MOL0     H40849   0.790  13.139   9.721 -0.2585  2.1241  1.8401
 1021MOL0     H40850   1.080  13.109   9.631 -0.0712 -2.4291  0.2084
 1021MOL0     H40851   0.950  13.070   9.535  0.2414 -0.9687  0.8635
 1021MOL0     H40852   1.021  13.315   9.506 -0.9940  0.8529  0.1759
 1021MOL0     H40853   0.878  13.332   9.612 -0.0589  0.3666 -1.0889
 1021MOL0     H40854   1.033  13.317   9.817  2.0449 -0.9079 -0.4258
 1021MOL0     H40855   1.170  13.309   9.719  1.0731 -2.4631  3.1561
 1021MOL0     H40856   1.186  13.477   9.467  1.5104 -0.8668  0.7183
 1021MOL0     H40857   1.436  13.655   9.329  2.5198  1.5863  0.8485
 1021MOL0     H40858   1.387  13.483   9.354  0.0898  0.3276  0.6839
 1021MOL0     H40859   1.539  13.547   9.423  0.6488  0.6497 -0.8425
 1021MOL0     H40860   1.593  14.126   9.747  1.3657  1.0285 -2.3774
 1021MOL0     H40861   1.799  14.211   9.852 -0.9385 -1.3456  2.0565
 1021MOL0     H40862   1.943  14.125  10.027 -0.8358  0.9173 -1.4999
 1021MOL0     H40863   2.061  14.001  10.049  1.3941  0.3875 -0.3415
 1021MOL0     H40864   2.120  14.283   9.961  2.6795 -0.7269 -2.0209
 1021MOL0     H40865   2.144  14.198  10.115 -1.4095  0.7102 -0.6757
 1021MOL0     H40866   2.285  14.094   9.865 -2.6984  2.8083 -1.0841
 1021MOL0     H40867   2.301  14.053  10.036  2.0002  0.7263  0.7988
 1021MOL0     H40868   2.353  14.307  10.054 -0.9076  2.1574 -0.2757
 1021MOL0     H40869   2.396  14.319   9.897 -2.7104  0.4362  0.7317
 1021MOL0     H40870   2.596  14.276  10.009  2.0489 -1.5687  0.9758
 1021MOL0     H40871   2.532  14.137  10.099  0.4974 -3.5716 -1.6323
 1021MOL0     H40872   2.560  14.122   9.795 -0.1263  2.6745  1.0200
 1021MOL0     H40873   2.540  13.993   9.904  1.9079  0.0272 -0.1576
 1021MOL0     H40874   2.782  14.161   9.925  2.0032 -0.6851 -0.4059
 1021MOL0     H40875   2.778  14.015   9.839 -0.1019  2.0392  0.0973
 1021MOL0     H40876   2.730  13.880  10.025  1.9600 -0.2126 -2.6476
 1021MOL0     H40877   2.739  13.996  10.146  0.1536 -2.9084 -0.3958
 1021MOL0     H40878   1.991  13.845   9.735  0.8426  2.9879  0.9486
 1021MOL0     H40879   1.765  13.751   9.660  1.4389  0.2325 -0.3051
 1021MOL0     H40880   1.352  13.800   9.807  2.4602 -2.4001  0.9556
 1021MOL0     H40881   1.164  13.676   9.849 -0.4307  0.7886 -1.2839
 1021MOL0     H40882   0.603  11.890   9.699  0.8823  5.4951 -1.5192
 1021MOL0     H40883   0.541  11.685   9.627 -0.7357  0.6965  0.7670
 1021MOL0     H40884   0.554  11.429   9.207 -0.6764 -0.7052  0.4772
 1021MOL0     H40885   0.543  11.275   9.060  0.5330  2.0662  1.0555
 1021MOL0     H40886   0.427  11.006   9.022 -2.0429 -2.2002 -4.6491
 1021MOL0     H40887   0.548  11.080   8.921  0.1807 -0.9510 -1.1597
 1021MOL0     H40888   0.680  10.875   8.900  0.4634  1.9304  0.2221
 1021MOL0     H40889   0.521  10.869   8.822  0.0592  2.6556 -0.5733
 1021MOL0     H40890   0.588  10.723   9.084 -0.2637  2.4059  0.8431
 1021MOL0     H40891   0.433  10.706   8.985 -0.9946  1.9528 -2.1575
 1021MOL0     H40892   0.588  10.527   8.944  0.8441 -0.7489 -0.4311
 1021MOL0     H40893   0.707  10.642   8.873 -0.2703  0.4638 -3.8905
 1021MOL0     H40894   0.429  10.594   8.562 -0.1974  2.1223  0.1025
 1021MOL0     H40895   0.741  10.990   9.319 -2.1401 -0.6143 -0.8662
 1021MOL0     H40896   0.911  11.164   9.484 -0.4544  0.8710 -2.9606
 1021MOL0     H40897   0.776  11.224   9.591 -2.8330 -1.4670  0.9079
 1021MOL0     H40898   0.776  11.061   9.537 -1.5143  0.8179  0.2260
 1022MOL0     O40899   4.509   4.145   6.889 -0.0558 -0.0401 -0.5395
 1022MOL0     C40900   4.396   4.117   6.912  0.1146 -0.1518  0.8637
 1022MOL0     O40901   4.301   4.090   6.808  0.1367 -0.1640 -0.5158
 1022MOL0     C40902   4.356   4.050   6.688 -0.4466  0.1020  0.2615
 1022MOL0     C40903   4.431   4.136   6.608  0.1832  0.8037 -0.1581
 1022MOL0     C40904   4.473   4.093   6.484 -0.7510 -0.7794  0.0884
 1022MOL0     C40905   4.449   3.966   6.431 -0.8447 -0.7590  0.8837
 1022MOL0     O40906   4.513   3.914   6.313 -0.3569 -0.6941 -0.8229
 1022MOL0     C40907   4.529   4.005   6.202 -0.4322 -0.2973 -0.8958
 1022MOL0     C40908   4.566   3.938   6.070  0.0761  0.9138 -1.0272
 1022MOL0     C40909   4.662   3.823   6.085  0.9686 -0.1865 -0.0106
 1022MOL0     C40910   4.793   3.862   6.155  0.2347  0.0508  0.0979
 1022MOL0     C40911   4.898   3.757   6.132  1.0691  0.6809 -0.8296
 1022MOL0     C40912   5.011   3.781   6.238 -0.4806  0.3031  0.3328
 1022MOL0     C40913   5.125   3.674   6.222 -0.5953  0.3198 -0.7725
 1022MOL0     C40914   5.237   3.677   6.328  1.2539  0.9716  0.6444
 1022MOL0     N40915   5.371   3.632   6.285 -0.3105 -0.2262 -1.2640
 1022MOL0     C40916   5.460   3.661   6.178  0.6158  0.3958  0.2525
 1022MOL0     C40917   5.576   3.603   6.218  0.0038 -0.5620  1.0747
 1022MOL0     C40918   5.712   3.631   6.157  0.3337  0.2963  0.3641
 1022MOL0     C40919   5.759   3.517   6.074 -0.1627 -0.2613  0.6028
 1022MOL0     C40920   5.902   3.528   6.017  0.0180  0.5435 -0.4903
 1022MOL0     C40921   5.922   3.404   5.934  0.4757 -0.1516 -0.9794
 1022MOL0     O40922   5.922   3.286   6.025  0.1988 -0.1768 -0.0374
 1022MOL0     C40923   5.877   3.169   5.967 -0.0724 -0.3079  0.2283
 1022MOL0     C40924   5.960   3.107   5.863  0.8308 -0.4174 -0.6094
 1022MOL0     C40925   5.916   2.995   5.792  0.2226  0.0756  0.0113
 1022MOL0     C40926   6.016   2.945   5.682 -0.3958  0.1308  0.3995
 1022MOL0     C40927   5.782   2.956   5.796  0.2292 -0.8566  0.5621
 1022MOL0     C40928   5.717   2.864   5.701  1.3017  0.6721 -0.3629
 1022MOL0     O40929   5.759   2.851   5.573 -0.8245 -0.4045 -0.4442
 1022MOL0     C40930   5.703   2.761   5.490 -0.1333 -1.4692 -0.2288
 1022MOL0     C40931   5.630   2.808   5.385  0.1690  0.2968  0.7050
 1022MOL0     C40932   5.572   2.721   5.297 -0.1751 -0.2174  0.1820
 1022MOL0     C40933   5.579   2.586   5.303  0.0601  0.0197 -1.3211
 1022MOL0     O40934   5.521   2.518   5.198  0.5705  0.0480  0.2837
 1022MOL0     C40935   5.532   2.379   5.185 -0.2885  0.8089 -0.5413
 1022MOL0     C40936   5.669   2.344   5.124 -0.3566  0.7075 -0.0720
 1022MOL0     C40937   5.688   2.408   4.977 -0.1499  0.1296 -0.0282
 1022MOL0     C40938   5.836   2.400   4.939  0.0581  0.2599  0.2339
 1022MOL0     C40939   5.862   2.405   4.789  0.0943  0.1682  0.2497
 1022MOL0     C40940   5.791   2.291   4.714  0.9294 -0.4629  0.5048
 1022MOL0     C40941   5.846   2.258   4.575 -0.3145 -0.1420  0.0340
 1022MOL0     C40942   5.999   2.221   4.578 -0.3158 -0.2251  0.4441
 1022MOL0    Cl40943   6.047   2.103   4.446 -0.5003  0.4829 -0.0271
 1022MOL0     C40944   5.657   2.538   5.414  0.5591 -0.4079  0.4277
 1022MOL0     C40945   5.716   2.630   5.502 -0.7273 -0.2966 -0.6341
 1022MOL0     O40946   5.662   2.772   5.761 -0.6039  1.0366 -0.8208
 1022MOL0     C40947   5.703   3.028   5.888 -1.0925 -0.8014  0.5282
 1022MOL0     C40948   5.739   3.136   5.964 -0.1561  0.0634  0.4338
 1022MOL0     N40949   5.541   3.509   6.309 -0.0181  0.4206 -0.4075
 1022MOL0     N40950   5.422   3.519   6.337 -0.1305 -0.3425 -0.2195
 1022MOL0     C40951   4.381   3.876   6.519  0.4183  0.4079  0.8720
 1022MOL0     C40952   4.337   3.916   6.646 -0.5599  0.0092 -0.0402
 1022MOL0     C40953   4.354   4.140   7.051 -0.0161  0.1363  0.3695
 1022MOL0     C40954   4.447   4.194   7.141 -0.6499 -0.4223  0.1255
 1022MOL0     C40955   4.412   4.224   7.278 -0.7244  0.2179  0.7373
 1022MOL0     C40956   4.286   4.194   7.332 -0.5028 -0.5301  0.2150
 1022MOL0     O40957   4.276   4.214   7.467  0.3106  0.3064 -0.1635
 1022MOL0     C40958   4.145   4.216   7.521  0.5244 -0.4374  0.1803
 1022MOL0     C40959   4.154   4.290   7.658  0.3392 -0.1577  0.5605
 1022MOL0     C40960   4.231   4.209   7.761  0.6816 -0.0573 -0.8574
 1022MOL0     C40961   4.236   4.290   7.895 -0.9115 -0.1348  0.1302
 1022MOL0     C40962   4.314   4.202   7.980 -0.3094 -0.6594  0.1173
 1022MOL0     C40963   4.382   4.133   8.049  0.4276  0.0916  1.1844
 1022MOL0     C40964   4.193   4.137   7.241 -0.0127 -0.2044  0.1823
 1022MOL0     C40965   4.223   4.108   7.102  0.4516  0.4550 -0.1554
 1022MOL0     C40966   4.116   4.044   7.032  1.4303 -0.2557 -0.9124
 1022MOL0     H40967   4.461   4.232   6.649 -1.6386  1.9888 -1.4431
 1022MOL0     H40968   4.544   4.156   6.431 -2.1581  0.6721 -0.1226
 1022MOL0     H40969   4.612   4.077   6.213  0.2618 -1.0582 -1.0606
 1022MOL0     H40970   4.432   4.048   6.177 -0.1267  0.0279 -1.5659
 1022MOL0     H40971   4.473   3.894   6.033  1.1144 -0.3826 -2.2514
 1022MOL0     H40972   4.602   4.010   5.996 -0.1259  4.7144  2.2732
 1022MOL0     H40973   4.611   3.752   6.151 -0.5564  2.2959  1.6651
 1022MOL0     H40974   4.678   3.780   5.986 -2.8143 -0.8026 -0.5046
 1022MOL0     H40975   4.817   3.957   6.106 -2.6945  1.3749  1.0033
 1022MOL0     H40976   4.777   3.873   6.263  3.2210  0.9493  0.5184
 1022MOL0     H40977   4.932   3.771   6.029 -1.5756 -0.9977 -2.0378
 1022MOL0     H40978   4.865   3.655   6.153  2.4858 -0.4409 -3.5067
 1022MOL0     H40979   5.048   3.884   6.225  1.1261  0.0180  2.1807
 1022MOL0     H40980   4.979   3.756   6.339  2.4347 -0.2683  1.2157
 1022MOL0     H40981   5.164   3.702   6.124 -2.0378  1.1719 -1.1385
 1022MOL0     H40982   5.092   3.570   6.214  1.3966 -1.1049  4.8199
 1022MOL0     H40983   5.244   3.765   6.393  1.1335  0.1627  1.7830
 1022MOL0     H40984   5.212   3.600   6.402  0.2421 -2.3661 -2.8372
 1022MOL0     H40985   5.438   3.726   6.094 -0.9284 -3.0875 -2.2855
 1022MOL0     H40986   5.786   3.640   6.237 -1.0401  1.9215  1.5491
 1022MOL0     H40987   5.705   3.729   6.107 -0.4072  0.7177  1.2542
 1022MOL0     H40988   5.738   3.423   6.126  1.0794 -2.2127 -2.1741
 1022MOL0     H40989   5.699   3.508   5.983  2.5990 -0.0843 -1.3591
 1022MOL0     H40990   5.941   3.616   5.965  2.9452 -1.3382 -1.7257
 1022MOL0     H40991   5.977   3.512   6.095  1.8170  0.7556 -2.1044
 1022MOL0     H40992   5.846   3.397   5.855  0.7575 -0.0752 -1.2567
 1022MOL0     H40993   6.023   3.407   5.894 -0.4250 -1.8924 -3.6302
 1022MOL0     H40994   6.055   3.155   5.845  1.2552  1.0592  4.1506
 1022MOL0     H40995   6.120   2.978   5.692  0.6661 -1.7255 -2.9440
 1022MOL0     H40996   5.981   2.970   5.581 -0.7713  0.6533  0.6512
 1022MOL0     H40997   6.009   2.836   5.687  2.7872 -0.1351  0.9583
 1022MOL0     H40998   5.621   2.915   5.379  0.4983  0.2621 -0.6792
 1022MOL0     H40999   5.525   2.762   5.208  1.2023  2.6563  0.6745
 1022MOL0     H41000   5.503   2.322   5.273  1.5479 -2.3227 -1.7975
 1022MOL0     H41001   5.462   2.352   5.106  1.8086  2.1919 -3.0334
 1022MOL0     H41002   5.753   2.382   5.182  0.6576  0.6361 -1.4259
 1022MOL0     H41003   5.679   2.236   5.110 -0.2837  0.3513  2.3107
 1022MOL0     H41004   5.664   2.515   4.979  0.2304  0.2019  1.2231
 1022MOL0     H41005   5.619   2.344   4.921  2.1549 -1.5543 -1.1214
 1022MOL0     H41006   5.885   2.305   4.960  1.9365  0.2638 -3.2420
 1022MOL0     H41007   5.890   2.481   4.989 -0.1162  1.6970 -1.7550
 1022MOL0     H41008   5.830   2.501   4.748 -1.2725  0.0333  0.9392
 1022MOL0     H41009   5.971   2.396   4.778  0.0218 -0.3554 -0.1131
 1022MOL0     H41010   5.683   2.305   4.705  0.9563 -1.5733 -3.9249
 1022MOL0     H41011   5.801   2.196   4.768  2.4638 -1.5504 -1.5573
 1022MOL0     H41012   5.813   2.341   4.511 -2.1053  3.3526  4.8940
 1022MOL0     H41013   5.783   2.181   4.530 -0.1328  0.6950 -1.7395
 1022MOL0     H41014   6.015   2.170   4.674 -5.6606 -2.0538  0.7207
 1022MOL0     H41015   6.061   2.311   4.576 -0.7560  0.0820 -1.6223
 1022MOL0     H41016   5.664   2.430   5.422  0.0935 -0.9836 -4.1264
 1022MOL0     H41017   5.782   2.600   5.583  2.0717  2.2012 -1.7828
 1022MOL0     H41018   5.599   2.998   5.894 -1.3892  0.1996  0.5820
 1022MOL0     H41019   5.668   3.185   6.030  1.3467  2.0757  0.6453
 1022MOL0     H41020   4.370   3.778   6.475 -2.5399  0.2898  1.6872
 1022MOL0     H41021   4.277   3.847   6.704 -2.5761  2.4025  0.8991
 1022MOL0     H41022   4.553   4.206   7.125 -0.1746 -1.8212  1.8965
 1022MOL0     H41023   4.492   4.263   7.340 -0.1685 -1.0293  0.8385
 1022MOL0     H41024   4.067   4.253   7.454  2.1505  0.4955 -1.2601
 1022MOL0     H41025   4.102   4.118   7.541 -0.9325  0.2951  0.8549
 1022MOL0     H41026   4.054   4.311   7.696 -0.6899 -2.0200 -0.9379
 1022MOL0     H41027   4.202   4.388   7.653 -0.4941  0.3696  2.1953
 1022MOL0     H41028   4.182   4.112   7.773 -0.6974  0.3145 -2.8874
 1022MOL0     H41029   4.325   4.186   7.711  0.3606  0.3489 -1.6769
 1022MOL0     H41030   4.136   4.306   7.936 -2.0955 -1.8802 -1.8959
 1022MOL0     H41031   4.277   4.391   7.880  2.1699 -1.0607  1.4318
 1022MOL0     H41032   4.451   4.090   8.119  2.7446 -1.8773 -2.0312
 1022MOL0     H41033   4.096   4.120   7.286 -1.0087  4.7487  0.4690
 1022MOL0     H41034   4.081   4.106   6.949 -1.4898 -1.6410 -0.8511
 1022MOL0     H41035   4.155   3.951   6.990  1.5411 -1.3116  1.3891
 1022MOL0     H41036   4.034   4.030   7.103  1.2599  3.6727 -0.0921
 1023MOL0     O41037  11.359   8.438   0.005 -0.8572 -0.0425 -1.0463
 1023MOL0     C41038  11.298   8.333  -0.000  0.0734 -0.7225 -0.3333
 1023MOL0     O41039  11.356   8.210   0.011 -0.3836 -0.0829 -0.1690
 1023MOL0     C41040  11.496   8.208   0.042  0.1569 -0.2879 -0.1802
 1023MOL0     C41041  11.536   8.289   0.150 -0.8636 -0.5490 -0.4182
 1023MOL0     C41042  11.676   8.302   0.177 -0.1727 -0.3974 -0.5136
 1023MOL0     C41043  11.769   8.213   0.113 -0.2643 -0.0027 -0.6549
 1023MOL0     O41044  11.903   8.213   0.152 -0.0199  0.2238  0.1974
 1023MOL0     C41045  11.952   8.305   0.250 -0.7269  0.2255 -0.9969
 1023MOL0     C41046  12.102   8.298   0.237 -0.7539  0.2622 -0.1492
 1023MOL0     C41047  12.158   8.415   0.318  1.0486  0.6537 -0.0268
 1023MOL0     C41048  12.092   8.442   0.457 -0.4058 -0.8496 -0.2470
 1023MOL0     C41049  12.178   8.550   0.521  0.5687 -0.0324  0.1310
 1023MOL0     C41050  12.139   8.581   0.667  0.4065 -0.7847 -0.4844
 1023MOL0     C41051  12.239   8.668   0.735  0.8219 -0.6013  0.0153
 1023MOL0     C41052  12.182   8.748   0.851 -0.1972  0.1863 -0.1173
 1023MOL0     N41053  12.101   8.858   0.794 -0.0361 -0.1301  0.5410
 1023MOL0     C41054  12.132   8.945   0.690 -0.5218 -0.5737 -0.2117
 1023MOL0     C41055  12.023   9.026   0.681  0.7991  0.1312 -0.1987
 1023MOL0     C41056  12.029   9.153   0.598 -0.0727  0.2188 -0.8015
 1023MOL0     C41057  11.956   9.161   0.462 -0.3778  0.1471 -0.6687
 1023MOL0     C41058  12.015   9.266   0.370  0.4145 -0.5246  0.3461
 1023MOL0     C41059  11.992   9.404   0.419  0.4229 -0.0821 -0.0217
 1023MOL0     O41060  11.855   9.432   0.450  0.0805  0.6963  0.3915
 1023MOL0     C41061  11.805   9.554   0.453 -0.4598  0.0929  0.7580
 1023MOL0     C41062  11.668   9.582   0.465 -0.2532  0.2041 -0.1310
 1023MOL0     C41063  11.619   9.710   0.464  0.2880  0.6263 -0.3355
 1023MOL0     C41064  11.468   9.714   0.455  1.2637 -0.1431  0.4931
 1023MOL0     C41065  11.697   9.820   0.454  0.1093  0.6862 -0.3366
 1023MOL0     C41066  11.650   9.960   0.460  0.2307  0.4148  0.0343
 1023MOL0     O41067  11.534   9.985   0.528 -0.1880 -0.5700  0.6273
 1023MOL0     C41068  11.486  10.113   0.534 -0.2229 -0.0105 -0.5073
 1023MOL0     C41069  11.355  10.128   0.515  0.3354 -0.7692  0.0109
 1023MOL0     C41070  11.296  10.253   0.540  0.0507  0.3501  0.2316
 1023MOL0     C41071  11.356  10.366   0.587  0.6915  0.0498  0.3255
 1023MOL0     O41072  11.294  10.488   0.609 -0.3920  0.1561 -1.2006
 1023MOL0     C41073  11.237  10.542   0.494  0.1342  0.1295  0.6326
 1023MOL0     C41074  11.348  10.592   0.400 -0.3193  0.1877 -0.0660
 1023MOL0     C41075  11.286  10.663   0.280 -0.3397  0.2776 -0.4881
 1023MOL0     C41076  11.392  10.707   0.175 -0.0473 -0.7223 -0.1311
 1023MOL0     C41077  11.511  10.794   0.226  0.8411  0.8559  0.0902
 1023MOL0     C41078  11.596  10.827   0.099  0.5676 -0.1032  0.1973
 1023MOL0     C41079  11.730  10.900   0.138  0.1157  0.1033 -0.3356
 1023MOL0     C41080  11.801  10.965   0.013  0.2819  0.5652 -0.2507
 1023MOL0    Cl41081  11.827  10.830  -0.105  0.4317 -0.2570 -0.0774
 1023MOL0     C41082  11.495  10.359   0.610 -0.2550 -0.9465 -0.1849
 1023MOL0     C41083  11.553  10.230   0.581  0.1460 -0.4266 -0.1043
 1023MOL0     O41084  11.712  10.043   0.400 -0.1219 -0.4502 -0.1848
 1023MOL0     C41085  11.832   9.802   0.439 -0.3559  0.4174 -0.0513
 1023MOL0     C41086  11.888   9.671   0.436 -0.2365 -1.0106  0.3159
 1023MOL0     N41087  11.933   9.001   0.772  0.3191  0.0440 -0.4145
 1023MOL0     N41088  11.981   8.907   0.842  0.0127 -0.1460  0.4249
 1023MOL0     C41089  11.723   8.133   0.006 -0.5733  0.4316 -0.0087
 1023MOL0     C41090  11.589   8.134  -0.033 -0.5136  0.3814 -0.3970
 1023MOL0     C41091  11.151   8.345  -0.030  0.5577  0.6617 -0.2534
 1023MOL0     C41092  11.086   8.233  -0.097 -1.2051  0.6723 -0.8249
 1023MOL0     C41093  10.947   8.233  -0.120  1.0878 -0.4522 -0.0259
 1023MOL0     C41094  10.870   8.345  -0.091 -0.4301 -0.4401  0.3890
 1023MOL0     O41095  10.741   8.333  -0.135 -0.1867 -0.2582  0.8971
 1023MOL0     C41096  10.686   8.448  -0.206 -0.4498  0.7057  0.5149
 1023MOL0     C41097  10.532   8.448  -0.205  0.3748  0.2751  0.3621
 1023MOL0     C41098  10.470   8.489  -0.073 -0.5701 -1.3168  0.0962
 1023MOL0     C41099  10.506   8.637  -0.035  1.0770 -0.4778  0.1169
 1023MOL0     C41100  10.430   8.672   0.074  0.4360  0.0882  0.4200
 1023MOL0     C41101  10.367   8.748   0.155 -0.5474 -0.0746  0.1949
 1023MOL0     C41102  10.936   8.465  -0.039  0.2995 -0.2426 -0.1622
 1023MOL0     C41103  11.069   8.457   0.003 -0.2880  0.2031 -0.1689
 1023MOL0     C41104  11.111   8.573   0.092  0.0816  0.4848 -0.1701
 1023MOL0     H41105  11.469   8.359   0.200  0.3052  0.8198 -0.6782
 1023MOL0     H41106  11.710   8.379   0.245  1.0386 -0.2339 -1.2812
 1023MOL0     H41107  11.918   8.281   0.352 -2.0834  0.9635 -1.2541
 1023MOL0     H41108  11.931   8.407   0.216 -1.1704 -0.5305 -3.1150
 1023MOL0     H41109  12.141   8.201   0.271  1.8187  1.0513 -0.6709
 1023MOL0     H41110  12.138   8.319   0.136 -0.2910  0.2354  0.0079
 1023MOL0     H41111  12.266   8.405   0.331  0.6068 -2.3044  2.7565
 1023MOL0     H41112  12.149   8.507   0.259 -0.7925  1.7286  1.7792
 1023MOL0     H41113  11.987   8.468   0.440 -0.7681 -2.2172 -0.2495
 1023MOL0     H41114  12.079   8.354   0.521  1.0471 -0.8778  0.0470
 1023MOL0     H41115  12.178   8.640   0.459 -0.3305 -2.1047 -3.1416
 1023MOL0     H41116  12.282   8.516   0.522  0.7709  0.5599  0.8207
 1023MOL0     H41117  12.040   8.627   0.681  0.4643 -1.2820  1.9437
 1023MOL0     H41118  12.147   8.486   0.720  3.1983 -0.1534  0.3744
 1023MOL0     H41119  12.285   8.730   0.656  0.1061  0.4349  0.3864
 1023MOL0     H41120  12.321   8.605   0.770 -1.4507 -5.3526 -2.3307
 1023MOL0     H41121  12.116   8.692   0.918 -0.5762 -2.4695 -2.5172
 1023MOL0     H41122  12.262   8.788   0.914 -1.3282  0.1356  1.3945
 1023MOL0     H41123  12.225   8.946   0.634  0.3272 -2.6046  1.0655
 1023MOL0     H41124  12.133   9.186   0.607  0.2571 -0.7309 -0.9596
 1023MOL0     H41125  11.977   9.232   0.654  0.6737  0.1751 -0.0242
 1023MOL0     H41126  11.970   9.058   0.427  0.7494 -0.6779  1.9388
 1023MOL0     H41127  11.850   9.184   0.477  0.1650  1.8702  0.9655
 1023MOL0     H41128  12.121   9.255   0.346  0.4479  2.8434 -1.6018
 1023MOL0     H41129  11.956   9.251   0.279 -2.3402 -1.1716  2.1203
 1023MOL0     H41130  12.042   9.438   0.511  1.2391  0.9587 -0.8234
 1023MOL0     H41131  12.022   9.477   0.343 -0.2904  0.9710  0.6675
 1023MOL0     H41132  11.606   9.494   0.457 -0.4252  0.4415 -1.5295
 1023MOL0     H41133  11.419   9.760   0.369 -1.9997 -0.8022  1.8552
 1023MOL0     H41134  11.433   9.769   0.543  3.2223 -0.1164  1.3202
 1023MOL0     H41135  11.412   9.621   0.467  1.9320 -0.5576  0.5199
 1023MOL0     H41136  11.289  10.047   0.484 -0.9756  1.6194 -4.2686
 1023MOL0     H41137  11.189  10.256   0.521  0.0963 -0.8534 -0.3383
 1023MOL0     H41138  11.169  10.466   0.456 -0.7548  0.5991  1.2652
 1023MOL0     H41139  11.192  10.639   0.515  3.4419  3.3302 -4.6444
 1023MOL0     H41140  11.414  10.667   0.445 -1.0160  1.1697 -0.6305
 1023MOL0     H41141  11.400  10.501   0.371 -1.7081 -0.7129  0.1734
 1023MOL0     H41142  11.227  10.747   0.317 -2.6564 -1.5487  0.2258
 1023MOL0     H41143  11.218  10.594   0.228 -2.5135  3.3528 -2.0259
 1023MOL0     H41144  11.348  10.754   0.087 -1.0093 -1.8883 -0.2963
 1023MOL0     H41145  11.440  10.612   0.152 -0.1959 -2.1622  4.5023
 1023MOL0     H41146  11.479  10.882   0.282  0.3061  0.0534  1.0612
 1023MOL0     H41147  11.565  10.730   0.295 -1.1987  1.8853  2.8490
 1023MOL0     H41148  11.542  10.887   0.026 -1.0489 -0.5082  1.0206
 1023MOL0     H41149  11.619  10.737   0.041  1.9383  0.0533  0.4438
 1023MOL0     H41150  11.807  10.831   0.175  1.1401  0.0342 -2.4361
 1023MOL0     H41151  11.710  10.976   0.213  2.8610 -0.8009  1.4772
 1023MOL0     H41152  11.903  10.995   0.037  1.0632 -2.1720  0.1687
 1023MOL0     H41153  11.736  11.045  -0.025  0.7874  0.8170 -0.5917
 1023MOL0     H41154  11.558  10.446   0.626  1.0510 -1.7088 -0.9920
 1023MOL0     H41155  11.658  10.216   0.605 -0.4763 -0.8550  2.6932
 1023MOL0     H41156  11.904   9.880   0.417  0.8512 -1.1200 -1.9544
 1023MOL0     H41157  11.995   9.679   0.421  0.1140 -0.3899  2.7864
 1023MOL0     H41158  11.790   8.071  -0.053 -0.0301 -1.7470  2.7110
 1023MOL0     H41159  11.560   8.067  -0.114  1.4079 -0.8527 -0.1186
 1023MOL0     H41160  11.144   8.160  -0.152 -2.4771  0.5807 -2.1167
 1023MOL0     H41161  10.896   8.152  -0.171 -0.6731  0.0732  0.8101
 1023MOL0     H41162  10.722   8.546  -0.173  4.6216 -0.1654 -1.3971
 1023MOL0     H41163  10.716   8.442  -0.311  0.5484  1.2671  0.7509
 1023MOL0     H41164  10.504   8.346  -0.233  1.4673 -0.0474  0.3750
 1023MOL0     H41165  10.494   8.510  -0.287 -1.3057 -2.1231 -0.8129
 1023MOL0     H41166  10.361   8.479  -0.080 -0.7277 -1.8623  2.5330
 1023MOL0     H41167  10.510   8.415  -0.004 -1.2585 -1.0626  0.7776
 1023MOL0     H41168  10.481   8.707  -0.115  2.4310  1.6261  1.4133
 1023MOL0     H41169  10.612   8.659  -0.019  0.8127  2.4987 -1.4555
 1023MOL0     H41170  10.304   8.801   0.223 -0.6648  0.0499 -0.0090
 1023MOL0     H41171  10.869   8.549  -0.023  1.6335  0.4835  2.0905
 1023MOL0     H41172  11.031   8.646   0.102 -1.1108 -0.5579 -1.6523
 1023MOL0     H41173  11.135   8.547   0.196  1.6916  3.4253  0.3111
 1023MOL0     H41174  11.199   8.618   0.046 -1.7039  3.0735 -1.2474
 1024MOL0     O41175   5.450   4.902  10.665  0.1703  0.1893  0.0408
 1024MOL0     C41176   5.562   4.932  10.643 -0.0462 -0.2069  0.1028
 1024MOL0     O41177   5.620   4.927  10.521 -0.1220  0.5740  0.4758
 1024MOL0     C41178   5.543   4.922  10.402 -0.4761  0.6416 -1.7078
 1024MOL0     C41179   5.599   4.852  10.291  0.4541  0.2485 -0.0826
 1024MOL0     C41180   5.536   4.858  10.165 -1.4244  0.0719 -0.9644
 1024MOL0     C41181   5.416   4.924  10.149  0.8358  0.0617 -1.1157
 1024MOL0     O41182   5.359   4.929  10.026 -0.6871 -0.0864 -0.0923
 1024MOL0     C41183   5.232   4.868  10.009  0.4657 -0.0136  0.4211
 1024MOL0     C41184   5.151   4.943   9.901  0.0927 -1.0371 -1.1059
 1024MOL0     C41185   5.103   5.083   9.949 -0.3319 -0.5119  0.0281
 1024MOL0     C41186   5.094   5.185   9.835  0.5675  0.3926 -0.8052
 1024MOL0     C41187   5.040   5.321   9.873 -0.5922  0.2045  0.1382
 1024MOL0     C41188   4.890   5.328   9.900 -0.0826  0.2705  0.8394
 1024MOL0     C41189   4.845   5.464   9.947  0.3669  0.4765  0.7953
 1024MOL0     C41190   4.690   5.471   9.968  1.2029  0.6217 -0.4834
 1024MOL0     N41191   4.632   5.468   9.838 -0.1495 -0.7010 -0.4413
 1024MOL0     C41192   4.649   5.566   9.744 -0.3661  1.5729  0.7996
 1024MOL0     C41193   4.612   5.521   9.621 -0.7809 -0.8729 -1.2331
 1024MOL0     C41194   4.620   5.595   9.493  0.3009 -0.9784 -0.5142
 1024MOL0     C41195   4.510   5.712   9.489 -0.8953  0.6781  0.8274
 1024MOL0     C41196   4.372   5.652   9.464  0.2896 -0.4742  0.3952
 1024MOL0     C41197   4.357   5.542   9.349 -0.1409  0.2554 -0.5458
 1024MOL0     O41198   4.412   5.595   9.232  0.1524 -0.8999  0.5174
 1024MOL0     C41199   4.347   5.578   9.110 -0.9147 -0.2817  0.1315
 1024MOL0     C41200   4.295   5.447   9.077 -1.5331 -0.5941 -0.7099
 1024MOL0     C41201   4.263   5.425   8.942 -0.0687 -0.7313  0.3133
 1024MOL0     C41202   4.251   5.280   8.905  0.7450 -0.5569  1.0184
 1024MOL0     C41203   4.264   5.528   8.847 -0.1856  0.1276  0.2933
 1024MOL0     C41204   4.221   5.503   8.709  0.3570 -0.1409  0.1195
 1024MOL0     O41205   4.103   5.434   8.688 -0.1543  0.5349 -0.1039
 1024MOL0     C41206   4.096   5.377   8.564 -0.2553 -0.3920 -0.0490
 1024MOL0     C41207   3.973   5.378   8.504  0.1823  0.3956  0.6329
 1024MOL0     C41208   3.949   5.294   8.392  0.8692  0.2487 -0.9527
 1024MOL0     C41209   4.045   5.209   8.335 -0.1940  0.1981 -0.0034
 1024MOL0     O41210   4.010   5.141   8.218  0.2656 -0.4278 -0.3358
 1024MOL0     C41211   4.121   5.121   8.128 -0.3503  0.2510  0.0753
 1024MOL0     C41212   4.077   5.147   7.991  0.5437 -0.0413 -0.1372
 1024MOL0     C41213   4.014   5.293   7.969  0.8423  1.2088 -0.0272
 1024MOL0     C41214   3.937   5.299   7.831  0.4955  0.0931 -0.0189
 1024MOL0     C41215   3.870   5.440   7.796  0.4105 -0.1372 -0.6636
 1024MOL0     C41216   3.721   5.440   7.767  0.2377 -0.1258  0.2783
 1024MOL0     C41217   3.682   5.592   7.728 -0.2745 -0.1986  0.2854
 1024MOL0     C41218   3.539   5.589   7.675 -0.5142 -0.1110  0.1425
 1024MOL0    Cl41219   3.535   5.501   7.515  0.2797 -0.1407  0.0675
 1024MOL0     C41220   4.165   5.208   8.403 -0.4711 -0.0646 -0.0684
 1024MOL0     C41221   4.191   5.291   8.515  0.4526  0.5898  0.3893
 1024MOL0     O41222   4.285   5.554   8.616  0.3964  0.3404  0.2547
 1024MOL0     C41223   4.298   5.656   8.885  0.4093  0.3928  0.2149
 1024MOL0     C41224   4.344   5.684   9.017  0.0753 -0.3143  0.8627
 1024MOL0     N41225   4.550   5.401   9.652 -0.3793  0.0790  0.1866
 1024MOL0     N41226   4.563   5.367   9.775  0.3790  0.0542 -0.1650
 1024MOL0     C41227   5.361   5.001  10.259  0.3338  0.4193  0.2770
 1024MOL0     C41228   5.435   5.008  10.376 -0.0689  0.1096 -0.7695
 1024MOL0     C41229   5.641   4.959  10.765 -0.2569 -0.7318  1.0325
 1024MOL0     C41230   5.780   4.924  10.757  0.3212  0.8851  0.4825
 1024MOL0     C41231   5.868   4.941  10.863  0.5117 -0.0993 -0.3821
 1024MOL0     C41232   5.826   5.009  10.984 -0.3739  0.2689 -0.8289
 1024MOL0     O41233   5.900   5.057  11.093 -0.4293  0.2059  0.1439
 1024MOL0     C41234   6.041   5.069  11.069  0.0726 -0.1104  0.2122
 1024MOL0     C41235   6.104   4.955  11.138  0.0297 -0.8749 -0.3922
 1024MOL0     C41236   6.249   4.945  11.106  0.2577  0.3405 -0.2277
 1024MOL0     C41237   6.325   5.067  11.170 -0.2824  0.3798  0.8016
 1024MOL0     C41238   6.468   5.040  11.150 -0.2817 -0.6589  0.8875
 1024MOL0     C41239   6.589   5.041  11.137 -0.8173  0.1515  0.0620
 1024MOL0     C41240   5.699   5.040  10.998  0.2099 -0.5113  0.0086
 1024MOL0     C41241   5.607   5.025  10.888  1.2275  0.3732 -0.5737
 1024MOL0     C41242   5.465   5.071  10.908  0.6045  0.5571 -0.4310
 1024MOL0     H41243   5.692   4.805  10.322  1.3868  2.4387  0.6231
 1024MOL0     H41244   5.592   4.819  10.081  4.0110  2.4000  1.0942
 1024MOL0     H41245   5.171   4.869  10.100  1.1844 -1.6065  0.9554
 1024MOL0     H41246   5.248   4.766   9.972 -2.1429 -0.3138 -0.0997
 1024MOL0     H41247   5.209   4.961   9.810 -0.1575 -2.8830 -1.6857
 1024MOL0     H41248   5.074   4.870   9.873  0.4130 -2.1430  0.7423
 1024MOL0     H41249   5.006   5.083  10.000  0.1664  4.0048  1.4549
 1024MOL0     H41250   5.171   5.122  10.026 -0.1778 -1.0454  0.1642
 1024MOL0     H41251   5.194   5.201   9.793 -0.4796  1.6686 -2.9894
 1024MOL0     H41252   5.035   5.140   9.755 -0.5395 -1.6961  1.0600
 1024MOL0     H41253   5.053   5.394   9.792 -1.8767 -0.1721 -0.4388
 1024MOL0     H41254   5.087   5.349   9.968 -0.0349 -0.0511 -0.0615
 1024MOL0     H41255   4.830   5.302   9.812 -0.8160 -2.2272  1.9733
 1024MOL0     H41256   4.869   5.251   9.975 -0.2696 -3.2216 -2.4590
 1024MOL0     H41257   4.868   5.553   9.887  1.2676 -0.2705  0.0100
 1024MOL0     H41258   4.898   5.474  10.042  0.2592 -0.6989  0.9866
 1024MOL0     H41259   4.650   5.386  10.023  0.8085  0.6312 -0.7573
 1024MOL0     H41260   4.658   5.562  10.018  1.7642 -0.3467  1.7736
 1024MOL0     H41261   4.706   5.657   9.761  1.4015  1.0416 -1.6992
 1024MOL0     H41262   4.611   5.523   9.411 -3.7473 -3.2735  1.6476
 1024MOL0     H41263   4.724   5.629   9.486  1.5633 -3.4274  3.1045
 1024MOL0     H41264   4.518   5.784   9.570 -2.7954  1.5334  0.3126
 1024MOL0     H41265   4.529   5.762   9.394 -0.2894  0.0923  0.6329
 1024MOL0     H41266   4.325   5.618   9.557 -2.4987  0.7248 -0.4534
 1024MOL0     H41267   4.303   5.731   9.433  0.7233 -1.1364 -2.5743
 1024MOL0     H41268   4.404   5.451   9.385  0.1112 -0.3643 -2.3619
 1024MOL0     H41269   4.251   5.516   9.345  0.1674 -1.1354 -0.1325
 1024MOL0     H41270   4.308   5.364   9.146  0.0964  0.6598  0.5877
 1024MOL0     H41271   4.300   5.212   8.976  1.4042 -2.1421 -0.8650
 1024MOL0     H41272   4.302   5.268   8.809 -1.7821  1.2846 -0.6917
 1024MOL0     H41273   4.147   5.249   8.892  0.7893 -0.8400  1.3176
 1024MOL0     H41274   3.900   5.443   8.552  0.3938 -0.1636  1.7595
 1024MOL0     H41275   3.855   5.310   8.339  1.9970  4.2943 -2.1249
 1024MOL0     H41276   4.204   5.188   8.151  0.5439 -0.0958 -1.9490
 1024MOL0     H41277   4.167   5.022   8.133 -2.4176 -0.7811  0.0941
 1024MOL0     H41278   4.163   5.146   7.924  0.2721 -0.5675 -0.4861
 1024MOL0     H41279   3.999   5.079   7.956 -0.6377  0.1335  1.9855
 1024MOL0     H41280   4.100   5.361   7.962  2.0644 -0.2909 -0.0661
 1024MOL0     H41281   3.962   5.329   8.058  4.2626 -1.0262  3.1598
 1024MOL0     H41282   3.872   5.211   7.821  3.0878 -1.9161 -0.0356
 1024MOL0     H41283   4.015   5.274   7.758 -0.7754  0.2534 -1.5021
 1024MOL0     H41284   3.881   5.513   7.877  1.6445 -0.2877 -0.6831
 1024MOL0     H41285   3.929   5.480   7.713 -0.7343  0.2845 -1.3033
 1024MOL0     H41286   3.665   5.412   7.856  0.9809  0.8347  1.0716
 1024MOL0     H41287   3.705   5.371   7.683  1.5510  0.0017 -0.1041
 1024MOL0     H41288   3.731   5.641   7.644  1.4353  0.4752  1.6116
 1024MOL0     H41289   3.686   5.663   7.811 -0.0980  0.1749 -0.0428
 1024MOL0     H41290   3.512   5.693   7.660  0.4179 -0.0254 -1.0852
 1024MOL0     H41291   3.475   5.547   7.753  2.1326 -0.4358  2.2730
 1024MOL0     H41292   4.251   5.151   8.366  2.6628  3.6946  0.7503
 1024MOL0     H41293   4.286   5.282   8.566  1.5860  0.2899 -1.6770
 1024MOL0     H41294   4.295   5.739   8.815  2.6042 -0.9319 -1.6311
 1024MOL0     H41295   4.378   5.779   9.058 -3.1706  2.1368 -1.5538
 1024MOL0     H41296   5.269   5.056  10.242 -0.6153 -1.5055 -1.2264
 1024MOL0     H41297   5.415   5.064  10.467 -1.1873  0.6277 -1.3241
 1024MOL0     H41298   5.809   4.886  10.660 -1.2122  1.0357 -0.0664
 1024MOL0     H41299   5.970   4.914  10.840  0.7111 -0.7659  1.2150
 1024MOL0     H41300   6.074   5.078  10.965 -2.8626 -1.1369 -0.8948
 1024MOL0     H41301   6.076   5.152  11.132  1.7348  0.1583 -0.9985
 1024MOL0     H41302   6.053   4.864  11.107 -2.1163 -0.1405  0.7789
 1024MOL0     H41303   6.089   4.966  11.246  2.5440  4.5250 -0.2628
 1024MOL0     H41304   6.277   4.859  11.168  1.5528  3.8512  4.6882
 1024MOL0     H41305   6.280   4.923  11.003  2.6163 -0.0316  0.5097
 1024MOL0     H41306   6.315   5.074  11.279 -0.4613 -0.4654  0.8518
 1024MOL0     H41307   6.287   5.150  11.110 -1.5257 -0.7262  0.0083
 1024MOL0     H41308   6.693   5.033  11.111 -0.5536 -2.5297  1.6870
 1024MOL0     H41309   5.661   5.098  11.081 -0.3706  1.5221 -1.5965
 1024MOL0     H41310   5.420   5.110  10.816  1.2437 -2.2321 -2.0397
 1024MOL0     H41311   5.419   4.974  10.929  3.1994 -1.1133 -1.8543
 1024MOL0     H41312   5.446   5.138  10.992 -0.0485 -2.1642  1.7322
  11.56001  11.56001  11.56001
